/*--------------------------------*- C++ -*----------------------------------*\
| =========                 |                                                 |
| \\      /  F ield         | OpenFOAM: The Open Source CFD Toolbox           |
|  \\    /   O peration     | Version:  5.0                                   |
|   \\  /    A nd           | Web:      www.OpenFOAM.org                      |
|    \\/     M anipulation  |                                                 |
\*---------------------------------------------------------------------------*/
FoamFile
{
    version     2.0;
    format      ascii;
    class       volVectorField;
    location    "220";
    object      ddt0(U);
}
// * * * * * * * * * * * * * * * * * * * * * * * * * * * * * * * * * * * * * //

dimensions      [0 1 -2 0 0 0 0];

internalField   nonuniform List<vector> 
9520
(
(-0.00023705733 -9.5566832e-07 0)
(-0.00023464173 -2.1844245e-06 0)
(-0.00023474279 -9.370821e-07 0)
(-0.00022981689 -2.6908288e-06 0)
(-0.00023320847 -2.9872377e-06 0)
(-0.0002330842 2.8898124e-06 0)
(-0.0002223994 -2.6039883e-06 0)
(-0.00022939219 -4.5487964e-06 0)
(-0.00023127209 7.3470263e-06 0)
(-0.00024376467 8.2449351e-06 0)
(-0.00021251079 -1.5907229e-06 0)
(-0.00022353456 -5.5152209e-06 0)
(-0.00022757308 1.1018231e-05 0)
(-0.00024080184 2.3286957e-05 0)
(-0.000257836 1.0142223e-05 0)
(-0.00020059205 -7.1479986e-08 0)
(-0.0002154622 -4.4369306e-06 0)
(-0.00022295744 1.4360257e-05 0)
(-0.00023628152 3.676385e-05 0)
(-0.00025462494 3.0282552e-05 0)
(-0.00027427756 7.9498656e-06 0)
(-0.00018631675 1.9479339e-06 0)
(-0.00020515942 -1.6495626e-06 0)
(-0.0002171461 1.8385483e-05 0)
(-0.00023110275 4.9275261e-05 0)
(-0.0002501163 4.9563005e-05 0)
(-0.00027228596 2.5238888e-05 0)
(-0.00028453748 3.4446926e-06 0)
(-0.00016883326 5.019702e-06 0)
(-0.00019305122 2.6701868e-06 0)
(-0.00020921784 2.3707335e-05 0)
(-0.00022556504 6.035368e-05 0)
(-0.00024457888 6.837146e-05 0)
(-0.00026918523 4.3138573e-05 0)
(-0.00028400977 1.2044064e-05 0)
(-0.00028563018 4.5358275e-07 0)
(-0.00014647023 1.0284297e-05 0)
(-0.00017978092 8.7879474e-06 0)
(-0.0001997988 3.0577328e-05 0)
(-0.00021897721 7.1401436e-05 0)
(-0.00023873825 8.5075185e-05 0)
(-0.00026432002 6.1841761e-05 0)
(-0.00028248079 2.196014e-05 0)
(-0.00028650247 1.8741166e-06 0)
(-0.00028562797 1.404281e-06 0)
(-0.00011636284 2.0270943e-05 0)
(-0.00016739398 1.7703675e-05 0)
(-0.0001904631 3.9031757e-05 0)
(-0.00021145556 8.3214173e-05 0)
(-0.00023293066 0.00010086892 0)
(-0.00025851952 7.9924648e-05 0)
(-0.00027887961 3.3298738e-05 0)
(-0.00028646952 4.0332317e-06 0)
(-0.00028639121 3.0018473e-06 0)
(-0.00028884734 5.7713395e-06 0)
(-7.4431884e-05 4.2701818e-05 0)
(-0.00015987489 3.32587e-05 0)
(-0.00018504871 4.8989348e-05 0)
(-0.0002033123 9.60605e-05 0)
(-0.0002269232 0.00011655521 0)
(-0.00025338259 9.7480028e-05 0)
(-0.00027427813 4.6753107e-05 0)
(-0.0002855418 6.4739879e-06 0)
(-0.00028614785 4.2964255e-06 0)
(-0.00028877794 1.489154e-05 0)
(-0.00029902912 1.1013423e-05 0)
(-2.9978149e-05 8.2106391e-05 0)
(-0.0001670869 6.1390408e-05 0)
(-0.00019080709 5.971083e-05 0)
(-0.00019464798 0.00010895321 0)
(-0.00021968816 0.00013255669 0)
(-0.00024877489 0.00011504924 0)
(-0.00027078494 6.0698285e-05 0)
(-0.00028255387 1.2195272e-05 0)
(-0.00028648421 4.8172583e-06 0)
(-0.00028800514 2.2575634e-05 0)
(-0.00029783548 3.0661289e-05 0)
(-0.00031493195 1.4238654e-05 0)
(-1.2532618e-05 0.00014741308 0)
(-0.00021350821 0.00010895067 0)
(-0.00022223348 6.7487533e-05 0)
(-0.00018651173 0.00011703426 0)
(-0.00020777886 0.00014818712 0)
(-0.00024388511 0.00013329165 0)
(-0.00026880141 7.4799489e-05 0)
(-0.00027972765 1.9051143e-05 0)
(-0.00028701862 6.0967679e-06 0)
(-0.00028725455 2.9889673e-05 0)
(-0.000297032 4.8158426e-05 0)
(-0.00031326674 4.1658092e-05 0)
(-0.00033285722 1.3852108e-05 0)
(9.2144446e-06 0.00023970532 0)
(-0.00030424446 0.00018333876 0)
(-0.00026764364 6.2332825e-05 0)
(-0.00017385857 0.00010937807 0)
(-0.00018564182 0.00016084037 0)
(-0.00023663027 0.00015390625 0)
(-0.00026900168 8.9408038e-05 0)
(-0.00027754982 2.5257594e-05 0)
(-0.0002843542 8.2568909e-06 0)
(-0.00028648172 3.5795811e-05 0)
(-0.00029640458 6.5183693e-05 0)
(-0.00031243711 6.7412269e-05 0)
(-0.00033169746 4.2324354e-05 0)
(-0.0003479011 1.005655e-05 0)
(1.2490297e-05 0.00035130005 0)
(-0.00036371499 0.00022464912 0)
(-0.00024646012 7.7619264e-06 0)
(-0.0001197537 7.7131999e-05 0)
(-0.00013419741 0.00016777395 0)
(-0.0002191715 0.0001802223 0)
(-0.00027245961 0.00010655053 0)
(-0.00027799194 2.9678339e-05 0)
(-0.00028002311 9.611313e-06 0)
(-0.00028371611 4.1090895e-05 0)
(-0.00029532058 8.0747408e-05 0)
(-0.00031203384 9.1617531e-05 0)
(-0.00033101824 7.0706175e-05 0)
(-0.00034833079 3.2342724e-05 0)
(-0.00035691319 4.4578719e-06 0)
(-1.4648224e-06 0.00049682343 0)
(-0.00046556265 0.00026182782 0)
(-0.00020923987 -7.8568574e-05 0)
(-1.4675771e-05 1.3682359e-06 0)
(-4.843957e-05 0.00016863122 0)
(-0.00018864303 0.00022231166 0)
(-0.00028366176 0.00013353427 0)
(-0.00028580729 3.2131224e-05 0)
(-0.00027549005 7.9694369e-06 0)
(-0.00027862138 4.6102053e-05 0)
(-0.00029312334 9.5356877e-05 0)
(-0.0003111617 0.00011486156 0)
(-0.00033072833 9.7517149e-05 0)
(-0.00034875595 5.6205596e-05 0)
(-0.00035921287 1.5986376e-05 0)
(-0.00035920017 -7.0176123e-07 0)
(-2.625073e-05 0.00065028172 0)
(-0.00058692278 0.00023741338 0)
(-0.00017408845 -0.00019694547 0)
(6.4375333e-05 -8.3302375e-05 0)
(3.7930304e-05 0.00017761676 0)
(-0.00015445507 0.00029129823 0)
(-0.00031322921 0.00018012647 0)
(-0.00031247766 3.1812891e-05 0)
(-0.00027297505 -3.9737784e-07 0)
(-0.00026965232 4.9755333e-05 0)
(-0.000287974 0.00011045322 0)
(-0.00030960956 0.00013758379 0)
(-0.00033082621 0.00012290656 0)
(-0.00034908949 8.1317173e-05 0)
(-0.00036230816 2.9647057e-05 0)
(-0.00036290674 -3.189454e-08 0)
(-0.00035669274 -3.450009e-06 0)
(-4.5422808e-05 0.00088655729 0)
(-0.00084372836 0.00025063046 0)
(-0.00019134451 -0.00037089372 0)
(0.00025900397 -0.00017962794 0)
(0.00011698726 0.00021996849 0)
(-0.00013292183 0.00042588451 0)
(-0.00038170015 0.00025936675 0)
(-0.00036594348 2.533324e-05 0)
(-0.00027017086 -2.2399371e-05 0)
(-0.00025487341 4.9416139e-05 0)
(-0.00027874809 0.00012683908 0)
(-0.00030709856 0.00016125215 0)
(-0.00033135699 0.00014879193 0)
(-0.00035041752 0.00010453571 0)
(-0.00036375741 4.8559689e-05 0)
(-0.00036888698 2.4755464e-06 0)
(-0.00036117142 -9.416073e-06 0)
(-0.00035282146 -2.9705791e-06 0)
(-0.00015195146 0.0011683248 0)
(-0.0012124854 0.00011528645 0)
(-0.00018052615 -0.0004980939 0)
(0.00046886193 -0.00033320688 0)
(0.00021741828 0.00031033654 0)
(-0.00011869552 0.00060025034 0)
(-0.00049962225 0.00038666927 0)
(-0.00046247184 1.2570661e-05 0)
(-0.00027627447 -6.9118599e-05 0)
(-0.00023201739 4.0006001e-05 0)
(-0.00026220054 0.00014512732 0)
(-0.0003022571 0.00018771664 0)
(-0.00033269344 0.00017598696 0)
(-0.00035322499 0.00012913282 0)
(-0.00036631761 6.8245074e-05 0)
(-0.00037418168 9.63926e-06 0)
(-0.0003681882 -1.3568696e-05 0)
(-0.00035771717 -9.3595509e-06 0)
(-0.0003507434 5.895469e-08 0)
(-0.00027358922 0.0014752426 0)
(-0.0018151562 0.00031969701 0)
(-0.00023173827 -0.00095271192 0)
(0.00079283001 -0.00063683919 0)
(0.00051428668 0.0004741707 0)
(-0.0001452594 0.00082111977 0)
(-0.00066863924 0.00056054055 0)
(-0.00061106004 -2.1038587e-05 0)
(-0.00029265583 -0.00015146076 0)
(-0.00019625719 1.5282949e-05 0)
(-0.00023365541 0.00016535852 0)
(-0.00029234941 0.00021912654 0)
(-0.00033467514 0.00020647262 0)
(-0.00035814078 0.00015494811 0)
(-0.00037112703 8.8871559e-05 0)
(-0.00037719473 2.4196101e-05 0)
(-0.0003773914 -1.8199933e-05 0)
(-0.00036414111 -1.3607866e-05 0)
(-0.00035583102 -1.65596e-06 0)
(-0.00035204477 3.9641007e-06 0)
(-0.00040935858 0.0020482539 0)
(-0.0022924381 -0.00021661451 0)
(-0.00022762295 -0.0012810767 0)
(0.0012957722 -0.00092061364 0)
(0.00097941271 0.00071188571 0)
(-0.00019331881 0.0011509297 0)
(-0.00093304581 0.00079945611 0)
(-0.000823389 -7.8652223e-05 0)
(-0.00033682862 -0.00030284157 0)
(-0.0001397618 -4.0033249e-05 0)
(-0.00018374232 0.00018756825 0)
(-0.00027244239 0.00025924124 0)
(-0.00033723258 0.0002432309 0)
(-0.00036627734 0.00018296288 0)
(-0.00037796615 0.00010968087 0)
(-0.00038297239 3.8760812e-05 0)
(-0.00038581865 -1.5651888e-05 0)
(-0.0003737075 -2.0731419e-05 0)
(-0.00036192431 -1.6930397e-06 0)
(-0.00035689611 9.2089068e-06 0)
(-0.00035662679 7.0523682e-06 0)
(-0.00052584671 0.0023144149 0)
(-0.0033543964 0.00033856439 0)
(-0.0003250746 -0.0022097113 0)
(0.0020584995 -0.0015624783 0)
(0.0016462493 0.0010510844 0)
(-0.00029069804 0.0016730304 0)
(-0.0013573603 0.0010902221 0)
(-0.0011509561 -0.00019455775 0)
(-0.00034046333 -0.0005206241 0)
(-5.4123369e-05 -0.00015376724 0)
(-9.7393252e-05 0.00020344314 0)
(-0.00023193713 0.00031210694 0)
(-0.00033931709 0.00029262327 0)
(-0.00038041841 0.00021511362 0)
(-0.00038856921 0.00012970464 0)
(-0.00038953777 5.2282002e-05 0)
(-0.00039103639 -9.5611472e-06 0)
(-0.00038425276 -2.4432344e-05 0)
(-0.00037107126 -1.7755106e-06 0)
(-0.0003639976 1.4351943e-05 0)
(-0.00036070854 1.8739958e-05 0)
(-0.00036328883 8.3557418e-06 0)
(-0.00088466311 0.0032992509 0)
(-0.0037982718 -0.00078721959 0)
(-0.00029003525 -0.0027611957 0)
(0.0028948962 -0.0020214916 0)
(0.0025555208 0.0014677326 0)
(-0.00039761767 0.002439218 0)
(-0.002012327 0.0014969669 0)
(-0.0015793921 -0.00036963721 0)
(-0.00034616905 -0.00089237606 0)
(0.00015524866 -0.00032509317 0)
(8.5517799e-05 0.0002227761 0)
(-0.00015160487 0.00038269543 0)
(-0.00033733361 0.00036448145 0)
(-0.00040512912 0.00025617919 0)
(-0.00040700865 0.00014810235 0)
(-0.00039763378 6.1980438e-05 0)
(-0.00039463283 -3.7166974e-06 0)
(-0.00039190456 -2.6005099e-05 0)
(-0.00038235233 -2.1103532e-06 0)
(-0.00037337151 2.4674614e-05 0)
(-0.00036973867 2.8450686e-05 0)
(-0.00036662451 2.4073963e-05 0)
(-0.00037031809 7.6472365e-06 0)
(-0.0018918605 0.0035268534 0)
(-0.0057285401 0.00037743683 0)
(-0.00058503522 -0.0042902938 0)
(0.0043137155 -0.003380121 0)
(0.0037828892 0.0021635284 0)
(-0.00058248869 0.0035657457 0)
(-0.0029435315 0.0019896774 0)
(-0.0022602298 -0.0006657469 0)
(-0.00042886956 -0.0014306805 0)
(0.00050573774 -0.0006249753 0)
(0.00031353734 0.00017871465 0)
(-4.0581493e-06 0.00049154964 0)
(-0.00032670507 0.00048023815 0)
(-0.0004491666 0.0003151674 0)
(-0.00044078264 0.00016408556 0)
(-0.00040964476 6.4269306e-05 0)
(-0.00039622296 -2.1998276e-06 0)
(-0.00039586273 -2.6506544e-05 0)
(-0.00039062376 9.0744111e-07 0)
(-0.00038546384 3.2352113e-05 0)
(-0.00038068996 4.5673433e-05 0)
(-0.0003772806 3.8165326e-05 0)
(-0.00037394278 2.4089596e-05 0)
(-0.00037613737 5.0648678e-06 0)
(-0.0017674616 0.004794237 0)
(-0.0063706412 -0.0017606283 0)
(-0.00011269132 -0.0053110447 0)
(0.0054935926 -0.0037604001 0)
(0.0054002884 0.0027283039 0)
(-0.00074386644 0.0051627781 0)
(-0.0042782243 0.0027430682 0)
(-0.003242382 -0.0010775422 0)
(-0.00048826991 -0.0022316257 0)
(0.001006707 -0.0010528492 0)
(0.00074139616 0.00023436427 0)
(0.00017208078 0.00064241482 0)
(-0.00031259873 0.00066762562 0)
(-0.0005275926 0.00041096112 0)
(-0.00050438327 0.00017739907 0)
(-0.00043038496 5.241933e-05 0)
(-0.00039528259 -1.0329037e-05 0)
(-0.00039385771 -2.8042243e-05 0)
(-0.00039471124 6.8832784e-06 0)
(-0.00039661509 4.382531e-05 0)
(-0.00039356357 6.2510782e-05 0)
(-0.00039118318 5.6141828e-05 0)
(-0.00038511093 4.2143796e-05 0)
(-0.000381371 1.855707e-05 0)
(-0.00037958922 9.3893498e-07 0)
(-0.0023537429 0.0051481109 0)
(-0.0086284652 -0.00035826197 0)
(0.00036990968 -0.0075590048 0)
(0.0081044169 -0.0059945087 0)
(0.0072088294 0.0040071981 0)
(-0.0011827471 0.0071804022 0)
(-0.0060390045 0.0034615813 0)
(-0.0045498814 -0.001745123 0)
(-0.00056690073 -0.0033653284 0)
(0.0017023957 -0.001705116 0)
(0.0014390634 0.00029892603 0)
(0.00033326136 0.00091703694 0)
(-0.00031924964 0.00099830977 0)
(-0.00067286861 0.00056754383 0)
(-0.00062049566 0.00018899398 0)
(-0.00046898059 1.6689884e-05 0)
(-0.00039164272 -3.759233e-05 0)
(-0.00038214425 -3.3868447e-05 0)
(-0.00039197593 1.5451431e-05 0)
(-0.00040413276 6.0140866e-05 0)
(-0.00040807007 8.1870142e-05 0)
(-0.00040580331 7.98213e-05 0)
(-0.00040185917 5.7912108e-05 0)
(-0.00039254634 3.6974286e-05 0)
(-0.00038692486 7.4451671e-06 0)
(-0.00037948281 -4.247655e-06 0)
(-0.0054931539 0.0064857385 0)
(-0.0097397687 -0.0025658909 0)
(-6.8485248e-06 -0.0091037664 0)
(0.010151467 -0.0058297122 0)
(0.0087435948 0.0044557928 0)
(-0.00114759 0.010236537 0)
(-0.0085328707 0.0048796111 0)
(-0.0063867526 -0.002615042 0)
(-0.0006442598 -0.0049053516 0)
(0.0026661445 -0.002622346 0)
(0.0024646296 0.00037689884 0)
(0.00063178064 0.0013951743 0)
(-0.00039124326 0.001440041 0)
(-0.00091169598 0.00083271825 0)
(-0.00083184031 0.00019776022 0)
(-0.00054273664 -6.290775e-05 0)
(-0.00038441207 -9.7360043e-05 0)
(-0.00035490078 -5.0164822e-05 0)
(-0.00037744741 2.5679038e-05 0)
(-0.00040561373 8.2501865e-05 0)
(-0.00042072425 0.00010646528 0)
(-0.0004231905 0.00010488135 0)
(-0.00041966157 8.1777457e-05 0)
(-0.00041028749 5.1267703e-05 0)
(-0.00039923587 1.8895206e-05 0)
(-0.00038853297 -8.6473785e-06 0)
(-0.00037501501 -9.9161545e-06 0)
(-0.0083651704 0.0067640906 0)
(-0.013160611 -0.0012978718 0)
(-0.00041156191 -0.01315575 0)
(0.01305849 -0.0093248919 0)
(0.011489242 0.0068132487 0)
(-0.0016001602 0.013436527 0)
(-0.01154574 0.0055679583 0)
(-0.0086194427 -0.003805551 0)
(-0.00076343169 -0.0069378669 0)
(0.0039512785 -0.0039398176 0)
(0.00392466 0.00047112812 0)
(0.001169763 0.0021674622 0)
(-0.00053580824 0.0020565837 0)
(-0.0012807972 0.0011963416 0)
(-0.0011499058 0.00019594603 0)
(-0.00067493658 -0.00021416792 0)
(-0.00037164099 -0.00021055688 0)
(-0.00030375338 -8.7728384e-05 0)
(-0.00034256752 3.5965983e-05 0)
(-0.00039629714 0.00011228832 0)
(-0.00042964725 0.00013898503 0)
(-0.00044114001 0.00013456325 0)
(-0.00043952966 0.00010811333 0)
(-0.00043171692 6.8569323e-05 0)
(-0.00041700732 3.0877424e-05 0)
(-0.00040283739 -9.9611713e-06 0)
(-0.00038498143 -2.7099136e-05 0)
(-0.00036658241 -1.5250654e-05 0)
(-0.0092612166 0.0074927036 0)
(-0.01113073 -0.0050460481 0)
(0.003743341 -0.014145277 0)
(0.015702057 -0.0085572399 0)
(0.014985624 0.0074346822 0)
(-0.0032519829 0.018834663 0)
(-0.015791144 0.0082679228 0)
(-0.011824256 -0.0053602152 0)
(-0.00085830699 -0.0096565443 0)
(0.0057032873 -0.005660872 0)
(0.0059340636 0.00055778368 0)
(0.0020162175 0.0032923256 0)
(-0.00076105296 0.0030103302 0)
(-0.0018892312 0.0016941564 0)
(-0.0016199109 0.00018021625 0)
(-0.00088321546 -0.00047605543 0)
(-0.00034885372 -0.00040950669 0)
(-0.00021593447 -0.00016402919 0)
(-0.0002742272 4.2443273e-05 0)
(-0.00036812473 0.00015220671 0)
(-0.00043130657 0.00018271933 0)
(-0.00045840744 0.00017237298 0)
(-0.00046232004 0.00013945514 0)
(-0.00045503074 9.1521607e-05 0)
(-0.00044077319 4.1661486e-05 0)
(-0.00042107871 -2.0898745e-06 0)
(-0.00040244749 -4.1652476e-05 0)
(-0.00037704476 -4.3730961e-05 0)
(-0.00035520787 -1.9389385e-05 0)
(-0.010422178 0.0069372202 0)
(-0.010053074 -0.0050871009 0)
(0.0080443286 -0.019492948 0)
(0.022185617 -0.013034951 0)
(0.016569822 0.01031173 0)
(-0.0039943716 0.022288376 0)
(-0.020097159 0.0082763438 0)
(-0.01515079 -0.0073500846 0)
(-0.00094504053 -0.013168706 0)
(0.0080473004 -0.0080740458 0)
(0.0086838867 0.00064153513 0)
(0.0032342071 0.0048707756 0)
(-0.0010770919 0.0044013221 0)
(-0.0028344965 0.0024043542 0)
(-0.0024004148 0.00013421612 0)
(-0.0011694691 -0.0008690569 0)
(-0.00032301604 -0.00074980622 0)
(-6.8173514e-05 -0.00030510006 0)
(-0.0001500958 3.9365086e-05 0)
(-0.00030709183 0.00020698161 0)
(-0.00042036817 0.00024401727 0)
(-0.00047352847 0.00022261674 0)
(-0.00048766375 0.0001782489 0)
(-0.00048296035 0.0001216327 0)
(-0.00046887993 6.1740768e-05 0)
(-0.00044678063 6.1314476e-06 0)
(-0.00042322909 -4.2272432e-05 0)
(-0.00039659478 -6.7820028e-05 0)
(-0.00036641484 -5.5844949e-05 0)
(-0.00034212943 -2.1893038e-05 0)
(-0.011196946 0.0071768393 2.2668156e-23)
(-0.0090165383 -0.0081780881 0)
(0.010173747 -0.02308864 0)
(0.027724757 -0.011325705 0)
(0.0173582 0.0096138023 0)
(-0.0020105268 0.030473833 0)
(-0.024813913 0.012581986 0)
(-0.018832867 -0.010190309 0)
(-0.00053091115 -0.017605324 0)
(0.011127039 -0.010957823 0)
(0.012300084 0.00070838131 0)
(0.0049554666 0.0070240741 0)
(-0.0014982594 0.0064751753 0)
(-0.0042322948 0.0033931005 0)
(-0.003595883 1.8282769e-05 0)
(-0.0016109403 -0.0014702718 0)
(-0.00028332739 -0.0012953363 0)
(0.00017764019 -0.00054188534 0)
(6.4695442e-05 1.9950752e-05 0)
(-0.00019242595 0.00028431618 0)
(-0.00038891766 0.00033317685 0)
(-0.00048658966 0.0002928371 0)
(-0.0005170848 0.00022898047 0)
(-0.00051590081 0.00015994321 0)
(-0.00050210361 8.8671727e-05 0)
(-0.00047931675 1.9074715e-05 0)
(-0.00045019191 -4.0634801e-05 0)
(-0.00042178811 -8.5002021e-05 0)
(-0.00038680797 -8.6747106e-05 0)
(-0.00035398108 -6.3274845e-05 0)
(-0.00032844978 -2.2790411e-05 0)
(-0.011955407 0.0066534089 -2.0801959e-23)
(-0.009168298 -0.0095674282 -2.368633e-23)
(0.0136436 -0.026803589 0)
(0.03260959 -0.011830089 0)
(0.017403215 0.015197871 0)
(-0.0027933092 0.033102208 0)
(-0.026213858 0.012085534 0)
(-0.024172491 -0.012679764 0)
(0.00020506035 -0.022926408 0)
(0.015092246 -0.014990628 0)
(0.017008511 0.00083120311 0)
(0.0071965019 0.0098217468 0)
(-0.0020617015 0.00930819 0)
(-0.0062282469 0.004830943 0)
(-0.0053725961 -0.00017056673 0)
(-0.002291881 -0.0024028967 0)
(-0.00018853422 -0.0021039174 0)
(0.00055039312 -0.0009291402 0)
(0.00040597072 -2.3129934e-05 0)
(-6.8369141e-07 0.00039897004 0)
(-0.00033385501 0.00046807785 0)
(-0.00050000773 0.00039768918 0)
(-0.00055530008 0.0003007608 0)
(-0.0005574275 0.00020893648 0)
(-0.00054126647 0.0001215113 0)
(-0.00051615056 3.6491877e-05 0)
(-0.00048391408 -3.6832907e-05 0)
(-0.00045002112 -9.1598863e-05 0)
(-0.00041421042 -0.00011548652 0)
(-0.00037482391 -9.9604444e-05 0)
(-0.00034080073 -6.6474858e-05 0)
(-0.00031519652 -2.2352643e-05 0)
(-0.01213803 0.0064139872 2.0884073e-23)
(-0.0092308459 -0.012059785 6.9233044e-23)
(0.015274058 -0.031350198 0)
(0.031290182 -0.010249459 0)
(0.012551762 0.015917769 0)
(-0.013332191 0.04001091 0)
(-0.036004017 0.018833021 0)
(-0.037030844 -0.016215845 0)
(1.5557684e-06 -0.029141893 0)
(0.01989047 -0.019375418 0)
(0.022855211 0.00090972189 0)
(0.010209314 0.013444384 0)
(-0.002801927 0.013298707 0)
(-0.0089899508 0.0067305972 0)
(-0.0078830701 -0.00048558059 0)
(-0.0033058844 -0.0037798102 0)
(-2.8498132e-05 -0.0033078361 0)
(0.0011228977 -0.0015315151 0)
(0.00094968363 -7.3752752e-05 0)
(0.00026982386 0.0005711612 0)
(-0.00025676283 0.00068158418 0)
(-0.00051585222 0.00056612075 0)
(-0.00061073253 0.00040610503 0)
(-0.00061520441 0.00027215124 0)
(-0.00059034169 0.00016007983 0)
(-0.00055863806 5.8376746e-05 0)
(-0.00052301351 -2.9162598e-05 0)
(-0.0004854848 -9.4493942e-05 0)
(-0.00044554057 -0.00013393296 0)
(-0.00040376589 -0.00013441087 0)
(-0.00036191993 -0.00010557437 0)
(-0.0003279617 -6.609433e-05 0)
(-0.00030277447 -2.0992983e-05 0)
(-0.011860536 0.0060009218 0)
(-0.0089452521 -0.014179688 -6.9354386e-23)
(0.016414533 -0.035186228 0)
(0.032994949 -0.0097832363 0)
(0.01251556 0.022161052 0)
(-0.021587189 0.053283473 0)
(-0.049823004 0.021201934 0)
(-0.044269908 -0.018567452 0)
(-0.0018537966 -0.03838903 0)
(0.025564736 -0.025093698 0)
(0.030437962 0.0013619514 0)
(0.013650126 0.017934384 0)
(-0.0037838232 0.018448565 0)
(-0.012781805 0.0094520792 0)
(-0.011427155 -0.00092480725 0)
(-0.0047451349 -0.0057881621 0)
(0.00021501954 -0.0050581725 0)
(0.0019949261 -0.0024152828 0)
(0.0017719661 -0.00020313565 0)
(0.00077569047 0.00086098757 0)
(-0.00011143795 0.0010268388 0)
(-0.00052634408 0.00082065453 0)
(-0.00069315745 0.00055898436 0)
(-0.00070001393 0.00035394803 0)
(-0.00065754682 0.00020395987 0)
(-0.00061059534 8.1533687e-05 0)
(-0.00056682402 -1.7915085e-05 0)
(-0.00052595379 -9.3261114e-05 0)
(-0.00048449621 -0.00014307003 0)
(-0.0004381713 -0.00015999914 0)
(-0.00039172764 -0.00014499567 0)
(-0.00034836528 -0.00010585655 0)
(-0.00031550839 -6.3280667e-05 0)
(-0.00029134816 -1.9216405e-05 0)
(-0.010967183 0.0055438825 -8.920522e-24)
(-0.0086269472 -0.016478884 0)
(0.016929555 -0.03982479 1.7628341e-24)
(0.033460042 -0.0088337746 0)
(0.011652268 0.025287913 0)
(-0.026116836 0.059588893 0)
(-0.051595033 0.020803891 0)
(-0.036625315 -0.024645092 0)
(-0.0010539668 -0.048826707 0)
(0.032258463 -0.030708263 0)
(0.038796478 0.0014243729 0)
(0.017081378 0.023732282 0)
(-0.0051827736 0.025433313 0)
(-0.01781607 0.012785559 0)
(-0.016143474 -0.0015706602 0)
(-0.006742724 -0.0085595152 0)
(0.00056065398 -0.0075677608 0)
(0.003281557 -0.0036732033 0)
(0.0029929902 -0.00039950248 0)
(0.0015591187 0.0012476157 0)
(0.00011630793 0.0014729945 0)
(-0.00049826789 0.0011810551 0)
(-0.00081148802 0.000778372 0)
(-0.00082908403 0.00046063959 0)
(-0.00075351282 0.00025193373 0)
(-0.00067810357 0.00010338276 0)
(-0.00061811358 -8.1052173e-06 0)
(-0.0005697984 -9.0322297e-05 0)
(-0.00052488632 -0.00014744292 0)
(-0.00047886336 -0.00017731459 0)
(-0.00042969901 -0.00017406375 0)
(-0.00037880873 -0.00014653614 0)
(-0.00033410632 -0.00010401401 0)
(-0.00030264095 -5.9708489e-05 0)
(-0.00028132683 -1.7318304e-05 0)
(-0.0094755883 0.0051325588 2.8281047e-23)
(-0.0078387817 -0.018507541 1.0389189e-22)
(0.016507379 -0.044639598 -1.9002376e-24)
(0.032783371 -0.0078903125 -2.453367e-22)
(0.011930031 0.028439492 -2.3269539e-22)
(-0.029239613 0.069509948 0)
(-0.053594199 0.019667776 0)
(-0.031811613 -0.027249769 0)
(0.0025718799 -0.06004151 0)
(0.040366109 -0.039115897 0)
(0.04782992 0.0033069055 0)
(0.021082432 0.030589358 0)
(-0.0073284969 0.034077429 0)
(-0.024727983 0.017430739 0)
(-0.022484737 -0.0024510637 0)
(-0.0093793195 -0.012394335 0)
(0.0010908406 -0.011022426 0)
(0.0050920954 -0.0054246372 0)
(0.0047516698 -0.00069988762 0)
(0.0027029051 0.0017997794 0)
(0.00055687466 0.0022486757 0)
(-0.00054615602 0.0016804551 0)
(-0.00098062994 0.0011174894 0)
(-0.0010295946 0.00060845462 0)
(-0.00089930228 0.00030019126 0)
(-0.00077111104 0.00011568492 0)
(-0.00067884475 -5.7963528e-06 0)
(-0.000617957 -8.9381933e-05 0)
(-0.0005694424 -0.00015098902 0)
(-0.0005202395 -0.00018829878 0)
(-0.00047097146 -0.00019562156 0)
(-0.00041921239 -0.0001786688 0)
(-0.00036632736 -0.00014121163 0)
(-0.00032440466 -0.00010202099 0)
(-0.00029193728 -5.508185e-05 0)
(-0.00027242164 -1.5696794e-05 0)
(-0.0076015869 0.0047580289 -3.1471407e-23)
(-0.0067444098 -0.020348226 -1.3333801e-22)
(0.015407693 -0.048948413 0)
(0.031408931 -0.0067062662 6.6722316e-22)
(0.011601402 0.032614081 2.3160613e-22)
(-0.030083482 0.076964402 6.9340593e-23)
(-0.054885275 0.018277425 -1.335693e-23)
(-0.030531039 -0.035788002 0)
(0.0068277463 -0.071077628 0)
(0.052190504 -0.047115024 0)
(0.061133884 0.0009929623 0)
(0.029731013 0.03856489 0)
(-0.0099457382 0.045108929 0)
(-0.033949865 0.022538591 0)
(-0.030447912 -0.0036298958 0)
(-0.012849768 -0.017426744 0)
(0.0018690455 -0.015750761 0)
(0.0076019632 -0.0077836268 0)
(0.0072240594 -0.0011193206 0)
(0.0043433156 0.0025700572 0)
(0.0012308719 0.0033533697 0)
(-0.00064585953 0.0024914431 0)
(-0.0012648706 0.0016322077 0)
(-0.0013399852 0.00082338692 0)
(-0.0011245393 0.00035183814 0)
(-0.00090580775 0.00010683507 0)
(-0.00075600888 -2.3325104e-05 0)
(-0.00066764101 -9.9877082e-05 0)
(-0.00061311997 -0.00015667779 0)
(-0.00056623047 -0.00019624963 0)
(-0.00051635793 -0.00021088222 0)
(-0.00046199113 -0.00020362317 0)
(-0.00040675093 -0.00017576885 0)
(-0.00035484746 -0.00013304618 0)
(-0.00031311051 -9.0417607e-05 0)
(-0.00028254837 -5.0114984e-05 0)
(-0.00026462703 -1.4594077e-05 0)
(-0.0057409269 0.0043838926 7.3958096e-24)
(-0.0051990955 -0.021811795 3.081766e-23)
(0.013411825 -0.052922646 1.413643e-22)
(0.028898386 -0.0055703395 -1.9701562e-22)
(0.01163575 0.035864882 -4.3886166e-22)
(-0.030579033 0.086185008 1.6609298e-22)
(-0.054753284 0.021026758 -4.8025724e-22)
(-0.030046968 -0.038361352 8.4250026e-23)
(0.013547919 -0.08206764 0)
(0.062323727 -0.056509494 0)
(0.071748449 0.0053455278 0)
(0.041186686 0.047467611 0)
(-0.0098124115 0.057480714 0)
(-0.043758148 0.029593771 0)
(-0.040221681 -0.005675771 0)
(-0.016894423 -0.024064401 0)
(0.0030229519 -0.021943466 0)
(0.010980661 -0.01091945 0)
(0.010569876 -0.001671393 0)
(0.0066763495 0.003593241 0)
(0.0022217205 0.0049546313 0)
(-0.0007269962 0.0037502167 0)
(-0.0017567383 0.0023262005 0)
(-0.0018078634 0.0011635983 0)
(-0.0014898785 0.0003888052 0)
(-0.0011052404 6.1217165e-05 0)
(-0.00085701054 -7.8594382e-05 0)
(-0.00071990116 -0.00013512967 0)
(-0.00065144022 -0.00017147565 0)
(-0.00060674177 -0.00020382123 0)
(-0.00056173855 -0.00022261802 0)
(-0.00051056582 -0.00022133755 0)
(-0.00045382669 -0.00020303258 0)
(-0.00039502825 -0.00016834425 0)
(-0.00034403327 -0.00012372627 0)
(-0.000303332 -8.2646039e-05 0)
(-0.00027419993 -4.6180145e-05 0)
(-0.00025759578 -1.4233089e-05 0)
(-0.0033821233 0.0040764752 8.3610644e-25)
(-0.0034907319 -0.023046727 2.3212947e-24)
(0.011119117 -0.056265763 0)
(0.025213991 -0.0047420391 -1.4277263e-22)
(0.011060002 0.039250962 7.544074e-23)
(-0.029692396 0.094775636 0)
(-0.05275459 0.020190294 -1.5894265e-22)
(-0.030339347 -0.042291618 7.5210989e-23)
(0.01537189 -0.095276402 0)
(0.069907438 -0.060904207 0)
(0.079231386 0.0024826532 0)
(0.036982952 0.055980988 0)
(-0.0082077987 0.074580791 0)
(-0.052395746 0.03574978 0)
(-0.050909701 -0.0084724426 0)
(-0.021367409 -0.0323625 0)
(0.0047950648 -0.030124836 0)
(0.015478946 -0.01482002 0)
(0.014999025 -0.0024172171 0)
(0.0098349631 0.0049465464 0)
(0.0036226395 0.0071198035 0)
(-0.00077889394 0.0056112052 0)
(-0.0025002602 0.0033707687 0)
(-0.002576563 0.0015906947 0)
(-0.0020184153 0.00045515215 0)
(-0.0014183325 -6.5032099e-05 0)
(-0.0009977503 -0.00020377116 0)
(-0.00077333785 -0.00021908352 0)
(-0.00067814553 -0.00020960424 0)
(-0.00063633048 -0.00021571609 0)
(-0.00060245803 -0.00022761807 0)
(-0.00055929945 -0.00023188383 0)
(-0.0005046776 -0.0002218977 0)
(-0.00044613219 -0.00019664702 0)
(-0.00038304088 -0.00015872269 0)
(-0.00033427805 -0.00011485735 0)
(-0.00029465408 -7.6605414e-05 0)
(-0.00026676038 -4.3959603e-05 0)
(-0.00025093911 -1.468472e-05 0)
(-0.00067997122 0.0039762965 0)
(-0.0017645618 -0.02382581 0)
(0.0087319018 -0.058859173 -2.41226e-24)
(0.020348936 -0.0040788567 0)
(0.010229851 0.042660968 -1.2752008e-23)
(-0.028419561 0.10327065 -6.1758646e-23)
(-0.050222588 0.02102862 3.0516974e-22)
(-0.029170788 -0.045202609 -1.0441808e-22)
(0.014639176 -0.10623652 0)
(0.075976591 -0.072014856 0)
(0.083975792 0.013667224 0)
(0.030890023 0.064832252 0)
(-5.8152142e-05 0.091723022 0)
(-0.063194508 0.046163071 0)
(-0.066519648 -0.011389393 0)
(-0.026945738 -0.042433827 0)
(0.0074356877 -0.040284857 0)
(0.021326295 -0.019814605 0)
(0.020705959 -0.0032645741 0)
(0.014053302 0.0066575805 0)
(0.0056141258 0.010026235 0)
(-0.00082718994 0.0082611219 0)
(-0.00357221 0.0049064022 0)
(-0.0037665078 0.0021787709 0)
(-0.0028367022 0.00049633014 0)
(-0.0019125252 -0.000282403 0)
(-0.0011984326 -0.00044618764 0)
(-0.0008308849 -0.00038486088 0)
(-0.00068346425 -0.00029328263 0)
(-0.00064346441 -0.00024297024 0)
(-0.00062872263 -0.00023023273 0)
(-0.00060302328 -0.0002321784 0)
(-0.00055748105 -0.00023079396 0)
(-0.00049945164 -0.00021561255 0)
(-0.00043876046 -0.00018758539 0)
(-0.00037509016 -0.00014916166 0)
(-0.00032489592 -0.00010797302 0)
(-0.00028639346 -7.3834866e-05 0)
(-0.00025947726 -4.4167834e-05 0)
(-0.00024424089 -1.5909856e-05 0)
(-0.00026734882 -0.024146989 -7.7356638e-25)
(0.0014160407 0.0040093646 0)
(0.0046187945 -0.060844084 -1.5950847e-23)
(0.015371638 -0.0035648972 -5.0843516e-23)
(0.008474189 0.045500861 6.8532404e-23)
(-0.025852236 0.11084564 1.4504097e-22)
(-0.045727272 0.020824739 -1.9797867e-23)
(-0.027758361 -0.048215155 -1.5053374e-22)
(0.013693286 -0.11900043 2.5817865e-22)
(0.075447209 -0.083141332 0)
(0.088925795 0.015302377 -1.6753256e-21)
(0.024179815 0.074565872 0)
(-0.0023172027 0.1144482 0)
(-0.085068289 0.060011931 0)
(-0.088363255 -0.012533269 0)
(-0.036370447 -0.055196348 0)
(0.011422648 -0.053059454 0)
(0.028806929 -0.025426142 0)
(0.027846479 -0.0044091862 0)
(0.019507824 0.0088229962 0)
(0.0083131574 0.013851891 0)
(-0.00078102124 0.011922133 0)
(-0.0050922076 0.0071779352 0)
(-0.005527799 0.0030115566 0)
(-0.0041320544 0.00046941132 0)
(-0.0025700225 -0.00060008453 0)
(-0.0015192313 -0.00087593898 0)
(-0.00089804345 -0.00068411746 0)
(-0.0006554682 -0.00044888326 0)
(-0.0006113826 -0.00030026223 0)
(-0.00062550675 -0.00023625329 0)
(-0.00063153431 -0.00022244477 0)
(-0.00060754101 -0.00022571493 0)
(-0.00055769978 -0.00022328471 0)
(-0.00049449067 -0.00020624162 0)
(-0.0004271623 -0.00017803629 0)
(-0.00036826072 -0.00014175145 0)
(-0.00031592459 -0.00010444435 0)
(-0.00027847872 -7.4472e-05 0)
(-0.00025247074 -4.6441678e-05 0)
(-0.00023734115 -1.7749316e-05 0)
(0.00042437172 -0.061976862 1.3513781e-23)
(0.0013487434 -0.024143879 0)
(0.0039344035 0.0042521141 -3.4338705e-23)
(0.010109491 -0.0024244507 5.0808835e-23)
(0.0064396267 0.048136333 -3.9011358e-23)
(-0.022443766 0.11717951 3.9311263e-23)
(-0.039903768 0.020700291 -1.82454e-22)
(-0.024711457 -0.050689371 5.8382656e-23)
(0.0119196 -0.13123352 1.2073061e-22)
(0.073673251 -0.093309233 -5.453579e-23)
(0.088134145 0.012631504 -1.7175751e-21)
(0.021630436 0.087512012 1.7607023e-21)
(-0.033361675 0.1322171 0)
(-0.11761146 0.077673659 0)
(-0.11430348 -0.016567918 0)
(-0.051082401 -0.069344207 0)
(0.014616359 -0.068608537 0)
(0.038316876 -0.032432177 0)
(0.03659771 -0.0053797591 0)
(0.026321076 0.011322502 0)
(0.012035619 0.018785221 0)
(-0.00066291291 0.016900622 0)
(-0.0071773526 0.010320234 0)
(-0.008060471 0.0042019768 0)
(-0.0060602417 0.00036464668 0)
(-0.0035918015 -0.0011867621 0)
(-0.0019537914 -0.0014846109 0)
(-0.00095734134 -0.0011723614 0)
(-0.00057560268 -0.00074015282 0)
(-0.00051255898 -0.0004167929 0)
(-0.00057001576 -0.00025469231 0)