/*--------------------------------*- C++ -*----------------------------------*\
| =========                 |                                                 |
| \\      /  F ield         | OpenFOAM: The Open Source CFD Toolbox           |
|  \\    /   O peration     | Version:  5.0                                   |
|   \\  /    A nd           | Web:      www.OpenFOAM.org                      |
|    \\/     M anipulation  |                                                 |
\*---------------------------------------------------------------------------*/
FoamFile
{
    version     2.0;
    format      ascii;
    class       volScalarField;
    location    "220";
    object      ddt0(nuTilda);
}
// * * * * * * * * * * * * * * * * * * * * * * * * * * * * * * * * * * * * * //

dimensions      [0 2 -2 0 0 0 0];

internalField   nonuniform List<scalar> 
9520
(
-1.818406e-36
-2.6176743e-34
-1.0643753e-35
-1.6974063e-32
-1.2063685e-33
-1.0038412e-35
-6.7179409e-31
-6.4720253e-32
-1.047863e-33
2.8949188e-36
-1.8811284e-29
-2.1726079e-30
-5.072357e-32
5.3064964e-34
2.227958e-35
-4.0736368e-28
-5.1681315e-29
-1.4934501e-30
4.0500164e-32
2.7572888e-33
3.7287692e-35
-7.1454481e-27
-9.4440924e-28
-2.95604e-29
1.8161809e-30
1.610806e-31
4.2469319e-33
3.6350677e-35
-1.0205695e-25
-1.388597e-26
-4.0848917e-28
5.5891685e-29
5.9080368e-30
2.2878189e-31
3.649516e-33
1.3080123e-35
-1.1767711e-24
-1.6644887e-25
-3.681889e-27
1.2905027e-27
1.5407373e-28
7.7512504e-30
1.7028662e-31
4.5889945e-34
-2.9240571e-35
-1.0438048e-23
-1.613664e-24
-9.8747111e-27
2.3630759e-26
3.0829814e-27
1.8628951e-28
4.8686841e-30
-2.9032986e-32
-4.5238338e-33
-7.5671565e-35
-5.6353788e-23
-1.1789765e-23
3.1285724e-25
3.5505116e-25
4.9725619e-26
3.4105283e-27
9.3900842e-29
-2.7950516e-30
-3.0349973e-31
-9.2287389e-33
-1.027331e-34
4.6038875e-22
-4.2325147e-23
6.7311419e-24
4.4025228e-24
6.6837892e-25
4.9787011e-26
1.2354739e-27
-1.1265143e-28
-1.2265462e-29
-5.2377138e-31
-1.0963946e-32
-8.7530465e-35
5.6395896e-20
7.9226956e-22
7.7269163e-23
4.5024645e-23
7.6120998e-24
5.9989478e-25
9.4924089e-27
-2.9878376e-27
-3.4329562e-28
-1.8562503e-29
-5.469276e-31
-7.5856133e-33
-2.0039731e-35
4.3447729e-18
5.9458205e-20
4.6533455e-22
3.6807626e-22
7.4232742e-23
6.1427299e-24
-1.1178995e-26
-5.9619967e-26
-7.2272865e-27
-4.64298e-28
-1.6946193e-29
-2.8360609e-31
1.2204908e-33
8.7096015e-35
2.5688961e-16
3.5408562e-18
-9.9183653e-21
1.9499304e-21
6.2433619e-22
5.5292614e-23
-1.5731277e-24
-9.5187983e-25
-1.2107689e-25
-8.7830547e-27
-3.6508238e-28
-5.3338615e-30
2.4130959e-31
1.3186612e-32
1.978703e-34
1.1240221e-14
1.5409303e-16
-1.7962859e-18
-3.4620118e-20
4.4690155e-21
4.6443809e-22
-2.7169622e-23
-1.2492878e-23
-1.6792879e-24
-1.3154336e-25
-5.7461737e-27
-2.0233672e-29
1.4004416e-29
8.6643041e-31
2.3830012e-32
2.6425508e-34
3.6324907e-13
4.5433358e-15
-1.6761754e-16
-4.0060542e-18
8.221322e-21
3.9791225e-21
-2.9448997e-22
-1.3832551e-22
-1.9719058e-23
-1.6160546e-24
-6.6071102e-26
1.8235565e-27
4.7962882e-28
3.4342774e-29
1.3342214e-30
2.8037315e-32
2.4548885e-34
8.5199951e-12
7.733837e-14
-1.0074012e-14
-2.6366002e-16
-1.6008424e-18
4.2068603e-20
-2.0726722e-21
-1.3180882e-21
-2.0056933e-22
-1.6650058e-23
-5.1658573e-25
6.4810365e-26
1.1552897e-26
9.4268499e-28
4.6530197e-29
1.3895669e-30
2.2223494e-32
1.2618334e-34
1.4487905e-10
2.9579029e-13
-4.1754966e-13
-1.2653319e-14
-8.5762403e-17
1.4527241e-18
1.3094444e-20
-1.0920866e-20
-1.8093983e-21
-1.4686071e-22
-1.6272959e-24
1.3414225e-24
2.1443259e-25
1.9377475e-26
1.141147e-27
4.2690969e-29
8.944711e-31
6.0246753e-33
-7.501365e-35
1.7037795e-09
-2.0949711e-11
-1.2027851e-11
-4.4250698e-13
-2.5258656e-15
1.2045069e-16
2.6031528e-18
-6.5201639e-20
-1.4845887e-20
-1.1408428e-21
2.623953e-23
2.050824e-23
3.2236535e-24
3.1501229e-25
2.1044079e-26
9.0784064e-28
1.9990974e-29
-9.9115965e-32
-1.7237487e-32
-3.0913195e-34
1.3420537e-08
-5.069106e-10
-2.4096511e-10
-1.118647e-11
-2.5171616e-14
8.149799e-15
2.1024035e-16
1.1655468e-18
-1.1162204e-19
-8.176916e-21
5.8811454e-22
2.5247104e-22
4.0221403e-23
4.2047425e-24
3.0441651e-25
1.4001919e-26
2.2140434e-28
-1.7458977e-29
-1.3532771e-30
-4.1413728e-32
-5.1062294e-34
6.8011032e-08
-6.6827847e-09
-3.2104269e-09
-2.0076328e-10
1.1177565e-12
3.8684046e-13
1.2316075e-14
1.1660329e-16
-8.43534e-19
-6.0973388e-20
7.1414487e-21
2.6150747e-21
4.2668583e-22
4.6973392e-23
3.5542474e-24
1.552831e-25
-1.1757551e-27
-7.6344588e-28
-5.9665919e-29
-2.5134062e-30
-5.9293572e-32
-6.1590915e-34
2.3619346e-07
-4.9397874e-08
-2.8986921e-08
-2.4161288e-09
5.3440072e-11
1.2740198e-11
5.2133513e-13
5.7949498e-15
-3.3814813e-17
-9.7386785e-19
6.2788624e-20
2.3442624e-20
3.9321661e-21
4.468426e-22
3.3818355e-23
1.1012538e-24
-1.0719301e-25
-2.0588099e-26
-1.7618365e-27
-9.3920783e-29
-3.2106676e-30
-6.4653999e-32
-5.8084158e-34
5.6088647e-07
-2.4176051e-07
-1.727927e-07
-1.8037829e-08
1.0777857e-09
2.8674709e-10
1.5664412e-11
1.893977e-13
-3.4233746e-15
-6.3360534e-17
1.7828464e-19
1.8543114e-19
3.2151403e-20
3.681374e-21
2.6034531e-22
1.1650017e-24
-2.6032721e-24
-4.0865303e-25
-3.8237447e-26
-2.4539189e-27
-1.0846671e-28
-3.1648964e-30
-5.3967401e-32
-3.9218918e-34
1.0171647e-06
-7.9422555e-07
-7.0662326e-07
-9.1179888e-08
1.3700356e-08
4.2615412e-09
3.2574454e-10
3.8650904e-12
-2.2135568e-13
-4.4789154e-15
-2.5809424e-17
1.2457009e-18
2.3857236e-19
2.6803741e-20
1.5646726e-21
-1.0362756e-22
-4.2340832e-23
-6.4239412e-24
-6.5010572e-25
-4.8092619e-26
-2.576661e-27
-9.5709114e-29
-2.2608352e-30
-2.7322346e-32
-7.0825445e-35
1.690457e-06
-1.7607906e-06
-1.9860282e-06
-3.0509873e-07
1.0803484e-07
4.2472538e-08
4.5816412e-09
4.0073101e-11
-9.0721732e-12
-2.2834794e-13
-1.8732795e-15
1.3175873e-18
1.6316561e-18
1.7724301e-19
6.4508205e-21
-1.9214236e-21
-5.3656997e-22
-8.2451297e-23
-9.0294547e-24
-7.4247499e-25
-4.5802546e-26
-1.9941868e-27
-5.4264997e-29
-5.8056888e-31
1.156974e-32
3.3270907e-34
2.6589165e-06
-2.6697629e-06
-4.0775161e-06
-6.9000037e-07
5.6206638e-07
2.815472e-07
4.2859744e-08
-4.8600258e-11
-2.4079448e-10
-8.0986617e-12
-8.7118851e-14
-3.4459226e-16
1.1089541e-17
1.1117828e-18
5.533681e-21
-2.2887425e-20
-5.6279001e-21
-8.8800502e-22
-1.0434191e-22
-9.3583752e-24
-6.3151731e-25
-2.98265e-26
-7.3544394e-28
1.0511933e-29
1.6104497e-30
5.6106817e-32
7.4777374e-34
2.4736991e-06
-3.9040229e-06
-6.6930898e-06
-1.2183653e-06
1.9468092e-06
1.2579898e-06
2.6409606e-07
-6.9995714e-09
-4.1906746e-09
-1.9555322e-10
-2.82842e-12
-1.2301468e-14
2.3119286e-16
9.6678515e-18
-1.8766009e-19
-2.1593706e-19
-5.0571984e-20
-8.1938119e-21
-1.0199161e-21
-9.7733483e-23
-6.9067251e-24
-3.1143296e-25
-1.9101963e-27
1.0063439e-27
8.7458789e-29
3.9135343e-30
9.7989853e-32
1.0958632e-33
2.2606668e-06
-5.5569008e-06
-9.602089e-06
-2.0817368e-06
4.64612e-06
3.8390335e-06
1.0563497e-06
-9.0885276e-08
-4.7778286e-08
-3.1367676e-09
-6.3318572e-11
-1.4042744e-13
1.8073396e-14
4.2179182e-16
3.4558062e-19
-1.7242758e-18
-3.9867771e-19
-6.5922489e-20
-8.5449339e-21
-8.5252739e-22
-5.9516676e-23
-1.8484506e-24
1.7167617e-25
3.3156491e-26
2.9077897e-27
1.6163028e-28
5.8686901e-30
1.286655e-31
1.3039478e-33
2.1361423e-06
-6.4563847e-06
-1.1313198e-05
-3.2757049e-06
8.110699e-06
8.3254313e-06
2.7667791e-06
-6.1771752e-07
-3.5995509e-07
-3.35524e-08
-9.8885552e-10
2.6104513e-12
1.0912921e-12
3.1519705e-14
2.9512295e-16
-1.1340477e-17
-2.8122052e-18
-4.6943333e-19
-6.2052278e-20
-6.2142016e-21
-3.8233882e-22
5.5492665e-24
4.9711198e-24
7.2719809e-25
6.8393274e-26
4.5737244e-27
2.1702617e-28
7.038109e-30
1.4087611e-31
1.3179201e-33
1.6615894e-06
-6.870926e-06
-1.2147792e-05
-3.1016838e-06
1.1393552e-05
1.3650299e-05
5.0160388e-06
-2.5421783e-06
-1.8032603e-06
-2.4634003e-07
-1.0308754e-08
1.6314173e-10
4.187227e-11
1.715623e-12
2.3741506e-14
-3.1094486e-18
-1.8165974e-17
-3.0049303e-18
-3.942373e-19
-3.7411554e-20
-1.4160285e-21
3.1738655e-22
8.5450319e-23
1.2176241e-23
1.2367129e-24
9.5923695e-26
5.6121696e-27
2.3972782e-28
7.0938822e-30
1.3016655e-31
1.1145709e-33
9.5453028e-07
-6.8980893e-06
-1.234737e-05
-2.5134978e-06
1.4399432e-05
1.8752083e-05
6.7345041e-06
-6.771419e-06
-6.0940445e-06
-1.2199585e-06
-6.8615739e-08
4.4058714e-09
1.0451353e-09
6.2219705e-11
1.2118469e-12
3.0752947e-15
-1.3879527e-16
-1.7665465e-17
-2.2101502e-18
-1.7885177e-19
4.4036738e-21
5.0007604e-21
1.1072274e-21
1.6295967e-22
1.8120167e-23
1.5773539e-24
1.0858642e-25
5.7185636e-27
2.2104066e-28
5.8951869e-30
9.6080717e-32
7.0913023e-34
1.6858438e-07
-7.0784022e-06
-1.1635845e-05
-2.007624e-06
1.6046306e-05
2.2754058e-05
8.60532e-06
-1.2372626e-05
-1.4360405e-05
-4.0960393e-06
-2.7066348e-07
6.0895314e-08
1.6947408e-08
1.4786061e-09
4.0444277e-11
4.4728992e-14
-4.6852163e-15
-1.1307894e-16
-1.1076611e-17
-5.8826494e-19
1.3847253e-19
5.5342572e-20
1.1673034e-20
1.8057056e-21
2.1901459e-22
2.1230471e-23
1.6492209e-24
1.0164704e-25
4.7529348e-27
1.598798e-28
3.5372579e-30
4.2609542e-32
1.5504168e-34
-6.8613467e-07
-7.1544977e-06
-1.0671323e-05
-1.1710543e-06
1.6655084e-05
2.3813255e-05
7.7086286e-06
-1.8203717e-05
-2.5096767e-05
-9.5907273e-06
-5.2430074e-07
5.0550915e-07
1.7794048e-07
2.2723339e-08
8.6937723e-10
-3.7724542e-12
-3.1693786e-13
-2.3450398e-15
-5.3333432e-17
-2.7048557e-19
1.5394738e-18
4.9278228e-19
1.0395799e-19
1.6964727e-20
2.2271302e-21
2.3704655e-22
2.039213e-23
1.4011521e-24
7.4194054e-26
2.7881222e-27
6.3689124e-29
3.500821e-31
-2.2399219e-32
-4.6557619e-34
-1.5683984e-06
-7.1618751e-06
-9.6492516e-06
-1.7365413e-07
1.65049e-05
2.3349393e-05
5.6650679e-06
-2.3162879e-05
-3.5115553e-05
-1.6665074e-05
7.1705031e-08
2.6446551e-06
1.2110245e-06
2.2400121e-07
1.1803647e-08
-2.2362756e-10
-1.4932368e-11
-1.2953692e-13
-5.3010365e-16
1.4017408e-17
1.2540676e-17
3.7230707e-18
8.0048307e-19
1.3750375e-19
1.9336581e-20
2.2272444e-21
2.0743583e-22
1.5269837e-23
8.4721818e-25
2.9726641e-26
1.1106229e-28
-5.2666011e-29
-3.1659508e-30
-8.8845317e-32
-1.0592633e-33
-2.3320502e-06
-7.0859461e-06
-8.4861016e-06
8.8705177e-07
1.6116485e-05
2.1964323e-05
4.2777622e-06
-2.5086586e-05
-4.1317286e-05
-2.2897182e-05
2.8157346e-06
9.0068637e-06
5.3757088e-06
1.4099523e-06
9.9145131e-08
-5.5960218e-09
-4.4515082e-10
-5.5008605e-12
-2.271685e-14
9.9204226e-17
8.4559969e-17
2.4626618e-17
5.4259655e-18
9.7453284e-19
1.4505966e-19
1.776096e-20
1.7457349e-21
1.3062427e-22
6.4140475e-24
6.2325867e-26
-2.5057838e-26
-2.8304927e-27
-1.7014178e-28
-6.4521381e-30
-1.4664452e-31
-1.5419307e-33
-2.742237e-06
-6.8346232e-06
-7.209432e-06
1.9634659e-06
1.5555015e-05
2.026138e-05
2.5568439e-06
-2.5210929e-05
-4.3080828e-05
-2.6189032e-05
7.836663e-06
2.0947473e-05
1.5819754e-05
5.6758084e-06
4.9807704e-07
-7.8305836e-08
-8.4336112e-09
-1.5746707e-10
-1.069157e-12
-2.260957e-15
4.921804e-16
1.459915e-16
3.2883242e-17
6.1168239e-18
9.4858677e-19
1.2083545e-19
1.2059349e-20
8.2938926e-22
1.7101847e-23
-4.7319675e-24
-8.180358e-25
-8.0838907e-26
-5.5575123e-27
-2.7002105e-28
-9.0201366e-30
-1.8802739e-31
-1.8562904e-33
-2.9150873e-06
-6.2806451e-06
-5.9453565e-06
3.0409274e-06
1.4735936e-05
1.8334145e-05
1.1463277e-06
-2.3763758e-05
-4.2666251e-05
-2.6675919e-05
1.3419094e-05
3.5675563e-05
3.2176066e-05
1.4814229e-05
1.4018192e-06
-6.603668e-07
-1.0212432e-07
-3.0479572e-09
-3.5316374e-11
-1.7661054e-13
2.2329539e-15
7.9225087e-16
1.812038e-16
3.4396426e-17
5.4512278e-18
7.0051132e-19
6.6405809e-20
3.0063071e-21
-3.7623541e-22
-1.130107e-22
-1.6166625e-23
-1.638807e-24
-1.280911e-25
-7.6448862e-27
-3.3825111e-28
-1.0558695e-29
-2.0895559e-31
-1.9808888e-33
-2.8958715e-06
-5.0858546e-06
-4.8748171e-06
3.9100987e-06
1.3945961e-05
1.625777e-05
-3.2616875e-07
-2.2086857e-05
-3.9763766e-05
-2.5739877e-05
1.7807612e-05
4.8781032e-05
4.847731e-05
2.6300026e-05
1.7878024e-06
-3.4843106e-06
-7.9580792e-07
-3.9166019e-08
-7.7667424e-10
-6.8033045e-12
-1.0476258e-14
4.078017e-15
9.2661461e-16
1.7559921e-16
2.7694244e-17
3.4186664e-18
2.6328326e-19
-9.5746426e-21
-7.8280154e-21
-1.6471499e-21
-2.3567037e-22
-2.5858635e-23
-2.2637684e-24
-1.5969073e-25
-8.824334e-27
-3.6821407e-28
-1.0980385e-29
-2.0949496e-31
-1.9289029e-33
-2.0703037e-06
-3.4749324e-06
-3.4386803e-06
4.0974078e-06
1.2896175e-05
1.3955327e-05
-1.8678914e-06
-1.9998968e-05
-3.5910117e-05
-2.6159655e-05
2.1248795e-05
5.674339e-05
5.9213703e-05
3.3907849e-05
-6.9638061e-07
-1.188011e-05
-4.0474371e-06
-3.3238733e-07
-1.1202339e-08
-1.6565786e-10
-7.7739521e-13
2.9177984e-14
4.7029095e-15
8.302456e-16
1.2469241e-16
1.357321e-17
3.6837151e-19
-2.8771326e-19
-9.319489e-20
-1.8366696e-20
-2.7458418e-21
-3.2929454e-22
-3.2271194e-23
-2.6078918e-24
-1.7238024e-25
-9.0348286e-27
-3.6114829e-28
-1.0404373e-29
-1.9303371e-31
-1.7383616e-33
-9.0346068e-07
1.0274985e-06
-1.7523311e-06
3.6658014e-06
1.1444171e-05
1.1413704e-05
-3.6697174e-06
-1.7782895e-05
-3.1627922e-05
-2.5622848e-05
2.1273626e-05
5.9487203e-05
6.2754509e-05
3.4613146e-05
-7.0332366e-06
-2.7442651e-05
-1.378425e-05
-1.8741541e-06
-1.0534767e-07
-2.5458649e-09
-1.3619741e-11
1.0268526e-12
5.1199608e-14
4.0293758e-15
5.0049502e-16
3.8047177e-17
-5.1165729e-18
-3.1069478e-18
-8.4816484e-19
-1.6814474e-19
-2.664801e-20
-3.4852549e-21
-3.8022772e-22
-3.4702667e-23
-2.6520362e-24
-1.6695783e-25
-8.3952548e-27
-3.243429e-28
-9.0856794e-30
-1.6479158e-31
-1.4581512e-33
-3.2575775e-07
2.2311244e-06
2.4696383e-06
2.5267139e-06
9.6308333e-06
8.8073799e-06
-5.4296932e-06
-1.5473417e-05
-2.6748222e-05
-2.4533283e-05
1.9739014e-05
5.9789779e-05
6.1190555e-05
3.1084662e-05
-1.4933995e-05
-4.5921982e-05
-3.2615807e-05
-7.136384e-06
-6.4711332e-07
-2.4041218e-08
5.0271156e-11
5.1611756e-11
2.6366319e-12
6.1034888e-14
2.0191371e-15
1.746948e-17
-6.423247e-17
-2.4486159e-17
-6.3964619e-18
-1.3083159e-18
-2.2076502e-19
-3.1349172e-20
-3.7735993e-21
-3.8529148e-22
-3.3334216e-23
-2.4360884e-24
-1.4726968e-25
-7.1470182e-27
-2.6801455e-28
-7.3231052e-30
-1.3017994e-31
-1.1344648e-33
1.1796823e-07
-4.8979095e-07
4.2480514e-06
2.5167935e-06
7.46972e-06
5.9866687e-06
-7.0521569e-06
-1.2985624e-05
-2.1488724e-05
-2.3078361e-05
1.7719261e-05
5.702715e-05
5.6366759e-05
2.3271397e-05
-2.349172e-05
-6.0732429e-05
-5.6948637e-05
-1.8975e-05
-2.6097572e-06
-1.3146982e-07
6.2621063e-09
1.6368403e-09
1.2637468e-10
3.7380054e-12
3.8700766e-14
-6.6413203e-16
-4.9154987e-16
-1.5977552e-16
-4.1495391e-17
-8.8407505e-18
-1.5878662e-18
-2.4356217e-19
-3.2065917e-20
-3.6242646e-21
-3.5072106e-22
-2.8999761e-23
-2.0356071e-24
-1.1848866e-25
-5.5546425e-27
-2.020513e-28
-5.3765078e-30
-9.3497027e-32
-8.0128436e-34
4.8736484e-06
-4.4038329e-06
8.3292341e-07
5.5003045e-06
2.2420261e-06
3.2329488e-06
-8.4042699e-06
-1.0271688e-05
-1.6105396e-05
-2.1234938e-05
1.5444438e-05
5.3442139e-05
5.2025936e-05
1.67331e-05
-2.7551591e-05
-6.8236237e-05
-7.8366077e-05
-3.6796022e-05
-7.0403889e-06
-3.3389784e-07
1.1380545e-07
3.1246069e-08
3.70125e-09
1.7415822e-10
2.6357142e-12
7.3940262e-16
-3.0640925e-15
-9.1038087e-16
-2.3678513e-16
-5.2685285e-17
-1.0044889e-17
-1.6550066e-18
-2.3636518e-19
-2.9259226e-20
-3.1305639e-21
-2.883147e-22
-2.2799758e-23
-1.5324313e-24
-8.54104e-26
-3.8322993e-27
-1.3361404e-28
-3.4142315e-30
-5.7238413e-32
-4.7626915e-34
6.9321755e-07
5.7995733e-07
-5.7126009e-06
2.5553653e-06
6.2617389e-06
1.77689e-06
-8.9602118e-06
-7.0284444e-06
-1.0775023e-05
-1.9077839e-05
1.3052481e-05
4.9241931e-05
4.7438257e-05
1.3534913e-05
-2.6946728e-05
-6.8137793e-05
-9.10736e-05
-5.515524e-05
-1.2986883e-05
2.6985684e-07
1.0526679e-06
3.6397867e-07
6.5157135e-08
4.832506e-09
1.182357e-10
4.7520313e-13
-1.8620062e-14
-4.6847655e-15
-1.2086246e-15
-2.8022313e-16
-5.6479329e-17
-9.9346819e-18
-1.5269928e-18
-2.0488244e-19
-2.3926649e-20
-2.4192876e-21
-2.1059437e-22
-1.5716884e-23
-9.8991228e-25
-5.11617e-26
-2.1014836e-27
-6.6052186e-29
-1.4973163e-30
-2.2019137e-32
-1.6146358e-34
-8.3376032e-06
-1.5100474e-06
-3.0916219e-06
-5.8106554e-06
4.142179e-06
6.730676e-06
9.9371038e-07
-2.8186723e-06
-5.4549342e-06
-1.6972981e-05
1.0563426e-05
4.4941066e-05
4.2164821e-05
9.3648171e-06
-2.5685206e-05
-5.9921973e-05
-9.6046421e-05
-6.8513307e-05
-1.7107993e-05
4.7042234e-06
5.7624949e-06
2.6361444e-06
6.9728001e-07
7.9608972e-08
3.0708744e-09
1.7839445e-11
-3.1432439e-13
-2.2942567e-14
-5.6110414e-15
-1.34375e-15
-2.8474966e-16
-5.3118779e-17
-8.714217e-18
-1.2538829e-18
-1.5753494e-19
-1.715995e-20
-1.6030955e-21
-1.2681003e-22
-8.3563554e-24
-4.3953085e-25
-1.6924599e-26
-3.8331826e-28
9.1715214e-31
4.0577545e-31
1.3041582e-32
1.5267213e-34
2.4617051e-06
-6.4470203e-06
-3.2375356e-06
-6.9294896e-06
-5.3083652e-06
5.5303418e-06
6.9354112e-06
1.4772154e-07
-1.175107e-06
-1.4992662e-05
7.9397406e-06
4.0384865e-05
3.7082447e-05
5.2511485e-06
-2.4596856e-05
-5.0947063e-05
-8.9268962e-05
-7.5630065e-05
-1.7310262e-05
1.6169481e-05
1.9903801e-05
1.2105153e-05
4.5908132e-06
7.8694093e-07
4.633529e-08
2.6845785e-10
-1.637246e-11
-1.8918945e-13
-2.416274e-14
-5.866216e-15
-1.2972354e-15
-2.5468378e-16
-4.4180602e-17
-6.7335408e-18
-8.9405728e-19
-1.0201612e-19
-9.7670831e-21
-7.4822888e-22
-4.0908876e-23
-8.6150967e-25
1.2025483e-25
1.8005056e-26
1.3801416e-27
7.0134679e-29
2.3852352e-30
4.9677424e-32
4.8165986e-34
4.2416286e-06
6.623608e-06
-2.97192e-06
-6.1658952e-06
-9.1057209e-06
-4.6600152e-06
6.9897845e-06
6.9509339e-06
-6.5584496e-07
-1.2934201e-05
5.0058171e-06
3.5640873e-05
3.1701968e-05
4.159638e-07
-2.3600045e-05
-4.1861315e-05
-7.8519578e-05
-8.3960313e-05
-1.3781064e-05
3.3142703e-05
4.6076578e-05
3.6103207e-05
1.8871443e-05
4.708607e-06
4.0786381e-07
-2.4023392e-10
-6.2365434e-10
-7.0949816e-12
-1.0587825e-13
-2.3591396e-14
-5.3777136e-15
-1.1009025e-15
-1.9964481e-16
-3.1704437e-17
-4.3310843e-18
-4.9203804e-19
-4.2866108e-20
-2.0758453e-21
1.3511094e-22
4.8338744e-23
7.0102578e-24
7.1502741e-25
5.5457205e-26
3.2872349e-27
1.4547199e-28
4.5480399e-30
8.9758043e-32
8.4116027e-34
-1.2150115e-05
8.804404e-06
1.0342742e-05
-1.2249898e-06
-8.9786727e-06
-1.0997246e-05
-3.7668373e-06
8.3172051e-06
6.9141047e-06
-1.3898351e-06
1.783074e-06
3.0790526e-05
2.6447396e-05
-4.34162e-06
-2.2834612e-05
-3.2405329e-05
-6.7066404e-05
-8.5973156e-05
-1.9600785e-05
5.1062686e-05
7.7090297e-05
7.2767287e-05
4.9277284e-05
1.7205997e-05
2.0799481e-06
-5.9014209e-08
-1.3957741e-08
-2.7700696e-10
-1.186997e-12
-8.9268576e-14
-2.0435766e-14
-4.3077512e-15
-8.0407718e-16
-1.297448e-16
-1.7338403e-17
-1.7151621e-18
-6.6277516e-20
1.9292566e-20
6.0525866e-21
1.0813484e-21
1.4553557e-22
1.570228e-23
1.3782961e-24
9.7452791e-26
5.4317956e-27
2.3021713e-28
6.9767336e-30
1.3461944e-31
1.2417408e-33
-1.9584419e-06
-1.0154327e-05
1.2897036e-05
1.3315985e-05
-8.5465761e-07
-1.1967617e-05
-1.2673591e-05
-2.6625377e-06
9.4736424e-06
6.7601787e-06
-2.0255575e-06
2.562874e-05
2.0961682e-05
-9.1233828e-06
-2.1780999e-05
-2.3323759e-05
-5.4187152e-05
-8.4335212e-05
-2.5551825e-05
6.0244023e-05
0.0001029706
0.00010746139
8.532927e-05
3.9014901e-05
5.987247e-06
-7.7940891e-07
-1.8583406e-07
-6.5343205e-09
-4.4070893e-11
-3.9896039e-13
-7.1899014e-14
-1.5298542e-14
-2.8715149e-15
-4.4975582e-16
-5.1665848e-17
-1.8262242e-18
1.0787249e-18
3.9060253e-19
8.6905746e-20
1.5041431e-20
2.1438603e-21
2.5590469e-22
2.5625315e-23
2.1354729e-24
1.4524627e-25
7.8605901e-27
3.2563584e-28
9.6945795e-30
1.8452122e-31
1.6848072e-33
1.9992276e-05
-6.1870219e-06
-7.3678714e-06
1.6753916e-05
1.5970118e-05
-6.9941468e-07
-1.4971762e-05
-1.3916844e-05
-1.5705181e-06
1.0518778e-05
6.5050012e-06
-2.3756724e-06
1.5278608e-05
-1.3909685e-05
-2.040667e-05
-1.4272171e-05
-4.0948641e-05
-7.9870405e-05
-3.1285352e-05
6.2046069e-05
0.00012185303
0.00012771573
0.00010625673
5.7801991e-05
9.2065284e-06
-4.904158e-06
-1.5068622e-06
-9.2313995e-08
-1.2617174e-09
-6.6936645e-12
-2.4382804e-13
-4.9400316e-14
-8.9568745e-15
-1.2251175e-15
-5.9671081e-17
3.2996308e-17
1.5028832e-17
4.151823e-18
9.010908e-19
1.6351003e-19
2.5319116e-20
3.3630376e-21
3.8228115e-22
3.6919603e-23
2.988389e-24
1.9851257e-25
1.0539649e-26
4.299091e-28
1.2641384e-29
2.3829544e-31
2.1601075e-33
9.2270281e-06
1.3669691e-05
-1.0031666e-05
-4.0493114e-06
2.0485242e-05
1.8397009e-05
-7.4225649e-07
-1.7515193e-05
-1.481665e-05
-4.3084252e-07
1.136345e-05
6.3879865e-06
-2.4020906e-06
-1.8486104e-05
-1.852003e-05
-5.2221877e-06
-2.8115842e-05
-7.2813424e-05
-3.6861684e-05
6.0101823e-05
0.00012621539
0.00013855562
0.00010505018
5.9594682e-05
6.2358982e-06
-1.7517382e-05
-7.6363025e-06
-8.0376294e-07
-2.1703473e-08
-2.0839518e-10
-1.3671575e-12
-1.457577e-13
-2.3482694e-14
-1.8729889e-15
5.8142251e-16
3.6819737e-16
1.2681721e-16
3.3971824e-17
7.6482104e-18
1.4858414e-18
2.5125492e-19
3.7017546e-20
4.7354443e-21
5.2247832e-22
4.9258953e-23
3.9039622e-24
2.5482431e-25
1.3335366e-26
5.3762405e-28
1.5664129e-29
2.9323745e-31
1.802845e-35
-2.2459381e-05
2.6217583e-06
6.6129665e-06
-1.1958506e-05
-4.5719943e-07
2.4023609e-05
2.0578716e-05
-1.139125e-06
-1.9378897e-05
-1.5526665e-05
6.935759e-07
1.1909099e-05
5.8783085e-06
-2.4730593e-06
-1.6132439e-05
4.2180333e-06
-1.5828026e-05
-6.3945112e-05
-4.2228512e-05
5.5528401e-05
0.00012672466
0.00013529564
9.3149427e-05
4.5862842e-05
-3.5832131e-06
-3.8899274e-05
-2.5015891e-05
-4.4488084e-06
-2.2857254e-07
-4.2865029e-09
-3.0518513e-11
-4.4876194e-13
-4.605576e-14
4.966711e-15
5.9259375e-15
2.5900589e-15
8.5015757e-16
2.3363205e-16
5.5636818e-17
1.1634293e-17
2.1453245e-18
3.4854938e-19
4.9717726e-20
6.1908681e-21
6.6765218e-22
6.1737627e-23
4.8100326e-24
3.0955414e-25
1.6015516e-26
6.3997545e-28
1.8525217e-29
2.7766298e-33
6.655059e-38
-1.138376e-05
-2.5387211e-05
-4.6381681e-06
-8.2624542e-07
-1.3347171e-05
3.0903386e-06
2.7458281e-05
2.2550067e-05
-1.7948223e-06
-2.1091649e-05
-1.5995831e-05
1.7621071e-06
1.1635758e-05
4.9712353e-06
-2.5050689e-06
1.425078e-05
-4.0624687e-06
-5.4169747e-05
-4.5807259e-05
4.9540135e-05
0.00012412656
0.00013207601
8.5592322e-05
2.7578197e-05
-1.4475207e-05
-5.8329891e-05
-5.5577276e-05
-1.6225149e-05
-1.5251683e-06
-5.3700235e-08
-7.1565662e-10
-4.2622485e-12
-3.4914594e-14
6.1317526e-14
3.6462644e-14
1.4693853e-14
4.8723145e-15
1.3994632e-15
3.5465128e-16
7.9822659e-17
1.5985215e-17
2.8448972e-18
4.4844469e-19
6.2311362e-20
7.5838629e-21
8.0205622e-22
7.2926634e-23
5.6004381e-24
3.5629401e-25
1.8273301e-26
7.2573682e-28
1.990044e-31
1.193797e-35
9.3146309e-41
2.4167957e-05
-6.2272919e-06
-2.729832e-05
-1.2145579e-05
-7.6660804e-06
-1.4294479e-05
6.5958676e-06
3.0648891e-05
2.4408383e-05
-2.6995844e-06
-2.2705721e-05
-1.6491209e-05
2.4606116e-06
1.0634255e-05
3.4384361e-06
-1.5864867e-06
8.4040421e-06
-4.5682134e-05
-4.8161783e-05
4.2638246e-05
0.00011979548
0.0001275126
7.8147368e-05
1.5991863e-05
-2.5024713e-05
-6.4680246e-05
-8.8381265e-05
-4.1046053e-05
-6.6791869e-06
-4.2254303e-07
-1.0508593e-08
-1.0133655e-10
-4.2618951e-14
3.5203674e-13
1.8060251e-13
7.2053664e-14
2.4640399e-14
7.4422018e-15
2.006826e-15
4.8478854e-16
1.0491667e-16
2.0312059e-17
3.5080734e-18
5.3834414e-19
7.3041326e-20
8.705905e-21
9.0509e-22
8.1050538e-23
6.1499129e-24
3.877948e-25
1.9772907e-26
8.8701662e-30
9.9025305e-34
2.0210381e-38
4.0977314e-44
2.0283036e-05
3.3691406e-05
-1.3382019e-06
-2.9037228e-05
-1.8959499e-05
-1.4817117e-05
-1.5013567e-05
9.9459976e-06
3.3842104e-05
2.589698e-05
-3.6917197e-06
-2.3642803e-05
-1.6048178e-05
3.3754766e-06
8.5749528e-06
2.5281453e-06
-1.0564086e-06
-3.7900322e-05
-4.9501518e-05
3.4961795e-05
0.00011401087
0.00012258092
6.9051207e-05
4.5055379e-06
-3.2248295e-05
-5.6432113e-05
-0.00010642788
-7.6887289e-05
-2.0147511e-05
-2.1652327e-06
-9.6068254e-08
-1.7217484e-09
-9.7558165e-12
1.5498833e-12
7.7696233e-13
3.1500022e-13
1.119084e-13
3.5556282e-14
1.0173184e-14
2.6250836e-15
6.1042758e-16
1.2767773e-16
2.3961651e-17
4.0220862e-18
6.0147459e-19
7.9755977e-20
9.3201596e-21
9.5391043e-22
8.4308057e-23
6.3370501e-24
3.9728398e-25
2.7625758e-28
5.1057627e-32
1.982476e-36
1.1659073e-41
3.8007877e-48
-3.0556237e-05
3.0865939e-05
4.2379952e-05
3.52449e-06
-3.2210218e-05
-2.6990224e-05
-2.1857409e-05
-1.5575109e-05
1.2941773e-05
3.6799722e-05
2.7062834e-05
-4.6864503e-06
-2.4280491e-05
-1.4786916e-05
4.1192375e-06
5.8922254e-06
1.5736795e-06
-5.7580936e-07
-5.0988766e-05
2.6589914e-05
0.00010662128
0.00011677027
5.9258483e-05
-8.95282e-06
-4.1297697e-05
-5.0667222e-05
-9.2391462e-05
-0.00011309035
-4.4489554e-05
-7.5878383e-06
-5.6640829e-07
-1.812335e-08
-2.2791354e-10
4.9490033e-12
3.0007034e-12
1.2497904e-12
4.6182641e-13
1.5394187e-13
4.6519697e-14
1.2749159e-14
3.1642504e-15
7.0975815e-16
1.4355069e-16
2.610976e-17
4.2574426e-18
6.2014392e-19
8.0352831e-20
9.2113696e-21
9.2949253e-22
8.1267396e-23
6.0704047e-24
6.3889565e-27
1.8436718e-30
1.2010616e-34
1.3823573e-39
2.3118139e-45
-1.1507811e-51
-5.2681094e-05
-2.2377903e-05
4.031351e-05
5.0447371e-05
8.6295747e-06
-3.444572e-05
-3.5241985e-05
-2.8779725e-05
-1.6419719e-05
1.5769121e-05
3.9351143e-05
2.7258265e-05
-5.7434198e-06
-2.3228243e-05
-1.1795246e-05
2.7330734e-06
3.5509944e-06
6.9782284e-07
-2.3966862e-07
1.7219538e-05
9.7499841e-05
0.00010952029
4.8670996e-05
-2.489654e-05
-5.198449e-05
-4.7714658e-05
-7.3621168e-05
-0.0001299027
-7.6545428e-05
-1.9258071e-05
-2.2670528e-06
-1.2169683e-07
-2.8293696e-09
-5.8975846e-12
1.0581313e-11
4.5609094e-12
1.7478432e-12
6.0837659e-13
1.9301923e-13
5.5809201e-14
1.4676418e-14
3.501819e-15
7.56355e-16
1.4756571e-16
2.5943304e-17
4.0987686e-18
5.8017732e-19
7.332198e-20
8.2531067e-21
8.2121789e-22
7.1231472e-23
1.1356742e-25
4.9641872e-29
5.0958191e-33
9.8935149e-38
3.5233226e-43
1.0745145e-49
-3.849427e-55
7.4374148e-06
-5.351589e-05
-1.3611292e-05
4.8901779e-05
5.7970095e-05
1.3619604e-05
-3.6409836e-05
-4.3412371e-05
-3.5602855e-05
-1.7445135e-05
1.8430236e-05
4.1032684e-05
2.5988034e-05
-6.6475279e-06
-2.0067719e-05
-8.4095312e-06
1.7920108e-06
1.6832206e-06
2.1029126e-07
-6.8689513e-08
8.6173103e-05
0.00010005767
3.7288432e-05
-4.3392324e-05
-6.465857e-05
-4.7273656e-05
-5.319894e-05
-0.00011546764
-0.00011166777
-3.7911996e-05
-6.5157522e-06
-5.4973469e-07
-2.1636967e-08
-3.0803764e-10
3.3176451e-11
1.5634292e-11
6.1401431e-12
2.2097895e-12
7.3078967e-13
2.2119199e-13
6.1120311e-14
1.5372315e-14
3.5095083e-15
7.2568652e-16
1.3567276e-16
2.2891903e-17
3.4791108e-18
4.7530617e-19
5.8232591e-20
6.421085e-21
6.3038601e-22
1.5789843e-24
1.0338306e-27
1.6168373e-31
4.9354778e-36
2.9663785e-41
3.8132274e-47
-2.8822895e-53
-5.9058632e-59
7.2676348e-05
-2.4509708e-06
-5.2163411e-05
-4.7021621e-06
5.6945813e-05
6.5041638e-05
1.8328607e-05
-3.7795926e-05
-5.115003e-05
-4.2334006e-05
-1.8236863e-05
2.1668762e-05
4.1781664e-05
2.2809242e-05
-6.4841985e-06
-1.4550555e-05
-5.1179147e-06
1.072145e-06
5.982324e-07
4.0751632e-08
-1.3643793e-08
8.8044647e-05
2.4357036e-05
-6.3292269e-05
-7.8629052e-05
-4.5988595e-05
-3.3754036e-05
-9.0691357e-05
-0.00013452733
-6.8765971e-05
-1.4369589e-05
-1.7654698e-06
-1.0910908e-07
-2.9587187e-09
7.8960269e-11
5.1701606e-11
2.0692703e-11
7.5328591e-12
2.5394959e-12
7.9727793e-13
2.292141e-13
6.0105393e-14
1.4320921e-14
3.0910484e-15
6.0296632e-16
1.0613584e-16
1.6838596e-17
2.4066381e-18
3.099949e-19
3.6003246e-20
3.8423903e-21
1.7193505e-23
1.7009358e-26
3.9867924e-30
1.8452848e-34
1.7007918e-39
4.053171e-45
9.803046e-52
-6.6666671e-57
-6.1317171e-63
7.3036857e-05
5.7061162e-05
-1.2321373e-05
-4.8504979e-05
4.3546979e-06
6.4367929e-05
7.1456149e-05
2.2792393e-05
-3.8333265e-05
-5.7984154e-05
-4.9014275e-05
-1.8924046e-05
2.5181963e-05
3.9019091e-05
1.7623349e-05
-4.9467019e-06
-8.8219352e-06
-2.2393506e-06
4.5605438e-07
1.504905e-07
4.8437283e-09
-1.719497e-09
1.0112036e-05
-8.1877491e-05
-9.2999773e-05
-4.3195246e-05
-1.4062088e-05
-6.0103134e-05
-0.00014006069
-0.00010176304
-3.2319663e-05
-4.2642872e-06
-3.7717195e-07
-1.482585e-08
3.0487358e-10
1.8887835e-10
6.968645e-11
2.5553181e-11
8.533707e-12
2.6256724e-12
7.7588977e-13
2.0915689e-13
5.1106143e-14
1.1252926e-14
2.2196134e-15
3.8971484e-16
6.0487522e-17
8.2314955e-18
9.737748e-19
9.9587701e-20
8.9321256e-21
1.4300495e-22
2.2310749e-25
7.8204855e-29
5.3902598e-33
7.2887974e-38
2.6546687e-43
2.7645612e-49
-2.6103528e-55
-7.8815536e-61
-5.4643004e-67
-5.7306131e-06
5.5487541e-05
4.0578026e-05
-2.1575143e-05
-4.3167875e-05
1.3222944e-05
7.1264009e-05
7.7043241e-05
2.6796601e-05
-3.787296e-05
-6.3459908e-05
-5.4488613e-05
-1.7508559e-05
2.7497655e-05
3.2721092e-05
1.1438061e-05
-3.2660414e-06
-4.107074e-06
-6.6988349e-07
1.2836788e-07
2.6064009e-08
2.9007877e-10
-1.4520125e-10
-9.6929165e-05
-0.00010383277
-3.793418e-05
6.941319e-06
-2.6954371e-05
-0.00012557715
-0.0001329903
-5.7236601e-05
-1.1823407e-05
-8.7211634e-07
-1.6196267e-08
9.362122e-09
1.8270432e-09
3.2449604e-10
9.0189075e-11
2.8165855e-11
8.4257254e-12
2.3745374e-12
6.4509587e-13
1.5727931e-13
3.3865841e-14
6.2873608e-15
9.6041991e-16
1.0630454e-16
3.6226226e-18
-1.9567778e-18
-6.5568773e-19
-1.3261432e-19
8.2103542e-22
2.3214678e-24
1.2362926e-27
1.2616088e-31
2.4539418e-36
1.2639504e-41
2.2723633e-47
4.0547651e-54
-4.4525885e-59
-7.4845684e-65
-4.6133354e-71
-0.00010685284
-2.2247368e-05
3.5849483e-05
2.3987596e-05
-2.7628314e-05
-3.6758216e-05
2.2114963e-05
7.7632408e-05
8.1716409e-05
3.0103516e-05
-3.6092472e-05
-6.6151656e-05
-5.5552882e-05
-1.2767057e-05
2.49014e-05
2.2687264e-05
5.6507711e-06
-1.7255947e-06
-1.3619971e-06
-1.3365875e-07
2.3608586e-08
2.933229e-09
6.2219346e-12
-8.4893424e-12
-0.00010714895
-2.9184579e-05
2.993999e-05
7.8525353e-06
-9.6850483e-05
-0.0001541961
-8.7954278e-05
-2.4446335e-05
-2.7662696e-06
3.6201515e-07
1.7155069e-07
3.7854471e-08
5.4439385e-09
6.4221297e-10
1.0096336e-10
2.5834592e-11
6.881183e-12
1.7458326e-12
4.0331552e-13
7.63437e-14
9.923203e-15
-2.8993702e-17
-5.3287032e-16
-2.1103228e-16
-5.710037e-17
-1.2422976e-17
-2.2791972e-18
1.6388033e-21
1.8566721e-23
1.5803717e-26
2.4018405e-30
6.6820805e-35
4.7017531e-40
1.2142757e-45
1.0745359e-51
-1.2013867e-57
-4.7731034e-63
-6.5746341e-69
-3.7266677e-75
-0.0001047355
-0.00011151516
-3.8373534e-05
1.5612383e-05
7.8897837e-06
-3.1931175e-05
-2.9999512e-05
3.0425901e-05
8.3832863e-05
8.5268227e-05
3.2389618e-05