/*--------------------------------*- C++ -*----------------------------------*\
| =========                 |                                                 |
| \\      /  F ield         | OpenFOAM: The Open Source CFD Toolbox           |
|  \\    /   O peration     | Version:  5.0                                   |
|   \\  /    A nd           | Web:      www.OpenFOAM.org                      |
|    \\/     M anipulation  |                                                 |
\*---------------------------------------------------------------------------*/
FoamFile
{
    version     2.0;
    format      ascii;
    class       surfaceScalarField;
    location    "220";
    object      ddtCorrDdt0(phi);
}
// * * * * * * * * * * * * * * * * * * * * * * * * * * * * * * * * * * * * * //

dimensions      [0 3 -2 0 0 0 0];

internalField   nonuniform List<scalar> 
18820
(
1.8900665e-06
0.00031558592
2.9398607e-06
0.00029279161
2.3587789e-06
0.00031322987
3.2061601e-06
0.00026883679
4.4460087e-06
0.00029072441
-5.6977027e-06
0.00031893914
2.5675655e-06
0.00024413048
5.9312596e-06
0.00026736883
-1.0153855e-05
0.00029521387
-1.7084968e-05
0.00033604306
1.1005324e-06
0.0002190007
5.8620723e-06
0.00024421614
-1.3983582e-05
0.00027122705
-3.2250171e-05
0.00031042185
-2.115459e-05
0.00035722196
-9.6054193e-07
0.00019402636
3.6528465e-06
0.00022122528
-1.8020014e-05
0.00024827933
-4.606663e-05
0.00028508011
-4.140406e-05
0.00033072028
-1.6761115e-05
0.0003740109
-3.8820615e-06
0.00016959304
-4.0967788e-07
0.00019810305
-2.316936e-05
0.00022639947
-5.858388e-05
0.00026083086
-6.0984576e-05
0.00030470271
-3.4206024e-05
0.00034821755
-7.5417104e-06
0.00038158227
-8.6942983e-06
0.00014594898
-6.3315038e-06
0.00017552791
-2.9852028e-05
0.00020480859
-7.0362317e-05
0.00023820977
-7.9204632e-05
0.0002790905
-5.2418361e-05
0.00032296042
-1.6400599e-05
0.00035712992
-1.0931944e-06
0.00038270566
-1.7960822e-05
0.00012361526
-1.4831482e-05
0.00015446104
-3.8275936e-05
0.00018397289
-8.2501176e-05
0.00021697689
-9.5918716e-05
0.00025496089
-7.0661355e-05
0.0002973765
-2.6595267e-05
0.0003332019
-2.7568887e-06
0.00035884634
-1.9925825e-06
0.00038472781
-3.6522497e-05
0.00010328156
-2.8290267e-05
0.00013708534
-4.8498912e-05
0.00016470343
-9.5603569e-05
0.00019710229
-0.00011214085
0.00023323334
-8.8300784e-05
0.0002726409
-3.855328e-05
0.00030937944
-4.8502886e-06
0.00033534216
-3.2791978e-06
0.00036018361
-9.0043414e-06
0.00039376041
-7.2399793e-05
8.6219676e-05
-5.219534e-05
0.00012719717
-5.9731993e-05
0.00014833625
-0.0001092469
0.00017837118
-0.00012847876
0.00021347157
-0.00010577404
0.00025074438
-5.1592773e-05
0.00028572333
-8.6365026e-06
0.00031321123
-4.0747898e-06
0.00033618345
-1.6196393e-05
0.0003674233
-1.7520471e-05
0.00041130721
-0.00013629189
8.2273648e-05
-9.8470898e-05
0.00013250512
-6.9723915e-05
0.00013720545
-0.00012046763
0.00015957852
-0.00014477563
0.00019469601
-0.00012366214
0.00023139391
-6.5025528e-05
0.00026421752
-1.4547384e-05
0.00029167835
-4.8486469e-06
0.00031403021
-2.2653975e-05
0.0003426847
-3.2873902e-05
0.00038282067
-2.2673536e-05
0.0004340049
-0.0002325158
0.00010242125
-0.00017071033
0.00015452245
-7.037309e-05
0.00013316953
-0.00012267731
0.00013943357
-0.00015999576
0.00017482288
-0.00014310867
0.00021417235
-7.879481e-05
0.00024520015
-2.0520967e-05
0.00027023299
-6.4957186e-06
0.00029336974
-2.8345007e-05
0.0003197648
-4.7168503e-05
0.00035702002
-4.3880256e-05
0.00040406713
-2.1991667e-05
0.00045601824
-0.000353936
0.00011423688
-0.0002327704
0.00016449036
-3.6995255e-05
0.00012115919
-0.00010035068
0.00011085826
-0.0001699849
0.00014944321
-0.00016659811
0.00019833696
-9.4134636e-05
0.00022954477
-2.532516e-05
0.00025004279
-8.0010238e-06
0.00027178085
-3.3075087e-05
0.00029814282
-6.0638049e-05
0.00033327508
-6.3801016e-05
0.00037697779
-4.3874256e-05
0.0004259849
-1.602086e-05
0.00047205824
-0.00050697846
0.00014397175
-0.00027497003
0.00015644533
4.834939e-05
7.9159932e-05
-4.0176211e-05
6.0997368e-05
-0.00017119888
0.00011208936
-0.00019984932
0.00018271369
-0.00011478468
0.00021901473
-2.8200969e-05
0.00023245456
-7.7751847e-06
0.00024985666
-3.7578605e-05
0.00027632578
-7.3105259e-05
0.00031065007
-8.2719871e-05
0.00035223046
-6.5073288e-05
0.0003982092
-3.31517e-05
0.00044314606
-7.4644795e-06
0.00047953921
-0.00068750089
0.00017853027
-0.00028466935
0.0001536797
0.00015538663
4.9421712e-05
4.1373034e-05
-2.3789753e-06
-0.00017646373
6.6276249e-05
-0.00025724815
0.00016950259
-0.00015008779
0.00021803973
-2.897162e-05
0.00021981459
-3.1216332e-06
0.000227837
-4.1339298e-05
0.00025365611
-8.5489989e-05
0.00028874877
-0.00010110954
0.00032907488
-8.51491e-05
0.00037233721
-5.1350489e-05
0.00041643515
-1.6494182e-05
0.00045220102
2.275922e-07
0.00047932553
-0.00091954784
0.00024096252
-0.00027285586
0.00016672514
0.00030770363
1.3749056e-06
0.0001446779
-5.3874743e-05
-0.00021141887
3.2586972e-05
-0.0003594547
0.00016849313
-0.00021198476
0.0002314182
-2.567915e-05
0.00021477214
1.0502856e-05
0.00020622219
-4.2875956e-05
0.00022940921
-9.8594819e-05
0.00026679645
-0.00011965583
0.0003073277
-0.00010493581
0.00034888978
-6.9263112e-05
0.00039027403
-2.8227309e-05
0.00042818952
-9.1195631e-07
0.00045336058
4.3158468e-06
0.00047502097
-0.0012164179
0.00031285068
-0.0002391166
0.00020723127
0.00050280657
-2.8368164e-05
0.00028321118
-0.0001371517
-0.00027723713
1.1950648e-05
-0.00051134217
0.00018448148
-0.000311532
0.00026805516
-1.6294211e-05
0.00022205461
4.1370576e-05
0.00018393291
-3.8600781e-05
0.00020197935
-0.00011307525
0.00024392181
-0.00013977378
0.00028694378
-0.00012537305
0.00032778936
-8.7027394e-05
0.00036667383
-4.2113519e-05
0.00040417679
-4.3267243e-06
0.00043161945
7.6240839e-06
0.00045006713
3.9924079e-06
0.00047103731
-0.0016138726
0.00045428091
-0.00020444608
0.0002781877
0.00080546914
-9.5424943e-05
0.00051677207
-0.00026192388
-0.0004129429
-1.4426354e-06
-0.0007122475
0.00021286023
-0.00045554761
0.00032850852
6.7992325e-06
0.0002449802
0.00010078285
0.00016266761
-2.3938718e-05
0.00016930009
-0.00012929197
0.00021822457
-0.00016306603
0.00026723973
-0.00014764388
0.00030923471
-0.00010571987
0.00034649641
-5.6437571e-05
0.00038100819
-1.1874567e-05
0.00041173326
1.0544388e-05
0.00042870811
7.3484877e-06
0.00044672051
4.8707246e-07
0.00047055643
-0.0020608651
0.0005439257
-0.00011217167
0.00036201372
0.0012594734
-0.0001758133
0.00084725946
-0.00042590834
-0.00062001156
-5.4854884e-05
-0.00098729122
0.0002736031
-0.00065218067
0.00040950225
4.785403e-05
0.00028746948
0.00020547817
0.00014030716
1.0918802e-05
0.00012783578
-0.00014712897
0.00018716138
-0.00019198855
0.00024716831
-0.0001736472
0.00029325837
-0.00012569717
0.00032922105
-7.1262221e-05
0.00036132487
-2.1924642e-05
0.00039105917
1.1193466e-05
0.00041108524
1.101882e-05
0.00042504088
9.8479347e-07
0.00044622714
-3.9971849e-06
0.0004745573
-0.0026626491
0.00073896798
-1.8033323e-06
0.00043356445
0.0019307394
-0.00030925117
0.0013174586
-0.0006460089
-0.0009148403
-0.00013108007
-0.0014101949
0.00036804935
-0.00091081116
0.00053224188
0.00012932422
0.00032804511
0.00037252517
0.00012044189
7.8976246e-05
7.2270726e-05
-0.00016470853
0.00014543415
-0.00022955396
0.00022474204
-0.00020697829
0.00028050892
-0.0001480182
0.00031558268
-8.5808749e-05
0.0003437652
-3.1590899e-05
0.00037098467
8.1998091e-06
0.00039404528
1.4418759e-05
0.0004076796
1.0268213e-06
0.00042499653
-7.1103721e-06
0.00044933958
-7.5356406e-06
0.00048209417
-0.0032923902
0.00079388357
0.00018042211
0.00055674989
0.0027780851
-0.00041378059
0.0019366651
-0.00092845359
-0.0013193003
-0.00024154745
-0.002055746
0.00051447117
-0.0012447402
0.00070198825
0.00027083157
0.00039074527
0.00063638421
6.4202966e-05
0.00021226588
-1.2832669e-05
-0.00017729439
8.4868285e-05
-0.00027960674
0.0001954938
-0.00025391162
0.00027167711
-0.00017516896
0.00030765588
-9.9437738e-05
0.00032920326
-3.9495654e-05
0.00035165725
4.290608e-06
0.00037487918
1.6129856e-05
0.00039232003
1.1285728e-06
0.00040756659
-1.1769554e-05
0.00042964868
-1.3673314e-05
0.00045547178
-9.1342695e-06
0.00049122726
-0.004148554
0.0011172507
0.0003550705
0.0006192432
0.0039607257
-0.0006258895
0.0027662688
-0.0012433789
-0.0018732489
-0.0003744997
-0.0030018323
0.00070453993
-0.0016848713
0.00095461551
0.00048714809
0.00048568106
0.0010484624
-2.131807e-05
0.00041438566
-0.00013790812
-0.00017223326
-1.7890717e-05
-0.00034770158
0.00015295939
-0.0003262596
0.00026783324
-0.00021231971
0.00030881497
-0.0001115376
0.00031974031
-4.3456591e-05
0.00033314607
1.9216637e-06
0.0003540064
1.6773378e-05
0.00037421557
2.7849754e-07
0.00039315143
-1.7114745e-05
0.00041289637
-2.1489183e-05
0.00043745353
-1.7381601e-05
0.00046370902
-8.6315099e-06
0.00049985534
-0.0049079649
0.0012894891
0.00070662469
0.00076570555
0.0052870897
-0.00070711828
0.0038190284
-0.001678642
-0.0025584551
-0.00055816293
-0.0043497246
0.00097339497
-0.0022726628
0.0012923479
0.00082544226
0.00061633012
0.0016520838
-0.00011792793
0.00072212641
-0.00032905568
-0.00017858845
-0.00013155904
-0.00045846715
9.2860115e-05
-0.00044471864
0.00027139805
-0.00026977225
0.00032526209
-0.00012178029
0.00031903383
-3.9867068e-05
0.00031612699
4.305421e-06
0.000330739
1.743831e-05
0.00035331854
-2.5437028e-06
0.00037701541
-2.2859948e-05
0.00039887589
-3.1271939e-05
0.00042266099
-2.6308211e-05
0.00044636595
-1.7857502e-05
0.00047292086
-6.2231402e-06
0.00050607291
-0.005952533
0.0015097661
0.0012735421
0.0007225817
0.0071900455
-0.0011372467
0.0051490246
-0.002037106
-0.003491505
-0.0007455791
-0.0061951371
0.0012872528
-0.003014911
0.0017156604
0.0013282291
0.00078956952
0.0025173187
-0.00024889627
0.0011905993
-0.00058640166
-0.00022325839
-0.00028440062
-0.00063239613
4.234625e-05
-0.00064468938
0.0002927994
-0.00036462955
0.00036622168
-0.00013015192
0.00033360125
-2.2856499e-05
0.00030199372
1.6400064e-05
0.00030400605
1.983482e-05
0.00032831914
-7.078807e-06
0.00035783161
-3.1193465e-05
0.00038532738
-4.168278e-05
0.00040926593
-3.7895543e-05
0.0004342287
-2.6873623e-05
0.00045536549
-1.445557e-05
0.00048113526
-2.1599736e-06
0.00050822549
-0.0070132049
0.0016430647
0.0017679077
0.0010154114
0.0093395445
-0.0014269129
0.0064930963
-0.0024813096
-0.0044974914
-0.0010311056
-0.008699429
0.0017587155
-0.0039746119
0.0022469683
0.0020437154
0.0010001813
0.0037157226
-0.00040883204
0.0018681002
-0.00092640044
-0.0002885627
-0.00052111978
-0.00093726812
2.0442718e-05
-0.00094330421
0.00034092222
-0.00052107368
0.00044920409
-0.00013679724
0.00037282883
1.795267e-05
0.00029275879
4.5784821e-05
0.00027258074
2.6982498e-05
0.0002968358
-1.2958796e-05
0.00033418003
-4.2784971e-05
0.00036940527
-5.4357584e-05
0.00039798387
-5.1391857e-05
0.00042274315
-3.751114e-05
0.00044484621
-2.2850876e-05
0.00046374259
-6.6243525e-06
0.00048557841
3.1113868e-06
0.00050510508
-0.0080462875
0.0023142414
0.0023092036
0.0011017799
0.012079414
-0.0017244527
0.0080003325
-0.002934141
-0.0058090011
-0.0011697866
-0.011909735
0.0021792009
-0.0050877595
0.0028718719
0.0030070719
0.0012836168
0.005321432
-0.0006055336
0.0028285139
-0.001369251
-0.00036242394
-0.0008525671
-0.0014415507
-1.6866834e-05
-0.0013560598
0.00043315799
-0.00075469361
0.00057450351
-0.00013808742
0.00045045696
9.8270949e-05
0.00029247869
0.00010367139
0.00023484564
4.4390025e-05
0.00025515334
-1.9367488e-05
0.00030322985
-5.8443864e-05
0.00034982713
-7.0845894e-05
0.00038588223
-6.6580254e-05
0.00041315867
-5.094896e-05
0.00043616469
-3.1001139e-05
0.00045297686
-1.2493179e-05
0.00046959225
4.4432493e-06
0.00048422235
8.6654885e-06
0.00049642936
-0.0084471181
0.0022328385
0.0036820276
0.00094142799
0.015078639
-0.0018974406
0.0097322804
-0.003456394
-0.0074290022
-0.0013141287
-0.015900141
0.0028206185
-0.0065536876
0.0036451314
0.0042867121
0.0015922341
0.0074516172
-0.00084658071
0.0041461965
-0.0019232234
-0.00043892572
-0.0012927791
-0.0022045807
-8.9565393e-05
-0.0019632534
0.0005902911
-0.001074692
0.00075312445
-0.00013107852
0.00056746626
0.0002425264
0.00030617839
0.00020824593
0.00018788554
8.112912e-05
0.00019809327
-2.4698964e-05
0.00026047645
-7.9386937e-05
0.00032416801
-9.2880502e-05
0.00037185857
-8.5344984e-05
0.0004046427
-6.6350377e-05
0.00042855191
-4.1418619e-05
0.00044656947
-1.8120642e-05
0.00045858568
2.7411468e-06
0.00047127483
1.5893805e-05
0.00047696752
1.3305836e-05
0.00048311232
-0.0085655155
0.0020216526
0.0056609357
0.00025394004
0.019111185
-0.003091112
0.011468176
-0.0036333314
-0.0091321066
-0.0017532808
-0.020763898
0.0035496262
-0.0082049034
0.0044718315
0.005928216
0.0020036283
0.010200675
-0.0011568384
0.0059262776
-0.0026266709
-0.00051056674
-0.0018516092
-0.0032933085
-0.00020407796
-0.0028734004
0.00082055548
-0.0015236507
0.0010392271
-0.00010618423
0.00072821676
0.00047171427
0.00033826935
0.00038947142
0.00012494878
0.0001511949
0.00011781804
-2.598388e-05
0.00019937952
-0.00010792493
0.00028901705
-0.00012317563
0.00035446773
-0.00010975676
0.00039627487
-8.5098568e-05
0.00042339349
-5.5100743e-05
0.0004422312
-2.5849665e-05
0.00045428948
-1.0595993e-06
0.00046236898
1.9331033e-05
0.00046781825
2.4912443e-05
0.00046533228
1.6360368e-05
0.00046674019
-0.0084145256
0.001851249
0.0077193975
-3.6801172e-05
0.023462307
-0.0040971759
0.012464306
-0.0040872383
-0.010520607
-0.0022448252
-0.026727024
0.0042098428
-0.0098880151
0.0052327322
0.008081343
0.0023187052
0.013736887
-0.0015325973
0.0082481712
-0.0034787425
-0.00058156222
-0.0025556948
-0.0047840492
-0.00036089405
-0.0042110175
0.0011335244
-0.002158928
0.001455818
-4.5558402e-05
0.00097860329
0.00081753077
0.00038240575
0.00068701346
4.0739767e-05
0.00027344031
2.7159205e-06
-1.8912305e-05
0.00011076
-0.00014751632
0.00023898241
-0.00016637496
0.00033222751
-0.00014312519
0.00038784722
-0.00010904348
0.00042023012
-7.2746142e-05
0.00044104711
-3.7544236e-05
0.00045392757
-6.1762209e-06
0.0004594007
1.9022182e-05
0.00046266171
3.4094131e-05
0.00045861782
3.0730914e-05
0.00045093155
1.7866158e-05
0.00044886191
-0.00812017
0.0020853725
0.0099872707
-0.00041661792
0.028032716
-0.0046072029
0.012651464
-0.0042843319
-0.012403006
-0.0022048349
-0.032980543
0.0040086935
-0.011770973
0.0060927943
0.010701128
0.0026129482
0.018138045
-0.0020824594
0.011226332
-0.0045107695
-0.00065837431
-0.0034019405
-0.0067678712
-0.00057189725
-0.006114633
0.0015427155
-0.0030595605
0.0020341475
6.768566e-05
0.0013425853
0.0013515546
0.00044459451
0.0011395248
-7.0082297e-05
0.00047414042
-0.00015993681
6.6880549e-07
-1.6841468e-05
-0.00020488338
0.00016814663
-0.00023099123
0.00030361519
-0.00019204138
0.00038115813
-0.00014193096
0.00042074861
-9.5278353e-05
0.0004427762
-5.2390606e-05
0.00045590559
-1.3488978e-05
0.00046124576
1.7782641e-05
0.00046063796
3.913991e-05
0.00045760107
4.3517525e-05
0.00044581349
3.3848386e-05
0.00043491762
1.8067586e-05
0.0004307822
-0.0077087345
0.0021267517
0.01236575
-0.00029310274
0.032151287
-0.0045351826
0.011897697
-0.0038534339
-0.015827053
-0.00086028388
-0.040288691
0.0051033141
-0.015136478
0.0073741944
0.013561377
0.0032325476
0.023508661
-0.0027576682
0.014829431
-0.0056855697
-0.00075261928
-0.0044165283
-0.0093526486
-0.0008171851
-0.0087510656
0.0020645318
-0.0043106129
0.0027937622
0.00025174204
0.0018501018
0.002155926
0.00053823132
0.0018125523
-0.00022841082
0.00079385197
-0.00038976868
2.7944925e-05
-0.00018718836
-0.00029438266
7.2679846e-05
-0.00033344857
0.00027062167
-0.00026877449
0.00038036318
-0.00018972278
0.00042896231
-0.0001242634
0.00044974746
-7.0084455e-05
0.00046048465
-2.2849225e-05
0.00046528008
1.498556e-05
0.00046405073
4.1348137e-05
0.00045843015
5.3433692e-05
0.00044767126
4.8537539e-05
0.00043110782
3.4451612e-05
0.00041850074
1.7257861e-05
0.00041351237
-0.0072168971
0.0020829697
0.014840025
-0.00034752118
0.036713562
-0.0048553695
0.010769956
-0.0034074397
-0.020033163
0.00035267652
-0.048548491
0.007399519
-0.018763927
0.00873076
0.016080074
0.0048554972
0.030107528
-0.0033663155
0.019103055
-0.0070313037
-0.00092203707
-0.0055161558
-0.012634978
-0.0011342173
-0.01229508
0.0027268209
-0.0060254972
0.0037794141
0.00052770854
0.002517797
0.0033328107
0.00067323157
0.002800748
-0.00044995544
0.0012717067
-0.00070624982
8.4312692e-05
-0.00044612453
-0.00042980016
-5.1757304e-05
-0.00049620255
0.00023544404
-0.00038689489
0.00038875192
-0.00025901202
0.00044965941
-0.00016172317
0.00046643005
-9.0581724e-05
0.00047025546
-3.3544666e-05
0.00047119338
1.0797379e-05
0.00046948315
4.1380371e-05
0.00046402768
5.9272807e-05
0.00045259372
6.0871364e-05
0.00043532474
5.0151608e-05
0.00041539263
3.3198753e-05
0.00040252582
1.5824967e-05
0.00039767591
-0.006693116
0.00199079
0.017326604
-0.0004036099
0.041456846
-0.0050907967
0.0097938988
-0.0038793098
-0.024113952
0.00067334784
-0.056296052
0.0081002423
-0.020006986
0.0086425775
0.019484481
0.0053263518
0.038717202
-0.0037541719
0.024109433
-0.0083727055
-0.0012765481
-0.0066768025
-0.016725252
-0.0014258945
-0.016976903
0.003547587
-0.0082993488
0.0050006743
0.00092078825
0.0033863241
0.004994007
0.00085660964
0.0042229906
-0.00074901959
0.0019606481
-0.0011388978
0.00018553426
-0.00080748179
-0.00063409134
-0.00024183976
-0.00072300819
0.00017504046
-0.00055503038
0.00040357609
-0.00035856021
0.00048829662
-0.00021020264
0.00049813772
-0.0001131724
0.00048902237
-4.4208526e-05
0.00048092536
5.9327751e-06
0.00047606881
4.0456707e-05
0.00047042095
6.1631835e-05
0.0004616784
6.9552325e-05
0.00044391744
6.3615751e-05
0.00042184851
4.8712807e-05
0.00039986474
3.1253811e-05
0.00038706208
1.4310576e-05
0.00038335446
-0.0061651669
0.0017965356
0.019684522
-0.00036713123
0.04617
-0.0051167561
0.0086987732
-0.0039956664
-0.027484514
-0.0005087512
-0.063895064
0.0082723645
-0.019515883
0.0076091417
0.024239054
0.0038880023
0.048599499
-0.0045559423
0.030089286
-0.0097340342
-0.0018281211
-0.00782115
-0.021791936
-0.0016101269
-0.023022995
0.0046201708
-0.011260252
0.0065084943
0.0014757037
0.0044457433
0.007290112
0.0010902218
0.00621454
-0.0011349591
0.0029290051
-0.001717395
0.00034224608
-0.0012956411
-0.00091763618
-0.00052396822
-0.001079085
0.00011420529
-0.00079778006
0.00041776595
-0.00050643007
0.00055142673
-0.00027550805
0.00055358878
-0.00013693143
0.00052188834
-5.1928385e-05
0.00049673749
2.8862336e-06
0.00048397363
3.9936023e-05
0.00047659699
6.4498661e-05
0.00046756689
7.6627609e-05
0.00045461315
7.2705233e-05
0.00043483406
6.2649385e-05
0.00040789999
4.5528413e-05
0.00038557777
2.9173573e-05
0.00037216331
1.2692882e-05
0.00037065157
-0.005681641
0.0015246653
0.02182091
-0.00033985724
0.050785832
-0.0049829574
0.0075290017
-0.0039469785
-0.031007405
-0.00047277693
-0.071981271
0.0075774614
-0.018346673
0.0071031601
0.029030626
0.0028175693
0.058538676
-0.0060511752
0.037107171
-0.011573832
-0.002108119
-0.0094540581
-0.027788367
-0.0018247232
-0.030647491
0.0060143439
-0.014954384
0.0083143067
0.0022382531
0.0057459351
0.010365057
0.0013707938
0.0089420284
-0.0016372842
0.0042566323
-0.0024626177
0.00056116207
-0.001936352
-0.0013139856
-0.00089934279
-0.0016220005
1.8896622e-05
-0.0011635758
0.00047995538
-0.00073759394
0.00064889361
-0.00036908251
0.00064497433
-0.0001611766
0.00057781623
-5.2695148e-05
0.00052264176
6.6689466e-06
0.00049294632
4.2099423e-05
0.00048180812
6.5878816e-05
0.00047522092
7.9749279e-05
0.00046445691
8.1431568e-05
0.00044589672
7.4677463e-05
0.00042281297
5.8919716e-05
0.00039449659
4.2033182e-05
0.00037270734
2.5241327e-05
0.00035957846
1.1140367e-05
0.00035950207
-0.0052541415
0.0011838689
0.023626078
-0.0002805094
0.055089113
-0.0046431318
0.0064036874
-0.0038576355
-0.034546202
-0.00040818211
-0.080182265
0.0077282234
-0.018715386
0.0079461795
0.034222876
0.0019109106
0.06863229
-0.0072760496
0.044198858
-0.013142865
-0.0020434276
-0.011638544
-0.034278232
-0.0029641967
-0.039878664
0.0074064334
-0.019352632
0.010412592
0.0033682813
0.007184283
0.014403817
0.0017071652
0.012586491
-0.0022736749
0.0060183203
-0.0033990097
0.00086399235
-0.0027654857
-0.0018547245
-0.0013956723
-0.002396619
-0.00012478057
-0.0017400674
0.00059533048
-0.0010614047
0.00080371919
-0.00051245043
0.00079222448
-0.00018411611
0.00066788926
-3.9012564e-05
0.00056411623
2.4053756e-05
0.00050524392
5.2363597e-05
0.00048267247
7.0311315e-05
0.00047737057
8.2606521e-05
0.00047236565
8.6488531e-05
0.000459411
8.2076499e-05
0.00043850689
7.1281623e-05
0.00041045839
5.3945831e-05
0.00038257155
3.7055107e-05
0.00036088445
2.219808e-05
0.00034848367
9.923395e-06
0.00034957056
-0.0048855006
0.00084924113
0.025076469
-0.00026652772
0.058886722
-0.0040781135
0.0053723346
-0.0036117708
-0.037979342
-0.0004244944
-0.088326289
0.0077358477
-0.019093657
0.0081064963
0.037039769
0.0051292868
0.07877342
-0.0082302278
0.050896697
-0.013973893
-0.003678584
-0.011507725
-0.041483244
-0.0044335396
-0.05097441
0.0081315462
-0.02429704
0.012350837
0.0050515816
0.0087293094
0.019567859
0.0020202277
0.017373155
-0.0030794961
0.0082908188
-0.0045462098
0.0012607985
-0.0037958469
-0.0025660148
-0.0020542503
-0.0034668422
-0.00032549955
-0.0026105512
0.00074564808
-0.0015280862
0.0010619666
-0.00071022438
0.0010014552
-0.00020724221
0.00081532554
6.8934984e-07
0.00062817108
6.6452977e-05
0.00052170671
7.9276132e-05
0.00047832252
8.1766121e-05
0.00047120861
8.6597533e-05
0.0004733737
8.9587825e-05
0.00046926796
8.7096608e-05
0.0004544013
7.8988523e-05
0.00043080788
6.6229015e-05
0.0003981828
4.850289e-05
0.00037111115
3.3056145e-05
0.00035001906
1.979116e-05
0.00033857829
9.1571923e-06
0.0003404062
-0.0046514921
0.00048526867
0.026211618
-0.00028591416
0.061986918
-0.0033667186
0.0045084526
-0.0032142234
-0.041271269
-0.00031984139
-0.09626581
0.0075150345
-0.019284343
0.0079265339
0.039820818
0.0053254442
0.088828955
-0.0049262583
0.056851154
-0.014184696
-0.0068536046
-0.010798886
-0.048202558
-0.0047884272
-0.064182825
0.0087748785
-0.030659042
0.014493538
0.0070858804
0.01031656
0.026038117
0.002259041
0.023489434
-0.0040960486
0.0111352
-0.0059239056
0.0017637648
-0.0050492066
-0.0034864467
-0.0028754584
-0.0049496754
-0.00057145959
-0.0038726508
0.00093655796
-0.0022215378
0.0014390658
-0.00097182556
0.0013235405
-0.0002345366
0.0010287322
8.7836189e-05
0.00072816996
0.00014700926
0.00054761298
0.00013512044
0.00046586259
0.0001080579
0.0004520282
9.4709791e-05
0.00046308997
9.1029045e-05
0.0004719288
8.89713e-05
0.00046739541
8.3843483e-05
0.00044955568
7.3731226e-05
0.00042331213
6.0690596e-05
0.00038600303
4.3331429e-05
0.00036082307
2.9741151e-05
0.00034006354
1.8309563e-05
0.00032938771
8.9217239e-06
0.00033147832
0.00012722754
-0.004630449
0.026852253
-0.00015537053
0.064350922
-0.0026499131
0.0037005419
-0.0025588
-0.044249974
-0.00023551752
-0.10362196
0.0070363169
-0.019415884
0.0076465719
0.042397813
0.0053495349
0.099131228
-0.0049768365
0.065759461
-0.013834581
-0.011253523
-0.0097847852
-0.055282331
-0.0037191321
-0.078913737
0.0099424872
-0.039239149
0.017354973
0.0089054569
0.012673976
0.033878754
0.0024759193
0.031102939
-0.0053544705
0.014569313
-0.0075301759
0.0023684048
-0.0065285814
-0.0046442199
-0.0038914633
-0.0069020352
-0.00092313746
-0.005628919
0.0011847807
-0.0032410839
0.0019560828
-0.0013381021
0.0018053308
-0.00023684487
0.0013258445
0.00021487133
0.00090169978
0.00028493354
0.0005902557
0.00023830562
0.00044444018
0.00015984657
0.00041408554
0.00011230758
0.00043443452
9.2722042e-05
0.00046139619
8.7053104e-05
0.00047384736
8.4355683e-05
0.00046688562
7.8373001e-05
0.00044492219
6.7668725e-05
0.00041633927
4.6974394e-05
0.00038236869
3.9776024e-05
0.00035077526
2.7678473e-05
0.00033069083
1.7788007e-05
0.00032048273
9.1075224e-06
0.00032236557
-2.8123358e-05
0.0270076
-0.00017637057
-0.0047480836
0.065896103
-0.0017005457
0.0028742825
-0.0018236461
-0.046719603
-8.9170381e-05
-0.11011068
0.0062532086
-0.019384252
0.0070046787
0.044739517
0.0053048598
0.10944979
-0.0049690313
0.074547912
-0.013765301
-0.011533606
-0.013554504
-0.065124159
5.7029542e-05
-0.095585387
0.012952521
-0.050611635
0.021314967
0.010348032
0.015912405
0.043206394
0.0033463417
0.040511602
-0.0069327559
0.018582928
-0.0093680886
0.0030500289
-0.0082118366
-0.0060446918
-0.0051281273
-0.0094312003
-0.0013623331
-0.0080378893
0.0014858146
-0.0046988404
0.0026425244
-0.0018605631
0.0024785434
-0.00020146647
0.001769959
0.0004340197
0.001106709
0.00054351938
0.00064313353
0.00041871108
0.00040987296
0.00025563161
0.00034867968
0.00014834495
0.00037806843
9.7545285e-05
0.00042962265
8.1209798e-05
0.00046724665
7.9102272e-05
0.00047910463
7.7931558e-05
0.00046732954
7.2400206e-05
0.00044019845
6.1686973e-05
0.00040163128
5.056954e-05
0.00037158463
3.7388471e-05
0.00034105213
2.6906869e-05
0.00032156982
1.7954773e-05
0.00031159628
9.6330806e-06
0.0003127282
-0.00063984094
0.066507827
6.4949983e-05
0.026766276
-0.00050784817
-0.0050664072
0.0022544592
-0.0010807145
-0.048584036
4.0785807e-05
-0.1154525
0.0052526622
-0.019271776
0.0061407269
0.046705773
0.00503841
0.11952057
-0.0047659281
0.083135008
-0.013556148
-0.011227652
-0.014071264
-0.071644561
-0.007034113
-0.1103505
0.014822139
-0.06067073
0.023011628
0.013481499
0.018181509
0.054123733
0.0049950821
0.052443123
-0.008585188
0.023043616
-0.011393439
0.0037803698
-0.010098456
-0.0077042639
-0.0065522742
-0.012607614
-0.001951736
-0.011260976
0.0018607419
-0.0067477857
0.0035347553
-0.0025956856
0.0033776508
-0.00011861463
0.0023957023
0.00080638959
0.0013976051
0.00091318288
0.00073706702
0.00070495732
0.00035691214
0.00041624616
0.00024928747
0.00021401996
0.00028303572
0.00010931967
0.00036631868
7.1144913e-05
0.00043970804
6.6206537e-05
0.00048015595
7.0345559e-05
0.00048669683
7.1657139e-05
0.00046807568
6.7124361e-05
0.00043476903
5.7699865e-05
0.00039450525
4.7717504e-05
0.00036126599
3.6451929e-05
0.00033149365
2.717378e-05
0.00031235018
1.8945623e-05
0.00030224418
1.0464709e-05
0.00030226006
-0.00030064602
0.0019152724
0.00056710225
0.066005682
0.0002298083
0.026028617
-0.00088887168
-0.0055029954
-0.049624114
-4.0638329e-05
-0.11948914
0.0040774328
-0.019034705
0.0050155861
0.048344948
0.0045015361
0.12892907
-0.0043700966
0.091600554
-0.013231499
-0.010899266
-0.013884545
-0.077832881
-0.0078829561
-0.12425514
0.0068705266
-0.065886033
0.020037457
0.019569492
0.016923652
0.067793377
0.0045118911
0.067663719
-0.010225514
0.028159194
-0.013700759
0.0044695201
-0.012082601
-0.0095925974
-0.0082101295
-0.016511353
-0.002648539
-0.015504937
0.002292222
-0.0095561404
0.0046691055
-0.0036260062
0.0045650838
2.9346059e-05
0.0032297028
0.0013916321
0.0018104729
0.0014777924
0.00083301071
0.0011478843
0.0002941569
0.00067772548
9.5453394e-05
0.00032851508
0.00013482171
0.00013341711
0.00025896588
5.6458949e-05
0.00038103425
4.3058287e-05
0.00046288348
5.2405552e-05
0.00049811248
6.2959905e-05
0.00049540273
6.6777717e-05
0.00046842674
6.3451305e-05
0.00042902636
5.5759788e-05
0.00038646724
4.6725825e-05
0.00035100329
3.6945505e-05
0.00032170812
2.8556918e-05
0.00030273966
2.0480405e-05
0.00029218862
1.1406459e-05
0.00029085102
2.6439184e-05
-0.049951202
0.00054185113
0.0019405321
0.0016611477
0.064574349
0.00029413923
0.024845605
-0.0012461536
-0.0059770433
-0.12205339
0.002523615
-0.018583838
0.0036265625
0.049533033
0.0038274843
0.1373313
-0.0039006852
0.09965438
-0.012423939
-0.010502048
-0.013628721
-0.084192989
-0.0075244333
-0.13904872
0.0069106348
-0.077219372
0.018203894
0.024892109
0.014714856
0.079134594
0.0055824583
0.082335825
-0.010160214
0.033984714
-0.016051028
0.0050121627
-0.014243411
-0.011689525
-0.0099856863
-0.021163753
-0.0035577258
-0.020966044
0.0028125689
-0.013377379
0.0061134824
-0.005032509
0.0060756245
0.00027405313
0.004320396
0.0022598566
0.0023614911
0.0023336234
0.00095464957
0.0017847605
0.0001961387
0.0010913858
-0.00011950004
0.00050751537
-8.3532894e-05
0.00017811881
9.0136665e-05
3.7450612e-05
0.00027799761
5.794037e-06
0.00041833124
1.954649e-05
0.00049576978
4.2242761e-05
0.00051884801
5.8272471e-05
0.00050391963
6.4159074e-05
0.00046772508
6.2045249e-05
0.00042275091
5.5487524e-05
0.00037770978
4.7530848e-05
0.0003404298
3.8719661e-05
0.00031153114
3.0720366e-05
0.00029250178
2.2239987e-05
0.00028131513
1.2431103e-05
0.00027841812
0.00084209687
-0.12286905
-7.2047375e-05
-0.049337307
0.00097800681
0.002623682
0.0026944689
0.062174026
0.00024938072
0.023350069
-0.0015893596
-0.0065032454
-0.018489842
0.0024296189
0.050271723
0.0028878531
0.14447766
-0.0033188809
0.10687468
-0.011120991
-0.010120158
-0.012805834
-0.090059623
-0.0077620616
-0.15370778
0.0071346318
-0.089347982
0.019039269
0.021225127
0.021870885
0.089074325
0.0047751341
0.099644927
-0.011726657
0.042075495
-0.018250998
0.0053350949
-0.016373984
-0.013987373
-0.011945588
-0.026658165
-0.0044912845
-0.027877154
0.0033533777
-0.01844958
0.0078847903
-0.0069233853
0.0080043802
0.00066441202
0.005685293
0.0035155755
0.0030646969
0.0035791747
0.001115949
0.0027007975
3.8609716e-05
0.0016943637
-0.00040685015
0.00078036227
-0.00039235316
0.00025258868
-0.00015800584
1.2845844e-05
0.00011474428
-5.1184768e-05
0.00033499788
-3.4826119e-05
0.00047273065
3.6593232e-06
0.00053437758
3.7221624e-05
0.00053991954
5.7087163e-05
0.00051100587
6.4355449e-05
0.00046542288
6.3153796e-05
0.000415096
5.7457919e-05
0.00036778675
4.9796258e-05
0.0003293655
4.14846e-05
0.00030075223
3.3294774e-05
0.00028145026
2.4300361e-05
0.00026940591
1.344062e-05
0.00026497645
0.00097598823
-0.01862373
-0.0010714917
-0.1218696
0.00019974978
-0.048559053
0.0018152289
0.003502931
0.0034247117
0.0589987
0.00026946446
0.021491245
-0.001860378
-0.0070523711
0.050860608
0.0018407145
0.14965533
-0.0022898135
0.11320853
-0.0096527421
-0.0098177083
-0.011423451
-0.095530744
-0.0073346863
-0.16865854
0.0071886944
-0.10029404
0.018080713
0.018057613
0.022206798
0.091477018
0.019468194
0.11586841
-0.011448355
0.050190486
-0.019841663
0.0055723634
-0.018488304
-0.016635555
-0.013725839
-0.033030533
-0.0055732487
-0.036343729
0.0039752671
-0.02516612
0.010069918
-0.0093592341
0.010320649
0.0012959563
0.0073728603