/*--------------------------------*- C++ -*----------------------------------*\
| =========                 |                                                 |
| \\      /  F ield         | OpenFOAM: The Open Source CFD Toolbox           |
|  \\    /   O peration     | Version:  5.0                                   |
|   \\  /    A nd           | Web:      www.OpenFOAM.org                      |
|    \\/     M anipulation  |                                                 |
\*---------------------------------------------------------------------------*/
FoamFile
{
    version     2.0;
    format      ascii;
    class       volScalarField;
    location    "220";
    object      nut;
}
// * * * * * * * * * * * * * * * * * * * * * * * * * * * * * * * * * * * * * //

dimensions      [0 2 -1 0 0 0 0];

internalField   nonuniform List<scalar> 
9520
(
1.5242281e-117
1.9354861e-109
1.3370799e-117
1.4086585e-102
1.7000158e-109
1.1696656e-117
1.8284759e-96
1.2381933e-102
1.4885558e-109
1.0292093e-117
6.7971795e-91
1.6083797e-96
1.0848883e-102
1.3121792e-109
9.1926563e-118
9.4428591e-86
5.9833484e-91
1.4105589e-96
9.5787941e-103
1.1763876e-109
8.3660466e-118
5.8511003e-81
8.3167614e-86
5.2537808e-91
1.2476994e-96
8.6148057e-103
1.0760792e-109
7.722333e-118
1.8222525e-76
5.1565627e-81
7.3113097e-86
4.6566718e-91
1.1253308e-96
7.910318e-103
9.9693356e-110
7.1390401e-118
3.0734887e-72
1.6081996e-76
4.5391706e-81
6.4934021e-86
4.2104963e-91
1.0361225e-96
7.340397e-103
9.2047987e-110
6.4941169e-118
2.9747604e-68
2.71881e-72
1.4185673e-76
4.0399449e-81
5.883529e-86
3.8831015e-91
9.6145837e-97
6.7534362e-103
8.3088877e-110
5.7236257e-118
1.7433572e-64
2.6403264e-68
2.4048121e-72
1.2659409e-76
3.6674371e-81
5.429427e-86
3.5976839e-91
8.8010676e-97
6.0388621e-103
7.2365512e-110
4.8676264e-118
6.9232433e-61
1.5516702e-64
2.3432579e-68
2.1521253e-72
1.1517064e-76
3.3841533e-81
5.015073e-86
3.2725318e-91
7.7906244e-97
5.1960107e-103
6.093206e-110
4.0575157e-118
3.5419431e-57
6.0754987e-61
1.3807416e-64
2.101875e-68
1.9618805e-72
1.0626928e-76
3.1129176e-81
4.5271575e-86
2.8671038e-91
6.6269579e-97
4.3387719e-103
5.0787913e-110
3.4422926e-118
2.5329189e-52
2.734415e-57
5.3379491e-61
1.2379885e-64
1.918468e-68
1.8102275e-72
9.7333198e-77
2.7857042e-81
3.924252e-86
2.4141584e-91
5.5001118e-97
3.6270155e-103
4.3771095e-110
3.1213974e-118
3.5778155e-46
1.5031102e-52
2.1077694e-57
4.7004103e-61
1.1285008e-64
1.7703503e-68
1.6516801e-72
8.6336081e-77
2.3882526e-81
3.274661e-86
1.9966132e-91
4.625536e-97
3.1833168e-103
4.0898552e-110
3.1330094e-118
6.3358323e-40
2.2290443e-46
7.6483141e-53
1.5819936e-57
4.2221098e-61
1.0415264e-64
1.6110938e-68
1.4529729e-72
7.3226571e-77
1.9770729e-81
2.7053173e-86
1.6939074e-91
4.1420917e-97
3.0626384e-103
4.2415732e-110
3.4641862e-118
5.1148901e-34
4.7035605e-40
9.3788578e-47
2.8804188e-53
1.2393956e-57
3.8764163e-61
9.4727424e-65
1.4070357e-68
1.2198691e-72
6.021254e-77
1.6353917e-81
2.3206969e-86
1.5489143e-91
4.0961268e-97
3.2641792e-103
4.7823555e-110
4.0209886e-118
1.5003198e-28
4.4182432e-34
2.0161084e-40
2.022425e-47
1.067827e-53
1.0552076e-57
3.5239537e-61
8.2248865e-65
1.1696822e-68
9.9739804e-73
4.9982383e-77
1.4218191e-81
2.1666763e-86
1.5694903e-91
4.4594976e-97
3.7202382e-103
5.5268094e-110
4.5677255e-118
1.4493357e-23
1.4497654e-28
1.9519352e-34
3.8748254e-41
3.2985898e-48
5.580871e-54
9.3129648e-58
3.0423672e-61
6.7673941e-65
9.5119379e-69
8.3224476e-73
4.4132113e-77
1.3554457e-81
2.2404472e-86
1.7334736e-91
5.0955114e-97
4.2417954e-103
6.0961743e-110
4.7542852e-118
4.1744171e-19
1.5076009e-23
6.5761304e-29
3.6684211e-35
5.6732891e-42
9.7412198e-49
4.0728473e-54
7.8649631e-58
2.4701831e-61
5.4667458e-65
7.9852063e-69
7.4706312e-73
4.2953352e-77
1.42509e-81
2.4923066e-86
1.9698467e-91
5.68933e-97
4.5109085e-103
6.042278e-110
4.327601e-118
3.3190615e-15
4.5265687e-19
6.9996802e-24
1.2465836e-29
6.0689997e-36
2.0955374e-42
6.7950089e-49
3.0589086e-54
6.156973e-58
1.9733813e-61
4.6153778e-65
7.2915682e-69
7.4137221e-73
4.5768844e-77
1.5862584e-81
2.7949531e-86
2.140175e-91
5.8039623e-97
4.2409923e-103
5.1801366e-110
3.3695173e-118
6.6389281e-12
3.6068251e-15
2.218391e-19
1.3992802e-24
2.5070781e-30
3.5696102e-36
2.3018234e-42
4.8730385e-49
1.8702901e-54
4.7372375e-58
1.670972e-61
4.2879999e-65
7.3689324e-69
7.9743109e-73
5.0706096e-77
1.7429848e-81
2.9379016e-86
2.0878409e-91
5.1659827e-97
3.4243709e-103
3.7960095e-110
2.2577993e-118
3.317952e-09
7.0792125e-12
1.8676624e-15
5.1598728e-20
3.6192433e-25
2.3379639e-30
6.128107e-36
2.067772e-42
1.4803539e-49
1.0477718e-54
3.9526492e-58
1.5788311e-61
4.4103025e-65
7.9739434e-69
8.7476657e-73
5.4293144e-77
1.7623649e-81
2.734172e-86
1.760182e-91
3.935791e-97
2.3736012e-103
2.4259603e-110
1.3596497e-118
4.1391955e-07
3.4549685e-09
3.9707076e-12
5.2678514e-16
1.8888155e-20
4.9256593e-25
5.5530955e-30
6.5789539e-36
4.8715377e-43
1.9705009e-50
7.0720708e-55
3.7747682e-58
1.653289e-61
4.7908631e-65
8.6228993e-69
9.0865125e-73
5.2585234e-77
1.5598471e-81
2.186894e-86
1.2712428e-91
2.5989684e-97
1.4645242e-103
1.4417136e-110
8.0929916e-119
1.1916743e-05
4.2066159e-07
2.0825097e-09
1.3932839e-12
2.6257577e-16
2.9881569e-20
1.4060616e-24
6.5742139e-30
1.4844358e-36
2.4404814e-44
2.9472897e-51
6.2772315e-55
4.0268854e-58
1.8024026e-61
5.0899921e-65
8.6545502e-69
8.4094344e-73
4.4178329e-77
1.1844994e-81
1.507225e-86
8.0805836e-92
1.5717567e-97
8.7785437e-104
8.9964853e-111
5.534261e-119
6.5262782e-05
1.198044e-05
2.7470167e-07
8.9296185e-10
8.7478479e-13
4.4968718e-16
8.8785627e-20
1.7211406e-24
1.43975e-30
5.7685201e-38
5.1027889e-46
1.1124546e-51
6.6715567e-55
4.4146255e-58
1.8778425e-61
4.9182428e-65
7.6363919e-69
6.709577e-73
3.189767e-77
7.8391941e-82
9.346061e-87
4.8777147e-92
9.7387194e-98
5.913215e-104
6.9529394e-111
5.0975683e-119
0.00013388521
6.5417e-05
8.8762808e-06
1.4203238e-07
6.7315914e-10
1.5476077e-12
1.2830817e-15
1.0746225e-19
3.7078943e-25
4.9946109e-32
6.8184291e-40
1.7829561e-47
8.9890027e-52
7.3396761e-55
4.5092986e-58
1.7409988e-61
4.1268268e-65
5.7909509e-69
4.6276586e-73
2.0408685e-77
4.809304e-82
5.7505645e-87
3.2027964e-92
7.2760223e-98
5.2772012e-104
7.5844002e-111
6.7481854e-119
0.00019243362
0.00013383407
5.6443975e-05
5.5944241e-06
1.2250155e-07
1.2029205e-09
4.0612592e-12
1.4935043e-15
2.3300261e-20
1.2731775e-26
5.1114632e-34
8.9904382e-42
3.7871087e-48
9.3955882e-52
7.348312e-55
3.997935e-58
1.3846678e-61
2.9757477e-65
3.8363503e-69
2.8922207e-73
1.2563155e-77
3.0843754e-82
4.0972446e-87
2.7071846e-92
7.5755702e-98
6.7704651e-104
1.163818e-110
1.1816313e-118
0.00023827938
0.00019083615
0.00012214929
4.4417878e-05
5.2705142e-06
2.1541862e-07
2.8224209e-09
4.4974027e-12
3.3477637e-16
8.7664016e-22
1.6192474e-28
8.3297167e-36
1.2132326e-42
3.3352374e-48
9.1269097e-52
6.2020818e-55
3.0002124e-58
9.4888464e-62
1.9041851e-65
2.3699031e-69
1.8164093e-73
8.5672065e-78
2.4383752e-82
3.958874e-87
3.2746206e-92
1.1208498e-97
1.1647449e-103
2.1997333e-110
2.3324167e-118
0.00027599128
0.00023562272
0.0001771371
0.00010640748
4.3533696e-05
8.4484826e-06
4.4464943e-07
2.9417989e-09
1.0706545e-12
1.5212018e-17
1.6978813e-23
4.8576142e-30
3.3616456e-36
2.0137067e-42
3.298531e-48
7.1276917e-52
4.3593902e-55
1.9502937e-58
5.8955445e-62
1.1772127e-65
1.5451027e-69
1.3407015e-73
7.6271408e-78
2.7056536e-82
5.4712362e-87
5.4243128e-92
2.0855192e-97
2.2892227e-103
4.3582415e-110
4.5086411e-118
0.00030758136
0.00027212007
0.00022055849
0.00016076176
0.00010549492
5.699922e-05
1.4091737e-05
4.3723433e-07
7.6027587e-10
6.2159504e-14
4.6066003e-19
1.0446068e-24
5.0202798e-30
1.2361102e-35
2.8752648e-42
1.7410017e-48
4.5080144e-52
2.6750369e-55
1.1820715e-58
3.6931147e-62
8.1026579e-66
1.2527185e-69
1.3508963e-73
9.6728851e-78
4.1863404e-82
9.8053414e-87
1.0538403e-91
4.1306061e-97
4.4317443e-103
8.0402448e-110
7.813555e-118
0.00033395023
0.00030239558
0.00025592202
0.00020386355
0.00016108166
0.00012355025
7.3080577e-05
1.3403714e-05
1.2733635e-07
5.8564166e-11
3.031586e-15
6.0170803e-20
1.9623779e-24
2.7043723e-29
2.2280645e-35
7.8120143e-43
5.606634e-49
2.5468675e-52
1.5861717e-55
7.5950575e-59
2.7251477e-62
7.2926398e-66
1.4257135e-69
1.9252718e-73
1.6389685e-77
7.8723622e-82
1.9268881e-86
2.0498052e-91
7.660141e-97
7.6817667e-103
1.2910286e-109
1.1593578e-117
0.00035436386
0.00032713307
0.00028578478
0.00023902046
0.0002052823
0.00018161941
0.00014303926
7.0302566e-05
5.1571577e-06
1.348561e-08
4.7500854e-12
8.0878334e-16
1.6695658e-19
1.2459685e-23
5.3126068e-29
5.6046319e-36
3.2628624e-44
1.9835733e-49
1.4710169e-52
1.0570637e-55
6.0879394e-59
2.7391722e-62
9.3026863e-66
2.235102e-69
3.4729108e-73
3.1591378e-77
1.5258931e-81
3.6052958e-86
3.5879705e-91
1.2342467e-96
1.1333806e-102
1.7453981e-109
1.441935e-117
0.00036923566
0.00034625319
0.00031007792
0.00026928422
0.00024079405
0.00022682833
0.00020220696
0.00013871762
4.2246384e-05
8.3360513e-07
1.8478242e-09
2.412242e-12
2.8761035e-15
1.0966915e-18
2.5055254e-23
1.3785641e-29
1.3306156e-37
7.0484137e-46
9.9207755e-50
1.025366e-52
9.3006774e-56
6.8421338e-59
3.8703153e-62
1.5686839e-65
4.1800007e-69
6.6999875e-73
5.9449808e-77
2.7039e-81
5.8918023e-86
5.3337482e-91
1.6642835e-96
1.3900053e-102
1.9581023e-109
1.4907051e-117
0.00037928856
0.00036010492
0.00032923539
0.00029443516
0.00027103538
0.00026194456
0.00024633732
0.00019524575
0.00010286119
1.3617228e-05
1.914967e-07
1.6010102e-09
9.8444497e-12
1.7908818e-14
2.1682715e-18
6.7820086e-24
3.3126317e-31
4.0557344e-40
7.1920733e-47
7.1447307e-50
9.9756341e-53
1.1656193e-55
1.0552871e-58
6.8694617e-62
2.9727159e-65
7.9143589e-69
1.2067611e-72
9.8866206e-77
4.0924728e-81
8.0465822e-86
6.5495057e-91
1.8466297e-96
1.4031942e-102
1.8134184e-109
1.2784073e-117
0.00038476819
0.0003694751
0.00034355588
0.0003148126
0.00029628862
0.00029078061
0.00027950351
0.00023730126
0.00015589149
5.6719595e-05
5.4047173e-06
2.4513517e-07
6.8485193e-09
5.4510038e-11
3.3777445e-14
6.1680536e-19
1.8183097e-25
9.2998295e-34
9.9034609e-43
3.9013074e-47
7.7004511e-50
1.387054e-52
1.9330545e-55
1.9326336e-58
1.2941065e-61
5.4374918e-65
1.3494634e-68
1.8698764e-72
1.3746529e-76
5.1046632e-81
8.9936707e-86
6.5644372e-91
1.6749256e-96
1.16241e-102
1.3856748e-109
9.1050993e-118
0.00038644235
0.00037484413
0.00035383522
0.0003307687
0.0003168506
0.00031426531
0.0003055923
0.00026899646
0.00019724047
0.00010725922
3.6778543e-05
8.3066743e-06
9.9521029e-07
3.2089864e-08
9.5544542e-11
1.0181472e-14
1.947676e-20
6.8787912e-28
1.1677924e-36
3.6198306e-44
4.420172e-47
1.1802407e-49
2.4392709e-52
3.5923605e-55
3.5621711e-58
2.2584133e-61
8.6984146e-65
1.9358701e-68
2.3813451e-72
1.554531e-76
5.1585941e-81
8.1422753e-86
5.3463521e-91
1.2398905e-96
7.9051536e-103
8.7519693e-110
5.4018874e-118
0.00038562379
0.0003771975
0.00036059994
0.00034304856
0.00033309806
0.00033300817
0.00032623484
0.00029424703
0.00022940156
0.0001498541
8.7303466e-05
5.2416472e-05
2.402814e-05
3.5940094e-06
5.1186807e-08
3.0729561e-11
3.9553229e-16
1.0835223e-22
1.2915454e-30
1.8269896e-39
2.159518e-44
7.3826082e-47
2.1790913e-49
4.5390462e-52
6.3979598e-55
5.870242e-58
3.3652909e-61
1.1509632e-64
2.2546047e-68
2.4428749e-72
1.4132988e-76
4.1967395e-81
5.9511099e-86
3.5347945e-91
7.498694e-97
4.423307e-103
4.5847636e-110
2.6816211e-118
0.0003829155
0.00037762896
0.00036487913
0.00035205688
0.00034588194
0.00034745511
0.00034214858
0.00031419046
0.00025724787
0.00018379092
0.00013293671
0.00011228873
9.2518892e-05
4.9447077e-05
5.0202453e-06
1.7774637e-08
1.521672e-12
3.3140085e-18
3.2162829e-25
1.6426495e-33
3.1501222e-41
3.5916992e-44
1.4248821e-46
4.023362e-49
7.7352649e-52
9.8718349e-55
8.0977601e-58
4.0953438e-61
1.2238755e-64
2.0982127e-68
2.0006099e-72
1.0283386e-76
2.7434608e-81
3.5118944e-86
1.9001832e-91
3.7153464e-97
2.0444523e-103
2.0022087e-110
1.1208685e-118
0.00037850714
0.00037678237
0.0003683246
0.0003585816
0.00035539527
0.0003585052
0.00035385279
0.00032968056
0.00028018988
0.00021419797
0.00016993576
0.00016259826
0.00016106763
0.00013007601
5.6886381e-05
2.0393145e-06
1.1552903e-09
1.9219551e-14
1.5057108e-20
6.1157275e-28
3.0458159e-36
2.0937225e-41
7.2711682e-44
2.6005984e-46
6.5079207e-49
1.1094052e-51
1.2529634e-54
9.0435777e-58
3.9708061e-61
1.0327812e-64
1.5494916e-68
1.3036671e-72
5.9835276e-77
1.4421132e-81
1.677152e-86
8.3354838e-92
1.5152604e-97
7.8542742e-104
7.3458639e-111
3.9814636e-119
0.00037573648
0.00037710459
0.00037129482
0.0003637955
0.00036209595
0.00036619908
0.00036204937
0.00034105704
0.00029907188
0.00024047182
0.00020038401
0.00020205076
0.00021513174
0.00020095395
0.00013732482
3.4523413e-05
1.8732391e-07
2.1773122e-11
1.2979286e-16
4.5643864e-23
1.6568205e-30
3.6292783e-37
5.1725875e-41
1.3267313e-43
3.9679971e-46
8.6057384e-49
1.2882239e-51
1.2799946e-54
7.9876862e-58
3.0368138e-61
6.8786747e-65
9.0582029e-69
6.7586356e-73
2.7889268e-77
6.1140125e-82
6.5132924e-87
3.0037307e-92
5.1301386e-98
2.5352412e-104
2.2943439e-111
1.2207575e-119
0.00037378111
0.0003782414
0.0003789318
0.0003676857
0.0003668887
0.00037102635
0.00036696079
0.00034897422
0.00031428452
0.00026296123
0.00022665627
0.00023227007
0.00025469126
0.0002554062
0.00020590415
0.00010502467
6.6550471e-06
5.2108189e-09
2.1550119e-13
6.6112177e-19
3.5086205e-25
5.2146267e-31
3.3743864e-36
1.2470554e-40
1.9003709e-43
4.7906881e-46
9.0664e-49
1.1958075e-51
1.0289666e-54
5.5346035e-58
1.8241554e-61
3.6103013e-65
4.1943198e-69
2.7952382e-73
1.046311e-77
2.1051475e-82
2.0775283e-87
9.0061027e-93
1.4666704e-98
7.0246653e-105
6.2601601e-112
3.3288673e-120
0.00037023208
0.00037846364
0.00037979148
0.00037943035
0.00036959313
0.00037360741
0.00036921504
0.00035388591
0.0003263466
0.00028213007
0.0002491576
0.00025611516
0.00028311175
0.00029160914
0.00025647501
0.00016810054
4.4714396e-05
3.0825669e-07
7.6213227e-11
2.0638935e-15
1.9448597e-20
4.7485372e-25
1.1298664e-29
2.6026873e-35
1.7129829e-40
2.0430548e-43
4.5253619e-46
7.5932288e-49
8.7403775e-52
6.4573378e-55
2.9988577e-58
8.6006735e-62
1.4957496e-65
1.544945e-69
9.292723e-74
3.1957434e-78
5.9825465e-83
5.5670553e-88
2.3145886e-93
3.67915e-99
1.7516884e-105
1.5776259e-112
8.5948349e-121
0.00037006984
0.00037282028
0.00038134685
0.00037951041
0.00037860299
0.0003739287
0.00036925856
0.00035648292
0.0003357201
0.00029843858
0.00026838293
0.00027590234
0.00030327603
0.00031477747
0.0002889642
0.00021533985
9.8512671e-05
5.0965926e-06
7.0691718e-09
1.6489052e-12
2.7043454e-16
7.8626954e-20
1.1930301e-23
1.1394673e-28
3.9889406e-35
1.177234e-40
1.6806889e-43
3.3806775e-46
5.0302358e-49
4.9655334e-52
3.1570714e-55
1.2714573e-58
3.1942248e-62
4.9271796e-66
4.5833735e-70
2.5323903e-74
8.1763908e-79
1.4610812e-83
1.3244346e-88
5.4791621e-94
8.8603484e-100
4.3754237e-106
4.1453575e-113
2.3940426e-121
0.0003719815
0.00036823421
0.00037555237
0.00038202031
0.00037758616
0.00037560711
0.00036746328
0.0003574213
0.00034306913
0.00031217201
0.00028477134
0.00029221956
0.00031919138
0.00033122013
0.00030991499
0.00024842619
0.00014343825
2.6464161e-05
2.1797754e-07
4.1631001e-10
9.0395386e-13
2.1270526e-15
1.8416306e-18
1.116773e-22
1.8219633e-28
8.0027236e-36
5.763964e-41
1.0954042e-43
2.0148689e-46
2.5849091e-49
2.1913554e-52
1.2056114e-55
4.2464507e-59
9.4628874e-63
1.3182823e-66
1.1331295e-70
5.957692e-75
1.8873418e-79
3.3972084e-84
3.1991596e-89
1.412675e-94
2.4961533e-100
1.3647084e-106
1.4338658e-113
9.100243e-122
0.00036417824
0.00036724227
0.00036753288
0.00037708964
0.00038057054
0.00037346036
0.00036892498
0.00035738744
0.00034915481
0.00032375522
0.00029867035
0.00030566494
0.00033129234
0.00034301251
0.00032491173
0.00027381601
0.00017815296
6.1141356e-05
2.747561e-06
3.7057638e-08
7.0398675e-10
9.7014513e-12
4.1693572e-14
1.5021402e-17
1.7569293e-22
3.1681336e-29
2.8707859e-37
2.7640247e-41
5.7888677e-44
9.3455866e-47
1.0301013e-49
7.5554938e-53
3.639732e-56
1.1419876e-59
2.3209199e-63
3.0420167e-67
2.5608809e-71
1.3843818e-75
4.7224755e-80
9.5274548e-85
1.0424989e-89
5.4652086e-95
1.1524303e-100
7.4235112e-107
8.9491797e-114
6.2923263e-122
0.00035732398
0.00035939396
0.0003626129
0.00036679956
0.00037674645
0.00037679173
0.00036563361
0.00035788187
0.00035397395
0.00033396226
0.00031045596
0.00031652736
0.00034057872
0.00035052931
0.0003348086
0.00029304206
0.00021301079
9.5047399e-05
1.5158355e-05
1.1755067e-06
1.2612515e-07
7.9909118e-09
1.4826558e-10
2.8639555e-13
2.2656182e-17
3.4103235e-23
4.870562e-31
1.1359596e-38
1.2408006e-41
2.4084402e-44
3.3641226e-47
3.2184471e-50
2.0789783e-53
9.0241592e-57
2.6380619e-60
5.2323896e-64
7.1069141e-68
6.6585465e-72
4.3025169e-76
1.8460877e-80
4.8237124e-85
6.863925e-90
4.5837834e-95
1.1848221e-100
8.9192472e-107
1.1962028e-113
8.9310693e-122
0.0003591997
0.00035586696
0.00035362585
0.00035747347
0.00036509093
0.00037408538
0.00036948162
0.00035367637
0.00034220681
0.00034292346
0.00032044119
0.00032513197
0.00034707874
0.00035507469
0.00034023488
0.00030686558
0.00024097227
0.00013339623
4.1556052e-05
1.2070878e-05
5.0843377e-06
1.2452467e-06
9.0150729e-08
8.3082947e-10
4.072347e-13
4.922399e-18
6.8040691e-25
7.7778461e-34
2.2629205e-39
4.5598121e-42
7.8280156e-45
9.5765017e-48
8.1769135e-51
4.8719047e-54
2.0512019e-57
6.2417462e-61
1.4088112e-64
2.3985126e-68
3.062355e-72
2.8159291e-76
1.7064734e-80
6.0628655e-85
1.1042672e-89
8.8621644e-95
2.5953093e-100
2.105905e-106
2.9242055e-113
2.1879335e-121
0.00035113881
0.00036181761
0.00035282065
0.00034712955
0.00035145651
0.00036150488
0.00036836441
0.00035811793
0.00033743292
0.00032111487
0.00032884634
0.00033182298
0.00035128601
0.00035667946
0.00034215086
0.00031596613
0.00026387033
0.00016755061
7.525173e-05
4.3886709e-05
3.9313802e-05
2.8423782e-05
8.6426069e-06
3.9476293e-07
1.0991742e-09
9.8623292e-14
1.3574662e-19
1.264264e-27
2.2003499e-36
6.6449846e-40
1.3330336e-42
2.0465624e-45
2.2917108e-48
1.8822428e-51
1.1645179e-54
5.6467268e-58
2.2288752e-61
7.2579454e-65
1.8925441e-68
3.6808355e-72
4.8376559e-76
3.8384193e-80
1.6445949e-84
3.3661839e-89
2.8826717e-94
8.6776701e-100
7.0504699e-106
9.6221589e-113
6.976607e-121
0.00033595953
0.00035737266
0.00036225665
0.0003479754
0.00033921856
0.00034391675
0.00035534193
0.00035886786
0.00034262062
0.00031611859
0.00029449355
0.00033659606
0.00035343548
0.00035603239
0.00034121373
0.0003212969
0.00028226403
0.00019797981
0.00010912581
7.822809e-05
9.4604525e-05
9.9628163e-05
7.5915301e-05
2.2967006e-05
4.8037096e-07
2.9813585e-10
3.7466495e-15
4.5336321e-22
6.9736615e-31
1.0710224e-37
1.7164788e-40
3.2351081e-43
4.7519748e-46
5.4833971e-49
5.1888155e-52
4.241029e-55
3.0883129e-58
1.9710657e-61
1.0294762e-64
3.9846932e-68
1.0319377e-71
1.626343e-75
1.429269e-79
6.4127922e-84
1.3252492e-88
1.1211032e-93
3.2901999e-99
2.5861335e-105
3.3986043e-112
2.364913e-120
0.00033965672
0.00034158024
0.00036156094
0.00036053409
0.00034108327
0.00032961515
0.00033425681
0.00034597096
0.00034532324
0.00032216532
0.00028956119
0.0002623435
0.00035351477
0.00035319292
0.00033804657
0.00032386177
0.00029663575
0.00022503191
0.00014031446
0.00011027014
0.00013775101
0.00016642142
0.00016146056
0.00011163012
2.4999632e-05
1.4973928e-07
1.5712433e-11
2.2290703e-17
4.3854289e-25
5.6845305e-34
1.8090634e-38
3.9112059e-41
7.60143e-44
1.2764078e-46
1.9510447e-49
2.8394385e-52
3.9128253e-55
4.7748859e-58
4.6621335e-61
3.2795943e-64
1.5187351e-67
4.3023144e-71
6.9893614e-75
6.115652e-79
2.6682141e-83
5.308761e-88
4.3053369e-93
1.2100527e-98
9.1154328e-105
1.1497782e-111
7.6899058e-120
0.00035152503
0.00034106637
0.00034611402
0.00036370805
0.00035662506
0.00033226318
0.00031785579
0.00032220956
0.00033294613
0.00032701567
0.00029647501
0.00025786825
0.00022527192
0.00034829866
0.00033297131
0.00032456314
0.00030777219
0.00024881939
0.0001686879
0.00013870954
0.00016949171
0.00021693033
0.00022995669
0.00019935074
0.00011369731
1.1361347e-05
1.1220012e-08
1.6379566e-13
4.3281464e-20
2.4851032e-28
4.2273971e-36
3.776833e-39
9.8219723e-42
2.5174501e-44
6.5628166e-47
1.7471751e-49
4.45403e-52
9.731794e-55
1.6279992e-57
1.9052123e-60
1.4552068e-63
6.8685038e-67
1.9110906e-70
2.9903742e-74
2.495897e-78
1.0327941e-82
1.9509744e-87
1.5064212e-92
4.0459072e-98
2.9240454e-104
3.5520146e-111
2.7597171e-128
0.00034130616
0.0003472421
0.00034086056
0.00034952662
0.00036376632
0.00035063757
0.00032111854
0.00030353892
0.00030736116
0.00031552165
0.00030354918
0.00026573529
0.00022117313
0.00018031238
0.0003263233
0.00032394981
0.00031670329
0.00026947335
0.00019468532
0.00016387713
0.00019592066
0.00024837017
0.00027953866
0.00026417636
0.00019990328
8.1336631e-05
1.5032965e-06
2.0433331e-10
6.150764e-16
4.4482882e-23
1.1995339e-31
3.5256183e-37
1.075593e-39
4.4198834e-42
2.0312132e-44
9.7330413e-47
4.3115036e-49
1.5549212e-51
4.1215404e-54
7.4818188e-57
8.8623712e-60
6.5863171e-63
2.9640828e-66
7.7935113e-70
1.1498869e-73
9.0414364e-78
3.5322644e-82
6.3312976e-87
4.6634444e-92
1.2012045e-97
8.3685293e-104
1.9140931e-119
4.3208159e-138
0.00031855756
0.00033213772
0.00034055235
0.00033949264
0.00035144227
0.00036164303
0.00034224511
0.00030721974
0.00028631766
0.00028864854
0.00029332503
0.0002747961
0.00022918255
0.00017635147
0.00012405845
0.00032243775
0.00032435684
0.00028751346
0.00021860929
0.00018654317
0.00021809645
0.00027401047
0.00031002393
0.00030667861
0.00026196084
0.00016424085
3.0023e-05
4.9690239e-08
1.4287447e-12
1.1729124e-18
2.5458551e-26
2.135983e-34
1.0577194e-37
7.1096479e-40
5.7424065e-42
4.6959696e-44
3.3455658e-46
1.8464356e-48
7.2877295e-51
1.9515631e-53
3.4252673e-56
3.8370712e-59
2.6711444e-62
1.1233543e-65
2.7646291e-69
3.8339293e-73
2.8368065e-77
1.049272e-81
1.7920661e-86
1.2656378e-91
3.1444608e-97
6.9404927e-112
4.6252904e-129
2.1542439e-149
0.00032005489
0.00030960353
0.00032098796
0.00033237967
0.00033747114
0.00035149439
0.00035716281
0.00033104615
0.00029031661
0.00026559311
0.0002655133
0.00026581112
0.00023937175
0.0001839194
0.0001197775
5.7976525e-05
0.00033146947
0.00030357133
0.00024066572
0.00020722527
0.00023731424
0.00029450253
0.00033398314
0.00033437614
0.00029913244
0.00022796374
0.00010045367
2.6882098e-06
6.2397236e-10
4.8486209e-15
1.1668555e-21
1.0319343e-29
1.2957234e-35
1.0513625e-37
1.4357577e-39
1.8680818e-41
1.9908863e-43
1.5828208e-45
8.8649291e-48
3.3715584e-50
8.4815739e-53
1.3836106e-55
1.4363641e-58
9.279329e-62
3.6358332e-65
8.3812223e-69
1.0945145e-72
7.6543398e-77
2.6951941e-81
4.4127086e-86
3.0073418e-91
4.0671825e-105
2.7253989e-121
3.265605e-140
3.3875042e-162
0.00033752897
0.00031634532
0.00029909582
0.00030842335
0.00032421409
0.00033415895
0.0003493187
0.00034976659
0.00031691657
0.00026973606
0.0002406524
0.00023727625
0.00023184112
0.0001947044
0.00012595843
5.5090118e-05
9.4441516e-06
0.00031899154
0.00026100051
0.00022620184
0.00025410353
0.00031171699
0.00035206378
0.00035409672
0.00032360821
0.00026881588
0.00016606626
2.9349702e-05
6.2735166e-08
3.6170743e-12
8.2813573e-18
6.3791505e-25
1.3722672e-32
1.4333613e-35
3.0518892e-37
5.8984024e-39
8.8613421e-41
9.688337e-43
7.4219826e-45
3.8848641e-47
1.3629604e-49
3.1514974e-52
4.7313746e-55
4.5369338e-58
2.721578e-61
9.9641412e-65
2.1610425e-68
2.668345e-72
1.7747776e-76
5.9888452e-81
9.464788e-86
6.1106747e-99
2.6578235e-114
3.0915612e-132
5.3665504e-153
3.9115405e-176
0.00033314806
0.00034146893
0.00031101423
0.00028726729
0.00029475087
0.00031398482
0.00032897848
0.00034428859
0.00033943698
0.0002990106
0.00024492194
0.00021109258
0.0002037138
0.00018889534
0.00013651333
5.9962889e-05
8.5390727e-06
3.026481e-07
0.00027983659
0.00024364588
0.00026857096
0.00032595342
0.00036662701
0.00036734525
0.00033874243
0.00029562039
0.00022016072
8.3862503e-05
1.7592088e-06
6.0103906e-10
1.0186286e-14
7.3849694e-21
2.6869948e-28
2.235318e-33
5.340887e-35
1.4457479e-36
2.9237182e-38
4.2397463e-40
4.3126876e-42
3.0262935e-44
1.4438042e-46
4.6200132e-49
9.780547e-52
1.3515389e-54
1.2001469e-57
6.7123852e-61
2.3081653e-64
4.7387133e-68
5.5609583e-72
3.5429222e-76
1.1541584e-80
3.0339996e-93
6.72218e-108
5.1529922e-125
6.8287519e-145
4.2109521e-167
9.1470826e-191
0.00029717364
0.00034488824
0.00034285223
0.00030408097
0.00027397292
0.00027915923
0.00030176793
0.00032113941
0.00033598574
0.00032523957
0.00027669225
0.00021519568
0.00017660278
0.00016174003
0.00013283576
6.8072839e-05
1.0028454e-05
2.550847e-07
2.3570363e-09
0.00025963542
0.00028075831
0.00033689753
0.0003778142
0.0003760198
0.00034633032
0.00031059581
0.00025763691
0.00014780676
1.5107705e-05
2.8120326e-08
2.6910476e-12
1.4576476e-17
3.8108934e-24
1.1021542e-30
7.670083e-33
2.7294723e-34
7.1673379e-36
1.3384987e-37
1.7620115e-39
1.6190881e-41
1.026808e-43
4.4421953e-46
1.2956661e-48
2.5163807e-51
3.2123667e-54
2.6542769e-57
1.391925e-60
4.52369e-64
8.8432214e-68
9.9336542e-72
6.109182e-76
5.8501228e-88
5.6503138e-102
2.2961301e-118
1.7790301e-137
4.8330032e-159
5.5598035e-182
6.7009717e-206
0.00027434338
0.000312847
0.00035349832
0.00034192273
0.00029532223
0.0002590317
0.00026158107
0.00028673798
0.00030990712
0.00032367541
0.00030642746
0.00024840179
0.0001793918
0.00013391877
0.00010799546
6.5313047e-05
1.2928169e-05
3.1060459e-07
1.8035265e-09
4.6657486e-12
0.0002904467
0.00034413807
0.00038491575
0.000380328
0.0003478034
0.00031675808
0.00028151247
0.00019985722
6.2729268e-05
4.7632185e-07
1.931776e-10
5.9613744e-15
1.1306912e-20
2.8338645e-27
1.001238e-30
4.017075e-32
1.3205426e-33
3.0913771e-35
5.1436562e-37
6.0523652e-39
4.9932009e-41
2.8578937e-43
1.1225858e-45
2.9934647e-48
5.3560898e-51
6.3493774e-54
4.9109964e-57
2.4306775e-60
7.519371e-64
1.4084042e-67
1.5266475e-71
4.8983062e-83
1.8485397e-96
3.4546532e-112
1.3442629e-130
1.4717638e-151
3.8744169e-174
2.6541042e-197
1.75621e-221
0.0002978856
0.0002874305
0.0003264515
0.0003591642
0.00033862098
0.00028471976
0.00024215531
0.00024137343
0.00026829878
0.00029455349
0.00030670996
0.00028176195
0.00021272949
0.00013450751
8.0837611e-05
4.5647267e-05
1.1926017e-05
4.468837e-07
2.1943516e-09
3.1317122e-12
2.3509576e-15
0.00034713831
0.00038675828
0.00037974165
0.00034365072
0.00031591442
0.00029464794
0.00024002683
0.00011878509
7.7144521e-06
4.8584925e-09
6.3772796e-13
7.0116091e-18
7.1112897e-24
1.7027862e-28
4.7991859e-30
1.8948773e-31
5.3469972e-33
1.0926672e-34
1.6103228e-36
1.6915984e-38
1.2542132e-40
6.4939937e-43
2.3241807e-45
5.6914143e-48
9.4316865e-51
1.0446396e-53
7.6156569e-57
3.5840016e-60
1.0637216e-63
1.9221044e-67
1.9336797e-78
2.6261156e-91
2.0405104e-106
3.588954e-124
1.5347878e-144
9.2878045e-167
9.9476476e-190
5.6817176e-213
1.8120811e-237
0.00034598377
0.00030305647
0.00029932238
0.00033777912
0.00036199447
0.00033298147
0.00027190917
0.0002229709
0.00021824359
0.00024600071
0.00027459321
0.00028432315
0.00024863889
0.0001655591
7.9119108e-05
2.6161003e-05
5.9362479e-06
4.0990252e-07
3.4047427e-09
3.7446219e-12
1.3264216e-15
3.1717198e-19
0.0003825492
0.0003732321
0.00033411947
0.00030925528
0.00030012759
0.0002688101
0.00017133689
3.8049327e-05
1.9449704e-07
2.2815221e-11
1.1432319e-15
6.7339068e-21
7.2204655e-26
5.4457169e-28
2.251721e-29
7.3778771e-31
1.7576577e-32
3.1106206e-34
4.0705437e-36
3.8278212e-38
2.5584101e-40
1.2028458e-42
3.9402194e-45
8.9082015e-48
1.3756667e-50
1.4334298e-53
9.9248849e-57
4.4777186e-60
1.2846869e-63
3.8339826e-74
1.7553303e-86
5.2571062e-101
3.8695522e-118
6.2403964e-138
9.7951448e-160
1.3424173e-182
1.3619594e-205
5.534811e-229
1.3260982e-253
0.00037197835
0.00034075835
0.00030699022
0.00031029217
0.00034655114
0.0003619322
0.00032467652
0.00025652943
0.00020106233
0.00019188262
0.00021934275
0.00024907795
0.00025394152
0.00020100224
0.00010581061
2.3766147e-05
2.1774562e-06
1.5970207e-07
3.2037963e-09
6.2542273e-12
1.5355146e-15
1.4895789e-19
1.2412002e-23
0.00036043094
0.00031970571
0.00029794158
0.00030002104
0.00028928281
0.00021754171
8.6701109e-05
2.7521255e-06
1.9725674e-09
6.9354125e-14
3.4987902e-18
2.2772217e-22
2.2448163e-25
2.9717534e-27
8.8679283e-29
2.3225627e-30
4.6050867e-32
7.100211e-34
8.2858031e-36
7.0004596e-38
4.2339879e-40
1.815677e-42
5.4726516e-45
1.1493269e-47
1.6653611e-50
1.6449359e-53
1.0906943e-56
4.7605468e-60
4.0156399e-70
5.8699461e-82
6.3825147e-96
1.8554228e-112
1.0916456e-131
4.741219e-153
1.0134768e-175
9.6128299e-199
1.0698582e-221
4.1104993e-245
8.8830621e-270
0.00034137756
0.00035557815
0.00033309491
0.00031030432
0.00031980569
0.00035241028
0.00035889253
0.00031338108
0.0002381138
0.00017602077
0.00016204271
0.0001875245
0.00021816368
0.00020934645
0.00013833825
3.9438615e-05
1.6661428e-06
4.1338494e-08
1.0886842e-09
6.0824559e-12
2.7220535e-15
1.5473776e-19
4.9483799e-24
1.5509592e-28
0.00030107017
0.00028308941
0.00029610376
0.00030420907
0.00025740303
0.00013806025
1.7525456e-05
5.4138684e-08
1.4102489e-11
2.2454159e-15
3.655118e-18
4.7138998e-21
4.73679e-24
1.7747485e-26
2.7582115e-28
5.5870084e-30
9.4354247e-32
1.298425e-33
1.3570603e-35
1.0340526e-37
5.6842501e-40
2.2348259e-42
6.2353995e-45
1.2248239e-47
1.6779687e-50
1.5841743e-53
1.0149015e-56
2.3158122e-66
1.0310427e-77
3.8732218e-91
4.2515337e-107
8.9009412e-126
1.086455e-146
4.4813537e-169
3.8825928e-192
4.7959371e-215
7.4794345e-238
2.8722695e-261
5.3790842e-286
0.00027884898
0.00031712179
0.00033585234
0.00032450026
0.00031279919
0.00032717109
0.00035504451
0.00035242024
0.00029881857
0.00021601679
0.00014759987
0.00012876484
0.00015471132
0.00017595868
0.00014783089
6.4716418e-05
3.5030785e-06
2.4716113e-08
2.0590081e-10
1.8591852e-12
2.7044854e-15
2.7746954e-19
4.3515874e-24
5.3487647e-29
6.496819e-34
0.0002657216
0.00028973294
0.00031578317
0.00029245493
0.00018836138
5.3470133e-05
7.5830631e-07
8.0861209e-10
1.4356892e-12
2.962469e-14
2.0975422e-16
3.4583752e-19
1.6878664e-22
8.7955673e-26
6.16422e-28
1.0173188e-29
1.5220556e-31
1.9023087e-33
1.7875852e-35
1.2336156e-37
6.194001e-40
2.2457075e-42
5.8395323e-45
1.0810957e-47
1.4120633e-50
1.2857961e-53
7.6162106e-63
9.8960147e-74
1.2305014e-86
4.9179044e-102
3.6051955e-120
1.2341382e-140
1.0997243e-162
1.149067e-185
9.9899865e-209
2.7130304e-231
5.2878406e-254
1.827705e-277
2.9382383e-302
0.00024672691
0.00025375863