/*--------------------------------*- C++ -*----------------------------------*\
| =========                 |                                                 |
| \\      /  F ield         | OpenFOAM: The Open Source CFD Toolbox           |
|  \\    /   O peration     | Version:  5.0                                   |
|   \\  /    A nd           | Web:      www.OpenFOAM.org                      |
|    \\/     M anipulation  |                                                 |
\*---------------------------------------------------------------------------*/
FoamFile
{
    version     2.0;
    format      ascii;
    class       volScalarField;
    location    "220";
    object      nuTilda_0;
}
// * * * * * * * * * * * * * * * * * * * * * * * * * * * * * * * * * * * * * //

dimensions      [0 2 -1 0 0 0 0];

internalField   nonuniform List<scalar> 
9520
(
4.8329001e-33
5.1303069e-31
4.6772621e-33
2.6646964e-29
4.9666799e-31
4.5234241e-33
8.9943342e-28
2.5801819e-29
4.8044423e-31
4.3809341e-33
2.2209013e-26
8.7106443e-28
2.4963034e-29
4.6551881e-31
4.2587663e-33
4.2876894e-25
2.1512399e-26
8.4294243e-28
2.4197173e-29
4.5295801e-31
4.1594879e-33
6.764835e-24
4.1537544e-25
2.0824124e-26
8.1745215e-28
2.3562909e-29
4.4296417e-31
4.0770655e-33
8.9866998e-23
6.5545324e-24
4.0220366e-25
2.0204668e-26
7.965911e-28
2.3065075e-29
4.3458948e-31
3.9979962e-33
1.0241322e-21
8.7103542e-23
6.3487714e-24
3.9043511e-25
1.9701408e-26
7.802957e-28
2.2638413e-29
4.2603412e-31
3.9048402e-33
1.0158056e-20
9.9321767e-22
8.4412409e-23
6.1662721e-24
3.8091006e-25
1.9306444e-26
7.6586676e-28
2.2173339e-29
4.1530941e-31
3.7838841e-33
8.8877674e-20
9.8596726e-21
9.6319102e-22
8.2040886e-23
6.0187052e-24
3.7333451e-25
1.8942257e-26
7.4919161e-28
2.1564368e-29
4.0124903e-31
3.6339533e-33
7.0553492e-19
8.6326728e-20
9.5696432e-21
9.3679054e-22
8.0121231e-23
5.8989518e-24
3.6601704e-25
1.8500732e-26
7.267775e-28
2.0770963e-29
3.8438105e-31
3.472176e-33
5.9664738e-18
6.828648e-19
8.384324e-20
9.3127267e-21
9.1533585e-22
7.8526705e-23
5.7773739e-24
3.5680664e-25
1.790102e-26
6.9802751e-28
1.9855829e-29
3.6724767e-31
3.3317662e-33
9.7539172e-17
5.5926806e-18
6.6112641e-19
8.1584101e-20
9.10231e-21
8.9712258e-22
7.682642e-23
5.6197712e-24
3.4432041e-25
1.7148924e-26
6.662401e-28
1.898385e-29
3.5377201e-31
3.2503161e-33
3.3616962e-15
8.5612696e-17
5.240917e-18
6.4042145e-19
7.9714931e-20
8.9214572e-21
8.7686567e-22
7.4566027e-23
5.4081489e-24
3.2910556e-25
1.6353067e-26
6.3791424e-28
1.8370034e-29
3.4771524e-31
3.2523852e-33
1.2261649e-13
2.9873416e-15
7.2349117e-17
4.8783326e-18
6.2344623e-19
7.8133904e-20
8.7143861e-21
8.4930667e-22
7.1564815e-23
5.1587496e-24
3.1373632e-25
1.5691602e-26
6.2038235e-28
1.8187986e-29
3.5080647e-31
3.334616e-33
3.6752059e-12
1.138697e-13
2.4085267e-15
5.6698798e-17
4.5892186e-18
6.1027743e-19
7.6309452e-20
8.42525e-21
8.1304277e-22
6.8148047e-23
4.9192281e-24
3.0187125e-25
1.5340123e-26
6.1847904e-28
1.8476271e-29
3.6146284e-31
3.4614976e-33
8.5529723e-11
3.5455504e-12
9.2255588e-14
1.6425389e-15
4.4228242e-17
4.4080051e-18
5.9595785e-19
7.3670651e-20
8.0455244e-21
7.7310812e-22
6.503914e-23
4.7489716e-24
2.9664836e-25
1.5386876e-26
6.3166665e-28
1.9090405e-29
3.7483873e-31
3.5747308e-33
1.5079184e-09
8.4872273e-11
2.8947612e-12
6.1134042e-14
1.0430817e-15
3.7580868e-17
4.272726e-18
5.7453856e-19
7.0169078e-20
7.6397879e-21
7.3877378e-22
6.3030173e-23
4.6912547e-24
2.9907634e-25
1.5772545e-26
6.5312829e-28
1.9731807e-29
3.8428845e-31
3.6124585e-33
1.9645827e-08
1.5243281e-09
6.9758138e-11
1.9073515e-12
3.7768328e-14
7.6733199e-16
3.4724292e-17
4.0966514e-18
5.4541608e-19
6.6517838e-20
7.3113612e-21
7.189059e-22
6.2588786e-23
4.7495678e-24
3.0714135e-25
1.6287217e-26
6.7158987e-28
2.0046436e-29
3.8363911e-31
3.5305737e-33
1.8553655e-07
2.0067451e-08
1.2602072e-09
4.6055193e-11
1.2141364e-12
2.9355856e-14
7.0041572e-16
3.2337254e-17
3.8538445e-18
5.1558879e-19
6.3746615e-20
7.1451701e-21
7.1736441e-22
6.358251e-23
4.8787146e-24
3.1613773e-25
1.6634653e-26
6.7527604e-28
1.9750506e-29
3.6936912e-31
3.3183584e-33
1.2409843e-06
1.8961287e-07
1.6814325e-08
8.42953e-10
3.0765263e-11
1.05974e-12
3.0020545e-14
6.4525328e-16
2.8611155e-17
3.6089899e-18
4.9445614e-19
6.2567236e-20
7.1625785e-21
7.3051019e-22
6.5239058e-23
4.9963922e-24
3.2023963e-25
1.6540591e-26
6.5627142e-28
1.8732789e-29
3.4192817e-31
3.003588e-33
5.8691391e-06
1.2621082e-06
1.6104637e-07
1.1677988e-08
5.9940817e-10
3.0132883e-11
1.2124521e-12
2.9282083e-14
4.8008854e-16
2.4754636e-17
3.4482052e-18
4.8735307e-19
6.2997792e-20
7.305231e-21
7.4774124e-22
6.6385693e-23
5.0125257e-24
3.1470632e-25
1.585842e-26
6.1345836e-28
1.7100415e-29
3.0581611e-31
2.6461878e-33
1.9718316e-05
5.93306e-06
1.0933497e-06
1.1733073e-07
9.057582e-09
6.4546294e-10
3.7412325e-11
1.2371989e-12
2.0465493e-14
2.9034588e-16
2.2428267e-17
3.4076792e-18
4.929303e-19
6.4318329e-20
7.4512833e-21
7.5516984e-22
6.58896e-23
4.8645091e-24
2.9777731e-25
1.4626406e-26
5.5320156e-28
1.5158268e-29
2.6847794e-31
2.3231989e-33
4.8733543e-05
1.9811497e-05
5.2317148e-06
8.410949e-07
9.8334658e-08
1.0132063e-08
8.3946245e-10
3.9135326e-11
8.5574337e-13
9.7065563e-15
1.8043872e-16
2.1760417e-17
3.4627999e-18
5.0374442e-19
6.5318929e-20
7.4613062e-21
7.4106931e-22
6.3115649e-23
4.5433088e-24
2.7143025e-25
1.306306e-26
4.8783141e-28
1.3332773e-29
2.3843349e-31
2.110091e-33
9.3647443e-05
4.8842986e-05
1.779408e-05
4.2308893e-06
7.4705662e-07
1.1226285e-07
1.3312303e-08
8.8565584e-10
2.6873442e-11
3.8105032e-13
3.6922737e-15
1.4124434e-16
2.2091412e-17
3.5439176e-18
5.0911713e-19
6.4791168e-20
7.2352404e-21
7.0075685e-22
5.8206551e-23
4.0991497e-24
2.4088568e-25
1.1511616e-26
4.3253266e-28
1.2065631e-29
2.2323105e-31
2.0636699e-33
0.00014844491
9.38435e-05
4.4666824e-05
1.5056739e-05
3.9349325e-06
8.6023694e-07
1.4602353e-07
1.4005808e-08
6.0570152e-10
1.1633355e-11
1.2573464e-13
1.5922288e-15
1.3383106e-16
2.262994e-17
3.5642877e-18
4.9983178e-19
6.2043573e-20
6.7551001e-21
6.3885351e-22
5.2068055e-23
3.6275212e-24
2.1324539e-25
1.0353006e-26
4.0159222e-28
1.1708232e-29
2.2775286e-31
2.210245e-33
0.00020085194
0.00014857861
8.7172571e-05
3.9108248e-05
1.448365e-05
4.5444679e-06
1.0957778e-06
1.5212636e-07
9.5931755e-09
2.6151294e-10
3.7019028e-12
4.245158e-14
1.0768743e-15
1.3533456e-16
2.2648018e-17
3.4605562e-18
4.7226979e-19
5.7198719e-20
6.0961151e-21
5.6805867e-22
4.6107168e-23
3.2439532e-24
1.9569224e-25
9.91191e-27
4.0499764e-28
1.244194e-29
2.5318635e-31
2.540572e-33
0.00024407092
0.0001996211
0.00013882332
7.7992905e-05
3.8405568e-05
1.6683781e-05
5.6294587e-06
1.1272535e-06
1.0504491e-07
4.2357517e-09
8.7790833e-11
1.3148484e-12
2.5506322e-14
1.0415301e-15
1.3443835e-16
2.1721289e-17
3.2225797e-18
4.2985996e-19
5.1167842e-20
5.4039425e-21
5.0544351e-22
4.1859502e-23
3.0547555e-24
1.9371393e-25
1.037893e-26
4.461164e-28
1.423772e-29
2.9675859e-31
3.0114223e-33
0.00028040245
0.00024181655
0.00018719363
0.00012569113
7.7161491e-05
4.3899654e-05
2.0061774e-05
5.7028413e-06
7.8994755e-07
4.8593967e-08
1.5784584e-09
3.6276703e-11
1.0375777e-12
2.8860421e-14
1.0398254e-15
1.2648183e-16
1.9899293e-17
2.8945425e-18
3.8166408e-19
4.5358652e-20
4.8524207e-21
4.6795527e-22
4.0601601e-23
3.1304736e-24
2.0975747e-25
1.1764011e-26
5.20807e-28
1.6857768e-29
3.5219078e-31
3.5528412e-33
0.00031118158
0.00027694881
0.00022766769
0.00017213892
0.00012460682
8.724499e-05
5.1294886e-05
2.0023274e-05
4.0775056e-06
3.8832759e-07
2.0237189e-08
7.8031131e-10
3.6240842e-11
1.4353386e-12
3.1646672e-14
8.8854818e-16
1.1286288e-16
1.7616386e-17
2.5537432e-18
3.3938324e-19
4.1276782e-20
4.5985291e-21
4.6814939e-22
4.3027441e-23
3.4878212e-24
2.4255861e-25
1.3887392e-26
6.1801408e-28
1.9895823e-29
4.1076072e-31
4.0799179e-33
0.00033704355
0.00030640198
0.00026147217
0.00021163631
0.00017191834
0.00013926981
9.9451063e-05
5.0624366e-05
1.4696702e-05
2.1501873e-06
1.8206046e-07
1.2072625e-08
9.0623213e-10
5.5236889e-11
1.6701281e-12
2.2972119e-14
6.7051936e-16
9.7863577e-17
1.5454599e-17
2.2848171e-18
3.1420477e-19
4.0148427e-20
4.7429561e-21
5.1091653e-22
4.9055658e-23
4.0833614e-24
2.8723964e-25
1.6408754e-26
7.217224e-28
2.2848693e-29
4.6283102e-31
4.5074837e-33
0.00035714663
0.00033062219
0.00029036154
0.0002449021
0.00021238505
0.00019026943
0.00015619382
9.7715599e-05
3.8359151e-05
8.3736008e-06
1.1440417e-06
1.298797e-07
1.5485734e-08
1.4403707e-09
6.5692286e-11
1.1899324e-12
1.043724e-14
5.1715752e-16
8.5275002e-17
1.3950993e-17
2.1592024e-18
3.141666e-19
4.2613315e-20
5.3024404e-21
5.9186574e-22
5.7804338e-23
4.8200359e-24
3.3617041e-25
1.8889984e-26
8.139177e-28
2.5207942e-29
4.996041e-31
4.7652834e-33
0.00037183434
0.00034940953
0.00031402892
0.00027399866
0.00024599633
0.00023246923
0.00020979895
0.00015318251
7.6669529e-05
2.3666608e-05
5.0754035e-06
9.5938079e-07
1.7755858e-07
2.48339e-08
1.7231895e-09
4.7172179e-11
4.6996341e-13
4.0055628e-15
4.3453298e-16
7.7830766e-17
1.3493245e-17
2.2201568e-18
3.4215442e-19
4.8529605e-20
6.1999702e-21
6.9774168e-22
6.7743105e-23
5.5656359e-24
3.8044872e-25
2.0879805e-26
8.7802459e-28
2.655699e-29
5.1475214e-31
4.8104829e-33
0.00038178638
0.00036304895
0.00033276478
0.00029839659
0.00027511303
0.00026611503
0.00025169221
0.00020426951
0.00012358561
5.0975409e-05
1.6225386e-05
4.8694262e-06
1.3594676e-06
2.8102109e-07
2.9582452e-08
1.2503713e-09
1.8687892e-11
1.1088478e-13
2.2568804e-15
3.9974269e-16
7.7186525e-17
1.4258737e-17
2.4720536e-18
3.9478739e-19
5.6945845e-20
7.2762912e-21
8.0891565e-22
7.6998503e-23
6.1794509e-24
4.1172075e-25
2.2004258e-26
9.0217262e-28
2.6650324e-29
5.0554824e-31
4.6345199e-33
0.00038722431
0.00037228503
0.00034679455
0.00031826681
0.00029966314
0.00029411604
0.0002837548
0.00024403594
0.00016890526
8.7644671e-05
3.8689668e-05
1.7191546e-05
6.9910304e-06
2.0895726e-06
3.3077636e-07
2.1728452e-08
5.0899448e-10
4.3185844e-12
2.4593375e-14
1.9320679e-15
4.0669154e-16
8.3722936e-17
1.6170992e-17
2.8754751e-18
4.6266613e-19
6.6267686e-20
8.3217727e-21
9.0339424e-22
8.370097e-23
6.5377506e-24
4.2381927e-25
2.2042335e-26
8.8145746e-28
2.5454839e-29
4.7321501e-31
4.2624544e-33
0.00038889184
0.00037757404
0.00035686731
0.0003338725
0.00031977317
0.0003170976
0.00030922176
0.00027454304
0.00020672695
0.00012691749
7.1896883e-05
4.3552365e-05
2.4540679e-05
1.0311667e-05
2.4142478e-06
2.4641423e-07
9.2113767e-09
1.2661695e-10
8.132227e-13
1.0686999e-14
1.9899741e-15
4.5207312e-16
9.6377009e-17
1.8883276e-17
3.3521375e-18
5.3218099e-19
7.459647e-20
9.1168772e-21
9.6074932e-22
8.6412967e-23
6.5626027e-24
4.1390108e-25
2.096465e-26
8.1858422e-28
2.3143053e-29
4.2235546e-31
3.7452242e-33
0.00038808818
0.00037987796
0.00036348859
0.00034590171
0.00033573004
0.0003355354
0.000329477
0.00029902703
0.00023704752
0.00016310861
0.00011016882
8.3444752e-05
6.0927659e-05
3.4476502e-05
1.1636187e-05
1.8270982e-06
1.0997278e-07
2.5217082e-09
2.6378051e-11
1.6141218e-13
9.3561938e-15
2.2603064e-15
5.2689092e-16
1.1260204e-16
2.1828869e-17
3.8013274e-18
5.8857108e-19
8.0092964e-20
9.4817601e-21
9.6802808e-22
8.4479788e-23
6.2400942e-24
3.8316228e-25
1.8927197e-26
7.227414e-28
2.0039854e-29
3.5974081e-31
3.147328e-33
0.00038541095
0.00038026297
0.00036767077
0.00035473694
0.00034832055
0.00034980515
0.00034515303
0.00031845299
0.0002636521
0.0001937034
0.00014719531
0.00012920449
0.00011348823
8.1384566e-05
3.7922187e-05
8.966741e-06
8.6602246e-07
3.3338759e-08
5.8915273e-10
4.9822855e-12
5.802343e-14
1.0612331e-14
2.664312e-15
6.1451083e-16
1.2875742e-16
2.4352164e-17
4.1240105e-18
6.1887317e-19
8.1426997e-20
9.3239629e-21
9.219906e-22
7.8118514e-23
5.6177904e-24
3.3623806e-25
1.6226287e-26
6.0709339e-28
1.6543008e-29
2.9278009e-31
2.5335198e-33
0.00038102719
0.00037937224
0.00037102276
0.00036115771
0.00035772083
0.00036076339
0.00035672037
0.00033356536
0.00028573682
0.00022207607
0.00017964612
0.00017203618
0.00017062406
0.00014439589
8.7419484e-05
2.9864687e-05
4.545054e-06
2.9085705e-07
8.6642047e-09
1.2304712e-10
1.0279637e-12
5.2055427e-14
1.2660475e-14
3.0989925e-15
6.9366404e-16
1.4105167e-16
2.5876192e-17
4.2443518e-18
6.1484053e-19
7.8137554e-20
8.6539599e-21
8.2939096e-22
6.8310948e-23
4.7892967e-24
2.7985495e-25
1.3221323e-26
4.8572368e-28
1.3039086e-29
2.2811887e-31
1.9580149e-33
0.00037825223
0.00037953731
0.0003738975
0.00036631195
0.00036437286
0.00036843405
0.00036485486
0.00034466433
0.00030398344
0.00024704214
0.00020761501
0.00020800338
0.00022018115
0.00020781095
0.00015169554
7.0604314e-05
1.6259521e-05
1.6869737e-06
8.3461562e-08
2.0320091e-09
2.7844518e-11
5.9072552e-13
6.5134337e-14
1.4727359e-14
3.4479742e-15
7.4468732e-16
1.4658842e-16
2.6044879e-17
4.1195743e-18
5.7567381e-19
7.0675344e-20
7.5764215e-21
7.0463976e-22
5.6512021e-23
3.869281e-24
2.2118628e-25
1.0255599e-26
3.7092437e-28
9.838738e-30
1.7070785e-31
1.4583866e-33
0.00037630355
0.00038062019
0.00038129101
0.00037018736
0.00036916062
0.00037328456
0.0003697548
0.00035237193
0.0003186925
0.00026864332
0.00023239048
0.00023646686
0.00025790209
0.00025960774
0.00021399827
0.00012561518
4.1383927e-05
6.6345272e-06
5.3253639e-07
2.2256358e-08
5.9425202e-10
2.0311417e-11
1.0246641e-12
8.119384e-14
1.613271e-14
3.6186963e-15
7.5535243e-16
1.4405436e-16
2.4691484e-17
3.7631551e-18
5.0742817e-19
6.0230392e-20
6.2575547e-21
5.657643e-22
4.4280636e-23
2.9673781e-24
1.6640871e-25
7.5967694e-27
2.7148574e-28
7.1442469e-30
1.2346682e-31
1.0545137e-33
0.0003727811
0.00038093571
0.00038208234
0.00038178106
0.00037190234
0.00037592777
0.00037203095
0.00035712083
0.00033033809
0.00028717499
0.00025394502
0.0002593755
0.00028553426
0.00029492766
0.00026242574
0.00018048125
7.9064572e-05
1.8468606e-05
2.3076082e-06
1.6592484e-07
9.0707115e-09
6.2724529e-10
4.3722022e-11
1.7141204e-12
8.8153432e-14
1.6451112e-14
3.5719275e-15
7.2345063e-16
1.3335983e-16
2.200375e-17
3.2326454e-18
4.2099759e-19
4.838116e-20
4.8807578e-21
4.3009577e-22
3.2954172e-23
2.1687184e-24
1.1983084e-25
5.4126707e-27
1.92226e-28
5.0498436e-30
8.7481702e-32
7.515432e-34
0.00037246126
0.00037549069
0.00038373914
0.00038176168
0.00038097253
0.00037633848
0.00037211738
0.0003595844
0.00033936001
0.00030299994
0.00027255027
0.00027860096
0.00030531084
0.00031776068
0.00029403789
0.00022455445
0.00012108979
3.8446957e-05
7.1535698e-06
8.7888912e-07
9.8118902e-08
1.2671339e-08
1.4048125e-09
7.8392456e-11
1.9212126e-12
8.0569985e-14
1.568842e-14
3.3246951e-15
6.5347898e-16
1.1592365e-16
1.8422223e-17
2.6117232e-18
3.2904753e-19
3.6695256e-20
3.6059274e-21
3.1103985e-22
2.3454847e-23
1.5253483e-24
8.3704624e-26
3.7746804e-27
1.3457276e-28
3.5660935e-30
6.253855e-32
5.4496256e-34
0.0003745026
0.00037079592
0.0003782342
0.00038434598
0.00037983515
0.00037803022
0.00037036612
0.00036039639
0.00034640487
0.00031635205
0.00028852255
0.00029458656
0.00032102536
0.00033398458
0.00031445746
0.00025612247
0.00015930341
6.4176262e-05
1.6876526e-05
3.4895627e-06
7.4460211e-07
1.6285834e-07
2.7920576e-08
2.4724077e-09
8.8856518e-11
1.2972539e-12
6.7561381e-14
1.4112756e-14
2.9247381e-15
5.5396698e-16
9.460017e-17
1.4499207e-17
1.9877274e-18
2.4301399e-19
2.6415182e-20
2.5443501e-21
2.1668882e-22
1.6254979e-23
1.058413e-24
5.8595638e-26
2.6837474e-27
9.7748563e-29
2.6552264e-30
4.775929e-32
4.2596004e-34
0.00036710273
0.00036989877
0.00037022643
0.00037975798
0.00038286
0.0003757459
0.0003714626
0.0003602179
0.00035221282
0.00032763215
0.00030214192
0.00030784071
0.00033306581
0.00034570878
0.00032909831
0.00028037249
0.00019069251
9.1778071e-05
3.2348729e-05
1.0694621e-05
3.9327125e-06
1.3416656e-06
3.4340781e-07
4.7464261e-08
2.7900643e-09
5.7897649e-11
5.6904335e-13
5.6284009e-14
1.2046757e-14
2.416637e-15
4.4067247e-16
7.2573791e-17
1.0758907e-17
1.4326864e-18
1.7112204e-19
1.8311363e-20
1.7535176e-21
1.5025298e-22
1.1470234e-23
7.6761026e-25
4.4072049e-26
2.1050001e-27
8.007598e-29
2.2651978e-30
4.2160221e-32
3.857732e-34
0.00035997553
0.00036230431
0.00036538892
0.00036964325
0.00037940368
0.00037908137
0.00036801703
0.00036060411
0.00035681356
0.00033758674
0.0003137431
0.00031861446
0.00034235818
0.00035324065
0.00033876924
0.00029876675
0.00022302561
0.00011821168
5.2720017e-05
2.5612014e-05
1.4430334e-05
7.2079975e-06
2.6590386e-06
5.5905787e-07
5.2975153e-08
1.8675325e-09
2.0582859e-11
2.5413947e-13
4.611733e-14
9.686749e-15
1.8740602e-15
3.2981575e-16
5.2609722e-17
7.5965119e-18
9.9336836e-19
1.1784185e-19
1.2709618e-20
1.2484372e-21
1.1169219e-22
9.017665e-24
6.4311167e-25
3.9405659e-26
1.9991512e-27
8.0031805e-29
2.3546611e-30
4.5026402e-32
4.1837643e-34
0.00036177905
0.0003583981
0.00035650818
0.00036042199
0.00036803327
0.00037675614
0.00037181723
0.00035623294
0.00034520253
0.00034632871
0.00032361767
0.00032720357
0.00034893201
0.00035787622
0.00034406079
0.000311953
0.00024929799
0.00015031851
7.5928782e-05
4.856706e-05
3.7618733e-05
2.5826557e-05
1.3260654e-05
4.1125326e-06
6.1450592e-07
3.644733e-08
7.0812539e-10
4.1452058e-12
1.6961943e-13
3.5947489e-14
7.3220497e-15
1.3701592e-15
2.3430597e-16
3.6609021e-17
5.2417794e-18
6.915461e-19
8.460153e-20
9.6382552e-21
1.0213631e-21
9.970847e-23
8.7735903e-24
6.7587879e-25
4.4079833e-26
2.3433427e-27
9.686008e-29
2.9055797e-30
5.607254e-32
5.2145103e-34
0.00035438883
0.00036420479
0.00035527157
0.00035005678
0.00035458954
0.00036456287
0.0003710822
0.00036056846
0.00034025559
0.00032452139
0.00033197516
0.00033393122
0.00035325093
0.00035961375
0.00034591123
0.00032053412
0.00027097951
0.00018066753
0.00010155159
7.676119e-05
7.2898643e-05
6.4233728e-05
4.3780286e-05
1.9338755e-05
4.436937e-06
4.3409821e-07
1.4971839e-08
1.4821672e-10
9.5216975e-13
1.2495951e-13
2.6458553e-14
5.2394339e-15
9.5853219e-16
1.622005e-16
2.5551236e-17
3.7836919e-18
5.3173411e-19
7.1179268e-20
9.0136908e-21
1.0613147e-21
1.1338487e-22
1.0684863e-23
8.6357401e-25
5.8047138e-26
3.1388303e-27
1.3071216e-28
3.9238645e-30
7.5414472e-32
6.9590554e-34
0.00033908726
0.00036046486
0.00036449837
0.000350401
0.00034226312
0.00034726956
0.00035854796
0.0003616832
0.00034527536
0.00031935381
0.00029852159
0.00033879291
0.00035555328
0.00035913626
0.00034494678
0.00032544018
0.00028839382
0.00020868225
0.0001283716
0.00010223807
0.00011389089
0.00011772814
0.00010006991
5.9895581e-05
2.0435829e-05
3.2217291e-06
1.9301896e-07
3.6250126e-09
2.2727663e-11
4.4591543e-13
8.9152716e-14
1.8577584e-14
3.6355822e-15
6.693049e-16
1.1713803e-16
1.9743737e-17
3.2311401e-18
5.1166919e-19
7.7113864e-20
1.0792351e-20
1.3671433e-21
1.530539e-22
1.4812385e-23
1.2120077e-24
8.1709219e-26
4.4064903e-27
1.8238388e-28
5.4305968e-30
1.0339822e-31
9.4437035e-34
0.00034199136
0.00034475437
0.00036450185
0.00036266908
0.00034353174
0.00033282451
0.00033787466
0.00034936541
0.00034831177
0.00032515805
0.0002934327
0.00026733586
0.0003558232
0.00035649885
0.00034177977
0.00032764454
0.00030195084
0.00023407712
0.00015482761
0.00012719101
0.00014851261
0.00017341869
0.00016964486
0.00012851031
6.2096214e-05
1.5299189e-05
1.5533218e-06
5.3938239e-08
6.4021048e-10
3.833737e-12
2.8575901e-13
6.1587493e-14
1.2917598e-14
2.6094648e-15
5.1431742e-16
1.0006035e-16
1.920347e-17
3.5777774e-18
6.310428e-19
1.0263319e-19
1.5045202e-20
1.951298e-21
2.2028206e-22
2.1306013e-23
1.731737e-24
1.1566887e-25
6.1731578e-27
2.5277483e-28
7.4471559e-30
1.4034523e-31
1.2691334e-33
0.00035406865
0.00034359175
0.00034935339
0.00036650853
0.00035869041
0.00033478413
0.00032129532
0.0003261362
0.00033659113
0.0003302892
0.00030001333
0.00026273043
0.00023182291
0.00035183294
0.00033671872
0.0003280223
0.00031239784
0.0002566249
0.0001801835
0.00015094692
0.00017615667
0.00021948238
0.00023289125
0.00020558301
0.00013146856
4.8235478e-05
8.0309487e-06
4.9897039e-07
1.1341988e-08
9.8890564e-11
1.1206898e-12
1.9297114e-13
4.3490034e-14
9.7545752e-15
2.1952469e-15
4.9659976e-16
1.1121124e-16
2.3989445e-17
4.8452686e-18
8.9561195e-19
1.4886072e-19
2.1942396e-20
2.8344061e-21
3.1707931e-22
3.0313463e-23
2.4317024e-24
1.6033704e-25
8.4528602e-27
3.4221338e-28
9.9780005e-30
1.8627257e-31
9.8107964e-36
0.00034508268
0.00035007567
0.00034362979
0.00035278789
0.00036644622
0.00035267434
0.00032377908
0.00030730429
0.00031166206
0.00031952911
0.00030728062
0.0002701485
0.00022767129
0.00018982904
0.00033009925
0.00032709851
0.00032072746
0.00027628793
0.00020423464
0.00017313675
0.00020021088
0.00024944661
0.00028090408
0.00026761414
0.00020806371
0.00010670532
2.7697635e-05
2.9627427e-06
1.2376699e-07
2.0341155e-09
1.4653787e-11
5.9972405e-13
1.4041488e-13
3.5403337e-14
9.1775437e-15
2.4058388e-15
6.1915251e-16
1.5152286e-16
3.4360456e-17
7.091516e-18
1.3157686e-18
2.1730235e-19
3.1660068e-20
4.0328499e-21
4.4460423e-22
4.1877102e-23
3.3114267e-24
2.1549518e-25
1.122742e-26
4.4980238e-28
1.2994779e-29
1.5935601e-33
3.4675347e-38
0.000322315
0.00033616045
0.0003437397
0.00034253843
0.00035472629
0.00036423451
0.00034430194
0.0003101113
0.00029053892
0.00029346292
0.00029786111
0.00027926259
0.00023509155
0.00018598494
0.00014024094
0.0003252748
0.00032783125
0.00029349843
0.00022682375
0.00019387053
0.000220975
0.00027422468
0.00031084279
0.00030949938
0.00026744702
0.00017694968
6.7266919e-05
1.170133e-05
8.5872918e-07
2.5913134e-08
3.1505332e-10
2.9924291e-12
4.4118574e-13
1.2570225e-13
3.7529129e-14
1.1254449e-14
3.2648044e-15
8.8931173e-16
2.2288331e-16
5.0711551e-17
1.0383102e-17
1.9003023e-18
3.0879712e-19
4.4238302e-20
5.5428741e-21
6.0169086e-22
5.5817746e-23
4.3537634e-24
2.7991969e-25
1.4431044e-26
5.7293473e-28
1.2380981e-31
6.2737538e-36
5.1858117e-41
0.00032260297
0.00031337265
0.0003252729
0.00033596278
0.00034078428
0.00035481462
0.00035970262
0.00033319341
0.00029356225
0.0002704701
0.00027106742
0.00027116425
0.00024511585
0.00019274333
0.00013650713
8.8235687e-05
0.00033439006
0.00030888465
0.00024792317
0.00021327446
0.0002393071
0.00029426221
0.00033456214
0.00033704993
0.00030388012
0.00023645454
0.00012291173
3.2393862e-05
3.9233884e-06
2.0771745e-07
4.6101708e-09
4.4696152e-11
1.466962e-12
4.3716291e-13
1.4893672e-13
5.0211119e-14
1.612138e-14
4.8134853e-15
1.317115e-15
3.272157e-16
7.3315468e-17
1.4741369e-17
2.6473143e-18
4.2224335e-19
5.9430873e-20
7.3256195e-21
7.8334004e-22
7.164982e-23
5.5201584e-24
3.5117046e-25
1.7943048e-26
6.0999206e-30
5.501986e-34
1.0218623e-38
3.2800691e-44
0.0003399405
0.00031864801
0.00030294023
0.00031302388
0.00032817987
0.00033777373
0.00035270201
0.00035230782
0.00031923555
0.00027353819
0.00024650814
0.00024394255
0.00023852271
0.00020293743
0.00014155464
8.5999538e-05
4.5459458e-05
0.00032372212
0.00026754372
0.00023140624
0.0002555462
0.00031121719
0.00035264743
0.000356837
0.00032805573
0.00027542862
0.00018000647
6.6966972e-05
1.2431252e-05
1.0852253e-06
4.2311674e-08
7.058725e-10
8.4492772e-12
1.4908649e-12
5.6797684e-13
2.1157639e-13
7.4064066e-14
2.395613e-14
7.0906334e-15
1.9082358e-15
4.6467649e-16
1.0195228e-16
2.0079015e-17
3.5350908e-18
5.5349247e-19
7.6593337e-20
9.2981428e-21
9.8040164e-22
8.8554329e-23
6.7501022e-24
4.2562088e-25
2.1386928e-28
3.0785569e-32
1.0081939e-36
6.5151655e-42
1.083484e-47
0.00033737363
0.00034345514
0.00031313912
0.00029124641
0.00029976967
0.00031842545
0.00033292794
0.00034777617
0.00034204923
0.00030163919
0.00024960211
0.0002184766
0.0002121782
0.00019811362
0.00015066584
8.9597173e-05
4.4105064e-05
1.8222781e-05
0.00028585253
0.00024830511
0.00026971743
0.00032534608
0.00036733618
0.00037034011
0.00034320708
0.00030127378
0.00022991984
0.00011019794
2.902281e-05
3.894986e-06
2.5055739e-07
7.3242568e-09
1.0093947e-10
5.2726502e-12
2.064442e-12
8.3717705e-13
3.1580448e-13
1.0964932e-13
3.4844082e-14
1.0091341e-14
2.6538306e-15
6.3156981e-16
1.3555039e-16
2.6148678e-17
4.5161186e-18
6.9481367e-19
9.465268e-20
1.1333658e-20
1.1798801e-21
1.0542794e-22
7.9655376e-24
5.6855752e-27
1.2294429e-30
6.4481982e-35
6.9085933e-40
1.9486497e-45
2.4003111e-51
0.00030280045
0.00034864475
0.00034449544
0.00030609373
0.0002781631
0.00028466275
0.00030675064
0.00032547569
0.00033964698
0.00032801806
0.00027985047
0.00022133434
0.00018651983
0.00017360614
0.00014793885
9.5743782e-05
4.6231137e-05
1.7440416e-05
5.3919642e-06
0.00026397846
0.00028181285
0.000336327
0.00037874639
0.000379445
0.00035101991
0.00031577765
0.00026519531
0.0001642683
5.334065e-05
1.0188938e-05
1.0100204e-06
4.8827096e-08
1.1046085e-09
2.5089762e-11
7.1451493e-12
3.1039792e-12
1.2503463e-12
4.625624e-13
1.5679976e-13
4.858237e-14
1.3719485e-14
3.5209024e-15
8.1874687e-16
1.7197789e-16
3.2524917e-17
5.5170353e-18
8.3523308e-19
1.1218469e-19
1.3268874e-20
1.3662763e-21
1.2100528e-22
1.1932169e-25
3.7281725e-29
2.9664759e-33
4.936254e-38
2.0075817e-43
3.7431982e-49
3.9669764e-55
0.00027852797
0.00031815961
0.00035682649
0.00034329094
0.00029730035
0.00026355425
0.00026769729
0.00029236556
0.00031471247
0.00032760284
0.00030951538
0.00025250373
0.00018811532
0.00014870442
0.00012738767
9.3872003e-05
4.9964995e-05
1.8323081e-05
5.0390625e-06
1.1373613e-06
0.00029159878
0.00034376142
0.00038616134
0.00038433071
0.00035288385
0.00032176314
0.00028763009
0.00021153009
9.3780262e-05
2.0772072e-05
2.9393344e-06
2.1959798e-07
8.1590889e-09
1.8095626e-10
2.4172228e-11
1.0813555e-11
4.609264e-12
1.8046955e-12
6.487272e-13
2.138355e-13
6.4495052e-14
1.7752385e-14
4.4472779e-15
1.0112456e-15
2.0810193e-16
3.8634374e-17
6.4459185e-18
9.6182875e-19
1.2760131e-19
1.4931117e-20
1.5237275e-21
2.0328596e-24
8.930009e-28
1.0404653e-31
2.5904883e-36
1.4886289e-41
3.3956407e-47
5.5728507e-53
5.0571377e-59
0.00029929299
0.00029157742
0.00033146187
0.00036210752
0.0003397738
0.00028675153
0.0002471861
0.00024829429
0.00027471575
0.00029994474
0.00031102369
0.00028537931
0.00021857242
0.00014842035
0.00010560866
7.9127496e-05
4.8811521e-05
2.0101955e-05
5.2891609e-06
1.0285651e-06
1.704327e-07
0.00034711904
0.00038843374
0.00038443168
0.00034923819
0.0003208797
0.00029974701
0.00024883645
0.00013920358
4.3526482e-05
6.5817943e-06
7.0621496e-07
4.0723638e-08
1.287449e-09
8.7606411e-11
3.5749231e-11
1.5957376e-11
6.5489001e-12
2.4788838e-12
8.6447935e-13
2.7698974e-13
8.1343212e-14
2.183605e-14
5.3445301e-15
1.1896521e-15
2.4016501e-16
4.3835314e-17
7.2060971e-18
1.0617561e-18
1.3940169e-19
1.6165286e-20
2.8699082e-23
1.7364192e-26
2.8888902e-30
1.0485137e-34
8.4593241e-40
2.3645106e-45
4.3315249e-51
6.7702686e-57
5.0990152e-63
0.00034649302
0.00030486093
0.00030349615
0.00034247895
0.00036458983
0.00033398463
0.00027412113
0.00022877205
0.0002262729
0.00025342753
0.00028075673
0.00028922277
0.00025327239
0.00017521869
0.00010380585
6.3277088e-05
3.9840235e-05
1.9694702e-05
5.9053772e-06
1.0746453e-06
1.4756358e-07
1.8370333e-08
0.00038476639
0.00037863415
0.00034032031
0.00031424266
0.0003044096
0.00027558169
0.0001858013
7.4480767e-05
1.6572162e-05
1.7266452e-06
1.4538081e-07
7.1224223e-09
3.9724764e-10
1.164492e-10
5.2670813e-11
2.244637e-11
8.8323486e-12
3.2258829e-12
1.0920623e-12
3.4036018e-13
9.7394857e-14
2.552205e-14
6.1099667e-15
1.3331414e-15
2.6442266e-16
4.7530843e-17
7.713311e-18
1.1245178e-18
1.4638818e-19
3.4108855e-22
2.7964641e-25
6.5189138e-29
3.3837214e-33
3.8020426e-38
1.3447549e-43
2.6065837e-49
4.7182811e-55
6.738249e-61
4.7146386e-67
0.00037486589
0.00034195065
0.00030925919
0.00031454287
0.00035093865
0.00036422662
0.00032560516
0.00025910358
0.0002080496
0.00020153579
0.00022815434
0.00025628939
0.00025977397
0.00020806137
0.00012436235
6.0941065e-05
3.0299846e-05
1.553826e-05
5.8259984e-06
1.2220938e-06
1.5288359e-07
1.5192334e-08
1.4530432e-09
0.00036650506
0.00032650642
0.00030297579
0.00030357717
0.00029435943
0.00022852279
0.00011285876
3.2742282e-05
5.2557592e-06
4.0390982e-07
3.3465813e-08
2.9071734e-09
5.1457425e-10
1.7756923e-10
7.426647e-11
2.9953029e-11
1.1258893e-11
3.9726471e-12
1.3069011e-12
3.9656124e-13
1.106779e-13
2.8343477e-14
6.645636e-15
1.4235181e-15
2.7788357e-16
4.9285906e-17
7.9117876e-18
1.1438999e-18
3.4560618e-21
3.7877551e-24
1.2188371e-27
8.9182044e-32
1.3845376e-36
6.3069189e-42
1.3594673e-47
2.4162887e-53
4.4604168e-59
6.2573959e-65
4.2625607e-71
0.00034805821
0.00035924502
0.00033508643
0.00031306812
0.00032408802
0.00035649983
0.00036092839
0.00031433113
0.00024131195
0.00018487275
0.00017420828
0.00019840493
0.00022680873
0.0002171473
0.00015168159
7.3785816e-05
2.8162064e-05
1.1053601e-05
4.4550628e-06
1.2159012e-06
1.7647261e-07
1.5314973e-08
1.1535214e-09
8.6389944e-11
0.0003083612
0.00028817349
0.00029896369
0.00030773663
0.0002658326
0.00015634055
5.6075976e-05
1.202049e-05
1.5205776e-06
1.6449229e-07
3.2183979e-08
6.0506016e-09
1.0880356e-09
2.7622126e-10
9.8795664e-11
3.7385544e-11
1.3498581e-11
4.6286441e-12
1.4813182e-12
4.3803267e-13
1.1936723e-13
2.9912079e-14
6.8792559e-15
1.4491113e-15
2.7893476e-16
4.8915159e-17
7.7847583e-18
3.016554e-20
4.3677272e-23
1.9161927e-26
1.9544113e-30
4.1667569e-35
2.4559849e-40
6.2204208e-46
1.0754936e-51
2.0445595e-57
4.0854297e-63
5.7190861e-69
3.7572909e-75
0.0002866012
0.00032437257
0.00034036455
0.0003273357
0.00031605595
0.00033146999
0.00035887257
0.00035426969
0.00029990387
0.00022025957
0.00015943758
0.00014495268
0.00016854093
0.00018734384
0.00016083229
9.2909007e-05
3.4258087e-05
9.6868622e-06
2.9354075e-06
9.0586402e-07
1.7654773e-07
1.7727552e-08
1.1152356e-09
6.6152965e-11
3.9080776e-12
0.00027088832
0.00029189763
0.000317829
0.00029855132
0.00020218098
8.6837086e-05
2.338807e-05
4.1682354e-06
8.2579879e-07
3.0557879e-07
8.8050212e-08
1.7658678e-08
2.6467783e-09
4.1165829e-10
1.2110082e-10
4.3529041e-11
1.5244612e-11
5.1023543e-12
1.5900807e-12
4.5869231e-13
1.221983e-13
3.0007288e-14
6.7805792e-15
1.4073009e-15
2.6766716e-16
4.6515149e-17
2.2880499e-19
4.3303439e-22
2.5625811e-25
3.6104128e-29
1.0528608e-33
8.0285877e-39
2.4615089e-44
4.4376991e-50
7.7187185e-56
1.7801403e-61
3.7472564e-67
5.104667e-73
3.2274895e-79
0.00025206746
0.00026204628
0.00029816569
0.00032025028
0.00031902977
0.00031761882
0.00033595645
0.00035753342
0.0003442874
0.00028144492
0.00019592263
0.00013209421
0.00011584354
0.00013252799
0.00013736751
0.00010062918
4.4718201e-05