/*--------------------------------*- C++ -*----------------------------------*\
| =========                 |                                                 |
| \\      /  F ield         | OpenFOAM: The Open Source CFD Toolbox           |
|  \\    /   O peration     | Version:  5.0                                   |
|   \\  /    A nd           | Web:      www.OpenFOAM.org                      |
|    \\/     M anipulation  |                                                 |
\*---------------------------------------------------------------------------*/
FoamFile
{
    version     2.0;
    format      ascii;
    class       volScalarField;
    location    "220";
    object      nuTilda;
}
// * * * * * * * * * * * * * * * * * * * * * * * * * * * * * * * * * * * * * //

dimensions      [0 2 -1 0 0 0 0];

internalField   nonuniform List<scalar> 
9520
(
4.8328304e-33
5.130209e-31
4.6768915e-33
2.664634e-29
4.9662606e-31
4.5230859e-33
8.9940899e-28
2.5799574e-29
4.8040908e-31
4.3810541e-33
2.2208336e-26
8.7098925e-28
2.4961344e-29
4.6553945e-31
4.2595591e-33
4.2875441e-25
2.1510615e-26
8.4289315e-28
2.4198698e-29
4.5305574e-31
4.1607892e-33
6.764582e-24
4.1534296e-25
2.0823165e-26
8.1751927e-28
2.35686e-29
4.4311197e-31
4.0783126e-33
8.9863411e-23
6.5540569e-24
4.0219084e-25
2.0206707e-26
7.9679923e-28
2.3073016e-29
4.34714e-31
3.9984139e-33
1.0240911e-21
8.7097874e-23
6.3486659e-24
3.9048176e-25
1.9706821e-26
7.8056402e-28
2.2644182e-29
4.260457e-31
3.9037802e-33
1.0157695e-20
9.9316313e-22
8.4412372e-23
6.1671205e-24
3.8101811e-25
1.9312875e-26
7.6603015e-28
2.2172087e-29
4.1514768e-31
3.7812273e-33
8.8875772e-20
9.8592796e-21
9.6320541e-22
8.2053564e-23
6.0204439e-24
3.7345188e-25
1.8945362e-26
7.4908602e-28
2.1553605e-29
4.0092645e-31
3.6303982e-33
7.0555211e-19
8.6325404e-20
9.5699108e-21
9.3694715e-22
8.0144547e-23
5.9006591e-24
3.6605672e-25
1.8496611e-26
7.263449e-28
2.0752726e-29
3.8400336e-31
3.4692057e-33
5.9684756e-18
6.8289322e-19
8.3846185e-20
9.3143246e-21
9.1560085e-22
7.8547188e-23
5.7776501e-24
3.5669898e-25
1.7888963e-26
6.9738347e-28
1.9837083e-29
3.6699341e-31
3.3311891e-33
9.769203e-17
5.5947336e-18
6.6114384e-19
8.1597162e-20
9.1048906e-21
8.9733133e-22
7.6825297e-23
5.6176431e-24
3.4406749e-25
1.7132871e-26
6.6566274e-28
1.8974554e-29
3.538279e-31
3.2534738e-33
3.3706806e-15
8.5733658e-17
5.2405428e-18
6.4049125e-19
7.9736633e-20
8.9233284e-21
8.7680249e-22
7.4532272e-23
5.4039259e-24
3.2880298e-25
1.6340725e-26
6.3774965e-28
1.8379133e-29
3.4818639e-31
3.2593487e-33
1.2300765e-13
2.9925341e-15
7.2283813e-17
4.8771436e-18
6.236021e-19
7.8149601e-20
8.7133566e-21
8.4886565e-22
7.1506429e-23
5.154237e-24
3.1354426e-25
1.5691441e-26
6.2089256e-28
1.8218681e-29
3.5164077e-31
3.3437884e-33
3.6877913e-12
1.1401902e-13
2.4025397e-15
5.6559963e-17
4.5895358e-18
6.1041266e-19
7.629846e-20
8.4203819e-21
8.1235919e-22
6.8092889e-23
4.917065e-24
3.0194527e-25
1.5357337e-26
6.1968858e-28
1.8522777e-29
3.624315e-31
3.4698905e-33
8.5823794e-11
3.5479188e-12
9.1899021e-14
1.6334297e-15
4.4175038e-17
4.409473e-18
5.9587973e-19
7.3624345e-20
8.0385897e-21
7.7254332e-22
6.5023094e-23
4.7513901e-24
2.9705934e-25
1.5419926e-26
6.33282e-28
1.9138169e-29
3.7559185e-31
3.5788624e-33
1.5129012e-09
8.487412e-11
2.8800645e-12
6.0698484e-14
1.0402755e-15
3.7633672e-17
4.2731473e-18
5.7415497e-19
7.010665e-20
7.6348437e-21
7.3874015e-22
6.3078922e-23
4.6988344e-24
2.9975303e-25
1.5812004e-26
6.5458694e-28
1.9761696e-29
3.8446819e-31
3.6095385e-33
1.970425e-08
1.5234424e-09
6.9336326e-11
1.8921783e-12
3.7690047e-14
7.7168218e-16
3.4815528e-17
4.0943476e-18
5.4490449e-19
6.6479775e-20
7.3125098e-21
7.1964152e-22
6.2702163e-23
4.7605274e-24
3.0786594e-25
1.6317997e-26
6.7223907e-28
2.0041377e-29
3.8300738e-31
3.5195442e-33
1.8599527e-07
2.0047836e-08
1.2517783e-09
4.5673115e-11
1.2136395e-12
2.9647373e-14
7.077786e-16
3.2376666e-17
3.8499912e-18
5.1531841e-19
6.3769193e-20
7.1541539e-21
7.1877321e-22
6.3728247e-23
4.8891432e-24
3.1660706e-25
1.664114e-26
6.7461442e-28
1.9701888e-29
3.67904e-31
3.3004478e-33
1.2433015e-06
1.8936368e-07
1.6702243e-08
8.3612196e-10
3.0814917e-11
1.0734897e-12
3.0450284e-14
6.4920854e-16
2.8581028e-17
3.6069757e-18
4.9472162e-19
6.2659785e-20
7.1774707e-21
7.3213199e-22
6.536002e-23
5.0014863e-24
3.2017475e-25
1.6512748e-26
6.5415026e-28
1.8644403e-29
3.3985815e-31
2.9822174e-33
5.8771557e-06
1.2602962e-06
1.6003708e-07
1.1596046e-08
6.0148507e-10
3.0583754e-11
1.2305737e-12
2.9476221e-14
4.7882474e-16
2.4721346e-17
3.4505157e-18
4.8817958e-19
6.3134601e-20
7.3205942e-21
7.4888171e-22
6.6419645e-23
5.0084236e-24
3.1396735e-25
1.5796209e-26
6.1017136e-28
1.6988805e-29
3.0358314e-31
2.6262744e-33
1.973723e-05
5.9242893e-06
1.0873448e-06
1.167275e-07
9.0976193e-09
6.5557968e-10
3.7954745e-11
1.243407e-12
2.0341103e-14
2.8814074e-16
2.2435435e-17
3.414202e-18
4.9404588e-19
6.4444305e-20
7.4599365e-21
7.5515894e-22
6.5794295e-23
4.8499806e-24
2.9643398e-25
1.4540879e-26
5.4944706e-28
1.5049527e-29
2.6664179e-31
2.3100692e-33
4.8767692e-05
1.9782919e-05
5.2071923e-06
8.3807018e-07
9.8834793e-08
1.0282171e-08
8.5069832e-10
3.9256539e-11
8.4782427e-13
9.5511356e-15
1.7955961e-16
2.180427e-17
3.4710602e-18
5.0465676e-19
6.5369473e-20
7.4571857e-21
7.3954625e-22
6.2888782e-23
4.5205693e-24
2.6976052e-25
1.2974271e-26
4.8456394e-28
1.3256721e-29
2.3754515e-31
2.1082937e-33
9.3704305e-05
4.877988e-05
1.7725276e-05
4.2208979e-06
7.50959e-07
1.137568e-07
1.3469707e-08
8.8674023e-10
2.6551696e-11
3.7315774e-13
3.6282817e-15
1.4130066e-16
2.2147862e-17
3.5499159e-18
5.0930866e-19
6.4719861e-20
7.2161301e-21
6.9785971e-22
5.7891981e-23
4.0734758e-24
2.3931542e-25
1.1444124e-26
4.3074493e-28
1.2048933e-29
2.2370707e-31
2.0759525e-33
0.00014853433
9.3747424e-05
4.4525568e-05
1.5034602e-05
3.9550764e-06
8.701266e-07
1.4748941e-07
1.3999304e-08
5.9720909e-10
1.1354335e-11
1.2277065e-13
1.5808812e-15
1.3421956e-16
2.2667401e-17
3.5642306e-18
4.9900159e-19
6.1844473e-20
6.7240288e-21
6.3523221e-22
5.1745909e-23
3.606014e-24
2.1224946e-25
1.033011e-26
4.0208067e-28
1.1768056e-29
2.2977605e-31
2.2368702e-33
0.00020093379
0.0001484381
8.694069e-05
3.9069792e-05
1.4553042e-05
4.5885633e-06
1.104765e-06
1.5183369e-07
9.4460155e-09
2.5479123e-10
3.606162e-12
4.2060491e-14
1.0853949e-15
1.3566657e-16
2.263977e-17
3.4528128e-18
4.7048972e-19
5.6913099e-20
6.060854e-21
5.6471184e-22
4.5874191e-23
3.2338399e-24
1.9567987e-25
9.9499493e-27
4.0816231e-28
1.2581407e-29
2.5664881e-31
2.5790664e-33
0.000244145
0.00019942265
0.00013849029
7.7927349e-05
3.8570607e-05
1.6817971e-05
5.6651751e-06
1.1237605e-06
1.0337245e-07
4.1286202e-09
8.5652639e-11
1.3115301e-12
2.6168307e-14
1.056541e-15
1.3444024e-16
2.1659865e-17
3.2086034e-18
4.2757025e-19
5.0873649e-20
5.3749383e-21
5.0346688e-22
4.1805372e-23
3.0615843e-24
1.9492349e-25
1.0482824e-26
4.5183294e-28
1.4443902e-29
3.0125563e-31
3.0567942e-33
0.00028047177
0.00024158667
0.00018680231
0.00012558681
7.7449237e-05
4.4189793e-05
2.0154567e-05
5.67988e-06
7.7737442e-07
4.7447662e-08
1.5451938e-09
3.6417879e-11
1.0771226e-12
2.9982184e-14
1.0500606e-15
1.2607805e-16
1.9801032e-17
2.8782948e-18
3.7953787e-19
4.5149149e-20
4.8401301e-21
4.6826759e-22
4.0785646e-23
3.1565822e-24
2.1218185e-25
1.1924866e-26
5.2839513e-28
1.7102628e-29
3.570692e-31
3.5982667e-33
0.00031123473
0.00027670505
0.000227248
0.00017204206
0.00012501049
8.7719309e-05
5.1461244e-05
1.9930474e-05
4.0146233e-06
3.799163e-07
1.9893216e-08
7.8690843e-10
3.7749234e-11
1.4961293e-12
3.2468988e-14
8.8824199e-16
1.1222947e-16
1.751275e-17
2.5403122e-18
3.3814008e-19
4.1236808e-20
4.6107515e-21
4.7124166e-22
4.3460481e-23
3.5314003e-24
2.4591652e-25
1.408276e-26
6.263163e-28
2.0140211e-29
4.1521935e-31
4.1178398e-33
0.00033707198
0.00030615807
0.00026104598
0.00021156095
0.00017242797
0.00013992022
9.9672438e-05
5.037984e-05
1.4484472e-05
2.1085807e-06
1.7980347e-07
1.2239276e-08
9.4371163e-10
5.7431995e-11
1.7118018e-12
2.3064015e-14
6.6564595e-16
9.7256391e-17
1.5379848e-17
2.2790393e-18
3.1443202e-19
4.0332412e-20
4.7825552e-21
5.1667476e-22
4.9691069e-23
4.1383447e-24
2.9100365e-25
1.6605838e-26
7.2929168e-28
2.3049001e-29
4.6606182e-31
4.530958e-33
0.00035714796
0.00033037276
0.00028996306
0.00024484461
0.00021295158
0.00019105633
0.00015647429
9.7270925e-05
3.7859472e-05
8.2341874e-06
1.1354099e-06
1.3212453e-07
1.6091006e-08
1.4923107e-09
6.7071743e-11
1.1905708e-12
1.0271097e-14
5.1328049e-16
8.4903874e-17
1.3933521e-17
2.1645385e-18
3.161654e-19
4.3027635e-20
5.3659299e-21
5.9951364e-22
5.8541296e-23
4.8769503e-24
3.3965458e-25
1.9051498e-26
8.1928599e-28
2.532437e-29
5.0094676e-31
4.7692987e-33
0.00037180623
0.00034915831
0.00031366166
0.00027396956
0.00024658347
0.00023329046
0.00021004417
0.00015253034
7.5796668e-05
2.3341111e-05
5.0603736e-06
9.7774123e-07
1.8388849e-07
2.5628592e-08
1.7525673e-09
4.7005016e-11
4.588128e-13
3.9253267e-15
4.327653e-16
7.7839501e-17
1.3550033e-17
2.2377711e-18
3.4582384e-19
4.9123604e-20
6.2774404e-21
7.0593553e-22
6.8443185e-23
5.6133395e-24
3.8294362e-25
2.0971438e-26
8.799993e-28
2.6561643e-29
5.1382582e-31
4.7929266e-33
0.00038172796
0.00036279837
0.00033243332
0.00029840144
0.00027569411
0.00026691936
0.00025186695
0.00020344447
0.00012236515
5.0411617e-05
1.6236922e-05
4.964504e-06
1.402371e-06
2.8881866e-07
2.9976866e-08
1.2416992e-09
1.8166331e-11
1.0647037e-13
2.2392549e-15
4.0033108e-16
7.7640995e-17
1.4390923e-17
2.5001842e-18
3.9958385e-19
5.7615896e-20
7.3529325e-21
8.1599336e-22
7.7513272e-23
6.2074208e-24
4.1264655e-25
2.2002061e-26
9.0008999e-28
2.6532939e-29
5.0232552e-31
4.5965292e-33
0.00038714004
0.00037203801
0.00034650407
0.00031830765
0.00030022947
0.00029487118
0.00028388208
0.00024314531
0.00016747041
8.687267e-05
3.880599e-05
1.751289e-05
7.1806301e-06
2.1384063e-06
3.3404e-07
2.1519731e-08
4.9351879e-10
4.1326231e-12
2.3829101e-14
1.9360566e-15
4.0972815e-16
8.4593126e-17
1.6360975e-17
2.9093483e-18
4.6767265e-19
6.6875687e-20
8.3808606e-21
9.0772855e-22
8.390283e-23
6.5381832e-24
4.2283403e-25
2.1938136e-26
8.753193e-28
2.5224545e-29
4.6801613e-31
4.2080462e-33
0.00038879401
0.00037733654
0.0003566217
0.00033394965
0.0003203188
0.00031779301
0.0003092915
0.000273649
0.00020523108
0.00012603705
7.2197793e-05
4.4295444e-05
2.509594e-05
1.0507144e-05
2.4302584e-06
2.4355009e-07
8.9190403e-09
1.2128625e-10
7.7716319e-13
1.0614413e-14
2.0075757e-15
4.5721405e-16
9.752473e-17
1.9095143e-17
3.3847323e-18
5.3629085e-19
7.4999837e-20
9.1435098e-21
9.610968e-22
8.6225889e-23
6.5324795e-24
4.1098989e-25
2.0766809e-26
8.0903676e-28
2.2825665e-29
4.1576363e-31
3.6803329e-33
0.00038798507
0.0003796602
0.00036328731
0.00034601525
0.00033624854
0.00033616329
0.00032949945
0.00029818575
0.0002355656
0.00016221395
0.00011067195
8.4704814e-05
6.2051608e-05
3.4983529e-05
1.1679078e-05
1.8032384e-06
1.0643914e-07
2.4184015e-09
2.5185849e-11
1.554899e-13
9.4370065e-15
2.2881417e-15
5.3319777e-16
1.1378917e-16
2.201521e-17
3.8249451e-18
5.9074616e-19
8.0177664e-20
9.4662628e-21
9.6385659e-22
8.3897803e-23
6.1817811e-24
3.7863849e-25
1.8658656e-26
7.1090551e-28
1.9671544e-29
3.5247057e-31
3.0785516e-33
0.0003853094
0.000380087
0.00036750665
0.00035487961
0.00034881125
0.00035036043
0.00034512678
0.00031767249
0.00026227168
0.00019284173
0.00014785566
0.00013092154
0.00011517331
8.2278485e-05
3.7967547e-05
8.8419047e-06
8.3851226e-07
3.200961e-08
5.6291859e-10
4.7537256e-12
5.7715471e-14
1.0755797e-14
2.6964896e-15
6.205482e-16
1.2969805e-16
2.4465847e-17
4.1321936e-18
6.1838713e-19
8.1134773e-20
9.2645204e-21
9.1360397e-22
7.7205685e-23
5.5383094e-24
3.3065561e-25
1.5918901e-26
5.9430288e-28
1.6162502e-29
2.8553527e-31
2.4669298e-33
0.0003809561
0.00037925221
0.00037090569
0.00036130601
0.00035817405
0.00036123797
0.00035664285
0.00033285982
0.0002844885
0.00022119776
0.0001804265
0.00017402787
0.00017267309
0.00014553951
8.7362428e-05
2.9441509e-05
4.4051726e-06
2.795629e-07
8.2857245e-09
1.1749213e-10
1.0035646e-12
5.3124656e-14
1.2824169e-14
3.127424e-15
6.9786233e-16
1.4149156e-16
2.5882866e-17
4.2333209e-18
6.1145747e-19
7.7482555e-20
8.5569628e-21
8.1783154e-22
6.7183312e-23
4.6984991e-24
2.7387254e-25
1.2908657e-26
4.7325421e-28
1.2680597e-29
2.2147989e-31
1.8983217e-33
0.00037822141
0.00037957332
0.00037383718
0.00036644448
0.00036477488
0.00036881975
0.00036471735
0.00034403839
0.00030288255
0.00024618038
0.00020839824
0.00021008647
0.00022234513
0.00020896826
0.00015140491
6.963052e-05
1.5784466e-05
1.6232171e-06
7.9903597e-08
1.9470651e-09
2.7468276e-11
6.3014155e-13
6.6996622e-14
1.4865632e-14
3.46461e-15
7.4583252e-16
1.4637516e-16
2.5930814e-17
4.0892064e-18
5.6972304e-19
6.973905e-20
7.4546062e-21
6.9140521e-22
5.5308216e-23
3.7775528e-24
2.1542746e-25
9.9667369e-27
3.5978913e-28
9.5274381e-30
1.6507187e-31
1.4085962e-33
0.00037629171
0.00038069649
0.00038137842
0.0003702798
0.00036949884
0.00037357941
0.00036955887
0.00035182894
0.00031775974
0.00026781566
0.00023312007
0.00023855727
0.00026000529
0.00026063081
0.000213424
0.00012398911
4.0262149e-05
6.3915368e-06
5.1071314e-07
2.1463188e-08
5.9841081e-10
2.2272944e-11
1.1226008e-12
8.3385698e-14
1.6199119e-14
3.6183995e-15
7.5294116e-16
1.4317168e-16
2.4464408e-17
3.7171083e-18
4.9970439e-19
5.9138652e-20
6.1266438e-21
5.5244272e-22
4.3131472e-23
2.8836258e-24
1.6135922e-25
7.352332e-27
2.623412e-28
6.8949531e-30
1.1904461e-31
1.0160495e-33
0.00037279
0.00038091408
0.00038222845
0.00038187077
0.00037216478
0.00037612437
0.0003717814
0.00035666686
0.00032958684
0.00028639375
0.000254603
0.00026136835
0.00028746444
0.0002956776
0.00026155427
0.00017833459
7.709438e-05
1.7822252e-05
2.2199033e-06
1.6170674e-07
9.3269414e-09
6.8868823e-10
4.838396e-11
1.8495798e-12
8.9497393e-14
1.6423633e-14
3.5540248e-15
7.177527e-16
1.3189554e-16
2.169394e-17
3.177289e-18
4.1254248e-19
4.7272121e-20
4.75583e-21
4.180445e-22
3.1960658e-23
2.0991894e-24
1.1579632e-25
5.2241306e-27
1.8538995e-28
4.8685329e-30
8.43388e-32
7.2468744e-34
0.00037263324
0.00037534072
0.00038376224
0.00038195171
0.00038105362
0.00037643959
0.00037182343
0.00035922709
0.00033879458
0.00030227833
0.00027312743
0.00028046883
0.00030709008
0.00031828885
0.00029303246
0.00022214652
0.00011837109
3.7193932e-05
6.9186138e-06
8.6929922e-07
1.0246586e-07
1.3831809e-08
1.5401797e-09
8.4655285e-11
2.01329e-12
8.0559729e-14
1.5578468e-14
3.2924814e-15
6.4516161e-16
1.14084e-16
1.8073128e-17
2.5544381e-18
3.2089625e-19
3.5689763e-20
3.4987214e-21
3.0120182e-22
2.2679782e-23
1.4734734e-24
8.0827141e-26
3.6462684e-27
1.301231e-28
3.4531624e-30
6.0658771e-32
5.2942803e-34
0.00037451623
0.00037081941
0.00037803643
0.00038442852
0.00038005224
0.00037809556
0.00037005206
0.00036015414
0.00034602309
0.00031570106
0.00028901491
0.00029631071
0.00032264447
0.00033440222
0.00031348223
0.00025371831
0.00015613711
6.2299369e-05
1.6448693e-05
3.506957e-06
7.8369853e-07
1.7624762e-07
3.0283386e-08
2.6447201e-09
9.2949447e-11
1.3120124e-12
6.6896094e-14
1.3948065e-14
2.8824442e-15
5.4421272e-16
9.2642896e-17
1.4156295e-17
1.9352213e-18
2.3599612e-19
2.559898e-20
2.4622036e-21
2.0957698e-22
1.5727743e-23
1.0254907e-24
5.6913474e-26
2.615727e-27
9.5656648e-29
2.6092174e-30
4.7109662e-32
4.2142613e-34
0.00036681291
0.00036983931
0.00037012508
0.00037955397
0.00038299765
0.00037597999
0.00037150111
0.00036012408
0.00035201488
0.00032705005
0.00030254591
0.00030941503
0.00033450154
0.00034598386
0.00032817433
0.0002782626
0.00018734829
8.9448322e-05
3.1797868e-05
1.0880234e-05
4.1432081e-06
1.4377447e-06
3.6847982e-07
5.0278851e-08
2.8952542e-09
5.84246e-11
5.5762185e-13
5.548325e-14
1.1851088e-14
2.3699946e-15
4.3083128e-16
7.0745441e-17
1.0460201e-17
1.3898983e-18
1.6577436e-19
1.7732691e-20
1.6999418e-21
1.4607021e-22
1.1200256e-23
7.5392759e-25
4.3587396e-26
2.0971305e-27
8.0330958e-29
2.2859464e-30
4.2741489e-32
3.9227453e-34
0.00036006567
0.0003620987
0.00036527334
0.00036939886
0.00037921544
0.00037926732
0.00036825914
0.0003606135
0.00035676279
0.00033706908
0.00031405389
0.00032002996
0.00034361646
0.00035337565
0.00033789079
0.00029697492
0.00021988325
0.00011564109
5.2183819e-05
2.6217503e-05
1.514881e-05
7.6450738e-06
2.8226969e-06
5.8663939e-07
5.4543765e-08
1.8739849e-09
1.9991116e-11
2.4769747e-13
4.5277724e-14
9.4836774e-15
1.8293476e-15
3.2107555e-16
5.1100718e-17
7.367822e-18
9.632279e-19
1.1443962e-19
1.2389638e-20
1.2247697e-21
1.1051704e-22
9.0104209e-24
6.490786e-25
4.0148728e-26
2.0533463e-27
8.2725681e-29
2.4452203e-30
4.6900574e-32
4.3649258e-34
0.00036191477
0.00035863368
0.0003564191
0.00036020613
0.00036771221
0.00037658898
0.00037205426
0.0003564765
0.00034518424
0.00034587812
0.00032382516
0.00032845383
0.00035000276
0.00035784735
0.00034322472
0.00031048347
0.00024653882
0.00014745286
7.5533444e-05
4.978365e-05
3.9266298e-05
2.7117299e-05
1.392739e-05
4.2760549e-06
6.2811894e-07
3.6387707e-08
6.8582492e-10
3.9083739e-12
1.659654e-13
3.5133086e-14
7.1372137e-15
1.3325049e-15
2.2751728e-16
3.5539351e-17
5.0973826e-18
6.7548817e-19
8.3270885e-20
9.5878621e-21
1.0287033e-21
1.0167182e-22
9.0436244e-24
7.0282391e-25
4.6145505e-26
2.4649463e-27
1.0221855e-28
3.0726666e-30
5.9365243e-32
5.5229177e-34
0.00035396248
0.00036449819
0.00035563675
0.0003500259
0.00035427794
0.00036417525
0.00037094455
0.00036085217
0.00034049874
0.00032447771
0.00033206334
0.00033501239
0.00035413825
0.00035942447
0.00034510955
0.00031940007
0.00026861664
0.00017771967
0.00010096939
7.8614963e-05
7.5635133e-05
6.680931e-05
4.5505042e-05
1.9930322e-05
4.5050307e-06
4.3150979e-07
1.4477003e-08
1.3897005e-10
9.1227053e-13
1.2188804e-13
2.5758339e-14
5.0926864e-15
9.3135393e-16
1.5786801e-16
2.498535e-17
3.7309937e-18
5.3061222e-19
7.2032451e-20
9.2493896e-21
1.1020185e-21
1.1878039e-22
1.126213e-23
9.1397706e-25
6.1598544e-26
3.3363125e-27
1.3906896e-28
4.1768713e-30
8.0294071e-32
7.4091505e-34
0.00033904362
0.00036010357
0.000364934
0.00035087026
0.00034224669
0.00034685595
0.00035810111
0.00036158258
0.00034559977
0.00031959242
0.00029845564
0.00033969405
0.00035624978
0.00035878337
0.00034418913
0.00032463322
0.00028647588
0.00020577702
0.00012758853
0.000104428
0.00011752481
0.00012148143
0.00010302931
6.1222611e-05
2.0625729e-05
3.1912641e-06
1.8647398e-07
3.4063773e-09
2.1260406e-11
4.3233074e-13
8.6698136e-14
1.8059102e-14
3.5393807e-15
6.5456493e-16
1.1554455e-16
1.9722328e-17
3.276642e-18
5.2663334e-19
8.0351491e-20
1.1345452e-20
1.4453944e-21
1.6235062e-22
1.5740337e-23
1.2891578e-24
8.694796e-26
4.6896691e-27
1.9410557e-28
5.7794074e-30
1.1003642e-31
1.0049933e-33
0.000342696
0.00034456382
0.00036423307
0.00036323923
0.00034409443
0.00033281504
0.00033735843
0.00034887482
0.00034824804
0.00032551937
0.00029366314
0.00026725794
0.0003563233
0.00035598297
0.00034107706
0.0003271573
0.00030049222
0.00023131166
0.00015384553
0.00012945081
0.00015280251
0.00017784222
0.00017329695
0.00013045545
6.2368788e-05
1.5115734e-05
1.5005094e-06
5.0840348e-08
5.9816195e-10
3.6107938e-12
2.7747832e-13
5.9925015e-14
1.2621911e-14
2.5710478e-15
5.1327318e-16
1.0144285e-16
1.9775449e-17
3.7316259e-18
6.6402329e-19
1.0857548e-19
1.5961108e-20
2.0725566e-21
2.3403195e-22
2.2631392e-23
1.8388653e-24
1.2277749e-25
6.5502827e-27
2.6815003e-28
7.8991618e-30
1.4886622e-31
1.3464005e-33
0.00035435948
0.00034407581
0.00034901938
0.00036635214
0.00035939091
0.00033543248
0.00032128577
0.00032553399
0.00033607106
0.00033026401
0.00030040455
0.00026295736
0.00023174354
0.00035116097
0.00033609293
0.00032785441
0.0003113853
0.00025408881
0.00017900871
0.00015314427
0.00018058924
0.00022427372
0.0002364724
0.00020756241
0.00013160582
4.7594416e-05
7.7641847e-06
4.7190357e-07
1.0617185e-08
9.1971849e-11
1.0749589e-12
1.8811599e-13
4.2737046e-14
9.7075768e-15
2.2203181e-15
5.1061312e-16
1.1589964e-16
2.5229425e-17
5.1224255e-18
9.4920228e-19
1.5789175e-19
2.3269392e-20
3.0037937e-21
3.3573518e-22
3.206971e-23
2.5707364e-24
1.6940454e-25
8.9271005e-27
3.6132665e-28
1.0534856e-29
1.9669942e-31
1.0459883e-35
0.00034427885
0.00035013892
0.00034386718
0.00035237576
0.00036641218
0.00035349854
0.00032450459
0.00030728247
0.00031099505
0.00031898322
0.00030729372
0.0002705594
0.00022788097
0.00018974675
0.00032957036
0.00032726277
0.00032013902
0.00027404639
0.0002028647
0.00017517836
0.00020465826
0.00025409736
0.00028405246
0.00026910971
0.00020784667
0.00010529753
2.6824927e-05
2.8123151e-06
1.1611534e-07
1.8916516e-09
1.3643882e-11
5.850001e-13
1.3905404e-13
3.5649486e-14
9.4048349e-15
2.5016357e-15
6.50146e-16
1.5997384e-16
3.6362845e-17
7.5087037e-18
1.3924717e-18
2.2973355e-19
3.3429499e-20
4.2527714e-21
4.682841e-22
4.4063869e-23
3.4816317e-24
2.2644101e-25
1.1793479e-26
4.7241836e-28
1.3649524e-29
1.6929057e-33
3.7091838e-38
0.0003219626
0.00033526707
0.00034355338
0.00034251592
0.00035426032
0.00036432165
0.00034524631
0.00031090673
0.00029049606
0.00029273629
0.00029729771
0.00027931203
0.00023549569
0.00018616264
0.00014015664
0.00032579103
0.00032765178
0.00029158366
0.00022531397
0.00019570578
0.00022533072
0.00027876626
0.00031371837
0.00031038097
0.00026686199
0.00017485064
6.532705e-05
1.1150138e-05
8.0753581e-07
2.4125748e-08
2.9137787e-10
2.8529966e-12
4.4084012e-13
1.2811323e-13
3.8883338e-14
1.1790375e-14
3.4409086e-15
9.3960898e-16
2.3557794e-16
5.3559554e-17
1.0951865e-17
2.0012751e-18
3.2467787e-19
4.6440454e-20
5.8104114e-21
6.2993958e-22
5.8383197e-23
4.5505997e-24
2.9243458e-25
1.5072708e-26
5.9841956e-28
1.308881e-31
6.7039635e-36
5.5286575e-41
0.00032346677
0.00031320432
0.00032432622
0.00033551682
0.00034052305
0.00035431075
0.00035990951
0.00033424927
0.00029442382
0.00027039745
0.00027028452
0.00027058257
0.00024518921
0.00019311255
0.00013663077
8.8182609e-05
0.00033464239
0.0003072581
0.00024631818
0.00021487069
0.00024351196
0.00029863929
0.00033717518
0.00033750169
0.00030294776
0.00023413534
0.00011981614
3.0992354e-05
3.6985353e-06
1.9363076e-07
4.2622714e-09
4.1363443e-11
1.4690302e-12
4.5039919e-13
1.5554314e-13
5.2816697e-14
1.7006496e-14
5.0795804e-15
1.3886066e-15
3.4443186e-16
7.7030844e-17
1.545879e-17
2.7709141e-18
4.4116716e-19
6.1993003e-20
7.6304356e-21
8.1497747e-22
7.4479625e-23
5.734697e-24
3.646921e-25
1.8632416e-26
6.4135158e-30
5.8566152e-34
1.0953719e-38
3.4356263e-44
0.0003406042
0.00031984479
0.0003029463
0.00031202242
0.00032749709
0.00033726244
0.00035216823
0.00035262936
0.00032040304
0.000274453
0.00024640244
0.00024312639
0.00023795584
0.00020304245
0.00014185231
8.6090025e-05
4.5424489e-05
0.00032235695
0.0002658784
0.00023273535
0.00025955329
0.00031541821
0.00035493704
0.00035688597
0.0003268888
0.0002734206
0.00017625668
6.4327845e-05
1.175077e-05
1.012918e-06
3.9128746e-08
6.49171e-10
8.1424493e-12
1.5481599e-12
5.9614503e-13
2.2289887e-13
7.8064196e-14
2.5221696e-14
7.4514343e-15
2.0010353e-15
4.8619018e-16
1.0643908e-16
2.0918721e-17
3.6756636e-18
5.7446116e-19
7.9367361e-20
9.6216539e-21
1.0134561e-21
9.1472298e-23
6.9692668e-24
4.3935662e-25
2.235728e-28
3.2603154e-32
1.0797437e-36
6.9453462e-42
1.1006655e-47
0.00033625318
0.00034448551
0.00031463952
0.00029142907
0.00029866709
0.00031746547
0.00033216922
0.00034721812
0.00034247275
0.00030291
0.00025055907
0.00021833749
0.00021134676
0.00019759002
0.00015079917
8.980123e-05
4.4161244e-05
1.8203308e-05
0.00028412458
0.00024934197
0.00027346996
0.00032934103
0.00036927434
0.00036993375
0.00034174143
0.00029948963
0.00022664386
0.00010629215
2.7514949e-05
3.6410927e-06
2.3177642e-07
6.72718e-09
9.3510158e-11
5.4579241e-12
2.1726031e-12
8.8189257e-13
3.3224288e-13
1.1510578e-13
3.6486817e-14
1.0539972e-14
2.7648003e-15
6.5637823e-16
1.4055161e-16
2.7055426e-17
4.6635158e-18
7.1622068e-19
9.7418897e-20
1.164998e-20
1.2117444e-21
1.0821053e-22
8.1732573e-24
5.9083653e-27
1.2946731e-30
6.8789063e-35
7.4122062e-40
2.0368265e-45
2.3673096e-51
0.00030100467
0.000347801
0.00034585368
0.00030787588
0.00027852892
0.0002834907
0.00030550982
0.00032447301
0.00033905485
0.00032853783
0.00028121075
0.00022229901
0.00018634365
0.00017280366
0.00014751972
9.5832693e-05
4.6353427e-05
1.7465405e-05
5.3838196e-06
0.00026468707
0.00028524809
0.00034006701
0.0003803031
0.00037848322
0.00034919628
0.00031412623
0.00026258099
0.00015974137
5.0736294e-05
9.5431168e-06
9.3477546e-07
4.4817219e-08
1.0119911e-09
2.4976283e-11
7.5256011e-12
3.2666103e-12
1.3123269e-12
4.8404086e-13
1.6358654e-13
5.0536997e-14
1.4231506e-14
3.6425938e-15
8.4492698e-16
1.7706532e-16
3.3415777e-17
5.6572322e-18
8.5500336e-19
1.1467456e-19
1.3548254e-20
1.3940182e-21
1.2340852e-22
1.2324857e-25
3.90265e-29
3.1481041e-33
5.2937794e-38
2.1378265e-43
3.7940758e-49
3.8417932e-55
0.00027888764
0.00031632373
0.0003562831
0.00034494766
0.00029934463
0.00026409598
0.00026646141
0.00029084458
0.0003134656
0.00032697031
0.00031012622
0.00025392417
0.00018903686
0.00014849499
0.0001266936
9.3572695e-05
5.0023095e-05
1.8381821e-05
5.0466545e-06
1.1350181e-06
0.00029463931
0.00034717012
0.00038730815
0.00038272583
0.00035063618
0.00032016133
0.00028574665
0.00020741473
8.9950699e-05
1.9497442e-05
2.7227993e-06
2.0148209e-07
7.4506485e-09
1.7117222e-10
2.5372446e-11
1.13705e-11
4.8265046e-12
1.8824143e-12
6.7431163e-13
2.2154439e-13
6.661544e-14
1.828315e-14
4.5678492e-15
1.0360466e-15
2.1271325e-16
3.9408013e-17
6.5628162e-18
9.7770791e-19
1.2953621e-19
1.5143473e-20
1.5445143e-21
2.0868866e-24
9.2906936e-28
1.0977331e-31
2.7676705e-36
1.5968119e-41
3.5417362e-47
5.4885901e-53
4.8600101e-59
0.00030186241
0.00029158048
0.00032965994
0.00036187162
0.0003417107
0.00028904166
0.00024789379
0.00024701714
0.0002729305
0.00029846024
0.00031035853
0.00028610095
0.00022002098
0.00014923203
0.00010540109
7.8623996e-05
4.8629176e-05
2.0137291e-05
5.3100724e-06
1.0300607e-06
1.6996561e-07
0.0003501089
0.00038912019
0.0003821339
0.00034653825
0.00031933671
0.00029856368
0.00024560245
0.00013454617
4.1197071e-05
6.1036482e-06
6.4803757e-07
3.7158062e-08
1.1927058e-09
9.0641587e-11
3.7596075e-11
1.6690591e-11
6.8136514e-12
2.5674054e-12
8.9212173e-13
2.8489268e-13
8.3403154e-14
2.2323623e-14
5.4489941e-15
1.2098604e-15
2.4368858e-16
4.4388368e-17
7.2842037e-18
1.0716893e-18
1.4053967e-19
1.6285527e-20
2.9278954e-23
1.7952508e-26
3.0291498e-30
1.1143473e-34
9.0743683e-40
2.5145733e-45
4.3809974e-51
6.552952e-57
4.8920824e-63
0.00034896056
0.00030688466
0.00030315464
0.0003407887
0.00036466787
0.00033618048
0.00027663384
0.00022963611
0.00022498605
0.00025141012
0.00027903414
0.00028852935
0.00025411636
0.00017657416
0.00010443486
6.311743e-05
3.9534865e-05
1.9614596e-05
5.9206069e-06
1.0799137e-06
1.4774714e-07
1.8311281e-08
0.00038495285
0.000375693
0.00033715345
0.00031282223
0.00030393567
0.00027340705
0.00018089737
7.1009509e-05
1.5489535e-05
1.5863413e-06
1.3316439e-07
6.6705091e-09
4.1224583e-10
1.2342997e-10
5.5154322e-11
2.3348989e-11
9.1302096e-12
3.3164717e-12
1.1186269e-12
3.4746453e-13
9.9114485e-14
2.5896338e-14
6.1827106e-15
1.3456635e-15
2.6631293e-16
4.7777665e-17
7.7406601e-18
1.127023e-18
1.465731e-19
3.4579901e-22
2.872805e-25
6.791975e-29
3.5748018e-33
4.0638372e-38
1.441639e-43
2.7129861e-49
4.6407458e-55
6.4749539e-61
4.5290333e-67
0.0003745057
0.00034380857
0.00031070499
0.00031386084
0.00034942092
0.00036461314
0.00032804282
0.0002618077
0.0002090534
0.00020027247
0.00022595291
0.00025437359
0.0002591262
0.00020898957
0.00012550024
6.1350208e-05
3.0193269e-05
1.5395964e-05
5.8018799e-06
1.2264144e-06
1.5379648e-07
1.5204253e-08
1.4480426e-09
0.00036305127
0.00032299309
0.00030177585
0.00030385917
0.00029334223
0.00022406593
0.00010828819
3.0813985e-05
4.8649305e-06
3.7669875e-07
3.3410947e-08
3.3171688e-09
5.8967362e-10
1.8996985e-10
7.7485221e-11
3.0932873e-11
1.1548505e-11
4.0532776e-12
1.3285609e-12
4.0176381e-13
1.1177429e-13
2.8540019e-14
6.6736465e-15
1.4260333e-15
2.7777609e-16
4.9176293e-17
7.8823227e-18
1.138329e-18
3.4816515e-21
3.8660146e-24
1.2616239e-27
9.3623669e-32
1.4721173e-36
6.7641514e-42
1.4437185e-47
2.4388206e-53
4.3149416e-59
6.0046641e-65
4.1051215e-71
0.00034427527
0.00035832312
0.00033626355
0.0003139238
0.00032316826
0.00035519413
0.0003616245
0.00031699256
0.00024417869
0.00018599134
0.00017301249
0.00019611811
0.00022485602
0.0002166642
0.00015252617
7.4576696e-05
2.8365072e-05
1.0996489e-05
4.4078088e-06
1.211048e-06
1.7727187e-07
1.5417809e-08
1.1538813e-09
8.609657e-11
0.00030474522
0.00028732327
0.00030006986
0.0003079451
0.00026230719
0.00015099115
5.3097912e-05
1.1210338e-05
1.4356525e-06
1.8056568e-07
3.9242552e-08
7.6165749e-09
1.316224e-09
3.0139814e-10
1.0237383e-10
3.8268659e-11
1.3730051e-11
4.686305e-12
1.4942701e-12
4.4035017e-13
1.19617e-13
2.9886766e-14
6.8551181e-15
1.4406003e-15
2.7672666e-16
4.8444849e-17
7.6995181e-18
3.0195698e-20
4.4287908e-23
1.9702887e-26
2.038322e-30
4.4036876e-35
2.6248816e-40
6.6638463e-46
1.117052e-51
2.0083955e-57
3.9258219e-63
5.4956661e-69
3.6296014e-75
0.00028308843
0.00032044738
0.00033890087
0.00032781165
0.00031634527
0.00033038636
0.0003577939
0.00035525708
0.00030278351
0.00022325211
0.00016063421
0.00014389674
0.00016627726
0.00018553652
0.00016054893
9.3597673e-05
3.4687349e-05
9.7568001e-06
2.9137922e-06
8.9517836e-07
1.75903e-07
1.7825596e-08
1.122853e-09
6.6127269e-11
3.8957069e-12
0.00027050604
0.00029390241
0.00031930351
0.00029638841
0.00019651867
8.2696215e-05
2.1972989e-05
3.9971129e-06
9.1245915e-07
3.7158594e-07
1.0997514e-07
2.2478771e-08
3.25807e-09
4.5126153e-10
1.2422583e-10
4.4146351e-11
1.5376464e-11
5.125594e-12
1.5914182e-12
4.5749937e-13
1.2149288e-13
2.9747331e-14
6.704289e-15
1.3882841e-15
2.6353841e-16
4.5726071e-17
2.2757131e-19
4.3618247e-22
2.6171241e-25
3.7401114e-29
1.1055822e-33
8.5353509e-39
2.6390926e-44
4.7059447e-50
7.7750705e-56
1.7213414e-61
3.596774e-67
4.917891e-73
3.1280056e-79
0.00025224059
0.00025880596
0.0002941883
0.00031824793
0.000318813
0.0003173767
0.00033475266
0.00035672044
0.00034555524
0.00028452597
0.00019899403
0.0001332583
0.00011474953
0.00013042895
0.00013591706
0.00010050556
4.5152291e-05
1.1868222e-05
2.3883027e-06