/*--------------------------------*- C++ -*----------------------------------*\
| =========                 |                                                 |
| \\      /  F ield         | OpenFOAM: The Open Source CFD Toolbox           |
|  \\    /   O peration     | Version:  5.0                                   |
|   \\  /    A nd           | Web:      www.OpenFOAM.org                      |
|    \\/     M anipulation  |                                                 |
\*---------------------------------------------------------------------------*/
FoamFile
{
    version     2.0;
    format      ascii;
    class       volScalarField;
    location    "220";
    object      p;
}
// * * * * * * * * * * * * * * * * * * * * * * * * * * * * * * * * * * * * * //

dimensions      [0 2 -2 0 0 0 0];

internalField   nonuniform List<scalar> 
9520
(
6.3105329e-05
6.3416736e-05
5.3202846e-05
6.371237e-05
5.4963297e-05
8.3281336e-05
6.3674058e-05
5.7950991e-05
8.6599954e-05
9.5672979e-05
6.3090875e-05
6.1539746e-05
9.2188051e-05
0.00010103762
0.00011380205
6.1793401e-05
6.5116968e-05
9.880248e-05
0.00011013291
0.0001215049
0.00012247122
5.9655261e-05
6.8042398e-05
0.00010531786
0.00012105307
0.00013459138
0.00013328781
0.00012889033
5.6461906e-05
6.9998528e-05
0.00011070929
0.0001321403
0.00015050964
0.00015174354
0.00014292624
0.0001271493
5.216348e-05
7.078785e-05
0.00011426643
0.00014193454
0.00016691594
0.0001745904
0.00016732415
0.00014469962
0.00011793622
4.7373553e-05
7.0649985e-05
0.00011564804
0.00014917358
0.00018165318
0.00019868189
0.00019830842
0.00017568616
0.00013967881
9.9094963e-05
4.3016349e-05
6.9921231e-05
0.00011511894
0.00015301733
0.00019276497
0.00022114414
0.00023225066
0.00021588025
0.00017840038
0.00012522014
7.0120255e-05
3.9331138e-05
6.8808849e-05
0.0001128311
0.00015315443
0.00019863658
0.00023948876
0.00026544582
0.00026138658
0.0002293682
0.00017217986
0.0001006717
3.0129597e-05
3.8078797e-05
7.2014074e-05
0.00011003731
0.00014972987
0.00019809678
0.00025126584
0.00029488273
0.00030825972
0.00028822102
0.00023487282
0.00015606994
6.5024257e-05
-2.1293155e-05
4.1905747e-05
8.4334118e-05
0.0001089592
0.00014465414
0.00019031949
0.00025372593
0.00031762592
0.00035259797
0.00035072375
0.00030854343
0.00023096285
0.00012875048
1.7689848e-05
-8.4257124e-05
5.3410754e-05
9.8029811e-05
0.00011296068
0.00013489382
0.00017231376
0.00024395641
0.00033087789
0.00039103847
0.00041264838
0.00038855046
0.0003204997
0.00021582553
8.9309414e-05
-4.1648688e-05
-0.00015863574
6.5199291e-05
0.00011329834
0.00012148636
0.00011385232
0.00013876165
0.00021880614
0.0003315044
0.00042084154
0.00047042879
0.00047096594
0.00042003226
0.0003214189
0.00018806317
3.7122504e-05
-0.00011302325
-0.00024396653
9.3379372e-05
0.00013716251
0.0001500059
8.287555e-05
9.7836875e-05
0.00017725149
0.00031760252
0.00044075603
0.00052136755
0.00055185837
0.0005253091
0.00044091194
0.00030937597
0.00014688395
-2.8117469e-05
-0.0001961532
-0.00033949994
9.7550205e-05
0.00017498617
0.00019714932
5.4463695e-05
5.1370598e-05
0.00011845749
0.00028988992
0.00045105487
0.00056399824
0.00062780558
0.00063200742
0.00056971393
0.00044881608
0.00028337282
9.1477359e-05
-0.00010653328
-0.00029041595
-0.00044424681
0.00014278977
0.00022377241
0.00024210299
2.8669139e-05
-1.3497802e-05
3.8016158e-05
0.00024532127
0.00045175495
0.00059790729
0.00069563131
0.0007360951
0.00070318828
0.00060171486
0.00044243824
0.0002420988
2.0851974e-05
-0.00019782721
-0.00039490287
-0.00055703958
0.00014122685
0.00025779773
0.00033120369
3.3303686e-05
-9.7640251e-05
-6.98338e-05
0.00017914453
0.00044344589
0.00062316881
0.00075355954
0.00083380836
0.00083663351
0.00076326283
0.0006196759
0.00041962376
0.00018294758
-6.5093803e-05
-0.0003011431
-0.00050851342
-0.00067660806
0.00018671167
0.00031946132
0.0004350052
6.3824803e-05
-0.00020114586
-0.00021649267
8.8132117e-05
0.00042969037
0.00064588557
0.00080037295
0.00092154664
0.00096510483
0.00092842166
0.0008105133
0.00062040654
0.00037672178
0.00010564448
-0.00016540837
-0.00041553272
-0.00063000686
-0.00080161665
0.00019160392
0.0003360398
0.00063982996
0.0001304011
-0.00033895984
-0.0004115555
-3.2536906e-05
0.00040880361
0.00067216351
0.00083975087
0.00099594204
0.0010827451
0.0010917506
0.0010101527
0.00084033752
0.00059895805
0.00031246411
1.1168378e-05
-0.00027948506
-0.00053987808
-0.00075807278
-0.00093063405
0.00022443051
0.00038074129
0.0008352276
0.00022598245
-0.00049234234
-0.0006708145
-0.00019205396
0.00037784358
0.0007059396
0.00085514068
0.0010495674
0.0011831004
0.0012472173
0.0012135317
0.0010751123
0.00084601332
0.00055266634
0.00022743945
-0.00010016238
-0.00040642106
-0.00067294046
-0.00089130442
-0.0010621774
0.00027431166
0.00034537225
0.0011732353
0.00031084437
-0.00069810112
-0.00098700566
-0.00040075764
0.00034862809
0.0007560033
0.00087146856
0.0010695137
0.0012568425
0.0013885431
0.0014154452
0.0013203361
0.0011140619
0.00082334266
0.00048215993
0.00012249014
-0.00022800949
-0.00054505608
-0.00081331101
-0.001028156
-0.0011948297
0.00033612634
0.00041588588
0.0014879762
0.00049796012
-0.00091996521
-0.0014096078
-0.00067759372
0.00031827328
0.00084135756
0.00090559822
0.0010528201
0.0013088008
0.0015091156
0.0016109904
0.0015719499
0.0013992058
0.0011210995
0.00077315456
0.00038822909
-3.170227e-06
-0.00037131634
-0.00069400788
-0.00095939328
-0.0011670935
-0.0013272276
0.00038976857
0.00039374355
0.0019504652
0.00076221138
-0.0012414213
-0.0018701191
-0.0010314421
0.00030531379
0.00098133562
0.00096311446
0.00099963125
0.0013232362
0.0016055531
0.001795963
0.0018264971
0.0016981357
0.0014425248
0.0010974692
0.00069564924
0.000269048
-0.0001487537
-0.00052877104
-0.0008517636
-0.0011096234
-0.0013067207
-0.0014580323
0.00048859865
0.00033835153
0.0023251382
0.0010288017
-0.0016063692
-0.0024923066
-0.0014999078
0.00031726534
0.0012044488
0.0010489505
0.00092507842
0.00127672
0.0016674469
0.001965806
0.0020824605
0.0020092283
0.0017850837
0.0014516617
0.0010421717
0.00058821761
0.00012506273
-0.00031309258
-0.00069899841
-0.0010167172
-0.0012623976
-0.0014456522
-0.0015860142
0.00062737994
0.00041212215
0.0029433401
0.0015030319
-0.0022054526
-0.0031401876
-0.0020910679
0.00035692624
0.0015324192
0.0011815612
0.00081961475
0.0011560909
0.0016765282
0.0021138218
0.0023413337
0.0023341649
0.0021470264
0.0018319568
0.0014240023
0.00095241785
0.00045098057
-4.28456e-05
-0.00049490383
-0.00088032548
-0.0011867538
-0.00141601
-0.0015825293
-0.0017100595
0.00063941574
0.00079469656
0.0033619142
0.0019935033
-0.0029155643
-0.0040473396
-0.0028846725
0.00042565434
0.0019971676
0.0013565511
0.00069021438
0.00093493557
0.0016133439
0.0022287651
0.0026041008
0.0026753619
0.0025278592
0.0022346513
0.0018362133
0.0013578365
0.00082803363
0.00028437723
-0.00023367467
-0.00069257844
-0.0010704504
-0.0013599509
-0.0015689349
-0.0017160951
-0.0018291713
0.00065256748
0.0012728079
0.0036194768
0.0025541287
-0.0039194233
-0.0048025542
-0.0037349101
0.00054235843
0.0025966042
0.0016086485
0.00051779776
0.00060281206
0.00144848
0.0023039667
0.0028654159
0.0030368567
0.00292785
0.0026569279
0.0022729667
0.0017988265
0.0012528763
0.00066891738
8.9000357e-05
-0.00044599515
-0.00090397293
-0.0012676909
-0.001535227
-0.0017200128
-0.0018452414
-0.0019425217
0.00059476532
0.0017457991
0.0038914766
0.0029854837
-0.0049416771
-0.0059880936
-0.0047749778
0.00074707171
0.0032936832
0.0019593803
0.00031194901
0.00010981656
0.0011592472
0.0023233137
0.0031327214
0.0034234763
0.0033513494
0.0030960884
0.0027271831
0.0022678112
0.0017205368
0.0011091741
0.00047544621
-0.00013416104
-0.00067812752
-0.0011274364
-0.0014702918
-0.0017109069
-0.0018679307
-0.0019690805
-0.002049381
0.00051417297
0.0021874577
0.0039320707
0.0029701986
-0.0063030232
-0.0074767148
-0.0061077442
0.00093888326
0.0041378467
0.002471646
4.8678145e-05
-0.00053516167
0.00070059541
0.0022681787
0.0034052663
0.0038494673
0.0038049631
0.0035542016
0.0031926612
0.0027560604
0.0022253844
0.0016022148
0.00092593226
0.00024723039
-0.0003841752
-0.00092801407
-0.0013605774
-0.001675625
-0.0018850329
-0.0020113299
-0.0020867121
-0.0021490103
0.00039970009
0.0025029121
0.0041822188
0.0027933068
-0.0076344815
-0.0089321967
-0.0077443204
0.00097504091
0.005069571
0.0030915531
-0.00026796709
-0.0014639458
4.5270121e-05
0.0021122021
0.0036898195
0.0043248196
0.0043019902
0.0040300405
0.0036703048
0.0032590788
0.0027613437
0.0021415505
0.0014380856
0.00070008319
-1.5791901e-05
-0.00065857159
-0.0011926882
-0.0016004163
-0.0018820187
-0.002055871
-0.0021489622
-0.0021971086
-0.0022408807
0.00025751909
0.0027054087
0.0034013003
0.0026551583
-0.0088366834
-0.0098767314
-0.0094107595
0.0011638581
0.0063858364
0.0037940386
-0.00070558655
-0.0026792579
-0.00087456898
0.0018178763
0.0039812762
0.0048736805
0.0048512263
0.0045340112
0.0041463518
0.0037476295
0.0033110921
0.0027159498
0.0020045247
0.0012234616
0.00043102979
-0.00031114773
-0.00095450028
-0.0014691574
-0.0018445538
-0.0020878596
-0.002222201
-0.0022797717
-0.0022996338
-0.0023249659
9.5757156e-05
0.0027193838
0.0031800117
0.0024480067
-0.010010989
-0.010701428
-0.010579153
0.0017637603
0.0077829241
0.0045724068
-0.0012222405
-0.0043221816
-0.0020882975
0.001345071
0.0042765387
0.0055112802
0.0054753018
0.0050675731
0.0046226518
0.0042183563
0.0038393141
0.003308213
0.0026154441
0.0018120307
0.00095717623
0.00012051041
-0.00063621037
-0.0012697935
-0.0017552604
-0.0020915817
-0.0022907288
-0.0023833051
-0.0024034774
-0.0023946466
-0.0024011517
-6.9403762e-05
0.0025277359
0.002785116
0.0020960676
-0.010825404
-0.011772105
-0.011481355
0.0020553615
0.008806424
0.0053659666
-0.0019409654
-0.0063943015
-0.0036529114
0.0006190621
0.0045557171
0.0062637598
0.0061804163
0.0056477319
0.0050887133
0.0046646378
0.0043379037
0.0039071823
0.0032572318
0.0024594604
0.0015607993
0.00063990321
-0.00022958621
-0.00098902005
-0.0016008142
-0.0020484347
-0.0023385935
-0.0024896932
-0.0025378873
-0.002519346
-0.0024816421
-0.0024692546
-0.00022255436
0.0020995918
0.0022182182
0.0015857043
-0.011500125
-0.012764831
-0.012435654
0.0023843458
0.0091340641
0.0060889214
-0.0025997662
-0.0091138116
-0.0055449056
-0.00044113906
0.004784907
0.0071507601
0.0069850141
0.0062683727
0.0055516638
0.0050582028
0.0047834876
0.0044853209
0.0039276832
0.003155742
0.0022381771
0.0012483019
0.00027310666
-0.00061600863
-0.0013652762
-0.0019445062
-0.0023462817
-0.0025830371
-0.0026832029
-0.0026833948
-0.0026265157
-0.0025602637
-0.0025292713
-0.00035317528
0.0014438089
0.0014965154
0.00096442134
-0.011958454
-0.013508137
-0.013455127
0.0020328774
0.0094693806
0.0066034147
-0.0038111274
-0.012305934
-0.0079298585
-0.001965313
0.0049579383
0.0081765818
0.0078823052
0.0069536267
0.0059897911
0.0053913564
0.005143143
0.0050169325
0.0046024212
0.0039000719
0.0029841174
0.0019434696
0.00087434982
-0.00014130064
-0.0010355056
-0.0017617014
-0.0022981331
-0.0026451663
-0.0028240292
-0.0028691499
-0.0028197372
-0.0027248443
-0.0026303697
-0.0025812634
-0.00045449582
0.00058369383
0.00064637826
0.00034926991
-0.012112322
-0.014121253
-0.014425641
0.0011831843
0.0091312742
0.0065878019
-0.0049941988
-0.01650455
-0.011134409
-0.0039001666
0.0049560054
0.0093444459
0.0088552341
0.0076796416
0.0064204522
0.0056127561
0.0054435815
0.0054711229
0.0052599343
0.0046744215
0.0037958472
0.0027263959
0.0015752971
0.0004404012
-0.00059999956
-0.0014844601
-0.0021750049
-0.0026578878
-0.0029428082
-0.0030591569
-0.0030453755
-0.0029469236
-0.0028140964
-0.002691976
-0.0026253847
-0.00054064916
-0.00045324579
-0.00030342242
-0.00025215792
-0.012080104
-0.014414011
-0.015170082
0.00017431375
0.008336565
0.0064619772
-0.0069026592
-0.020723687
-0.015574031
-0.0065510766
0.0045921002
0.010556262
0.0098678232
0.0084468885
0.0068027003
0.005717187
0.0055323779
0.0058239079
0.0058747955
0.0054648294
0.0046660512
0.0035907586
0.0023765722
0.0011331748
-5.0332898e-05
-0.0010990218
-0.0019592445
-0.0026010304
-0.0030203063
-0.0032365423
-0.0032856106
-0.0032113871
-0.0030644018
-0.0028941356
-0.0027452092
-0.0026618719
-0.001596575
-0.00062788823
-0.0013156104
-0.00094192567
-0.011807663
-0.014382341
-0.015569508
-0.0011529088
0.0068554782
0.0064897181
-0.0087171352
-0.025438608
-0.020813741
-0.010442763
0.003566519
0.011857592
0.010793536
0.0091949863
0.0071509527
0.0056343079
0.005431601
0.0060020885
0.0064196179
0.0062557598
0.0055852932
0.0045333119
0.0032764524
0.0019364819
0.00061856602
-0.0005945401
-0.0016348093
-0.0024551404
-0.0030354356
-0.00338205
-0.0035232434
-0.0035016722
-0.0033669905
-0.0031719307
-0.0029650477
-0.0027903136
-0.0026910098
-0.0023146954
-0.002728367
-0.00074600346
-0.0018214678
-0.011190989
-0.013935965
-0.015475602
-0.0027701163
0.0047540627
0.0057459564
-0.0095049827
-0.029845357
-0.026103298
-0.014765479
0.0017957659
0.013225247
0.011634649
0.0098756188
0.0073915624
0.0053575895
0.0050267785
0.0059745156
0.0068512319
0.0070343149
0.0065434763
0.0055541881
0.0042690956
0.0028505957
0.0014097265
3.6515065e-05
-0.0011879891
-0.0022019413
-0.0029669825
-0.0034739874
-0.0037393413
-0.003800317
-0.0037064753
-0.0035116597
-0.0032692534
-0.0030269188
-0.00282751
-0.0027131156
-0.0028724524
-0.0032881669
-0.0037607624
-0.00088132835
-0.010069627
-0.01304812
-0.014814552
-0.004644272
0.0019591944
0.0042165994
-0.010130742
-0.034007905
-0.031928135
-0.018169746
-6.8041587e-07
0.014478451
0.011907122
0.010361861
0.0075378896
0.0047740243
0.0042843764
0.0056241813
0.0071266191
0.0077735005
0.0075402625
0.0066486685
0.0053522865
0.0038741405
0.0023190459
0.00079776808
-0.00060866778
-0.0018249608
-0.0027944315
-0.0034897689
-0.0039121453
-0.0040888035
-0.0040659268
-0.0038991595
-0.0036449093
-0.0033563026
-0.0030798539
-0.0028571097
-0.0027285619
-0.0084962532
-0.0040408212
-0.0042058345
-0.0045941019
-0.0010255715
-0.011673265
-0.01358568
-0.0067285728
-0.0015163148
0.0019905677
-0.011193364
-0.037702487
-0.038521793
-0.021882432
-0.0013723674
0.014557364
0.012212308
0.010518851
0.0074442672
0.0038914088
0.0030035535
0.0049044277
0.0071743423
0.0084525288
0.0085609049
0.0078163293
0.0065267291
0.0049955903
0.003344513
0.0016889433
0.00010863603
-0.0013110384
-0.0024987303
-0.0034067777
-0.0040181936
-0.0043456627
-0.0044276607
-0.0043187555
-0.004079061
-0.0037663869
-0.0034330832
-0.003124211
-0.0028795216
-0.002737733
-0.0098380064
-0.006623412
-0.0051022275
-0.0050312984
-0.0052109716
-0.0011791059
-0.011838266
-0.0090311848
-0.0056222667
-0.0010348287
-0.012422547
-0.041303607
-0.043747542
-0.027021711
-0.0048226558
0.014115706
0.010925715
0.010160596
0.0071811194
0.0025203391
0.0011493289
0.0035717251
0.0069231306
0.009033579
0.0096165355
0.0090530143
0.0077926307
0.0062067777
0.0044788788
0.0027018466
0.00096420431
-0.00065154373
-0.0020632165
-0.0032031393
-0.0040331383
-0.0045470167
-0.0047707408
-0.0047537103
-0.0045576296
-0.0042455594
-0.0038759164
-0.003499816
-0.0031603512
-0.0028951156
-0.0027410241
-0.0094825746
-0.007650372
-0.0046569437
-0.0059705562
-0.0057186863
-0.0055920092
-0.0013297348
-0.011483297
-0.010243526
-0.0048706905
-0.013778635
-0.044283522
-0.048615475
-0.032376842
-0.0093454937
0.010660399
0.010600147
0.0092245371
0.0064048858
0.00071751268
-0.0015926253
0.0015380263
0.0062773084
0.0094730618
0.010682372
0.010367485
0.0091410823
0.0075085153
0.0057052298
0.0038271708
0.0019515557
0.00015526111
-0.0014758568
-0.0028591067
-0.0039322134
-0.0046672311
-0.0050713579
-0.0051841283
-0.0050650682
-0.0047813651
-0.0043981296
-0.003973614
-0.0035569546
-0.0031886512
-0.0029042971
-0.0027387988
-0.013870077
-0.0067555743
-0.0054536325
-0.0027335545
-0.006521976
-0.0062444409
-0.0057133404
-0.0014599881
-0.015058952
-0.009314604
-0.015273781
-0.046235962
-0.052472825
-0.037861214
-0.014464709
0.0064203816
0.0080885354
0.007579089
0.0054082982
-0.0019690228
-0.0051921705
-0.0015799746
0.0051245769
0.0096758604
0.011752188
0.01173793
0.010573387
0.0088799129
0.0070140311
0.0050463
0.0030563343
0.0011044814
-0.00073096691
-0.0023579586
-0.0036921579
-0.0046792082
-0.0053031128
-0.0055868005
-0.0055830004
-0.0053599341
-0.0049890521
-0.0045367265
-0.0040598989
-0.0036047891
-0.0032094186
-0.002907297
-0.0027314541
-0.019752657
-0.016123044
-0.0040980033
-0.0033714412
-0.0011309696
-0.0067994449
-0.0065900276
-0.0056143527
-0.0015689456
-0.013991879
-0.016689084
-0.046942867
-0.055345333
-0.042622358
-0.020034904
0.00079630609
0.0061587726
0.0049429388
0.0034940086
-0.0050118243
-0.010200515
-0.0056480605
0.0033566598
0.0095035484
0.012745238
0.013164461
0.012054648
0.010329535
0.008376519
0.0063386671
0.0042579548
0.0021815274
0.00016884089
-0.0016893344
-0.0032919677
-0.0045557303
-0.0054371158
-0.0059351602
-0.0060893406
-0.0059646816
-0.0056367195
-0.0051803585
-0.0046617159
-0.0041349282
-0.0036431918
-0.0032225967
-0.0029045172
-0.0027195858
-0.018217531
-0.023917368
-0.017845475
-0.0016841369
-0.0013994106
0.00013417003
-0.0069698953
-0.0067805914
-0.0053123122
-0.0016437331
-0.01831483
-0.046246451
-0.056734752
-0.046175397
-0.0256976
-0.0056672347
0.0009000516
0.0022410144
0.0016786068
-0.0095198376
-0.015977333
-0.011555512
0.00076286474
0.0087609385
0.013590979
0.014601961
0.01357379
0.011797927
0.009783592
0.0076694982
0.0055283806
0.0033633609
0.0012117758
-0.00085069698
-0.0027149847
-0.0042716558
-0.0054428882
-0.0061991825
-0.0065580622
-0.0065751394
-0.0063267083
-0.0058946116
-0.0053555052
-0.0047730392
-0.0041980483
-0.0036719493
-0.0032289198
-0.0028970588
-0.0027037305
-0.020189892
-0.021706294
-0.02722513
-0.018831991
0.00041004727
0.00040502535
0.0012246914
-0.0071227898
-0.0068153281
-0.0048344227
-0.0016840434
-0.043959514
-0.056498484
-0.047907969
-0.031075029
-0.01306166
-0.0062668203
-0.0025246519
0.00047034087
-0.013236614
-0.024343159
-0.016544141
-0.0027891872
0.0071349606
0.014145708
0.015961451
0.015084626
0.01326494
0.011168757
0.0090165749
0.0068266546
0.0046178517
0.0023752843
0.00015079292
-0.0019518617
-0.0038033893
-0.0052901833
-0.0063458958
-0.0069587673
-0.0071665566
-0.0070406015
-0.0066674972
-0.0061336056
-0.0055141496
-0.0048693973
-0.004248751
-0.003692444
-0.0032304603
-0.0028858916
-0.0026836598
-0.040123209
-0.021945409
-0.024457017
-0.029604302
-0.019215281
0.0021137982
0.0019540457
0.0021544415
-0.0071944365
-0.0067190191
-0.0042872534
-0.0017108413
-0.054066948
-0.047651091
-0.035705176
-0.021011616
-0.015265592
-0.0097194858
-0.0014491913
-0.01612111
-0.033080643
-0.028330794
-0.007973817
0.004427004
0.014149125
0.017190635
0.016460909
0.014655051
0.012519711
0.010307368
0.0081197708
0.0058988991
0.0036257095
0.0012969114
-0.0010024277
-0.0031334623
-0.0049496221
-0.0063400548
-0.0072567797
-0.007709063
-0.0077555635
-0.0074831563
-0.006986531
-0.0063529549
-0.0056541785
-0.0049498138
-0.0042894342
-0.0037083292
-0.0032285929
-0.002869574
-0.0026576006
-0.049740624
-0.034884742
-0.02273798
-0.026612608
-0.030946255
-0.019091605
0.0033602932
0.0032114119
0.0028257763
-0.0071204948
-0.0065777134
-0.0036031828
-0.0016406164
-0.045901773
-0.039173225
-0.029531424
-0.025800048
-0.018108446
-0.0051669168
-0.019086419
-0.042573637
-0.039586682
-0.016185391
-0.00029087581
0.013289579
0.018081526
0.017698319
0.01583873
0.013725584
0.011527907
0.0093295259
0.0071637037
0.0049150599
0.0025562163
0.00012273904
-0.0022520099
-0.0043942174
-0.0061471113
-0.0074133799
-0.0081673539
-0.0084431938
-0.0083211325
-0.0079015458
-0.0072825969
-0.0065495001
-0.0057739442
-0.0050179135
-0.0043258824
-0.0037210198
-0.0032191838
-0.0028436812
-0.0026261806
-0.042809845
-0.043345829
-0.028896025
-0.021922525
-0.027955777
-0.031273555
-0.018530779
0.0041980952
0.0041733257
0.0031377891
-0.0069632686
-0.0061518081
-0.0029418533
-0.0015425532
-0.040456381
-0.038636828
-0.037648081
-0.028023078
-0.011366174
-0.023546267
-0.050258048
-0.055795644
-0.028299497
-0.0074769594
0.011062859
0.018299118
0.018342765
0.016844711
0.014713822
0.01255386
0.010435723
0.0083273507
0.006192107
0.0038831085
0.0013992177
-0.0011589572
-0.0036031187
-0.0057307341
-0.0073875518
-0.0085007346
-0.0090687305
-0.0091554071
-0.0088609801
-0.0082936114
-0.0075512944
-0.0067206129
-0.0058784594
-0.0050823268
-0.0043592905
-0.0037218968
-0.0031933166
-0.0028123052
-0.0025898004
-0.038634674
-0.038019843
-0.035486847
-0.022431351
-0.020142061
-0.028149389
-0.030671442
-0.017564843
0.0046805209
0.0048570117
0.0032375831
-0.0068182499
-0.0058910731
-0.0023081303
-0.0013158345
-0.047576484
-0.0502168
-0.039935207
-0.019516765
-0.029196672
-0.058704024
-0.069651645
-0.048587798
-0.016642736
0.0088175933
0.017606842
0.018488923
0.017077366
0.015399841
0.013354957
0.011303554
0.0093608934
0.0073667518
0.0052213509
0.0027886607
0.00013289201
-0.0025632769
-0.0050583334
-0.0071361651
-0.0086626659
-0.0095908736
-0.0099528696
-0.0098418798
-0.0093719322
-0.0086532683
-0.0077885882
-0.0068727301
-0.0059799315
-0.0051440468
-0.0043745553
-0.003696102
-0.0031613831
-0.0027757237
-0.002548448
-0.055109831
-0.034748187
-0.031603157
-0.026820703
-0.015860769
-0.017965232
-0.027256886
-0.029319762
-0.016286885
0.0048637635
0.005158121
0.002986948
-0.0066902611
-0.0051837127
-0.0019257586
-0.0011178729
-0.062869428
-0.053032752
-0.028606569
-0.035623845
-0.067755916
-0.085728192
-0.069386181
-0.029648406
0.0019616589
0.017596096
0.017533522
0.01688945
0.015496916
0.013798157
0.011928043
0.010112399
0.0083971547
0.006480663
0.0042362706
0.0015975034
-0.0012719354
-0.0041027754
-0.0066144724
-0.0086040337
-0.0099610803
-0.010672952
-0.010813885
-0.010497998
-0.0098458326
-0.008974801
-0.0080023373
-0.0070224923
-0.006079187
-0.0051789333
-0.0043491774
-0.0036631058
-0.0031238734
-0.0027339022
-0.0025020303
-0.074578626
-0.06076674
-0.030380029
-0.023796893
-0.01828554
-0.0095551493
-0.015437011
-0.025523936
-0.027314674
-0.015054007
0.0048187037
0.0053712347
0.0024777082
-0.0062677913
-0.0047820525
-0.0018383998
-0.00092126941
-0.066532054
-0.038462321
-0.042408055
-0.076861834
-0.10145514
-0.090049322
-0.04684209
-0.0075942878
0.012109171
0.016556669
0.015351847
0.015113443
0.013756574
0.012134261
0.010590036
0.0091108296
0.0076034035
0.0056587354
0.0031896613
0.00026202349
-0.0028446553
-0.0057813303
-0.0082711709
-0.010124788
-0.011267043
-0.011738463
-0.011645163
-0.011113163
-0.010274054
-0.0092675343
-0.0082144145
-0.0071704811
-0.0061404493
-0.0051547816
-0.004314771
-0.003624015
-0.0030808001
-0.0026867395
-0.0024504717
-0.078771003
-0.084025492
-0.063741253
-0.026332045
-0.016115099
-0.01037279
-0.003721886
-0.012665491
-0.023116434
-0.02511849
-0.013708547
0.0047397777
0.0047293844
0.0019094552
-0.0052938685
-0.0042492941
-0.0015167844
-0.00074864666
-0.048582164
-0.048974285
-0.085137805
-0.11534328
-0.10976968
-0.066374074
-0.020925374
0.0059399636
0.012593046
0.013104524
0.013644312
0.013202684
0.011912726
0.01057016
0.0095185004
0.0084021712
0.0069852929
0.0048418725
0.0020094865
-0.0012707484
-0.0046048365
-0.0076110164
-0.010023858
-0.011677489
-0.012567658
-0.012778341
-0.01243305
-0.011675292
-0.010666742
-0.0095594117
-0.0084250714
-0.007266581
-0.0061192281
-0.0051187791
-0.0042736384
-0.0035790347
-0.0030322246
-0.0026342515
-0.002393812
-0.057908407
-0.087851257
-0.089727665
-0.064121928
-0.022746647
-0.0094328306
-0.0034129853
0.0013791387
-0.0098149797
-0.020383
-0.022349344
-0.011724039
0.0047859172
0.0047728983
0.0011049736
-0.0040922793
-0.0031823224
-0.0013066037
-0.00066116281
-0.054696233
-0.091324889
-0.12592637
-0.12782674
-0.08575463
-0.037054204
-0.004365307
0.0091498468
0.0089819723
0.011501636
0.011824829
0.011062791
0.010109954
0.0093295364
0.0088770896
0.008028227
0.0064805708
0.0039267338
0.00061134477
-0.0030457526
-0.0065600383
-0.0095887465
-0.011837837
-0.013243139
-0.013851983
-0.013775352
-0.013161158
-0.01219484
-0.011059857
-0.0098507768
-0.008567242
-0.0072512671
-0.0060816567
-0.0050753022
-0.0042262573
-0.0035283193
-0.0029780796
-0.0025764244
-0.0023319355
-0.05864466
-0.065601923
-0.092594208
-0.091702902
-0.062229082
-0.019205738
-0.0040874646
0.0023004134
0.0055922107
-0.0070829396
-0.017251534
-0.019532721
-0.0097804429
0.0045612286
0.0045348746
0.00064570855
-0.0032527042
-0.0030472621
-0.0011319018
-0.00050408307
-0.093809206
-0.13159815
-0.14197703
-0.10337898
-0.055315855
-0.016513595
0.00059784791
0.0064428238
0.0074479447
0.0098208993
0.0095920665
0.0088123596
0.0086212741
0.0086571835
0.0087699474
0.0079307879
0.0059534173
0.002783541
-0.0010871249
-0.0050802608
-0.0087238592
-0.011667052
-0.013693531
-0.014808867
-0.015099131
-0.014707499
-0.013839494
-0.012716203
-0.01145467
-0.01005385
-0.0085619272
-0.0072129413
-0.0060357551
-0.0050251262
-0.0041728432
-0.0034717094
-0.0029183526
-0.0025130959
-0.0022649793
-0.091618314
-0.060711735
-0.069743283
-0.093089532
-0.089891658
-0.05863135
-0.015881859
-9.535779e-06
0.0065768182
0.0089482911
-0.0045374992
-0.014505013
-0.016905628
-0.008159883
0.0039224483
0.0037370498
0.00045520495
-0.0026132638
-0.0021569509
-0.0010372256
-0.00041977402
-0.13097143
-0.14966222
-0.11813552
-0.073282542
-0.031376808
-0.011180396
-0.00035344418
0.0033597017
0.0064301033
0.0072854211
0.0070270602
0.0068740168
0.0078382059
0.0087847767
0.0091526987
0.0079384454
0.0052032648
0.0012798468
-0.0031308573
-0.0073880166
-0.011082768
-0.013835531
-0.015578488
-0.016351144
-0.016279761
-0.015582451
-0.014522008
-0.013241645
-0.011737442
-0.010064261
-0.0085243727
-0.0071648803
-0.0059827222
-0.0049685933
-0.0041131627
-0.0034093013
-0.0028529959
-0.0024446499
-0.0021927826
-0.1239512
-0.084491519
-0.059637895
-0.070051796
-0.089529033
-0.084900512
-0.053710247
-0.012937076
0.0030497853
0.0093837318
0.011369661
-0.0027328763
-0.011957964
-0.013786433
-0.0061446278
0.0033061332
0.0028989256
0.00025236456
-0.0020331669
-0.0019067564
-0.00081798553
-0.00030894691
-0.14887177
-0.12896838
-0.087192551
-0.047358472
-0.026316426
-0.01051221
-0.0036541058
0.0027930417
0.0043293172
0.0039430478
0.0046666136
0.0057845113
0.0081845617
0.0097434828
0.0098134964
0.0077824131
0.0040306312
-0.00066756173
-0.0055364424
-0.0099968783
-0.013590111
-0.016079712
-0.017464625
-0.017831126
-0.017396365
-0.016464787
-0.015213391
-0.013627722
-0.011772009
-0.010029447
-0.0084752953
-0.0071091672
-0.0059228209
-0.0049053919
-0.0040474488
-0.0033411258
-0.0027823987
-0.0023707075
-0.0021154841
-0.1394819
-0.11054287
-0.074080339
-0.054952954
-0.066848224
-0.082325939
-0.07736274
-0.047862355
-0.010469116
0.0049808033
0.010333494
0.01308149
-0.0020125159
-0.0091671644
-0.010632065
-0.0043881724
0.0027206581
0.0025396615
8.1427351e-05
-0.0014758419
-0.001310134
-0.00069187261
-0.0002594962
-0.13213743
-0.094129442
-0.062691564
-0.043942184
-0.025694441
-0.014124984
-0.0038211631
0.0014973049
0.00076027261
0.0005692945
0.0030787378
0.0061329798
0.0098320697
0.011233297
0.010453827
0.0071378716
0.0022985571
-0.0031028037
-0.0083388231
-0.012857836
-0.016228867
-0.018362194
-0.01930144
-0.019242266
-0.018525031
-0.017364791
-0.015734584
-0.013698804
-0.011743099
-0.0099813819
-0.0084174958
-0.0070459865
-0.0058557557
-0.0048357397
-0.0039757915
-0.0032675791
-0.0027061131
-0.0022914256
-0.0020330753
-0.12570832
-0.12262388
-0.093127405
-0.061168112
-0.047859351
-0.060883877
-0.071991082
-0.068109994
-0.041654444
-0.008846419
0.0063276282
0.010832669
0.013136475
-0.0011226214
-0.0062652132
-0.0080805638
-0.0030375418
0.0021834255
0.0021438647
8.551182e-05
-0.0010629221
-0.0010890071
-0.00051226298
-0.00017994435
-0.094577559
-0.075311495
-0.062521025
-0.045456813
-0.028768872
-0.014456491
-0.0033666634
-0.002543336
-0.003120332
-0.0021558131
0.0031217049
0.0084077707
0.012531224
0.01298901
0.010543512
0.0057938691
-6.0224627e-05
-0.0060547789
-0.011533024
-0.01592071
-0.018960165
-0.020618224
-0.021068422
-0.020672448
-0.019686249
-0.018061989
-0.015858997
-0.013680779
-0.011699566
-0.009922895
-0.008351407
-0.0069748997
-0.0057816779
-0.0047599784
-0.0038986248
-0.0031881038
-0.0026239772
-0.0022069612
-0.0019457407
-0.089873179
-0.11131587
-0.10239894
-0.073779105
-0.047425175
-0.039177089
-0.053151871
-0.059751845
-0.057865421
-0.035963845
-0.007163558
0.0082075214
0.0106765
0.012893681
0.00023804964
-0.0040774679
-0.005019953
-0.002035849
0.0018158254
0.0018251726
0.00016383029
-0.00068349079
-0.00067701922
-0.0003734333
-0.00012416815
-0.08373337
-0.080592158
-0.068752804
-0.049233316
-0.029675287
-0.01189998
-0.0066601301
-0.0081106801
-0.0066838767
-0.0028545717
0.0058517809
0.012438584
0.015353756
0.01406994
0.0097486648
0.0036341554
-0.0030878615
-0.0095378092
-0.015047078
-0.019146853
-0.021697084
-0.022809926
-0.02286511
-0.022159082
-0.020611608
-0.018263851
-0.015858881
-0.013647426
-0.011642785
-0.0098548766
-0.0082764215
-0.0068960346
-0.0057012234
-0.0046785499
-0.0038151692
-0.0031020529
-0.0025365639
-0.0021175516
-0.0018534742
-0.086247067
-0.080302205
-0.092549311
-0.080999147
-0.054725082
-0.033842517
-0.02965068
-0.044754637
-0.047226483
-0.047913966
-0.029763243
-0.004517322
0.0096384814
0.010761199
0.011643118
0.001789752
-0.0026328019
-0.0047848484
-0.0011500174
0.0015360195
0.0015570322
0.00028637276
-0.00034925158
-0.00042921366
-0.00020524185
-5.9621906e-05
-0.096549984
-0.093920142
-0.075790239
-0.050906625
-0.02464464
-0.0132537
-0.013242039
-0.01430786
-0.0089402137
0.00037464104
0.011337308
0.017003994
0.017714894
0.01405063
0.007925911
0.00060990729
-0.0068090982
-0.013501843
-0.018806971
-0.022435314
-0.024389253
-0.025049851
-0.024754609
-0.023378661
-0.020923008
-0.018292058
-0.015843985
-0.013596273
-0.011574682
-0.0097765349
-0.0081926119
-0.0068103503
-0.0056148704
-0.0045902568
-0.0037241525
-0.0030105958
-0.0024440821
-0.0020232877
-0.0017564397
-0.10819211
-0.082829088
-0.068300631
-0.07218349
-0.060182369
-0.037208089
-0.020990915
-0.019760077
-0.03542161
-0.036180544
-0.037051393
-0.023669919
-0.0014531892
0.0099907708
0.010556122
0.010200429
0.002672402
-0.0014071819
-0.0029566965
-0.00045645176
0.0013945722
0.001410828
0.0004232674
-5.9738587e-05
-0.00015005689