/*--------------------------------*- C++ -*----------------------------------*\
| =========                 |                                                 |
| \\      /  F ield         | OpenFOAM: The Open Source CFD Toolbox           |
|  \\    /   O peration     | Version:  5.0                                   |
|   \\  /    A nd           | Web:      www.OpenFOAM.org                      |
|    \\/     M anipulation  |                                                 |
\*---------------------------------------------------------------------------*/
FoamFile
{
    version     2.0;
    format      ascii;
    class       surfaceScalarField;
    location    "220";
    object      phi;
}
// * * * * * * * * * * * * * * * * * * * * * * * * * * * * * * * * * * * * * //

dimensions      [0 3 -1 0 0 0 0];

internalField   nonuniform List<scalar> 
18820
(
-0.00039620518
-1.3579174
-0.00076510881
-1.2699166
-0.00037769662
-1.3575397
-0.0011064547
-1.1877102
-0.00073072659
-1.2695636
-0.00036231795
-1.3571774
-0.0014196404
-1.1108909
-0.0010591429
-1.1873818
-0.00070081988
-1.2692251
-0.00035659752
-1.3568208
-0.0017040879
-1.0390918
-0.0013628828
-1.1105871
-0.0010162021
-1.1870664
-0.00068929765
-1.2688924
-0.0003573787
-1.3564634
-0.001959546
-0.97196592
-0.0016414568
-1.0388132
-0.0013095513
-1.1102938
-0.00099979453
-1.1867559
-0.00069109531
-1.2685586
-0.00035676813
-1.3561067
-0.0021855975
-0.90919769
-0.0018943628
-0.97171301
-0.0015812116
-1.0385416
-0.0012900304
-1.1100035
-0.0010035627
-1.1864434
-0.00069177115
-1.2682236
-0.000346384
-1.3557603
-0.0023813695
-0.85049662
-0.0021216075
-0.90897044
-0.0018304313
-0.97146379
-0.0015613843
-1.0382702
-0.0012965049
-1.1097106
-0.0010079903
-1.1861272
-0.00067418015
-1.2678958
-0.00032677403
-1.3554335
-0.0025455827
-0.7955946
-0.0023239284
-0.8502943
-0.002056881
-0.90874399
-0.0018138625
-0.97121131
-0.0015714992
-1.0379952
-0.0013067111
-1.1094119
-0.00098667604
-1.1858147
-0.00063797553
-1.2675846
-0.00030338466
-1.3551301
-0.0026770133
-0.74424121
-0.0025036815
-0.79541485
-0.0022613591
-0.85008982
-0.0020472627
-0.90851059
-0.0018296396
-0.97095317
-0.0015894529
-1.0377125
-0.0012851941
-1.1091133
-0.00093720827
-1.1855155
-0.00059300211
-1.267295
-0.00028258569
-1.3548475
-0.0027765164
-0.6962082
-0.0026649005
-0.74407999
-0.0024471548
-0.79522905
-0.0022614316
-0.84987565
-0.0020712749
-0.90826896
-0.0018583545
-0.97068427
-0.0015708453
-1.0374268
-0.0012270138
-1.1088235
-0.00087266484
-1.1852358
-0.00055211376
-1.2670255
-0.00026756903
-1.35458
-0.0028455828
-0.6512802
-0.0028140078
-0.69605909
-0.0026215968
-0.74390555
-0.0024560204
-0.79503447
-0.0022957737
-0.84965115
-0.0021145913
-0.90801272
-0.001845783
-0.97040933
-0.0015086062
-1.0371452
-0.0011461192
-1.1085501
-0.00081295654
-1.184975
-0.00052205808
-1.266771
-0.00025721009
-1.3543228
-0.0029024662
-0.60923037
-0.0029759171
-0.65111829
-0.0027986508
-0.69588203
-0.0026311684
-0.7437304
-0.0025005457
-0.79482969
-0.0023577263
-0.84940801
-0.0021117846
-0.90774672
-0.0017832697
-0.97013467
-0.0014155612
-1.0368758
-0.0010691115
-1.1082939
-0.00076875651
-1.1847283
-0.00050133539
-1.2665269
-0.00024762999
-1.3540751
-0.0029497818
-0.56987578
-0.0031661011
-0.60904019
-0.0029871861
-0.65092975
-0.0027851087
-0.69572809
-0.0026784486
-0.7435525
-0.0025843553
-0.79460306
-0.0023704692
-0.84914933
-0.0020526526
-0.90747734
-0.0016812538
-0.96986898
-0.0013234937
-1.0366214
-0.0010117946
-1.1080509
-0.00073806512
-1.1844916
-0.00048286739
-1.2662917
-0.00023482698
-1.3538403
-0.0030000188
-0.53305301
-0.0033667964
-0.56967508
-0.003159945
-0.60886743
-0.0028939179
-0.65082094
-0.002811744
-0.6955948
-0.0027873335
-0.74334952
-0.0026242033
-0.79434933
-0.0023192285
-0.84888275
-0.0019434532
-0.90721514
-0.0015766952
-0.96961578
-0.0012540484
-1.0363792
-0.00097172079
-1.1078172
-0.00071089697
-1.1842635
-0.00045875777
-1.2660677
-0.00021663459
-1.3536237
-0.0030604897
-0.49860236
-0.0035935587
-0.53282625
-0.0033014377
-0.56953359
-0.0029374353
-0.60882391
-0.002881347
-0.65075134
-0.0029602014
-0.69542193
-0.0028778015
-0.74309592
-0.0025879688
-0.79408059
-0.0022028933
-0.84862331
-0.0018282399
-0.90696359
-0.0014969722
-0.96937285
-0.0012053559
-1.0361455
-0.00093592585
-1.1075922
-0.00067614474
-1.1840461
-0.00042419951
-1.2658602
-0.00019341373
-1.3534302
-0.0031519842
-0.46636836
-0.0038571599
-0.49833876
-0.0034149551
-0.53271273
-0.0029316561
-0.56953937
-0.0028879614
-0.6088173
-0.0031037727
-0.65060777
-0.0031400068
-0.69515972
-0.0028672553
-0.74281664
-0.0024612775
-0.79382221
-0.0020768778
-0.84837468
-0.0017407612
-0.90671981
-0.0014413651
-0.96913684
-0.0011615824
-1.0359199
-0.00089039217
-1.107378
-0.00062673737
-1.1838436
-0.0003793171
-1.2656743
-0.00016763445
-1.3532626
-0.0032588519
-0.43621676
-0.0041998914
-0.46602563
-0.003529144
-0.49822457
-0.0028473804
-0.532797
-0.0028456577
-0.56958167
-0.0032261277
-0.60869494
-0.0034265917
-0.65032118
-0.0031696313
-0.69485735
-0.0027213281
-0.74255658
-0.0023198381
-0.79357925
-0.0019840809
-0.84813136
-0.0016813515
-0.90647982
-0.0013911914
-0.96890723
-0.001105572
-1.0357047
-0.00082665138
-1.107178
-0.00056177167
-1.1836612
-0.00032877733
-1.2655131
-0.00014262462
-1.35312
-0.0034525825
-0.4079744
-0.0046437116
-0.43577294
-0.003646185
-0.46590859
-0.0026708183
-0.49840113
-0.0027249127
-0.53291775
-0.0033326695
-0.56947513
-0.0037531454
-0.60836839
-0.0035149421
-0.64997587
-0.0029883443
-0.69459033
-0.0025526621
-0.74232376
-0.0022232104
-0.79334012
-0.0019255072
-0.8478872
-0.0016277859
-0.90624322
-0.001325963
-0.96868684
-0.0010275462
-1.0355038
-0.00074321301
-1.1069966
-0.00048674415
-1.1835032
-0.00027927587
-1.2653765
-0.00012110249
-1.3529989
-0.0036403717
-0.38156759
-0.0052429439
-0.40737517
-0.003795762
-0.43562336
-0.0023526967
-0.46622671
-0.0024711069
-0.49865494
-0.0034421936
-0.53280823
-0.0041325395
-0.56909573
-0.0039228518
-0.60796048
-0.0032675216
-0.6496967
-0.0027690034
-0.69437399
-0.0024517476
-0.74209522
-0.0021719841
-0.79309364
-0.0018736161
-0.84764137
-0.0015555869
-0.9060136
-0.0012341923
-0.9684802
-0.00092593641
-1.0353211
-0.00064487548
-1.1068385
-0.00041176714
-1.1833707
-0.00023623071
-1.2652613
-0.00010430455
-1.3528946
-0.0039713636
-0.35675349
-0.0059726882
-0.38083784
-0.003937731
-0.4072332
-0.0018638026
-0.43611226
-0.002032431
-0.46666538
-0.0035408253
-0.49855631
-0.0045986389
-0.53234213
-0.0044085434
-0.56861004
-0.0035682216
-0.60765978
-0.0029581179
-0.64950758
-0.0026584354
-0.6941673
-0.0024160727
-0.74185114
-0.0021302821
-0.79283697
-0.0017984619
-0.8473985
-0.0014506984
-0.90579709
-0.0011137853
-0.96829235
-0.00080521244
-1.0351607
-0.00054353088
-1.1067067
-0.00034595319
-1.183261
-0.00020200824
-1.2651636
-9.2012129e-05
-1.3528026
-0.0042277779
-0.33356068
-0.0069026268
-0.35582355
-0.0041724749
-0.3806031
-0.0011385615
-0.40795844
-0.0013599741
-0.43678471
-0.0036354113
-0.4665708
-0.0052056372
-0.49794931
-0.0049972408
-0.53175343
-0.0038755234
-0.56830274
-0.0031053469
-0.60751255
-0.0028257015
-0.64934032
-0.0026478076
-0.69393557
-0.0023982879
-0.74158313
-0.002059425
-0.79257601
-0.0016815666
-0.84716763
-0.0013102494
-0.90560063
-0.00096963127
-0.96812793
-0.00067723341
-1.035027
-0.00045306921
-1.1065996
-0.00029344974
-1.1831695
-0.00017626069
-1.2650794
-8.3158227e-05
-1.3527194
-0.0047529711
-0.31153421
-0.0079142783
-0.33254903
-0.0044070939
-0.35558894
-0.00018271452
-0.38155895
-0.00040311823
-0.4089153
-0.0037026183
-0.43671751
-0.0060195916
-0.46575684
-0.0057501687
-0.49719638
-0.0041939284
-0.53143502
-0.0031761637
-0.56823192
-0.0029173045
-0.60742095
-0.0028498432
-0.64913828
-0.0026763321
-0.69365753
-0.0023447342
-0.74129782
-0.0019327181
-0.79232486
-0.0015189876
-0.84695889
-0.0011403016
-0.90542996
-0.00081384961
-0.96799131
-0.00056066378
-1.0349194
-0.0003802918
-1.1065128
-0.00025360192
-1.1830922
-0.00015729693
-1.2650052
-7.6480215e-05
-1.3526429
-0.005461472
-0.29076849
-0.0092193499
-0.31022914
-0.0048102161
-0.33214591
0.0011693951
-0.35694104
0.00090900617
-0.38287107
-0.0037657866
-0.40885213
-0.0071122387
-0.43562486
-0.0067287369
-0.46477827
-0.0045283901
-0.49686192
-0.0031301323
-0.53148106
-0.0029046257
-0.5682446
-0.0029937377
-0.60727706
-0.0029615489
-0.64885307
-0.0026638362
-0.69333842
-0.0022127144
-0.74101783
-0.0017444
-0.79209945
-0.0013192024
-0.84677999
-0.00095463225
-0.90528918
-0.00066972767
-0.96788225
-0.00046545797
-1.0348343
-0.00032471292
-1.1064416
-0.00022348405
-1.183026
-0.00014317515
-1.2649385
-7.0883147e-05
-1.352572
-0.006262318
-0.2718819
-0.01065371
-0.28933413
-0.0051059111
-0.30993344
0.0027404175
-0.33371693
0.002631729
-0.35866377
-0.0037594718
-0.38287739
-0.0085660274
-0.40739834
-0.0080135659
-0.43434003
-0.0048894142
-0.46441725
-0.0029157686
-0.49707628
-0.0027330904
-0.53165259
-0.0030788222
-0.56815952
-0.003253096
-0.60698551
-0.0030309591
-0.64848594
-0.0025352236
-0.69301591
-0.0019924996
-0.74076973
-0.0015077748
-0.79191087
-0.0011001286
-0.84663449
-0.00078134773
-0.90517756
-0.0005507824
-0.96779693
-0.00039156586
-1.0347674
-0.00028219979
-1.1063829
-0.00020020136
-1.182969
-0.00013195128
-1.2648775
-6.5513653e-05
-1.3525065
-0.0070319976
-0.25392739
-0.012341869
-0.27019374
-0.0053274533
-0.28911259
0.0048998946
-0.31209292
0.0047965509
-0.33588175
-0.0038070216
-0.35861622
-0.010475109
-0.3809683
-0.0096746578
-0.40573725
-0.005293102
-0.43393634
-0.002482607
-0.46485041
-0.0023280161
-0.49748136
-0.0031026499
-0.53162876
-0.0035602365
-0.56785238
-0.0034713111
-0.60654516
-0.0029208239
-0.64810034
-0.0022722721
-0.69273614
-0.0017069174
-0.74057058
-0.001249379
-0.79176162
-0.00089581892
-0.84652002
-0.00063762829
-0.90509071
-0.00045697921
-0.96773151
-0.00033423897
-1.0347154
-0.00024835011
-1.1063348
-0.00018143807
-1.1829195
-0.0001215736
-1.2648214
-5.9763783e-05
-1.3524468
-0.0086120454
-0.23510872
-0.014047726
-0.25222154
-0.0057717008
-0.26974949
0.0074584339
-0.29167113
0.0073694935
-0.31466586
-0.0036898481
-0.33599893
-0.012954749
-0.35613658
-0.011827928
-0.37881503
-0.0057559993
-0.40527435
-0.0017628999
-0.43465605
-0.0016019321
-0.4655765
-0.0030072356
-0.49757677
-0.0039109239
-0.53127808
-0.0040087373
-0.56731495
-0.0034024658
-0.60606351
-0.0025968539
-0.64777576
-0.0019168477
-0.69252621
-0.0013991146
-0.74042085
-0.0010115042
-0.79164594
-0.00072685632
-0.84643079
-0.00052304866
-0.90502464
-0.00038260694
-0.96768315
-0.00028789597
-1.0346758
-0.0002198023
-1.1062964
-0.00016466749
-1.1828764
-0.00011027556
-1.2647709
-5.3379979e-05
-1.3523934
-0.010483417
-0.2165285
-0.016209094
-0.23294736
-0.0063395034
-0.25165373
0.010543348
-0.2728344
0.010415411
-0.29471705
-0.0037568144
-0.3145989
-0.01607283
-0.33288085
-0.014531338
-0.35343317
-0.0063061634
-0.37826487
-0.00068472047
-0.40635253
-0.00044617598
-0.43581181
-0.0027235772
-0.46586015
-0.0043252227
-0.49716247
-0.004681399
-0.53060541
-0.0040099808
-0.56670744
-0.0029857506
-0.60567462
-0.0021377039
-0.6475549
-0.0015425283
-0.6923828
-0.0011234003
-0.74030895
-0.00081765401
-0.79155514
-0.00059177439
-0.84636207
-0.00043034126
-0.90497691
-0.00032113265
-0.96764991
-0.00024769332
-1.0346479
-0.0001938312
-1.1062673
-0.00014730724
-1.1828394
-9.7406142e-05
-1.2647269
-4.6601601e-05
-1.3523468
-0.012347769
-0.19963576
-0.018178398
-0.2145592
-0.0059906246
-0.23329624
0.013888869
-0.25499925
0.014121623
-0.27654062
-0.0039670156
-0.29450684
-0.019890787
-0.31078094
-0.017963561
-0.32944862
-0.0069410907
-0.35279824
0.00085098844
-0.37980058
0.0012554957
-0.40805421
-0.0021748274
-0.43636056
-0.0048169125
-0.46536846
-0.0055616246
-0.49628225
-0.0047816275
-0.52983377
-0.0034604113
-0.56623278
-0.0023669733
-0.60544535
-0.0016681552
-0.64742928
-0.0012217278
-0.69228447
-0.00090627756
-0.74022033
-0.00066420965
-0.79148271
-0.00048080815
-0.8463116
-0.0003518455
-0.9049462
-0.00026683864
-0.96763076
-0.00021041112
-1.0346314
-0.00016834547
-1.1062462
-0.00012812233
-1.1828086
-8.3673404e-05
-1.2646898
-4.0057832e-05
-1.3523067
-0.0142053
-0.18378328
-0.01994961
-0.19786455
-0.0045136702
-0.21603615
0.018392053
-0.23779942
0.018163307
-0.25904094
-0.00417398
-0.27633365
-0.024592773
-0.28980486
-0.022080663
-0.30666384
-0.0076974434
-0.32869227
0.0029570075
-0.35490426
0.003651171
-0.38219626
-0.001275467
-0.40895357
-0.0053971768
-0.43578029
-0.0067338794
-0.46419621
-0.005799379
-0.4952645
-0.0040400483
-0.52925413
-0.0026026889
-0.56599706
-0.0017569141
-0.60535659
-0.0012899408
-0.64736106
-0.00098460659
-0.69220614
-0.00073986013
-0.74014468
-0.00053736428
-0.79142615
-0.00038456068
-0.84627889
-0.00028128947
-0.90493175
-0.00021638663
-0.96762479
-0.00017446386
-1.0346252
-0.00014192251
-1.1062324
-0.00010727707
-1.182785
-7.0625006e-05
-1.2646592
-3.438669e-05
-1.3522723
-0.017934326
-0.19864604
-0.021487191
-0.1822457
-0.0024827427
-0.19989548
0.023776483
-0.22142058
0.022603123
-0.24223923
-0.0033959467
-0.25981897
-0.030237591
-0.27068883
-0.026861264
-0.28502426
-0.008463097
-0.30589818
0.0057719321
-0.3315072
0.0068740292
-0.35812712
7.6809068e-05
-0.38354853
-0.0060799696
-0.40827077
-0.0083010941
-0.43421308
-0.0071622074
-0.46283338
-0.0047653036
-0.49453924
-0.0028376997
-0.52901912
-0.0017822301
-0.56597175
-0.0013025774
-0.60534395
-0.0010384262
-0.64730724
-0.00081569312
-0.69213031
-0.00060355857
-0.74007848
-0.00042488218
-0.79138583
-0.00029627736
-0.8462639
-0.00021524614
-0.90493289
-0.00016751079
-0.96763174
-0.00013792565
-1.0346292
-0.00011353882
-1.1062262
-8.6884052e-05
-1.1827688
-5.9377699e-05
-1.2646343
-3.0026483e-05
-1.3522423
-0.021184218
-0.19517175
-0.024817969
-0.19531526
5.8367978e-05
-0.18478681
0.02923
-0.205349
0.026883149
-0.22570061
-0.0030717913
-0.24256339
-0.036123679
-0.25393288
-0.032602201
-0.2649479
-0.0092227585
-0.2842646
0.0094608703
-0.30958712
0.011093315
-0.33572648
0.0019736254
-0.36002394
-0.0068780118
-0.38275049
-0.010380151
-0.40619172
-0.0089958984
-0.43237939
-0.0056932486
-0.46190544
-0.0030556407
-0.4943213
-0.0017086469
-0.5290927
-0.001226216
-0.56604811
-0.0010463444
-0.60533603
-0.0008860407
-0.6472369
-0.00068349401
-0.69205037
-0.00048047141
-0.74002289
-0.00031883208
-0.79136327
-0.0002119079
-0.84626724
-0.00015016965
-0.90495023
-0.00011754436
-0.96765212
-9.9824781e-05
-1.034643
-8.5323941e-05
-1.1062277
-6.9492659e-05
-1.1827587
-5.0690194e-05
-1.2646136
-2.7222543e-05
-1.3522151
-0.023930024
-0.19141502
-0.027660725
-0.19232899
0.0011765412
-0.19643343
0.034582985
-0.1901398
0.030512456
-0.2089783
-0.005053819
-0.22371858
-0.042856355
-0.23583071
-0.040194403
-0.24634068
-0.010272079
-0.26389858
0.014129141
-0.28893287
0.016415351
-0.31490916
0.0045411324
-0.33829399
-0.0078175222
-0.35908442
-0.013115534
-0.38001511
-0.01144071
-0.4037469
-0.0068955878
-0.43117705
-0.0032416739
-0.4617194
-0.0014838566
-0.49454609
-0.0010061186
-0.5293128
-0.00098357154
-0.56611088
-0.00094336896
-0.60527871
-0.00078170912
-0.64713868
-0.00056118442
-0.69196966
-0.00035870105
-0.73998303
-0.00021352971
-0.79136165
-0.00012665579
-0.84629075
-8.3302604e-05
-0.90498447
-6.6986733e-05
-0.96768496
-6.3021667e-05
-1.0346653
-6.0897335e-05
-1.1062363
-5.5880974e-05
-1.1827535
-4.5054343e-05
-1.2645958
-2.6028687e-05
-1.3521891
-0.026170309
-0.18761799
-0.030009267
-0.18906648
0.0031033277
-0.19425578
0.038549192
-0.20039964
0.033600259
-0.1932276
-0.0081786025
-0.20585352
-0.051030993
-0.21554394
-0.048429894
-0.22759522
-0.012230462
-0.2443823
0.019814024
-0.26958346
0.022954365
-0.29547188
0.0078256711
-0.3181937
-0.0089131366
-0.33719837
-0.016666446
-0.35553351
-0.014673038
-0.37678278
-0.0084537388
-0.40218875
-0.0033777566
-0.43104097
-0.0010390401
-0.46216422
-0.0005748576
-0.49497735
-0.00080018778
-0.52949619
-0.0009699006
-0.56608435
-0.00090056335
-0.60515985
-0.00067885107
-0.64702102
-0.00042863159
-0.69189973
-0.00023025017
-0.73996631
-0.00010361889
-0.79138469
-3.8554601e-05
-0.8463355
-1.6824145e-05
-0.90503463
-1.9457495e-05
-0.96772853
-3.0724751e-05
-1.0346954
-4.1764681e-05
-1.1062504
-4.6752982e-05
-1.1827518
-4.2454745e-05
-1.2645793
-2.6263812e-05
-1.3521628
-0.027868715
-0.1838845
-0.031892775
-0.18573448
0.0056385594
-0.19160171
0.043170241
-0.19887683
0.035902282
-0.20270166
-0.011843843
-0.18956236
-0.059372208
-0.1975123
-0.055293931
-0.2086799
-0.014112834
-0.22571285
0.026614935
-0.25118321
0.030718777
-0.27734787
0.011891572
-0.29953778
-0.010240426
-0.31686641
-0.021224217
-0.3326406
-0.018868158
-0.35133839
-0.010465414
-0.3747711
-0.0034448269
-0.40212168
-0.0002903718
-0.43178963
0.00015423537
-0.46289331
-0.00043117909
-0.49534636
-0.00094879554
-0.52951729
-0.0010336847
-0.56595123
-0.00084756197
-0.60499114
-0.00054576256
-0.64690389
-0.00027546981
-0.69185451
-9.0227274e-05
-0.7399797
1.143298e-05
-0.79143468
4.9091729e-05
-0.84640142
4.5546777e-05
-0.90509964
2.2333323e-05
-0.96778158
-5.4610639e-06
-1.0347317
-2.8831377e-05
-1.1062683
-4.2345463e-05
-1.1827519
-4.2202032e-05
-1.2645634
-2.7804298e-05
-1.352135
-0.029001005
-0.18041962
-0.033274162
-0.18250311
0.0085575677
-0.18865349
0.048178651
-0.19661012
0.038794997
-0.20176954
-0.015621036
-0.19892447
-0.067561131
-0.18137344
-0.061273214
-0.19153302
-0.01434627
-0.20844647
0.034769557
-0.23386747
0.039993174
-0.26045761
0.016739015
-0.28219532
-0.011904177
-0.29787403
-0.027005927
-0.3110847
-0.024239147
-0.32726961
-0.013024916
-0.34877889
-0.003410835
-0.3748051
0.00085960609
-0.40327166
0.0012901287
-0.43292553
0.00020073408
-0.46352523
-0.00083968663
-0.49545547
-0.0012031894
-0.52934779
-0.0010822135
-0.56571658
-0.0007333653
-0.60480354
-0.00036791527
-0.64681144
-9.827364e-05
-0.69184646
6.0575526e-05
-0.74002884
0.00012729435
-0.79151288
0.00013102317
-0.84648689
0.00010049164
-0.9051778
5.59491e-05
-0.96784299
1.1732143e-05
-1.0347723
-2.2397461e-05
-1.1062883
-4.202968e-05
-1.1827521
-4.5204299e-05
-1.264546
-3.0477369e-05
-1.3521045
-0.029569963
-0.17742663
-0.03414688
-0.17954691
0.011669221
-0.18561476
0.053361263
-0.1938361
0.042058529
-0.19987365
-0.019041893
-0.19834868
-0.076215883
-0.19026972
-0.066739
-0.17590765
-0.013472793
-0.1924065
0.044312892
-0.2179898
0.051193105
-0.2450674
0.022844044
-0.26656264
-0.013964604
-0.28013489
-0.034257149
-0.29062281
-0.030941346
-0.3043825
-0.016245885
-0.32404864
-0.0032365759
-0.34895315
0.0025302043
-0.37647569
0.00295719
-0.40493872
0.0011891048
-0.4339139
-0.00059604541
-0.46376887
-0.0014178215
-0.49524084
-0.0014131038
-0.5290169
-0.0010226144
-0.56542733
-0.00053268603
-0.60463877
-0.00014436543
-0.64676535
9.8676223e-05
-0.69188457
0.00021299378
-0.74011454
0.00023505269
-0.79161691
0.00020284988
-0.84658925
0.00014439083
-0.90526624
7.9160259e-05
-0.96791042
2.0967076e-05
-1.0348157
-2.2011824e-05
-1.1063083
-4.6503369e-05
-1.1827508
-5.0460443e-05
-1.264526
-3.3969868e-05
-1.3520706
-0.029628542
-0.17507826
-0.034481377
-0.17709213
0.014735197
-0.18261288
0.058440162
-0.19069366
0.04563629
-0.19741386
-0.022133119
-0.19678242
-0.084522003
-0.19004256
-0.074856619
-0.1821521
-0.011575485
-0.17780496
0.054798641
-0.20289225
0.063322275
-0.23011897
0.030601251
-0.25282461
-0.015903839
-0.2646234
-0.043047359
-0.27134468
-0.039118018
-0.28244614
-0.02016182
-0.30046657
-0.0028687421
-0.32441648
0.0048492026
-0.35127215
0.0052957556
-0.37881426
0.0026508293
-0.40640045
-0.00015978189
-0.43435016
-0.0016732107
-0.46351348
-0.0018910164
-0.49476293
-0.001445504
-0.52859401
-0.00080685364
-0.56515316
-0.00024921072
-0.60453392
0.00011449163
-0.64678116
0.00030112713
-0.6919727
0.00035595148
-0.74023544
0.00032978071
-0.79174384
0.00026071731
-0.84670558
0.0001752942
-0.90536237
9.1878069e-05
-0.96798133
2.2161695e-05
-1.0348598
-2.7266162e-05
-1.1063275
-5.4316522e-05
-1.1827469
-5.7362386e-05
-1.2645026
-3.7967206e-05
-1.3520326
-0.029158134
-0.17349844
-0.034316612
-0.17524302
0.017629437
-0.17998637
0.063138986
-0.18731171
0.049256801
-0.19431417
-0.024771815
-0.19477516
-0.092289808
-0.18901462
-0.082696917
-0.18220227
-0.014534873
-0.17919271
0.06593664
-0.18894296
0.075598551
-0.21516852
0.038607339
-0.23812506
-0.017343689
-0.25138476
-0.05323975
-0.25443101
-0.048848164
-0.26161453
-0.024780812
-0.27782714
-0.0022127499
-0.30112256
0.0079699844
-0.32753726
0.0084582323
-0.35443462
0.0047138461
-0.38087728
0.00053726831
-0.4070975
-0.001965056
-0.43405832
-0.0025655254
-0.46283897
-0.0020683694
-0.49414006
-0.0012232187
-0.52817764
-0.00044418105
-0.56495819
9.3784384e-05
-0.60451322
0.00038635881
-0.64686639
0.0004924605
-0.69210921
0.00048156547
-0.74038722
0.00040627368
-0.7918894
0.00030205653
-0.84683234
0.00019288148
-0.90546337
9.4390943e-05
-0.96805356
1.6238305e-05
-1.0349033
-3.7448641e-05
-1.1063444
-6.4704675e-05
-1.1827396
-6.5344856e-05
-1.2644752
-4.2173309e-05
-1.3519904
-0.17283588
-0.028282868
-0.03373253
-0.17408252
0.020260263
-0.17787385
0.067226762
-0.18407415
0.052749103
-0.19080401
-0.027008256
-0.19207773
-0.099435249
-0.18762972
-0.090062128
-0.18164941
-0.017111549
-0.17962559
0.073160863
-0.18641693
0.087402726
-0.20074713
0.046160096
-0.22272128
-0.017884086
-0.23758467
-0.065056642
-0.23956787
-0.060560127
-0.24271905
-0.030228662
-0.25616668
-0.0011347803
-0.27890511
0.012050822
-0.3052034
0.012605757
-0.33168479
0.0075208312
-0.35724161
0.0015853698
-0.38192538
-0.0022920194
-0.40677053
-0.0034937106
-0.43313013
-0.0029738112
-0.46193353
-0.0018391433
-0.49352414
-0.00076279621
-0.52785902
1.8342699e-05
-0.56488275
0.00046160473
-0.60458846
0.00064405744
-0.64701799
0.0006597821
-0.69228742
0.00058285926
-0.74056381
0.00046140795
-0.79204875
0.00032638495
-0.84696584
0.00019759184
-0.90556658
8.7758344e-05
-0.96812508
3.6535373e-06
-1.0349444
-5.1300617e-05
-1.1063578
-7.6803147e-05
-1.1827281
-7.3751172e-05
-1.2644437
-4.631056e-05
-1.3519441
-0.17365803
-0.032910381
-0.17330337
-0.026969098
0.022238189
-0.17606045
0.070585777
-0.18123286
0.055853438
-0.18717848
-0.02875918
-0.18905308
-0.10573132
-0.18578166
-0.096890025
-0.18080183
-0.019320962
-0.17944
0.080921254
-0.18738598
0.098424859
-0.19743907
0.05250953
-0.20709657
-0.019927694
-0.22067767
-0.078020799
-0.22462051
-0.074710667
-0.22541733
-0.037278211
-0.2356695
0.00049728125
-0.25779874
0.017264945
-0.28411924
0.017883427
-0.31048107
0.011224619
-0.33538857
0.0030819486
-0.35873819
-0.0026419375
-0.38157546
-0.0047452442
-0.405519
-0.0042592399
-0.4318447
-0.0027412093
-0.46103146
-0.0012387709
-0.49304816
-0.00013640832
-0.52770427
0.0005229301
-0.56494407
0.00081246539
-0.60475687
0.00086797911
-0.64722619
0.00079384435
-0.69249841
0.00065601484
-0.74075841
0.00049472273
-0.79221709
0.00033444443
-0.8471027
0.00019071387
-0.90566953
7.3175079e-05
-0.9681946
-1.3452159e-05
-1.0349823
-6.7657013e-05
-1.106367
-8.96978e-05
-1.1827122
-8.2155481e-05
-1.2644078
-5.0239072e-05
-1.3518939
-0.17495701
0.02353717
-0.17450628
-0.031707471
-0.175063
-0.025251585
0.072942697
-0.17841737
0.058385542
-0.18376497
-0.030036091
-0.18590157
-0.11100984
-0.18377457
-0.10288929
-0.1797824
-0.021233582
-0.17888921
0.08909727
-0.18761601
0.11006501
-0.19902614
0.062125198
-0.20705473
-0.024322608
-0.20270165
-0.092021354
-0.20667712
-0.091105045
-0.20822613
-0.046240538
-0.216455
0.0023760497
-0.23754827
0.023799608
-0.26433341
0.024438293
-0.2906741
0.015959818
-0.31521627
0.0051485926
-0.33745522
-0.0030090411
-0.35837108
-0.0064022508
-0.37991845
-0.0060405687
-0.40373767
-0.0040320339
-0.43055388
-0.0019335239
-0.46033671
-0.00038989069
-0.49279468
0.0005601527
-0.5277415
0.001001728
-0.56513333
0.0011137619
-0.60500265
0.0010453101
-0.64747765
0.00089005246
-0.69273245
0.00070084846
-0.74096454
0.00050746861
-0.79239011
0.00032792425
-0.84723991
0.00017385781
-0.90577021
5.2076012e-05
-0.96826013
-3.441735e-05
-1.0350155
-8.5436044e-05
-1.1063712
-0.00010273905
-1.1826916
-9.0234776e-05
-1.2643678
-5.3793784e-05
-1.3518401
-0.17644979
0.074435481
-0.17510917
0.024140056
-0.17652414
-0.030246328
-0.17755672
-0.023154875
0.060396403
-0.18042823
-0.03085118
-0.18294988
-0.11510562
-0.18180579
-0.10787557
-0.17878828
-0.022842211
-0.17817377
0.097381374
-0.18717331
0.12209373
-0.19964472
0.072471572
-0.20937251
-0.022559433
-0.20881791
-0.10615767
-0.18856534
-0.10655106
-0.1912311
-0.055949606
-0.19851706
0.0043510073
-0.21842996
0.031822348
-0.24557101
0.032357519
-0.27225263
0.021877671
-0.29659196
0.0078963008
-0.31796397
-0.0033548156
-0.33710944
-0.0085619361
-0.3562114
-0.0084638443
-0.37749518
-0.0058296345
-0.40194007
-0.0029252588
-0.42956214
-0.00076163606
-0.45996496
0.00056731068
-0.49280184
0.0012216649
-0.52796143
0.001407943
-0.56542751
0.0013467499
-0.60530409
0.0011699725
-0.64775757
0.00094879424
-0.69298039
0.00071946259
-0.74117653
0.00050193268
-0.79256412
0.00030892183
-0.84737497
0.00014883599
-0.90586697
2.6146487e-05
-0.9683207
-5.7498569e-05
-1.0350435
-0.00010364111
-1.1063703
-0.0001153919
-1.1826664
-9.7583447e-05
-1.264324
-5.6895583e-05
-1.3517832
-0.17782802
0.061774633
-0.17548442
0.074810736
-0.17636041
0.023976324
-0.1793549
-0.028448152
-0.18050724
-0.020824724
-0.030885166
-0.18039424
-0.1179093
-0.18014619
-0.11168686
-0.17799451
-0.024022816
-0.17760768
0.10541429
-0.18620668
0.13406198
-0.19914156
0.083148066
-0.21032122
-0.019975164
-0.21195678
-0.11615319
-0.19882239
-0.11958857
-0.17552783
-0.064891239
-0.18228947
0.0063801662
-0.20054622
0.041359686
-0.2279673
0.041807868
-0.25502136
0.02904939
-0.27942435
0.011476651
-0.30017231
-0.0036697493
-0.31764904
-0.011334847
-0.33433653
-0.011695818
-0.35297942
-0.008283674
-0.37504114
-0.0043000912
-0.40056524
-0.001285425
-0.42903835
0.00055346891
-0.45995112
0.0014858937
-0.49306606
0.0017707641
-0.52832425
0.0017140349
-0.5657948
0.0015059113
-0.60564003
0.0012443198
-0.6480531
0.00097370693
-0.69323463
0.00071512143
-0.74138972
0.00048087437
-0.79273607
0.00027973776
-0.84750587
0.00011762719
-0.90595846
-2.687013e-06
-0.96837551
-8.1441219e-05
-1.0350657
-0.00012151312
-1.1063642
-0.00012712056
-1.1826369
-0.00010414406
-1.2642768
-5.9534656e-05
-1.3517236
-0.17849259
-0.030220597
-0.17607895
0.062369164
-0.17596889
0.07441921
-0.17853246
0.02315389
-0.18256211
-0.026393285
-0.18409233
-0.018339871
-0.11932466
-0.17897888
-0.1142123
-0.17762076
-0.024813399
-0.17720393
0.11291555
-0.18510894
0.14546083
-0.19760554
0.094102327
-0.21009582
-0.017571052
-0.21272533
-0.12585774
-0.20225223
-0.13461869
-0.18379227
-0.072689009
-0.16773006
0.0084561414
-0.18436544
0.052214348
-0.21140088
0.052820231
-0.23897966
0.037591622
-0.26356359
0.015995938
-0.28394364
-0.003871618
-0.29997044
-0.014847875
-0.31413601
-0.015951851
-0.3300805
-0.011552902
-0.3497102
-0.0061584701
-0.37318276
-0.0020003966
-0.39985027
0.00053048824
-0.42901537
0.0018147569
-0.46027998
0.0022306401
-0.49352594
0.0021702452
-0.52878046
0.0019136618
-0.56620255
0.0015960753
-0.60599178
0.0012744869
-0.64835388
0.00096974296
-0.69348926
0.00069161969
-0.74160047
0.00044723539
-0.79290357
0.00024276844
-0.84763101
8.2295582e-05
-0.90604344
-3.304955e-05
-0.9684239
-0.00010524884
-1.0350819
-0.00013841388
-1.1063529
-0.00013773967
-1.1826033
-0.00010978459
-1.2642265
-6.1667788e-05
-1.351662
-0.17860243
-0.11921482
-0.177572
-0.028727543
-0.17589657
0.062296851
-0.1770703
0.072957049
-0.18125086
0.021842638
-0.18628824
-0.024197381
-0.18801292
-0.015855214
-0.11559965
-0.17759153
-0.025337626
-0.17709653
0.1195762
-0.18386458
0.15571729
-0.19536539
0.10477226
-0.20827547
-0.014740519
-0.21292636
-0.13517834
-0.20340473
-0.1495704
-0.18730053
-0.089070403
-0.16741088
0.010398472
-0.16967239
0.063720584
-0.19587168
0.065377116
-0.22395777
0.047454611
-0.24884265
0.021548949
-0.2691166
-0.0039904784
-0.28382478
-0.019240401
-0.29557791
-0.021444694
-0.30864317
-0.015841987
-0.32579141
-0.0086015004
-0.34726717
-0.0029415691
-0.37224159
0.00050927778
-0.39982906
0.0022458469
-0.42944646
0.0028240531
-0.4608734
0.0027483336
-0.49410403
0.0024158811
-0.52928268
0.0020169018
-0.56662338
0.001627537
-0.60634483
0.0012681262
-0.64865226
0.00094234553
-0.69373998
0.00065284168
-0.74180607
0.00040396588
-0.79306477
0.00020039207
-0.84774911
4.4703214e-05
-0.90612119
-6.3638943e-05
-0.96846551
-0.00012816657
-1.0350922
-0.00015396145
-1.1063367
-0.00014705599
-1.182566
-0.00011443359
-1.2641738
-6.3349137e-05
-1.3515986
-0.17871216
-0.11548991
-0.17957975
-0.11720708
-0.17765305
-0.026971066
-0.17634946
0.061576011
-0.17882373
0.070529922
-0.18444495
0.019999352
-0.1901942
-0.022016102
-0.19198871
-0.013550998
-0.025087944
-0.17784122
0.12503098
-0.18255131
0.16441333
-0.19256062
0.11472264
-0.20531577
-0.01192096
-0.21109503
-0.14415811
-0.20394658
-0.16357974
-0.18939538
-0.10519445
-0.17117648
0.00058694206
-0.15759935
0.076037747
-0.18198955
0.07916141
-0.20965597
0.058680758
-0.23518391
0.028048525
-0.25534223
-0.0039769636
-0.26913011
-0.024674418
-0.27839076
-0.028449654
-0.28857295
-0.02132879
-0.30315637
-0.01173672
-0.32265619
-0.0041412215
-0.34606751
0.00051339994
-0.37224571
0.0028259403
-0.40040915
0.0035986427
-0.43022105
0.0034944936
-0.46161956
0.0030447885
-0.49473294
0.0025257937
-0.52979158
0.0020414375
-0.56703728
0.0016128195
-0.60668953
0.0012333919
-0.64894331
0.00089683363
-0.69398397
0.00060250033
-0.74200461
0.0003538841
-0.79321826
0.00015479294
-0.8478592
6.3751321e-06
-0.9061912
-9.3549536e-05
-0.96850013
-0.00014966156
-1.0350965
-0.00016796179
-1.1063158
-0.00015496852
-1.1825255
-0.00011822773
-1.2641189
-6.4595099e-05
-1.351534
-0.17981036
-0.023989753
-0.18143613
-0.11363353
-0.18113204
-0.11372809
-0.17878717
-0.024533354
-0.17741713
0.060169408
-0.18108526
0.067170227
-0.18784336
0.017648509
-0.19399778
-0.020007037
-0.19586432
-0.011615817
0.12925156
-0.18206179
0.17140338
-0.18954136
0.12339568
-0.20123366
-0.0090363616
-0.20820037
-0.15246764
-0.2027855
-0.17692124
-0.19060509
-0.12089174
-0.17369809
-0.010037351
-0.16055219
0.080774894
-0.16233649
0.094060098
-0.19688824
0.071243729
-0.22221894
0.035672055
-0.24280744
-0.0039685018
-0.25535069