/*--------------------------------*- C++ -*----------------------------------*\
| =========                 |                                                 |
| \\      /  F ield         | OpenFOAM: The Open Source CFD Toolbox           |
|  \\    /   O peration     | Version:  5.0                                   |
|   \\  /    A nd           | Web:      www.OpenFOAM.org                      |
|    \\/     M anipulation  |                                                 |
\*---------------------------------------------------------------------------*/
FoamFile
{
    version     2.0;
    format      ascii;
    class       surfaceScalarField;
    location    "220";
    object      phi_0;
}
// * * * * * * * * * * * * * * * * * * * * * * * * * * * * * * * * * * * * * //

dimensions      [0 3 -1 0 0 0 0];

internalField   nonuniform List<scalar> 
18820
(
-0.00039627498
-1.3579281
-0.00076521908
-1.2699265
-0.00037778122
-1.3575503
-0.0011065781
-1.1877193
-0.00073088694
-1.2695734
-0.00036212215
-1.3571882
-0.0014197451
-1.1108991
-0.0010593593
-1.1873908
-0.00070047161
-1.2692351
-0.00035601022
-1.3568322
-0.0017041443
-1.0390992
-0.0013631024
-1.1105954
-0.0010157245
-1.1870756
-0.00068818869
-1.2689029
-0.00035665861
-1.3564755
-0.0019595326
-0.97197252
-0.0016416059
-1.0388207
-0.0013089394
-1.1103022
-0.00099821154
-1.1867656
-0.00068968445
-1.2685699
-0.00035620831
-1.3561193
-0.0021854833
-0.90920347
-0.0018943774
-0.97171974
-0.0015804291
-1.0385492
-0.0012880203
-1.1100124
-0.0010014841
-1.1864538
-0.00069062573
-1.2682354
-0.00034614586
-1.3557732
-0.0023810873
-0.8505016
-0.0021214236
-0.90897642
-0.0018294267
-0.97147075
-0.0015589756
-1.0382783
-0.0012938065
-1.10972
-0.0010062324
-1.1861382
-0.00067365715
-1.2679079
-0.00032675468
-1.3554464
-0.0025449746
-0.79559884
-0.0023234575
-0.85029957
-0.0020555955
-0.90875025
-0.0018110454
-0.97121868
-0.0015682348
-1.0380039
-0.0013043394
-1.1094219
-0.00098582278
-1.185826
-0.00063791705
-1.2675968
-0.00030332632
-1.3551431
-0.0026757519
-0.74424478
-0.0025027534
-0.79541955
-0.002259732
-0.85009543
-0.0020440066
-0.90851729
-0.0018258288
-0.97096108
-0.001586489
-1.0377217
-0.0012839495
-1.1091238
-0.00093709735
-1.1855268
-0.00059291032
-1.2673072
-0.00028227822
-1.3548608
-0.002773995
-0.69621121
-0.0026631561
-0.74408437
-0.002445155
-0.79523412
-0.0022577206
-0.84988172
-0.0020669166
-0.9082762
-0.0018548058
-0.97069276
-0.0015691719
-1.0374365
-0.0012267938
-1.1088341
-0.0008725577
-1.1852472
-0.00055156184
-1.2670379
-0.0002669649
-1.3545939
-0.0028408085
-0.65128312
-0.0028106759
-0.69606369
-0.0026192767
-0.74391025
-0.0024519411
-0.7950399
-0.0022908726
-0.84965776
-0.0021104461
-0.90802056
-0.0018436687
-0.97041827
-0.0015082042
-1.0371551
-0.0011459996
-1.1085607
-0.00081218656
-1.1849865
-0.00052092416
-1.2667839
-0.00025643009
-1.3543374
-0.0028943176
-0.60923403
-0.0029701264
-0.65112367
-0.0027963553
-0.69588661
-0.0026270372
-0.74373516
-0.002495142
-0.79483563
-0.0023529332
-0.84941527
-0.0021092203
-0.90775501
-0.0017826851
-0.97014379
-0.0014154013
-1.0368857
-0.0010681508
-1.1083047
-0.00076713055
-1.1847403
-0.00049982456
-1.2665405
-0.00024687825
-1.3540905
-0.0029373803
-0.56987987
-0.0031582393
-0.60904592
-0.0029861317
-0.6509339
-0.0027817798
-0.69573187
-0.0026727221
-0.74355758
-0.0025787751
-0.79460979
-0.0023674043
-0.84915709
-0.0020519285
-0.90748577
-0.0016810593
-0.96987813
-0.0013223769
-1.0366315
-0.001009706
-1.1080621
-0.00073586861
-1.1845043
-0.00048136579
-1.2663061
-0.00023428594
-1.3538563
-0.0029823086
-0.53305815
-0.0033575679
-0.56968054
-0.0031619389
-0.60887011
-0.0028926822
-0.65082299
-0.0028059845
-0.6955986
-0.0027806222
-0.74335573
-0.0026204586
-0.79435674
-0.0023184365
-0.84889058
-0.0019432848
-0.90722354
-0.0015754312
-0.96962507
-0.0012515324
-1.0363896
-0.00096887456
-1.1078291
-0.0007086684
-1.184277
-0.0004576359
-1.2660827
-0.00021639067
-1.3536399
-0.0030365624
-0.49860867
-0.0035841013
-0.53283162
-0.0033072235
-0.56953526
-0.0029389971
-0.6088238
-0.0028753823
-0.6507536
-0.0029515123
-0.69542771
-0.0028728787
-0.74310331
-0.0025871907
-0.79408798
-0.0022029052
-0.84863096
-0.0018268531
-0.90697212
-0.0014940326
-0.96938257
-0.0012018794
-1.0361566
-0.00093301004
-1.1076048
-0.0006744032
-1.1840602
-0.00042365708
-1.2658754
-0.00019343291
-1.3534464
-0.0031200429
-0.4663769
-0.0038481369
-0.49834463
-0.0034261774
-0.53271266
-0.0029367522
-0.5695375
-0.0028807447
-0.60881843
-0.0030915487
-0.65061356
-0.0031330005
-0.69516759
-0.0028666503
-0.74282385
-0.0024617821
-0.79382911
-0.0020754417
-0.84838237
-0.0017373719
-0.90672878
-0.0014372528
-0.9691472
-0.0011579905
-1.0359316
-0.0008880399
-1.1073911
-0.00062580244
-1.1838581
-0.00037930841
-1.2656896
-0.0001677888
-1.3532786
-0.00321664
-0.43622783
-0.004192079
-0.46603296
-0.0035474237
-0.49822339
-0.0028570927
-0.53279232
-0.0028361254
-0.56958212
-0.0032086515
-0.60870133
-0.0034162258
-0.65033033
-0.0031694382
-0.6948648
-0.0027229259
-0.74256271
-0.0023185469
-0.793586
-0.0019801918
-0.84813955
-0.0016765489
-0.90648948
-0.0013869009
-0.96891829
-0.001102615
-1.0357171
-0.00082524667
-1.1071917
-0.00056165922
-1.1836757
-0.00032905169
-1.2655283
-0.00014276074
-1.3531359
-0.0033966289
-0.40799041
-0.0046371785
-0.43578273
-0.0036754729
-0.46590491
-0.0026882839
-0.4983922
-0.0027106166
-0.53291783
-0.003308233
-0.56948254
-0.0037379087
-0.60837965
-0.0035156755
-0.6499841
-0.0029920306
-0.6945957
-0.002551862
-0.74232939
-0.0022187558
-0.79334744
-0.0019199033
-0.8478962
-0.0016227338
-0.90625365
-0.00132237
-0.96869854
-0.0010256566
-1.0355167
-0.00074285363
-1.1070105
-0.00048712785
-1.1835177
-0.00027952718
-1.2653915
-0.00012111192
-1.3530148
-0.0035689899
-0.38158675
-0.0052398247
-0.40738777
-0.0038414764
-0.43561673
-0.0023811296
-0.46621207
-0.0024494888
-0.49865332
-0.0034082802
-0.53281778
-0.0041106445
-0.5691098
-0.0039251814
-0.60797014
-0.0032748769
-0.64970125
-0.0027693724
-0.69437819
-0.0024466632
-0.74210148
-0.0021653806
-0.79310196
-0.0018676733
-0.84765126
-0.0015513155
-0.90602471
-0.0012318024
-0.96849239
-0.00092524138
-1.0353343
-0.00064529552
-1.1068523
-0.00041214529
-1.183385
-0.00023625184
-1.2652764
-0.00010415607
-1.3529106
-0.0038792269
-0.35677945
-0.0059737388
-0.38085283
-0.0040074964
-0.40722175
-0.0019077663
-0.43609009
-0.0020002478
-0.46666131
-0.0034923857
-0.49856922
-0.0045680867
-0.53236034
-0.004413951
-0.56862103
-0.0035814187
-0.6076636
-0.0029607714
-0.64950985
-0.0026527205
-0.69417213
-0.0024081632
-0.7418587
-0.002123194
-0.79284644
-0.0017934337
-0.84740914
-0.0014478209
-0.90580869
-0.0011127701
-0.96830486
-0.00080554425
-1.035174
-0.00054402902
-1.1067205
-0.00034596976
-1.1832753
-0.00020174411
-1.2651788
-9.1740812e-05
-1.3528189
-0.0041139387
-0.33358858
-0.0069105346
-0.35584265
-0.0042723468
-0.38058798
-0.0012028556
-0.40792666
-0.0013133
-0.43677704
-0.0035648146
-0.46658888
-0.0051638187
-0.49797349
-0.0050078058
-0.53176649
-0.0038979404
-0.56830451
-0.0031125379
-0.60751184
-0.0028195243
-0.64934305
-0.0026381433
-0.69394215
-0.0023895798
-0.74159232
-0.0020534774
-0.7925864
-0.0016782383
-0.84717872
-0.0013089776
-0.90561248
-0.00096984361
-0.96814056
-0.0006777963
-1.0350403
-0.00045308433
-1.1066133
-0.00029301651
-1.183184
-0.00017576769
-1.2650948
-8.2832574e-05
-1.352736
-0.0046095998
-0.31157343
-0.0079291683
-0.33256995
-0.0045486777
-0.35556632
-0.00027462047
-0.38151622
-0.00033661842
-0.40890334
-0.0035995509
-0.4367423
-0.0059629664
-0.46578973
-0.0057687135
-0.49721258
-0.0042306211
-0.53143381
-0.0031902359
-0.56822682
-0.0029112436
-0.60742012
-0.0028377601
-0.64914343
-0.0026651137
-0.69366662
-0.0023375281
-0.74130827
-0.0019290007
-0.79233563
-0.0015176002
-0.8469701
-0.0011404486
-0.90544188
-0.00081444091
-0.96800392
-0.00056064739
-1.0349327
-0.00037966543
-1.1065267
-0.00025283109
-1.183107
-0.00015667576
-1.2650209
-7.6173647e-05
-1.3526599
-0.0052922784
-0.29081334
-0.009247583
-0.31025502
-0.0049981805
-0.33212045
0.0010424066
-0.35688335
0.0010002617
-0.3828531
-0.0036165289
-0.40888636
-0.0070358615
-0.43566941
-0.0067596567
-0.46479879
-0.0045861078
-0.49685709
-0.0031547441
-0.5314693
-0.0028981325
-0.56823993
-0.0029776763
-0.6072802
-0.0029462038
-0.64886234
-0.0026546804
-0.69334947
-0.0022086873
-0.74102858
-0.0017431657
-0.79211007
-0.0013194495
-0.8467911
-0.00095525254
-0.90530106
-0.00066961194
-0.96789495
-0.00046462675
-1.0348477
-0.00032359565
-1.1064559
-0.00022254664
-1.1830411
-0.00014253994
-1.2649546
-7.0662124e-05
-1.3525892
-0.006057196
-0.27193467
-0.01070295
-0.28935797
-0.0053603709
-0.30989283
0.0025689372
-0.33364698
0.0027567601
-0.35863985
-0.0035469819
-0.38292265
-0.0084647237
-0.4074575
-0.0080627966
-0.43436627
-0.0049772186
-0.46440768
-0.0029562892
-0.49705555
-0.002724687
-0.53164275
-0.0030565888
-0.56816101
-0.003230778
-0.60699563
-0.0030185794
-0.64849844
-0.0025309788
-0.69302717
-0.0019918956
-0.74077985
-0.0015084591
-0.79192106
-0.0011008365
-0.84664552
-0.00078107281
-0.9051896
-0.00054965827
-0.96780992
-0.00039008051
-1.0347812
-0.00028085573
-1.1063976
-0.00019924611
-1.1829844
-0.00013143933
-1.2648938
-6.5435696e-05
-1.3525238
-0.0067908975
-0.25398433
-0.012409451
-0.27022817
-0.0056560486
-0.28906229
0.0046837332
-0.31200763
0.0049581499
-0.33584837
-0.0035089791
-0.35867785
-0.010341545
-0.38104582
-0.0097498401
-0.40577046
-0.0054225293
-0.43392096
-0.0025461836
-0.46481778
-0.0023168085
-0.49746343
-0.0030697133
-0.53162962
-0.0035275073
-0.56786429
-0.003453614
-0.60656059
-0.0029164666
-0.64811296
-0.0022731448
-0.69274592
-0.0017086385
-0.74057967
-0.0012503359
-0.79177156
-0.00089533645
-0.84653125
-0.00063609867
-0.90510316
-0.0004550499
-0.96774495
-0.00033242157
-1.0347297
-0.000247023
-1.1063498
-0.00018062903
-1.1829352
-0.00012133948
-1.2648379
-5.987001e-05
-1.3524639
-0.0083372064
-0.23518803
-0.014135591
-0.25225819
-0.0061958373
-0.26968838
0.0071918306
-0.29157039
0.0075786644
-0.31462814
-0.003281615
-0.33607573
-0.012783688
-0.35623571
-0.011938035
-0.37885763
-0.0059411379
-0.40525185
-0.0018592246
-0.43460792
-0.0015873736
-0.46554722
-0.0029565865
-0.49757655
-0.0038638149
-0.53129331
-0.0039831052
-0.56733479
-0.0033982588
-0.6060788
-0.0026006036
-0.6477855
-0.0019205898
-0.69253397
-0.0014006699
-0.74042934
-0.0010107918
-0.7916561
-0.0007247792
-0.84644257
-0.00052054474
-0.90503767
-0.00038025931
-0.96769712
-0.00028610144
-1.0346906
-0.00021870745
-1.1063118
-0.00016422703
-1.1828923
-0.0001104279
-1.2647873
-5.3678378e-05
-1.3524102
-0.010196819
-0.21660439
-0.016345606
-0.23297802
-0.0068673811
-0.25158664
0.010218486
-0.27271504
0.01068321
-0.29467493
-0.0032113892
-0.31469837
-0.015852946
-0.33300647
-0.014687817
-0.35348592
-0.0065651178
-0.37823365
-0.00082608772
-0.40628498
-0.00042784725
-0.43576745
-0.0026460595
-0.46585775
-0.0042570097
-0.49718336
-0.0046449022
-0.53063152
-0.0040063036
-0.56672675
-0.002994641
-0.60568476
-0.0021450896
-0.647561
-0.0015453436
-0.6923893
-0.001122487
-0.74031764
-0.00081484294
-0.79156604
-0.0005885042
-0.84637461
-0.00042734134
-0.90499059
-0.00031880217
-0.96766441
-0.00024623636
-1.0346631
-0.00019319066
-1.1062828
-0.00014739817
-1.1828554
-9.7954147e-05
-1.2647431
-4.705868e-05
-1.3523632
-0.012059222
-0.19970408
-0.01838486
-0.21456513
-0.0066572463
-0.23318815
0.013506849
-0.25487501
0.014451961
-0.27648379
-0.0032542282
-0.29463209
-0.019616478
-0.31093483
-0.018179438
-0.32951485
-0.0072951502
-0.35275589
0.00064860558
-0.37970834
0.0012778499
-0.40799068
-0.0020588967
-0.43635461
-0.0047171128
-0.46539764
-0.0055098984
-0.49631836
-0.0047792234
-0.5298586
-0.0034774624
-0.56624393
-0.0023806576
-0.60544919
-0.0016733671
-0.64743297
-0.0012207393
-0.69229105
-0.0009024617
-0.74023002
-0.00065988605
-0.79149466
-0.00047696176
-0.84632499
-0.00034886446
-0.90496052
-0.0002649055
-0.96764575
-0.00020949808
-1.0346468
-0.00016829949
-1.1062619
-0.00012878835
-1.1828245
-8.4529027e-05
-1.2647056
-4.0617925e-05
-1.3523225
-0.013924102
-0.18384564
-0.020228973
-0.19785997
-0.0053303265
-0.21589205
0.01797836
-0.23765967
0.018542922
-0.25896597
-0.0032557
-0.27648232
-0.024263995
-0.28998458
-0.022373623
-0.30674065
-0.0081741166
-0.32863588
0.0026747985
-0.35478209
0.0036781002
-0.38210859
-0.0011068642
-0.40894272
-0.0052509723
-0.43582075
-0.0066606569
-0.46424688
-0.0057996883
-0.4952979
-0.0040693889
-0.52926667
-0.0026267048
-0.56599788
-0.001766299
-0.60535626
-0.0012891408
-0.64736457
-0.0009793864
-0.69221412
-0.00073403237
-0.74015588
-0.00053236167
-0.79143926
-0.00038075014
-0.84629311
-0.00027874247
-0.90494669
-0.00021506603
-0.96764018
-0.00017423727
-1.0346408
-0.00014257527
-1.1062481
-0.00010844976
-1.1828006
-7.1677196e-05
-1.2646745
-3.4996073e-05
-1.3522876
-0.017665481
-0.19871655
-0.021846695
-0.18222792
-0.0034524027
-0.19973789
0.023360847
-0.22127454
0.023050429
-0.24216717
-0.0022610263
-0.25996064
-0.029848432
-0.27089788
-0.027246384
-0.28511182
-0.0090935404
-0.30582123
0.0053883365
-0.33134942
0.0069063482
-0.35801033
0.00031555471
-0.38353101
-0.0058676915
-0.408326
-0.0081974507
-0.43428396
-0.0071673528
-0.46287922
-0.0048135756
-0.49455371
-0.0028774406
-0.52901593
-0.0017984254
-0.56596575
-0.0013023601
-0.60534304
-0.0010311518
-0.64731281
-0.00080760298
-0.69214055
-0.00059685536
-0.74009138
-0.00041993246
-0.79140008
-0.00029295019
-0.8462789
-0.00021341218
-0.90494834
-0.00016703061
-0.96764738
-0.0001385325
-1.0346449
-0.00011488507
-1.1062417
-8.837383e-05
-1.1827839
-6.0532529e-05
-1.264649
-3.0640153e-05
-1.3522569
-0.020931588
-0.1952439
-0.025262414
-0.19530084
-0.0010496475
-0.18463067
0.028840183
-0.20521723
0.027450772
-0.22567488
-0.0016861619
-0.24274204
-0.035620625
-0.25418845
-0.033087411
-0.26505685
-0.010041778
-0.28416358
0.0089559243
-0.30938881
0.011131856
-0.33557493
0.0023040365
-0.35999882
-0.0065741092
-0.3828246
-0.010234324
-0.40628912
-0.0090087381
-0.43244257
-0.0057699862
-0.46192281
-0.0031187439
-0.49431241
-0.0017357291
-0.52907863
-0.0012266991
-0.56604142
-0.0010358457
-0.60533835
-0.00087434547
-0.64724607
-0.00067412579
-0.69206328
-0.00047387365
-0.74003744
-0.00031450874
-0.79137852
-0.00020946601
-0.84628285
-0.00014936744
-0.904966
-0.00011805249
-0.96766786
-0.00010124315
-1.0346585
-8.7153873e-05
-1.1062429
-7.114873e-05
-1.1827733
-5.1860759e-05
-1.2646278
-2.7805987e-05
-1.3522291
-0.023696203
-0.19148585
-0.028191242
-0.19231507
-8.3500922e-05
-0.19626698
0.034232647
-0.19002314
0.031226625
-0.20899308
-0.0033804036
-0.22398064
-0.042229425
-0.23613324
-0.040769878
-0.24650598
-0.011322837
-0.26377579
0.013480447
-0.2886881
0.016462956
-0.31471991
0.0049878977
-0.33825879
-0.0073904068
-0.35918252
-0.012911992
-0.38014693
-0.011464969
-0.40383289
-0.0070139408
-0.43119862
-0.0033390274
-0.46170252
-0.0015272101
-0.49452093
-0.0010082821
-0.52929705
-0.00096826118
-0.566109
-0.00092594676
-0.60528675
-0.00076825983
-0.64715193
-0.00055220876
-0.69198495
-0.00035309992
-0.73999885
-0.00021038987
-0.79137759
-0.00012548852
-0.84630673
-8.3665792e-05
-0.90500039
-6.8402645e-05
-0.9677007
-6.5049768e-05
-1.0346806
-6.2972455e-05
-1.1062511
-5.7585303e-05
-1.1827676
-4.6178286e-05
-1.2646094
-2.6561003e-05
-1.3522025
-0.025956188
-0.18768584
-0.030626486
-0.1890506
0.0016801141
-0.19407869
0.038231712
-0.20026605
0.034458878
-0.19325539
-0.0062366508
-0.20613683
-0.050369871
-0.2158402
-0.049126263
-0.22777685
-0.013584241
-0.24424458
0.01899595
-0.2692913
0.023017287
-0.29524243
0.0084174128
-0.31814943
-0.0083229204
-0.33732628
-0.016386567
-0.35570794
-0.014713503
-0.37689839
-0.0086308039
-0.40221603
-0.0035243325
-0.43101331
-0.0011058388
-0.4621239
-0.00058008154
-0.49494913
-0.00077744026
-0.52948787
-0.00094471162
-0.56609024
-0.00088132701
-0.60517368
-0.00066646498
-0.64703768
-0.00042138677
-0.69191666
-0.00022635173
-0.73998289
-0.00010209364
-0.79140099
-3.8751499e-05
-0.84635164
-1.8204041e-05
-0.90505059
-2.1562292e-05
-0.96774419
-3.3091551e-05
-1.0347105
-4.3924218e-05
-1.1062647
-4.8401498e-05
-1.1827653
-4.3509815e-05
-1.2645924
-2.6743195e-05
-1.3521758
-0.027674199
-0.18394584
-0.032592654
-0.18571967
0.0040528393
-0.19142333
0.04289181
-0.19873879
0.036881674
-0.20268884
-0.0096410419
-0.189851
-0.058733215
-0.19777349
-0.056156798
-0.20880966
-0.015815194
-0.2255459
0.025592802
-0.25084143
0.030804977
-0.27707899
0.012661717
-0.29948674
-0.0094391171
-0.31703323
-0.020845236
-0.33286761
-0.018931349
-0.3514901
-0.01072359
-0.37480561
-0.0036602382
-0.40208012
-0.00039009463
-0.43172905
0.00014422149
-0.4628482
-0.00039818178
-0.49532839
-0.00091121544
-0.52952137
-0.0010059243
-0.56596564
-0.00083009872
-0.60501005
-0.00053631073
-0.64692275
-0.00027078853
-0.69187222
-8.8457135e-05
-0.73999653
1.133207e-05
-0.79145107
4.772949e-05
-0.84641757
4.3347975e-05
-0.9051155
1.9727384e-05
-0.96779701
-7.9194815e-06
-1.0347465
-3.0948761e-05
-1.1062822
-4.3880343e-05
-1.182765
-4.318219e-05
-1.264576
-2.8227217e-05
-1.3521476
-0.028824299
-0.18047178
-0.034049206
-0.18248929
0.0068133389
-0.18848017
0.047941527
-0.19647304
0.039901004
-0.20175812
-0.013139476
-0.19919041
-0.066967048
-0.18161717
-0.062305236
-0.19162505
-0.016397126
-0.20822773
0.033506469
-0.23345957
0.040095546
-0.260132
0.017720588
-0.28213786
-0.010834488
-0.29809137
-0.026503935
-0.31137453
-0.024333419
-0.32746554
-0.013391692
-0.348822
-0.0037203651
-0.37474548
0.00071476506
-0.40318498
0.0012734029
-0.43285824
0.00024809245
-0.46349447
-0.00078306354
-0.49545654
-0.0011627709
-0.52936452
-0.0010567813
-0.56573896
-0.00072075808
-0.6048256
-0.00036245846
-0.64683108
-9.6516574e-05
-0.69186417
6.0328044e-05
-0.74004552
0.00012585558
-0.7915292
0.00012878048
-0.84650301
9.7781732e-05
-0.90519355
5.3191274e-05
-0.96785812
9.2144602e-06
-1.0347867
-2.4380523e-05
-1.1063017
-4.3440789e-05
-1.1827647
-4.6046317e-05
-1.2645582
-3.0846579e-05
-1.3521167
-0.02940888
-0.1774672
-0.03498564
-0.17953535
0.0097775266
-0.18545347
0.053162495
-0.19370114
0.043292474
-0.19986451
-0.016277241
-0.19862035
-0.075613419
-0.19054404
-0.067954678
-0.17596772
-0.015877035
-0.19214514
0.042808968
-0.21753023
0.05130244
-0.24466646
0.024056005
-0.26646742
-0.012569435
-0.28040291
-0.033610028
-0.29098527
-0.031080724
-0.30462723
-0.016755278
-0.32410195
-0.003671621
-0.34887074
0.0023255591
-0.37635627
0.0029311037
-0.40484268
0.0012561401
-0.43386628
-0.00051224567
-0.46376529
-0.0013574878
-0.49526182
-0.0013765425
-0.52904476
-0.0010051807
-0.56545453
-0.00052653349
-0.60466153
-0.00014314814
-0.64678445
9.7795778e-05
-0.69190163
0.00021119306
-0.74013086
0.00023266106
-0.79163308
0.00020004935
-0.84660527
0.00014146651
-0.90528183
7.6392089e-05
-0.9679253
1.8579944e-05
-1.0348296
-2.3821671e-05
-1.1063213
-4.7740691e-05
-1.182763
-5.1197801e-05
-1.2645378
-3.4297587e-05
-1.3520824
-0.02948081
-0.17510744
-0.035371451
-0.17708139
0.012712998
-0.18247082
0.058275981
-0.19056696
0.046995412
-0.19740408
-0.019087046
-0.19705471
-0.083911232
-0.19032254
-0.076173946
-0.18232477
-0.014334006
-0.17751075
0.053068021
-0.2024042
0.063497615
-0.2297254
0.032068531
-0.25267899
-0.014116649
-0.26492021
-0.04223874
-0.2717742
-0.03932285
-0.28274315
-0.020853696
-0.30052881
-0.0034682282
-0.32430535
0.0045674619
-0.35111264
0.0052573628
-0.37868253
0.0027435793
-0.40633012
-3.8523352e-05
-0.43434001
-0.0015827257
-0.46354006
-0.0018384541
-0.49479991
-0.0014214442
-0.5286285
-0.00080005214
-0.56518102
-0.00024946046
-0.60455521
0.00011208191
-0.64679874
0.00029838166
-0.69198882
0.00035316836
-0.74025137
0.00032685336
-0.79175989
0.0002576971
-0.84672151
0.00017236294
-0.9053778
8.9225528e-05
-0.96799595
1.9961418e-05
-1.0348734
-2.8889865e-05
-1.1063402
-5.5416216e-05
-1.1827588
-5.8017685e-05
-1.2645141
-3.8269502e-05
-1.3520442
-0.029018797
-0.17351525
-0.03524695
-0.17523194
0.015500202
-0.1798686
0.063004839
-0.18719968
0.050735585
-0.19430713
-0.021450594
-0.19504053
-0.09167766
-0.18928828
-0.08411497
-0.18238151
-0.017646818
-0.17901196
0.06400662
-0.18844935
0.075894088
-0.21480067
0.040304776
-0.23796165
-0.015085415
-0.25171022
-0.052228521
-0.25493043
-0.049131493
-0.26196555
-0.0257016
-0.27789525
-0.0030215723
-0.30097547
0.0075917667
-0.32732965
0.0084041926
-0.35425947
0.0048399747
-0.38077893
0.0007109906
-0.40707964
-0.0018306842
-0.43409205
-0.0024892071
-0.4628893
-0.002035585
-0.49418577
-0.0012157724
-0.52821278
-0.00044749165
-0.56498299
8.8441577e-05
-0.60453157
0.00038165905
-0.64688202
0.00048877485
-0.69212443
0.00047837313
-0.74040289
0.00040321906
-0.79190541
0.00029907579
-0.84684822
0.00019007349
-0.90547865
9.1924675e-05
-0.96806791
1.4243398e-05
-1.0349165
-3.8901224e-05
-1.1063567
-6.5690831e-05
-1.1827511
-6.595095e-05
-1.2644864
-4.2468788e-05
-1.3520017
-0.17284053
-0.028144361
-0.034685718
-0.17407648
0.01804788
-0.17777962
0.067122296
-0.18398605
0.054334185
-0.19079828
-0.023430443
-0.19232728
-0.09882458
-0.18789361
-0.091573856
-0.18182939
-0.020585495
-0.17944284
0.070932191
-0.18593753
0.087859297
-0.20041456
0.048108142
-0.22260403
-0.01509305
-0.23795401
-0.063763088
-0.24017565
-0.060909726
-0.24315219
-0.031428009
-0.25623914
-0.0022028853
-0.27871393
0.011556115
-0.30493982
0.012532879
-0.33145834
0.0076889835
-0.35710848
0.0018280514
-0.38189599
-0.0020966927
-0.40681363
-0.0033824598
-0.4331988
-0.0029288527
-0.46199604
-0.0018320269
-0.49356952
-0.00077087931
-0.52788939
7.777597e-06
-0.56490232
0.00045330946
-0.60460322
0.00063859342
-0.64703183
0.00065600494
-0.69230206
0.00057976957
-0.74057944
0.00045851424
-0.79206485
0.00032357635
-0.84698172
0.00019497973
-0.9055817
8.5500223e-05
-0.96813917
1.9242767e-06
-1.0349574
-5.2623846e-05
-1.1063697
-7.7720153e-05
-1.1827394
-7.4341522e-05
-1.2644546
-4.6613807e-05
-1.3519551
-0.17365702
-0.033869226
-0.17329779
-0.026826341
0.019971838
-0.17600044
0.070513333
-0.18117066
0.057524252
-0.18717612
-0.024951351
-0.18927737
-0.10512892
-0.18602295
-0.09848714
-0.18098032
-0.023157441
-0.17925745
0.078396266
-0.18690691
0.098894414
-0.19697265
0.054807294
-0.20711372
-0.016549146
-0.22114794
-0.076346243
-0.22537086
-0.075123143
-0.22596224
-0.038808411
-0.23577179
-0.00088911563
-0.25755291
0.016633851
-0.28379167
0.017789284
-0.31019622
0.011443676
-0.33521303
0.0034140269
-0.35869446
-0.0023627589
-0.38162992
-0.0045840617
-0.40561203
-0.0041969563
-0.43193069
-0.0027359336
-0.46109213
-0.0012548
-0.49308559
-0.00015578029
-0.52772583
0.00050846543
-0.56495748
0.00080371539
-0.60476835
0.00086298988
-0.64723882
0.00079062482
-0.69251292
0.00065335302
-0.74077428
0.00049211796
-0.79223339
0.00033186544
-0.84711861
0.00018831104
-0.90568452
7.1114957e-05
-0.96820836
-1.5100489e-05
-1.0349949
-6.8896773e-05
-1.1063786
-9.059092e-05
-1.1827231
-8.2754203e-05
-1.2644184
-5.0561889e-05
-1.3519045
-0.17493445
0.02124926
-0.1745093
-0.03265771
-0.17504622
-0.025097364
0.072893001
-0.17838011
0.060121636
-0.18376804
-0.026036909
-0.18609056
-0.11042083
-0.18398546
-0.10455816
-0.17995192
-0.02542398
-0.17871378
0.08628039
-0.18714157
0.11052981
-0.19854231
0.064651841
-0.20681719
-0.020432596
-0.20323027
-0.090016722
-0.20747746
-0.091646267
-0.20884773
-0.048170531
-0.21660012
0.00058504678
-0.23724595
0.02301635
-0.26393541
0.024321344
-0.29032373
0.016239249
-0.31499179
0.0055931056
-0.33739211
-0.0026174911
-0.35843973
-0.0061708078
-0.38004318
-0.0059539516
-0.40385503
-0.0040305468
-0.43063608
-0.0019629509
-0.46038398
-0.00042225648
-0.49281912
0.00053559516
-0.52775296
0.00098747449
-0.56514124
0.0011065632
-0.60501192
0.0010417454
-0.64748994
0.00088778375
-0.69274735
0.00069872044
-0.74098088
0.00050517386
-0.7924067
0.00032556527
-0.84725586
0.00017163701
-0.90578504
5.0161235e-05
-0.96827362
-3.5981993e-05
-1.0350278
-8.6645908e-05
-1.1063825
-0.00010364481
-1.1827022
-9.0870581e-05
-1.2643781
-5.4146604e-05
-1.3518504
-0.17643912
0.07439768
-0.17512851
0.021868466
-0.17653351
-0.031170423
-0.17752701
-0.022984818
0.062169139
-0.18042761
-0.026709142
-0.18309581
-0.11453393
-0.18197747
-0.1096051
-0.17893853
-0.027363544
-0.17801236
0.094277538
-0.18671093
0.12255524
-0.19916701
0.075218695
-0.20910917
-0.018179839
-0.20906995
-0.10399039
-0.18925659
-0.10731486
-0.19180887
-0.058347267
-0.198671
0.002055627
-0.2180707
0.030862974
-0.24509258
0.032219238
-0.27183331
0.022225851
-0.29631033
0.0084792443
-0.31787793
-0.0028150172
-0.33719458
-0.0082340999
-0.35637643
-0.008343153
-0.37765398
-0.0058346127
-0.40205097
-0.0029756977
-0.42962333
-0.00081386298
-0.45999237
0.00052727978
-0.4928108
0.0011983645
-0.52796385
0.0013968831
-0.56543156
0.0013424472
-0.60531262
0.0011682799
-0.64777043
0.00094751231
-0.69299614
0.00071781788
-0.74119352
0.00049989524
-0.79258103
0.00030673069
-0.84739096
0.00014673994
-0.90588162
2.429871e-05
-0.9683339
-5.9039946e-05
-1.0350554
-0.00010487213
-1.1063813
-0.00011634926
-1.1826767
-9.8274704e-05
-1.264334
-5.7282018e-05
-1.3517931
-0.17782931
0.063559329
-0.17550234
0.074771511
-0.17641748
0.021752441
-0.17936717
-0.029330265
-0.18046538
-0.020637264
-0.026652702
-0.18048405
-0.1173595
-0.18027024
-0.11346038
-0.17812218
-0.028838985
-0.17746309
0.10203853
-0.18577335
0.13451634
-0.19867203
0.086126807
-0.21007512
-0.015081609
-0.2122074
-0.1135976
-0.19946274
-0.12054012
-0.17603133
-0.067697417
-0.18245872
0.0035449102
-0.20016028
0.040198724
-0.22740645
0.041653547
-0.25452689
0.029474053
-0.27908151
0.012224978
-0.30005607
-0.0029388904
-0.31775406
-0.010875665
-0.33455302
-0.011528678
-0.35319091
-0.0082990547
-0.37518953
-0.0043816689
-0.400645
-0.0013677024
-0.42906949
0.00049121271
-0.4599563
0.0014483347
-0.49306077
0.0017536488
-0.52832061
0.0017083259
-0.56579743
0.0015049783
-0.60564932
0.0012443944
-0.64806732
0.00097324107
-0.69325156
0.00071382711
-0.74140746
0.0004789961
-0.79275329
0.00027763293
-0.84752185
0.00011557505
-0.90597289
-4.5298757e-06
-0.96838841
-8.30196e-05
-1.0350773
-0.00012281022
-1.1063748
-0.00012815616
-1.1826469
-0.00010489843
-1.2642864
-5.9957438e-05
-1.3517331
-0.1785219
-0.025960117
-0.17607592
0.064132916
-0.1760018
0.074355826
-0.17862598
0.021011254
-0.18257337
-0.027222282
-0.18403885
-0.018132897
-0.11878099
-0.17906256
-0.11601162
-0.17771899
-0.029880951
-0.17708022
0.1092983
-0.18472285
0.14590649
-0.1971635
0.097296675
-0.2098419
-0.012177207
-0.21297952
-0.12288256
-0.20292244
-0.1354496
-0.18455326
-0.075838817
-0.16788993
0.0050346962
-0.1839485
0.050800312
-0.21076187
0.052658422
-0.23841132
0.038100305
-0.26315314
0.016939835
-0.28379637
-0.0028983688
-0.30009659
-0.014214183
-0.31441554
-0.015722484
-0.33035921
-0.011584474
-0.34990549
-0.0062850478
-0.37328615
-0.0021263824
-0.39988631
0.00043630868
-0.42901459
0.0017564252
-0.46026439
0.0022043106
-0.49351143
0.0021621506
-0.52877444
0.0019137285
-0.56620618
0.00159822
-0.60600314
0.0012759628
-0.64837004
0.00096981926
-0.69350755
0.00069049179
-0.74161895
0.0004453912
-0.79292105
0.00024064991
-0.84764692
8.0198582e-05
-0.90605762
-3.4966263e-05
-0.96843646
-0.00010691341
-1.0350932
-0.00013981111
-1.1063632
-0.00013886757
-1.1826129
-0.00011061209
-1.2642357
-6.2126136e-05
-1.351671
-0.17863589
-0.118667
-0.17753304
-0.024503
-0.17590301
0.064034132
-0.17713206
0.072861909
-0.18137045
0.019808334
-0.18630072
-0.024960409
-0.1879503
-0.015627647
-0.11742029
-0.17765389
-0.03058999
-0.17700996
0.11575053
-0.18353245
0.15615346
-0.19496982
0.10816721
-0.20803404
-0.0088357596
-0.21318335
-0.13181979
-0.2040423
-0.15029888
-0.18807316
-0.092316373
-0.1680757
0.0063937359
-0.16924897
0.062028958
-0.19517715
0.065212677
-0.22331613
0.048060045
-0.24837106
0.022720476
-0.26893378
-0.0027192563
-0.28397548
-0.018375445
-0.29593532
-0.021135449
-0.30900258
-0.015899144
-0.32604454
-0.0087914208
-0.34739912
-0.0031292837
-0.37228325
0.00037002506
-0.39982003
0.0021588801
-0.42941704
0.0027838756
-0.46084396
0.002736434
-0.49408572
0.002417162
-0.52927787
0.0020220785
-0.56663004
0.0016320428
-0.60635922
0.0012704849
-0.6486707
0.00094262983
-0.69375969
0.00065167676
-0.74182524
0.00040201952
-0.79308242
0.00019815565
-0.84776488
4.2482628e-05
-0.90613507
-6.5677968e-05
-0.9684777
-0.00012995374
-1.035103
-0.00015547592
-1.1063466
-0.00014828885
-1.1825752
-0.00011533005
-1.2641825
-6.3839359e-05
-1.3516072
-0.17872484
-0.11733134
-0.17955476
-0.11664528
-0.177566
-0.022840015
-0.17635501
0.063257083
-0.17891221
0.070403674
-0.18458688
0.018094495
-0.19020818
-0.022702538
-0.19191974
-0.013303483
-0.030465144
-0.17777874
0.12103158
-0.18229101
0.16484964
-0.19222863
0.11828608
-0.20508869
-0.0055254782
-0.21134432
-0.14042701
-0.20457612
-0.16419075
-0.19015043
-0.10852511
-0.17186442
-0.0040565169
-0.15762545
0.074021795
-0.18124181
0.078983436
-0.20894791
0.05939004
-0.23464612
0.029479419
-0.25513
-0.0023334218
-0.26931961
-0.023506084
-0.27884484
-0.02803968
-0.28903109
-0.02142462
-0.3034771
-0.012014843
-0.32282112
-0.0044130781
-0.34611532
0.00031225363
-0.37222548
0.002700281
-0.40036143
0.0035387956
-0.43017196
0.0034768524
-0.46158438
0.0030475346
-0.49471609
0.0025353106
-0.5297911
0.0020504988
-0.5670485
0.0016187767
-0.60670752
0.0012360596
-0.64896413
0.00089698784
-0.694005
0.00060109923
-0.74202432
0.00035170384
-0.79323597
0.00015234739
-0.84787475
3.9743482e-06
-0.90620472
-9.5747067e-05
-0.96851191
-0.0001515923
-1.0351069
-0.00016960779
-1.1063252
-0.00015630342
-1.1825342
-0.00011918823
-1.2641272
-6.5113076e-05
-1.3515421
-0.17977579
-0.02941419
-0.18140792
-0.11547818
-0.18104544
-0.11316584
-0.17863926
-0.020555766
-0.17742373
0.061768607
-0.18119698
0.06701377
-0.18800364
0.015889955
-0.19401195
-0.020610329
-0.1957923
-0.011349964
0.12514938
-0.18189654
0.17184381
-0.18928518
0.12709362
-0.20103617
-0.0021861841
-0.20842798
-0.14840861
-0.20336273
-0.17743636
-0.19133051
-0.12427596
-0.17439958
-0.015261716
-0.16065922
0.078110094
-0.16171375
0.093860849
-0.19611922
0.072050302
-0.22160817
0.037380791
-0.24254749
-0.0018764467