/*--------------------------------*- C++ -*----------------------------------*\
| =========                 |                                                 |
| \\      /  F ield         | OpenFOAM: The Open Source CFD Toolbox           |
|  \\    /   O peration     | Version:  5.0                                   |
|   \\  /    A nd           | Web:      www.OpenFOAM.org                      |
|    \\/     M anipulation  |                                                 |
\*---------------------------------------------------------------------------*/
FoamFile
{
    version     2.0;
    format      ascii;
    class       volScalarField;
    location    "220";
    object      pMean;
}
// * * * * * * * * * * * * * * * * * * * * * * * * * * * * * * * * * * * * * //

dimensions      [0 2 -2 0 0 0 0];

internalField   nonuniform List<scalar> 
9520
(
5.1972776e-05
5.2331753e-05
0.00014453936
5.284523e-05
0.00014574781
0.00023582534
5.3226752e-05
0.00014762939
0.00023797591
0.00032093352
5.3259533e-05
0.00014956002
0.00024148764
0.00032448446
0.00040172256
5.270062e-05
0.00015096177
0.00024532779
0.00033035806
0.00040697948
0.00047584173
5.1388297e-05
0.0001512266
0.00024852794
0.00033714195
0.00041586983
0.00048319509
0.00054361765
4.9108119e-05
0.00014987749
0.00025011384
0.00034347634
0.0004265624
0.00049586375
0.0005534202
0.00060356806
4.5799256e-05
0.00014652115
0.00024929886
0.00034801399
0.00043730658
0.00051161762
0.00057055655
0.00061607516
0.00065540423
4.1403639e-05
0.00014099827
0.00024532608
0.00034962595
0.00044638603
0.00052834865
0.00059241341
0.00063823631
0.00067085145
0.00069813085
3.6441581e-05
0.00013282291
0.00023779274
0.00034732862
0.00045233426
0.00054398449
0.00061654763
0.0006671229
0.00069851053
0.00071658177
0.00073142871
2.9883128e-05
0.00012194787
0.00022628021
0.00034043541
0.00045386272
0.00055670339
0.00064056177
0.0007000133
0.00073517026
0.00074993068
0.00075287994
0.0007549181
2.2237867e-05
0.00010732207
0.0002108788
0.00032812496
0.00045000684
0.00056483675
0.00066231177
0.00073422116
0.00077788732
0.00079478648
0.00079198189
0.00077918936
0.00076848128
1.0800352e-05
9.0750749e-05
0.00019066386
0.00031018221
0.0004398628
0.00056703006
0.00067982969
0.00076726857
0.0008237485
0.00084808812
0.00084525029
0.00082377696
0.00079529449
0.00077222081
1.1379969e-06
7.0276508e-05
0.00016648027
0.00028622088
0.00042298363
0.0005620529
0.00069147966
0.00079683986
0.00087005811
0.00090678166
0.00090960053
0.0008852217
0.00084492002
0.00080113867
0.00076639073
-1.3461195e-05
5.0739939e-05
0.00013634089
0.00025759036
0.00039852731
0.00054965609
0.00069584294
0.00082098358
0.00091426001
0.00096798454
0.00098193021
0.00096054867
0.00091405648
0.00085505817
0.00079686408
0.00075154064
-2.2835956e-05
2.4876238e-05
0.00010517277
0.00022219513
0.00036785329
0.0005290013
0.0006919395
0.0008380883
0.00095409515
0.0010289
0.0010592525
0.0010467375
0.00099996965
0.00093097494
0.00085412692
0.00078290408
0.00072827176
-4.0289528e-05
4.1591554e-06
6.7049783e-05
0.00018405139
0.00032914137
0.00050084228
0.00067887346
0.00084695634
0.00098750728
0.001086996
0.0011386024
0.001140816
0.0010998502
0.0010265402
0.00093562931
0.00084232163
0.00075980182
0.00069750516
-4.9903138e-05
-2.686152e-05
3.1770539e-05
0.00013740105
0.0002861887
0.00046318447
0.00065720468
0.00084625867
0.0010129556
0.0011399237
0.0012171711
0.0012397428
0.0012108366
0.0011393067
0.0010395512
0.00092784781
0.0008200322
0.0007283929
0.00066017738
-6.873375e-05
-4.5549122e-05
-1.3126458e-05
9.1964426e-05
0.0002335274
0.00041943767
0.00062475204
0.0008362186
0.0010289545
0.0011857873
0.0012922969
0.0013405171
0.0013298875
0.0012666846
0.0011639537
0.0010383523
0.00090777158
0.00078792983
0.00068953679
0.00061745852
-7.9104158e-05
-8.1438874e-05
-4.9401064e-05
3.6674632e-05
0.00018040157
0.00036463475
0.00058443305
0.00081458832
0.0010354072
0.0012227945
0.0013618113
0.0014401954
0.0014538816
0.00140577
0.0013066591
0.0011725606
0.001022727
0.00087581964
0.00074678563
0.00064436863
0.00057040396
-9.654798e-05
-0.0001018283
-0.00010156581
-1.3233802e-05
0.00011526599
0.00030725239
0.00053182139
0.0007835861
0.001030018
0.0012504308
0.0014235917
0.0015362433
0.0015797027
0.0015534349
0.0014650261
0.0013288718
0.0011644518
0.00099273927
0.00083260601
0.00069764878
0.00059395666
0.00052024315
-0.0001092487
-0.00014031083
-0.00013700762
-7.6365221e-05
5.3971953e-05
0.00023569162
0.00047486401
0.00073909626
0.0010142991
0.0012663755
0.0014765998
0.0016261583
0.0017044498
0.00170639
0.0016360274
0.0015050692
0.0013320815
0.0011392084
0.00094875121
0.00077902778
0.0006415763
0.00053957833
0.00046809506
-0.00011931035
-0.00016590437
-0.00019472321
-0.00012819213
-2.1334815e-05
0.00016617945
0.00040173708
0.00068889696
0.00098433037
0.001271839
0.0015182973
0.001708389
0.0018252395
0.0018613863
0.0018163124
0.0016983658
0.0015239786
0.0013152584
0.001096835
0.00089143121
0.00071609251
0.00057985626
0.0004823789
0.00041517638
-0.00013422473
-0.0002087587
-0.00023150151
-0.00020030765
-8.8109105e-05
7.9997955e-05
0.00032862608
0.00062097029
0.00094772291
0.001262683
0.0015498253
0.0017802545
0.0019399973
0.0020152302
0.0020023802
0.0019054393
0.0017377468
0.0015200201
0.0012779424
0.001037671
0.00082165718
0.00064507137
0.00051369366
0.00042363183
0.00036254728
-0.00014504234
-0.0002375679
-0.0002975599
-0.00025457444
-0.00017567523
-8.7423696e-07
0.00023606302
0.00055112124
0.00089240783
0.0012461235
0.0015666529
0.0018422655
0.0020457906
0.0021652927
0.0021907023
0.0021226267
0.0019702383
0.001751671
0.0014921379
0.001220009
0.00096236676
0.0007406271
0.00056723964
0.00044448004
0.00036448409
0.00031124769
-0.00015457782
-0.00028464496
-0.00034717288
-0.00033963785
-0.00025039318
-0.00010596673
0.00014524106
0.00045908485
0.00083366846
0.0012102683
0.0015754347
0.0018896822
0.0021422653
0.0023082208
0.0023781029
0.0023460906
0.0022177497
0.0020074002
0.0017383462
0.0014396211
0.0011417824
0.00087194796
0.00064964432
0.00048408475
0.00037348371
0.00030608099
0.00026217851
-0.00016644525
-0.0003207448
-0.00041197473
-0.00041279513
-0.00035331288
-0.0002032024
2.6531927e-05
0.0003656626
0.00075073541
0.0011697596
0.0015644115
0.0019284356
0.0022245557
0.0024428138
0.0025608519
0.0025721706
0.0024762094
0.002283605
0.0020142887
0.0016963742
0.0013623251
0.00104397
0.00076765993
0.00055026061
0.00039700394
0.0003020254
0.00024939231
0.00021616758
-0.00017738807
-0.0003492893
-0.00047835726
-0.00050689712
-0.00045441129
-0.00033056774
-9.132763e-05
0.000240619
0.00066440978
0.0011028663
0.0015480418
0.0019464374
0.0022976899
0.0025640677
0.0027368182
0.0027967714
0.0027414753
0.0025760374
0.0023166471
0.0019887295
0.0016249943
0.0012604977
0.0009276522
0.00065105157
0.00044399113
0.0003075162
0.00023121677
0.00019533472
0.00017393527
-0.00018511199
-0.00038839529
-0.00053827314
-0.00061347338
-0.00058593293
-0.00046678048
-0.0002447716
0.00010949359
0.00054375024
0.0010303598
0.0015025295
0.0019585466
0.0023493567
0.002676022
0.0029007599
0.0030168814
0.003009134
0.0028801776
0.0026411554
0.0023138248
0.0019291964
0.0015238552
0.0011349131
0.00079425883
0.00052375765
0.00033255455
0.00021698592
0.00016217494
0.0001447429
0.00013609496
-0.00018984178
-0.00042064333
-0.00060776931
-0.00071691542
-0.00073756916
-0.00064297829
-0.00041399133
-6.5971238e-05
0.00041025213
0.00092042597
0.0014488841
0.001939583
0.0023937312
0.0027662295
0.0030556975
0.0032267963
0.0032753765
0.003191305
0.0029830494
0.0026675881
0.0022727702
0.001834625
0.0013932483
0.00098674975
0.00064549618
0.00038768768
0.0002176717
0.00012689324
9.5936377e-05
9.8353883e-05
0.00010314752
-0.00018977693
-0.00046523193
-0.00067176705
-0.00082815024
-0.00089749398
-0.00085187593
-0.00063734556
-0.00026484423
0.00022450377
0.0007911057
0.0013532359
0.0019091062
0.0024048106
0.0028481301
0.0031891978
0.0034285908
0.003533839
0.0035048765
0.0033371752
0.0030451564
0.0026520382
0.0021915736
0.0017046279
0.0012339208
0.00081763479
0.00048339087
0.00024485368
0.00010120956
3.8548463e-05
3.3466311e-05
5.6787202e-05
7.5474577e-05
-0.00019000282
-0.000504136
-0.00075348412
-0.00093400018
-0.0010636629
-0.0010832137
-0.00091259892
-0.00053706139
8.0267297e-06
0.00060262111
0.0012320772
0.0018311641
0.0024024965
0.0028939683
0.0033135458
0.0036097896
0.0037856447
0.0038137861
0.0036983842
0.0034410157
0.0030622515
0.0025916712
0.0020690098
0.0015393415
0.0010472064
0.00062955253
0.0003101575
9.7430584e-05
-1.5248605e-05
-4.6848654e-05
-2.4425184e-05
2.0518822e-05
5.3329003e-05
-0.00018553012
-0.00055789245
-0.0008330689
-0.0010644376
-0.0012296474
-0.0013232183
-0.0012278668
-0.00087613979
-0.00030587485
0.00036890068
0.0010414511
0.0017198313
0.0023467335
0.0029250426
0.0034001941
0.0037813951
0.0040181786
0.0041180786
0.0040589473
0.0038493908
0.00349773
0.0030304988
0.0024843212
0.0019043673
0.0013395512
0.00083491462
0.00042484981
0.00012823822
-5.2636512e-05
-0.00013017398
-0.00012826569
-7.7045004e-05
-1.0111851e-05
3.6861385e-05
-0.00018003044
-0.00061535107
-0.00092909604
-0.0011950013
-0.0014292799
-0.0015664073
-0.0015615894
-0.0012888666
-0.00070412808
2.2499062e-05
0.00078999034
0.0015273917
0.0022511138
0.0028974683
0.0034709965
0.0039145136
0.0042411746
0.0044048443
0.0044175075
0.0042620536
0.003952014
0.003502409
0.0029467119
0.0023282714
0.0016977833
0.001106709
0.00059932052
0.00020609358
-6.0007017e-05
-0.00020330028
-0.0002421693
-0.0002047616
-0.00012382871
-3.4879509e-05
2.6137757e-05
-0.00017435796
-0.00067236502
-0.0010317396
-0.0013466161
-0.0016306048
-0.0018613582
-0.0018966066
-0.0017309657
-0.0012164184
-0.00042992942
0.00041384609
0.0012556326
0.0020632969
0.0028249436
0.0034779104
0.0040314791
0.0044253283
0.0046825751
0.0047606892
0.0046760545
0.0044163228
0.0040005402
0.0034507223
0.0028080775
0.0021227008
0.0014500191
0.00084288275
0.00034325038
-2.3824147e-05
-0.00025205847
-0.00035272995
-0.00034988876
-0.00027545017
-0.00016444603
-5.3631358e-05
2.1144456e-05
-0.00016579045
-0.00072862176
-0.0011326978
-0.0015138402
-0.0018563679
-0.0021588949
-0.0023131953
-0.0021690629
-0.0017763476
-0.0010477531
-9.6555481e-05
0.00084758271
0.0017791675
0.0026496955
0.0034357812
0.0040802391
0.0045930179
0.004921402
0.0050959651
0.0050777224
0.004886517
0.0045154399
0.0039895281
0.003338768
0.0026126469
0.0018674918
0.0011626857
0.00055079056
6.9758217e-05
-0.00026191858
-0.00044553384
-0.00049909475
-0.00045213038
-0.00033954235
-0.00019865296
-6.6326599e-05
2.17994e-05
-0.00015570305
-0.00077660749
-0.0012325474
-0.0016788945
-0.0021057114
-0.0024828883
-0.0027339971
-0.0027294248
-0.002332906
-0.0017437627
-0.00082225111
0.00026434728
0.0013379466
0.0023632624
0.0032809151
0.0040779452
0.0046892278
0.0051432885
0.0053926678
0.0054727535
0.0053481381
0.0050419233
0.004553289
0.0039140352
0.0031633452
0.0023590861
0.0015634546
0.00083806353
0.00023354153
-0.000217851
-0.00050529576
-0.00063802062
-0.00064077784
-0.00054773244
-0.00039663627
-0.0002262358
-7.2988894e-05
2.796064e-05
-0.0001446559
-0.00081458396
-0.0013187918
-0.0018421007
-0.0023509391
-0.0028435644
-0.0031841702
-0.0033027255
-0.0030630326
-0.0024449624
-0.0016618439
-0.00057824631
0.00069170928
0.0018965725
0.0030004733
0.00395356
0.0047329827
0.0052904132
0.005672025
0.0058301319
0.0058049819
0.005564806
0.0051353816
0.0045236583
0.0037694542
0.0029218754
0.0020471081
0.0012121283
0.00047911108
-0.0001053228
-0.00051611001
-0.00075096749
-0.00082733618
-0.0007761503
-0.00063580652
-0.00044641083
-0.00024710164
-7.3731844e-05
3.9426633e-05
-0.000133111
-0.00083937363
-0.001387873
-0.0019872416
-0.0025906201
-0.0031976007
-0.0036880334
-0.0039092916
-0.003822876
-0.0033610524
-0.0025229978
-0.0015711734
-0.00026453276
0.0012048284
0.0025161797
0.0036926408
0.0046465619
0.0053837964
0.005873308
0.0061698582
0.0062257038
0.0060856316
0.0057203194
0.0051598229
0.0044206976
0.0035516091
0.0026127356
0.0016772759
0.00081601842
8.9381848e-05
-0.00046190961
-0.00082140921
-0.00099606408
-0.0010112644
-0.00090387814
-0.00071571427
-0.00048859424
-0.00026128043
-6.8714953e-05
5.5946264e-05
-0.00084624284
-0.00013070812
-0.0014363065
-0.0021079622
-0.00280355
-0.003539491
-0.0041829097
-0.0045927535
-0.0046208725
-0.0043323494
-0.0036426841
-0.0026134067
-0.0014259366
0.00015392879
0.0017887255
0.0032061045
0.0044162273
0.0053392804
0.0060203099
0.0064287904
0.0066286078
0.0065725588
0.0063074749
0.0058070347
0.0051081835
0.0042386054
0.0032570016
0.0022348881
0.0012511987
0.0003783627
-0.00032699512
-0.00083204448
-0.0011301375
-0.0012376833
-0.0011879287
-0.0010228094
-0.00078701488
-0.00052305436
-0.00026886655
-5.8169558e-05
7.7232584e-05
-0.0014565554
-0.00084250631
-0.00013781073
-0.0021976052
-0.0029815068
-0.0038439585
-0.0046574412
-0.0052679923
-0.0055231452
-0.0053534468
-0.0048465239
-0.003962361
-0.0026717455
-0.0011821826
0.00065295708
0.0024603239
0.003942869
0.0051463102
0.0060213638
0.0066330162
0.0069484549
0.0070422887
0.0068641997
0.00646226
0.0058166701
0.0049731555
0.0039720642
0.0028831106
0.0017886265
0.00077140797
-9.6763632e-05
-0.00076542551
-0.0012113884
-0.0014386205
-0.0014732225
-0.0013555643
-0.0011321053
-0.00084936172
-0.000549767
-0.00027002765
-4.2354386e-05
0.00010298778
-0.0022429908
-0.001457407
-0.0008280258
-0.00014619535
-0.0031140159
-0.0040975371
-0.0050822392
-0.0059156054
-0.0064251841
-0.0065114186
-0.0061182522
-0.0054287105
-0.0042758756
-0.0026366426
-0.00083862956
0.0012739282
0.0031882163
0.0046932088
0.0058693439
0.0066829162
0.0072132304
0.0074270988
0.0074052032
0.0070922973
0.0065408869
0.0057405396
0.0047476281
0.0036164592
0.0024285129
0.0012753319
0.00024150223
-0.00060459977
-0.0012209269
-0.0015954502
-0.0017433825
-0.0017002006
-0.0015128137
-0.0012310823
-0.00090254071
-0.00056878855
-0.00026497871
-2.1575263e-05
0.00013288962
-0.0031795263
-0.0022524367
-0.0014382667
-0.00079488897
-0.00015455175
-0.0042814402
-0.0054348287
-0.00650216
-0.007296945
-0.0076811292
-0.0075623379
-0.0069837786
-0.0060346711
-0.0045010202
-0.0024927933
-0.00034549379
0.0019813212
0.0039335326
0.0054410291
0.0065771527
0.0073155226
0.0077565324
0.0078604202
0.0077098566
0.0072474174
0.0065332816
0.0055696917
0.0044248811
0.0031683129
0.0018932068
0.00069774942
-0.00033395902
-0.0011397147
-0.001688234
-0.0019797778
-0.0020410839
-0.0019165602
-0.0016584837
-0.0013192761
-0.00094642538
-0.00058025654
-0.00025402364
3.8254613e-06
0.0001666035
-0.0043697663
-0.0031881174
-0.0022251528
-0.0013905119
-0.0007487884
-0.00016167798
-0.0056876383
-0.0069942829
-0.0080961452
-0.0088208881
-0.0090353609
-0.0087542307
-0.0079051463
-0.0065677969
-0.0046159634
-0.0021897822
0.00025639712
0.0027111614
0.0046840175
0.0061816069
0.0072603964
0.0079159257
0.0082610915
0.0082426138
0.0079464348
0.0073182408
0.0064288639
0.0052952959
0.0039991512
0.0026254375
0.0012784641
5.9779259e-05
-0.00094941397
-0.0016961826
-0.0021618892
-0.0023600244
-0.0023287596
-0.0021204372
-0.0017917184
-0.0013962885
-0.00098103195
-0.00058446262
-0.00023755131
3.348291e-05
0.00020380247
-0.0058076461
-0.0043683409
-0.0031385375
-0.0021513925
-0.0013222789
-0.0006946917
-0.00016627478
-0.0073519212
-0.0087745354
-0.0098747718
-0.010481411
-0.010569804
-0.01004061
-0.0087803516
-0.0069978116
-0.0045744253
-0.0017723992
0.00090440462
0.0034546526
0.0054393786
0.0069035484
0.0079170997
0.008485988
0.0087234076
0.0085641234
0.0081031611
0.0072927925
0.0062164698
0.0049087593
0.0034654938
0.0019871013
0.00058686924
-0.00063333058
-0.0015984936
-0.0022676404
-0.0026364229
-0.0027321369
-0.0026037125
-0.0023103595
-0.0019116872
-0.0014619578
-0.0010066129
-0.00058185528
-0.00021594152
6.7106277e-05
0.00024418632
-0.0075252728
-0.0057942119
-0.0042769846
-0.0030207887
-0.0020428882
-0.0012373489
-0.00063372794
-0.0001703609
-0.0092777505
-0.010778643
-0.011824899
-0.012359059
-0.012241007
-0.011313194
-0.0095650971
-0.0072695119
-0.0044060688
-0.0012851548
0.0015939314
0.0042070626
0.0061860387
0.0076053844
0.0085524445
0.0090239413
0.0091346459
0.0088120192
0.0081662022
0.0071578391
0.005885368
0.004402499
0.0028204945
0.0012540348
-0.0001773779
-0.0013752506
-0.0022741071
-0.0028474619
-0.0031065385
-0.0030923647
-0.0028636577
-0.0024849394
-0.0020179153
-0.0015164066
-0.0010236677
-0.00057278977
-0.00018936088
0.00010449118
0.00028742616
-0.0095349621
-0.0075061051
-0.0056468839
-0.0040897705
-0.0028550607
-0.0019070521
-0.0011388733
-0.00057365951
-0.00017304698
-0.011461534
-0.012984805
-0.014023976
-0.014415212
-0.013933646
-0.012518794
-0.010207636
-0.0074188026
-0.0041586191
-0.00072794613
0.0023197321
0.0049571421
0.0069210191
0.0082954172
0.0091682698
0.0095222728
0.0094811645
0.0089717463
0.0081203717
0.0068998361
0.0054247432
0.0037701218
0.0020624113
0.00042882321
-0.0010085185
-0.002158487
-0.002968622
-0.0034289941
-0.0035672122
-0.0034373576
-0.0031064436
-0.002643202
-0.0021103806
-0.0015601827
-0.0010324833
-0.0005571902
-0.00015783611
0.00014525463
0.00033305328
-0.011823723
-0.0095292157
-0.0072987701
-0.0053683249
-0.003833335
-0.0026517427
-0.0017500165
-0.0010388788
-0.00051491805
-0.00017093298
-0.013872955
-0.015466195
-0.016438195
-0.016529753
-0.015587221
-0.013601333
-0.010729252
-0.0074801507
-0.0038196828
-9.9250011e-05
0.0030642866
0.0057027498
0.0076607514
0.0089813487
0.009759441
0.0099665997
0.0097465699
0.0090266315
0.0079498992
0.0065053341
0.0048249152
0.0030067421
0.0011915945
-0.0004837511
-0.0018991181
-0.0029745929
-0.0036740371
-0.0040057552
-0.004013779
-0.0037639528
-0.00333036
-0.0027847688
-0.0021895911
-0.0015934557
-0.0010326165
-0.0005348463
-0.00012201872
0.00018844934
0.00038060985
-0.014353584
-0.011834132
-0.0092616822
-0.0069107398
-0.0049944275
-0.0035265561
-0.0024190565
-0.0015882442
-0.00093636683
-0.00046101296
-0.00016938936
-0.016570551
-0.018188873
-0.01894772
-0.018635972
-0.017146013
-0.014580696
-0.011158653
-0.0074436888
-0.0034066989
0.00056268221
0.0038158538
0.0064710699
0.0084170194
0.0096591453
0.010311421
0.010339467
0.0099130025
0.0089587302
0.0076380034
0.0059609221
0.0040774246
0.0021095258
0.00021073931
-0.00147686
-0.0028402964
-0.0038143846
-0.0043822708
-0.0045715205
-0.0044417637
-0.0040694351
-0.0035344931
-0.0029101135
-0.0022555336
-0.0016152873
-0.001023555
-0.00050697284
-8.3866663e-05
0.00023321681
0.00043023613
-0.017162953
-0.014382232
-0.011492698
-0.0087501599
-0.0063931432
-0.0045539533
-0.0031836107
-0.0021779231
-0.0014212627
-0.00084007443
-0.00042248529
-0.00016466523
-0.019527709
-0.02104121
-0.021479361
-0.020681046
-0.018630869
-0.015471009
-0.011477341
-0.0073153119
-0.0029250503
0.0012584426
0.0046048982
0.007278586
0.0091889009
0.010313308
0.010803699
0.01062165
0.0099618681
0.0087492115
0.0071682341
0.0052540569
0.0031757392
0.0010781789
-0.00087512126
-0.0025421165
-0.003822045
-0.004668261
-0.0050853377
-0.0051201915
-0.0048471279
-0.0043521123
-0.0037190345
-0.003018951
-0.0023066183
-0.0016247238
-0.0010073381
-0.00047705876
-4.4673056e-05
0.00028089442
0.00048502634
-0.020236633
-0.017184164
-0.013954483
-0.010829791
-0.0080656854
-0.0057880982
-0.0040697957
-0.0028288106
-0.0019297016
-0.0012675464
-0.00075962818
-0.00037920175
-0.00015711292
-0.022636925
-0.023944398
-0.023990716
-0.022689308
-0.020044523
-0.016246588
-0.011693638
-0.007127684
-0.0023730177
0.00202697
0.0054496107
0.0081268254
0.0099598263
0.010921983
0.011217665
0.010793806
0.0098712948
0.0083777392
0.0065242924
0.0043738496
0.0021156459
-8.4934582e-05
-0.0020588337
-0.0036692961
-0.0048334132
-0.0055263663
-0.0057752321
-0.0056460408
-0.0052270707
-0.004611711
-0.0038834043
-0.003108825
-0.0023412529
-0.0016248743
-0.0009895537
-0.00044671281
-4.0833174e-07
0.00033674584
0.00054512654
-0.023475131
-0.020235098
-0.016630384
-0.013110573
-0.0099440624
-0.0072629696
-0.0051299832
-0.0035700087
-0.0024676575
-0.0017038835
-0.0011330409
-0.00067436201
-0.00034690048
-0.00014731292
-0.025819119
-0.02687009
-0.02650639
-0.024654247
-0.021354619
-0.01691329
-0.011843449
-0.0068474167
-0.0017148404
0.0028864878
0.0063634598
0.0090014934
0.010696582
0.011463096
0.011531785
0.01083237
0.0096178558
0.0078237952
0.0056903585
0.0033115355
0.00089584717
-0.0013745659
-0.003330378
-0.0048465695
-0.0058627513
-0.0063785261
-0.0064441532
-0.0061447666
-0.0055805787
-0.0048471145
-0.0040239706
-0.003177227
-0.0023638291
-0.0016240825
-0.00097203746
-0.00040764544
5.8197349e-05
0.00039753557
0.0006091534
-0.026796827
-0.023453081
-0.019524969
-0.015557589
-0.011984733
-0.0089037381
-0.0063919301
-0.0044507833
-0.0030666204
-0.0021437209
-0.0014997603
-0.00099631036
-0.0006076148
-0.00030964987
-0.00013730796
-0.029062322
-0.029838062
-0.029013196
-0.02653715
-0.022558381
-0.017510029
-0.011921485
-0.0064383824
-0.00093812408
0.003860305
0.0073393444
0.0098679811
0.011384107
0.011918216
0.011723043
0.010711588
0.0091767564
0.0070667677
0.0046525833
0.0020611255
-0.00048160256
-0.0027822092
-0.0046772985
-0.0060606428
-0.0068976406
-0.0072144984
-0.0070858476
-0.0066142876
-0.0059057621
-0.0050532254
-0.0041370044
-0.0032300134
-0.0023862322
-0.0016244359
-0.00094046514
-0.00034484784
0.00012133076
0.00046269858
0.00067711432
-0.030212235
-0.026753163
-0.022573259
-0.018182269
-0.014139508
-0.010665074
-0.0077753657
-0.0054929761
-0.0037702597
-0.0026191826
-0.0018452327
-0.0012957331
-0.00088422696
-0.00053474114
-0.00028521458
-0.0001289189
-0.032384125
-0.032827926
-0.03146121
-0.028325325
-0.023709752
-0.018041832
-0.011865944
-0.0058436109
6.8314586e-06
0.0049360998
0.0083293323
0.010705434
0.012002314
0.012262088
0.01176277
0.010404002
0.0085222346
0.0060876247
0.0033996748
0.00062030041
-0.0020108987
-0.004296463
-0.0060854473
-0.0072969407
-0.0079251398
-0.0080256294
-0.0076967592
-0.0070516279
-0.0061956356
-0.0052245701
-0.0042300043
-0.0032835709
-0.0024109163
-0.001603436
-0.00087215735
-0.00027788976
0.00018941214
0.00053211659
0.00074902092
-0.033736895
-0.030170272
-0.02569402
-0.020937092
-0.016424475
-0.012489375
-0.0092337176
-0.0066138443
-0.0045961289
-0.0031687927
-0.0022026577
-0.0015509458
-0.001127326
-0.00076549492
-0.00047224429
-0.00025275211
-0.00011868358
-0.035752105
-0.035779905
-0.033832396
-0.030087379
-0.024810809
-0.018448503
-0.011618936
-0.0050581472
0.0011222151
0.0060385885
0.0093074308
0.011488749
0.012525763
0.012463442
0.011619667
0.0098795175
0.0076296319
0.0048688994
0.0019235896
-0.001009251
-0.0036828142
-0.0059032078
-0.0075385857
-0.0085396979
-0.0089337791
-0.0088064383
-0.0082724639
-0.0074473048
-0.0064423566
-0.0053704351
-0.0043249669
-0.003340865
-0.0024046542
-0.0015284058
-0.00079994735
-0.00020517759
0.00026197101
0.00060580944
0.00082487241
-0.037319055
-0.033718655
-0.028945303
-0.023748505
-0.018807265
-0.014393792
-0.01070775
-0.007768301
-0.0054615357
-0.0038038461
-0.002604185
-0.0017939569
-0.0013119345
-0.00095604345
-0.00065451829
-0.00040514187
-0.00021246596
-0.00010510279
-0.039090381
-0.038665008
-0.03620759
-0.031829733
-0.025801342
-0.018653345
-0.011150046
-0.0040535838
0.0023215259
0.007148566
0.010270629
0.012196597
0.012924795
0.012489663
0.011260753
0.0091074007
0.0064751934
0.0033955317
0.00022055431
-0.0028217674
-0.0054840745
-0.0075843185
-0.0090182934
-0.0097744243
-0.0099156695
-0.0095506042
-0.0088003574
-0.007790409
-0.0066571002
-0.0055197985
-0.0044255253
-0.0033549411
-0.0023218851
-0.0014494521
-0.00072093765
-0.00012777344
0.00033910127
0.00068374872
0.00090465007
-0.040877443
-0.037329606
-0.03233371
-0.02668944
-0.021226856
-0.016360569
-0.012212089
-0.0088942252
-0.0063231572
-0.0044417773
-0.0030495318
-0.0020525329
-0.0014689164
-0.0010745519
-0.00078891553
-0.00054009057
-0.00034017957
-0.0001875013
-9.700122e-05
-0.042362868
-0.041576274
-0.0385951
-0.033494563
-0.026596438
-0.018607479
-0.010439434
-0.0028709895
0.0035489907
0.0082615403
0.011196483
0.012796938
0.013164323
0.012303186
0.010649001
0.0080577292
0.005036665
0.0016566519
-0.001708255
-0.0048062391
-0.0073967144
-0.0093188333
-0.01050682
-0.010990466
-0.010862117
-0.010241648
-0.0092653022
-0.008093928
-0.0068773806
-0.0056772204
-0.0044673029
-0.0032636829
-0.0022346651
-0.0013623999
-0.00063704556
-4.5436282e-05
0.00042072942
0.00076590004
0.00098831655
-0.044367567
-0.040915088
-0.035785479
-0.029763633
-0.023761942
-0.018345265
-0.013746984
-0.010006775
-0.0071190317
-0.0050437123
-0.0034652736
-0.0023213703
-0.001621832
-0.0011456221
-0.00084464247
-0.00062749556
-0.00043762227
-0.00029031912
-0.0001493462
-8.54402e-05
-0.045664801
-0.044523074
-0.040944149
-0.034979444
-0.02712769
-0.018297621
-0.0095121772
-0.0015996149
0.0048096851
0.0093665251
0.012035681
0.013250076
0.013206132
0.011863458
0.0097458974
0.0067010158
0.0032954733
-0.0003536769
-0.0038564455
-0.0069460353
-0.0093985059
-0.011086356
-0.011990645
-0.012176129
-0.011751846
-0.010858965
-0.0096821061
-0.0084057658
-0.0071089508
-0.0057564484
-0.0043672299
-0.0031666659
-0.0021377675
-0.0012702514
-0.00054780677
4.1673162e-05
0.00050682359
0.00085215944
0.0010758277
-0.047872841
-0.044427297
-0.039196554
-0.032882163
-0.026412106
-0.020421571
-0.015278453
-0.011119978
-0.0078647054
-0.0055521211
-0.0038217829
-0.0025414938
-0.0017626097
-0.001189753
-0.00084304646
-0.00063431039
-0.00048580461
-0.00035933981
-0.00022400316
-0.00012635091
-6.9778583e-05
-0.049011299
-0.047459722
-0.043147578
-0.036204621
-0.027380212
-0.017756899
-0.0084084558
-0.00027163886
0.0061096235
0.010424606
0.012747318
0.013512832
0.0130036
0.011126461
0.008513788
0.0050096065
0.0012378732
-0.0026351439
-0.0062104726
-0.0092186591
-0.011466369
-0.012870625
-0.013454612
-0.013304432
-0.012557372
-0.011418708
-0.010111106
-0.0087334174
-0.007238393
-0.0056479095
-0.0042589786
-0.0030580655
-0.0020355252
-0.0011723025
-0.00045348485
0.00013354189
0.00059721741
0.00094243563
0.0011671542
-0.051412758
-0.047928681
-0.042529003
-0.035945584
-0.029081588
-0.022583937
-0.016876097
-0.01221022
-0.00858494
-0.0059842307
-0.0040652583
-0.0026868243
-0.0018269995
-0.0012028466
-0.00079217198
-0.00057897824
-0.00046019381
-0.00037745316
-0.00026763477
-0.00018838086
-9.1427592e-05
-6.0862919e-05
-0.052359959
-0.050288877
-0.045110984
-0.03715246
-0.027381528
-0.017011896
-0.0071663405
0.0011498239
0.0073955041
0.011392026
0.013288533
0.013539119
0.012508993
0.010047979
0.0069171905
0.0029605557
-0.0011438404
-0.0051786641
-0.0087489276
-0.011599943
-0.013580838
-0.014652783
-0.014865125
-0.014339371
-0.01329555
-0.011996247
-0.01056227
-0.0089298333
-0.0071226735
-0.0055272067
-0.0041368512
-0.0029437964
-0.0019269417
-0.0010688933
-0.00035407329
0.00022989966
0.00069176139
0.0010366959
0.0012622657
-0.054954857
-0.051446303
-0.045819507
-0.038913317
-0.031668045
-0.024734698
-0.018527925
-0.013339755
-0.0092655299
-0.0063733571
-0.004217637
-0.0027028668
-0.0018082471
-0.0011195711
-0.00069229341
-0.00046837206
-0.00036702484
-0.00032419341
-0.00026735644
-0.00021023696
-0.00013039429
-7.3640779e-05
-4.4042537e-05
-0.055627152
-0.052906648
-0.046821398
-0.03784281
-0.027161247
-0.016077703
-0.0057869076
0.0026474971
0.0086280251
0.012232436
0.013616081
0.013276233
0.011669432
0.008584991
0.0049205375
0.00053591797
-0.0038479025
-0.0079665619
-0.011447764
-0.014069233
-0.015719928
-0.016391651
-0.016175712
-0.015297578
-0.014059349
-0.01260492
-0.01084727
-0.0088096885
-0.0069886963
-0.0053898521
-0.004008561
-0.0028225219
-0.0018124347
-0.00096003216
-0.00024995961
0.00033054031
0.0007905116
0.0011349849
0.001361005
-0.058425221
-0.054949182
-0.049098986
-0.041804302
-0.034132569
-0.026769803
-0.020134306
-0.014491685
-0.009964888
-0.0067156409
-0.0043193976
-0.0026142951
-0.0016525776
-0.00094841186
-0.00048871409
-0.0002963763
-0.00020963403
-0.00020559746
-0.00019739176
-0.00018722752
-0.00013338671
-9.5524342e-05
-3.9054073e-05
-3.5995551e-05
-0.058710599
-0.055309306
-0.048300557
-0.038297834
-0.02672367
-0.014943976
-0.0042667962
0.0041535408
0.0097746495
0.012889346
0.013675683
0.012662099
0.010429895
0.0066923919
0.0024938968
-0.0022730191
-0.0068616204
-0.01097689
-0.014286773
-0.016601133
-0.01783413
-0.018028356
-0.017401672
-0.01629254
-0.014867253
-0.013006184
-0.010727616
-0.0086623127
-0.0068347588
-0.005245577
-0.0038724342
-0.0026947371
-0.0016920246
-0.00084622154
-0.00014140842
0.00043566286
0.00089372276
0.0012369368
0.0014632816
-0.061732173
-0.058378067
-0.052338735
-0.044646155
-0.036477417
-0.028649784
-0.021599362
-0.01557069
-0.010657837
-0.0070568452
-0.0043665128
-0.0024688188
-0.0013798626
-0.00064672015
-0.00019633324
-2.5936241e-05
1.745155e-05
-2.1195523e-05
-5.9904831e-05
-9.9623549e-05
-9.4346218e-05
-7.9594322e-05
-4.3290495e-05
-2.1123892e-05
-1.9345644e-05
-0.061610481
-0.057522521
-0.049570776
-0.038524479
-0.026063822
-0.01361875
-0.0026721776
0.0056125402
0.01077519
0.013293494
0.013402791
0.011632372
0.0087339336
0.0043271759
-0.00038358655
-0.0054629674
-0.010166966
-0.014190978
-0.017239534
-0.019136297
-0.019850252
-0.019575557
-0.018680157
-0.017349927
-0.015419884
-0.012895014
-0.010567876
-0.0084910599
-0.0066727099
-0.0050923871
-0.0037290137
-0.0025604565
-0.0015663655
-0.00072777545
-2.7997965e-05
0.00054585745
0.0010007024
0.0013424191
0.0015689787
-0.064875618
-0.061650884
-0.055490369
-0.047416982
-0.038731372
-0.030369134
-0.022882253
-0.016492286
-0.011261903
-0.0073696427
-0.0043996633
-0.0022696608
-0.0010420382
-0.00022156091
0.00021233088
0.00033607869
0.00033287106
0.00023338486
0.00014496966
5.2137732e-05
5.705907e-06
-2.4089596e-05
-1.3420291e-05
-7.6766802e-06
9.4854443e-06
-1.0666135e-05
-0.064377754
-0.059576547
-0.050627454
-0.038516051
-0.025174996
-0.012128174
-0.001030477
0.0069852928
0.011561402
0.013361696
0.012728699
0.010120899
0.0065239896
0.0014564042
-0.0037183749
-0.0090239361
-0.01375019
-0.017582779
-0.020237706
-0.021586265
-0.021777076
-0.021197211
-0.020046832
-0.018098175
-0.015329409
-0.012725706
-0.010379655
-0.0083098259
-0.0065003065
-0.004930828
-0.0035783097
-0.0024205256
-0.0014358021
-0.00060393499