/*--------------------------------*- C++ -*----------------------------------*\
| =========                 |                                                 |
| \\      /  F ield         | OpenFOAM: The Open Source CFD Toolbox           |
|  \\    /   O peration     | Version:  5.0                                   |
|   \\  /    A nd           | Web:      www.OpenFOAM.org                      |
|    \\/     M anipulation  |                                                 |
\*---------------------------------------------------------------------------*/
FoamFile
{
    version     2.0;
    format      ascii;
    class       volScalarField;
    location    "220";
    object      pPrime2Mean;
}
// * * * * * * * * * * * * * * * * * * * * * * * * * * * * * * * * * * * * * //

dimensions      [0 4 -4 0 0 0 0];

internalField   nonuniform List<scalar> 
9520
(
2.7960274e-07
2.5950678e-07
1.8888359e-06
2.2563865e-07
1.7520442e-06
5.1111832e-06
1.8458618e-07
1.5213291e-06
4.742673e-06
1.0046076e-05
1.4211638e-07
1.2413848e-06
4.1208629e-06
9.3239402e-06
1.6958398e-05
1.026787e-07
9.5146341e-07
3.3658221e-06
8.104791e-06
1.5745949e-05
2.6168662e-05
6.9287515e-08
6.8186867e-07
2.5831347e-06
6.6232147e-06
1.3697479e-05
2.4309503e-05
3.8111812e-05
4.3653651e-08
4.5301832e-07
1.8544403e-06
5.0858301e-06
1.1205213e-05
2.1165637e-05
3.5425198e-05
5.3292691e-05
2.6466927e-08
2.7626563e-07
1.2349925e-06
3.6527961e-06
8.6153342e-06
1.733534e-05
3.0876867e-05
4.9570245e-05
7.2303281e-05
1.7675683e-08
1.5560712e-07
7.5571679e-07
2.4330128e-06
6.1972123e-06
1.3347998e-05
2.5325885e-05
4.3259844e-05
6.7306227e-05
9.5808979e-05
1.682588e-08
8.9682674e-08
4.2745194e-07
1.4877893e-06
4.1351329e-06
9.6174841e-06
1.9534749e-05
3.5542704e-05
5.8822352e-05
8.9267388e-05
0.000124549
2.3468146e-08
7.3724037e-08
2.4637497e-07
8.3921167e-07
2.5339934e-06
6.4289879e-06
1.4103039e-05
2.7470954e-05
4.8423405e-05
7.8142553e-05
0.00011616178
0.00015932183
3.7393979e-08
1.0095891e-07
1.9884844e-07
4.7980186e-07
1.432864e-06
3.9470815e-06
9.447457e-06
1.9877386e-05
3.7514555e-05
6.44714e-05
0.00010187166
0.00014875859
0.00020097886
5.9146447e-08
1.6376901e-07
2.6506314e-07
3.8186e-07
8.2141061e-07
2.2355751e-06
5.8121541e-06
1.334651e-05
2.7215918e-05
5.0082322e-05
8.4260361e-05
0.00013072417
0.00018788323
0.00025040947
9.0024545e-08
2.5604703e-07
4.2383727e-07
5.0759685e-07
6.5561398e-07
1.2820297e-06
3.2957114e-06
8.2263833e-06
1.8322664e-05
3.6444205e-05
6.5655735e-05
0.00010842829
0.0001654757
0.0002344041
0.00030852739
1.3276977e-07
3.7308291e-07
6.5490469e-07
8.1575918e-07
8.7338279e-07
1.023263e-06
1.8853133e-06
4.6635002e-06
1.131716e-05
2.4612754e-05
4.7943907e-05
8.4778953e-05
0.00013767874
0.00020695261
0.00028922059
0.00037625124
1.8989752e-07
5.1342149e-07
9.4025506e-07
1.2637042e-06
1.4029529e-06
1.3647824e-06
1.4917731e-06
2.6482125e-06
6.4119157e-06
1.5241696e-05
3.2498998e-05
6.2154203e-05
0.00010806345
0.00017277321
0.00025602281
0.00035324551
0.00045448725
2.6669656e-07
6.7010005e-07
1.2650051e-06
1.8089306e-06
2.1728412e-06
2.1959476e-06
1.9788345e-06
2.0604011e-06
3.6067736e-06
8.633606e-06
2.0191188e-05
4.2312025e-05
7.9579438e-05
0.00013618341
0.00021452681
0.0003135816
0.00042738869
0.00054410724
3.6719287e-07
8.6381481e-07
1.6210046e-06
2.4205233e-06
3.1147809e-06
3.4071358e-06
3.1881156e-06
2.7120969e-06
2.749437e-06
4.8107455e-06
1.1444392e-05
2.6392232e-05
5.4440767e-05
0.00010078688
0.00016987712
0.00026379773
0.00038053708
0.00051253632
0.00064593155
4.972896e-07
1.05832e-06
2.0057681e-06
3.0719526e-06
4.1715299e-06
4.8986488e-06
4.9573386e-06
4.3832963e-06
3.5912701e-06
3.5899152e-06
6.32034e-06
1.4979128e-05
3.411833e-05
6.9332426e-05
0.00012641451
0.00020993998
0.00032147594
0.00045779214
0.00060953254
0.00076070691
6.5443951e-07
1.3542523e-06
2.409958e-06
3.7443904e-06
5.2947825e-06
6.5821288e-06
7.1419583e-06
6.8441565e-06
5.8351651e-06
4.6553826e-06
4.6109316e-06
8.1980495e-06
1.9404355e-05
4.3692337e-05
8.7505545e-05
0.00015716698
0.00025721784
0.00038846908
0.00054622697
0.0007191596
0.00088909037
8.4244748e-07
1.5978065e-06
2.8840664e-06
4.4367383e-06
6.4594058e-06
8.3872529e-06
9.6184477e-06
9.8839309e-06
9.1710486e-06
7.6199214e-06
5.9294705e-06
5.8261452e-06
1.05199e-05
2.4924204e-05
5.5502201e-05
0.00010954898
0.0001938147
0.00031259762
0.00046568726
0.00064667747
0.00084212074
0.0010316286
1.0517564e-06
2.0816527e-06
3.3599817e-06
5.1607521e-06
7.6440858e-06
1.0271547e-05
1.2280567e-05
1.3322888e-05
1.3299161e-05
1.2077489e-05
9.7875341e-06
7.4025557e-06
7.2427892e-06
1.3385671e-05
3.1795568e-05
7.0003624e-05
0.00013612611
0.00023718912
0.00037699514
0.0005540218
0.00075992187
0.00097901915
0.0011887475
1.2863621e-06
2.3858132e-06
4.0641878e-06
5.9207664e-06
8.8710481e-06
1.2201426e-05
1.5055057e-05
1.7003399e-05
1.795562e-05
1.7621091e-05
1.5663124e-05
1.2325988e-05
9.0378275e-06
8.8781549e-06
1.6933055e-05
4.0335001e-05
8.7727148e-05
0.00016797502
0.00028817536
0.00045134039
0.00065433176
0.0008866573
0.0011303456
0.0013607375
1.49914e-06
3.1391503e-06
4.7098476e-06
6.8478813e-06
1.0133093e-05
1.4204922e-05
1.7899628e-05
2.0811857e-05
2.2914852e-05
2.3885989e-05
2.3027907e-05
1.993686e-05
1.5178023e-05
1.0797133e-05
1.0773654e-05
2.1346619e-05
5.0925458e-05
0.00010928296
0.00020590626
0.00034770273
0.00053655838
0.00076742343
0.0010274855
0.0012964625
0.0015477492
1.7382633e-06
3.6958812e-06
5.8337402e-06
7.8251696e-06
1.1590197e-05
1.6268974e-05
2.0827889e-05
2.4679304e-05
2.8011432e-05
3.0559367e-05
3.1404851e-05
2.956989e-05
2.4842127e-05
1.8278686e-05
1.2658453e-05
1.3003265e-05
2.6861931e-05
6.4024468e-05
0.00013536332
0.00025080035
0.00041673301
0.00063355555
0.00089403282
0.0011828937
0.0014775974
0.0017497866
1.9953714e-06
4.7031436e-06
6.8937906e-06
9.2433559e-06
1.314545e-05
1.8595097e-05
2.3850597e-05
2.8593531e-05
3.3126652e-05
3.740764e-05
4.0375751e-05
4.0614115e-05
3.7202472e-05
3.0316826e-05
2.1580455e-05
1.4619604e-05
1.5672427e-05
3.3774065e-05
8.0169961e-05
0.00016674762
0.00030360103
0.00049624017
0.00074320153
0.0010348048
0.0013532459
0.0016738343
0.001966708
2.4024781e-06
5.6867355e-06
8.6023009e-06
1.0777239e-05
1.5228126e-05
2.110114e-05
2.7161595e-05
3.2591741e-05
3.8220331e-05
4.4247759e-05
4.9622007e-05
5.2527902e-05
5.1483321e-05
4.5884262e-05
3.6330203e-05
2.5050264e-05
1.6688424e-05
1.8922094e-05
4.2444912e-05
9.999189e-05
0.00020430162
0.0003653056
0.00058720103
0.00086630674
0.0011902798
0.00153877
0.0018851126
0.0021982289
2.8285426e-06
6.701027e-06
1.0345615e-05
1.3105942e-05
1.7567372e-05
2.4277574e-05
3.0756864e-05
3.6837949e-05
4.3326242e-05
5.1008647e-05
5.8882204e-05
6.4888897e-05
6.6990178e-05
6.4002578e-05
5.5639746e-05
4.2872239e-05
2.8647851e-05
1.887917e-05
2.2935084e-05
5.3319068e-05
0.00012421841
0.00024897643
0.00043694774
0.00069057323
0.0010036059
0.001360876
0.0017395533
0.0021112265
0.0024439276
3.2588768e-06
7.6999766e-06
1.2025975e-05
1.5644299e-05
2.098214e-05
2.7887395e-05
3.5145541e-05
4.143398e-05
4.859482e-05
5.7689937e-05
6.8046589e-05
7.7342925e-05
8.3166173e-05
8.3782035e-05
7.8284709e-05
6.6542046e-05
4.9913596e-05
3.2306867e-05
2.1213719e-05
2.7953223e-05
6.6936743e-05
0.00015368389
0.00030180064
0.00051958701
0.00080727663
0.0011557349
0.0015468809
0.0019555362
0.0023518294
0.0027032554
3.6785403e-06
8.3127846e-06
1.3727446e-05
1.8273835e-05
2.4808797e-05
3.29509e-05
4.0122102e-05
4.6890501e-05
5.4217149e-05
6.4445435e-05
7.7064059e-05
8.9722611e-05
9.9544121e-05
0.00010448778
0.0001031304
9.4543606e-05
7.8646704e-05
5.7364893e-05
3.5925775e-05
2.3736849e-05
3.4295845e-05
8.3950174e-05
0.00018932888
0.00036386865
0.00061429069
0.00093816781
0.0013232178
0.0017484407
0.002186514
0.0026064426
0.0029755474
3.9484164e-06
9.1567491e-06
1.494461e-05
2.0811334e-05
2.8971624e-05
3.8757503e-05
4.700331e-05
5.3097267e-05
6.0704906e-05
7.1503349e-05
8.6095442e-05
0.00010191103
0.00011587318
0.00012550315
0.00012921154
0.00012544726
0.00011299428
9.1915257e-05
6.5055166e-05
3.9379067e-05
2.65372e-05
4.2383038e-05
0.00010513233
0.00023220046
0.00043632768
0.00072210752
0.0010840207
0.0015064499
0.0019655561
0.0024321428
0.0028744644
0.0032600364
4.0865864e-06
9.5155839e-06
1.6476414e-05
2.2913886e-05
3.2816959e-05
4.5131539e-05
5.5137278e-05
6.1617827e-05
6.8101166e-05
7.9406101e-05
9.5359167e-05
0.00011406081
0.00013195658
0.00014645514
0.00015571526
0.00015800427
0.00015118412
0.00013373208
0.00010617087
7.2735746e-05
4.2539103e-05
2.9775932e-05
5.2752577e-05
0.00013138782
0.00028344127
0.00052035907
0.00084404495
0.0012455037
0.0017056881
0.0021980783
0.0026919453
0.0031551821
0.0035558679
3.9642469e-06
9.7351837e-06
1.7397048e-05
2.5307248e-05
3.6286801e-05
5.078314e-05
6.4209741e-05
7.1838078e-05
7.8136006e-05
8.8346889e-05
0.00010543555
0.00012636483
0.00014791328
0.00016704838
0.00018209535
0.00019115035
0.00019163281
0.00018065387
0.00015665288
0.00012109871
8.0102778e-05
4.5309954e-05
3.3710573e-05
6.6081029e-05
0.00016375222
0.00034427638
0.0006171571
0.00098104678
0.0014231676
0.0019210385
0.0024457138
0.0029653183
0.0034477871
0.0038621157
3.599576e-06
9.5106314e-06
1.7966879e-05
2.6971439e-05
3.996985e-05
5.6161412e-05
7.2205475e-05
8.3934593e-05
9.0388125e-05
0.00010004565
0.00011663087
0.00013941606
0.00016389481
0.00018733603
0.00020792386
0.00022411801
0.00023296647
0.00023071129
0.00021390632
0.0001814445
0.00013627525
8.6834781e-05
4.7654951e-05
3.8723822e-05
8.3193298e-05
0.00020339205
0.00041600231
0.00072790488
0.0011339713
0.0016174236
0.0021524555
0.0027080287
0.003251545
0.0037513889
0.0041777972
3.0324e-06
8.8287078e-06
1.7857314e-05
2.80762e-05
4.2710304e-05
6.163385e-05
8.0021605e-05
9.479048e-05
0.00010569137
0.00011434952
0.00013061004
0.00015362121
0.0001805182
0.0002074126
0.00023315155
0.0002562952
0.00027414927
0.00028216148
0.00027552102
0.00025070589
0.00020763106
0.00015120848
9.262202e-05
4.9630213e-05
4.5341642e-05
0.00010507337
0.00025159099
0.00049996659
0.00085374731
0.0013035625
0.0018285327
0.0023997387
0.0029844555
0.0035498096
0.0040650302
0.0045018895
2.3543002e-06
7.716105e-06
1.694413e-05
2.8317686e-05
4.4511958e-05
6.5943897e-05
8.7897476e-05
0.00010552266
0.00011981864
0.00013301153
0.00014755558
0.00017051554
0.00019823882
0.0002278898
0.00025780333
0.00028749912
0.00031433236
0.00033365013
0.00033932293
0.00032597068
0.00029059314
0.00023462199
0.00016537136
9.7200787e-05
5.1407459e-05
5.4255692e-05
0.00013286863
0.00030974885
0.00059754124
0.00099576037
0.001490432
0.0020565937
0.002662536
0.0032743037
0.0038592128
0.0043877039
0.0048333442
1.6986026e-06
6.2748308e-06
1.5270363e-05
2.7385642e-05
4.513784e-05
6.8713107e-05
9.4588727e-05
0.00011649464
0.0001341307
0.00015100283
0.00017016205
0.00019090854
0.00021852355
0.00024925498
0.00028245731
0.00031765147
0.00035316122
0.00038403055
0.00040357553
0.00040456408
0.00038168245
0.0003329604
0.00026175401
0.00017823023
0.00010037215
5.3300051e-05
6.6337713e-05
0.00016789069
0.00037936074
0.00071009304
0.0011549253
0.0016950375
0.0023015417
0.0029403474
0.0035767753
0.0041787863
0.0047183678
0.005171102
1.179921e-06
4.757585e-06
1.3010755e-05
2.5332664e-05
4.4027043e-05
6.9875748e-05
9.8980654e-05
0.00012656314
0.00014884251
0.00016991055
0.00019253627
0.00021804528
0.00024257213
0.00027293579
0.00030761717
0.00034725594
0.00039039539
0.00043274176
0.00046677227
0.00048428877
0.00047764624
0.00044210967
0.00037710664
0.0002883121
0.00018925798
0.00010203168
5.5787729e-05
8.2660085e-05
0.00021161214
0.00046199283
0.0008389515
0.0013320978
0.001917672
0.0025631421
0.0032325366
0.0038909798
0.0045075093
0.0050559602
0.005514106
8.8902561e-07
3.4669375e-06
1.0581772e-05
2.2385966e-05
4.1246752e-05
6.8479697e-05
0.00010133581
0.00013356091
0.00016329863
0.00018877854
0.00021687224
0.00024535349
0.00027424068
0.00030031472
0.00033475129
0.0003768465
0.00042646232
0.00047930851
0.00052808914
0.00056320512
0.00057572692
0.00055815104
0.00050662138
0.00042225506
0.00031352737
0.00019794856
0.00010219265
5.9551332e-05
0.00010450434
0.00026565714
0.00055925122
0.00098537337
0.001527986
0.0021584471
0.0028409972
0.0035383436
0.0042159473
0.0048443245
0.0053994135
0.0058613134
2.7239825e-06
8.7723286e-07
8.4865193e-06
1.9123927e-05
3.7118244e-05
6.4619438e-05
0.00010019744
0.00013825237
0.00017388468
0.00020844614
0.00024019674
0.00027619608
0.00030737813
0.00033586869
0.00036526272
0.00040788615
0.00046182789
0.00052406364
0.00058675105
0.00064015758
0.00067346709
0.00067765127
0.00064561269
0.00057451841
0.00046752887
0.00033656721
0.00020382836
0.00010102936
6.5501834e-05
0.00013336825
0.00033177913
0.00067274639
0.0011505103
0.0017431234
0.0024172917
0.0031345518
0.003856899
0.0045506463
0.0051881532
0.0057476671
0.0062117059
7.2737696e-06
2.7347998e-06
1.1456518e-06
1.6279545e-05
3.2474224e-05
5.8754144e-05
9.5621663e-05
0.0001385697
0.0001820945
0.00022345495
0.00026581862
0.00030479257
0.00034601031
0.00037482558
0.00040416562
0.00044171707
0.00049795869
0.00056732848
0.00064296336
0.00071399073
0.00076928257
0.00079752721
0.00078985093
0.00073955843
0.00064498654
0.00051190628
0.00035652706
0.00020649462
9.891674e-05
7.4811147e-05
0.00017096764
0.00041183213
0.00080405451
0.0013353718
0.001977855
0.0026939473
0.0034431067
0.0041872385
0.0048940004
0.0055379088
0.006099679
0.0065642986
1.4636702e-05
7.2896377e-06
3.493911e-06
1.6415612e-06
2.8414846e-05
5.2080773e-05
8.817297e-05
0.00013440372
0.00018519776
0.00023630459
0.000286067
0.00033744176
0.00038092559
0.00042134029
0.00044829849
0.00048366251
0.00053618853
0.00061055593
0.0006968056
0.00078474615
0.00086157738
0.00091564586
0.00093549113
0.00091221615
0.00083942681
0.00071700118
0.00055417274
0.00037244714
0.00020567192
9.6486141e-05
8.8926779e-05
0.00021922217
0.0005077335
0.00095467375
0.0015407965
0.0022323211
0.0029879761
0.0037658288
0.0045283209
0.0052449037
0.0058925113
0.0064544354
0.006918147
2.6041638e-05
1.4680913e-05
8.5294952e-06
4.7928259e-06
2.2783234e-06
4.6216625e-05
7.9488401e-05
0.00012632558
0.00018279281
0.00024346295
0.00030462263
0.00036413659
0.00042288759
0.00046306826
0.00050226642
0.00053227361
0.00058151263
0.0006549871
0.00074971082
0.00085214991
0.00095017116
0.0010298929
0.0010797
0.0010877362
0.0010446408
0.00094441875
0.00078923025
0.00059290765
0.00038336073
0.00020128788
9.4679914e-05
0.00010959536
0.00028023086
0.00062141981
0.0011259815
0.0017674229
0.0025064549
0.0032987653
0.0041017692
0.0048790449
0.0056022361
0.0062508983
0.0068109592
0.0072723538
4.2711241e-05
2.6086114e-05
1.6402037e-05
1.0646724e-05
6.3113984e-06
2.9460917e-06
7.1736294e-05
0.00011638604
0.00017531884
0.00024410916
0.00031713481
0.00039008035
0.00045817969
0.00051563091
0.00055093538
0.00059353656
0.00063435098
0.00070521868
0.00080268529
0.00091764227
0.0010343549
0.0011397641
0.0012197428
0.0012624074
0.0012548032
0.0011867977
0.0010533289
0.00085996856
0.00062650572
0.00038837837
0.0001935452
9.4795691e-05
0.00013886093
0.00035623745
0.00075479609
0.0013191917
0.0020156713
0.0027999765
0.003625542
0.0044498787
0.005238267
0.005964879
0.0066120356
0.0071683169
0.0076260729
6.6999922e-05
4.265139e-05
2.8538995e-05
1.9307663e-05
1.3088305e-05
7.7473761e-06
3.5130985e-06
0.000107237
0.00016522223
0.00023847341
0.00032227056
0.00040980643
0.00049429094
0.00056171009
0.00061485832
0.00064897754
0.00070342483
0.00076316869
0.00086030873
0.00098181479
0.0011155956
0.0012440856
0.0013546459
0.0014327332
0.0014651338
0.001437087
0.0013378856
0.001164412
0.00092711477
0.00065324842
0.00038677699
0.00018300399
9.8520989e-05
0.00017905254
0.00044958162
0.00090968099
0.0015353183
0.0022857247
0.003112401
0.003967385
0.0048090289
0.0056048193
0.0063317272
0.006974926
0.007525624
0.0079785127
0.00010152194
6.6820323e-05
4.6042728e-05
3.2664506e-05
2.2611036e-05
1.5352859e-05
8.8518724e-06
3.8865654e-06
0.00015551661
0.00022924145
0.00031983299
0.00042146597
0.00052439304
0.00061096036
0.00067324692
0.00072478406
0.00076551312
0.00084032918
0.0009250175
0.0010494465
0.0011939952
0.001344341
0.0014827324
0.0015970845
0.0016711998
0.0016892526
0.0016344859
0.0014964259
0.0012753121
0.00098822192
0.00067140356
0.00037811806
0.00017065955
0.00010795946
0.00023275092
0.00056264071
0.0010877539
0.0017751395
0.0025775233
0.0034430433
0.0043232474
0.0051780304
0.0059775256
0.0067017003
0.0073386147
0.0078820486
0.0083289389
0.0001494458
0.00010125385
7.1217118e-05
5.181792e-05
3.7350702e-05
2.5577067e-05
1.7028342e-05
9.5231193e-06
4.0229926e-06
0.00021974792
0.00031257461
0.00042414807
0.00054579773
0.00065486927
0.00073858412
0.00079676452
0.00085328315
0.00090844169
0.001010848
0.0011222388
0.0012746232
0.0014401438
0.001605346
0.0017532111
0.0018705018
0.0019377015
0.0019356539
0.0018461127
0.001660114
0.0013830613
0.0010405831
0.00067936571
0.00036237273
0.00015801121
0.00012563104
0.00030274082
0.00069776392
0.0012904998
0.0020391724
0.0028907582
0.0037910379
0.004691975
0.005555655
0.0063552146
0.0070737498
0.0077021968
0.0082368166
0.0086766758
0.00021387024
0.00014945958
0.00010648253
7.8687184e-05
5.8436853e-05
4.1497763e-05
2.7630674e-05
1.7936928e-05
9.7389481e-06
3.9015937e-06
0.00030405336
0.00042043677
0.0005563235
0.00068999377
0.0007999479
0.00088087703
0.00093932624
0.0010068704
0.0010849066
0.0012176794
0.0013582365
0.0015368889
0.0017217842
0.0019021574
0.0020601265
0.0021788756
0.0022343941
0.0022043649
0.0020700721
0.001825769
0.0014841352
0.0010813698
0.00067580917
0.00034005789
0.0001471241
0.00015445376
0.00039194557
0.00085720192
0.0015191604
0.0023276506
0.0032248822
0.0041553549
0.0050723301
0.0059406482
0.0067367297
0.0074468698
0.0080648251
0.0085892151
0.0090211069
0.00029874667
0.00021431738
0.00015554347
0.00011523085
8.7189323e-05
6.4275034e-05
4.427804e-05
2.8544091e-05
1.8035817e-05
9.5205408e-06
3.6479325e-06
0.00041398932
0.00055820793
0.00071232629
0.00085319328
0.00096351447
0.0010445827
0.0011073419
0.0011933033
0.0012980379
0.001465491
0.0016345233
0.0018374778
0.0020429216
0.0022405084
0.0024089893
0.002525855
0.0025625273
0.0024942728
0.0023033497
0.0019893357
0.0015745765
0.0011078025
0.00065986985
0.00031232751
0.0001406533
0.00019769663
0.00050334837
0.0010430333
0.0017746885
0.002640518
0.0035791207
0.0045348263
0.0054630069
0.0063317445
0.0071209437
0.0078201118
0.0084257175
0.0089385893
0.0093616718
0.00040968202
0.0002995905
0.00022099166
0.00016525419
0.00012491155
9.4555583e-05
6.8133201e-05
4.5368991e-05
2.827619e-05
1.7454607e-05
9.1552617e-06
3.2421805e-06
0.0005550299
0.00072335628
0.00089192194
0.001039673
0.0011519627
0.0012354804
0.0013076318
0.0014174366
0.0015527239
0.0017560627
0.0019519576
0.0021808073
0.0024103787
0.0026276425
0.0028051237
0.0029141973
0.00292214
0.00280295
0.0025417582
0.0021459724
0.0016501543
0.0011173623
0.00063130901
0.00028105807
0.0001418332
0.00025891068
0.00063990082
0.0012570921
0.0020577188
0.0029774294
0.0039524931
0.0049281559
0.0058626485
0.0067276861
0.0075067842
0.0081925956
0.008784146
0.0092843322
0.0097141831
0.00055197944
0.00041047679
0.00030635654
0.00023107245
0.0001753384
0.00013287646
9.9134445e-05
6.9540601e-05
4.4709618e-05
2.7144956e-05
1.6523795e-05
8.3093791e-06
2.8234735e-06
0.00072611614
0.00091636129
0.0011000412
0.001255698
0.0013703519
0.0014596366
0.0015458246
0.0016844486
0.0018511113
0.0020890185
0.0023153372
0.002574653
0.002833163
0.0030707731
0.0032529738
0.0033454048
0.0033118008
0.0031265413
0.0027799683
0.0022901749
0.0017065711
0.0011080051
0.00059067841
0.00024892328
0.00015445053
0.00034183292
0.00080442465
0.0015009085
0.0023685495
0.0033377593
0.0043438197
0.0053339431
0.0062698744
0.0071272624
0.0078932485
0.0085634877
0.0091394159
0.0096406084
0.010086371
0.00072567557
0.00055170423
0.00041614736
0.00031590504
0.00024060663
0.00018279165
0.00013706051
0.00010033421
6.8406296e-05
4.2873497e-05
2.5445195e-05
1.4979738e-05
7.6913712e-06
2.4038843e-06
0.00092846739
0.0011429131
0.0013429473
0.0015057249
0.0016242997
0.001723036
0.0018277252
0.0019979373
0.0021930226
0.0024696268
0.0027327528
0.0030297907
0.0033204695
0.0035761959
0.0037557858
0.0038194636
0.0037285075
0.0034597295
0.0030115635
0.0024159559
0.0017397132
0.0010784093
0.00053948073
0.00021943764
0.00018276831
0.00045027171
0.00099951979
0.0017756633
0.0027071296
0.0037205986
0.0047517403
0.0057507177
0.0066833354
0.0075293294
0.0082793669
0.008931965
0.0095048887
0.010015482
0.010468166
0.00093265189
0.00072431055
0.00055435726
0.00042353296
0.00032367284
0.00024627918
0.00018518363
0.00013685117
9.8098179e-05
6.5669575e-05
4.0109068e-05
2.301791e-05
1.3750051e-05
6.6953312e-06
2.0009391e-06
0.0011684302
0.0014092203
0.001624539
0.0017947222
0.0019201563
0.0020325358
0.0021600571
0.0023546973
0.0025833172
0.0029059196
0.003217047
0.0035576663
0.003880463
0.0041491447
0.004315315
0.0043346869
0.0041675398
0.0037957165
0.0032291679
0.0025170784
0.0017459462
0.001028219
0.0004802848
0.00019692695
0.00023141516
0.00058798814
0.0012274855
0.0020821441
0.0030730337
0.0041247656
0.0051747638
0.0061770139
0.0071017376
0.0079327541
0.008664147
0.0093113514
0.0098888474
0.010401509
0.010859432
0.0011797769
0.00093054594
0.00072237126
0.00055707836
0.00042764153
0.0003261288
0.00024545549
0.0001820506
0.00013235146
9.3820718e-05
6.1397683e-05
3.6393934e-05
2.0886477e-05
1.2037354e-05
5.6884865e-06
1.7466191e-06
0.0014524325
0.0017185328
0.0019486766
0.0021291531
0.0022662175
0.0023968642
0.002539826
0.0027537708
0.0030277012
0.0034131418
0.0037817938
0.0041682256
0.0045205209
0.0047934175
0.0049316765
0.0048875739
0.004622387
0.0041262668
0.0034246246
0.002587359
0.0017224317
0.0009582669
0.0004167856
0.00018644712
0.00030525624
0.00075858315
0.0014902341
0.0024206823
0.003465459
0.0045488679
0.0056113621
0.0066113986
0.0075237629
0.0083363322
0.009061634
0.0097100346
0.010285586
0.010798498
0.011260001
0.0014742066
0.0011774762
0.00092266614
0.00071771836
0.00055473702
0.00042484783
0.00032061813
0.00023798597
0.00017382778
0.00012552853
8.726248e-05
5.5974889e-05
3.2902093e-05
1.8324341e-05
1.0353707e-05
4.6997912e-06
1.5120287e-06
0.0017828384
0.0020732103
0.0023224427
0.0025191556
0.0026736073
0.0028137784
0.0029596233
0.0032030492
0.0035427069
0.0040080237
0.0044385997
0.0048712441
0.0052466485
0.0055113094
0.0056031352
0.005472591
0.005084657
0.0044417883
0.0035892468
0.0026210258
0.0016674605
0.00087076289
0.00035382407
0.00019369322
0.00040925929
0.00096536416
0.0017891761
0.0027911224
0.0038832942
0.0049914176
0.0060600018
0.0070523574
0.0079479534
0.0087556486
0.009480194
0.010123258
0.010694872
0.011206204
0.01166967
0.0018169964
0.0014735849
0.0011622959
0.00090784321
0.00070548775
0.00054386431
0.00041271166
0.00030754893
0.00022479626
0.00016322094
0.00011567086
7.9522312e-05
5.0629792e-05
2.9030117e-05
1.5678988e-05
8.6074039e-06
3.68994e-06
1.2996938e-06
0.0021595775
0.0024802065
0.002757635
0.0029784155
0.0031415533
0.0032732871
0.0034258085
0.0037167258
0.0041488219
0.0047033051
0.0051994722
0.0056750855
0.0060636192
0.0063034446
0.0063259275
0.0060820194
0.0055440362
0.0047314674
0.0037141575
0.0026131255
0.0015807843
0.00076944777
0.00029736412
0.00022486095
0.00054831396
0.0012111598
0.0021251424
0.0031928995
0.0043252604
0.005450861
0.0065189826
0.0074981447
0.0083923435
0.0091989092
0.0099152424
0.010550764
0.011116408
0.011624325
0.012088207
0.002206278
0.001819256
0.0014509463
0.0011340283
0.00088187506
0.00068277259
0.0005222144
0.0003923327
0.00028830522
0.00020942515
0.00014877449
0.00010488259
7.1814428e-05
4.5025694e-05
2.4844382e-05
1.3127109e-05
6.8933226e-06
3.1367501e-06
1.06347e-06
0.0025891891
0.0029527713
0.00326993
0.0035090422
0.0036580713
0.0037771308
0.0039529055
0.0043169641
0.0048584022
0.0055139354
0.0060750859
0.0065873793
0.0069749259
0.0071684694
0.0070939029
0.0067057467
0.0059882963
0.0049835295
0.0037907332
0.0025599984
0.0014639208
0.00065966375
0.00025439759
0.00028644105
0.00072696984
0.0014981781
0.0024984605
0.0036251943
0.0047899263
0.0059253542
0.0069862486
0.0079702452
0.0088648266
0.0096608568
0.010366515
0.010992223
0.011549817
0.012052507
0.012515341
0.0026475989
0.0022107657
0.001789116
0.0014072897
0.0010897045
0.00084282589
0.00064789517
0.00049209119
0.00036574485
0.00026745694
0.00018944197
0.00013402912
9.428005e-05
6.3931382e-05
3.8664731e-05
2.1002411e-05
1.0788282e-05
5.8399218e-06
2.3865105e-06
8.5387513e-07
0.0030859723
0.0035075658
0.0038644903
0.0040962386
0.0042202975
0.004337199
0.0045624408
0.0050160672
0.0056899255
0.0064525307
0.0070762151
0.0076148073
0.0079823015
0.0081026347
0.0078982127
0.0073311342
0.0064033881
0.0051856063
0.003811113
0.0024597383
0.0013204157
0.00054840149
0.00023275817
0.0003848835
0.00094921077
0.0018280702
0.0029091279
0.0040869243
0.0052754038
0.006412532
0.0074878574
0.0084760781
0.009358521
0.010141237
0.010833669
0.011447205
0.011994652
0.012490338
0.012950776
0.0031557343
0.0026535482
0.0021717614
0.0017278246
0.0013406545
0.0010291925
0.00079024049
0.00060471674
0.00045614111
0.00033854438
0.00024132057
0.00017029423
0.00011969814
8.3578332e-05
5.4956584e-05
3.2863888e-05
1.7575376e-05
9.2538445e-06
4.714088e-06
2.0801258e-06
6.6333099e-07
0.0036662683
0.0041516313
0.004526687
0.0047353308
0.0048398606
0.0049708528
0.0052642424
0.005839879
0.0066557347
0.0075327118
0.0082130009
0.008762638
0.0090851993
0.0090994231
0.0087270631
0.0079428717
0.0067736346
0.0053252424
0.003768825
0.002312668
0.00115607
0.00044420156
0.00024074644
0.0005262837
0.0012185006
0.0022021113
0.0033567407
0.0045763271
0.0057790582
0.0069442755
0.0080306342
0.0090060787
0.009873202
0.010639715
0.011316243
0.011915195
0.012450389
0.012937358
0.013394179
0.0037454887
0.0031620362
0.0026053048
0.0020907965
0.0016349692
0.0012532742
0.00095381203
0.00073017131
0.00055657915
0.00042113713
0.00030535305
0.00021754064
0.00015123693
0.00010556973
7.1606172e-05
4.6854459e-05
2.7821653e-05
1.5236223e-05
7.8321359e-06
4.0690114e-06
1.599509e-06
5.0356689e-07
0.0043371514
0.0048738395
0.0052501194
0.0054385573
0.0055320038
0.0057086284
0.0060847097
0.0067978142
0.0077726192
0.0087688901
0.0094946521
0.010034256
0.010280451
0.010149148
0.0095652768
0.0085229451
0.0070820871
0.0053905831
0.0036594939
0.0021218277
0.00097901725
0.00035678685
0.00028672454
0.00071640245
0.0015379547
0.0026210369
0.0038399334
0.0050906034
0.0063399162
0.0075267893
0.0086011221
0.009560079
0.01040857
0.011155823
0.011813677
0.012395579
0.012916435
0.013393052
0.013845188
0.0044235097
0.0037497901
0.0031033909
0.0025028983
0.0019681704
0.0015158803
0.0011496106
0.00087261372
0.00066656899
0.00051170595
0.00037957714
0.00027652751
0.00019289798
0.00013306226
9.030272e-05
6.1430541e-05
4.0017113e-05
2.4232423e-05
1.3148135e-05
6.8542572e-06
3.3654616e-06
1.3532505e-06
3.7175313e-07
0.0050913454
0.0056664186
0.0060484927
0.0062232002
0.006327451
0.0065582795
0.0070351411
0.0079073665
0.0090580891
0.01017502
0.010928989
0.011430648
0.011561763
0.011238332
0.010393944
0.0090506963
0.0073111381
0.0053711788
0.0034815746
0.0018933313
0.0007994728
0.00029662548
0.00037913104
0.00096082133
0.0019100368
0.003084275
0.0043559374
0.0056772479
0.0069636992
0.0081413588
0.0091992394
0.010137849
0.010964178
0.011688978
0.012325295
0.012887662
0.013392127
0.013856882
0.01430348
0.0051853937
0.0044223441
0.003678105
0.0029771375
0.002347353
0.0018131692
0.0013787543
0.0010424636
0.00079043816
0.00060994227
0.00046037304
0.00034501713
0.00024548614
0.00017029626
0.00011433171
7.8075658e-05
5.2972339e-05
3.5078416e-05
2.1072876e-05
1.1591616e-05
5.9252962e-06
2.8881364e-06
1.0591406e-06
2.6983493e-07
0.0059226778
0.0065470555
0.0069420812
0.0071093477
0.0072332168
0.0075323115
0.008133429
0.009190374
0.010530182
0.011763944
0.012522033
0.012950084
0.012919049
0.012349008
0.011190119
0.0095031724
0.0074433715
0.0052590218
0.0032370838
0.0016363676
0.00062936225
0.00027495896
0.00052662273
0.0012644443
0.002335525
0.0035894115
0.0049619013
0.0063419384
0.0076249857
0.008788009
0.0098248544
0.010738991
0.011539445
0.012238465
0.012850317
0.013390653
0.013876781
0.014328346
0.014768642
0.0060281565
0.0051779412
0.004334003
0.0035238672
0.0027841088
0.0021523654
0.0016395635
0.001241898
0.00093771423
0.00072036315
0.00054770406
0.0004195612
0.00030670798
0.00021799693
0.00014752799
0.0001000121
6.8049501e-05
4.6816015e-05
3.0710717e-05
1.8573096e-05
1.0132205e-05
5.1648005e-06
2.413562e-06
8.6411288e-07
1.9211381e-07
0.006850279
0.0075384299
0.00794996
0.0081112205
0.0082707143
0.0086442674
0.009406967
0.01066791
0.012205995
0.013546673
0.014277451
0.014587415
0.014337449
0.013457906
0.011926678
0.0098557805
0.0074627141
0.0050496925
0.0029320217
0.0013629936
0.00048240051
0.00030397148
0.0007373265
0.0016301107
0.0028128388
0.0042040188
0.0056643637
0.0070511077
0.0083239161
0.0094667386
0.010477656
0.011362964
0.012133648
0.012803448
0.013387852
0.013903751
0.014369737
0.014806837
0.015240247
0.0069703393
0.0060169673
0.0050714862
0.0041469723
0.0032870814
0.0025434462
0.0019388998
0.001471128
0.0011119653
0.00085221964
0.00064618012
0.00050022245
0.00037383422
0.00027379288
0.0001907728
0.0001305348
8.8283925e-05
6.0665458e-05
4.1386947e-05
2.7129974e-05
1.6254374e-05
8.869906e-06
4.440175e-06
2.008923e-06
6.7089676e-07
1.3439303e-07
0.0079004246
0.0086618552
0.0090846359
0.0092428575
0.0094401075
0.0099228657
0.010877687
0.012360174
0.014102103
0.01553273
0.016196489
0.016333033
0.015796014
0.01453582
0.012572589
0.01008338
0.007355918
0.004743261
0.002576483
0.0010884087
0.00037440139
0.00039576247
0.0010169946
0.0020577451
0.0034199342
0.0049371135
0.0064203836
0.0078049978
0.0090606409
0.010177354
0.011157172
0.01200906
0.012745919
0.013382961
0.013937003
0.014426149
0.014870226
0.01529169
0.015717848
0.0080395533
0.0069572696
0.0058936893
0.0048471705
0.0038587644
0.0029932651
0.002285314
0.0017367409
0.0013156833
0.0010100428
0.00076494859
0.00059175549
0.00044719652
0.00033541718
0.00024228966
0.00017038294
0.00011655217
7.9359342e-05
5.4186666e-05
3.6808676e-05
2.3831354e-05
1.4195856e-05
7.6433588e-06