/*--------------------------------*- C++ -*----------------------------------*\
| =========                 |                                                 |
| \\      /  F ield         | OpenFOAM: The Open Source CFD Toolbox           |
|  \\    /   O peration     | Version:  5.0                                   |
|   \\  /    A nd           | Web:      www.OpenFOAM.org                      |
|    \\/     M anipulation  |                                                 |
\*---------------------------------------------------------------------------*/
FoamFile
{
    version     2.0;
    format      ascii;
    class       volVectorField;
    location    "220";
    object      U;
}
// * * * * * * * * * * * * * * * * * * * * * * * * * * * * * * * * * * * * * //

dimensions      [0 1 -1 0 0 0 0];

internalField   nonuniform List<vector> 
9520
(
(1.0142711 0.00016623497 0)
(1.0143704 0.00048728885 0)
(1.0137767 0.00016410496 0)
(1.0145455 0.00078554102 0)
(1.0138779 0.00048198062 0)
(1.0135879 0.00016341952 0)
(1.0147803 0.0010604487 0)
(1.0140578 0.00077875457 0)
(1.0136885 0.00047936636 0)
(1.0132777 0.00016709177 0)
(1.0150603 0.0013114557 0)
(1.0143012 0.0010538082 0)
(1.0138685 0.0007746006 0)
(1.0133789 0.00048910221 0)
(1.0130345 0.00017368182 0)
(1.0153726 0.001538152 0)
(1.0145943 0.001307629 0)
(1.0141128 0.001048901 0)
(1.0135599 0.00079007434 0)
(1.0131365 0.00050839337 0)
(1.0127544 0.00017940023 0)
(1.0157063 0.00174045 0)
(1.0149243 0.0015391237 0)
(1.0144082 0.0013042904 0)
(1.0138047 0.0010706638 0)
(1.0133182 0.00082181111 0)
(1.012856 0.00052677551 0)
(1.0124964 0.00018007156 0)
(1.016052 0.0019178615 0)
(1.0152808 0.0017482038 0)
(1.0147424 0.0015396283 0)
(1.014101 0.0013335981 0)
(1.0135634 0.001115363 0)
(1.0130359 0.00085421489 0)
(1.0125964 0.00053110468 0)
(1.0122401 0.00017579901 0)
(1.016403 0.0020697085 0)
(1.0156557 0.0019351752 0)
(1.0151048 0.0017545263 0)
(1.0144384 0.0015788874 0)
(1.01386 0.0013907986 0)
(1.013279 0.0011638153 0)
(1.0127732 0.00086486456 0)
(1.0123356 0.00052018141 0)
(1.012006 0.00016927016 0)
(1.0167556 0.0021946736 0)
(1.0160434 0.0021005559 0)
(1.0154858 0.0019490145 0)
(1.0148062 0.0018065529 0)
(1.0141986 0.0016495107 0)
(1.0135728 0.0014559985 0)
(1.0130129 0.0011839188 0)
(1.0125054 0.00085008735 0)
(1.0120968 0.00050102997 0)
(1.0117877 0.00016384267 0)
(1.0171113 0.0022887525 0)
(1.0164416 0.0022469808 0)
(1.015876 0.0021240196 0)
(1.0151942 0.0020162734 0)
(1.0145691 0.0018923186 0)
(1.0139075 0.0017333126 0)
(1.0133028 0.0014884587 0)
(1.0127369 0.0011684827 0)
(1.0122592 0.00082014987 0)
(1.0118738 0.00048388114 0)
(1.0115835 0.00016134358 0)
(1.0174724 0.0023610071 0)
(1.016852 0.0023825745 0)
(1.0162661 0.0022850844 0)
(1.0155908 0.0022079567 0)
(1.0149619 0.0021190932 0)
(1.014274 0.001997547 0)
(1.0136321 0.0017806149 0)
(1.0130176 0.0014776844 0)
(1.0124807 0.0011295029 0)
(1.0120286 0.00079215523 0)
(1.0116658 0.00047497537 0)
(1.0113881 0.00016114562 0)
(1.0178229 0.0024087207 0)
(1.017272 0.0025122223 0)
(1.0166421 0.0024395942 0)
(1.0159825 0.0023825641 0)
(1.0153675 0.0023286569 0)
(1.0146651 0.0022492109 0)
(1.0139923 0.0020625907 0)
(1.0133353 0.0017784923 0)
(1.0127503 0.0014342997 0)
(1.0122385 0.0010918918 0)
(1.0118131 0.00077678554 0)
(1.0114674 0.00047349794 0)
(1.0111993 0.00016088275 0)
(1.0181403 0.0024606192 0)
(1.0176167 0.0026556007 0)
(1.0169492 0.0026048332 0)
(1.0163493 0.0025371079 0)
(1.0157749 0.0025168075 0)
(1.0150767 0.0024871299 0)
(1.0143771 0.0023360412 0)
(1.0136811 0.0020725616 0)
(1.0130562 0.0017347909 0)
(1.0124926 0.0013889527 0)
(1.012012 0.0010714527 0)
(1.0116073 0.0007736233 0)
(1.0112759 0.00047304301 0)
(1.0110183 0.0001579543 0)
(1.01846 0.0024778373 0)
(1.0179145 0.002840142 0)
(1.017205 0.0027776697 0)
(1.0166901 0.0026662911 0)
(1.0161798 0.0026725834 0)
(1.0155109 0.0027055055 0)
(1.0147838 0.0026025025 0)
(1.0140477 0.0023618764 0)
(1.0133885 0.0020311568 0)
(1.012782 0.0016845534 0)
(1.0122519 0.0013641029 0)
(1.0117947 0.0010672441 0)
(1.0114087 0.00077313601 0)
(1.0110917 0.00046573573 0)
(1.0108486 0.00015077856 0)
(1.0187811 0.0025653138 0)
(1.0181806 0.0030081493 0)
(1.0174822 0.0029229627 0)
(1.0170377 0.0027449692 0)
(1.0166097 0.0027820354 0)
(1.01598 0.0028957468 0)
(1.0152127 0.0028650461 0)
(1.0144285 0.0026499299 0)
(1.013738 0.0023238975 0)
(1.0130975 0.0019788031 0)
(1.0125251 0.0016568412 0)
(1.0120198 0.001359335 0)
(1.0115851 0.0010663771 0)
(1.0112178 0.00076257158 0)
(1.0109182 0.000446185 0)
(1.0106946 0.0001393704 0)
(1.0191294 0.0025303636 0)
(1.0184158 0.0032429555 0)
(1.0176776 0.0030312547 0)
(1.0174039 0.0027666589 0)
(1.0170687 0.0028066202 0)
(1.0164901 0.0030577449 0)
(1.0156649 0.0031328397 0)
(1.0148174 0.0029441698 0)
(1.0140939 0.0026142417 0)
(1.0134305 0.0022707382 0)
(1.0128238 0.0019509779 0)
(1.0122752 0.0016527752 0)
(1.0117954 0.0013582855 0)
(1.0113837 0.0010525649 0)
(1.0110374 0.00073221233 0)
(1.0107601 0.0004136559 0)
(1.0105596 0.0001252472 0)
(1.0194483 0.0028024934 0)
(1.0185926 0.0034403728 0)
(1.0178025 0.0031205718 0)
(1.0177308 0.0027171068 0)
(1.0175172 0.0027968361 0)
(1.0170349 0.0031827268 0)
(1.0161508 0.0034113521 0)
(1.0152081 0.0032539973 0)
(1.0144449 0.0029049605 0)
(1.0137718 0.0025583493 0)
(1.0131408 0.0022459009 0)
(1.0125537 0.001950586 0)
(1.0120321 0.0016529033 0)
(1.0115791 0.0013405069 0)
(1.0111935 0.0010133041 0)
(1.0108718 0.00067966671 0)
(1.0106211 0.00037215085 0)
(1.0104441 0.00011074158 0)
(1.0198504 0.002583495 0)
(1.0187808 0.0038769815 0)
(1.0177477 0.0032677564 0)
(1.0179316 0.0026314052 0)
(1.0180494 0.0027297537 0)
(1.0175766 0.003297807 0)
(1.0166513 0.0037274534 0)
(1.015583 0.0035974541 0)
(1.0147775 0.0031987413 0)
(1.014112 0.0028375709 0)
(1.0134697 0.0025390371 0)
(1.0128502 0.0022539666 0)
(1.0122879 0.0019547888 0)
(1.0117956 0.0016326266 0)
(1.0113746 0.0012916176 0)
(1.0110185 0.00094359013 0)
(1.0107257 0.00061119972 0)
(1.0105025 0.00032846754 0)
(1.0103464 9.8013698e-05 0)
(1.0200562 0.0032880393 0)
(1.0187126 0.0041542897 0)
(1.0174916 0.0032898048 0)
(1.0180154 0.0023881107 0)
(1.0186085 0.0025732444 0)
(1.0182026 0.0033981101 0)
(1.0171367 0.0040899757 0)
(1.0159216 0.0039997165 0)
(1.0150676 0.0035058692 0)
(1.0144356 0.0031017337 0)
(1.0138049 0.0028242326 0)
(1.013162 0.0025621842 0)
(1.0125582 0.0022674019 0)
(1.0120252 0.0019343463 0)
(1.011571 0.001575086 0)
(1.0111865 0.001206264 0)
(1.0108621 0.0008481662 0)
(1.0106018 0.00053837241 0)
(1.0104027 0.00028908317 0)
(1.010263 8.8266943e-05 0)
(1.0203538 0.0027159514 0)
(1.0188552 0.0049597601 0)
(1.0169745 0.0036124023 0)
(1.0179844 0.0020275391 0)
(1.0192927 0.002223144 0)
(1.0189803 0.0035161324 0)
(1.0176399 0.0045135909 0)
(1.0161798 0.0044774782 0)
(1.0152807 0.0038273803 0)
(1.0147236 0.0033458047 0)
(1.0141399 0.0030921045 0)
(1.013489 0.0028712587 0)
(1.0128415 0.002593058 0)
(1.0122628 0.0022510861 0)
(1.011774 0.0018691722 0)
(1.0113636 0.001473717 0)
(1.0110179 0.0010872591 0)
(1.0107295 0.00074283692 0)
(1.0104991 0.00047191656 0)
(1.0103184 0.00025781436 0)
(1.0101905 8.1546443e-05 0)
(1.0200698 0.0040183466 0)
(1.018327 0.0053776076 0)
(1.0162273 0.0034308657 0)
(1.0178085 0.0015159516 0)
(1.020025 0.0017533071 0)
(1.0199656 0.0035843858 0)
(1.0182137 0.0050570005 0)
(1.0163572 0.0050440665 0)
(1.0153816 0.0041764129 0)
(1.0149364 0.0035406459 0)
(1.0144671 0.0033250004 0)
(1.0138347 0.0031736937 0)
(1.0131408 0.0029334826 0)
(1.0125058 0.0025881962 0)
(1.0119767 0.0021799327 0)
(1.0115412 0.0017509173 0)
(1.011179 0.0013307326 0)
(1.0108733 0.000949988 0)
(1.0106211 0.00064537761 0)
(1.0104141 0.00041763342 0)
(1.0102465 0.00023533489 0)
(1.0101256 7.7109727e-05 0)
(1.0197629 0.0030129512 0)
(1.0183932 0.0065904937 0)
(1.0149912 0.0042016315 0)
(1.0173816 0.0005981322 0)
(1.0209718 0.00089664925 0)
(1.0211906 0.003726722 0)
(1.0188644 0.0057699061 0)
(1.016414 0.0057533156 0)
(1.0153573 0.0045223232 0)
(1.0151152 0.0036971808 0)
(1.0147797 0.0034888848 0)
(1.0142085 0.0034511331 0)
(1.0134669 0.0032885814 0)
(1.0127555 0.0029532889 0)
(1.0121731 0.0025138665 0)
(1.0117107 0.0020431121 0)
(1.0113356 0.0015818278 0)
(1.0110204 0.0011603064 0)
(1.0107561 0.00081915922 0)
(1.0105336 0.00056612057 0)
(1.0103428 0.00037641566 0)
(1.0101839 0.0002201099 0)
(1.0100663 7.3973352e-05 0)
(1.0186083 0.0049806794 0)
(1.0163743 0.0072010025 0)
(1.0136617 0.0036121956 0)
(1.016711 -0.00017003454 0)
(1.0218526 -7.1059571e-05 0)
(1.0227254 0.0036724766 0)
(1.0196441 0.0067477341 0)
(1.0162987 0.006659244 0)
(1.0150803 0.0048977209 0)
(1.0151833 0.0037150123 0)
(1.0151403 0.0035673387 0)
(1.0146428 0.0036820627 0)
(1.0138402 0.003654296 0)
(1.0130196 0.0033557779 0)
(1.0123589 0.0028810428 0)
(1.0118634 0.0023556817 0)
(1.0114787 0.0018439113 0)
(1.0111602 0.0013762846 0)
(1.0108927 0.00099402556 0)
(1.0106629 0.00070992098 0)
(1.0104623 0.00050604411 0)
(1.010282 0.00034655786 0)
(1.0101281 0.00020967647 0)
(1.0100113 7.1240802e-05 0)
(1.0190634 0.0040891096 0)
(1.013861 0.0086622858 0)
(1.0107158 0.0052035489 0)
(1.0156322 -0.0019681546 0)
(1.0233469 -0.0016835626 0)
(1.0246224 0.0039395102 0)
(1.0205143 0.0080238751 0)
(1.0159634 0.0078674529 0)
(1.0144993 0.0052706226 0)
(1.0150945 0.0035981007 0)
(1.0155804 0.0034664314 0)
(1.0151492 0.0038138969 0)
(1.0143008 0.0040328283 0)
(1.0133126 0.0038112952 0)
(1.0125314 0.0032952714 0)
(1.0119895 0.0026962 0)
(1.0115981 0.0021197055 0)
(1.0112837 0.0015994898 0)
(1.01102 0.0011722424 0)
(1.0107923 0.00085255923 0)
(1.0105896 0.00062503648 0)
(1.0104036 0.00046062858 0)
(1.0102297 0.00032562709 0)
(1.0100773 0.00020149288 0)
(1.0099604 6.821444e-05 0)
(1.0179062 0.0064518714 0)
(1.0135698 0.009810624 0)
(1.0076294 0.0038656096 0)
(1.0141183 -0.003046775 0)
(1.0241442 -0.0033269258 0)
(1.0269593 0.0035355188 0)
(1.0216093 0.0097920875 0)
(1.0153235 0.0094231206 0)
(1.0134957 0.0057224391 0)
(1.0147712 0.0032231665 0)
(1.0160485 0.0031596619 0)
(1.0158013 0.0038919791 0)
(1.0148473 0.0044050077 0)
(1.013661 0.004343488 0)
(1.012689 0.0037806805 0)
(1.0120763 0.0030743879 0)
(1.0116824 0.0024111201 0)
(1.011382 0.0018302077 0)
(1.0111296 0.0013552282 0)
(1.0109105 0.00099653536 0)
(1.0107144 0.00073952386 0)
(1.0105322 0.00055981731 0)
(1.010355 0.00042496255 0)
(1.0101845 0.00031039857 0)
(1.0100305 0.00019323509 0)
(1.0099135 6.4467136e-05 0)
(1.0115842 0.0054609408 0)
(1.0126113 0.011789407 0)
(1.0049619 0.005938273 0)
(1.0120651 -0.0060222174 0)
(1.0258856 -0.0059731696 0)
(1.0294486 0.0042172704 0)
(1.0226682 0.011932812 0)
(1.0142976 0.011442151 0)
(1.0119769 0.006174574 0)
(1.0141319 0.0026089809 0)
(1.0165367 0.0024918919 0)
(1.0167075 0.0038829959 0)
(1.0155056 0.0048222777 0)
(1.0140465 0.004990804 0)
(1.0128263 0.004371435 0)
(1.012107 0.0035072665 0)
(1.0117155 0.0027188833 0)
(1.0114454 0.002065302 0)
(1.0112151 0.0015426135 0)
(1.0110098 0.0011440664 0)
(1.0108259 0.00085309111 0)
(1.0106555 0.00064953979 0)
(1.0104878 0.00050729422 0)
(1.0103157 0.00039573223 0)
(1.0101452 0.0002961168 0)
(1.0099877 0.00018291576 0)
(1.009871 5.9863342e-05 0)
(0.99820016 0.0087350079 0)
(0.99931553 0.012822023 0)
(1.0020033 0.0043407741 0)
(1.010026 -0.0079055722 0)
(1.0268168 -0.0081982606 0)
(1.0316959 0.0031133625 0)
(1.0241536 0.014984436 0)
(1.0126619 0.014056324 0)
(1.0097194 0.0067610287 0)
(1.0130954 0.0015526886 0)
(1.0170693 0.0014331113 0)
(1.0179199 0.0036488254 0)
(1.0164402 0.00531583 0)
(1.0144624 0.0057826771 0)
(1.0129178 0.0051209596 0)
(1.012049 0.0040149368 0)
(1.0116757 0.003043602 0)
(1.0114624 0.0022979557 0)
(1.0112717 0.0017295854 0)
(1.011086 0.001295799 0)
(1.0109164 0.00096957372 0)
(1.0107627 0.00073494211 0)
(1.0106131 0.00057435446 0)
(1.010455 0.00046088978 0)
(1.010285 0.00036905197 0)
(1.0101109 0.00027770508 0)
(1.0099498 0.00016937724 0)
(1.0098336 5.4561576e-05 0)
(0.98488104 0.0089263101 0)
(0.98243098 0.015075023 0)
(0.99001346 0.0069836321 0)
(1.0079455 -0.011854767 0)
(1.0295453 -0.012114485 0)
(1.0344493 0.0045454185 0)
(1.024728 0.018428077 0)
(1.0103729 0.017287328 0)
(1.0066067 0.0074155933 0)
(1.0115129 0.00012464279 0)
(1.0176388 -0.00029952547 0)
(1.0195447 0.0031893486 0)
(1.0177504 0.0058830238 0)
(1.0150221 0.006796638 0)
(1.0129135 0.006059437 0)
(1.0118706 0.004632493 0)
(1.0115271 0.0033838304 0)
(1.0114166 0.0025142203 0)
(1.0112955 0.0019052249 0)
(1.0111393 0.0014485358 0)
(1.0109831 0.0010919649 0)
(1.0108454 0.00082200319 0)
(1.010719 0.00063248103 0)
(1.010586 0.00050554195 0)
(1.0104333 0.00041535101 0)
(1.0102621 0.00033973331 0)
(1.0100818 0.00025283866 0)
(1.0099173 0.00015309409 0)
(1.0098013 4.9054777e-05 0)
(0.97034284 0.011501978 0)
(0.96798639 0.01661643 0)
(0.97664581 0.0037803621 0)
(1.0023798 -0.013982945 0)
(1.0308446 -0.01494955 0)
(1.0392831 0.0032766013 0)
(1.0242653 0.023163055 0)
(1.0065836 0.021491362 0)
(1.0022366 0.0081640687 0)
(1.0093242 -0.0020271682 0)
(1.0182555 -0.0026366634 0)
(1.021674 0.0022590902 0)
(1.0195775 0.0065927956 0)
(1.0157797 0.0081349495 0)
(1.012812 0.0072748323 0)
(1.0115053 0.0053857304 0)
(1.0112236 0.0037353371 0)
(1.0112837 0.0026919982 0)
(1.011283 0.0020488688 0)
(1.0111747 0.001593111 0)
(1.0110294 0.0012211788 0)
(1.0109007 0.00091679576 0)
(1.0107955 0.00068962993 0)
(1.010694 0.00053629433 0)
(1.0105731 0.0004374347 0)
(1.0104225 0.0003678411 0)
(1.0102464 0.00030442752 0)
(1.0100583 0.00022327106 0)
(1.0098904 0.00013611791 0)
(1.0097737 4.4057105e-05 0)
(0.95400945 0.01254625 6.9013759e-24)
(0.95216179 0.017857275 0)
(0.96382609 0.0043063103 0)
(0.99614788 -0.020147097 0)
(1.0309316 -0.020343406 0)
(1.0419573 0.0053410052 0)
(1.0262949 0.027586727 0)
(1.0014497 0.026121165 0)
(0.99650621 0.0091281891 0)
(1.0062527 -0.0047544548 0)
(1.0189975 -0.0060704791 0)
(1.0244806 0.00096498382 0)
(1.0220494 0.0073585553 0)
(1.0168259 0.0099403494 0)
(1.012586 0.008885907 0)
(1.0108451 0.0063156526 0)
(1.0107049 0.0040940644 0)
(1.0110298 0.0027957904 0)
(1.0112314 0.0021283027 0)
(1.0112035 0.0017115594 0)
(1.0110665 0.0013546811 0)
(1.0109325 0.0010256129 0)
(1.0108382 0.00075482175 0)
(1.010767 0.0005621123 0)
(1.0106868 0.00044076587 0)
(1.0105736 0.0003670132 0)
(1.0104215 0.00031531175 0)
(1.0102371 0.00026126125 0)
(1.0100415 0.00019360058 0)
(1.0098684 0.00012082494 0)
(1.0097499 4.0266556e-05 0)
(0.93537825 0.014779729 -4.5022907e-24)
(0.93461539 0.019584485 -7.2084706e-24)
(0.95056947 0.00045480237 0)
(0.98791218 -0.024389936 0)
(1.0284892 -0.023560776 0)
(1.0419648 0.00146687 0)
(1.0346722 0.034981314 0)
(0.99736793 0.031494529 0)
(0.98911738 0.00983183 0)
(1.0023925 -0.0085409623 0)
(1.019772 -0.010365392 0)
(1.028065 -0.0011458888 0)
(1.0253851 0.0083732045 0)
(1.0182196 0.012324357 0)
(1.0122019 0.0110686 0)
(1.0097922 0.0074791623 0)
(1.0098602 0.004449114 0)
(1.0106104 0.0027761316 0)
(1.011136 0.0020956194 0)
(1.011244 0.0017755784 0)
(1.0111141 0.0014849721 0)
(1.0109524 0.001154556 0)
(1.0108476 0.00083984465 0)
(1.0107972 0.00059441944 0)
(1.01076 0.00043343294 0)
(1.0106967 0.00034039742 0)
(1.0105877 0.00028904305 0)
(1.0104301 0.00025400929 0)
(1.0102349 0.00021415527 0)
(1.0100305 0.00016692345 0)
(1.0098505 0.00010905816 0)
(1.0097288 3.8196208e-05 0)
(0.91529795 0.016557298 4.5200421e-24)
(0.915224 0.021151383 2.6734302e-23)
(0.93376633 -0.00091675369 0)
(0.97845844 -0.029889769 0)
(1.02041 -0.028536535 0)
(1.0372951 0.0048157202 0)
(1.0319215 0.040754121 0)
(0.99597388 0.039071713 0)
(0.98090147 0.011038478 0)
(0.99730021 -0.013404218 0)
(1.0208294 -0.016265702 0)
(1.0326089 -0.0037534317 0)
(1.0297146 0.0093840814 0)
(1.0200985 0.015517812 0)
(1.0115943 0.013979289 0)
(1.0082059 0.009004684 0)
(1.0085524 0.0047514048 0)
(1.0099621 0.0025781596 0)
(1.010988 0.0018847944 0)
(1.0113083 0.0017403337 0)
(1.0111988 0.0015985801 0)
(1.0109813 0.0013123168 0)
(1.0108317 0.00096090589 0)
(1.0107802 0.00064889237 0)
(1.0107809 0.00042738027 0)
(1.010775 0.00029516726 0)
(1.0107253 0.00022868911 0)
(1.0106159 0.00020196569 0)
(1.0104479 0.00018865127 0)
(1.0102397 0.00017192733 0)
(1.0100242 0.00014585012 0)
(1.0098353 0.00010215249 0)
(1.0097091 3.8122465e-05 0)
(0.89501989 0.018498774 0)
(0.89524198 0.02292711 -2.6779195e-23)
(0.91547698 -0.003892642 0)
(0.96430825 -0.035206903 0)
(1.010635 -0.030248978 0)
(1.0252578 0.0051259673 0)
(1.0089428 0.049081939 0)
(0.98489286 0.04825745 0)
(0.97019742 0.011819035 0)
(0.99129108 -0.019276456 0)
(1.0217656 -0.023177583 0)
(1.0381565 -0.00763743 0)
(1.0353085 0.010834107 0)
(1.0224761 0.019646125 0)
(1.0106985 0.017868943 0)
(1.0059215 0.010947339 0)
(1.0066186 0.0050214554 0)
(1.0089909 0.0020823854 0)
(1.0107793 0.0013975258 0)
(1.0114599 0.0015672284 0)
(1.0113448 0.0016761956 0)
(1.0110514 0.0015057993 0)
(1.0108073 0.0011392987 0)
(1.0107168 0.00074697913 0)
(1.0107392 0.00043929403 0)
(1.010793 0.00024245338 0)
(1.0108153 0.00014118799 0)
(1.0107727 0.00010780886 0)
(1.0106559 0.00011276596 0)
(1.0104739 0.00012777101 0)
(1.0102503 0.00013729601 0)
(1.0100213 0.00013270473 0)
(1.0098216 0.00010087282 0)
(1.0096899 4.0090986e-05 0)
(0.87486855 0.020283491 -3.3211652e-24)
(0.87578645 0.02455635 0)
(0.8963767 -0.0064878735 -3.1980967e-23)
(0.94729525 -0.040489301 0)
(0.99737406 -0.034774305 0)
(1.0121659 0.010965363 0)
(0.98865065 0.05695817 0)
(0.96185137 0.056207465 0)
(0.95677908 0.015189738 0)
(0.98317158 -0.026815281 0)
(1.0228812 -0.032060684 0)
(1.0445719 -0.011890723 0)
(1.042052 0.012176812 0)
(1.0255139 0.025043685 0)
(1.009361 0.022962215 0)
(1.0026954 0.013510968 0)
(1.0038681 0.0051599761 0)
(1.0075851 0.0012134673 0)
(1.0104956 0.0004953816 0)
(1.0117352 0.0011353606 0)
(1.0116784 0.0016990734 0)
(1.0112167 0.0017337206 0)
(1.0108041 0.0013964296 0)
(1.0106144 0.0009177611 0)
(1.010628 0.00049289511 0)
(1.0107344 0.00019836038 0)
(1.010839 3.4685283e-05 0)
(1.010882 -2.3474911e-05 0)
(1.0108371 -1.3617377e-05 0)
(1.0107068 2.8423007e-05 0)
(1.0105066 7.7385394e-05 0)
(1.0102656 0.00011363707 0)
(1.010021 0.00012836418 0)
(1.0098093 0.00010518172 0)
(1.0096699 4.4095945e-05 0)
(0.85586699 0.021814737 -2.9158151e-24)
(0.85748515 0.026147626 5.116974e-23)
(0.87744955 -0.0094608042 3.1966882e-23)
(0.92838556 -0.046081248 2.0432949e-23)
(0.98072093 -0.038724873 -1.2934622e-22)
(0.99699944 0.013394384 0)
(0.97139945 0.066390977 0)
(0.94211698 0.063406008 0)
(0.94140151 0.015993268 0)
(0.9729926 -0.034944807 0)
(1.0232789 -0.041842895 0)
(1.0518155 -0.017992662 0)
(1.049773 0.014321334 0)
(1.0288557 0.03184516 0)
(1.007464 0.029524048 0)
(0.9982837 0.016750854 0)
(1.0000467 0.0052375007 0)
(1.005606 -0.00024740973 0)
(1.0101203 -0.00094059804 0)
(1.0121925 0.0003319527 0)
(1.0122867 0.001604969 0)
(1.0115337 0.0019867852 0)
(1.0108758 0.0017681655 0)
(1.0104881 0.0011963032 0)
(1.0104415 0.00061898492 0)
(1.0105847 0.00018496978 0)
(1.0107756 -7.6796656e-05 0)
(1.0109212 -0.0001864219 0)
(1.0109728 -0.00018835207 0)
(1.0109179 -0.00012873699 0)
(1.0107669 -4.2845883e-05 0)
(1.0105445 4.1265088e-05 0)
(1.0102837 0.00010344704 0)
(1.0100219 0.00013105675 0)
(1.0097962 0.00011525037 0)
(1.0096483 4.9944971e-05 0)
(0.83910037 0.023022223 7.3685206e-24)
(0.841262 0.027474608 -7.5344393e-23)
(0.85958696 -0.012256944 0)
(0.90832434 -0.051520778 9.7183055e-23)
(0.96101345 -0.042303917 1.2871858e-22)
(0.98011443 0.015151219 1.5849277e-22)
(0.95335617 0.075133018 8.1836132e-23)
(0.924173 0.068199133 0)
(0.92583425 0.016973388 0)
(0.96444442 -0.046039004 0)
(1.0241422 -0.054723801 0)
(1.0608641 -0.023563943 0)
(1.0584124 0.016325985 0)
(1.0320313 0.040612311 0)
(1.004425 0.037913742 0)
(0.99231446 0.020893842 0)
(0.99490085 0.0050569156 0)
(1.0029077 -0.0023429909 0)
(1.0096128 -0.0031669302 0)
(1.0129087 -0.00096301214 0)
(1.0132647 0.0013150046 0)
(1.0121617 0.0023390768 0)
(1.0110394 0.0022646068 0)
(1.0103764 0.0016448954 0)
(1.0101762 0.00086061853 0)
(1.0103254 0.00022998123 0)
(1.0106035 -0.00017659058 0)
(1.0108677 -0.00037270333 0)
(1.011038 -0.00040875204 0)
(1.0110856 -0.00034464901 0)
(1.0110117 -0.00022818018 0)
(1.0108347 -9.6193677e-05 0)
(1.0105863 2.2023792e-05 0)
(1.0103011 0.00010690948 0)
(1.0100213 0.00014693726 0)
(1.0097814 0.00013108443 0)
(1.0096244 5.7350074e-05 0)
(0.82561941 0.023942466 1.1626667e-24)
(0.82792411 0.028534889 1.670091e-23)
(0.84347433 -0.014992983 -1.7405441e-25)
(0.8881623 -0.056641872 -6.2863469e-23)
(0.93986273 -0.046564325 -1.2199228e-22)
(0.9597245 0.018700977 1.5783726e-22)
(0.93624357 0.08262432 6.5303041e-23)
(0.90564318 0.076825266 1.0638333e-23)
(0.91037231 0.012376759 0)
(0.95535142 -0.056881227 0)
(1.0255812 -0.068697267 0)
(1.0733792 -0.03430835 0)
(1.0710718 0.019739873 0)
(1.0351504 0.051337772 0)
(0.9995089 0.048145229 0)
(0.98438717 0.026073571 0)
(0.98804923 0.0047040838 0)
(0.99932133 -0.0054488522 0)
(1.0089537 -0.0062845398 0)
(1.0139663 -0.0029846491 0)
(1.0147605 0.00076986596 0)
(1.0132331 0.0027528702 0)
(1.0114182 0.00299834 0)
(1.0102711 0.0023052475 0)
(1.0098406 0.0012806477 0)
(1.0099384 0.00037549598 0)
(1.0102963 -0.00024245985 0)
(1.0106951 -0.00057095615 0)
(1.0110094 -0.00067117139 0)
(1.0111865 -0.00062058723 0)
(1.0112173 -0.00048222576 0)
(1.0111153 -0.00030528856 0)
(1.0109078 -0.00012855988 0)
(1.0106293 2.0918485e-05 0)
(1.0103201 0.00012502037 0)
(1.0100194 0.00017202216 0)
(1.0097643 0.00015180113 0)
(1.0095976 6.5918484e-05 0)
(0.81567105 0.024444379 -4.0535087e-24)
(0.8179983 0.029212558 -3.4221906e-25)
(0.83033704 -0.017327116 0)
(0.86838485 -0.061312497 1.0057927e-23)
(0.91738641 -0.050237525 -7.3264553e-23)
(0.93884821 0.020898699 0)
(0.91660751 0.091291699 -3.5618025e-22)
(0.88902326 0.084189449 -3.3206738e-22)
(0.89237549 0.01406582 0)
(0.94842527 -0.070423034 0)
(1.0247788 -0.084324615 0)
(1.0815141 -0.041124778 0)
(1.0894685 0.021176462 0)
(1.0433512 0.063969813 0)
(0.99355872 0.060672459 0)
(0.97374208 0.032122103 0)
(0.97928572 0.003949129 0)
(0.9946304 -0.0095490861 0)
(1.0080988 -0.010732015 0)
(1.0154564 -0.0058241048 0)
(1.0169494 -0.00020783545 0)
(1.0149214 0.0032594261 0)
(1.0121482 0.0040401542 0)
(1.0102169 0.0032782351 0)
(1.0094204 0.0019530189 0)
(1.0093966 0.00066369219 0)
(1.0098241 -0.00024641319 0)
(1.0103739 -0.00076845965 0)
(1.0108604 -0.0009709601 0)
(1.0111973 -0.00095589676 0)
(1.0113621 -0.00080834365 0)
(1.0113635 -0.00059209796 0)
(1.0112264 -0.00035648597 0)
(1.0109832 -0.00013816441 0)
(1.010672 3.7737172e-05 0)
(1.0103367 0.00015643922 0)
(1.0100148 0.00020512029 0)
(1.0097441 0.00017642132 0)
(1.0095677 7.5270164e-05 0)
(0.81063028 0.024548366 0)
(0.81233268 0.0295652 0)
(0.82056143 -0.019433598 3.5400666e-25)
(0.85086441 -0.06524626 0)
(0.89431655 -0.053739819 1.7350205e-24)
(0.91621561 0.023695579 1.7114355e-22)
(0.89764603 0.099185465 5.6838683e-22)
(0.87159268 0.092535276 -1.7564809e-22)
(0.87551515 0.016178134 0)
(0.93384741 -0.083053256 0)
(1.0232975 -0.097022605 0)
(1.08271 -0.056050899 0)
(1.0972949 0.024028522 0)
(1.0579178 0.078229854 0)
(0.9914721 0.075051917 0)
(0.96055819 0.039400637 0)
(0.96801124 0.0026414532 0)
(0.98878183 -0.015172039 0)
(1.0069987 -0.016458792 0)
(1.0174804 -0.0099201803 0)
(1.0200356 -0.0016383409 0)
(1.0174265 0.0037872814 0)
(1.0133816 0.005508676 0)
(1.0103007 0.0047077875 0)
(1.0088679 0.0029477419 0)
(1.0086815 0.0011848315 0)
(1.0091425 -0.00015777225 0)
(1.009867 -0.00095493242 0)
(1.010561 -0.0013065228 0)
(1.0110929 -0.0013524069 0)
(1.0114239 -0.0012093321 0)
(1.0115584 -0.00096121267 0)
(1.0115201 -0.00066938915 0)
(1.0113412 -0.00037942358 0)
(1.0110585 -0.00012504455 0)
(1.010714 7.2937903e-05 0)
(1.0103508 0.00019970938 0)
(1.0100069 0.00024485772 0)
(1.0097205 0.0002038146 0)
(1.0095347 8.5021582e-05 0)
(0.81092975 0.029606562 -6.3490143e-25)
(0.81075817 0.024369386 0)
(0.81404323 -0.020987156 -9.7111651e-24)
(0.83644646 -0.068382849 -7.5927234e-24)
(0.87228421 -0.056787791 -1.0774023e-23)
(0.89341045 0.026084165 1.5623427e-23)
(0.87793665 0.10686822 1.8787527e-24)
(0.85526391 0.10048459 -2.5237252e-22)
(0.8584868 0.018286206 1.9328531e-22)
(0.91637356 -0.092309579 0)
(1.0132541 -0.11406275 -1.1620039e-21)
(1.0798487 -0.058783757 0)
(1.0969246 0.022340007 0)
(1.0723809 0.096869251 0)
(0.99188257 0.093153273 0)
(0.94682769 0.047875038 0)
(0.95416044 0.00081792778 0)
(0.98139843 -0.022292338 0)
(1.0057079 -0.024157948 0)
(1.020116 -0.015177345 0)
(1.0242382 -0.0038906587 0)
(1.0210318 0.0044470931 0)
(1.0152824 0.0074839427 0)
(1.010605 0.0067746897 0)
(1.0081891 0.0044194448 0)
(1.0077017 0.0019856876 0)
(1.0082024 7.2714117e-05 0)
(1.0091267 -0.001106915 0)
(1.0100743 -0.0016768665 0)
(1.0108462 -0.0018158175 0)
(1.0113806 -0.0016912733 0)
(1.0116797 -0.0014177834 0)
(1.0117692 -0.0010730729 0)
(1.0116826 -0.00071151622 0)
(1.0114569 -0.00037397805 0)
(1.0111324 -8.9597552e-05 0)
(1.0107528 0.00012405921 0)
(1.0103612 0.00025271647 0)
(1.0099953 0.00028900396 0)
(1.0096937 0.0002327451 0)
(1.0094986 9.4885328e-05 0)
(0.81117329 -0.021765815 8.628156e-24)
(0.81526298 0.029490301 0)
(0.81714305 0.023751538 -8.1689162e-24)
(0.82320891 -0.070593441 7.5874766e-24)
(0.85270982 -0.058994023 8.5506764e-24)
(0.87140776 0.028136222 3.1925048e-22)
(0.85939238 0.11366538 -5.5119498e-22)
(0.84020365 0.10807407 -4.6865247e-23)
(0.84268133 0.020452182 9.4519456e-23)
(0.89813118 -0.10294332 6.9421799e-23)
(0.99599278 -0.12965489 -1.2860514e-21)
(1.0698311 -0.07212759 1.2146495e-21)
(1.0881419 0.029553124 0)
(1.0586089 0.11390025 0)
(0.98398726 0.1160237 0)
(0.9324144 0.059678879 0)
(0.93704544 -0.0023834331 0)
(0.97282513 -0.031400116 0)
(1.0040206 -0.033478652 0)
(1.0234949 -0.022384118 0)
(1.0297885 -0.0067975492 0)
(1.0259933 0.0050023402 0)
(1.0181051 0.010177004 0)
(1.0111955 0.0096662327 0)
(1.0073797 0.006564911 0)
(1.0063567 0.0031622359 0)
(1.0069248 0.00051292119 0)
(1.0080843 -0.0012319393 0)
(1.0093561 -0.0020911076 0)
(1.0104273 -0.0023571955 0)
(1.0112108 -0.0022648786 0)
(1.0117092 -0.0019703414 0)
(1.0119555 -0.0015741164 0)
(1.0119885 -0.0011413534 0)
(1.011847 -0.00071844709 0)
(1.011571 -0.00034100935 0)
(1.0112034 -3.324522e-05 0)
(1.0107878 0.00018827653 0)
(1.0103675 0.00031301664 0)
(1.0099797 0.00033637556 0)
(1.0096633 0.00026258323 0)
(1.0094597 0.00010463572 0)
(0.81450041 -0.071703353 5.7189954e-24)
(0.81516896 -0.021980273 2.2497027e-23)
(0.82594143 0.028974761 0)
(0.82710671 0.022729331 -1.4019562e-24)
(0.83400072 -0.060782743 -1.4456371e-24)
(0.85162019 0.029915608 -1.442419e-22)
(0.84270107 0.11941219 0)
(0.82740336 0.11474305 4.6541502e-23)
(0.82902757 0.022628983 7.7455944e-24)
(0.87962001 -0.11366493 -6.8513128e-23)
(0.97638552 -0.14502914 1.3896251e-21)
(1.0550853 -0.088425403 1.3417111e-21)
(1.0743184 0.033142965 0)
(1.029529 0.13337574 0)
(0.96465218 0.13880802 0)
(0.9157897 0.07343219 0)
(0.91814547 -0.0044410168 0)
(0.96193772 -0.042790083 0)
(1.0023105 -0.045409379 0)
(1.0275457 -0.03097751 0)
(1.0369006 -0.011157896 0)
(1.0327118 0.0058037814 0)
(1.0220575 0.013625005 0)
(1.0122035 0.013660086 0)
(1.0063941 0.0095859851 0)
(1.0045668 0.0048774171 0)
(1.0051587 0.0011677686 0)
(1.0066551 -0.0012795992 0)
(1.0083418 -0.002557539 0)
(1.0098005 -0.0030025911 0)
(1.010894 -0.0029501194 0)
(1.0116315 -0.0026321974 0)
(1.0120642 -0.0021816881 0)
(1.0122429 -0.0016760249 0)
(1.0122113 -0.0011663244 0)
(1.0120103 -0.00069159079 0)
(1.0116817 -0.00028244338 0)
(1.0112695 4.0644289e-05 0)
(1.0108178 0.0002630068 0)
(1.0103691 0.00037823125 0)
(1.0099601 0.00038552343 0)
(1.0096298 0.00029229786 0)
(1.0094183 0.00011408638 0)
(0.82037626 -0.061838327 -1.0574242e-23)
(0.81232718 -0.071777192 -6.1947215e-24)
(0.82456626 -0.021427007 -2.0039784e-23)
(0.84040983 0.028121325 -1.2460741e-23)
(0.83991333 0.021331718 3.9525403e-23)
(0.83425101 0.031113792 1.3670329e-22)
(0.82921398 0.123956 7.6582482e-23)
(0.81775011 0.12034681 0)
(0.81828764 0.024500635 -1.3378137e-23)
(0.86156867 -0.12395854 -1.9892879e-22)
(0.95466555 -0.16105567 0)
(1.0364853 -0.10148142 -1.7429086e-21)
(1.0621294 0.023847315 0)
(1.0107136 0.15243438 0)
(0.94381213 0.15658348 0)
(0.9002407 0.08908824 0)
(0.89911703 -0.0090233404 0)
(0.94957003 -0.056227232 0)
(1.0000477 -0.059037697 0)
(1.032512 -0.042337281 0)
(1.0457406 -0.016264632 0)
(1.0413962 0.0061564557 0)
(1.0275285 0.018243147 0)
(1.0136761 0.019019447 0)
(1.0051826 0.01378142 0)
(1.0022068 0.0072829162 0)
(1.0027505 0.0021172129 0)
(1.0047217 -0.0012662683 0)
(1.0069504 -0.0031172856 0)
(1.0089187 -0.0037774469 0)
(1.0104055 -0.0037738481 0)
(1.0114344 -0.003423464 0)
(1.0120853 -0.0029084651 0)
(1.0124337 -0.0023239046 0)
(1.0125348 -0.00172451 0)
(1.0124331 -0.0011499897 0)
(1.0121696 -0.00063349908 0)
(1.0117872 -0.00020137438 0)
(1.0113301 0.00012840662 0)
(1.0108424 0.00034525117 0)
(1.0103658 0.00044647333 0)
(1.0099368 0.00043449445 0)
(1.0095935 0.00032130371 0)
(1.0093747 0.00012315554 0)
(0.82111128 0.031542439 6.7442786e-24)
(0.81180234 -0.061966796 8.864308e-24)
(0.81568601 -0.071140381 3.0405553e-23)
(0.83880018 -0.02027817 1.2878577e-23)
(0.8568472 0.02698823 -6.4013045e-23)
(0.85608515 0.019673763 -2.2031152e-23)
(0.82027232 0.12715627 -1.4650966e-22)
(0.81212373 0.12481348 -6.3837842e-23)
(0.81093897 0.02617834 -9.0301425e-23)
(0.84598252 -0.13337772 1.6821234e-22)
(0.93121466 -0.17639395 -1.6346083e-21)
(1.0142304 -0.11642779 9.205862e-22)
(1.0420126 0.02258566 0)
(1.000061 0.16160305 -9.3622836e-22)
(0.92349136 0.17869367 -4.279464e-22)
(0.88671656 0.09622823 0)
(0.88255988 -0.0090194865 0)
(0.93562715 -0.072883473 0)
(0.99767315 -0.076110585 0)
(1.0381691 -0.054858073 0)
(1.0564791 -0.023790357 0)
(1.0525664 0.0070909971 0)
(1.0346562 0.023896424 0)
(1.0157968 0.026160075 0)
(1.0036234 0.019411843 0)
(0.99908393 0.01060781 0)
(0.99952654 0.0034260866 0)
(1.0021117 -0.00121529 0)
(1.0050855 -0.0037878025 0)
(1.0077279 -0.0047532111 0)
(1.009725 -0.0047897167 0)
(1.0111114 -0.0043770562 0)
(1.0120158 -0.0037729928 0)
(1.0125547 -0.0030952563 0)
(1.0128073 -0.0023997283 0)
(1.0128255 -0.001722719 0)
(1.0126505 -0.0010956648 0)
(1.012323 -0.00054778914 0)
(1.0118861 -0.00010205329 0)
(1.0113841 0.00022651495 0)