/*--------------------------------*- C++ -*----------------------------------*\
| =========                 |                                                 |
| \\      /  F ield         | OpenFOAM: The Open Source CFD Toolbox           |
|  \\    /   O peration     | Version:  5.0                                   |
|   \\  /    A nd           | Web:      www.OpenFOAM.org                      |
|    \\/     M anipulation  |                                                 |
\*---------------------------------------------------------------------------*/
FoamFile
{
    version     2.0;
    format      ascii;
    class       volVectorField;
    location    "220";
    object      U_0;
}
// * * * * * * * * * * * * * * * * * * * * * * * * * * * * * * * * * * * * * //

dimensions      [0 1 -1 0 0 0 0];

internalField   nonuniform List<vector> 
9520
(
(1.0142791 0.00016626984 0)
(1.0143784 0.00048736989 0)
(1.0137847 0.00016413846 0)
(1.0145533 0.00078564301 0)
(1.0138858 0.00048208799 0)
(1.0135958 0.00016332005 0)
(1.0147878 0.001060551 0)
(1.0140655 0.00077891962 0)
(1.0136963 0.00047911405 0)
(1.013286 0.00016680849 0)
(1.0150675 0.0013115254 0)
(1.0143088 0.0010540112 0)
(1.0138762 0.00077422358 0)
(1.0133871 0.00048830165 0)
(1.0130433 0.00017333702 0)
(1.0153794 0.0015381707 0)
(1.0146016 0.0013077999 0)
(1.0141203 0.0010484121 0)
(1.0135679 0.00078881081 0)
(1.0131452 0.00050736223 0)
(1.0127637 0.00017913552 0)
(1.0157127 0.0017403997 0)
(1.0149313 0.0015392034 0)
(1.0144155 0.0013036682 0)
(1.0138126 0.0010689717 0)
(1.0133267 0.00082012242 0)
(1.0128653 0.00052593178 0)
(1.012506 0.00017996417 0)
(1.0160578 0.0019177045 0)
(1.0152874 0.0017481395 0)
(1.0147495 0.0015388296 0)
(1.0141087 0.0013315298 0)
(1.0135717 0.0011130332 0)
(1.013045 0.00085276984 0)
(1.0126061 0.00053072303 0)
(1.0122497 0.00017579294 0)
(1.016408 0.002069367 0)
(1.0156619 0.0019349049 0)
(1.0151116 0.0017534989 0)
(1.0144458 0.0015764465 0)
(1.0138681 0.001387902 0)
(1.0132879 0.0011617412 0)
(1.0127828 0.00086416274 0)
(1.0123453 0.00052014634 0)
(1.0120156 0.00016922714 0)
(1.0167596 0.0021939806 0)
(1.0160491 0.0020999834 0)
(1.0154923 0.0019477047 0)
(1.0148134 0.0018037156 0)
(1.0142065 0.0016460808 0)
(1.0135815 0.0014533161 0)
(1.0130224 0.0011828488 0)
(1.012515 0.00084999824 0)
(1.0121064 0.000500944 0)
(1.0117974 0.00016364521 0)
(1.0171139 0.0022872697 0)
(1.0164471 0.0022458773 0)
(1.0158823 0.0021223773 0)
(1.0152011 0.0020130063 0)
(1.0145768 0.0018883619 0)
(1.0139161 0.0017300418 0)
(1.0133121 0.0014869461 0)
(1.0127466 0.001168332 0)
(1.0122689 0.00082003244 0)
(1.0118836 0.00048337305 0)
(1.0115936 0.00016096398 0)
(1.0174735 0.0023581373 0)
(1.0168578 0.0023805114 0)
(1.0162727 0.0022830878 0)
(1.0155975 0.0022042609 0)
(1.0149694 0.002114602 0)
(1.0142824 0.0019936894 0)
(1.0136413 0.0017786437 0)
(1.0130271 0.00147736 0)
(1.0124904 0.0011293816 0)
(1.0120383 0.0007913873 0)
(1.0116759 0.00047391796 0)
(1.0113987 0.00016065627 0)
(1.0178234 0.0024035504 0)
(1.0172796 0.002508525 0)
(1.0166497 0.0024373566 0)
(1.0159889 0.0023786102 0)
(1.0153746 0.0023236471 0)
(1.0146734 0.0022447463 0)
(1.0140014 0.0020601576 0)
(1.0133447 0.0017779557 0)
(1.01276 0.001434152 0)
(1.0122481 0.0010908773 0)
(1.0118232 0.00077512494 0)
(1.0114779 0.00047206443 0)
(1.0112106 0.00016040993 0)
(1.0181401 0.0024522297 0)
(1.0176275 0.0026493811 0)
(1.0169584 0.0026028347 0)
(1.0163552 0.0025334437 0)
(1.0157812 0.002511384 0)
(1.0150847 0.0024819791 0)
(1.0143862 0.0023331321 0)
(1.0136905 0.0020718374 0)
(1.0130658 0.0017345878 0)
(1.0125022 0.0013877418 0)
(1.0120219 0.001069207 0)
(1.0116178 0.00077130219 0)
(1.0112871 0.00047159575 0)
(1.0110301 0.00015761558 0)
(1.0184599 0.002465525 0)
(1.0179274 0.0028325566 0)
(1.0172134 0.0027776499 0)
(1.0166942 0.0026637639 0)
(1.0161843 0.002666939 0)
(1.0155183 0.0026994687 0)
(1.014793 0.0025990335 0)
(1.014057 0.0023610299 0)
(1.0133979 0.002030927 0)
(1.0127915 0.0016831691 0)
(1.0122618 0.0013613231 0)
(1.0118052 0.0010640909 0)
(1.0114199 0.00077071565 0)
(1.0111035 0.00046464283 0)
(1.0108607 0.00015063433 0)
(1.0187815 0.0025480003 0)
(1.018197 0.002999389 0)
(1.0174893 0.002926054 0)
(1.0170381 0.0027450675 0)
(1.0166113 0.0027763672 0)
(1.0159864 0.0028882697 0)
(1.0152224 0.0028606829 0)
(1.0144381 0.0026490355 0)
(1.0137472 0.0023237454 0)
(1.0131069 0.0019772552 0)
(1.012535 0.0016535612 0)
(1.0120303 0.0013553847 0)
(1.0115963 0.0010630373 0)
(1.0112296 0.00076066876 0)
(1.0109303 0.00044566153 0)
(1.0107068 0.00013940259 0)
(1.0191308 0.0025077127 0)
(1.0184362 0.003235198 0)
(1.0176834 0.0030384281 0)
(1.0174017 0.0027696256 0)
(1.0170674 0.0028005926 0)
(1.0164954 0.0030478873 0)
(1.0156756 0.0031269165 0)
(1.0148279 0.0029433377 0)
(1.014103 0.0026144015 0)
(1.0134395 0.0022690709 0)
(1.0128335 0.0019471813 0)
(1.0122856 0.0016480462 0)
(1.0118066 0.0013540782 0)
(1.0113955 0.001049805 0)
(1.0110496 0.0007312362 0)
(1.0107723 0.0004136816 0)
(1.0105716 0.00012536992 0)
(1.0194505 0.00277179 0)
(1.0186222 0.0034318494 0)
(1.017809 0.0031339417 0)
(1.0177218 0.0027234107 0)
(1.0175131 0.0027892933 0)
(1.0170395 0.0031682127 0)
(1.0161639 0.0034027542 0)
(1.0152205 0.0032534654 0)
(1.0144539 0.0029059071 0)
(1.0137803 0.0025566952 0)
(1.0131501 0.0022415409 0)
(1.0125641 0.0019450456 0)
(1.0120433 0.0016478113 0)
(1.0115909 0.0013369563 0)
(1.0112058 0.0010116912 0)
(1.0108842 0.00067962305 0)
(1.0106333 0.00037248844 0)
(1.010456 0.00011084228 0)
(1.0198565 0.0025428115 0)
(1.0188233 0.003873713 0)
(1.0177539 0.0032862091 0)
(1.0179151 0.0026426933 0)
(1.018042 0.0027190842 0)
(1.0175808 0.0032772584 0)
(1.0166686 0.0037145547 0)
(1.0155987 0.0035974731 0)
(1.0147867 0.0032013349 0)
(1.0141197 0.0028362328 0)
(1.0134785 0.0025340434 0)
(1.0128604 0.0022475173 0)
(1.0122991 0.0019487672 0)
(1.0118075 0.0016282387 0)
(1.011387 0.0012893367 0)
(1.0110311 0.00094332326 0)
(1.0107381 0.0006116898 0)
(1.0105146 0.00032878757 0)
(1.0103582 9.8005192e-05 0)
(1.0200667 0.0032371387 0)
(1.0187761 0.0041432632 0)
(1.0174992 0.0033239246 0)
(1.0179869 0.0024096208 0)
(1.0185912 0.0025568116 0)
(1.0182079 0.0033699166 0)
(1.0171599 0.0040711902 0)
(1.0159424 0.0040010628 0)
(1.0150772 0.0035113533 0)
(1.014442 0.0031012211 0)
(1.0138126 0.0028185296 0)
(1.0131718 0.0025546526 0)
(1.0125695 0.0022603372 0)
(1.0120373 0.0019290807 0)
(1.0115836 0.0015721076 0)
(1.0111992 0.0012055097 0)
(1.0108748 0.0008488328 0)
(1.010614 0.00053883866 0)
(1.0104147 0.00028912361 0)
(1.0102749 8.8121083e-05 0)
(1.0203693 0.0026447026 0)
(1.0189352 0.0049687073 0)
(1.0169814 0.003659215 0)
(1.0179383 0.0020582918 0)
(1.0192597 0.0021982286 0)
(1.0189875 0.0034766203 0)
(1.0176725 0.0044867656 0)
(1.0162078 0.0044810342 0)
(1.0152918 0.0038381671 0)
(1.0147281 0.003347163 0)
(1.0141459 0.0030856135 0)
(1.0134982 0.0028623373 0)
(1.0128529 0.0025847328 0)
(1.0122751 0.0022448697 0)
(1.0117868 0.001865493 0)
(1.0113765 0.0014724781 0)
(1.011031 0.0010878623 0)
(1.0107421 0.00074354998 0)
(1.0105113 0.00047195111 0)
(1.0103305 0.00025747122 0)
(1.0102025 8.1293495e-05 0)
(1.0200895 0.0039387632 0)
(1.0184439 0.0053663189 0)
(1.0162373 0.0035102214 0)
(1.0177356 0.001568495 0)
(1.0199694 0.0017162707 0)
(1.0199766 0.0035269332 0)
(1.018261 0.0050203878 0)
(1.016396 0.0050519127 0)
(1.0153926 0.0041948026 0)
(1.0149378 0.0035458419 0)
(1.0144701 0.0033179178 0)
(1.0138424 0.0031629285 0)
(1.0131522 0.0029234572 0)
(1.0125186 0.0025808903 0)
(1.0119898 0.0021755854 0)
(1.0115543 0.0017492326 0)
(1.0111922 0.0013311477 0)
(1.0108863 0.00095083673 0)
(1.0106336 0.00064540313 0)
(1.0104264 0.00041710157 0)
(1.0102587 0.00023465961 0)
(1.0101379 7.681263e-05 0)
(1.0197955 0.0028983919 0)
(1.0185253 0.0066201096 0)
(1.0149994 0.0043011455 0)
(1.0172792 0.00066418536 0)
(1.0208856 0.00084463173 0)
(1.0212059 0.0036430344 0)
(1.0189347 0.0057195928 0)
(1.0164679 0.00576761 0)
(1.0153685 0.0045536456 0)
(1.0151091 0.0037081501 0)
(1.0147762 0.0034810818 0)
(1.0142135 0.0034378798 0)
(1.0134784 0.0032760706 0)
(1.0127692 0.0029445926 0)
(1.0121868 0.0025089158 0)
(1.0117241 0.0020411189 0)
(1.0113489 0.0015820652 0)
(1.0110336 0.001161219 0)
(1.010769 0.00081919228 0)
(1.0105462 0.00056521635 0)
(1.0103553 0.0003753899 0)
(1.0101963 0.00021925131 0)
(1.0100788 7.3702279e-05 0)
(1.0186759 0.0048594459 0)
(1.0165737 0.0071899362 0)
(1.0136784 0.0037645909 0)
(1.0165585 -5.6064517e-05 0)
(1.0217245 -0.00014793016 0)
(1.0227479 0.0035500669 0)
(1.019747 0.0066808414 0)
(1.0163758 0.0066843789 0)
(1.0150935 0.0049477465 0)
(1.0151647 0.0037363344 0)
(1.0151291 0.0035610354 0)
(1.0146428 0.0036649333 0)
(1.0138513 0.0036377605 0)
(1.0130349 0.0033450821 0)
(1.0123738 0.0028755879 0)
(1.0118771 0.0023536442 0)
(1.011492 0.001844122 0)
(1.0111735 0.0013772246 0)
(1.0109058 0.00099395156 0)
(1.0106759 0.00070873899 0)
(1.0104752 0.00050441143 0)
(1.0102948 0.00034519269 0)
(1.0101407 0.00020882086 0)
(1.0100241 7.1060806e-05 0)
(1.0191272 0.0039232818 0)
(1.0140802 0.0087267974 0)
(1.0107153 0.0053915693 0)
(1.0154394 -0.0018448123 0)
(1.0231645 -0.0017813237 0)
(1.0246517 0.0037625898 0)
(1.0206638 0.0079316418 0)
(1.016074 0.007907693 0)
(1.0145138 0.0053485388 0)
(1.0150582 0.003633956 0)
(1.0155545 0.0034577465 0)
(1.0151432 0.0037913122 0)
(1.0143116 0.0040097638 0)
(1.0133307 0.0037973461 0)
(1.0125485 0.0032894308 0)
(1.012004 0.0026946215 0)
(1.0116114 0.0021202247 0)
(1.0112969 0.0016004919 0)
(1.0110332 0.0011719589 0)
(1.0108056 0.00085097202 0)
(1.0106029 0.00062280491 0)
(1.0104168 0.00045863379 0)
(1.0102428 0.00032412704 0)
(1.0100902 0.00020083433 0)
(1.0099732 6.8178783e-05 0)
(1.0179907 0.0062756323 0)
(1.0138698 0.0098292334 0)
(1.007612 0.0041348684 0)
(1.0138335 -0.0028440707 0)
(1.0238995 -0.0034703437 0)
(1.027005 0.0032882656 0)
(1.0218202 0.0096758091 0)
(1.0154785 0.0094875879 0)
(1.013512 0.0058397426 0)
(1.0147102 0.0032812006 0)
(1.0159985 0.0031482476 0)
(1.0157899 0.0038597124 0)
(1.0148585 0.004370407 0)
(1.0136843 0.0043242109 0)
(1.0127101 0.0037745593 0)
(1.012092 0.0030741134 0)
(1.0116955 0.0024126111 0)
(1.0113948 0.0018314175 0)
(1.0111428 0.0013546439 0)
(1.0109241 0.00099437673 0)
(1.0107282 0.00073661138 0)
(1.0105459 0.00055699039 0)
(1.0103686 0.00042290644 0)
(1.0101978 0.00030909047 0)
(1.0100436 0.00019296825 0)
(1.0099263 6.4612011e-05 0)
(1.0117793 0.0052376875 0)
(1.012947 0.01188328 0)
(1.0049576 0.0062561066 0)
(1.0117093 -0.0058328081 0)
(1.0255897 -0.0061341206 0)
(1.0294963 0.0038684105 0)
(1.022966 0.011769566 0)
(1.0145153 0.011538157 0)
(1.0119947 0.0063453295 0)
(1.0140368 0.0026982425 0)
(1.0164512 0.0024769841 0)
(1.0166861 0.0038339818 0)
(1.0155196 0.0047722678 0)
(1.0140782 0.0049625219 0)
(1.0128548 0.0043652221 0)
(1.0121252 0.0035098704 0)
(1.0117283 0.0027224766 0)
(1.0114572 0.0020670752 0)
(1.0112278 0.0015416669 0)
(1.0110234 0.0011411264 0)
(1.0108401 0.00084931993 0)
(1.0106698 0.00064583584 0)
(1.010502 0.00050440848 0)
(1.0103296 0.0003939166 0)
(1.0101587 0.00029545261 0)
(1.0100009 0.00018321159 0)
(1.0098838 6.0204371e-05 0)
(0.99849275 0.0085052906 0)
(0.9997619 0.012875572 0)
(1.0020083 0.0048031002 0)
(1.0095641 -0.0075906707 0)
(1.0264288 -0.0084430224 0)
(1.0317615 0.002650441 0)
(1.0245565 0.014796209 0)
(1.0129555 0.014195562 0)
(1.0097398 0.0070022249 0)
(1.0129547 0.0016869756 0)
(1.0169331 0.0014138251 0)
(1.0178806 0.0035726571 0)
(1.0164597 0.0052443573 0)
(1.0145072 0.0057420458 0)
(1.0129572 0.0051151397 0)
(1.0120717 0.0040229336 0)
(1.0116879 0.0030511336 0)
(1.0114724 0.0023010191 0)
(1.0112831 0.0017282658 0)
(1.0110993 0.0012918174 0)
(1.0109309 0.00096467108 0)
(1.0107776 0.00073020408 0)
(1.010628 0.00057055241 0)
(1.0104696 0.00045847346 0)
(1.0102991 0.00036796178 0)
(1.0101246 0.00027804729 0)
(1.0099628 0.00017031134 0)
(1.0098461 5.5085483e-05 0)
(0.9852038 0.008670782 0)
(0.98280453 0.015257588 0)
(0.989876 0.0074733966 0)
(1.0073961 -0.011573041 0)
(1.0290383 -0.01238513 0)
(1.034575 0.0039018634 0)
(1.0252791 0.018152089 0)
(1.0107757 0.017482762 0)
(1.0066285 0.0077522733 0)
(1.0113101 0.0003178483 0)
(1.0174328 -0.00032338612 0)
(1.019477 0.0030735375 0)
(1.0177785 0.0057784246 0)
(1.0150884 0.0067390941 0)
(1.0129693 0.0060546196 0)
(1.0119003 0.0046498131 0)
(1.0115384 0.0033982919 0)
(1.0114234 0.0025198973 0)
(1.0113044 0.0019036473 0)
(1.0111517 0.0014431531 0)
(1.0109976 0.0010855421 0)
(1.0108609 0.00081595321 0)
(1.0107346 0.00062758818 0)
(1.0106014 0.00050232713 0)
(1.0104483 0.00041387731 0)
(1.0102764 0.00033979201 0)
(1.0100955 0.00025427464 0)
(1.0099301 0.00015459685 0)
(1.0098134 4.9718725e-05 0)
(0.97070534 0.011270842 0)
(0.96832099 0.016804201 0)
(0.97635367 0.0044650496 0)
(1.0016075 -0.013540012 0)
(1.0302901 -0.01532033 0)
(1.0394377 0.0025111802 0)
(1.0249663 0.022886415 0)
(1.0070992 0.02175861 0)
(1.0022561 0.0086197285 0)
(1.0090383 -0.0017524664 0)
(1.017954 -0.0026655822 0)
(1.0215654 0.0020875397 0)
(1.0196178 0.0064399515 0)
(1.0158795 0.0080533538 0)
(1.0128947 0.0072722972 0)
(1.0115446 0.0054170547 0)
(1.0112337 0.0037616143 0)
(1.0112853 0.0027024972 0)
(1.0112876 0.0020473353 0)
(1.0111849 0.0015857941 0)
(1.0110435 0.0012126216 0)
(1.0109167 0.0009090038 0)
(1.010812 0.00068339426 0)
(1.0107103 0.00053203196 0)
(1.010589 0.0004352565 0)
(1.0104376 0.00036760405 0)
(1.0102608 0.00030588265 0)
(1.0100718 0.00022559874 0)
(1.0099028 0.00013803008 0)
(1.0097853 4.4803816e-05 0)
(0.95439896 0.012307366 6.1163542e-24)
(0.95245893 0.018149891 0)
(0.96345891 0.0051090766 0)
(0.99517398 -0.019780578 0)
(1.0303542 -0.020693156 0)
(1.042026 0.0042953512 0)
(1.0271601 0.027167423 0)
(1.0020892 0.026488517 0)
(0.99650747 0.0097369592 0)
(1.0058595 -0.0043785909 0)
(1.0185701 -0.0061046295 0)
(1.0243142 0.00071688163 0)
(1.022106 0.0071337155 0)
(1.0169753 0.0098253156 0)
(1.01271 0.0088884226 0)
(1.0108993 0.0063683202 0)
(1.0107132 0.0041392923 0)
(1.0110226 0.0028143519 0)
(1.0112285 0.0021273247 0)
(1.0112097 0.0017014897 0)
(1.0110796 0.001343021 0)
(1.010949 0.0010153914 0)
(1.0108556 0.00074682909 0)
(1.0107845 0.00055651731 0)
(1.0107038 0.00043765388 0)
(1.0105898 0.00036632476 0)
(1.0104368 0.00031670234 0)
(1.0102514 0.00026418899 0)
(1.0100546 0.00019656965 0)
(1.0098804 0.00012298359 0)
(1.0097611 4.1040337e-05 0)
(0.93579436 0.014560554 -3.8900773e-24)
(0.93491616 0.019928689 -6.3881393e-24)
(0.95008315 0.0013723779 0)
(0.98680155 -0.02400294 0)
(1.0279161 -0.02410438 0)
(1.0420588 0.00024105657 0)
(1.0356054 0.034579279 0)
(0.99818986 0.031949042 0)
(0.9890988 0.010632831 0)
(1.0018586 -0.0080267314 0)
(1.0191814 -0.010407087 0)
(1.0278232 -0.001493108 0)
(1.0254637 0.0080500193 0)
(1.0184395 0.012160812 0)
(1.0123873 0.011079157 0)
(1.0098691 0.0075648526 0)
(1.0098646 0.0045224338 0)
(1.0105899 0.0028078419 0)
(1.0111212 0.0020958943 0)
(1.0112436 0.0017613378 0)
(1.0111254 0.0014685732 0)
(1.0109693 0.0011406814 0)
(1.0108664 0.00082936673 0)
(1.0108161 0.00058713449 0)
(1.0107783 0.00042918811 0)
(1.0107142 0.00033910783 0)
(1.0106041 0.00029029662 0)
(1.0104454 0.00025715623 0)
(1.0102489 0.00021810847 0)
(1.0100432 0.00017032069 0)
(1.0098621 0.0001113167 0)
(1.0097395 3.8951192e-05 0)
(0.91572048 0.016348165 3.9054099e-24)
(0.91553303 0.021583806 2.4586133e-23)
(0.93322201 0.0001940598 0)
(0.97737909 -0.029553106 0)
(1.0199783 -0.029106679 0)
(1.0377846 0.0033465668 0)
(1.0332025 0.040125106 0)
(0.99724149 0.039652145 0)
(0.98089048 0.012055727 0)
(0.99658772 -0.012748809 0)
(1.0200368 -0.01631327 0)
(1.0322656 -0.0042286791 0)
(1.0298224 0.0089220713 0)
(1.0204163 0.015290278 0)
(1.0118664 0.014002938 0)
(1.0083168 0.0091390946 0)
(1.0085503 0.0048664855 0)
(1.0099213 0.0026303956 0)
(1.0109542 0.0018863925 0)
(1.0112992 0.0017201432 0)
(1.0112075 0.0015746898 0)
(1.0109988 0.0012926022 0)
(1.0108524 0.00094680302 0)
(1.0108011 0.00063944135 0)
(1.0108009 0.00042181509 0)
(1.010794 0.00029312658 0)
(1.010743 0.00022967486 0)
(1.0106324 0.00020520364 0)
(1.010463 0.00019323892 0)
(1.0102534 0.00017651294 0)
(1.0100365 0.00014943613 0)
(1.0098464 0.00010438831 0)
(1.0097193 3.8827509e-05 0)
(0.89543288 0.018305422 0)
(0.89554238 0.023432954 -2.4627221e-23)
(0.91489235 -0.0026402086 0)
(0.96317222 -0.034888675 0)
(1.0102207 -0.03103726 0)
(1.0260336 0.0032923317 0)
(1.0106788 0.048386595 0)
(0.98640046 0.048926309 0)
(0.97024535 0.013158448 0)
(0.99037252 -0.018424215 0)
(1.0207211 -0.023245633 0)
(1.0376975 -0.008272536 0)
(1.035455 0.010192968 0)
(1.0229282 0.019327114 0)
(1.011093 0.017910818 0)
(1.0060806 0.011152743 0)
(1.0066066 0.0051971596 0)
(1.0089192 0.0021647023 0)
(1.0107169 0.0014030623 0)
(1.0114329 0.0015363218 0)
(1.0113479 0.0016400951 0)
(1.0110694 0.0014773339 0)
(1.010831 0.0011199568 0)
(1.0107406 0.00073474481 0)
(1.0107615 0.00043224242 0)
(1.0108137 0.00023962679 0)
(1.0108346 0.0001417868 0)
(1.0107906 0.00011099613 0)
(1.0106723 0.00011765993 0)
(1.0104887 0.00013322185 0)
(1.0102636 0.00014222229 0)
(1.0100332 0.00013628835 0)
(1.0098323 0.00010300378 0)
(1.0096998 4.0732671e-05 0)
(0.87525051 0.020107266 -3.0940571e-24)
(0.87607642 0.025142829 0)
(0.89577445 -0.0051129332 -3.5213531e-23)
(0.94613575 -0.040204789 0)
(0.99698983 -0.035675696 0)
(1.0131003 0.0089114428 0)
(0.9904384 0.056270601 0)
(0.96309408 0.057084872 0)
(0.95680216 0.016895525 0)
(0.98201439 -0.025773211 0)
(1.021547 -0.032136058 0)
(1.0439862 -0.012729234 0)
(1.0422534 0.011291772 0)
(1.0261444 0.024613011 0)
(1.0099182 0.023030696 0)
(1.0029212 0.013814315 0)
(1.0038422 0.0054224686 0)
(1.0074679 0.0013385834 0)
(1.0103906 0.00050687215 0)
(1.0116812 0.0010905701 0)
(1.0116746 0.0016479953 0)
(1.0112339 0.0016927165 0)
(1.010832 0.0013695724 0)
(1.0106427 0.00090191675 0)
(1.0106536 0.00048424237 0)
(1.0107574 0.00019481038 0)
(1.0108599 3.4952494e-05 0)
(1.0109013 -2.0393406e-05 0)
(1.010855 -8.5860941e-06 0)
(1.010723 3.4456859e-05 0)
(1.0105212 8.3291581e-05 0)
(1.0102785 0.00011859233 0)
(1.0100323 0.0001318772 0)
(1.0098195 0.000107185 0)
(1.0096794 4.4670935e-05 0)
(0.85619717 0.021653815 -3.5573123e-24)
(0.85774897 0.026805353 4.8710706e-23)
(0.87686301 -0.007927733 3.5198584e-23)
(0.92724767 -0.04583031 2.8289012e-23)
(0.98032671 -0.039738702 -1.2615207e-22)
(0.99804415 0.010999768 0)
(0.9732546 0.065749738 0)
(0.94319612 0.064373494 0)
(0.94127949 0.018100694 0)
(0.97154064 -0.033610972 0)
(1.0216147 -0.04198801 0)
(1.051096 -0.019072438 0)
(1.0500574 0.013133594 0)
(1.0297307 0.031259168 0)
(1.0082399 0.029628434 0)
(0.99859738 0.017189646 0)
(0.99999973 0.0056192974 0)
(1.0054248 -6.2765765e-05 0)
(1.009954 -0.00091989994 0)
(1.0120991 0.00026718438 0)
(1.0122683 0.0015265708 0)
(1.0115528 0.0019283037 0)
(1.0109097 0.0017296433 0)
(1.0105234 0.0011754645 0)
(1.0104721 0.0006087596 0)
(1.0106108 0.00018105524 0)
(1.0107986 -7.6584875e-05 0)
(1.0109421 -0.0001833737 0)
(1.0109921 -0.00018320834 0)
(1.0109355 -0.0001223321 0)
(1.0107829 -3.6215474e-05 0)
(1.0105587 4.7298394e-05 0)
(1.0102962 0.00010820062 0)
(1.0100329 0.00013448452 0)
(1.0098061 0.00011708844 0)
(1.0096576 5.046367e-05 0)
(0.83936551 0.022875159 8.0334067e-24)
(0.84148946 0.028197229 -7.2802242e-23)
(0.85903955 -0.010575916 0)
(0.90723265 -0.051316607 7.9527629e-23)
(0.96062879 -0.043467843 1.2553834e-22)
(0.98118989 0.012495842 1.6535062e-22)
(0.95525455 0.074543079 8.5619637e-23)
(0.92520463 0.069469395 0)
(0.92555602 0.019462097 0)
(0.96259659 -0.044441043 0)
(1.0220061 -0.054798059 0)
(1.0598609 -0.024926011 0)
(1.0587964 0.014747667 0)
(1.0332319 0.039857228 0)
(1.0054753 0.038066647 0)
(0.99274345 0.021510504 0)
(0.99482325 0.0056017212 0)
(1.0026379 -0.0020782296 0)
(1.0093603 -0.0031332866 0)
(1.0127589 -0.0010557806 0)
(1.0132236 0.001197882 0)
(1.0121848 0.0022526273 0)
(1.0110835 0.0022083385 0)
(1.0104226 0.0016168228 0)
(1.0102146 0.00084875261 0)
(1.0103561 0.00022647534 0)
(1.010629 -0.00017572232 0)
(1.0108903 -0.00036928297 0)
(1.0110587 -0.00040342159 0)
(1.0111048 -0.00033798552 0)
(1.0110292 -0.00022104224 0)
(1.0108504 -8.9323894e-05 0)
(1.0106002 2.7926843e-05 0)
(1.0103131 0.00011137299 0)
(1.010032 0.0001499522 0)
(1.009791 0.00013274767 0)
(1.0096334 5.7831141e-05 0)
(0.82581993 0.023808974 9.0238207e-25)
(0.82809964 0.029309177 1.6090734e-23)
(0.84299669 -0.013175681 -4.2350329e-24)
(0.88715694 -0.056467214 -5.8167836e-23)
(0.93947406 -0.04784066 -1.1178403e-22)
(0.96081809 0.015729922 1.6230288e-22)
(0.93813822 0.081948661 8.8323426e-23)
(0.90665728 0.078189778 6.1775561e-24)
(0.90985713 0.015249369 0)
(0.95315234 -0.054953509 0)
(1.0230859 -0.068931794 0)
(1.0719887 -0.035992502 0)
(1.0714628 0.017729103 0)
(1.0366972 0.05035136 0)
(1.0008945 0.048378038 0)
(0.98494925 0.026924615 0)
(0.98792686 0.0054618429 0)
(0.99893234 -0.0050776195 0)
(1.0085847 -0.0062338192 0)
(1.0137358 -0.0031145206 0)
(1.0146861 0.00059587962 0)
(1.01326 0.0026228772 0)
(1.0114798 0.0029182469 0)
(1.0103336 0.0022657344 0)
(1.0098916 0.0012677418 0)
(1.009976 0.00037372846 0)
(1.0103253 -0.00023958227 0)
(1.0107194 -0.00056629499 0)
(1.0110315 -0.00066533948 0)
(1.0112071 -0.00061368689 0)
(1.0112364 -0.00047470719 0)
(1.0111327 -0.00029782772 0)
(1.0109232 -0.00012174638 0)
(1.0106428 2.6538652e-05 0)
(1.0103317 0.00012915804 0)
(1.0100297 0.00017476842 0)
(1.0097736 0.0001533281 0)
(1.0096064 6.6388211e-05 0)
(0.81578962 0.024321936 -3.9013971e-24)
(0.81811623 0.030030581 -5.9343957e-25)
(0.82994 -0.015394627 0)
(0.86750774 -0.061167037 1.4646615e-23)
(0.91701501 -0.05164688 -7.6206193e-23)
(0.93991228 0.017629077 0)
(0.91843271 0.090648153 -3.692332e-22)
(0.89004764 0.085694262 -3.5177232e-22)
(0.89179471 0.017403633 0)
(0.94596323 -0.068357566 0)
(1.0220252 -0.084476555 0)
(1.0802867 -0.043098288 0)
(1.0898211 0.018572222 0)
(1.0452054 0.062785086 0)
(0.9953126 0.0610122 0)
(0.9744502 0.0332666 0)
(0.97909596 0.0049873992 0)
(0.99408325 -0.009045561 0)
(1.0075757 -0.010658015 0)
(1.0151171 -0.0060029375 0)
(1.0168279 -0.00045807504 0)
(1.0149514 0.0030648582 0)
(1.0122364 0.0039242664 0)
(1.0103063 0.0032244335 0)
(1.0094896 0.0019382635 0)
(1.009445 0.00066640553 0)
(1.0098577 -0.0002389931 0)
(1.0103999 -0.00076085385 0)
(1.0108832 -0.0009638217 0)
(1.0112188 -0.00094861507 0)
(1.0113825 -0.00080068333 0)
(1.0113825 -0.00058430688 0)
(1.0112436 -0.00034904014 0)
(1.0109983 -0.00013160408 0)
(1.0106851 4.2998169e-05 0)
(1.010348 0.00016027549 0)
(1.0100248 0.00020765754 0)
(1.0097532 0.00017787379 0)
(1.0095763 7.575702e-05 0)
(0.81065553 0.024429455 0)
(0.81239312 0.030410982 0)
(0.82024928 -0.017410763 6.1406988e-25)
(0.8501574 -0.065121101 0)
(0.89397182 -0.055270673 2.9412173e-24)
(0.91723521 0.020133624 1.7849023e-22)
(0.89938481 0.098520006 5.9195071e-22)
(0.87257763 0.094146029 -1.650418e-22)
(0.87495937 0.019900666 0)
(0.93117376 -0.080611148 0)
(1.0203922 -0.097576543 0)
(1.0817098 -0.058334887 0)
(1.0973054 0.020779708 0)
(1.0601652 0.076695834 0)
(0.9937352 0.075501243 0)
(0.96144816 0.040902673 0)
(0.96772264 0.0040262384 0)
(0.98802971 -0.014498948 0)
(1.0062768 -0.016358589 0)
(1.0169956 -0.010161155 0)
(1.0198469 -0.0019905601 0)
(1.0174605 0.0035006393 0)
(1.0135082 0.0053401867 0)
(1.0104319 0.0046344063 0)
(1.0089654 0.0029322282 0)
(1.0087464 0.001195525 0)
(1.0091828 -0.00014218296 0)
(1.0098947 -0.00094154741 0)
(1.0105839 -0.0012965137 0)
(1.0111145 -0.0013442276 0)
(1.0114452 -0.001201628 0)
(1.0115788 -0.00095345647 0)
(1.0115391 -0.00066167586 0)
(1.0113582 -0.00037222027 0)
(1.0110733 -0.00011882495 0)
(1.0107267 7.7844681e-05 0)
(1.0103618 0.00020329404 0)
(1.0100166 0.00024730217 0)
(1.0097294 0.00020527815 0)
(1.009543 8.5552402e-05 0)
(0.81094035 0.030463897 -5.8478615e-25)
(0.81071086 0.024249344 0)
(0.81387708 -0.018894983 -8.725984e-24)
(0.83590013 -0.068290509 -5.9690572e-24)
(0.87199859 -0.058422469 -1.5848739e-23)
(0.89433841 0.022257649 1.0151801e-23)
(0.87951994 0.10621451 1.2376177e-25)
(0.85620075 0.10220476 -2.5643405e-22)
(0.8579637 0.022456998 1.7328615e-22)
(0.91371855 -0.089491141 0)
(1.0102386 -0.11466967 -1.1163471e-21)
(1.079082 -0.061405209 0)
(1.097079 0.018294599 0)
(1.0754832 0.094898024 0)
(0.99498153 0.093652172 0)
(0.94806595 0.049828793 0)
(0.95372449 0.0026352336 0)
(0.98038507 -0.021428871 0)
(1.0047376 -0.024021709 0)
(1.0194429 -0.015496862 0)
(1.0239583 -0.0043780301 0)
(1.021067 0.0040332688 0)
(1.0154636 0.0072376388 0)
(1.010798 0.0066736463 0)
(1.0083315 0.0044058561 0)
(1.0077892 0.0020081088 0)
(1.0082534 0.00010348285 0)
(1.0091563 -0.0010832137 0)
(1.010096 -0.001661518 0)
(1.0108667 -0.0018057293 0)
(1.0114017 -0.0016834329 0)
(1.0117011 -0.0014104262 0)
(1.0117898 -0.0010655862 0)
(1.0117015 -0.00070409277 0)
(1.0114737 -0.00036711148 0)
(1.0111469 -8.3733489e-05 0)
(1.0107653 0.00012872405 0)
(1.010372 0.0002561763 0)
(1.0100048 0.00029147461 0)
(1.0097023 0.00023429173 0)
(1.0095067 9.54813e-05 0)
(0.81115655 -0.01963399 7.729544e-24)
(0.81522019 0.03034759 0)
(0.81700867 0.023622891 -6.7904401e-24)
(0.82285226 -0.070536683 5.9648994e-24)
(0.85250661 -0.060707879 1.0781604e-23)
(0.87221201 0.024079868 3.292164e-22)
(0.86078462 0.11302369 -5.6394721e-22)
(0.84103668 0.10988452 -5.2849293e-23)
(0.84222176 0.025052922 8.2854594e-23)
(0.89554106 -0.099782435 7.1111086e-23)
(0.99298682 -0.13018326 -1.2328464e-21)
(1.06911 -0.075221108 1.1665721e-21)
(1.0894011 0.024882373 0)
(1.0627729 0.11132209 0)
(0.98795225 0.1166876 0)
(0.93406392 0.062143389 0)
(0.93648523 -3.4192576e-05 0)
(0.97148161 -0.030297615 0)
(1.0027459 -0.033312695 0)
(1.0225862 -0.022794646 0)
(1.0293823 -0.0074593816 0)
(1.0260282 0.0044149698 0)
(1.0183614 0.0098230375 0)
(1.0114774 0.0095257747 0)
(1.0075889 0.0065564397 0)
(1.0064791 0.0032058237 0)
(1.0069904 0.00056569775 0)
(1.0081159 -0.0011912589 0)
(1.0093746 -0.0020657827 0)
(1.010444 -0.0023431753 0)
(1.0112299 -0.0022565114 0)
(1.0117305 -0.0019637728 0)
(1.0119774 -0.0015674772 0)
(1.0120095 -0.0011342964 0)
(1.0118661 -0.00071136165 0)
(1.0115877 -0.00033446461 0)
(1.0112176 -2.7644282e-05 0)
(1.0107999 0.00019282609 0)
(1.0103779 0.00031651194 0)
(1.009989 0.00033896718 0)
(1.0096717 0.00026428265 0)
(1.0094675 0.00010531426 0)
(0.81434472 -0.071664734 5.4442841e-24)
(0.81528901 -0.019848991 2.1286534e-23)
(0.82585665 0.029818102 0)
(0.8268906 0.022588944 -1.1776637e-24)
(0.83385406 -0.062542639 -3.387506e-24)
(0.85227687 0.02567602 -1.4739562e-22)
(0.84384459 0.11878392 0)
(0.82809185 0.11663305 5.2484069e-23)
(0.82865919 0.027644666 7.2337303e-24)
(0.87716364 -0.11013376 -7.0182538e-23)
(0.97345781 -0.14559584 1.328864e-21)
(1.054181 -0.091762633 1.2857867e-21)
(1.0759738 0.027639508 0)
(1.0335725 0.13062054 0)
(0.96858343 0.13966473 0)
(0.91761125 0.076606696 0)
(0.91749243 -0.0015220736 0)
(0.96017545 -0.041459531 0)
(1.0006819 -0.04519602 0)
(1.0263463 -0.031500888 0)
(1.0363329 -0.012033668 0)
(1.0327395 0.0049868913 0)
(1.0224159 0.013115705 0)
(1.0126113 0.013464696 0)
(1.0066987 0.0095873897 0)
(1.0047418 0.0049554559 0)
(1.0052428 0.00125414 0)
(1.0066899 -0.0012106052 0)
(1.0083543 -0.0025167786 0)
(1.0098103 -0.0029819134 0)
(1.0109081 -0.002940555 0)
(1.0116508 -0.0026268597 0)
(1.0120865 -0.0021767393 0)
(1.0122656 -0.0016701627 0)
(1.0122326 -0.0011596709 0)
(1.0120294 -0.0006847702 0)
(1.0116981 -0.00027609502 0)
(1.0112835 4.6188712e-05 0)
(1.0108297 0.00026761242 0)
(1.0103792 0.00038191474 0)
(1.009969 0.00038838144 0)
(1.0096379 0.0002942225 0)
(1.0094258 0.0001148582 0)
(0.82030656 -0.063623445 -1.043603e-23)
(0.81240616 -0.071746407 -5.9996421e-24)
(0.82483803 -0.019326577 -1.8940777e-23)
(0.84026908 0.028933113 -1.1749669e-23)
(0.83963253 0.021176562 3.3733935e-23)
(0.83467779 0.026749748 1.3955331e-22)
(0.83006359 0.12334697 7.7355366e-23)
(0.81826738 0.12230183 0)
(0.81800113 0.029892889 -1.1229172e-23)
(0.85932442 -0.12007669 -1.7841313e-22)
(0.95180975 -0.16161734 0)
(1.0355547 -0.10513038 -1.6713157e-21)
(1.0636577 0.017801171 0)
(1.0147678 0.14936849 0)
(0.94726798 0.15789598 0)
(0.9020814 0.092849395 0)
(0.89843926 -0.0051759246 0)
(0.94732238 -0.054561896 0)
(0.99799184 -0.058812723 0)
(1.0309709 -0.042976235 0)
(1.0449558 -0.017407291 0)
(1.0414112 0.0050386706 0)
(1.028023 0.017531396 0)
(1.014258 0.018746684 0)
(1.0056227 0.01379809 0)
(1.0024568 0.0074134912 0)
(1.0028611 0.0022555426 0)
(1.0047585 -0.0011565605 0)
(1.0069523 -0.0030501588 0)
(1.0089157 -0.0037447636 0)
(1.0104103 -0.0037617622 0)
(1.0114487 -0.0034198563 0)
(1.0121062 -0.0029063539 0)
(1.0124574 -0.0023204401 0)
(1.0125585 -0.0017192588 0)
(1.0124549 -0.0011435776 0)
(1.0121887 -0.00062676703 0)
(1.0118035 -0.00019500395 0)
(1.0113437 0.00013411733 0)
(1.0108539 0.00035011349 0)
(1.0103757 0.00045049644 0)
(1.0099454 0.00043770914 0)
(1.0096013 0.0003234897 0)
(1.009382 0.00012402635 0)
(0.82131825 0.027114231 6.7481957e-24)
(0.81182021 -0.063741061 8.7404549e-24)
(0.81595736 -0.071095907 3.0263496e-23)
(0.83919537 -0.018241585 1.214726e-23)
(0.85664806 0.027754243 -5.9355324e-23)
(0.85573968 0.019502973 -1.8513146e-23)
(0.82079471 0.12656786 -1.4793494e-22)
(0.81243546 0.12680919 -6.4565913e-23)
(0.81077506 0.031900775 -9.5676806e-23)
(0.84402082 -0.12917775 1.4660578e-22)
(0.92852747 -0.1769427 -1.5655403e-21)
(1.0132555 -0.12037772 8.9630591e-22)
(1.0437524 0.015779743 0)
(1.0043214 0.15773773 -9.847743e-22)
(0.92702284 0.17999443 -3.5764321e-22)
(0.88860727 0.10060384 0)
(0.88193049 -0.0042818713 0)
(0.93292627 -0.070945312 0)
(0.99513347 -0.075829612 0)
(1.0362246 -0.055639884 0)
(1.0554356 -0.025239526 0)
(1.0525514 0.0055951429 0)
(1.0353308 0.02289357 0)
(1.0166217 0.025785268 0)
(1.0042492 0.019454783 0)
(0.99943793 0.010815311 0)
(0.99967461 0.0036420641 0)
(1.0021479 -0.0010469488 0)
(1.0050714 -0.0036806292 0)
(1.007705 -0.0047034075 0)
(1.009714 -0.0047731601 0)
(1.0111159 -0.0043756265 0)
(1.0120325 -0.0037752981 0)
(1.0125782 -0.0030959367 0)
(1.012833 -0.0023973412 0)
(1.0128502 -0.0017177484 0)
(1.0126727 -0.00108922 0)
(1.0123421 -0.00054088165 0)
(1.0119021 -9.5380507e-05 0)