/*--------------------------------*- C++ -*----------------------------------*\
| =========                 |                                                 |
| \\      /  F ield         | OpenFOAM: The Open Source CFD Toolbox           |
|  \\    /   O peration     | Version:  5.0                                   |
|   \\  /    A nd           | Web:      www.OpenFOAM.org                      |
|    \\/     M anipulation  |                                                 |
\*---------------------------------------------------------------------------*/
FoamFile
{
    version     2.0;
    format      ascii;
    class       volVectorField;
    location    "220";
    object      UMean;
}
// * * * * * * * * * * * * * * * * * * * * * * * * * * * * * * * * * * * * * //

dimensions      [0 1 -1 0 0 0 0];

internalField   nonuniform List<vector> 
9520
(
(1.0094021 1.1421562e-05 0)
(1.0094891 3.3337526e-05 0)
(1.0093684 1.2274707e-05 0)
(1.0096438 5.4325764e-05 0)
(1.0094551 3.6121594e-05 0)
(1.0093528 1.2384927e-05 0)
(1.0098518 7.376827e-05 0)
(1.0096094 5.9242547e-05 0)
(1.0094392 3.6363537e-05 0)
(1.0093304 1.1936577e-05 0)
(1.0101002 9.1727723e-05 0)
(1.0098176 8.1178693e-05 0)
(1.009593 6.0059544e-05 0)
(1.0094156 3.5466762e-05 0)
(1.0093122 1.1191543e-05 0)
(1.0103777 0.00010743558 0)
(1.010067 0.00010208092 0)
(1.0098007 8.3075572e-05 0)
(1.0095678 5.9401379e-05 0)
(1.0093967 3.3374775e-05 0)
(1.0092966 9.472723e-06 0)
(1.010674 0.00012038515 0)
(1.0103471 0.00012123496 0)
(1.01005 0.00010570991 0)
(1.0097736 8.3649855e-05 0)
(1.0095472 5.671378e-05 0)
(1.0093792 2.8656399e-05 0)
(1.0092825 7.3406709e-06 0)
(1.0109805 0.00013010971 0)
(1.010648 0.00013814251 0)
(1.0103303 0.00012733727 0)
(1.010021 0.00010869358 0)
(1.0097508 8.1407091e-05 0)
(1.0095265 4.9978486e-05 0)
(1.0093634 2.2598328e-05 0)
(1.0092752 4.0830892e-06 0)
(1.0112896 0.00013547957 0)
(1.0109614 0.00015207417 0)
(1.0106321 0.00014757485 0)
(1.0102999 0.00013402759 0)
(1.0099959 0.00010818447 0)
(1.0097259 7.3960005e-05 0)
(1.0095076 4.0961333e-05 0)
(1.0093538 1.3257879e-05 0)
(1.00927 2.3587202e-07 0)
(1.0115951 0.00013726113 0)
(1.0112795 0.00016230698 0)
(1.0109469 0.00016603573 0)
(1.0106011 0.00015930637 0)
(1.0102725 0.00013666308 0)
(1.0099661 0.00010161417 0)
(1.0097027 6.3274265e-05 0)
(1.0094937 2.6590056e-05 0)
(1.0093463 2.1141151e-06 0)
(1.0092738 -4.6843164e-06 0)
(1.0118917 0.00013184337 0)
(1.0115968 0.00016944085 0)
(1.0112676 0.00018145076 0)
(1.0109165 0.00018388894 0)
(1.0105717 0.00016661951 0)
(1.0102375 0.00013282577 0)
(1.0099377 9.0821089e-05 0)
(1.0096826 4.5248113e-05 0)
(1.0094817 9.1322364e-06 0)
(1.0093476 -1.2271503e-05 0)
(1.009281 -1.0178744e-05 0)
(1.0121754 0.0001266244 0)
(1.011908 0.00016987238 0)
(1.0115884 0.00019393098 0)
(1.0112392 0.00020673 0)
(1.0108856 0.00019751508 0)
(1.0105313 0.00016752789 0)
(1.010203 0.00012372675 0)
(1.0099098 7.0823345e-05 0)
(1.0096645 2.2725398e-05 0)
(1.0094781 -1.3828705e-05 0)
(1.0093523 -2.8432274e-05 0)
(1.0092982 -1.6517948e-05 0)
(1.0124434 0.00010703378 0)
(1.0122114 0.00016923664 0)
(1.0119037 0.00020145774 0)
(1.0115635 0.00022822382 0)
(1.0112074 0.00022853536 0)
(1.0108402 0.00020522533 0)
(1.0104904 0.00016212801 0)
(1.0101662 0.00010375077 0)
(1.009884 4.4762683e-05 0)
(1.0096537 -7.7037591e-06 0)
(1.009478 -3.990622e-05 0)
(1.0093672 -4.7213537e-05 0)
(1.00932 -2.325295e-05 0)
(1.0126932 0.00010005335 0)
(1.0125008 0.00015359804 0)
(1.0122091 0.0002080166 0)
(1.0118858 0.00024530911 0)
(1.0115318 0.00025948361 0)
(1.0111578 0.00024500298 0)
(1.0107927 0.00020569247 0)
(1.0104436 0.00014442685 0)
(1.010131 7.5977099e-05 0)
(1.0098636 8.2673714e-06 0)
(1.0096465 -4.2823046e-05 0)
(1.0094883 -7.0615248e-05 0)
(1.0093868 -6.7261641e-05 0)
(1.0093513 -3.0504419e-05 0)
(1.0129229 5.3937422e-05 0)
(1.0127723 0.00015159614 0)
(1.0124997 0.00020440036 0)
(1.0122022 0.00026165118 0)
(1.0118526 0.0002885851 0)
(1.0114791 0.00028669597 0)
(1.0111034 0.00025384284 0)
(1.0107353 0.00019271016 0)
(1.0103977 0.00011704678 0)
(1.0100989 3.5157711e-05 0)
(1.0098472 -3.4788594e-05 0)
(1.0096496 -8.491578e-05 0)
(1.0095036 -0.00010368459 0)
(1.0094165 -8.8974612e-05 0)
(1.0093877 -3.7884394e-05 0)
(1.0131303 5.6500477e-05 0)
(1.0130251 0.00011496521 0)
(1.0127773 0.00021076053 0)
(1.0125037 0.00026728199 0)
(1.0121675 0.0003181972 0)
(1.0118006 0.00032746929 0)
(1.0114173 0.00030604122 0)
(1.0110356 0.00024800114 0)
(1.0106772 0.00016808946 0)
(1.0103519 7.3972687e-05 0)
(1.010071 -1.4421052e-05 0)
(1.0098405 -8.7530497e-05 0)
(1.0096584 -0.00013080602 0)
(1.00953 -0.00013989148 0)
(1.0094517 -0.00011117555 0)
(1.0094326 -4.5399006e-05 0)
(1.0133141 -2.6266745e-05 0)
(1.0132593 0.00012523319 0)
(1.0130382 0.00018500156 0)
(1.0127899 0.00028309195 0)
(1.0124701 0.00033994862 0)
(1.0121161 0.00037055021 0)
(1.0117303 0.00036076454 0)
(1.01134 0.00030976757 0)
(1.0109638 0.00022882776 0)
(1.0106164 0.00012511894 0)
(1.0103102 1.961763e-05 0)
(1.0100517 -7.6736043e-05 0)
(1.0098401 -0.00014593179 0)
(1.0096791 -0.00018176338 0)
(1.0095624 -0.00017723209 0)
(1.0094962 -0.00013392111 0)
(1.0094822 -5.2716254e-05 0)
(1.0134677 1.5467109e-06 0)
(1.0134663 5.3128999e-05 0)
(1.0132823 0.00020119342 0)
(1.0130598 0.00027085643 0)
(1.0127604 0.00037005149 0)
(1.0124204 0.00040703722 0)
(1.0120399 0.00041900337 0)
(1.0116443 0.00037652966 0)
(1.0112532 0.00029888117 0)
(1.0108871 0.00018849408 0)
(1.0105584 6.807208e-05 0)
(1.0102755 -5.0801565e-05 0)
(1.0100394 -0.00014704494 0)
(1.0098524 -0.00021186342 0)
(1.0097069 -0.00023493254 0)
(1.0096056 -0.00021590056 0)
(1.0095459 -0.00015619556 0)
(1.0095385 -5.9758657e-05 0)
(1.0135898 -0.0001273285 0)
(1.0136483 9.175026e-05 0)
(1.0135003 0.00014107245 0)
(1.0133133 0.00029720527 0)
(1.0130375 0.00037408264 0)
(1.0127127 0.00045260407 0)
(1.0123401 0.00047337974 0)
(1.0119448 0.00044918508 0)
(1.011542 0.00037693246 0)
(1.0111598 0.00026394756 0)
(1.0108102 0.00013124983 0)
(1.0105057 -8.551143e-06 0)
(1.0102482 -0.00013203644 0)
(1.0100401 -0.00022789001 0)
(1.0098731 -0.00028162469 0)
(1.0097471 -0.000290725 0)
(1.009655 -0.00025415074 0)
(1.0096033 -0.00017780022 0)
(1.0095984 -6.6254915e-05 0)
(1.0136517 -6.6483606e-05 0)
(1.0137913 -3.3264179e-05 0)
(1.0136923 0.00018295629 0)
(1.0135414 0.00025312169 0)
(1.0132971 0.00041212079 0)
(1.0129946 0.00047533358 0)
(1.0126297 0.00053696873 0)
(1.0122366 0.00052128542 0)
(1.0118277 0.00046345639 0)
(1.0114309 0.00035015915 0)
(1.0110622 0.00020918769 0)
(1.0107376 5.0696019e-05 0)
(1.0104603 -9.9293176e-05 0)
(1.010234 -0.00022732588 0)
(1.0100506 -0.00031479371 0)
(1.0099079 -0.00035593286 0)
(1.009795 -0.00034661241 0)
(1.0097138 -0.00029171178 0)
(1.009665 -0.00019787841 0)
(1.0096628 -7.2089898e-05 0)
(1.0136594 -0.00024174691 0)
(1.0138974 5.5486799e-05 0)
(1.0138505 7.1026884e-05 0)
(1.0137438 0.00030324274 0)
(1.0135352 0.00038416735 0)
(1.0132594 0.00052990079 0)
(1.0129102 0.00058160691 0)
(1.0125179 0.00060365716 0)
(1.0121053 0.000552883 0)
(1.0116976 0.0004476645 0)
(1.0113113 0.0003008354 0)
(1.0109674 0.00012725496 0)
(1.0106706 -4.7645326e-05 0)
(1.0104276 -0.00020801887 0)
(1.0102308 -0.00033153917 0)
(1.0100769 -0.00040884797 0)
(1.0099524 -0.00043144828 0)
(1.0098547 -0.00040234702 0)
(1.0097782 -0.00032708189 0)
(1.0097322 -0.00021609528 0)
(1.0097293 -7.7045003e-05 0)
(1.0134921 -0.00015216384 0)
(1.0139146 -0.00012763862 0)
(1.0139516 0.00016044887 0)
(1.0139143 0.00021226062 0)
(1.0137486 0.00044516102 0)
(1.0135061 0.00052174829 0)
(1.0131779 0.00065637567 0)
(1.01279 0.00067239089 0)
(1.0123726 0.00065388734 0)
(1.0119562 0.00055148748 0)
(1.0115551 0.00040641784 0)
(1.0111922 0.00022034322 0)
(1.010876 2.358966e-05 0)
(1.0106161 -0.00016827139 0)
(1.0104068 -0.00032919257 0)
(1.0102449 -0.00044620164 0)
(1.0101151 -0.00050593701 0)
(1.0100111 -0.00050797695 0)
(1.0099218 -0.00045567746 0)
(1.0098501 -0.00035972698 0)
(1.0098023 -0.00023179775 0)
(1.009798 -8.1023253e-05 0)
(1.0130281 -0.00035223309 0)
(1.0138193 1.0537118e-06 0)
(1.0139957 -1.7221805e-05 0)
(1.0140284 0.00030519614 0)
(1.0139283 0.00036565231 0)
(1.0137314 0.00059948617 0)
(1.0134273 0.00067314621 0)
(1.0130526 0.00077071207 0)
(1.0126292 0.00074597693 0)
(1.0122043 0.00066849124 0)
(1.0117907 0.00052150377 0)
(1.0114101 0.00033008253 0)
(1.0110741 0.00011422903 0)
(1.0107962 -0.00010689385 0)
(1.0105735 -0.00030545201 0)
(1.0104044 -0.00046476982 0)
(1.0102731 -0.00056649337 0)
(1.0101703 -0.00060591707 0)
(1.0100798 -0.00058249686 0)
(1.0099989 -0.00050590886 0)
(1.0099261 -0.00038847166 0)
(1.0098754 -0.00024463539 0)
(1.0098668 -8.3865081e-05 0)
(1.0122116 -0.0002857996 0)
(1.0133691 -0.00020927655 0)
(1.013893 0.00012457826 0)
(1.0140786 0.00014941096 0)
(1.0140529 0.00046646734 0)
(1.0139221 0.00053913091 0)
(1.0136605 0.00077347406 0)
(1.013297 0.00081735326 0)
(1.0128782 0.00086719196 0)
(1.0124393 0.00078095311 0)
(1.0120147 0.00065171786 0)
(1.0116188 0.00045258935 0)
(1.0112635 0.00022416795 0)
(1.010966 -2.354249e-05 0)
(1.010728 -0.00025851027 0)
(1.0105504 -0.00046160661 0)
(1.0104184 -0.00060937099 0)
(1.010321 -0.00069238256 0)
(1.0102383 -0.00070505029 0)
(1.0101616 -0.00065414846 0)
(1.0100823 -0.00055121832 0)
(1.0100071 -0.00041274009 0)
(1.0099495 -0.00025417432 0)
(1.0099354 -8.5503497e-05 0)
(1.0115122 -0.00041646936 0)
(1.0125522 -0.00011080739 0)
(1.0134946 -8.517673e-05 0)
(1.0139942 0.00029544739 0)
(1.0141161 0.00031926865 0)
(1.0140665 0.00065444922 0)
(1.01386 0.00074089662 0)
(1.0135275 0.00094588787 0)
(1.0131092 0.00094298057 0)
(1.0126681 0.00092179157 0)
(1.0122259 0.00078041172 0)
(1.0118148 0.00059206342 0)
(1.0114427 0.00035027228 0)
(1.0111246 8.1797837e-05 0)
(1.0108684 -0.00018736058 0)
(1.0106795 -0.00043419152 0)
(1.0105454 -0.00063096117 0)
(1.0104548 -0.00076313087 0)
(1.0103851 -0.00081939787 0)
(1.0103229 -0.00080224236 0)
(1.0102525 -0.00072038941 0)
(1.0101733 -0.00059079165 0)
(1.0100904 -0.00043173138 0)
(1.0100241 -0.00026017864 0)
(1.0100024 -8.5877488e-05 0)
(1.0096707 -0.00041826833 0)
(1.0119234 -0.00029699627 0)
(1.0126701 3.8482409e-05 0)
(1.0136155 9.7632545e-05 0)
(1.0140421 0.00046935328 0)
(1.0141462 0.0005230088 0)
(1.0140204 0.00087969551 0)
(1.0137251 0.00094907359 0)
(1.0133265 0.0010988814 0)
(1.012878 0.0010229801 0)
(1.0124308 0.00093675066 0)
(1.0119993 0.00073372818 0)
(1.0116081 0.00049515544 0)
(1.0112711 0.00020694601 0)
(1.0109944 -9.1484283e-05 0)
(1.0107902 -0.00038084024 0)
(1.0106504 -0.00062799043 0)
(1.0105651 -0.0008138771 0)
(1.0105106 -0.00092087845 0)
(1.0104696 -0.00094627518 0)
(1.0104201 -0.00089423667 0)
(1.0103543 -0.00078011816 0)
(1.0102687 -0.00062334636 0)
(1.0101759 -0.00044499762 0)
(1.0100977 -0.00026242993 0)
(1.010067 -8.4964322e-05 0)
(1.0049923 -0.0005407678 0)
(1.0102267 -0.00017362019 0)
(1.0120456 -0.00015791758 0)
(1.0127926 0.0002444981 0)
(1.0136869 0.00027337495 0)
(1.0140944 0.00068403188 0)
(1.014116 0.00077969844 0)
(1.0138884 0.0011205983 0)
(1.0135102 0.0011369652 0)
(1.0130749 0.0012010434 0)
(1.0126163 0.0010582531 0)
(1.0121767 0.00090265065 0)
(1.0117618 0.00064670598 0)
(1.0114024 0.00035347657 0)
(1.0111059 2.7625459e-05 0)
(1.0108825 -0.00030033754 0)
(1.0107321 -0.00059796416 0)
(1.0106482 -0.00084054066 0)
(1.0106076 -0.0010045488 0)
(1.0105907 -0.0010812475 0)
(1.0105705 -0.0010689536 0)
(1.0105321 -0.00097953792 0)
(1.0104632 -0.00083144958 0)
(1.0103687 -0.0006481859 0)
(1.0102616 -0.00045210599 0)
(1.0101696 -0.00026083195 0)
(1.0101284 -8.276328e-05 0)
(0.99806823 -0.00054535689 0)
(1.0054523 -0.00046511966 0)
(1.0105015 -4.0317382e-06 0)
(1.0121713 1.9733184e-05 0)
(1.0128868 0.00043325634 0)
(1.0137695 0.00049002049 0)
(1.0140894 0.00096766048 0)
(1.0139849 0.001065353 0)
(1.013661 0.0013400689 0)
(1.0132369 0.0012673534 0)
(1.0127904 0.0012522674 0)
(1.0123362 0.00104171 0)
(1.0119086 0.00082592525 0)
(1.011521 0.00051122981 0)
(1.0112004 0.00017107476 0)
(1.0109566 -0.00019336259 0)
(1.0107905 -0.00053899207 0)
(1.0107023 -0.00083979404 0)
(1.0106717 -0.0010655421 0)
(1.0106783 -0.001201614 0)
(1.0106916 -0.0012393304 0)
(1.0106908 -0.0011855608 0)
(1.0106549 -0.001055615 0)
(1.0105801 -0.00087336034 0)
(1.0104707 -0.00066456193 0)
(1.0103469 -0.00045283492 0)
(1.0102387 -0.00025537339 0)
(1.0101858 -7.9288321e-05 0)
(0.99006893 -0.00062620724 0)
(0.99856216 -0.00036454744 0)
(1.0057131 -0.00026650983 0)
(1.010771 0.00021302681 0)
(1.0122707 0.0001785697 0)
(1.0130065 0.00066749213 0)
(1.0137999 0.00079572848 0)
(1.0139674 0.0012911288 0)
(1.0137433 0.001326076 0)
(1.0133661 0.0014945217 0)
(1.0129297 0.0013393003 0)
(1.0124855 0.0012498078 0)
(1.0120394 0.00098122706 0)
(1.0116321 0.00069826957 0)
(1.0112795 0.00033065529 0)
(1.0110112 -5.9005735e-05 0)
(1.0108265 -0.0004506378 0)
(1.0107276 -0.00080883339 0)
(1.0107008 -0.0010996529 0)
(1.0107271 -0.0013016707 0)
(1.0107743 -0.0013993063 0)
(1.0108169 -0.0013929073 0)
(1.0108262 -0.0012927881 0)
(1.0107897 -0.0011209756 0)
(1.0107016 -0.00090465055 0)
(1.0105744 -0.00067204526 0)
(1.0104303 -0.00044710117 0)
(1.0103043 -0.00024606618 0)
(1.0102385 -7.4576999e-05 0)
(0.98126247 -0.00065839623 0)
(0.99054592 -0.00051878172 0)
(0.99877707 -0.00021075576 0)
(1.0060938 -6.3689612e-05 0)
(1.0110519 0.00039909845 0)
(1.0124095 0.00039329839 0)
(1.0130683 0.0010134561 0)
(1.0136957 0.0011648567 0)
(1.0137135 0.0015877325 0)
(1.0134267 0.001507729 0)
(1.0130382 0.0015828017 0)
(1.0126042 0.0013536099 0)
(1.0121626 0.0012025648 0)
(1.011729 0.00086856403 0)
(1.0113499 0.00052158403 0)
(1.0110468 9.6362728e-05 0)
(1.0108396 -0.00033229426 0)
(1.0107254 -0.00074636914 0)
(1.010695 -0.0011030819 0)
(1.0107345 -0.0013761169 0)
(1.0108123 -0.0015424182 0)
(1.0108998 -0.0015951255 0)
(1.0109623 -0.0015378067 0)
(1.0109785 -0.0013886415 0)
(1.0109326 -0.001173893 0)
(1.0108277 -0.0009245561 0)
(1.0106777 -0.0006704256 0)
(1.0105111 -0.00043488897 0)
(1.0103655 -0.00023301272 0)
(1.0102861 -6.8684212e-05 0)
(0.9706584 -0.0007158683 -1.6601037e-24)
(0.98177419 -0.00051957134 0)
(0.99080816 -0.00032894525 0)
(0.99909904 -7.3872824e-05 0)
(1.0066628 9.1700154e-05 0)
(1.0113942 0.00063794062 0)
(1.0124759 0.0007489309 0)
(1.0129766 0.001435688 0)
(1.0134398 0.001507358 0)
(1.0133769 0.0017930042 0)
(1.0130801 0.001610528 0)
(1.0126963 0.001611711 0)
(1.0122579 0.0013260992 0)
(1.01182 0.0011038336 0)
(1.0114061 0.00070374007 0)
(1.011071 0.00028550459 0)
(1.0108294 -0.00018857982 0)
(1.0106962 -0.00065158717 0)
(1.010656 -0.0010736166 0)
(1.0107005 -0.0014203505 0)
(1.0108023 -0.0016624143 0)
(1.0109322 -0.0017850299 0)
(1.011051 -0.0017839913 0)
(1.01113 -0.0016715188 0)
(1.0111432 -0.0014707182 0)
(1.0110837 -0.0012131499 0)
(1.0109554 -0.00093252319 0)
(1.0107796 -0.00065931935 0)
(1.010588 -0.0004162249 0)
(1.0104217 -0.00021635823 0)
(1.0103281 -6.1680736e-05 0)
(0.9579968 -0.00075736798 1.8709609e-24)
(0.97115518 -0.0006058122 1.7325834e-24)
(0.9820653 -0.00035671653 0)
(0.99115435 -0.00020405805 0)
(0.99960039 3.0880623e-05 0)
(1.007395 0.0003161652 0)
(1.011671 0.0010545395 0)
(1.0123388 0.0012080572 0)
(1.0127154 0.0018230209 0)
(1.0130955 0.0017379438 0)
(1.0130183 0.0019053978 0)
(1.0127264 0.0016522402 0)
(1.0123347 0.0016000491 0)
(1.0118865 0.0012503322 0)
(1.0114568 0.0009505808 0)
(1.0110794 0.00047349364 0)
(1.0108042 -8.8587011e-06 0)
(1.0106389 -0.00052761145 0)
(1.0105852 -0.001009644 0)
(1.0106268 -0.0014309496 0)
(1.0107439 -0.0017533224 0)
(1.0109098 -0.001955296 0)
(1.0110836 -0.0020235774 0)
(1.0112306 -0.0019628959 0)
(1.0113155 -0.0017908136 0)
(1.0113209 -0.0015372289 0)
(1.0112396 -0.0012378354 0)
(1.0110841 -0.0009283003 0)
(1.0108789 -0.00063897769 0)
(1.0106604 -0.00039134327 0)
(1.0104724 -0.00019632148 0)
(1.0103643 -5.3659294e-05 0)
(0.9443611 -0.0007562662 -1.880202e-24)
(0.95851574 -0.0006700202 -5.6261581e-24)
(0.97143726 -0.00042119683 0)
(0.98249101 -0.00027222067 0)
(0.99168816 -0.00014692847 0)
(1.0003147 0.00022956712 0)
(1.0081118 0.0007420786 0)
(1.0117073 0.0015874149 0)
(1.011997 0.0016341859 0)
(1.0123662 0.0020689869 0)
(1.0127409 0.0018552457 0)
(1.0126644 0.0019567857 0)
(1.0123558 0.0016587434 0)
(1.0119396 0.0015466584 0)
(1.0114843 0.0011204298 0)
(1.0110808 0.00072639584 0)
(1.01076 0.00017623197 0)
(1.0105623 -0.00036573157 0)
(1.0104814 -0.00091360148 0)
(1.0105155 -0.0014055101 0)
(1.0106389 -0.0018107453 0)
(1.0108315 -0.0020989419 0)
(1.0110547 -0.0022483415 0)
(1.0112699 -0.0022545699 0)
(1.0114341 -0.0021276613 0)
(1.0115197 -0.0018932314 0)
(1.0115073 -0.0015867283 0)
(1.0113996 -0.0012471883 0)
(1.0112116 -0.0009116607 0)
(1.0109744 -0.00060957617 0)
(1.0107275 -0.00036059974 0)
(1.0105172 -0.0001731385 0)
(1.0103944 -4.4723434e-05 0)
(0.93038322 -0.00078099336 0)
(0.94480697 -0.00066002625 5.6342696e-24)
(0.95884615 -0.00052485623 0)
(0.9718674 -0.00035227099 0)
(0.98313873 -0.00024120038 0)
(0.99239671 -1.9138326e-05 0)
(1.0011329 0.00071323038 0)
(1.0086298 0.0013265621 0)
(1.0114412 0.0020659387 0)
(1.0115557 0.0019122136 0)
(1.0120263 0.0021808647 0)
(1.0124077 0.0019089786 0)
(1.0122998 0.0019838867 0)
(1.0119426 0.0016325943 0)
(1.0115018 0.0014401055 0)
(1.0110582 0.00091427058 0)
(1.0107062 0.00042591844 0)
(1.0104635 -0.00019267833 0)
(1.0103536 -0.00077798692 0)
(1.0103663 -0.0013452359 0)
(1.0104899 -0.0018310834 0)
(1.0106989 -0.0022099165 0)
(1.0109621 -0.0024499463 0)
(1.011241 -0.0025374525 0)
(1.011487 -0.0024728443 0)
(1.011663 -0.002275113 0)
(1.0117377 -0.0019765601 0)
(1.0117023 -0.0016177556 0)
(1.0115608 -0.0012408054 0)
(1.011337 -0.00088260815 0)
(1.0110652 -0.00057147223 0)
(1.0107887 -0.00032437731 0)
(1.0105559 -0.00014706442 0)
(1.0104183 -3.4921289e-05 0)
(0.91632772 -0.0007116963 1.0991911e-24)
(0.93066262 -0.00073050433 0)
(0.94509488 -0.00049131483 1.0887699e-23)
(0.95933776 -0.00053141304 0)
(0.97254243 -0.00034635586 0)
(0.9839734 -0.00010131809 0)
(0.99313757 0.00037688647 0)
(1.0018871 0.0013991083 0)
(1.0088852 0.001876113 0)
(1.0110007 0.0023257882 0)
(1.0111535 0.0020338459 0)
(1.0117351 0.0022324074 0)
(1.0120692 0.0019499225 0)
(1.0118824 0.0019918003 0)
(1.0114713 0.001557544 0)
(1.0110254 0.0012511635 0)
(1.0106263 0.00062136832 0)
(1.0103514 4.3501761e-05 0)
(1.0102002 -0.00062594019 0)
(1.0101882 -0.0012437299 0)
(1.0102971 -0.0018141896 0)
(1.0105152 -0.0022834349 0)
(1.0108068 -0.0026210097 0)
(1.0111404 -0.0028021909 0)
(1.0114653 -0.0028167579 0)
(1.0117367 -0.0026745701 0)
(1.011912 -0.0024021303 0)
(1.0119698 -0.0020386315 0)
(1.0119016 -0.0016296468 0)
(1.0117222 -0.0012183641 0)
(1.0114585 -0.00084158395 0)
(1.0111504 -0.00052512664 0)
(1.0108435 -0.00028311108 0)
(1.0105881 -0.00011838827 0)
(1.010436 -2.4395218e-05 0)
(0.9027439 -0.00068309891 -3.2885158e-24)
(0.91635741 -0.00066667847 -1.6096521e-23)
(0.93087119 -0.00058661539 -1.0881343e-23)
(0.94553518 -0.00050578528 -1.6522704e-23)
(0.96008961 -0.00061332328 -2.0899172e-23)
(0.97340821 -0.00022534649 0)
(0.98483522 0.00036152227 0)
(0.99376056 0.0009550091 0)
(1.002564 0.0020208267 0)
(1.0090163 0.0021973584 0)
(1.0105696 0.0023834713 0)
(1.0108285 0.002086424 0)
(1.0114494 0.0022926181 0)
(1.0116708 0.00198818 0)
(1.0113872 0.0019575195 0)
(1.0109436 0.0013955157 0)
(1.0105342 0.000962451 0)
(1.0102112 0.00023499091 0)
(1.0100304 -0.000412386 0)
(1.0099808 -0.001120545 0)
(1.0100703 -0.0017541826 0)
(1.0102811 -0.0023178171 0)
(1.0105926 -0.0027548543 0)
(1.0109683 -0.0030397005 0)
(1.0113641 -0.0031488598 0)
(1.0117302 -0.0030815822 0)
(1.0120141 -0.002855534 0)
(1.0121816 -0.0025057115 0)
(1.0122107 -0.0020782753 0)
(1.0121046 -0.0016215197 0)
(1.0118811 -0.0011802181 0)
(1.011575 -0.00078897455 0)
(1.0112291 -0.00047110892 0)
(1.0108918 -0.00023719704 0)
(1.0106138 -8.7395737e-05 0)
(1.0104475 -1.3216696e-05 0)
(0.890213 -0.00057652355 3.6142796e-24)
(0.90246493 -0.00065038359 2.8314364e-23)
(0.91643683 -0.00051815805 0)
(0.93120462 -0.00066556387 5.8238521e-23)
(0.94624659 -0.00059541076 2.079256e-23)
(0.96104818 -0.00058635405 3.2259216e-23)
(0.97427354 0.00025138403 1.6528976e-23)
(0.98558087 0.0010157713 0)
(0.99434204 0.0014889359 0)
(1.0032733 0.0023682486 0)
(1.0091397 0.0022934741 0)
(1.0101992 0.0023940943 0)
(1.0105329 0.002154368 0)
(1.0110961 0.0023784193 0)
(1.0111688 0.0019940691 0)
(1.0108128 0.0018305666 0)
(1.0103905 0.0011202203 0)
(1.0100571 0.00056671241 0)
(1.0098308 -0.00023509301 0)
(1.0097543 -0.0009372172 0)
(1.0098103 -0.0016672355 0)
(1.0100066 -0.0023067579 0)
(1.0103204 -0.0028484624 0)
(1.0107282 -0.003241416 0)
(1.0111822 -0.0034586672 0)
(1.0116365 -0.0034849076 0)
(1.0120311 -0.0033267713 0)
(1.0123196 -0.0030119229 0)
(1.012466 -0.0025839242 0)
(1.0124598 -0.0020938424 0)
(1.0123074 -0.0015936416 0)
(1.0120365 -0.0011265444 0)
(1.0116853 -0.00072549108 0)
(1.0113007 -0.00041004023 0)
(1.0109331 -0.00018698197 0)
(1.0106331 -5.4405049e-05 0)
(1.010453 -1.4900717e-06 0)
(0.87910934 -0.00047832517 -1.2149882e-25)
(0.8895599 -0.00054359337 -6.8001296e-24)
(0.90237893 -0.00050556744 1.1693006e-23)
(0.91657908 -0.00063434622 -2.3212023e-23)
(0.9318339 -0.00082461258 -4.3274835e-23)
(0.94717512 -0.00055787454 2.8753299e-23)
(0.96202083 -0.00018846047 1.1547851e-22)
(0.9750026 0.00094674156 -2.056704e-23)
(0.9862606 0.0015578661 0)
(0.99506366 0.001768936 0)
(1.0041021 0.0024860692 0)
(1.0092034 0.0023125066 0)
(1.00986 0.0024785648 0)
(1.0101738 0.0022693517 0)
(1.0106174 0.0024472988 0)
(1.0105586 0.0019012164 0)
(1.0101992 0.0015724439 0)
(1.0098496 0.00072235193 0)
(1.0096164 7.6186682e-05 0)
(1.0094969 -0.00078164404 0)
(1.009528 -0.001520513 0)
(1.0096947 -0.0022631636 0)
(1.0099998 -0.0028946686 0)
(1.0104216 -0.0034027029 0)
(1.0109224 -0.0037356569 0)
(1.0114529 -0.0038724985 0)
(1.011954 -0.0038039245 0)
(1.012369 -0.0035474335 0)
(1.0126475 -0.0031405578 0)
(1.0127646 -0.0026342217 0)
(1.0127123 -0.0020852884 0)
(1.012509 -0.0015456329 0)
(1.0121862 -0.0010581745 0)
(1.0117885 -0.00065182221 0)
(1.0113651 -0.00034234304 0)
(1.0109673 -0.00013328525 0)
(1.0106459 -1.9701695e-05 0)
(1.0104526 1.0662819e-05 0)
(0.8694064 -0.00031318467 -1.4213814e-24)
(0.87804832 -0.00043122179 2.9720957e-24)
(0.88929298 -0.00040783752 0)
(0.902289 -0.00065967402 -1.7730218e-23)
(0.91703675 -0.00084031898 -5.2959194e-24)
(0.93268322 -0.00084429706 0)
(0.94812901 -0.00011178054 -8.2430163e-23)
(0.96287287 0.00042906116 -9.4266236e-23)
(0.97566194 0.0015449731 0)
(0.9870644 0.0017412056 0)
(0.99612351 0.0017969745 0)
(1.0050529 0.0025562145 0)
(1.0091668 0.0023755887 0)
(1.0094504 0.0026637898 0)
(1.0096715 0.0023834335 0)
(1.0100024 0.0024119685 0)
(1.0098914 0.0016564593 0)
(1.0095966 0.0011723678 0)
(1.0093486 0.00021874538 0)
(1.0092251 -0.00049805658 0)
(1.0092144 -0.0013921562 0)
(1.0093566 -0.0021588996 0)
(1.0096364 -0.0029019148 0)
(1.0100569 -0.0035148066 0)
(1.0105866 -0.0039731518 0)
(1.0111805 -0.0042322984 0)
(1.0117779 -0.00427392 0)
(1.0123182 -0.0041002394 0)
(1.0127382 -0.0037391657 0)
(1.0129972 -0.003238011 0)
(1.0130716 -0.0026558567 0)
(1.0129671 -0.0020515695 0)
(1.0127062 -0.0014785444 0)
(1.0123291 -0.00097572819 0)
(1.0118837 -0.00056883369 0)
(1.0114216 -0.00026895486 0)
(1.0109944 -7.6322201e-05 0)
(1.0106525 1.6368523e-05 0)
(1.0104466 2.3119014e-05 0)
(0.86168818 -0.00015327605 0)
(0.86788135 -0.00023729626 0)
(0.87755867 -0.00030133971 -3.0661968e-24)
(0.88893948 -0.00060000268 0)
(0.90253028 -0.00091410464 -2.697533e-24)
(0.91769302 -0.00090053871 4.1418227e-23)
(0.93358462 -0.00042449415 2.006985e-22)
(0.94898105 0.00056177657 1.8058852e-22)
(0.9636781 0.0009424776 0)
(0.97645919 0.0017511718 0)
(0.98822528 0.0016392748 0)
(0.99758437 0.0017714916 0)
(1.0060478 0.0027311019 0)
(1.0089602 0.0025462634 0)
(1.0088464 0.0028656512 0)
(1.0090187 0.002386141 0)
(1.0093145 0.0022022846 0)
(1.0092328 0.0012472805 0)
(1.0090397 0.00065276237 0)
(1.0089016 -0.00037422398 0)
(1.0088875 -0.0011410519 0)
(1.0089862 -0.0020624269 0)
(1.0092419 -0.0028468019 0)
(1.009642 -0.0035823432 0)
(1.0101813 -0.0041610301 0)
(1.0108219 -0.0045548935 0)
(1.0115019 -0.0047233138 0)
(1.0121598 -0.004656507 0)
(1.012724 -0.0043679628 0)
(1.0131382 -0.0038973649 0)
(1.0133621 -0.0033024474 0)
(1.0133858 -0.0026470348 0)
(1.0132197 -0.0019936823 0)
(1.0128977 -0.0013925376 0)
(1.0124639 -0.00088033938 0)
(1.0119704 -0.00047730608 0)
(1.0114701 -0.00019045594 0)
(1.0110145 -1.6879055e-05 0)
(1.0106529 5.3549452e-05 0)
(1.0104352 3.5883622e-05 0)
(0.85958431 -2.942223e-05 -3.8847026e-25)
(0.86166055 0.0001315378 0)
(0.86709766 -0.00010464752 -8.0205768e-24)
(0.87686408 -0.00051741255 -1.2358201e-23)
(0.88893184 -0.00090122139 -7.5540752e-24)
(0.90294779 -0.00101742 1.4304102e-23)
(0.9184132 -0.00049847549 6.2519051e-24)
(0.93440768 0.00023938802 2.4403738e-23)
(0.94981023 0.0011145936 -2.3728334e-22)
(0.96463559 0.0010350315 0)
(0.97763396 0.0016119949 -2.3468809e-22)
(0.98980153 0.0015052246 0)
(0.99925126 0.0018926399 0)
(1.0068845 0.0030891093 0)
(1.0084458 0.0027699842 0)
(1.0080284 0.0029449429 0)
(1.0082926 0.0021861514 0)
(1.0086355 0.001799884 0)
(1.0086263 0.00070447243 0)
(1.0085435 3.6361859e-05 0)
(1.008512 -0.0010383287 0)
(1.0086036 -0.0018463729 0)
(1.0088122 -0.0027874575 0)
(1.0091891 -0.003584561 0)
(1.0097161 -0.004299232 0)
(1.0103808 -0.0048288637 0)
(1.0111287 -0.0051397325 0)
(1.0118906 -0.0052014368 0)
(1.0125947 -0.0050128355 0)
(1.0131712 -0.0046012712 0)
(1.0135624 -0.004018855 0)
(1.0137407 -0.0033311908 0)
(1.0137016 -0.0026083244 0)
(1.0134688 -0.0019112393 0)
(1.0130811 -0.0012892214 0)
(1.0125895 -0.00077288052 0)
(1.012048 -0.00037822954 0)
(1.0115105 -0.00010778742 0)
(1.0110276 4.4759451e-05 0)
(1.0106475 9.1552521e-05 0)
(1.0104188 4.8801476e-05 0)
(0.85851761 0.00010122766 7.1322101e-24)
(0.85958739 0.0003355046 0)
(0.86935327 0.00028592731 -1.34505e-24)
(0.86597229 -0.00032939213 1.2351338e-23)
(0.87649884 -0.000850691 2.975546e-24)
(0.88905732 -0.0010357673 8.5795086e-23)
(0.90344354 -0.00063127405 -1.6026493e-22)
(0.91906649 0.00014992785 -7.3666793e-23)
(0.93522675 0.00078047201 -2.215302e-22)
(0.95080542 0.0011849417 -8.5932318e-23)
(0.96598598 0.00075530826 -3.1251654e-22)
(0.97922147 0.0014316676 2.4397375e-22)
(0.99162881 0.0015602685 0)
(1.0008766 0.0023272112 0)
(1.0071654 0.0035062459 0)
(1.0075673 0.0028887154 0)
(1.0071119 0.0027785362 0)
(1.007598 0.0017569569 0)
(1.008017 0.0012482069 0)
(1.0080875 5.920769e-05 0)
(1.0081095 -0.0006534926 0)
(1.0081758 -0.0017645443 0)
(1.0083702 -0.0026097162 0)
(1.0086965 -0.0035696616 0)
(1.0092035 -0.0043696249 0)
(1.0098679 -0.0050500062 0)
(1.0106592 -0.0055106114 0)
(1.0115122 -0.0057199666 0)
(1.0123444 -0.0056581323 0)
(1.013083 -0.0053358131 0)
(1.0136533 -0.0047952885 0)
(1.0140087 -0.0040997929 0)
(1.0141265 -0.0033239311 0)
(1.0140172 -0.0025387442 0)
(1.0137107 -0.0018061289 0)
(1.0132553 -0.0011691502 0)
(1.012705 -0.00065463655 0)
(1.0121164 -0.0002725915 0)
(1.0115429 -2.1555178e-05 0)
(1.0110339 0.00010793418 0)
(1.0106366 0.00013011858 0)
(1.0103975 6.1819083e-05 0)
(0.85700727 -0.00012479031 3.2735113e-24)
(0.85852991 0.00045355129 9.3128447e-24)
(0.86787927 0.00053465141 0)
(0.87902933 0.00044902397 -1.0317328e-25)
(0.86514683 -0.00067701503 -3.9151578e-24)
(0.87616865 -0.0010090009 -4.7191575e-23)
(0.88925401 -0.00065699441 0)
(0.90390273 1.2318153e-05 7.3176771e-23)
(0.91973403 0.00066453822 -1.1171983e-22)
(0.93621471 0.0007996344 8.4824978e-23)
(0.95219535 0.00083369069 3.9293355e-22)
(0.96778377 0.00041734474 3.2438716e-22)
(0.98106046 0.0014778202 0)
(0.99346046 0.0019809536 0)
(1.0020729 0.0029420855 0)
(1.0068464 0.0037488005 0)
(1.0065025 0.002739576 0)
(1.0062588 0.002346772 0)
(1.0069952 0.0011598411 0)
(1.0074731 0.00059122371 0)
(1.0076166 -0.00065814672 0)
(1.0077301 -0.0014041244 0)
(1.0078856 -0.0025482308 0)
(1.0081879 -0.0034359919 0)
(1.0086439 -0.004409328 0)
(1.0092954 -0.0052013457 0)
(1.0101038 -0.0058275744 0)
(1.0110237 -0.0061989846 0)
(1.0119724 -0.0062864432 0)
(1.0128646 -0.006084788 0)
(1.0136188 -0.0056186628 0)
(1.0141681 -0.0049448453 0)
(1.0144699 -0.0041386233 0)
(1.0145172 -0.0032789884 0)
(1.0143277 -0.002440075 0)
(1.013944 -0.0016785042 0)
(1.0134185 -0.001034261 0)
(1.01281 -0.00052672397 0)
(1.0121752 -0.00016146457 0)
(1.0115672 6.7428049e-05 0)
(1.0110338 0.00017233088 0)
(1.0106204 0.00016899623 0)
(1.0103719 7.4833375e-05 0)
(0.85590802 -0.00049552174 -4.7963081e-24)
(0.85704263 0.00022330021 -3.2827673e-24)
(0.86717619 0.00065328128 -8.0217241e-24)
(0.87801142 0.00071110436 -2.9457479e-24)
(0.89009384 0.00054112435 5.7015514e-24)
(0.86433323 -0.00084302822 4.8092801e-23)
(0.87590458 -0.00064049339 3.5112565e-23)
(0.8893939 -1.6572595e-05 0)
(0.90439946 0.00052202027 1.1484551e-22)
(0.92055433 0.00062019836 -3.7390924e-23)
(0.93758534 0.00035145148 0)
(0.95403902 0.00041781097 -4.6829731e-22)
(0.96987279 0.00031561841 0)
(0.98292184 0.0019504827 0)
(0.99509021 0.0025978008 0)
(1.0028197 0.0034303481 0)
(1.0060681 0.0035871362 0)
(1.0054599 0.0022739879 0)
(1.0055547 0.0017334645 0)
(1.0064919 0.0004587166 0)
(1.0070009 -0.00013805634 0)
(1.0072021 -0.0014292227 0)
(1.0073914 -0.0022090083 0)
(1.0076374 -0.0033968151 0)
(1.0080617 -0.0043299561 0)
(1.0086661 -0.0053097775 0)
(1.0094743 -0.0060746671 0)
(1.0104335 -0.0066253966 0)
(1.0114769 -0.0068837524 0)
(1.0125123 -0.0068296606 0)
(1.0134466 -0.0064727565 0)
(1.0142001 -0.0058545533 0)
(1.014708 -0.0050466347 0)
(1.014943 -0.0041326914 0)
(1.0149065 -0.0031975642 0)
(1.0146314 -0.0023120925 0)
(1.0141659 -0.0015308609 0)
(1.01357 -0.00088542482 0)
(1.0129037 -0.00039057 0)
(1.0122244 -4.5801372e-05 0)
(1.0115836 0.00015853395 0)
(1.0110275 0.0002373948 0)
(1.0105993 0.00020796286 0)
(1.0103422 8.7800013e-05 0)
(0.85480459 -0.00069200554 2.8786678e-24)
(0.85591849 -0.00016566715 4.8057217e-24)
(0.8660811 0.0004283001 1.2532601e-23)
(0.87767679 0.00083338337 3.0392707e-24)
(0.88947709 0.00080590554 -8.9417464e-24)
(0.90256399 0.00064464085 -3.0757172e-24)
(0.86367928 -0.00047072215 -7.6151786e-23)
(0.87559702 -1.02998e-06 -4.6622762e-23)