/*--------------------------------*- C++ -*----------------------------------*\
| =========                 |                                                 |
| \\      /  F ield         | OpenFOAM: The Open Source CFD Toolbox           |
|  \\    /   O peration     | Version:  5.0                                   |
|   \\  /    A nd           | Web:      www.OpenFOAM.org                      |
|    \\/     M anipulation  |                                                 |
\*---------------------------------------------------------------------------*/
FoamFile
{
    version     2.0;
    format      ascii;
    class       volSymmTensorField;
    location    "220";
    object      UPrime2Mean;
}
// * * * * * * * * * * * * * * * * * * * * * * * * * * * * * * * * * * * * * //

dimensions      [0 2 -2 0 0 0 0];

internalField   nonuniform List<symmTensor> 
9520
(
(3.0247968e-05 6.8888563e-07 0 2.2861273e-08 0 0)
(3.0673518e-05 2.0240017e-06 0 1.968314e-07 0 0)
(2.6304301e-05 6.5136199e-07 0 2.3579475e-08 0 0)
(3.1445897e-05 3.2770173e-06 0 5.1329282e-07 0 0)
(2.6739925e-05 1.9164342e-06 0 2.0306417e-07 0 0)
(2.4768278e-05 6.4196281e-07 0 2.4152641e-08 0 0)
(3.2515511e-05 4.4524394e-06 0 9.4197999e-07 0 0)
(2.7536352e-05 3.1102725e-06 0 5.2982751e-07 0 0)
(2.5204594e-05 1.8904006e-06 0 2.080907e-07 0 0)
(2.2390934e-05 6.2477293e-07 0 2.5297194e-08 0 0)
(3.3842161e-05 5.5530298e-06 0 1.4566665e-06 0 0)
(2.8647173e-05 4.2399168e-06 0 9.7319798e-07 0 0)
(2.6002202e-05 3.0726373e-06 0 5.4336539e-07 0 0)
(2.2824076e-05 1.8423013e-06 0 2.1813557e-07 0 0)
(2.0615287e-05 6.1225683e-07 0 2.6389896e-08 0 0)
(3.5389629e-05 6.5787014e-06 0 2.0349682e-06 0 0)
(3.0036436e-05 5.3096973e-06 0 1.5066474e-06 0 0)
(2.7117051e-05 4.1971467e-06 0 9.9899787e-07 0 0)
(2.361973e-05 3.0017812e-06 0 5.7038378e-07 0 0)
(2.1043086e-05 1.8072712e-06 0 2.2771408e-07 0 0)
(1.8691168e-05 5.9840653e-07 0 2.7855342e-08 0 0)
(3.712198e-05 7.5285873e-06 0 2.6580876e-06 0 0)
(3.1672036e-05 6.3205227e-06 0 2.1075227e-06 0 0)
(2.8515294e-05 5.2692606e-06 0 1.5482404e-06 0 0)
(2.4736363e-05 4.1139578e-06 0 1.0505542e-06 0 0)
(2.1830224e-05 2.9506631e-06 0 5.9621629e-07 0 0)
(1.9107312e-05 1.7685967e-06 0 2.4061939e-07 0 0)
(1.7024703e-05 5.837182e-07 0 2.9233892e-08 0 0)
(3.9003577e-05 8.4009536e-06 0 3.3106076e-06 0 0)
(3.3522126e-05 7.2720254e-06 0 2.7569958e-06 0 0)
(3.0166822e-05 6.2904144e-06 0 2.1680714e-06 0 0)
(2.6143268e-05 5.1861195e-06 0 1.6317768e-06 0 0)
(2.2937797e-05 4.0551923e-06 0 1.1000549e-06 0 0)
(1.9874947e-05 2.894342e-06 0 6.3117449e-07 0 0)
(1.7429061e-05 1.7271617e-06 0 2.5276708e-07 0 0)
(1.5362066e-05 5.6741596e-07 0 3.0830532e-08 0 0)
(4.0998458e-05 9.1928325e-06 0 3.98042e-06 0 0)
(3.5555606e-05 8.1620237e-06 0 3.4396628e-06 0 0)
(3.2041592e-05 7.260527e-06 0 2.8389623e-06 0 0)
(2.7813496e-05 6.2210196e-06 0 2.2910877e-06 0 0)
(2.433804e-05 5.1298058e-06 0 1.7122294e-06 0 0)
(2.0958429e-05 3.9907184e-06 0 1.1674321e-06 0 0)
(1.8176128e-05 2.8325116e-06 0 6.641899e-07 0 0)
(1.5748582e-05 1.6809779e-06 0 2.6686454e-07 0 0)
(1.3875937e-05 5.4813211e-07 0 3.2297273e-08 0 0)
(4.3072137e-05 9.9040016e-06 0 4.6579847e-06 0 0)
(3.7737425e-05 8.9871365e-06 0 4.142257e-06 0 0)
(3.4108362e-05 8.1780301e-06 0 3.54456e-06 0 0)
(2.9720152e-05 7.2193544e-06 0 3.0090355e-06 0 0)
(2.6006773e-05 6.1782773e-06 0 2.4096563e-06 0 0)
(2.2333068e-05 5.0683846e-06 0 1.8225023e-06 0 0)
(1.9232846e-05 3.9168985e-06 0 1.2313447e-06 0 0)
(1.6463707e-05 2.7627037e-06 0 7.0261979e-07 0 0)
(1.4245007e-05 1.6257617e-06 0 2.7982483e-07 0 0)
(1.2443578e-05 5.2614553e-07 0 3.3848262e-08 0 0)
(4.51908e-05 1.0527425e-05 0 5.3375309e-06 0 0)
(4.0037053e-05 9.7454538e-06 0 4.8543961e-06 0 0)
(3.6336809e-05 9.0403728e-06 0 4.2731795e-06 0 0)
(3.1836046e-05 8.1794922e-06 0 3.7691492e-06 0 0)
(2.7919122e-05 7.2019967e-06 0 3.172749e-06 0 0)
(2.3978114e-05 6.1325612e-06 0 2.5735105e-06 0 0)
(2.0577202e-05 4.9924413e-06 0 1.9276351e-06 0 0)
(1.7478165e-05 3.8315647e-06 0 1.3059916e-06 0 0)
(1.4928987e-05 2.6772845e-06 0 7.3806221e-07 0 0)
(1.2790947e-05 1.5622651e-06 0 2.9358159e-07 0 0)
(1.1162461e-05 5.0111585e-07 0 3.5209494e-08 0 0)
(4.7325143e-05 1.1076208e-05 0 6.0145308e-06 0 0)
(4.2423871e-05 1.0429411e-05 0 5.5712607e-06 0 0)
(3.8696698e-05 9.8451538e-06 0 5.0142063e-06 0 0)
(3.4131435e-05 9.0977231e-06 0 4.5571551e-06 0 0)
(3.0048777e-05 8.1997483e-06 0 3.9849788e-06 0 0)
(2.587201e-05 7.18571e-06 0 3.4010098e-06 0 0)
(2.2191066e-05 6.0656601e-06 0 2.7304445e-06 0 0)
(1.8773006e-05 4.9010393e-06 0 2.0509131e-06 0 0)
(1.5901514e-05 3.7231647e-06 0 1.3751975e-06 0 0)
(1.3435776e-05 2.5775553e-06 0 7.7588283e-07 0 0)
(1.1488989e-05 1.489315e-06 0 3.0568946e-07 0 0)
(9.9579107e-06 4.7372305e-07 0 3.6524205e-08 0 0)
(4.9452519e-05 1.1530392e-05 0 6.7062616e-06 0 0)
(4.4893565e-05 1.1050081e-05 0 6.2876648e-06 0 0)
(4.11535e-05 1.0587455e-05 0 5.7614894e-06 0 0)
(3.6576733e-05 9.9728896e-06 0 5.3630513e-06 0 0)
(3.2366823e-05 9.1690787e-06 0 4.8327965e-06 0 0)
(2.799182e-05 8.2271638e-06 0 4.2882678e-06 0 0)
(2.4055293e-05 7.1398785e-06 0 3.6205627e-06 0 0)
(2.0333101e-05 5.9790622e-06 0 2.9153996e-06 0 0)
(1.7146075e-05 4.7781195e-06 0 2.1659532e-06 0 0)
(1.4355098e-05 3.5934476e-06 0 1.4494276e-06 0 0)
(1.2096378e-05 2.4612259e-06 0 8.093314e-07 0 0)
(1.0261615e-05 1.408883e-06 0 3.1746524e-07 0 0)
(8.889855e-06 4.4450555e-07 0 3.7569483e-08 0 0)
(5.1551157e-05 1.1926323e-05 0 7.3736395e-06 0 0)
(4.7398801e-05 1.1574421e-05 0 7.0055183e-06 0 0)
(4.3674797e-05 1.1267832e-05 0 6.5079498e-06 0 0)
(3.9155973e-05 1.0800645e-05 0 6.178497e-06 0 0)
(3.4846502e-05 1.0108272e-05 0 5.7056783e-06 0 0)
(3.0312584e-05 9.254314e-06 0 5.2211764e-06 0 0)
(2.6148962e-05 8.2151461e-06 0 4.5815534e-06 0 0)
(2.214244e-05 7.0702194e-06 0 3.8806829e-06 0 0)
(1.8649645e-05 5.8512018e-06 0 3.0891229e-06 0 0)
(1.5535299e-05 4.6257334e-06 0 2.2898846e-06 0 0)
(1.2964396e-05 3.4389074e-06 0 1.5155956e-06 0 0)
(1.0827719e-05 2.3315302e-06 0 8.4217821e-07 0 0)
(9.1725254e-06 1.322619e-06 0 3.2688961e-07 0 0)
(7.905815e-06 4.1386489e-07 0 3.8457538e-08 0 0)
(5.3593521e-05 1.2179353e-05 0 8.0962809e-06 0 0)
(4.9880864e-05 1.2052194e-05 0 7.7264054e-06 0 0)
(4.6218103e-05 1.1876289e-05 0 7.270566e-06 0 0)
(4.1841462e-05 1.1584675e-05 0 6.9963983e-06 0 0)
(3.7447405e-05 1.1011268e-05 0 6.5966562e-06 0 0)
(3.2810229e-05 1.0265137e-05 0 6.1885734e-06 0 0)
(2.8448396e-05 9.2895423e-06 0 5.5997655e-06 0 0)
(2.4184093e-05 8.175586e-06 0 4.9303921e-06 0 0)
(2.0397915e-05 6.9478246e-06 0 4.1265959e-06 0 0)
(1.6965342e-05 5.6843653e-06 0 3.2771137e-06 0 0)
(1.4081726e-05 4.4390809e-06 0 2.4014773e-06 0 0)
(1.163886e-05 3.2638192e-06 0 1.5812011e-06 0 0)
(9.7003589e-06 2.1910866e-06 0 8.6874712e-07 0 0)
(8.1671492e-06 1.2317568e-06 0 3.3499816e-07 0 0)
(7.0425991e-06 3.8249357e-07 0 3.9030121e-08 0 0)
(5.5574358e-05 1.2443157e-05 0 8.7667568e-06 0 0)
(5.2377497e-05 1.2409539e-05 0 8.4991099e-06 0 0)
(4.8790771e-05 1.2441224e-05 0 8.0249896e-06 0 0)
(4.455627e-05 1.2294902e-05 0 7.8227045e-06 0 0)
(4.0153393e-05 1.1879623e-05 0 7.5002601e-06 0 0)
(3.5467136e-05 1.1253391e-05 0 7.1801873e-06 0 0)
(3.0927408e-05 1.0358331e-05 0 6.6642959e-06 0 0)
(2.6439344e-05 9.2937916e-06 0 6.0504053e-06 0 0)
(2.2374744e-05 8.0697472e-06 0 5.2624713e-06 0 0)
(1.8633837e-05 6.7759356e-06 0 4.3939189e-06 0 0)
(1.5439429e-05 5.4724536e-06 0 3.4481951e-06 0 0)
(1.268628e-05 4.2230241e-06 0 2.513021e-06 0 0)
(1.0458182e-05 3.071814e-06 0 1.6350519e-06 0 0)
(8.655859e-06 2.0419743e-06 0 8.9205599e-07 0 0)
(7.2851152e-06 1.1385346e-06 0 3.403271e-07 0 0)
(6.2626662e-06 3.5032413e-07 0 3.9388414e-08 0 0)
(5.7464718e-05 1.2471241e-05 0 9.5982686e-06 0 0)
(5.4872847e-05 1.2781945e-05 0 9.2591315e-06 0 0)
(5.1400823e-05 1.2898841e-05 0 8.8299088e-06 0 0)
(4.7286805e-05 1.2959975e-05 0 8.6576074e-06 0 0)
(4.292015e-05 1.2690696e-05 0 8.4254966e-06 0 0)
(3.8240617e-05 1.2216445e-05 0 8.1965613e-06 0 0)
(3.3564677e-05 1.1417024e-05 0 7.7683324e-06 0 0)
(2.8890655e-05 1.0422276e-05 0 7.2286764e-06 0 0)
(2.4560944e-05 9.2160491e-06 0 6.4827037e-06 0 0)
(2.0527899e-05 7.9035135e-06 0 5.6249032e-06 0 0)
(1.7027335e-05 6.5460648e-06 0 4.6397316e-06 0 0)
(1.396314e-05 5.2203811e-06 0 3.6204557e-06 0 0)
(1.1439232e-05 3.9822651e-06 0 2.6062471e-06 0 0)
(9.3594178e-06 2.8657518e-06 0 1.6832287e-06 0 0)
(7.7390629e-06 1.8881135e-06 0 9.0786518e-07 0 0)
(6.4869149e-06 1.0426894e-06 0 3.4381379e-07 0 0)
(5.5874651e-06 3.1807603e-07 0 3.9436159e-08 0 0)
(5.9251283e-05 1.265395e-05 0 1.0385416e-05 0 0)
(5.7383128e-05 1.2908019e-05 0 1.0189362e-05 0 0)
(5.4041218e-05 1.3350656e-05 0 9.6175989e-06 0 0)
(5.0064609e-05 1.3535663e-05 0 9.5599403e-06 0 0)
(4.5741579e-05 1.3459602e-05 0 9.3712065e-06 0 0)
(4.1096313e-05 1.3124983e-05 0 9.2414702e-06 0 0)
(3.6347837e-05 1.2462872e-05 0 8.9070562e-06 0 0)
(3.1514213e-05 1.1555487e-05 0 8.4566979e-06 0 0)
(2.6937306e-05 1.0384271e-05 0 7.7756077e-06 0 0)
(2.2632333e-05 9.0677775e-06 0 6.9559574e-06 0 0)
(1.8832713e-05 7.6631723e-06 0 5.9616635e-06 0 0)
(1.5461545e-05 6.2636704e-06 0 4.8890496e-06 0 0)
(1.2638742e-05 4.9340314e-06 0 3.7671867e-06 0 0)
(1.0273052e-05 3.7203314e-06 0 2.6911519e-06 0 0)
(8.3936721e-06 2.6513892e-06 0 1.717141e-06 0 0)
(6.9070155e-06 1.7289623e-06 0 9.1892504e-07 0 0)
(5.7961955e-06 9.4654357e-07 0 3.4454626e-07 0 0)
(4.9908742e-06 2.8560806e-07 0 3.9253445e-08 0 0)
(6.0901258e-05 1.234733e-05 0 1.1439881e-05 0 0)
(5.9929928e-05 1.3208054e-05 0 1.1156171e-05 0 0)
(5.6730655e-05 1.3585939e-05 0 1.0615548e-05 0 0)
(5.2890866e-05 1.409289e-05 0 1.046564e-05 0 0)
(4.8653141e-05 1.414359e-05 0 1.0392413e-05 0 0)
(4.4026727e-05 1.3994313e-05 0 1.0327492e-05 0 0)
(3.924231e-05 1.3468379e-05 0 1.0087807e-05 0 0)
(3.4292394e-05 1.2688207e-05 0 9.7311833e-06 0 0)
(2.9489233e-05 1.157224e-05 0 9.1316939e-06 0 0)
(2.4928769e-05 1.0267436e-05 0 8.3743874e-06 0 0)
(2.0839243e-05 8.8243911e-06 0 7.4006534e-06 0 0)
(1.7171613e-05 7.357128e-06 0 6.3056417e-06 0 0)
(1.4050589e-05 5.9353034e-06 0 5.1051396e-06 0 0)
(1.1394031e-05 4.6176466e-06 0 3.902871e-06 0 0)
(9.2456025e-06 3.4449265e-06 0 2.7533225e-06 0 0)
(7.5145249e-06 2.4278582e-06 0 1.7424418e-06 0 0)
(6.1875593e-06 1.5688005e-06 0 9.2246045e-07 0 0)
(5.1851466e-06 8.4946748e-07 0 3.4328035e-07 0 0)
(4.483126e-06 2.5377198e-07 0 3.8789488e-08 0 0)
(6.2184615e-05 1.2488557e-05 0 1.2638607e-05 0 0)
(6.2665614e-05 1.2847137e-05 0 1.2488197e-05 0 0)
(5.9515784e-05 1.3943835e-05 0 1.1648969e-05 0 0)
(5.5815168e-05 1.4465556e-05 0 1.16397e-05 0 0)
(5.1631315e-05 1.4786847e-05 0 1.1456168e-05 0 0)
(4.7097836e-05 1.4785111e-05 0 1.1508449e-05 0 0)
(4.2239281e-05 1.4440584e-05 0 1.1326112e-05 0 0)
(3.719967e-05 1.3797843e-05 0 1.105847e-05 0 0)
(3.2202194e-05 1.2776686e-05 0 1.0546015e-05 0 0)
(2.7396583e-05 1.149917e-05 0 9.8702576e-06 0 0)
(2.3030674e-05 1.0029257e-05 0 8.9446651e-06 0 0)
(1.9080206e-05 8.5023283e-06 0 7.8578098e-06 0 0)
(1.5666057e-05 6.9904209e-06 0 6.6083995e-06 0 0)
(1.2718113e-05 5.566449e-06 0 5.3076823e-06 0 0)
(1.0293611e-05 4.2807046e-06 0 4.0060773e-06 0 0)
(8.3074814e-06 3.1549963e-06 0 2.8022504e-06 0 0)
(6.754495e-06 2.2017248e-06 0 1.7532533e-06 0 0)
(5.5498379e-06 1.4062214e-06 0 9.2074926e-07 0 0)
(4.6657401e-06 7.5419991e-07 0 3.3951884e-07 0 0)
(4.0461566e-06 2.2264971e-07 0 3.8098973e-08 0 0)
(6.3264878e-05 1.1511771e-05 0 1.4035175e-05 0 0)
(6.5459862e-05 1.338124e-05 0 1.4276606e-05 0 0)
(6.2658312e-05 1.3692488e-05 0 1.3216013e-05 0 0)
(5.8942043e-05 1.4883503e-05 0 1.290466e-05 0 0)
(5.4821742e-05 1.5259766e-05 0 1.2863076e-05 0 0)
(5.029566e-05 1.5522207e-05 0 1.2783116e-05 0 0)
(4.5417183e-05 1.5345729e-05 0 1.2683845e-05 0 0)
(4.0222056e-05 1.4882318e-05 0 1.2457026e-05 0 0)
(3.5053422e-05 1.3979648e-05 0 1.2023271e-05 0 0)
(3.0018018e-05 1.2761277e-05 0 1.143801e-05 0 0)
(2.5388436e-05 1.127618e-05 0 1.0584485e-05 0 0)
(2.1170517e-05 9.6982494e-06 0 9.5342437e-06 0 0)
(1.7473171e-05 8.1008143e-06 0 8.2655907e-06 0 0)
(1.4238933e-05 6.5719763e-06 0 6.8955062e-06 0 0)
(1.1534957e-05 5.1679366e-06 0 5.4669985e-06 0 0)
(9.2858661e-06 3.922381e-06 0 4.0908307e-06 0 0)
(7.4959427e-06 2.8595788e-06 0 2.8277314e-06 0 0)
(6.079647e-06 1.9704968e-06 0 1.7543216e-06 0 0)
(5.0091618e-06 1.2463639e-06 0 9.1215937e-07 0 0)
(4.2185278e-06 6.6070181e-07 0 3.3378531e-07 0 0)
(3.6817678e-06 1.9309051e-07 0 3.7169257e-08 0 0)
(6.2697202e-05 1.1589731e-05 0 1.6283707e-05 0 0)
(6.8606973e-05 1.1737541e-05 0 1.6484926e-05 0 0)
(6.5919123e-05 1.4161339e-05 0 1.5341205e-05 0 0)
(6.2632569e-05 1.4798964e-05 0 1.499102e-05 0 0)
(5.8371293e-05 1.572455e-05 0 1.4490292e-05 0 0)
(5.3857831e-05 1.6084236e-05 0 1.4485464e-05 0 0)
(4.8837266e-05 1.6198768e-05 0 1.4189383e-05 0 0)
(4.3445264e-05 1.5915973e-05 0 1.4002165e-05 0 0)
(3.8027881e-05 1.5171735e-05 0 1.3584118e-05 0 0)
(3.277696e-05 1.4039642e-05 0 1.3081196e-05 0 0)
(2.789526e-05 1.2564225e-05 0 1.2314543e-05 0 0)
(2.3423669e-05 1.0941756e-05 0 1.1326828e-05 0 0)
(1.9458467e-05 9.2654828e-06 0 1.0066945e-05 0 0)
(1.5947437e-05 7.6363932e-06 0 8.6561285e-06 0 0)
(1.2964907e-05 6.1125285e-06 0 7.1277354e-06 0 0)
(1.0448091e-05 4.7396819e-06 0 5.602377e-06 0 0)
(8.4123596e-06 3.5538433e-06 0 4.1415195e-06 0 0)
(6.7745143e-06 2.5551183e-06 0 2.8379011e-06 0 0)
(5.509028e-06 1.7423412e-06 0 1.741942e-06 0 0)
(4.5434249e-06 1.0886054e-06 0 8.983095e-07 0 0)
(3.8465826e-06 5.7176232e-07 0 3.2590824e-07 0 0)
(3.3770135e-06 1.6529567e-07 0 3.6038018e-08 0 0)
(6.0277772e-05 8.9790042e-06 0 1.7949632e-05 0 0)
(7.0505466e-05 1.2995093e-05 0 2.0371199e-05 0 0)
(7.0429697e-05 1.2412152e-05 0 1.837999e-05 0 0)
(6.6880851e-05 1.517365e-05 0 1.777943e-05 0 0)
(6.2746625e-05 1.5684872e-05 0 1.7220651e-05 0 0)
(5.8034231e-05 1.6596407e-05 0 1.6581025e-05 0 0)
(5.2749822e-05 1.6874549e-05 0 1.6222189e-05 0 0)
(4.7007543e-05 1.6908979e-05 0 1.5742938e-05 0 0)
(4.1201414e-05 1.6328367e-05 0 1.5312755e-05 0 0)
(3.5662861e-05 1.5322129e-05 0 1.4823654e-05 0 0)
(3.0536507e-05 1.3880582e-05 0 1.4140873e-05 0 0)
(2.5823683e-05 1.2230615e-05 0 1.3232139e-05 0 0)
(2.1607346e-05 1.0481454e-05 0 1.2004851e-05 0 0)
(1.7832462e-05 8.7587539e-06 0 1.058012e-05 0 0)
(1.4576194e-05 7.117429e-06 0 8.9789686e-06 0 0)
(1.1790632e-05 5.6137781e-06 0 7.3306198e-06 0 0)
(9.5030318e-06 4.2943796e-06 0 5.6918341e-06 0 0)
(7.6355339e-06 3.1709601e-06 0 4.1704737e-06 0 0)
(6.165782e-06 2.2530864e-06 0 2.8259289e-06 0 0)
(5.0178082e-06 1.5155887e-06 0 1.719575e-06 0 0)
(4.1582396e-06 9.3834279e-07 0 8.7848276e-07 0 0)
(3.5359387e-06 4.8781595e-07 0 3.1626526e-07 0 0)
(3.1283351e-06 1.3984248e-07 0 3.4725014e-08 0 0)
(5.5737233e-05 7.9229375e-06 0 2.2225703e-05 0 0)
(7.2283039e-05 8.1654275e-06 0 2.4063129e-05 0 0)
(7.3966536e-05 1.3729987e-05 0 2.3712659e-05 0 0)
(7.3054341e-05 1.3455249e-05 0 2.2381951e-05 0 0)
(6.8317164e-05 1.5913375e-05 0 2.1061203e-05 0 0)
(6.3411292e-05 1.6584981e-05 0 2.0154598e-05 0 0)
(5.7573719e-05 1.7475027e-05 0 1.8847823e-05 0 0)
(5.1183905e-05 1.7740733e-05 0 1.8114053e-05 0 0)
(4.4776085e-05 1.7464988e-05 0 1.7282864e-05 0 0)
(3.8737968e-05 1.6580705e-05 0 1.6758144e-05 0 0)
(3.3306792e-05 1.521029e-05 0 1.6093826e-05 0 0)
(2.8360664e-05 1.3552263e-05 0 1.5261165e-05 0 0)
(2.3907772e-05 1.1743971e-05 0 1.4079087e-05 0 0)
(1.988336e-05 9.93516e-06 0 1.2659815e-05 0 0)
(1.6360636e-05 8.1826666e-06 0 1.1011566e-05 0 0)
(1.3307846e-05 6.5489987e-06 0 9.2675401e-06 0 0)
(1.0765294e-05 5.0888948e-06 0 7.4749204e-06 0 0)
(8.6623267e-06 3.8277224e-06 0 5.752623e-06 0 0)
(6.9806808e-06 2.7881778e-06 0 4.1666505e-06 0 0)
(5.6429067e-06 1.9506185e-06 0 2.7978264e-06 0 0)
(4.6143199e-06 1.2990858e-06 0 1.6853309e-06 0 0)
(3.8373922e-06 7.9569636e-07 0 8.5382439e-07 0 0)
(3.2837832e-06 4.1083976e-07 0 3.0496711e-07 0 0)
(2.9261925e-06 1.1684184e-07 0 3.3266393e-08 0 0)
(5.4861273e-05 4.6055048e-06 0 2.4526183e-05 0 0)
(7.1833979e-05 8.4462321e-06 0 3.1702312e-05 0 0)
(7.9051629e-05 7.7992508e-06 0 3.0168657e-05 0 0)
(7.9634053e-05 1.4503911e-05 0 2.9892768e-05 0 0)
(7.6779985e-05 1.4103502e-05 0 2.773109e-05 0 0)
(7.0889414e-05 1.6643024e-05 0 2.5346929e-05 0 0)
(6.406678e-05 1.7564536e-05 0 2.3373362e-05 0 0)
(5.6542582e-05 1.8482468e-05 0 2.1294047e-05 0 0)
(4.906879e-05 1.8462944e-05 0 1.9972478e-05 0 0)
(4.2250066e-05 1.7841105e-05 0 1.8986432e-05 0 0)
(3.6277014e-05 1.6522689e-05 0 1.8273076e-05 0 0)
(3.1036785e-05 1.4884814e-05 0 1.7450574e-05 0 0)
(2.6356611e-05 1.3040028e-05 0 1.6304357e-05 0 0)
(2.2093139e-05 1.1159076e-05 0 1.4896076e-05 0 0)
(1.8311342e-05 9.3055014e-06 0 1.3217169e-05 0 0)
(1.4992972e-05 7.5471273e-06 0 1.1403822e-05 0 0)
(1.21939e-05 5.9431186e-06 0 9.484373e-06 0 0)
(9.8523875e-06 4.533708e-06 0 7.5837788e-06 0 0)
(7.9538921e-06 3.356801e-06 0 5.7685091e-06 0 0)
(6.420598e-06 2.4018393e-06 0 4.1392805e-06 0 0)
(5.216524e-06 1.6605705e-06 0 2.7497285e-06 0 0)
(4.279961e-06 1.0920727e-06 0 1.6416541e-06 0 0)
(3.5796749e-06 6.6482308e-07 0 8.2444049e-07 0 0)
(3.079803e-06 3.4111845e-07 0 2.9234026e-07 0 0)
(2.7648094e-06 9.6481094e-08 0 3.1694218e-08 0 0)
(5.3382878e-05 1.5499234e-06 0 3.1925262e-05 0 0)
(7.9549638e-05 4.9637738e-07 0 3.8257783e-05 0 0)
(8.2249532e-05 7.8207021e-06 0 4.147249e-05 0 0)
(8.9206658e-05 7.7229947e-06 0 4.0931173e-05 0 0)
(8.7707013e-05 1.4539481e-05 0 3.8445767e-05 0 0)
(8.2401064e-05 1.4660675e-05 0 3.467548e-05 0 0)
(7.3645758e-05 1.7558424e-05 0 3.0160579e-05 0 0)
(6.4052697e-05 1.8734019e-05 0 2.6835257e-05 0 0)
(5.4793333e-05 1.9368309e-05 0 2.3685727e-05 0 0)
(4.6565281e-05 1.8990014e-05 0 2.2030976e-05 0 0)
(3.9709183e-05 1.7847002e-05 0 2.0826898e-05 0 0)
(3.3949043e-05 1.6198442e-05 0 1.9916032e-05 0 0)
(2.8966933e-05 1.4339782e-05 0 1.8724483e-05 0 0)
(2.4468453e-05 1.2417857e-05 0 1.7303809e-05 0 0)
(2.0426283e-05 1.0479402e-05 0 1.5594327e-05 0 0)
(1.684092e-05 8.6071034e-06 0 1.3729391e-05 0 0)
(1.3782554e-05 6.8609342e-06 0 1.1711451e-05 0 0)
(1.1200492e-05 5.2959953e-06 0 9.6601664e-06 0 0)
(9.0831761e-06 3.9673762e-06 0 7.634699e-06 0 0)
(7.3511818e-06 2.877354e-06 0 5.7524391e-06 0 0)
(5.9671108e-06 2.0288567e-06 0 4.0815954e-06 0 0)
(4.8662996e-06 1.3810605e-06 0 2.6858912e-06 0 0)
(4.01527e-06 9.0192705e-07 0 1.5883317e-06 0 0)
(3.3730103e-06 5.4573416e-07 0 7.9130196e-07 0 0)
(2.9184223e-06 2.7940913e-07 0 2.7866406e-07 0 0)
(2.6371413e-06 7.8707488e-08 0 3.0041957e-08 0 0)
(6.014866e-05 -1.3884572e-05 0 3.4550038e-05 0 0)
(8.4674491e-05 6.7320004e-07 0 5.3306447e-05 0 0)
(9.6811754e-05 -3.2388124e-06 0 5.5191254e-05 0 0)
(9.8662517e-05 6.772882e-06 0 5.8043964e-05 0 0)
(0.00010361399 6.8197316e-06 0 5.5652394e-05 0 0)
(9.9184431e-05 1.4152128e-05 0 4.9440117e-05 0 0)
(8.8643818e-05 1.5617003e-05 0 4.2600336e-05 0 0)
(7.5629361e-05 1.8742819e-05 0 3.5398939e-05 0 0)
(6.3169843e-05 1.9798743e-05 0 3.0202006e-05 0 0)
(5.2553538e-05 2.0067791e-05 0 2.6325531e-05 0 0)
(4.4028589e-05 1.9073115e-05 0 2.4329872e-05 0 0)
(3.7365337e-05 1.7512438e-05 0 2.2851448e-05 0 0)
(3.1856357e-05 1.561089e-05 0 2.147111e-05 0 0)
(2.7032094e-05 1.3676766e-05 0 1.9932372e-05 0 0)
(2.2719365e-05 1.1693146e-05 0 1.8157461e-05 0 0)
(1.885281e-05 9.7249736e-06 0 1.6238721e-05 0 0)
(1.5525934e-05 7.8441535e-06 0 1.414477e-05 0 0)
(1.2699563e-05 6.1206612e-06 0 1.1974449e-05 0 0)
(1.0363026e-05 4.6279278e-06 0 9.7649678e-06 0 0)
(8.4323681e-06 3.3852789e-06 0 7.6449725e-06 0 0)
(6.8670953e-06 2.4106802e-06 0 5.693684e-06 0 0)
(5.5997444e-06 1.6665769e-06 0 4.000032e-06 0 0)
(4.5939262e-06 1.1235403e-06 0 2.6053055e-06 0 0)
(3.8060493e-06 7.2775472e-07 0 1.5273225e-06 0 0)
(3.2124771e-06 4.4039187e-07 0 7.5506834e-07 0 0)
(2.792041e-06 2.2555037e-07 0 2.6424414e-07 0 0)
(2.5375598e-06 6.3427147e-08 0 2.8341398e-08 0 0)
(9.8231464e-05 -3.0617913e-05 0 4.5784088e-05 0 0)
(0.00011171527 -3.0483821e-05 0 6.1763881e-05 0 0)
(0.00010866446 -1.0824284e-06 0 7.865099e-05 0 0)
(0.00012335921 -6.63855e-06 0 8.193526e-05 0 0)
(0.00012284491 4.0875293e-06 0 8.1722667e-05 0 0)
(0.00012372787 5.2932835e-06 0 7.4467038e-05 0 0)
(0.00011207211 1.4342887e-05 0 6.2303022e-05 0 0)
(9.4148703e-05 1.6924034e-05 0 5.1336426e-05 0 0)
(7.6615316e-05 1.9870555e-05 0 4.0546591e-05 0 0)
(6.1691234e-05 2.0709178e-05 0 3.3883989e-05 0 0)
(5.0249247e-05 2.0242895e-05 0 2.9373188e-05 0 0)
(4.1788008e-05 1.8714232e-05 0 2.68915e-05 0 0)
(3.5322117e-05 1.6861979e-05 0 2.4777898e-05 0 0)
(2.9917429e-05 1.4899123e-05 0 2.2918254e-05 0 0)
(2.5222049e-05 1.2911932e-05 0 2.0954157e-05 0 0)
(2.1046356e-05 1.0892147e-05 0 1.8942303e-05 0 0)
(1.7425083e-05 8.8925092e-06 0 1.6776181e-05 0 0)
(1.4342946e-05 7.0123955e-06 0 1.4515356e-05 0 0)
(1.1785612e-05 5.3459942e-06 0 1.2154984e-05 0 0)
(9.6585471e-06 3.934002e-06 0 9.8211958e-06 0 0)
(7.9146806e-06 2.813164e-06 0 7.5985029e-06 0 0)
(6.4817516e-06 1.9533506e-06 0 5.6011684e-06 0 0)
(5.319796e-06 1.3309158e-06 0 3.8921603e-06 0 0)
(4.3835385e-06 8.8587501e-07 0 2.5112901e-06 0 0)
(3.6482296e-06 5.7390596e-07 0 1.4596903e-06 0 0)
(3.0892362e-06 3.4828412e-07 0 7.1659767e-07 0 0)
(2.6949174e-06 1.7936781e-07 0 2.4935798e-07 0 0)
(2.4608153e-06 5.0469675e-08 0 2.6621856e-08 0 0)
(0.000182717 -4.7236854e-05 0 5.0188003e-05 0 0)
(0.00016553908 -5.5014104e-05 0 8.7461671e-05 0 0)
(0.00014944694 -4.6971475e-05 0 0.00010194869 0 0)
(0.00014831074 -2.9347939e-06 0 0.00011922589 0 0)
(0.00016137311 -1.1406823e-05 0 0.00011900648 0 0)
(0.00015669096 4.9263129e-08 0 0.00011224936 0 0)
(0.00014705682 4.7566424e-06 0 9.6493865e-05 0 0)
(0.00012427504 1.4933045e-05 0 7.6752686e-05 0 0)
(9.8742853e-05 1.8167575e-05 0 5.995337e-05 0 0)
(7.6896757e-05 2.0978202e-05 0 4.6129115e-05 0 0)
(6.0106483e-05 2.1000182e-05 0 3.8231156e-05 0 0)
(4.8358617e-05 1.9833894e-05 0 3.2800241e-05 0 0)
(3.9947472e-05 1.7976309e-05 0 2.9333487e-05 0 0)
(3.3459543e-05 1.6085406e-05 0 2.652755e-05 0 0)
(2.8070514e-05 1.4096253e-05 0 2.4120114e-05 0 0)
(2.3459133e-05 1.2079665e-05 0 2.1879898e-05 0 0)
(1.9497772e-05 1.0002311e-05 0 1.9608852e-05 0 0)
(1.6129336e-05 7.9754666e-06 0 1.7273135e-05 0 0)
(1.334193e-05 6.1284179e-06 0 1.4795942e-05 0 0)
(1.1021293e-05 4.5320444e-06 0 1.2281225e-05 0 0)
(9.1044734e-06 3.2443562e-06 0 9.8057224e-06 0 0)
(7.510957e-06 2.2471981e-06 0 7.5070025e-06 0 0)
(6.1954086e-06 1.5266923e-06 0 5.4700988e-06 0 0)
(5.111325e-06 1.0188006e-06 0 3.7628632e-06 0 0)
(4.2313054e-06 6.7585473e-07 0 2.405218e-06 0 0)
(3.5311918e-06 4.388574e-07 0 1.3871026e-06 0 0)
(2.9975074e-06 2.695445e-07 0 6.7663707e-07 0 0)
(2.6214474e-06 1.4036072e-07 0 2.3427717e-07 0 0)
(2.4024609e-06 3.9650553e-08 0 2.4908978e-08 0 0)
(0.00033053696 -6.5561855e-05 0 6.1957619e-05 0 0)
(0.00025849211 -8.7425109e-05 0 0.0001061193 0 0)
(0.00021875667 -8.3786962e-05 0 0.00014287906 0 0)
(0.00020533938 -6.2554721e-05 0 0.00016390437 0 0)
(0.00020888737 -6.6220487e-06 0 0.00017840427 0 0)
(0.00021426408 -1.7854412e-05 0 0.0001666888 0 0)
(0.00019650571 -2.7888797e-06 0 0.00014878078 0 0)
(0.00017061004 4.5961556e-06 0 0.00012161939 0 0)
(0.00013582251 1.5532578e-05 0 9.1293086e-05 0 0)
(0.00010264564 1.9584624e-05 0 6.9128481e-05 0 0)
(7.6995056e-05 2.1404462e-05 0 5.2797372e-05 0 0)
(5.9104441e-05 2.0501437e-05 0 4.3111845e-05 0 0)
(4.7015511e-05 1.8968314e-05 0 3.6063312e-05 0 0)
(3.8312446e-05 1.7119402e-05 0 3.1487609e-05 0 0)
(3.1637058e-05 1.5240431e-05 0 2.7939814e-05 0 0)
(2.622073e-05 1.3247264e-05 0 2.5182053e-05 0 0)
(2.1784207e-05 1.1153732e-05 0 2.26763e-05 0 0)
(1.8072577e-05 9.0115333e-06 0 2.0246849e-05 0 0)
(1.5027475e-05 6.9828317e-06 0 1.7679855e-05 0 0)
(1.2511131e-05 5.1882758e-06 0 1.5020669e-05 0 0)
(1.0428276e-05 3.7128159e-06 0 1.2321104e-05 0 0)
(8.6826853e-06 2.5553416e-06 0 9.7330796e-06 0 0)
(7.2205242e-06 1.7146005e-06 0 7.3619189e-06 0 0)
(5.9929895e-06 1.126445e-06 0 5.3070524e-06 0 0)
(4.9688165e-06 7.4202831e-07 0 3.613606e-06 0 0)
(4.1250648e-06 4.9046228e-07 0 2.2898789e-06 0 0)
(3.4491082e-06 3.2392934e-07 0 1.3110081e-06 0 0)
(2.9309252e-06 2.0325609e-07 0 6.3592529e-07 0 0)
(2.5668771e-06 1.0798635e-07 0 2.1923052e-07 0 0)
(2.3586734e-06 3.077123e-08 0 2.3223412e-08 0 0)
(0.0005758688 -8.1589401e-05 -2.1624625e-26 7.0380957e-05 6.9476513e-26 1.3488974e-46)
(0.00041578256 -0.00011529793 0 0.00013681883 0 0)
(0.00032199537 -0.00013218012 0 0.00018476485 0 0)
(0.0002942644 -0.00011641495 0 0.000226243 0 0)
(0.00028716536 -7.8559833e-05 0 0.00025237003 0 0)
(0.000295946 -1.1783313e-05 0 0.00025594864 0 0)
(0.00027747569 -2.293883e-05 0 0.0002246741 0 0)
(0.00023846374 -5.6302273e-06 0 0.00019066206 0 0)
(0.00019456604 4.478849e-06 0 0.00014720706 0 0)
(0.00014672433 1.6873234e-05 0 0.00010678372 0 0)
(0.00010623748 2.0204077e-05 0 8.0003014e-05 0 0)
(7.7888562e-05 2.0747204e-05 0 6.022601e-05 0 0)
(5.882002e-05 1.9457262e-05 0 4.7725225e-05 0 0)
(4.5887902e-05 1.8005213e-05 0 3.8869741e-05 0 0)
(3.6629989e-05 1.6234417e-05 0 3.3162505e-05 0 0)
(2.9729462e-05 1.4386656e-05 0 2.9136333e-05 0 0)
(2.4404948e-05 1.2309597e-05 0 2.610086e-05 0 0)
(2.021463e-05 1.0110649e-05 0 2.3466005e-05 0 0)
(1.6851572e-05 7.9155291e-06 0 2.0806949e-05 0 0)
(1.4121173e-05 5.9112471e-06 0 1.8036031e-05 0 0)
(1.1876668e-05 4.2275131e-06 0 1.5146281e-05 0 0)
(9.9897311e-06 2.8859261e-06 0 1.2291626e-05 0 0)
(8.3916094e-06 1.9003475e-06 0 9.5892666e-06 0 0)
(7.0292337e-06 1.2102941e-06 0 7.1716788e-06 0 0)
(5.865909e-06 7.6958681e-07 0 5.1131444e-06 0 0)
(4.8801644e-06 4.9614306e-07 0 3.4483795e-06 0 0)
(4.0584632e-06 3.3320128e-07 0 2.167879e-06 0 0)
(3.394246e-06 2.2726084e-07 0 1.2332329e-06 0 0)
(2.8842141e-06 1.486342e-07 0 5.9523867e-07 0 0)
(2.5271005e-06 8.162085e-08 0 2.0440831e-07 0 0)
(2.3262001e-06 2.363717e-08 0 2.1581828e-08 0 0)
(0.0009247119 -9.7623426e-05 2.4003723e-26 8.5105151e-05 -1.1092409e-25 4.0785201e-46)
(0.00066486098 -0.00014695242 7.6725372e-26 0.00016908154 7.4553031e-27 1.4730498e-46)
(0.00048456329 -0.00016892566 0 0.00023613387 0 0)
(0.00040901274 -0.00018441867 0 0.00030049726 0 0)
(0.00040161071 -0.00015792646 0 0.00034944883 0 0)
(0.00040453184 -9.4428457e-05 0 0.00036922366 0 0)
(0.00040493563 -1.3321533e-05 0 0.0003508274 0 0)
(0.00034514761 -2.9338972e-05 0 0.00029381002 0 0)
(0.00028347532 -8.5745484e-06 0 0.00023360649 0 0)
(0.00021824066 6.0337134e-06 0 0.00017417796 0 0)
(0.00015703584 1.7536111e-05 0 0.0001250127 0 0)
(0.00011088621 1.9284884e-05 0 9.1978538e-05 0 0)
(7.9744323e-05 1.9452576e-05 0 6.7207226e-05 0 0)
(5.8731011e-05 1.8374264e-05 0 5.1616539e-05 0 0)
(4.4561142e-05 1.7070884e-05 0 4.0984044e-05 0 0)
(3.4735946e-05 1.5396582e-05 0 3.4494826e-05 0 0)
(2.776505e-05 1.3468235e-05 0 3.0169022e-05 0 0)
(2.2668506e-05 1.1241462e-05 0 2.7046455e-05 0 0)
(1.885585e-05 8.9255142e-06 0 2.4207334e-05 0 0)
(1.5856935e-05 6.7101306e-06 0 2.133215e-05 0 0)
(1.3443929e-05 4.7982683e-06 0 1.8284675e-05 0 0)
(1.1424339e-05 3.2480834e-06 0 1.5191612e-05 0 0)
(9.7031546e-06 2.0911216e-06 0 1.2171266e-05 0 0)
(8.2179068e-06 1.2741849e-06 0 9.384574e-06 0 0)
(6.9251569e-06 7.5705457e-07 0 6.9360934e-06 0 0)
(5.8037103e-06 4.4994295e-07 0 4.8935967e-06 0 0)
(4.8366516e-06 2.8774088e-07 0 3.270989e-06 0 0)
(4.022518e-06 2.007366e-07 0 2.0410225e-06 0 0)
(3.3611825e-06 1.4840601e-07 0 1.15485e-06 0 0)
(2.852873e-06 1.0466292e-07 0 5.5503983e-07 0 0)
(2.4986772e-06 6.0652576e-08 0 1.8995175e-07 0 0)
(2.3023293e-06 1.8062489e-08 0 1.9996705e-08 0 0)
(0.001406978 -0.00010521575 -7.8834928e-27 0.0001000988 1.1922155e-25 4.1109649e-46)
(0.0010051708 -0.00017433448 -1.5447699e-25 0.00021358259 -7.433513e-27 9.1733206e-46)
(0.00073804218 -0.00021486335 0 0.00030022361 0 0)
(0.0005774862 -0.0002309789 0 0.0003818927 0 0)
(0.00053226756 -0.00025180149 0 0.00046945024 0 0)
(0.00054607196 -0.00020506197 0 0.00051582595 0 0)
(0.00055437985 -0.00010290373 0 0.00051533703 0 0)
(0.00052236742 -1.6870211e-05 0 0.00046127091 0 0)
(0.00041925074 -3.6634787e-05 0 0.00036747856 0 0)
(0.00032958494 -8.8626406e-06 0 0.00027875382 0 0)
(0.00024088282 7.0165916e-06 0 0.00020535897 0 0)
(0.00016870781 1.614493e-05 0 0.00014478524 0 0)
(0.00011683061 1.7635013e-05 0 0.00010316812 0 0)
(8.1665577e-05 1.8251232e-05 0 7.3062797e-05 0 0)
(5.8176288e-05 1.7393794e-05 0 5.450004e-05 0 0)
(4.2833217e-05 1.625736e-05 0 4.2547835e-05 0 0)
(3.2650354e-05 1.4542699e-05 0 3.5617939e-05 0 0)
(2.5827199e-05 1.2413681e-05 0 3.128152e-05 0 0)
(2.1151104e-05 9.9850211e-06 0 2.799977e-05 0 0)
(1.7759676e-05 7.5881787e-06 0 2.4949063e-05 0 0)
(1.5135962e-05 5.4331695e-06 0 2.1749007e-05 0 0)
(1.2982795e-05 3.650773e-06 0 1.8443499e-05 0 0)
(1.1149895e-05 2.2953723e-06 0 1.5124336e-05 0 0)
(9.5551053e-06 1.3239616e-06 0 1.1972104e-05 0 0)
(8.1460308e-06 7.0576643e-07 0 9.11619e-06 0 0)
(6.8997174e-06 3.4737649e-07 0 6.6620045e-06 0 0)
(5.7929902e-06 1.7832055e-07 0 4.6537282e-06 0 0)
(4.8294267e-06 1.116914e-07 0 3.0842756e-06 0 0)
(4.010917e-06 9.3861965e-08 0 1.9124608e-06 0 0)
(3.3444721e-06 8.5533019e-08 0 1.0768871e-06 0 0)
(2.8330866e-06 7.023689e-08 0 5.1570973e-07 0 0)
(2.478684e-06 4.4501824e-08 0 1.7598593e-07 0 0)
(2.2847962e-06 1.3881411e-08 0 1.8478493e-08 0 0)
(0.0020162677 -0.0001105508 0 0.00011783454 0 0)
(0.0014661505 -0.00019423564 1.0236109e-25 0.00026442102 2.9393455e-26 9.2026093e-46)
(0.0010700157 -0.0002499996 0 0.00037595092 0 0)
(0.00083366277 -0.00029248345 0 0.00049033763 0 0)
(0.00070991938 -0.00031296372 0 0.00059593057 0 0)
(0.00069681112 -0.00033246557 0 0.00069540345 0 0)
(0.00072046343 -0.00024238957 0 0.00072950325 0 0)
(0.00072761562 -0.00010934433 0 0.00069329721 0 0)
(0.00064770301 -2.4469895e-05 0 0.00057516878 0 0)
(0.00049680183 -3.9234996e-05 0 0.00044642901 0 0)
(0.00037423955 -9.7305885e-06 0 0.00033064586 0 0)
(0.00026527782 5.0385277e-06 0 0.00023860561 0 0)
(0.00018215151 1.4030449e-05 0 0.00016318752 0 0)
(0.00012253823 1.6357933e-05 0 0.00011263986 0 0)
(8.2669719e-05 1.7227901e-05 0 7.7466852e-05 0 0)
(5.6941895e-05 1.6623869e-05 0 5.6481942e-05 0 0)
(4.0719853e-05 1.5519727e-05 0 4.3809104e-05 0 0)
(3.0495775e-05 1.3564557e-05 0 3.6901383e-05 0 0)
(2.4110699e-05 1.1112126e-05 0 3.2496005e-05 0 0)
(1.9947977e-05 8.5194401e-06 0 2.9010068e-05 0 0)