/*--------------------------------*- C++ -*----------------------------------*\
| =========                 |                                                 |
| \\      /  F ield         | OpenFOAM: The Open Source CFD Toolbox           |
|  \\    /   O peration     | Version:  5.0                                   |
|   \\  /    A nd           | Web:      www.OpenFOAM.org                      |
|    \\/     M anipulation  |                                                 |
\*---------------------------------------------------------------------------*/
FoamFile
{
    version     2.0;
    format      ascii;
    class       volScalarField;
    location    "30";
    object      p;
}
// * * * * * * * * * * * * * * * * * * * * * * * * * * * * * * * * * * * * * //

dimensions      [0 2 -2 0 0 0 0];

internalField   nonuniform List<scalar> 
9200
(
-0.00040056117
-0.00039353
-0.00087565347
-0.00038913226
-0.00086456674
-0.0014957303
-0.00038107181
-0.0008533981
-0.0014768157
-0.0020484803
-0.00037218889
-0.0008339088
-0.0014566514
-0.0020248365
-0.0026203773
-0.00036139518
-0.00081045487
-0.0014240889
-0.0019968539
-0.0025918485
-0.0031725485
-0.00034917887
-0.0007816359
-0.0013843029
-0.0019530866
-0.0025563984
-0.0031407822
-0.0037196632
-0.00033547972
-0.00074801715
-0.0013360501
-0.0018988168
-0.0025022989
-0.0030994414
-0.0036856079
-0.0042534453
-0.00032023767
-0.00070961384
-0.0012799464
-0.0018333123
-0.0024346226
-0.0030372932
-0.0036396891
-0.0042184781
-0.0047777092
-0.00030324212
-0.00066640955
-0.0012162661
-0.0017571533
-0.0023532361
-0.0029587165
-0.0035715071
-0.004169577
-0.0047432515
-0.0052878124
-0.00028399455
-0.00061853423
-0.0011450865
-0.0016710154
-0.0022586475
-0.0028642602
-0.0034843094
-0.0040977114
-0.0046932519
-0.0052554535
-0.0057850112
-0.00026171141
-0.00056619476
-0.0010666623
-0.0015752193
-0.0021519747
-0.0027541735
-0.0033793659
-0.0040044851
-0.0046204633
-0.0052063625
-0.0057563776
-0.0062653045
-0.00023527526
-0.00050993391
-0.00098115794
-0.0014704401
-0.0020337666
-0.0026299484
-0.003256535
-0.0038919172
-0.0045243002
-0.0051355667
-0.0057103909
-0.0062421352
-0.0067283036
-0.00020333751
-0.00045067836
-0.0008889015
-0.0013572815
-0.0019050383
-0.0024922247
-0.0031176955
-0.0037592577
-0.0044075165
-0.0050396973
-0.005644777
-0.0062015384
-0.0067123344
-0.0071703638
-0.00016446575
-0.00038976139
-0.00079032855
-0.0012366019
-0.0017665669
-0.0023423075
-0.0029635883
-0.0036086855
-0.0042685482
-0.0049222159
-0.0055528042
-0.0061444107
-0.0066795427
-0.0071633784
-0.0075901456
-0.00011735996
-0.00032871592
-0.00068603636
-0.0011094352
-0.001619323
-0.0021813103
-0.0027957643
-0.0034409301
-0.0041098161
-0.0047804794
-0.0054385859
-0.0060600646
-0.0066344131
-0.0071408465
-0.0075938949
-0.0079845159
-6.1089279e-05
-0.00026895804
-0.00057680721
-0.00097706607
-0.0014644349
-0.0020105082
-0.0026154967
-0.0032578404
-0.0039319318
-0.004617052
-0.0052981502
-0.0059532001
-0.0065617282
-0.0071112757
-0.0075841291
-0.0080007105
-0.0083517051
4.6051732e-06
-0.00021143221
-0.00046370676
-0.00084104242
-0.0013032911
-0.0018312675
-0.002424306
-0.0030608732
-0.0037369018
-0.00443233
-0.0051340717
-0.0058182438
-0.0064666807
-0.0070543911
-0.0075737692
-0.0080062019
-0.0083819621
-0.0086894621
7.885704e-05
-0.00015654053
-0.00034825212
-0.00070336226
-0.0011374922
-0.0016453026
-0.0022236953
-0.002851732
-0.0035263094
-0.0042284589
-0.004946373
-0.0056576726
-0.0063418157
-0.0069757847
-0.0075369827
-0.0080186855
-0.0084051441
-0.0087352105
-0.0089963091
0.00015924561
-0.00010450981
-0.00023303524
-0.00056650278
-0.0009689381
-0.0014547186
-0.0020154048
-0.0026321225
-0.003302019
-0.0040071068
-0.0047372473
-0.0054710097
-0.0061893489
-0.0068658437
-0.0074796522
-0.0080063507
-0.0084440525
-0.0087783634
-0.0090588311
-0.0092706424
0.0002419375
-5.6070967e-05
-0.00012191311
-0.00043264273
-0.00080016483
-0.0012619452
-0.0018015248
-0.0024039727
-0.0030658328
-0.0037702886
-0.0045083853
-0.0052604118
-0.0060081466
-0.0067263646
-0.007389731
-0.0079752668
-0.0084605237
-0.0088471413
-0.0091239454
-0.0093511451
-0.0095111417
0.0003229686
-1.3313738e-05
-1.8030804e-05
-0.00030350899
-0.00063450529
-0.0010696907
-0.0015845978
-0.0021694994
-0.0028197519
-0.0035199193
-0.0042619123
-0.005027528
-0.0058002369
-0.0065553861
-0.0072684127
-0.0079106893
-0.008460713
-0.0088967164
-0.0092258084
-0.0094400907
-0.0096107065
-0.0097170021
0.00039914537
2.1774777e-05
7.7512839e-05
-0.00018212994
-0.00047510666
-0.00088095163
-0.0013674916
-0.0019313136
-0.0025660518
-0.0032580781
-0.0039998363
-0.0047745584
-0.0055671644
-0.0063547053
-0.0071127355
-0.0078130076
-0.0084269376
-0.0089332263
-0.0093126413
-0.0095779068
-0.0097253698
-0.0098364637
-0.0098878491
0.00046783969
4.9028233e-05
0.00016407832
-7.2201617e-05
-0.00032413006
-0.00069872736
-0.0011533995
-0.0016924113
-0.0023074127
-0.0029870878
-0.0037243051
-0.0045035695
-0.005311171
-0.0061256821
-0.0069241441
-0.0076780537
-0.008358567
-0.0089358362
-0.0093904441
-0.0097059434
-0.0099016726
-0.0099785016
-0.010027829
-0.010023551
0.000527173
6.9028092e-05
0.0002406812
2.4317212e-05
-0.00018328533
-0.00052495061
-0.00094578152
-0.0014560799
-0.002046898
-0.0027096767
-0.0034376673
-0.0042167552
-0.0050343705
-0.0058705633
-0.0067037438
-0.007506786
-0.0082500113
-0.008902669
-0.0094350543
-0.0098298859
-0.01007458
-0.010195635
-0.010198526
-0.010184499
-0.010124163
0.00057610035
8.1899454e-05
0.00030638277
0.00010761717
-5.4093308e-05
-0.00036122976
-0.00074779607
-0.0012257982
-0.0017879144
-0.002428999
-0.0031426678
-0.0039164783
-0.0047389899
-0.0055914862
-0.0064537552
-0.0072999609
-0.0081015715
-0.0088264643
-0.0094431209
-0.0099221071
-0.010249307
-0.010416741
-0.010458688
-0.010384886
-0.010306335
-0.010189871
0.00061401787
8.7666314e-05
0.00036014607
0.00017860409
6.1419788e-05
-0.00021162377
-0.00056134733
-0.0010048559
-0.0015341531
-0.002148602
-0.0028425013
-0.0036054826
-0.0044273817
-0.0052906955
-0.0061763357
-0.0070597409
-0.0079135467
-0.0087066629
-0.0094054512
-0.0099775665
-0.010394676
-0.010646634
-0.010730913
-0.010689887
-0.010537239
-0.010393323
-0.010220931
0.00064047257
8.627183e-05
0.00040124083
0.0002375041
0.00016132054
-7.9943855e-05
-0.00038798128
-0.00079565257
-0.001289439
-0.0018723573
-0.0025408276
-0.0032869876
-0.0041022489
-0.0049705106
-0.0058737501
-0.0067883132
-0.0076880046
-0.0085429531
-0.0093203652
-0.0099848586
-0.010503769
-0.010850559
-0.011020022
-0.011015805
-0.01088837
-0.010655316
-0.010445515
-0.010217698
0.00065495496
7.7279425e-05
0.00042944063
0.00028372471
0.00024484222
3.3701866e-05
-0.00023021252
-0.00060008803
-0.0010571101
-0.0016043226
-0.0022417038
-0.0029647544
-0.0037667701
-0.0046335576
-0.0055482733
-0.0064879886
-0.0074271836
-0.0083372434
-0.0091867385
-0.0099408855
-0.010562699
-0.01101958
-0.011287721
-0.011367811
-0.011270285
-0.011053463
-0.010738884
-0.010463039
-0.01018069
0.00065806445
6.0452409e-05
0.00044457039
0.00031671231
0.00031152235
0.00013043602
-9.0634353e-05
-0.00042199256
-0.00083937126
-0.0013482604
-0.0019494814
-0.0026430386
-0.0034247354
-0.0042829217
-0.0052024138
-0.006161012
-0.0071335015
-0.0080918469
-0.0090062025
-0.0098434244
-0.010566599
-0.011137078
-0.011522965
-0.011704241
-0.011688459
-0.01149329
-0.011184622
-0.010787778
-0.010446168
-0.010110743
0.00065552124
3.7021303e-05
0.00044754483
0.00033616732
0.00036105277
0.00021049731
2.894447e-05
-0.00026506282
-0.00063835683
-0.0011069151
-0.0016685291
-0.002326476
-0.0030805566
-0.0039223527
-0.0048390853
-0.0058097547
-0.0068092341
-0.0078093803
-0.0087811406
-0.0096936337
-0.010511796
-0.011196062
-0.011706223
-0.012011946
-0.012098237
-0.011980421
-0.011683743
-0.011281322
-0.010801944
-0.010395474
-0.010009129
0.00065915219
1.7153848e-05
0.00044070243
0.00034293543
0.0003937393
0.00027338261
0.00012783656
-0.00012969398
-0.00045738238
-0.00088263087
-0.001402508
-0.0020198636
-0.0027391508
-0.003556356
-0.0044618836
-0.0054368914
-0.0064566389
-0.0074922729
-0.0085144738
-0.0094938925
-0.010398664
-0.011190975
-0.011828018
-0.012268373
-0.012484483
-0.012467718
-0.012242037
-0.011840465
-0.011343086
-0.010781591
-0.010311971
-0.0098776473
0.00066502507
7.7391489e-06
0.00042732559
0.00033654219
0.00041226501
0.00031883198
0.00020600301
-1.5096386e-05
-0.0002988554
-0.00067943405
-0.0011539608
-0.0017275595
-0.0024057571
-0.0031901107
-0.004075283
-0.0050457448
-0.0060781083
-0.0071427647
-0.0082089655
-0.0092475047
-0.010229391
-0.011120979
-0.011880447
-0.012461271
-0.012821631
-0.012938287
-0.01281044
-0.012471426
-0.011962188
-0.011369496
-0.010727321
-0.01019723
-0.0097185497
0.00067103227
1.5010779e-06
0.00041871614
0.00032343302
0.00042035601
0.00034887959
0.00026392364
7.8907786e-05
-0.00016361141
-0.00050048087
-0.00092588554
-0.0014527682
-0.0020854871
-0.002829271
-0.0036846338
-0.0046405994
-0.0056765725
-0.0067629934
-0.0078670341
-0.0089577814
-0.010007649
-0.01098772
-0.011860918
-0.01257992
-0.01309445
-0.013363689
-0.013370631
-0.013123782
-0.012666501
-0.01204766
-0.011360296
-0.010640275
-0.010053355
-0.0095343515
0.00067701737
-4.1789901e-06
0.00041205774
0.00032086298
0.00041857704
0.00036320704
0.00030519573
0.00015189028
-5.2262184e-05
-0.00034617026
-0.00072204343
-0.0011983805
-0.0017824675
-0.0024796073
-0.0032959728
-0.0042268262
-0.005255932
-0.0063554165
-0.0074906984
-0.0086276151
-0.0097374868
-0.010795069
-0.011770009
-0.012619361
-0.013289007
-0.013725653
-0.013891577
-0.013778182
-0.013404729
-0.012825088
-0.012095896
-0.011315782
-0.010522068
-0.0098827819
-0.0093275251
0.0006828138
-9.4286271e-06
0.00040608675
0.00032193312
0.00042251819
0.0003625028
0.00033282309
0.00020663232
3.5271245e-05
-0.00021644081
-0.00054428337
-0.00096869905
-0.0014997857
-0.0021462215
-0.002915696
-0.0038107527
-0.0048213513
-0.0059233612
-0.0070819626
-0.0082591898
-0.0094226259
-0.010547882
-0.011611391
-0.012578417
-0.013397357
-0.014006744
-0.014352049
-0.014401399
-0.01415695
-0.013650015
-0.012945206
-0.012106466
-0.011236984
-0.010374629
-0.0096879317
-0.0091002454
0.00068807972
-1.4034593e-05
0.0004006886
0.00032309465
0.00042732678
0.00037242379
0.00034417838
0.0002443994
0.00010342394
-0.00011141974
-0.00039307824
-0.00076648257
-0.0012413515
-0.0018329039
-0.0025498892
-0.0033993372
-0.0043792561
-0.0054715035
-0.0066434423
-0.0078542375
-0.0090658553
-0.010251043
-0.011390578
-0.012459905
-0.013415769
-0.014195486
-0.014731005
-0.014969508
-0.014888247
-0.01450244
-0.013856445
-0.013025417
-0.012079711
-0.011125556
-0.010200138
-0.0094709405
-0.0088542807
0.00069244385
-1.787383e-05
0.00039606474
0.00032366203
0.00043203634
0.00038493496
0.00036467199
0.00026026148
0.00015512587
-2.7031538e-05
-0.00026897354
-0.00059234152
-0.0010109534
-0.0015433264
-0.0022033776
-0.0029995857
-0.0039370454
-0.0050060739
-0.0061790372
-0.0074146595
-0.0086690271
-0.0099084869
-0.011113801
-0.01226954
-0.013345325
-0.01428479
-0.015013048
-0.015457943
-0.015572396
-0.015346333
-0.014810033
-0.014021344
-0.013065167
-0.012016786
-0.010983641
-0.010000877
-0.0092336692
-0.0085916347
0.0006955779
-2.0847012e-05
0.00039231615
0.00032386824
0.00043608454
0.00039716503
0.00038487761
0.00028823806
0.00018238959
3.9292641e-05
-0.00016705002
-0.00044668204
-0.00081029516
-0.0012820784
-0.0018800253
-0.0026175337
-0.0035025501
-0.0045346798
-0.0056943971
-0.0069433603
-0.0082335537
-0.0095228007
-0.010786661
-0.01201478
-0.013191126
-0.014272973
-0.015187024
-0.015847217
-0.016181613
-0.016153697
-0.015769449
-0.01507555
-0.014143017
-0.013064911
-0.011919502
-0.010813523
-0.0097790026
-0.0089780717
-0.0083148235
0.00069723459
-2.2873255e-05
0.00038949366
0.00032387703
0.0004395766
0.00040769587
0.0004038914
0.00031633123
0.0002225686
7.583276e-05
-8.3420295e-05
-0.0003243596
-0.00063989552
-0.0010519395
-0.0015845974
-0.0022578087
-0.0030830759
-0.0040658162
-0.0051969685
-0.0064449966
-0.0077613025
-0.009095431
-0.010413253
-0.011703225
-0.012961326
-0.014163401
-0.015247447
-0.016121609
-0.016692387
-0.016893994
-0.016705505
-0.016151653
-0.01529586
-0.01422098
-0.013025992
-0.011789974
-0.010617381
-0.0095365617
-0.0087063919
-0.0080262697
-2.3900427e-05
0.00069723485
0.00038761063
0.00032379786
0.00044249412
0.00041649849
0.00042042674
0.00034308764
0.00026036925
0.00012724186
-3.3779835e-05
-0.00022115384
-0.00049434779
-0.00085370557
-0.0013210719
-0.0019250705
-0.0026844166
-0.0036079742
-0.0046956104
-0.0059263553
-0.0072556091
-0.0086274682
-0.0099958863
-0.011341238
-0.012665449
-0.013963909
-0.015194639
-0.016270942
-0.017084217
-0.017540012
-0.017585526
-0.017219907
-0.016488084
-0.015469269
-0.014255899
-0.012950244
-0.011630295
-0.010397217
-0.0092756234
-0.0084209965
-0.0077279141
0.0003866777
-2.3899016e-05
0.0006955783
0.00032368793
0.00044477005
0.00042356197
0.00043443861
0.00036656733
0.00029582683
0.00017533102
3.2535226e-05
-0.00015726663
-0.00036833014
-0.00068162974
-0.0010911568
-0.0016244059
-0.002311501
-0.0031683822
-0.0041997855
-0.005396198
-0.0067220483
-0.0081208236
-0.0095355389
-0.010933041
-0.012312637
-0.013685317
-0.015034706
-0.016291198
-0.017341629
-0.01806656
-0.018379113
-0.018246169
-0.017690006
-0.016775524
-0.015595522
-0.014249159
-0.012839572
-0.011442364
-0.010154982
-0.0089983751
-0.0081241452
-0.007421414
0.00032360166
0.00038667977
-2.2869707e-05
0.00069244495
0.00044631163
0.00042885386
0.00044583771
0.00038651298
0.00032697521
0.00022045962
9.312559e-05
-7.4567644e-05
-0.00028677623
-0.00052940645
-0.00088872097
-0.0013588262
-0.0019700807
-0.0027528687
-0.0037182601
-0.0048646034
-0.0061686635
-0.0075793864
-0.0090329794
-0.010480584
-0.011910079
-0.013339532
-0.014778513
-0.016185121
-0.017455186
-0.01845262
-0.019056755
-0.019197518
-0.018866736
-0.018110759
-0.017012524
-0.01567534
-0.014202327
-0.012695684
-0.011227986
-0.0098927271
-0.0087070703
-0.0078179367
-0.0071083157
0.00044708185
0.00032360417
0.00038761704
-2.0840459e-05
0.00068808124
0.00043231493
0.00045448594
0.00040274126
0.00035347319
0.00026021801
0.00014955895
1.6748766e-07
-0.00018408665
-0.00042716475
-0.00070622292
-0.0011219387
-0.0016645593
-0.0023674749
-0.003258199
-0.0043417127
-0.0056055753
-0.0070097689
-0.0084902141
-0.0099843063
-0.011462078
-0.01293743
-0.014439975
-0.015961872
-0.017422703
-0.018682654
-0.019592018
-0.020040704
-0.019983554
-0.01944005
-0.018479225
-0.017198902
-0.015709758
-0.014116768
-0.012520139
-0.010989041
-0.0096126602
-0.0084039597
-0.0075042685
-0.0067900999
0.00043397053
0.0004470848
0.00032369543
0.00038950429
-1.7864898e-05
0.00068281635
0.00046020759
0.00041505187
0.00037506255
0.00029406427
0.00019927354
6.9510895e-05
-9.2381603e-05
-0.00030103987
-0.00057919019
-0.00090486744
-0.0013888065
-0.0020179559
-0.0028263758
-0.0038363212
-0.0050438948
-0.0064213597
-0.0079117788
-0.0094446189
-0.010970108
-0.012487058
-0.014033699
-0.015635836
-0.017249654
-0.018748303
-0.019963023
-0.020744302
-0.02100419
-0.020727643
-0.01996141
-0.018794075
-0.017334928
-0.015699591
-0.013993647
-0.012314554
-0.010727613
-0.0093170862
-0.0080912274
-0.0071848875
-0.0064681401
0.00046297018
0.00043397407
0.00044632039
0.00032381048
0.00039233128
-1.4022409e-05
0.00067702086
0.00042320087
0.00039147149
0.00032164024
0.00024157461
0.00013062142
-7.7287668e-06
-0.00018925512
-0.00042494118
-0.00074871908
-0.0011325882
-0.0016989974
-0.0024296274
-0.003356421
-0.0044941203
-0.005825583
-0.0073054372
-0.0088636544
-0.010433951
-0.011992688
-0.013572437
-0.015224436
-0.016948758
-0.018649528
-0.020154528
-0.02128029
-0.021892859
-0.021935025
-0.021423069
-0.02042809
-0.019054557
-0.017420603
-0.015645377
-0.013834175
-0.012080803
-0.010445984
-0.0090084193
-0.0077710115
-0.0068613742
-0.0061438679
0.00042713413
0.00046297469
0.00043232564
0.00044478482
0.0003238948
0.00039608427
-9.4136795e-06
0.00067103737
0.00040236281
0.00034260434
0.00027601683
0.00018258822
6.6832641e-05
-8.6474861e-05
-0.00028897395
-0.000561085
-0.00094252274
-0.0013991339
-0.0020635115
-0.0029101066
-0.0039658117
-0.0052343186
-0.0066819905
-0.0082467046
-0.0098536096
-0.011455138
-0.01306503
-0.014745211
-0.016538366
-0.018395032
-0.020159631
-0.02162637
-0.022615883
-0.023022796
-0.022824278
-0.022065519
-0.020838088
-0.01925957
-0.017455535
-0.015547678
-0.01363987
-0.011821046
-0.010146686
-0.0086891609
-0.0074452415
-0.0065351479
-0.0058191222
0.00040763782
0.00042713989
0.00046022109
0.00042887179
0.00044251492
0.00032389134
0.00040071283
-4.1603172e-06
0.00066503175
0.00035653127
0.00030219789
0.0002248608
0.00013015963
4.0080566e-06
-0.00016438545
-0.00039611986
-0.00071534201
-0.0011702899
-0.0017157075
-0.0024937526
-0.0034685683
-0.0046589446
-0.0060540187
-0.0076028238
-0.0092314242
-0.010873392
-0.012515504
-0.014212786
-0.016039685
-0.018001527
-0.019980966
-0.021768109
-0.023144203
-0.023952289
-0.024122827
-0.023665921
-0.022651552
-0.021188889
-0.019407406
-0.017439298
-0.015407425
-0.013412637
-0.011537833
-0.0098325188
-0.0083616313
-0.0071153984
-0.0062076222
-0.0054959136
0.00036328673
0.00040764539
0.00042321833
0.00045450865
0.00042358734
0.00043960369
0.00032369052
0.00040611551
1.5228905e-06
0.00065916112
0.0003196035
0.00025697651
0.00018159795
8.0754781e-05
-5.4761348e-05
-0.00024529427
-0.00051566775
-0.00089678781
-0.0014433273
-0.0020941806
-0.0029997008
-0.0041108823
-0.0054346065
-0.0069442118
-0.0085736334
-0.010247082
-0.011923816
-0.013636575
-0.015473214
-0.017491588
-0.0196309
-0.021700702
-0.023455808
-0.024688227
-0.025275817
-0.025185183
-0.024454996
-0.02317697
-0.021477048
-0.01949622
-0.017371897
-0.015226045
-0.013154927
-0.011234184
-0.0095061124
-0.0080272956
-0.0067826263
-0.0058807152
-0.0051745255
0.00032806507
0.00036329657
0.00040238578
0.00041508112
0.00044586981
0.00041653151
0.00043611799
0.00032312863
0.00041209122
7.7648387e-06
0.00065553194
0.00027833292
0.0002206353
0.00014298898
3.8092357e-05
-0.00011259803
-0.00033328193
-0.00065598049
-0.0011162364
-0.0017739726
-0.0025452282
-0.0035884138
-0.004837279
-0.0062850391
-0.0078907219
-0.0095789804
-0.011288137
-0.013020111
-0.014855223
-0.016890195
-0.01913033
-0.021429943
-0.023537898
-0.025201415
-0.026242433
-0.02657703
-0.026203457
-0.025185442
-0.023636147
-0.021698751
-0.019524616
-0.017253941
-0.015005701
-0.012869915
-0.010912982
-0.0091687537
-0.0076868825
-0.0064490746
-0.0055570645
-0.0048530074
0.00028873392
0.0003280772
0.00035656078
0.00039150996
0.00040278281
0.00043448057
0.00040773686
0.00043207641
0.00032197251
0.00041875392
1.7182316e-05
0.00065807749
0.0002465918
0.00019015195
0.00011324934
-3.2146015e-07
-0.00017273186
-0.00043591436
-0.00082729601
-0.0013858656
-0.0021737629
-0.0030762919
-0.0042611844
-0.0056408688
-0.0071968421
-0.0088765588
-0.010607966
-0.01236243
-0.014195419
-0.016220523
-0.018505927
-0.020971993
-0.023388366
-0.025471137
-0.026986833
-0.027795858
-0.027848333
-0.027169743
-0.025849069
-0.024022691
-0.021850618
-0.019491946
-0.017086996
-0.014749606
-0.012560695
-0.010575187
-0.0088204942
-0.0073430666
-0.0061191626
-0.0052373772
-0.0045176087
0.00025925736
0.00028874803
0.00031963981
0.00034265401
0.0003751172
0.00038656727
0.00042047896
0.00039721428
0.00042737345
0.00032090762
0.00042736743
3.7052742e-05
0.00065496894
0.00022149743
0.00017010782
9.0401981e-05
-3.6955808e-05
-0.00024190723
-0.00056273321
-0.0010415041
-0.0017175426
-0.0026510161
-0.0036887252
-0.005011611
-0.0065091042
-0.0081525154
-0.0098869067
-0.011661151
-0.013496766
-0.015500143
-0.017786003
-0.020351639
-0.023016283
-0.025486947
-0.027480764
-0.028799777
-0.02934017
-0.029080258
-0.028073033
-0.026436267
-0.024330521
-0.021930145
-0.01939874
-0.016874082
-0.014461017
-0.012227769
-0.010219979
-0.0084649672
-0.0070032721
-0.0057944387
-0.0048946492
-0.0041648384
0.00023681903
0.00025927325
0.00027837555
0.00030225904
0.00032171052
0.00035354456
0.00036663521
0.00040395458
0.00038499282
0.0004225715
0.00032348245
0.00044074715
6.0484895e-05
0.00064048765
0.00020786965
0.00015891471
7.2618499e-05
-7.7764463e-05
-0.00032888179
-0.00072513341
-0.0013106228
-0.0021203834
-0.0032080089
-0.0043771437
-0.0058278594
-0.0074245686
-0.0091347127
-0.010916132
-0.01275768
-0.014738972
-0.016995938
-0.01959895
-0.022441105
-0.025249506
-0.027705492
-0.029553332
-0.030631689
-0.030864916
-0.030258977
-0.028899912
-0.026937453
-0.02455453
-0.021936267
-0.019247489
-0.016618482
-0.014139849
-0.011869245
-0.00985222
-0.0081138917
-0.0066689848
-0.0054356588
-0.0045335376
-0.0037997009
0.00022635804
0.00023683665
0.00024663993
0.00025704806
0.0002761033
0.00029415614
0.00032706445
0.00034316995
0.00038495232
0.00037249047
0.00041863674
0.0003365955
0.00044759136
7.7312582e-05
0.00061403212
0.00020437693
0.00015523699
5.4645833e-05
-0.00013068928
-0.00044436518
-0.00093491459
-0.001644478
-0.002597724
-0.0038412594
-0.005129742
-0.0066928386
-0.0083683365
-0.010133146
-0.011975802
-0.013939767
-0.016154475
-0.018744871
-0.021690489
-0.024770418
-0.027652763
-0.03002954
-0.031680492
-0.032471996
-0.032353821
-0.031366831
-0.029636441
-0.027344006
-0.024691307
-0.021870446
-0.019041245
-0.016319319
-0.013782913
-0.01149148
-0.0094891234
-0.0077688242
-0.0062787936
-0.0050602461
-0.0041591815
-0.003421773
0.00022666744
0.00022637686
0.00022155017
0.00022071594
0.00022496224
0.00024168762
0.00026033248
0.00029593501
0.00031642921
0.00036475909
0.00036257856
0.00042042147
0.00034299133
0.00044461733
8.6303508e-05
0.00057611343
0.00021001394
0.00015438825
2.9322862e-05
-0.00020562546
-0.00059959454
-0.0012021006
-0.0020476795
-0.0031474261
-0.0045406866
-0.0059290201
-0.0075865415
-0.0093269188
-0.011152962
-0.013100984
-0.015272162
-0.017816724
-0.020796898
-0.024071076
-0.027324875
-0.030210857
-0.032451063
-0.033852505
-0.034302745
-0.033784793
-0.032384694
-0.03026948
-0.027649222
-0.024740597
-0.021735136
-0.018778027
-0.015971808
-0.013398374
-0.011118396
-0.0091322211
-0.0073374961
-0.0058733881
-0.0046692679
-0.0037696687
-0.0030288764
0.00023690657
0.00022668712
0.00020792634
0.00019024054
0.00018171226
0.00018272052
0.0001994141
0.00022059822
0.00026049804
0.00028835294
0.00034427859
0.0003632916
0.00041233533
0.00033622516
0.00042948717
8.7695941e-05
0.00052718327
0.00022048951
0.0001498754
-1.2383901e-05
-0.00031296919
-0.00080423665
-0.0015320624
-0.0025192857
-0.0037610215
-0.0052889744
-0.0067535928
-0.0084934205
-0.010300638
-0.012222147
-0.014352301
-0.016834882
-0.019793459
-0.023180712
-0.026734213
-0.030089341
-0.032915719
-0.034961902
-0.036050891
-0.036097656
-0.035132852
-0.03329386
-0.030787877
-0.027850212
-0.02470372
-0.021526813
-0.018450972
-0.015586266
-0.013018322
-0.010751348
-0.0086473409
-0.0068919367
-0.0054506501
-0.0042624372
-0.0033642263
-0.002620806
0.00025298426
0.00023692668
0.00020443622
0.00017020249
0.00014311388
0.00013030845
0.00013078608
0.00014972882
0.00017549533
0.00022271961
0.00026039485
0.00033293659
0.0003489726
0.00039381432
0.00031677157
0.00040128592
8.1925566e-05
0.00046784685
0.00022979806
0.00013346287
-7.9873811e-05
-0.00046156475
-0.0010636724
-0.0019244929
-0.0030516395
-0.004421245
-0.006064179
-0.0075861651
-0.0094106003
-0.011311589
-0.013395448
-0.015811341
-0.018709884
-0.022133583
-0.025902663
-0.02966667
-0.033054996
-0.035760945
-0.0375444
-0.038245942
-0.037825495
-0.036372717
-0.034077466
-0.031184934
-0.027946406
-0.024575031
-0.0212359
-0.01807283
-0.015204638
-0.01264366
-0.01020289
-0.0081477773
-0.0064271654
-0.0050112163
-0.0038386411
-0.0029422167
-0.0021970396
0.00026915053
0.00025300392
0.00021007398
0.0001590133
0.00011338255
8.0917226e-05
6.7017626e-05
6.970934e-05
9.3326325e-05
0.00012743399
0.00018256493
0.0002445514
0.00030532233
0.00031893407
0.00036113277
0.00028378565
0.00036018981
6.9050654e-05
0.00039914898
0.00023031759
9.6741353e-05
-0.00018085931
-0.00065611554
-0.0013775223
-0.002372027
-0.0036284026
-0.0051056629
-0.0068472645
-0.0084215601
-0.010356084
-0.012408609
-0.014752141
-0.017569013
-0.020965479
-0.024860514
-0.028954632
-0.032858335
-0.036216533
-0.038730925
-0.040166738
-0.040400243
-0.039453574
-0.037480505
-0.034723547
-0.031457188
-0.027929265
-0.024341433
-0.020877673
-0.017697378
-0.014827139
-0.012019647
-0.0096381892
-0.0076268723
-0.0059453022
-0.0045543251
-0.0033974525
-0.0025035598
-0.0017579768
0.00027811602
0.00026916846
0.00022054799
0.00015533672
9.0540102e-05
3.8264531e-05
4.2089157e-06
-7.5064059e-06
4.0160179e-07
3.2769009e-05
7.6054724e-05
0.0001553256
0.000206803
0.00026406476
0.00027349495
0.0003116084
0.00023756737
0.00030642525
4.9047392e-05
0.00032296906
0.0002144376
3.320126e-05
-0.00031887145
-0.0008954541
-0.0017381693
-0.0028589493
-0.0042273269
-0.0057925615
-0.0076298452
-0.0092750496
-0.011374109
-0.013666582
-0.016386565
-0.019709369
-0.023644599
-0.027975612
-0.032325736
-0.036303685
-0.039561187
-0.0417936
-0.042786097
-0.042473216
-0.040949701
-0.038437272
-0.035224404
-0.031592205
-0.027781103
-0.024020851
-0.020519694
-0.017324111
-0.01411535
-0.011376611
-0.0090495691
-0.0070887369
-0.0054456876
-0.004079784
-0.0029388759
-0.002048521
-0.001304086
0.00027271877
0.00027813077
0.0002298517
0.00015448518
7.2757244e-05
-1.4404035e-07
-5.4549338e-05
-8.6234079e-05
-9.2120031e-05
-7.4296236e-05
-3.3511193e-05
3.954445e-05
0.00010364792
0.00015208134
0.00020616036
0.00021062179
0.000244936
0.00017867134
0.00024072393
2.1791656e-05
0.0002419359
0.00017665867
-5.9329013e-05
-0.00049143525
-0.0011711931
-0.0021300979
-0.0033633942
-0.0048254715
-0.0064684644
-0.0084225121
-0.010187672
-0.012535099
-0.015178846
-0.018392928
-0.022294419
-0.026762576
-0.031469501
-0.036008899
-0.03999291
-0.043059005
-0.044902553
-0.045354243
-0.044423309
-0.042286067
-0.039229297
-0.03556243
-0.031566282
-0.027522424
-0.023697104
-0.020160644
-0.016511863
-0.013380078
-0.010706891
-0.0084437474
-0.0065327653
-0.0049283949
-0.0035877319
-0.0024633394
-0.0015776653
-0.00083602262
0.00024804347
0.00027272869
0.00023036186
0.00014996386
5.477996e-05
-3.6778436e-05
-0.00011238085
-0.00016413294
-0.00018897351
-0.00018378475
-0.00015695622
-8.311725e-05
-2.6750712e-05
3.5521086e-05
7.9121397e-05
0.00012801254
0.00013057488
0.00016142431
0.0001076903
0.00016412284
-1.3297243e-05
0.00015924287
0.00011599562
-0.00017686854
-0.00068897771
-0.0014676615
-0.0025320277
-0.003862178
-0.0054064119
-0.0071363523
-0.009260421
-0.011226128
-0.0139291
-0.017043725
-0.020848851
-0.025356532
-0.030315644
-0.035333268
-0.03999675
-0.04390086
-0.046663149
-0.048003428
-0.047819917
-0.046211991
-0.043440729
-0.03983206
-0.035705987
-0.031402067
-0.027256451
-0.023367882
-0.019235529
-0.015668931
-0.012615164
-0.01002055
-0.0078200554
-0.0059593533
-0.004393773
-0.003078653
-0.0019716248
-0.0010919522
-0.00035450089
0.0002038075
0.00024804716
0.00021446737
0.0001335359
2.9445153e-05
-7.7593895e-05
-0.00017251643
-0.00024503736
-0.00028868012
-0.00030071628
-0.0002864328
-0.00022080587
-0.0001667142
-0.00011110843
-5.1984597e-05
-1.4858126e-05
2.9141354e-05
3.3857615e-05
6.1535994e-05
2.4398728e-05
7.7561728e-05
-5.6053075e-05
7.8855269e-05
3.7744251e-05
-0.00030849883
-0.00089541044
-0.0017643929
-0.0029216511
-0.0043377164
-0.0059683478
-0.0078217385
-0.010203677
-0.012476415
-0.015653883
-0.019348776
-0.023804082
-0.02890246
-0.034294808
-0.039561228
-0.044271498
-0.047984844
-0.050316524
-0.051036338
-0.050132534
-0.047806764
-0.044380087
-0.0402036
-0.035678922
-0.031225986
-0.026979945
-0.022316043
-0.018269942
-0.014792767
-0.011834992
-0.009316651
-0.0071792577
-0.0053691136
-0.0038425224
-0.0025534869
-0.0014647891
-0.0005922555
0.00013903246
0.00014609115
0.0002038041
0.00017666991
9.6791088e-05
-1.2282695e-05
-0.00013053448
-0.00024170141
-0.00033302862
-0.00039582281
-0.00042460584
-0.00042679914
-0.00036794742
-0.0003239762
-0.00026860424
-0.00021609817
-0.00016330473
-0.00012942918
-9.0414359e-05
-7.9769165e-05
-5.3962318e-05
-7.2109525e-05
-1.7975136e-05
-0.00010448754
4.6053392e-06
-4.600409e-05
-0.00043759037
-0.0010912289
-0.0020410409
-0.0032822971
-0.0047858357
-0.0065304622
-0.0085740152
-0.011331638
-0.014032894
-0.017800981
-0.022158243
-0.02727991
-0.032927132
-0.038695922
-0.044144807
-0.048800144
-0.052190421
-0.053953839
-0.05393857
-0.052247029
-0.049162709
-0.045049038
-0.040367477
-0.035635136
-0.031034465
-0.025788217
-0.021211316
-0.017264916
-0.013903849
-0.011038088
-0.0085963128
-0.0065222798
-0.0047630573
-0.0032758726
-0.0020133126
-0.00094320853
-8.0550477e-05
0.00064249833
8.7692381e-05
0.00014608085
0.00011598651
3.3221373e-05
-7.9803951e-05
-0.00020549703
-0.00032869538
-0.00043567374
-0.00051537706
-0.00056074829
-0.00057881364
-0.00052900117
-0.00049392859
-0.00044626398
-0.0003926758
-0.00034579578
-0.00029851867
-0.0002647705
-0.00022996817
-0.00021142858
-0.0001831375
-0.00018202503
-0.00012184794
-0.00015651203
-6.1084865e-05
-0.00011811516
-0.00054558293
-0.0012588368
-0.0022838354
-0.0036101548
-0.0052219779
-0.0071348283
-0.0094617666
-0.012732952
-0.015986195
-0.020444128
-0.025509307
-0.031280531
-0.037429411
-0.04352045
-0.049066173
-0.053537692
-0.05645236
-0.057502119
-0.056651395
-0.054105441
-0.050208482
-0.045469124
-0.040510177
-0.035571983
-0.029691011
-0.024526886
-0.02005883
-0.016251138
-0.012999688
-0.010225925
-0.007860742
-0.0058505243
-0.0041428527
-0.0026950459
-0.0014576679
-0.00040963948
0.00044107829
0.0011532672
4.6066017e-05
8.7675434e-05
3.77145e-05
-5.9341543e-05
-0.00018082865
-0.00031287864
-0.00044420984
-0.0005625161
-0.00065570606
-0.00071501455
-0.00074834358
-0.00070580811
-0.00068118873
-0.00063944192
-0.00059189008
-0.00054384847
-0.00050007521
-0.000457016
-0.00042167259
-0.00038771195
-0.00036101315
-0.000323964
-0.00030338946
-0.00023295847
-0.00021139448
-0.00011735089
-0.00016078534
-0.00061783461
-0.0013888672
-0.002491957
-0.0039196398
-0.0056831162
-0.0078422239
-0.010563593
-0.014494844
-0.018413715
-0.023634607
-0.029420092
-0.035811364
-0.042420971
-0.048769833
-0.054296994
-0.058426005
-0.060691572