/*--------------------------------*- C++ -*----------------------------------*\
| =========                 |                                                 |
| \\      /  F ield         | OpenFOAM: The Open Source CFD Toolbox           |
|  \\    /   O peration     | Version:  5.0                                   |
|   \\  /    A nd           | Web:      www.OpenFOAM.org                      |
|    \\/     M anipulation  |                                                 |
\*---------------------------------------------------------------------------*/
FoamFile
{
    version     2.0;
    format      ascii;
    class       surfaceScalarField;
    location    "30";
    object      phi;
}
// * * * * * * * * * * * * * * * * * * * * * * * * * * * * * * * * * * * * * //

dimensions      [0 3 -1 0 0 0 0];

internalField   nonuniform List<scalar> 
18180
(
0.0010462321
-1.3525889
0.0020233705
-1.2652708
0.0010444517
-1.3536334
0.0029237677
-1.1830986
0.0020184314
-1.2662447
0.001034732
-1.3546681
0.0037470858
-1.105991
0.0029163798
-1.1839965
0.0020020714
-1.2672121
0.0010379798
-1.3557061
0.0045003929
-1.0337688
0.0037380345
-1.1068126
0.0028930873
-1.1848875
0.0020081664
-1.2681823
0.001039267
-1.3567454
0.0051884638
-0.96615945
0.0044896982
-1.0345205
0.0037092166
-1.1076287
0.0029031176
-1.1857825
0.0020111596
-1.2691542
0.0010455036
-1.3577909
0.0058168892
-0.90288113
0.0051759691
-0.96684571
0.0044562028
-1.0352674
0.0037243918
-1.10845
0.0029087693
-1.1866801
0.0020234537
-1.2701321
0.0010500177
-1.3588409
0.0063912697
-0.84365695
0.0058020442
-0.9035072
0.0051385037
-0.96752801
0.0044775813
-1.0360206
0.003734095
-1.1092753
0.0029285097
-1.1875852
0.0020325608
-1.2711147
0.0010556902
-1.3598966
0.0069174335
-0.78822395
0.0063734548
-0.84422836
0.0057610404
-0.90412974
0.0051668219
-0.96821725
0.004492567
-1.0367791
0.0037631118
-1.1101099
0.0029436624
-1.1884963
0.0020440614
-1.272103
0.0010586896
-1.3609553
0.007401029
-0.73633034
0.0068963831
-0.78874689
0.0063290613
-0.84479638
0.0057966778
-0.90475959
0.0051880263
-0.96891271
0.0045325344
-1.0375485
0.0037862721
-1.1109525
0.0029629001
-1.1894151
0.0020504892
-1.2730948
0.0010602815
-1.3620156
0.0078469314
-0.68774241
0.0073775715
-0.73681152
0.00684849
-0.78926631
0.0063720544
-0.84537175
0.0058246813
-0.90539624
0.0052402572
-0.96962042
0.0045655256
-1.0383278
0.0038158231
-1.1118055
0.0029749337
-1.1903395
0.0020543948
-1.274089
0.0010582396
-1.3630738
0.0082583521
-0.64223727
0.007824029
-0.68818887
0.0073257543
-0.73728879
0.006898608
-0.78979286
0.0064070613
-0.84595413
0.0058899829
-0.90604596
0.0052845572
-0.97033945
0.0046077869
-1.0391197
0.0038363477
-1.1126669
0.0029837807
-1.1912689
0.0020513894
-1.2750821
0.001053015
-1.3641268
0.0086357251
-0.59960914
0.0082424392
-0.64265567
0.0077676223
-0.68863073
0.0073826961
-0.73777287
0.0069404382
-0.79032623
0.0064856493
-0.84654979
0.0059466125
-0.90670802
0.0053415419
-0.97107321
0.004639534
-1.0399229
0.0038536037
-1.1135367
0.0029828306
-1.1922004
0.0020424081
-1.2760715
0.0010434421
-1.3651703
0.0089755585
-0.55967
0.0086379436
-0.60000465
0.0081805825
-0.64306863
0.0078313422
-0.68907938
0.0074308309
-0.73826326
0.0070318896
-0.79087247
0.006555114
-0.84715829
0.0060197157
-0.90738619
0.0053868702
-0.97182054
0.0046685064
-1.0407378
0.0038586284
-1.1144125
0.0029735756
-1.1931315
0.0020251432
-1.2770532
0.0010296382
-1.3661999
0.0092696515
-0.52225319
0.0090124649
-0.56004451
0.0085699412
-0.600394
0.0082518113
-0.6434891
0.0078848775
-0.68953342
0.0075341612
-0.73876553
0.0071141801
-0.79143154
0.0066449931
-0.84778357
0.0060804008
-0.90807972
0.0054304897
-0.97258253
0.0046833058
-1.0415625
0.0038535864
-1.1152925
0.002952524
-1.1940589
0.0019998226
-1.2780234
0.0010111021
-1.367211
0.009505337
-0.48721791
0.009362544
-0.52260327
0.0089383689
-0.56041294
0.0086507764
-0.60079297
0.0083097697
-0.64391399
0.0079987293
-0.68999799
0.0076286447
-0.73928
0.0072206475
-0.79200719
0.0067221108
-0.84842528
0.0061409258
-0.90879016
0.0054585257
-0.97335774
0.0046868594
-1.0423958
0.0038337181
-1.1161737
0.0029200177
-1.1949791
0.0019654396
-1.2789777
0.00098787778
-1.3681989
0.0096670508
-0.45444867
0.00967794
-0.48753329
0.00928424
-0.52294914
0.009032948
-0.56079511
0.0087125322
-0.60119573
0.008432588
-0.64434785
0.0081042339
-0.69047358
0.0077506674
-0.73981002
0.0073144925
-0.79259958
0.0068009871
-0.84908534
0.0061850297
-0.90951666
0.0054747548
-0.97414564
0.004673104
-1.0432351
0.0037994919
-1.1170532
0.0028744985
-1.1958882
0.0019220556
-1.2799119
0.00095988376
-1.3691588
0.0097391997
-0.42385207
0.0099417582
-0.45471249
0.0095999412
-0.487849
0.0093993203
-0.52331551
0.0090988355
-0.56118141
0.0088430394
-0.60160618
0.0085474663
-0.64479108
0.0082400262
-0.69096294
0.0078607555
-0.74035628
0.0074122477
-0.79321084
0.0068632035
-0.84976351
0.0062173646
-0.91025927
0.0054718075
-0.97494434
0.0046426187
-1.0440783
0.0037487146
-1.1179274
0.0028160016
-1.1967821
0.0018694752
-1.2808215
0.00092723798
-1.370086
0.0097094369
-0.39534671
0.010132871
-0.42404317
0.0098713239
-0.45498387
0.0097453178
-0.48819499
0.0094711135
-0.52368779
0.0092367411
-0.56157511
0.0089654711
-0.60202418
0.0086946851
-0.64524574
0.0083650306
-0.69146721
0.0079769421
-0.74092098
0.0074937066
-0.79384134
0.0069142438
-0.85046039
0.0062293223
-0.91101678
0.0054503558
-0.97575208
0.0045925307
-1.0449221
0.003681345
-1.1187927
0.0027441601
-1.1976568
0.0018079097
-1.2817022
0.00089017712
-1.3709762
0.0095722229
-0.36885293
0.010229776
-0.39544362
0.010079672
-0.42425152
0.010059479
-0.45529803
0.009826711
-0.48855059
0.0096180742
-0.52406912
0.0093652816
-0.56197492
0.0091214946
-0.60245099
0.0088325183
-0.64571323
0.0084982535
-0.69198853
0.0080777783
-0.74150505
0.0075650686
-0.79449216
0.0069444101
-0.85117548
0.0062216421
-0.91178807
0.005406831
-0.97656638
0.0045226495
-1.0457634
0.0035967463
-1.1196453
0.0026592151
-1.1985081
0.0017376459
-1.2825496
0.00084905127
-1.3718253
0.0093310504
-0.34428019
0.010216922
-0.36884006
0.010206179
-0.39557012
0.010324032
-0.42451607
0.010156509
-0.45562783
0.0099870531
-0.48891957
0.0097525209
-0.52445636
0.0095277477
-0.56238118
0.0092695266
-0.602888
0.008980507
-0.64619548
0.0086175708
-0.69252832
0.0081700169
-0.74211
0.0076157669
-0.79516352
0.0069544737
-0.85190831
0.0061900842
-0.91257132
0.0053408188
-0.97738455
0.0044319873
-1.0465986
0.0034950964
-1.1204812
0.0025615137
-1.199332
0.0016593279
-1.2833599
0.00080417868
-1.3726294
0.0089990364
-0.32152006
0.010088452
-0.34415172
0.010234521
-0.3688684
0.010517228
-0.39576332
0.010444736
-0.42480429
0.01033747
-0.45597824
0.010129264
-0.48929631
0.0099200533
-0.52484866
0.0096831639
-0.56279481
0.0094292762
-0.60333677
0.0091163898
-0.6466943
0.0087301368
-0.69308844
0.0082424784
-0.74273671
0.0076465802
-0.79585563
0.0069395901
-0.85265782
0.0061339445
-0.91336445
0.005250914
-0.97820348
0.0043205539
-1.0474241
0.0033766871
-1.1212964
0.0024517108
-1.2001244
0.0015736673
-1.2841294
0.000755921
-1.3733854
0.008596073
-0.30044337
0.0098493218
-0.32128092
0.010155447
-0.34407264
0.01061637
-0.36896754
0.010671085
-0.39598967
0.010655852
-0.42512267
0.010491739
-0.45634072
0.010302457
-0.48967871
0.010080507
-0.52524601
0.0098512843
-0.56321682
0.0095788993
-0.60379928
0.0092476366
-0.6472118
0.0088244252
-0.69367039
0.0082959421
-0.74338607
0.0076521457
-0.79656819
0.0068987173
-0.85342259
0.0060513582
-0.9141649
0.0051368551
-0.97901978
0.0041884744
-1.0482359
0.0032422229
-1.1220869
0.0023307111
-1.2008814
0.0014813101
-1.2848548
0.00070472051
-1.3740901
0.0081451605
-0.28090719
0.00951501
-0.30010906
0.0099691259
-0.3210946
0.010604932
-0.3440612
0.010815415
-0.36911187
0.010922223
-0.39625604
0.010828923
-0.42545986
0.010674056
-0.45671232
0.010467022
-0.49006523
0.010253844
-0.52564857
0.010011159
-0.56364908
0.0097261442
-0.60427779
0.0093626227
-0.64775
0.0089012445
-0.69427569
0.0083246414
-0.74405857
0.0076310754
-0.79730054
0.0068295166
-0.85420075
0.0059417005
-0.91496974
0.0049984936
-0.9798298
0.0040363775
-1.04903
0.0030926489
-1.1228488
0.0021996047
-1.2015997
0.001383039
-1.2855331
0.00065106897
-1.3747412
0.0076688434
-0.26276613
0.0091078119
-0.28049998
0.0096859379
-0.29982587
0.010478607
-0.32096828
0.010859466
-0.34410526
0.0111137
-0.36930335
0.011122988
-0.3965501
0.011026971
-0.42581277
0.010844239
-0.45708953
0.010643535
-0.49045492
0.010420291
-0.5260577
0.010170846
-0.56409379
0.0098595214
-0.60477469
0.0094622479
-0.648311
0.0089545431
-0.69490559
0.0083268603
-0.74475436
0.0075805606
-0.79805159
0.0067309258
-0.85498998
0.005804454
-0.9157757
0.0048362645
-0.98062969
0.0038651774
-1.0498026
0.0029291575
-1.1235784
0.0020595167
-1.2022762
0.0012797676
-1.2861618
0.00059546682
-1.3753366
0.0071870491
-0.24588031
0.0086518122
-0.26231013
0.0093242788
-0.28013832
0.01024484
-0.2995921
0.010791316
-0.32090012
0.011209167
-0.34420072
0.011352024
-0.36953238
0.011345774
-0.3968689
0.011207314
-0.42617585
0.011024037
-0.45747004
0.010813478
-0.49084811
0.010588368
-0.52647522
0.010319248
-0.56455351
0.0099801374
-0.60529258
0.0095403114
-0.64889677
0.0089823372
-0.69556107
0.008299357
-0.74547315
0.0074990615
-0.79881973
0.0066019814
-0.85578751
0.0056397445
-0.91657918
0.0046509377
-0.98141545
0.0036761181
-1.0505495
0.0027531198
-1.124272
0.0019116562
-1.2029081
0.0011724386
-1.2867388
0.00053841958
-1.375875
0.0067150993
-0.23012114
0.0081700895
-0.24539858
0.0089062617
-0.26189211
0.0099200795
-0.27981356
0.010611286
-0.29941207
0.011194166
-0.32088512
0.011494594
-0.34434329
0.011609181
-0.36979579
0.011543691
-0.39720528
0.011393541
-0.42654535
0.011196076
-0.45785263
0.010986079
-0.49124582
0.010747641
-0.52690362
0.010457823
-0.5650312
0.010081783
-0.60583405
0.0095946517
-0.64950909
0.0089810117
-0.69624273
0.0082401019
-0.74621419
0.0073851091
-0.79960285
0.006442393
-0.85659016
0.0054480752
-0.91737632
0.004443689
-0.98218302
0.0034707012
-1.0512671
0.0025661256
-1.1249265
0.0017573164
-1.203493
0.0010620192
-1.2872624
0.00048043598
-1.3763555
0.0062632515
-0.21537686
0.0076813883
-0.22963244
0.0084538276
-0.24494615
0.0095258075
-0.26149784
0.01033111
-0.27953338
0.011065049
-0.29928295
0.011532898
-0.32092343
0.011793978
-0.34452809
0.011833958
-0.37008606
0.011742747
-0.39755449
0.011568997
-0.42691828
0.01137053
-0.45823708
0.011151844
-0.49165002
0.010900115
-0.52734591
0.010580527
-0.56552994
0.010162242
-0.60640164
0.0096213633
-0.65014944
0.0089480707
-0.6969507
0.0081470943
-0.74697618
0.0072379147
-0.80039838
0.006252281
-0.85739436
0.0052304222
-0.91816305
0.0042160202
-0.98292834
0.0032506838
-1.0519517
0.0023698373
-1.125539
0.0015978809
-1.2040288
0.00094948829
-1.2877314
0.00042200684
-1.3767775
0.0058369503
-0.20155171
0.0071987842
-0.21489424
0.0079863126
-0.22916492
0.0090841103
-0.24450445
0.0099700703
-0.2611368
0.010829169
-0.2792975
0.011456336
-0.29920639
0.011879767
-0.32100922
0.012055146
-0.34474928
0.012054693
-0.370398
0.011926232
-0.39791172
0.011744979
-0.42729273
0.011539075
-0.45862432
0.011313551
-0.49206346
0.01104012
-0.5278055
0.010685239
-0.56605294
0.010217429
-0.60699771
0.0096175466
-0.65081892
0.0088809855
-0.69768459
0.0080189848
-0.74775725
0.0070571079
-0.8012032
0.0060322886
-0.85819623
0.004988153
-0.91893519
0.0039697614
-0.98364742
0.0030179867
-1.0525998
0.002165971
-1.1261071
0.001434763
-1.2045141
0.00083579531
-1.2881452
0.00036360543
-1.3771411
0.0054358613
-0.18856527
0.0067292891
-0.20108221
0.0075183089
-0.21442624
0.0086154211
-0.22869623
0.0095502071
-0.24408458
0.010502467
-0.2608101
0.011266705
-0.27910787
0.011853129
-0.29917976
0.01218544
-0.32113951
0.012307066
-0.34500165
0.012253772
-0.37072554
0.012106628
-0.39827337
0.01191443
-0.42766808
0.01170552
-0.45901629
0.011466177
-0.49248952
0.011165821
-0.52828609
0.010767833
-0.56660335
0.010244132
-0.6076243
0.0095801796
-0.65151811
0.0087778186
-0.69844342
0.0078548334
-0.74855498
0.0068428815
-0.8020138
0.0057835122
-0.85899159
0.0047230427
-0.91968847
0.0037069818
-0.98433641
0.0027746591
-1.0532085
0.0019563224
-1.1266286
0.0012693476
-1.2049476
0.00072186115
-1.2885035
0.00030567761
-1.3774468
0.003198769
-0.20734734
0.0062755203
-0.18811149
0.0070592297
-0.20062313
0.0081359528
-0.21394677
0.0090926079
-0.22823863
0.010105685
-0.2436878
0.010976438
-0.26051983
0.011711377
-0.27896612
0.012207729
-0.29920205
0.012476575
-0.32130902
0.012530991
-0.34527887
0.012444788
-0.3710637
0.012278026
-0.39863697
0.012082392
-0.42804495
0.011865791
-0.4594159
0.01160841
-0.49293211
0.011273233
-0.52879149
0.010824918
-0.56718413
0.01023891
-0.60828303
0.0095067435
-0.65224704
0.0086370045
-0.6992256
0.0076542751
-0.74936637
0.0065959227
-0.80282621
0.005507528
-0.85977608
0.0044371801
-0.92041867
0.003429951
-0.9849917
0.002522872
-1.0537751
0.0017426821
-1.127102
0.0011030291
-1.2053288
0.00060855703
-1.2888064
0.00024863846
-1.3776954
0.0014916897
-0.20789651
0.0040517752
-0.20512359
0.0066130878
-0.18766535
0.0076565775
-0.20014376
0.008615378
-0.21346954
0.009659761
-0.22779271
0.010605015
-0.24331638
0.011462476
-0.26027093
0.012113484
-0.27887188
0.01254354
-0.29926901
0.012734427
-0.32151246
0.012741199
-0.34557528
0.012622583
-0.37140826
0.012446765
-0.39900134
0.012246034
-0.4284252
0.012019389
-0.45982688
0.011736633
-0.49339551
0.011358944
-0.52932551
0.010852733
-0.56779796
0.010198705
-0.60897499
0.0093950251
-0.65300506
0.008457541
-0.70002886
0.0074174696
-0.75018792
0.0063174691
-0.80363615
0.0052063031
-0.8605452
0.004132931
-0.92112165
0.0031411236
-0.98560996
0.0022648268
-1.0542972
0.0015268766
-1.1275258
0.00093714166
-1.2056574
0.00049670074
-1.2890544
0.00019287039
-1.3778883
0.00026193438
-0.20836543
0.0023356598
-0.20618039
0.0044445886
-0.20295509
0.0071833947
-0.18719217
0.0081318133
-0.19966019
0.009183449
-0.21299323
0.010173895
-0.22736159
0.011122135
-0.24297604
0.011906334
-0.26006378
0.012495737
-0.27882407
0.012842645
-0.29937723
0.01297295
-0.32174421
0.012932766
-0.34588547
0.012794655
-0.37175615
0.01261143
-0.39936674
0.01240598
-0.42881179
0.012163359
-0.4602536
0.011847631
-0.49388419
0.011419028
-0.52989181
0.010847768
-0.56844702
0.010120669
-0.60970063
0.0092433336
-0.65379085
0.0082389583
-0.70085035
0.0071451774
-0.75101563
0.0060092137
-0.80443906
0.0048821589
-0.86129443
0.003812925
-0.92179345
0.0028430276
-0.98618816
0.0020027512
-1.0547731
0.0013107264
-1.1278994
0.0007728862
-1.2059336
0.00038707019
-1.2892486
0.00013872034
-1.378027
-0.00054793028
-0.20875621
0.0010712865
-0.20710105
0.0027546585
-0.20449046
0.0050422898
-0.20081399
0.0076494525
-0.18670981
0.0086917191
-0.19916846
0.0097031307
-0.21252247
0.010710724
-0.22695018
0.011599125
-0.24266883
0.012332015
-0.25990006
0.012839758
-0.27882119
0.013117188
-0.29952147
0.01318716
-0.3219986
0.013113994
-0.34620481
0.012960984
-0.3721057
0.012774028
-0.39973479
0.012560273
-0.4292087
0.012294947
-0.46070092
0.011937503
-0.49440267
0.011449643
-0.53049368
0.010806591
-0.56913294
0.010002403
-0.6104597
0.0090504923
-0.65460239
0.0079814213
-0.70168659
0.0068386748
-0.75184509
0.0056732861
-0.80523019
0.0045377731
-0.86201928
0.0034799296
-0.92243035
0.002538262
-0.98672367
0.0017388403
-1.0552012
0.001095914
-1.1282224
0.00061138051
-1.2061579
0.0002804839
-1.2893904
8.6491217e-05
-1.3781135
-0.00099720001
-0.20907378
0.00020171458
-0.20788663
0.001492372
-0.20583876
0.0033574657
-0.20280564
0.0055458913
-0.19871043
0.0081955411
-0.18621363
0.0092089845
-0.19867431
0.010248471
-0.21206021
0.01121088
-0.22656193
0.012061436
-0.24239825
0.012719463
-0.25977977
0.013155493
-0.27885949
0.013362462
-0.29969677
0.01338556
-0.32227017
0.013285996
-0.34652982
0.013125052
-0.37245673
0.012933928
-0.40010844
0.012706955
-0.42962071
0.012410535
-0.46117396
0.012002249
-0.49495528
0.011446869
-0.53113396
0.010726115
-0.56985666
0.009841978
-0.61125119
0.0088159739
-0.65543694
0.0076856544
-0.70253357
0.0064997419
-0.75267154
0.0053122608
-0.80600468
0.0041760372
-0.86271538
0.003136854
-0.92302894
0.0022294266
-0.98721425
0.0014752092
-1.0555805
0.00088396551
-1.128495
0.00045384465
-1.2063313
0.00017755865
-1.2894815
3.6511965e-05
-1.37815
-0.0011469667
-0.20932331
-0.00033117286
-0.20854088
0.00060390032
-0.20699816
0.0020782176
-0.20455952
0.0038741322
-0.20113388
0.0061232662
-0.19663815
0.0087022227
-0.18570687
0.0097533123
-0.19817916
0.010761909
-0.21161124
0.011699861
-0.22620036
0.012486946
-0.24216574
0.013077383
-0.25970166
0.013438337
-0.27893537
0.013586441
-0.29989765
0.01357
-0.32255417
0.013453595
-0.34685836
0.013287776
-0.37281058
0.01309033
-0.40049182
0.012843007
-0.43005318
0.012506197
-0.4616779
0.012037607
-0.49554602
0.011406992
-0.53181484
0.010603642
-0.57061832
0.0096381012
-0.61207332
0.0085398361
-0.65629112
0.0073529427
-0.70338677
0.0061306934
-0.75348998
0.0049290141
-0.80675765
0.0038000752
-0.86337861
0.0027866698
-0.92358619
0.0019190764
-0.98765812
0.0012138617
-1.0559104
0.00067634107
-1.1287175
0.00030127737
-1.206455
7.8822186e-05
-1.2895238
-1.0818231e-05
-1.3781392
-0.0010593191
-0.20951066
-0.00058618939
-0.20906829
3.3469987e-05
-0.20797046
0.0011514412
-0.20607138
0.0025851565
-0.20327054
0.0044591264
-0.19946974
0.0066621722
-0.1945981
0.0092393301
-0.18519289
0.010270494
-0.19768774
0.011267133
-0.21117852
0.012155464
-0.22586888
0.012883668
-0.24197202
0.013400708
-0.25966403
0.013694892
-0.27904382
0.013791339
-0.30011899
0.013746267
-0.32284684
0.013619264
-0.34718985
0.013449829
-0.37317008
0.013241191
-0.40089
0.012964877
-0.43051186
0.012577531
-0.46221783
0.012039348
-0.49617837
0.011326571
-0.53253777
0.010437072
-0.57141729
0.0093900728
-0.61292355
0.0082227384
-0.65716092
0.0069851805
-0.70424126
0.0057342249
-0.75429519
0.0045267516
-0.80748433
0.0034131546
-0.86400509
0.0024323581
-0.92409947
0.0016096838
-0.98805394
0.00095667938
-1.0561907
0.00047436808
-1.1288906
0.00015444088
-1.2065306
-1.5101643e-05
-1.2895195
-5.5070008e-05
-1.3780841
-0.00079694683
-0.20964152
-0.0006220337
-0.20947481
-0.00027474122
-0.20876008
0.0005232316
-0.20734225
0.0016283242
-0.20511455
0.003155353
-0.20196677
0.0050075894
-0.19781516
0.0072318642
-0.19259064
0.0097514847
-0.18467388
0.010782465
-0.19720307
0.01174322
-0.21076627
0.012584333
-0.22556954
0.013245672
-0.24181699
0.013694393
-0.25966353
0.013927651
-0.27918013
0.013983355
-0.30035608
0.013918153
-0.32314573
0.01378531
-0.34752533
0.013610521
-0.37353941
0.013383696
-0.40130882
0.013068294
-0.43100263
0.012619956
-0.46279844
0.012003354
-0.49685516
0.011202688
-0.53330339
0.010224882
-0.5722521
0.0090978205
-0.61379864
0.0078660092
-0.65804174
0.0065847131
-0.70509175
0.0053134657
-0.7550819
0.0041089231
-0.8081801
0.0030186305
-0.86459136
0.0020768626
-0.92456665
0.0013036116
-0.98840088
0.00070540861
-1.0564218
0.0002792338
-1.1290154
1.4031168e-05
-1.2065597
-0.00010387484
-1.2894707
-9.6303159e-05
-1.3779878
-0.00042280864
-0.20972083
-0.00049742739
-0.20976612
-0.00037692825
-0.20937263
0.00013958508
-0.20837643
0.00095161914
-0.20666554
0.0021624718
-0.20412167
0.0036919841
-0.20065116
0.0055861229
-0.19616942
0.0077769042
-0.19061606
0.010262453
-0.18415387
0.01126941
-0.19672926
0.012195349
-0.21037729
0.012979862
-0.22530373
0.013576756
-0.24169935
0.013960491
-0.25969637
0.014142708
-0.27933948
0.01416718
-0.3006051
0.014089529
-0.32344995
0.013952681
-0.34786749
0.013768178
-0.37392389
0.013514047
-0.40175458
0.013148565
-0.43153124
0.012628816
-0.4634239
0.011925925
-0.49757839
0.011032962
-0.53411147
0.0099661876
-0.57312047
0.0087619835
-0.61469461
0.0074714798
-0.65892851
0.006154413
-0.7059327
0.0048718919
-0.75584487
0.0036791598
-0.80884063
0.0026198876
-0.86513439
0.0017230491
-0.92498609
0.0010030868
-0.98869855
0.00046165628
-1.0566042
9.2006495e-05
-1.1290934
-0.00011931485
-1.2065443
-0.00018733945
-1.2893796
-0.00013499034
-1.3778528
-0.20975226
3.0323888e-11
-0.00027074664
-0.20994751
-0.00032858497
-0.20981447
-5.2749035e-05
-0.20918029
0.00050325398
-0.20792807
0.001430321
-0.20593339
0.0026666979
-0.20309638
0.0042567302
-0.19932177
0.0061417638
-0.19453428
0.0083226978
-0.1886763
0.010751319
-0.18363578
0.011735624
-0.19626954
0.012616928
-0.21001435
0.01334484
-0.22507182
0.013878298
-0.24161716
0.014204479
-0.25975814
0.014345181
-0.27951748
0.014347941
-0.30086352
0.014263064
-0.32376034
0.014121214
-0.34822053
0.013919879
-0.37432972
0.013627746
-0.40223376
0.013200677
-0.4321031
0.012599702
-0.46409768
0.011803818
-0.49834925
0.010815639
-0.53496092
0.009660844
-0.57401933
0.0083837367
-0.61560687
0.0070415836
-0.65981568
0.0056976008
-0.70675841
0.0044132741
-0.75657899
0.0032412174
-0.80946196
0.0022202889
-0.86563163
0.0013736646
-0.92535666
0.00071018961
-0.98894709
0.00022688609
-1.0567391
-8.6364298e-05
-1.1291263
-0.00024505802
-1.2064866
-0.00026535219
-1.2892493
-0.00017111278
-1.3776817
-0.210023
1.7985188e-10
-0.20975226
0.00042281091
-0.00018475732
-0.21009134
-0.00010607935
-0.20976114
0.00023255817
-0.2089096
0.00090917492
-0.20740692
0.0018832594
-0.20514995
0.0031967937
-0.20203645
0.0048014702
-0.19798148
0.006699568
-0.19291115
0.0088470748
-0.18677206
0.011223199
-0.18312335
0.012174446
-0.19582706
0.013009528
-0.20967904
0.013679735
-0.22487325
0.014154755
-0.24156743
0.014431638
-0.2598446
0.014540995
-0.27971054
0.014529868
-0.30113032
0.01444034
-0.32407946
0.014289282
-0.34858993
0.014061705
-0.37476368
0.013719703
-0.40275279
0.01321967
-0.43272307
0.01252855
-0.46482241
0.011634384
-0.49916799
0.010549728
-0.5358498
0.0093092601
-0.57494485
0.0079649084
-0.61653019
0.006579287
-0.66069737
0.0052180056
-0.70756314
0.0039416168
-0.75727939
0.0027989089
-0.81004058
0.0018231157
-0.86608108
0.0010313135
-0.92567779
0.00042684078
-0.98914704
2.4155409e-06
-1.0568278
-0.00025504849
-1.1291163
-0.00036273277
-1.2063892
-0.00033767318
-1.2890827
-0.00020439262
-1.3774773
-0.21020776
9.087599e-10
-0.210023
0.00027075053
-0.20972084
0.00079694696
-7.1675627e-05
-0.21012574
9.0128217e-05
-0.20961871
0.00055083552
-0.20855126
0.0012940426
-0.2068177
0.0023592381
-0.2043124
0.0037100363
-0.20094501
0.005349292
-0.1966312
0.0072378649
-0.19130194
0.0093567212
-0.18490558
0.011670642
-0.18261955
0.012586753
-0.19540428
0.013372861
-0.20937217
0.013988216
-0.22470671
0.01441082
-0.24154662
0.01464823
-0.25995183
0.014735555
-0.27991623
0.014716307
-0.30140629
0.014621377
-0.32441156
0.014453968
-0.34898219
0.014188825
-0.37523281
0.013784613
-0.40331773
0.013200749
-0.43339527
0.012411828
-0.46559985
0.011415745
-0.50003401
0.010234794
-0.53677534
0.0089125229
-0.57589247
0.0075079157
-0.61745882
0.0060880681
-0.66156743
0.0047197138
-0.70834123
0.0034610916
-0.75794157
0.0023560333
-0.8105735
0.001431532
-0.8664813
0.00069843367
-0.92594938
0.00015478876
-0.98929941
-0.00021058641
-1.0568723
-0.00041333304
-1.1290657
-0.00047192707
-1.2062549
-0.00040404263
-1.2888831
-0.00023459595
-1.3772427
-0.21027944
1.0595529e-09
-0.21020776
0.00018475795
-0.20994751
0.00049742768
-0.20964152
0.0010593216
2.8152462e-05
-0.21006377
0.00030905314
-0.20937693
0.00085303748
-0.20811025
0.0016981405
-0.20615661
0.0028215409
-0.2034239
0.0042270635
-0.19982278
0.0058803347
-0.19527367
0.0077636193
-0.18970884
0.0098431663
-0.1830781
0.012094543
-0.18212734
0.01297162
-0.19500304
0.013709751
-0.2090937
0.014274371
-0.22457027
0.014652631
-0.24155102
0.014860378
-0.26007666
0.014933778
-0.2801337
0.014909096
-0.30169401
0.014804662
-0.32476225
0.014611121
-0.34940449
0.014295897
-0.37574409
0.01381711
-0.40393409
0.013139541
-0.43412298
0.012246758
-0.46643087
0.011146587
-0.5009458
0.009871095
-0.53773391
0.0084723335
-0.57685689
0.0070157651
-0.61838652
0.0055718849
-0.6624196
0.0042071075
-0.70908725
0.0029759478
-0.75856148
0.0019163196
-0.81105829
0.0010485442
-0.86683141
0.0003772726
-0.92617186
-0.00010440014
-0.9894056
-0.00041110653
-1.0568745
-0.00056060267
-1.128977
-0.00057228506
-1.2060867
-0.0004642407
-1.2886534
-0.00026160452
-1.3769811
-0.21025129
6.7362037e-10
-0.21027944
7.1678428e-05
-0.21009134
0.00032858695
-0.20976612
0.00062203788
-0.20951067
0.0011469674
0.0001396152
-0.20989433
0.00051709692
-0.20904098
0.0011702987
-0.20758241
0.0020919781
-0.20542704
0.0032880611
-0.2024849
0.0047301089
-0.19867256
0.0064010999
-0.19391115
0.0082685046
-0.18813417
0.010307647
-0.18129121
0.012493293
-0.18164901
0.013331151
-0.19462444
0.014023607
-0.20884294
0.014543673
-0.22446131
0.014886674
-0.24157731
0.015074215
-0.26021709
0.015139267
-0.28036387
0.015108422
-0.30199777
0.014987157
-0.32513829
0.014755734
-0.34986433
0.014377216
-0.3763042
0.013812087
-0.40460663
0.013032398
-0.43490862
0.012031135
-0.46731541
0.010826289
-0.501901
0.0094594905
-0.53872107
0.0079910177
-0.57783214
0.0064920462
-0.61930668
0.0050351285
-0.66324762
0.0036847664
-0.70979607
0.002490447
-0.75913561
0.0014833759
-0.81149312
0.0006769665
-0.8671311
6.9868321e-05
-0.92634613
-0.00034935141
-0.98946735
-0.00059828899
-1.0568368
-0.00069633844
-1.128853
-0.00066350881
-1.2058874
-0.00051811343
-1.2883969
-0.00028538722
-1.3766957
-0.21011168
7.0851566e-10
-0.21025129
-2.8150106e-05
-0.21012574
0.00010608158
-0.20981447
0.0003769292
-0.20947482
0.00058619043
-0.20932331
0.00099720269
0.00024557783
-0.20962281
0.00073548702
-0.20860617
0.0014802377
-0.20697067
0.0024898339
-0.20462882
0.003743588
-0.20149838
0.0052253349
-0.19749679
0.0069037046
-0.19254635
0.0087534436
-0.18657997
0.010747752
-0.17954567
0.012868547
-0.18118641
0.013668085
-0.19426892
0.014319405
-0.20861867
0.014802321
-0.22437696
0.015119895
-0.24162299
0.015294835
-0.26037266
0.015354007
-0.28060945
0.015312763
-0.30232338
0.015164638
-0.3255472
0.014882081
-0.35036919
0.014427103
-0.37691921
0.013765076
-0.40533931
0.012876236
-0.43575372
0.011763459
-0.46825258
0.010454809
-0.50289631
0.0090014606
-0.53973151
0.0074715515
-0.57881164
0.0059409129
-0.62021246
0.0044825283
-0.66404538
0.0031573952
-0.71046302
0.0020087925
-0.75966103
0.0010606351
-0.81187679
0.00031938664
-0.86738062
-0.00022196684
-0.92647352
-0.00057889516
-0.98948675
-0.00077141629
-1.0567618
-0.00082011466
-1.1286964
-0.00074537205
-1.2056602
-0.00056557582
-1.2881167
-0.00030596287
-1.3763898
-0.2098661
2.7104989e-10
-0.21011168
-0.00013961438
-0.21006377
-9.0126751e-05
-0.20976114
5.2752061e-05
-0.20937263
0.00027474361
-0.20906829
0.00033117748
-0.20907378
0.00054793122
0.00035681121
-0.20924413
0.00094925743
-0.20807519
0.0017937624
-0.2062746
0.0028796905
-0.20376492
0.0041934321
-0.20046648
0.005705245
-0.19629833
0.0073888783
-0.19118179
0.0092158826
-0.1850481
0.011164931
-0.17784205
0.013222406
-0.18074073
0.013986778
-0.19393629
0.014602868
-0.20841922
0.015057596
-0.22431466
0.015358513
-0.24168667
0.015525919
-0.26054458
0.015578247
-0.28087494
0.015519106
-0.30267785
0.015331754
-0.32599687
0.014984155
-0.35092624
0.014440372
-0.37759451
0.013672154
-0.40613523
0.012668704
-0.43665897
0.011442786
-0.46924056
0.010032677
-0.50392753
0.0084991428
-0.5407591
0.006917576
-0.57978831
0.005367004
-0.62109694
0.0039190786
-0.66480707
0.0026297375
-0.71108396
0.001535062
-0.76013545
0.00065130822
-0.81220871
-2.1860886e-05
-0.86758073
-0.00049666603
-0.92655574
-0.00079206243
-0.9894661
-0.00092989791
-1.056652
-0.00093160352
-1.1285102
-0.0008177246
-1.205408
-0.00060660786
-1.2878161
-0.00032337557
-1.3760664
-0.20950929
2.4119802e-10
-0.2098661
-0.00024557755
-0.20989433
-0.00030905159
-0.20961871
-0.00023255561
-0.2091803
-0.00013958248
-0.20876008
-3.3468532e-05
-0.20854089
-0.00020171343
-0.20875621
-0.00026193191
0.00046581013
-0.20876069
0.0011656697
-0.2074471
0.0021017416
-0.20549665
0.003265452
-0.20283694
0.0046309025
-0.19939213
0.0061708326
-0.19508029
0.0078543026
-0.18982021
0.0096566682
-0.18353984
0.011560149
-0.17617979
0.013558676
-0.18031263
0.014292468
-0.1936259
0.014880977
-0.2082426
0.015316494
-0.22427264
0.015607635
-0.24176839
0.015769552
-0.26073588
0.015810549
-0.28116638
0.01572293
-0.30306902
0.015482496
-0.32649521
0.015056211
-0.35154208
0.014412321
-0.37833468
0.013530171
-0.4069967
0.012408011
-0.43762419
0.011068673
-0.47027656
0.0095610293
-0.50498942
0.0079553928
-0.54179692
0.0063333517
-0.58075465
0.0047753812
-0.62195324
0.0033499438
-0.66552727
0.0021064952
-0.71165539
0.0010731401
-0.76055729
0.00025833723
-0.81248891
-0.00034472201
-0.86773267
-0.00075292642
-0.92659488
-0.00098805355
-0.98940795
-0.0010732711
-1.0565103
-0.0010305761
-1.1282973
-0.00088049329
-1.2051341
-0.00064124337
-1.2874982
-0.00033768112
-1.3757287
-0.20904348
3.9645851e-10
-0.20950929
-0.00035681052
-0.20962281
-0.00051709625
-0.20937693
-0.00055083446
-0.2089096
-0.00050325218
-0.20837643
-0.00052322826
-0.20797046
-0.00060389746
-0.20788663
-0.0010712818
-0.20836543
-0.0014916898
0.00057624401
-0.20817126
0.0013787024
-0.20672406
0.0024071323
-0.20463833
0.0036421534
-0.20184819
0.0050571862
-0.19827849
0.0066194697
-0.19384546
0.0083002228
-0.18846376
0.010076678
-0.18205637
0.011936896
-0.17455801
0.01388211
-0.17990227
0.014591752
-0.19333667
0.015161047
-0.20808715
0.015585204
-0.22425021
0.015871041
-0.24186988
0.016026057
-0.26095139
0.016047663
-0.28149112
0.01591864
-0.30350516
0.015610802
-0.3270498
0.015092856
-0.35222262
0.014339057
-0.37914356
0.013336571
-0.40792526
0.012092804
-0.43864832
0.010641183
-0.47135671
0.0090416972
-0.50607572
0.0073737756
-0.54283734
0.00572372
-0.58170299
0.0041714354
-0.62277473
0.0027803676
-0.66620114
0.0015922419
-0.7121745
0.00062665372
-0.7609256
-0.00011564251
-0.81271799
-0.00064745265
-0.86783815
-0.00098968041
-0.92659325
-0.001166231
-0.98931499
-0.0012012049
-1.0563397
-0.0011169062
-1.1280609
-0.0009336877
-1.2048417
-0.00066956333
-1.2871663
-0.0003489338
-1.3753798
-0.20846724
8.0267224e-10
-0.20904348
-0.00046580921
-0.20924414
-0.00073548635
-0.20904099
-0.00085303694
-0.20855126
-0.00090917309
-0.20792807
-0.00095161628
-0.20734225
-0.0011514383
-0.20699816
-0.0014923702
-0.20710105
-0.0023356587
-0.20789652
-0.0031987666
0.0006850645
-0.20747762
0.0015902602