/*--------------------------------*- C++ -*----------------------------------*\
| =========                 |                                                 |
| \\      /  F ield         | OpenFOAM: The Open Source CFD Toolbox           |
|  \\    /   O peration     | Version:  5.0                                   |
|   \\  /    A nd           | Web:      www.OpenFOAM.org                      |
|    \\/     M anipulation  |                                                 |
\*---------------------------------------------------------------------------*/
FoamFile
{
    version     2.0;
    format      ascii;
    class       volScalarField;
    location    "30";
    object      pMean;
}
// * * * * * * * * * * * * * * * * * * * * * * * * * * * * * * * * * * * * * //

dimensions      [0 2 -2 0 0 0 0];

internalField   nonuniform List<scalar> 
9200
(
-0.00036775468
-0.00035923343
-0.00080265519
-0.00035196745
-0.00078770189
-0.0013708692
-0.00033989102
-0.00076891344
-0.0013457041
-0.0018789431
-0.00032661461
-0.00073862027
-0.0013137531
-0.0018469339
-0.0024088464
-0.00031089691
-0.00070328683
-0.0012645813
-0.0018035738
-0.0023698564
-0.0029245858
-0.00029351128
-0.00066197531
-0.0012062457
-0.0017381396
-0.0023154645
-0.0028802286
-0.0034407457
-0.00027444251
-0.00061644247
-0.0011382658
-0.0016595772
-0.0022346058
-0.0028164861
-0.0033919203
-0.0039502173
-0.00025368679
-0.00056753604
-0.0010628796
-0.0015682461
-0.0021367208
-0.0027225773
-0.0033200924
-0.0038981845
-0.0044568405
-0.00023109738
-0.00051608283
-0.00098145591
-0.0014668483
-0.0020229753
-0.0026079424
-0.0032150215
-0.0038197639
-0.0044028781
-0.0049564375
-0.00020623087
-0.00046299906
-0.00089512463
-0.0013574792
-0.0018963751
-0.0024745673
-0.0030857187
-0.0037056669
-0.0043196121
-0.0049020097
-0.005450746
-0.00017847007
-0.00040901548
-0.0008050631
-0.0012417651
-0.001759699
-0.0023255368
-0.0029349882
-0.0035639578
-0.0041990397
-0.0048157158
-0.0053973272
-0.0059359832
-0.0001469019
-0.00035494195
-0.0007120727
-0.0011214579
-0.0016149967
-0.0021641858
-0.0027658685
-0.0033982485
-0.00404775
-0.0046912571
-0.0053100374
-0.0058851832
-0.0064120165
-0.00011052978
-0.00030138518
-0.0006169647
-0.00099789688
-0.0014645203
-0.001992942
-0.0025822297
-0.003211326
-0.0038701078
-0.0045331965
-0.0051846295
-0.0057990216
-0.0063654866
-0.0068756494
-6.8438774e-05
-0.00024888191
-0.00052030695
-0.00087252407
-0.0013099848
-0.0018146459
-0.0023867763
-0.0030075991
-0.0036684071
-0.0043466059
-0.0050230422
-0.0056757061
-0.0062827382
-0.0068350978
-0.0073254291
-2.0111172e-05
-0.00019777205
-0.000422547
-0.00074658969
-0.0011531769
-0.0016315945
-0.0021828075
-0.0027900253
-0.0034474381
-0.0041330378
-0.0048309607
-0.0055139875
-0.0061648037
-0.0067581469
-0.0072925974
-0.0077586873
3.4226032e-05
-0.00014828144
-0.0003243865
-0.00062127245
-0.00099561285
-0.0014461891
-0.001973017
-0.002562386
-0.0032102616
-0.0038975802
-0.004608917
-0.0053200741
-0.0060066571
-0.0066490258
-0.0072239244
-0.0077353057
-0.0081734246
9.3468407e-05
-0.00010070625
-0.00022689755
-0.00049763071
-0.00083880098
-0.0012604369
-0.0017602544
-0.0023277889
-0.0029610486
-0.0036432865
-0.0043621379
-0.0050931905
-0.0058149126
-0.0064983886
-0.0071271956
-0.0076774436
-0.0081611897
-0.0085674063
0.00015571489
-5.5476428e-05
-0.00013119021
-0.0003766527
-0.00068411789
-0.0010762102
-0.0015469117
-0.0020895581
-0.0027032589
-0.0033746598
-0.0040935223
-0.0048385474
-0.005587188
-0.0063131358
-0.0069882212
-0.0075967787
-0.0081166761
-0.0085679275
-0.0089386652
0.00021844701
-1.305911e-05
-3.867416e-05
-0.0002595902
-0.00053290325
-0.00089516645
-0.0013351747
-0.0018504973
-0.0024406631
-0.0030954836
-0.0038078198
-0.0045587197
-0.0053284952
-0.0060889755
-0.0068140623
-0.0074738113
-0.0080557839
-0.008539249
-0.0089534621
-0.0092852701
0.00027901259
2.5869702e-05
4.9074743e-05
-0.00014776713
-0.00038639685
-0.0007186702
-0.0011269786
-0.0016131705
-0.002176478
-0.0028099852
-0.0035090845
-0.0042585947
-0.0050409019
-0.0058305136
-0.0065982197
-0.0073156389
-0.0079532871
-0.0085018079
-0.008942997
-0.0093157737
-0.0096054839
0.00033512646
6.0600186e-05
0.00013109867
-4.2498703e-05
-0.00024587322
-0.0005479612
-0.00092404853
-0.0013798074
-0.0019136513
-0.0025218191
-0.0032019838
-0.0039424233
-0.0047293057
-0.005539095
-0.0063446743
-0.0071132682
-0.0078162042
-0.008424313
-0.008932582
-0.0093257877
-0.0096529731
-0.0098978944
0.00038505233
9.0756624e-05
0.00020666414
5.4793342e-05
-0.00011247128
-0.00038415789
-0.00072784831
-0.0011523293
-0.0016547461
-0.0022343777
-0.0028906288
-0.0036152883
-0.0043980668
-0.0052194678
-0.0060538179
-0.0068698198
-0.007632785
-0.0083135955
-0.0088846013
-0.009345792
-0.0096856214
-0.009963372
-0.010161237
0.00042761584
0.00011620279
0.00027484258
0.00014312065
1.2608858e-05
-0.00022870772
-0.00053972435
-0.00093237811
-0.0014019899
-0.0019506271
-0.0025788866
-0.0032817641
-0.0040526432
-0.0048759792
-0.0057300584
-0.0065844748
-0.0074050508
-0.0081549158
-0.0088056099
-0.0093317385
-0.009739208
-0.010020602
-0.010245571
-0.010394387
0.00046220315
0.00013669887
0.0003346551
0.00022209835
0.00012804154
-8.3202449e-05
-0.00036101081
-0.00072130882
-0.0011572779
-0.0016731413
-0.0022701617
-0.0029462394
-0.0036980732
-0.0045143947
-0.0053775829
-0.0062610807
-0.0071307049
-0.0079489604
-0.0086776863
-0.0092898382
-0.0097633098
-0.010110675
-0.010328975
-0.010498334
-0.010596565
0.00048859721
0.00015190103
0.00038525923
0.00029152899
0.00023254216
5.0773826e-05
-0.00019295909
-0.00052033866
-0.00092222409
-0.001404115
-0.0019674166
-0.0026126307
-0.0033393009
-0.0041401955
-0.0050023671
-0.0059034748
-0.0068127784
-0.0076916752
-0.0084999607
-0.0091988422
-0.0097637696
-0.010176899
-0.010458156
-0.010609253
-0.010720595
-0.010767295
0.00050680835
0.00016144062
0.00042602232
0.00035102955
0.00032487421
0.00017162134
-3.6810625e-05
-0.00033086461
-0.0006982716
-0.00114537
-0.0016731812
-0.0022843748
-0.0029808106
-0.0037589054
-0.0046102908
-0.0055177076
-0.0064545326
-0.0073849947
-0.0082663483
-0.0090561287
-0.0097159271
-0.01022479
-0.010570131
-0.010779743
-0.0108602
-0.010911618
-0.010906373
0.0005168239
0.00016493274
0.00045659154
0.00040005297
0.00040417344
0.00027861703
0.00010596915
-0.00015458196
-0.00048683684
-0.0008984233
-0.0013895734
-0.001964424
-0.0026265818
-0.0033756382
-0.0042074648
-0.0051099796
-0.0060619134
-0.0070313348
-0.0079773806
-0.0088533206
-0.0096152484
-0.010226271
-0.010670223
-0.010940689
-0.011073662
-0.011080695
-0.011070961
-0.01101388
0.00051847301
0.0001618905
0.00047678553
0.0004381181
0.00046997667
0.00037171404
0.00023389615
6.778555e-06
-0.0002893709
-0.00066464631
-0.0011183453
-0.0016552609
-0.0022800523
-0.0029950007
-0.0037996811
-0.0046869705
-0.0056413215
-0.0066363054
-0.0076343236
-0.0085892369
-0.0094508364
-0.010174785
-0.010727019
-0.011097356
-0.011286352
-0.011338358
-0.011269876
-0.011198468
-0.011090177
0.00051250117
0.00015212535
0.00048652366
0.00046491971
0.0005220534
0.00045072028
0.00034583544
0.00015162922
-0.00010729928
-0.00044542115
-0.00086102044
-0.0013589218
-0.001944133
-0.0026210131
-0.0033922551
-0.0042551858
-0.0051999519
-0.0062063351
-0.0072421647
-0.0082636506
-0.0092194853
-0.010056728
-0.010731888
-0.011215151
-0.01150348
-0.011605036
-0.011572611
-0.011427253
-0.01129427
-0.011135901
0.00050299101
0.00013668886
0.00048663907
0.00048034394
0.00056036696
0.00051525394
0.00044109856
0.00027920665
5.7901129e-05
-0.00024238991
-0.00061908446
-0.0010770873
-0.0016212274
-0.0022571048
-0.0029898859
-0.0038207288
-0.0047450341
-0.0057490336
-0.0068071271
-0.007880589
-0.0089191192
-0.0098665886
-0.010668398
-0.011283399
-0.011687519
-0.011885921
-0.011894842
-0.011775386
-0.011552607
-0.01135879
-0.011151929
0.00049874236
0.00012337599
0.00047926201
0.00048524344
0.00058513347
0.00056494454
0.00051939408
0.00038939475
0.00020478865
-5.7418389e-05
-0.00039409576
-0.00081126683
-0.0013132824
-0.0019061344
-0.0025966171
-0.0033890836
-0.0042835258
-0.0052723296
-0.0063370729
-0.0074457672
-0.0085524169
-0.009600075
-0.010528482
-0.011282785
-0.011825869
-0.012140876
-0.012242094
-0.012154075
-0.011945882
-0.011646029
-0.011392714
-0.011139339
0.0004970305
0.00011786797
0.00046677456
0.00047924139
0.00059830642
0.00059964045
0.00058062096
0.00048191379
0.000332435
0.00010788048
-0.00018768364
-0.00056299131
-0.0010219583
-0.001570414
-0.0022158519
-0.0029650233
-0.0038218045
-0.0047840799
-0.0058405532
-0.006967064
-0.0081242129
-0.0092580965
-0.010305295
-0.011202513
-0.011896367
-0.012355584
-0.012571945
-0.012569549
-0.012381312
-0.012083672
-0.011707891
-0.011396954
-0.011099351
0.00049622288
0.00011483362
0.00045810578
0.00046700605
0.00060245019
0.00062105343
0.0006249433
0.00055627078
0.00044039101
0.00025279834
-1.5351796e-06
-0.00033398932
-0.00074883842
-0.0012518248
-0.0018503709
-0.0025526026
-0.0033655004
-0.0042916588
-0.0053263341
-0.0064535063
-0.0076420812
-0.0088441706
-0.009997536
-0.011032873
-0.011885383
-0.012505159
-0.012868632
-0.012977479
-0.012866062
-0.012575438
-0.012188618
-0.011738826
-0.011372602
-0.011033305
0.00049617566
0.0001121494
0.00045150384
0.00046294138
0.00059770264
0.00062930014
0.00065510719
0.00061216191
0.00052823564
0.00037705758
0.00016306644
-0.00012610691
-0.00049560267
-0.00095203874
-0.0015023911
-0.0021551764
-0.0029194454
-0.0038016926
-0.0048028715
-0.0059147242
-0.0071152898
-0.0083651539
-0.0096069187
-0.010769935
-0.011780114
-0.012573127
-0.013104769
-0.013360977
-0.01335436
-0.013129684
-0.012735669
-0.012260854
-0.011739681
-0.011320903
-0.010942656
0.00049675295
0.00010965468
0.00044586205
0.00046248856
0.0005978392
0.00062451367
0.00067327041
0.0006524166
0.0005958845
0.00048009162
0.00030545863
5.90999e-05
-0.00026412313
-0.00067275393
-0.0011737726
-0.0017754251
-0.0024876846
-0.0033199392
-0.0042779315
-0.0053603071
-0.0065542074
-0.0078302153
-0.0091390839
-0.01041309
-0.011573606
-0.012543442
-0.013261122
-0.013690469
-0.01382857
-0.013699699
-0.01335882
-0.012861582
-0.012300849
-0.011711487
-0.011243245
-0.010829033
0.00049769218
0.00010747279
0.00044099627
0.00046255208
0.00059983194
0.00062817209
0.00067609296
0.00067818749
0.00064694828
0.00056149108
0.00042500906
0.00022085343
-5.6202145e-05
-0.00041588731
-0.00086627292
-0.0014155009
-0.0020734929
-0.0028512708
-0.0037583685
-0.0047992953
-0.0059695521
-0.0072502327
-0.0086026473
-0.0099661964
-0.011262422
-0.012405811
-0.013318367
-0.013944158
-0.014257328
-0.014267491
-0.014010944
-0.013552285
-0.012953107
-0.012309353
-0.011655451
-0.011141211
-0.010694265
0.00049871006
0.00010566491
0.00043699816
0.00046246581
0.00060232566
0.00063495095
0.00068636048
0.00068373915
0.00068343859
0.00062509306
0.00052124357
0.00035851319
0.00012706498
-0.00018336312
-0.00058178396
-0.0010772978
-0.001679451
-0.0023996906
-0.0032500487
-0.0042398267
-0.0053717414
-0.006636958
-0.0080086387
-0.009436752
-0.010848025
-0.012153498
-0.013262649
-0.014099512
-0.014616557
-0.014800374
-0.014674091
-0.01428596
-0.013709304
-0.013010482
-0.012287337
-0.011573013
-0.011016604
-0.010540379
0.00049955777
0.00010427455
0.00043387207
0.00046234902
0.00060466424
0.00064236251
0.00069841259
0.00069928074
0.00069619922
0.00067283705
0.00059858726
0.00047143334
0.00028482395
2.3363393e-05
-0.00032234708
-0.00076273576
-0.0013077009
-0.0019683655
-0.0027578548
-0.0036889645
-0.0047703869
-0.0060022295
-0.0073696243
-0.0088354377
-0.010336139
-0.011784957
-0.013083534
-0.014139013
-0.014880717
-0.015272371
-0.015314779
-0.015045112
-0.014523058
-0.01382947
-0.013034223
-0.012235931
-0.011465842
-0.010871429
-0.01036944
0.00050005023
0.00010333739
0.00043158874
0.0004622632
0.00060685983
0.00064908911
0.00071077233
0.0007169893
0.00071982668
0.00069145125
0.00065962263
0.00056437838
0.00041628376
0.00020320968
-8.9796925e-05
-0.00047398448
-0.00096026709
-0.001559819
-0.0022857065
-0.0031526583
-0.004173983
-0.005357299
-0.0066988089
-0.0081752631
-0.0097364595
-0.011303424
-0.012775896
-0.01404824
-0.015028653
-0.015655243
-0.015905597
-0.015796022
-0.015377757
-0.014720964
-0.013912704
-0.013025116
-0.012156571
-0.011335846
-0.010707748
-0.010183292
0.00010287408
0.00050005001
0.00043010768
0.00046222003
0.00060884524
0.00065498206
0.00072199416
0.00073511248
0.00074438284
0.0007228724
0.00068635408
0.00064037025
0.00052665497
0.00035526872
0.00011451445
-0.00021306644
-0.00063935205
-0.0011762718
-0.0018366693
-0.0026357611
-0.0035897817
-0.004712342
-0.0060091872
-0.0074705977
-0.0090618885
-0.01071685
-0.012339754
-0.013817989
-0.0150418
-0.015924366
-0.016416023
-0.016510394
-0.01624001
-0.015669678
-0.014878799
-0.013959252
-0.012984308
-0.012051054
-0.011185086
-0.010527478
-0.0099834158
0.00042939905
0.00010287352
0.00049955773
0.00046220499
0.00061050148
0.00065992697
0.00073184923
0.00075165888
0.00076902794
0.0007548785
0.00072785505
0.00067589902
0.0006197632
0.0004851514
0.00028948201
1.8323388e-05
-0.00034713991
-0.00081995106
-0.0014132896
-0.0021420816
-0.0030237847
-0.0040761971
-0.0053128545
-0.0067361752
-0.0083275768
-0.010037313
-0.011780488
-0.013444384
-0.014906498
-0.016057018
-0.016818266
-0.017155932
-0.017081238
-0.016643094
-0.015918948
-0.014996069
-0.01396979
-0.012913373
-0.011921458
-0.011015591
-0.010332242
-0.009771173
0.00046221349
0.00042939846
0.00010333672
0.00049870956
0.00061169401
0.00066379006
0.00074012656
0.00076618289
0.0007915414
0.00078689136
0.00076874489
0.00072854857
0.0006658612
0.00059759876
0.00044113701
0.00021872566
-8.5792278e-05
-0.00049331433
-0.0010179725
-0.0016746539
-0.0024807737
-0.0034562855
-0.0046205497
-0.0059861887
-0.0075498237
-0.0092801465
-0.011108483
-0.012929377
-0.014614374
-0.016034851
-0.017085593
-0.017702105
-0.017867986
-0.017612989
-0.017002058
-0.016124067
-0.01507278
-0.01394554
-0.012814298
-0.011769905
-0.010829139
-0.010123525
-0.0095481532
0.00061233743
0.00046221266
0.00043010551
0.00010427268
0.0004976918
0.00066642688
0.00074658964
0.00077834167
0.00081131593
0.00081621687
0.00080927
0.00077939942
0.00073171064
0.00065578424
0.00057542763
0.00039462228
0.00014285732
-0.00019884436
-0.00065329597
-0.0012361599
-0.0019644778
-0.0028586257
-0.0039414488
-0.0052335979
-0.0067449784
-0.0084628183
-0.010338444
-0.012280705
-0.01416315
-0.015844524
-0.017194891
-0.018118468
-0.018567521
-0.018545437
-0.018100882
-0.017314114
-0.016284107
-0.015109602
-0.013888277
-0.012689223
-0.011598306
-0.010627318
-0.0099029446
-0.0093162026
0.00066776278
0.00061233647
0.0004622027
0.00043158537
0.00010566288
0.0004967521
0.00075099506
0.00078779443
0.0008278694
0.00084199966
0.00084641458
0.00082952027
0.00079407235
0.00073671341
0.00064760036
0.00055343367
0.00034571174
6.1232083e-05
-0.00032205129
-0.00082925997
-0.0014780115
-0.0022879187
-0.0032831214
-0.0044897207
-0.0059284888
-0.0076036984
-0.0094883602
-0.011511458
-0.013556928
-0.015478811
-0.017127533
-0.018377241
-0.019146135
-0.019406164
-0.019181776
-0.018540556
-0.017577088
-0.016398927
-0.015107928
-0.01380007
-0.012540136
-0.011408357
-0.010411822
-0.009672388
-0.0090770758
0.00075321393
0.00066776181
0.00061169138
0.00046221604
0.00043386707
0.00010746958
0.00049617479
0.00079420962
0.00084073602
0.00086357878
0.0008790861
0.00087551644
0.0008551573
0.00081214399
0.00074589204
0.00064156798
0.00053194206
0.00029404465
-2.7043137e-05
-0.00045718385
-0.0010243036
-0.0017479174
-0.0026515721
-0.0037640755
-0.0051142257
-0.0067208571
-0.0085782195
-0.01063924
-0.012806088
-0.014937241
-0.016870767
-0.018454365
-0.019571653
-0.020158792
-0.020209695
-0.019770787
-0.018928248
-0.017789707
-0.016469312
-0.015069633
-0.013682918
-0.01236879
-0.011201857
-0.010184629
-0.0094337425
-0.0088323735
0.00079741823
0.00075321287
0.00066642381
0.0006104969
0.00046225765
0.0004369919
0.00010965121
0.00049622146
0.00084946563
0.00088034415
0.00090643252
0.00091600099
0.00091125157
0.00088564044
0.00083621379
0.00075963568
0.00063818139
0.00051082404
0.00023905408
-0.00012338208
-0.00060681855
-0.0012419411
-0.0020514736
-0.0030643621
-0.0043141278
-0.0058310847
-0.0076286281
-0.009684951
-0.011926727
-0.014226352
-0.016418701
-0.018331134
-0.019814623
-0.020767202
-0.021146333
-0.020969834
-0.020306774
-0.019261192
-0.01795185
-0.016496744
-0.014996604
-0.013538546
-0.012176999
-0.010980854
-0.009947664
-0.0091886758
-0.0085838662
0.00085382616
0.0007974172
0.00075099188
0.00066378505
0.00060883892
0.00046234167
0.00044098833
0.00011214459
0.00049702888
0.00089171365
0.00092767911
0.00094989889
0.00096064146
0.0009531788
0.00092378217
0.00086680319
0.00077866906
0.00063743409
0.00048980472
0.00017966759
-0.00022969687
-0.00077373376
-0.0014867205
-0.002396568
-0.0035380698
-0.0049492498
-0.006659523
-0.0086713331
-0.010939652
-0.013359492
-0.015772947
-0.01799553
-0.019850144
-0.021196788
-0.021952257
-0.022098352
-0.021678645
-0.02078508
-0.019537983
-0.018064335
-0.016482826
-0.014890417
-0.013368715
-0.011966904
-0.010747362
-0.0097025061
-0.0089388339
-0.0083330148
0.00089738662
0.00085382517
0.00079420652
0.00074658436
0.00065991985
0.00060685146
0.00046245676
0.00044585275
0.0001148284
0.00049873988
0.0009420904
0.00097624607
0.001002005
0.0010126648
0.0010042963
0.00097024538
0.000904813
0.00080318277
0.00063921413
0.00046819633
0.00011447831
-0.00034815649
-0.00096148007
-0.0017654211
-0.0027938534
-0.0040879702
-0.0056891833
-0.007621445
-0.0098689794
-0.012356114
-0.014942816
-0.017443245
-0.019659511
-0.021416403
-0.022588157
-0.023114421
-0.023004458
-0.022329182
-0.021202598
-0.019758442
-0.018128239
-0.016428817
-0.014752685
-0.013175672
-0.011740677
-0.01050282
-0.0094506647
-0.0086860215
-0.0080793392
0.00094928375
0.00089738555
0.00084946259
0.0007877893
0.00074011918
0.00065497297
0.00060465401
0.00046254108
0.00045149277
0.0001178612
0.0005029883
0.00099412762
0.0010341713
0.0010624938
0.0010752278
0.0010654076
0.0010260971
0.00095058678
0.00083331985
0.00064307981
0.00044510557
4.2008675e-05
-0.00048134988
-0.0011756348
-0.0020874595
-0.0032574582
-0.004733599
-0.0065573099
-0.0087405009
-0.011240593
-0.013945002
-0.016678302
-0.019231625
-0.021400282
-0.023016824
-0.023974705
-0.024240813
-0.023855074
-0.022916195
-0.021557729
-0.019922775
-0.018144248
-0.016336015
-0.014585713
-0.012961775
-0.011499564
-0.010248438
-0.0091944729
-0.0084320211
-0.0078223827
0.0010030608
0.00094928253
0.00089171051
0.00084073104
0.0007783345
0.00073183978
0.0006490779
0.0006023133
0.0004624757
0.00045809325
0.00012336875
0.00051249717
0.0010560223
0.0011012636
0.0011346543
0.0011492669
0.0011377374
0.001091832
0.0010044544
0.00086900384
0.00064855095
0.00042018658
-3.9241477e-05
-0.00063356377
-0.0014243701
-0.0024655492
-0.0038060935
-0.0054988997
-0.0075800358
-0.010040644
-0.012802735
-0.015713175
-0.018564048
-0.0211298
-0.023205261
-0.02463636
-0.025341266
-0.025319005
-0.024642388
-0.023436207
-0.021849418
-0.020030769
-0.018113106
-0.016206682
-0.014392047
-0.012728003
-0.011244308
-0.0099873602
-0.0089375145
-0.00817803
-0.0075552372
0.0010669557
0.0010030593
0.00094208682
0.00088033889
0.00082786239
0.00076617373
0.00072198267
0.00064234933
0.00059981761
0.0004629265
0.00046676023
0.00013667988
0.00051846882
0.0011276264
0.0011809137
0.001219539
0.0012361475
0.0012219283
0.0011679505
0.0010666123
0.00091019911
0.00065587729
0.00039284133
-0.00013222183
-0.00081180053
-0.0017188875
-0.0029170977
-0.0044634211
-0.0064119968
-0.0087855174
-0.011544426
-0.014568369
-0.017663586
-0.020594971
-0.023126756
-0.025059251
-0.026258054
-0.026672559
-0.026338274
-0.025360582
-0.023886425
-0.022076091
-0.020082246
-0.018036842
-0.016043506
-0.014172308
-0.012474452
-0.010979191
-0.0097261009
-0.0086811453
-0.0079032933
-0.007276707
0.0011408413
0.0010669537
0.00099412309
0.0009276731
0.00086357151
0.00081130703
0.00075164772
0.00071075885
0.00063493572
0.00059782274
0.00046698929
0.00047924629
0.00015211574
0.00051681836
0.0012124005
0.001274269
0.0013186386
0.0013366528
0.0013186386
0.0012548877
0.0011373436
0.00095762543
0.00066504222
0.00036094324
-0.00024285829
-0.0010257521
-0.0020750494
-0.0034647718
-0.0052582381
-0.0075042117
-0.010201902
-0.013271437
-0.016546364
-0.019795524
-0.022762792
-0.025208229
-0.026944273
-0.027864036
-0.027954746
-0.027290062
-0.026004624
-0.024263379
-0.022236175
-0.020078717
-0.017918188
-0.015846619
-0.01392577
-0.012206844
-0.010714805
-0.0094657421
-0.0083935604
-0.007615309
-0.0069891996
0.001228215
0.0011408387
0.0010560164
0.00097623854
0.00090642418
0.00084199035
0.00079153053
0.00073509944
0.00069839722
0.00062815503
0.00059768435
0.00047922277
0.00048662167
0.0001618792
0.00050680272
0.0013115584
0.0013829239
0.001432863
0.0014515876
0.0014285147
0.0013532314
0.0012176215
0.0010123448
0.00067422633
0.00032017143
-0.0003793536
-0.001289615
-0.002514056
-0.0041370827
-0.0062238365
-0.008808428
-0.011855459
-0.015237314
-0.018741521
-0.022104655
-0.025055436
-0.02735629
-0.028840481
-0.029437418
-0.029176256
-0.028166634
-0.026568532
-0.024563457
-0.022330218
-0.020022755
-0.0177566
-0.015614216
-0.013659868
-0.011940974
-0.010451926
-0.0091541286
-0.0080933197
-0.0073184146
-0.0066949751
0.0013303252
0.0012282118
0.0011276186
0.0010341614
0.0009498883
0.00087907535
0.00081620559
0.00076901527
0.00071697443
0.00068634339
0.00062449493
0.0006024301
0.00048522335
0.0004865052
0.00016492096
0.00048859067
0.0014267703
0.0015078961
0.0015631533
0.0015817825
0.0015524201
0.0014642154
0.0013090295
0.0010736268
0.00068040078
0.00026403589
-0.00055414996
-0.0016229266
-0.0030633674
-0.0049680904
-0.0073966273
-0.010357083
-0.013769072
-0.017453404
-0.02115464
-0.024582419
-0.027456329
-0.029550053
-0.030728312
-0.030963545
-0.030326329
-0.028958875
-0.027045868
-0.024785646
-0.022360337
-0.019912885
-0.017548863
-0.015355724
-0.013396749
-0.011677054
-0.010110046
-0.0088300876
-0.0077824488
-0.0070126576
-0.0063932244
0.0014488837
0.0013303215
0.0012123909
0.0011012506
0.0010019909
0.00091598734
0.00084640149
0.00078687806
0.0007443683
0.00069926423
0.00067607443
0.00062928002
0.00059828496
0.00048032253
0.00047676592
0.00016142766
0.00046219668
0.0015591339
0.0016502431
0.0017105044
0.0017283463
0.0016918495
0.0015897702
0.0014120361
0.0011402766
0.0006785481
0.00018222103
-0.00078502918
-0.0020516693
-0.0037567352
-0.0059963515
-0.0088141938
-0.012180265
-0.01596142
-0.019926741
-0.02378199
-0.02721508
-0.029944815
-0.031768038
-0.03259029
-0.032428567
-0.031392208
-0.029656637
-0.027433256
-0.024931178
-0.022323746
-0.019744006
-0.017306619
-0.015101041
-0.013135879
-0.011296419
-0.0097561763
-0.0084942774
-0.0074618771
-0.0066984362
-0.0060847041
0.0015850324
0.0014488795
0.0013115471
0.0011808976
0.0010624755
0.00096062326
0.00087549958
0.00080925442
0.00075486322
0.00071981046
0.00068372117
0.00067325063
0.00062103206
0.00058511095
0.00046489762
0.00045657164
0.00015188793
0.00042760918
0.0017097938
0.0018111011
0.0018762367
0.0018930141
0.0018490288
0.0017313551
0.0015268168
0.0012097998
0.00066030171
5.9121378e-05
-0.0010962952
-0.0026085187
-0.0046334888
-0.0072631829
-0.010513177
-0.014304366
-0.018446724
-0.022659668
-0.026614253
-0.029983783
-0.032498632
-0.033990593
-0.034409726
-0.033815793
-0.032359105
-0.030253144
-0.027730447
-0.024995448
-0.02221283
-0.019530179
-0.017069081
-0.014848734
-0.012710214
-0.010903305
-0.0093894758
-0.0081482083
-0.0071319337
-0.0063762162
-0.0057695702
0.001739965
0.0015850276
0.0014267574
0.00127425
0.0011346315
0.0010126408
0.00091122899
0.00082950009
0.00076872678
0.00072285505
0.00069618135
0.00067816831
0.00065508643
0.00059961842
0.0005603441
0.00043809568
0.00042600216
0.00013668556
0.00038504603
0.0018799911
0.0019919651
0.0020623006
0.0020782616
0.0020261562
0.0018903068
0.0016526181
0.0012769449
0.00061227623
-0.00012728561
-0.0015191803
-0.0033324185
-0.0057370793
-0.0088105575
-0.012527498
-0.016751449
-0.021234479
-0.025648822
-0.029636172
-0.032866981
-0.035097009
-0.036198881
-0.036166109
-0.035104973
-0.033215607
-0.030745848
-0.027930384
-0.024967467
-0.022044104
-0.019321751
-0.016833824
-0.014370693
-0.012270618
-0.010496167
-0.009012474
-0.0077921928
-0.0067931682
-0.0060464941
-0.005448305
0.001914982
0.0017399597
0.0015591195
0.0013829022
0.0012195121
0.001075198
0.00095314908
0.00085513013
0.00077937561
0.00072783414
0.00069143186
0.00068341928
0.00065239638
0.000624922
0.0005649224
0.00052203066
0.00040003106
0.00038523987
0.00011618999
0.00033512081
0.0020713505
0.0021949627
0.0022713816
0.0022868226
0.0022254859
0.002067303
0.0017864935
0.0013323198
0.00051502453
-0.00040597465
-0.002091587
-0.0042674072
-0.0071131622
-0.010679099
-0.014887282
-0.019538997
-0.024328684
-0.028884512
-0.032828797
-0.035844261
-0.037720168
-0.038369213
-0.037833177
-0.03627868
-0.033955797
-0.031124496
-0.028017576
-0.024866106
-0.021881109
-0.019115324
-0.016296859
-0.013875892
-0.011815483
-0.010079084
-0.0086253308
-0.0074268239
-0.0064461881
-0.0057099118
-0.005121407
0.0021117812
0.0019149763
0.001709778
0.001507872
0.0013186079
0.0011492316
0.0010042591
0.00088560457
0.00079404018
0.00072852086
0.00068633025
0.00067281558
0.00064692761
0.00061214111
0.00058059967
0.00051523224
0.00046995479
0.00035100854
0.00033463671
9.0744815e-05
0.00027900762
0.0022861305
0.0024229479
0.0025065793
0.002521591
0.0024488004
0.0022612862
0.0019219908
0.0013612771
0.00034241697
-0.00081268563
-0.0028570963
-0.0054609707
-0.0088076191
-0.012906616
-0.017618467
-0.022679501
-0.027727165
-0.032352581
-0.036173907
-0.038896631
-0.040342597
-0.040469355
-0.039386194
-0.037326368
-0.03456532
-0.031367667
-0.028012876
-0.02477052
-0.021719523
-0.018513152
-0.015738368
-0.013363639
-0.011351061
-0.0096519859
-0.0082286601
-0.0070527527
-0.0060918487
-0.0053673292
-0.0047895594
0.0023326967
0.0021117753
0.0018799742
0.0016502167
0.0014328288
0.0012361074
0.0010653637
0.00092373739
0.00081210157
0.00073167305
0.00067586694
0.00065959577
0.00062506965
0.00059586275
0.00055624965
0.00051937311
0.00045069948
0.00040415281
0.00029150969
0.00027482613
6.0589647e-05
0.00021844349
0.0025273052
0.0026792564
0.0027711928
0.0027850948
0.0026964765
0.0024682473
0.0020480186
0.00134321
6.1732431e-05
-0.0013890621
-0.0038635933
-0.00696229
-0.010864911
-0.015527468
-0.020742755
-0.026180039
-0.031422992
-0.036039181
-0.039655454
-0.041998935
-0.042926998
-0.042466332
-0.040808632
-0.038228518
-0.035015126
-0.031497355
-0.028013779
-0.024675583
-0.021046777
-0.017882068
-0.015159827
-0.012843182
-0.010876923
-0.0092154957
-0.007823112
-0.006670956
-0.005731324
-0.0050198456
-0.0044535216
0.002580771
0.0023326909
0.0020713329
0.001811073
0.0015631161
0.0013366083
0.0011376874
0.0009701924
0.00083616088
0.00073666392
0.00066581762
0.00064033386
0.00059855746
0.00056146561
0.00052821283
0.00048189256
0.00044107822
0.00037169446
0.00032485533
0.000222081
0.00020664979
2.5861371e-05
0.00015571234
0.0027983492
0.0029674149
0.0030681703
0.0030786475
0.002966394
0.0026801372
0.0021480753
0.0012515297
-0.00036556399
-0.0021814717
-0.0051618307
-0.0088206845
-0.013327188
-0.018572735
-0.024277741
-0.030043378
-0.035409171
-0.039933556
-0.043251554
-0.045110811
-0.045431947
-0.044336423
-0.04207477
-0.038946526
-0.035326999
-0.031632456
-0.028014767
-0.023927598
-0.020334673
-0.0172272
-0.014574623
-0.01231352
-0.010393672
-0.0087702151
-0.0074097375
-0.006282887
-0.0053659105
-0.0046680283
-0.004114382
0.0028595492
0.0025807654
0.0022861129
0.001991936
0.0017104653
0.0014515396
0.0012218732
0.001026037
0.00086674071
0.00074583056
0.00065572714
0.00061971374
0.00056433767
0.00052121045
0.00048006398
0.00044036714
0.00038937332
0.00034581574
0.0002785988
0.00023252516
0.00014310572
0.00013108708
-1.3065598e-05
9.3467764e-05
0.0031029
0.0032905502
0.0033993218
0.0034014069
0.0032529661
0.002884115
0.002200161
0.0010543064
-0.00098269012
-0.0032398838
-0.0068041744
-0.011084629
-0.016234527
-0.02207109
-0.028238065
-0.034272132
-0.039682615
-0.044020447
-0.046922047
-0.048183235
-0.047825804
-0.046046871
-0.043134308
-0.039500112
-0.035644644
-0.03176801
-0.027189132
-0.023125858
-0.019593114
-0.016567731
-0.013980881
-0.011775175
-0.0099018067
-0.0083172435
-0.0069901991
-0.0058899673
-0.0049956526
-0.0043131414
-0.0037728422
0.0031727188
0.0028595444
0.0025272886
0.0021949338
0.0018761966
0.0015817325
0.0013185798
0.0010917661
0.00090474245
0.0007595634
0.00064752989
0.00059753423
0.00052659979
0.00047138795
0.00042497234
0.00037702736
0.0003324097
0.00027918484
0.00023387699
0.00017160431
0.00012802656
5.4780777e-05
4.9065885e-05
-5.5479992e-05
3.422629e-05
0.0034441286
0.0036506504
0.0037645234
0.0037495987
0.003546512
0.0030624803
0.0021773648
0.00071536982
-0.001836544
-0.0046170326
-0.0088437627
-0.013801965
-0.019626498
-0.026050483
-0.032638809
-0.03887332
-0.044237991
-0.04826441
-0.050612514
-0.051176792
-0.050068471
-0.047533459
-0.044002378
-0.040061511
-0.035965164
-0.030865714
-0.026289558
-0.022286968
-0.018849469
-0.015900508
-0.013378988
-0.011228442
-0.0094024467
-0.0078584674
-0.006565994
-0.005491538
-0.0046225615
-0.0039557466
-0.0034291658
0.0035234528
0.0031727151
0.0027983348
0.0024229206
0.002062261
0.0017282958
0.0014284542
0.0011678809
0.00095051002
0.00077858787
0.00064148567
0.00057534855
0.00048507984
0.00041622244
0.00035846257
0.0003054177
0.00025276506
0.00020476149
0.00015160654
0.00010595013
5.0757764e-05
1.2595601e-05
-4.2508956e-05
-3.868049e-05
-0.00010070809
-2.0109341e-05
0.0038240289
0.00404789
0.0041611711
0.00411612
0.0038333133
0.0031932775
0.0020489543
0.00019531705
-0.0029770067
-0.0063679372
-0.011334757
-0.017022011
-0.023544845
-0.030541034
-0.037499745
-0.043854408
-0.049050077
-0.052609672
-0.054277059
-0.054044742
-0.052079831
-0.048803473
-0.044883715
-0.040631537
-0.03499228
-0.029861153
-0.025342818
-0.021448853
-0.018098838
-0.015225712
-0.012768921
-0.010674393
-0.0088977068
-0.0073954372
-0.0061354108
-0.0050903284
-0.0042473232
-0.0035962472
-0.0030834521
0.0039137168
0.003523451