/*--------------------------------*- C++ -*----------------------------------*\
| =========                 |                                                 |
| \\      /  F ield         | OpenFOAM: The Open Source CFD Toolbox           |
|  \\    /   O peration     | Version:  5.0                                   |
|   \\  /    A nd           | Web:      www.OpenFOAM.org                      |
|    \\/     M anipulation  |                                                 |
\*---------------------------------------------------------------------------*/
FoamFile
{
    version     2.0;
    format      ascii;
    class       volScalarField;
    location    "30";
    object      pPrime2Mean;
}
// * * * * * * * * * * * * * * * * * * * * * * * * * * * * * * * * * * * * * //

dimensions      [0 4 -4 0 0 0 0];

internalField   nonuniform List<scalar> 
9200
(
2.4772462e-09
2.4374412e-09
2.0386863e-08
2.2717708e-09
1.9787772e-08
5.2968671e-08
2.0421644e-09
1.8236156e-08
5.1260006e-08
9.7438516e-08
1.7914673e-09
1.6131453e-08
4.7316342e-08
9.4257412e-08
1.5228681e-07
1.5682548e-09
1.3797556e-08
4.2053889e-08
8.7215942e-08
1.4744863e-07
2.1628296e-07
1.4114734e-09
1.1544035e-08
3.6247034e-08
7.7853698e-08
1.3689691e-07
2.0967063e-07
2.8864853e-07
1.36351e-09
9.6047945e-09
3.0665672e-08
6.7463494e-08
1.2287789e-07
1.9536212e-07
2.8024595e-07
3.6880232e-07
1.464346e-09
8.1798302e-09
2.5914039e-08
5.7348869e-08
1.072595e-07
1.7632362e-07
2.6211167e-07
3.5865692e-07
4.5659081e-07
1.7483854e-09
7.4130941e-09
2.2514536e-08
4.854388e-08
9.1957898e-08
1.5499263e-07
2.3791591e-07
3.3673353e-07
4.4478427e-07
5.5181999e-07
2.2452396e-09
7.3928294e-09
2.085594e-08
4.1951328e-08
7.8514723e-08
1.3392973e-07
2.1064461e-07
3.0737622e-07
4.1919215e-07
5.3845391e-07
6.5453115e-07
2.9625402e-09
8.1734893e-09
2.1178657e-08
3.8259047e-08
6.8289727e-08
1.1522953e-07
1.8349883e-07
2.7409063e-07
3.8476311e-07
5.0937658e-07
6.3972134e-07
7.6501262e-07
3.8785654e-09
9.7472082e-09
2.3591917e-08
3.7915318e-08
6.2339917e-08
1.007785e-07
1.5911999e-07
2.4071392e-07
3.4546857e-07
4.7007378e-07
6.073643e-07
7.488563e-07
8.835253e-07
4.9198397e-09
1.2052479e-08
2.7980136e-08
4.1133881e-08
6.1378711e-08
9.2004071e-08
1.3996222e-07
2.104278e-07
3.0575269e-07
4.2493916e-07
5.6339386e-07
7.1344774e-07
8.6610481e-07
1.0107133e-06
5.9487819e-09
1.4947563e-08
3.4009213e-08
4.7740357e-08
6.5741052e-08
8.9869736e-08
1.2793895e-07
1.8620812e-07
2.6934943e-07
3.7897415e-07
5.1261344e-07
6.6506508e-07
8.2787126e-07
9.9207577e-07
1.1473065e-06
6.7726622e-09
1.8218227e-08
4.1120903e-08
5.7215332e-08
7.5246437e-08
9.4859577e-08
1.2435438e-07
1.7044488e-07
2.3982651e-07
3.3642267e-07
4.6055595e-07
6.0888937e-07
7.7533103e-07
9.5119857e-07
1.1274612e-06
1.2942564e-06
7.181079e-09
2.1597005e-08
4.8566567e-08
6.882857e-08
8.9168926e-08
1.0677489e-07
1.2996001e-07
1.6488177e-07
2.2008686e-07
3.0143512e-07
4.1196879e-07
5.5094267e-07
7.1406367e-07
8.9469719e-07
1.084103e-06
1.2731691e-06
1.4527382e-06
7.0269691e-09
2.4786492e-08
5.5611993e-08
8.1648315e-08
1.0629698e-07
1.2485149e-07
1.4468137e-07
1.7060329e-07
2.1235333e-07
2.774666e-07
3.715775e-07
4.9645987e-07
6.5054548e-07
8.2858231e-07
1.0238104e-06
1.2274245e-06
1.4303392e-06
1.6240762e-06
6.325815e-09
2.7539439e-08
6.1703029e-08
9.456507e-08
1.2524493e-07
1.4774645e-07
1.6769526e-07
1.8774713e-07
2.1813799e-07
2.6727705e-07
3.4338879e-07
4.5074345e-07
5.9048954e-07
7.5976408e-07
9.5309546e-07
1.1634173e-06
1.3822648e-06
1.6002657e-06
1.8097584e-06
5.2813425e-09
2.9705381e-08
6.6557397e-08
1.0655173e-07
1.4459901e-07
1.7377693e-07
1.9744771e-07
2.1559042e-07
2.3788991e-07
2.7288861e-07
3.3073577e-07
4.1836356e-07
5.3975783e-07
6.9444205e-07
8.7928772e-07
1.088252e-06
1.3145472e-06
1.549862e-06
1.7844273e-06
2.0113868e-06
4.1973036e-09
3.1286449e-08
7.0204027e-08
1.1683098e-07
1.6305548e-07
2.0123483e-07
2.3180672e-07
2.5248023e-07
2.7107681e-07
2.9517207e-07
3.362116e-07
4.032591e-07
5.0347662e-07
6.3903208e-07
8.0909595e-07
1.009687e-06
1.2350103e-06
1.4783515e-06
1.7316698e-06
1.9844053e-06
2.2306886e-06
3.3428965e-09
3.2427695e-08
7.2661483e-08
1.2495988e-07
1.7957285e-07
2.283198e-07
2.6840434e-07
2.9598837e-07
3.1603746e-07
3.3390577e-07
3.6121007e-07
4.0865639e-07
4.8620644e-07
5.9920867e-07
7.4948418e-07
9.3499108e-07
1.1518612e-06
1.3944109e-06
1.6562047e-06
1.9292522e-06
2.2018983e-06
2.4692789e-06
2.8912004e-09
3.3248538e-08
7.3885335e-08
1.3106378e-07
1.933307e-07
2.5312122e-07
3.0495524e-07
3.4326388e-07
3.7007661e-07
3.8753064e-07
4.0595663e-07
4.3657381e-07
4.9185127e-07
5.8016203e-07
7.0666281e-07
8.7168359e-07
1.0730073e-06
1.306741e-06
1.5677267e-06
1.8496188e-06
2.1442604e-06
2.4385989e-06
2.7287214e-06
2.9046797e-09
3.3776574e-08
7.4026226e-08
1.3551551e-07
2.0375535e-07
2.7408769e-07
3.3929286e-07
3.9141684e-07
4.2980558e-07
4.5318677e-07
4.6913541e-07
4.8781735e-07
5.2314777e-07
5.8650589e-07
6.8645001e-07
8.2650454e-07
1.0065476e-06
1.224e-06
1.4754847e-06
1.7563675e-06
2.060209e-06
2.3783668e-06
2.6960313e-06
3.0105195e-06
3.3375908e-09
3.4060103e-08
7.3353608e-08
1.3847101e-07
2.1075854e-07
2.9030317e-07
3.694622e-07
4.3770078e-07
4.9159636e-07
5.2702386e-07
5.4784584e-07
5.614624e-07
5.8162748e-07
6.2178455e-07
6.9418819e-07
8.0588539e-07
9.5974977e-07
1.1549139e-06
1.3890326e-06
1.6593745e-06
1.9618636e-06
2.2896224e-06
2.6332045e-06
2.9757048e-06
3.3159303e-06
4.0765499e-09
3.4179337e-08
7.215261e-08
1.3998089e-07
2.1462861e-07
3.017378e-07
3.9413068e-07
4.7946389e-07
5.5195947e-07
6.0469179e-07
6.3786396e-07
6.5470964e-07
6.669257e-07
6.8839733e-07
7.3431048e-07
8.1590235e-07
9.396444e-07
1.107297e-06
1.3178009e-06
1.5692645e-06
1.8598176e-06
2.1857943e-06
2.5394385e-06
2.9101736e-06
3.2789651e-06
3.6459909e-06
4.9764323e-09
3.4203851e-08
7.0708013e-08
1.4020342e-07
2.1606858e-07
3.0945591e-07
4.1249329e-07
5.1444382e-07
6.0763543e-07
6.8189525e-07
7.3410512e-07
7.63076e-07
7.7651309e-07
7.8672142e-07
8.102333e-07
8.619449e-07
9.5302589e-07
1.0887571e-06
1.2701915e-06
1.4962819e-06
1.765965e-06
2.0782776e-06
2.4296977e-06
2.8111043e-06
3.2105417e-06
3.6067994e-06
4.001544e-06
5.8889154e-09
3.4206864e-08
6.9215836e-08
1.3950179e-07
2.1585992e-07
3.1435015e-07
4.2470096e-07
5.413995e-07
6.5580053e-07
7.5463278e-07
8.3130095e-07
8.8080458e-07
9.0579118e-07
9.1469289e-07
9.2327906e-07
9.4859426e-07
1.0062929e-06
1.1067765e-06
1.2543826e-06
1.4495003e-06
1.6915072e-06
1.9804447e-06
2.316191e-06
2.6949903e-06
3.1058878e-06
3.5353925e-06
3.9600245e-06
4.3831956e-06
6.6788893e-09
3.4268947e-08
6.780447e-08
1.3829035e-07
2.145784e-07
3.1664314e-07
4.3169303e-07
5.603704e-07
6.9453139e-07
8.192241e-07
9.2451281e-07
1.0015917e-06
1.0484166e-06
1.0677769e-06
1.0720817e-06
1.0783398e-06
1.1053315e-06
1.1687866e-06
1.2784953e-06
1.4376756e-06
1.6463165e-06
1.904625e-06
2.2139766e-06
2.5748815e-06
2.9828776e-06
3.4247904e-06
3.8854652e-06
4.3392201e-06
4.7913557e-06
7.2488843e-09
3.4459207e-08
6.6574579e-08
1.3689282e-07
2.1273493e-07
3.166292e-07
4.346715e-07
5.7280218e-07
7.2301733e-07
8.727439e-07
1.0091899e-06
1.1193678e-06
1.197017e-06
1.2391794e-06
1.2523909e-06
1.2507887e-06
1.2540392e-06
1.282095e-06
1.3509823e-06
1.4695202e-06
1.6397844e-06
1.8616765e-06
2.1367019e-06
2.4677043e-06
2.8554639e-06
3.2943016e-06
3.7684644e-06
4.2612202e-06
4.7447601e-06
5.2262258e-06
7.6752726e-09
3.4810026e-08
6.5562246e-08
1.3557261e-07
2.107156e-07
3.1498233e-07
4.3480504e-07
5.8002829e-07
7.4193999e-07
9.1361171e-07
1.0814429e-06
1.2285816e-06
1.3441715e-06
1.4204987e-06
1.4571327e-06
1.4622569e-06
1.4533243e-06
1.4522516e-06
1.4806451e-06
1.5544578e-06
1.6811781e-06
1.8617349e-06
2.0964461e-06
2.3886151e-06
2.742544e-06
3.1587898e-06
3.6299038e-06
4.1374036e-06
4.6629471e-06
5.1768172e-06
5.6878885e-06
8.2300863e-09
3.4801892e-08
6.4772702e-08
1.3445555e-07
2.0877975e-07
3.1245184e-07
4.3302148e-07
5.8278618e-07
7.5291584e-07
9.4206264e-07
1.1386976e-06
1.3242141e-06
1.4830801e-06
1.602806e-06
1.6769576e-06
1.7056257e-06
1.7004328e-06
1.6818442e-06
1.6749047e-06
1.7027874e-06
1.7808193e-06
1.914643e-06
2.1042835e-06
2.3511986e-06
2.6609521e-06
3.0391257e-06
3.4854172e-06
3.9900842e-06
4.5318173e-06
5.0907051e-06
5.635454e-06
6.1763848e-06
8.8149516e-09
3.432353e-08
6.3776496e-08
1.3371714e-07
2.0692951e-07
3.0957586e-07
4.3009732e-07
5.8189292e-07
7.5756948e-07
9.6020003e-07
1.1802124e-06
1.4023997e-06
1.6075419e-06
1.777725e-06
1.9013312e-06
1.9707455e-06
1.9885266e-06
1.9695131e-06
1.938433e-06
1.9239498e-06
1.9504283e-06
2.031553e-06
2.1707287e-06
2.3677274e-06
2.6260748e-06
2.9539401e-06
3.357769e-06
3.8356589e-06
4.3750445e-06
4.9516913e-06
5.5444679e-06
6.1207108e-06
6.6919373e-06
9.3738438e-09
3.3839403e-08
6.2386782e-08
1.3235664e-07
2.0505297e-07
3.0662552e-07
4.265913e-07
5.7840619e-07
7.5743731e-07
9.6982913e-07
1.207505e-06
1.4612681e-06
1.712298e-06
1.9376949e-06
2.1199389e-06
2.2454597e-06
2.3068831e-06
2.3091635e-06
2.2718344e-06
2.2250803e-06
2.2014986e-06
2.2254662e-06
2.3077592e-06
2.4496072e-06
2.6517191e-06
2.9207127e-06
3.2674399e-06
3.6985456e-06
4.20965e-06
4.7848809e-06
5.3970581e-06
6.0242046e-06
6.6328193e-06
7.2351147e-06
9.8955357e-09
3.3450565e-08
6.1123779e-08
1.2974606e-07
2.0227215e-07
3.0407757e-07
4.2266197e-07
5.735351e-07
7.5394192e-07
9.722525e-07
1.2228895e-06
1.5015324e-06
1.793981e-06
2.0759185e-06
2.3235084e-06
2.5172028e-06
2.6417897e-06
2.6898566e-06
2.6703929e-06
2.609385e-06
2.5439032e-06
2.5098174e-06
2.5295031e-06
2.6097486e-06
2.750509e-06
2.9551347e-06
3.2342345e-06
3.6010341e-06
4.0613926e-06
4.6074836e-06
5.219668e-06
5.8679898e-06
6.5301254e-06
7.1723887e-06
7.8069764e-06
1.0368628e-08
3.3160523e-08
6.004459e-08
1.2721075e-07
1.9816636e-07
3.0050902e-07
4.1838341e-07
5.6787329e-07
7.4824728e-07
9.6904242e-07
1.2283142e-06
1.5260571e-06
1.8520492e-06
2.18725e-06
2.5035924e-06
2.7744564e-06
2.9782032e-06
3.0965108e-06
3.1235195e-06
3.0743507e-06
2.9840631e-06
2.8973006e-06
2.8511009e-06
2.863322e-06
2.9365641e-06
3.071488e-06
3.276069e-06
3.5653964e-06
3.9542127e-06
4.4463095e-06
5.0293483e-06
5.6796193e-06
6.3647269e-06
7.0629328e-06
7.7405949e-06
8.4088519e-06
1.0776587e-08
3.2954067e-08
5.9162887e-08
1.2499103e-07
1.9443826e-07
2.9433517e-07
4.120167e-07
5.6191749e-07
7.4088126e-07
9.6189607e-07
1.225855e-06
1.5371338e-06
1.8890506e-06
2.2694942e-06
2.6530377e-06
3.0068721e-06
3.3017378e-06
3.5114964e-06
3.6151322e-06
3.6105865e-06
3.5226301e-06
3.3980083e-06
3.2879096e-06
3.2268942e-06
3.2261753e-06
3.2855464e-06
3.4093553e-06
3.6120143e-06
3.9128521e-06
4.3266574e-06
4.8535585e-06
5.4757247e-06
6.1652427e-06
6.8879943e-06
7.6239595e-06
8.3390184e-06
9.0418561e-06
1.1102018e-08
3.2817002e-08
5.8468684e-08
1.2315122e-07
1.9112816e-07
2.8836687e-07
4.0239401e-07
5.5333703e-07
7.3217584e-07
9.5196356e-07
1.2176619e-06
1.5368006e-06
1.9079152e-06
2.3240446e-06
2.7674527e-06
3.2050947e-06
3.5995969e-06
3.9169804e-06
4.125084e-06
4.2016797e-06
4.1525687e-06
4.016707e-06
3.8538499e-06
3.7181159e-06
3.6371458e-06
3.6150345e-06
3.652109e-06
3.7598848e-06
3.9602707e-06
4.2755952e-06
4.7185586e-06
5.283888e-06
5.9475036e-06
6.6775766e-06
7.4392682e-06
8.2149025e-06
8.9691204e-06
9.7058718e-06
1.1329391e-08
3.2734074e-08
5.7947513e-08
1.2168247e-07
1.8831501e-07
2.8298695e-07
3.9363251e-07
5.3990414e-07
7.189813e-07
9.3991668e-07
1.2050439e-06
1.527713e-06
1.9110887e-06
2.354567e-06
2.8465285e-06
3.3621296e-06
3.8600166e-06
4.2968299e-06
4.6316475e-06
4.825311e-06
4.8582346e-06
4.7501083e-06
4.5585131e-06
4.3545033e-06
4.1889641e-06
4.0790387e-06
4.0240493e-06
4.0298957e-06
4.118367e-06
4.3185748e-06
4.6534404e-06
5.1309331e-06
5.7386899e-06
6.4461714e-06
7.2183422e-06
8.0207771e-06
8.8375771e-06
9.6312395e-06
1.0398735e-05
1.1446825e-08
3.2691097e-08
5.7582313e-08
1.2056495e-07
1.8601635e-07
2.7841166e-07
3.8580217e-07
5.2738457e-07
6.9940592e-07
9.2151778e-07
1.1886214e-06
1.5118281e-06
1.9016726e-06
2.3640606e-06
2.8938873e-06
3.475363e-06
4.0730407e-06
4.6364562e-06
5.1142871e-06
5.4556641e-06
5.6159119e-06
5.5849211e-06
5.4037675e-06
5.1507314e-06
4.9021816e-06
4.698556e-06
4.5459335e-06
4.4445036e-06
4.4114619e-06
4.4805229e-06
4.6858829e-06
5.0475324e-06
5.5658447e-06
6.2201793e-06
6.973969e-06
7.7899982e-06
8.6348841e-06
9.4933029e-06
1.0323832e-05
1.1116584e-05
3.2677202e-08
1.1446829e-08
5.7356519e-08
1.1977222e-07
1.8423124e-07
2.746828e-07
3.7910965e-07
5.1607452e-07
6.8162968e-07
8.9451801e-07
1.1624647e-06
1.4901166e-06
1.8823531e-06
2.3557007e-06
2.9132829e-06
3.5470335e-06
4.2329119e-06
4.9225647e-06
5.5546664e-06
6.0667913e-06
6.3959196e-06
6.4974202e-06
6.3806218e-06
6.1148864e-06
5.7962226e-06
5.4964721e-06
5.2402789e-06
5.0268737e-06
4.8655332e-06
4.7895384e-06
4.8436932e-06
5.06314e-06
5.4606645e-06
6.0265417e-06
6.7315041e-06
7.5339869e-06
8.3954559e-06
9.2835114e-06
1.0181939e-05
1.1043685e-05
1.1855896e-05
5.7256496e-08
3.2676789e-08
1.132932e-08
1.1927808e-07
1.8294125e-07
2.7179801e-07
3.7361389e-07
5.0635212e-07
6.6566783e-07
8.6984644e-07
1.1249369e-06
1.4541542e-06
1.854247e-06
2.3330826e-06
2.9082378e-06
3.5817145e-06
4.3395528e-06
5.1454823e-06
5.9357056e-06
6.6351281e-06
7.1661984e-06
7.4549237e-06
7.4674427e-06
7.2442736e-06
6.8857808e-06
6.4961415e-06
6.1317952e-06
5.8015415e-06
5.5071222e-06
5.2757557e-06
5.1587832e-06
5.2080691e-06
5.4538419e-06
5.8974201e-06
6.5174583e-06
7.2767689e-06
8.1299373e-06
9.0374943e-06
9.9673615e-06
1.0901409e-05
1.1787438e-05
1.2615444e-05
1.190582e-07
5.7255657e-08
3.2689923e-08
1.1101966e-08
1.8212325e-07
2.6972451e-07
3.6932749e-07
4.9834297e-07
6.5192906e-07
8.4761911e-07
1.0908992e-06
1.4031567e-06
1.8051721e-06
2.2977638e-06
2.8831472e-06
3.5837712e-06
4.3975993e-06
5.3020632e-06
6.243199e-06
7.1390421e-06
7.8961988e-06
8.4191524e-06
8.6302653e-06
8.5219913e-06
8.1759797e-06
7.7184134e-06
7.2467702e-06
6.7950219e-06
6.3637442e-06
5.970065e-06
5.6657503e-06
5.5177136e-06
5.5776286e-06
5.8641707e-06
6.3639933e-06
7.044107e-06
7.8607491e-06
8.7655142e-06
9.7177366e-06
1.0685355e-05
1.1648636e-05
1.2553067e-05
1.3396515e-05
1.8175126e-07
1.190565e-07
5.7354098e-08
3.2732082e-08
1.0776482e-08
2.6841815e-07
3.6622453e-07
4.9208281e-07
6.4058347e-07
8.2843263e-07
1.0602938e-06
1.3568467e-06
1.7363202e-06
2.2320758e-06
2.840077e-06
3.5581784e-06
4.4124397e-06
5.3953898e-06
6.4696143e-06
7.5589702e-06
8.5581823e-06
9.351028e-06
9.8254185e-06
9.915495e-06
9.6573579e-06
9.1767905e-06
8.6110707e-06
8.0358243e-06
7.4643745e-06
6.9041843e-06
6.4005306e-06
6.0309964e-06
5.8702817e-06
5.9603949e-06
6.3026454e-06
6.8678263e-06
7.6126655e-06
8.4881813e-06
9.4432157e-06
1.0435826e-05
1.1434834e-05
1.2420824e-05
1.3340302e-05
1.4200812e-05
2.6782986e-07
1.8174833e-07
1.1927286e-07
5.757824e-08
3.2814283e-08
1.0368559e-08
3.6425957e-07
4.8753949e-07
6.3169318e-07
8.1255057e-07
1.0338442e-06
1.3151441e-06
1.6737286e-06
2.1402588e-06
2.7534301e-06
3.5076793e-06
4.3899668e-06
5.4316624e-06
6.615337e-06
7.8815691e-06
9.1262878e-06
1.0214328e-05
1.1004482e-05
1.1377776e-05
1.1302238e-05
1.0871318e-05
1.0246007e-05
9.5535171e-06
8.8397432e-06
8.1107868e-06
7.4001606e-06
6.7890837e-06
6.3744818e-06
6.2264441e-06
6.3678254e-06
6.7792999e-06
7.416914e-06
8.2291381e-06
9.1625025e-06
1.0163306e-05
1.1189365e-05
1.2212928e-05
1.3216757e-05
1.4149849e-05
1.5028462e-05
3.6337063e-07
2.6782493e-07
1.8211419e-07
1.1976364e-07
5.7941913e-08
3.2950596e-08
9.8954598e-09
4.8465711e-07
6.2522261e-07
8.0007089e-07
1.0119208e-06
1.2790189e-06
1.6172687e-06
2.0563745e-06
2.6320745e-06
3.3954238e-06
4.3337231e-06
5.4184247e-06
6.6864556e-06
8.103356e-06
9.5801135e-06
1.0975501e-05
1.2120106e-05
1.2851545e-05
1.3063654e-05
1.2782704e-05
1.2161906e-05
1.1375773e-05
1.0522261e-05
9.6237328e-06
8.702493e-06
7.8349451e-06
7.1362083e-06
6.7079211e-06
6.6012785e-06
6.813377e-06
7.3045441e-06
8.0187908e-06
8.8980017e-06
9.8846419e-06
1.0923609e-05
1.1975253e-05
1.3018041e-05
1.403681e-05
1.4982272e-05
1.587832e-05
4.8334951e-07
3.6336336e-07
2.6840372e-07
1.8292639e-07
1.2055291e-07
5.8461521e-08
3.31564e-08
9.3738512e-09
6.2110356e-07
7.9096477e-07
9.9465838e-07
1.2490258e-06
1.5682244e-06
1.9804318e-06
2.5204432e-06
3.2366633e-06
4.1909746e-06
5.3604297e-06
6.6922804e-06
8.2292375e-06
9.9101752e-06
1.1605412e-05
1.3128571e-05
1.4276289e-05
1.4877651e-05
1.4868364e-05
1.4350504e-05
1.3522515e-05
1.2544376e-05
1.1478419e-05
1.0346122e-05
9.2127607e-06
8.2041985e-06
7.4547349e-06
7.0506978e-06
7.0126774e-06
7.3105947e-06
7.887753e-06
8.6790516e-06
9.620854e-06
1.0652602e-05
1.1720694e-05
1.2791304e-05
1.385016e-05
1.4881701e-05
1.5837359e-05
1.6750171e-05
6.1922425e-07
4.8333972e-07
3.6423847e-07
2.6970026e-07
1.8421036e-07
1.2166715e-07
5.915433e-08
3.3445794e-08
8.8150183e-09
7.8515116e-07
9.8202403e-07
1.2253724e-06
1.5274216e-06
1.9142034e-06
2.4188782e-06
3.0892329e-06
3.9853705e-06
5.1827102e-06
6.6399468e-06
8.2697507e-06
1.0118563e-05
1.2086304e-05
1.3990235e-05
1.5594586e-05
1.6670099e-05
1.7061698e-05
1.6777955e-05
1.5997483e-05
1.4933931e-05
1.3711231e-05
1.2370765e-05
1.0967587e-05
9.6292557e-06
8.5204775e-06
7.76891e-06
7.4264016e-06
7.4782402e-06
7.8710978e-06
8.5357309e-06
9.3999627e-06
1.0395887e-05
1.1462652e-05
1.2551819e-05
1.3637142e-05
1.4709958e-05
1.5751723e-05
1.6715217e-05
1.7644749e-05
7.8248767e-07
6.1921091e-07
4.8462701e-07
3.6618889e-07
2.7176434e-07
1.8598983e-07
1.2313256e-07
6.003466e-08
3.3834132e-08
8.2303122e-09
9.7392693e-07
1.2080167e-06
1.4951879e-06
1.8589377e-06
2.3298896e-06
2.954213e-06
3.7921662e-06
4.9193668e-06
6.4239764e-06
8.2352969e-06
1.0216461e-05
1.2415288e-05
1.4676534e-05
1.6753948e-05
1.8366302e-05
1.9276801e-05
1.9380244e-05
1.8778744e-05
1.7705881e-05
1.6356263e-05
1.4817318e-05
1.3145582e-05
1.1463906e-05
9.9617677e-06
8.8130738e-06
8.1095485e-06
7.8579157e-06
8.0122787e-06
8.5028819e-06
9.2513511e-06
1.0179921e-05
1.1219143e-05
1.2311644e-05
1.341641e-05
1.4513798e-05
1.5598407e-05
1.6647518e-05
1.761592e-05
1.8563647e-05
9.7019455e-07
7.82469e-07
6.2106227e-07
4.8748967e-07
3.6927796e-07
2.7463942e-07
1.8828266e-07
1.2496929e-07
6.111271e-08
3.4317816e-08
7.6756025e-09
1.1968551e-06
1.4714915e-06
1.8151636e-06
2.2553332e-06
2.8352294e-06
3.6137722e-06
4.6683598e-06
6.0907675e-06
7.9801699e-06
1.0218768e-05
1.2602721e-05
1.5176713e-05
1.7712032e-05
1.9897319e-05
2.1419632e-05
2.2063905e-05
2.1809995e-05
2.0851307e-05
1.9437867e-05
1.7725604e-05
1.579421e-05
1.3762695e-05
1.1838251e-05
1.0244038e-05
9.1217807e-06
8.5065284e-06
8.362816e-06
8.6238453e-06
9.2092712e-06
1.0033251e-05
1.1014862e-05
1.2087189e-05
1.3198962e-05
1.4315902e-05
1.5423184e-05
1.6516956e-05
1.7568943e-05
1.8538566e-05
1.9514605e-05
1.1916762e-06
9.7016993e-07
7.8509612e-07
6.2515437e-07
4.9201239e-07
3.7354972e-07
2.7835898e-07
1.9109041e-07
1.2718593e-07
6.2374669e-08
3.4795978e-08
7.2494575e-09
1.4562102e-06
1.7829119e-06
2.1960806e-06
2.7350459e-06
3.455462e-06
4.4342485e-06
5.7678409e-06
7.5643342e-06
9.9281254e-06
1.266967e-05
1.5497756e-05
1.8446565e-05
2.1204176e-05
2.3400184e-05
2.4716109e-05
2.4996013e-05
2.4325183e-05
2.2959219e-05
2.1127868e-05
1.8960429e-05
1.6582477e-05
1.421347e-05
1.2126817e-05
1.0526582e-05
9.4858691e-06
8.9815786e-06
8.9508971e-06
9.3162936e-06
9.9891089e-06
1.0877447e-05
1.1901311e-05
1.2999562e-05
1.4126599e-05
1.5253107e-05
1.6367965e-05
1.7465989e-05
1.8513265e-05
1.9488796e-05
2.0515232e-05
1.4490807e-06
1.1916456e-06
9.7385473e-07
7.9087189e-07
6.3159638e-07
4.9825237e-07
3.7903137e-07
2.8292466e-07
1.9439502e-07
1.2971849e-07
6.3763658e-08
3.4804089e-08
6.6795783e-09
1.7620559e-06
2.1522947e-06
2.6550829e-06
3.3213457e-06
4.2247206e-06
5.4629674e-06
7.1535062e-06
9.417617e-06
1.2353981e-05
1.566687e-05
1.89575e-05
2.2248676e-05
2.5139708e-05
2.7221796e-05
2.8208639e-05
2.8036173e-05
2.6887667e-05
2.5037521e-05
2.268456e-05
1.998052e-05
1.7155746e-05
1.4532561e-05
1.2392056e-05
1.0861343e-05
9.9327855e-06
9.5447555e-06
9.6247185e-06
1.0088478e-05
1.0838785e-05
1.1780827e-05
1.2839309e-05
1.3959089e-05
1.5098414e-05
1.6231879e-05
1.7349588e-05
1.8441727e-05
1.9482301e-05
2.0488957e-05
2.156406e-05
1.7522827e-06
1.4490427e-06
1.1967616e-06
9.819018e-07
7.9994058e-07
6.4045874e-07
5.0624019e-07
3.8570895e-07
2.8829537e-07
1.9811806e-07
1.3232639e-07
6.4759418e-08
3.4453543e-08
5.8897836e-09
2.1238997e-06
2.5957756e-06
3.2137119e-06
4.0458465e-06
5.1872711e-06
6.7599686e-06
8.9018168e-06
1.173912e-05
1.5344667e-05
1.927767e-05
2.3018598e-05
2.6579828e-05
2.9478049e-05
3.1306151e-05
3.1846246e-05
3.1139428e-05
2.9433228e-05
2.6989173e-05
2.4007884e-05
2.0736282e-05
1.7540858e-05
1.4794077e-05
1.2702673e-05
1.1284233e-05
1.0472414e-05
1.0196405e-05
1.0382621e-05
1.0937539e-05
1.1756098e-05
1.2744428e-05
1.3832921e-05
1.4970983e-05
1.6119592e-05
1.7254918e-05
1.8363902e-05
1.9443106e-05
2.0501678e-05
2.1537941e-05
2.2648383e-05
2.1105324e-06
1.7522353e-06
1.4560932e-06
1.2078608e-06
9.9448686e-07
8.1238074e-07
6.5177436e-07
5.1594135e-07
3.9352473e-07
2.9425413e-07
2.0221863e-07
1.3368491e-07
6.5548792e-08
3.4263547e-08
4.9773054e-09
2.5571848e-06
3.1335247e-06
3.9013074e-06
4.9496457e-06
6.3995656e-06
8.3989711e-06
1.1101594e-05
1.4621163e-05
1.8980147e-05
2.3551424e-05
2.7689587e-05
3.1402956e-05
3.4156614e-05
3.5588413e-05
3.5572013e-05
3.4239619e-05
3.1862559e-05
2.869764e-05
2.5021485e-05
2.1238712e-05
1.7820638e-05
1.508785e-05
1.3107637e-05
1.1805123e-05
1.1100693e-05
1.0933181e-05
1.122285e-05
1.1863043e-05
1.2743874e-05
1.3774202e-05
1.488914e-05
1.6042116e-05
1.7194186e-05
1.8318096e-05
1.9407328e-05
2.050155e-05
2.1568235e-05
2.2623107e-05
2.3778087e-05
2.5389387e-06
2.110479e-06
1.7619164e-06
1.471297e-06
1.225151e-06
1.0116966e-06
8.2822292e-07
6.6548319e-07
5.2722871e-07
4.0227068e-07
3.0041871e-07
2.0499496e-07
1.3442149e-07
6.65608e-08
3.4201802e-08
4.0774337e-09
3.0811371e-06
3.7930108e-06
4.755981e-06
6.0852325e-06
7.9312451e-06
1.0466663e-05
1.3848438e-05
1.8153692e-05
2.3326378e-05
2.8507225e-05
3.2939622e-05
3.6651415e-05
3.9098108e-05
3.9996768e-05
3.9313022e-05
3.7236581e-05
3.4047583e-05
3.0059367e-05
2.5712192e-05
2.1572864e-05
1.8109372e-05
1.5482817e-05
1.3618532e-05
1.2412649e-05
1.1810319e-05
1.1754544e-05
1.2147932e-05
1.2870722e-05
1.3810799e-05
1.4879565e-05
1.6016978e-05
1.7178369e-05
1.8318212e-05
1.9415752e-05
2.0519463e-05
2.160783e-05
2.2671967e-05
2.375284e-05
2.4960217e-05
3.0562609e-06
2.5388794e-06
2.1237363e-06
1.7826754e-06
1.494911e-06
1.2487382e-06
1.033567e-06
8.4736661e-07
6.814125e-07
5.3972534e-07
4.1187788e-07
3.0397819e-07
2.0686687e-07
1.3553653e-07
6.7790176e-08
3.4199005e-08
3.3383804e-09
3.721916e-06
4.609819e-06
5.8262923e-06
7.5173172e-06
9.8646492e-06
1.3058437e-05
1.7239014e-05
2.241626e-05
2.8417341e-05
3.4120391e-05
3.8701422e-05
4.2236432e-05
4.4215181e-05
4.4446947e-05
4.296677e-05
3.9995744e-05
3.5860586e-05
3.1030583e-05
2.6157484e-05
2.1877817e-05
1.850501e-05
1.5997108e-05
1.4213837e-05
1.3091738e-05
1.2601426e-05
1.2667444e-05
1.3168111e-05
1.397324e-05
1.4969674e-05
1.6072309e-05
1.7224721e-05
1.8376444e-05
1.9483937e-05
2.0598082e-05
2.1684818e-05
2.2753058e-05
2.3815718e-05
2.4932712e-05
2.6199661e-05
3.6879966e-06
3.0561941e-06
2.5570013e-06
2.1520216e-06
1.8148306e-06
1.5270621e-06
1.2786607e-06
1.0599591e-06
8.6955001e-07
6.9915569e-07
5.5313344e-07
4.1822899e-07
3.0651741e-07
2.0871214e-07
1.368541e-07
6.9200561e-08
3.4174595e-08
2.9053547e-09
4.5132948e-06
5.6290865e-06
7.1717965e-06
9.3222808e-06
1.2291391e-05
1.6272949e-05
2.1362213e-05
2.7458686e-05
3.4242303e-05
4.0323919e-05
4.4877471e-05
4.8054906e-05
4.9409438e-05
4.8830862e-05
4.6395743e-05
4.2371257e-05
3.7224707e-05
3.1669948e-05
2.6516807e-05
2.2290265e-05
1.9041841e-05
1.659792e-05
1.4865258e-05
1.3841417e-05
1.3486936e-05
1.3688774e-05
1.4301714e-05
1.5187986e-05
1.623588e-05
1.7363799e-05
1.8510535e-05
1.9626777e-05
2.0753754e-05
2.1842006e-05
2.289475e-05
2.3937161e-05
2.5005679e-05
2.6170385e-05
2.7504561e-05
4.4669906e-06
3.6879252e-06
3.0809388e-06
2.59547e-06
2.195692e-06
1.8585012e-06
1.5677756e-06
1.3147132e-06
1.0905058e-06
8.9417403e-07
7.1869481e-07
5.6169052e-07
4.2249262e-07
3.094576e-07
2.1064185e-07
1.3824832e-07
7.0691222e-08
3.40552e-08
2.8917012e-09
5.4978883e-06
6.9057146e-06
8.8622696e-06
1.1585164e-05
1.5307188e-05
2.0203237e-05
2.6282114e-05
3.3288761e-05
4.0743315e-05
4.7012929e-05
5.1350228e-05
5.3992768e-05
5.4564198e-05
5.3009439e-05
4.9443624e-05
4.4255853e-05
3.817009e-05
3.2147624e-05
2.6973204e-05
2.2875951e-05
1.9679232e-05
1.7237512e-05
1.5567129e-05
1.4681978e-05
1.4493124e-05
1.4844807e-05
1.5572391e-05
1.6535092e-05
1.7624775e-05
1.875458e-05
1.986367e-05
2.1004722e-05
2.2096219e-05
2.3138071e-05
2.4146595e-05
2.5165754e-05
2.6250958e-05
2.7475566e-05
2.8884556e-05
5.4345559e-06
4.4669207e-06
3.721707e-06
3.1331891e-06
2.6546464e-06
2.2548266e-06
1.9136616e-06
1.6167289e-06
1.3563374e-06
1.1244795e-06
9.2112441e-07
7.3185526e-07
5.6762252e-07
4.2640498e-07
3.1232235e-07
2.12654e-07
1.394554e-07
7.213353e-08
3.3771152e-08
3.3431575e-09
6.7270991e-06
8.5032864e-06
1.0974754e-05
1.4394699e-05
1.9003365e-05
2.4921933e-05
3.2024053e-05
3.9864667e-05
4.7816719e-05
5.4056255e-05
5.7990017e-05
5.9922588e-05
5.953912e-05
5.6823581e-05
5.1980787e-05
4.5646384e-05
3.8864737e-05
3.2695457e-05
2.7644003e-05
2.3598064e-05
2.0345295e-05
1.7899773e-05
1.6347774e-05
1.5652311e-05
1.5657186e-05
1.6167756e-05
1.7006636e-05
1.8035067e-05
1.9140612e-05
2.0233121e-05
2.1372741e-05
2.2469851e-05
2.3500184e-05
2.4481499e-05
2.5445577e-05
2.6448772e-05
2.7563403e-05
2.8859762e-05
3.0350983e-05
6.6402549e-06
5.4344898e-06
4.5130801e-06
3.7926545e-06
3.2132371e-06
2.7344774e-06
2.3292566e-06
1.979776e-06
1.67309e-06
1.4025665e-06
1.1619414e-06
9.3947452e-07
7.4052634e-07
5.7325911e-07
4.2989274e-07
3.1483955e-07
2.1448849e-07
1.4015156e-07
7.3331384e-08
3.3242163e-08
4.1972202e-09
8.2597678e-06
1.0491014e-05
1.3588688e-05
1.7835465e-05
2.3454274e-05
3.0467203e-05
3.8564275e-05
4.7093426e-05
5.5323033e-05
6.1308917e-05
6.4658793e-05
6.5702505e-05
6.4179552e-05
6.01337e-05
5.397352e-05
4.6696226e-05
3.9584399e-05
3.3503685e-05
2.8519102e-05
2.4361566e-05
2.1006175e-05
1.8620217e-05
1.7262079e-05
1.6804041e-05
1.7022831e-05
1.7692717e-05
1.863175e-05
1.9697388e-05
2.0771659e-05
2.1901476e-05
2.2986965e-05
2.4008557e-05
2.4958125e-05
2.5877456e-05
2.6801974e-05
2.7799208e-05
2.8956502e-05
3.0334944e-05
3.1914507e-05
8.1403804e-06
6.6401918e-06
5.4976796e-06
4.6094595e-06
3.9008048e-06
3.3207218e-06
2.8345171e-06
2.4181144e-06
2.055602e-06
1.7355806e-06
1.4534768e-06
1.188033e-06
9.5147548e-07
7.4785682e-07
5.7810211e-07
4.3279584e-07
3.1647144e-07
2.1575947e-07
1.3992219e-07
7.3999865e-08
3.2419792e-08
5.2808366e-09
1.0158971e-05
1.2938927e-05
1.677883e-05
2.1977431e-05
2.8704549e-05
3.6831427e-05
4.5825562e-05
5.4838009e-05
6.3100694e-05
6.8623523e-05
7.1215146e-05
7.1188076e-05
6.8351443e-05
6.2887009e-05
5.5553326e-05
4.7713212e-05
4.0608948e-05
3.4623445e-05
2.9492684e-05
2.5108204e-05
2.1701419e-05
1.9472511e-05
1.8379712e-05
1.8195892e-05
1.8636909e-05
1.9456157e-05
2.0464034e-05
2.1510715e-05
2.263263e-05
2.3697265e-05
2.4690823e-05
2.5608687e-05
2.6475213e-05
2.7336743e-05
2.8229225e-05
2.9231641e-05
3.0443388e-05
3.1910825e-05
3.3582509e-05
9.9946665e-06
8.1403257e-06
6.7269118e-06
5.6287393e-06
4.7554662e-06
4.0451831e-06
3.4546835e-06
2.9533533e-06
2.5195394e-06
2.139361e-06
1.8043237e-06
1.4893578e-06
1.2043953e-06
9.6135871e-07
7.5351244e-07
5.8155883e-07
4.3455648e-07
3.1646811e-07
2.1595548e-07
1.3840419e-07
7.3853901e-08
3.1276538e-08
6.3247674e-09
1.2487222e-05
1.5911526e-05
2.0607009e-05
2.6865916e-05
3.4759058e-05
4.3955523e-05
5.3681391e-05
6.2930977e-05
7.098284e-05
7.5865245e-05
7.7531314e-05
7.6266379e-05
7.2003071e-05
6.5195374e-05
5.7044811e-05
4.9072355e-05
4.2091526e-05
3.5966571e-05
3.0479824e-05
2.5875659e-05
2.2524422e-05
2.0547397e-05
1.9778073e-05
1.9890622e-05
2.0548514e-05
2.1483322e-05
2.2492931e-05
2.3603418e-05
2.4649235e-05
2.5603277e-05
2.6465035e-05
2.727494e-05
2.8062679e-05
2.8873319e-05
2.9742019e-05
3.0759506e-05
3.2033846e-05
3.3592197e-05
3.5356803e-05
1.2261506e-05
9.9946314e-06
8.2596119e-06
6.9053914e-06
5.825789e-06
4.9489699e-06
4.2238929e-06
3.6128264e-06
3.0882132e-06
2.6310271e-06
2.2310504e-06
1.8532983e-06
1.5109913e-06
1.2169494e-06
9.6845455e-07
7.5696724e-07
5.8241925e-07
4.3439718e-07
3.1415617e-07
2.1450134e-07
1.3543927e-07
7.2624101e-08
2.9692908e-08
7.025402e-09
1.5300731e-05
1.9461521e-05
2.511535e-05
3.2514644e-05
4.1578287e-05
5.1731452e-05
6.1968131e-05
7.1194502e-05
7.8821615e-05
8.2938449e-05
8.3529465e-05
8.0912243e-05
7.5241617e-05
6.7387287e-05
5.8908537e-05
5.1064529e-05
4.4006434e-05
3.7427798e-05
3.1507175e-05
2.6773876e-05
2.3588044e-05
2.1944236e-05
2.1541231e-05
2.1955138e-05
2.2795097e-05
2.376444e-05
2.4862695e-05
2.5887357e-05
2.6803669e-05
2.7590072e-05
2.8312701e-05
2.9018499e-05
2.9735039e-05
3.0501836e-05
3.1353093e-05
3.2392199e-05
3.3732022e-05
3.5379684e-05
3.7231441e-05
1.4992545e-05
1.2261494e-05
1.0158855e-05
8.5030064e-06
7.1713297e-06
6.0845696e-06
5.1864181e-06
4.4332384e-06
3.7910471e-06
3.2354817e-06
2.7522309e-06
2.2966148e-06
1.8813086e-06
1.5267985e-06
1.2250786e-06
9.7161119e-07
7.5705556e-07
5.796269e-07
4.313915e-07
3.0924106e-07
2.1061556e-07
1.3097716e-07
7.0160153e-08
2.7524244e-08
7.1789471e-09
1.8644773e-05
2.362647e-05
3.0323765e-05
3.890455e-05
4.9081586e-05
6.0013574e-05
7.0505952e-05
7.9470713e-05
8.6526392e-05
8.9827324e-05
8.923395e-05
8.5255664e-05
7.8395947e-05
6.9985789e-05
6.1589965e-05
5.3780315e-05
4.6245726e-05
3.9008526e-05
3.2689691e-05
2.7933413e-05
2.5015185e-05
2.3775001e-05
2.3761988e-05
2.4444114e-05
2.5366484e-05
2.6463113e-05
2.7469488e-05
2.8345382e-05
2.9050352e-05
2.9657815e-05
3.0244046e-05
3.085413e-05
3.1506941e-05
3.2233929e-05
3.3070047e-05
3.4132402e-05
3.5539461e-05
3.7268759e-05
3.9194608e-05
1.8228888e-05
1.4992547e-05
1.2487161e-05
1.0490804e-05
8.8618584e-06
7.5166844e-06
6.3987179e-06
5.4619268e-06
4.6671628e-06
3.984067e-06
3.3940697e-06
2.8387368e-06
2.3318227e-06
1.900535e-06
1.5358065e-06
1.2274712e-06