/*--------------------------------*- C++ -*----------------------------------*\
| =========                 |                                                 |
| \\      /  F ield         | OpenFOAM: The Open Source CFD Toolbox           |
|  \\    /   O peration     | Version:  5.0                                   |
|   \\  /    A nd           | Web:      www.OpenFOAM.org                      |
|    \\/     M anipulation  |                                                 |
\*---------------------------------------------------------------------------*/
FoamFile
{
    version     2.0;
    format      ascii;
    class       volVectorField;
    location    "30";
    object      U;
}
// * * * * * * * * * * * * * * * * * * * * * * * * * * * * * * * * * * * * * //

dimensions      [0 1 -1 0 0 0 0];

internalField   nonuniform List<vector> 
9200
(
(1.0093824 -0.00044407628 -1.6290568e-23)
(1.0097588 -0.001283384 -5.9729659e-21)
(1.010594 -0.00046053865 0)
(1.0097204 -0.0020786235 3.0608176e-21)
(1.0109642 -0.0013266914 -4.4696419e-21)
(1.0111816 -0.00047345665 0)
(1.00944 -0.0027989502 3.0695927e-22)
(1.0109067 -0.0021493899 -2.7511857e-22)
(1.0115523 -0.0013642467 0)
(1.0120331 -0.000492275 0)
(1.0090181 -0.0034615462 -5.7170477e-21)
(1.0105986 -0.0028957376 -2.9906737e-21)
(1.0114856 -0.0022107733 -2.4926749e-21)
(1.0124025 -0.0014195763 -1.5573485e-22)
(1.0127582 -0.00051032296 1.4162841e-24)
(1.0084882 -0.004066843 -5.2571214e-21)
(1.0101505 -0.0035828176 4.8510968e-22)
(1.0111648 -0.0029804683 -7.8982996e-21)
(1.0123243 -0.0022993576 -2.874473e-21)
(1.0131277 -0.0014748124 1.2781164e-22)
(1.0135568 -0.00053094135 6.5794768e-21)
(1.0078552 -0.0046202825 -4.7022639e-21)
(1.0095934 -0.0042116576 -5.3602767e-21)
(1.0107038 -0.0036891815 4.7773635e-21)
(1.0119882 -0.003103038 2.5194723e-22)
(1.0130397 -0.0023875422 -3.1453448e-21)
(1.0139263 -0.0015394765 -2.9951333e-21)
(1.014316 -0.00055108127 -3.8747076e-22)
(1.007111 -0.0051264005 -1.8118797e-21)
(1.0089344 -0.0047867993 -3.4986187e-21)
(1.0101334 -0.004339186 -4.9928816e-21)
(1.0115123 -0.0038434636 3.1709134e-22)
(1.0126904 -0.0032253385 7.0830431e-21)
(1.0138302 -0.0024903272 3.0528535e-21)
(1.0146857 -0.0016043981 4.2140416e-21)
(1.0151103 -0.00057211018 -6.3511452e-21)
(1.0062419 -0.0055896912 5.5189998e-21)
(1.0081667 -0.0053131535 -4.3142122e-21)
(1.0094612 -0.0049340169 3.2574638e-22)
(1.0109259 -0.0045249957 -2.5941158e-21)
(1.0122011 -0.0039974725 7.1457377e-22)
(1.0134703 -0.0033686654 1.1096225e-20)
(1.0145823 -0.0025931321 -3.1450034e-21)
(1.0154808 -0.0016739577 7.0876433e-21)
(1.0158858 -0.00059215159 1.3422887e-20)
(1.0052291 -0.0060150123 -3.9849043e-21)
(1.0072785 -0.0057951032 2.4660636e-21)
(1.008681 -0.005478882 6.0628926e-23)
(1.0102375 -0.0051496773 -1.1530378e-21)
(1.0116002 -0.0047106418 7.9842293e-22)
(1.0129705 -0.0041789162 1.1879615e-21)
(1.0142126 -0.0035123348 -3.8449669e-21)
(1.0153725 -0.0027031999 -7.00015e-21)
(1.0162574 -0.0017421246 -3.6569045e-21)
(1.01668 -0.00061174027 -8.7365697e-22)
(1.0040496 -0.0064066172 1.8475586e-21)
(1.0062526 -0.0062382027 3.4510594e-22)
(1.0077825 -0.0059777459 -3.5122014e-21)
(1.0094417 -0.0057231909 3.2447292e-21)
(1.0108969 -0.00536534 -5.6830031e-21)
(1.012358 -0.0049307121 1.157645e-20)
(1.0137032 -0.0043609753 3.8614058e-22)
(1.0149966 -0.0036672408 -1.1751832e-20)
(1.0161456 -0.002810813 5.9057071e-21)
(1.0170534 -0.001810768 -1.1901341e-20)
(1.0174621 -0.00062963503 2.0120524e-21)
(1.0026765 -0.0067678937 -1.6073758e-22)
(1.0050663 -0.0066478667 -1.0975785e-22)
(1.0067499 -0.006436033 2.5466214e-21)
(1.0085296 -0.006249008 0)
(1.0100865 -0.0059677294 -1.7704163e-23)
(1.0116422 -0.0056225687 -1.0482593e-21)
(1.0130797 -0.005151882 2.3682646e-21)
(1.0144815 -0.0045585605 5.8073892e-21)
(1.0157656 -0.0038194372 -1.1269637e-21)
(1.0169407 -0.0029191397 7.2409561e-21)
(1.017838 -0.0018757129 4.9579628e-21)
(1.0182506 -0.0006458909 -9.9330481e-22)
(1.0010834 -0.0071003624 -9.6503066e-23)
(1.0036913 -0.0070295609 7.1809311e-22)
(1.0055622 -0.0068588874 0)
(1.0074869 -0.0067326323 0)
(1.0091614 -0.0065207465 1.9550282e-21)
(1.0108188 -0.0062611043 -3.5661568e-21)
(1.0123517 -0.0058815309 5.840754e-21)
(1.0138508 -0.0053936618 -6.0660784e-21)
(1.0152469 -0.0047534604 -4.3789042e-22)
(1.0165603 -0.0039738687 1.2359831e-23)
(1.0177265 -0.0030215277 -9.0485196e-21)
(1.0186298 -0.0019372346 1.0344504e-20)
(1.0190274 -0.00065969656 -1.80338e-20)
(0.99925129 -0.0074028444 7.8947337e-22)
(1.0020955 -0.0073877503 -1.2411482e-22)
(1.0041926 -0.0072516223 1.8768223e-21)
(1.0062945 -0.0071793161 -2.0909418e-21)
(1.0081092 -0.0070298561 2.2169712e-21)
(1.0098815 -0.0068484387 -8.9974669e-22)
(1.0115157 -0.0065570754 -1.4762979e-21)
(1.0131142 -0.0061666079 9.7661225e-23)
(1.0146111 -0.0056332874 -4.9690832e-21)
(1.016042 -0.0049526501 -4.350777e-21)
(1.0173488 -0.0041210941 -2.2758199e-21)
(1.0185222 -0.0031185275 -6.1538544e-21)
(1.0194107 -0.0019924884 -4.136841e-21)
(1.0197999 -0.00067086327 4.8472693e-21)
(0.99718019 -0.0076705032 1.6216093e-21)
(1.0002488 -0.0077250308 -2.9319511e-21)
(1.0026094 -0.0076187496 4.8547228e-22)
(1.0049265 -0.0075949238 1.1107797e-22)
(1.0069126 -0.007500141 -8.5690009e-23)
(1.0088194 -0.0073898794 1.0202142e-21)
(1.0105661 -0.0071798627 -1.3749584e-21)
(1.012268 -0.0068850059 1.8334753e-21)
(1.0138677 -0.0064504724 -6.2108062e-22)
(1.0154052 -0.0058801463 3.4967231e-22)
(1.0168344 -0.0051439948 1.3460454e-22)
(1.0181514 -0.0042621951 -2.7625283e-22)
(1.0193099 -0.0032056548 8.7416735e-21)
(1.0201886 -0.0020408572 -4.5140829e-21)
(1.0205576 -0.0006788576 3.7398652e-21)
(0.99490258 -0.0078946057 -2.3354617e-21)
(0.99813313 -0.0080405205 2.1656549e-21)
(1.0007802 -0.0079634461 -1.3111286e-21)
(1.0033509 -0.0079850231 2.0077839e-21)
(1.0055478 -0.0079374438 -2.1539274e-21)
(1.007617 -0.0078900505 4.5698708e-21)
(1.0094939 -0.0077550979 -5.1152832e-21)
(1.0113079 -0.0075491295 2.3084663e-22)
(1.0130131 -0.0072130951 1.4861292e-21)
(1.0146588 -0.0067451538 -1.7260949e-21)
(1.0162002 -0.0061193277 1.4406054e-20)
(1.0176453 -0.005329281 -5.5358145e-21)
(1.0189499 -0.0043908303 -2.8665158e-21)
(1.0200974 -0.0032819766 -9.0996759e-22)
(1.0209525 -0.00208037 1.7835116e-22)
(1.0213014 -0.00068340425 -3.9860032e-21)
(0.99249415 -0.0080634161 0)
(0.99575743 -0.0083283632 2.0089962e-21)
(0.99868065 -0.0082864048 -8.7378283e-22)
(1.0015324 -0.0083543552 0)
(1.003984 -0.0083475929 0)
(1.0062531 -0.008354892 0)
(1.0082856 -0.0082870203 2.0326554e-22)
(1.0102256 -0.0081636108 -3.1701811e-21)
(1.0120435 -0.0079203054 2.9844897e-21)
(1.0137987 -0.0075561518 -4.0143957e-21)
(1.0154542 -0.0070330584 5.8522566e-22)
(1.0170185 -0.0063535426 -2.9311129e-21)
(1.0184567 -0.0055004271 4.9681708e-22)
(1.0197526 -0.0045058424 3.094653e-21)
(1.020874 -0.0033444019 4.8716046e-22)
(1.021704 -0.0021100289 2.0592414e-21)
(1.0220251 -0.00068415605 0)
(0.99007517 -0.0081641221 -2.3826943e-21)
(0.99317294 -0.0085776015 -3.3762096e-21)
(0.99630791 -0.0085840538 5.2680671e-21)
(0.99943918 -0.008705834 2.1163866e-21)
(1.0021846 -0.0087359224 2.6886393e-21)
(1.0046988 -0.0087904425 0)
(1.0069218 -0.008781142 3.152303e-21)
(1.0090096 -0.0087320592 -8.5854488e-22)
(1.0109517 -0.0085763495 -7.5306389e-21)
(1.0128215 -0.0083109372 3.7483625e-21)
(1.0145919 -0.0078940838 2.2817131e-21)
(1.0162774 -0.0073179972 6.7897433e-22)
(1.017842 -0.0065729776 -7.0272746e-21)
(1.0192773 -0.005656153 9.7461548e-21)
(1.020549 -0.0046028472 1.444403e-21)
(1.0216413 -0.0033913597 1.4571409e-20)
(1.0224364 -0.002128458 5.1668933e-21)
(1.0227267 -0.00068086519 4.5816519e-21)
(0.98779948 -0.0081853564 3.6866685e-22)
(0.99048101 -0.0087726924 -1.5421102e-21)
(0.99369801 -0.008847731 -1.0321558e-21)
(0.99705526 -0.0090385003 2.8778079e-21)
(1.0001134 -0.0091062241 -3.3216708e-22)
(1.0029177 -0.0092028155 1.8320329e-21)
(1.0053761 -0.0092433726 -1.5997165e-21)
(1.0076433 -0.0092596184 -6.5839174e-21)
(1.009728 -0.0091840805 -2.5355361e-21)
(1.011721 -0.0090131072 3.2031594e-21)
(1.0136098 -0.0086988137 -8.4862786e-22)
(1.0154167 -0.0082318809 5.8110111e-21)
(1.0171108 -0.0075885613 -3.837778e-21)
(1.0186802 -0.0067763137 4.1698761e-23)
(1.0200968 -0.005790867 -1.827694e-22)
(1.0213407 -0.0046796644 -2.3414356e-21)
(1.0223926 -0.0034206742 4.7340762e-21)
(1.023148 -0.0021346656 -2.5872855e-22)
(1.0234021 -0.0006733447 4.0644029e-21)
(0.98583228 -0.0081189761 2.9254036e-21)
(0.98782879 -0.0088955832 1.8219982e-21)
(0.99093666 -0.0090636588 -1.1316928e-20)
(0.99439669 -0.0093443315 -1.10997e-21)
(0.9977449 -0.0094593163 1.4308889e-21)
(1.0008696 -0.009596879 7.4647659e-22)
(1.0036136 -0.0096800322 5.90145e-22)
(1.0061025 -0.0097518258 3.2912378e-21)
(1.0083579 -0.0097480194 -1.0343164e-21)
(1.0104887 -0.0096645655 -8.0765296e-21)
(1.0125023 -0.0094501373 6.4891367e-21)
(1.0144329 -0.0090900452 -3.6231019e-22)
(1.0162566 -0.0085567528 -2.1016967e-21)
(1.0179644 -0.0078434736 1.5030506e-22)
(1.0195233 -0.0069567795 3.2660741e-22)
(1.0209171 -0.0059018155 -8.1009535e-21)
(1.0221212 -0.0047331648 2.4384523e-21)
(1.0231262 -0.0034307562 -7.340898e-21)
(1.0238347 -0.0021277565 -1.7437699e-21)
(1.024048 -0.00066148117 -3.9102181e-21)
(0.98431805 -0.007961295 1.4071306e-22)
(0.98539307 -0.0089313625 2.4862912e-21)
(0.98815964 -0.0092110217 2.9041403e-22)
(0.99152921 -0.0096096585 2.6837369e-21)
(0.99507979 -0.0097902544 2.5282742e-22)
(0.99851968 -0.0099749862 -1.9699732e-21)
(1.0015931 -0.010096971 4.8209842e-21)
(1.0043547 -0.010215052 8.9347048e-21)
(1.0068201 -0.010273233 -3.4310794e-21)
(1.0091123 -0.010269081 0)
(1.0112622 -0.010148893 -4.1160944e-21)
(1.0133203 -0.0098945406 2.6995748e-21)
(1.0152752 -0.0094707848 6.3829551e-21)
(1.0171218 -0.0088675103 -5.457678e-21)
(1.0188291 -0.0080749248 2.4726666e-21)
(1.0203732 -0.007111041 -6.3253524e-21)
(1.0217318 -0.0059849333 1.6067451e-22)
(1.0228886 -0.0047610449 2.8488981e-21)
(1.0238377 -0.003420096 -4.3879082e-21)
(1.024493 -0.0021071487 -3.0082019e-22)
(1.0246623 -0.00064516787 -3.3487523e-21)
(0.98334992 -0.0077189512 -4.3120793e-21)
(0.98334895 -0.0088662305 1.8963816e-21)
(0.98554686 -0.0092731743 5.0062262e-21)
(0.9885735 -0.0098204044 -5.4369418e-21)
(0.99216281 -0.010085972 -3.68562e-21)
(0.99585459 -0.010334877 8.3539531e-22)
(0.99927357 -0.010498004 0)
(1.0023588 -0.010655816 2.399083e-21)
(1.0050848 -0.010765827 -1.2860294e-21)
(1.0075734 -0.010831001 -8.1220392e-21)
(1.0098788 -0.010797931 -8.6533555e-22)
(1.0120728 -0.010644985 1.7401602e-21)
(1.014161 -0.010331767 -4.7328486e-22)
(1.0161474 -0.0098399694 -1.9926914e-21)
(1.0180043 -0.0091554795 3.7492762e-21)
(1.019707 -0.0082790282 -3.5926105e-21)
(1.0212241 -0.0072340712 7.7991428e-22)
(1.0225389 -0.0060371771 -4.9223462e-21)
(1.0236385 -0.0047610384 -5.6444369e-22)
(1.0245244 -0.0033875702 -1.0974006e-22)
(1.0251203 -0.0020723665 -2.0108472e-21)
(1.0252422 -0.00062433164 0)
(0.98294837 -0.0074079375 -1.4530439e-21)
(0.98183599 -0.0086985245 -8.7044871e-22)
(0.98328052 -0.0092432955 2.0652036e-23)
(0.98568893 -0.0099536011 -5.1527213e-21)
(0.98909604 -0.010328622 -2.4610595e-21)
(0.99289958 -0.010667087 2.003001e-21)
(0.99662793 -0.01088278 -1.8766842e-21)
(1.0000698 -0.01107948 5.8611201e-21)
(1.0031124 -0.011232446 2.1311046e-21)
(1.0058454 -0.011355941 4.720097e-22)
(1.0083365 -0.011400662 -1.1076854e-22)
(1.0106813 -0.011343168 -3.6404117e-21)
(1.0129082 -0.011137962 5.4464832e-22)
(1.0150352 -0.010760928 7.2374394e-22)
(1.0170427 -0.010188271 -4.4729108e-21)
(1.0189066 -0.0094162601 -5.2006891e-21)
(1.0205929 -0.0084498581 1.1043618e-22)
(1.022074 -0.0073220141 8.4534037e-21)
(1.0233341 -0.0060554782 4.4817465e-22)
(1.0243677 -0.0047313081 -2.5628573e-21)
(1.0251822 -0.003332397 0)
(1.0257143 -0.0020229451 4.0214431e-21)
(1.0257854 -0.00059897486 6.7600232e-23)
(0.98306465 -0.0070453922 7.7705202e-21)
(0.98092045 -0.0084409409 -2.1107411e-21)
(0.98150578 -0.0091171478 4.5853618e-21)
(0.9830679 -0.0099872653 2.2902328e-21)
(0.98603298 -0.010500661 -5.8660453e-21)
(0.98973332 -0.010954097 0)
(0.99366195 -0.011244359 -3.7656356e-22)
(0.99745004 -0.011487924 2.8148183e-21)
(1.0008559 -0.011679384 3.9151634e-21)
(1.0038912 -0.011850529 4.0877749e-21)
(1.0066119 -0.011961953 -3.8127241e-21)
(1.0091326 -0.01199144 -3.5064959e-21)
(1.0115091 -0.011889948 4.4988293e-21)
(1.0137796 -0.011627181 -4.3220509e-21)
(1.0159376 -0.011172265 7.1865215e-21)
(1.0179641 -0.010510858 9.0541984e-21)
(1.0198242 -0.0096431196 -3.7569951e-21)
(1.0214851 -0.0085827327 3.2170869e-21)
(1.0229186 -0.0073709008 -1.0144418e-20)
(1.0241138 -0.0060372635 3.0787751e-21)
(1.0250726 -0.0046703871 5.2581604e-21)
(1.0258088 -0.0032539728 -4.1355822e-21)
(1.0262725 -0.0019586219 2.1927411e-21)
(1.02629 -0.00056915768 5.6795914e-23)
(0.98359807 -0.0066518192 4.9231463e-22)
(0.98058799 -0.0081118594 -1.2016466e-21)
(0.98031254 -0.0088980101 -5.9975101e-22)
(0.98089386 -0.0099120379 -1.026044e-20)
(0.98315854 -0.010584666 3.6491636e-21)
(0.98649181 -0.011176215 -6.8655404e-21)
(0.99043226 -0.011567667 -3.0982091e-22)
(0.99448728 -0.011877105 -6.9427038e-21)
(0.99826986 -0.012110497 1.9507805e-21)
(1.001664 -0.012321784 2.4235453e-21)
(1.0046713 -0.012488005 -2.5700528e-21)
(1.0074067 -0.012593695 5.5352036e-21)
(1.0099526 -0.012588812 -2.6018516e-21)
(1.0123738 -0.012437964 -3.6491556e-22)
(1.0146832 -0.01210267 2.9821332e-21)
(1.0168717 -0.011560621 1.0867399e-21)
(1.0189082 -0.010800321 -7.236719e-22)
(1.0207559 -0.0098305661 4.9687421e-21)
(1.0223796 -0.0086727533 0)
(1.0237543 -0.0073772952 8.054668e-22)
(1.0248744 -0.0059803303 2.3523953e-22)
(1.0257499 -0.0045772141 -4.2742477e-22)
(1.0264016 -0.0031518452 -1.0137065e-23)
(1.0267925 -0.0018793994 -2.8403643e-21)
(1.0267545 -0.0005349799 -9.1593977e-22)
(0.98441154 -0.0062455348 -3.555335e-21)
(0.98075843 -0.0077297986 3.463876e-22)
(0.97971505 -0.0086004272 1.1367249e-21)
(0.97929059 -0.0097329225 1.0558695e-21)
(0.98066159 -0.010566216 1.0333093e-20)
(0.98335312 -0.011315959 4.9879776e-22)
(0.98705527 -0.011831329 -2.8244816e-22)
(0.99121523 -0.012234885 4.6733772e-22)
(0.99532649 -0.012524495 5.3675608e-21)
(0.99911312 -0.012775218 -1.1497382e-21)
(1.0024696 -0.012986055 3.3204292e-21)
(1.0054736 -0.013155399 -6.0543453e-22)
(1.0082217 -0.013237263 -2.7982829e-21)
(1.0108085 -0.013192965 8.1249891e-22)
(1.0132731 -0.01297725 -1.3411771e-21)
(1.0156232 -0.012559089 -3.8493156e-21)
(1.0178354 -0.011918066 -2.5913151e-21)
(1.0198741 -0.011050428 -6.8628464e-21)
(1.021698 -0.0099727784 -1.0078722e-20)
(1.0232729 -0.008715543 -3.2565657e-23)
(1.0245773 -0.007338139 9.6302636e-21)
(1.025612 -0.0058829256 2.0037358e-21)
(1.0263966 -0.0044510748 -3.835182e-21)
(1.0269581 -0.0030258173 2.910051e-21)
(1.0272728 -0.0017854444 -1.6194604e-21)
(1.0271774 -0.00049658356 7.7038343e-23)
(0.98535413 -0.0058416835 9.375428e-23)
(0.98130339 -0.0073170973 1.4362e-22)
(0.97965144 -0.0082417695 -3.4712732e-21)
(0.97830101 -0.0094624841 5.0173829e-21)
(0.97869524 -0.010436994 -7.7966839e-21)
(0.98051508 -0.011348533 5.5043077e-21)
(0.98369986 -0.012015263 3.4675128e-21)
(0.98772746 -0.01254127 5.2503574e-21)
(0.99203717 -0.012912371 -7.6210323e-21)
(0.99619776 -0.013212207 -3.280132e-21)
(0.99995341 -0.013462818 3.3520676e-22)
(1.0032912 -0.013683603 -8.3091313e-21)
(1.0062905 -0.013839735 7.6202453e-21)
(1.0090695 -0.013893528 -2.7628529e-21)
(1.0116994 -0.013794148 1.12676e-21)
(1.0142121 -0.013502445 9.3169038e-22)
(1.0165987 -0.012988157 -4.1379609e-21)
(1.0188285 -0.012237736 4.6991542e-21)
(1.020859 -0.011254498 -4.3806871e-21)
(1.0226475 -0.010064396 6.6162793e-22)
(1.0241608 -0.0087070773 0)
(1.0253834 -0.0072508714 3.7416517e-21)
(1.0263233 -0.0057437616 4.4323092e-22)
(1.0270094 -0.0042916192 0)
(1.0274763 -0.002875991 -3.1529064e-21)
(1.0277118 -0.0016770646 -2.2178553e-22)
(1.0275577 -0.00045415128 1.4601884e-22)
(0.98627884 -0.0054509816 4.9826541e-22)
(0.98206449 -0.0068917572 -3.5672707e-23)
(0.98000512 -0.0078430151 -2.2063934e-21)
(0.97788763 -0.0091191193 3.8734956e-22)
(0.97734104 -0.010203336 -1.4164989e-21)
(0.97816041 -0.011262675 -5.5860919e-21)
(0.98056306 -0.012101985 -3.216027e-22)
(0.98417651 -0.012773475 -4.6784642e-21)
(0.9884709 -0.01325623 5.6979875e-22)
(0.99290849 -0.013627012 5.5319387e-21)
(0.99707242 -0.013921983 -5.1711314e-21)
(1.0008059 -0.014185742 -1.7694453e-21)
(1.0041206 -0.014402666 -3.5691031e-21)
(1.0071347 -0.0145428 1.2416965e-21)
(1.0099504 -0.01455318 -3.0969002e-21)
(1.0126316 -0.014387166 1.5236826e-21)
(1.0151915 -0.014005095 -4.1171016e-21)
(1.0176107 -0.01338252 1.3350242e-20)
(1.0198492 -0.012512195 4.254706e-21)
(1.0218603 -0.01140621 8.2365262e-23)
(1.0236003 -0.010100352 5.2629616e-21)
(1.0250395 -0.0086438359 -4.294462e-22)
(1.0261688 -0.0071134565 -3.174898e-22)
(1.0270048 -0.0055620507 0)
(1.0275861 -0.004098744 0)
(1.0279542 -0.0027027709 2.4206951e-22)
(1.0281081 -0.0015547235 -7.0138757e-22)
(1.0278948 -0.00040790182 3.6433468e-22)
(0.98705335 -0.0050793698 0)
(0.98287677 -0.0064670908 -3.4440704e-22)
(0.98061906 -0.0074232531 1.3479372e-21)
(0.97794642 -0.0087212257 1.4402948e-21)
(0.97659119 -0.0098830026 4.5760574e-21)
(0.97639868 -0.011067065 4.73317e-22)
(0.97783787 -0.012072572 -3.6372988e-21)
(0.98075475 -0.012912018 -7.1497504e-21)
(0.9847605 -0.013532286 8.1033778e-21)
(0.98928893 -0.014004754 -1.8734034e-21)
(0.99379879 -0.014361074 4.5946158e-22)
(0.99796049 -0.014667407 1.6511284e-21)
(1.0016601 -0.014933673 -1.033606e-20)
(1.0049701 -0.01514621 2.1789036e-21)
(1.0080076 -0.015255984 1.6663587e-21)
(1.010872 -0.0152114 -2.9965249e-21)
(1.0136073 -0.014963571 1.628993e-21)
(1.0162132 -0.014477516 -3.6150654e-21)
(1.0186584 -0.01373413 9.6870137e-21)
(1.0208956 -0.012734237 -3.0541429e-21)
(1.0228746 -0.011499436 4.2103548e-21)
(1.0245525 -0.010076039 2.7768455e-21)
(1.0259045 -0.0085228457 -1.5693857e-22)
(1.0269297 -0.0069244204 -8.6362867e-21)
(1.0276533 -0.005337476 -2.2747354e-21)
(1.0281243 -0.0038727346 4.6990354e-22)
(1.0283902 -0.0025068085 1.5205155e-21)
(1.0284608 -0.0014190306 3.9258094e-23)
(1.0281882 -0.00035808663 -1.6778507e-21)
(0.98756542 -0.0047281055 3.0553219e-23)
(0.98358403 -0.0060516402 0)
(0.98132067 -0.0069971439 0)
(0.97832701 -0.008290108 0)
(0.97635744 -0.0094959552 -9.7145157e-22)
(0.97525156 -0.010773335 4.1421499e-21)
(0.97566981 -0.011922725 -3.3107128e-22)
(0.97766604 -0.012934439 -4.0580824e-22)
(0.98108944 -0.013717973 1.0642856e-20)
(0.98544813 -0.014322526 -1.1049041e-20)
(0.99015101 -0.014768671 5.2419499e-21)
(0.99471184 -0.015129152 -1.9039721e-21)
(0.99884852 -0.015439698 3.212348e-21)
(1.0025271 -0.015711012 -2.8904492e-21)
(1.0058415 -0.015906653 6.4910231e-21)
(1.0089178 -0.015975101 2.0864516e-21)
(1.0118378 -0.015859944 -3.2143608e-21)
(1.0146297 -0.015515525 -4.3437757e-21)
(1.0172779 -0.014911211 1.9627325e-21)
(1.0197408 -0.014035024 -1.864168e-21)
(1.0219649 -0.012896727 -4.6856571e-21)
(1.023898 -0.011528426 2.2466197e-22)
(1.0254997 -0.0099873776 6.5135155e-21)
(1.0267516 -0.0083417429 -4.0860362e-21)
(1.027662 -0.0066828678 -2.361865e-22)
(1.0282657 -0.0050701557 -1.1910342e-21)
(1.0286217 -0.0036142476 2.0273413e-21)
(1.0287828 -0.0022889593 9.2467698e-22)
(1.0287693 -0.0012707287 -1.5330922e-21)
(1.0284378 -0.00030498626 -1.6039374e-21)
(0.98780958 -0.0043736749 4.0984925e-22)
(0.98404823 -0.0056451637 -5.9883612e-22)
(0.98193874 -0.0065762961 0)
(0.97885174 -0.0078420965 0)
(0.97649608 -0.0090626342 0)
(0.97465593 -0.010400915 0)
(0.97411962 -0.011660122 0)
(0.97508404 -0.012827768 8.3368946e-23)
(0.97766365 -0.013793667 -4.3998092e-21)
(0.98155482 -0.014555491 1.1719586e-20)
(0.98621194 -0.0151239 -2.7940221e-22)
(0.99105468 -0.015563218 5.6529763e-21)
(0.99563045 -0.015923927 -1.0449427e-20)
(0.99974414 -0.016244872 5.0368505e-21)
(1.0034078 -0.016511569 -4.9806176e-22)
(1.0067441 -0.01668075 3.7647993e-21)
(1.0098704 -0.016692343 -5.4538075e-21)
(1.0128527 -0.016491005 1.5445616e-21)
(1.0157009 -0.016034251 4.2316383e-21)
(1.0183859 -0.015297621 2.2208142e-21)
(1.0208564 -0.014277174 5.8439289e-22)
(1.0230541 -0.01299278 3.0051787e-21)
(1.0249264 -0.01148788 5.7740503e-23)
(1.0264374 -0.0098308997 -2.4808188e-21)
(1.0275764 -0.0080988169 1.351058e-21)
(1.0283622 -0.0063884958 6.5080148e-21)
(1.0288392 -0.0047606749 1.4988126e-21)
(1.0290765 -0.0033242727 -7.89122e-22)
(1.0291312 -0.0020502715 1.0200587e-22)
(1.0290333 -0.0011106808 2.1541713e-21)
(1.0286443 -0.00024890666 1.2575069e-21)
(0.98789212 -0.0039774181 3.9815746e-22)
(0.98420627 -0.0052339963 -1.3422426e-22)
(0.98231169 -0.0061653082 -5.2246138e-22)
(0.97933978 -0.0073921559 -1.7074662e-23)
(0.97682489 -0.0086020806 0)
(0.97448106 -0.0099688737 0)
(0.97315317 -0.011303284 -8.4784812e-23)
(0.97309838 -0.012602996 4.7724964e-21)
(0.97467434 -0.013739817 -8.5956435e-21)
(0.97781215 -0.014682174 1.0896332e-20)
(0.98213067 -0.01540061 6.5092774e-22)
(0.98704435 -0.015951788 -7.5164635e-21)
(0.99197936 -0.016382218 1.1428466e-21)
(0.99655733 -0.016753064 -8.0101908e-22)
(1.0006461 -0.017078472 -5.0961245e-21)
(1.0043114 -0.017333416 4.3710186e-22)
(1.0076844 -0.01746143 7.2399678e-21)
(1.010872 -0.017400145 -4.472771e-22)
(1.0139205 -0.017095697 -4.289443e-21)
(1.0168228 -0.016510768 1.303987e-20)
(1.0195367 -0.01562799 -1.4142093e-21)
(1.0220028 -0.014452654 -3.6669051e-21)
(1.0241594 -0.01301584 8.7537042e-21)
(1.0259551 -0.011373056 3.7577478e-21)
(1.0273606 -0.0096038208 -1.1579155e-21)
(1.0283745 -0.0077930504 3.8663287e-21)
(1.0290267 -0.0060416062 1.8379235e-21)
(1.0293713 -0.0044101059 3.3364693e-22)
(1.029487 -0.0030043117 -5.1178285e-22)
(1.0294346 -0.0017919586 -4.1873089e-22)
(1.0292529 -0.00093985593 1.8421696e-21)
(1.0288084 -0.00019017462 1.624028e-22)
(0.98784783 -0.0035651699 -1.740239e-22)
(0.98418577 -0.0047787034 2.8698745e-22)
(0.98240755 -0.0057356364 8.4887541e-22)
(0.97962319 -0.0069397758 7.8813106e-22)
(0.97714533 -0.0081321836 0)
(0.97455256 -0.0094977137 0)
(0.97265197 -0.01087464 0)
(0.97170694 -0.012271363 -6.4137179e-22)
(0.97224877 -0.013556466 6.9787448e-21)
(0.9744248 -0.014679832 8.0270342e-21)
(0.97810327 -0.015574826 6.4776039e-22)
(0.98280603 -0.016269205 -1.3842268e-21)
(0.98792298 -0.016800392 1.5201873e-20)
(0.99292186 -0.017234761 -9.3348537e-21)
(0.99748761 -0.017614047 1.5848532e-21)
(1.0015624 -0.017940269 0)
(1.0052451 -0.018170607 2.2575128e-21)
(1.0086704 -0.018241634 -1.5644912e-21)
(1.011928 -0.01808969 2.8354142e-21)
(1.0150447 -0.017664782 6.2863974e-22)
(1.0179964 -0.016935774 -5.6579038e-21)
(1.0207294 -0.01589351 4.7368193e-22)
(1.0231773 -0.014553709 -5.4548555e-21)
(1.0252765 -0.012959794 -7.0087319e-21)
(1.0269793 -0.011179868 2.5791614e-21)
(1.0282644 -0.0093041122 5.7798774e-22)
(1.0291414 -0.0074241499 -4.2118196e-22)
(1.0296519 -0.0056431097 3.9354083e-23)
(1.0298595 -0.0040199862 -8.3065596e-22)
(1.0298517 -0.0026563044 -6.9530323e-22)
(1.0296929 -0.0015154228 5.1725846e-22)
(1.029429 -0.00075931584 -6.4851719e-21)
(1.0289315 -0.00012913131 2.9541399e-21)
(0.98770648 -0.0031374323 -5.5899429e-23)
(0.98402069 -0.0043028507 6.3285287e-23)
(0.98231371 -0.0052522025 1.0089264e-21)
(0.97958299 -0.0064679079 1.298874e-21)
(0.97726083 -0.0076630471 7.9363438e-23)
(0.97467236 -0.0090084204 1.2251757e-25)
(0.97244096 -0.010394282 4.1625655e-21)
(0.97081656 -0.011854758 -3.1205668e-21)
(0.97041843 -0.013254229 -3.284986e-22)
(0.97155106 -0.01453909 -1.5608025e-20)
(0.97433937 -0.015624932 7.44792e-21)
(0.97852288 -0.016488973 1.0868264e-20)
(0.98355941 -0.017154613 -4.5235934e-22)
(0.98883899 -0.017679667 -5.8338041e-21)
(0.99387269 -0.018120278 -6.3549138e-21)
(0.9984261 -0.018508659 -1.4718805e-21)
(1.0024998 -0.018825909 1.0319476e-21)
(1.0062182 -0.01901695 5.1178015e-21)
(1.0097093 -0.019012839 -7.4507447e-22)
(1.0130437 -0.01875165 -7.4550773e-22)
(1.0162278 -0.018188597 1.5230676e-21)
(1.0192222 -0.017299789 -9.0891698e-21)
(1.0219623 -0.016085378 -1.3758896e-22)
(1.0243762 -0.01457286 2.9526786e-21)
(1.0264006 -0.012819088 -9.1382671e-21)
(1.0279934 -0.010904993 -3.1450934e-21)
(1.0291435 -0.0089305663 -2.7752133e-21)
(1.0298727 -0.0069925689 -1.072662e-21)
(1.0302347 -0.0051945116 -1.3059336e-21)
(1.030302 -0.0035923073 -1.0189296e-22)
(1.0301701 -0.0022821898 2.2015599e-22)
(1.0299064 -0.0012223511 -9.5121457e-23)
(1.0295625 -0.00057018443 3.0429106e-21)
(1.0290151 -6.6121393e-05 -6.1643501e-21)
(0.98749998 -0.0026927078 2.9521977e-22)
(0.98374273 -0.0038034798 -8.6849833e-23)
(0.98204891 -0.0047409774 -1.0283517e-21)
(0.97933197 -0.0059356497 -6.4976964e-23)
(0.97710969 -0.0071539461 -9.3341492e-23)
(0.9746411 -0.008505443 -7.8505746e-22)
(0.97231196 -0.0098868219 -3.7513152e-22)
(0.97026882 -0.011371929 0)
(0.96912013 -0.012850309 -3.5896809e-21)
(0.96925474 -0.01427073 -1.599338e-20)
(0.97102092 -0.015532259 3.2258397e-23)
(0.97440448 -0.016588335 -3.8433465e-21)
(0.97905342 -0.017416959 0)
(0.98437796 -0.018066896 -2.9214468e-22)
(0.98977835 -0.01859065 1.149251e-20)
(0.99483182 -0.019042707 2.0368472e-21)
(0.99937742 -0.019434594 -8.9049939e-21)
(1.0034677 -0.019730529 0)
(1.0072395 -0.019864519 6.9697774e-22)
(1.0108084 -0.019765796 1.6821669e-21)
(1.0142237 -0.019376157 -7.58805e-21)
(1.0174724 -0.0186572 1.4853904e-21)
(1.0205003 -0.017593183 0)
(1.0232332 -0.016194869 -7.861739e-21)
(1.0255955 -0.014503021 3.3539934e-21)
(1.0275262 -0.012588867 -2.2559314e-22)
(1.0289915 -0.010545981 -3.768665e-21)
(1.0299926 -0.008482855 3.0491158e-21)
(1.030564 -0.0064995143 1.5163463e-22)
(1.0307719 -0.0046978902 -2.365243e-21)
(1.030697 -0.0031294597 7.3804262e-22)
(1.0304421 -0.0018839744 -3.5364993e-22)
(1.0300756 -0.00091527316 0)
(1.0296549 -0.00037362921 -1.2384492e-22)
(1.0290609 -1.4840747e-06 -2.0295611e-21)
(0.987261 -0.0022310572 2.3135961e-23)
(0.98339223 -0.0032779387 5.0875568e-23)
(0.98165735 -0.0041989978 -1.0495546e-21)
(0.97890787 -0.0053688855 3.8299309e-23)
(0.9767432 -0.0065775561 -1.1041972e-22)
(0.97430172 -0.0079601378 1.8509397e-23)
(0.97204936 -0.0093632499 -1.5177414e-21)
(0.96985982 -0.010848896 8.3724613e-23)
(0.9682023 -0.012367846 0)
(0.96750255 -0.01388834 4.5679433e-21)
(0.96824833 -0.015302109 -5.5338179e-21)
(0.97064959 -0.016544806 9.1125636e-22)
(0.97461003 -0.01756267 -4.191599e-21)
(0.97968037 -0.01836852 6.3091242e-21)
(0.98524441 -0.019007881 3.3696252e-21)
(0.99073535 -0.019539286 9.2899094e-21)
(0.9958001 -0.020002121 -1.8084268e-20)
(1.0003501 -0.020388846 -5.3972004e-21)
(1.0044761 -0.020647241 7.404458e-21)
(1.0083181 -0.020704384 -1.0022463e-20)
(1.0119744 -0.020490576 7.9718546e-21)
(1.0154723 -0.019952989 -5.9331667e-21)
(1.0187802 -0.019060394 0)
(1.0218298 -0.017806213 -1.9723766e-21)
(1.0245388 -0.016213422 7.5868958e-22)
(1.0268298 -0.014337647 4.1988271e-21)
(1.028647 -0.012265123 1.0870879e-21)
(1.0299674 -0.010101362 6.2028904e-22)
(1.030806 -0.0079615754 2.0889741e-21)
(1.0312112 -0.005946944 0)
(1.0312609 -0.0041558507 1.9977958e-21)
(1.0310436 -0.0026341356 4.8578618e-22)
(1.0306678 -0.0014641305 5.1192544e-21)
(1.0302017 -0.00059624665 -2.4183756e-21)
(1.0297079 -0.00017126863 1.8184249e-22)
(1.0290706 6.4448333e-05 7.4643093e-21)
(0.98702202 -0.0017537586 -1.4626043e-22)
(0.9830122 -0.00272596 -2.770587e-23)
(0.98118803 -0.0036248721 2.6770153e-22)
(0.97834888 -0.0047646008 -4.2576592e-24)
(0.97616802 -0.0059617658 6.5651465e-22)
(0.97372639 -0.0073358594 1.2286489e-21)
(0.97152356 -0.0087780656 -2.3818335e-23)
(0.96936355 -0.010299615 -1.4943496e-21)
(0.96746102 -0.01183397 8.6134537e-23)
(0.96616907 -0.013411899 -3.3127298e-21)
(0.96602043 -0.014945343 -8.3348345e-23)
(0.96739293 -0.016354267 2.989695e-21)
(0.97043617 -0.017569026 1.171108e-22)
(0.97494107 -0.018557336 5.4036077e-21)
(0.98038575 -0.019345498 -2.3641809e-20)
(0.98614786 -0.019984945 1.0465796e-21)
(0.99170578 -0.020528116 5.7471407e-21)
(0.99678315 -0.020997857 8.0773612e-21)
(1.001354 -0.021366123 -7.8068988e-21)
(1.0055356 -0.021567787 -2.3887549e-21)
(1.0094627 -0.02152671 4.0121188e-21)
(1.0132135 -0.021176817 -8.6091883e-21)
(1.0167934 -0.020471624 7.0562337e-21)
(1.0201525 -0.019387719 0)
(1.0232093 -0.017929049 4.8084488e-21)
(1.0258749 -0.01613278 8.313833e-21)
(1.028073 -0.014070927 -3.723105e-21)
(1.029756 -0.011844869 7.4594688e-21)
(1.0309145 -0.0095707434 1.6534896e-22)
(1.0315785 -0.0073682757 -2.280462e-21)
(1.0318106 -0.0053375357 -2.0844862e-21)
(1.0317 -0.0035714735 -1.4656855e-21)
(1.0313413 -0.002109291 -1.8765768e-22)
(1.0308478 -0.0010252569 5.8578839e-21)
(1.0302864 -0.0002667648 -6.8656185e-22)
(1.029723 3.4552762e-05 -2.6402001e-22)
(1.0290461 0.00012930173 2.8311227e-21)
(0.98681277 -0.0012630846 1.2769556e-22)
(0.98264488 -0.002149382 -9.539377e-23)
(0.98069259 -0.003018679 2.7094107e-22)
(0.97770799 -0.0041209288 -2.7479452e-23)
(0.97543758 -0.0052997929 1.3933632e-23)
(0.97293745 -0.0066626194 1.1593531e-23)
(0.97076679 -0.008102757 -1.0646746e-21)
(0.96859807 -0.0096782199 5.7734967e-22)
(0.9666682 -0.011265938 0)
(0.96505981 -0.012870402 5.48813e-22)
(0.96423802 -0.014478986 0)
(0.96466582 -0.016026845 0)
(0.96669581 -0.017420865 3.3505931e-21)
(0.97037023 -0.018610075 -4.9785435e-22)
(0.97538117 -0.019574645 -3.5900237e-21)
(0.98115516 -0.020355819 -6.7426298e-21)
(0.98707888 -0.021002768 1.414862e-20)
(0.99269066 -0.021559134 3.7509723e-21)
(0.9977891 -0.022026826 6.3758899e-21)
(1.0024003 -0.022359359 2.7690148e-21)
(1.0066567 -0.022482674 -7.2214609e-21)
(1.0106818 -0.022321102 4.2571028e-21)
(1.0145319 -0.02181385 1.1109186e-21)
(1.0181906 -0.020921212 -2.1898326e-21)
(1.0215898 -0.01962841 -1.6478159e-22)
(1.024636 -0.017951858 1.7307432e-21)
(1.027236 -0.015945186 -6.6929416e-22)
(1.0293178 -0.013698006 -4.4996342e-21)
(1.0308456 -0.011326304 -3.959948e-22)
(1.0318258 -0.0089548929 -7.0239745e-21)
(1.0323048 -0.0067054501 -1.8826607e-21)
(1.032359 -0.0046746405 -8.6102554e-22)
(1.0320877 -0.002948264 -2.256046e-21)
(1.0315905 -0.0015581366 3.5378361e-21)
(1.0309834 -0.00057002543 -1.2077449e-20)
(1.0303312 7.1429836e-05 -2.3268713e-21)
(1.0297022 0.00024293244 -2.6237741e-21)
(1.0289908 0.0001927592 0)