/*--------------------------------*- C++ -*----------------------------------*\
| =========                 |                                                 |
| \\      /  F ield         | OpenFOAM: The Open Source CFD Toolbox           |
|  \\    /   O peration     | Version:  5.0                                   |
|   \\  /    A nd           | Web:      www.OpenFOAM.org                      |
|    \\/     M anipulation  |                                                 |
\*---------------------------------------------------------------------------*/
FoamFile
{
    version     2.0;
    format      ascii;
    class       volVectorField;
    location    "30";
    object      UMean;
}
// * * * * * * * * * * * * * * * * * * * * * * * * * * * * * * * * * * * * * //

dimensions      [0 1 -1 0 0 0 0];

internalField   nonuniform List<vector> 
9200
(
(1.0078934 -0.00040622365 -1.9769518e-23)
(1.0082481 -0.0011598362 -5.4526224e-21)
(1.0089958 -0.00041845052 0)
(1.0081792 -0.001874473 2.7687255e-21)
(1.0093387 -0.0011882464 -4.1028226e-21)
(1.0095231 -0.0004279056 0)
(1.0078525 -0.002517423 2.7887593e-22)
(1.0092518 -0.0019209461 -3.2049819e-22)
(1.0098636 -0.001213889 0)
(1.0102884 -0.00044288806 0)
(1.0073696 -0.003110421 -5.0368095e-21)
(1.0089019 -0.0025803607 -2.4235815e-21)
(1.0097675 -0.0019636541 -2.259106e-21)
(1.0106227 -0.0012563335 -1.4328041e-22)
(1.0109333 -0.00045760722 1.9387341e-24)
(1.0067647 -0.0036514672 -4.6033363e-21)
(1.0083984 -0.0031896042 5.2323877e-22)
(1.009407 -0.0026394423 -7.0658018e-21)
(1.0105148 -0.0020320949 -2.4765625e-21)
(1.0112639 -0.001300546 1.8144535e-22)
(1.011642 -0.00047494477 6.1867636e-21)
(1.0060419 -0.0041460821 -3.8683356e-21)
(1.0077714 -0.0037470135 -4.7755783e-21)
(1.0088939 -0.0032639094 4.2967302e-21)
(1.0101411 -0.0027342313 2.0056447e-22)
(1.0111463 -0.0021032679 -2.9131404e-21)
(1.0119691 -0.0013545256 -2.7332771e-21)
(1.012314 -0.00049234843 -3.2693888e-22)
(1.0051938 -0.004597247 -1.1960414e-21)
(1.0070257 -0.0042580788 -2.8991117e-21)
(1.0082574 -0.0038363729 -4.3250035e-21)
(1.0096163 -0.0033834664 4.5013388e-22)
(1.010762 -0.0028330821 6.3036125e-21)
(1.0118432 -0.0021897415 2.689688e-21)
(1.0126382 -0.0014105939 4.0904031e-21)
(1.0130159 -0.00051097713 -6.1276962e-21)
(1.0042095 -0.0050075469 4.362823e-21)
(1.0061532 -0.0047267433 -3.7867027e-21)
(1.0075027 -0.004361711 4.2667691e-22)
(1.0089678 -0.0039808711 -2.3238255e-21)
(1.0102277 -0.0035080695 1.0155071e-21)
(1.0114502 -0.0029537411 1.006264e-20)
(1.0125046 -0.0022792337 -3.5385664e-21)
(1.0133382 -0.0014724264 6.9183201e-21)
(1.0137013 -0.00052927264 1.3066015e-20)
(1.0030769 -0.0053793014 -2.9709234e-21)
(1.0051426 -0.005156256 2.3373587e-21)
(1.006622 -0.0048443456 1.1435678e-23)
(1.0082013 -0.0045303778 -1.4984622e-21)
(1.0095698 -0.004131232 6.4531627e-22)
(1.0109088 -0.0036608048 1.7046325e-21)
(1.0121037 -0.0030787707 -3.4839153e-21)
(1.0131991 -0.0023778728 -6.5633293e-21)
(1.0140224 -0.0015349716 -3.3703235e-21)
(1.0144039 -0.00054774361 -8.0586979e-22)
(1.0017854 -0.005713298 1.4042592e-21)
(1.0039799 -0.0055503404 5.2490175e-22)
(1.0056045 -0.0052874456 -3.1120762e-21)
(1.0073092 -0.0050371834 2.7049493e-21)
(1.0087945 -0.0047053713 -5.5914092e-21)
(1.0102439 -0.0043164152 1.0791667e-20)
(1.0115558 -0.0038190263 5.6347105e-22)
(1.0127932 -0.0032173902 -1.1316602e-20)
(1.0138789 -0.0024774633 5.7741774e-21)
(1.0147249 -0.001599956 -1.1476458e-20)
(1.0150977 -0.0005653438 2.0587909e-21)
(1.0003292 -0.0060092359 -1.9605265e-22)
(1.0026512 -0.0059112996 -4.3239986e-22)
(1.0044364 -0.0056950156 1.973697e-21)
(1.0062809 -0.0055044621 0)
(1.0078945 -0.0052363388 1.5040179e-23)
(1.009462 -0.0049218661 -1.5275765e-21)
(1.0108844 -0.0045081905 2.2264611e-21)
(1.012242 -0.0039953455 5.5504032e-21)
(1.0134695 -0.0033578398 -1.8146368e-21)
(1.0145793 -0.0025809343 7.06729e-21)
(1.0154197 -0.0016638418 4.9302598e-21)
(1.0157989 -0.00058216591 -9.6989363e-22)
(0.99871202 -0.0062646035 -8.9574917e-23)
(1.0011445 -0.006240766 6.6957053e-22)
(1.0031031 -0.0060696026 0)
(1.0051023 -0.0059368285 0)
(1.0068599 -0.0057271525 1.8418477e-21)
(1.008556 -0.0054836402 -4.0100274e-21)
(1.0100964 -0.0051459186 5.9339742e-21)
(1.0115673 -0.0047230682 -5.5567129e-21)
(1.0129165 -0.0041744562 -3.5004894e-22)
(1.0141693 -0.0035046638 2.095922e-23)
(1.0152737 -0.0026826592 -9.2259034e-21)
(1.0161233 -0.0017269807 1.0961024e-20)
(1.016494 -0.00059755999 -1.8779904e-20)
(0.99695373 -0.0064746373 8.7604844e-22)
(0.99945514 -0.0065380735 -1.0548316e-22)
(1.0015912 -0.0064133116 1.6582872e-21)
(1.0037581 -0.0063374264 -1.941338e-21)
(1.0056769 -0.0061827748 2.1322951e-21)
(1.0075166 -0.006004379 -1.0568725e-21)
(1.0091852 -0.0057394054 -1.2754189e-21)
(1.0107761 -0.0053982323 1.3487264e-22)
(1.0122399 -0.0049419915 -4.0528773e-21)
(1.0136173 -0.0043626811 -3.4173184e-21)
(1.0148655 -0.0036499 -2.226372e-21)
(1.0159791 -0.0027832765 -6.0038705e-21)
(1.0168219 -0.0017870555 -4.1170708e-21)
(1.0171882 -0.00061136432 5.129102e-21)
(0.99509687 -0.0066323708 6.7950585e-22)
(0.99759125 -0.0067999087 -2.4958536e-21)
(0.9998925 -0.006726023 2.8408325e-22)
(1.0022321 -0.006709301 1.291394e-22)
(1.0043297 -0.0066065537 -1.1686172e-22)
(1.0063303 -0.0064893386 1.2182663e-21)
(1.0081426 -0.0062909023 -1.1582874e-21)
(1.0098621 -0.0060285498 1.5640654e-21)
(1.011447 -0.0056559949 -8.8297275e-22)
(1.0129417 -0.005173311 1.9966901e-22)
(1.0143172 -0.0045499096 1.2972014e-22)
(1.0155758 -0.0037946924 -7.2202539e-22)
(1.0166819 -0.0028791523 8.9908799e-21)
(1.0175212 -0.001843507 -4.8414309e-21)
(1.0178748 -0.0006231719 4.101025e-21)
(0.99321144 -0.0067293011 -2.0875795e-21)
(0.99558218 -0.0070198591 1.6805568e-21)
(0.99800971 -0.007005087 -1.2051014e-21)
(1.0005115 -0.0070531463 1.7807615e-21)
(1.0028014 -0.0070021701 -1.9910575e-21)
(1.0049816 -0.0069421057 3.9613651e-21)
(1.0069558 -0.0068059166 -5.1384755e-21)
(1.0088178 -0.0066155537 2.9337666e-22)
(1.0105318 -0.0063247443 1.362759e-21)
(1.0121494 -0.005929698 -2.5431657e-21)
(1.0136453 -0.0054048553 1.3638975e-20)
(1.0150344 -0.0047378772 -6.1805849e-21)
(1.0162867 -0.0039339684 -2.942057e-21)
(1.0173878 -0.0029694421 -7.4742165e-22)
(1.0182144 -0.0018947907 4.3978506e-22)
(1.0185538 -0.00063273541 -4.4507677e-21)
(0.99139424 -0.0067569407 0)
(0.9934858 -0.0071883707 1.6623416e-21)
(0.99596498 -0.0072448488 -5.1489321e-22)
(0.99859299 -0.007368099 0)
(1.0010768 -0.0073713559 0)
(1.0034524 -0.0073669447 0)
(1.0056093 -0.00728807 2.9398842e-22)
(1.0076311 -0.0071647307 -2.6873373e-21)
(1.0094876 -0.0069489849 3.8987493e-21)
(1.0112348 -0.0066405582 -3.5950792e-21)
(1.0128564 -0.0062053722 9.0211477e-22)
(1.0143693 -0.0056390264 -2.7157926e-21)
(1.0157557 -0.0049202754 6.696296e-22)
(1.0170042 -0.0040666506 3.1422744e-21)
(1.0180903 -0.0030517255 2.9420459e-22)
(1.0189015 -0.0019399662 2.2762205e-21)
(1.0192214 -0.00063977447 0)
(0.98975957 -0.0067089114 -2.2481074e-21)
(0.99139195 -0.0072938665 -2.6691236e-21)
(0.99380793 -0.0074367864 4.4785145e-21)
(0.99648892 -0.0076499516 2.0530461e-21)
(0.99914655 -0.0077134777 2.566573e-21)
(1.001725 -0.0077662253 0)
(1.0040847 -0.0077419374 3.4343364e-21)
(1.0062872 -0.0076795856 -1.1434839e-21)
(1.0083029 -0.0075341075 -7.5957027e-21)
(1.0101916 -0.0073056391 5.052183e-21)
(1.0119448 -0.0069605715 2.0154511e-21)
(1.0135865 -0.0064860996 1.107473e-21)
(1.015101 -0.0058684357 -7.3087931e-21)
(1.0164873 -0.0050958689 9.4956807e-21)
(1.017722 -0.0041893659 8.2291521e-22)
(1.0187894 -0.0031245285 1.6009171e-20)
(1.0195788 -0.0019778948 5.6784141e-21)
(1.0198755 -0.00064406371 5.4235546e-21)
(0.98842221 -0.0065830261 2.9522038e-22)
(0.98941751 -0.0073247383 -1.2632247e-21)
(0.99161977 -0.0075702957 -7.3774081e-22)
(0.99423629 -0.0078903256 2.4914124e-21)
(0.99701505 -0.0080247659 -3.1790224e-22)
(0.99978515 -0.0081404059 1.2807919e-21)
(1.0023622 -0.0081704284 -2.7201379e-21)
(1.0047677 -0.0081650595 -7.3427533e-21)
(1.0069637 -0.0080833543 -2.9529168e-21)
(1.0090093 -0.0079300828 2.4636904e-21)
(1.0109048 -0.0076690592 -1.1873316e-21)
(1.01268 -0.0072885153 5.3908381e-21)
(1.0143278 -0.0067636883 -4.5355561e-21)
(1.015847 -0.0060917296 3.5625383e-22)
(1.0172233 -0.0052604694 2.8815393e-22)
(1.0184403 -0.0043000617 -2.5272963e-21)
(1.0194814 -0.0031860423 5.3415982e-21)
(1.0202441 -0.0020076381 -4.2849101e-22)
(1.0205132 -0.00064540625 5.0691948e-21)
(0.98747636 -0.0063826899 2.2109082e-21)
(0.98769191 -0.0072727601 1.4525451e-21)
(0.98951215 -0.0076328843 -8.8773256e-21)
(0.99190524 -0.0080764661 -1.0364346e-21)
(0.99470939 -0.0082979781 1.1149749e-21)
(0.99762961 -0.0084869136 4.9929186e-22)
(1.0004241 -0.0085749786 6.2934225e-22)
(1.0030518 -0.0086246577 2.7729448e-21)
(1.0054518 -0.0086018015 -1.185487e-21)
(1.0076749 -0.008516717 -8.6573147e-21)
(1.0097266 -0.0083355527 5.5754569e-21)
(1.0116446 -0.0080435836 1.1535969e-22)
(1.0134298 -0.0076156827 -1.6425042e-21)
(1.0150871 -0.0070367145 9.6963958e-23)
(1.0166019 -0.0063040082 7.8572693e-22)
(1.0179642 -0.0054115058 -8.675187e-21)
(1.0191555 -0.0043961664 3.2738217e-21)
(1.0201642 -0.0032347592 -8.2414856e-21)
(1.0208946 -0.0020283181 -2.0091043e-21)
(1.0211322 -0.00064364497 -5.0666557e-21)
(0.98697637 -0.0061175157 1.7837417e-22)
(0.98633515 -0.0071354136 2.0131415e-21)
(0.98761673 -0.0076152262 4.8884642e-22)
(0.9896013 -0.0081952626 2.2159115e-21)
(0.99228802 -0.0085222316 -4.0826674e-24)
(0.9952746 -0.0087995777 -1.7809306e-21)
(0.99826 -0.0089540936 4.8764211e-21)
(1.0011185 -0.0090607161 9.7323499e-21)
(1.003746 -0.0090932698 -2.3812138e-21)
(1.0061708 -0.0090706358 0)
(1.008398 -0.008962253 -3.427123e-21)
(1.0104712 -0.0087554382 3.7580557e-21)
(1.0124016 -0.0084202834 6.4628481e-21)
(1.0142006 -0.0079406386 -6.564745e-21)
(1.0158597 -0.0072997585 2.1181406e-21)
(1.0173664 -0.0065022077 -6.4833432e-21)
(1.0187066 -0.0055457028 8.8758739e-22)
(1.0198657 -0.0044755004 3.5023985e-21)
(1.020835 -0.0032692424 -5.3761856e-21)
(1.0215277 -0.0020391916 -2.4433489e-22)
(1.0217298 -0.00063865702 -4.6133086e-21)
(0.9869261 -0.0058023601 -2.7363018e-21)
(0.98543369 -0.0069176543 1.5851859e-21)
(0.98606174 -0.007513402 3.9104476e-21)
(0.98745516 -0.0082331815 -4.271106e-21)
(0.98984554 -0.0086832209 -3.1788746e-21)
(0.99276568 -0.0090679574 5.7878431e-22)
(0.99587612 -0.0093024614 0)
(0.99895173 -0.0094730465 1.5275887e-21)
(1.0018232 -0.0095608848 -2.0084729e-21)
(1.0044759 -0.0095959319 -7.7946225e-21)
(1.0069027 -0.00955405 -2.0050889e-22)
(1.0091488 -0.0094254784 2.1570047e-21)
(1.011235 -0.0091808513 -6.9106956e-22)
(1.0131823 -0.0087978052 -1.6839441e-21)
(1.0149891 -0.0082576456 4.1438535e-21)
(1.0166468 -0.0075493411 -4.0547053e-21)
(1.0181377 -0.006682378 7.9134833e-22)
(1.0194488 -0.0056602234 -5.3970666e-21)
(1.0205679 -0.004535941 -1.1802568e-22)
(1.0214912 -0.0032882444 -1.4603627e-23)
(1.0221409 -0.0020396355 -2.6930965e-21)
(1.022304 -0.00063035564 0)
(0.98727988 -0.0054545068 -7.6193539e-22)
(0.98502282 -0.0066323281 -7.834804e-22)
(0.98494716 -0.0073296537 -2.2929677e-23)
(0.98560634 -0.0081804999 -4.2003976e-21)
(0.98750932 -0.0087670815 -2.2368717e-21)
(0.99018554 -0.0092778697 1.7286006e-21)
(0.99330565 -0.0096106316 -1.1626323e-21)
(0.99654842 -0.0098578731 5.510823e-21)
(0.9996626 -0.010005617 1.8660037e-21)
(1.0025658 -0.010096417 5.6190493e-22)
(1.0052197 -0.010115038 -1.5455125e-22)
(1.007662 -0.010058197 -4.6702151e-21)
(1.0099197 -0.009897757 4.6454766e-22)
(1.0120242 -0.0096106339 3.064663e-21)
(1.0139842 -0.0091703134 -3.5696484e-21)
(1.0157964 -0.008562914 -5.0081755e-21)
(1.017446 -0.0077809402 -2.7069019e-22)
(1.0189142 -0.0068410075 9.0252048e-21)
(1.020188 -0.0057522444 6.5038051e-22)
(1.0212595 -0.0045755912 -3.069002e-21)
(1.02213 -0.0032907 0)
(1.0227317 -0.0020291448 5.735759e-21)
(1.0228526 -0.00061869485 4.0801329e-23)
(0.98795381 -0.0050912011 4.6766824e-21)
(0.98508093 -0.0062971942 -1.9499646e-21)
(0.9843263 -0.0070730513 3.5230268e-21)
(0.98417827 -0.0080361928 1.7517113e-21)
(0.98542353 -0.0087620453 -4.7776978e-21)
(0.98765461 -0.0094121496 0)
(0.99061804 -0.0098647372 -2.2152721e-22)
(0.99392887 -0.010206824 2.2648118e-21)
(0.99725276 -0.010425121 3.9374618e-21)
(1.000416 -0.010574192 5.2132667e-21)
(1.0033243 -0.010649501 -3.3624572e-21)
(1.0059908 -0.010657514 -3.7205166e-21)
(1.0084416 -0.01057485 4.8093157e-21)
(1.010717 -0.010378265 -3.9117294e-21)
(1.0128372 -0.010039071 7.0130493e-21)
(1.0148089 -0.0095338586 7.7760399e-21)
(1.0166213 -0.0088514829 -5.4191411e-21)
(1.0182562 -0.0079904181 3.3455248e-21)
(1.0196933 -0.0069745299 -1.1788409e-20)
(1.0209214 -0.0058191744 4.4770019e-21)
(1.0219376 -0.0045927691 6.7652738e-21)
(1.0227489 -0.0032757364 -6.0175405e-21)
(1.0232979 -0.002007345 3.6835379e-21)
(1.0233738 -0.0006036473 3.6750138e-23)
(0.98884083 -0.0047279261 -4.6709184e-23)
(0.98553709 -0.0059314142 -1.2806892e-21)
(0.98419621 -0.0067587773 -6.4348053e-22)
(0.9832501 -0.0078079309 -8.489481e-21)
(0.9837246 -0.0086624486 2.8624655e-21)
(0.98531883 -0.0094572107 -5.6284463e-21)
(0.98792328 -0.010048045 -1.720196e-22)
(0.99114821 -0.010506873 -6.15732e-21)
(0.99460221 -0.010812572 1.4573611e-21)
(0.99800795 -0.011028469 2.3647498e-21)
(1.0011895 -0.011160502 -1.8368758e-21)
(1.0041107 -0.011227993 6.3222262e-21)
(1.0067821 -0.011215606 -2.2151111e-21)
(1.0092476 -0.011103663 -5.0356934e-22)
(1.0115396 -0.010861615 1.6095065e-21)
(1.0136763 -0.010462233 1.2076256e-21)
(1.015656 -0.0098832188 -9.9830476e-22)
(1.0174631 -0.0091186749 5.0332311e-21)
(1.0190754 -0.0081734871 0)
(1.0204726 -0.0070795796 7.6110779e-22)
(1.0216461 -0.0058586391 2.4437973e-22)
(1.0225995 -0.0045860425 -4.9023362e-22)
(1.0233452 -0.0032426708 2.6659481e-22)
(1.0238375 -0.0019739827 -4.8388784e-21)
(1.023866 -0.00058520819 -2.0688401e-21)
(0.98982685 -0.0043767492 -1.8204282e-21)
(0.98628616 -0.0055532385 5.0345236e-22)
(0.98449948 -0.006405337 9.0069587e-22)
(0.98284136 -0.0075101671 8.8964959e-22)
(0.98251407 -0.0084704025 8.325006e-21)
(0.98332642 -0.0094031602 5.3603896e-22)
(0.9853645 -0.010143655 -1.4628142e-22)
(0.98830326 -0.01074086 3.9810295e-22)
(0.99175136 -0.011155974 4.8383524e-21)
(0.99533898 -0.011454098 -5.9050617e-22)
(0.99879114 -0.011648729 3.1115613e-21)
(1.0019931 -0.01177348 -7.3032138e-22)
(1.0049172 -0.011824609 -3.3135991e-21)
(1.007599 -0.011789599 4.844269e-22)
(1.0100794 -0.011639757 -1.9546828e-21)
(1.0123903 -0.011344097 -1.7735885e-21)
(1.0145418 -0.010874843 1.6532268e-21)
(1.0165256 -0.010213322 -6.7688346e-21)
(1.0183202 -0.0093595455 -1.0416992e-20)
(1.0199012 -0.008325987 5.3419687e-23)
(1.0212491 -0.0071529802 1.0756532e-20)
(1.0223592 -0.0058685352 3.0114035e-21)
(1.0232422 -0.0045542388 -5.6760135e-21)
(1.0239167 -0.0031910099 4.8857344e-21)
(1.0243486 -0.0019289015 -3.2247387e-21)
(1.0243276 -0.0005634118 1.5238204e-22)
(0.99080435 -0.0040459047 3.4181334e-23)
(0.98720562 -0.0051780703 3.0100283e-22)
(0.98513689 -0.006031223 -2.5914148e-21)
(0.98291155 -0.0071612525 4.1022564e-21)
(0.98183716 -0.0081965022 -6.0395737e-21)
(0.9818005 -0.0092483175 4.5384213e-21)
(0.98309794 -0.010139215 3.1896671e-21)
(0.98553065 -0.010889845 4.2668198e-21)
(0.98878245 -0.011438536 -6.7884991e-21)
(0.99243464 -0.011840554 -3.0008073e-21)
(0.99611645 -0.012110881 1.068013e-22)
(0.99960962 -0.012296038 -7.9302976e-21)
(1.002818 -0.012406241 7.3879926e-21)
(1.0057485 -0.012440394 -3.4086291e-21)
(1.0084413 -0.012375273 8.2378828e-22)
(1.0109403 -0.012179855 1.4472809e-21)
(1.0132704 -0.01182061 -4.6262056e-21)
(1.0154345 -0.011271629 5.4795018e-21)
(1.0174168 -0.010518697 -4.8068295e-21)
(1.019191 -0.0095691619 1.1410738e-21)
(1.020731 -0.0084438777 0)
(1.0220198 -0.007191819 4.415593e-21)
(1.0230576 -0.0058470576 1.666819e-22)
(1.0238631 -0.0044964575 0)
(1.0244613 -0.0031204434 -5.5242393e-21)
(1.0248295 -0.0018720523 -1.49154e-22)
(1.0247576 -0.00053831973 1.3526883e-21)
(0.99168084 -0.003739718 1.3787148e-22)
(0.98817187 -0.0048167647 -6.0631672e-25)
(0.98598486 -0.005653055 -1.6125089e-21)
(0.98337042 -0.0067806468 2.70593e-22)
(0.98167398 -0.0078586973 -1.1880107e-21)
(0.9808111 -0.009002228 -4.6463066e-21)
(0.98126434 -0.010028788 -2.6882527e-22)
(0.98299045 -0.010937575 -3.9239866e-21)
(0.98582158 -0.01164045 6.3473098e-22)
(0.98936088 -0.012171774 4.755328e-21)
(0.99317682 -0.012538232 -5.1847655e-21)
(0.99693886 -0.012794244 -2.2760714e-21)
(1.0004529 -0.012963744 -3.8497269e-21)
(1.0036675 -0.013060684 9.1034469e-22)
(1.006604 -0.013071903 -4.0049089e-21)
(1.0093123 -0.01296998 1.1683658e-21)
(1.0118322 -0.012719263 -6.8933305e-21)
(1.0141816 -0.012285916 1.2272869e-20)
(1.0163548 -0.011646776 3.7565378e-21)
(1.0183288 -0.01079373 -2.3671611e-21)
(1.0200732 -0.0097426009 5.6695973e-21)
(1.0215617 -0.0085233321 6.2689903e-23)
(1.0227812 -0.0071934943 -3.2694627e-22)
(1.0237381 -0.0057927284 0)
(1.0244595 -0.0044120722 0)
(1.0249768 -0.0030308452 3.953523e-22)
(1.0252788 -0.001803517 -2.9359203e-21)
(1.025155 -0.00051001479 -1.9855831e-21)
(0.99238216 -0.003458809 0)
(0.98907237 -0.004475254 -1.7348608e-22)
(0.98691242 -0.005283264 9.4532748e-22)
(0.98409479 -0.0063863742 1.2320726e-21)
(0.98194592 -0.0074775689 3.6348255e-21)
(0.98036109 -0.0086809532 4.9822351e-22)
(0.97995905 -0.0098161367 -2.9393456e-21)
(0.9808379 -0.010874751 -5.9487569e-21)
(0.98302747 -0.011742689 6.6617465e-21)
(0.9862302 -0.012427369 -1.399951e-21)
(0.9900213 -0.012916035 4.2386569e-22)
(0.99397885 -0.013261438 1.1882425e-21)
(0.9977939 -0.01349752 -1.0411973e-20)
(1.0013227 -0.013654637 1.5217866e-21)
(1.0045402 -0.013734211 1.3568966e-21)
(1.007487 -0.013717297 -4.0909414e-21)
(1.0102144 -0.013569669 1.3752916e-21)
(1.0127576 -0.013253036 -4.4175905e-21)
(1.0151252 -0.012734095 1.0439533e-20)
(1.0173026 -0.011994153 -4.735534e-21)
(1.0192599 -0.011032666 4.4129611e-21)
(1.0209641 -0.0098750524 2.9725488e-21)
(1.0223901 -0.0085608023 -1.8157046e-23)
(1.0235302 -0.0071557638 -1.080259e-20)
(1.0243976 -0.0057044148 -2.4480647e-21)
(1.025029 -0.0043007159 2.9394215e-22)
(1.0254617 -0.002922255 4.0143506e-21)
(1.0256955 -0.0017234881 -1.4790677e-21)
(1.0255192 -0.00047859896 1.914653e-21)
(0.99285112 -0.0032010288 6.6580332e-22)
(0.98981189 -0.0041555255 0)
(0.98779527 -0.0049294299 0)
(0.9849465 -0.0059930809 0)
(0.98253225 -0.0070728755 -7.5629396e-22)
(0.98038947 -0.008303846 3.3440316e-21)
(0.97921155 -0.0095145471 -1.8123817e-22)
(0.9791926 -0.010700321 -1.7520735e-22)
(0.9805661 -0.011731816 8.7884229e-21)
(0.9831957 -0.012586027 -9.4055965e-21)
(0.98674631 -0.013224187 4.1132951e-21)
(0.99076145 -0.013684571 -1.5444425e-21)
(0.99482688 -0.014003134 3.3969529e-21)
(0.99868076 -0.01422432 -1.9200117e-21)
(1.0022159 -0.014366977 7.427603e-21)
(1.0054385 -0.014425931 1.7093476e-21)
(1.0083999 -0.01437337 -4.6705137e-21)
(1.011151 -0.01416995 -3.7546979e-21)
(1.0137188 -0.013775427 3.8049302e-21)
(1.0161022 -0.013158727 -6.5963224e-22)
(1.0182772 -0.012307298 -4.7857959e-21)
(1.0202082 -0.011229711 -4.0943055e-22)
(1.0218606 -0.0099619048 7.3445892e-21)
(1.0232126 -0.0085530926 -5.1785712e-21)
(1.024263 -0.0070767817 1.7835142e-22)
(1.0250333 -0.0055813317 -1.7933075e-21)
(1.0255694 -0.0041622694 4.2383355e-21)
(1.0259144 -0.0027948738 6.5316798e-22)
(1.0260785 -0.0016322432 4.3488688e-21)
(1.0258497 -0.00044418967 5.7594723e-22)
(0.99311216 -0.0029474371 4.0615341e-22)
(0.99031383 -0.00385313 -4.0202756e-22)
(0.98852286 -0.0045961703 0)
(0.98578907 -0.0056103081 0)
(0.98328926 -0.0066615099 0)
(0.98078431 -0.0078914364 0)
(0.97898038 -0.0091437389 0)
(0.97811055 -0.010425644 3.2090719e-23)
(0.9785779 -0.011602897 -3.4292052e-21)
(0.98042981 -0.012630073 9.7928134e-21)
(0.98349497 -0.013439766 -1.5259941e-22)
(0.98736504 -0.014044332 4.3795349e-21)
(0.99156693 -0.014469657 -9.2187894e-21)
(0.99571734 -0.014767576 5.4876686e-21)
(0.99959434 -0.014973683 -5.9472207e-22)
(1.0031337 -0.015100901 3.7474961e-21)
(1.0063648 -0.015133657 -5.0975974e-21)
(1.0093464 -0.01503655 2.4100683e-21)
(1.0121252 -0.014765549 2.734834e-21)
(1.0147183 -0.014280011 1.7249953e-21)
(1.0171133 -0.013552854 5.8174565e-22)
(1.0192775 -0.012579518 2.0747846e-21)
(1.0211708 -0.011379134 -4.023121e-23)
(1.0227592 -0.0099988411 -2.7866305e-21)
(1.0240253 -0.008497424 7.9173235e-22)
(1.0249763 -0.0069551282 8.4653577e-21)
(1.0256422 -0.0054230507 2.006106e-21)
(1.0260785 -0.0039968756 -1.7129823e-21)
(1.0263337 -0.0026490613 7.4244592e-23)
(1.0264273 -0.001530138 -2.1002803e-21)
(1.0261465 -0.00040691679 -1.4077525e-22)
(0.99324759 -0.0026686258 -2.5531185e-22)
(0.99056513 -0.0035558839 -3.5349372e-23)
(0.98899828 -0.004282807 -5.1011663e-22)
(0.98649972 -0.0052454282 -6.1848146e-23)
(0.98406739 -0.0062552828 0)
(0.98140192 -0.0074621037 0)
(0.97916299 -0.0087259002 -1.2944312e-23)
(0.97757373 -0.010068637 3.8753469e-21)
(0.97714698 -0.01136129 -6.8312929e-21)
(0.9780912 -0.012550062 8.7473979e-21)
(0.98044054 -0.013541857 3.3701833e-22)
(0.98391889 -0.014317008 -6.4783453e-21)
(0.98807327 -0.014879188 1.295387e-21)
(0.99243163 -0.015275914 -7.8924993e-22)
(0.99664261 -0.015554376 -5.1767789e-21)
(1.0005337 -0.015746772 2.9455282e-22)
(1.0040774 -0.015855368 9.2257305e-21)
(1.0073226 -0.015854867 -5.1177714e-22)
(1.0103308 -0.015702338 -7.2567115e-21)
(1.0131407 -0.015350367 1.2145143e-20)
(1.0157578 -0.01475962 -3.9651591e-21)
(1.0181583 -0.013909054 -3.5720915e-21)
(1.0203016 -0.012803983 9.9296326e-21)
(1.0221446 -0.011475379 3.141018e-21)
(1.0236557 -0.0099819334 -2.3698983e-21)
(1.0248241 -0.0083914931 4.8170774e-21)
(1.0256664 -0.0067898315 2.3333222e-21)
(1.0262216 -0.0052295117 1.1025021e-21)
(1.0265547 -0.0038049101 -1.8550634e-21)
(1.0267186 -0.002485319 -2.4781611e-22)
(1.0267416 -0.0014175933 -2.6265921e-22)
(1.0264095 -0.00036691988 1.6170095e-23)
(0.9932817 -0.0023829548 3.2543387e-23)
(0.99067185 -0.0032329349 1.2958505e-22)
(0.98923783 -0.0039643926 8.0937322e-22)
(0.98697537 -0.0048921806 8.1742204e-22)
(0.9847244 -0.0058640901 0)
(0.98208599 -0.0070298468 0)
(0.97961511 -0.0082814689 0)
(0.97749643 -0.0096506726 -4.5479015e-22)
(0.97628153 -0.011023403 5.8403519e-21)
(0.97629049 -0.012347112 6.5598867e-21)
(0.97775561 -0.013516454 3.1485531e-22)
(0.9805923 -0.014478722 -1.1453859e-21)
(0.98445802 -0.01520806 1.3056149e-20)
(0.98886313 -0.015733352 -7.6096802e-21)
(0.99334552 -0.016103208 9.4802016e-22)
(0.99759899 -0.016365594 0)
(1.0014982 -0.016543746 2.5969459e-21)
(1.0050499 -0.016629091 -2.4025865e-21)
(1.0083165 -0.016586116 1.03905e-21)
(1.0113575 -0.016365301 1.1648523e-21)
(1.0142008 -0.015917365 -4.9354346e-21)
(1.0168388 -0.01520637 1.7439935e-21)
(1.0192366 -0.014219528 -5.2003649e-21)
(1.0213468 -0.012973858 -7.3377568e-21)
(1.0231256 -0.011513191 3.4259539e-21)
(1.0245457 -0.0099077336 2.3327214e-22)
(1.0256049 -0.0082335171 -2.3352503e-22)
(1.0263299 -0.0065803787 1.0644873e-22)
(1.026769 -0.0050009871 -2.6654997e-21)
(1.0269964 -0.0035870156 -1.5998653e-21)
(1.0270686 -0.0023042544 3.8895224e-22)
(1.0270212 -0.0012950829 -6.5345007e-22)
(1.026639 -0.00032434582 9.1824958e-22)
(0.99323858 -0.0020904486 1.0458787e-22)
(0.990659 -0.0029004617 5.8545377e-24)
(0.98932035 -0.0036134985 1.000178e-21)
(0.98716356 -0.0045361262 1.2875698e-21)
(0.98513286 -0.0054889069 -5.3875658e-23)
(0.9826832 -0.0066079918 5.0763263e-23)
(0.98017169 -0.0078262966 3.1242373e-21)
(0.97774103 -0.0091934963 -2.4342454e-21)
(0.97591442 -0.010610522 -3.9792478e-22)
(0.97506412 -0.012034732 -1.2551279e-20)
(0.97557541 -0.013359619 5.9077204e-21)
(0.97756723 -0.014510922 8.9926544e-21)
(0.98088155 -0.015430313 -2.3452762e-22)
(0.98510433 -0.016116981 -5.3800535e-21)
(0.98972302 -0.016606597 -5.8337925e-21)
(0.99430195 -0.016954227 -8.8007059e-22)
(0.99858339 -0.017202524 1.1348819e-21)
(1.0024895 -0.017364665 3.5683661e-21)
(1.0060555 -0.017419927 -9.5880774e-22)
(1.0093518 -0.017322987 -4.35705e-22)
(1.0124311 -0.017018923 3.1258256e-21)
(1.0153084 -0.016458552 -8.7822845e-21)
(1.017962 -0.015611721 -8.4421989e-22)
(1.0203465 -0.01447622 4.6957366e-21)
(1.0224098 -0.013082447 -9.5588042e-21)
(1.0241093 -0.011487741 -3.5011714e-21)
(1.0254247 -0.0097733547 -3.3325767e-21)
(1.0263635 -0.0080222663 -6.4944916e-22)
(1.0269637 -0.0063267072 -2.0455287e-21)
(1.0272825 -0.004738057 1.3197532e-22)
(1.0274025 -0.0033440546 -4.925476e-22)
(1.027383 -0.0021065772 -1.3095483e-22)
(1.0272661 -0.0011631214 7.4283769e-22)
(1.0268354 -0.00027934631 -2.4920818e-21)
(0.99314222 -0.0017895366 1.0438511e-22)
(0.99055313 -0.0025560345 -9.4068875e-24)
(0.98925956 -0.0032489138 -9.9248651e-22)
(0.98717125 -0.0041434439 -2.0393852e-22)
(0.98528915 -0.0050949327 3.0887135e-22)
(0.98305273 -0.0061948307 -1.4541501e-22)
(0.98066457 -0.007376214 -2.663375e-22)
(0.97813952 -0.0087148638 0)
(0.97591646 -0.010145495 -2.8409297e-21)
(0.97436785 -0.011632851 -1.2877218e-20)
(0.97396614 -0.013079789 -3.1339949e-22)
(0.97500048 -0.014404848 -3.1271423e-21)
(0.97752971 -0.015523397 0)
(0.98130208 -0.016399665 1.47487e-22)
(0.98584632 -0.01704306 1.0165401e-20)
(0.99064377 -0.017501877 1.145474e-21)
(0.99529479 -0.017831178 -9.2103818e-21)
(0.99959501 -0.018066583 0)
(1.0035107 -0.018208875 2.5117516e-21)
(1.0070996 -0.018224786 4.579931e-21)
(1.0104341 -0.01805988 -6.4008194e-21)
(1.0135565 -0.017655513 3.423136e-21)
(1.0164661 -0.01696498 0)
(1.0191273 -0.015966572 -8.093765e-21)
(1.0214855 -0.014670974 4.440253e-21)
(1.0234862 -0.013123352 -3.2675406e-22)
(1.0250907 -0.011394747 -3.8274343e-21)
(1.0262877 -0.0095765367 3.6778459e-21)
(1.0270958 -0.0077570785 9.7948847e-23)
(1.0275647 -0.0060291911 -5.105043e-21)
(1.02776 -0.0044415955 4.5108047e-21)
(1.027772 -0.0030769523 1.3838781e-21)
(1.0276619 -0.0018931661 0)
(1.0274766 -0.0010222519 -3.7956329e-23)
(1.0269993 -0.00023207553 -9.8403752e-22)
(0.99301642 -0.0014796965 -8.3624972e-23)
(0.99038426 -0.0021973964 5.5798254e-23)
(0.98909295 -0.002867808 -9.8398346e-22)
(0.98703049 -0.0037324661 2.9035932e-23)
(0.98525385 -0.0046603757 5.5262871e-23)
(0.98312573 -0.00576321 -5.6414111e-23)
(0.98093518 -0.0069343675 -8.7063599e-22)
(0.97851231 -0.0082347627 3.3826977e-24)
(0.97611725 -0.0096482196 0)
(0.97408661 -0.011164413 3.592789e-21)
(0.97290938 -0.012695734 -4.3282312e-21)
(0.97298765 -0.014163843 5.6152494e-22)
(0.974577 -0.015473282 -3.4103181e-21)
(0.97764062 -0.016555302 5.2433186e-21)
(0.9818447 -0.017385204 3.4296621e-21)
(0.98667343 -0.017989096 7.6175387e-21)
(0.99161633 -0.01842196 -1.8378242e-20)
(0.99632013 -0.018736691 -7.1099098e-21)
(1.0006349 -0.018958695 6.5006008e-21)
(1.0045666 -0.019074874 -1.2086378e-20)
(1.0081887 -0.019039372 8.1523356e-21)
(1.0115699 -0.01878986 -8.9649203e-21)
(1.0147379 -0.018266145 0)
(1.0176755 -0.017426809 -1.9914916e-21)
(1.0203335 -0.016261417 1.0026292e-21)
(1.0226501 -0.014795723 4.539463e-21)
(1.024571 -0.013090638 4.9172297e-22)
(1.0260643 -0.01123059 3.0242601e-22)
(1.0271297 -0.0093156959 2.6837592e-21)
(1.0277979 -0.0074378587 0)
(1.0281301 -0.0056886093 4.0538324e-21)
(1.0282001 -0.0041127266 4.5058954e-21)
(1.0281045 -0.0027867925 4.8868033e-23)
(1.0279051 -0.0016649922 -9.867998e-22)
(1.0276533 -0.00087307595 2.7639074e-23)
(1.0271314 -0.00018268859 3.9119534e-21)
(0.99288384 -0.0011613015 -3.2284427e-23)
(0.99018319 -0.0018237729 -3.5050183e-24)
(0.98885745 -0.0024687635 2.3300108e-22)
(0.98677411 -0.003300749 -1.7547029e-23)
(0.9850379 -0.0042055266 3.001913e-22)
(0.98298996 -0.0052818083 6.1419056e-22)
(0.98093164 -0.00645914 1.0784117e-23)
(0.97868504 -0.0077575525 -8.2990338e-22)
(0.976328 -0.0091411828 1.0217787e-23)
(0.97405355 -0.010650658 -2.5361166e-21)
(0.97230753 -0.012230006 -2.6989457e-23)
(0.97153906 -0.013804047 2.381209e-21)
(0.9721467 -0.015278063 2.4310924e-22)
(0.97430747 -0.016564868 4.0879701e-21)
(0.9778953 -0.017604245 -1.9696847e-20)
(0.98249948 -0.018389061 1.5612262e-22)
(0.98757455 -0.018958013 5.9401717e-21)
(0.99263344 -0.019370366 8.0687333e-21)
(0.9973761 -0.019673205 -8.8611188e-21)
(1.0017064 -0.019879118 -2.9434128e-21)
(1.0056637 -0.019960009 3.1193768e-21)
(1.0093303 -0.019857965 -1.0311112e-20)
(1.0127653 -0.019504521 9.1905937e-21)
(1.0159792 -0.01884066 0)
(1.0189373 -0.01783342 3.1681497e-21)
(1.0215782 -0.016486532 8.4452331e-21)
(1.0238356 -0.014842689 -4.4485342e-21)
(1.0256585 -0.012979 8.310521e-21)
(1.0270244 -0.010992399 9.1874189e-23)
(1.0279457 -0.0089899507 -2.9622304e-21)
(1.028466 -0.0070650582 -4.3029962e-21)
(1.0286577 -0.005306104 8.0739675e-22)
(1.0286015 -0.0037527746 -2.1223605e-22)
(1.0283995 -0.0024748029 9.1474723e-22)
(1.028113 -0.0014229948 -6.186547e-22)
(1.0277967 -0.0007163393 -1.5501254e-22)
(1.0272327 -0.00013152707 1.610182e-21)
(0.99276458 -0.00083542665 9.968944e-23)
(0.98997961 -0.0014358368 -4.5281146e-23)
(0.98858966 -0.0020512687 2.1316475e-22)
(0.9864425 -0.0028464049 -6.4860752e-23)
(0.98468682 -0.0037245037 3.1745925e-23)
(0.98266132 -0.0047745113 -2.8214521e-23)
(0.98070981 -0.0059273461 -5.7190941e-22)
(0.97856787 -0.0072396931 2.0999586e-22)
(0.97635976 -0.0086326169 0)
(0.97407283 -0.010117599 4.0931364e-22)
(0.97200034 -0.011704905 0)
(0.97057857 -0.013347035 0)
(0.97028012 -0.014949459 2.6539702e-21)
(0.97145097 -0.016421014 -4.2211446e-22)
(0.97419308 -0.017676519 -2.894849e-21)
(0.9782867 -0.018671311 -5.8264425e-21)
(0.98325507 -0.019413827 1.1973611e-20)
(0.98853967 -0.019953808 5.4255098e-21)
(0.99368976 -0.020350812 7.1310286e-21)
(0.99846332 -0.020642783 3.2781719e-21)
(1.0028149 -0.020827111 -6.6668446e-21)
(1.00681 -0.02086021 7.4076833e-21)
(1.0105322 -0.02067321 6.2689996e-22)
(1.0140264 -0.020193901 -5.5567834e-21)
(1.0172833 -0.019367712 -6.7047445e-22)
(1.0202509 -0.018173596 1.9620047e-21)
(1.0228578 -0.016632211 1.6091642e-23)
(1.0250364 -0.0148046 -4.8611321e-21)
(1.0267424 -0.012783906 -3.7241494e-22)
(1.027965 -0.010678131 -8.4549498e-21)
(1.0287309 -0.0085991267 -1.2837344e-21)
(1.0290968 -0.0066396438 -4.3499484e-22)
(1.0291454 -0.0048831425 -3.8669416e-21)
(1.0289635 -0.0033632485 -6.3420012e-23)
(1.028657 -0.0021423168 -2.7427945e-21)
(1.0282861 -0.0011681039 -7.6265777e-22)
(1.0279077 -0.0005527775 -1.3746365e-21)