/*--------------------------------*- C++ -*----------------------------------*\
| =========                 |                                                 |
| \\      /  F ield         | OpenFOAM: The Open Source CFD Toolbox           |
|  \\    /   O peration     | Version:  5.0                                   |
|   \\  /    A nd           | Web:      www.OpenFOAM.org                      |
|    \\/     M anipulation  |                                                 |
\*---------------------------------------------------------------------------*/
FoamFile
{
    version     2.0;
    format      ascii;
    class       volSymmTensorField;
    location    "30";
    object      UPrime2Mean;
}
// * * * * * * * * * * * * * * * * * * * * * * * * * * * * * * * * * * * * * //

dimensions      [0 2 -2 0 0 0 0];

internalField   nonuniform List<symmTensor> 
9200
(
(8.3122037e-07 -1.621505e-08 1.6686863e-27 3.7449756e-10 -1.4352595e-29 1.315897e-47)
(8.2720727e-07 -5.3132204e-08 -1.3961543e-25 4.1725432e-09 2.5667058e-26 7.1544864e-43)
(9.324e-07 -1.909027e-08 0 4.6012204e-10 0 0)
(8.6658136e-07 -9.0227279e-08 8.3227984e-26 1.1323346e-08 -2.2233555e-26 1.786798e-43)
(9.3536763e-07 -6.3677266e-08 -8.6378288e-26 5.2677971e-09 2.4489458e-26 5.4353299e-43)
(9.9074297e-07 -2.15489e-08 0 5.3930938e-10 0 0)
(9.3881932e-07 -1.2985865e-07 7.3827798e-27 2.132072e-08 -2.9504468e-27 1.8586744e-45)
(9.7730623e-07 -1.0768727e-07 3.0872571e-26 1.426474e-08 6.3707305e-28 9.8280193e-45)
(9.9836795e-07 -7.2460083e-08 0 6.222126e-09 0 0)
(1.0786699e-06 -2.4719192e-08 0 6.4109903e-10 0 0)
(1.037854e-06 -1.7053049e-07 -2.2892183e-25 3.2808003e-08 7.4863728e-26 5.4561061e-43)
(1.0505683e-06 -1.5403144e-07 -2.3466942e-25 2.6838055e-08 4.892293e-26 1.7229549e-43)
(1.0413982e-06 -1.2187431e-07 -7.4329632e-26 1.6774853e-08 2.3880315e-26 1.2274685e-43)
(1.0934728e-06 -8.3609933e-08 -3.9197381e-27 7.4256742e-09 9.2714282e-28 4.8570354e-46)
(1.1642295e-06 -2.7843695e-08 -3.0369427e-28 7.4165385e-10 3.9552057e-30 3.4742762e-49)
(1.1632119e-06 -2.142323e-07 -2.2894594e-25 4.5495879e-08 8.1023349e-26 4.4796677e-43)
(1.1511823e-06 -2.0021814e-07 -3.9813251e-26 4.1065231e-08 -2.7320963e-27 2.2115077e-44)
(1.1134171e-06 -1.7358157e-07 -2.8892545e-25 3.1584207e-08 1.0652541e-25 1.1571644e-42)
(1.1390924e-06 -1.3985065e-07 -1.6853564e-25 1.9901996e-08 3.4843648e-26 1.2483601e-43)
(1.1860845e-06 -9.4475149e-08 -3.2263005e-26 8.5918933e-09 1.0786059e-27 4.5493535e-45)
(1.2664633e-06 -3.1404645e-08 1.1151703e-25 8.542987e-10 -9.0284466e-27 7.8706039e-43)
(1.3154899e-06 -2.6198027e-07 -4.0081065e-25 5.9066632e-08 1.0474649e-25 3.0253812e-43)
(1.2814117e-06 -2.4866645e-07 -1.7255366e-25 5.6427899e-08 9.7724311e-26 7.2585781e-43)
(1.2118703e-06 -2.2454871e-07 1.607239e-25 4.837858e-08 -7.6992802e-26 4.5021966e-43)
(1.2113662e-06 -1.9837913e-07 2.5260242e-26 3.7482201e-08 -5.160872e-27 1.0105409e-45)
(1.233308e-06 -1.5726369e-07 -7.7249086e-26 2.2906889e-08 3.0526954e-26 1.8477493e-43)
(1.2960055e-06 -1.0670814e-07 -1.0420821e-25 9.8721926e-09 1.9528374e-26 1.3999902e-43)
(1.3706761e-06 -3.4905994e-08 -2.8940222e-26 9.6229459e-10 9.7952054e-28 2.3247231e-45)
(1.4926865e-06 -3.1542576e-07 -4.2612781e-25 7.3890063e-08 8.4377917e-26 1.5848495e-43)
(1.4447759e-06 -3.0018354e-07 -2.7193736e-25 7.2128301e-08 8.9358203e-26 2.1430713e-43)
(1.3396524e-06 -2.7747739e-07 -2.8321804e-25 6.6555891e-08 1.0680199e-25 4.0190119e-43)
(1.3096488e-06 -2.5534397e-07 -9.7462525e-26 5.740847e-08 7.3557943e-27 3.7998802e-44)
(1.3041041e-06 -2.2231042e-07 3.3099313e-25 4.3176683e-08 -1.1015387e-25 7.5157383e-43)
(1.3454202e-06 -1.7678586e-07 1.6686039e-25 2.6169811e-08 -3.7679448e-26 1.2249658e-43)
(1.4079289e-06 -1.1868427e-07 8.5526018e-27 1.1088174e-08 -1.9022771e-26 3.7508989e-43)
(1.4878783e-06 -3.8617541e-08 -3.031075e-26 1.0719813e-09 6.8746341e-27 7.3419724e-43)
(1.6860486e-06 -3.7642538e-07 6.8603208e-25 9.1033738e-08 -1.7743685e-25 4.4484102e-43)
(1.6435541e-06 -3.5648828e-07 -1.6469728e-25 8.8128283e-08 9.6183554e-26 5.0989498e-43)
(1.5010733e-06 -3.3302042e-07 -9.6037461e-26 8.5045086e-08 8.211942e-27 3.4248251e-44)
(1.4378332e-06 -3.1381006e-07 -1.0069867e-25 7.8950954e-08 5.3008097e-26 1.2905734e-43)
(1.3996039e-06 -2.8495881e-07 -2.2422887e-25 6.6199961e-08 1.9869113e-26 1.8270919e-43)
(1.4152381e-06 -2.4924948e-07 4.3174388e-25 4.9401361e-08 -1.659785e-25 1.8950339e-42)
(1.4594003e-06 -1.9581019e-07 3.0486552e-25 2.9239556e-08 -4.9115218e-27 7.2220903e-43)
(1.5332758e-06 -1.3133465e-07 -5.2934464e-27 1.2312761e-08 -2.9603298e-26 1.0239093e-42)
(1.6090345e-06 -4.2169379e-08 -4.1626835e-27 1.1697913e-09 -1.255354e-26 3.2915897e-42)
(1.8768837e-06 -4.4616481e-07 -7.151539e-25 1.1230006e-07 1.7971725e-25 3.3870068e-43)
(1.8749801e-06 -4.1966702e-07 -9.8369078e-26 1.0503635e-07 -2.9954158e-26 4.0875455e-43)
(1.6998405e-06 -3.9289743e-07 4.0756978e-26 1.0360399e-07 -7.1910976e-27 2.0905567e-45)
(1.6014739e-06 -3.7417847e-07 3.3406466e-25 1.0062919e-07 -3.0476713e-26 3.9646244e-43)
(1.5243023e-06 -3.4864051e-07 8.6265179e-26 9.11761e-08 -2.4969858e-26 8.490926e-45)
(1.5083957e-06 -3.1844908e-07 -3.9126944e-25 7.5887493e-08 3.9490708e-26 5.0064222e-43)
(1.5278826e-06 -2.7553219e-07 -1.6197394e-25 5.5300789e-08 5.9318058e-26 2.0749934e-43)
(1.5873434e-06 -2.1585977e-07 -1.6391455e-25 3.2300792e-08 6.585519e-26 7.6529877e-43)
(1.6623089e-06 -1.4341159e-07 -1.2689684e-25 1.3400453e-08 2.3229273e-26 1.7617797e-43)
(1.7394164e-06 -4.5620264e-08 -2.8681926e-26 1.2550888e-09 1.4198615e-27 1.0691763e-44)
(2.0312285e-06 -5.2432217e-07 3.1343541e-25 1.4058491e-07 -8.7215185e-26 6.3886877e-44)
(2.127759e-06 -4.9155204e-07 -2.6499221e-25 1.2414231e-07 3.5549104e-26 1.6822532e-43)
(1.9356285e-06 -4.5913516e-07 -1.2598321e-25 1.2260125e-07 8.1234276e-26 3.1067316e-43)
(1.8062676e-06 -4.381177e-07 2.9733765e-25 1.2186525e-07 -1.0648532e-25 1.515013e-43)
(1.6844503e-06 -4.1349509e-07 1.7330259e-25 1.162579e-07 6.9358953e-26 1.3595415e-42)
(1.6297598e-06 -3.8819756e-07 2.1402319e-25 1.0477695e-07 -2.127953e-25 2.9019646e-42)
(1.6180808e-06 -3.5116421e-07 -1.358919e-25 8.5156646e-08 1.5354481e-26 5.4049872e-44)
(1.6549296e-06 -3.0342553e-07 -6.269363e-26 6.1256351e-08 1.2462075e-25 2.817671e-42)
(1.7193145e-06 -2.3491108e-07 -1.4340813e-26 3.4981538e-08 -3.9045487e-26 7.0450395e-43)
(1.8006467e-06 -1.5518121e-07 -8.5572091e-26 1.4353055e-08 5.1862714e-26 2.3166001e-42)
(1.8721334e-06 -4.866458e-08 -7.0389635e-26 1.3171579e-09 -1.4449119e-28 9.4706152e-44)
(2.0988206e-06 -6.0596833e-07 6.2721181e-26 1.7962269e-07 -1.5270901e-26 5.1185611e-45)
(2.3751533e-06 -5.736752e-07 5.0007367e-25 1.4787662e-07 -8.6557295e-26 4.1529562e-43)
(2.2011853e-06 -5.3355638e-07 4.0916712e-25 1.4304143e-07 -1.1653669e-25 1.0677306e-43)
(2.0551419e-06 -5.0757797e-07 0 1.4264226e-07 0 0)
(1.887021e-06 -4.8114929e-07 -2.9326035e-26 1.4057058e-07 5.4011947e-27 1.1296642e-45)
(1.7859901e-06 -4.5826021e-07 4.4349194e-25 1.338051e-07 -5.8808997e-26 4.92289e-43)
(1.7351395e-06 -4.2692083e-07 3.5481218e-26 1.1796103e-07 -4.2685565e-26 1.2012271e-43)
(1.742481e-06 -3.8618001e-07 4.7301328e-26 9.4656449e-08 -8.1013535e-26 6.986233e-43)
(1.7865213e-06 -3.3009796e-07 5.0805837e-25 6.6547188e-08 -5.8590787e-26 6.0178495e-43)
(1.8613481e-06 -2.5344969e-07 -8.8796025e-27 3.7296428e-08 -4.6614569e-26 9.7088652e-43)
(1.9411228e-06 -1.6560707e-07 -6.9683028e-26 1.5053292e-08 -1.3490597e-26 4.8042506e-43)
(2.011756e-06 -5.1298237e-08 4.0180252e-27 1.3538026e-09 7.0978129e-28 1.70443e-44)
(2.0194407e-06 -6.7902937e-07 2.7663967e-27 2.3417708e-07 -1.5320621e-28 1.6670966e-46)
(2.5689803e-06 -6.6456085e-07 -1.1564776e-25 1.7965244e-07 1.1676478e-26 8.8327791e-44)
(2.4753976e-06 -6.1786301e-07 0 1.6698743e-07 0 0)
(2.3457728e-06 -5.8443622e-07 0 1.6356979e-07 0 0)
(2.1373248e-06 -5.5346964e-07 -2.9341756e-26 1.6374066e-07 -3.3815655e-26 1.4632333e-43)
(1.985518e-06 -5.3026169e-07 6.0732862e-25 1.6177331e-07 -4.2177218e-26 1.5498108e-42)
(1.885916e-06 -5.0220572e-07 -3.1007438e-25 1.5107198e-07 -4.7411671e-26 1.5930739e-42)
(1.8551721e-06 -4.6875963e-07 -2.171705e-25 1.3172877e-07 1.3256786e-25 5.9228875e-43)
(1.8716643e-06 -4.1986615e-07 -5.5088505e-26 1.0323376e-07 1.4485099e-26 2.6693121e-45)
(1.9291106e-06 -3.563495e-07 -6.4924336e-27 7.1229524e-08 7.9766262e-28 8.5483461e-47)
(2.0060773e-06 -2.6975212e-07 2.9829586e-25 3.8939062e-08 2.5400045e-26 2.0645433e-42)
(2.0881053e-06 -1.7470079e-07 -6.4341214e-25 1.5482141e-08 7.966454e-27 3.3142129e-42)
(2.1495871e-06 -5.3170567e-08 9.5345834e-25 1.3551886e-09 -7.0668808e-27 8.3534395e-42)
(1.7450195e-06 -7.2089277e-07 -1.7104532e-25 3.0963281e-07 6.4692635e-26 4.7973446e-44)
(2.638257e-06 -7.5782846e-07 8.1719951e-27 2.244615e-07 -1.6123612e-28 1.4648468e-45)
(2.7164007e-06 -7.112435e-07 -2.1259378e-26 1.9735326e-07 -2.6079666e-26 1.6327279e-43)
(2.6634992e-06 -6.7082809e-07 9.7691893e-26 1.863545e-07 2.176801e-26 2.4350071e-43)
(2.4373313e-06 -6.3244802e-07 -1.2399023e-25 1.8604278e-07 -2.2811411e-26 2.7097869e-43)
(2.2357983e-06 -6.059449e-07 2.297741e-25 1.8788982e-07 -2.4838987e-26 1.4872616e-43)
(2.0785301e-06 -5.7834635e-07 -1.1058676e-25 1.8294448e-07 5.1492113e-26 3.1478353e-44)
(1.9999028e-06 -5.5008177e-07 -3.5211897e-26 1.6943936e-07 5.1190966e-27 2.8954214e-45)
(1.979613e-06 -5.0925597e-07 -5.8318104e-25 1.4441526e-07 1.852966e-25 3.0723185e-43)
(2.0131995e-06 -4.5353123e-07 -6.0956783e-25 1.1105048e-07 1.5582518e-25 2.9809773e-43)
(2.0752376e-06 -3.7974028e-07 9.973749e-27 7.4695698e-08 1.8821478e-26 9.7425926e-44)
(2.158432e-06 -2.838968e-07 1.2649813e-26 3.9874609e-08 3.5570648e-26 6.2579257e-43)
(2.2329301e-06 -1.813086e-07 7.3448975e-26 1.5532167e-08 8.9017517e-27 3.1501369e-43)
(2.290328e-06 -5.4266598e-08 -3.3371671e-25 1.3212769e-09 3.5640908e-27 6.7506434e-43)
(1.277531e-06 -6.9645158e-07 7.3631866e-25 4.1103771e-07 -4.4902548e-25 7.1148788e-43)
(2.5027051e-06 -8.3822577e-07 3.3505587e-25 2.890164e-07 -6.8040436e-26 1.093875e-42)
(2.8564702e-06 -8.091307e-07 2.2722566e-25 2.3869862e-07 -6.3727899e-26 2.4730763e-44)
(2.9745979e-06 -7.6722055e-07 -5.0604746e-26 2.1355253e-07 8.3902625e-27 4.5095332e-45)
(2.7785422e-06 -7.2069389e-07 5.4865368e-26 2.0894125e-07 -8.9887654e-27 4.4062659e-45)
(2.541688e-06 -6.8690591e-07 -3.3427713e-25 2.1187888e-07 4.2592647e-26 2.434831e-43)
(2.321703e-06 -6.5681284e-07 -1.3193532e-25 2.1232665e-07 5.7242486e-26 2.7388636e-44)
(2.1852001e-06 -6.3144181e-07 1.6051744e-25 2.059829e-07 -7.1267548e-26 4.4720305e-44)
(2.1168912e-06 -5.9659804e-07 2.4594551e-25 1.8672469e-07 -3.9025994e-26 1.2631355e-43)
(2.1180034e-06 -5.5053867e-07 1.1106048e-25 1.5640069e-07 -2.6818619e-26 9.9109296e-45)
(2.1589062e-06 -4.8390458e-07 6.5004068e-28 1.1708625e-07 -1.6840744e-27 3.2575756e-46)
(2.2307884e-06 -4.0054574e-07 3.4858329e-25 7.6899696e-08 -4.7462555e-26 1.7464912e-43)
(2.3093908e-06 -2.9398502e-07 -3.8090688e-25 3.9830574e-08 -1.0590774e-26 1.8729696e-42)
(2.3801265e-06 -1.8540139e-07 3.5771677e-25 1.5204523e-08 -9.1159276e-27 6.5363363e-43)
(2.425695e-06 -5.426908e-08 -3.8515133e-25 1.2469183e-09 5.1992711e-27 5.174753e-43)
(7.1263797e-07 -5.608658e-07 -5.1314784e-26 5.4169813e-07 8.7499714e-26 5.4277563e-44)
(2.105814e-06 -8.7621143e-07 7.1532624e-26 3.8114459e-07 -5.2915949e-26 1.9386021e-43)
(2.8097854e-06 -8.9997418e-07 1.5747108e-25 2.9760609e-07 -2.9601456e-26 1.6114326e-43)
(3.2179394e-06 -8.7266803e-07 -7.6216973e-26 2.4999594e-07 -1.7431129e-26 2.2382839e-43)
(3.1342385e-06 -8.1889019e-07 1.2426684e-25 2.3452758e-07 1.8509801e-26 2.6388726e-43)
(2.9013661e-06 -7.7609443e-07 2.4882285e-25 2.3482047e-07 -1.5571671e-25 5.0103586e-43)
(2.6241574e-06 -7.3947005e-07 4.8838154e-25 2.3862561e-07 2.2614627e-26 1.7014169e-42)
(2.4203873e-06 -7.1401464e-07 -7.935922e-26 2.3966226e-07 1.1457373e-26 1.2927314e-44)
(2.2918615e-06 -6.8298323e-07 4.4931447e-26 2.2809582e-07 -4.1233073e-26 4.25196e-44)
(2.2494896e-06 -6.4509844e-07 7.6332307e-25 2.0367589e-07 -1.3094332e-25 1.0829665e-42)
(2.2607778e-06 -5.8826297e-07 2.2908044e-25 1.6608736e-07 -2.571591e-25 3.5640417e-42)
(2.3163274e-06 -5.1168592e-07 6.4687021e-25 1.2132721e-07 -5.0050837e-26 1.7418703e-42)
(2.3862242e-06 -4.1598567e-07 1.2466041e-25 7.727217e-08 5.8229639e-27 2.0877539e-43)
(2.4639095e-06 -2.999704e-07 -1.0719106e-25 3.8815684e-08 1.5780427e-26 1.2353992e-44)
(2.5212138e-06 -1.8590767e-07 -2.1309359e-25 1.4436334e-08 1.2877615e-26 5.098778e-44)
(2.5575462e-06 -5.3096497e-08 4.9528826e-25 1.1347117e-09 -6.7414145e-27 6.7657857e-43)
(2.6111877e-07 -2.6937035e-07 0 7.0082696e-07 0 0)
(1.4698493e-06 -8.2554999e-07 -1.1236107e-25 5.0858264e-07 5.4895892e-26 3.6308661e-43)
(2.4957834e-06 -9.5874909e-07 -3.4981821e-25 3.8220762e-07 1.4360553e-25 6.8200496e-44)
(3.298293e-06 -9.7778491e-07 0 3.014648e-07 0 0)
(3.4498519e-06 -9.2655276e-07 0 2.6680947e-07 0 0)
(3.2976389e-06 -8.7498916e-07 0 2.5849477e-07 0 0)
(2.9888708e-06 -8.2927043e-07 -1.4494127e-25 2.6247647e-07 2.499557e-26 2.6139912e-44)
(2.7160985e-06 -7.9930708e-07 -2.8818984e-25 2.6929902e-07 1.4275928e-25 1.6404527e-43)
(2.5144821e-06 -7.6933955e-07 -1.1154777e-24 2.6641197e-07 1.7574846e-25 2.3115144e-42)
(2.4152423e-06 -7.3798518e-07 -2.0960818e-25 2.5060269e-07 1.3343223e-25 2.5103125e-43)
(2.386067e-06 -6.898634e-07 -2.9500528e-25 2.1794038e-07 5.3930843e-26 1.437008e-43)
(2.4177672e-06 -6.2388842e-07 -9.8895424e-26 1.7359034e-07 6.1798984e-26 1.2044462e-43)
(2.4752391e-06 -5.3313909e-07 -1.5370355e-25 1.2278374e-07 2.1150324e-26 4.3912171e-44)
(2.5473087e-06 -4.2610162e-07 -1.1320972e-25 7.5829681e-08 -8.6855128e-27 2.1361703e-43)
(2.6132801e-06 -3.0010999e-07 1.4548371e-25 3.6680584e-08 -1.6522587e-26 1.728818e-44)
(2.6581123e-06 -1.8259934e-07 -2.3626646e-25 1.3255265e-08 7.8435522e-27 1.6802591e-43)
(2.6804152e-06 -5.0539459e-08 0 9.8771968e-10 0 0)
(2.1274176e-07 2.0434683e-07 1.9630833e-26 8.8070235e-07 2.3120365e-26 7.9073531e-44)
(7.5055911e-07 -6.2715707e-07 -4.6400747e-26 6.7658663e-07 8.2636912e-26 4.7503351e-43)
(1.8939401e-06 -9.4196541e-07 -1.0274018e-25 5.0011488e-07 1.5518593e-26 1.583276e-42)
(3.111581e-06 -1.0623106e-06 -5.1818776e-25 3.7520815e-07 1.4340224e-25 7.3742194e-43)
(3.6368087e-06 -1.0391713e-06 -4.6399941e-25 3.1208034e-07 7.0585975e-26 7.6071478e-43)
(3.6861361e-06 -9.8430637e-07 0 2.8656051e-07 0 0)
(3.407394e-06 -9.2796408e-07 -9.1145704e-25 2.8513449e-07 1.1258042e-25 1.6171996e-42)
(3.0800927e-06 -8.903483e-07 4.6783916e-25 2.9503006e-07 -7.7269139e-26 2.9273563e-43)
(2.797095e-06 -8.5704086e-07 6.7983223e-25 3.0001337e-07 5.0623906e-26 3.2345219e-42)
(2.6249778e-06 -8.2959799e-07 -1.5381917e-24 2.9458684e-07 2.6385955e-25 3.9752041e-42)
(2.5415918e-06 -7.8920712e-07 1.4942124e-25 2.7027817e-07 -8.3891497e-26 7.2859133e-44)
(2.5392731e-06 -7.3347583e-07 -3.9921157e-25 2.2990942e-07 7.6770304e-26 2.3307973e-43)
(2.5780236e-06 -6.526139e-07 4.3444268e-25 1.7733212e-07 1.0115863e-26 1.6459594e-42)
(2.642397e-06 -5.4846486e-07 -3.7074808e-26 1.2147597e-07 -9.5401547e-26 1.6204027e-42)
(2.7050841e-06 -4.2834262e-07 4.8686174e-25 7.2232587e-08 -7.5048879e-26 1.7951067e-43)
(2.7595448e-06 -2.9400882e-07 -1.6141133e-24 3.3504516e-08 7.0363824e-26 8.2098073e-42)
(2.7850767e-06 -1.7475783e-07 -5.8939189e-25 1.1683318e-08 1.7029316e-26 1.0252052e-42)
(2.7933506e-06 -4.649152e-08 -8.8486831e-25 8.1420235e-10 1.0758308e-26 1.3814697e-42)
(8.2691147e-07 8.4695008e-07 -4.0034995e-26 1.0654045e-06 -4.760423e-26 2.428429e-45)
(2.5032677e-07 -2.2477944e-07 -2.4249354e-27 8.8358055e-07 -7.3895753e-27 1.3927562e-43)
(1.1135367e-06 -7.9142191e-07 -1.1662164e-25 6.5573413e-07 1.0488255e-25 2.990175e-44)
(2.592568e-06 -1.0918823e-06 -1.5982455e-25 4.8105687e-07 4.0755994e-26 5.3736653e-43)
(3.5819897e-06 -1.1430437e-06 6.6917611e-26 3.7874969e-07 -1.5111142e-26 1.3357028e-44)
(3.9865404e-06 -1.1024235e-06 5.6985019e-25 3.2495771e-07 -1.7619583e-25 1.07007e-43)
(3.8486086e-06 -1.0377246e-06 2.2051677e-24 3.1002819e-07 -4.4444692e-25 3.9252117e-42)
(3.5118861e-06 -9.8893959e-07 2.0814012e-24 3.1747506e-07 -2.6448315e-25 7.5053591e-42)
(3.1510102e-06 -9.4911975e-07 7.9934495e-25 3.2850277e-07 -1.0442367e-25 1.1409158e-42)
(2.8919175e-06 -9.2093773e-07 5.8122926e-25 3.3338299e-07 -2.2638324e-25 1.8565862e-43)
(2.7366137e-06 -8.8618925e-07 3.8720715e-25 3.2014086e-07 -7.161594e-26 2.2790923e-43)
(2.6863397e-06 -8.4054768e-07 1.516125e-25 2.879123e-07 -1.6081473e-25 6.0935564e-43)
(2.6975285e-06 -7.7003257e-07 7.4690262e-25 2.3727335e-07 -1.0066937e-25 1.3676369e-42)
(2.7494152e-06 -6.7490034e-07 -2.7560258e-25 1.7732746e-07 5.3964454e-26 7.7022941e-44)
(2.8087578e-06 -5.5428649e-07 -4.0313947e-25 1.1677495e-07 6.7476526e-26 1.4761996e-43)
(2.8618169e-06 -4.2212966e-07 2.2387343e-25 6.6601938e-08 -1.069632e-26 1.902211e-43)
(2.8968145e-06 -2.8048671e-07 -6.6744306e-25 2.9357752e-08 3.1013112e-26 1.0504846e-42)
(2.9011449e-06 -1.6205552e-07 1.5849921e-25 9.8022661e-09 -6.8403075e-27 2.5391413e-44)
(2.8930988e-06 -4.085481e-08 -1.0434008e-24 6.264554e-10 1.1132817e-26 1.5463865e-42)
(2.1916096e-06 1.5953673e-06 -6.3971607e-25 1.2331895e-06 -4.8879608e-25 2.0454175e-43)
(3.4161894e-07 4.0728767e-07 -1.7033052e-26 1.1168872e-06 -6.8971031e-26 1.1929384e-43)
(4.2522257e-07 -4.4863232e-07 -3.0457436e-25 8.4971007e-07 4.8614245e-25 3.7810111e-42)
(1.7806908e-06 -1.0133784e-06 1.5117149e-25 6.3057942e-07 -9.223763e-26 1.5345453e-43)
(3.1829212e-06 -1.2076137e-06 1.5423952e-25 4.760806e-07 -7.7050777e-26 5.5162742e-44)
(4.080763e-06 -1.2202714e-06 2.6960646e-25 3.8189356e-07 -8.8788591e-26 2.3686467e-44)
(4.2439647e-06 -1.1585229e-06 -2.1531509e-25 3.4252482e-07 3.6410271e-26 6.6292948e-44)
(3.9917765e-06 -1.0974377e-06 2.4156305e-25 3.3938164e-07 -1.4622819e-25 2.7671777e-43)
(3.5825482e-06 -1.0473424e-06 3.5938383e-25 3.5178655e-07 -4.8001081e-26 2.0008315e-43)
(3.2298958e-06 -1.0148234e-06 1.5328213e-24 3.6592642e-07 -1.0489648e-25 6.320742e-42)
(2.9845475e-06 -9.8138407e-07 5.3417271e-25 3.647616e-07 -3.1948798e-25 6.9082198e-43)
(2.8672931e-06 -9.4431535e-07 -4.5858159e-25 3.4431423e-07 1.2283905e-25 1.6044004e-43)
(2.8377104e-06 -8.8511479e-07 -3.475337e-25 3.0038838e-07 1.2826513e-25 7.5521393e-44)
(2.8698748e-06 -8.0034269e-07 4.3568416e-26 2.4002973e-07 -1.2190437e-26 1.1346468e-45)
(2.9230983e-06 -6.8654214e-07 -4.1983876e-25 1.7252155e-07 7.6352066e-26 1.8378949e-43)
(2.9768161e-06 -5.4978841e-07 7.3038579e-25 1.088027e-07 -3.4039797e-26 2.2435238e-42)
(3.0115324e-06 -4.0570429e-07 -8.1700061e-25 5.9021193e-08 7.5467114e-26 8.7508099e-43)
(3.0240094e-06 -2.5898089e-07 1.0316279e-24 2.4463351e-08 -3.8660272e-26 2.4423731e-42)
(3.003018e-06 -1.4415065e-07 2.9669063e-25 7.7309632e-09 -7.3485296e-27 1.7029685e-43)
(2.9774197e-06 -3.3597803e-08 1.2054434e-24 4.4137231e-10 -1.0212459e-26 1.8547046e-42)
(4.1449649e-06 2.3494188e-06 9.2879289e-26 1.3629102e-06 5.2602481e-26 5.7520098e-45)
(1.3040485e-06 1.2375027e-06 -1.3147126e-26 1.35242e-06 -4.6189955e-26 2.2198117e-43)
(2.1099364e-07 1.2430309e-07 6.0240286e-26 1.073077e-06 2.6420819e-25 1.6691844e-43)
(8.8207444e-07 -7.5594705e-07 2.8302967e-26 8.3025671e-07 -2.5780237e-26 3.0154028e-43)
(2.4169157e-06 -1.1810329e-06 3.2602372e-25 6.1300119e-07 -1.7620579e-25 9.2174064e-44)
(3.8387353e-06 -1.3144728e-06 2.3289815e-25 4.6726321e-07 -4.8033391e-26 2.9971218e-43)
(4.4802585e-06 -1.2850945e-06 -1.4707492e-24 3.9043209e-07 2.784691e-25 3.5140184e-42)
(4.466564e-06 -1.2173677e-06 -3.559272e-24 3.6563908e-07 5.7053389e-25 1.6067261e-41)
(4.0836078e-06 -1.1545041e-06 -1.0825758e-24 3.7203551e-07 3.4926941e-25 3.9373639e-43)
(3.650884e-06 -1.1128341e-06 0 3.912673e-07 0 0)
(3.3008342e-06 -1.0773629e-06 -4.4556132e-25 4.0242862e-07 2.4302509e-25 2.9277341e-43)
(3.0951964e-06 -1.0447866e-06 -1.3327846e-24 3.9584863e-07 2.5386716e-25 2.3282909e-42)
(3.0055636e-06 -9.9632096e-07 -4.002088e-25 3.6321622e-07 -6.2744712e-26 1.566292e-42)
(3.0058824e-06 -9.2412561e-07 1.2598495e-24 3.0766453e-07 -1.8987898e-25 3.1731665e-42)
(3.048017e-06 -8.1946428e-07 2.5061895e-25 2.365837e-07 -9.4589234e-26 7.6155536e-44)
(3.1018266e-06 -6.864384e-07 3.2206361e-25 1.629508e-07 1.9754928e-26 1.0278743e-42)
(3.1406404e-06 -5.3257062e-07 -6.733389e-25 9.7595713e-08 9.4139952e-26 3.9075188e-43)
(3.1530072e-06 -3.7817209e-07 -6.8457785e-25 4.9872461e-08 4.9433477e-26 6.9461992e-43)
(3.1375106e-06 -2.2887965e-07 1.0531539e-24 1.9137757e-08 -4.2681761e-26 1.6013772e-42)
(3.0883134e-06 -1.2093959e-07 -4.4225803e-26 5.6387958e-09 2.1833249e-27 2.0705019e-45)
(3.0442759e-06 -2.4722538e-08 1.3193433e-24 2.7961572e-10 -7.8083812e-27 1.9738963e-42)
(6.3224531e-06 3.0033669e-06 2.50969e-24 1.4410719e-06 1.2038007e-24 1.0217383e-42)
(3.1612091e-06 2.171846e-06 -1.9504069e-26 1.5594868e-06 -2.6821563e-26 1.0193668e-43)
(8.2188461e-07 9.1600424e-07 -2.3888099e-25 1.3088712e-06 -3.9089123e-25 5.2878891e-43)
(2.7599312e-07 -2.5351691e-07 -1.0081628e-25 1.0762696e-06 2.8694447e-25 8.2456046e-43)
(1.4219624e-06 -9.9392794e-07 9.3099946e-26 7.9690602e-07 -7.4989842e-26 7.0415773e-43)
(3.1801372e-06 -1.3409621e-06 2.1098686e-25 5.9159553e-07 -1.0320076e-25 2.4028831e-44)
(4.4119155e-06 -1.401052e-06 0 4.6410083e-07 0 0)
(4.8354232e-06 -1.3469012e-06 1.0713816e-24 4.0365598e-07 -3.2637935e-25 3.2565539e-43)
(4.6169229e-06 -1.2730359e-06 1.5910099e-24 3.9351772e-07 -3.2149934e-25 1.7313228e-42)
(4.156984e-06 -1.2178612e-06 8.6333309e-25 4.1079536e-07 8.6543773e-26 4.0750734e-42)
(3.7015861e-06 -1.175413e-06 -7.9157544e-25 4.3125687e-07 2.192393e-25 3.0575534e-43)
(3.3861804e-06 -1.1441032e-06 -6.5121774e-25 4.4011225e-07 1.03293e-25 6.0743623e-43)
(3.2131794e-06 -1.1029694e-06 2.6411178e-25 4.2210778e-07 -5.3586101e-26 8.3307322e-44)
(3.1627746e-06 -1.0438896e-06 -2.139302e-25 3.7675005e-07 1.0516655e-25 5.6839218e-44)
(3.1834873e-06 -9.5206588e-07 -5.16916e-25 3.0751691e-07 4.6597445e-26 8.0731743e-43)
(3.2350473e-06 -8.2598354e-07 5.4686196e-25 2.2677142e-07 -5.7498338e-26 7.4801474e-43)
(3.2799437e-06 -6.7148457e-07 -3.2207338e-26 1.4848712e-07 -3.8729323e-27 1.399319e-44)
(3.2988523e-06 -5.0129102e-07 5.8240535e-25 8.3668662e-08 -2.9510706e-26 9.4974827e-43)
(3.2823731e-06 -3.3853112e-07 -4.108825e-25 3.9710739e-08 3.89015e-26 1.1242473e-43)
(3.2351788e-06 -1.8991449e-07 -8.81356e-26 1.382508e-08 4.6163532e-27 5.2395339e-45)
(3.1548741e-06 -9.2478208e-08 7.1997093e-25 3.7355829e-09 -1.1277812e-26 6.0213129e-43)
(3.0918983e-06 -1.424976e-08 0 1.652896e-10 0 0)
(8.3009889e-06 3.4775323e-06 1.3087124e-24 1.4633158e-06 5.5094958e-25 2.1959593e-43)
(5.636862e-06 3.0811677e-06 -2.5121535e-26 1.7137777e-06 -1.1495331e-26 1.8190674e-44)
(2.3999385e-06 1.8573975e-06 -6.4538243e-26 1.531968e-06 -5.0830134e-26 3.4065704e-45)
(4.1126752e-07 5.2031504e-07 -2.4116993e-26 1.3481386e-06 1.1876847e-25 7.8290725e-43)
(5.3656143e-07 -5.7422939e-07 6.0095155e-26 1.0298447e-06 -1.6631816e-25 4.0849348e-43)
(2.1605371e-06 -1.2329188e-06 -6.5206284e-26 7.6532611e-07 2.9384692e-26 2.0144378e-43)
(3.9100519e-06 -1.4699703e-06 -7.852592e-25 5.7508456e-07 3.3013219e-25 2.3337886e-43)
(4.9492629e-06 -1.4758425e-06 -1.1190163e-24 4.6360423e-07 1.7984845e-25 3.2154652e-42)
(5.0982901e-06 -1.4032275e-06 -5.6130876e-26 4.2302247e-07 -4.9760941e-26 2.0792258e-43)
(4.7267154e-06 -1.3327844e-06 -2.5983867e-25 4.2800769e-07 4.2602291e-26 6.3550227e-44)
(4.1972465e-06 -1.2783606e-06 8.4199427e-26 4.5170799e-07 -1.5399547e-26 6.1106208e-45)
(3.7592166e-06 -1.2431232e-06 1.779249e-24 4.7418779e-07 -2.9873327e-25 3.6214991e-42)
(3.4765245e-06 -1.2066105e-06 4.722997e-26 4.7402585e-07 -3.1534266e-26 5.4715306e-45)
(3.3511872e-06 -1.1581561e-06 -2.5360029e-24 4.4340241e-07 6.4134024e-25 5.21555e-42)
(3.332818e-06 -1.0811459e-06 -7.0916903e-25 3.8202524e-07 2.9174975e-25 3.440136e-43)
(3.3741125e-06 -9.6723165e-07 -8.5058198e-27 2.9944912e-07 1.0466634e-25 5.3431912e-43)
(3.4258738e-06 -8.1609767e-07 3.6703497e-25 2.1016136e-07 -7.3739879e-26 9.8243379e-44)
(3.4559823e-06 -6.3975455e-07 -7.7947527e-25 1.2968401e-07 2.2316976e-26 2.3752922e-42)
(3.4473709e-06 -4.5443146e-07 -2.0923521e-25 6.7811145e-08 1.8992005e-26 4.4385327e-44)
(3.397058e-06 -2.8620783e-07 5.6530442e-25 2.9335409e-08 -2.1834573e-26 4.7504914e-43)
(3.3142717e-06 -1.4208567e-07 0 9.0822922e-09 0 0)
(3.2010587e-06 -5.8898666e-08 -1.8171837e-24 2.2647234e-09 1.2424719e-26 3.4924981e-42)
(3.1191638e-06 -2.2366977e-09 2.5585767e-26 1.2608069e-10 -1.6188565e-29 3.2633853e-46)
(9.7473348e-06 3.7344116e-06 -5.7417392e-24 1.4333526e-06 -2.207534e-24 3.413493e-42)
(8.2656151e-06 3.8445169e-06 3.2971333e-25 1.8016698e-06 1.4951537e-25 8.7514716e-44)
(4.7863162e-06 2.8329971e-06 -1.0446433e-24 1.7153468e-06 -6.4214249e-25 4.0217089e-43)
(1.6039809e-06 1.5165682e-06 -2.2303556e-25 1.6152391e-06 -2.5287296e-25 1.1167458e-43)
(2.3599698e-07 1.2680597e-07 -1.8886938e-26 1.3051843e-06 2.4712221e-25 8.9028949e-43)
(1.0442307e-06 -9.0813118e-07 0 9.9738984e-07 0 0)
(2.9509486e-06 -1.4299953e-06 -1.5156878e-25 7.3471254e-07 8.4398561e-26 1.2501392e-44)
(4.6440584e-06 -1.5771105e-06 2.0532587e-25 5.5782589e-07 -1.2323433e-25 2.573973e-43)
(5.3857298e-06 -1.5396065e-06 -1.2843934e-24 4.7032022e-07 2.3091089e-25 2.186718e-42)
(5.2958325e-06 -1.459355e-06 -3.2859084e-24 4.4899563e-07 6.2784997e-25 7.6407958e-42)
(4.7808597e-06 -1.3893167e-06 1.8448306e-26 4.6636272e-07 1.4497619e-25 5.6060347e-43)
(4.2313879e-06 -1.3445353e-06 8.4850147e-25 4.9748098e-07 -5.8784318e-26 1.3384371e-42)
(3.8161172e-06 -1.3075074e-06 -8.9224524e-25 5.1500257e-07 4.5512666e-26 1.8276549e-42)
(3.5862118e-06 -1.2677182e-06 -1.2873656e-25 5.0405043e-07 1.9106695e-25 4.3946287e-43)
(3.5046792e-06 -1.2043464e-06 -2.2082514e-25 4.562033e-07 -1.6262108e-25 1.5715132e-42)
(3.5200213e-06 -1.1061885e-06 9.2601565e-25 3.7809575e-07 -4.5248895e-25 1.2224766e-42)
(3.5735462e-06 -9.6519063e-07 1.7824503e-24 2.8256538e-07 -3.1905655e-25 3.4785374e-42)
(3.6190968e-06 -7.8719473e-07 -2.1496024e-25 1.871989e-07 -8.542003e-27 2.9894214e-43)
(3.6257636e-06 -5.8905014e-07 1.8978974e-24 1.0749174e-07 -1.425617e-25 6.244832e-42)
(3.5832093e-06 -3.9098548e-07 -1.4808423e-24 5.1212553e-08 1.0541614e-25 2.1044572e-42)
(3.4941477e-06 -2.2094607e-07 -1.6530482e-24 1.9769969e-08 4.6481953e-26 3.1881624e-42)
(3.3725766e-06 -8.5673953e-08 2.0143226e-24 5.5625151e-09 -1.1933442e-26 4.0156172e-42)
(3.2253298e-06 -2.0416774e-08 -1.5767179e-24 1.50221e-09 -4.2117934e-27 2.2860612e-42)
(3.1246906e-06 1.11842e-08 1.9370813e-26 1.9317317e-10 6.8416844e-29 1.8289994e-46)
(1.0512368e-05 3.7829506e-06 -1.2220546e-24 1.3622259e-06 -4.411734e-25 1.7508411e-43)
(1.0574961e-05 4.3794758e-06 -6.2614051e-26 1.8195501e-06 -2.8468368e-26 1.8835975e-44)
(7.5678224e-06 3.7128042e-06 -3.251338e-25 1.83815e-06 -1.5626528e-25 6.1739438e-44)
(3.851739e-06 2.6202513e-06 7.9775467e-25 1.8476493e-06 6.1251923e-25 1.8650315e-42)
(9.5953069e-07 1.101986e-06 -2.0766218e-25 1.5998281e-06 -3.3720803e-25 2.8054161e-43)
(3.0427956e-07 -2.915585e-07 -1.0162413e-25 1.2832207e-06 2.1979527e-25 1.3938461e-42)
(1.7124303e-06 -1.1965617e-06 -1.016711e-25 9.5214717e-07 8.9414524e-26 1.1315147e-44)
(3.8213829e-06 -1.5976941e-06 6.5945702e-25 6.9910601e-07 -1.917223e-25 3.0973191e-42)
(5.2958134e-06 -1.6632966e-06 3.911926e-25 5.4789513e-07 -1.6521994e-25 1.0823273e-43)
(5.7388073e-06 -1.59587e-06 -6.4101601e-25 4.8299299e-07 8.2275859e-26 6.573428e-43)
(5.4090891e-06 -1.5108922e-06 -7.3192958e-25 4.804657e-07 2.6870541e-25 2.0111257e-43)
(4.8082795e-06 -1.4514731e-06 -2.3796469e-24 5.1146144e-07 3.1833979e-25 6.0511664e-42)
(4.253709e-06 -1.4080445e-06 -1.7261299e-25 5.432574e-07 1.5813784e-25 1.7378239e-43)
(3.8887973e-06 -1.3720584e-06 2.0992194e-25 5.5370795e-07 -3.9515094e-26 4.4509702e-44)
(3.7125925e-06 -1.3215237e-06 1.3345579e-24 5.2611966e-07 -4.6615092e-25 8.2032421e-43)
(3.6790403e-06 -1.2395982e-06 -1.8445797e-25 4.5903859e-07 1.4890501e-26 8.264234e-44)
(3.7213769e-06 -1.1140953e-06 3.1053559e-25 3.6344854e-07 -5.6701726e-26 1.0945071e-43)
(3.7807151e-06 -9.4260304e-07 -2.0929654e-25 2.5700404e-07 -4.9541983e-26 6.3974999e-43)
(3.8106331e-06 -7.3626303e-07 0 1.5885708e-07 0 0)
(3.785931e-06 -5.1772781e-07 2.7696224e-26 8.3457635e-08 -1.1934793e-26 9.8061064e-45)
(3.7029385e-06 -3.103144e-07 -1.480177e-26 3.5434668e-08 -9.9595716e-28 1.4721557e-45)
(3.5711401e-06 -1.4290901e-07 7.5347426e-26 1.2247853e-08 6.4446292e-28 1.0424547e-44)
(3.408473e-06 -2.1149585e-08 -2.8497135e-25 3.998793e-09 -1.0593201e-27 5.6471258e-44)
(3.2269042e-06 2.2553647e-08 2.1565696e-24 1.7559451e-09 3.2512454e-26 4.3371068e-42)
(3.107542e-06 2.5802448e-08 1.2423588e-24 3.9966074e-10 1.078813e-26 1.3684869e-42)
(1.0642218e-05 3.6661213e-06 3.2889974e-24 1.2632964e-06 1.1343632e-24 1.0282865e-42)
(1.2237206e-05 4.6568192e-06 2.791142e-25 1.7743003e-06 1.0687461e-25 7.9117043e-45)
(1.0239961e-05 4.3930339e-06 -3.427898e-25 1.8915012e-06 -1.4893573e-25 1.8685987e-44)
(6.8220706e-06 3.6888546e-06 -1.3621212e-25 2.0212432e-06 -7.6854673e-26 1.6043737e-44)
(2.8897526e-06 2.2658628e-06 -9.0872826e-25 1.8786942e-06 -8.2842483e-25 1.9908808e-42)
(4.8204874e-07 6.4243316e-07 7.9237093e-26 1.6020022e-06 1.4722433e-25 5.0708068e-44)
(6.1932523e-07 -6.8126025e-07 -4.8995965e-26 1.2299143e-06 1.0497278e-25 1.253147e-44)
(2.5586699e-06 -1.4567402e-06 -9.8153247e-27 8.9924239e-07 2.4829297e-27 9.7826723e-45)
(4.6689143e-06 -1.7317219e-06 -7.3608841e-25 6.6974694e-07 1.7935071e-25 2.1329245e-42)
(5.868739e-06 -1.7310462e-06 -8.3006452e-25 5.4234789e-07 2.6444e-25 1.8603469e-43)
(5.9789363e-06 -1.6438174e-06 -5.9802555e-25 5.0252067e-07 2.0209827e-26 9.0363595e-43)
(5.4666859e-06 -1.5669229e-06 3.7997763e-25 5.2033201e-07 -6.1419476e-26 1.1141609e-43)
(4.804987e-06 -1.5112372e-06 1.3340911e-24 5.5894113e-07 -1.8764143e-25 1.751215e-42)
(4.2836321e-06 -1.4731067e-06 3.3877812e-25 5.8933908e-07 -1.2454297e-25 4.313346e-44)
(3.9769119e-06 -1.4311517e-06 8.7279888e-25 5.8589513e-07 -1.7442906e-25 7.1374836e-43)
(3.8625264e-06 -1.3662475e-06 -2.0756741e-24 5.3823129e-07 6.9649972e-25 2.0355656e-42)