/*--------------------------------*- C++ -*----------------------------------*\
| =========                 |                                                 |
| \\      /  F ield         | OpenFOAM: The Open Source CFD Toolbox           |
|  \\    /   O peration     | Version:  5.0                                   |
|   \\  /    A nd           | Web:      www.OpenFOAM.org                      |
|    \\/     M anipulation  |                                                 |
\*---------------------------------------------------------------------------*/
FoamFile
{
    version     2.0;
    format      ascii;
    class       volScalarField;
    location    "140";
    object      ddt0(nuTilda);
}
// * * * * * * * * * * * * * * * * * * * * * * * * * * * * * * * * * * * * * //

dimensions      [0 2 -2 0 0 0 0];

internalField   nonuniform List<scalar> 
9520
(
-1.2281333e-34
-1.3069287e-32
-1.1422587e-34
-6.8450307e-31
-1.1875787e-32
-8.8556607e-35
-2.3409135e-29
-6.0688687e-31
-8.8764474e-33
-5.3083109e-35
-5.8857163e-28
-2.0259342e-29
-4.3676491e-31
-4.908451e-33
-1.8224614e-35
-1.1606894e-26
-4.9747215e-28
-1.4055107e-29
-2.218217e-31
-1.2070084e-33
5.6287672e-36
-1.8638134e-25
-9.5814396e-27
-3.3342294e-28
-6.5545087e-30
-3.2378316e-32
1.0066642e-33
1.004876e-35
-2.510777e-24
-1.4985857e-25
-6.2116566e-27
-1.4350242e-28
-3.2047508e-31
6.4081647e-32
8.6697909e-34
-7.371191e-36
-2.8953898e-23
-1.9619483e-24
-9.3535049e-26
-2.4795125e-27
5.0816895e-30
2.2875872e-30
2.6644819e-32
-1.6130566e-33
-3.9879599e-35
-2.9014511e-22
-2.1952108e-23
-1.1750854e-24
-3.4005808e-26
2.5468204e-28
5.3599132e-29
8.7003671e-32
-1.2854113e-31
-5.2915275e-33
-7.0809912e-35
-2.5863228e-21
-2.1321514e-22
-1.2627086e-23
-3.8064386e-25
6.482788e-27
8.7882488e-28
-2.0979705e-29
-5.8325686e-30
-3.2107006e-31
-8.0604002e-33
-7.7807841e-35
-2.4734348e-20
-1.8418264e-21
-1.1869815e-22
-3.5951006e-24
1.2047733e-25
1.1154215e-26
-9.0870517e-28
-1.7829024e-28
-1.2096987e-29
-4.2823214e-31
-7.5405394e-33
-4.2776541e-35
-5.7030787e-19
-1.6621161e-20
-1.0139533e-21
-3.0101432e-23
1.7655275e-24
1.1850827e-25
-2.2174007e-26
-4.0629151e-27
-3.2082411e-28
-1.4243938e-29
-3.3265664e-31
-2.2457919e-33
3.6462756e-35
-2.9223529e-17
-3.3160837e-19
-9.3345144e-21
-2.4484156e-22
2.1506021e-23
1.1674782e-24
-3.8244165e-25
-7.262995e-26
-6.4648897e-27
-3.3410915e-28
-8.7016363e-30
1.5439792e-32
7.2813183e-33
1.3935995e-34
-1.4009106e-15
-1.5905071e-17
-1.9072521e-19
-2.550286e-21
2.327119e-22
1.2605168e-23
-5.0805873e-24
-1.0481513e-24
-1.0341617e-25
-5.8990931e-27
-1.4312486e-28
5.1483618e-30
5.4798869e-31
1.8069128e-32
2.2628116e-34
-5.1289166e-14
-7.6845679e-16
-9.4652899e-18
-7.6742674e-20
2.2370099e-21
1.6293121e-22
-5.3953162e-23
-1.2583712e-23
-1.3473768e-24
-8.0578765e-26
-1.2438054e-27
2.3952032e-28
2.3700182e-29
1.0757561e-30
2.5517544e-32
2.5295678e-34
-1.3880026e-12
-2.9375163e-14
-4.8793635e-16
-4.3739908e-18
9.0894739e-21
2.2303877e-21
-4.6260824e-22
-1.2905174e-22
-1.4729346e-23
-8.524018e-25
7.1508764e-27
6.7009157e-27
6.9472436e-28
3.9638728e-29
1.3491998e-30
2.5211442e-32
1.8960033e-34
-2.7490701e-11
-8.739463e-13
-2.0667373e-14
-2.245121e-16
-2.7082689e-19
3.8982052e-20
-3.03944e-21
-1.1564236e-21
-1.3889464e-22
-6.9263767e-24
4.8630139e-25
1.3793137e-25
1.5117869e-26
1.0257005e-27
4.4549522e-29
1.1640799e-30
1.4932079e-32
3.5556605e-35
-3.960103e-10
-1.996419e-11
-7.0197765e-13
-9.1947132e-15
2.0305311e-17
2.1638636e-18
5.9775813e-21
-9.2003318e-21
-1.164654e-21
-4.0355571e-23
1.0097523e-23
2.2529309e-24
2.6006074e-25
2.0032958e-26
1.0338624e-27
3.2686711e-29
4.6178824e-31
-4.1061683e-33
-1.7695775e-34
-4.3159238e-09
-3.5133809e-10
-1.8528441e-11
-2.9370242e-13
3.4271303e-15
1.8584373e-16
2.5533973e-18
-5.4606476e-20
-9.0242362e-21
-1.1980902e-22
1.4471548e-22
3.0143228e-23
3.6791053e-24
3.1013153e-25
1.7950495e-26
6.1248686e-28
4.0898474e-30
-6.2702746e-31
-2.7322875e-32
-3.9100534e-34
-3.3821699e-08
-4.5561649e-09
-3.5962164e-10
-7.15974e-12
2.2355716e-13
1.2519562e-14
2.210089e-16
8.6790905e-19
-6.6445689e-20
5.3935969e-22
1.6409667e-21
3.3977344e-22
4.3699342e-23
3.9393127e-24
2.4077175e-25
7.6004064e-27
-1.8756552e-28
-3.4654414e-29
-1.8127362e-30
-4.8042828e-32
-5.4136196e-34
-1.8847201e-07
-4.2460648e-08
-4.970155e-09
-1.0684657e-10
8.4155601e-12
6.0636906e-13
1.3662034e-14
8.3888421e-17
-6.9339218e-19
7.1431234e-21
1.5530178e-20
3.3058584e-21
4.4426318e-22
4.1820468e-23
2.5347092e-24
4.6114407e-26
-9.0800249e-27
-1.1568076e-27
-7.2359215e-29
-2.7318628e-30
-5.9456495e-32
-5.7337461e-34
-7.2193367e-07
-2.6942583e-07
-4.7993869e-08
-1.1627746e-09
2.0499436e-10
2.0539308e-11
6.0670726e-13
3.4829032e-15
-5.4596135e-17
-4.3028878e-19
1.2516008e-19
2.8348441e-20
3.9434152e-21
3.7613896e-22
2.0559507e-23
-4.1003101e-25
-2.2826153e-25
-2.7301422e-26
-1.9948978e-27
-9.6667689e-29
-3.0539499e-30
-5.6604637e-32
-4.5835792e-34
-2.0053656e-06
-1.1841594e-06
-3.1352888e-07
-8.4894474e-09
3.4357043e-09
4.7258511e-10
1.8915989e-11
6.1830093e-14
-5.507604e-15
-5.9444669e-17
6.7545049e-19
2.1848574e-19
3.1207746e-20
2.9038409e-21
1.1579693e-22
-1.6264867e-23
-4.0991685e-24
-4.9727282e-25
-4.1038188e-26
-2.405989e-27
-9.7677173e-29
-2.5773054e-30
-3.7792605e-32
-2.014635e-34
-4.1578696e-06
-3.6479811e-06
-1.4097515e-06
-4.43005e-08
3.8129557e-08
7.3214719e-09
4.0226605e-10
-1.3098652e-12
-3.5492083e-13
-4.7635389e-15
-1.8614327e-17
1.4940153e-18
2.2567606e-19
1.9541215e-20
2.0816667e-22
-2.7396568e-22
-5.7602764e-23
-7.3090382e-24
-6.6584398e-25
-4.4993007e-26
-2.1847842e-27
-7.0791646e-29
-1.2881613e-30
-5.0955681e-33
1.5904069e-34
-6.6710796e-06
-8.1073295e-06
-4.3398853e-06
-1.6580652e-07
2.771532e-07
7.5621868e-08
5.7264398e-09
-1.0423196e-10
-1.4812404e-11
-2.5981356e-13
-1.6617829e-15
6.3444248e-18
1.5466514e-18
1.1772202e-19
-4.7871162e-21
-3.3569759e-21
-6.6561062e-22
-8.8883918e-23
-8.8216271e-24
-6.6037878e-25
-3.6116401e-26
-1.276121e-27
-1.8150123e-29
6.2902308e-31
3.603949e-32
5.5946915e-34
-7.5822308e-06
-1.346261e-05
-9.5613965e-06
-4.865882e-07
1.3375409e-06
5.1357664e-07
5.3026965e-08
-2.7273988e-09
-4.0267379e-10
-9.7470932e-12
-8.0526417e-14
-3.3608989e-17
1.4840182e-17
7.0446638e-19
-7.8468193e-20
-3.3510668e-20
-6.5292979e-21
-9.1310885e-22
-9.7256114e-23
-7.8276577e-24
-4.4952534e-25
-1.4509249e-26
2.0369624e-28
5.1584447e-29
2.8267845e-30
7.7855161e-32
9.227385e-34
-1.0038876e-05
-1.9286333e-05
-1.6565391e-05
-1.1688192e-06
4.3135298e-06
2.301057e-06
3.1425459e-07
-3.9819755e-08
-7.1502508e-09
-2.4141409e-10
-2.6353703e-12
7.8297297e-15
6.9623541e-16
1.1497196e-17
-7.4795237e-19
-2.8632114e-19
-5.5654273e-20
-8.063363e-21
-9.0434198e-22
-7.5747823e-23
-4.1496827e-24
-5.3990943e-26
1.642972e-26
1.9856681e-27
1.2485888e-28
4.8620588e-30
1.1173611e-31
1.1724253e-33
-1.245946e-05
-2.5458011e-05
-2.491792e-05
-2.9246572e-06
9.6909747e-06
6.8656883e-06
1.1459108e-06
-3.5516915e-07
-8.3766414e-08
-3.9825405e-09
-6.2653637e-11
8.449762e-13
5.2444156e-14
8.9893605e-16
-1.0189511e-18
-2.1481917e-18
-4.2008075e-19
-6.2132197e-20
-7.161602e-21
-5.9548775e-22
-2.512398e-23
1.6884569e-24
4.5535584e-25
5.0608504e-26
3.6994316e-27
1.8585434e-28
6.2812927e-30
1.2984024e-31
1.2471453e-33
-1.4387634e-05
-2.9935522e-05
-3.1415593e-05
-6.3882757e-06
1.5938242e-05
1.4174007e-05
2.4514413e-06
-2.0210415e-06
-6.4828442e-07
-4.5377272e-08
-9.8849073e-10
3.5813647e-11
2.8277466e-12
6.6829343e-14
4.798868e-16
-1.3760275e-17
-2.8571506e-18
-4.2355554e-19
-4.8571642e-20
-3.6870704e-21
-2.1736054e-23
4.5995845e-23
8.5397729e-24
9.7078081e-25
8.0434741e-26
4.9464975e-27
2.1966187e-28
6.7124849e-30
1.2670438e-31
1.1135565e-33
-1.6244062e-05
-3.3024117e-05
-3.6076688e-05
-8.7711067e-06
2.080958e-05
2.1786783e-05
2.8092626e-06
-7.5061022e-06
-3.3215637e-06
-3.4811226e-07
-9.8916039e-09
9.1228411e-10
1.008775e-10
3.4215662e-12
3.5278611e-14
-5.6652904e-17
-1.8193566e-17
-2.5915145e-18
-2.8244168e-19
-1.6007219e-20
1.8172195e-21
7.0767285e-22
1.2257176e-22
1.48551e-23
1.3696586e-24
9.839576e-26
5.3856057e-27
2.1559843e-28
5.9500422e-30
1.0057659e-31
7.7541775e-34
-1.8782333e-05
-3.4563381e-05
-3.9303406e-05
-1.0140321e-05
2.4495762e-05
2.8254372e-05
1.2301523e-06
-1.8787044e-05
-1.1405672e-05
-1.7764784e-06
-5.6669768e-08
1.4845471e-08
2.3699211e-09
1.1649415e-10
1.5940148e-12
-3.1411317e-15
-1.7768023e-16
-1.4644021e-17
-1.4002229e-18
-1.9797363e-20
2.9574515e-20
8.2159823e-21
1.4282178e-21
1.8611772e-22
1.9012106e-23
1.5417124e-24
9.8812484e-26
4.8162855e-27
1.6996886e-28
4.0123381e-30
5.4098991e-32
2.7550066e-34
-2.1256666e-05
-3.6043142e-05
-4.0707763e-05
-1.1591243e-05
2.5545337e-05
3.2471479e-05
-5.9914102e-07
-3.3655117e-05
-2.7140259e-05
-6.0556975e-06
-1.353878e-07
1.6370809e-07
3.6307366e-08
2.5963618e-09
4.5982708e-11
-4.2758501e-13
-8.7030252e-15
-1.0178388e-16
-5.8513357e-18
4.6024096e-19
3.1089225e-19
7.817079e-20
1.3976759e-20
1.9539922e-21
2.1885262e-22
1.9701303e-23
1.4167629e-24
7.9380551e-26
3.2389465e-27
8.7411229e-29
1.1562858e-30
-5.9940048e-33
-3.11711e-34
-2.3844374e-05
-3.6930165e-05
-4.0755061e-05
-1.2846223e-05
2.5053152e-05
3.1897648e-05
-5.6411262e-06
-4.841278e-05
-4.7794013e-05
-1.4177228e-05
3.1266569e-07
1.1948179e-06
3.6046507e-07
3.7345872e-08
8.2189314e-10
-2.5114317e-11
-5.6278799e-13
-2.9495513e-15
-2.371007e-17
5.980923e-18
2.5890866e-18
6.335987e-19
1.1746875e-19
1.7502889e-20
2.1222425e-21
2.0827148e-22
1.6283366e-23
9.8527103e-25
4.2010864e-26
8.7125714e-28
-1.9589924e-29
-2.1690105e-30
-7.0227114e-32
-8.9567153e-34
-2.6459519e-05
-3.740273e-05
-3.9907208e-05
-1.318884e-05
2.2921394e-05
2.9747333e-05
-1.070307e-05
-6.0081515e-05
-6.7392967e-05
-2.4468364e-05
3.1886118e-06
5.6546787e-06
2.3143298e-06
3.4327235e-07
8.5647387e-09
-8.1787098e-10
-2.4535933e-11
-1.6563048e-13
-4.4518256e-16
4.8196722e-17
1.8329293e-17
4.4837211e-18
8.6192129e-19
1.3565244e-19
1.7545753e-20
1.8385699e-21
1.509287e-22
9.0068328e-24
3.0045015e-25
-7.8246647e-27
-1.8924445e-27
-1.3332311e-28
-5.4225798e-30
-1.2852574e-31
-1.3899046e-33
-2.8787694e-05
-3.7494741e-05
-3.8210539e-05
-1.3055639e-05
2.0550906e-05
2.5807702e-05
-1.3863327e-05
-6.5490117e-05
-8.0303121e-05
-3.3675281e-05
1.0259828e-05
1.7697232e-05
9.6427676e-06
1.9996857e-06
4.3995966e-08
-1.5966052e-08
-6.9219856e-10
-6.6891529e-12
-2.6378281e-14
2.6807451e-16
1.1425239e-16
2.8248771e-17
5.6026278e-18
9.1978234e-19
1.2475334e-19
1.3585191e-20
1.1090604e-21
5.3748657e-23
-1.0423219e-24
-5.2371494e-25
-6.1712636e-26
-4.6025016e-27
-2.3504653e-28
-8.0977264e-30
-1.7253361e-31
-1.7307481e-33
-3.0590945e-05
-3.7165571e-05
-3.5886376e-05
-1.2545202e-05
1.8033245e-05
2.1509744e-05
-1.6630963e-05
-6.7594859e-05
-8.6104031e-05
-3.9668876e-05
2.0296192e-05
3.8126592e-05
2.6424556e-05
7.3525587e-06
5.9293152e-09
-1.9270758e-07
-1.2629908e-08
-1.9122633e-10
-1.2668214e-12
-1.9997555e-15
6.3905543e-16
1.6141074e-16
3.2705749e-17
5.5140462e-18
7.6641776e-19
8.3395611e-20
6.041015e-21
4.2221725e-23
-6.692059e-23
-1.205592e-23
-1.3390077e-24
-1.1011675e-25
-6.8084334e-27
-3.0942876e-28
-9.8365445e-30
-1.9728747e-31
-1.8884218e-33
-3.1589696e-05
-3.6372926e-05
-3.3189282e-05
-1.1663684e-05
1.5296461e-05
1.6851468e-05
-1.9154237e-05
-6.5734229e-05
-8.840379e-05
-4.2721024e-05
2.9887594e-05
6.1054687e-05
4.9814657e-05
1.7186668e-05
-1.1980241e-06
-1.4639928e-06
-1.4553518e-07
-3.7007851e-09
-4.1581101e-11
-1.9820258e-13
3.0663304e-15
8.5496573e-16
1.7405689e-16
2.9531226e-17
4.0696066e-18
4.1289311e-19
1.7715799e-20
-3.8349163e-21
-1.1694802e-21
-1.8853284e-22
-2.2021121e-23
-2.0038971e-24
-1.4521952e-25
-8.194231e-27
-3.4780365e-28
-1.0493206e-29
-2.0183716e-31
-1.8682153e-33
-3.1329529e-05
-3.4395223e-05
-3.0818773e-05
-1.0810275e-05
1.251132e-05
1.1933872e-05
-2.1459059e-05
-6.3137081e-05
-8.7417542e-05
-4.2498255e-05
3.5841054e-05
7.8801209e-05
6.9407576e-05
2.6733089e-05
-6.7998837e-06
-7.1501956e-06
-1.0918362e-06
-4.7662649e-08
-9.0698439e-10
-7.5047213e-12
5.0122082e-15
4.6015541e-15
8.6502366e-16
1.42646e-16
1.8573221e-17
1.4844183e-18
-7.8579479e-20
-6.0712817e-20
-1.4175851e-20
-2.2944967e-21
-2.8875927e-22
-2.9243992e-23
-2.4176678e-24
-1.6260572e-25
-8.6386505e-27
-3.4924325e-28
-1.0132372e-29
-1.8875288e-31
-1.7024029e-33
-2.8671142e-05
-3.0711319e-05
-2.9857367e-05
-1.0766723e-05
9.2861749e-06
6.4312954e-06
-2.3906174e-05
-5.9685569e-05
-8.3302973e-05
-4.5400815e-05
3.8748898e-05
8.7367527e-05
7.8952487e-05
2.9089442e-05
-1.9541055e-05
-2.3066345e-05
-5.4817949e-06
-4.0595274e-07
-1.2945498e-08
-1.7376799e-10
1.1415131e-13
6.4945151e-14
4.7656044e-15
6.348002e-16
7.0927861e-17
1.9370466e-18
-1.7247955e-18
-6.19656e-19
-1.3660881e-19
-2.2987707e-20
-3.1289786e-21
-3.5133017e-22
-3.2753823e-23
-2.5408159e-24
-1.6184685e-25
-8.2109828e-27
-3.1931334e-28
-8.9717267e-30
-1.6275304e-31
-1.4368272e-33
-2.5074081e-05
-2.3079881e-05
-2.7198621e-05
-1.2193569e-05
5.4434761e-06
3.9383154e-07
-2.67764e-05
-5.5595045e-05
-7.804821e-05
-4.7353598e-05
3.6783253e-05
8.7618563e-05
7.9912836e-05
2.4481703e-05
-3.6882882e-05
-5.1370216e-05
-1.8720756e-05
-2.2953945e-06
-1.1969995e-07
-2.4211382e-09
2.7737077e-11
3.6367905e-12
1.0795754e-13
3.3710011e-15
2.1029876e-16
-2.4465772e-17
-1.6731362e-17
-4.9910868e-18
-1.102763e-18
-1.9539888e-19
-2.8725475e-20
-3.5486373e-21
-3.6957447e-22
-3.2444637e-23
-2.394544e-24
-1.4582801e-25
-7.1135084e-27
-2.6725257e-28
-7.2925342e-30
-1.2907265e-31
-1.1170042e-33
-2.4799117e-05
-2.0253522e-05
-2.0747234e-05
-1.476025e-05
7.9618543e-07
-5.7538955e-06
-2.9636782e-05
-5.1138986e-05
-7.1359639e-05
-4.8760905e-05
3.18226e-05
8.4840018e-05
7.3000598e-05
1.4622704e-05
-5.3661232e-05
-8.4245239e-05
-4.515094e-05
-8.7244118e-06
-7.1281274e-07
-1.8357313e-08
1.290589e-09
1.6819204e-10
6.8706543e-12
1.0587168e-13
6.504411e-16
-2.9068911e-16
-1.2143539e-16
-3.3877814e-17
-7.6723602e-18
-1.4369095e-18
-2.2737395e-19
-3.0661047e-20
-3.5304944e-21
-3.4651374e-22
-2.8928557e-23
-2.0419644e-24
-1.1921224e-25
-5.5915899e-27
-2.0269398e-28
-5.3538773e-30
-9.2065812e-32
-7.7764732e-34
-1.9291694e-05
-2.5631038e-05
-1.5578234e-05
-1.9645966e-05
-4.4306771e-06
-1.2272311e-05
-3.2318981e-05
-4.6302759e-05
-6.3455915e-05
-4.9681643e-05
2.6388106e-05
7.8503675e-05
6.290142e-05
4.3472101e-06
-6.5844072e-05
-0.00010973775
-8.0854297e-05
-2.2969443e-05
-2.707404e-06
-4.5226911e-08
2.8526992e-08
4.7675741e-09
3.0528142e-10
7.0876522e-12
4.1448896e-14
-2.1192708e-15
-7.4167764e-16
-2.0056249e-16
-4.6872609e-17
-9.2739511e-18
-1.5723509e-18
-2.2969533e-19
-2.8943362e-20
-3.1389477e-21
-2.9185242e-22
-2.3192199e-23
-1.5601678e-24
-8.6704466e-26
-3.8656753e-27
-1.3304602e-28
-3.3331541e-30
-5.4390761e-32
-4.3765878e-34
-1.0333723e-05
-2.7470897e-05
-2.2486467e-05
-1.148773e-05
-1.9488322e-05
-1.8927679e-05
-3.4341201e-05
-4.1036452e-05
-5.4747736e-05
-5.0239492e-05
2.081508e-05
7.1384414e-05
5.6130234e-05
-2.7728155e-06
-6.9099378e-05
-0.00012252898
-0.00011369303
-4.373398e-05
-6.4988107e-06
3.7982155e-07
3.5813344e-07
8.212909e-08
8.1636986e-09
3.0344047e-10
2.9929628e-12
-1.2367389e-14
-4.0584324e-15
-1.0603468e-15
-2.5493713e-16
-5.3135053e-17
-9.5999519e-18
-1.5078513e-18
-2.0584359e-19
-2.4359099e-20
-2.4857304e-21
-2.1740315e-22
-1.6208458e-23
-1.0141145e-24
-5.1685945e-26
-2.0693804e-27
-6.2141022e-29
-1.3036948e-30
-1.6849096e-32
-1.0033772e-34
-2.4698141e-05
-1.8388124e-05
-3.1673804e-05
-1.7793604e-05
-8.3562281e-06
-1.9923381e-05
-3.5068734e-05
-3.1772082e-05
-4.5960895e-05
-5.0449406e-05
1.5512048e-05
6.3790444e-05
4.8497434e-05
-7.1809178e-06
-6.3431197e-05
-0.00012367865
-0.00013487585
-6.4097675e-05
-9.4818336e-06
3.8483983e-06
2.7183887e-06
8.6904242e-07
1.313882e-07
7.6774505e-09
1.1889678e-10
-2.3676132e-13
-2.3837646e-14
-5.1106985e-15
-1.2490459e-15
-2.7281553e-16
-5.2198946e-17
-8.7454949e-18
-1.2802105e-18
-1.6301511e-19
-1.7924793e-20
-1.6824574e-21
-1.3283748e-22
-8.6429022e-24
-4.4045347e-25
-1.5608076e-26
-2.393894e-28
9.7734258e-30
7.5351219e-31
2.1255621e-32
2.4258405e-34
-3.2629477e-05
-2.5940054e-05
-2.530933e-05
-3.2838917e-05
-1.3084797e-05
-5.8945755e-06
-2.0890285e-05
-2.2024559e-05
-3.6783008e-05
-4.9871392e-05
1.0290655e-05
5.6288946e-05
4.0034255e-05
-1.2883048e-05
-5.8475037e-05
-0.00010921743
-0.00014496128
-7.8221972e-05
-7.1752233e-06
1.6135486e-05
1.2940889e-05
5.721834e-06
1.2850715e-06
1.1520333e-07
2.653523e-09
-1.986368e-11
-4.9585132e-13
-2.3309081e-14
-5.580408e-15
-1.2657041e-15
-2.5458571e-16
-4.5094065e-17
-6.9955733e-18
-9.4251028e-19
-1.0876635e-19
-1.0489316e-20
-8.0408976e-22
-4.3159318e-23
-7.3060181e-25
1.5576723e-25
2.1880106e-26
1.6662382e-27
8.4997237e-29
2.9152723e-30
6.1440753e-32
6.048999e-34
-1.2456098e-05
-2.6136511e-05
-3.1002244e-05
-3.4474697e-05
-3.1990322e-05
-8.5551712e-06
-3.8574117e-06
-2.1947963e-05
-2.8275725e-05
-4.8750836e-05
5.0016214e-06
4.8558704e-05
3.1482596e-05
-1.8769314e-05
-5.355067e-05
-9.4829528e-05
-0.00014464932
-8.4912331e-05
1.024155e-06
4.0786513e-05
3.9831977e-05
2.3792399e-05
7.7081795e-06
1.0324972e-06
3.2911029e-08
-9.0550733e-10
-2.5675042e-11
-1.5857711e-13
-2.3086205e-14
-5.3483572e-15
-1.120438e-15
-2.0755451e-16
-3.3609401e-17
-4.6762756e-18
-5.4127452e-19
-4.8298274e-20
-2.4896539e-21
1.2600492e-22
5.1601138e-23
7.6725611e-24
7.9303968e-25
6.2216281e-26
3.728493e-27
1.6676312e-28
5.2710556e-30
1.0525957e-31
9.99486e-34
-1.9902037e-05
-4.8497441e-06
-2.1656942e-05
-3.5809707e-05
-4.2186433e-05
-3.0353457e-05
-3.8876495e-06
-2.1301238e-06
-2.2742359e-05
-4.5868141e-05
-3.9206247e-07
4.0820162e-05
2.2489359e-05
-2.505151e-05
-4.8975546e-05
-7.9236473e-05
-0.00013595535
-0.0001001166
1.2441843e-05
7.1832382e-05
8.3162449e-05
6.3696821e-05
2.8646251e-05
5.542577e-06
2.1410192e-07
-2.1664013e-08
-9.1355109e-10
-5.1967088e-12
-9.4878433e-14
-2.0776921e-14
-4.4717419e-15
-8.540256e-16
-1.4119014e-16
-1.943786e-17
-2.025006e-18
-1.0152e-19
1.6721912e-20
6.0807443e-21
1.1282472e-21
1.5477572e-22
1.6908894e-23
1.4980266e-24
1.0698533e-25
6.0192653e-27
2.5748597e-28
7.8779534e-30
1.5356948e-31
1.4325942e-33
-4.4883184e-05
-1.1513125e-05
1.3178417e-06
-1.9489518e-05
-4.0898745e-05
-4.6253074e-05
-2.8121542e-05
6.334553e-07
-4.5180562e-07
-2.318088e-05
-6.2102305e-06
3.2882948e-05
1.3415098e-05
-3.1276388e-05
-4.500621e-05
-6.2983543e-05
-0.00012289517
-0.00010848155
1.0072882e-05
0.00010006447
0.00012729078
0.00011458464
6.6992541e-05
1.7823775e-05
5.5842077e-07
-2.9350441e-07
-1.9362223e-08
-2.0822783e-10
-8.8357583e-13
-7.5453166e-14
-1.6256994e-14
-3.134634e-15
-5.0957932e-16
-6.2956864e-17
-3.5676377e-18
8.7210086e-19
3.7590135e-19
8.7621791e-20
1.551308e-20
2.242106e-21
2.702641e-22
2.7272009e-23
2.2884295e-24
1.5687997e-25
8.5557783e-27
3.5722879e-28
1.0723857e-29
2.059666e-31
1.8996738e-33
-1.2835268e-05
-4.2016242e-05
-3.4722257e-06
6.6688989e-06
-1.8738721e-05
-4.6164135e-05
-4.936997e-05
-2.5153758e-05
4.802214e-06
1.0055642e-06
-2.3029784e-05
2.4726569e-05
3.8514174e-06
-3.779332e-05
-4.1029829e-05
-4.6946594e-05
-0.00010650657
-0.00011244242
3.6686533e-06
0.00011699385
0.00015774361
0.00015085993
0.00010334134
3.4649198e-05
-9.8046482e-07
-2.3535038e-06
-2.4794817e-07
-5.1308207e-09
-3.1428007e-11
-3.0912633e-13
-5.414249e-14
-1.0176713e-14
-1.5055967e-15
-1.1483e-16
2.3958903e-17
1.3872552e-17
4.060997e-18
9.0533201e-19
1.6686102e-19
2.6104897e-20
3.4932539e-21
3.9939672e-22
3.8756357e-23
3.1545648e-24
2.1086257e-25
1.1266662e-26
4.6266417e-28
1.3704909e-29
2.6047406e-31
2.383308e-33
1.5894677e-05
-1.9116969e-05
-3.7787388e-05
4.4216042e-06
1.1611036e-05
-1.8076836e-05
-4.9737805e-05
-5.0892902e-05
-2.2049914e-05
8.65334e-06
2.3818485e-06
-2.1875925e-05
-6.0051345e-06
-4.4002242e-05
-3.6442536e-05
-3.1558287e-05
-8.8109527e-05
-0.00011333975
-4.8827971e-06
0.00011981061
0.00017722412
0.0001615145
0.00011468242
4.2862518e-05
-1.0222329e-05
-1.155417e-05
-1.9626571e-06
-7.6072431e-08
-9.3035053e-10
-4.5735596e-12
-1.7049047e-13
-2.8626692e-14
-3.0788653e-15
3.310576e-16
3.2361326e-16
1.2033598e-16
3.3305222e-17
7.6340526e-18
1.4997867e-18
2.5552902e-19
3.7850288e-20
4.8618225e-21
5.3824902e-22
5.0867362e-23
4.0508093e-24
2.6570069e-25
1.3976996e-26
5.6675309e-28
1.6621832e-29
3.1354554e-31
2.8536137e-33
-1.6288733e-05
5.7542291e-06
-2.667859e-05
-3.2308514e-05
1.2119279e-05
1.6229005e-05
-1.7770958e-05
-5.3168868e-05
-5.1659109e-05
-1.8855401e-05
1.2016507e-05
4.0865675e-06
-2.0195181e-05
-4.939586e-05
-2.9065672e-05
-1.6634644e-05
-6.9176645e-05
-0.00011084328
-1.455425e-05
0.00011710952
0.00017760874
0.00015593389
0.00010088977
3.4013713e-05
-2.8851768e-05
-3.5958427e-05
-9.8462596e-06
-6.9826634e-07
-1.6647001e-08
-1.4384082e-10
-8.663252e-13
-6.6519452e-14
1.2744223e-16
4.8513659e-15
2.3770074e-15
8.1342334e-16
2.2836581e-16
5.5078201e-17
1.1610812e-17
2.1524384e-18
3.5096471e-19
5.0186481e-20
6.2603922e-21
6.7612073e-22
6.2593865e-23
4.8929329e-24
3.1602066e-25
1.6417628e-26
6.5927364e-28
1.9197627e-29
3.6040217e-31
2.5618413e-35
-5.3521657e-05
-2.685322e-05
-6.6047512e-06
-3.3267804e-05
-2.5939617e-05
1.9269429e-05
2.0552016e-05
-1.7797653e-05
-5.6095397e-05
-5.1796123e-05
-1.5679598e-05
1.4827558e-05
4.564173e-06
-1.7992013e-05
-2.0453616e-05
-1.8462586e-06
-5.1096853e-05
-0.00010503406
-2.4569817e-05
0.00011043793
0.00017543948
0.00014851084
7.8647987e-05
1.5465608e-05
-4.7924769e-05
-7.4493484e-05
-3.2439378e-05
-4.0929363e-06
-1.8266367e-07
-3.05481e-09
-1.9489708e-11
-1.3990653e-13
4.2914036e-14
3.2055801e-14
1.3705219e-14
4.6675639e-15
1.3605698e-15
3.4789456e-16
7.8746316e-17
1.5824731e-17
2.8219553e-18
4.4523946e-19
6.1877774e-20
7.5292905e-21
7.9572155e-22
7.2356889e-23
5.5666026e-24
3.5494733e-25
1.8259927e-26
7.2819733e-28
2.1114995e-29
3.6689251e-33
1.0348733e-37
-1.1805809e-05
-5.5934612e-05
-3.6499703e-05
-1.7876222e-05
-3.7005211e-05
-1.9580085e-05
2.6127745e-05
2.4652518e-05
-1.797514e-05
-5.8136513e-05
-5.1401064e-05
-1.2661825e-05
1.5875753e-05
4.6561531e-06
-1.4805839e-05
1.3902208e-05
-3.5520309e-05
-9.706389e-05
-3.4070344e-05
0.00010165926
0.00016951123
0.00014331838
6.6594693e-05
-5.1313557e-06
-5.7930539e-05
-0.00010890525
-7.3696795e-05
-1.5853629e-05
-1.2713465e-06
-3.9522092e-08
-4.7304093e-10
-1.9691753e-12
2.8299804e-13
1.6328487e-13
6.7649452e-14
2.3561015e-14
7.1891493e-15
1.9503254e-15
4.7280746e-16
1.0251023e-16
1.9855484e-17
3.4271208e-18
5.2514112e-19
7.1099652e-20
8.4541768e-21
8.7577694e-22
7.8359594e-23
5.9461388e-24
3.7526116e-25
1.917151e-26
7.6169744e-28
2.4471296e-31
1.7116988e-35
1.6459195e-40
2.9308202e-05
-3.2269074e-06
-5.6935771e-05
-4.6580671e-05
-2.9458087e-05
-3.9823914e-05
-1.3535692e-05
3.2318969e-05
2.8765508e-05
-1.7858494e-05
-5.9550592e-05
-5.0842974e-05
-9.9097634e-06
1.6287991e-05
3.7578667e-06
-9.3773128e-06
-1.9069702e-05
-8.7382928e-05
-4.2358955e-05
9.1461753e-05
0.00016230787
0.00013454258
5.1622855e-05
-1.853811e-05
-6.0124811e-05
-0.00012051242
-0.00012313372
-4.2616887e-05
-5.8083308e-06
-3.2088218e-07
-7.1403102e-09
-6.0099096e-11
1.162104e-12
7.1184101e-13
2.9646953e-13
1.0667888e-13
3.4123581e-14
9.7983171e-15
2.5324012e-15
5.8894931e-16
1.2304702e-16
2.3040388e-17
3.8547115e-18
5.7402632e-19
7.574473e-20
8.8054976e-21
8.9539429e-22
7.8918445e-23
5.920116e-24
3.7086137e-25
1.8881972e-26
1.011319e-29
1.3199493e-33
3.1982944e-38
9.1403361e-44
-3.2115018e-06
4.3224261e-05
6.4125519e-06
-5.7841917e-05
-5.8157846e-05
-4.1488441e-05
-4.2471719e-05
-7.9522019e-06
3.8220108e-05
3.246712e-05
-1.7383034e-05
-5.9473369e-05
-4.7742817e-05
-6.1663652e-06
1.3790603e-05
3.2454074e-06
-5.1987207e-06
-8.0448999e-05
-4.9637562e-05
8.0069387e-05
0.00015358965
0.00012460183
3.6481076e-05
-3.3656259e-05
-6.2028307e-05
-0.00010060372
-0.00016022969
-8.4693248e-05
-1.8278176e-05
-1.6944278e-06
-6.6860917e-08
-1.0771271e-09
-1.3691689e-12
2.7599351e-12
1.1772062e-12
4.3888375e-13
1.4686496e-13
4.4439362e-14
1.2175448e-14
3.0169706e-15
6.7475818e-16
1.3589781e-16
2.4582177e-17
3.9814273e-18
5.754e-19
7.3905307e-20
8.3927696e-21
8.3848206e-22
7.2869822e-23
5.4180337e-24
3.381833e-25
2.8987061e-28
6.328879e-32
2.8887084e-36
2.105231e-41
1.9091059e-47
-7.3895092e-05
1.1572526e-05
5.5639382e-05
1.5879099e-05
-5.8932913e-05
-6.9361468e-05
-5.3713509e-05
-4.507769e-05
-3.4641819e-06
4.3712643e-05
3.5939044e-05
-1.6380677e-05
-5.7069285e-05
-4.3071043e-05
-1.9606889e-06
9.6837307e-06
2.3542215e-06
-2.2626565e-06
-5.6536397e-05
6.7564473e-05
0.00014282953
0.00011392947
1.948717e-05
-5.341647e-05
-6.6133219e-05
-8.3043214e-05
-0.00015236934
-0.00013240989
-4.2040571e-05
-6.1178449e-06
-4.0296211e-07
-1.1610744e-08
-1.1948911e-10
9.334827e-12
4.3097573e-12
1.6575263e-12
5.7768253e-13
1.8311753e-13
5.2823113e-14
1.3841749e-14
3.2863674e-15
7.0516775e-16
1.3643031e-16
2.3741213e-17
3.7058585e-18
5.1741892e-19
6.4412462e-20
7.1215869e-21
6.9835619e-22
5.9909471e-23
4.4305025e-24
6.0938781e-27
2.1167108e-30
1.625082e-34
2.2239888e-39
5.3213386e-45
1.50148e-51
-6.2485776e-05
-6.5508897e-05
2.5010861e-05
6.718519e-05
2.4345276e-05
-5.8493217e-05
-8.0188028e-05
-6.5915101e-05
-4.8035849e-05
5.9023618e-07
4.8621461e-05
3.8381058e-05
-1.6153807e-05
-5.2436785e-05
-3.461481e-05
-1.0070372e-06
6.3618374e-06
1.2461718e-06
-7.1412202e-07
5.2533991e-05
0.00012965455
0.00010180953
2.8902071e-07
-7.4414975e-05
-7.2332695e-05
-6.6510317e-05
-0.00012974452
-0.00017009119
-7.5554107e-05
-1.5993338e-05
-1.6463973e-06
-7.9281617e-08
-1.6364587e-09
1.8972511e-11
1.4883363e-11
5.8628063e-12
2.0942098e-12
6.8976047e-13
2.0781946e-13
5.7090568e-14
1.4252021e-14
3.222604e-15
6.58234e-16
1.2117942e-16
2.0064321e-17
2.9816029e-18
3.9697009e-19
4.7263236e-20
5.0292147e-21
4.814598e-22
4.0756629e-23
9.6413851e-26
5.2381695e-29
6.4044817e-33
1.4620911e-37
6.4626828e-43
6.2822403e-49
-6.6206948e-56
3.623969e-05
-6.6978902e-05
-5.4925952e-05
3.7504376e-05
7.8204223e-05
3.3003596e-05
-5.530693e-05
-9.0020586e-05
-7.7654004e-05
-5.1236308e-05
4.2936246e-06
5.3629679e-05
3.8106262e-05
-1.5660087e-05
-4.4416495e-05
-2.4518644e-05
1.5252814e-07
3.2199511e-06
4.7068095e-07
-1.5980226e-07
0.00011377307
8.7309712e-05
-2.0363217e-05
-9.643354e-05
-8.0133061e-05
-5.2312431e-05
-9.649309e-05
-0.00018197408
-0.00012104866
-3.2422374e-05
-4.8269512e-06
-3.6192012e-07
-1.2679626e-08
-7.9722258e-11
4.9662613e-11
2.0087956e-11
7.2644031e-12
2.4014609e-12
7.4509537e-13
2.1236733e-13
5.509636e-14
1.2947309e-14
2.7443874e-15
5.2270205e-16
8.9156847e-17
1.3575592e-17
1.8402491e-18
2.2187314e-19
2.3790233e-20
2.3051215e-21
2.0674592e-22
1.1461866e-24
9.899197e-28
1.8797875e-31
6.7633133e-36
4.8209959e-41
9.0298616e-47
3.146099e-53
-2.95089e-59
9.5108691e-05
1.9834793e-05
-6.885859e-05
-4.3244516e-05
4.949555e-05
8.8732055e-05
4.1526491e-05
-5.1436083e-05
-9.8092918e-05
-8.8308243e-05
-5.4084239e-05
9.3438518e-06
5.6437446e-05
3.4611985e-05
-1.3863217e-05
-3.2275672e-05
-1.4665352e-05
8.2320875e-07
1.1889092e-06
1.1842872e-07
-2.5806055e-08
7.0365698e-05
-4.1481432e-05
-0.00011893857
-8.7443592e-05
-3.8321226e-05
-6.1442243e-05
-0.00016816082
-0.00016193267
-6.4126275e-05
-1.0794825e-05
-1.1561586e-06
-5.9491985e-08
-4.8062574e-10
2.3043474e-10
7.2142307e-11
2.5324745e-11
8.3331456e-12
2.4954969e-12
7.1443549e-13
1.8970897e-13
4.5435373e-14
9.7274507e-15
1.8418099e-15
3.0382707e-16
4.2633426e-17
4.8537209e-18
3.949097e-19
1.0277153e-20
-3.5225978e-21
-7.7679701e-22
9.7212098e-24
1.44613e-26
4.254135e-30
2.3463522e-34
2.5324131e-39
7.5260185e-45
6.9027017e-51
-1.3430783e-57
-3.9007542e-63
5.0320034e-05
7.3569063e-05
3.7960118e-06
-6.7332435e-05
-3.0864197e-05
6.0861114e-05
9.8561587e-05
4.986457e-05
-4.7375314e-05
-0.0001039767
-9.8105923e-05
-5.7227025e-05
1.5090452e-05
5.3465567e-05
2.7576329e-05
-1.0549391e-05
-1.9554689e-05
-6.444086e-06
5.5454455e-07
3.0143556e-07
1.9335722e-08
-2.9878286e-09
-6.1356549e-05
-0.00013822362
-9.188434e-05
-2.2748454e-05
-2.6923373e-05
-0.00012760325
-0.00019069078
-0.00010274278
-2.620905e-05
-2.6256328e-06
-1.3101121e-07
1.5866188e-08
3.9969062e-09
5.5998835e-10
1.0463409e-10
2.8291551e-11
8.1369977e-12
2.2121231e-12
5.7939906e-13
1.3704155e-13
2.8108854e-14
4.7757381e-15
5.9451673e-16
2.488707e-17
-1.297798e-17
-5.046932e-18
-1.1788726e-18
-2.1268761e-19
-3.1522449e-20
4.5024964e-23
1.6155141e-25
7.560348e-29
6.3339417e-33
1.0048254e-37
4.3429454e-43
6.732235e-49
2.3792718e-55
-4.0200832e-61
-3.8889983e-67
-7.9349806e-05
2.7695626e-05
4.9931532e-05
-1.1104865e-05
-6.3892995e-05
-1.8264856e-05
7.1653739e-05
0.00010758238
5.77943e-05
-4.2119888e-05
-0.00010697658
-0.00010653667
-5.5522647e-05
2.1282472e-05
4.5852799e-05
1.8303046e-05
-6.880076e-06
-9.0799767e-06
-1.9405682e-06
1.889864e-07
5.1801609e-08
2.0309555e-09
-2.5084015e-10
-0.00015179057
-9.1605489e-05
-4.5182732e-06
9.0488522e-06
-8.3994392e-05
-0.00019862258
-0.00014479401
-4.9298317e-05
-7.5073365e-06
3.3869201e-07
3.1544407e-07
8.3067114e-08
1.3097943e-08
1.4720986e-09
1.3852633e-10
2.6098248e-11
6.5127349e-12
1.5536132e-12
3.4121001e-13
5.7864113e-14
4.8395098e-15
-1.3219086e-15
-8.3657034e-16
-2.7678404e-16
-7.0197864e-17
-1.4817876e-17
-2.6801974e-18
-4.1995541e-19
-1.975087e-22
1.2977772e-24
1.0591581e-27
1.3591131e-31
3.1355657e-36
1.8891382e-41
4.2660532e-47
3.647427e-53
-1.023318e-59
-4.8080895e-65
-3.5201041e-71
-0.00015710587
-9.4810816e-05
3.3685708e-06
2.5895608e-05
-2.4666126e-05
-5.8719245e-05
-5.5829682e-06
8.163206e-05
0.00011614746
6.479872e-05
-3.5428766e-05
-0.00010467178
-0.00010561334
-4.6987431e-05
2.1897793e-05
3.3720666e-05
9.1727523e-06
-3.5624367e-06
-2.9576024e-06
-3.8927854e-07
3.8103648e-08
5.8388319e-09
1.4280815e-10
-1.4080595e-11
-8.7591017e-05
1.6400558e-05
4.6796299e-05
-3.7861866e-05
-0.000185939
-0.00018511007
-7.9586172e-05
-1.5341704e-05
2.030783e-06
2.782195e-06
1.0411209e-06
2.5204714e-07
3.9132463e-08
2.850856e-09
1.4104116e-10
1.8453792e-11
3.6913011e-12
6.1740284e-13
2.480891e-14
-3.7802123e-14
-2.1154891e-14
-7.6874157e-15
-2.2440914e-15
-5.5829762e-16
-1.2119651e-16
-2.3192278e-17
-3.9266792e-18
-6.925338e-21
5.5433562e-24
1.1500881e-26
2.3411272e-30
7.8819124e-35
6.4943356e-40
1.9972537e-45
2.6936697e-51
9.1091425e-58
-2.4887758e-63
-4.7103866e-69
-2.9977755e-75
-7.8993997e-05