/*--------------------------------*- C++ -*----------------------------------*\
| =========                 |                                                 |
| \\      /  F ield         | OpenFOAM: The Open Source CFD Toolbox           |
|  \\    /   O peration     | Version:  5.0                                   |
|   \\  /    A nd           | Web:      www.OpenFOAM.org                      |
|    \\/     M anipulation  |                                                 |
\*---------------------------------------------------------------------------*/
FoamFile
{
    version     2.0;
    format      ascii;
    class       volVectorField;
    location    "140";
    object      ddtCorrDdt0(U);
}
// * * * * * * * * * * * * * * * * * * * * * * * * * * * * * * * * * * * * * //

dimensions      [0 1 -2 0 0 0 0];

internalField   nonuniform List<vector> 
9520
(
(-0.00014072496 2.7835331e-07 0)
(-0.00013987845 3.9009149e-07 0)
(-0.00014246596 2.5258521e-06 0)
(-0.00013792383 -1.6737709e-07 0)
(-0.00014074603 6.3080389e-06 0)
(-0.0001467801 5.5721344e-06 0)
(-0.00013512751 -1.9005314e-06 0)
(-0.00013730496 9.4980162e-06 0)
(-0.00014444355 1.5428709e-05 0)
(-0.00016058529 8.3750343e-06 0)
(-0.00013103533 -4.8445627e-06 0)
(-0.00013237444 1.1517738e-05 0)
(-0.00014053962 2.4150285e-05 0)
(-0.0001576966 2.4701186e-05 0)
(-0.00017371352 8.0354728e-06 0)
(-0.00012512246 -9.2010787e-06 0)
(-0.00012565237 1.2483719e-05 0)
(-0.0001349367 3.1521586e-05 0)
(-0.00015313566 3.9581874e-05 0)
(-0.00017107732 2.4847243e-05 0)
(-0.00018546013 5.3262131e-06 0)
(-0.00011681529 -1.5120881e-05 0)
(-0.00011641857 1.2714677e-05 0)
(-0.00012786514 3.7304029e-05 0)
(-0.00014639891 5.3373386e-05 0)
(-0.00016677537 4.0732422e-05 0)
(-0.00018378926 1.7298817e-05 0)
(-0.00019208646 2.4854801e-06 0)
(-0.00010494984 -2.1905667e-05 0)
(-0.00010462841 1.2292567e-05 0)
(-0.00011891584 4.1950437e-05 0)
(-0.00013790207 6.5586882e-05 0)
(-0.00016025567 5.6270439e-05 0)
(-0.00018026607 2.9345045e-05 0)
(-0.00019130895 8.1068415e-06 0)
(-0.0001931632 2.0830929e-06 0)
(-8.7616014e-05 -2.8099444e-05 0)
(-9.0793331e-05 1.160062e-05 0)
(-0.00010809119 4.5970236e-05 0)
(-0.00012776012 7.6447797e-05 0)
(-0.00015176672 7.1192677e-05 0)
(-0.00017489675 4.1929459e-05 0)
(-0.00018859532 1.4393175e-05 0)
(-0.00019289931 5.4591465e-06 0)
(-0.00019670355 4.8840106e-06 0)
(-6.2625729e-05 -2.9501216e-05 0)
(-7.7677036e-05 1.1333199e-05 0)
(-9.6500843e-05 4.9528771e-05 0)
(-0.00011540114 8.6561606e-05 0)
(-0.00014179907 8.5304147e-05 0)
(-0.00016748801 5.5547249e-05 0)
(-0.00018459714 2.144797e-05 0)
(-0.00019101221 9.4039217e-06 0)
(-0.00019617091 1.2776005e-05 0)
(-0.00020569617 9.4349771e-06 0)
(-3.326002e-05 -1.9741999e-05 0)
(-7.0835816e-05 1.5037646e-05 0)
(-8.7989232e-05 5.2662031e-05 0)
(-0.00010060105 9.5691711e-05 0)
(-0.00012977657 9.9027157e-05 0)
(-0.00015873806 6.9725808e-05 0)
(-0.00017902193 3.0561988e-05 0)
(-0.00018884122 1.3510512e-05 0)
(-0.0001946913 2.0812798e-05 0)
(-0.00020481014 2.6275456e-05 0)
(-0.00021979408 1.3427063e-05 0)
(-7.2855955e-06 6.1532093e-06 0)
(-8.3043226e-05 2.168277e-05 0)
(-8.7498627e-05 5.3096805e-05 0)
(-8.2565948e-05 0.00010197619 0)
(-0.00011417251 0.00011253284 0)
(-0.00014909764 8.4833739e-05 0)
(-0.0001724199 4.1228068e-05 0)
(-0.00018535955 1.8946463e-05 0)
(-0.00019278224 2.8828432e-05 0)
(-0.00020380532 4.2475186e-05 0)
(-0.00021864104 3.9141701e-05 0)
(-0.00023786698 1.4984979e-05 0)
(7.6898456e-06 4.3542501e-05 0)
(-0.00011067108 3.2065793e-05 0)
(-9.2846391e-05 4.5676364e-05 0)
(-5.698936e-05 9.9957097e-05 0)
(-9.0163403e-05 0.00012522228 0)
(-0.00013777597 0.00010191055 0)
(-0.00016592096 5.3004426e-05 0)
(-0.00018032347 2.59604e-05 0)
(-0.00019052689 3.6517247e-05 0)
(-0.00020219408 5.9013845e-05 0)
(-0.00021813999 6.338933e-05 0)
(-0.00023699086 4.5362107e-05 0)
(-0.00025674678 1.3429282e-05 0)
(2.395867e-05 0.00010618934 0)
(-0.00013219918 5.5611312e-05 0)
(-6.9459021e-05 2.6617095e-05 0)
(-8.3565738e-06 8.4868793e-05 0)
(-5.2623871e-05 0.000137482 0)
(-0.00012289874 0.00012428768 0)
(-0.00016084077 6.6566005e-05 0)
(-0.00017479812 3.3386136e-05 0)
(-0.00018666103 4.5018568e-05 0)
(-0.00020052853 7.4817052e-05 0)
(-0.00021709195 8.7457224e-05 0)
(-0.00023724895 7.4373067e-05 0)
(-0.00025668111 4.1959117e-05 0)
(-0.00027063097 9.4149643e-06 0)
(2.6245624e-05 0.00017531133 0)
(-0.00016427289 2.1769272e-05 0)
(-1.8833233e-05 -4.9247867e-05 0)
(5.8722154e-05 3.7521575e-05 0)
(5.0077455e-06 0.00015096047 0)
(-0.00010126081 0.00015491362 0)
(-0.00015987106 8.4140527e-05 0)
(-0.0001709839 3.9944037e-05 0)
(-0.00018083108 5.3823771e-05 0)
(-0.00019768886 9.0491667e-05 0)
(-0.00021548465 0.00011133212 0)
(-0.00023768349 0.00010235455 0)
(-0.00025730528 7.0306299e-05 0)
(-0.00027228198 3.0189585e-05 0)
(-0.00027886548 4.5488517e-06 0)
(2.3273367e-05 0.00026733544 0)
(-0.00022909593 1.2431398e-05 0)
(2.2390343e-05 -0.00010745493 0)
(0.00010589114 -7.3106725e-06 0)
(6.9393764e-05 0.00018024333 0)
(-8.3019816e-05 0.00020830764 0)
(-0.00017357654 0.00011292699 0)
(-0.00017392612 4.4376584e-05 0)
(-0.00017365064 6.1226587e-05 0)
(-0.00019222955 0.00010673674 0)
(-0.00021335412 0.00013496518 0)
(-0.00023798493 0.00013038778 0)
(-0.00025848947 9.8242373e-05 0)
(-0.00027440253 5.2100668e-05 0)
(-0.00028185895 1.5096242e-05 0)
(-0.0002814705 7.0818721e-07 0)
(-2.2226179e-05 0.00042591941 0)
(-0.00035668608 -8.4574582e-05 0)
(5.3507203e-05 -0.00019662205 0)
(0.00019924908 -4.7817394e-05 0)
(0.0001383927 0.00023056764 0)
(-7.4410205e-05 0.000292044 0)
(-0.00021214986 0.00015649188 0)
(-0.00018798526 4.430902e-05 0)
(-0.00016658352 6.3574116e-05 0)
(-0.00018299415 0.00012339275 0)
(-0.00020982772 0.00015947243 0)
(-0.00023841751 0.00015901859 0)
(-0.00026053016 0.0001255473 0)
(-0.00027683506 7.6153682e-05 0)
(-0.00028638795 2.724291e-05 0)
(-0.00028537162 2.7715372e-06 0)
(-0.00028081245 -7.0636372e-07 0)
(-9.3013899e-05 0.00053311089 0)
(-0.00057375124 -6.4160631e-05 0)
(9.2779194e-05 -0.00036208894 0)
(0.0003805973 -0.00011401482 0)
(0.00021041084 0.00028404181 0)
(-6.7247476e-05 0.00042040694 0)
(-0.00028387616 0.00021776401 0)
(-0.00021942704 2.9997041e-05 0)
(-0.00015759974 5.3706468e-05 0)
(-0.00016762834 0.0001388429 0)
(-0.00020300114 0.00018617224 0)
(-0.00023891626 0.00018920633 0)
(-0.00026362387 0.00015415355 0)
(-0.00028058911 9.9978251e-05 0)
(-0.00029058545 4.3162455e-05 0)
(-0.0002915845 6.4104722e-06 0)
(-0.0002851745 -2.3819429e-06 0)
(-0.00027998265 4.9602032e-07 0)
(-0.00026691204 0.00087228688 0)
(-0.00085952728 -0.00032485346 0)
(0.00013846931 -0.00058810914 0)
(0.00067363215 -0.00021130707 0)
(0.00035074095 0.00039472607 0)
(-8.8062767e-05 0.00057736482 0)
(-0.00039109635 0.00030719764 0)
(-0.00027986054 1.2171414e-06 0)
(-0.00014561064 2.3201338e-05 0)
(-0.00014313655 0.00014940436 0)
(-0.00018942654 0.00021611793 0)
(-0.00023851529 0.00022297251 0)
(-0.00026856234 0.00018473031 0)
(-0.00028649517 0.00012493472 0)
(-0.00029560836 6.2255668e-05 0)
(-0.00029977159 1.1205524e-05 0)
(-0.00029159174 -2.376579e-06 0)
(-0.0002845997 2.3417353e-07 0)
(-0.00028120833 3.3102123e-06 0)
(-0.00037176411 0.00093665226 0)
(-0.0013537767 -0.00024889202 0)
(0.00025606662 -0.00099941717 0)
(0.0010963118 -0.0003883426 0)
(0.00056251577 0.00059417174 0)
(-0.00016141558 0.00079670142 0)
(-0.00055375157 0.00043159511 0)
(-0.00038406616 -6.5600614e-05 0)
(-0.00013324883 -4.0146283e-05 0)
(-0.00010625335 0.0001525967 0)
(-0.00016368841 0.00024956434 0)
(-0.00023475288 0.00026297508 0)
(-0.0002759948 0.00021924575 0)
(-0.00029546547 0.00015130295 0)
(-0.00030342668 8.1685406e-05 0)
(-0.00030667939 2.2245227e-05 0)
(-0.00030101928 -4.2344445e-06 0)
(-0.00029064844 1.6169367e-06 0)
(-0.00028584669 7.8678972e-06 0)
(-0.00028522523 6.21542e-06 0)
(-0.0006581342 0.0016501378 0)
(-0.0018721433 -0.00083751951 0)
(0.00038200541 -0.0014086095 0)
(0.0016216443 -0.00051851102 0)
(0.00089604437 0.00087557891 0)
(-0.00026690553 0.0011152861 0)
(-0.00084168623 0.00057446881 0)
(-0.00051555227 -0.00015502795 0)
(-0.00012753935 -0.00016884365 0)
(-4.011398e-05 0.00013211285 0)
(-0.00011321757 0.00028614856 0)
(-0.00022314571 0.00031404543 0)
(-0.00028653358 0.00026087728 0)
(-0.0003091884 0.00017951622 0)
(-0.00031385771 0.00010095701 0)
(-0.00031362848 3.5096817e-05 0)
(-0.00031184982 -2.8179302e-06 0)
(-0.00029972543 1.4370925e-06 0)
(-0.00029224387 1.302101e-05 0)
(-0.00028944865 1.6506405e-05 0)
(-0.00029149219 8.0132409e-06 0)
(-0.00080298885 0.0015208666 0)
(-0.0026920096 -0.00069311067 0)
(0.00056583432 -0.0022537433 0)
(0.002496634 -0.00096682904 0)
(0.0013950477 0.0013075263 0)
(-0.00045204211 0.001612855 0)
(-0.001275405 0.00074904552 0)
(-0.00069558796 -0.00034653533 0)
(-4.7550228e-05 -0.00036733364 0)
(9.7545663e-05 8.2611516e-05 0)
(-1.6225762e-05 0.00032147675 0)
(-0.00019413046 0.00038340387 0)
(-0.00030116625 0.00031645131 0)
(-0.00033099275 0.00021094892 0)
(-0.00032877879 0.00011835219 0)
(-0.00032265119 4.6221532e-05 0)
(-0.00032133309 9.0857763e-08 0)
(-0.00031078483 1.5550764e-06 0)
(-0.00030097207 2.0263458e-05 0)
(-0.00029721182 2.5432195e-05 0)
(-0.00029497382 2.2820029e-05 0)
(-0.00029875413 8.195887e-06 0)
(-0.0012081789 0.0026759886 0)
(-0.0032049039 -0.0016399281 0)
(0.00079705145 -0.0029908811 0)
(0.0033643809 -0.0010937293 0)
(0.0020051622 0.0018388627 0)
(-0.00071466367 0.0023011356 0)
(-0.0019433069 0.00099718362 0)
(-0.0010505865 -0.00062032714 0)
(6.2058216e-05 -0.00068819679 0)
(0.00032858836 -3.8935144e-05 0)
(0.00016469586 0.00036426573 0)
(-0.00013400424 0.00048439066 0)
(-0.00032145999 0.00039727605 0)
(-0.0003676518 0.000249109 0)
(-0.00035210905 0.0001319806 0)
(-0.00033319488 5.2791855e-05 0)
(-0.000328056 3.9368855e-06 0)
(-0.00032021504 3.2758779e-06 0)
(-0.00031247294 2.5255031e-05 0)
(-0.00030657298 4.0168216e-05 0)
(-0.00030436442 3.5140503e-05 0)
(-0.00030190634 2.4979964e-05 0)
(-0.00030554868 6.7267878e-06 0)
(-0.0018077924 0.0023916482 0)
(-0.0046590686 -0.0013206803 0)
(0.00094353115 -0.0044568007 0)
(0.0049797013 -0.0018878045 0)
(0.0029621127 0.0027027895 0)
(-0.0011029771 0.0033431593 0)
(-0.0028966068 0.0012861868 0)
(-0.0015562644 -0.001067376 0)
(0.00017992909 -0.0011913614 0)
(0.00074586275 -0.0001885364 0)
(0.00035870808 0.00038553736 0)
(-3.9368547e-05 0.00064817233 0)
(-0.0003544731 0.00052825603 0)
(-0.00043241699 0.00030097496 0)
(-0.00039132841 0.00013923696 0)
(-0.00034675446 5.065971e-05 0)
(-0.00033247781 3.8342943e-06 0)
(-0.00032691875 5.6171343e-06 0)
(-0.00032299889 3.2819911e-05 0)
(-0.00031843665 5.2591819e-05 0)
(-0.00031570823 5.2911092e-05 0)
(-0.0003121766 4.0776569e-05 0)
(-0.00030951586 2.2341975e-05 0)
(-0.00031062651 3.7734902e-06 0)
(-0.0025079241 0.0037351635 0)
(-0.0048554368 -0.0028047344 0)
(0.001408363 -0.0054730146 0)
(0.0062028251 -0.0020590403 0)
(0.0039685001 0.0034370371 0)
(-0.0016007323 0.0047143786 0)
(-0.0042322107 0.0017265665 0)
(-0.0022697482 -0.0017152747 0)
(0.00039375095 -0.0019607652 0)
(0.0013565499 -0.00045841027 0)
(0.00062580759 0.00053414713 0)
(7.2108847e-05 0.0009077131 0)
(-0.00041558185 0.00073457541 0)
(-0.00054640137 0.00037967871 0)
(-0.00046018335 0.00013617586 0)
(-0.00036684616 3.2285811e-05 0)
(-0.00033332724 -4.8646629e-06 0)
(-0.00032809173 7.4724027e-06 0)
(-0.00033034683 4.2467979e-05 0)
(-0.00033125798 6.718594e-05 0)
(-0.00032835203 7.2349766e-05 0)
(-0.00032620246 5.7045034e-05 0)
(-0.00031970607 4.0183903e-05 0)
(-0.00031627215 1.4779701e-05 0)
(-0.00031296354 -3.0306466e-07 0)
(-0.0021658824 0.003097926 0)
(-0.0060641844 -0.0024111939 0)
(0.0020866796 -0.0080190144 0)
(0.0086434773 -0.0031571157 0)
(0.0054470247 0.0052056327 0)
(-0.002371676 0.0066686112 0)
(-0.0060233044 0.0020910148 0)
(-0.0032220507 -0.0026642053 0)
(0.00066581882 -0.0030180763 0)
(0.0021742143 -0.00084978198 0)
(0.00120677 0.0008137905 0)
(0.00016456445 0.0012427291 0)
(-0.00051951347 0.0010788351 0)
(-0.00074482988 0.00049916856 0)
(-0.00058336383 0.00011297502 0)
(-0.0004020288 -1.7289628e-05 0)
(-0.00032827192 -3.0527549e-05 0)
(-0.00031997279 6.1527698e-06 0)
(-0.0003318791 5.4830269e-05 0)
(-0.00034179811 8.5042068e-05 0)
(-0.00034344154 9.2555266e-05 0)
(-0.00034073515 7.957201e-05 0)
(-0.00033544192 5.3953588e-05 0)
(-0.00032643465 2.9716954e-05 0)
(-0.00032019587 2.6340133e-06 0)
(-0.00031171061 -4.9907034e-06 0)
(-0.0047180061 0.0049676632 0)
(-0.0074102721 -0.0041985698 0)
(0.0025334118 -0.0080689749 0)
(0.010608338 -0.0034938464 0)
(0.0064052655 0.0055332126 0)
(-0.0030990473 0.0090410812 0)
(-0.008481228 0.0028983945 0)
(-0.0045770359 -0.0038869011 0)
(0.00099897502 -0.0045080609 0)
(0.0032926802 -0.0014288533 0)
(0.0021124833 0.0011830671 0)
(0.0002989426 0.0017620212 0)
(-0.0007034837 0.001543379 0)
(-0.0010481088 0.00068577526 0)
(-0.00079613117 5.7160632e-05 0)
(-0.00045600686 -0.00011525887 0)
(-0.00031101457 -8.3802997e-05 0)
(-0.00029607464 -3.1011572e-06 0)
(-0.00032320388 6.9648724e-05 0)
(-0.00034783661 0.00010824212 0)
(-0.00035809087 0.00011611441 0)
(-0.00035761939 0.00010251709 0)
(-0.00035271639 7.3176095e-05 0)
(-0.0003422871 4.1757983e-05 0)
(-0.0003315441 8.454427e-06 0)
(-0.00031992403 -1.2556698e-05 0)
(-0.00030672514 -9.6777266e-06 0)
(-0.0072296158 0.004213002 0)
(-0.009053675 -0.0038295243 0)
(0.0027972624 -0.010190824 0)
(0.015096102 -0.0041896931 0)
(0.0081231845 0.0089859896 0)
(-0.0039536775 0.012614963 0)
(-0.011524427 0.0032055105 0)
(-0.0062239046 -0.0055399151 0)
(0.0014507604 -0.0064828249 0)
(0.0048425261 -0.0022829289 0)
(0.003450489 0.0016707544 0)
(0.00055085875 0.0026069601 0)
(-0.0010160954 0.0021762309 0)
(-0.0015036048 0.00094297877 0)
(-0.0011079608 -5.229287e-05 0)
(-0.00054171773 -0.0002952191 0)
(-0.00027815002 -0.00018938676 0)
(-0.00024497235 -2.872368e-05 0)
(-0.00029588097 8.6994052e-05 0)
(-0.0003455521 0.0001389331 0)
(-0.00037081661 0.00014608986 0)
(-0.00037628237 0.0001286684 0)
(-0.00037159447 9.4970418e-05 0)
(-0.00036226199 5.4003747e-05 0)
(-0.00034747223 1.7721098e-05 0)
(-0.00033347992 -1.8204136e-05 0)
(-0.00031543584 -2.7718697e-05 0)
(-0.00029874454 -1.3626232e-05 0)
(-0.0082319841 0.0046395513 0)
(-0.0072607857 -0.0067288112 0)
(0.0048480721 -0.014024767 0)
(0.015273775 -0.0047275184 0)
(0.0094293075 0.0092132203 0)
(-0.0062063651 0.016131954 0)
(-0.015691075 0.0045068456 0)
(-0.008600598 -0.0076020243 0)
(0.0020654772 -0.0092090228 0)
(0.0069532502 -0.003435544 0)
(0.0052966037 0.0023012658 0)
(0.00097680783 0.0038604459 0)
(-0.0015034789 0.0031099146 0)
(-0.0022462958 0.0012932522 0)
(-0.0015547818 -0.00022211062 0)
(-0.00067826234 -0.00060588277 0)
(-0.00021683594 -0.00037782557 0)
(-0.00014830231 -8.4924201e-05 0)
(-0.00023457878 0.00010633143 0)
(-0.00032747924 0.00018151881 0)
(-0.00037927382 0.00018650904 0)
(-0.00039608359 0.00016132781 0)
(-0.00039441282 0.00012061629 0)
(-0.00038455591 7.2467215e-05 0)
(-0.00036891308 2.611251e-05 0)
(-0.00035027255 -1.3364418e-05 0)
(-0.00033142416 -4.3051113e-05 0)
(-0.00030791109 -3.9683962e-05 0)
(-0.00028885675 -1.6258657e-05 0)
(-0.0092423308 0.0037893817 0)
(-0.0060754512 -0.0069744026 0)
(0.0098381781 -0.017657033 0)
(0.020516722 -0.0063704371 0)
(0.010888615 0.013725725 0)
(-0.0082275256 0.020507048 0)
(-0.019972342 0.0046018212 0)
(-0.011051896 -0.010281603 0)
(0.0029272984 -0.012678038 0)
(0.0097783095 -0.0050601341 0)
(0.0078308125 0.0031029895 0)
(0.0016357146 0.0056604927 0)
(-0.0022114895 0.0044362104 0)
(-0.0033742575 0.0017678371 0)
(-0.0022635993 -0.00049206135 0)
(-0.00087107141 -0.0010915729 0)
(-0.00011021339 -0.0006938567 0)
(2.5056005e-05 -0.00018745293 0)
(-0.00011653235 0.00012840042 0)
(-0.00028215799 0.00024350934 0)
(-0.00038086094 0.00024394273 0)
(-0.00041778237 0.00020432893 0)
(-0.00042132362 0.00015281987 0)
(-0.00041139276 9.7198782e-05 0)
(-0.0003952526 4.1021348e-05 0)
(-0.00037316399 -8.9486766e-06 0)
(-0.00035116651 -4.9327487e-05 0)
(-0.00032452376 -6.1392037e-05 0)
(-0.00029858393 -4.7227666e-05 0)
(-0.00027812281 -1.7426348e-05 0)
(-0.010262398 0.0036372349 2.5700406e-23)
(-0.0049570096 -0.0099423917 0)
(0.012720086 -0.021040545 0)
(0.027863651 -0.0056266051 0)
(0.010728555 0.011992294 0)
(-0.0036625973 0.026701877 0)
(-0.024429774 0.0061238426 0)
(-0.013507473 -0.013478346 0)
(0.0042841557 -0.017363437 0)
(0.013461535 -0.0069692026 0)
(0.011136695 0.004113848 0)
(0.0025972327 0.0081049215 0)
(-0.0032060804 0.0064019168 0)
(-0.0050315014 0.0024164882 0)
(-0.003340044 -0.00093616714 0)
(-0.0011413408 -0.0018197793 0)
(5.7355008e-05 -0.0012004186 0)
(0.00031049422 -0.00036113652 0)
(8.9790715e-05 0.00015744316 0)
(-0.00020030719 0.00033903438 0)
(-0.00037502262 0.00033073918 0)
(-0.00044371267 0.00026686261 0)
(-0.00045531965 0.00019558906 0)
(-0.00044409511 0.00012721758 0)
(-0.00042558956 5.9887243e-05 0)
(-0.00040174158 -2.165139e-06 0)
(-0.00037443632 -5.1619862e-05 0)
(-0.00034712281 -8.3006438e-05 0)
(-0.00031533684 -7.373515e-05 0)
(-0.00028835119 -5.0827935e-05 0)
(-0.00026745273 -1.7300885e-05 0)
(-0.011326513 0.0028469828 -2.3985605e-23)
(-0.0049195087 -0.011480359 -2.6873262e-23)
(0.015753371 -0.023129807 0)
(0.025995719 -0.0051077393 0)
(0.007184202 0.019094982 0)
(-0.0042264911 0.034126037 0)
(-0.029965205 0.0064300233 0)
(-0.017244071 -0.016692898 0)
(0.0061313745 -0.023115837 0)
(0.01831162 -0.0096218996 0)
(0.01547942 0.0053878227 0)
(0.003874041 0.011385494 0)
(-0.0045679461 0.0090656122 0)
(-0.0073790809 0.0033184518 0)
(-0.0049350361 -0.0016015693 0)
(-0.0015386882 -0.002922543 0)
(0.00033847618 -0.0019663869 0)
(0.00075605764 -0.00061761997 0)
(0.00038602679 0.00019317009 0)
(-7.5994562e-05 0.00048916756 0)
(-0.00035785277 0.00047487625 0)
(-0.00047879818 0.00036435413 0)
(-0.00050218984 0.00025451099 0)
(-0.0004865471 0.00016325886 0)
(-0.00046181104 8.1296505e-05 0)
(-0.00043390831 7.017788e-06 0)
(-0.00040349898 -5.2700667e-05 0)
(-0.00037186011 -9.2769871e-05 0)
(-0.0003390037 -0.00010013429 0)
(-0.00030563366 -8.0179536e-05 0)
(-0.00027814796 -5.1205537e-05 0)
(-0.00025757641 -1.6197399e-05 0)
(-0.011978429 0.0021798363 2.4080463e-23)
(-0.0049656961 -0.014240017 7.4189845e-23)
(0.017886336 -0.026642709 0)
(0.02650581 -0.0039506585 0)
(0.0073861527 0.020495392 0)
(-0.019752368 0.03859496 0)
(-0.039227439 0.0092448631 0)
(-0.027708358 -0.021971816 0)
(0.0075027242 -0.030002041 0)
(0.024252059 -0.012163465 0)
(0.020756849 0.0069114617 0)
(0.005632154 0.015662752 0)
(-0.0063969651 0.012895246 0)
(-0.010648202 0.0045007477 0)
(-0.0071845838 -0.0025999869 0)
(-0.0021090908 -0.0045353949 0)
(0.00078399294 -0.003098649 0)
(0.0014410606 -0.0010468917 0)
(0.00092541151 0.00029059368 0)
(0.00011519167 0.00074790021 0)
(-0.00031930474 0.00070179032 0)
(-0.00052766126 0.00051275519 0)
(-0.00057250049 0.0003358502 0)
(-0.00054571747 0.00020599227 0)
(-0.00050727084 0.00010403901 0)
(-0.0004705459 1.7315618e-05 0)
(-0.00043638082 -5.0831635e-05 0)
(-0.00040354249 -9.7930994e-05 0)
(-0.00036692244 -0.00011898556 0)
(-0.00032981583 -0.0001101533 0)
(-0.00029459461 -8.1691762e-05 0)
(-0.00026831293 -4.8971114e-05 0)
(-0.00024852811 -1.4580662e-05 0)
(-0.012212929 0.0014477947 0)
(-0.0050095828 -0.01665548 -7.4326295e-23)
(0.01935552 -0.029251261 0)
(0.027621726 -0.0034227095 0)
(0.0049078243 0.027197745 0)
(-0.027112338 0.046023765 0)
(-0.044148095 0.010169329 0)
(-0.032836145 -0.024480425 0)
(0.0080638318 -0.039072575 0)
(0.03149098 -0.015782917 0)
(0.027003498 0.0090539776 0)
(0.0075593289 0.02095738 0)
(-0.0088578902 0.017793391 0)
(-0.015078954 0.0061356309 0)
(-0.010332186 -0.0039834467 0)
(-0.002902535 -0.0068617539 0)
(0.0014544545 -0.004726504 0)
(0.0024748664 -0.0016775648 0)
(0.0017574388 0.00037129613 0)
(0.00049548536 0.0010953417 0)
(-0.00019167842 0.0010249887 0)
(-0.00058922482 0.00073252449 0)
(-0.00067808068 0.00045076505 0)
(-0.00063338311 0.00025679613 0)
(-0.00056866379 0.00012542524 0)
(-0.00051517447 2.5607792e-05 0)
(-0.00047207095 -4.8939541e-05 0)
(-0.00043527393 -0.000100006 0)
(-0.00039928323 -0.00013047861 0)
(-0.0003606334 -0.000132584 0)
(-0.00031975882 -0.00011272471 0)
(-0.00028283152 -8.0655214e-05 0)
(-0.00025791192 -4.5350284e-05 0)
(-0.00024060718 -1.2837608e-05 0)
(-0.011886101 0.00067576695 -7.9475637e-24)
(-0.0052212967 -0.019393633 0)
(0.020104606 -0.032784272 -8.3058264e-23)
(0.028165244 -0.0026731011 0)
(0.0038467017 0.031693494 0)
(-0.031443318 0.050355442 0)
(-0.044297177 0.0087560248 0)
(-0.025900197 -0.030888518 0)
(0.0092860728 -0.050631127 0)
(0.039331676 -0.018266657 0)
(0.033791197 0.011297701 0)
(0.0097142481 0.027617256 0)
(-0.012237954 0.024634585 0)
(-0.020993675 0.0080876995 0)
(-0.014505159 -0.0059386302 0)
(-0.0039615384 -0.010069849 0)
(0.0024168376 -0.0070276055 0)
(0.0039878834 -0.0025769964 0)
(0.0029677142 0.00048793206 0)
(0.00116612 0.0016607001 0)
(-0.00010990877 0.0014365847 0)
(-0.00065807663 0.0010761174 0)
(-0.00083940586 0.00062180008 0)
(-0.00076931192 0.00031784154 0)
(-0.00065704142 0.00014108581 0)
(-0.00057113809 2.6796466e-05 0)
(-0.00051279693 -5.078438e-05 0)
(-0.0004712542 -0.00010372076 0)
(-0.00043199837 -0.00013748241 0)
(-0.00039235433 -0.00014817116 0)
(-0.00035278616 -0.00013684436 0)
(-0.00030946042 -0.00010863856 0)
(-0.00027646145 -7.7690433e-05 0)
(-0.00024913515 -4.1541638e-05 0)
(-0.00023384689 -1.1243035e-05 0)
(-0.01098159 4.0253665e-05 4.157889e-23)
(-0.0052139388 -0.021862452 8.1625487e-23)
(0.019726876 -0.036012213 8.3006018e-23)
(0.02827039 -0.00061388944 -5.9837456e-23)
(0.003541547 0.036305644 -1.0704686e-22)
(-0.034699123 0.05739294 0)
(-0.045717148 0.0067642548 0)
(-0.022188313 -0.033293567 0)
(0.014639866 -0.066114753 0)
(0.050448704 -0.024331381 0)
(0.04311557 0.014447115 0)
(0.011788884 0.03545556 0)
(-0.016957304 0.032956612 0)
(-0.028916177 0.010758928 0)
(-0.020068557 -0.0085104342 0)
(-0.0053163362 -0.01447912 0)
(0.0038035272 -0.010158631 0)
(0.0061134254 -0.0038145392 0)
(0.0047110981 0.00062917937 0)
(0.0021401756 0.0024654022 0)
(2.1997948e-05 0.0022187656 0)
(-0.00080446438 0.0015990678 0)
(-0.0010830678 0.00088860614 0)
(-0.00098472871 0.0004004631 0)
(-0.00079236391 0.00014303711 0)
(-0.00064687182 9.9761269e-06 0)
(-0.00055774396 -6.4119795e-05 0)
(-0.00050607671 -0.00011134626 0)
(-0.00046819674 -0.0001447691 0)
(-0.00042842542 -0.00015969279 0)
(-0.00038584473 -0.00015490523 0)
(-0.00034317877 -0.00013412612 0)
(-0.00030112738 -0.00010130177 0)
(-0.00026734019 -6.859749e-05 0)
(-0.00024230691 -3.6467101e-05 0)
(-0.00022808485 -1.01065e-05 0)
(-0.0095976082 -0.00059647247 -5.2658088e-23)
(-0.0049641813 -0.024246291 -1.3062596e-22)
(0.018450014 -0.039382966 0)
(0.027439615 0.00062555945 1.6891567e-22)
(0.0025332748 0.040640723 1.0661336e-22)
(-0.035676925 0.063492677 -2.2105374e-22)
(-0.046799427 0.0060554125 -1.3485128e-22)
(-0.019927766 -0.042535711 0)
(0.020462575 -0.077888796 0)
(0.059301961 -0.02748363 0)
(0.060934205 0.017265108 0)
(0.017321013 0.045262985 0)
(-0.022439381 0.044446206 0)
(-0.039293587 0.013353877 0)
(-0.026913732 -0.01200049 0)
(-0.0070106177 -0.020274497 0)
(0.0057232312 -0.014393643 0)
(0.0090289845 -0.0054635144 0)
(0.007157125 0.00080605356 0)
(0.0035337194 0.0036025848 0)
(0.00033245435 0.0034150592 0)
(-0.0010985663 0.0023322636 0)
(-0.0014661281 0.0013218558 0)
(-0.0013322599 0.00050861528 0)
(-0.0010021288 0.00012479734 0)
(-0.00075520208 -3.9733023e-05 0)
(-0.00060987953 -0.0001030845 0)
(-0.00053767976 -0.00013109149 0)
(-0.00049788184 -0.00015443564 0)
(-0.0004626449 -0.00016970985 0)
(-0.00042415983 -0.00016813119 0)
(-0.00037946854 -0.00015372959 0)
(-0.0003343278 -0.00012662256 0)
(-0.00029312286 -9.2859379e-05 0)
(-0.00025970082 -5.9398528e-05 0)
(-0.00023597442 -3.2520017e-05 0)
(-0.00022304773 -9.6541787e-06 0)
(-0.0078167509 -0.0011068658 4.9637135e-24)
(-0.0042480318 -0.026438694 2.569722e-23)
(0.015949257 -0.042465633 3.1792856e-23)
(0.025389451 0.0022561258 -4.7100987e-23)
(0.0025083272 0.045179347 -1.1440268e-22)
(-0.036016637 0.069893358 -7.3533607e-24)
(-0.046804804 0.0061774453 -2.0811315e-22)
(-0.01905083 -0.047293968 -3.2169927e-23)
(0.028159203 -0.085251205 0)
(0.06823133 -0.034079199 0)
(0.063919432 0.023192528 0)
(0.01818739 0.05517729 0)
(-0.025941776 0.055841383 0)
(-0.050224632 0.016550833 0)
(-0.03494499 -0.016749975 0)
(-0.00875511 -0.027860181 0)
(0.0083712208 -0.019843956 0)
(0.012921879 -0.0076430539 0)
(0.010480189 0.0010492759 0)
(0.0054979787 0.0051459587 0)
(0.00084951916 0.0051530164 0)
(-0.0015177114 0.0034656313 0)
(-0.0021063271 0.0018910132 0)
(-0.0018381441 0.00069188303 0)
(-0.0013483213 5.6017196e-05 0)
(-0.00091572337 -0.00014901354 0)
(-0.00067249324 -0.00018830103 0)
(-0.00056180265 -0.00017702281 0)
(-0.00051797372 -0.00017216484 0)
(-0.00049067674 -0.00017673311 0)
(-0.00046004883 -0.00017659463 0)
(-0.00041956946 -0.00016760469 0)
(-0.00037279051 -0.00014677736 0)
(-0.00032668645 -0.00011711618 0)
(-0.00028477684 -8.3696344e-05 0)
(-0.00025327476 -5.465822e-05 0)
(-0.00023061059 -3.0113792e-05 0)
(-0.00021840745 -9.9754471e-06 0)
(-0.0055191636 -0.0015146144 1.2416262e-23)
(-0.0033972034 -0.028200441 -8.0886519e-24)
(0.012385444 -0.044862505 0)
(0.022216975 0.0036922398 -6.2948982e-24)
(0.0020081928 0.049694782 3.6956314e-23)
(-0.035167821 0.076679543 0)
(-0.044980873 0.0055124542 2.6886423e-22)
(-0.019133667 -0.051578745 4.1502308e-22)
(0.031252519 -0.10209722 0)
(0.073951523 -0.033534633 0)
(0.067124921 0.026127691 0)
(0.014528829 0.066494097 0)
(-0.028400062 0.07332463 0)
(-0.060748403 0.018857431 0)
(-0.044101108 -0.022908355 0)
(-0.010334034 -0.037330446 0)
(0.011999898 -0.02696368 0)
(0.018021147 -0.010286856 0)
(0.014901286 0.0013318017 0)
(0.0081986433 0.007218583 0)
(0.0016204151 0.0075764843 0)
(-0.0020895103 0.0051633698 0)
(-0.0030948709 0.0027119072 0)
(-0.0026482754 0.00090969611 0)
(-0.0018538347 -5.5796444e-05 0)
(-0.0011637357 -0.00034854307 0)
(-0.00075408235 -0.00035711881 0)
(-0.00057229832 -0.00027316398 0)
(-0.0005179098 -0.0002106235 0)
(-0.00050387873 -0.00018584079 0)
(-0.00048906564 -0.00017813684 0)
(-0.0004589695 -0.0001732193 0)
(-0.00041557481 -0.00016052763 0)
(-0.00036711509 -0.00013704186 0)
(-0.00031847407 -0.00010692261 0)
(-0.00027818749 -7.7422667e-05 0)
(-0.00024728096 -5.0845647e-05 0)
(-0.00022553231 -2.9912813e-05 0)
(-0.00021367214 -1.1063937e-05 0)
(-0.0031898077 -0.0016104625 0)
(-0.0025724528 -0.029238472 0)
(0.0086697766 -0.046713906 8.3466112e-24)
(0.017749415 0.0048743284 0)
(0.0016583024 0.053994951 9.1550525e-24)
(-0.033317452 0.082683681 1.4271366e-23)
(-0.042721491 0.0052699155 -3.6629983e-22)
(-0.018362371 -0.05641337 6.6175217e-22)
(0.030504775 -0.11249762 0)
(0.077571052 -0.037610961 0)
(0.06275152 0.035519099 0)
(0.010336755 0.076591941 0)
(-0.019787442 0.091055511 0)
(-0.075888116 0.024964516 0)
(-0.057762608 -0.02939876 0)
(-0.011935973 -0.048897006 0)
(0.016896784 -0.035508905 0)
(0.02450414 -0.013669953 0)
(0.020579092 0.0017389438 0)
(0.011845663 0.009870659 0)
(0.0027746461 0.010950273 0)
(-0.002853963 0.0076699888 0)
(-0.0045479287 0.0039094509 0)
(-0.0039277625 0.001170991 0)
(-0.0025955731 -0.00023742376 0)
(-0.001559251 -0.00071727284 0)
(-0.00086182908 -0.00063754013 0)
(-0.00056250203 -0.00044687542 0)
(-0.00048323162 -0.0002875755 0)
(-0.00048795415 -0.00020475653 0)
(-0.00050156178 -0.00017378955 0)
(-0.00049310953 -0.00016747782 0)
(-0.00045979944 -0.0001635681 0)
(-0.00041314037 -0.00015030409 0)
(-0.00036088094 -0.00012690638 0)
(-0.00031159786 -9.9221397e-05 0)
(-0.00027130852 -7.2414193e-05 0)
(-0.00024150036 -5.1362617e-05 0)
(-0.00022036466 -3.2060743e-05 0)
(-0.00020865543 -1.2758697e-05 0)
(-0.0029118614 -0.029934393 5.8797228e-25)
(-0.0016417045 -0.001618652 0)
(0.0037407734 -0.048270762 1.4033067e-23)
(0.012905609 0.0058922578 -2.3510254e-23)
(0.0012329392 0.057534573 1.1866902e-23)
(-0.029970121 0.088073131 -8.0792716e-23)
(-0.038653227 0.0046024341 -1.9483575e-24)
(-0.017380188 -0.061055511 4.1372703e-22)
(0.029625126 -0.12610797 -6.6076797e-22)
(0.077641473 -0.045910656 0)
(0.063105595 0.03937473 -5.221199e-22)
(0.0099194425 0.08817217 0)
(-0.038053222 0.11457348 0)
(-0.10574479 0.029852919 0)
(-0.077331115 -0.035722934 0)
(-0.017499716 -0.063529752 0)
(0.02370707 -0.046225583 0)
(0.032603517 -0.017266097 0)
(0.027644982 0.0021100492 0)
(0.016639599 0.013225811 0)
(0.0043610158 0.015382945 0)
(-0.0038484198 0.011151062 0)
(-0.0066314052 0.0056715221 0)
(-0.0058319725 0.0015152759 0)
(-0.0037705773 -0.00060062073 0)
(-0.0020896105 -0.0012410714 0)
(-0.0010325663 -0.0011308299 0)
(-0.00052229747 -0.00076002771 0)
(-0.00039171774 -0.00043081947 0)
(-0.00042190266 -0.00024404224 0)
(-0.00048181728 -0.00016497544 0)
(-0.00051186508 -0.00014825066 0)
(-0.00050132131 -0.00015203031 0)
(-0.00046299043 -0.00015183632 0)
(-0.00041051933 -0.0001404816 0)
(-0.00035505033 -0.00011883154 0)
(-0.00030493286 -9.5265885e-05 0)
(-0.00026503984 -7.2600762e-05 0)
(-0.00023591981 -5.4376645e-05 0)
(-0.00021529911 -3.5870441e-05 0)
(-0.00020310149 -1.4919514e-05 0)
(-0.00056734067 -0.04898108 -1.4225848e-23)
(-0.0027816788 -0.029765872 0)
(-0.00022519492 -0.0014971561 -1.4399545e-23)
(0.007903809 0.0065857602 2.3498075e-23)
(0.00062887325 0.06025762 -7.7210685e-24)
(-0.025500726 0.092910783 -1.8448049e-23)
(-0.033860737 0.0034772815 1.3545201e-22)
(-0.015053374 -0.065389876 1.425631e-22)
(0.027550184 -0.13890245 -5.4263317e-22)
(0.075832645 -0.051369889 -1.4538533e-22)
(0.06558507 0.039662961 -9.0002551e-22)
(0.005447359 0.1050437 5.576942e-22)
(-0.067374928 0.12846697 0)
(-0.12069439 0.038729597 0)
(-0.090445638 -0.045762083 0)
(-0.025500445 -0.081107857 0)
(0.03130297 -0.058422018 0)
(0.042410475 -0.021874085 0)
(0.036288662 0.0028050851 0)
(0.022708614 0.017257547 0)
(0.0066934351 0.021175327 0)
(-0.0051555079 0.016061908 0)
(-0.0095441126 0.0081370728 0)
(-0.0085679137 0.0019698114 0)
(-0.0055353361 -0.0012088294 0)
(-0.002847357 -0.0020736221 0)
(-0.0012761053 -0.0019088384 0)
(-0.00043312173 -0.0012433693 0)
(-0.00021409071 -0.00068450736 0)
(-0.00027576724 -0.00032232954 0)
(-0.0004067902 -0.00015413899 0)