/*--------------------------------*- C++ -*----------------------------------*\
| =========                 |                                                 |
| \\      /  F ield         | OpenFOAM: The Open Source CFD Toolbox           |
|  \\    /   O peration     | Version:  5.0                                   |
|   \\  /    A nd           | Web:      www.OpenFOAM.org                      |
|    \\/     M anipulation  |                                                 |
\*---------------------------------------------------------------------------*/
FoamFile
{
    version     2.0;
    format      ascii;
    class       surfaceScalarField;
    location    "140";
    object      ddtCorrDdt0(phi);
}
// * * * * * * * * * * * * * * * * * * * * * * * * * * * * * * * * * * * * * //

dimensions      [0 3 -2 0 0 0 0];

internalField   nonuniform List<scalar> 
18820
(
-4.0456136e-07
0.00018892559
-1.1521696e-07
0.00017494756
-5.1351976e-06
0.00019406347
1.2837252e-06
0.0001601861
-9.1370489e-06
0.00017896696
-1.1819908e-05
0.00020589447
4.1157767e-06
0.00014521859
-1.2080041e-05
0.00016314505
-2.2087431e-05
0.00018926231
-1.7983364e-05
0.00022389497
8.5631267e-06
0.00012982299
-1.3761062e-05
0.00014691484
-3.0974363e-05
0.00017205652
-3.461008e-05
0.00020592103
-1.7250757e-05
0.00024116536
1.4820865e-05
0.00011365843
-1.4421999e-05
0.00013049774
-3.8207882e-05
0.00015417065
-4.9923156e-05
0.00018739693
-3.4071875e-05
0.00022277235
-1.1444677e-05
0.00025262864
2.2603438e-05
9.6933533e-05
-1.4291539e-05
0.00011353978
-4.3923028e-05
0.00013623173
-6.3771791e-05
0.00016804231
-5.0272122e-05
0.00020362132
-2.3387439e-05
0.00023473816
-5.1644098e-06
0.00025780752
3.0590671e-05
8.0010568e-05
-1.3536764e-05
9.618825e-05
-4.8651626e-05
0.00011828295
-7.607102e-05
0.00014854808
-6.5964584e-05
0.0001837522
-3.5649148e-05
0.00021589879
-1.0888645e-05
0.00024047448
-3.5405913e-06
0.00026135625
3.5343977e-05
6.395705e-05
-1.2688336e-05
7.9169134e-05
-5.2717633e-05
0.00010026416
-8.7249957e-05
0.00012947216
-8.0963568e-05
0.00016355594
-4.8699548e-05
0.00019680927
-1.7280158e-05
0.00022229415
-6.925143e-06
0.00024385824
-7.9755932e-06
0.00026933258
3.0813769e-05
5.0466774e-05
-1.3641557e-05
6.49147e-05
-5.6331446e-05
8.2788164e-05
-9.7542348e-05
0.00011055983
-9.5350298e-05
0.00014385861
-6.2520771e-05
0.00017737316
-2.5099788e-05
0.000204622
-1.0637253e-05
0.00022599701
-1.5083185e-05
0.00025095244
-1.5550318e-05
0.00028487638
9.5537276e-06
4.4071879e-05
-1.9851401e-05
5.6678579e-05
-5.8702168e-05
6.7286264e-05
-0.00010615004
9.1392568e-05
-0.0001094322
0.00012463289
-7.7135199e-05
0.00015845858
-3.4562811e-05
0.00018681781
-1.5077102e-05
0.00020904148
-2.2232388e-05
0.00023312505
-2.9754975e-05
0.00026513317
-2.2110371e-05
0.00030697412
-3.0551346e-05
4.4595154e-05
-3.3965424e-05
5.818576e-05
-5.6412894e-05
5.4386516e-05
-0.00010884792
6.997518e-05
-0.00012302819
0.00010497268
-9.3342638e-05
0.00014081724
-4.5318062e-05
0.00016918573
-2.0854988e-05
0.000192565
-2.9167925e-05
0.00021594616
-4.3808917e-05
0.00024714911
-4.2765425e-05
0.0002857573
-2.4503605e-05
0.00033146089
-8.767359e-05
5.1787292e-05
-4.7566873e-05
5.81952e-05
-3.6082096e-05
3.7849902e-05
-9.7572163e-05
4.3097482e-05
-0.00013590314
8.2829291e-05
-0.00011290809
0.00012450918
-5.7446791e-05
0.00015291165
-2.7512321e-05
0.00017580554
-3.641153e-05
0.00019977069
-5.7646226e-05
0.00022974697
-6.2758556e-05
0.00026710803
-4.8167886e-05
0.00030938781
-2.1684176e-05
0.00035312628
-0.00016566552
6.29674e-05
-4.0546095e-05
4.4765203e-05
1.6319151e-05
5.7887179e-06
-6.3482474e-05
3.7445573e-06
-0.00014870988
5.5880896e-05
-0.00013949605
0.00010938547
-7.2419327e-05
0.00013944535
-3.3892117e-05
0.00015925215
-4.412148e-05
0.00018347577
-7.1144069e-05
0.00021322998
-8.2593688e-05
0.00024954563
-7.0881946e-05
0.00028978823
-4.3574864e-05
0.00033124606
-1.4952995e-05
0.00036806087
-0.00026787055
8.6187005e-05
-1.2790178e-05
3.5212017e-05
8.4492531e-05
-2.3411036e-05
-1.9488706e-05
-3.822055e-05
-0.0001721073
2.7118734e-05
-0.00018191415
9.8267325e-05
-9.461879e-05
0.00013155025
-3.8710472e-05
0.00014422761
-5.1290111e-05
0.00016638514
-8.4830958e-05
0.0001971284
-0.0001022242
0.00023282767
-9.3226088e-05
0.00027185838
-6.5201795e-05
0.00031138573
-3.0808735e-05
0.00034707425
-7.1684734e-06
0.00037521333
-0.00040476887
0.00012243447
3.4988227e-05
3.8412698e-05
0.00017456093
-5.485453e-05
2.6956581e-05
-6.9868791e-05
-0.00021431612
3.9674285e-06
-0.00025211032
9.7286015e-05
-0.00012964919
0.00013326727
-4.0388777e-05
0.00013319931
-5.556712e-05
0.00014847751
-9.8954921e-05
0.00018048481
-0.00012214603
0.00021702746
-0.00011584282
0.00025542197
-8.6433198e-05
0.00029306702
-4.7897559e-05
0.00032845248
-1.5322405e-05
0.00035520815
-1.254595e-06
0.00037645586
-0.00058715283
0.00018887926
0.00010221649
5.5215107e-05
0.00031391874
-0.00010093719
8.5050744e-05
-0.00011295568
-0.00026885167
-1.5350113e-05
-0.0003567074
0.00010854057
-0.00018039227
0.00014800404
-3.3929415e-05
0.00012678741
-5.2005123e-05
0.00012962058
-0.00011278371
0.00016229487
-0.00014339755
0.00020172756
-0.00013933243
0.00024050885
-0.00010796607
0.00027694471
-6.5657976e-05
0.00031081481
-2.5391579e-05
0.00033850845
-3.2673527e-06
0.00035720987
1.0048284e-06
0.00037544385
-0.00081726755
0.00026515051
0.00020711571
8.3994057e-05
0.0005371204
-0.00016797269
0.00017633572
-0.00019222239
-0.00035868615
-2.3133849e-05
-0.00049916895
0.00012709363
-0.00025181908
0.00017994769
-1.2380598e-05
0.00012644374
-3.3435663e-05
0.00010821099
-0.00012398643
0.00014082416
-0.0001669516
0.00018585389
-0.00016490409
0.00022730645
-0.00013072652
0.00026327491
-8.3730601e-05
0.00029501867
-3.8009917e-05
0.00032343032
-6.2049876e-06
0.00034144192
1.5043545e-06
0.00035670861
-2.7438793e-07
0.00037571633
-0.0011204297
0.00040438123
0.00036503296
0.00010725175
0.00087687824
-0.00025574535
0.00031249514
-0.000304126
-0.00051876074
-3.2157101e-05
-0.00068652679
0.00016421198
-0.00035457626
0.00022983571
3.2537318e-05
0.00013502627
9.7134312e-06
8.3295608e-05
-0.0001296142
0.00011384891
-0.00019348219
0.00016736958
-0.00019446008
0.00021542868
-0.00015578989
0.00025238898
-0.00010273671
0.0002822966
-5.1747493e-05
0.00030876617
-1.1755385e-05
0.00032898591
2.0987124e-06
0.00034085152
-6.8947486e-07
0.00035713068
-3.5447407e-06
0.00037926415
-0.0015000632
0.00051191445
0.0006095526
0.00015988317
0.0013461599
-0.00036200876
0.00051052138
-0.000453761
-0.00077117196
-5.1722064e-05
-0.0009596801
0.00024098811
-0.00048380391
0.00029342826
0.00010575046
0.00015662502
9.3652624e-05
5.1094349e-05
-0.00012375061
7.7447755e-05
-0.00022296521
0.00014335152
-0.00023103332
0.00020396612
-0.00018513819
0.00024480264
-0.00012295019
0.00027262695
-6.5513861e-05
0.0002960832
-1.9948396e-05
0.00031697379
2.2598955e-06
0.00032883547
-1.0718444e-06
0.00034124441
-6.5872915e-06
0.00036018758
-6.9150512e-06
0.00038618667
-0.0019561832
0.00067939873
0.0009223954
0.00019909472
0.0020399896
-0.00053392433
0.00078768018
-0.00063915496
-0.0011452008
-7.9738264e-05
-0.0013626092
0.00035120016
-0.00063412226
0.00039129849
0.00023673945
0.00016244505
0.00024455596
5.7346203e-06
-9.5179664e-05
2.2541732e-05
-0.00025288997
0.00010739327
-0.0002792593
0.00019159849
-0.00022259487
0.00024144643
-0.0001450203
0.00026689688
-7.8562325e-05
0.00028569854
-2.8224654e-05
0.00030437897
7.8558887e-07
0.00031846361
-1.0743468e-06
0.00032885171
-1.0450981e-05
0.00034512329
-1.2654062e-05
0.00036594667
-9.0381536e-06
0.00039523571
-0.0024601591
0.00075912675
0.0013229243
0.00027889308
0.0029151883
-0.00067608153
0.0011258538
-0.00087208522
-0.0016583551
-0.00012600542
-0.0019590007
0.0005166453
-0.00083609518
0.00055316892
0.00045654775
0.00017149693
0.00048106882
-7.4049018e-05
-1.6782137e-05
-7.2643649e-05
-0.00028004705
4.9719599e-05
-0.00034755069
0.00017569954
-0.00027529062
0.00024430979
-0.00017076075
0.00026720201
-8.9531801e-05
0.00027788298
-3.4241682e-05
0.00029173197
-1.527204e-06
0.00030670661
-1.7165153e-06
0.00031911943
-1.4231925e-05
0.00033264729
-1.9781646e-05
0.00035226893
-1.6826538e-05
0.000373759
-9.3785909e-06
0.0004046276
-0.0030893217
0.00099184503
0.0017785254
0.0003035485
0.0041481125
-0.00095400882
0.0015892479
-0.0011394635
-0.0023578763
-0.0001725664
-0.0028220542
0.00073703845
-0.0010985246
0.00077907515
0.00079341432
0.00021630884
0.00084846698
-0.00019587669
0.00010426314
-0.00019507451
-0.00031569993
-3.6969611e-05
-0.00045309445
0.00015527213
-0.00035692862
0.00025734352
-0.00020409825
0.00027764947
-9.6749257e-05
0.00027442317
-3.5586479e-05
0.00027923353
-2.6595386e-06
0.0002928716
-3.0014933e-06
0.00030800006
-1.8171445e-05
0.00032306922
-2.786635e-05
0.00034074612
-2.554943e-05
0.00036101118
-1.8411906e-05
0.00038281853
-7.9428398e-06
0.0004125851
-0.0036172151
0.0010398422
0.0023425383
0.00042785441
0.0055456115
-0.0010939285
0.002118183
-0.0014829322
-0.0032344959
-0.00026284279
-0.0040267625
0.0010321312
-0.0014376728
0.0010761921
0.0013087295
0.00026376636
0.0014171491
-0.00035234428
0.00027945548
-0.0003710482
-0.00039463601
-0.00011611725
-0.00062493973
0.00013488066
-0.00048930136
0.00028764293
-0.00025237765
0.00030561388
-9.7652123e-05
0.0002785424
-2.8007575e-05
0.00026683662
4.3542896e-07
0.00027613401
-4.372468e-06
0.00029424153
-2.3520077e-05
0.00031335104
-3.5962672e-05
0.00033117226
-3.6268165e-05
0.00035147776
-2.7318216e-05
0.00036993701
-1.6906921e-05
0.00039180966
-4.9233543e-06
0.00041752364
-0.0041328649
0.0011849697
0.0030635576
0.00031884505
0.0074388015
-0.0014653139
0.002808294
-0.0017840274
-0.0044035208
-0.00031390168
-0.0056834436
0.0013938278
-0.0018523517
0.0014468202
0.002050687
0.00033424209
0.002236451
-0.00055550514
0.00056286213
-0.00063572824
-0.00056597027
-0.00019969497
-0.00086641799
0.00012536497
-0.00070142407
0.00034699552
-0.00032631989
0.00036157003
-8.774406e-05
0.00029568648
-4.2138089e-06
0.00025473118
1.1979776e-05
0.00025527714
-4.5647192e-06
0.00027631544
-3.0389177e-05
0.00030110384
-4.5679014e-05
0.00032306531
-4.7674116e-05
0.00034258209
-3.8137726e-05
0.00036230883
-2.5321767e-05
0.00037837078
-1.1623124e-05
0.00039853635
-6.4856137e-07
0.00041818717
-0.0048517221
0.001263945
0.0037856807
0.00046286932
0.0094879744
-0.0017303067
0.0034825793
-0.0021395861
-0.0057182428
-0.00046929495
-0.0078776996
0.0018803449
-0.0023773062
0.0019187955
0.0030644096
0.00043310673
0.0033753853
-0.00080466438
0.0009853762
-0.00097799416
-0.0008346253
-0.00036706004
-0.0012112381
0.00014512973
-0.0010124383
0.00043636621
-0.00043972088
0.00046038029
-5.8674686e-05
0.00033247756
4.7221745e-05
0.00024423076
3.8353182e-05
0.00022833837
-1.2596348e-06
0.00025195641
-3.8886913e-05
0.00028480065
-5.8000146e-05
0.00031341595
-6.0293835e-05
0.00033568085
-5.0737111e-05
0.00035518363
-3.419995e-05
0.00037119751
-1.8564895e-05
0.00038533049
-2.8356969e-06
0.00040074957
4.2307137e-06
0.0004139708
-0.0053792074
0.0016390997
0.004634474
0.00041517541
0.012286946
-0.0023360816
0.0042006317
-0.0024483451
-0.0073709824
-0.00048683098
-0.010750962
0.0024039591
-0.0029669507
0.0024700036
0.0044073215
0.00057589476
0.0049268323
-0.001118319
0.0016082503
-0.0014275111
-0.0011956653
-0.00061694977
-0.0017619806
0.00018368804
-0.0014383834
0.00057105684
-0.00060455777
0.00060118869
2.0395135e-06
0.00039964384
0.00014402672
0.00023565624
9.1849073e-05
0.00019071873
1.0048808e-05
0.00021701719
-4.8998517e-05
0.00026205666
-7.4196756e-05
0.0003009872
-7.5766781e-05
0.00032888069
-6.4373441e-05
0.00034931284
-4.5173991e-05
0.00036615918
-2.4842967e-05
0.00037748543
-6.6734892e-06
0.00038918504
7.3198828e-06
0.00039768542
8.7365886e-06
0.00040524759
-0.0053281378
0.0015413298
0.0059236
0.00034999865
0.014758629
-0.0020564872
0.0048227874
-0.0029582232
-0.0093434601
-0.00047584705
-0.014281114
0.0030433141
-0.0037035182
0.0031405396
0.006144457
0.0007328818
0.0070237174
-0.0015209786
0.002487517
-0.0019975564
-0.0016640452
-0.00095913606
-0.0026070971
0.00022817312
-0.002043814
0.00078909778
-0.00082936848
0.00079585574
0.00010360002
0.00049961049
0.000315517
0.00022814424
0.00019026251
0.00013723543
3.6223487e-05
0.00016454016
-6.0544422e-05
0.00022856003
-9.6194644e-05
0.00028405028
-9.6042241e-05
0.00032125721
-8.07041e-05
0.00034520547
-5.7883285e-05
0.00036201881
-3.2809098e-05
0.0003741269
-1.104015e-05
0.00038186155
7.4197696e-06
0.00038910075
1.6326398e-05
0.00039011946
1.2003512e-05
0.00039325641
-0.0050116209
0.0013754548
0.0078143816
-0.0003494261
0.017874735
-0.002766086
0.0057489414
-0.0029826274
-0.011823062
-0.0004785963
-0.018611733
0.0038547667
-0.0045196286
0.0038594338
0.0083234331
0.00096158088
0.009785632
-0.0020290322
0.0036791162
-0.0027125465
-0.0022634389
-0.0013981741
-0.0038366064
0.00027037939
-0.0029205706
0.0011049111
-0.0011354519
0.0010951716
0.00026335594
0.00063609105
0.00059322534
0.00022190034
0.0003596251
5.8785882e-05
8.7493212e-05
8.5972479e-05
-7.3637074e-05
0.00017764148
-0.00012733351
0.00025970493
-0.00012415812
0.00031216881
-0.00010167548
0.0003422273
-7.3371529e-05
0.00036069018
-4.4001903e-05
0.00037320944
-1.6887412e-05
0.00037997596
5.2035815e-06
0.00038408698
2.1302967e-05
0.00038413873
2.2554695e-05
0.00037959117
1.3794104e-05
0.00037947355
-0.0044873952
0.0012489851
0.0098828351
-0.00069297277
0.021492067
-0.0039667362
0.0063513537
-0.0033684854
-0.01351065
-0.0012950112
-0.023708953
0.0046186216
-0.0051129868
0.004448128
0.011050416
0.0011324733
0.013409937
-0.002662735
0.0052243284
-0.0035742124
-0.0030221335
-0.0019538652
-0.0055452061
0.00031042978
-0.0041880399
0.0015378388
-0.0015536253
0.0015230759
0.00052263599
0.00083589633
0.001014658
0.00021466295
0.00063500462
-5.3462114e-05
0.00017733715
-3.1042326e-05
-8.920504e-05
0.00010156019
-0.00017420435
0.00022452799
-0.00016598484
0.00030154394
-0.00013116523
0.0003416645
-9.3503909e-05
0.00036236052
-5.8113809e-05
0.00037479939
-2.5313922e-05
0.00038163416
2.5043883e-06
0.00038267677
2.3129734e-05
0.00038226926
3.2196525e-05
0.00037451051
2.6035709e-05
0.00036737166
1.4319673e-05
0.00036516412
-0.0037850047
0.0014780513
0.012156408
-0.0010245632
0.024600996
-0.0038018777
0.0058769679
-0.0034923385
-0.015792168
-0.0010869393
-0.029599268
0.0045953048
-0.0055520071
0.0050576367
0.014248354
0.0012502157
0.018042301
-0.0034999101
0.0071657831
-0.004604161
-0.0039825025
-0.0026138531
-0.0078419251
0.00034285225
-0.0059838028
0.0021061966
-0.0021291154
0.0021133189
0.00092518286
0.0011205491
0.001651248
0.00019931541
0.0010610953
-0.00021139894
0.00031396626
-0.00019006956
-0.00011169314
-8.5268462e-06
-0.00024963492
0.00017701226
-0.00023352375
0.00029208564
-0.00017606163
0.00034645237
-0.00012082909
0.00036899518
-7.5179463e-05
0.00037942592
-3.5347383e-05
0.00038482891
-1.4118772e-06
0.00038554774
2.3991686e-05
0.00038181561
3.8958792e-05
0.00037551581
3.7363088e-05
0.00036319577
2.7162727e-05
0.00035455017
1.3855763e-05
0.00035131774
-0.0029675188
0.0015863709
0.014689593
-0.0010551102
0.027440621
-0.0038641634
0.0051521182
-0.0030770172
-0.020345107
0.0010606268
-0.036122189
0.0054359886
-0.0074425801
0.0064858634
0.017643722
0.0016622942
0.023784367
-0.0044918754
0.0094357169
-0.0057698262
-0.0051651366
-0.0034215284
-0.010835955
0.00038016293
-0.0084817146
0.0028407824
-0.002909308
0.0028863746
0.0015256012
0.0015129314
0.002595068
0.00017673971
0.001695477
-0.00043503191
0.00053601411
-0.00043342265
-0.00015188696
-0.00014984624
-0.00037698772
0.00011884866
-0.00034132655
0.00028483524
-0.00024472649
0.00036076451
-0.00015849814
0.00038412939
-9.5479858e-05
0.00038929692
-4.6235347e-05
0.00039030946
-6.0797968e-06
0.00038948978
2.3577638e-05
0.00038595683
4.2293857e-05
0.00037847999
4.6918122e-05
0.00036596902
3.9474369e-05
0.00035089567
2.6594936e-05
0.00034183229
1.2657724e-05
0.00033866876
-0.0020797723
0.0016521224
0.017455879
-0.0011798917
0.030615386
-0.0042298488
0.0039758953
-0.0026879284
-0.025117979
0.0016958775
-0.042319718
0.0072581654
-0.0096041406
0.0075975265
0.02112339
0.0030062158
0.030990596
-0.00554396
0.011963937
-0.0070200966
-0.0066576261
-0.0042773275
-0.0146697
0.00041218664
-0.011867159
0.003765635
-0.0039547239
0.0038861778
0.0023857019
0.0020263047
0.0039624016
0.00014560803
0.0026182952
-0.00074605046
0.00087672045
-0.0007757156
-0.00020793266
-0.00037735403
-0.00055282546
2.6011351e-05
-0.0004973075
0.00027484587
-0.00034710515
0.00038722652
-0.00021100709
0.00041328049
-0.00011952356
0.00040817518
-5.7168915e-05
0.00040022503
-1.0346354e-05
0.00039456647
2.2740661e-05
0.00039031511
4.3602475e-05
0.00038464031
5.3394094e-05
0.00037200158
5.0082664e-05
0.00035536789
3.8837254e-05
0.00033866369
2.5178814e-05
0.00032933255
1.1228693e-05
0.00032744828
-0.0011937321
0.0017010756
0.020342952
-0.0012349297
0.033955795
-0.0045202706
0.0029445634
-0.0031985009
-0.030015401
0.0022095115
-0.048110367
0.0074865414
-0.0091957257
0.0068497233
0.025278605
0.0034423204
0.040427783
-0.0064309928
0.014677499
-0.0082575448
-0.0085193838
-0.0051583203
-0.019468812
0.00052174001
-0.016378963
0.0049240199
-0.0053068588
0.005117748
0.0035875974
0.0026843008
0.0058839133
0.00010480441
0.0039295066
-0.0011655937
0.0013686394
-0.0012379511
-0.00027030642
-0.00071333526
-0.00082751856
-0.00010264824
-0.00071319726
0.00024190803
-0.00050082652
0.00042857599
-0.00028721856
0.00046344261
-0.00014820185
0.00044196132
-6.6163728e-05
0.00041716511
-1.2588998e-05
0.00040245708
2.2610345e-05
0.00039468186
4.6383192e-05
0.00038751812
5.8992414e-05
0.00037903123
5.6730592e-05
0.00036534862
4.9720832e-05
0.00034448995
3.6320678e-05
0.00032753092
2.3095352e-05
0.00031748744
9.8816e-06
0.00031757448
-0.00035807783
0.001679311
0.023223437
-0.0011793891
0.037418818
-0.0046979221
0.0016207407
-0.0031964277
-0.03446347
0.0012495842
-0.053402339
0.0075014975
-0.0077856137
0.0060764033
0.030216428
0.0019118977
0.051526532
-0.0076564429
0.017943922
-0.0096974551
-0.010808057
-0.0059688478
-0.025335762
0.00070858223
-0.022253844
0.0063966417
-0.0070146623
0.0066318108
0.0052253574
0.0034799878
0.0085259428
4.2289963e-05
0.005744675
-0.0017103755
0.0020569787
-0.0018539185
-0.00034731698
-0.0011609533
-0.0012406188
-0.00030023263
-0.0010612203
0.00024536849
-0.00074584798
0.00048693157
-0.00040417531
0.00054553378
-0.00018479185
0.00050003693
-7.036926e-05
0.00044616532
-8.5654863e-06
0.00041313496
2.6419302e-05
0.00039863455
4.7933012e-05
0.00039311319
6.0718904e-05
0.00038577254
6.3833192e-05
0.00037191507
5.8976046e-05
0.00035608529
4.6615664e-05
0.00033419897
3.3066283e-05
0.00031756781
1.9830096e-05
0.00030756082
8.3802139e-06
0.00030920169
0.00037931661
0.0015848472
0.025979058
-0.0010762907
0.040872565
-0.0046331027
1.0958121e-05
-0.0030881151
-0.038976372
0.0013164867
-0.059352604
0.0071998614
-0.0059818459
0.0056977051
0.035369876
0.00092294112
0.062217894
-0.0087794692
0.022543792
-0.012256356
-0.013152065
-0.0073534233
-0.032229711
0.00092506898
-0.029806515
0.0082612601
-0.0090197138
0.0084017028
0.0074167229
0.0044404295
0.01205487
-4.8907415e-05
0.0081985426
-0.0024115977
0.0029917394
-0.0026451214
-0.00045096026
-0.001750295
-0.0018245626
-0.00057701602
-0.001631274
0.00026980531
-0.0010960555
0.00059556883
-0.00059282339
0.00067557606
-0.00023431139
0.00059505822
-6.5517786e-05
0.00049518962
7.6283832e-06
0.00042997323
3.8681561e-05
0.00040086852
5.3819442e-05
0.0003927342
6.4092488e-05
0.0003897208
6.8093225e-05
0.00038149229
6.4552388e-05
0.00036632258
5.5800755e-05
0.00034688917
4.2215189e-05
0.00032505255
2.8873142e-05
0.00030853114
1.660591e-05
0.00029935724
7.2225575e-06
0.00030198622
0.0010170931
0.0013925482
0.028460675
-0.00089675157
0.044133877
-0.0043375664
-0.0016105433
-0.0030115733
-0.043509465
0.0014449872
-0.065459673
0.007423566
-0.0057260936
0.0069440881
0.041268848
-0.00020128622
0.073080237
-0.0099394039
0.026338315
-0.012574029
-0.016403085
-0.0090053182
-0.039878251
0.00029511069
-0.038980301
0.010098852
-0.011146362
0.010387945
0.01034591
0.005472496
0.016676237
-0.00018089565
0.011434743
-0.0032851153
0.0042154902
-0.0036353314
-0.00058269614
-0.0025133881
-0.0026275411
-0.00094732399
-0.002481807
0.00027350759
-0.0016154594
0.00078919554
-0.00086097997
0.00086371901
-0.00030894231
0.00075020895
-4.4441155e-05
0.00057398894
4.6064637e-05
0.00045676406
6.7757726e-05
0.00040090638
6.8624612e-05
0.00038606342
6.9901215e-05
0.00038691624
7.1480946e-05
0.00038631766
6.8625604e-05
0.00037739891
6.1882065e-05
0.00036022356
5.0939264e-05
0.00033815201
3.7572699e-05
0.0003163541
2.4753221e-05
0.00030038848
1.4571473e-05
0.00029203062
6.4937605e-06
0.00029549927
0.0015333608
0.00113793
0.030515308
-0.00066206517
0.04702279
-0.0037856294
-0.0031768438
-0.0027712357
-0.047948792
0.0014277593
-0.071444203
0.0074295262
-0.005408983
0.007106437
0.045166546
0.003046368
0.083404618
-0.010525669
0.029201267
-0.012802385
-0.020578167
-0.0083989369
-0.049041715
0.00015816317
-0.05017284
0.011487642
-0.013299437
0.012251979
0.014214904
0.0065189422
0.022576101
-0.00042732752
0.015616305
-0.0043624404
0.005776585
-0.0048461953
-0.00074949699
-0.0034684992
-0.0037116938
-0.0014292342
-0.0036903354
0.00026122061
-0.0024056606
0.001063701
-0.0012332238
0.0011614388
-0.00041212767
0.00096690296
2.2770546e-06
0.00070349604
0.00012104913
0.0004990172
0.00012665233
0.00039788856
0.00010048727
0.00036905863
8.2035835e-05
0.00037393662
7.4752383e-05
0.00038364359
7.0497426e-05
0.00038443508
6.5387819e-05
0.00037387447
5.7050648e-05
0.00035409485
4.5629955e-05
0.00033008054
3.2969885e-05
0.0003081371
2.2051522e-05
0.00029291104
1.3055332e-05
0.00028549144
6.2721709e-06
0.00028923364
0.0018718574
0.0008304045
0.032074633
-0.00042137474
0.049352379
-0.0029916195
-0.0045464489
-0.0024159925
-0.052162889
0.0014428647
-0.077282423
0.007265984
-0.0049419418
0.0069624694
0.049261313
0.0030116395
0.094277684
-0.0078267042
0.030688799
-0.012013226
-0.025615479
-0.0077650724
-0.056848053
-0.00059257372
-0.063155829
0.013141148
-0.01613113
0.014319382
0.018878222
0.0075886672
0.029935952
-0.0008408871
0.020852741
-0.0056637257
0.0076985019
-0.0062843526
-0.00095752318
-0.0046381148
-0.0051294242
-0.0020507541
-0.0053548235
0.00023529595
-0.0035746625
0.0014302367
-0.0017753503
0.0016058428
-0.00053475474
0.0012840703
7.6332267e-05
0.00089284917
0.00025763415
0.00056691824
0.00023222774
0.00039345853
0.00016117766
0.00033721856
0.00010694161
0.00034417308
8.0542152e-05
0.00036816335
6.9850926e-05
0.00038429629
6.5226435e-05
0.00038459068
5.993671e-05
0.00037097344
5.1441716e-05
0.00034826816
4.044757e-05
0.00032258817
2.9502192e-05
0.00030068453
1.9863105e-05
0.00028610367
1.2654481e-05
0.00027913154
6.5319708e-06
0.00028270797
0.00064084504
0.0019080931
0.032956902
-5.1843248e-05
0.051086502
-0.002155464
-0.0056496043
-0.0018884315
-0.055917801
0.0013389211
-0.082660522
0.0068209649
-0.0043627317
0.0066867611
0.053270112
0.0029536331
0.10512139
-0.0078320796
0.035540003
-0.012677927
-0.030814112
-0.0068145937
-0.066267809
0.001654708
-0.078699046
0.014950645
-0.020221787
0.017231831
0.023678033
0.0095195864
0.038978908
-0.0014542917
0.027219566
-0.0072076779
0.0099691187
-0.0079343489
-0.0012096587
-0.0060321753
-0.0069265034
-0.0028410099
-0.0075814884
0.00017594906
-0.0052480064
0.0019086809
-0.002568271
0.0022231844
-0.0006894445
0.0017605562
0.00021309264
0.0011473123
0.00047297461
0.00067751165
0.00041454126
0.00038460965
0.00026982932
0.00028481766
0.00015460583
0.00028957241
9.2669732e-05
0.00033206846
6.7154476e-05
0.00037088113
6.0305758e-05
0.00038922775
5.8216157e-05
0.00038631107
5.3869174e-05
0.00036853677
4.6171942e-05
0.00034253263
3.6692943e-05
0.00031538253
2.6993868e-05
0.00029355031
1.9262861e-05
0.00027949347
1.2984174e-05
0.00027270172
7.0965577e-06
0.00027561744
0.00036986454
0.033227904
0.0004917804
0.0017690312
0.052212322
-0.0011776325
-0.0065228464
-0.0012821891
-0.058976323
0.0011700937
-0.087465455
0.0061438504
-0.0035791293
0.0060373519
0.057079595
0.0028772386
0.11587631
-0.0078013009
0.040702272
-0.01299436
-0.032254405
-0.011237629
-0.07733492
0.0042525475
-0.094557086
0.017512759
-0.025756832
0.0204857
0.028768983
0.012140891
0.050039172
-0.0015406957
0.034795964
-0.0090306782
0.012557606
-0.0097961733
-0.0015206652
-0.0076233419
-0.0091423941
-0.003816254
-0.01054032
0.00011781893
-0.0075909555
0.0025189503
-0.003705577
0.003046003
-0.00089532315
0.0024291055
0.00045710896
0.0015165472
0.00080143136
0.00081886404
0.00071028864
0.00038175987
0.00044875354
0.00020568081
0.00024033999
0.00019908483
0.00011698741
0.00026526643
6.3125309e-05
0.00033611754
4.9339609e-05
0.00038186719
5.0067684e-05
0.00039738902
5.1275586e-05
0.00038891052
4.8614306e-05
0.00036609204
4.2038812e-05
0.00033717978
3.3669769e-05
0.00030869171
2.6119737e-05
0.00028668866
1.9755129e-05
0.00027271865
1.3974451e-05
0.00026584608
7.9675027e-06
0.00026765563
-0.00015715002
0.052739365
0.00086606843
0.032853638
0.00031292956
0.0015117401
-0.0069685159
-0.00073193092
-0.061259902
0.0010013941
-0.091419424
0.0051240536
-0.0026010437
0.0051657535
0.060445621
0.0026712877
0.12640001
-0.0076464901
0.045939322
-0.013038357
-0.033990763
-0.011258002
-0.084384709
-0.0041878162
-0.10901486
0.018710329
-0.028192239
0.019948181
0.035890676
0.013364004
0.063406443
-0.0012263938
0.044303916
-0.011048662
0.015310636
-0.011783705
-0.0018835888
-0.0094332819
-0.011804051
-0.0049616545
-0.014332503
-2.4114864e-05
-0.010757316
0.0032842138
-0.0053136692
0.0041270292
-0.0011729348
0.0033236499
0.00084785612
0.002038366
0.0013176963
0.0010002998
0.0011463685
0.00038278321
0.0007440066
8.6496202e-05
0.00038318568
6.2821478e-05
0.00015977216
0.00015629043
5.8496562e-05
0.00026989706
3.0170387e-05
0.000355297
3.259184e-05
0.00039935655
4.1227232e-05
0.00040745024
4.5953758e-05
0.00039158248
4.4971028e-05
0.0003631638
3.9770008e-05
0.00033107653
3.3182091e-05
0.00030161472
2.6864813e-05
0.00027957336
2.1143429e-05
0.00026554396
1.5660171e-05
0.00025817542
8.9840568e-06
0.00025867684
-3.4982988e-05
-0.0070906525
0.00073578459
0.052869676
0.0012317782
0.031934812
3.0885807e-05
0.0010079394
-0.062576278
0.00058445268
-0.094332375
0.0039143306
-0.0015034195
0.0040264141
0.063359417
0.0022519228
0.13636029
-0.0072890125
0.050847646
-0.012554815
-0.035218135
-0.011810972
-0.091142409
-0.0045002755
-0.12619916
0.012996498
-0.026219172
0.016737272
0.043568315
0.012270529
0.077754606
-0.00098416051
0.056098859
-0.013021354
0.018289547
-0.014027558
-0.0023283547
-0.011338966
-0.014893649
-0.0063436617
-0.019103884
-0.00019031713
-0.0150102
0.0042287665
-0.0075378691
0.0055083856
-0.0015478141
0.0045019018
0.0014369679
0.0027345394
0.0021083905
0.0012476821
0.0017872363
0.0003594425
0.001203486
-7.6698714e-05
0.00060647821
-0.00013680666
0.00023402451
-1.145076e-05
5.5550183e-05
0.00015921901
-2.6731705e-08
0.0003000843
1.6971969e-06
0.00038618835
1.9805668e-05
0.00042078286
3.5423771e-05
0.00041799116
4.3044768e-05
0.00039352378
4.3542719e-05
0.00035939993
3.9772539e-05
0.00032448664
3.4372531e-05
0.00029409323
2.8753207e-05
0.00027195771
2.3521184e-05
0.00025767566
1.7535331e-05
0.00024964575
1.0028352e-05
0.00024865324
0.00015431265
-0.062765564
0.00041929858
-0.0067741383
0.001484051
0.052617428
0.0014729629
0.030492758
-0.00029152881
0.00030462683
-0.096143314
0.0023953747
-0.00046077685
0.0028716669
0.065636538
0.0017492606
0.14535266
-0.0067404758
0.05515081
-0.011592179
-0.036251785
-0.011521148
-0.099295653
-0.0036576985
-0.14343674
0.012737303
-0.031586382
0.018363717
0.049689859
0.010615716
0.090968076
-0.00094295613
0.069726013
-0.014611311
0.021554514
-0.016286308
-0.0029331094
-0.013422802
-0.01839072
-0.0078418865
-0.024968426
-0.00047912231
-0.020567802
0.0053672518
-0.010585206
0.0072760973
-0.0020283383
0.0059888562
0.0023030482
0.0036358209
0.0032652781
0.0015776337
0.0027267787
0.00030815599
0.0018590237
-0.00029608908
0.00094880334
-0.00041901385
0.00035269818
-0.00025548769
5.6224495e-05
-1.2142424e-05
-4.518548e-05
0.00020435739
-4.872488e-05
0.00035048539
-1.8655137e-05
0.00042463356
1.2623811e-05
0.00044357782
3.3432551e-05
0.00042761035
4.3041034e-05
0.00039404147
4.4627095e-05
0.00035455711
4.1935842e-05
0.00031692733
3.6968868e-05
0.00028586532
3.170611e-05
0.00026376716
2.6274547e-05
0.00024892773
1.9609516e-05
0.0002400856
1.1086416e-05
0.00023757097
0.00064485571
-0.096633874
-0.00038333016
-0.061962924
0.00077324168
-0.0060633035
0.0024546548
0.05163576
0.0016024185
0.028598834
-0.00060592699
-0.00053493025
4.3823605e-05
0.0018907483
0.06704831
0.0014598662
0.15308866
-0.005986758
0.058421525
-0.010011193
-0.037108684
-0.010735269
-0.10716631
-0.003650463
-0.16021274
0.013118297
-0.037895217
0.019046135
0.048022521
0.020031052
0.10229455
-0.00071078268
0.084224817
-0.015441737
0.025417227
-0.018474024
-0.0038232464
-0.015396156
-0.022336108
-0.0094774225
-0.032070591
-0.00073969857
-0.027782892
0.0067359276
-0.014644246
0.0094263174
-0.0026177153
0.0078654131
0.0035471604
0.0047447522
0.0049145768
0.0019864835
0.004071041
0.00023338078
0.0027690148
-0.00060183217
0.0014547701
-0.0008020295
0.00053328839
-0.00059958791
6.4387123e-05
-0.00026364485
-0.00011086983
5.3536432e-05
-0.0001272278
0.00028284165
-8.2268284e-05
0.00041407297
-2.8917657e-05
0.00046615018
1.1778423e-05
0.00046521752
3.5568916e-05
0.00043508363
4.6063897e-05
0.00039261851
4.802995e-05
0.00034847617
4.5317986e-05
0.00030858566
4.0587462e-05
0.00027697384
3.5310792e-05
0.00025472592
2.9249879e-05
0.00023927743
2.1708699e-05
0.00022948362
1.2014249e-05
0.00022556024
0.00078933523
-0.00010068473
-0.0013785663
-0.095638653
-0.00047177183
-0.0607179
0.0014839829
-0.0050926092
0.0032340509
0.050004152
0.0016540596
0.026338871
-0.00085904358
-0.0014992177
0.068186363
0.00075266507
0.15908527
-0.0045367711
0.060537429
-0.0081026625
-0.037597182
-0.0095226893
-0.11469434
-0.003207213
-0.17621703
0.01235382
-0.043411581
0.018634646
0.046722718
0.020345956
0.1087192
0.01360638
0.10003533
-0.016521276
0.030031625
-0.020056127
-0.0049009325
-0.01739634
-0.026859351
-0.01087293
-0.040631972
-0.00091603961