/*--------------------------------*- C++ -*----------------------------------*\
| =========                 |                                                 |
| \\      /  F ield         | OpenFOAM: The Open Source CFD Toolbox           |
|  \\    /   O peration     | Version:  5.0                                   |
|   \\  /    A nd           | Web:      www.OpenFOAM.org                      |
|    \\/     M anipulation  |                                                 |
\*---------------------------------------------------------------------------*/
FoamFile
{
    version     2.0;
    format      ascii;
    class       volScalarField;
    location    "140";
    object      nut;
}
// * * * * * * * * * * * * * * * * * * * * * * * * * * * * * * * * * * * * * //

dimensions      [0 2 -1 0 0 0 0];

internalField   nonuniform List<scalar> 
9520
(
1.593231e-117
1.9750199e-109
1.2861202e-117
1.4140946e-102
1.5954792e-109
1.0478753e-117
1.8205893e-96
1.1416638e-102
1.3046553e-109
8.7633832e-118
6.7611951e-91
1.4682011e-96
9.3591302e-103
1.0982821e-109
7.5857241e-118
9.4207278e-86
5.4441664e-91
1.2060454e-96
7.9212046e-103
9.5900689e-110
6.7950971e-118
5.8225545e-81
7.5729271e-86
4.4794995e-91
1.0255586e-96
6.9658748e-103
8.6643574e-110
6.2332267e-118
1.7881858e-76
4.6755373e-81
6.2411123e-86
3.8247833e-91
9.0728224e-97
6.3334191e-103
7.9880619e-110
5.7557407e-118
2.9586692e-72
1.4352233e-76
3.8630995e-81
5.3495551e-86
3.4004135e-91
8.288417e-97
5.8531537e-103
7.3681854e-110
5.2461027e-118
2.8033374e-68
2.3750765e-72
1.1897672e-76
3.32718e-81
4.776193e-86
3.1167645e-91
7.6646993e-97
5.3803602e-103
6.668746e-110
4.6548898e-118
1.6096577e-64
2.2519131e-68
1.9766416e-72
1.0303355e-76
2.9850302e-81
4.3872985e-86
2.8797451e-91
7.011404e-97
4.8290848e-103
5.8636855e-110
4.024193e-118
6.4657079e-61
1.28976e-64
1.882096e-68
1.7215146e-72
9.2935923e-77
2.748501e-81
4.0447887e-86
2.6191243e-91
6.2378315e-97
4.2090322e-103
5.0466833e-110
3.4643207e-118
4.6957566e-57
4.9178428e-61
1.0799747e-64
1.6476774e-68
1.5614168e-72
8.5816376e-77
2.5281152e-81
3.6541595e-86
2.3101222e-91
5.3944182e-97
3.6134812e-103
4.3755888e-110
3.0915213e-118
9.8015942e-52
2.2422666e-57
4.0040786e-61
9.4787381e-65
1.5023391e-68
1.4467915e-72
7.8799885e-77
2.2687204e-81
3.1954286e-86
1.9849707e-91
4.6294973e-97
3.1631255e-103
3.989575e-110
2.982248e-118
2.3627704e-45
1.4567883e-52
1.3531333e-57
3.459578e-61
8.6794964e-65
1.3981664e-68
1.3277576e-72
7.0299048e-77
1.9682674e-81
2.7313579e-86
1.7065661e-91
4.1004366e-97
2.949157e-103
3.966913e-110
3.1645966e-118
4.500816e-39
2.4325626e-46
2.8407891e-53
9.7295189e-58
3.1570617e-61
8.1257003e-65
1.2848169e-68
1.1789327e-72
6.058961e-77
1.6766234e-81
2.3566558e-86
1.5316687e-91
3.9092719e-97
3.0136608e-103
4.3197503e-110
3.6063432e-118
3.6135449e-33
5.463328e-40
2.5207264e-47
7.5415504e-54
8.1406501e-58
2.9724967e-61
7.4958928e-65
1.1368322e-68
1.0105853e-72
5.1549411e-77
1.4553162e-81
2.1450135e-86
1.4913513e-91
4.0893622e-97
3.3443786e-103
4.9626035e-110
4.1655836e-118
1.0987857e-27
5.9043786e-34
6.2185789e-41
2.4414873e-48
3.3961796e-54
7.4995036e-58
2.7594376e-61
6.6172667e-65
9.6963769e-69
8.6004721e-73
4.5137505e-77
1.3453969e-81
2.1287011e-86
1.589055e-91
4.5912896e-97
3.8391697e-103
5.6421961e-110
4.5588044e-118
1.2268782e-22
2.5401327e-28
8.4189505e-35
5.7573704e-42
4.4077695e-49
2.5821096e-54
6.9870023e-58
2.4319766e-61
5.6131793e-65
8.2584098e-69
7.6094093e-73
4.2455211e-77
1.3591957e-81
2.2978908e-86
1.7915853e-91
5.2242394e-97
4.2621261e-103
5.946972e-110
4.4699339e-118
4.3869188e-18
3.9424973e-23
4.6440264e-29
9.354432e-36
1.1460582e-42
3.0410598e-49
2.4803927e-54
6.1253759e-58
2.046334e-61
4.7801771e-65
7.3887689e-69
7.2854046e-73
4.3623815e-77
1.4798516e-81
2.5829198e-86
2.006117e-91
5.6265427e-97
4.3030756e-103
5.533001e-110
3.7950728e-118
4.3474708e-14
1.8290031e-18
9.0250556e-24
6.4076859e-30
2.7457019e-36
1.3054401e-42
4.3636143e-49
2.1246847e-54
5.0297566e-58
1.736347e-61
4.3238912e-65
7.2006155e-69
7.5997144e-73
4.7733742e-77
1.6478607e-81
2.8274301e-86
2.0859694e-91
5.4209586e-97
3.7912923e-103
4.4323473e-110
2.7686426e-118
1.0601392e-10
2.1959254e-14
5.1654096e-19
1.6817746e-24
2.7409818e-30
5.1005541e-36
2.9343396e-42
3.865368e-49
1.4076364e-54
4.1660643e-58
1.5850141e-61
4.2889859e-65
7.6116879e-69
8.3248471e-73
5.2401695e-77
1.7524875e-81
2.8267166e-86
1.9149718e-91
4.521424e-97
2.8721541e-103
3.0700363e-110
1.7798159e-118
6.2737193e-08
6.2295714e-11
7.3996398e-15
1.272756e-19
9.8389541e-25
6.8172083e-30
1.4518779e-35
2.8032552e-42
1.1231817e-49
8.8272593e-55
3.7889689e-58
1.6003668e-61
4.5905949e-65
8.3189177e-69
8.9703505e-73
5.3904948e-77
1.6769574e-81
2.470961e-86
1.5154007e-91
3.2524339e-97
1.9041946e-103
1.9179609e-110
1.081324e-118
7.5729902e-06
4.1433601e-08
2.5027344e-11
2.3386777e-15
9.1456353e-20
2.5563202e-24
2.1517755e-29
1.4152478e-35
5.3600392e-43
1.5252714e-50
6.7571e-55
3.881459e-58
1.7354727e-61
4.9951678e-65
8.7647591e-69
8.8959636e-73
4.9238742e-77
1.3935985e-81
1.8619022e-86
1.042327e-91
2.0857121e-97
1.1749963e-103
1.1865408e-110
7.0330299e-119
8.2746508e-05
5.6373272e-06
1.9288901e-08
9.7426116e-12
1.9443092e-15
2.3028848e-19
8.012956e-24
2.0584087e-29
2.3442303e-36
2.3248932e-44
2.7222557e-51
6.5545334e-55
4.2717547e-58
1.8794643e-61
5.130179e-65
8.3542214e-69
7.7479212e-73
3.8903118e-77
1.0025893e-81
1.2358098e-86
6.5527503e-92
1.2955069e-97
7.5861249e-104
8.4067515e-111
5.7328169e-119
0.00019766386
7.3314532e-05
3.1429468e-06
8.9096559e-09
8.8855431e-12
4.613883e-15
6.7830151e-19
7.352282e-24
3.1034903e-30
7.3542002e-38
5.4855376e-46
1.2220344e-51
7.1933186e-55
4.6119806e-58
1.8774854e-61
4.6854595e-65
6.9312113e-69
5.8324397e-73
2.683459e-77
6.4797134e-82
7.740092e-87
4.1820005e-92
8.9506064e-98
5.999676e-104
7.9243325e-111
6.5332546e-119
0.00032280251
0.00018507517
5.6609415e-05
1.7307715e-06
8.6350126e-09
1.949899e-11
1.2261294e-14
5.9311647e-19
1.0602355e-24
8.3450936e-32
1.000704e-39
2.9915202e-47
1.0667536e-51
7.7312867e-55
4.4757046e-58
1.6374639e-61
3.6978242e-65
4.9844335e-69
3.8835821e-73
1.7061057e-77
4.112548e-82
5.1857484e-87
3.1592322e-92
8.0437708e-98
6.5751167e-104
1.0521507e-110
1.0174399e-118
0.00044357811
0.00030684403
0.00016192401
4.2561594e-05
1.7424894e-06
1.7433675e-08
4.5903456e-11
1.0173069e-14
8.6131493e-20
2.8791874e-26
1.0402061e-33
3.2528903e-41
1.1487302e-47
1.1064777e-51
7.2729681e-55
3.7121967e-58
1.2262079e-61
2.5462264e-65
3.2292261e-69
2.4599121e-73
1.1157902e-77
2.9562127e-82
4.3547711e-87
3.2474717e-92
1.0180327e-97
9.9443361e-104
1.8119078e-110
1.8936935e-118
0.00054620825
0.00042195939
0.00027493388
0.00014091973
4.3384265e-05
3.1276817e-06
3.5731892e-08
3.6323153e-11
1.5553102e-15
2.7790199e-21
5.0835449e-28
5.8943719e-35
1.866838e-41
1.3745893e-47
9.8804458e-52
5.6938628e-55
2.6265687e-58
8.0952624e-62
1.6180524e-65
2.0661817e-69
1.6857763e-73
8.7553818e-78
2.7973295e-82
5.0981254e-87
4.6580363e-92
1.703438e-97
1.8280846e-103
3.4699943e-110
3.6254081e-118
0.00063418686
0.00051934493
0.00038117105
0.00024538062
0.00014243836
5.8211638e-05
5.3179268e-06
2.7031674e-08
6.0600503e-12
6.4098473e-17
7.6169416e-23
5.3277647e-29
9.151177e-35
4.5625823e-41
1.1359667e-47
6.7986886e-52
3.7736317e-55
1.6623295e-58
5.0849049e-62
1.0604406e-65
1.5074053e-69
1.4607078e-73
9.3759149e-78
3.7001751e-82
8.0701092e-87
8.3462056e-92
3.2362167e-97
3.4966494e-103
6.453327e-110
6.4123337e-118
0.00071168827
0.00060228977
0.00047144343
0.00034458395
0.00024605221
0.00016432297
7.2192418e-05
3.9852e-06
5.0696085e-09
3.3078644e-13
2.7946873e-18
1.4366473e-23
1.5188751e-28
3.429938e-34
4.2126484e-41
3.4532223e-48
3.9121035e-52
2.2817426e-55
1.0394113e-58
3.4594472e-62
8.3496664e-66
1.4515996e-69
1.7591614e-73
1.3803468e-77
6.3067424e-82
1.4994978e-86
1.5923583e-91
6.0402158e-97
6.1987819e-103
1.0694338e-109
9.8592856e-118
0.00077825023
0.00067500749
0.00054838936
0.00042977843
0.00034468143
0.00027360605
0.00018156823
6.1325756e-05
9.3165323e-07
3.7645213e-10
2.3472872e-14
9.429109e-19
5.7127206e-23
6.7967374e-28
3.478062e-34
5.4121317e-42
6.3616348e-49
2.1786657e-52
1.4279566e-55
7.4325427e-59
2.9723646e-62
8.9485443e-66
1.9420668e-69
2.8172511e-73
2.4746697e-77
1.1846004e-81
2.8047646e-86
2.8476846e-91
1.0070592e-96
9.5245184e-103
1.5088674e-109
1.2787856e-117
0.0008319967
0.00073630914
0.00061693293
0.00050244578
0.00042887549
0.00037643813
0.00029448244
0.00016428442
2.7574974e-05
9.9214742e-08
4.4211997e-11
1.3546226e-14
4.3810401e-18
2.714437e-22
7.175232e-28
4.0903899e-35
9.8039598e-44
1.7925976e-49
1.3584726e-52
1.0847604e-55
7.0243304e-59
3.5355094e-62
1.3094593e-65
3.3027071e-69
5.1812146e-73
4.6101634e-77
2.1334373e-81
4.7409133e-86
4.4218615e-91
1.4246012e-96
1.2263271e-102
1.7740144e-109
1.3809183e-117
0.0008731904
0.00078567537
0.00067481472
0.00056793558
0.00049939776
0.00046116458
0.00039750531
0.00026995191
0.00011123999
5.9237831e-06
1.9325942e-08
4.0392364e-11
6.5687964e-14
2.0473908e-17
2.8989324e-22
8.655287e-29
4.6705154e-37
1.0025277e-45
9.4604654e-50
1.1046505e-52
1.1327692e-55
9.2151024e-59
5.5644207e-62
2.3124535e-65
6.0944865e-69
9.4078403e-73
7.9013556e-77
3.3718753e-81
6.8175651e-86
5.7322616e-91
1.6679193e-96
1.3031307e-102
1.7228055e-109
1.2358965e-117
0.00090304671
0.00082321312
0.00072223704
0.00062433122
0.00056147621
0.00052927583
0.00047867698
0.00036487116
0.00020199837
5.5426702e-05
1.9915785e-06
2.5389514e-08
1.9198506e-10
2.8547457e-13
2.1689652e-17
3.6895564e-23
1.0155175e-30
8.3553638e-40
7.6153582e-47
8.0793291e-50
1.2778495e-52
1.6252268e-55
1.5339149e-58
1.0005303e-61
4.2041334e-65
1.0632926e-68
1.520266e-72
1.1595496e-76
4.4583294e-81
8.0929894e-86
6.0933313e-91
1.5989217e-96
1.1362068e-102
1.37856e-109
9.1658673e-118
0.00092206856
0.00085030015
0.00075926504
0.00067159905
0.00061491373
0.00058659194
0.00054214982
0.00044039587
0.00028500691
0.00013420936
3.4800951e-05
3.2665161e-06
1.1200218e-07
7.4061148e-10
2.9554972e-13
2.9832692e-18
4.9395099e-25
1.963216e-33
1.5806149e-42
4.6285951e-47
1.03361e-49
1.9884325e-52
2.8184506e-55
2.7611153e-58
1.7658308e-61
6.9679021e-65
1.6080348e-68
2.0605545e-72
1.3992763e-76
4.8046313e-81
7.8046569e-86
5.2679026e-91
1.2503308e-96
8.119759e-103
9.0969272e-110
5.6457256e-118
0.00093199349
0.00086784212
0.00078720702
0.0007098779
0.00065971025
0.00063456355
0.00059348779
0.00049983131
0.00035469905
0.00020898289
0.00011172799
5.1392848e-05
1.1050739e-05
3.6549953e-07
7.3905418e-10
4.4934802e-14
4.8704616e-20
1.4251217e-27
2.2240077e-36
4.8948447e-44
6.2024757e-47
1.7326515e-49
3.5483471e-52
5.0104826e-55
4.6730882e-58
2.7549761e-61
9.8011988e-65
2.0063996e-68
2.2683285e-72
1.3635556e-76
4.1767329e-81
6.0778069e-86
3.6933439e-91
7.9747198e-97
4.763405e-103
4.9641884e-110
2.8998869e-118
0.00093506418
0.00087772882
0.00080699693
0.00074035116
0.00069604624
0.00067377783
0.00063527683
0.00054946507
0.00041150557
0.0002746625
0.00018849839
0.00014213547
9.1443207e-05
2.4106503e-05
3.4854041e-07
1.2672663e-10
9.4892902e-16
2.2079898e-22
2.4321906e-30
3.1201634e-39
3.2263694e-44
1.1103256e-46
3.1548616e-49
6.1658422e-52
8.0514794e-55
6.8096551e-58
3.5857965e-61
1.1231862e-64
2.0138212e-68
2.0004357e-72
1.0648728e-76
2.9177781e-81
3.8173955e-86
2.1013122e-91
4.1577293e-97
2.3018735e-103
2.2511821e-110
1.2497899e-118
0.00093248813
0.00088257783
0.00082030577
0.00076369551
0.00072536833
0.00070466632
0.00066836076
0.00058966823
0.00046325278
0.0003299161
0.00025574373
0.00022900607
0.00019599036
0.00012357362
2.2476701e-05
6.9580422e-08
3.6401203e-12
6.6871035e-18
5.9260455e-25
2.9706983e-33
6.1050369e-41
5.698031e-44
2.0582737e-46
5.3170165e-49
9.3338545e-52
1.087888e-54
8.1632391e-58
3.766954e-61
1.0270454e-64
1.6084379e-68
1.405221e-72
6.6489463e-77
1.637569e-81
1.9370114e-86
9.7334101e-92
1.7800548e-97
9.2207152e-104
8.5516467e-111
4.5638953e-119
0.00092681461
0.00088426305
0.00083091932
0.00078093727
0.00074795669
0.00072871684
0.00069326238
0.00062194274
0.00050697467
0.0003812062
0.00031265745
0.0003029347
0.00029354853
0.00023400798
0.00011746988
6.9137767e-06
2.8087758e-09
3.8619114e-14
2.7431615e-20
1.1533567e-27
1.1025166e-35
6.1870909e-41
1.096852e-43
3.3516561e-46
7.5232994e-49
1.1616207e-51
1.1948232e-54
7.8502389e-58
3.1356545e-61
7.4297744e-65
1.017863e-68
7.8521371e-73
3.3224172e-77
7.4032108e-82
7.9777585e-87
3.6957886e-92
6.3139119e-98
3.0973454e-104
2.7609015e-111
1.4369584e-119
0.00088552169
0.00092548189
0.00084092716
0.00079452365
0.0007643398
0.00074596221
0.00071109242
0.00064648228
0.00054399448
0.00042668107
0.00036124221
0.00036210061
0.00037281713
0.00033401677
0.00022290208
6.9875101e-05
4.5929616e-07
4.3761644e-11
2.3795121e-16
9.5680858e-23
1.0792849e-29
1.2429155e-35
1.9880891e-40
1.7502493e-43
4.396011e-46
8.5540653e-49
1.1612928e-51
1.0498852e-54
5.9454727e-58
2.05433e-61
4.2390635e-65
5.101922e-69
3.4978332e-73
1.3347401e-77
2.7149097e-82
2.6948118e-87
1.1669555e-92
1.8903567e-98
8.9356755e-105
7.8017676e-112
4.0387694e-120
0.00084895777
0.0008898234
0.00092610772
0.00080507277
0.00077607705
0.00075712704
0.00072222748
0.00066425163
0.00057476239
0.00046638348
0.00040365555
0.00040868946
0.00043077148
0.0004118284
0.00031650856
0.00016068714
1.439612e-05
1.0509507e-08
4.0938432e-13
1.6999455e-18
3.8982516e-24
3.875488e-29
1.5667397e-34
4.3126692e-40
2.0724099e-43
4.5113308e-46
7.7282144e-49
9.2787374e-52
7.2307833e-55
3.5279543e-58
1.0573498e-61
1.9094353e-65
2.0335248e-69
1.251537e-73
4.3619085e-78
8.2143837e-83
7.6480786e-88
3.1649214e-93
4.984364e-99
2.3353437e-105
2.0573063e-112
1.0905814e-120
0.00081162984
0.00085640578
0.00089140558
0.00092237423
0.00078357207
0.00076322865
0.00072773005
0.0006759221
0.00059992299
0.00050084525
0.00044058012
0.00044556443
0.00047207093
0.00046340503
0.00038746929
0.00024208209
7.2043071e-05
6.2391339e-07
1.5742977e-10
7.2946819e-15
3.2583132e-19
3.1695332e-23
6.7446972e-28
6.1766689e-34
3.4544494e-40
1.8263311e-43
3.6365893e-46
5.5742114e-49
5.8073468e-52
3.8868223e-55
1.6396266e-58
4.2880935e-62
6.8376821e-66
6.5256691e-70
3.6693097e-74
1.1944496e-78
2.1394602e-83
1.9342904e-88
7.9661604e-94
1.2775609e-99
6.2299821e-106
5.8066246e-113
3.2868099e-121
0.00078554371
0.00081451737
0.0008618532
0.00088774121
0.00091423769
0.00076469379
0.00072847142
0.00068267287
0.00062000105
0.00053067159
0.00047265679
0.00047656267
0.00050250477
0.00049699161
0.00043535274
0.00030712411
0.0001382275
9.865488e-06
1.6939675e-08
8.6376293e-12
5.6729124e-15
4.0801439e-18
5.4013732e-22
2.8306847e-27
3.2809067e-34
1.2136174e-40
1.2649452e-43
2.3438346e-46
3.1638582e-49
2.8283425e-52
1.6335222e-55
6.0049394e-59
1.3870538e-62
1.988003e-66
1.7444549e-70
9.2888077e-75
2.9569705e-79
5.3318668e-84
5.0175381e-89
2.2204114e-94
3.9274255e-100
2.1475901e-106
2.2535645e-113
1.4241834e-121
0.0007608771
0.00078031715
0.00081948962
0.00086213172
0.00087907371
0.00089978506
0.00072527205
0.00068600494
0.00063582261
0.00055621193
0.00050055874
0.00050247382
0.0005267107
0.00052212754
0.00046887358
0.00035597067
0.00019497932
4.4645489e-05
6.3335521e-07
3.1190177e-09
1.9792755e-11
8.2334014e-14
6.1403296e-17
2.1488014e-21
1.5385209e-27
1.826364e-35
4.0151709e-41
7.1358362e-44
1.2003229e-46
1.3961869e-49
1.0771327e-52
5.4282081e-56
1.7697604e-59
3.7094191e-63
4.9752538e-67
4.2539004e-71
2.3197108e-75
7.9481721e-80
1.6120205e-84
1.778778e-89
9.4599638e-95
2.0279008e-100
1.3293796e-106
1.6294882e-113
1.1610348e-121
0.00071915521
0.00075050332
0.0007781262
0.00082193629
0.00085677659
0.00086401398
0.00087632011
0.00068704334
0.00064862036
0.00057788298
0.00052456465
0.00052435419
0.00054518827
0.00054013491
0.00049378397
0.0003982287
0.00024189863
9.2034131e-05
8.7924705e-06
3.4104212e-07
1.4014464e-08
2.7530848e-10
1.0290826e-12
2.229693e-16
1.2221089e-21
7.9599556e-29
1.9032278e-37
1.6665904e-41
3.2617876e-44
4.7965561e-47
4.8326137e-50
3.2712333e-53
1.4778577e-56
4.4602823e-60
9.0546268e-64
1.2484978e-67
1.1796004e-71
7.656531e-76
3.3034987e-80
8.7224506e-85
1.264783e-89
8.6616364e-95
2.3022321e-100
1.7840034e-106
2.4609975e-113
1.8849869e-121
0.00068785987
0.00071079582
0.00074148793
0.00077462766
0.00081996615
0.0008449517
0.0008401736
0.00084272467
0.00065814052
0.00059680802
0.00054510865
0.00054237996
0.00055970009
0.00055189869
0.00051103644
0.00043153573
0.00029385165
0.00013628157
4.1198553e-05
9.6949438e-06
1.9894907e-06
1.6369223e-07
2.7161796e-09
3.3202863e-12
1.3071774e-16
7.7569649e-23
3.3237066e-31
5.4777164e-39
6.5756773e-42
1.1765883e-44
1.5152078e-47
1.3561193e-50
8.4058129e-54
3.6458583e-57
1.1303349e-60
2.5720101e-64
4.3807784e-68
5.5791297e-72
5.1298271e-76
3.1304339e-80
1.128336e-84
2.1089219e-89
1.7445452e-94
5.2786802e-100
4.4307255e-106
6.3653071e-113
4.923459e-121
0.00066820667
0.00068547154
0.00070019752
0.000729516
0.00076923706
0.00081217388
0.00082488394
0.00080682548
0.00079862447
0.00061300683
0.00056255081
0.00055698798
0.00057001535
0.00055899566
0.00052146941
0.00045696977
0.00033823168
0.00018526117
8.8699544e-05
5.5613856e-05
3.8515433e-05
1.4395494e-05
1.1797413e-06
7.5882962e-09
1.9864565e-12
1.0235987e-17
4.7493468e-25
2.2694172e-34
1.0955253e-39
2.1205454e-42
3.4105505e-45
3.9931934e-48
3.3967903e-51
2.1474055e-54
1.0476753e-57
4.1041209e-61
1.3162621e-64
3.3827764e-68
6.5303421e-72
8.6042302e-76
6.9097925e-80
3.0214068e-84
6.3729569e-89
5.6400989e-94
1.7579739e-99
1.4809553e-105
2.0977369e-112
1.5797425e-120
0.00062724609
0.00067293366
0.00067906301
0.00068682887
0.0007155153
0.00075967159
0.00079721215
0.00079565329
0.00076393647
0.00074303955
0.00057683665
0.00056857362
0.00057695183
0.00056167238
0.00052636058
0.00047538121
0.00037631425
0.00023161153
0.0001332992
0.00011724403
0.00011918497
9.9847584e-05
4.6175426e-05
2.6819219e-06
4.6157803e-09
1.9179237e-13
9.8054173e-20
3.7419758e-28
7.4112913e-37
2.9261988e-40
5.670678e-43
8.6415083e-46
1.0212245e-48
9.7068682e-52
7.8086336e-55
5.5190789e-58
3.4115922e-61
1.7404216e-64
6.6669208e-68
1.7300648e-71
2.7588379e-75
2.4697147e-79
1.1377175e-83
2.4282058e-88
2.1252863e-93
6.4631529e-99
5.2720021e-105
7.2013639e-112
5.2173887e-120
0.00058833103
0.00063794746
0.00067301998
0.00066873354
0.00067006803
0.00069796959
0.00074432582
0.00077394197
0.00075725492
0.00071041993
0.00067626246
0.00057696109
0.00058061013
0.00056079811
0.00052678835
0.00048783673
0.00040838837
0.00027454092
0.00017552481
0.00016501093
0.00019482741
0.00019903635
0.0001583455
6.5640034e-05
1.7034805e-06
5.5540596e-10
2.8488142e-15
1.5391529e-22
1.7183014e-31
4.1556968e-38
7.2014398e-41
1.4262083e-43
2.4016707e-46
3.5886383e-49
4.998207e-52
6.5491196e-55
7.6696518e-58
7.3099197e-61
5.1034639e-64
2.3750087e-67
6.817133e-71
1.128137e-74
1.0088258e-78
4.5359983e-83
9.3234768e-88
7.8212831e-93
2.2770908e-98
1.7799066e-104
2.3342636e-111
1.6270471e-119
0.00058217
0.00059691652
0.00064484955
0.00066888956
0.00065429383
0.00064983195
0.00067636747
0.00072241948
0.0007418675
0.00070839509
0.00064666741
0.00059912237
0.00058093517
0.00055649389
0.00052374682
0.00049565363
0.00043463713
0.0003138747
0.00021471419
0.00020489973
0.00025291491
0.00028435951
0.00026582044
0.00018307742
5.2098246e-05
2.7221024e-07
1.2834104e-11
8.7689983e-18
1.1716096e-25
1.370243e-34
7.4814286e-39
1.8695591e-41
4.6501104e-44
1.1458575e-46
2.8475065e-49
6.832679e-52
1.4350518e-54
2.3579248e-57
2.7546101e-60
2.1221792e-63
1.0165375e-66
2.8807345e-70
4.6015976e-74
3.9311889e-78
1.6773058e-82
3.2699575e-87
2.6087721e-92
7.2506316e-98
5.4333472e-104
6.8600139e-111
4.6208371e-119
0.00057768772
0.00058393192
0.00060291253
0.00064803834
0.00066048662
0.00063618055
0.00062533975
0.0006508487
0.00069279779
0.00069967752
0.00064927099
0.00057355744
0.00051493564
0.00054898061
0.00051803148
0.00050027471
0.0004556305
0.00034953375
0.00025099397
0.00024005937
0.00029320375
0.00034893278
0.00035058585
0.00029131049
0.00016254049
1.8335213e-05
1.0043645e-08
7.4905357e-14
1.3048551e-20
5.270682e-29
1.4121983e-36
2.0377954e-39
7.7603659e-42
3.2665906e-44
1.4425245e-46
6.0312366e-49
2.1095579e-51
5.5397518e-54
1.0097031e-56
1.2099821e-59
9.1338104e-63
4.184075e-66
1.1212147e-69
1.6876241e-73
1.3596285e-77
5.467883e-82
1.0097518e-86
7.6727576e-92
2.0424843e-97
1.4739339e-103
1.8011336e-110
1.9766986e-127
0.00053828699
0.00057021526
0.00058201012
0.00060694535
0.00064733584
0.00064813342
0.00061365259
0.00059617257
0.00061911052
0.00065397049
0.00064724468
0.00058071175
0.00049281481
0.00041734982
0.00051026269
0.00050260002
0.00047274679
0.00038130572
0.00028470435
0.00027119462
0.00032696007
0.00038843804
0.00040951582
0.00037056782
0.00026704971
0.00010425792
1.4952405e-06
1.0871816e-10
2.0915784e-16
1.0277938e-23
2.3111663e-32
2.1166335e-37
1.1532618e-39
8.3598097e-42
6.3135086e-44
4.2942354e-46
2.3244111e-48
9.1582717e-51
2.4732765e-53
4.3996208e-56
5.0065449e-59
3.5437157e-62
1.5159865e-65
3.7967279e-69
5.3599932e-73
4.0653087e-77
1.5445557e-81
2.7124868e-86
1.9728499e-91
5.0582943e-97
3.536411e-103
1.1796239e-118
3.6230644e-137
0.00050078849
0.00052431647
0.00055839671
0.00057800612
0.00060856122
0.0006424639
0.00063134575
0.00058632964
0.00056180336
0.00057959312
0.00060571935
0.00058482411
0.0005022079
0.00039866591
0.00030483957
0.0005035347
0.00048683341
0.0004096562
0.0003160436
0.00029932367
0.00035484693
0.0004207092
0.00044658245
0.00042031224
0.00034507871
0.00020052016
3.2212545e-05
3.0638043e-08
5.4581492e-13
2.9846105e-19
4.6013328e-27
8.0882391e-35
1.5571383e-37
1.8866823e-39
2.2968504e-41
2.3709141e-43
1.867314e-45
1.0497996e-47
4.0360952e-50
1.0298195e-52
1.7055882e-55
1.7977523e-58
1.1789319e-61
4.6885419e-65
1.0972375e-68
1.4564379e-72
1.0429339e-76
3.763403e-81
6.3225201e-86
4.4295632e-91
1.1011176e-96
3.5902988e-111
3.5031158e-128
1.8666193e-148
0.00050278011
0.00048909961
0.00050737858
0.00054447329
0.00057234128
0.00060664823
0.00063310352
0.0006095595
0.0005539932
0.00052088895
0.00053171957
0.00054735479
0.00051043214
0.00040917616
0.00028956698
0.00018648717
0.00050032624
0.00043466034
0.00034517404
0.00032499294
0.00037884454
0.00044573733
0.00047442131
0.00045257688
0.00039203836
0.00028088012
0.00010927884
1.9382649e-06
2.6616085e-10
1.3497833e-15
2.2529395e-22
1.8090411e-30
2.1859517e-35
3.6490375e-37
6.7167984e-39
9.9078256e-41
1.081269e-42
8.3425421e-45
4.4180173e-47
1.5712932e-49
3.6848864e-52
5.6077338e-55
5.4468369e-58
3.3077048e-61
1.2256816e-64
2.6910936e-68
3.3761136e-72
2.2934894e-76
7.9120867e-81
1.2803669e-85
8.7019568e-91
1.7469453e-104
1.7643464e-120
2.9163086e-139
2.1761005e-161
0.00051183096
0.00049951358
0.0004749693
0.00048787847
0.00052889815
0.00056373389
0.0006004082
0.00061839977
0.0005828841
0.00051535838
0.00047258587
0.00047470207
0.00047814272
0.00042084563
0.00029896867
0.00017650572
7.5617245e-05
0.00045777077
0.00037221468
0.0003484231
0.00039950809
0.00046644124
0.00049458261
0.0004740139
0.00042322369
0.00033974619
0.00018493885
2.5258418e-05
2.9798584e-08
1.0930623e-12
1.7126316e-18
9.8677182e-26
9.4015969e-33
5.9313961e-35
1.5451206e-36
3.1030339e-38
4.5147404e-40
4.6319005e-42
3.2871774e-44
1.5877708e-46
5.1438647e-49
1.1018306e-51
1.5389451e-54
1.3799516e-57
7.7885875e-61
2.7022897e-64
5.598348e-68
6.6737921e-72
4.3308895e-76
1.4388642e-80
2.2596703e-85
2.1679447e-98
1.4362186e-113
2.4974975e-131
4.7201583e-152
1.212862e-175
0.000478719
0.00051970424
0.0004933773
0.00045853218
0.00046587064
0.00050965012
0.0005511859
0.00058882422
0.00059833336
0.00054981543
0.00046972895
0.0004165203
0.00040982324
0.00039456735
0.00031183479
0.00018414596
6.8753982e-05
6.2586441e-06
0.00039715428
0.00036971705
0.00041680229
0.0004831043
0.00050966053
0.00048657607
0.00044133184
0.00037932236
0.00025965626
8.0231678e-05
9.441461e-07
1.9633435e-10
2.2413221e-15
1.1724932e-21
5.5104075e-29
8.7592805e-33
2.7765429e-34
7.2919178e-36
1.3706724e-37
1.819876e-39
1.68875e-41
1.0821858e-43
4.7299374e-46
1.392735e-48
2.7278478e-51
3.5076478e-54
2.9166145e-57
1.538324e-60
5.0281553e-64
9.8960296e-68
1.1277409e-71
7.0449956e-76
2.2718707e-80
8.8653158e-93
2.9999092e-107
3.5509085e-124
6.3164542e-144
2.592379e-166
1.1043469e-190
0.00041992707
0.00049659741
0.00052345208
0.00048461546
0.00043955803
0.00044091751
0.00048640828
0.00053351916
0.00057121826
0.00057163073
0.00050950492
0.00041613018
0.00035378357
0.00033248892
0.00029287448
0.00019408838
7.454315e-05
5.0407195e-06
4.8254388e-08
0.0003886031
0.0004306788
0.00049515847
0.00051982316
0.00049244068
0.00044874298
0.00040249535
0.00031611188
0.00015437027
9.7182929e-06
9.936528e-09
6.2557291e-13
2.4150189e-18
5.50318e-25
1.9091206e-30
3.977606e-32
1.3056992e-33
3.0682705e-35
5.1422633e-37
6.0960554e-39
5.0683709e-41
2.9232723e-43
1.1563442e-45
3.1017906e-48
5.5759856e-51
6.6331523e-54
5.1442071e-57
2.5520091e-60
7.9133708e-64
1.4908225e-67
1.63492e-71
9.9129445e-76
1.4053308e-87
2.0711625e-101
1.3154949e-117
1.5018148e-136
4.1869693e-158
1.6168449e-181
3.6876911e-206
0.00040522282
0.00044044919
0.00051041532
0.00052367724
0.0004730737
0.0004180069
0.00041276185
0.00045822305
0.00050982326
0.00054656603
0.0005372504
0.00045996542
0.00035352066
0.00027980054
0.0002404872
0.00018073287
8.2664407e-05
6.058296e-06
3.6476335e-08
7.2646619e-11
0.00044068178
0.00050184795
0.00052438629
0.00049191586
0.0004475607
0.00041309047
0.00035656989
0.00022196413
5.4271954e-05
1.8295931e-07
4.7446747e-11
1.0300924e-15
1.5801129e-21
1.3624715e-27
4.9104684e-30
1.859403e-31
5.2473605e-33
1.0661608e-34
1.575896e-36
1.6626941e-38
1.2384279e-40
6.4393505e-43
2.3121695e-45
5.6732203e-48
9.407581e-51
1.0414494e-53
7.5836929e-57
3.5647538e-60
1.056735e-63
1.9195611e-67
2.0425166e-71
9.6619635e-83
5.5474031e-96
1.6261317e-111
9.7004149e-130
1.3664617e-150
2.2733423e-173
3.0309369e-197
6.1333748e-222
0.00044706223
0.00041965834
0.00045868433
0.00052029035
0.00052051565
0.00045883222
0.00039360731
0.00038082859
0.00042470679
0.0004792984
0.00051419686
0.00049407236
0.0003985694
0.0002780264
0.0001940614
0.00014043713
7.3653707e-05
7.9911087e-06
4.6498999e-08
5.233373e-11
2.4457332e-14
0.00050241636
0.00052196144
0.00048472996
0.00043903368
0.00041430963
0.00038238215
0.00028204943
0.00011600001
4.0967181e-06
1.2592042e-09
1.1739098e-13
1.1158816e-18
2.5980473e-24
8.2995659e-28
2.2965265e-29
7.3426611e-31
1.7314831e-32
2.9947788e-34
3.8978598e-36
3.668278e-38
2.454129e-40
1.1542112e-42
3.7778684e-45
8.5220398e-48
1.3112681e-50
1.3599468e-53
9.3680774e-57
4.2063145e-60
1.2022857e-63
2.1216624e-67
3.1293394e-78
6.4370521e-91
7.8416579e-106
2.1502065e-123
1.3123489e-143
7.8520357e-166
2.7138514e-189
3.0272371e-213
5.2473352e-238
0.00049682609
0.00044974801
0.00043247156
0.00047446664
0.0005264006
0.00051403476
0.00044138962
0.00036594288
0.00034491352
0.0003855236
0.00044134481
0.00047307933
0.00043750609
0.00031913853
0.00019019926
0.00010231987
4.4995238e-05
6.41175e-06
7.0038989e-08
6.977943e-11
1.630705e-14
1.8469794e-18
0.00051187591
0.00047067998
0.00042419078
0.00040835157
0.00039769232
0.00033085656
0.00017850663
2.7777448e-05
6.4902178e-08
4.8680163e-12
3.1188237e-16
1.1058427e-20
2.0313005e-24
5.6386386e-27
9.8384344e-29
2.3550667e-30
4.5164122e-32
6.7040441e-34
7.7530953e-36
6.5309932e-38
3.9382986e-40
1.682467e-42
5.0450544e-45
1.0524413e-47
1.5126722e-50
1.4807386e-53
9.7281378e-57
4.2091899e-60
1.1710634e-63
5.088036e-74
3.507988e-86
1.6427902e-100
1.8984753e-117
4.5742985e-137
9.0216376e-159
7.4948662e-182
1.4723866e-205
1.9086801e-229
3.7149201e-254
0.00049387879
0.00048533325
0.00045022295
0.00044416708
0.00048736418
0.0005286128
0.00050388369
0.00042027613
0.0003346093
0.00030481814
0.00034034394
0.00039472837
0.00042032879
0.00035859797
0.000224069
9.6414073e-05
2.159507e-05
2.2883602e-06
5.6211754e-08
1.1710571e-10
2.2679736e-14
1.0984739e-18
3.3524517e-23
0.00045016959
0.00040414782
0.00039716214
0.0004057718
0.00036893893
0.00023926215
7.6131616e-05
1.1790175e-06
5.5122057e-10
7.3030448e-14
8.8577854e-17
1.1857156e-19
7.9859778e-23
6.9423769e-26
3.5053661e-28
5.6999604e-30
9.0958568e-32
1.1944618e-33
1.2387003e-35
9.3738041e-38
5.1161467e-40
1.994995e-42
5.5120685e-45
1.0704483e-47
1.4479307e-50
1.3487435e-53
8.5257441e-57
3.5882156e-60
4.3691866e-70
9.5504445e-82
1.616901e-95
7.3989856e-112
6.640629e-131
4.0515018e-152
8.3338051e-175
2.4612851e-198
5.5225639e-222
1.1908936e-245
2.5949381e-270
0.00042384211
0.00046888349
0.00047016186
0.0004497172
0.00045416895
0.00049679928
0.00052684816
0.0004894809
0.00039506539
0.00029921749
0.00026063274
0.00028888762
0.00034255814
0.00034730515
0.00025897326
0.00012137212
1.7117941e-05
5.8861047e-07
1.5988162e-08
9.814521e-11
4.266644e-14
1.5831023e-18
1.6896399e-23
1.6469827e-28
0.0003800749
0.00038232323
0.00040918669
0.00039986936
0.00029677746
0.00013214552
1.0038537e-05
2.0116774e-08
2.3545144e-11
3.5968402e-13
3.6791248e-15
9.1109596e-18
5.2862516e-21
7.6281333e-25
8.5652119e-28
1.0221966e-29
1.4251452e-31
1.7104013e-33
1.5886219e-35
1.0842921e-37
5.3815001e-40
1.9260576e-42
4.9353868e-45
8.9891405e-48
1.1537245e-50
1.0318189e-53
6.3355547e-57
2.066048e-66
1.3641193e-77
7.9349935e-91
1.3713063e-106
4.4243949e-125
7.9699095e-146
4.0782466e-168
2.0609812e-191
4.9141908e-215
2.5518855e-238
8.1019638e-262
1.6959348e-286
0.00035321116
0.00039266637
0.00044010336
0.00045356815
0.00044823755
0.00046173049
0.00050209609
0.00052030217
0.00047070696
0.00036485547
0.00025963228
0.00021310957
0.0002382931
0.00027574675
0.00025261058
0.00015038023
2.745431e-05
3.431864e-07
2.8940499e-09
2.4944998e-11
3.7741762e-14
3.3464371e-18
2.5148482e-23
6.5750388e-29
2.5689232e-34
0.00036522622
0.00040987044
0.00042617349
0.00035098312
0.00019032052
3.9964248e-05
3.7657109e-07
2.1600304e-09
2.0636369e-10
1.7892337e-11
2.2928235e-13
6.0045571e-16
1.2350217e-19
2.9609914e-24
1.2845471e-27
1.3856146e-29
1.7709163e-31
1.9579747e-33
1.6349256e-35
1.0109587e-37
4.5868974e-40
1.5162857e-42
3.6298123e-45
6.2516788e-48
7.6822989e-51
6.6607396e-54
5.5738413e-63
1.0637855e-73
2.034369e-86
1.2781991e-101
1.4519276e-119
7.4978677e-140
9.3545367e-162
9.176259e-185
2.4023842e-208
1.3590489e-231
1.5345136e-254
5.3927646e-278
1.0151336e-302