/*--------------------------------*- C++ -*----------------------------------*\
| =========                 |                                                 |
| \\      /  F ield         | OpenFOAM: The Open Source CFD Toolbox           |
|  \\    /   O peration     | Version:  5.0                                   |
|   \\  /    A nd           | Web:      www.OpenFOAM.org                      |
|    \\/     M anipulation  |                                                 |
\*---------------------------------------------------------------------------*/
FoamFile
{
    version     2.0;
    format      ascii;
    class       volScalarField;
    location    "140";
    object      nuTilda;
}
// * * * * * * * * * * * * * * * * * * * * * * * * * * * * * * * * * * * * * //

dimensions      [0 2 -1 0 0 0 0];

internalField   nonuniform List<scalar> 
9520
(
4.8833959e-33
5.1527937e-31
4.6289143e-33
2.6654218e-29
4.8852404e-31
4.3983489e-33
8.9783164e-28
2.5266856e-29
4.6462041e-31
4.2069536e-33
2.2163702e-26
8.5087467e-28
2.4046076e-29
4.4514011e-31
4.0587547e-33
4.2820457e-25
2.0996821e-26
8.1018799e-28
2.3069193e-29
4.3039613e-31
3.9492058e-33
6.7515411e-24
4.0549685e-25
2.000139e-26
7.7819512e-28
2.2344589e-29
4.1966799e-31
3.865013e-33
8.9376264e-23
6.3919251e-24
3.8643393e-25
1.9231412e-26
7.5487617e-28
2.182163e-29
4.1122257e-31
3.7882964e-33
1.0136496e-21
8.4607089e-23
6.0954e-24
3.7191869e-25
1.8678023e-26
7.3806919e-28
2.1394577e-29
4.0293476e-31
3.7006281e-33
1.0000635e-20
9.596216e-22
8.0750078e-23
5.8735102e-24
3.6159568e-25
1.8276917e-26
7.2371353e-28
2.0944628e-29
3.9291306e-31
3.5908067e-33
8.7053105e-20
9.4694068e-21
9.1678707e-22
7.7917263e-23
5.717349e-24
3.5401427e-25
1.7917041e-26
7.0761453e-28
2.0381009e-29
3.8040076e-31
3.4622361e-33
6.9292458e-19
8.2378515e-20
9.0563801e-21
8.8588264e-22
7.5946621e-23
5.600664e-24
3.4684452e-25
1.7492912e-26
6.8706377e-28
1.9689692e-29
3.6640545e-31
3.3358651e-33
6.3876551e-18
6.4727971e-19
7.8822523e-20
8.7624125e-21
8.6466401e-22
7.444804e-23
5.483951e-24
3.3806414e-25
1.6948559e-26
6.6249643e-28
1.8955199e-29
3.5370349e-31
3.2443637e-33
1.3608238e-16
5.3136914e-18
6.1502929e-19
7.631254e-20
8.5637708e-21
8.4831977e-22
7.2863799e-23
5.336167e-24
3.2684906e-25
1.6317322e-26
6.3778872e-28
1.8343979e-29
3.4588518e-31
3.2180556e-33
5.3555035e-15
8.4552702e-17
4.6860939e-18
5.9313246e-19
7.4662713e-20
8.41103e-21
8.301376e-22
7.0795906e-23
5.1491235e-24
3.1428658e-25
1.5717292e-26
6.1909758e-28
1.803983e-29
3.45679e-31
3.2683725e-33
1.9898157e-13
3.0342108e-15
5.6217083e-17
4.3178215e-18
5.7984223e-19
7.344006e-20
8.233334e-21
8.0562707e-22
6.820505e-23
4.9473182e-24
3.0302585e-25
1.5308332e-26
6.122484e-28
1.8151494e-29
3.5330348e-31
3.3773307e-33
5.9601466e-12
1.1746997e-13
1.7201712e-15
4.041817e-17
4.1317762e-18
5.7117321e-19
7.1956939e-20
7.9832543e-21
7.7512155e-22
6.5517273e-23
4.7776072e-24
2.9619301e-25
1.521871e-26
6.1959058e-28
1.8636338e-29
3.6573037e-31
3.4992399e-33
1.400938e-10
3.7894249e-12
6.8137964e-14
9.6097771e-16
3.3198644e-17
4.0486804e-18
5.6051017e-19
6.9730204e-20
7.6716743e-21
7.4468791e-22
6.3412864e-23
4.6882215e-24
2.9585103e-25
1.5470343e-26
6.3787018e-28
1.9283679e-29
3.7734987e-31
3.574753e-33
2.5636921e-09
9.7112509e-11
2.3243236e-12
3.7649121e-14
6.3089781e-16
3.1064467e-17
3.97678e-18
5.429214e-19
6.6918912e-20
7.3724695e-21
7.2269316e-22
6.2496292e-23
4.7033961e-24
3.0167964e-25
1.5940318e-26
6.5842877e-28
1.9774173e-29
3.8182681e-31
3.5515187e-33
3.5283521e-08
1.9287204e-09
6.3360124e-11
1.3451307e-12
2.5405981e-14
5.794476e-16
3.0763771e-17
3.8464615e-18
5.1998638e-19
6.431207e-20
7.1751519e-21
7.1540901e-22
6.2958775e-23
4.8055561e-24
3.1054932e-25
1.6385035e-26
6.6996278e-28
1.9792237e-29
3.7438037e-31
3.4032792e-33
3.5228263e-07
2.8321973e-08
1.3311059e-09
3.8733366e-11
1.0019303e-12
2.6484864e-14
6.345564e-16
2.9552567e-17
3.6612154e-18
4.9931606e-19
6.2766229e-20
7.1342099e-21
7.2334473e-22
6.439522e-23
4.9343033e-24
3.1735745e-25
1.6523967e-26
6.6272231e-28
1.914352e-29
3.5360157e-31
3.1405904e-33
2.4768823e-06
2.9660501e-07
2.0604325e-08
8.7814985e-10
3.1706358e-11
1.178808e-12
3.2376644e-14
6.1202111e-16
2.6623174e-17
3.4946998e-18
4.8846252e-19
6.2683067e-20
7.2364459e-21
7.3991977e-22
6.5873395e-23
5.0054413e-24
3.1688938e-25
1.6148467e-26
6.32295e-28
1.7832583e-29
3.2218057e-31
2.8099505e-33
1.2237577e-05
2.1657532e-06
2.2558531e-07
1.4581009e-08
7.7599113e-10
4.0077684e-11
1.5259116e-12
3.1734517e-14
4.4626224e-16
2.3697382e-17
3.4159376e-18
4.8997597e-19
6.3771295e-20
7.3967167e-21
7.5325916e-22
6.6260792e-23
4.9432862e-24
3.0591896e-25
1.5207032e-26
5.8152934e-28
1.6076403e-29
2.8635237e-31
2.4822803e-33
4.2558247e-05
1.1013741e-05
1.7217256e-06
1.6989392e-07
1.354519e-08
9.9076737e-10
5.3178623e-11
1.5014602e-12
2.0778291e-14
2.702424e-16
2.2194731e-17
3.4390133e-18
5.0005407e-19
6.5100593e-20
7.4866644e-21
7.5070324e-22
6.4679205e-23
4.7123762e-24
2.8461481e-25
1.3833754e-26
5.2012816e-28
1.4253014e-29
2.5430891e-31
2.234974e-33
0.00010689286
3.9086947e-05
9.0828824e-06
1.3655177e-06
1.6346289e-07
1.7140996e-08
1.311894e-09
5.2049203e-11
9.474835e-13
9.4249992e-15
1.7619431e-16
2.2048075e-17
3.5223414e-18
5.0977772e-19
6.5462527e-20
7.3870046e-21
7.241017e-22
6.0888959e-23
4.3345803e-24
2.5669655e-25
1.2317814e-26
4.622092e-28
1.2804476e-29
2.3412295e-31
2.1330861e-33
0.00020575692
9.962265e-05
3.327037e-05
7.5133274e-06
1.3429839e-06
2.036186e-07
2.2346497e-08
1.2705161e-09
3.2066487e-11
3.9595256e-13
3.7000842e-15
1.4479481e-16
2.2566463e-17
3.5873836e-18
5.0898706e-19
6.3900165e-20
7.0393915e-21
6.7355421e-22
5.5434966e-23
3.8850032e-24
2.2847939e-25
1.1028528e-26
4.2266432e-28
1.2124877e-29
2.3179082e-31
2.214461e-33
0.00032612495
0.00019407022
8.7012629e-05
2.8487389e-05
7.4946588e-06
1.6391306e-06
2.5875283e-07
2.1386562e-08
7.7409294e-10
1.2890705e-11
1.3549228e-13
1.8088157e-15
1.4018618e-16
2.2953161e-17
3.5553301e-18
4.911073e-19
6.0139676e-20
6.4746323e-21
6.0801816e-22
4.9505132e-23
3.4715853e-24
2.0721001e-25
1.0319515e-26
4.1338731e-28
1.2463937e-29
2.498502e-31
2.481569e-33
0.00044537081
0.00031048861
0.00017300388
7.6518344e-05
2.8663297e-05
8.9536223e-06
2.021336e-06
2.4452399e-07
1.3059829e-08
3.1231142e-10
4.3253352e-12
5.8673611e-14
1.4433762e-15
1.4137363e-16
2.2566425e-17
3.3873036e-18
4.5620985e-19
5.4729192e-20
5.8068389e-21
5.4275252e-22
4.4599031e-23
3.2063661e-24
1.9917485e-25
1.0438435e-26
4.4032229e-28
1.3867322e-29
2.8679337e-31
2.9007577e-33
0.00054739715
0.00042392891
0.00027940293
0.00015455684
7.7370239e-05
3.3516891e-05
1.067202e-05
1.8889832e-06
1.5137166e-07
5.5119296e-09
1.1454682e-10
2.1680732e-12
5.2302431e-14
1.5138332e-15
1.3709627e-16
2.1188707e-17
3.1025638e-18
4.1092712e-19
4.8868331e-20
5.199499e-21
4.9502349e-22
4.2127046e-23
3.1760247e-24
2.080704e-25
1.146366e-26
5.0192717e-28
1.6162195e-29
3.3730076e-31
3.4082432e-33
0.00063507086
0.00052065381
0.0003835677
0.00025092561
0.00015601319
8.8640269e-05
3.8604888e-05
9.8688471e-06
1.1963208e-06
6.8024352e-08
2.2601428e-09
6.7115333e-11
2.4706663e-12
6.5389817e-14
1.4326422e-15
1.2452292e-16
1.909432e-17
2.766124e-18
3.6603126e-19
4.40458e-20
4.8197396e-21
4.7949228e-22
4.3036438e-23
3.4188169e-24
2.3400282e-25
1.327966e-26
5.8925514e-28
1.898712e-29
3.9319337e-31
3.9214812e-33
0.00071239107
0.00060326588
0.00047302485
0.0003475153
0.00025162941
0.00017537174
9.8938407e-05
3.5400596e-05
6.4396069e-06
5.7751608e-07
3.138048e-08
1.5319343e-09
8.8650685e-11
3.4213799e-12
6.3238569e-14
1.0526234e-15
1.0829515e-16
1.6836736e-17
2.4624103e-18
3.3319892e-19
4.1633631e-20
4.7940287e-21
5.0427879e-22
4.7548332e-23
3.9129814e-24
2.7329769e-25
1.559422e-26
6.8757991e-28
2.1859255e-29
4.4493248e-31
4.3540829e-33
0.00077883828
0.00067578601
0.00054956297
0.00043168611
0.00034764028
0.00027820309
0.00019091013
9.038632e-05
2.3966618e-05
3.360901e-06
3.0141375e-07
2.4524201e-08
2.1915773e-09
1.280285e-10
3.381488e-12
3.7203328e-14
6.8601889e-16
9.3587598e-17
1.5000208e-17
2.2708946e-18
3.2200496e-19
4.2530647e-20
5.1734979e-21
5.6853049e-22
5.5063275e-23
4.5787965e-24
3.191486e-25
1.7994152e-26
7.7925253e-28
2.4266004e-29
4.8341458e-31
4.6317105e-33
0.00083251136
0.0007369641
0.00061786255
0.0005038485
0.0004308077
0.00037893669
0.00029844503
0.00017502484
6.3840741e-05
1.3595567e-05
1.9919458e-06
2.6842545e-07
3.6380067e-08
3.2091445e-09
1.2775964e-10
1.9436106e-12
1.345382e-14
5.0063173e-16
8.3359968e-17
1.4051774e-17
2.2478998e-18
3.3753367e-19
4.6906652e-20
5.9160697e-21
6.6206638e-22
6.4256753e-23
5.2939992e-24
3.6298709e-25
2.0028528e-26
8.4718916e-28
2.5764725e-29
5.0170809e-31
4.7057024e-33
0.00087365768
0.00078625101
0.00067559299
0.00056903628
0.00050082836
0.00046284136
0.00039972874
0.00027453322
0.00012905302
3.9379942e-05
9.1372175e-06
1.9829478e-06
4.0139553e-07
5.3024498e-08
3.2119038e-09
7.3897816e-11
6.2448253e-13
4.2755195e-15
4.2840679e-16
7.9469625e-17
1.4261382e-17
2.4136861e-18
3.7883024e-19
5.4105239e-20
6.8904693e-21
7.6725087e-22
7.3349068e-23
5.9193733e-24
3.9627938e-25
2.1301593e-26
8.782898e-28
2.6069704e-29
4.9633721e-31
4.5612546e-33
0.00090348358
0.00082373769
0.00072291727
0.00062524348
0.00056260969
0.00053055175
0.0004802199
0.00036745714
0.00020958937
8.5863103e-05
2.9663002e-05
9.925015e-06
2.941924e-06
5.7446923e-07
5.2986438e-08
1.8836565e-09
2.3906127e-11
1.2723372e-13
2.2737547e-15
4.1373517e-16
8.2738722e-17
1.5651453e-17
2.7451881e-18
4.3862946e-19
6.2746368e-20
7.9024832e-21
8.6276255e-22
8.048937e-23
6.3270826e-24
4.1225219e-25
2.1555246e-26
8.6603233e-28
2.5103331e-29
4.6779388e-31
4.2181379e-33
0.00092248755
0.000850792
0.00075988109
0.00067238822
0.00061585937
0.00058763134
0.00054335583
0.00044218993
0.00028910645
0.00014853269
7.0679071e-05
3.4201097e-05
1.4437492e-05
4.0877756e-06
5.7119338e-07
3.1707964e-08
6.3022792e-10
4.975959e-12
2.6747486e-14
2.0250705e-15
4.4168103e-16
9.2610728e-17
1.7971553e-17
3.1773632e-18
5.0468011e-19
7.1020554e-20
8.7381508e-21
9.2796359e-22
8.4079639e-23
6.4243492e-24
4.0709481e-25
2.0711359e-26
8.114988e-28
2.2999101e-29
4.2013532e-31
3.723821e-33
0.00093240355
0.0008683144
0.00078778055
0.00071058476
0.000660532
0.00063545178
0.00059449554
0.00050123138
0.00035740965
0.00021624307
0.00013017961
8.4002314e-05
4.8297228e-05
1.9300973e-05
4.0313838e-06
3.5087578e-07
1.1158925e-08
1.4534198e-10
9.1196385e-13
1.1456709e-14
2.1880224e-15
5.0336804e-16
1.0702998e-16
2.0724308e-17
3.6162507e-18
5.6250901e-19
7.7107448e-20
9.2048972e-21
9.4725844e-22
8.3244547e-23
6.1812266e-24
3.8104707e-25
1.8883723e-26
7.2260378e-28
2.0056477e-29
3.5982676e-31
3.1415299e-33
0.00093547152
0.00087819061
0.00080754302
0.00074100138
0.00069678442
0.00067456548
0.00063615702
0.00055062794
0.00041354147
0.00027911362
0.00019741816
0.00015609266
0.00011436842
6.1775502e-05
1.8841917e-05
2.5555776e-06
1.3197132e-07
2.8858444e-09
2.9474752e-11
1.7774661e-13
1.0450596e-14
2.5337332e-15
5.8430974e-16
1.2265969e-16
2.327478e-17
3.9615364e-18
5.9890022e-19
7.9509006e-20
9.1811114e-21
9.1467944e-22
7.7972901e-23
5.6305496e-24
3.3798689e-25
1.6340991e-26
6.1182159e-28
1.6663035e-29
2.9425128e-31
2.5367163e-33
0.00093289773
0.00088303469
0.00082083454
0.00076430683
0.00072604793
0.00070538613
0.00066915628
0.00059068052
0.00046487062
0.00033307061
0.00026097372
0.00023551208
0.00020449529
0.00014000692
5.9727287e-05
1.2387176e-05
1.0398996e-06
3.8098649e-08
6.5527833e-10
5.5189998e-12
6.85936e-14
1.207462e-14
2.9526194e-15
6.6421292e-16
1.3566956e-16
2.5015153e-17
4.1315198e-18
6.0422584e-19
7.7473243e-20
8.6480167e-21
8.3432837e-22
6.9058772e-23
4.8556583e-24
2.8422149e-25
1.3432489e-26
4.9315647e-28
1.3210719e-29
2.3023697e-31
1.9656124e-33
0.00092722934
0.00088471838
0.00083143479
0.00078152199
0.00074859568
0.00072938954
0.00069400189
0.00062285447
0.00050833222
0.00038359438
0.0003162445
0.00030680607
0.00029764642
0.00024013048
0.00013447472
4.0919552e-05
5.4882376e-06
3.3236188e-07
9.6210171e-09
1.3813833e-10
1.4176118e-12
7.0458375e-14
1.420371e-14
3.3259614e-15
7.2212557e-16
1.4282005e-16
2.552169e-17
4.0769183e-18
5.7506294e-19
7.1188317e-20
7.6848988e-21
7.1870269e-22
5.785045e-23
3.967147e-24
2.2687922e-25
1.0507785e-26
3.7932135e-28
1.0025637e-29
1.7303846e-31
1.4683925e-33
0.00088597605
0.00092589809
0.00084143064
0.00079508851
0.00076495144
0.00074660373
0.00071179526
0.00064732741
0.00054517789
0.000428599
0.00036395468
0.00036483915
0.00037539678
0.00033715801
0.00022939316
9.6315805e-05
1.9763698e-05
1.9298698e-06
9.2989562e-08
2.3587624e-09
4.5249244e-11
1.5586456e-12
9.4895096e-14
1.5908815e-14
3.5466346e-15
7.4306297e-16
1.4231325e-16
2.4621698e-17
3.7894363e-18
5.1546745e-19
6.1642031e-20
6.4424283e-21
5.8502331e-22
4.5893251e-23
3.0765448e-24
1.7239695e-25
7.8527697e-27
2.7982017e-28
7.330192e-30
1.2591529e-31
1.0675471e-33
0.00084945196
0.00089027365
0.00092652348
0.00080562279
0.00077667001
0.0007577493
0.00072290866
0.00066505318
0.00057582567
0.00046799475
0.00040583619
0.00041084601
0.00043270845
0.00041391348
0.00031990493
0.00017150471
5.0614958e-05
7.6078772e-06
6.0045251e-07
2.7492599e-08
1.1257163e-09
6.5908773e-11
2.9324019e-12
1.1437698e-13
1.6517055e-14
3.5562568e-15
7.2184873e-16
1.3407166e-16
2.2347804e-17
3.3136331e-18
4.3499623e-19
5.0315152e-20
5.1006772e-21
4.509192e-22
3.4588253e-23
2.2751309e-24
1.2551893e-25
5.6561813e-27
2.0027126e-28
5.2388973e-30
9.0270038e-32
7.7053411e-34
0.00081217072
0.00085689138
0.00089185449
0.0009227934
0.00078415336
0.0007638405
0.00072840079
0.00067669705
0.00060090147
0.00050224589
0.00044241358
0.00044737924
0.00047368282
0.0004650548
0.00038976829
0.00024753031
9.7533996e-05
2.1305226e-05
2.6711146e-06
2.2530139e-07
1.9312879e-08
1.9722164e-09
1.3328104e-10
4.0514664e-12
1.0652441e-13
1.5929987e-14
3.3573734e-15
6.6289796e-16
1.1881156e-16
1.9064932e-17
2.7259708e-18
3.4589376e-19
3.8789291e-20
3.8269e-21
3.3089317e-22
2.4966439e-23
1.6230563e-24
8.8981678e-26
4.0101525e-27
1.4284687e-28
3.7801858e-30
6.6160139e-32
5.7482895e-34
0.00078612163
0.00081505386
0.00086233288
0.00088819404
0.00091466434
0.00076530274
0.00072914064
0.00068343341
0.00062091927
0.0005319214
0.00047425084
0.00047814812
0.0005039266
0.00049842676
0.00043718556
0.00031063949
0.00015140576
4.4985037e-05
8.6665282e-06
1.3388824e-06
2.2254864e-07
3.7098782e-08
3.9574856e-09
1.8670287e-10
3.3698012e-12
8.0818573e-14
1.4476671e-14
2.9978314e-15
5.7326869e-16
9.8891145e-17
1.5295396e-17
2.1133498e-18
2.6003315e-19
2.8406467e-20
2.7463125e-21
2.3449938e-22
1.7620322e-23
1.149532e-24
6.3799103e-26
2.9346976e-27
1.073963e-28
2.9311542e-30
5.2938089e-32
4.7337298e-34
0.00076149166
0.00078090217
0.00082001935
0.00086261137
0.00087953567
0.00090022546
0.0007259471
0.00068675928
0.00063669745
0.00055735109
0.00050198025
0.00050389859
0.00052800361
0.00052342833
0.00047046169
0.00035863242
0.00020278447
7.6907681e-05
2.1756534e-05
5.8948186e-06
1.7083986e-06
4.3879886e-07
7.2114163e-08
5.4739116e-09
1.562346e-10
1.5907378e-12
6.0927305e-14
1.2504657e-14
2.5268397e-15
4.6556026e-16
7.7418128e-17
1.1576154e-17
1.552934e-18
1.8664204e-19
2.0078914e-20
1.9322389e-21
1.6638931e-22
1.2773259e-23
8.6108684e-25
4.9899273e-26
2.4102973e-27
9.2746207e-29
2.6520438e-30
4.9818174e-32
4.5899539e-34
0.00071984198
0.0007511348
0.00077871396
0.0008224628
0.00085726252
0.00086449227
0.00087678428
0.00068779655
0.00064946259
0.00057893946
0.00052585882
0.00052566114
0.00054639352
0.00054135006
0.00049522056
0.00040038513
0.00024728226
0.00011319811
4.4368889e-05
1.9235974e-05
8.781183e-06
3.3102513e-06
8.1434805e-07
9.7601819e-08
4.6397978e-09
7.2439127e-11
4.9762942e-13
4.8798228e-14
1.0246174e-14
2.0020239e-15
3.5594611e-16
5.7313808e-17
8.3458643e-18
1.0996758e-18
1.3138857e-19
1.4275302e-20
1.4138743e-21
1.2770978e-22
1.0426535e-23
7.5310499e-25
4.6807817e-26
2.4093949e-27
9.7766459e-29
2.9113623e-30
5.6250346e-32
5.2704221e-34
0.00068861241
0.00071149943
0.0007421343
0.00077521996
0.00082049523
0.00084545156
0.00084067948
0.00084322637
0.0006589599
0.00059779928
0.0005463067
0.00054360004
0.00056084214
0.00055306189
0.00051238082
0.00043338891
0.0002976404
0.00014994057
7.5562322e-05
4.6878216e-05
3.0643508e-05
1.6253902e-05
5.794219e-06
1.071448e-06
8.3503514e-08
2.2688513e-09
1.7890467e-11
2.0628338e-13
3.85558e-14
7.9145076e-15
1.4966155e-15
2.5853252e-16
4.0777224e-17
5.8905163e-18
7.8392999e-19
9.6790522e-20
1.1140971e-20
1.194226e-21
1.1801368e-22
1.0515258e-23
8.2014427e-25
5.4197996e-26
2.9171719e-27
1.2196857e-28
3.697728e-30
7.2059756e-32
6.76106e-34
0.00066900276
0.0006862302
0.00070092295
0.00073018318
0.00076983697
0.00081271322
0.00082540865
0.00080737403
0.00079918279
0.00061394739
0.00056367518
0.00055814349
0.00057111484
0.00056012841
0.00052276271
0.00045863381
0.00034115397
0.00019388948
0.00011177992
8.7825235e-05
7.5192532e-05
5.3284838e-05
2.6553658e-05
7.3659939e-06
9.231234e-07
4.3133341e-08
6.1796242e-10
2.8699561e-12
1.3821764e-13
2.8969411e-14
5.7939249e-15
1.071224e-15
1.8310475e-16
2.9119693e-17
4.3519304e-18
6.1730755e-19
8.343964e-20
1.0672687e-20
1.269197e-21
1.3689524e-22
1.3019743e-23
1.06201e-24
7.2115609e-26
3.9381506e-27
1.655879e-28
5.0185317e-30
9.737738e-32
9.0717036e-34
0.00062814499
0.00067371972
0.00067983674
0.00068758288
0.00071620814
0.00076028624
0.00079777197
0.00079621747
0.00076454826
0.00074368402
0.00057790531
0.00056968109
0.00057802341
0.00056279321
0.00052763145
0.00047692739
0.00037870939
0.00023751378
0.00014812995
0.00013554062
0.00013739828
0.00012178074
8.0640607e-05
3.2443173e-05
6.3860763e-06
5.0367023e-07
1.3176979e-08
1.0229123e-10
6.9497263e-13
9.9185734e-14
2.0802143e-14
4.1128976e-15
7.6465474e-16
1.3500432e-16
2.2930263e-17
3.7785687e-18
6.0229097e-19
9.1360982e-20
1.2869082e-20
1.6406448e-21
1.8484609e-22
1.8005086e-23
1.484351e-24
1.0091959e-25
5.4894992e-27
2.29228e-28
6.8883857e-30
1.3241988e-31
1.221679e-33
0.00058935746
0.00063881714
0.00067380684
0.00066953192
0.00067086008
0.00069869686
0.00074496561
0.00077453601
0.00075787792
0.00071112711
0.00067703961
0.00057803515
0.00058166651
0.00056192107
0.00052805833
0.0004893117
0.00041044405
0.0002788856
0.0001854257
0.00017656086
0.00020379276
0.00020764334
0.00017053299
9.4519674e-05
2.8333391e-05
3.6902055e-06
1.7217465e-07
2.593823e-09
1.4952356e-11
3.4120489e-13
6.9851645e-14
1.4771906e-14
3.0079688e-15
5.9638782e-16
1.1647426e-16
2.2413568e-17
4.1867621e-18
7.4079144e-19
1.2093883e-19
1.7804337e-20
2.3197757e-21
2.6316827e-22
2.5586941e-23
2.0945558e-24
1.409817e-25
7.5847396e-27
3.1321968e-28
9.3116998e-30
1.7719141e-31
1.6191339e-33
0.00058322333
0.00059791274
0.00064570145
0.00066968712
0.00065512834
0.00065067383
0.00067714113
0.00072309819
0.000742514
0.00070910705
0.00064752029
0.00060011079
0.00058198848
0.00055763278
0.00052503265
0.00049708801
0.00043646751
0.00031726391
0.00022176055
0.00021297951
0.00025855639
0.00028884276
0.0002708274
0.00019247276
8.3565497e-05
1.7421595e-05
1.4124267e-06
4.0149332e-08
4.289687e-10
2.530455e-12
2.2310537e-13
5.014582e-14
1.1289978e-14
2.5432139e-15
5.7461769e-16
1.2849564e-16
2.7710457e-17
5.6036132e-18
1.0382464e-18
1.7310545e-19
2.5607387e-20
3.3207681e-21
3.730659e-22
3.5839692e-23
2.8947681e-24
1.9224827e-25
1.021302e-26
4.168866e-28
1.226409e-29
2.3118633e-31
2.0947944e-33
0.00057875079
0.00058497701
0.00060388789
0.00064888266
0.00066130551
0.0006370637
0.00062624841
0.00065168315
0.00069353517
0.00070040418
0.00065011833
0.00057464017
0.00051626953
0.00055014933
0.00051934751
0.00050168761
0.00045730761
0.00035230191
0.00025630769
0.00024613369
0.00029745675
0.00035193542
0.00035351133
0.00029539991
0.00017347009
5.5032997e-05
7.4870252e-06
3.8676993e-07
7.8445213e-09
6.2278576e-11
8.2127285e-13
1.6274749e-13
4.0883671e-14
1.0544595e-14
2.7486939e-15
7.0455921e-16
1.7214936e-16
3.9056261e-17
8.074984e-18
1.5019949e-18
2.4877595e-19
3.6359904e-20
4.6472579e-21
5.142358e-22
4.867607e-23
3.8736019e-24
2.5379212e-25
1.3319782e-26
5.3790815e-28
1.5677395e-29
2.931596e-31
1.7015671e-35
0.00053950101
0.00057130397
0.00058305969
0.00060790676
0.00064818285
0.00064898468
0.00061460214
0.00059717151
0.00062003128
0.00065479712
0.00064809338
0.00058177012
0.000494277
0.00041936608
0.00051162098
0.00050400446
0.00047431357
0.00038365363
0.00028889966
0.00027601992
0.00033039591
0.00039086158
0.00041165822
0.00037312967
0.00027171943
0.00012303171
2.6587735e-05
2.3924603e-06
8.8374453e-08
1.3078638e-09
9.0477208e-12
5.2161306e-13
1.4389799e-13
4.2515484e-14
1.2647457e-14
3.6514321e-15
9.9283083e-16
2.4889447e-16
5.6715315e-17
1.1636623e-17
2.1347143e-18
3.47748e-19
4.9948904e-20
6.2761368e-21
6.8339574e-22
6.3720691e-23
4.9994569e-24
3.2348597e-25
1.6794179e-26
6.7195531e-28
1.9432002e-29
2.6495859e-33
6.2884696e-38
0.00050220055
0.00052559444
0.00055952943
0.00057906796
0.00060951693
0.00064332458
0.00063224371
0.00058737001
0.00056292695
0.00058064165
0.0006066814
0.00058586247
0.00050361975
0.00040088362
0.00030853572
0.00050493866
0.00048831762
0.00041170527
0.0003194787
0.0003033089
0.00035776556
0.00042277365
0.00044838222
0.00042230551
0.00034795636
0.00020805211
6.6758079e-05
9.8322043e-06
6.3243693e-07
1.7080765e-08
1.8958282e-10
2.2723161e-12
4.9422008e-13
1.6583016e-13
5.5438362e-14
1.7721848e-14
5.2830979e-15
1.4459144e-15
3.596443e-16
8.0717909e-17
1.6259307e-17
2.9252759e-18
4.6744694e-19
6.5923617e-20
8.144017e-21
8.7324949e-22
8.0267368e-23
6.2175283e-24
3.9790308e-25
2.0467457e-26
8.1271641e-28
1.9599172e-31
1.1054295e-35
9.5023762e-41
0.00050419283
0.0004905818
0.00050874156
0.00054566162
0.0005734217
0.00060760939
0.00063399051
0.00061052353
0.00055515866
0.00052219375
0.00053296192
0.00054852996
0.0005117919
0.00041128991
0.00029366526
0.00019539022
0.00050173762
0.00043649138
0.00034806976
0.00032838147
0.00038140288
0.0004475736
0.00047601251
0.00045429589
0.00039428959
0.0002850273
0.00012666237
2.8272942e-05
2.9758949e-06
1.4014384e-07
2.8174247e-09
2.6872016e-11
1.7064374e-12
6.2114122e-13
2.2967035e-13
8.0115216e-14
2.5879896e-14
7.6603727e-15
2.0631883e-15
5.0298266e-16
1.1049677e-16
2.1788017e-17
3.84034e-18
6.0197379e-19
8.3409479e-20
1.0141487e-20
1.0722753e-21
9.7281107e-23
7.4519062e-24
4.7250786e-25
2.4124181e-26
9.1653968e-30
9.2763151e-34
1.8864527e-38
5.5420796e-44
0.00051318485
0.00050094891
0.00047654309
0.00048935026
0.00053015355
0.00056484466
0.00060138873
0.00061932997
0.00058393907
0.0005167047
0.00047416671
0.00047625428
0.00047967672
0.0004228346
0.00030284008
0.0001862956
0.00010142131
0.00045942878
0.00037471416
0.00035137207
0.00040180472
0.00046811451
0.00049604295
0.00047557854
0.00042516394
0.00034267341
0.00019333026
6.0551624e-05
9.7021417e-06
7.4798546e-07
2.6302205e-08
4.0664256e-10
7.5984833e-12
2.2235685e-12
8.9492078e-13
3.3670186e-13
1.1676583e-13
3.7093573e-14
1.0745196e-14
2.8271733e-15
6.73205e-16
1.4456463e-16
2.7899384e-17
4.8201779e-18
7.418784e-19
1.0112186e-19
1.2118623e-20
1.2652092e-21
1.1349046e-22
8.6131082e-24
5.4212819e-25
3.0455574e-28
4.9338917e-32
1.8089592e-36
1.199194e-41
1.4987364e-47
0.00048024041
0.00052102184
0.00049485218
0.00046022281
0.00046748147
0.00051099737
0.0005523444
0.00058984273
0.00059932726
0.00055100164
0.00047134785
0.00041854573
0.00041189179
0.00039680143
0.00031538928
0.00019331709
9.6345065e-05
4.0295549e-05
0.00039935497
0.00037233342
0.00041890726
0.00048466055
0.00051103155
0.00048805627
0.00044311847
0.00038170668
0.00026438417
0.00010315569
2.3281596e-05
2.7402777e-06
1.5817463e-07
4.2363971e-09
6.371579e-11
7.7439925e-12
3.2762138e-12
1.3164381e-12
4.8637137e-13
1.647219e-13
5.100952e-14
1.4400799e-14
3.6950188e-15
8.590317e-16
1.8038134e-16
3.4099268e-17
5.7813559e-18
8.749102e-19
1.1749684e-19
1.3902785e-20
1.4354084e-21
1.2755262e-22
9.6097174e-24
7.6667957e-27
1.8673727e-30
1.1063869e-34
1.2881827e-39
3.2547634e-45
2.554346e-51
0.0004218989
0.00049801586
0.0005247546
0.0004861476
0.00044139929
0.00044271207
0.00048788126
0.00053475145
0.00057229908
0.00057271961
0.00051088631
0.00041818725
0.00035656433
0.00033558615
0.00029683231
0.00020245338
0.00010078233
3.8010948e-05
1.1457374e-05
0.00039096622
0.00043264438
0.00049663609
0.00052113641
0.0004938798
0.0004504704
0.00040463184
0.00031943387
0.00016534914
4.4017834e-05
7.3188861e-06
6.4651544e-07
2.8514011e-08
6.2572934e-10
2.9317592e-11
1.1333719e-11
4.8098776e-12
1.8772789e-12
6.7360959e-13
2.2170714e-13
6.678727e-14
1.8363656e-14
4.5955129e-15
1.0437449e-15
2.1451892e-16
3.977215e-17
6.6270086e-18
9.8771079e-19
1.309208e-19
1.5324305e-20
1.567284e-21
1.382536e-22
1.5227934e-25
5.3582346e-29
4.832776e-33
8.9671061e-38
3.6804424e-43
5.0870834e-49
3.379538e-55
0.00040739008
0.00044224372
0.00051176228
0.00052498194
0.00047468494
0.00042004397
0.00041480412
0.00045987455
0.00051116732
0.00054774433
0.00053848256
0.00046165927
0.00035634972
0.00028414219
0.0002461496
0.00019002896
0.00010688829
4.0065063e-05
1.0711373e-05
2.2540107e-06
0.00044255231
0.00050328208
0.0005256716
0.00049335133
0.00044929424
0.00041512987
0.000359243
0.00022811547
8.3272584e-05
1.5220199e-05
1.9086645e-06
1.2955451e-07
4.5643414e-09
1.4709072e-10
3.7792953e-11
1.6612519e-11
6.7803936e-12
2.5501734e-12
8.8651529e-13
2.8338133e-13
8.3046599e-14
2.2249143e-14
5.4346202e-15
1.207118e-15
2.4314372e-16
4.4277571e-17
7.2629088e-18
1.0680877e-18
1.4000562e-19
1.6241395e-20
1.6488072e-21
2.454394e-24
1.2132853e-27
1.6040666e-31
4.5024942e-36
2.7789437e-41
5.5975819e-47
5.8385804e-53
3.77744e-59
0.00044887197
0.00042167317
0.00046034146
0.00052159055
0.00052183936
0.00046054846
0.00039590477
0.00038321796
0.00042661733
0.00048081161
0.00051552482
0.00049552811
0.00040081809
0.00028249968
0.00020238357
0.00015391989
9.9775335e-05
4.3294552e-05
1.1401616e-05
2.0836507e-06
3.0521006e-07
0.00050384213
0.00052325298
0.0004862003
0.00044083066
0.0004163451
0.00038474334
0.00028609668
0.00013192879
3.42784e-05
4.3365437e-06
4.2409111e-07
2.3711974e-08
9.7871953e-10
1.3825859e-10
5.5559103e-11
2.3334133e-11
9.0968497e-12
3.2840693e-12
1.1056209e-12
3.4345187e-13
9.7982168e-14
2.5599642e-14
6.109891e-15
1.3288963e-15
2.6272006e-16
4.7071162e-17
7.6153023e-18
1.1072709e-18
1.4384319e-19
1.6568976e-20
3.2771937e-23
2.2286897e-26
4.2070964e-30
1.7295998e-34
1.542291e-39
4.3060456e-45
5.7835268e-51
5.7143194e-57
3.6031614e-63
0.00049827772
0.00045152728
0.00043436318
0.00047601805
0.00052767437
0.00051539496
0.00044324752
0.00036859842
0.00034780788
0.00038782306
0.00044311778
0.00047464203
0.0004393584
0.00032260133
0.00019897328
0.00012221113
7.8022459e-05
4.0461724e-05
1.2613942e-05
2.2436365e-06
2.7693537e-07
2.8436871e-08
0.00051321253
0.00047223054
0.00042611027
0.00041045416
0.00039990134
0.0003339057
0.00018725468
6.2406394e-05
1.1699753e-05
1.0849799e-06
1.0019838e-07
8.5099694e-09
1.0547461e-09
2.2934562e-10
8.0009902e-11
3.106237e-11
1.1491075e-11
3.9935727e-12
1.3055966e-12
3.9448022e-13
1.0965304e-13
2.7968306e-14
6.5306761e-15
1.3929516e-15
2.7074364e-16
4.7816286e-17
7.645469e-18
1.1015411e-18
1.421572e-19
3.6831577e-22
3.3888238e-25
8.9572513e-29
5.277054e-33
6.6373071e-38
2.5049332e-43
4.2385994e-49
4.8675935e-55
5.0143043e-61
3.2957672e-67
0.00049530726
0.0004868464
0.00045198865
0.00044595563
0.00048883714
0.00052987925
0.00050530216
0.00042232843
0.00033777709
0.00030848466
0.00034325862
0.00039692365
0.00042229781
0.00036133443
0.00023073752
0.0001178568
5.8927018e-05
3.0436268e-05
1.187087e-05
2.5492177e-06
3.0155632e-07
2.5096865e-08
1.8546737e-09
0.00045185495
0.00040625646
0.00039939286
0.00040791621
0.00037145094
0.00024462923
9.9782947e-05
2.4550077e-05
3.5657963e-06
4.1610144e-07
8.5259778e-08
1.7047353e-08
2.745062e-09
4.4384077e-10
1.0979489e-10
3.8483369e-11
1.36008e-11
4.5864636e-12
1.4594057e-12
4.2928292e-13
1.1638792e-13
2.901643e-14
6.6383128e-15
1.3908582e-15
2.6628148e-16
4.6452354e-17
7.356922e-18
1.0527934e-18
3.5286841e-21
4.3318122e-24
1.5787289e-27
1.3121316e-31
2.2935774e-36
1.1496821e-41
2.4570085e-47
3.1700181e-53
3.7305276e-59
4.4218221e-65
3.0131782e-71
0.00042573294
0.00047045932
0.00047176433
0.00045147683
0.00045587548
0.00049821928
0.00052812621
0.00049098691
0.00039739047
0.00030315424
0.0002655501
0.00029285312
0.00034543705
0.00035015785
0.00026405024
0.0001382488
5.4879425e-05
2.1482547e-05
8.6230636e-06
2.4238492e-06
3.5250902e-07
2.7593474e-08
1.5721578e-09
8.7253985e-11
0.00038245189
0.00038474017
0.00041131707
0.00040204684
0.00030044148
0.00014559041
4.4389441e-05
8.8483235e-06
1.7779167e-06
6.8567502e-07
2.2331232e-07
5.0654731e-08
7.8442058e-09
8.1094561e-10
1.3627805e-10
4.4207271e-11
1.5118649e-11
4.9879029e-12
1.5439684e-12
4.42581e-13
1.1717568e-13
2.8593709e-14
6.41975e-15
1.323743e-15
2.5014764e-16
4.3200398e-17
6.7932187e-18
2.9121715e-20
4.7122889e-23
2.3379971e-26
2.7089852e-30
6.5216618e-35
4.2882739e-40
1.154897e-45
1.7247439e-51
2.0776093e-57
3.0304394e-63
4.0054428e-69
2.7131171e-75
0.00035595413
0.00039485664
0.00044188043
0.00045527817
0.00044999891
0.00046337792
0.00050348824
0.00052161544
0.00047233857
0.00036758159
0.00026478714
0.00022016998
0.00024392096
0.00028007575
0.00025780973
0.00016297329
6.4781671e-05
1.8894232e-05
5.6408991e-06
1.7113632e-06
3.3951405e-07
3.3208498e-08
1.7441821e-09
6.9833684e-11
3.0819539e-12
0.00036788709
0.00041201573
0.00042811954
0.00035368621
0.00019813504
7.2265469e-05
1.8651922e-05
5.5316448e-06
3.3178854e-06
1.8247037e-06
6.2342374e-07
1.4173487e-07
1.6743071e-08
1.1141777e-09
1.4884569e-10
4.7357705e-11
1.5863422e-11
5.1287222e-12
1.5458343e-12
4.323051e-13
1.1191649e-13
2.6773893e-14
5.9100632e-15
1.2018142e-15
2.2467219e-16
3.8505764e-17
2.0887313e-19
4.4062247e-22
2.9434186e-25
4.7093779e-29
1.5532311e-33
1.3294448e-38
4.4813505e-44
7.9561727e-50
9.9516739e-56
1.4759694e-61
2.6489101e-67
3.6185261e-73
2.3913289e-79
0.00034984956
0.00032738861
0.00036131787
0.00041139688
0.00043797608
0.00044665665
0.00046736268
0.00050368243
0.00051030154
0.00044785354
0.00033269804
0.00022190901
0.00017344666
0.00018689202
0.00020155477
0.00016038062
7.8912698e-05
2.222281e-05