/*--------------------------------*- C++ -*----------------------------------*\
| =========                 |                                                 |
| \\      /  F ield         | OpenFOAM: The Open Source CFD Toolbox           |
|  \\    /   O peration     | Version:  5.0                                   |
|   \\  /    A nd           | Web:      www.OpenFOAM.org                      |
|    \\/     M anipulation  |                                                 |
\*---------------------------------------------------------------------------*/
FoamFile
{
    version     2.0;
    format      ascii;
    class       volScalarField;
    location    "140";
    object      nuTilda_0;
}
// * * * * * * * * * * * * * * * * * * * * * * * * * * * * * * * * * * * * * //

dimensions      [0 2 -1 0 0 0 0];

internalField   nonuniform List<scalar> 
9520
(
4.8877684e-33
5.1574448e-31
4.6329664e-33
2.6678569e-29
4.8894509e-31
4.4014759e-33
8.9866406e-28
2.5288361e-29
4.6493351e-31
4.2088138e-33
2.2184624e-26
8.5159218e-28
2.4061467e-29
4.4531167e-31
4.0593805e-33
4.2861701e-25
2.1014431e-26
8.1068281e-28
2.3076926e-29
4.3043688e-31
3.9489986e-33
6.7581615e-24
4.0583588e-25
2.0013119e-26
7.7842302e-28
2.2345639e-29
4.1963192e-31
3.8646693e-33
8.9465411e-23
6.3972251e-24
3.866523e-25
1.923639e-26
7.5488463e-28
2.1819361e-29
4.1119375e-31
3.7885885e-33
1.0146771e-21
8.4676441e-23
6.0986856e-24
3.7200454e-25
1.8677781e-26
7.3798894e-28
2.1393758e-29
4.0299558e-31
3.7020772e-33
1.0010927e-20
9.6039718e-22
8.0791318e-23
5.8746844e-24
3.6158568e-25
1.8275055e-26
7.2371542e-28
2.0949384e-29
3.9310411e-31
3.5933331e-33
8.7144791e-20
9.4769364e-21
9.1722983e-22
7.7930357e-23
5.7171075e-24
3.5398415e-25
1.7917921e-26
7.0782805e-28
2.0392544e-29
3.8068706e-31
3.4649666e-33
6.9380121e-19
8.2443545e-20
9.0605396e-21
8.8600572e-22
7.594224e-23
5.6002895e-24
3.4687954e-25
1.7499394e-26
6.8749659e-28
1.9704835e-29
3.6666804e-31
3.3372972e-33
6.4078606e-18
6.4786706e-19
7.8858061e-20
8.7634378e-21
8.6460054e-22
7.4444163e-23
5.484783e-24
3.3821107e-25
1.6959996e-26
6.6299772e-28
1.8966659e-29
3.537725e-31
3.2429425e-33
1.3711657e-16
5.3254378e-18
6.1535719e-19
7.6320854e-20
8.5630011e-21
8.4828243e-22
7.2877971e-23
5.3387822e-24
3.2707873e-25
1.6329019e-26
6.3808326e-28
1.8342814e-29
3.4561287e-31
3.212983e-33
5.405038e-15
8.5116679e-17
4.6928306e-18
5.932196e-19
7.4654376e-20
8.4106245e-21
8.3032463e-22
7.0833513e-23
5.1527841e-24
3.1449176e-25
1.5721965e-26
6.1889268e-28
1.801967e-29
3.450258e-31
3.2602729e-33
2.0079419e-13
3.0614778e-15
5.6552079e-17
4.320499e-18
5.7976157e-19
7.3434635e-20
8.2353144e-21
8.0607725e-22
6.8252551e-23
4.9500955e-24
3.0306132e-25
1.5299269e-26
6.1138449e-28
1.8112804e-29
3.5239407e-31
3.3683936e-33
6.0092073e-12
1.1851368e-13
1.7374395e-15
4.0571371e-17
4.1314178e-18
5.7109655e-19
7.1973934e-20
7.9878607e-21
7.7563857e-22
6.5546219e-23
4.7772063e-24
2.9594437e-25
1.5193543e-26
6.1817097e-28
1.8588455e-29
3.6484455e-31
3.4926821e-33
1.4106622e-10
3.8205449e-12
6.8869302e-14
9.6881027e-16
3.320589e-17
4.0472934e-18
5.6062274e-19
6.9771423e-20
7.6765272e-21
7.4491664e-22
6.3393551e-23
4.6831613e-24
2.9530596e-25
1.5433746e-26
6.3629593e-28
1.9243061e-29
3.7684233e-31
3.5737705e-33
2.5777268e-09
9.7825504e-11
2.3491575e-12
3.7967744e-14
6.3000641e-16
3.0985745e-17
3.9765958e-18
5.4324928e-19
6.6959422e-20
7.3737119e-21
7.2231065e-22
6.2414275e-23
4.6940584e-24
3.0096742e-25
1.5903957e-26
6.572992e-28
1.9759123e-29
3.8200423e-31
3.5581207e-33
3.5436779e-08
1.9412988e-09
6.4015416e-11
1.3552185e-12
2.5274462e-14
5.7270189e-16
3.0672698e-17
3.8484171e-18
5.2029925e-19
6.4314493e-20
7.169772e-21
7.1431774e-22
6.2827167e-23
4.7945721e-24
3.0992156e-25
1.6364195e-26
6.6986712e-28
1.981617e-29
3.7538269e-31
3.4174266e-33
3.5348705e-07
2.8485378e-08
1.3438087e-09
3.8975977e-11
9.9356657e-13
2.6032233e-14
6.2668657e-16
2.9522839e-17
3.6635229e-18
4.9928135e-19
6.270583e-20
7.1219611e-21
7.2178691e-22
6.4256288e-23
4.9259489e-24
3.1710718e-25
1.6531904e-26
6.640078e-28
1.9209387e-29
3.5532973e-31
3.1599258e-33
2.4836118e-06
2.9812935e-07
2.0779757e-08
8.8170791e-10
3.1393877e-11
1.1569549e-12
3.1892204e-14
6.091625e-16
2.6648242e-17
3.4943284e-18
4.8789418e-19
6.2564284e-20
7.22066e-21
7.3845193e-22
6.5786499e-23
5.0041371e-24
3.1723655e-25
1.6190815e-26
6.3490709e-28
1.7930381e-29
3.2429461e-31
2.8302002e-33
1.226344e-05
2.1754323e-06
2.2727846e-07
1.4618771e-08
7.6846202e-10
3.9339273e-11
1.5044991e-12
3.162049e-14
4.4827546e-16
2.3711927e-17
3.4113692e-18
4.8895992e-19
6.3631612e-20
7.383591e-21
7.5256962e-22
6.6279978e-23
4.9517697e-24
3.0691034e-25
1.5278687e-26
5.8497499e-28
1.6184495e-29
2.8833985e-31
2.4981971e-33
4.2630372e-05
1.1056303e-05
1.7327825e-06
1.7015937e-07
1.3419447e-08
9.7380695e-10
5.2514388e-11
1.4997927e-12
2.0978659e-14
2.7234719e-16
2.2169803e-17
3.431195e-18
4.9895184e-19
6.5000006e-20
7.4829967e-21
7.5133436e-22
6.4829466e-23
4.7303243e-24
2.8608262e-25
1.3919159e-26
5.235679e-28
1.4342833e-29
2.5560267e-31
2.2415496e-33
0.00010704287
3.9218023e-05
9.1325916e-06
1.3668433e-06
1.6207166e-07
1.6878625e-08
1.2978456e-09
5.2115174e-11
9.6028738e-13
9.593246e-15
1.7683601e-16
2.1994565e-17
3.5143901e-18
5.0910742e-19
6.5459337e-20
7.39726e-21
7.2619551e-22
6.1151479e-23
4.358299e-24
2.582868e-25
1.2394291e-26
4.6464942e-28
1.2847277e-29
2.342357e-31
2.1267262e-33
0.0002059981
9.9913715e-05
3.3423354e-05
7.5180693e-06
1.3328984e-06
2.0091301e-07
2.2147742e-08
1.2746932e-09
3.259803e-11
4.0509397e-13
3.7577471e-15
1.4455568e-16
2.2511976e-17
3.5833968e-18
5.0919206e-19
6.4023845e-20
7.0634415e-21
6.7673335e-22
5.5747929e-23
3.9082273e-24
2.297337e-25
1.1071688e-26
4.2319836e-28
1.2098787e-29
2.3043432e-31
2.1938766e-33
0.0003264013
0.00019455386
8.7347016e-05
2.8501072e-05
7.4461013e-06
1.6207882e-06
2.5692641e-07
2.1491069e-08
7.884874e-10
1.3232539e-11
1.3826812e-13
1.8089403e-15
1.3965119e-16
2.292951e-17
3.5583788e-18
4.9233056e-19
6.0374481e-20
6.5071664e-21
6.1145382e-22
4.9778704e-23
3.4870063e-24
2.0767868e-25
1.0309377e-26
4.1142676e-28
1.2359695e-29
2.4701563e-31
2.4482315e-33
0.00044573765
0.00031118241
0.00017358698
7.6551835e-05
2.8507056e-05
8.8716396e-06
2.0106227e-06
2.4601893e-07
1.3314755e-08
3.2073944e-10
4.4152797e-12
5.8326675e-14
1.4175482e-15
1.4096667e-16
2.2594773e-17
3.3976917e-18
4.5820325e-19
5.5015408e-20
5.8386339e-21
5.4537798e-22
4.4738085e-23
3.2074941e-24
1.9853418e-25
1.0364818e-26
4.3576803e-28
1.3691554e-29
2.8277913e-31
2.8588482e-33
0.00054785158
0.00042484359
0.00028028245
0.00015464702
7.7019824e-05
3.3273059e-05
1.06336e-05
1.9021567e-06
1.5435327e-07
5.6509441e-09
1.1667726e-10
2.1349099e-12
5.0363967e-14
1.4812328e-15
1.3714353e-16
2.1266329e-17
3.1175567e-18
4.1312397e-19
4.9118682e-20
5.219882e-21
4.9581127e-22
4.2056169e-23
3.1589659e-24
2.0621729e-25
1.1329695e-26
4.9524514e-28
1.5937627e-29
3.3268164e-31
3.3640863e-33
0.00063559528
0.0005217283
0.00038467758
0.00025113354
0.00015543756
8.8138872e-05
3.8525453e-05
9.9431561e-06
1.2193693e-06
6.9606977e-08
2.2933655e-09
6.5740466e-11
2.3667151e-12
6.2973603e-14
1.415797e-15
1.2502119e-16
1.9195973e-17
2.7810375e-18
3.677166e-19
4.4169142e-20
4.8194095e-21
4.7773338e-22
4.2721923e-23
3.3835596e-24
2.3110595e-25
1.3102648e-26
5.8143757e-28
1.8749485e-29
3.8873249e-31
3.8825197e-33
0.00071298174
0.00060445097
0.00047429926
0.00034780344
0.00025087764
0.00017460359
9.8855914e-05
3.5674745e-05
6.5575868e-06
5.8963914e-07
3.1706592e-08
1.4972524e-09
8.4958141e-11
3.2982735e-12
6.200824e-14
1.054975e-15
1.0894119e-16
1.6927569e-17
2.4721075e-18
3.3370244e-19
4.1559147e-20
4.7676798e-21
4.9980816e-22
4.7012064e-23
3.8638843e-24
2.6979153e-25
1.5403428e-26
6.799883e-28
2.1651202e-29
4.4144671e-31
4.3275417e-33
0.00077951903
0.00067702531
0.00055095165
0.00043202066
0.00034675551
0.000277209
0.00019089442
9.1069154e-05
2.4371407e-05
3.4226244e-06
3.0319782e-07
2.3963501e-08
2.1051696e-09
1.2385768e-10
3.3266071e-12
3.7341108e-14
6.9236627e-16
9.4098445e-17
1.5047496e-17
2.2711117e-18
3.208767e-19
4.2228775e-20
5.1217492e-21
5.6184383e-22
5.4384701e-23
4.5240965e-24
3.1566481e-25
1.7825642e-26
7.7336399e-28
2.4129034e-29
4.8161735e-31
4.6232118e-33
0.00083327961
0.00073825502
0.00061930091
0.00050423308
0.00042988327
0.00037779775
0.00029850524
0.00017624495
6.4803395e-05
1.3805271e-05
1.9953347e-06
2.6237547e-07
3.5061427e-08
3.1166534e-09
1.262038e-10
1.9602441e-12
1.3765024e-14
5.0417328e-16
8.3551861e-17
1.4032204e-17
2.236322e-18
3.3468531e-19
4.6402802e-20
5.8461588e-21
6.5428711e-22
6.3561021e-23
5.2443341e-24
3.6023173e-25
1.9917908e-26
8.4429844e-28
2.5730721e-29
5.0206548e-31
4.7181621e-33
0.00087451714
0.0007875719
0.00067703286
0.00056946591
0.00049992079
0.00046172722
0.00039997373
0.00027628495
0.00013074729
3.9868758e-05
9.1202574e-06
1.9390572e-06
3.883555e-07
5.1701095e-08
3.1848101e-09
7.4841354e-11
6.4447566e-13
4.3781857e-15
4.2915127e-16
7.9237893e-17
1.4166143e-17
2.3907352e-18
3.7461352e-19
5.3481418e-20
6.8153441e-21
7.5993398e-22
7.2782564e-23
5.8855937e-24
3.9488226e-25
2.127631e-26
8.792332e-28
2.6154252e-29
4.9897428e-31
4.5943521e-33
0.00090443494
0.00082507349
0.00072432669
0.00062568637
0.00056177831
0.00052951528
0.00048064571
0.00036962641
0.0002119701
8.6702894e-05
2.9533415e-05
9.7185967e-06
2.8585544e-06
5.623741e-07
5.2717439e-08
1.913885e-09
2.4773332e-11
1.3295747e-13
2.2886212e-15
4.1191661e-16
8.2069536e-17
1.5489763e-17
2.7143639e-18
4.3381294e-19
6.2128039e-20
7.8382917e-21
8.5756645e-22
8.018786e-23
6.3180234e-24
4.1264224e-25
2.1628461e-26
8.7100915e-28
2.5302709e-29
4.7247851e-31
4.2685065e-33
0.00092352048
0.00085212889
0.00076122978
0.00067282774
0.00061511329
0.00058673575
0.00054389473
0.00044455654
0.00029194319
0.00014968256
7.0282223e-05
3.3558706e-05
1.409172e-05
4.0177759e-06
5.6999916e-07
3.2292354e-08
6.5461671e-10
5.207414e-12
2.765494e-14
2.0149365e-15
4.3752983e-16
9.1595654e-17
1.7771877e-17
3.1448329e-18
5.0030631e-19
7.0550107e-20
8.7006223e-21
9.2628097e-22
8.413872e-23
6.4446894e-24
4.0939679e-25
2.0880204e-26
8.200444e-28
2.3291767e-29
4.2634404e-31
3.7858959e-33
0.00093349936
0.00086963753
0.00078904609
0.00071100787
0.00065987697
0.00063470935
0.00059512771
0.00050367402
0.00036045975
0.00021759364
0.0001294099
8.2624976e-05
4.7354401e-05
1.9045625e-05
4.0335948e-06
3.5787787e-07
1.1603106e-08
1.5196561e-10
9.5567722e-13
1.1520855e-14
2.1648582e-15
4.9758454e-16
1.0586813e-16
2.0530122e-17
3.5895513e-18
5.5965596e-19
7.691056e-20
9.2057218e-21
9.4988459e-22
8.3694587e-23
6.2303488e-24
3.8504762e-25
1.9129446e-26
7.3371954e-28
2.0408573e-29
3.668681e-31
3.2087679e-33
0.00093660129
0.00087948674
0.00080871219
0.00074139511
0.00069622837
0.00067398873
0.00063687528
0.00055300338
0.00041667512
0.00028056593
0.00019629522
0.00015389568
0.00011259982
6.1184544e-05
1.8894584e-05
2.6085057e-06
1.3703865e-07
3.0141607e-09
3.0910605e-11
1.8452294e-13
1.0338305e-14
2.5031575e-15
5.7814585e-16
1.2162472e-16
2.313423e-17
3.9477124e-18
5.9841445e-19
7.9665477e-20
9.2250112e-21
9.2160236e-22
7.8772815e-23
5.7028529e-24
3.4320014e-25
1.6633963e-26
6.2421684e-28
1.7035994e-29
3.0140869e-31
2.6028354e-33
0.00093401603
0.00088426274
0.00082191955
0.00076467315
0.00072559296
0.0007049844
0.00066995231
0.00059296177
0.00046797135
0.00033451487
0.00025963287
0.00023268541
0.00020204416
0.00013909943
5.9996351e-05
1.2644803e-05
1.0780369e-06
3.9752811e-08
6.8660149e-10
5.7755198e-12
6.8295682e-14
1.1909004e-14
2.9220674e-15
6.5924257e-16
1.3503651e-16
2.4968092e-17
4.1353211e-18
6.0653428e-19
7.7995759e-20
8.7314748e-21
8.4474875e-22
7.0108339e-23
4.9420695e-24
2.9001254e-25
1.3739192e-26
5.0552336e-28
1.3568684e-29
2.3689174e-31
2.025525e-33
0.00092824965
0.00088581509
0.00083248605
0.00078189214
0.00074825776
0.00072918398
0.00069488043
0.00062501091
0.00051129127
0.00038514344
0.0003148004
0.00030368247
0.00029487067
0.00023916201
0.00013522065
4.1748983e-05
5.6801592e-06
3.4646183e-07
1.0067813e-08
1.4403725e-10
1.4066983e-12
6.7989676e-14
1.4033751e-14
3.3039928e-15
7.1976417e-16
1.4278527e-16
2.5589183e-17
4.0999193e-18
5.8004625e-19
7.2019038e-20
7.797261e-21
7.3125899e-22
5.9016596e-23
4.0573171e-24
2.3260573e-25
1.0797511e-26
3.9056089e-28
1.0340723e-29
1.7874248e-31
1.5186546e-33
0.00088686459
0.00092671808
0.00084239799
0.00079551164
0.00076475229
0.00074661309
0.00071277092
0.00064933565
0.00054795476
0.00043021141
0.00036257958
0.0003617109
0.00037259469
0.00033636749
0.00023077605
9.816157e-05
2.0420694e-05
2.0096334e-06
9.7112751e-08
2.4395252e-09
4.4031817e-11
1.4184796e-12
9.0849465e-14
1.57911e-14
3.5400206e-15
7.4411604e-16
1.4294111e-16
2.4804642e-17
3.8293842e-18
5.2249403e-19
6.2669468e-20
6.5688058e-21
5.9813653e-22
4.7040757e-23
3.1609847e-24
1.7752436e-25
8.1021852e-27
2.8916558e-28
7.5845362e-30
1.3040569e-31
1.1063156e-33
0.00085033592
0.00089099343
0.00092725881
0.00080613889
0.00077663806
0.00075797721
0.00072398085
0.0006668994
0.0005783696
0.00046965948
0.00040463867
0.00040782062
0.0004301634
0.00041348204
0.0003218956
0.00017453218
5.2202984e-05
7.9110005e-06
6.2489823e-07
2.8075753e-08
1.0741674e-09
5.948207e-11
2.6741317e-12
1.1050812e-13
1.6498306e-14
3.5674854e-15
7.2633338e-16
1.3530348e-16
2.2624302e-17
3.3650991e-18
4.4310101e-19
5.1403624e-20
5.2255526e-21
4.6313401e-22
3.5604727e-23
2.3466476e-24
1.2967992e-25
5.8506603e-27
2.0729495e-28
5.4236957e-30
9.3435116e-32
7.9716292e-34
0.00081284914
0.00085781111
0.00089240814
0.00092348662
0.0007843091
0.00076429959
0.00072956235
0.0006783672
0.00060316927
0.00050394625
0.00044141109
0.00044458212
0.00047150026
0.00046498432
0.00039218478
0.00025147477
0.00010038309
2.210245e-05
2.763111e-06
2.2629373e-07
1.8209875e-08
1.7917274e-09
1.2189607e-10
3.7929086e-12
1.0509166e-13
1.6009572e-14
3.3844639e-15
6.7014781e-16
1.204938e-16
1.9395969e-17
2.7818451e-18
3.5402358e-19
3.9809865e-20
3.9371715e-21
3.4110692e-22
2.5774807e-23
1.6771886e-24
9.1974065e-26
4.1427406e-27
1.4737664e-28
3.8926877e-30
6.7977856e-32
5.8930076e-34
0.00078648844
0.00081602314
0.00086314506
0.00088860133
0.00091534994
0.00076599715
0.00073036544
0.00068489055
0.00062288225
0.00053364409
0.00047344898
0.00047560569
0.00050198285
0.00049858765
0.00043970971
0.00031504486
0.00015541888
4.6499494e-05
8.8830387e-06
1.3217318e-06
2.0895466e-07
3.4017074e-08
3.6555548e-09
1.7572701e-10
3.266291e-12
8.1304619e-14
1.462377e-14
3.0359755e-15
5.8238647e-16
1.0078206e-16
1.5635548e-17
2.1665602e-18
2.6726774e-19
2.925892e-20
2.8328807e-21
2.4202735e-22
1.817758e-23
1.184071e-24
6.5536572e-26
3.0029519e-27
1.0938671e-28
2.970954e-30
5.3410371e-32
4.757504e-34
0.00076238767
0.00078155278
0.00082114497
0.00086325885
0.00087983251
0.00090092506
0.00072718892
0.0006878782
0.00063835245
0.00055908384
0.0005013727
0.00050162686
0.00052633172
0.00052373949
0.00047276992
0.00036308411
0.00020755231
7.9119995e-05
2.2057403e-05
5.7435988e-06
1.6065677e-06
4.0647107e-07
6.7294885e-08
5.1986572e-09
1.5218333e-10
1.6017249e-12
6.1785852e-14
1.2687695e-14
2.5713734e-15
4.7524136e-16
7.9262397e-17
1.1883811e-17
1.5977623e-18
1.9231972e-19
2.0699031e-20
1.9899119e-21
1.7088128e-22
1.3059109e-23
8.7505004e-25
5.0342432e-26
2.4128554e-27
9.2152799e-29
2.6178683e-30
4.8919216e-32
4.4902514e-34
0.00072098839
0.00075206458
0.00077960965
0.00082363607
0.00085774341
0.00086470175
0.00087751672
0.00068856937
0.0006507961
0.00058065507
0.00052544519
0.00052365763
0.00054502362
0.00054185415
0.00049734725
0.00040431887
0.00025241258
0.00011588899
4.4556176e-05
1.8624269e-05
8.3016431e-06
3.0992499e-06
7.6760641e-07
9.3509141e-08
4.5512284e-09
7.3266283e-11
5.1537094e-13
4.9628745e-14
1.0444549e-14
2.0468143e-15
3.6491437e-16
5.8894639e-17
8.5897156e-18
1.1322898e-18
1.3511265e-19
1.4628254e-20
1.4400129e-21
1.2898156e-22
1.0428049e-23
7.4562309e-25
4.5901219e-26
2.34327e-27
9.4459307e-29
2.7991413e-30
5.3899782e-32
5.0397925e-34
0.00068904468
0.0007124094
0.00074324699
0.00077643925
0.00082164454
0.00084577151
0.00084081425
0.00084399504
0.00065999013
0.0005995244
0.00054608558
0.00054187317
0.00055977742
0.00055376583
0.00051432114
0.00043680882
0.00030278599
0.00015284967
7.5425594e-05
4.5358384e-05
2.9181693e-05
1.5384396e-05
5.5162942e-06
1.0351269e-06
8.2439422e-08
2.3043774e-09
1.8804365e-11
2.1182154e-13
3.9373916e-14
8.1032374e-15
1.5359568e-15
2.6577814e-16
4.1941669e-17
6.0507214e-18
8.0211193e-19
9.8341832e-20
1.1206442e-20
1.1869115e-21
1.1587288e-22
1.0213781e-23
7.896617e-25
5.1834324e-26
2.7765047e-27
1.1570465e-28
3.5002976e-30
6.8124063e-32
6.3876855e-34
0.00066974274
0.00068638977
0.00070167349
0.00073145945
0.00077134902
0.00081380809
0.00082556217
0.00080744504
0.00079997849
0.00061558015
0.00056364952
0.00055669361
0.00057037015
0.0005610689
0.00052452825
0.00046149385
0.00034600981
0.00019733826
0.00011121188
8.5175804e-05
7.216694e-05
5.0978885e-05
2.5530429e-05
7.1731823e-06
9.166392e-07
4.3957254e-08
6.5035271e-10
3.0474602e-12
1.4156134e-13
2.970031e-14
5.9503461e-15
1.1008759e-15
1.8795248e-16
2.9773789e-17
4.4167885e-18
6.196758e-19
8.2651042e-20
1.0429373e-20
1.2257276e-21
1.3102864e-22
1.2384521e-23
1.0060477e-24
6.8133743e-26
3.7146949e-27
1.5604611e-28
4.7269401e-30
9.1697183e-32
8.5419593e-34
0.00062974763
0.00067416198
0.00067977473
0.00068825481
0.00071766126
0.00076194533
0.00079879089
0.0007962093
0.00076455745
0.00074449447
0.00057808959
0.0005685156
0.00057760208
0.00056394876
0.00052924041
0.00047920225
0.00038311724
0.00024127141
0.00014762045
0.00013187583
0.00013280134
0.00011767128
7.8271165e-05
3.1831468e-05
6.3733342e-06
5.1462011e-07
1.3861443e-08
1.093988e-10
7.253825e-13
1.0183019e-13
2.1368169e-14
4.2209049e-15
7.8188635e-16
1.3703626e-16
2.3013377e-17
3.7391376e-18
5.874559e-19
8.8014911e-20
1.2285257e-20
1.5569486e-21
1.7480895e-22
1.6995823e-23
1.3998805e-24
9.513968e-26
5.1747168e-27
2.1609793e-28
6.49448e-30
1.248568e-31
1.1519237e-33
0.00058978006
0.00064032498
0.00067396235
0.00066927673
0.00067150202
0.00070033306
0.00074673654
0.0007754522
0.00075772065
0.00071108258
0.00067784415
0.00057716201
0.00058158592
0.00056330008
0.00052950787
0.00049100827
0.00041428349
0.00028279689
0.00018513123
0.00017228052
0.00019813107
0.00020227953
0.0001669125
9.3350652e-05
2.8395368e-05
3.7768824e-06
1.8092142e-07
2.7693138e-09
1.6022179e-11
3.5193939e-13
7.1725334e-14
1.5118446e-14
3.0573024e-15
5.9941185e-16
1.1537714e-16
2.1868332e-17
4.032343e-18
7.0685538e-19
1.1473382e-19
1.6838555e-20
2.1910062e-21
2.4848554e-22
2.4165231e-23
1.9790283e-24
1.3326929e-25
7.1730544e-27
2.9632533e-28
8.8114577e-30
1.6768495e-31
1.5321366e-33
0.00058266653
0.0005985636
0.00064706757
0.0006695604
0.00065469442
0.00065128924
0.00067889594
0.00072492529
0.00074332204
0.00070881187
0.0006474253
0.00060087408
0.00058225878
0.00055922145
0.00052630466
0.00049822987
0.00043966268
0.00032122596
0.00022176372
0.00020859582
0.0002522236
0.00028315007
0.00026684752
0.00019105827
8.3993648e-05
1.7843374e-05
1.4815838e-06
4.2757821e-08
4.6065677e-10
2.6861154e-12
2.2895485e-13
5.110066e-14
1.1381034e-14
2.5264319e-15
5.6184984e-16
1.2392509e-16
2.646466e-17
5.3204163e-18
9.8290509e-19
1.6371261e-19
2.42202e-20
3.1430159e-21
3.5342672e-22
3.3986901e-23
2.7474165e-24
1.8259333e-25
9.7055242e-27
3.9631847e-28
1.1660998e-29
2.1980925e-31
1.9912148e-33
0.00057938648
0.00058478312
0.00060481218
0.0006500625
0.00066090284
0.00063646302
0.00062684991
0.00065355932
0.0006953915
0.00070110057
0.00064970266
0.00057448343
0.00051697431
0.00055191772
0.00052034115
0.0005022928
0.00045984203
0.00035619751
0.00025665319
0.00024184215
0.0002911273
0.00034647452
0.00035004537
0.00029432242
0.00017459994
5.6338731e-05
7.8339363e-06
4.1078234e-07
8.4124721e-09
6.7158511e-11
8.5060465e-13
1.6486955e-13
4.0803973e-14
1.0350149e-14
2.6582182e-15
6.7414705e-16
1.6368933e-16
3.7027543e-17
7.6490769e-18
1.4232958e-18
2.3597874e-19
3.4534295e-20
4.4200008e-21
4.8973689e-22
4.6411606e-23
3.696804e-24
2.4238394e-25
1.2727501e-26
5.1413269e-28
1.4985103e-29
2.8015967e-31
1.6080102e-35
0.0005414043
0.00057231256
0.00058330768
0.0006090757
0.0006491425
0.00064832592
0.00061384562
0.00059777076
0.00062201111
0.00065665998
0.0006486783
0.00058125327
0.00049410325
0.00041999369
0.00051230112
0.00050407921
0.00047620996
0.0003873665
0.00028960219
0.00027196344
0.00032414965
0.00038566979
0.00040899243
0.00037270314
0.00027354298
0.0001257315
2.7731972e-05
2.5336739e-06
9.4618084e-08
1.4115822e-09
9.7055991e-12
5.2564284e-13
1.4208538e-13
4.1286503e-14
1.2134285e-14
3.4785578e-15
9.4276672e-16
2.3615172e-16
5.3841331e-17
1.1060832e-17
2.0323155e-18
3.31632e-19
4.7714254e-20
6.0047838e-21
6.5477035e-22
6.1121785e-23
4.7997498e-24
3.1076284e-25
1.6139997e-26
6.4587169e-28
1.867555e-29
2.516403e-33
5.9079305e-38
0.00050256496
0.00052757315
0.00056087344
0.00057971774
0.00061082784
0.00064406309
0.00063133928
0.00058646613
0.00056352889
0.00058269353
0.00060853135
0.00058634147
0.00050306464
0.00040070652
0.00030905267
0.0005044488
0.00048965042
0.00041515696
0.00032052427
0.00029956257
0.00035173255
0.0004178147
0.00044615527
0.00042259738
0.00035012111
0.00021200296
6.9364308e-05
1.0381183e-05
6.7598107e-07
1.8424051e-08
2.0556692e-10
2.335537e-12
4.8312622e-13
1.596872e-13
5.2929662e-14
1.6854943e-14
5.0199715e-15
1.3748214e-15
3.4246886e-16
7.7005561e-17
1.5542316e-17
2.8018574e-18
4.4858404e-19
6.3375871e-20
7.8417381e-21
8.4199508e-22
7.7475479e-23
6.0059171e-24
3.8455871e-25
1.978597e-26
7.8563938e-28
1.8716414e-31
1.0428764e-35
8.8920015e-41
0.00050315143
0.00049063257
0.00051074669
0.00054735688
0.00057448496
0.00060902941
0.00063451861
0.00060939732
0.00055410705
0.00052278788
0.00053506351
0.00055036066
0.00051217251
0.00041071774
0.00029352224
0.00019571692
0.00050249162
0.00043961833
0.00034942341
0.00032499681
0.00037562909
0.00044290067
0.00047432093
0.00045505403
0.00039648607
0.00028941046
0.00013103612
2.975455e-05
3.1752664e-06
1.5106193e-07
3.0588446e-09
2.8882919e-11
1.6612758e-12
5.9464031e-13
2.1874803e-13
7.6210147e-14
2.4636675e-14
7.3047919e-15
1.9716108e-15
4.8175521e-16
1.0607585e-16
2.096275e-17
3.7026834e-18
5.815335e-19
8.0719619e-20
9.8295599e-21
1.0406274e-21
9.4496218e-23
7.2432404e-24
4.5944495e-25
2.3459196e-26
8.8030742e-30
8.7968626e-34
1.7687001e-38
5.1990869e-44
0.00051338036
0.0004994103
0.00047624587
0.00049137601
0.00053225703
0.00056633824
0.00060291201
0.00061966348
0.00058260247
0.0005155202
0.00047474043
0.00047835308
0.00048139627
0.00042308084
0.00030235036
0.00018617393
0.00010160207
0.00046232223
0.00037633363
0.00034839369
0.00039634209
0.00046380489
0.00049490261
0.00047685192
0.00042739457
0.00034633093
0.00019906251
6.3508233e-05
1.0331094e-05
8.0570455e-07
2.8563776e-08
4.4285306e-10
7.6222511e-12
2.1214224e-12
8.5176073e-13
3.2070472e-13
1.1143733e-13
3.5487756e-14
1.0306897e-14
2.7189641e-15
6.4909124e-16
1.3972559e-16
2.7027208e-17
4.6794191e-18
7.2160634e-19
9.8526707e-20
1.1824802e-20
1.2359336e-21
1.1095092e-22
8.4245164e-24
5.3036238e-25
2.9425159e-28
4.7054591e-32
1.7032711e-36
1.1210218e-41
1.4254557e-47
0.00048291434
0.00052069339
0.0004928703
0.00045958442
0.00046953031
0.00051349097
0.00055427575
0.00059146766
0.00059950467
0.00054946903
0.00047003937
0.00041908126
0.00041390604
0.00039835127
0.00031548175
0.00019297662
9.6257531e-05
4.0373997e-05
0.00040122821
0.00036981279
0.00041382808
0.00048074126
0.00051050894
0.0004900066
0.00044548731
0.00038471541
0.00026987837
0.00010779785
2.4732056e-05
2.9489628e-06
1.7180963e-07
4.6269653e-09
6.7645238e-11
7.3976342e-12
3.1186674e-12
1.2562386e-12
4.6549345e-13
1.5813275e-13
4.9116761e-14
1.3906892e-14
3.5782548e-15
8.3408718e-16
1.7557709e-16
3.3267129e-17
5.6520777e-18
8.5694536e-19
1.1527077e-19
1.3657716e-20
1.4114635e-21
1.2550339e-22
9.4583638e-24
7.4522106e-27
1.7915024e-30
1.0472954e-34
1.206212e-39
3.0548135e-45
2.4919172e-51
0.00042399431
0.00050040537
0.00052394877
0.00048375368
0.00044044527
0.0004446907
0.00049074979
0.00053711952
0.00057403876
0.00057275682
0.00050917837
0.00041679155
0.00035709418
0.00033743721
0.00029808023
0.00020250519
0.00010055666
3.7964866e-05
1.1482062e-05
0.00038898375
0.00042803501
0.00049315667
0.00052130766
0.00049660523
0.0004530282
0.00040701655
0.00032414494
0.00017136694
4.663288e-05
7.8653535e-06
7.022496e-07
3.1180214e-08
6.8024822e-10
2.8564505e-11
1.0789669e-11
4.5972139e-12
1.8018279e-12
6.4889391e-13
2.1429634e-13
6.4761453e-14
1.7860559e-14
4.4823875e-15
1.0207774e-15
2.1031828e-16
3.9081568e-17
6.5251723e-18
9.7426213e-19
1.2933298e-19
1.5156773e-20
1.5513434e-21
1.3690955e-22
1.4892612e-25
5.171968e-29
4.6013914e-33
8.4316591e-38
3.4402626e-43
4.8453466e-49
3.3927934e-55
0.00040599383
0.00044453599
0.00051378478
0.00052373153
0.00047189779
0.00041877851
0.00041666555
0.00046308176
0.00051395519
0.00054960814
0.00053838707
0.00045977075
0.00035496277
0.00028465781
0.00024771681
0.00019091382
0.00010689317
3.9950302e-05
1.0694017e-05
2.2595198e-06
0.00043850899
0.00050032518
0.00052659017
0.0004968478
0.00045209648
0.00041697076
0.00036277232
0.00023461877
8.7494555e-05
1.6330036e-05
2.0721486e-06
1.417097e-07
4.9853426e-09
1.4910964e-10
3.5960775e-11
1.588197e-11
6.5185902e-12
2.4642004e-12
8.6007989e-13
2.7589175e-13
8.111627e-14
2.1798901e-14
5.3400072e-15
1.1892824e-15
2.4013934e-16
4.3827142e-17
7.2030274e-18
1.0610419e-18
1.3927245e-19
1.6172775e-20
1.642821e-21
2.4152683e-24
1.1784214e-27
1.5366305e-31
4.2563506e-36
2.6011431e-41
5.2579099e-47
5.7062162e-53
3.8733998e-59
0.00044549468
0.00042086634
0.00046271213
0.00052320291
0.00052016139
0.00045738629
0.00039433345
0.00038495213
0.00043009945
0.00048397974
0.00051749477
0.00049525162
0.00039882539
0.00028124094
0.00020284265
0.00015505749
0.00010030513
4.3270144e-05
1.1359059e-05
2.0792861e-06
3.060989e-07
0.00050149096
0.00052493091
0.00049047753
0.00044385661
0.00041764961
0.00038700254
0.00029217767
0.00013762064
3.648849e-05
4.7020207e-06
4.6271854e-07
2.5633534e-08
9.8307793e-10
1.2903656e-10
5.2888806e-11
2.2415355e-11
8.7990157e-12
3.1957723e-12
1.0806001e-12
3.3686596e-13
9.6421777e-14
2.5270208e-14
6.0487106e-15
1.3190943e-15
2.6141135e-16
4.6936858e-17
7.6075729e-18
1.107833e-18
1.440891e-19
1.6610596e-20
3.245203e-23
2.1783993e-26
4.0557094e-30
1.6447625e-34
1.4495037e-39
4.0261773e-45
5.5172516e-51
5.7449421e-57
3.7354539e-63
0.0004966391
0.00044891835
0.00043414328
0.00047835634
0.00052885062
0.00051331955
0.00043973489
0.00036672871
0.00034939047
0.0003915016
0.00044663287
0.0004767361
0.00043888325
0.00032070753
0.00019796801
0.0001225625
7.8708781e-05
4.0695365e-05
1.2595848e-05
2.232824e-06
2.7622142e-07
2.8539855e-08
0.00051559773
0.00047716741
0.00042925642
0.00041116701
0.00040090436
0.00033864599
0.00019401687
6.5969426e-05
1.2591897e-05
1.1710329e-06
1.0366569e-07
7.7478309e-09
8.8335194e-10
2.0645225e-10
7.6065157e-11
3.0050236e-11
1.1204762e-11
3.9166681e-12
1.2857219e-12
3.898609e-13
1.0873124e-13
2.781966e-14
6.5146975e-15
1.3931963e-15
2.7142751e-16
4.8035156e-17
7.6936698e-18
1.1100034e-18
1.433933e-19
3.6703006e-22
3.3337118e-25
8.6908208e-29
5.0496679e-33
6.271468e-38
2.3447044e-43
3.9850966e-49
4.766075e-55
5.1455583e-61
3.4296989e-67
0.00049831987
0.00048600925
0.00045022413
0.00044627925
0.00049107294
0.00053061023
0.00050283747
0.00041849419
0.00033562367
0.00030987543
0.00034703038
0.00040073857
0.00042433089
0.00036063244
0.00022910917
0.00011718675
5.9158388e-05
3.0757505e-05
1.194154e-05
2.5428576e-06
2.9969641e-07
2.5021602e-08
1.863331e-09
0.00045724914
0.0004093589
0.00039942233
0.00040761476
0.00037460162
0.00025175053
0.00010483223
2.623447e-05
3.8106906e-06
3.9752089e-07
7.1909345e-08
1.355292e-08
2.1836532e-09
3.8254748e-10
1.0454632e-10
3.7565681e-11
1.3376774e-11
4.5340863e-12
1.4482885e-12
4.275456e-13
1.1630634e-13
2.9086466e-14
6.6733512e-15
1.4017997e-15
2.6898452e-16
4.7014544e-17
7.4576797e-18
1.0684892e-18
3.5387859e-21
4.2892004e-24
1.541879e-27
1.2637367e-31
2.1801696e-36
1.0804494e-41
2.2982851e-47
3.0289475e-53
3.75591e-59
4.5851011e-65
3.1353961e-71
0.00043129629
0.0004739983
0.00047178572
0.00045057236
0.00045669486
0.0005002913
0.00052841007
0.00048815928
0.00039325029
0.00030075168
0.00026670048
0.00029653004
0.00034921574
0.00035189229
0.00026331457
0.00013704683
5.4541344e-05
2.1603673e-05
8.7278242e-06
2.438103e-06
3.5120748e-07
2.7383726e-08
1.5668389e-09
8.7745786e-11
0.00038536463
0.00038398397
0.00040965037
0.00040356432
0.00030719639
0.00015208629
4.7116074e-05
9.3430132e-06
1.6797974e-06
5.7261057e-07
1.8066289e-07
4.0078032e-08
6.224789e-09
6.956656e-10
1.3102749e-10
4.3578464e-11
1.4998243e-11
4.9695648e-12
1.5442552e-12
4.4426578e-13
1.1801765e-13
2.8888474e-14
6.5041824e-15
1.3445074e-15
2.5462063e-16
4.4051793e-17
6.936835e-18
2.939225e-20
4.6967614e-23
2.2987543e-26
2.6264409e-30
6.2386442e-35
4.051806e-40
1.0811893e-45
1.6232104e-51
2.0380792e-57
3.1120283e-63
4.1677814e-69
2.8177679e-75
0.00035853346
0.00040034433
0.00044587
0.00045618293
0.00044992998
0.00046464256
0.00050538802
0.00052146504
0.00046914053
0.00036317585
0.00026220388
0.00022106299
0.00024746537
0.00028355205
0.00025907857
0.00016228491
6.4089383e-05
1.8777837e-05
5.6848438e-06
1.7343665e-06
3.4138663e-07
3.3039705e-08
1.7280846e-09
6.9588286e-11
3.1014635e-12
0.00036624465
0.00040892625
0.000427959
0.00035952848
0.00020580352
7.6221223e-05
1.9464896e-05
5.1901919e-06
2.8131398e-06
1.5196772e-06
5.0869113e-07
1.1488406e-07
1.3820959e-08
9.8345065e-10
1.4563405e-10
4.7134867e-11
1.5868117e-11
5.150598e-12
1.5584876e-12
4.3742745e-13
1.1362311e-13
2.7265587e-14
6.0351633e-15
1.2302068e-15
2.3044767e-16
3.9560088e-17
2.1216921e-19
4.4210032e-22
2.9137408e-25
4.5969524e-29
1.4956431e-33
1.2638072e-38
4.2117522e-44
7.4458138e-50
9.524462e-56
1.4881416e-61
2.7472163e-67
3.7643061e-73
2.4767736e-79
0.00034724565
0.00032944879
0.00036665662
0.00041588083
0.00043976469
0.00044740703
0.00046902983
0.00050541477
0.00050976119
0.00044431809
0.00032807475
0.00021939097
0.00017440374
0.00019008439
0.00020435041