/*--------------------------------*- C++ -*----------------------------------*\
| =========                 |                                                 |
| \\      /  F ield         | OpenFOAM: The Open Source CFD Toolbox           |
|  \\    /   O peration     | Version:  5.0                                   |
|   \\  /    A nd           | Web:      www.OpenFOAM.org                      |
|    \\/     M anipulation  |                                                 |
\*---------------------------------------------------------------------------*/
FoamFile
{
    version     2.0;
    format      ascii;
    class       volScalarField;
    location    "140";
    object      p;
}
// * * * * * * * * * * * * * * * * * * * * * * * * * * * * * * * * * * * * * //

dimensions      [0 2 -2 0 0 0 0];

internalField   nonuniform List<scalar> 
9520
(
5.8578252e-05
5.8582297e-05
8.2806646e-05
5.8339204e-05
8.3399024e-05
0.00013268488
5.7598273e-05
8.4153386e-05
0.00013398054
0.0001703481
5.608765e-05
8.4371124e-05
0.0001356933
0.0001728855
0.00021192158
5.3544039e-05
8.3529153e-05
0.00013665337
0.00017655569
0.00021626343
0.0002465124
4.9843809e-05
8.1105883e-05
0.00013576145
0.00017971013
0.00022297014
0.00025354162
0.00027932004
4.4957284e-05
7.6751091e-05
0.00013201354
0.00018068306
0.00022976211
0.00026498348
0.00028940286
0.00030522987
3.9231727e-05
7.0203284e-05
0.00012479158
0.0001779614
0.00023429391
0.00027792602
0.00030646353
0.00031882956
0.0003246016
3.3662239e-05
6.1593243e-05
0.00011382084
0.00017030643
0.00023431038
0.00028937673
0.00032709019
0.00034246548
0.00034241609
0.00033567892
3.042893e-05
5.1486124e-05
9.9635155e-05
0.0001566458
0.00022764068
0.000296452
0.00034789512
0.00037243932
0.0003739276
0.00035798069
0.00033703852
3.1425869e-05
4.3238152e-05
8.3220282e-05
0.00013641654
0.00021234566
0.00029647292
0.00036541196
0.00040509613
0.00041483888
0.00039801641
0.00036390873
0.00032690229
3.7030235e-05
4.1181143e-05
6.5103886e-05
0.00010820718
0.00018701766
0.00028686153
0.00037663682
0.00043652441
0.0004611078
0.00045099097
0.00041249576
0.00035831491
0.00030553704
4.7020626e-05
3.9167394e-05
3.823394e-05
6.9597829e-05
0.00014967498
0.00026447434
0.00037886801
0.00046322726
0.00050884321
0.00051256242
0.00047791923
0.00041537611
0.00034117981
0.00027305705
7.2320395e-05
3.7893566e-05
1.341264e-05
2.2336364e-05
9.7801918e-05
0.00022635783
0.0003697606
0.000482086
0.00055441712
0.00057875919
0.0005556994
0.00049311426
0.00040652133
0.00031249717
0.00022910256
9.9959762e-05
5.0439664e-05
8.0511938e-07
-2.674791e-05
3.1829208e-05
0.00017058994
0.00034716072
0.00049069461
0.00059450975
0.00064587578
0.00064154596
0.00058712315
0.00049650436
0.00038545071
0.00027183567
0.00017395138
0.00015115678
8.4436567e-05
-1.9963185e-06
-8.5252625e-05
-4.5336597e-05
9.5948708e-05
0.00030968106
0.00048840387
0.00062650869
0.00071043227
0.00073150795
0.00069309791
0.00060686037
0.00048709569
0.00035139289
0.00021920934
0.00010823978
0.00019643958
0.00012908887
1.2825339e-05
-0.00015306666
-0.00014329221
-2.7974024e-06
0.00025594094
0.00047660007
0.00064879794
0.00076955496
0.00082181099
0.00080685393
0.00073347981
0.00061337122
0.00046331491
0.00030397832
0.00015515492
3.2803731e-05
0.00027491832
0.0001933244
3.9684962e-05
-0.00022853752
-0.00026834302
-0.00013248781
0.00018218903
0.00045405685
0.00066119503
0.00082077348
0.00090878951
0.00092412844
0.0008720918
0.00076028858
0.00060428685
0.00042430883
0.00024358522
8.0414748e-05
-5.1326321e-05
0.00033678618
0.00026567155
0.00012658354
-0.0002934101
-0.00042954631
-0.00029720395
8.6128541e-05
0.0004230548
0.0006643017
0.00086212827
0.00098879034
0.001040628
0.0010183069
0.00092386963
0.00077042391
0.00057737661
0.00037022557
0.00017079621
-4.0473248e-06
-0.00014300023
0.00041196126
0.00036942189
0.00021634424
-0.00036389981
-0.00062528742
-0.00050516829
-3.2061044e-05
0.00038638396
0.0006642145
0.00089316782
0.0010577904
0.0011517835
0.0011676259
0.0010999853
0.00095811167
0.00076006312
0.00053277562
0.0003014548
8.641293e-05
-9.7116642e-05
-0.0002409673
0.00049721016
0.00046366627
0.00041773743
-0.00041121465
-0.00088342161
-0.00076687518
-0.00017831448
0.00034886135
0.00065795726
0.00091032011
0.0011106394
0.0012522503
0.0013152738
0.0012843884
0.0011636219
0.00096957177
0.00072940014
0.00047119857
0.0002185094
-8.5756419e-06
-0.00019757723
-0.00034387575
0.0005635407
0.00060154727
0.00061043147
-0.00046188953
-0.0011979522
-0.0010924527
-0.00035500664
0.00030703014
0.000658315
0.00089663523
0.0011419967
0.0013369007
0.0014563051
0.0014726671
0.0013830658
0.0012024058
0.00095784324
0.0006789204
0.0003922472
0.00012218852
-0.00011301719
-0.00030408685
-0.00045033627
0.00065092066
0.00069772093
0.00099694023
-0.00049677749
-0.0016208878
-0.0014793407
-0.00056590846
0.00027440902
0.00068099249
0.00086785704
0.0011580902
0.001399896
0.0015857408
0.001660499
0.0016124368
0.0014548659
0.0012149131
0.0009230306
0.00060757636
0.000296449
1.3555683e-05
-0.0002255577
-0.00041518818
-0.00055898822
0.00072153596
0.0009153104
0.0013061607
-0.00052386999
-0.0021001253
-0.0019614033
-0.00081981477
0.00025699522
0.00074374281
0.00085773141
0.0011474836
0.0014438818
0.0016992562
0.0018440469
0.0018483055
0.0017233571
0.0014974333
0.0012012941
0.00086390098
0.000515428
0.00018473952
-0.00010611604
-0.00034471944
-0.00052944688
-0.00066849315
0.00080656158
0.0011083546
0.0019797275
-0.00057002822
-0.0027673477
-0.0024901557
-0.0011147069
0.00027670194
0.0008549098
0.00087140749
0.0010864716
0.00145834
0.0017903273
0.0020210875
0.0020893272
0.0020059956
0.0018022561
0.0015106904
0.0011596125
0.0007797065
0.0004031543
5.826126e-05
-0.00023544058
-0.00046905111
-0.00064550327
-0.00077755786
0.00084654213
0.0013306417
0.0015803137
-0.00059626499
-0.0034368522
-0.0031470551
-0.0014823379
0.00034436873
0.0010394041
0.00090238799
0.00098316746
0.0014160824
0.0018495565
0.0021891872
0.0023355636
0.002301497
0.0021264306
0.0018473579
0.0014919059
0.0010886115
0.00067079706
0.00027167412
-8.168629e-05
-0.00037278133
-0.0005969613
-0.00076198708
-0.00088498362
0.00091599205
0.0016193659
0.0022028325
-0.00068723685
-0.0043986386
-0.0038640667
-0.001915081
0.00047857953
0.0013046866
0.00097721388
0.0008356051
0.0013038925
0.0018644416
0.0023434653
0.0025886028
0.0026099221
0.0024668184
0.0022067585
0.0018565661
0.0014398869
0.00098821582
0.00053775389
0.00012220813
-0.00023329399
-0.00051606581
-0.00072671521
-0.00087758129
-0.00098966734
0.0010193474
0.0021842911
0.0026666753
-0.00074120024
-0.0053578847
-0.0046867586
-0.0024904185
0.00070035523
0.0016685606
0.0010984694
0.00064789444
0.0010927113
0.0018211667
0.0024755281
0.0028506293
0.0029325444
0.0028226296
0.0025844447
0.0022479886
0.0018293302
0.0013540317
0.00085855787
0.00038161796
-4.3437413e-05
-0.00039458385
-0.00066379968
-0.00085699915
-0.00099104714
-0.0010906376
0.0011454785
0.0026833074
0.0028667926
-0.00075616289
-0.006434023
-0.005358412
-0.0031531731
0.0010507678
0.002134307
0.0013034869
0.00039441672
0.00076421069
0.0016955402
0.0025832014
0.0031210091
0.0032747149
0.0031934007
0.0029758268
0.0026594053
0.0022512003
0.0017652177
0.0012343468
0.00070039504
0.00020379572
-0.00022370616
-0.00056418338
-0.00081470368
-0.00098676768
-0.0011013451
-0.0011870568
0.0012170582
0.0030917967
0.0029719133
-0.00095447514
-0.0073063597
-0.0065135449
-0.0039589695
0.0015185654
0.0026760075
0.0015937885
7.3757111e-05
0.00026304366
0.0014654424
0.0026543678
0.0034086197
0.0036424963
0.00358319
0.0033775893
0.0030829302
0.0026997099
0.0022179099
0.0016639012
0.0010805493
0.00051408022
5.3309209e-06
-0.00041706687
-0.00073992653
-0.0009670515
-0.0011143968
-0.0012075206
-0.0012781133
0.0012532519
0.0034678603
0.0029910738
-0.0012773107
-0.0084414623
-0.0081287984
-0.0050970226
0.0021004031
0.0032664089
0.0020253274
-0.00034771919
-0.0004364366
0.0010989679
0.002678146
0.0037158101
0.00404996
0.0039957767
0.0037927509
0.0035139412
0.0031693906
0.0027054763
0.0021432235
0.0015219344
0.00089134908
0.00030048123
-0.00021152823
-0.00062086515
-0.00091961091
-0.0011189549
-0.0012384959
-0.0013085431
-0.0013630395
0.0012276672
0.0037056819
0.0030960156
-0.0016455606
-0.0096039663
-0.0093908705
-0.0061592306
0.0028872889
0.0037092959
0.0025925703
-0.00087905965
-0.0014230518
0.00057156871
0.0026336412
0.0040552011
0.004507479
0.0044445014
0.0042158243
0.0039403543
0.0036480667
0.0032167662
0.0026640179
0.0020212946
0.001337076
0.00066732067
6.2169535e-05
-0.00044368498
-0.00083212987
-0.0011017569
-0.0012687601
-0.0013582172
-0.0014034536
-0.0014415031
0.0011415132
0.0038053526
0.003093172
-0.0017351538
-0.010721064
-0.010141085
-0.0067704095
0.0035608497
0.0043871204
0.0033459182
-0.0016138828
-0.0026980062
-0.00015411737
0.0024896872
0.0044260009
0.0050396091
0.0049367521
0.004653947
0.0043555591
0.0040950446
0.0037359767
0.0032154067
0.0025718394
0.0018500346
0.0011094017
0.00041062076
-0.00019827761
-0.00068869014
-0.0010493403
-0.0012838634
-0.0014152906
-0.0014732567
-0.0014920662
-0.0015134048
0.00099491079
0.0036622113
0.002981106
-0.00169665
-0.012015978
-0.010734652
-0.0070059734
0.0040636409
0.0051328522
0.0042244528
-0.0025381194
-0.0044955575
-0.001096274
0.002210368
0.0048314219
0.005659831
0.0054946199
0.0051057982
0.0047584012
0.004507153
0.0042451485
0.0037822524
0.0031653269
0.0024261248
0.0016277458
0.00084044353
0.00012333849
-0.00047915121
-0.00094457701
-0.0012703978
-0.0014649527
-0.0015578306
-0.0015817002
-0.0015743229
-0.0015784287
0.00079858823
0.0032369486
0.002735834
-0.0018310404
-0.013031943
-0.01151485
-0.007256015
0.0039625752
0.0063521797
0.0051929054
-0.0037594666
-0.0067317829
-0.0022575705
0.0017196888
0.0052591517
0.0063954795
0.0061204429
0.0055871358
0.00513166
0.0048820332
0.0047213546
0.0043618722
0.0037904703
0.0030598084
0.0022213415
0.0013548471
0.00053197338
-0.00019114485
-0.00077658974
-0.0012091602
-0.0014918497
-0.001643105
-0.0016949327
-0.0016826599
-0.0016494885
-0.001636399
0.0005736451
0.0025375896
0.0023358772
-0.0020432729
-0.013717462
-0.012373987
-0.0080012396
0.0040625974
0.0058947751
0.0057879025
-0.0052756852
-0.0097822242
-0.0036260147
0.00094743268
0.0056959998
0.0072617775
0.0068353377
0.0060909489
0.0054759812
0.0051898922
0.0051378026
0.0049281831
0.0044449344
0.003743187
0.0028863586
0.0019552659
0.0010324888
0.00018685801
-0.00052987429
-0.0010879441
-0.0014786889
-0.0017128546
-0.0018171045
-0.001824287
-0.0017765584
-0.0017172849
-0.0016872579
0.00032821524
0.0016538609
0.0017383878
-0.0022666968
-0.014020727
-0.013094587
-0.0089797028
0.0038751983
0.0061211846
0.0059870406
-0.0074016452
-0.013162842
-0.0051438643
-0.0002434573
0.0061512369
0.0082464472
0.007625338
0.0066422172
0.0057647383
0.0054127482
0.0054637946
0.0054536471
0.0051090709
0.0044748425
0.0036204783
0.0026397903
0.0016280378
0.00066259614
-0.00019158623
-0.0008899283
-0.0014098724
-0.0017504522
-0.001931569
-0.0019841845
-0.0019458352
-0.0018629331
-0.0017775726
-0.001731033
3.9199108e-05
0.00066507939
0.00090697263
-0.0025107114
-0.013942384
-0.013725018
-0.010001391
0.0033551389
0.0062037095
0.0056562509
-0.0095174035
-0.017136522
-0.00734826
-0.0018694327
0.0065084203
0.0093245199
0.008479431
0.0072141627
0.0060084399
0.0054947348
0.0056742589
0.0059076848
0.0057648229
0.0052429552
0.004418934
0.0034089778
0.0023202624
0.0012415743
0.00024861894
-0.00060032251
-0.0012676441
-0.0017386621
-0.0020223305
-0.0021451293
-0.0021429512
-0.0020594837
-0.0019412672
-0.001830355
-0.0017678427
-0.00030483676
-0.00038123743
-0.00011201673
-0.0027918803
-0.013549663
-0.014026889
-0.010966898
0.0026370645
0.0063573434
0.0050923187
-0.012098422
-0.021075575
-0.010900515
-0.0044359528
0.0065580986
0.010390447
0.0093540167
0.0078202379
0.0061604089
0.0054228154
0.0057035321
0.0062612268
0.006391387
0.0060348644
0.0052783348
0.0042599762
0.0031072808
0.0019269534
0.00079865018
-0.00020634418
-0.0010353737
-0.0016585671
-0.0020714226
-0.0022912693
-0.0023511303
-0.0022931066
-0.0021644982
-0.0020114765
-0.0018757406
-0.0017978817
-0.0014349336
-0.00062025493
-0.0012406839
-0.003142793
-0.012785237
-0.013869963
-0.011677939
0.0015551527
0.0056837494
0.0047109836
-0.01442206
-0.025087073
-0.014997732
-0.0080727962
0.0061818411
0.011502625
0.010153445
0.0084010917
0.0062314127
0.0051195077
0.0055312854
0.0064632982
0.0069670271
0.0068390152
0.0061940022
0.0051870677
0.0039913144
0.0027189404
0.0014626352
0.00030223765
-0.00069802685
-0.0014917037
-0.0020589366
-0.0024045273
-0.0025542239
-0.0025483465
-0.0024340531
-0.0022606527
-0.0020735819
-0.0019138913
-0.0018213739
-0.0023996673
-0.0025199536
-0.00086807571
-0.0035513124
-0.011653472
-0.013204859
-0.012002527
-2.4695918e-05
0.0043757874
0.0040851386
-0.015991803
-0.029283713
-0.018557421
-0.011761257
0.0056230091
0.012658134
0.010796493
0.0089439597
0.0061375654
0.0045634395
0.0050375798
0.0064738189
0.0074590702
0.0076505947
0.0071596325
0.0061897808
0.0049668154
0.0036140003
0.0022429592
0.00093238505
-0.00024264396
-0.0012207914
-0.001964743
-0.0024645
-0.002734248
-0.0028089861
-0.0027357718
-0.0025653006
-0.0023476888
-0.0021275463
-0.0019449669
-0.0018386014
-0.0039884753
-0.0035738229
-0.0036415545
-0.0010955249
-0.010195796
-0.012058485
-0.011853547
-0.0021199105
0.0023366288
0.0028833072
-0.017299672
-0.033931936
-0.022633478
-0.015287172
0.0046175419
0.013715768
0.011065401
0.0093222556
0.005891983
0.0036164773
0.00419786
0.0061971257
0.0078321249
0.0084483169
0.00817625
0.0072696449
0.0060243989
0.0046105666
0.0031366019
0.0016862366
0.00033997854
-0.00083019467
-0.0017693079
-0.0024497559
-0.002870747
-0.0030575402
-0.0030538319
-0.0029124306
-0.0026862997
-0.0024254772
-0.0021735142
-0.0019692826
-0.0018498787
-0.0084692939
-0.004374648
-0.0047226287
-0.0046916632
-0.0013110412
-0.010549845
-0.011245927
-0.0047172629
-0.00045753088
0.0012858194
-0.019000845
-0.038132288
-0.028406448
-0.019565783
0.0036216813
0.013725309
0.010919823
0.0095052494
0.0053399835
0.0022716597
0.0027613496
0.005564584
0.0080316732
0.009231937
0.0092370842
0.0084281146
0.0071648762
0.0057006262
0.0041362193
0.0025622958
0.0010546901
-0.00030756721
-0.0014545757
-0.0023386515
-0.0029414453
-0.003273712
-0.003371787
-0.0032874186
-0.0030776042
-0.0027966605
-0.0024939665
-0.0022117791
-0.0019871296
-0.0018555415
-0.0087563514
-0.0065392429
-0.0046630829
-0.0057657181
-0.0056113353
-0.0015047175
-0.010236556
-0.0077844134
-0.0039384238
-0.00078939392
-0.020700167
-0.042096749
-0.034064197
-0.0240659
0.00036393187
0.013642199
0.010010845
0.0092354345
0.0045639309
0.00029500965
0.00072495153
0.0043958377
0.0079999499
0.0099638928
0.010358511
0.0096595522
0.0083912141
0.0068707068
0.0052338637
0.0035519227
0.0018999318
0.00035458344
-0.0010047318
-0.0021103094
-0.0029230332
-0.0034348409
-0.0036697908
-0.0036748384
-0.0035085002
-0.0032305906
-0.0028961565
-0.0025533869
-0.0022425762
-0.0019988684
-0.0018559441
-0.008767409
-0.0067442108
-0.0045296229
-0.0048996528
-0.0066056597
-0.006366147
-0.0016827006
-0.01100354
-0.0079434473
-0.0034429907
-0.022167875
-0.045253526
-0.039937142
-0.028154382
-0.0035888017
0.011328063
0.0085677863
0.0086597437
0.0031833363
-0.0022952087
-0.0023285743
0.0025810289
0.0076523714
0.010625531
0.011520574
0.010969794
0.0096866123
0.0081197024
0.006412022
0.0046420199
0.0028682496
0.001157369
-0.00040835664
-0.001745812
-0.002791646
-0.0035163515
-0.0039252824
-0.0040558502
-0.0039647719
-0.0037158458
-0.0033708726
-0.0029848669
-0.0026040797
-0.0022663528
-0.0020048534
-0.0018513933
-0.014130104
-0.0070065718
-0.0046610754
-0.0024814574
-0.0050392541
-0.007202503
-0.0069084714
-0.0018294995
-0.012310699
-0.0065397639
-0.023280712
-0.047230215
-0.045143687
-0.031873495
-0.0079881979
0.0080647277
0.0066491273
0.0074191634
0.0016062846
-0.0059653541
-0.0063247974
-0.00010762047
0.0068425945
0.011126613
0.012722117
0.012335015
0.011061412
0.009425791
0.007657087
0.0058130396
0.0039437385
0.0020945386
0.0003395772
-0.0012289357
-0.0025248041
-0.0034920918
-0.0041129739
-0.004408509
-0.0044290662
-0.0042397201
-0.0039084846
-0.0034983716
-0.0030631682
-0.0026462764
-0.0022832707
-0.0020052361
-0.0018422585
-0.016741484
-0.017015653
-0.0053749489
-0.0025234112
-0.00057915241
-0.0050560301
-0.0075213739
-0.0071881323
-0.0019387047
-0.010049334
-0.023848407
-0.047798038
-0.048948991
-0.035009208
-0.012695878
0.0027889085
0.0050409603
0.0049060024
-0.0010997597
-0.01015285
-0.011815723
-0.0036984268
0.0054022566
0.011375247
0.013904715
0.013752173
0.012469961
0.010785619
0.0089390753
0.0070414683
0.005103708
0.003151039
0.0012362465
-0.00054945372
-0.0021020651
-0.0033355147
-0.0042049537
-0.0047074532
-0.0048805699
-0.004786713
-0.0044980682
-0.0040860459
-0.0036133912
-0.003131138
-0.0026798856
-0.0022932663
-0.0020004389
-0.0018290761
-0.01387613
-0.020723416
-0.019340484
-0.0040039549
-0.00055874219
0.0011357148
-0.0049643544
-0.0076346794
-0.0071576068
-0.001993766
-0.023747853
-0.046811648
-0.050870796
-0.037712817
-0.017498715
-0.0039451949
0.0010346784
0.0023306315
-0.0034110191
-0.01613243
-0.018281804
-0.0084805593
0.0029798763
0.011190247
0.015000179
0.015177696
0.013892533
0.012137027
0.010243712
0.0082906156
0.0063183512
0.0043025431
0.0022696355
0.00029549959
-0.0015063733
-0.0030220453
-0.0041714434
-0.0049237088
-0.0052945402
-0.005337622
-0.0051263102
-0.0047389816
-0.0042487035
-0.003715808
-0.0031881207
-0.002704645
-0.002297079
-0.0019914248
-0.0018123339
-0.022767007
-0.017698568
-0.023905643
-0.020968923
-0.0028499269
0.001084176
0.0026227599
-0.0047886747
-0.0076034783
-0.0068845152
-0.0020015084
-0.044103853
-0.050708304
-0.039311436
-0.022245407
-0.01203793
-0.0050109725
-0.00084391355
-0.0049039706
-0.021548357
-0.027072125
-0.015118169
-0.00050120864
0.010275621
0.015932891
0.016506425
0.015266573
0.01346988
0.011503282
0.0095356029
0.0075446352
0.0055155667
0.0034173263
0.001299466
-0.00072768556
-0.0025278269
-0.0039823934
-0.005025128
-0.0056417533
-0.0058689881
-0.0057760712
-0.0054462552
-0.0049624117
-0.0043961029
-0.0038043262
-0.0032336499
-0.0027218569
-0.0022965753
-0.0019791447
-0.0017917932
-0.03982905
-0.021111547
-0.02069086
-0.026267082
-0.02181387
-0.0019835823
0.0023509162
0.0037702994
-0.0045429448
-0.0074416415
-0.0064817192
-0.0019773448
-0.048389789
-0.039389712
-0.026870086
-0.020838786
-0.012903318
-0.0057807639
-0.0068793074
-0.026450775
-0.035916334
-0.024857881
-0.0058450771
0.0084087447
0.016481502
0.017708251
0.016469104
0.014689229
0.012709848
0.010703415
0.008747245
0.0067429397
0.0046452449
0.0024455183
0.00023577475
-0.0018340469
-0.0036089277
-0.004976667
-0.0058886355
-0.0063522244
-0.0064257393
-0.0061933166
-0.0057459412
-0.0051676396
-0.0045261516
-0.0038780314
-0.0032700099
-0.0027349569
-0.0022931673
-0.0019622076
-0.0017657209
-0.044161354
-0.034104117
-0.018930281
-0.022607691
-0.027600198
-0.021894103
-0.0014625239
0.0032663624
0.0044729977
-0.0042364164
-0.007174622
-0.005877764
-0.0018845048
-0.037716043
-0.031399052
-0.03005489
-0.022784098
-0.012739581
-0.010178156
-0.030778853
-0.047311107
-0.037225939
-0.013831807
0.0050128374
0.016269007
0.018494248
0.017499375
0.01570628
0.013749159
0.011781375
0.0098464882
0.0079394119
0.0059058473
0.0037033171
0.0013759478
-0.00092898381
-0.0030224827
-0.0047435561
-0.0059973328
-0.0067534543
-0.0070482317
-0.0069608255
-0.0065880369
-0.0060240511
-0.0053514141
-0.0046372784
-0.0039404246
-0.0033026473
-0.0027453164
-0.0022828253
-0.0019363246
-0.001734679
-0.034026659
-0.038126728
-0.0276742
-0.016206569
-0.023548938
-0.027921008
-0.021269858
-0.0011517171
0.0039372335
0.0046937231
-0.0039100609
-0.0067874101
-0.0052557106
-0.0018144858
-0.035378177
-0.039663818
-0.034315332
-0.021965297
-0.014349591
-0.036270968
-0.057709531
-0.054340109
-0.023817525
0.00079075475
0.01495053
0.01865604
0.017860358
0.016471195
0.014577554
0.012644957
0.010822332
0.0090183403
0.0071459903
0.0050297221
0.0026710237
0.00019155594
-0.0022001289
-0.0042895909
-0.0059266171
-0.0070334222
-0.0076104425
-0.0077240267
-0.0074718685
-0.0069582358
-0.0062766389
-0.0055114118
-0.0047342513
-0.0039996236
-0.0033326659
-0.0027447439
-0.0022570046
-0.0019054713
-0.0016990643
-0.037914195
-0.028578852
-0.030939832
-0.020994545
-0.013563083
-0.023509249
-0.02730458
-0.020151509
-0.00093082146
0.0044335504
0.004614995
-0.0037949402
-0.0064544003
-0.0044740178
-0.0017750986
-0.049234731
-0.046588751
-0.032899154
-0.018965621
-0.042508677
-0.069427895
-0.069124032
-0.038193385
-0.0079601005
0.013738935
0.017813965
0.017799219
0.016622512
0.015085062
0.013283017
0.011535629
0.0099487136
0.0082752918
0.0063686963
0.0040872591
0.0015187198
-0.0011231733
-0.0035802168
-0.0056345994
-0.0071471653
-0.0080725964
-0.0084516491
-0.0083757107
-0.0079558019
-0.0072981328
-0.0064999365
-0.0056537057
-0.0048286269
-0.0040565055
-0.0033457311
-0.0027190529
-0.0022257911
-0.0018697515
-0.0016588999
-0.057934941
-0.039143071
-0.022714729
-0.023504823
-0.014395175
-0.011084876
-0.02260548
-0.025922109
-0.018693685
-0.0008061797
0.0046271236
0.0043181842
-0.0040376465
-0.005953157
-0.0036983046
-0.0017491482
-0.058965317
-0.044161875
-0.024268204
-0.049207913
-0.080787306
-0.087393012
-0.054112857
-0.020934908
0.0072883043
0.017423382
0.016106303
0.016302961
0.015094593
0.013544593
0.011993201
0.010570403
0.0092473184
0.0076323509
0.0055733852
0.0030325081
0.00021128364
-0.0025814078
-0.0050792951
-0.0070460876
-0.0083881284
-0.0091046152
-0.0092711684
-0.0089988471
-0.0084049598
-0.0076018197
-0.0067011417
-0.0057939692
-0.0049210972
-0.0040881663
-0.0033204577
-0.0026870801
-0.0021893149
-0.0018292042
-0.0016140622
-0.070188752
-0.065067346
-0.038932425
-0.016964479
-0.016504032
-0.0083385402
-0.008623305
-0.021093022
-0.023830658
-0.017224871
-0.00077956795
0.0047408634
0.0040437734
-0.0042309417
-0.0055068625
-0.0031753049
-0.0016587621
-0.05490958
-0.030875295
-0.056048494
-0.091003683
-0.10414931
-0.072873676
-0.036577179
-0.00044942365
0.01317115
0.015455552
0.014856772
0.014616714
0.013381762
0.011999674
0.010899055
0.0098815269
0.0087586548
0.0070524284
0.0046940315
0.0018068014
-0.0012789322
-0.0042029475
-0.0066742627
-0.0085023264
-0.0096357825
-0.010121336
-0.010062749
-0.0095835031
-0.0088108806
-0.0078776667
-0.0069006098
-0.0059325787
-0.00497762
-0.0040641657
-0.0032874576
-0.0026493001
-0.0021477453
-0.0017837329
-0.0015645212
-0.064167235
-0.079146387
-0.069471348
-0.036962998
-0.011602656
-0.010275962
-0.0030262685
-0.0062617028
-0.019220801
-0.021405921
-0.015587588
-0.00044076296
0.0048677247
0.0037325515
-0.0040920304
-0.0043740459
-0.0026424762
-0.0015444583
-0.038586231
-0.062421239
-0.099105197
-0.11878767
-0.093663228
-0.052525725
-0.011233505
0.0086659617
0.010613534
0.012727358
0.013262132
0.012662099
0.011588814
0.010673414
0.010188281
0.0095569856
0.0084534664
0.0064467314
0.0036412928
0.00035431868
-0.0029595415
-0.005975501
-0.008351189
-0.0099878065
-0.010879932
-0.011114127
-0.010813729
-0.010117895
-0.0091826271
-0.0081529673
-0.0070989387
-0.0060222658
-0.0049566538
-0.0040300014
-0.0032479625
-0.0026061206
-0.0021010608
-0.0017333653
-0.0015102782
-0.046783832
-0.071116024
-0.084469219
-0.071188524
-0.03393317
-0.0066207545
-0.005298292
0.0014534843
-0.0040627703
-0.017304894
-0.018333243
-0.01356474
0.00037648455
0.0047803182
0.0031199257
-0.0036262715
-0.0032561897
-0.0023037327
-0.001416491
-0.066993705
-0.10398685
-0.1295004
-0.11246776
-0.067578381
-0.023807313
-0.00056171556
0.0076742078
0.0086242959
0.011257445
0.011291494
0.01044151
0.0099624684
0.0098265002
0.010017702
0.0095888323
0.008223587
0.005683781
0.0023214421
-0.0013488309
-0.0048656675
-0.0078695074
-0.010093013
-0.011490162
-0.012109815
-0.01206703
-0.011507855
-0.010611147
-0.009554492
-0.0084285963
-0.0072328381
-0.0060070612
-0.0049216043
-0.0039885148
-0.0032027223
-0.0025575583
-0.0020492118
-0.0016780315
-0.0014512554
-0.067758308
-0.054758597
-0.074309757
-0.086304972
-0.070318816
-0.030478644
-0.0021389499
-0.0015798244
0.0050201779
-0.0021053047
-0.015428506
-0.015658599
-0.011774469
0.00080871637
0.0044917584
0.0025005413
-0.0030112756
-0.004317701
-0.0019302638
-0.0012274728
-0.10450939
-0.13450374
-0.12666735
-0.082147686
-0.038045412
-0.011499108
0.00093132285
0.0044972429
0.0076600134
0.0092235179
0.0087941105
0.0083037406
0.0088916789
0.0097407491
0.010432089
0.0098573829
0.0078820979
0.004616319
0.00067652186
-0.0033311229
-0.0069886089
-0.0098815397
-0.011884452
-0.012995426
-0.013305341
-0.012958129
-0.012153045
-0.0111059
-0.0099285303
-0.0086208163
-0.007227019
-0.0059718799
-0.0048780707
-0.0039408643
-0.0031517781
-0.0025035068
-0.0019921781
-0.0016176808
-0.0013875616
-0.10015696
-0.065141298
-0.059908295
-0.074348132
-0.084673374
-0.067228118
-0.026953718
0.0017243598
0.0014582203
0.0077912131
-0.00033373167
-0.013746041
-0.013557345
-0.0099969643
0.00089374021
0.0038491906
0.0018367653
-0.0025364284
-0.0029994783
-0.0016744833
-0.0010618302
-0.13257491
-0.13455593
-0.0939764
-0.05258306
-0.024963266
-0.0093421683
-0.0020140541
0.0036855325
0.006297672
0.0060632173
0.0062180203
0.0068199144
0.0088339119
0.010569225
0.011307643
0.010123229
0.0072057571
0.0031374877
-0.0013334423
-0.0056275082
-0.0092853355
-0.011992578
-0.013706523
-0.014479209
-0.014437056
-0.013792244
-0.012801546
-0.011605888
-0.010197268
-0.0086296679
-0.0071928173
-0.0059266942
-0.0048278931
-0.0038871576
-0.0030949896
-0.0024440641
-0.0019299898
-0.001552607
-0.0013190569
-0.12386954
-0.090633145
-0.060154954
-0.060500315
-0.071771447
-0.080157159
-0.062228423
-0.023577717
0.00444477
0.0038449056
0.0095967596
0.00091093406
-0.012081493
-0.01096267
-0.0081080195
0.00090716551
0.0028513601
0.001279808
-0.0021063921
-0.0027072145
-0.0013519129
-0.00088193244
-0.13508895
-0.10047198
-0.066016121
-0.039985398
-0.024133769
-0.01147801
-0.0031046374
0.0033003136
0.0031117054
0.0025008304
0.0041778478
0.0065688524
0.010090621
0.012173361
0.012358994
0.010031442
0.0060218958
0.001179202
-0.0037461487
-0.0082051435
-0.011731371
-0.014171941
-0.015528546
-0.015901873
-0.015504147
-0.01463235
-0.013461123
-0.011974269
-0.010229021
-0.0085980442
-0.007146985
-0.0058742408
-0.0047711525
-0.0038271624
-0.0030325562
-0.0023792859
-0.0018629418
-0.0014824507
-0.0012458668
-0.1276815
-0.10901323
-0.077791622
-0.052457741
-0.057105974
-0.066860934
-0.073061981
-0.055868532
-0.020653204
0.0055672606
0.0054534552
0.010821432
0.0010196347
-0.010239822
-0.0081061726
-0.0064728539
0.00074058722
0.0026344723
0.00080772904
-0.0016629436
-0.0019657353
-0.0011248322
-0.00072776552
-0.10093782
-0.076638467
-0.055822982
-0.042096046
-0.024993771
-0.013554582
-0.0020848124
0.00028643896
-0.000951098
-0.00073116887
0.0034464315
0.0081235658
0.012550701
0.014287256
0.013043426
0.0093043742
0.0042225613
-0.0012964764
-0.0065640067
-0.011007333
-0.014308942
-0.01638458
-0.017298934
-0.017253901
-0.016581445
-0.015493433
-0.013960366
-0.012039879
-0.010202844
-0.0085535016
-0.0070928291
-0.0058144463
-0.0047076071
-0.0037611402
-0.0029645638
-0.0023095214
-0.0017906117
-0.0014074123
-0.0011679843
-0.096234713
-0.11244376
-0.090966384
-0.062731203
-0.043106687
-0.050509393
-0.060223561
-0.064892667
-0.048774572
-0.018486241
0.005498878
0.0071168072
0.010804358
0.0011982845
-0.0079531343
-0.0061434838
-0.0047072051
0.00066489542
0.0021034476
0.0005379424
-0.0012959408
-0.0016296155
-0.00087322907
-0.00054099254
-0.081254092
-0.07082908
-0.061850792
-0.043859406
-0.028143497
-0.011170342
-0.0036615733
-0.0051321935
-0.004945816
-0.0025231757
0.0051794249
0.011451083
0.015842914
0.016022413
0.012938965
0.0077883351
0.0017506045
-0.0043073497
-0.0097329301
-0.014013412
-0.016965087
-0.018563643
-0.018995953
-0.018622991
-0.017695747
-0.016163138
-0.01407619
-0.012023313
-0.010162822
-0.0084988374
-0.0070304048
-0.0057471153
-0.0046374816
-0.0036893602
-0.0028914477
-0.0022342076
-0.0017129036
-0.001327583
-0.0010855891
-0.078332715
-0.086852966
-0.092862792
-0.071790226
-0.04739325
-0.032805253
-0.041310167
-0.052169576
-0.055530859
-0.041948316
-0.015915491
0.0057375232
0.0079513521
0.010764788
0.0015529767
-0.0056747737
-0.0048619073
-0.0033912063
0.00056765458
0.0016770209
0.0003805727
-0.00096274303
-0.0011407652
-0.00067508458
-0.00041716388
-0.083063811
-0.082344684
-0.067004373
-0.047973171
-0.024348225
-0.010323101
-0.0096157619
-0.011407007
-0.0082925482
-0.00085743223
0.010149093
0.016598839
0.018975502
0.016773261
0.011838179
0.0054106502
-0.0013806482
-0.0078256664
-0.013195796
-0.017170438
-0.019617127
-0.020673453
-0.020721445
-0.020053469
-0.018586447
-0.016351061
-0.01407571
-0.011992867
-0.010109734
-0.0084346656
-0.0069593087
-0.0056724844
-0.0045613405
-0.0036122395
-0.0028123797
-0.0021528082
-0.001630303
-0.001243233
-0.00099866221
-0.090638389
-0.070531056
-0.073175606
-0.072532721
-0.053229872
-0.032882955
-0.022202939
-0.031154643
-0.042741008
-0.04641706
-0.034761648
-0.012402745
0.0062884828
0.0083675359
0.0097911913
0.0021880857
-0.0038653053
-0.003805064
-0.0021976754
0.00054006832
0.0013335325
0.00031796573
-0.00068183603
-0.00085115692
-0.00047123482
-0.00030283607
-0.10198683
-0.093856919
-0.073641086
-0.042408962
-0.02033261
-0.015977595
-0.017464203
-0.018508175
-0.0085475763
0.0052912033
0.016287555
0.021421719
0.02081906
0.016257561
0.009678191
0.0021514489
-0.005225063
-0.011770354
-0.016897228
-0.020368049
-0.0222168
-0.022830871
-0.022543587
-0.021228608
-0.018876029
-0.016375712
-0.014062631
-0.011944706
-0.010045396
-0.0083602758
-0.0068799106
-0.0055914139
-0.0044795408
-0.0035285648
-0.0027262678
-0.0020663824
-0.0015430476
-0.0011544201
-0.00090737667
-0.11836703
-0.093642766
-0.062490636
-0.057189541
-0.053469628
-0.036169109
-0.019193498
-0.011973633
-0.021369603
-0.03334555
-0.036021461
-0.028052386
-0.0082778987
0.0062091785
0.0083333939
0.0085699904
0.0025276819
-0.0023263019
-0.0026104043
-0.0013419632
0.00055097107
0.0011081218
0.00031632471
-0.0003990171
-0.00053607279
-0.00030734415
-0.00020506811
-0.12295411