/*--------------------------------*- C++ -*----------------------------------*\
| =========                 |                                                 |
| \\      /  F ield         | OpenFOAM: The Open Source CFD Toolbox           |
|  \\    /   O peration     | Version:  5.0                                   |
|   \\  /    A nd           | Web:      www.OpenFOAM.org                      |
|    \\/     M anipulation  |                                                 |
\*---------------------------------------------------------------------------*/
FoamFile
{
    version     2.0;
    format      ascii;
    class       surfaceScalarField;
    location    "140";
    object      phi;
}
// * * * * * * * * * * * * * * * * * * * * * * * * * * * * * * * * * * * * * //

dimensions      [0 3 -1 0 0 0 0];

internalField   nonuniform List<scalar> 
18820
(
-0.00027893418
-1.3568712
-0.00053881455
-1.2689441
-0.00027205313
-1.3565991
-0.00077938251
-1.1868119
-0.00052478297
-1.2686914
-0.00026947479
-1.3563297
-0.0010003859
-1.1100634
-0.00075755083
-1.1865791
-0.00051950329
-1.2684414
-0.00027536236
-1.3560543
-0.0012009059
-1.0383301
-0.00096982772
-1.1098511
-0.0007500164
-1.1863486
-0.00053114329
-1.2681856
-0.00028062936
-1.3557737
-0.0013793984
-0.97126394
-0.0011605872
-1.0381393
-0.00096039595
-1.1096407
-0.00076800037
-1.1861117
-0.00054239768
-1.2679238
-0.00028184013
-1.3554918
-0.001534041
-0.90854819
-0.0013281248
-0.9710964
-0.0011499081
-1.0379498
-0.00098548986
-1.1094233
-0.0007863389
-1.1858678
-0.00054675495
-1.2676589
-0.00027379548
-1.355218
-0.0016625943
-0.84989204
-0.0014710225
-0.90840529
-0.0013172247
-0.97092909
-0.0011832813
-1.037752
-0.0010123467
-1.1091973
-0.0007962954
-1.1856182
-0.00053310262
-1.2673996
-0.00026017621
-1.3549579
-0.0017628271
-0.79502783
-0.0015886035
-0.84977445
-0.0014609372
-0.90826158
-0.0013608375
-0.97075153
-0.0012201045
-1.0375443
-0.0010312048
-1.1089623
-0.00077994695
-1.1853714
-0.00050791275
-1.2671519
-0.00024616103
-1.3547117
-0.0018334892
-0.74370491
-0.0016821721
-0.79493426
-0.0015805956
-0.8496548
-0.0015168801
-0.90810554
-0.0014093651
-0.97056227
-0.0012516554
-1.0373238
-0.0010160511
-1.1087262
-0.0007460494
-1.1851333
-0.00048103813
-1.266917
-0.00023584548
-1.3544758
-0.0018787354
-0.69569283
-0.0017553481
-0.74363174
-0.001678549
-0.79483631
-0.0016497482
-0.84952193
-0.0015791969
-0.9079357
-0.0014580734
-0.97035585
-0.0012420375
-1.0370978
-0.00097741862
-1.1084949
-0.00070835274
-1.184906
-0.00046101198
-1.2666918
-0.0002298355
-1.354246
-0.0018957187
-0.65077421
-0.0018171385
-0.69563104
-0.0017598491
-0.74355044
-0.0017572155
-0.79472884
-0.0017277095
-0.84937341
-0.0016507349
-0.90774304
-0.0014585038
-0.97013939
-0.0012034491
-1.0368718
-0.00093142759
-1.1082718
-0.00068025994
-1.1846867
-0.0004492272
-1.2664724
-0.00022577226
-1.3540202
-0.0018974177
-0.60873924
-0.0018771006
-0.65071425
-0.0018280705
-0.69556282
-0.0018346993
-0.74347295
-0.0018506184
-0.79460593
-0.0018286992
-0.84919545
-0.0016666305
-0.90753492
-0.0014247454
-0.96991809
-0.0011525925
-1.0366507
-0.00089690882
-1.1080551
-0.00066391727
-1.184472
-0.00044143578
-1.2662568
-0.00021997191
-1.3538003
-0.0018899199
-0.56940174
-0.0019358188
-0.60868052
-0.0018774564
-0.65066486
-0.0018701378
-0.69552738
-0.001939353
-0.74338422
-0.0019883809
-0.79444625
-0.0018681937
-0.84899389
-0.0016423217
-0.90731734
-0.0013725322
-0.96969815
-0.0011137891
-1.0364338
-0.00087741741
-1.1078416
-0.00065294449
-1.1842605
-0.00043076123
-1.266046
-0.00020943995
-1.3535908
-0.0018862455
-0.53258779
-0.0019931305
-0.56934443
-0.0018958247
-0.60866216
-0.0018519902
-0.65068301
-0.0019833193
-0.69548342
-0.0021262899
-0.74324631
-0.0020668204
-0.79424762
-0.0018583605
-0.84877785
-0.0015913172
-0.90709856
-0.0013322585
-0.96947968
-0.001092476
-1.0362187
-0.00086429569
-1.1076303
-0.00063769089
-1.1840536
-0.00041108142
-1.2658443
-0.00019321614
-1.3533976
-0.0018788082
-0.49815056
-0.0020658117
-0.53251511
-0.0018818644
-0.56935839
-0.0017890121
-0.60872513
-0.0019817043
-0.65068463
-0.0022459098
-0.6953638
-0.0022713417
-0.74304179
-0.002078028
-0.79402795
-0.001809246
-0.84855992
-0.0015521358
-0.90687868
-0.0013111045
-0.96926105
-0.0010785572
-1.0360045
-0.00084490008
-1.1074231
-0.00060963019
-1.183855
-0.00037999874
-1.2656576
-0.00017255013
-1.3532251
-0.0019206398
-0.46590133
-0.0021735428
-0.49804282
-0.001836576
-0.5325604
-0.0016664302
-0.56948097
-0.0019342323
-0.60877261
-0.0023532037
-0.65057733
-0.0024930384
-0.6951421
-0.0023086298
-0.74281119
-0.0020271363
-0.79381006
-0.0017720413
-0.84834001
-0.0015340142
-0.90665577
-0.0012984104
-0.9690412
-0.0010561174
-1.0357932
-0.00080879183
-1.1072239
-0.0005649394
-1.1836701
-0.00033969289
-1.2654904
-0.00015020114
-1.3530749
-0.0019603735
-0.43575399
-0.0023515117
-0.46572336
-0.0017789707
-0.49810043
-0.0014463686
-0.53278046
-0.0018400882
-0.56957512
-0.0024480469
-0.60867776
-0.002744019
-0.65032635
-0.0025583605
-0.69489237
-0.0022447978
-0.74259352
-0.0019887684
-0.79359334
-0.0017602028
-0.84811383
-0.0015258056
-0.90642837
-0.0012747919
-0.96882253
-0.0010125414
-1.0355895
-0.00075147705
-1.1070374
-0.00050574113
-1.183504
-0.00029559558
-1.265345
-0.00012911517
-1.3529457
-0.0021333861
-0.40747071
-0.002604857
-0.43550064
-0.0016658158
-0.46583652
-0.001107221
-0.49843958
-0.0016711155
-0.53294943
-0.0025467313
-0.56947643
-0.0030351854
-0.6083866
-0.0028407986
-0.65004391
-0.0024629185
-0.69467425
-0.0021969287
-0.74238536
-0.0019861435
-0.7933674
-0.0017613642
-0.84787827
-0.0015041855
-0.90619898
-0.0012251092
-0.96860996
-0.00094285177
-1.0353981
-0.00067459432
-1.1068685
-0.00043955151
-1.1833601
-0.00025361786
-1.2652205
-0.00011127669
-1.3528345
-0.0022789564
-0.38108361
-0.0030069715
-0.40706859
-0.0015689126
-0.43559755
-0.00061053788
-0.4663332
-0.0013893056
-0.49872139
-0.002670324
-0.53282584
-0.0033847517
-0.56912687
-0.0031728031
-0.60805459
-0.0026806087
-0.64982622
-0.0023884327
-0.69448274
-0.0022052263
-0.74216628
-0.0020037248
-0.79312504
-0.00174715
-0.8476353
-0.0014505807
-0.90597351
-0.0011433416
-0.96840947
-0.00084888544
-1.0352238
-0.00058615637
-1.1067219
-0.00037567847
-1.183238
-0.00021765522
-1.2651141
-9.729433e-05
-1.3527372
-0.0026431554
-0.35618985
-0.0035225329
-0.38056805
-0.0013628589
-0.40727465
8.292298e-05
-0.43629101
-0.00096466846
-0.46675784
-0.002815993
-0.49857572
-0.0038354604
-0.53237513
-0.0035595562
-0.56874011
-0.0028990684
-0.60783613
-0.0025486542
-0.649666
-0.0024048776
-0.69428309
-0.0022489542
-0.74192105
-0.0020061042
-0.79286608
-0.0016932936
-0.84739259
-0.0013569107
-0.90575994
-0.0010315215
-0.96822683
-0.00073846428
-1.0350715
-0.00049887719
-1.1065987
-0.00032063668
-1.183135
-0.00018886575
-1.2650226
-8.6688027e-05
-1.3526505
-0.0029413104
-0.33302616
-0.0042034431
-0.35550894
-0.0012276712
-0.38070324
0.0010457683
-0.40823749
-0.00034626904
-0.43690941
-0.0030094905
-0.46656434
-0.0044394099
-0.49797177
-0.0040226643
-0.53191202
-0.0030970982
-0.56854208
-0.0026504758
-0.60773431
-0.0025642041
-0.64950668
-0.0024885103
-0.69404354
-0.002283297
-0.74164386
-0.0019585145
-0.79260086
-0.0015878921
-0.84716161
-0.001225569
-0.90556589
-0.00089825016
-0.96806705
-0.00062660478
-1.0349438
-0.00042279327
-1.1064966
-0.00027633712
-1.1830476
-0.00016649435
-1.2649428
-7.8476296e-05
-1.352572
-0.0035109766
-0.31103097
-0.0049639547
-0.33226565
-0.0009346058
-0.35580201
0.0022756968
-0.38193317
0.00048338982
-0.40906715
-0.003252143
-0.43666676
-0.0052622909
-0.46574146
-0.004619107
-0.49737533
-0.0032607972
-0.53174832
-0.002665346
-0.56852721
-0.0026494738
-0.60764904
-0.0027094056
-0.64928578
-0.0025814453
-0.69374539
-0.0022537917
-0.74134858
-0.0018418487
-0.7923469
-0.0014341286
-0.84695305
-0.0010672231
-0.90539692
-0.00076037896
-0.96793327
-0.00052757386
-1.034839
-0.00036118355
-1.1064117
-0.00024136996
-1.1829727
-0.00014906595
-1.2648722
-7.1651638e-05
-1.3525004
-0.0041171973
-0.29019649
-0.0059425012
-0.31005242
-0.0007781541
-0.3324221
0.0039177571
-0.35744407
0.0016146718
-0.38306445
-0.0035901266
-0.40872917
-0.0063804776
-0.43554857
-0.0053936313
-0.46496694
-0.0033936244
-0.4972425
-0.0025496125
-0.53186406
-0.0026536364
-0.56852305
-0.0028970575
-0.60746139
-0.0029059142
-0.64896131
-0.0025914341
-0.69340775
-0.0021268942
-0.74106354
-0.0016605332
-0.7921205
-0.0012465391
-0.84677373
-0.00090144908
-0.90525585
-0.00063687628
-0.96782397
-0.0004462674
-1.0347539
-0.0003122077
-1.1063409
-0.00021330622
-1.1829085
-0.0001349886
-1.2648088
-6.5383485e-05
-1.352435
-0.0050465386
-0.27078102
-0.0069442357
-0.28919476
-0.00042920576
-0.31040137
0.0058391259
-0.33434347
0.0030515794
-0.35888097
-0.0039944747
-0.3826601
-0.0078727964
-0.40723685
-0.0064054138
-0.43453679
-0.0034775992
-0.46488296
-0.0022349372
-0.49755717
-0.002538925
-0.53197877
-0.0030509507
-0.56836916
-0.0032667163
-0.60710059
-0.0029903403
-0.64856241
-0.0024559664
-0.69307867
-0.0019088908
-0.74081518
-0.0014365386
-0.7919305
-0.0010500102
-0.84662517
-0.00075196284
-0.90514076
-0.00053428765
-0.96773595
-0.00038075262
-1.0346854
-0.00027221528
-1.106282
-0.00019002613
-1.1828534
-0.00012254755
-1.2647517
-5.905728e-05
-1.3523759
-0.0057955761
-0.25320221
-0.0081417713
-0.26958349
-1.6653563e-05
-0.28960731
0.0082632505
-0.31282549
0.0048792589
-0.33617115
-0.0046125256
-0.35826292
-0.0098444225
-0.38068847
-0.0077092926
-0.40593297
-0.0035136858
-0.4345007
-0.0016622276
-0.46545567
-0.0022134707
-0.49788263
-0.0031776102
-0.53185211
-0.0036741341
-0.56796174
-0.0034797505
-0.60661118
-0.0028480136
-0.64817036
-0.0021849402
-0.69280262
-0.0016364257
-0.74061529
-0.0012045662
-0.79177594
-0.0008731127
-0.84650402
-0.0006269936
-0.90504806
-0.00045020805
-0.96766649
-0.0003265934
-1.034631
-0.0002379277
-1.1062341
-0.00016955618
-1.1828064
-0.00011004335
-1.2647007
-5.2334247e-05
-1.3523236
-0.0071753389
-0.23506886
-0.0093858893
-0.2519581
0.00074228851
-0.27034243
0.011085554
-0.29242961
0.0069949755
-0.31494121
-0.0052711673
-0.33551251
-0.012389708
-0.35571764
-0.0094008686
-0.3789969
-0.0034965221
-0.40595013
-0.00075403881
-0.43540889
-0.0015959861
-0.46607315
-0.0032525222
-0.49780772
-0.0041566045
-0.53136964
-0.0040866028
-0.56735489
-0.0033316383
-0.60612755
-0.0024966526
-0.64785865
-0.0018431903
-0.69259586
-0.0013607054
-0.74045915
-0.00099875318
-0.7916503
-0.00072555297
-0.84640546
-0.0005231962
-0.90497507
-0.00037932782
-0.96761376
-0.00027932841
-1.0345896
-0.00020684891
-1.1061968
-0.00014969376
-1.1827668
-9.6485512e-05
-1.2646565
-4.5264171e-05
-1.3522783
-0.0088005845
-0.2168561
-0.010951464
-0.23350328
0.0011503066
-0.25236611
0.014486024
-0.2737429
0.0094750539
-0.29490969
-0.0062399463
-0.31397243
-0.015616698
-0.33228552
-0.011520393
-0.35359811
-0.0034195353
-0.37907388
0.00057933817
-0.40728351
-0.00058183675
-0.43642304
-0.0032295994
-0.46609608
-0.0047557103
-0.49720861
-0.004850544
-0.5306057
-0.0039350659
-0.56675146
-0.0028545447
-0.60576966
-0.0020511248
-0.64765071
-0.0015093411
-0.69244722
-0.0011239201
-0.74033398
-0.00082975176
-0.7915461
-0.00060224283
-0.84632642
-0.00043396443
-0.90492043
-0.00031639606
-0.96757669
-0.00023553445
-1.0345609
-0.00017703153
-1.1061694
-0.00012895282
-1.1827343
-8.2061739e-05
-1.2646197
-3.8306616e-05
-1.35224
-0.010436789
-0.2000526
-0.012307766
-0.2154998
0.0022835735
-0.23463655
0.018069624
-0.25594971
0.012399386
-0.27666723
-0.0075784738
-0.29357116
-0.01954196
-0.31004717
-0.014222691
-0.32958322
-0.0032486815
-0.35376897
0.0024592143
-0.38095376
0.00094052671
-0.40880588
-0.0030519089
-0.43660073
-0.0055136245
-0.46533816
-0.0058492081
-0.49620995
-0.004693997
-0.52984677
-0.0032708078
-0.5663352
-0.002249803
-0.60557098
-0.0016356023
-0.64752445
-0.0012384541
-0.69233269
-0.00093680539
-0.74022693
-0.00068931996
-0.79145903
-0.00049440618
-0.84626597
-0.00035325363
-0.90488357
-0.00025761383
-0.96755461
-0.00019354745
-1.0345444
-0.00014740935
-1.106151
-0.00010705506
-1.1827093
-6.7979919e-05
-1.2645901
-3.2085978e-05
-1.3522079
-0.012047586
-0.1842816
-0.013473754
-0.19888661
0.0045464537
-0.21776268
0.022338417
-0.23890534
0.01583346
-0.25938379
-0.0093356038
-0.2749101
-0.024270353
-0.28884277
-0.017481563
-0.3067883
-0.0029698772
-0.32986202
0.0050025886
-0.35631234
0.0031067463
-0.38311998
-0.0026599489
-0.40919784
-0.0064757736
-0.43563858
-0.0071766022
-0.46401077
-0.0056776789
-0.49522627
-0.0037577124
-0.52935986
-0.0024255907
-0.56615941
-0.0017158835
-0.6054907
-0.0013255713
-0.64743733
-0.0010401454
-0.69222935
-0.00078539385
-0.74013086
-0.00056508674
-0.79138835
-0.00039490725
-0.84622432
-0.00027720523
-0.90486398
-0.00020132182
-0.96754684
-0.00015237385
-1.0345394
-0.00011712558
-1.1061409
-8.4952612e-05
-1.1826923
-5.5494894e-05
-1.2645667
-2.7093406e-05
-1.3521808
-0.01556786
-0.19916077
-0.014404931
-0.18335042
0.0072723314
-0.20161249
0.027169153
-0.22259341
0.019441633
-0.24251351
-0.010314696
-0.2584047
-0.029868387
-0.26931207
-0.021234616
-0.28508972
-0.0024524636
-0.30730571
0.0083594396
-0.33321887
0.0060472186
-0.35925281
-0.0019827775
-0.38379715
-0.0076943418
-0.40797927
-0.0089501037
-0.43386508
-0.0069728951
-0.46271555
-0.0043351913
-0.49464879
-0.0025588708
-0.52922658
-0.0017197916
-0.5661555
-0.0013595709
-0.6054567
-0.0011286432
-0.64734884
-0.00089057084
-0.69212417
-0.0006514664
-0.74004448
-0.0004479017
-0.79133535
-0.0002996148
-0.84620191
-0.00020361533
-0.90486169
-0.00014560862
-0.9675536
-0.00011075065
-1.0345458
-8.6248555e-05
-1.1061396
-6.5190246e-05
-1.1826826
-4.5476867e-05
-1.2645483
-2.3610887e-05
-1.3521572
-0.018662004
-0.19565491
-0.017126517
-0.19643918
0.010397288
-0.18647538
0.032005537
-0.20644887
0.022442894
-0.22559467
-0.011680197
-0.24114801
-0.03604942
-0.25222366
-0.02570305
-0.26484363
-0.0016070305
-0.28593515
0.012694298
-0.31164057
0.0099198524
-0.33709151
-0.00096075461
-0.36027484
-0.0092305008
-0.38226099
-0.011302589
-0.40562678
-0.0086911904
-0.43214678
-0.0050329739
-0.46201777
-0.0026182495
-0.49458941
-0.0015998397
-0.52934653
-0.0013115201
-0.56620355
-0.001186849
-0.6053985
-0.0010037339
-0.64723567
-0.00076046502
-0.69201517
-0.00052071414
-0.73997167
-0.00033193078
-0.79130304
-0.0002051857
-0.84620034
-0.00012962708
-0.90487767
-8.9296275e-05
-0.96757506
-6.9378078e-05
-1.0345627
-5.8122738e-05
-1.1061467
-4.9376609e-05
-1.1826787
-3.8414589e-05
-1.2645335
-2.1758338e-05
-1.3521355
-0.021342703
-0.19186117
-0.019366293
-0.19341514
0.01216821
-0.19821011
0.036628587
-0.19109843
0.024705582
-0.20871156
-0.0151634
-0.22211147
-0.042898612
-0.23429882
-0.031914863
-0.24601185
-0.00059567886
-0.26585498
0.018114925
-0.29135578
0.014813663
-0.31653438
0.00049736668
-0.33854963
-0.011161599
-0.35834374
-0.014398829
-0.37916475
-0.010957705
-0.40336027
-0.005889158
-0.4312906
-0.0025652669
-0.46207075
-0.0012938346
-0.49489541
-0.0011239522
-0.5295341
-0.0011905918
-0.56619981
-0.0011209293
-0.6052813
-0.00089929958
-0.64709684
-0.00062456998
-0.69191132
-0.00038383003
-0.73991977
-0.00021277248
-0.79129545
-0.00010834855
-0.84622162
-5.4862048e-05
-0.90491211
-3.4760808e-05
-0.96760968
-3.2002585e-05
-1.0345888
-3.5482188e-05
-1.1061606
-3.8005492e-05
-1.1826791
-3.438856e-05
-1.2645208
-2.144805e-05
-1.352114
-0.023630373
-0.18803191
-0.021178441
-0.19004902
0.014782199
-0.19602912
0.039889109
-0.20147063
0.026420013
-0.19281286
-0.019639316
-0.20423564
-0.050383243
-0.21462684
-0.038650317
-0.22756337
4.9913468e-05
-0.24665744
0.024648758
-0.27238882
0.020820544
-0.29736266
0.0024048717
-0.31844189
-0.013567972
-0.33614326
-0.018411247
-0.35433132
-0.01392748
-0.37619498
-0.0069486742
-0.40230075
-0.0023513706
-0.4315045
-0.00072308629
-0.4626415
-0.00072513337
-0.49529423
-0.0011042333
-0.52962046
-0.0012243093
-0.56609643
-0.0010749618
-0.60510564
-0.00077370119
-0.64694771
-0.00046842315
-0.69182673
-0.00023577583
-0.73989676
-8.7770551e-05
-0.79131603
-1.0639357e-05
-0.84626584
1.6392651e-05
-0.90496326
1.3747969e-05
-0.96765543
-1.5914793e-06
-1.0346227
-1.8994203e-05
-1.1061796
-3.1405843e-05
-1.1826821
-3.3107734e-05
-1.2645092
-2.2415365e-05
-1.3520916
-0.025507028
-0.18431992
-0.022642614
-0.18656774
0.01801278
-0.19327961
0.043772629
-0.19991264
0.027402306
-0.20245292
-0.024533339
-0.18791884
-0.05770975
-0.19690913
-0.043888328
-0.20938883
0.00096689697
-0.22848035
0.032396883
-0.25440557
0.027908797
-0.27947707
0.0047869082
-0.2997447
-0.016597801
-0.31541206
-0.023549635
-0.33100487
-0.017751938
-0.35050686
-0.0082613459
-0.37488231
-0.0019219417
-0.40273018
0.00020935952
-0.43243694
-3.0296714e-05
-0.46333634
-0.00086774621
-0.49553072
-0.0013204602
-0.52952431
-0.0012908934
-0.5658805
-0.00098723605
-0.6048921
-0.00060396431
-0.64681217
-0.00028686201
-0.69177564
-7.5497939e-05
-0.73990904
4.009769e-05
-0.79136677
8.3587243e-05
-0.84633304
8.1071789e-05
-0.90503058
5.5026274e-05
-0.96771204
2.1059943e-05
-1.0346627
-9.1940363e-06
-1.1062018
-2.9225034e-05
-1.182686
-3.4611416e-05
-1.264497
-2.4646743e-05
-1.352067
-0.026959791
-0.18092228
-0.023767094
-0.18319544
0.021594755
-0.19014972
0.048016239
-0.19752321
0.028902142
-0.20141248
-0.029778047
-0.19720821
-0.064769514
-0.18085908
-0.048191584
-0.19260588
0.0033089809
-0.21173091
0.041692482
-0.23777595
0.036421261
-0.26291803
0.007611539
-0.2823017
-0.020452381
-0.29589012
-0.030018355
-0.30894334
-0.02261475
-0.32614206
-0.0098771296
-0.34889108
-0.0012037129
-0.37560054
0.0016179712
-0.40413879
0.0010689835
-0.43353622
-0.00041473155
-0.46378935
-0.0013946585
-0.49545652
-0.0015707262
-0.52924448
-0.0012895429
-0.56557819
-0.00081538855
-0.60468068
-0.00038378741
-0.64671524
-8.1844687e-05
-0.69176929
9.1448869e-05
-0.73996039
0.00016329723
-0.79144648
0.00016793089
-0.8464199
0.00013507206
-0.90511063
8.5561653e-05
-0.96777655
3.5178155e-05
-1.0347071
-5.8715046e-06
-1.1062252
-3.1261974e-05
-1.1826894
-3.9177116e-05
-1.2644825
-2.7821267e-05
-1.3520391
-0.027975887
-0.1780559
-0.024585045
-0.18010433
0.025275006
-0.18687569
0.052432162
-0.19456564
0.030752333
-0.19937341
-0.034729049
-0.19646148
-0.072778623
-0.1891991
-0.051826451
-0.17722421
0.006728465
-0.19602536
0.051962321
-0.22200075
0.046585594
-0.24794028
0.011438197
-0.26674469
-0.025242409
-0.27751167
-0.038026843
-0.28788163
-0.02861939
-0.3029387
-0.01185166
-0.32416753
-0.00011333071
-0.34998146
0.0036369516
-0.37761952
0.0026953345
-0.40576514
0.00033539021
-0.43428634
-0.0014115745
-0.46377244
-0.0019508269
-0.49507642
-0.0017102099
-0.52882381
-0.001138917
-0.56525466
-0.00054985164
-0.60451462
-0.00012054808
-0.64667654
0.00013645746
-0.6918143
0.00025308364
-0.74005017
0.00027403465
-0.79155258
0.00023900838
-0.84652383
0.00017588529
-0.90520095
0.00010512271
-0.96784649
4.0806436e-05
-1.0347538
-8.2053418e-06
-1.1062482
-3.7844134e-05
-1.1826907
-4.5302209e-05
-1.264465
-3.1596563e-05
-1.3520075
-0.028537445
-0.17587141
-0.025091879
-0.17754907
0.028766091
-0.18359541
0.056745448
-0.19118898
0.032943036
-0.19675634
-0.039359875
-0.19474258
-0.08043484
-0.18880526
-0.058554275
-0.18247128
0.011061487
-0.18155723
0.062838231
-0.20690127
0.057103769
-0.23251893
0.016471405
-0.25297349
-0.030561523
-0.26142557
-0.047611259
-0.26792726
-0.035844764
-0.28065625
-0.014171079
-0.30061928
0.0014543175
-0.32573518
0.0064087004
-0.35275321
0.0049881807
-0.37991236
0.0014833425
-0.4069131
-0.0013348049
-0.43436311
-0.0024538487
-0.46326942
-0.0023098251
-0.49447681
-0.0016071489
-0.52835558
-0.00082076047
-0.56498375
-0.00020865052
-0.60442651
0.00016750625
-0.64670759
0.00035021231
-0.69191143
0.00039891271
-0.74017505
0.00036758275
-0.79168115
0.00029347737
-0.84664143
0.00020282445
-0.90529866
0.00011395093
-0.96791964
3.8726647e-05
-1.0348007
-1.5942353e-05
-1.1062701
-4.6854715e-05
-1.1826891
-5.2801815e-05
-1.2644438
-3.5687536e-05
-1.3519719
-0.028579583
-0.17450873
-0.025266124
-0.17569717
0.031842908
-0.18062588
0.060708442
-0.1875584
0.035258795
-0.19350474
-0.043527521
-0.19258869
-0.087538369
-0.18763905
-0.064935181
-0.18242436
0.010850379
-0.18226017
0.074048298
-0.1927673
0.067414318
-0.21721182
0.022100349
-0.23814787
-0.036019531
-0.24751548
-0.058804718
-0.25023212
-0.04437853
-0.25939349
-0.016771386
-0.27805595
0.0036289033
-0.30279386
0.010095425
-0.3294219
0.0080994159
-0.35586445
0.0031458202
-0.38157484
-0.001122103
-0.4071258
-0.0031051778
-0.43371178
-0.0031592974
-0.46241994
-0.0022819885
-0.49380197
-0.0012304246
-0.52794592
-0.00037046866
-0.56482194
0.00017482512
-0.60443383
0.00045282467
-0.6468102
0.00054332425
-0.69205584
0.00052194541
-0.74032941
0.00043968982
-0.79182737
0.00033020283
-0.8467688
0.00021620359
-0.90540091
0.00011289328
-0.9679938
2.9954765e-05
-1.0348466
-2.7777548e-05
-1.1062892
-5.8077281e-05
-1.1826839
-6.0934715e-05
-1.2644185
-3.9789017e-05
-1.3519321
-0.17400932
-0.028347539
-0.025179496
-0.17459536
0.034391682
-0.17824594
0.064081287
-0.18399873
0.037576986
-0.1898766
-0.047187727
-0.18984453
-0.094021292
-0.18610577
-0.070857083
-0.18171715
0.011087903
-0.18266188
0.082223196
-0.19043507
0.077074104
-0.20242708
0.026900704
-0.22201218
-0.041168601
-0.2329988
-0.071837021
-0.23448318
-0.054821102
-0.23978954
-0.019678349
-0.25648653
0.006571275
-0.28099832
0.014853385
-0.30755183
0.012187462
-0.33350995
0.0054517667
-0.35817039
-0.00071733887
-0.3819796
-0.0039364912
-0.40629448
-0.0043408034
-0.43253028
-0.0032536301
-0.4614483
-0.0018232105
-0.49320918
-0.00063715242
-0.52767923
0.00014903385
-0.56479615
0.00055939256
-0.6045404
0.00070965387
-0.64697653
0.00070494419
-0.69223884
0.00061667173
-0.7405064
0.00048900415
-0.79198617
0.00034975685
-0.84690236
0.00021704756
-0.90550506
0.00010326801
-0.96806712
1.5461948e-05
-1.0348899
-4.2640436e-05
-1.1063046
-7.0423817e-05
-1.1826744
-6.9169127e-05
-1.2643891
-4.3720136e-05
-1.3518883
-0.17418458
-0.025004229
-0.17454454
-0.027809879
0.03606821
-0.17627189
0.066747755
-0.18091241
0.039710689
-0.18613243
-0.050202351
-0.18686197
-0.099656333
-0.18420949
-0.076279073
-0.18068378
0.011750855
-0.1823801
0.09099139
-0.19143007
0.087075065
-0.20043603
0.02986647
-0.20539285
-0.047904987
-0.21527579
-0.086367223
-0.2184686
-0.067530183
-0.2217741
-0.023551855
-0.23591604
0.010488334
-0.26040359
0.020849865
-0.2869948
0.017391527
-0.31275589
0.0085456611
-0.33660384
-5.9588159e-05
-0.35882814
-0.0049777087
-0.38093839
-0.0059518364
-0.40468345
-0.0046279672
-0.43115594
-0.0026758177
-0.4605957
-0.0010326556
-0.49281368
7.3567658e-05
-0.52760377
0.00067240488
-0.56490916
0.00090464008
-0.60473539
0.00092235421
-0.64719394
0.0008283135
-0.69245048
0.00068172324
-0.74069911
0.00051654909
-0.79215296
0.00035355235
-0.84703886
0.00020702846
-0.90560882
8.6457243e-05
-0.96813811
-3.0206658e-06
-1.0349295
-5.9398218e-05
-1.1063157
-8.3078975e-05
-1.1826605
-7.7217618e-05
-1.2643557
-4.7358401e-05
-1.351841
-0.17494863
0.036832256
-0.17471045
-0.024838315
-0.1761553
-0.027020942
0.068557587
-0.17808172
0.041471583
-0.1826733
-0.052482469
-0.18385231
-0.10428399
-0.18223432
-0.081000992
-0.17948757
0.012712581
-0.18164551
0.10020776
-0.19159647
0.097636635
-0.20199164
0.037177011
-0.20774657
-0.056232397
-0.19706544
-0.10110278
-0.20054023
-0.081604969
-0.20439381
-0.028694593
-0.21663136
0.015282602
-0.2407103
0.028226497
-0.26778022
0.023857009
-0.29346028
0.012555101
-0.31676533
0.00094592635
-0.33760936
-0.0062739293
-0.35753192
-0.008114187
-0.37877604
-0.0065296287
-0.40278179
-0.003881624
-0.42995013
-0.0015939699
-0.46003438
-6.113057e-05
-0.49267898
0.00079617368
-0.52772753
0.0011376152
-0.56514213
0.0011839082
-0.60499694
0.0010812993
-0.64744692
0.00091223623
-0.692681
0.00071890843
-0.74090147
0.00052436962
-0.79232378
0.00034373556
-0.84717557
0.00018796701
-0.90571033
6.4097646e-05
-0.96820523
-2.4310571e-05
-1.0349646
-7.6915124e-05
-1.1063218
-9.5580268e-05
-1.1826421
-8.4702521e-05
-1.2643183
-5.0563274e-05
-1.3517904
-0.17585355
0.069462506
-0.17456241
0.036684212
-0.17638129
-0.024612325
-0.17856477
-0.025952638
0.042899705
-0.17950984
-0.054011642
-0.18114413
-0.10772775
-0.18040855
-0.08486325
-0.17837206
0.013881181
-0.18065617
0.10951732
-0.19095507
0.10858554
-0.20254538
0.045206264
-0.2100209
-0.05897421
-0.20500476
-0.11462767
-0.18354056
-0.094266114
-0.18787908
-0.034255933
-0.19883247
0.020835092
-0.22218385
0.037180262
-0.24966407
0.031650536
-0.27557375
0.017639451
-0.29854463
0.0023766373
-0.31819604
-0.0078541223
-0.33602916
-0.010963579
-0.35468253
-0.0091164423
-0.37618922
-0.005547577
-0.40111584
-0.0023767978
-0.42916731
-0.0002572875
-0.45983822
0.00093549411
-0.4928183
0.0014272185
-0.52801714
0.0015050448
-0.56546327
0.0013862435
-0.60530188
0.0011865873
-0.64772127
0.00095996752
-0.69292205
0.00073135523
-0.74110846
0.00051526801
-0.79249531
0.00032261774
-0.84731022
0.00016181751
-0.90580805
3.7954668e-05
-0.9682675
-4.7051084e-05
-1.0349944
-9.4381835e-05
-1.106323
-0.00010740306
-1.1826194
-9.1398263e-05
-1.2642775
-5.334319e-05
-1.3517371
-0.17689841
0.043944562
-0.17473473
0.069634829
-0.17545505
0.035757969
-0.17898964
-0.024187459
-0.18155578
-0.024632905
-0.05453878
-0.1789827
-0.10991113
-0.17896075
-0.08773039
-0.17754141
0.015215704
-0.17970658
0.11850146
-0.1896403
0.11948565
-0.20185518
0.053243453
-0.21058257
-0.060886762
-0.20810835
-0.12629213
-0.19334029
-0.1050651
-0.17274157
-0.039408642
-0.18272638
0.026823071
-0.20482045
0.047717009
-0.2327206
0.040915555
-0.25892909
0.023876042
-0.28181034
0.0043614405
-0.30052943
-0.0097666088
-0.31628356
-0.01467664
-0.3323161
-0.012562784
-0.35123619
-0.0078035122
-0.37393329
-0.0034432525
-0.40004938
-0.00051951978
-0.42890507
0.0011086969
-0.46001143
0.001798833
-0.49318991
0.0019095891
-0.52842168
0.0017603326
-0.56583736
0.0015144317
-0.60562973
0.0012441939
-0.6480055
0.00097644102
-0.69316714
0.00072291191
-0.7413161
0.00049222293
-0.79266491
0.000292603
-0.84744101
0.00013059222
-0.90590069
9.5929352e-06
-0.96832414
-7.0062492e-05
-1.0350188
-0.00011122548
-1.1063192
-0.00011815212
-1.1825926
-9.7322124e-05
-1.2642335
-5.5657843e-05
-1.3516814
-0.17754046
-0.053896723
-0.17536882
0.04457865
-0.17512022
0.069299999
-0.17731441
0.034082739
-0.18219789
-0.023545342
-0.18514502
-0.023109916
-0.11093168
-0.17796215
-0.089592441
-0.1770987
0.016638755
-0.17896446
0.12673325
-0.18793837
0.12985596
-0.20001062
0.061597337
-0.21020906
-0.062748314
-0.20872101
-0.13797813
-0.19642235
-0.12009951
-0.17830588
-0.044004024
-0.16814618
0.033002366
-0.18890567
0.05967512
-0.21677856
0.051647725
-0.24345277
0.031377297
-0.26643034
0.0069750447
-0.28442394
-0.012023389
-0.29827265
-0.019437317
-0.31152288
-0.017094451
-0.32778444
-0.010785118
-0.34825458
-0.0048588629
-0.37251768
-0.00085678841
-0.39971211
0.0013474987
-0.42914388
0.0022845457
-0.46049714
0.0024316067
-0.49371193
0.0022280543
-0.5288894
0.001910362
-0.56623329
0.0015782741
-0.60596381
0.0012619738
-0.64829103
0.00096730699
-0.69341154
0.00069758134
-0.74152146
0.00045822897
-0.79283054
0.00025606469
-0.84756648
9.6192415e-05
-0.90598729
-1.9518572e-05
-0.96837468
-9.2596314e-05
-1.0350374
-0.00012686603
-1.1063105
-0.00012780775
-1.1825622
-0.00010228924
-1.2641869
-5.7525054e-05
-1.3516239
-0.17776763
-0.11070452
-0.1771935
-0.052072042
-0.17534665
0.044805084
-0.17604808
0.06803367
-0.17990164
0.031786489
-0.18592991
-0.022760446
-0.18908918
-0.021502779
-0.090439427
-0.17711516
0.017814417
-0.17827436
0.13388336
-0.18611457
0.13922811
-0.19731053
0.069714213
-0.20812749
-0.064110492
-0.20884688
-0.1490595
-0.19763965
-0.13489339
-0.18162847
-0.058465748
-0.16384416
0.039286851
-0.17443067
0.072494662
-0.20172521
0.063857138
-0.22898798
0.04005671
-0.25213218
0.010270093
-0.26972539
-0.014711994
-0.28173534
-0.025475001
-0.29223497
-0.022923644
-0.30569369
-0.014653712
-0.32391584
-0.0066870002
-0.34642645
-0.0012673293
-0.37210714
0.0016883214
-0.40005294
0.0029306914
-0.42979002
0.0031174815
-0.46118301
0.002824097
-0.49430797
0.0023958816
-0.52937492
0.0019723855
-0.5666274
0.0015909053
-0.60629274
0.0012485218
-0.64857225
0.00093820538
-0.69365216
0.00065919812
-0.74172243
0.00041613497
-0.79299061
0.00021520591
-0.84768549
6.0229662e-05
-0.90606704
-4.8526518e-05
-0.96841875
-0.00011402088
-1.0350502
-0.00014113998
-1.1062972
-0.0001361456
-1.1825283
-0.0001064287
-1.264138
-5.9000703e-05
-1.3515649
-0.17817882
-0.090028239
-0.17913061
-0.10876741
-0.1778432
-0.049575501
-0.17602087
0.044777875
-0.17777533
0.065907362
-0.18303777
0.028894342
-0.18990438
-0.021945243
-0.19307817
-0.019968793
0.019132702
-0.17843345
0.13965948
-0.18405048
0.14709766
-0.19398412
0.077340558
-0.20493687
-0.065207363
-0.20703062
-0.15979458
-0.1981118
-0.14887954
-0.1836535
-0.072755606
-0.16733861
0.035027161
-0.15958447
0.086332525
-0.18826853
0.077344709
-0.21521278
0.050018923
-0.23895019
0.014153246
-0.25601534
-0.017985001
-0.26645239
-0.033038577
-0.27417176
-0.03032725
-0.28483136
-0.01955239
-0.30079501
-0.0089789268
-0.32162392
-0.0017502939
-0.34594348
0.002179816
-0.37259863
0.0037990094
-0.40092126
0.0040227701
-0.43069531
0.0035960653
-0.46195498
0.0030011941
-0.49491329
0.002441509
-0.52984405
0.001967735
-0.56700423
0.0015658548
-0.60661007
0.0012120564
-0.6488461
0.0008942098
-0.69388717
0.0006112251
-0.74191752
0.00036851515
-0.79314392
0.00017192688
-0.84779719
2.3956864e-05
-0.90613952
-7.6612966e-05
-0.96845616
-0.00013393885
-1.0350574
-0.00015386144
-1.1062794
-0.00014324086
-1.1824915
-0.00010977773
-1.2640872
-6.0094819e-05
-1.3515048
-0.17969187
0.020645755
-0.18094606
-0.088212791
-0.18109224
-0.10551836
-0.1795919
-0.04600447
-0.17727935
0.044281889
-0.18007996
0.062949555
-0.18647836
0.025468318
-0.19380902
-0.021214398
-0.19695524
-0.018670909
0.14379083
-0.1825648
0.15343083
-0.19038365
0.083971135
-0.2006147
-0.065919436
-0.2042248
-0.16960455
-0.19722065
-0.16212298
-0.18486836
-0.086831351
-0.16957775
0.029796567
-0.16210802
0.095226355
-0.1684783
0.09192466
-0.20284848
0.061332712
-0.22652657
0.018931423
-0.24372837
-0.021977081
-0.25202326