/*--------------------------------*- C++ -*----------------------------------*\
| =========                 |                                                 |
| \\      /  F ield         | OpenFOAM: The Open Source CFD Toolbox           |
|  \\    /   O peration     | Version:  5.0                                   |
|   \\  /    A nd           | Web:      www.OpenFOAM.org                      |
|    \\/     M anipulation  |                                                 |
\*---------------------------------------------------------------------------*/
FoamFile
{
    version     2.0;
    format      ascii;
    class       surfaceScalarField;
    location    "140";
    object      phi_0;
}
// * * * * * * * * * * * * * * * * * * * * * * * * * * * * * * * * * * * * * //

dimensions      [0 3 -1 0 0 0 0];

internalField   nonuniform List<scalar> 
18820
(
-0.00027891785
-1.3568777
-0.00053880658
-1.2689502
-0.00027186295
-1.3566059
-0.00077942217
-1.1868174
-0.00052444287
-1.2686976
-0.00026904566
-1.3563368
-0.0010005238
-1.1100684
-0.00075709834
-1.1865847
-0.00051869976
-1.268448
-0.0002747168
-1.3560621
-0.0012011985
-1.0383346
-0.00096930717
-1.1098562
-0.00074888737
-1.1863546
-0.00052989936
-1.2681928
-0.00028001483
-1.3557821
-0.0013799084
-0.97126783
-0.0011600336
-1.0381438
-0.00095899944
-1.1096461
-0.00076620421
-1.1861183
-0.00054118268
-1.2679316
-0.00028143533
-1.3555007
-0.0015348205
-0.90855149
-0.0013275641
-0.9711003
-0.0011482967
-1.0379545
-0.00098319241
-1.1094291
-0.00078454469
-1.1858749
-0.00054592715
-1.2676671
-0.000273612
-1.355227
-0.0016636471
-0.84989473
-0.0014704733
-0.90840858
-0.0013154312
-0.97093317
-0.0011805363
-1.0377572
-0.00100999
-1.1092037
-0.00079503293
-1.1856258
-0.00053271649
-1.267408
-0.00026004461
-1.354967
-0.0017640338
-0.79502995
-0.0015880645
-0.84977714
-0.0014589811
-0.90826503
-0.0013576829
-0.97075602
-0.0012172084
-1.03755
-0.001029479
-1.1089692
-0.00077933487
-1.1853792
-0.00050765648
-1.2671604
-0.00024586617
-1.3547211
-0.0018345145
-0.74370655
-0.001681574
-0.79493644
-0.0015784878
-0.84965763
-0.0015133449
-0.90810936
-0.0014059498
-0.97056728
-0.0012494381
-1.03733
-0.0010151633
-1.1087334
-0.00074565796
-1.1851412
-0.00048048061
-1.2669258
-0.00023527916
-1.3544858
-0.0018789785
-0.69569424
-0.0017544997
-0.74363362
-0.0016763289
-0.7948386
-0.0016458891
-0.84952508
-0.001575271
-0.90794004
-0.001455336
-0.97036138
-0.0012408161
-1.0371044
-0.00097686811
-1.1085022
-0.00070753277
-1.1849141
-0.00045992872
-1.2667011
-0.00022903798
-1.3542568
-0.0018944987
-0.65077563
-0.0018157566
-0.69563298
-0.0017576792
-0.74355227
-0.0017532383
-0.79473125
-0.0017232871
-0.84937707
-0.0016474207
-0.90774796
-0.0014569043
-0.97014529
-0.001202694
-1.0368785
-0.00093035431
-1.1082794
-0.00067866674
-1.1846954
-0.00044768504
-1.2664825
-0.0002248944
-1.3540319
-0.0018941249
-0.6087409
-0.0018752135
-0.65071617
-0.0018265982
-0.69556406
-0.0018310953
-0.74347441
-0.0018457188
-0.79460881
-0.0018246881
-0.8491998
-0.0016646062
-0.90754026
-0.0014237563
-0.96992423
-0.0011512573
-1.0366576
-0.00089481459
-1.1080632
-0.00066165546
-1.1844814
-0.00043971014
-1.2662677
-0.00021919968
-1.3538127
-0.0018838382
-0.56940376
-0.0019341626
-0.60868195
-0.0018778081
-0.65066496
-0.0018676957
-0.69552746
-0.0019339637
-0.74338617
-0.00198342
-0.79445008
-0.0018656475
-0.84899876
-0.0016411114
-0.9073229
-0.0013709205
-0.96970457
-0.0011112077
-1.0364412
-0.00087444318
-1.1078504
-0.00065040555
-1.1842707
-0.00042920943
-1.2660577
-0.00020891054
-1.3536038
-0.0018765268
-0.5325906
-0.0019924483
-0.56934548
-0.0018985213
-0.60866124
-0.0018510217
-0.65068164
-0.0019770422
-0.69548438
-0.0021198107
-0.74324978
-0.0020635025
-0.79425223
-0.0018569903
-0.84878288
-0.0015894496
-0.90710437
-0.001329185
-0.96948659
-0.0010887978
-1.0362269
-0.00086095803
-1.1076399
-0.00063536801
-1.1840646
-0.00040999092
-1.2658566
-0.0001929635
-1.3534108
-0.0018642589
-0.49815462
-0.0020668189
-0.53251623
-0.0018876263
-0.56935637
-0.0017895875
-0.60872267
-0.0019738649
-0.65068481
-0.0022369227
-0.69536727
-0.0022668125
-0.74304647
-0.0020766209
-0.7940326
-0.0018072263
-0.84856511
-0.0015485558
-0.906885
-0.0013067131
-0.96926868
-0.0010744121
-1.0360134
-0.00084182046
-1.1074334
-0.00060793366
-1.1838666
-0.00037945918
-1.2656701
-0.00017250436
-1.3532383
-0.00189969
-0.46590771
-0.0021769704
-0.49804447
-0.0018471169
-0.53255674
-0.0016689155
-0.56947704
-0.0019243922
-0.60877214
-0.0023404804
-0.65058126
-0.0024867645
-0.69514732
-0.0023074911
-0.7428156
-0.0020252449
-0.79381458
-0.001767965
-0.8483457
-0.0015288633
-0.90666285
-0.0012934274
-0.96904966
-0.0010522713
-1.035803
-0.00080646352
-1.1072349
-0.00056404564
-1.183682
-0.00033957512
-1.265503
-0.00015023071
-1.3530881
-0.001931316
-0.43576305
-0.0023587527
-0.46572592
-0.0017971885
-0.4980944
-0.0014518506
-0.5327738
-0.0018269805
-0.56957446
-0.0024302168
-0.60868241
-0.0027353022
-0.65033272
-0.002558047
-0.69489676
-0.0022435696
-0.74259727
-0.0019842867
-0.79359826
-0.0017542108
-0.84812035
-0.0015199113
-0.90643637
-0.0012701362
-0.9688318
-0.0010095704
-1.0355999
-0.00075013707
-1.1070488
-0.00050552036
-1.1835161
-0.00029563739
-1.2653576
-0.00012909498
-1.352959
-0.002093877
-0.4074846
-0.0026179173
-0.43550389
-0.0016956072
-0.46582751
-0.0011171947
-0.49842905
-0.0016522311
-0.53294855
-0.0025222225
-0.56948245
-0.0030229578
-0.60839475
-0.002842178
-0.65004859
-0.0024632335
-0.6946771
-0.0021922354
-0.74238933
-0.0019792028
-0.79337327
-0.001754417
-0.84788584
-0.0014986395
-0.90620786
-0.0012214635
-0.9686199
-0.00094102341
-1.035409
-0.00067418021
-1.1068801
-0.00043960972
-1.1833721
-0.00025357342
-1.2652331
-0.00011113814
-1.3528479
-0.0022262374
-0.38110132
-0.0030290711
-0.40707344
-0.0016148389
-0.43558465
-0.00062722985
-0.46631747
-0.0013613635
-0.49871992
-0.0026361438
-0.53283463
-0.0033681412
-0.56913727
-0.0031769359
-0.60805999
-0.002683917
-0.6498279
-0.0023839297
-0.6944854
-0.0021972277
-0.7421713
-0.0019954733
-0.79313221
-0.0017405632
-0.84764392
-0.0014462198
-0.90598311
-0.0011410252
-0.9684199
-0.00084818304
-1.035235
-0.00058621745
-1.1067335
-0.00037561016
-1.1832501
-0.00021739723
-1.2651269
-9.7036206e-05
-1.3527508
-0.0025749274
-0.35621334
-0.0035563796
-0.38057402
-0.0014322832
-0.407256
5.6982978e-05
-0.43626887
-0.00092339326
-0.46675544
-0.0027675594
-0.49858851
-0.0038138112
-0.53238896
-0.0035685491
-0.56874565
-0.0029077744
-0.60783614
-0.0025451356
-0.6496667
-0.0023957934
-0.69428684
-0.0022389782
-0.7419278
-0.0019981903
-0.79287458
-0.0016881558
-0.84740198
-0.0013541348
-0.90577
-0.0010305259
-0.96823756
-0.00073847272
-1.0350827
-0.0004987988
-1.1066103
-0.00032022893
-1.1831472
-0.00018839206
-1.2650355
-8.6356236e-05
-1.3526645
-0.0028557765
-0.33305254
-0.0042524865
-0.35551724
-0.0013269254
-0.38067937
0.0010082299
-0.40820725
-0.0002866641
-0.4369056
-0.0029399147
-0.46658309
-0.0044109529
-0.49799137
-0.0040397354
-0.53191778
-0.0031142384
-0.56853919
-0.0026496732
-0.6077316
-0.0025541084
-0.64950838
-0.0024760798
-0.69404974
-0.002273516
-0.74165247
-0.0019524766
-0.79261026
-0.0015847351
-0.84717138
-0.0012243608
-0.90557616
-0.00089817676
-0.96807785
-0.00062649427
-1.034955
-0.00042223755
-1.1065083
-0.00027559864
-1.18306
-0.00016587441
-1.264956
-7.8134955e-05
-1.3525863
-0.0034041654
-0.31106547
-0.0050307236
-0.3322743
-0.0010756468
-0.35576852
0.0022225604
-0.3818937
0.00056771502
-0.40906163
-0.0031520374
-0.43669347
-0.0052250192
-0.46576902
-0.0046485078
-0.49738259
-0.0032909658
-0.53174105
-0.0026687006
-0.56852016
-0.0026380052
-0.6076477
-0.0026931652
-0.6492913
-0.002568769
-0.69375448
-0.0022465956
-0.74135835
-0.0018384526
-0.79235654
-0.0014328767
-0.84696287
-0.0010671078
-0.90540723
-0.00076021246
-0.96794414
-0.00052686496
-1.0348504
-0.0003601443
-1.1064238
-0.00024043036
-1.1829855
-0.00014839329
-1.2648857
-7.1364235e-05
-1.352515
-0.0039922819
-0.29023274
-0.0060315086
-0.31006468
-0.0009658294
-0.33238412
0.0038465565
-0.35739251
0.00173008
-0.38305607
-0.0034471408
-0.40876652
-0.0063318436
-0.43558665
-0.0054419106
-0.46497562
-0.0034440936
-0.49722946
-0.0025589686
-0.53185078
-0.0026392368
-0.56851893
-0.0028746138
-0.60746625
-0.0028885415
-0.64897152
-0.0025825717
-0.69341851
-0.0021234976
-0.74107331
-0.0016595604
-0.79212986
-0.0012465289
-0.84678344
-0.00090122201
-0.90526622
-0.00063596327
-0.96783504
-0.00044492634
-1.0347656
-0.00031087658
-1.1063533
-0.00021230841
-1.1829216
-0.0001343754
-1.2648227
-6.5206443e-05
-1.3524498
-0.0049045708
-0.27082243
-0.0070623185
-0.28920193
-0.00068044225
-0.31035007
0.0057437679
-0.33428133
0.0032087407
-0.35887117
-0.0037926569
-0.38271055
-0.0078103754
-0.40728799
-0.0064807943
-0.43454777
-0.0035571732
-0.46486254
-0.0022540521
-0.49753438
-0.0025182581
-0.53197176
-0.0030197789
-0.56837377
-0.0032418202
-0.60711297
-0.0029789369
-0.64857516
-0.0024529816
-0.69308902
-0.0019087813
-0.74082408
-0.0014369279
-0.79193946
-0.0010497609
-0.84663491
-0.00075078978
-0.9051514
-0.00053258737
-0.96774738
-0.00037900369
-1.0346975
-0.00027082607
-1.1062948
-0.00018910657
-1.1828668
-0.00012212984
-1.2647658
-5.9034749e-05
-1.3523907
-0.0056285498
-0.25324677
-0.0082877204
-0.26959703
-0.0003345779
-0.2895478
0.0081444709
-0.31275077
0.0050832874
-0.33615588
-0.0043329393
-0.35833089
-0.0097646797
-0.38075625
-0.0078215704
-0.40594721
-0.0036337634
-0.43447118
-0.0016958596
-0.46542073
-0.0021827836
-0.49786986
-0.0031340214
-0.53185752
-0.0036381914
-0.56797739
-0.0034644675
-0.60662744
-0.0028461666
-0.64818197
-0.0021866824
-0.69281112
-0.0016377388
-0.74062327
-0.001204414
-0.79178481
-0.00087161794
-0.84651408
-0.00062484033
-0.90505914
-0.00044799846
-0.96767838
-0.00032474825
-1.0346436
-0.00023668819
-1.1062472
-0.00016888758
-1.1828201
-0.00010994409
-1.2647149
-5.2486328e-05
-1.3523383
-0.0069912447
-0.23512626
-0.0095598606
-0.25197463
0.00032783131
-0.27025944
0.010940545
-0.29234387
0.0072589708
-0.31492646
-0.004889304
-0.33559952
-0.012290771
-0.3558048
-0.0095619248
-0.37901589
-0.0036718279
-0.40590915
-0.00080915974
-0.43535788
-0.0015517982
-0.46605171
-0.0031892022
-0.49781467
-0.0041055292
-0.53139018
-0.004065698
-0.56737616
-0.0033321177
-0.60614149
-0.0025018782
-0.64786678
-0.0018463876
-0.69260247
-0.0013609239
-0.74046676
-0.00099687285
-0.79165955
-0.00072280603
-0.84641611
-0.00052042404
-0.90498672
-0.00037698886
-0.96762614
-0.00027769526
-1.0346026
-0.00020595298
-1.1062102
-0.00014945691
-1.1827806
-9.6749038e-05
-1.2646706
-4.5575749e-05
-1.3522927
-0.0086199618
-0.21690963
-0.011169728
-0.2335164
0.00064317731
-0.25228998
0.014319806
-0.2736387
0.0098109464
-0.29489585
-0.0057331806
-0.31408258
-0.01549407
-0.33239622
-0.011744398
-0.35362233
-0.0036695278
-0.37901819
0.0004938074
-0.40721212
-0.00051999634
-0.43638968
-0.0031360151
-0.4661049
-0.0046831538
-0.49723705
-0.0048219774
-0.5306339
-0.0039394238
-0.56676886
-0.0028659377
-0.60577743
-0.0020577925
-0.64765537
-0.0015104427
-0.69245296
-0.0011215911
-0.74034205
-0.00082619943
-0.79155616
-0.00059873588
-0.8463378
-0.00043103503
-0.90493267
-0.0003143046
-0.96758953
-0.00023435099
-1.0345742
-0.00017663477
-1.106183
-0.00012922044
-1.1827481
-8.2643265e-05
-1.2646336
-3.8732433e-05
-1.3522539
-0.010268866
-0.20010025
-0.012592899
-0.21548646
0.0016618436
-0.23453506
0.017874051
-0.25584422
0.012826328
-0.27665408
-0.0069189832
-0.29371004
-0.019393738
-0.31018291
-0.014525495
-0.32961512
-0.0035970934
-0.35369476
0.0023323961
-0.38085678
0.0010250886
-0.4087572
-0.0029142307
-0.43661146
-0.0054100096
-0.46537805
-0.0058102409
-0.49624879
-0.0047044248
-0.5298689
-0.0032921874
-0.56634261
-0.002262447
-0.60557278
-0.0016384509
-0.64752737
-0.0012356008
-0.69233895
-0.00093211203
-0.74023613
-0.00068479616
-0.7914701
-0.00049072013
-0.84627812
-0.00035060298
-0.90489637
-0.00025602653
-0.96756786
-0.00019293928
-1.0345579
-0.00014759663
-1.1061646
-0.00010781583
-1.1827229
-6.8779292e-05
-1.2646035
-3.2573274e-05
-1.3522214
-0.011899629
-0.18432473
-0.013832234
-0.19886091
0.0037949424
-0.21761956
0.022124867
-0.23878588
0.016323073
-0.25934097
-0.0084972986
-0.27507577
-0.024104176
-0.28899961
-0.017882602
-0.30682581
-0.0034474564
-0.32976476
0.0048221664
-0.35618453
0.0032202189
-0.38305191
-0.0024608909
-0.40921054
-0.0063273073
-0.43569416
-0.0071234722
-0.46406482
-0.0056978932
-0.49525532
-0.0037942558
-0.52936683
-0.0024479426
-0.56615711
-0.0017218027
-0.60548943
-0.0013220661
-0.6474409
-0.0010337322
-0.69223733
-0.00077935684
-0.74014157
-0.00056033766
-0.79140048
-0.00039153114
-0.84623719
-0.00027511108
-0.90487729
-0.0002004121
-0.96756038
-0.0001524646
-1.034553
-0.00011795357
-1.1061545
-8.6095621e-05
-1.1827056
-5.6414024e-05
-1.2645797
-2.759739e-05
-1.3521938
-0.015446314
-0.19921189
-0.014844443
-0.18331252
0.0064101028
-0.20147607
0.026975363
-0.22247005
0.02001701
-0.24247982
-0.0092686872
-0.25856958
-0.029688569
-0.26949137
-0.021751651
-0.28513056
-0.0030951192
-0.30717814
0.008111587
-0.33305418
0.0061974147
-0.35916173
-0.0017010759
-0.38381173
-0.0074823772
-0.40805547
-0.008877537
-0.4339401
-0.0070082441
-0.46275446
-0.0043946225
-0.49465495
-0.0025962632
-0.52921851
-0.001730364
-0.56614855
-0.0013550963
-0.6054564
-0.0011194624
-0.64735517
-0.00088209066
-0.69213459
-0.00064510643
-0.7400568
-0.00044354756
-0.79134847
-0.00029691104
-0.84621539
-0.00020234813
-0.90487535
-0.00014555972
-0.96756729
-0.00011160959
-1.0345593
-8.7634868e-05
-1.1061529
-6.6509688e-05
-1.1826955
-4.6432416e-05
-1.2645608
-2.4096655e-05
-1.3521697
-0.018570951
-0.19570985
-0.017656925
-0.19639941
0.0094345649
-0.18633698
0.031840172
-0.20634088
0.023185593
-0.22563864
-0.010405922
-0.24134258
-0.035803392
-0.25245476
-0.026344691
-0.26489833
-0.0024538294
-0.28577185
0.012367574
-0.31143413
0.010115641
-0.3369724
-0.00057116376
-0.36029164
-0.0089302474
-0.38236386
-0.011203736
-0.40572927
-0.0087490619
-0.43219928
-0.0051263153
-0.46202277
-0.0026780463
-0.49457317
-0.0016179962
-0.52933088
-0.0013054066
-0.56619824
-0.0011730321
-0.60540283
-0.00099138098
-0.64724588
-0.00075165853
-0.69202804
-0.00051502226
-0.73998533
-0.00032850676
-0.79131687
-0.00020353252
-0.8462142
-0.00012941277
-0.9048915
-9.0138913e-05
-0.96758876
-7.0883522e-05
-1.0345761
-5.9780685e-05
-1.1061597
-5.0765988e-05
-1.1826912
-3.9347739e-05
-1.2645456
-2.2200223e-05
-1.3521475
-0.021284536
-0.19191851
-0.019996342
-0.19337043
0.01109316
-0.19805801
0.036508677
-0.19100548
0.02562185
-0.20877714
-0.01367516
-0.2223694
-0.042575683
-0.23457029
-0.032686366
-0.24611308
-0.0016989616
-0.2656532
0.017700262
-0.29110453
0.015066893
-0.31638538
0.0010249857
-0.33856855
-0.010741744
-0.35848014
-0.014264829
-0.37930277
-0.011047787
-0.40343055
-0.0060315988
-0.431294
-0.0026576426
-0.46204318
-0.0013236791
-0.49486749
-0.0011155012
-0.52952078
-0.0011703833
-0.56620089
-0.001102998
-0.60529121
-0.00088685398
-0.64711068
-0.00061702504
-0.69192604
-0.00037956096
-0.73993427
-0.00021073509
-0.79130967
-0.0001079835
-0.84623563
-5.5673727e-05
-0.90492597
-3.6310567e-05
-0.96762333
-3.3892922e-05
-1.034602
-3.7244862e-05
-1.1061732
-3.9367876e-05
-1.1826911
-3.5269862e-05
-1.2645325
-2.183903e-05
-1.3521256
-0.023604841
-0.18809118
-0.02191303
-0.19000182
0.013588752
-0.19586602
0.039811035
-0.20136036
0.027512493
-0.19289613
-0.017951462
-0.20450083
-0.05007348
-0.2148716
-0.039577551
-0.2276791
-0.0013904136
-0.24642163
0.024140597
-0.27209354
0.021145515
-0.29718316
0.0031058382
-0.31846624
-0.01298864
-0.33632166
-0.018231909
-0.35451306
-0.014062516
-0.37628804
-0.007160091
-0.40230206
-0.002490005
-0.43146164
-0.00076982822
-0.46259703
-0.0007139476
-0.49526904
-0.0010740359
-0.52961713
-0.001198597
-0.56610529
-0.0010570381
-0.60512103
-0.00076347381
-0.64696424
-0.00046315776
-0.69184244
-0.00023343055
-0.73991158
-8.7329153e-05
-0.79133032
-1.1443913e-05
-0.84627986
1.4748828e-05
-0.90497702
1.1663693e-05
-0.96766889
-3.5769977e-06
-1.0346357
-2.0738514e-05
-1.1061918
-3.2676624e-05
-1.1826937
-3.3912446e-05
-1.2645205
-2.2758494e-05
-1.3521029
-0.025512029
-0.18437873
-0.023482114
-0.1865221
0.016698913
-0.19311199
0.043747486
-0.19980247
0.028654681
-0.20250255
-0.022662881
-0.18818471
-0.057448043
-0.19712627
-0.045001273
-0.20944788
-0.00087208935
-0.22819743
0.031778116
-0.25405915
0.028321446
-0.27926947
0.0057000947
-0.29977741
-0.015811144
-0.31564373
-0.023313224
-0.33124034
-0.017948125
-0.35062745
-0.0085675653
-0.37488056
-0.0021245837
-0.40266748
0.00013896051
-0.43237042
-1.5654704e-05
-0.46329532
-0.00082244752
-0.49552063
-0.0012823016
-0.52953343
-0.0012642367
-0.56589809
-0.00097289999
-0.6049116
-0.00059744428
-0.64682995
-0.00028439204
-0.69179148
-7.5208725e-05
-0.7399237
3.9155681e-05
-0.79138092
8.1888659e-05
-0.846347
7.8925537e-05
-0.90504429
5.2779058e-05
-0.96772525
1.8986963e-05
-1.0346754
-1.0823768e-05
-1.1062137
-3.0377537e-05
-1.1826973
-3.5298923e-05
-1.2645079
-2.4936608e-05
-1.3520779
-0.026991752
-0.18097771
-0.024707635
-0.18315321
0.020162252
-0.18998543
0.048051185
-0.19741568
0.030318275
-0.20146607
-0.027700961
-0.19746447
-0.064571528
-0.18106122
-0.049499005
-0.19262854
0.001089018
-0.21140899
0.04092237
-0.23734168
0.036924022
-0.26266173
0.0087745164
-0.28234389
-0.019399628
-0.29618893
-0.029715504
-0.30924145
-0.022892596
-0.32629587
-0.01030995
-0.34888507
-0.0014928107
-0.37551234
0.0015154678
-0.40404398
0.0010882898
-0.43347437
-0.00034806495
-0.4637697
-0.0013361517
-0.49546678
-0.0015315894
-0.52926607
-0.0012685952
-0.5656024
-0.00080719681
-0.60470185
-0.00038153866
-0.6467328
-8.2150629e-05
-0.69178454
9.0068426e-05
-0.73997461
0.0001613932
-0.79146043
0.00016566848
-0.84643375
0.00013267485
-0.90512418
8.3295206e-05
-0.96778955
3.322335e-05
-1.0347194
-7.3427893e-06
-1.1062367
-3.2264341e-05
-1.1827003
-3.9751198e-05
-1.2644931
-2.8070865e-05
-1.3520499
-0.028030738
-0.1781048
-0.025616567
-0.18006878
0.023731762
-0.18672272
0.052525681
-0.19445993
0.032334227
-0.19943164
-0.03244084
-0.19672619
-0.072590157
-0.18944584
-0.053350786
-0.17720944
0.004124139
-0.19566366
0.051067498
-0.22155412
0.047209841
-0.2476275
0.012879262
-0.26676647
-0.023867239
-0.27787628
-0.037654638
-0.2882498
-0.029005936
-0.30312811
-0.01245027
-0.32415555
-0.00051634236
-0.34986154
0.0034924219
-0.37748929
0.0027206124
-0.40567631
0.00043143808
-0.43425387
-0.0013226096
-0.46378324
-0.0018932627
-0.49510511
-0.0016798666
-0.5288548
-0.0011282341
-0.56528136
-0.00054844203
-0.60453494
-0.00012225871
-0.6466927
0.00013403607
-0.69182851
0.00025065899
-0.74006388
0.00027157357
-0.79156633
0.00023649515
-0.84653757
0.00017347795
-0.90521437
0.00010295602
-0.96785929
3.9027368e-05
-1.0347658
-9.5124298e-06
-1.1062595
-3.8701718e-05
-1.1827014
-4.5805849e-05
-1.2644754
-3.1821465e-05
-1.3520181
-0.028610388
-0.17591158
-0.026198749
-0.17752262
0.027125463
-0.18346248
0.056894575
-0.19109161
0.034688743
-0.19681445
-0.036864648
-0.19500783
-0.080260161
-0.18905618
-0.060221899
-0.18257473
0.0080877426
-0.18117305
0.061851878
-0.20644804
0.057883902
-0.23222818
0.01824242
-0.25299066
-0.028793302
-0.26184041
-0.047169706
-0.26836121
-0.036374106
-0.28088163
-0.014981318
-0.30059706
0.00090430329
-0.3255762
0.0062105974
-0.35257971
0.0050210653
-0.37978974
0.0016190511
-0.40686392
-0.0012024508
-0.43437403
-0.0023683084
-0.4633082
-0.0022664718
-0.4945185
-0.0015930392
-0.52839
-0.00082117438
-0.56500863
-0.00021309366
-0.60444411
0.00016297627
-0.64672164
0.00034666335
-0.69192451
0.00039603386
-0.74018834
0.00036496381
-0.7916948
0.00029101143
-0.8466551
0.00020053761
-0.90531195
0.00011195875
-0.96793222
3.713667e-05
-1.0348124
-1.7087419e-05
-1.1062811
-4.7618646e-05
-1.1826995
-5.3253713e-05
-1.2644539
-3.5906008e-05
-1.3519821
-0.028663918
-0.17453816
-0.026430337
-0.17567999
0.03012373
-0.18052088
0.060905555
-0.18747346
0.037160032
-0.1935629
-0.040829513
-0.19284958
-0.087384752
-0.18788324
-0.066751636
-0.18252645
0.0074807588
-0.18196775
0.073025626
-0.19234679
0.068379052
-0.21694319
0.024158518
-0.23814427
-0.033794544
-0.24798942
-0.058270037
-0.25074008
-0.045079551
-0.25965577
-0.01784555
-0.27801739
0.0028950743
-0.30258784
0.0098314234
-0.32919702
0.0081418115
-0.35570046
0.0033333752
-0.38150407
-0.00092984961
-0.40713652
-0.0029782486
-0.43376409
-0.0030970439
-0.46247763
-0.0022638876
-0.49384765
-0.0012337232
-0.52797745
-0.00037988258
-0.56484184
0.00016651194
-0.60444765
0.00044713133
-0.6468221
0.00053958244
-0.69206806
0.00051913985
-0.74034252
0.00043726043
-0.79184105
0.00032792934
-0.84678249
0.00021411298
-0.9054141
0.00011110053
-0.96800618
2.8547407e-05
-1.0348581
-2.8802012e-05
-1.1062999
-5.8766381e-05
-1.182694
-6.137505e-05
-1.2644285
-4.0018074e-05
-1.3519421
-0.17403176
-0.028433863
-0.0263761
-0.17459239
0.03261414
-0.1781704
0.064316976
-0.18393231
0.03961659
-0.18993002
-0.044302703
-0.19008971
-0.093895369
-0.18633896
-0.072817327
-0.18181755
0.0073244352
-0.18237012
0.08104351
-0.18998563
0.078223674
-0.20219142
0.029306213
-0.22209089
-0.038400881
-0.23353794
-0.071164176
-0.23509528
-0.055699898
-0.24011973
-0.021077077
-0.25642424
0.0056142771
-0.2807366
0.014511634
-0.30726805
0.012241341
-0.33329655
0.005705408
-0.35807249
-0.00044474137
-0.38198917
-0.0037503022
-0.40636447
-0.0042509504
-0.43261019
-0.003230609
-0.46151091
-0.0018317346
-0.49324964
-0.00065441982
-0.52770291
0.00013419263
-0.56480952
0.00054984942
-0.60455036
0.00070424751
-0.64698677
0.00070174092
-0.69225066
0.00061436142
-0.74051962
0.000486918
-0.79200004
0.00034773352
-0.84691611
0.00021517184
-0.90551817
0.00010166045
-0.9680793
1.4185537e-05
-1.0349011
-4.3579371e-05
-1.1063151
-7.1095573e-05
-1.1826843
-6.9623635e-05
-1.2643989
-4.3970507e-05
-1.3518982
-0.17419737
-0.026210481
-0.17456181
-0.027891715
0.034252452
-0.1762307
0.067013948
-0.18086737
0.041862923
-0.18617864
-0.047150999
-0.18708172
-0.099564989
-0.18442009
-0.078376012
-0.18078028
0.007595699
-0.18208881
0.089643239
-0.19096985
0.088280393
-0.20004235
0.032674142
-0.20555934
-0.044587479
-0.21590429
-0.08550862
-0.21919349
-0.068598685
-0.22219649
-0.025348969
-0.23584784
0.0092664455
-0.26007641
0.020419642
-0.2866446
0.017459374
-0.31248608
0.0088807616
-0.33647191
0.0003192126
-0.35883645
-0.004708523
-0.38103095
-0.0058224265
-0.40479299
-0.0045985081
-0.43124229
-0.0026935742
-0.46064907
-0.001061882
-0.49284218
4.812171e-05
-0.52761684
0.00065651763
-0.56491619
0.00089624233
-0.60474236
0.00091834688
-0.64720337
0.00082618572
-0.69246248
0.00068004867
-0.74071275
0.00051482544
-0.79216713
0.0003517731
-0.84705271
0.00020533603
-0.90562185
8.4992256e-05
-0.9681501
-4.1946556e-06
-1.0349405
-6.0310968e-05
-1.1063259
-8.3771783e-05
-1.1826702
-7.770994e-05
-1.2643651
-4.7640831e-05
-1.3518505
-0.17494354
0.034998613
-0.17474172
-0.026030572
-0.1761665
-0.027094144
0.068839193
-0.17805595
0.043707774
-0.18271222
-0.049295032
-0.18403461
-0.10423147
-0.18241524
-0.083220322
-0.17957578
0.008175803
-0.18136038
0.098688386
-0.19113396
0.098909072
-0.20159853
0.040246409
-0.20761462
-0.052412701
-0.19773412
-0.10016825
-0.20124466
-0.08293352
-0.20485866
-0.030974535
-0.21657093
0.013729027
-0.24031042
0.027702493
-0.26735926
0.023940962
-0.29312619
0.012988108
-0.31659343
0.0014614028
-0.3376141
-0.0058921572
-0.35765281
-0.0079288518
-0.37892453
-0.0064915995
-0.4028999
-0.0039141116
-0.43002175
-0.0016419293
-0.46006902
-0.00010224398
-0.49269181
0.00076981044
-0.52773013
0.0011242279
-0.56514417
0.0011784739
-0.60500249
0.0010793992
-0.64745659
0.00091127922
-0.69269371
0.0007178233
-0.74091574
0.00052295421
-0.79233831
0.00034213974
-0.84718952
0.00018639846
-0.90572326
6.2707232e-05
-0.96821701
-2.5473454e-05
-1.0349753
-7.7859095e-05
-1.1063318
-9.6326145e-05
-1.1826515
-8.5256905e-05
-1.2643275
-5.0882605e-05
-1.3517996
-0.17585214
0.069747795
-0.17458857
0.034845458
-0.17642614
-0.025770934
-0.17856625
-0.026008253
0.045184473
-0.17953265
-0.050724847
-0.18128241
-0.10771635
-0.18054972
-0.087189396
-0.17844617
0.0089842422
-0.18038422
0.10783782
-0.19050982
0.10990594
-0.20213083
0.048521293
-0.20987342
-0.054552998
-0.20547432
-0.11376966
-0.1841327
-0.09587308
-0.1883051
-0.03705452
-0.19877867
0.018870829
-0.22171273
0.03655539
-0.24916332
0.03175364
-0.27517194
0.018186368
-0.29832445
0.0030645909
-0.31819661
-0.0073211184
-0.33618514
-0.010700859
-0.3548808
-0.0090669745
-0.37634915
-0.0056022215
-0.40121179
-0.0024534078
-0.42921027
-0.00032138713
-0.45984988
0.00089282131
-0.49281482
0.0014060492
-0.52801196
0.0014971121
-0.56546281
0.001384546
-0.60530763
0.0011867624
-0.64773207
0.00096000978
-0.6929359
0.00073071254
-0.7411235
0.0005140492
-0.79251022
0.00032111732
-0.84732424
0.00016029252
-0.90582084
3.655757e-05
-0.96827904
-4.8261806e-05
-1.0350049
-9.5397369e-05
-1.1063327
-0.00010823668
-1.1826286
-9.2020896e-05
-1.2642864
-5.3700229e-05
-1.3517459
-0.17690439
0.046236723
-0.17474928
0.069908505
-0.17550744
0.033926758
-0.17904355
-0.025293635
-0.18154605
-0.024663019
-0.051190064
-0.17906743
-0.10993714
-0.17906162
-0.090140366
-0.17759875
0.0099950375
-0.17945696
0.11668317
-0.18922956
0.1208475
-0.20145138
0.056853415
-0.21046295
-0.055848981
-0.20857743
-0.12524706
-0.19399693
-0.10689685
-0.17310893
-0.042686111
-0.18267351
0.024383666
-0.20429151
0.046982282
-0.23213962
0.041043553
-0.25845323
0.024552179
-0.28153775
0.0052618442
-0.30052171
-0.0090357137
-0.31648202
-0.014307924
-0.33257807
-0.012498926
-0.35144885
-0.0078906562
-0.37406072
-0.0035617537
-0.40010344
-0.00061724276
-0.42891441
0.0010427474
-0.4599998
0.001765742
-0.49317452
0.0018976425
-0.52841249
0.0017587636
-0.56583703
0.0015163057
-0.60563718
0.0012460769
-0.64801814
0.00097718527
-0.69318237
0.00072250802
-0.74133196
0.00049106268
-0.79268017
0.00029109322
-0.84745504
0.00012902082
-0.9059133
8.1130206e-06
-0.96833541
-7.1370503e-05
-1.0350289
-0.00011235004
-1.1063286
-0.00011908599
-1.1826015
-9.801983e-05
-1.264242
-5.6052809e-05
-1.3516899
-0.17756378
-0.050530668
-0.17535422
0.046841669
-0.17514729
0.069548362
-0.1774011
0.03228431
-0.18225736
-0.024582318
-0.18512429
-0.023109383
-0.1109763
-0.17802828
-0.092054767
-0.17714722
0.011143194
-0.17874691
0.12480999
-0.18758378
0.13125038
-0.19963244
0.065489694
-0.21008766
-0.057098211
-0.20921372
-0.13672339
-0.1971011
-0.12187649
-0.17901729
-0.047692823
-0.16810222
0.030056503
-0.18834635
0.058810493
-0.21611972
0.051811033
-0.2429071
0.032199696
-0.26610075
0.0081333902
-0.28440929
-0.011035111
-0.29852231
-0.018927691
-0.31186225
-0.017013405
-0.32806359
-0.010918843
-0.34842067
-0.0050370335
-0.37258544
-0.0010025536
-0.39971813
0.0012492755
-0.42912094
0.0022337925
-0.46046785
0.0024135328
-0.49369041
0.0022264212
-0.52888014
0.0019147155
-0.56623544
0.0015830253
-0.60597412
0.0012650126
-0.64830597
0.00096838824
-0.69342825
0.0006971882
-0.74153809
0.00045697918
-0.79284605
0.00025443747
-0.84758045
9.4492538e-05
-0.90599968
-2.1124924e-05
-0.96838566
-9.4037411e-05
-1.0350472
-0.0001281218
-1.1063196
-0.00012884938
-1.1825707
-0.00010306216
-1.264195
-5.7953072e-05
-1.3516319
-0.17779548
-0.1107446
-0.17714502
-0.048739872
-0.17532735
0.047021724
-0.17610002
0.068247281
-0.18001589
0.030042834
-0.18599193
-0.023714675
-0.18905931
-0.021467246
-0.09294396
-0.17713909
0.012105827
-0.17810985
0.13189045
-0.18582736
0.14064001
-0.19697341
0.073882258
-0.20802501
-0.05787319
-0.20931268
-0.14763875
-0.19829836
-0.13662938
-0.18234821
-0.062399313
-0.1643108
0.035783135
-0.17382885
0.071472309
-0.20100816
0.064062557
-0.22837125
0.041046676
-0.25175408
0.011740019
-0.26970738
-0.013395029
-0.28204938
-0.024780293
-0.29266971
-0.022823811
-0.30605185
-0.014854093
-0.32412834
-0.0069474544
-0.34651025
-0.0014799907
-0.372108
0.0015459866
-0.40001485
0.0028553102
-0.42974246
0.0030902484
-0.46114457
0.0028220932
-0.49428608
0.0024037517
-0.52936918
0.0019814465
-0.56663386
0.0015975547
-0.60630667
0.0012520786
-0.64858966
0.00093923923
-0.6936703
0.00065859274
-0.7417397
0.00041465392
-0.79300627
0.00021336459
-0.84769933
5.8338914e-05
-0.90607915
-5.0305225e-05
-0.96842939
-0.00011562165
-1.0350597
-0.00014253361
-1.1063059
-0.00013729787
-1.1825364
-0.00010726632
-1.2641457
-5.9457264e-05
-1.3515725
-0.17817591
-0.092563535
-0.17910733
-0.10878229
-0.17774272
-0.046324506
-0.17597982
0.046901527
-0.17784669
0.066078079
-0.18317573
0.02722664
-0.18996683
-0.022807149
-0.19304174
-0.019895343
0.013286502
-0.17831976
0.13761242
-0.18383182
0.14851725
-0.1937046
0.081756178
-0.20484733
-0.058438199
-0.20746
-0.15819175
-0.19875968
-0.15056189
-0.18436585
-0.076898753
-0.16784877
0.030786349
-0.15931401
0.085143739
-0.18750028
0.077581368
-0.21452698
0.051185513
-0.23851008
0.015985436
-0.2559995
-0.016243698
-0.26685871
-0.032107507
-0.27472216
-0.030209219
-0.2852843
-0.01984473
-0.30106121
-0.0093510075
-0.32172479
-0.0020525971
-0.34593764
0.0019788369
-0.37254085
0.003690408
-0.40084994
0.0039823203
-0.43063453
0.0035933428
-0.46191582
0.0030139836
-0.49489631
0.0024569106
-0.52984464
0.0019798918
-0.5670162
0.001573337
-0.60662793
0.001215504
-0.64886592
0.00089484643
-0.69390656
0.00061021101
-0.74193526
0.0003666824
-0.79315959
0.00016979838
-0.84781079
2.1832722e-05
-0.90615128
-7.8590165e-05
-0.96846642
-0.00013571194
-1.0350666
-0.00015540023
-1.1062878
-0.00014449043
-1.1824992
-0.00011067367
-1.2640945
-6.0573094e-05
-1.3515119
-0.17963625
0.014746846
-0.18093388
-0.090736984
-0.18101751
-0.10550749
-0.17943296
-0.042871366
-0.17722965
0.046284489
-0.1801688
0.063071148
-0.18663445
0.023894258
-0.19386853
-0.021980359
-0.19691402
-0.018558679
0.141737
-0.18244434
0.1548502
-0.19016478
0.088594393
-0.20054282
-0.058676847
-0.20460868
-0.1678362
-0.19781555
-0.1637588
-0.18556277
-0.091159303
-0.1701053
0.024829221
-0.16189164
0.093548557
-0.16771883
0.092186152
-0.20210507
0.062666305
-0.22600777
0.021152301
-0.24367695
-0.019724581
-0.25251861
-0.041335265