/*--------------------------------*- C++ -*----------------------------------*\
| =========                 |                                                 |
| \\      /  F ield         | OpenFOAM: The Open Source CFD Toolbox           |
|  \\    /   O peration     | Version:  5.0                                   |
|   \\  /    A nd           | Web:      www.OpenFOAM.org                      |
|    \\/     M anipulation  |                                                 |
\*---------------------------------------------------------------------------*/
FoamFile
{
    version     2.0;
    format      ascii;
    class       volScalarField;
    location    "140";
    object      pMean;
}
// * * * * * * * * * * * * * * * * * * * * * * * * * * * * * * * * * * * * * //

dimensions      [0 2 -2 0 0 0 0];

internalField   nonuniform List<scalar> 
9520
(
-2.8766404e-05
-2.7568096e-05
-2.9990746e-05
-2.547824e-05
-2.6817109e-05
-5.0295413e-05
-2.2866586e-05
-2.1264345e-05
-4.5100676e-05
-6.7650355e-05
-1.9981829e-05
-1.4122056e-05
-3.584364e-05
-6.0167581e-05
-9.3909295e-05
-1.7090112e-05
-6.071113e-06
-2.3811625e-05
-4.692187e-05
-8.4008358e-05
-0.00012448093
-1.4369814e-05
2.1933006e-06
-1.0127209e-05
-2.9631772e-05
-6.6402126e-05
-0.00011201578
-0.00016202137
-1.2074698e-05
1.0120376e-05
4.1158723e-06
-9.8574263e-06
-4.3267235e-05
-8.974586e-05
-0.00014682059
-0.00020620522
-1.0301737e-05
1.7273349e-05
1.8037859e-05
1.090712e-05
-1.65664e-05
-6.0257702e-05
-0.00011953723
-0.00018824575
-0.00025783213
-9.1972566e-06
2.3461624e-05
3.0748774e-05
3.1418938e-05
1.18418e-05
-2.587184e-05
-8.3143905e-05
-0.00015581682
-0.00023709488
-0.0003172324
-8.3052066e-06
2.8002572e-05
4.1719188e-05
5.0579483e-05
4.0371166e-05
1.1193321e-05
-4.0288779e-05
-0.00011218351
-0.00019944224
-0.00029385035
-0.00038462627
-8.6540199e-06
3.100367e-05
5.0298399e-05
6.7613919e-05
6.7579458e-05
4.8986002e-05
6.4901665e-06
-6.0254857e-05
-0.00014836817
-0.0002511361
-0.00035878548
-0.00046002074
-8.5358121e-06
3.1654634e-05
5.6539584e-05
8.1634611e-05
9.23209e-05
8.5693391e-05
5.492454e-05
-2.8403264e-06
-8.6959533e-05
-0.00019269431
-0.00031129483
-0.00043206588
-0.0005432672
-1.1530655e-05
3.1600835e-05
5.9378735e-05
9.2414928e-05
0.00011347628
0.00011989997
0.00010289699
5.7480356e-05
-1.820792e-05
-0.00012167274
-0.00024575977
-0.00038036522
-0.00051362103
-0.00063391131
-1.1548025e-05
2.773039e-05
6.0111642e-05
9.8945123e-05
0.00013057567
0.0001502076
0.00014861461
0.00011828215
5.5094988e-05
-4.1153897e-05
-0.00016527039
-0.00030837541
-0.00045842804
-0.0006031477
-0.00073143685
-1.8085202e-05
2.6085023e-05
5.6144402e-05
0.00010239832
0.00014253148
0.00017593388
0.00019043215
0.00017749402
0.00013027383
4.5919425e-05
-7.2884142e-05
-0.0002189749
-0.0003808528
-0.00054544902
-0.00070021639
-0.00083500409
-1.7723658e-05
1.742677e-05
5.3120428e-05
0.0001003449
0.00015036513
0.00019588345
0.00022727776
0.0002332145
0.00020490731
0.00013666024
2.8414217e-05
-0.00011505525
-0.00028341413
-0.00046352405
-0.00064116329
-0.00080409127
-0.00094383019
-2.6070904e-05
1.6747939e-05
4.2952455e-05
9.7969288e-05
0.00015177048
0.00021064316
0.00025775486
0.00028396074
0.00027675977
0.00022839918
0.00013560799
4.6829111e-07
-0.00016869366
-0.00035937265
-0.00055636494
-0.00074505771
-0.00091401243
-0.0010567553
-2.5899392e-05
3.7092934e-06
3.8079572e-05
8.7718657e-05
0.00015135917
0.0002179194
0.00028210871
0.00032809737
0.00034406572
0.00031854379
0.00024576169
0.00012454399
-3.9406167e-05
-0.00023509933
-0.0004471538
-0.00065920716
-0.00085648199
-0.0010288976
-0.0011727063
-3.4663724e-05
3.287532e-06
2.1932148e-05
8.1207484e-05
0.00014161541
0.00022176175
0.00029793432
0.00036560126
0.00040493393
0.00040502755
0.00035599959
0.00025406929
0.00010147231
-9.3051026e-05
-0.00031500117
-0.00054702447
-0.00077160157
-0.00097450179
-0.0011477513
-0.001290336
-3.4667269e-05
-1.2944167e-05
1.5862512e-05
6.3019549e-05
0.00013396381
0.00021483375
0.00030877638
0.00039385537
0.00045900854
0.00048566464
0.00046396547
0.00038590612
0.00025076626
6.400603e-05
-0.00016172204
-0.00040917693
-0.00065885426
-0.00089284087
-0.0010981734
-0.0012692519
-0.0014085477
-4.075604e-05
-1.7580885e-05
-5.5315547e-06
5.2341204e-05
0.00011321378
0.00020818933
0.00030763133
0.00041590204
0.00050348572
0.00055963328
0.00056709049
0.00051733041
0.00040519077
0.00023294774
1.0289571e-05
-0.00024677166
-0.00051792437
-0.00078225517
-0.0010220889
-0.0012262459
-0.0013922677
-0.0015260215
-4.3007579e-05
-3.6573129e-05
-1.4365031e-05
2.7714055e-05
9.9065776e-05
0.00018663957
0.00030535608
0.00042514293
0.00054082414
0.00062395414
0.00066401277
0.00064539252
0.00056162793
0.00041037767
0.00019810113
-6.1663827e-05
-0.00034903607
-0.00064130302
-0.00091659227
-0.0011582234
-0.0013575658
-0.0015154
-0.001641648
-4.6637661e-05
-4.7141219e-05
-3.8295878e-05
1.3716609e-05
6.9195464e-05
0.00017050794
0.00028659915
0.00043190772
0.00056495242
0.00068059274
0.00075163947
0.00076820445
0.00071675418
0.00059284708
0.00039831922
0.00014356005
-0.00015332983
-0.00046915593
-0.00077898738
-0.0010609421
-0.0013000948
-0.0014907034
-0.0016375029
-0.001754192
-5.0715418e-05
-6.8348913e-05
-5.2244769e-05
-1.5969281e-05
4.930178e-05
0.00013585372
0.00027161426
0.0004208987
0.00058571806
0.00072394764
0.00083130338
0.0008825246
0.00086814291
0.00077675795
0.000607262
0.00036562872
6.7131646e-05
-0.0002660323
-0.00060722863
-0.00093035537
-0.0012142436
-0.0014462662
-0.0016244283
-0.001757268
-0.0018626665
-4.7349757e-05
-8.3807789e-05
-7.7686496e-05
-3.59958e-05
1.1465452e-05
0.00010928053
0.00023570245
0.00041226947
0.00058786273
0.00076309739
0.00089740188
0.00098891557
0.001012165
0.0009591045
0.00082104791
0.00060076709
0.00030936332
-3.3270269e-05
-0.00040043905
-0.00076308547
-0.0010945361
-0.0013751037
-0.0015953998
-0.0017572782
-0.0018736139
-0.0019660719
-4.9011765e-05
-0.00010433324
-0.00010480069
-6.974016e-05
-1.8734511e-05
6.0886088e-05
0.00020556084
0.00038061287
0.00059163873
0.0007827619
0.00095828007
0.0010816184
0.001148675
0.0011357956
0.001036161
0.00084485825
0.00056963542
0.0002266212
-0.00015904367
-0.00055696876
-0.00093614029
-0.0012702796
-0.0015421119
-0.0017459072
-0.001888034
-0.0019854393
-0.0020635884
-4.6854445e-05
-0.00012710254
-0.00013077026
-0.00010744071
-6.4478663e-05
1.7924831e-05
0.0001503774
0.00035294778
0.00057095494
0.00080332781
0.00099869797
0.0011680184
0.001271789
0.0013058732
0.0012481033
0.0010939636
0.00084370537
0.00051013685
0.00011514365
-0.000311307
-0.0007354794
-0.0011254481
-0.0014561792
-0.0017135684
-0.0018963909
-0.002015386
-0.002091837
-0.0021544832
-4.7220803e-05
-0.00014093393
-0.00016455785
-0.00014852366
-0.00011742738
-4.5616769e-05
9.6518856e-05
0.00029674447
0.00055319777
0.00079784248
0.0010390841
0.0012327781
0.0013877323
0.0014633277
0.0014550108
0.0013431948
0.0011271816
0.00081296466
0.00041906204
-2.6989261e-05
-0.00049053325
-0.00093548587
-0.0013297059
-0.0016504933
-0.0018878822
-0.0020452658
-0.0021382546
-0.0021919463
-0.002238151
-4.0568574e-05
-0.00016483821
-0.00019260822
-0.00019967079
-0.00018052797
-0.00011855286
1.7069296e-05
0.00023931401
0.00050466633
0.0007941313
0.001051072
0.0012961587
0.001481268
0.001613222
0.0016507094
0.001589798
0.001414895
0.0011303813
0.00074851711
0.00029355635
-0.00020105431
-0.00069685978
-0.0011559475
-0.0015472665
-0.0018514536
-0.002063211
-0.0021911854
-0.0022555421
-0.0022850492
-0.0023141155
-3.2270348e-05
-0.00018079595
-0.00022994218
-0.00024666904
-0.00025885542
-0.00021173804
-7.5610547e-05
0.0001496863
0.00045254326
0.00075727195
0.0010634484
0.0013280497
0.0015718023
0.0017405343
0.0018390246
0.0018272434
0.0017032594
0.0014570106
0.001098629
0.00064651018
0.0001314441
-0.00040793661
-0.00092971948
-0.001395458
-0.0017762409
-0.002057
-0.002237886
-0.0023327321
-0.0023663305
-0.0023705534
-0.002382029
-1.7878699e-05
-0.00020718153
-0.00026397166
-0.00030562886
-0.00033533524
-0.00032695012
-0.00019825252
4.3443845e-05
0.00036155981
0.00071374087
0.001038962
0.0013581579
0.0016277588
0.0018637091
0.0020052765
0.0020582696
0.0019852228
0.0017884318
0.0014636778
0.0010270269
0.00050374899
-6.9079953e-05
-0.00064778259
-0.0011881284
-0.0016521602
-0.0020144187
-0.0022651173
-0.0024100939
-0.0024687325
-0.0024698086
-0.0024479928
-0.0024416667
-1.266352e-06
-0.00023081811
-0.00030721634
-0.00036200395
-0.00042543782
-0.00044508315
-0.00035577916
-0.0001035513
0.00024946551
0.0006257309
0.0010040957
0.0013459665
0.0016799855
0.0019493162
0.0021665396
0.0022683804
0.0022624004
0.0021169939
0.0018385163
0.0014291682
0.00091129652
0.00031738519
-0.0003090539
-0.0009202279
-0.0014704514
-0.0019238105
-0.002259472
-0.0024735975
-0.0025783143
-0.002598036
-0.0025653011
-0.0025170433
-0.0024929301
1.7995711e-05
-0.00026110007
-0.00035181321
-0.00043103138
-0.00051519735
-0.00057909468
-0.00052391551
-0.00029664039
8.8036377e-05
0.00051052041
0.0009186004
0.0013180375
0.0016837928
0.0020300874
0.00228885
0.0024730796
0.0025203333
0.0024431242
0.0022150347
0.001846981
0.0013481725
0.00074742318
8.5332483e-05
-0.00058900595
-0.0012241457
-0.0017746099
-0.0022078826
-0.0025088609
-0.0026804885
-0.0027409657
-0.0027196956
-0.0026522647
-0.0025775139
-0.0025358213
3.9693643e-05
-0.00029605004
-0.00040202376
-0.00050237597
-0.00062309589
-0.00071142157
-0.00071043871
-0.00051140716
-0.00013194812
0.0003341115
0.00079681872
0.0012303734
0.001667525
0.0020570335
0.002405655
0.0026384864
0.0027731491
0.0027521702
0.0025921659
0.0022720874
0.0018077088
0.0012154251
0.00053216622
-0.00019403859
-0.00090852981
-0.0015578171
-0.002098015
-0.0025015462
-0.0027601348
-0.0028836982
-0.0028967234
-0.0028328505
-0.0027303187
-0.002629326
-0.0025704417
6.0540401e-05
-0.00032940067
-0.00045677892
-0.00058299233
-0.00073299442
-0.00087186775
-0.00089416878
-0.00075251939
-0.00039284279
8.7933758e-05
0.00060094555
0.0010942126
0.0015818892
0.0020604743
0.0024638859
0.0027990897
0.0029867233
0.0030567919
0.0029549904
0.0027017664
0.0022810919
0.0017144209
0.0010263939
0.00026265571
-0.0005213486
-0.0012665699
-0.0019188108
-0.0024376426
-0.0028018379
-0.0030106639
-0.0030814395
-0.0030442984
-0.0029368069
-0.0027992409
-0.0026724997
-0.0025969709
8.2747985e-05
-0.00036183211
-0.00050949474
-0.00067390528
-0.00085333625
-0.0010338995
-0.0011204889
-0.00098897543
-0.00069093975
-0.00022410042
0.00032494827
0.00086944815
0.0014373677
0.0019851953
0.0024966368
0.0028969496
0.0031957309
0.003322735
0.0033146256
0.0031208225
0.002764416
0.0022350113
0.0015611621
0.00077682079
-6.3041222e-05
-0.00089651676
-0.0016611715
-0.0023041546
-0.0027901883
-0.0031056403
-0.0032580689
-0.0032718612
-0.0031826411
-0.0030310408
-0.0028589129
-0.0027071584
-0.0026156551
0.00010531266
-0.00039010521
-0.00056203766
-0.00076455029
-0.00098678993
-0.0012061116
-0.001350551
-0.0012894711
-0.00098596381
-0.0005894547
-4.6510863e-05
0.00054689401
0.001187564
0.0018407708
0.0024424717
0.0029692394
0.0033388318
0.0035842026
0.0036364411
0.0035381954
0.0032417002
0.0027722574
0.0021268368
0.0013423174
0.00046336142
-0.00044611769
-0.0013183847
-0.0020896772
-0.002710345
-0.0031520648
-0.0034099073
-0.0034998733
-0.0034534579
-0.0033108136
-0.0031152292
-0.0029093185
-0.0027335071
-0.0026267888
0.00012632102
-0.00041196282
-0.00060823748
-0.00085614369
-0.0011172307
-0.0013974621
-0.0015902803
-0.0016004382
-0.0013716592
-0.00095419106
-0.00048763944
9.9267846e-05
0.00082064249
0.0015764431
0.0023112393
0.0029479454
0.0034570614
0.0037763138
0.0039537643
0.003919218
0.0037196781
0.003309706
0.002717217
0.0019494592
0.0010527882
8.3305327e-05
-0.0008866029
-0.0017849707
-0.0025486341
-0.0031334441
-0.0035195594
-0.003711496
-0.0037339646
-0.0036247513
-0.0034281415
-0.0031891753
-0.0029505536
-0.0027518067
-0.0026307285
0.00014381111
-0.00042509033
-0.00064528527
-0.00094102747
-0.001245773
-0.0015828743
-0.0018558026
-0.001922044
-0.0017778784
-0.001435548
-0.00093891657
-0.00043724384
0.00029288671
0.0011740587
0.0020439342
0.0028443327
0.0034745641
0.0039447353
0.0041987004
0.0042955946
0.0041634764
0.0038512976
0.0033157428
0.0025908562
0.0016960519
0.00068797111
-0.00036495188
-0.0013835516
-0.0022932091
-0.0030339773
-0.0035691683
-0.0038888163
-0.0040075094
-0.0039582001
-0.0037846264
-0.0035341095
-0.003252803
-0.0029828071
-0.0027623808
-0.0026278751
-0.00042645921
0.00014712011
-0.00067176273
-0.0010141892
-0.0013620001
-0.0017618336
-0.0021110721
-0.0022818936
-0.0022011562
-0.0019479579
-0.0015290344
-0.00099071417
-0.00034839806
0.00058124252
0.0016199474
0.0025897615
0.0034055221
0.0040048467
0.0044207983
0.0045967313
0.0046027833
0.0043620398
0.0039240675
0.0032504457
0.0023848184
0.0013599885
0.0002443767
-0.0008820188
-0.0019347519
-0.0028392323
-0.0035410215
-0.0040129622
-0.0042560699
-0.0042950571
-0.0041708863
-0.0039320821
-0.0036284145
-0.0033061661
-0.0030063543
-0.0027656073
-0.002618662
-0.00068244073
-0.00042318477
0.00013558668
-0.0010715461
-0.0014594807
-0.0019214906
-0.0023539224
-0.0026311215
-0.0026773486
-0.002485996
-0.0021609234
-0.0017154503
-0.0010177706
-0.00016451495
0.00097632442
0.0021651903
0.0031738037
0.0039771466
0.0045266503
0.0048759664
0.0049646543
0.0048697921
0.0045065808
0.0039272904
0.0031036637
0.0020904188
0.00093551436
-0.00028036381
-0.0014669664
-0.0025369123
-0.0034182247
-0.0040646269
-0.0044601666
-0.0046175618
-0.0045716532
-0.0043703831
-0.0040664633
-0.0037108847
-0.0033494235
-0.0030215085
-0.0027618973
-0.0026035173
-0.0011038652
-0.00068606964
-0.00041426961
0.00011788889
-0.0015325765
-0.0020524085
-0.0025683514
-0.0029648991
-0.0031489897
-0.0030958989
-0.0028252209
-0.0024961437
-0.0018940453
-0.00095259122
0.0001450388
0.0014984902
0.0027553117
0.0037745968
0.0045431102
0.0050296427
0.0053049067
0.0052985987
0.0050886151
0.0045855455
0.0038493043
0.0028647738
0.0016995843
0.00041792435
-0.00088712555
-0.002117578
-0.0031855165
-0.0040246812
-0.0045992868
-0.0049060568
-0.0049698289
-0.0048348981
-0.0045555438
-0.0041872417
-0.0037815054
-0.0033828113
-0.0030286498
-0.0027516953
-0.0025828893
-0.0015698265
-0.0011198761
-0.00068168575
-0.0003918165
9.741119e-05
-0.0021454043
-0.0027405726
-0.003264517
-0.0036054296
-0.003707941
-0.0035807267
-0.0033135549
-0.0028495457
-0.0019818215
-0.00075072607
0.00059822603
0.0020786459
0.0033692921
0.0043732965
0.0050942848
0.0055098825
0.0057066995
0.0055921776
0.0052482943
0.004586354
0.0036775619
0.0025231537
0.0012050118
-0.00019591389
-0.001575296
-0.0028301244
-0.0038750238
-0.0046524134
-0.0051392872
-0.0053460578
-0.0053095524
-0.0050829197
-0.0047253178
-0.004294158
-0.0038403456
-0.0034066332
-0.003028237
-0.0027354859
-0.0025572287
-0.002185123
-0.0015801909
-0.0011186855
-0.00066017296
-0.00036037232
7.6947656e-05
-0.0028573699
-0.0035107157
-0.0040241191
-0.0043070935
-0.0043476722
-0.004243872
-0.0038462014
-0.0031184051
-0.0019293272
-0.00039476815
0.0011171866
0.0026864588
0.0039864917
0.0049595187
0.0056267031
0.0059705797
0.0060771927
0.0058352155
0.0053345633
0.0044941378
0.003398923
0.002068802
0.00060079058
-0.0009076489
-0.0023425442
-0.0035995017
-0.0045988545
-0.0052947928
-0.0056788512
-0.0057757379
-0.0056338905
-0.0053140049
-0.004879068
-0.0043870013
-0.0038876108
-0.003421362
-0.0030208175
-0.0027137535
-0.00252697
-0.0028998252
-0.0021803674
-0.001562242
-0.0010888868
-0.00062776681
-0.00032477916
5.7651738e-05
-0.0036849915
-0.0043787254
-0.0048650219
-0.005102165
-0.0051892761
-0.0049776549
-0.0043043623
-0.0032496842
-0.0017184299
3.2967845e-05
0.0016793365
0.0033079811
0.0045973896
0.0055299468
0.0061477834
0.0064117993
0.0064078575
0.0060126637
0.0053314627
0.0042937923
0.0030004415
0.001492658
-0.00011751314
-0.0017168248
-0.0031847908
-0.0044191618
-0.0053496493
-0.0059448372
-0.0062122674
-0.0061910659
-0.0059402729
-0.0055269191
-0.0050161393
-0.0044658431
-0.0039237536
-0.0034276266
-0.0030068994
-0.002686889
-0.0024925116
-0.0037590666
-0.0028752933
-0.0021317365
-0.0015061441
-0.0010369902
-0.00058613039
-0.00028601419
3.8291751e-05
-0.0046414506
-0.0053469909
-0.0058096508
-0.0061183557
-0.006128709
-0.0056560889
-0.0046365222
-0.0032187501
-0.0014280967
0.00050800631
0.0022703171
0.0039246441
0.005198012
0.0060964777
0.0066629438
0.006825803
0.0066836557
0.0061067704
0.0052212144
0.0039693198
0.0024702056
0.00078706113
-0.00095217891
-0.0026210996
-0.004096148
-0.0052813936
-0.0061193529
-0.006595449
-0.0067341066
-0.0065883618
-0.0062266228
-0.0057204448
-0.0051363179
-0.0045310076
-0.0039494938
-0.0034259298
-0.0029867304
-0.0026551814
-0.0024542805
-0.0047733322
-0.003735914
-0.0027865106
-0.0020291492
-0.0014234917
-0.00096792791
-0.00053712513
-0.00024789989
2.2154481e-05
-0.0057146223
-0.0064243903
-0.0069851763
-0.0072571264
-0.007033354
-0.0062253508
-0.0048188005
-0.0031024015
-0.0010877646
0.0010236718
0.002861394
0.0045341653
0.0058060791
0.0066721142
0.0071658245
0.0071975758
0.006884629
0.0060975765
0.004984935
0.0035054031
0.0017968892
-5.3582212e-05
-0.0019033767
-0.0036158995
-0.0050690892
-0.0061773389
-0.006899501
-0.0072396282
-0.0072393059
-0.0069644279
-0.0064909642
-0.0058938792
-0.0052398433
-0.0045833212
-0.0039652873
-0.0034162597
-0.0029604149
-0.002619149
-0.0024128489
-0.0059142683
-0.0047728114
-0.0036209718
-0.0026280326
-0.0018899715
-0.0013193487
-0.00088667628
-0.00048686706
-0.00021009269
9.2273787e-06
-0.0069018093
-0.0077349844
-0.0083039436
-0.0083826943
-0.0078493491
-0.006657307
-0.0049146981
-0.0029353372
-0.00069243052
0.0015472711
0.0034498773
0.0051605639
0.0064417614
0.0072532043
0.0076425094
0.0075051458
0.0069879901
0.0059637634
0.0046038358
0.0028870336
0.00097115073
-0.0010325837
-0.0029686044
-0.0046945117
-0.0060943735
-0.0070973021
-0.0076814187
-0.0078706731
-0.0077232576
-0.0073162577
-0.006731868
-0.0060471345
-0.0053275425
-0.004623141
-0.0039707483
-0.0033984707
-0.002928807
-0.0025799273
-0.0023687714
-0.0071699207
-0.0059377788
-0.0046417295
-0.003410786
-0.0024213634
-0.0017242986
-0.0011996202
-0.00080135772
-0.00043287354
-0.00017824305
-2.0019574e-06
-0.0083106043
-0.0092016244
-0.0096311743
-0.0094425451
-0.0085517803
-0.0070127167
-0.0049522778
-0.0027005241
-0.00029057454
0.0020746108
0.0040722554
0.0058398033
0.0071026225
0.0078246002
0.0080686262
0.0077236407
0.0069708981
0.005683968
0.0040592301
0.0021008486
-1.4262135e-05
-0.002150523
-0.0041427805
-0.005847881
-0.0071613969
-0.0080309802
-0.0084565553
-0.0084822605
-0.0081815819
-0.0076414044
-0.0069487688
-0.0061810935
-0.0053996021
-0.0046495775
-0.0039653958
-0.0033740534
-0.0028942031
-0.0025384902
-0.0023219586
-0.0086200302
-0.0072112671
-0.0057844565
-0.0043812415
-0.0031337672
-0.0021819644
-0.0015416991
-0.0010746832
-0.0007106086
-0.00038211141
-0.00015400055
-9.4561703e-06
-0.0098823771
-0.010696087
-0.010917483
-0.010418233
-0.0091981583
-0.0073080834
-0.0049161799
-0.0024616767
0.00011038101
0.0026492278
0.0047715127
0.0065652606
0.0077801445
0.0083621939
0.0084184043
0.0078285672
0.0068090602
0.0052358503
0.0033334472
0.001134847
-0.0011638471
-0.003404997
-0.0054180558
-0.0070651652
-0.0082584561
-0.0089678867
-0.0092165871
-0.0090682673
-0.0086104745
-0.0079385809
-0.0071423242
-0.006295663
-0.0054544545
-0.00466167
-0.0039516331
-0.003347036
-0.0028580223
-0.0024933334
-0.0022694031
-0.010231335
-0.0086395767
-0.0070205661
-0.0054598315
-0.0040296214
-0.0028119638
-0.0019242172
-0.0013539685
-0.00094333603
-0.00062684748
-0.00033558312
-0.00012726666
-1.6090566e-05
-0.011495484
-0.012174911
-0.01215532
-0.011364999
-0.0097914471
-0.0075236026
-0.0048674115
-0.0022447859
0.00057196375
0.0033284695
0.0055396474
0.0073326045
0.0084454545
0.0088370126
0.0086651786
0.0077933962
0.0064771308
0.0045973664
0.0024101224
-2.0095908e-05
-0.0024787964
-0.0047903119
-0.0067840815
-0.008333707
-0.0093731888
-0.0098974807
-0.0099532804
-0.0096231184
-0.0090075841
-0.0082080544
-0.0073121922
-0.0063883661
-0.0054904739
-0.0046630271
-0.0039358548
-0.0033192009
-0.0028156724
-0.0024389359
-0.0022110876
-0.011892471
-0.010215373
-0.008366866
-0.0066080325
-0.0050149328
-0.0036140204
-0.0024660665
-0.0016619049
-0.0011619036
-0.00082369432
-0.00054922376
-0.00028627055
-0.00010885853
-1.7015314e-05
-0.013114248
-0.013648014
-0.013396038
-0.012270945
-0.010299527
-0.0077286143
-0.0048524952
-0.0019772597
0.0011610201
0.004114031
0.0063842451
0.0081114296
0.0090611676
0.0092193494
0.0087806804
0.0075901456
0.0059484075
0.0037469745
0.0012747821
-0.0013699064
-0.0039566629
-0.0062974153
-0.0082277488
-0.0096395221
-0.010492729
-0.010809059
-0.010658828
-0.010142979
-0.0093725122
-0.00844896
-0.0074546132
-0.0064566531
-0.0055127506
-0.0046631289
-0.0039201588
-0.0032811434
-0.0027570699
-0.0023791708
-0.0021483106
-0.013571898
-0.011844181
-0.0098350146
-0.0078203273
-0.0060435223
-0.0044840301
-0.0031633487
-0.0021124046
-0.0013979925
-0.00098988513
-0.00071018014
-0.00047036285
-0.00024784158
-8.5651092e-05
-2.1065846e-05
-0.01477331
-0.015155497
-0.014612486
-0.013088741
-0.010800926
-0.00797623
-0.0048147663
-0.001570632
0.0018790625
0.0050194892
0.0072741424
0.0088611326
0.0096006279
0.0094797485
0.0087345727
0.0071886408
0.0051959262
0.0026644873
-8.3909267e-05
-0.0029166592
-0.0055910518
-0.0079138149
-0.0097338379
-0.0109675
-0.011603673
-0.011692123
-0.01132741
-0.010626469
-0.0097036212
-0.0086559567
-0.0075658136
-0.0065073607
-0.0055347102
-0.0046644014
-0.0038883769
-0.0032162707
-0.002693502
-0.0023145224
-0.0020810807
-0.015339609
-0.013497912
-0.011354307
-0.0091238996
-0.0070917124
-0.005370995
-0.0039047427
-0.0026980395
-0.0017569958
-0.0011640516
-0.00082697405
-0.00059746478
-0.00040518795
-0.00020394073
-7.6526788e-05
-2.1077164e-05
-0.016497869
-0.016653603
-0.015739532
-0.013902636
-0.011362494
-0.0082218371
-0.0046475634
-0.00099192528
0.002759503
0.0060085445
0.0081616672
0.0095536839
0.010035522
0.0095869731
0.0084920745
0.0065571751
0.0041929236
0.0013325114
-0.0016734946
-0.004657817
-0.007371365
-0.0096241887
-0.011285507
-0.012301435
-0.01269241
-0.012538316
-0.011956238
-0.011070845
-0.0099935652
-0.0088235523
-0.0076546491
-0.0065589114
-0.0055591886
-0.0046415969
-0.0038152307
-0.0031467667
-0.0026245303
-0.0022451345
-0.002009388
-0.017201909
-0.015283666
-0.012903631
-0.010470376
-0.0081976859
-0.0062359688
-0.0046367133
-0.0033043728
-0.0022287281
-0.0014426391
-0.00094187737
-0.00066892436
-0.0005053892
-0.00033417277
-0.00017198484
-5.9054303e-05
-2.5746359e-05
-0.018223723
-0.018061831
-0.016865127
-0.014800115
-0.01194814
-0.0083567471
-0.0042885512
-0.00021654821
0.0037647784
0.0070141569
0.009011927
0.010156924
0.010332834
0.0095037863
0.0080183272
0.0056644862
0.0029154605
-0.00026301342
-0.0034967971
-0.0065860466
-0.0092832535
-0.011410451
-0.012863844
-0.01362428
-0.013747499
-0.01334294
-0.01254111
-0.011466044
-0.010234455
-0.008962861
-0.0077457715
-0.0066146294
-0.0055490696
-0.0045581732
-0.0037376863
-0.0030710991
-0.0025506436
-0.0021709832
-0.001933249
-0.019072258
-0.017187318
-0.014615041
-0.011848797
-0.0093353126
-0.0071268259
-0.0053104581
-0.0038777967
-0.0026998437
-0.0018115538
-0.0011431624
-0.00072772227
-0.00054212405
-0.00040912354
-0.00027403408
-0.00013435222
-4.7994773e-05
-2.3234234e-05
-0.019857813
-0.019462914
-0.018091651
-0.015749222
-0.012443014
-0.0082795319
-0.0037130437
0.0007201287
0.004834234
0.0080105055
0.0098048697
0.010636592
0.010455162
0.0091896048
0.0072755806
0.0044786663
0.0013427458
-0.0021320125
-0.0055511897
-0.0086891664
-0.011308168
-0.013251044
-0.014448259
-0.014921058
-0.014761765
-0.014099854
-0.013068557
-0.011801177
-0.010439914
-0.0091062871
-0.0078431005
-0.00662222
-0.0054534264
-0.0044703466
-0.0036529604
-0.0029903721
-0.0024717588
-0.0020921008
-0.0018526898
-0.020842927
-0.019099781
-0.016455596
-0.013405379
-0.010503537
-0.0080345744
-0.005980845
-0.0043629459
-0.0031175125
-0.0021594717
-0.0014079095
-0.00085191234
-0.00055861456
-0.0004126446
-0.00032382456
-0.00020778649
-0.00010482037
-3.7576407e-05
-2.3588009e-05
-0.021468902
-0.020973503
-0.019392479
-0.016637135
-0.012724208
-0.0079642444
-0.0029402383
0.0017802225
0.0059304586
0.0089755161
0.010506859
0.010954499
0.010356971
0.0086024409
0.0062251592
0.0029720685
-0.00054298359
-0.0042787726
-0.0078283914
-0.010949777
-0.013423215
-0.015121957
-0.016019854
-0.016181594
-0.015726599
-0.014791389
-0.013523407
-0.012092406
-0.010651826
-0.0092585224
-0.0078750842
-0.0065125149
-0.0053529154
-0.004374058
-0.0035630851
-0.0029043546
-0.0023879278
-0.0020085358
-0.0017677641
-0.02257322
-0.020908185
-0.01830449
-0.015095068
-0.011852986
-0.0089714673
-0.006654866
-0.0048201898
-0.0034229251
-0.0024367721
-0.0016334427
-0.0010186254
-0.00062295833
-0.0003878634
-0.00029848108
-0.00023259719
-0.00015283729
-7.6348101e-05
-2.3057097e-05
-2.2590722e-05
-0.023179849
-0.022568093
-0.020661703
-0.01731806
-0.012756962
-0.0074273165
-0.0020233815
0.0029196941
0.0070308116
0.0098748953
0.011066598
0.01105759
0.0099913176
0.0076975733
0.0048284353
0.0011185619
-0.0027537087
-0.006701152
-0.010313981
-0.013344581
-0.015601519
-0.017000331
-0.017565016
-0.017394163
-0.016619146
-0.015396802
-0.013924664
-0.012393131
-0.01087589
-0.0093238605
-0.0077496748
-0.006396765
-0.0052423893
-0.0042725153
-0.0034675844
-0.0028131729
-0.002299208
-0.0019203942
-0.0016785272
-0.024378624
-0.022655796
-0.020042952
-0.016780239
-0.013325227
-0.010079725
-0.0073537179
-0.0052675111
-0.0036807679
-0.0025867239
-0.0017739225
-0.0011354456
-0.0007142803
-0.00039387489
-0.00024080577
-0.00018546141
-0.00015770378
-0.00010571802
-4.8339299e-05
-1.6751245e-05
-2.0325864e-05
-0.024969684
-0.02414966
-0.021741011
-0.017751874
-0.012555348
-0.0067229155
-0.00098361999
0.00411266
0.008118453
0.010663421
0.011432479
0.01089498
0.009307814
0.0064292932
0.0030493872
-0.001103556
-0.0052946208
-0.0093893993
-0.012985654
-0.015844345
-0.017815997
-0.018868897
-0.019068363
-0.018529686
-0.017411582
-0.015937554
-0.014339531
-0.012710488
-0.01098639
-0.0091814855
-0.0076160393
-0.0062691139
-0.0051264869
-0.0041649962
-0.0033666873
-0.0027168682
-0.0022057561
-0.0018277913
-0.0015850209
-0.026244526
-0.024440467
-0.021697939
-0.018347835
-0.01477502
-0.011292936
-0.0082067396
-0.0057341679
-0.0039143192
-0.0026747565
-0.0017781902
-0.0011597096
-0.00074667991
-0.00041113662
-0.00019555938
-0.00010286061
-9.7278511e-05
-9.5882629e-05
-6.0516498e-05
-3.462956e-05
-3.0886374e-06
-2.2279771e-05
-0.026752853
-0.025565335
-0.022586649
-0.017951487
-0.012180367
-0.0058719272
0.00015282616
0.0053429975
0.0091438531
0.011284793
0.011550242
0.010411329
0.0082548967
0.0047536074
0.00085725865
-0.0037088864
-0.0081629024
-0.012324426
-0.015813509
-0.018418955
-0.020045447
-0.020708157
-0.020493477
-0.019551441
-0.018127391
-0.016497688
-0.014777101
-0.012881656
-0.010826424
-0.0090272871
-0.0074682033
-0.0061359235
-0.0050041983
-0.0040518026
-0.0032604061
-0.0026157018
-0.0021077534
-0.0017307555
-0.0014872887
-0.028101914
-0.026258723
-0.023346415
-0.019806335
-0.016097483
-0.0124621
-0.0091396532
-0.006330115
-0.0041639727
-0.0027342137
-0.0017181689
-0.0010380857
-0.00068612083
-0.00035830443
-0.00014464125
-1.9228987e-05
1.5686517e-06
-2.6523373e-05
-4.0542726e-05
-3.4434532e-05
-8.4020897e-06
-2.3059816e-06
-1.7205975e-05
-0.02839016
-0.026759761
-0.023216296
-0.017977676
-0.011640096
-0.0048906878
0.0013743933
0.0065861022
0.010044123
0.011672725
0.011363472
0.009548459
0.0067769502
0.0026296191
-0.0017763945
-0.0067046695
-0.011344419
-0.015477033
-0.018764976
-0.021043808
-0.022266272
-0.022473222
-0.0217926
-0.020484236
-0.018870309
-0.017088916
-0.015029046
-0.012704533
-0.010649115
-0.0088560843
-0.0073145594
-0.0059958451
-0.0048758885
-0.0039329545
-0.0031491284
-0.0025099108
-0.0020051177
-0.0016292488
-0.0013855143
-0.029825504
-0.028052723
-0.024998439
-0.021216108
-0.017279412
-0.013491612
-0.010006772
-0.0069800553
-0.004522173
-0.0028097628
-0.0016242755
-0.00085081929
-0.00048059153
-0.00021593952
-1.8807365e-05
7.7350019e-05
0.00011224408
8.0735421e-05
3.4850175e-05
-3.1076017e-06
3.3569782e-06
3.7195523e-07
1.1720991e-05
-1.9818624e-05
-0.029816264
-0.027769997
-0.023693726
-0.017839183
-0.010946575
-0.0037772419
0.0026698958
0.0077850131
0.010749637
0.011767765
0.010810018
0.0082420239
0.0048196753
1.7973817e-05
-0.0048710104
-0.010085858
-0.014812574
-0.018813554
-0.021813097
-0.023690666
-0.024424052
-0.024103021
-0.022990836
-0.021454873
-0.019656288
-0.017447488
-0.014836845
-0.012501929
-0.010451395
-0.0086786209
-0.0071533893
-0.0058493023
-0.0047415928
-0.0038089586
-0.0030331451
-0.0023992508
-0.0018975814
-0.0015236757
-0.0012798036
-0.031344705
-0.029721086
-0.026609579
-0.022598865
-0.018375087
-0.014350476
-0.010723208
-0.0075413975
-0.004903305
-0.002965453
-0.0015425154
-0.00062334375
-0.0002067069
6.7037092e-05
0.00019296678
0.0002478883
0.00024613678
0.00020690361
0.00014742685
7.6745638e-05
4.1994516e-05
2.1198209e-05
2.2910038e-05
1.125073e-05
-1.3121696e-05
-0.03109897
-0.028660289
-0.024025821
-0.017534397
-0.010091925
-0.0025395651
0.0039897721
0.0088658626
0.011197696
0.011493617
0.0098188896
0.0064235171
0.0023271775
-0.0031146257
-0.0084328008
-0.013832912
-0.018534523
-0.022305608
-0.024926278
-0.026294535
-0.026442044
-0.02562154
-0.024241851
-0.022485246
-0.020154388
-0.017244742
-0.014607491
-0.012274787
-0.010246641
-0.0084927872
-0.0069851573
-0.0056963256
-0.0046019688
-0.0036801443
-0.002911972
-0.002283084
-0.0017858966
-0.0014141887
-0.0011702927
-0.032754936
-0.031196519
-0.028096583
-0.023920057
-0.019410635
-0.015090426
-0.011248446
-0.0079450559
-0.0051846943
-0.0031196481
-0.0015168422
-0.00040493348
0.00011575174
0.00041972355
0.00052775933
0.00050075864
0.00044569996
0.00036089935
0.00028601094
0.00019181476
0.00012442124
6.6862205e-05
5.116204e-05
2.8756907e-05
2.3885027e-05
-1.4548896e-05
-0.032303509
-0.029444544
-0.024205947
-0.017051519
-0.0090697509
-0.0012130946
0.0052656221
0.0097587462
0.01130763
0.010763567