/*--------------------------------*- C++ -*----------------------------------*\
| =========                 |                                                 |
| \\      /  F ield         | OpenFOAM: The Open Source CFD Toolbox           |
|  \\    /   O peration     | Version:  5.0                                   |
|   \\  /    A nd           | Web:      www.OpenFOAM.org                      |
|    \\/     M anipulation  |                                                 |
\*---------------------------------------------------------------------------*/
FoamFile
{
    version     2.0;
    format      ascii;
    class       volScalarField;
    location    "140";
    object      pPrime2Mean;
}
// * * * * * * * * * * * * * * * * * * * * * * * * * * * * * * * * * * * * * //

dimensions      [0 4 -4 0 0 0 0];

internalField   nonuniform List<scalar> 
9520
(
4.1155813e-07
3.8051633e-07
2.7953775e-06
3.2827695e-07
2.5838545e-06
7.5660293e-06
2.6510186e-07
2.2275557e-06
6.9958849e-06
1.4910962e-05
1.9998513e-07
1.7962014e-06
6.0351542e-06
1.3792359e-05
2.5226433e-05
1.3985008e-07
1.3509837e-06
4.8711366e-06
1.190619e-05
2.3346225e-05
3.9033217e-05
8.9344765e-08
9.3902282e-07
3.6685234e-06
9.6186338e-06
2.0173067e-05
3.614659e-05
5.7007847e-05
5.103166e-08
5.9196308e-07
2.5544164e-06
7.252239e-06
1.6319632e-05
3.1269883e-05
5.2831049e-05
7.9951422e-05
2.5831212e-08
3.2722489e-07
1.6145425e-06
5.0566984e-06
1.2326713e-05
2.5338237e-05
4.5765958e-05
7.4156556e-05
0.00010879681
1.3456197e-08
1.5066392e-07
8.9638602e-07
3.2011854e-06
8.6146819e-06
1.9179193e-05
3.7156264e-05
6.4340583e-05
0.00010100799
0.00014459498
1.292874e-08
5.9495291e-08
4.1594749e-07
1.7801703e-06
5.4702356e-06
1.3439216e-05
2.8194674e-05
5.2352506e-05
8.7793392e-05
0.00013438674
0.00018851082
2.300157e-08
4.5425557e-08
1.659423e-07
8.267081e-07
3.0553962e-06
8.5626163e-06
1.9818283e-05
3.9839205e-05
7.1614921e-05
0.00011703665
0.00017540827
0.00024180578
4.2583922e-08
9.7061768e-08
1.2408887e-07
3.278556e-07
1.4288533e-06
4.8041362e-06
1.267702e-05
2.8103096e-05
5.4673673e-05
9.5736956e-05
0.00015309559
0.00022528755
0.00030582497
7.0962186e-08
2.022771e-07
2.5917476e-07
2.4000663e-07
5.7198549e-07
2.260298e-06
7.1495638e-06
1.8056889e-05
3.8723125e-05
7.3353594e-05
0.00012562108
0.00019709855
0.00028532838
0.00038197464
1.0827515e-07
3.4938842e-07
5.3695408e-07
5.0223141e-07
4.1345391e-07
9.0743375e-07
3.3858464e-06
1.0241914e-05
2.5006382e-05
5.2188065e-05
9.6635483e-05
0.00016227444
0.00025027026
0.00035690377
0.00047169965
1.5549245e-07
5.275953e-07
9.2370316e-07
1.0462554e-06
8.518031e-07
6.4016714e-07
1.3600882e-06
4.8828542e-06
1.4275279e-05
3.3892768e-05
6.9096253e-05
0.00012537792
0.00020680714
0.00031391706
0.00044143575
0.00057645382
2.1402979e-07
7.300415e-07
1.3890126e-06
1.8040736e-06
1.7723468e-06
1.3046673e-06
9.2615437e-07
1.9586891e-06
6.857914e-06
1.9488595e-05
4.5156072e-05
9.0139993e-05
0.00016054483
0.00026042311
0.00038941099
0.00054036872
0.00069767155
2.871511e-07
9.4750278e-07
1.906641e-06
2.7134647e-06
3.0608469e-06
2.7254743e-06
1.8646979e-06
1.2762623e-06
2.7493273e-06
9.4451603e-06
2.6175595e-05
5.9316513e-05
0.00011611315
0.00020320238
0.00032441049
0.00047816834
0.00065514268
0.00083673439
3.7532984e-07
1.1875081e-06
2.4571526e-06
3.7202747e-06
4.6110171e-06
4.727093e-06
3.9223355e-06
2.5359331e-06
1.7067959e-06
3.7918815e-06
1.2814296e-05
3.4691413e-05
7.6985174e-05
0.00014791366
0.00025451654
0.00040012647
0.00058162612
0.00078716158
0.00099494268
4.8091114e-07
1.4275074e-06
3.0283444e-06
4.7812071e-06
6.3304098e-06
7.1452354e-06
6.8419848e-06
5.3872322e-06
3.3362352e-06
2.2375564e-06
5.1626632e-06
1.7175071e-05
4.5465149e-05
9.8871109e-05
0.00018654796
0.00031574478
0.00048897898
0.00070121419
0.00093776294
0.0011734818
6.0102314e-07
1.7186477e-06
3.6061876e-06
5.862077e-06
8.1420182e-06
9.8368471e-06
1.038402e-05
9.4675273e-06
7.1687666e-06
4.2821315e-06
2.8881581e-06
6.9561364e-06
2.2789388e-05
5.9010065e-05
0.00012579122
0.00023312978
0.00038822472
0.00059240466
0.00083832663
0.001108188
0.0013733951
7.3548528e-07
1.9857454e-06
4.2134267e-06
6.9440207e-06
9.9896778e-06
1.2682117e-05
1.433725e-05
1.4437377e-05
1.2712215e-05
9.3157904e-06
5.3760289e-06
3.6754615e-06
9.2951504e-06
2.9983775e-05
7.593674e-05
0.00015867581
0.00028887658
0.00047335948
0.00071184432
0.00099428885
0.0012995528
0.0015955527
8.7710524e-07
2.3707388e-06
4.8125644e-06
8.0229256e-06
1.1831434e-05
1.5593377e-05
1.8523667e-05
1.9993714e-05
1.9496598e-05
1.6690754e-05
1.1853707e-05
6.598263e-06
4.6214378e-06
1.2343861e-05
3.9162866e-05
9.6964148e-05
0.00019857216
0.00035510322
0.00057259853
0.00084871015
0.0011703349
0.0015128166
0.0018406336
1.0266574e-06
2.6881178e-06
5.5142622e-06
9.0911423e-06
1.3656908e-05
1.8502267e-05
2.280787e-05
2.5879412e-05
2.7099556e-05
2.5776357e-05
2.1488056e-05
1.4768284e-05
7.913833e-06
5.7657273e-06
1.632016e-05
5.0823894e-05
0.00012292834
0.00024664682
0.00043321035
0.00068741463
0.0010043636
0.0013675719
0.0017487608
0.0021091047
1.16082e-06
3.1926005e-06
6.1944968e-06
1.0213445e-05
1.5446753e-05
2.1388907e-05
2.7090529e-05
3.1894107e-05
3.5160595e-05
3.6002262e-05
3.3457435e-05
2.7134742e-05
1.8013827e-05
9.2855292e-06
7.1758389e-06
2.1509979e-05
6.5567851e-05
0.00015479279
0.00030418265
0.00052466943
0.00081927294
0.0011800838
0.001586956
0.0020079654
0.0024012109
1.3187987e-06
3.6357043e-06
7.0934392e-06
1.1339308e-05
1.7275864e-05
2.4222613e-05
3.1324564e-05
3.7890787e-05
4.3393995e-05
4.6876206e-05
4.7011122e-05
4.2649881e-05
3.3618318e-05
2.1529211e-05
1.06824e-05
8.9586492e-06
2.8278211e-05
8.4115443e-05
0.00019365345
0.00037257377
0.00063100327
0.00096961025
0.0013770386
0.0018292642
0.0022907968
0.0027169663
1.4761797e-06
4.2622141e-06
7.9854863e-06
1.2658631e-05
1.9099999e-05
2.709369e-05
3.5479776e-05
4.3782422e-05
5.1582042e-05
5.8002586e-05
6.1491816e-05
6.0341901e-05
5.3410564e-05
4.0906729e-05
2.52454e-05
1.2083872e-05
1.1267147e-05
3.708613e-05
0.00010731859
0.0002407448
0.00045331454
0.00075375476
0.0011398051
0.001596253
0.0020950782
0.0025973955
0.0030561555
1.6830432e-06
4.8568481e-06
9.1170463e-06
1.4024501e-05
2.1139048e-05
2.9960084e-05
3.963239e-05
4.9532878e-05
5.9589468e-05
6.9070153e-05
7.636623e-05
7.935067e-05
7.6148224e-05
6.5783031e-05
4.8958761e-05
2.9080584e-05
1.34783e-05
1.4314255e-05
4.8506768e-05
0.00013617632
0.00029743838
0.00054798397
0.00089447113
0.001331143
0.0018385868
0.0023847648
0.0029276729
0.0034183375
1.8992161e-06
5.4416007e-06
1.0237988e-05
1.5671269e-05
2.3253894e-05
3.3102816e-05
4.3779205e-05
5.5194481e-05
6.7351325e-05
7.9882009e-05
9.1204041e-05
9.896942e-05
0.00010072089
9.4588807e-05
7.9817678e-05
5.7708826e-05
3.2928204e-05
1.4869885e-05
1.838859e-05
6.3247498e-05
0.0001718437
0.00036523987
0.00065821857
0.0010546696
0.0015447889
0.0021047073
0.0026984684
0.0032813126
0.0038028552
2.1159662e-06
6.0309102e-06
1.1327796e-05
1.7348749e-05
2.574898e-05
3.6373641e-05
4.8214892e-05
6.0809693e-05
7.4902226e-05
9.03212e-05
0.00010572795
0.00011861867
0.00012620084
0.00012590368
0.00011586472
9.5546681e-05
6.7039276e-05
3.6649933e-05
1.6289967e-05
2.3879211e-05
8.2168234e-05
0.00021564207
0.00044577711
0.00078569486
0.0012358059
0.0017817535
0.0023950757
0.0030361042
0.0036577767
0.0042088507
2.3219337e-06
6.4206077e-06
1.2380961e-05
1.9038819e-05
2.8319813e-05
4.0164324e-05
5.2837002e-05
6.6667499e-05
8.2315548e-05
0.00010040304
0.00011974894
0.00013791607
0.00015182035
0.0001585182
0.0001553003
0.00014018518
0.00011293574
7.6754625e-05
4.0077339e-05
1.7819243e-05
3.1300847e-05
0.00010630394
0.00026905951
0.00054077971
0.00093210003
0.0014392374
0.0020428713
0.0027099297
0.0033973587
0.0040563178
0.004635283
2.4551442e-06
6.8616112e-06
1.3177164e-05
2.062983e-05
3.0971811e-05
4.4099104e-05
5.8132308e-05
7.2736366e-05
8.9886138e-05
0.0001102032
0.0001332526
0.00015657766
0.00017705279
0.00019142435
0.00019656123
0.00018937182
0.00016769462
0.00013183353
8.6570471e-05
4.3028425e-05
1.9614654e-05
4.1324841e-05
0.00013687801
0.0003337494
0.00065205999
0.0010990942
0.0016661927
0.0023287733
0.0030492774
0.0037816967
0.0044759943
0.0050809495
2.5164795e-06
7.0727672e-06
1.4007969e-05
2.1966205e-05
3.343747e-05
4.8204061e-05
6.3728473e-05
7.9612834e-05
9.7664396e-05
0.00012003472
0.00014629081
0.00017454777
0.0002014945
0.00022389854
0.00023833556
0.00024111163
0.00022853431
0.00019839335
0.00015194208
9.6120228e-05
4.5331505e-05
2.1945041e-05
5.4804296e-05
0.00017531731
0.0004115159
0.00078148754
0.0012882761
0.0019177367
0.0026398714
0.0034128929
0.0041883709
0.0049156897
0.005544509
2.465923e-06
7.1670214e-06
1.4525149e-05
2.3272204e-05
3.5647842e-05
5.1955595e-05
6.9634839e-05
8.6924567e-05
0.00010636693
0.00013000238
0.00015918131
0.00019184674
0.00022502235
0.00025537628
0.00027963852
0.0002937119
0.0002929444
0.000273046
0.0002320842
0.000172813
0.00010497392
4.6861516e-05
2.5224473e-05
7.2804413e-05
0.00022325506
0.00050429505
0.00093095396
0.0015011429
0.0021947445
0.0029763419
0.0038003207
0.0046164367
0.0053741345
0.0060245066
2.3088074e-06
7.0441981e-06
1.4796733e-05
2.4176153e-05
3.7722231e-05
5.5407445e-05
7.5034809e-05
9.4853665e-05
0.00011571122
0.00014093084
0.00017208496
0.00020878567
0.00024759832
0.00028562935
0.00031969608
0.0003458572
0.00035876555
0.00035267612
0.00032292571
0.00026835568
0.00019386125
0.00011266971
4.7574681e-05
3.0053291e-05
9.6621529e-05
0.00028253152
0.00061413896
0.0011023326
0.001739054
0.0024978712
0.0033381204
0.0042108828
0.0050647715
0.0058499302
0.0065193983
2.0623783e-06
6.681883e-06
1.4723312e-05
2.4733415e-05
3.9234378e-05
5.8620234e-05
8.0106566e-05
0.00010218107
0.00012604406
0.00015258884
0.00018589398
0.00022559847
0.00026953193
0.00031453284
0.00035812652
0.00039650103
0.00042426956
0.00043455802
0.00042064915
0.00037792273
0.00030659401
0.0002143873
0.00011874398
4.7554172e-05
3.725088e-05
0.00012780446
0.00035517616
0.00074317983
0.0012974363
0.0020031903
0.0028275362
0.0037248977
0.0046436916
0.0055320959
0.0063415733
0.0070275763
1.7614706e-06
6.0987957e-06
1.4242911e-05
2.4863922e-05
4.0228746e-05
6.1048558e-05
8.4805347e-05
0.0001091999
0.00013571908
0.00016570977
0.00020041523
0.00024321164
0.00029109343
0.00034237254
0.00039468858
0.00044506189
0.00048806423
0.00051646174
0.00052185479
0.00049689223
0.00043752912
0.00034599667
0.00023360229
0.0001227743
4.7050436e-05
4.789557e-05
0.00016816309
0.00044340302
0.00089358915
0.0015179707
0.0022945247
0.0031839031
0.0041361251
0.0050976672
0.0060169975
0.0068474809
0.0075473922
1.4573503e-06
5.3579993e-06
1.339006e-05
2.4442085e-05
4.0652508e-05
6.266098e-05
8.8631802e-05
0.00011572524
0.00014522345
0.00017816286
0.00021683458
0.00026160343
0.0003132249
0.00036944568
0.00042960793
0.00049113747
0.0005493044
0.00059655818
0.00062369854
0.00062106783
0.00058113598
0.00050099438
0.00038558877
0.00025065551
0.00012441566
4.6533101e-05
6.3354706e-05
0.00021976887
0.00054957696
0.0010675307
0.0017654916
0.0026137874
0.0035668764
0.004571023
0.0055715585
0.0065179555
0.0073660151
0.0080771802
1.2096024e-06
4.5857949e-06
1.2271412e-05
2.3501264e-05
4.0269078e-05
6.3497686e-05
9.1283449e-05
0.00012137411
0.00015396575
0.00019074549
0.00023267972
0.00028246679
0.00033619139
0.00039664388
0.00046316529
0.00053486207
0.0006073604
0.00067366569
0.00072381224
0.00074686219
0.0007322905
0.00067284109
0.00056733274
0.000424233
0.00026466214
0.00012345721
4.6738231e-05
8.5316649e-05
0.00028495025
0.00067617672
0.0012671107
0.0020413572
0.0029614477
0.0039760951
0.0050285967
0.0060639655
0.0070333656
0.0078955064
0.0086152777
1.0686094e-06
3.9409201e-06
1.1082881e-05
2.2172181e-05
3.91168e-05
6.3138837e-05
9.2958754e-05
0.00012550449
0.0001618891
0.00020198011
0.00024896117
0.00030275749
0.0003621259
0.00042455319
0.00049626452
0.00057647695
0.00066224224
0.0007468503
0.00082058183
0.00087124431
0.00088650795
0.0008553421
0.00077120209
0.00063531221
0.00046063404
0.00027474394
0.00011987676
4.8726809e-05
0.00011580671
0.00036627792
0.00082574585
0.001494321
0.0023466922
0.0033376907
0.0044109412
0.0055076543
0.006573365
0.0075615656
0.0084342754
0.0091600441
3.584546e-06
1.0557675e-06
1.0078105e-05
2.0717646e-05
3.7369407e-05
6.1627998e-05
9.2989657e-05
0.00012859354
0.00016793254
0.00021265485
0.00026309759
0.00032409501
0.00038789652
0.00045563476
0.00052965797
0.000616916
0.00071407351
0.00081594884
0.00091267962
0.00099204794
0.0010399478
0.0010429455
0.0009897873
0.00087511996
0.00070342885
0.00049335393
0.00028007885
0.00011391615
5.3932628e-05
0.00015719598
0.00046652968
0.0010008363
0.0017509876
0.002682348
0.003742414
0.0048705478
0.0060068304
0.0070981358
0.0081008586
0.008980654
0.0097098767
9.5191318e-06
3.6048842e-06
1.1726445e-06
1.948556e-05
3.5391289e-05
5.9184182e-05
9.1378125e-05
0.00012965825
0.00017294084
0.00022104405
0.00027687106
0.0003422528
0.00041549331
0.00048720068
0.00056606903
0.0006569844
0.00076378471
0.00088090783
0.00099970926
0.0011074456
0.0011897418
0.0012308201
0.0012162877
0.001134901
0.00098313758
0.00076988054
0.00052083859
0.00027997987
0.0001061558
6.4212023e-05
0.00021220529
0.00058864435
0.0012039458
0.0020387131
0.0030488787
0.0041752192
0.0053538184
0.0065246101
0.0076365853
0.008649536
0.009533002
0.010263225
1.8830727e-05
9.5572507e-06
3.9908351e-06
1.3955052e-06
3.3673775e-05
5.6327986e-05
8.8374514e-05
0.00012861294
0.00017562005
0.00022857233
0.00028801079
0.00036047653
0.00043876139
0.00052142713
0.0006035842
0.00069965227
0.00081221275
0.00094261485
0.0010813591
0.0012167344
0.001333452
0.0014152179
0.0014446684
0.0014064124
0.0012895599
0.0010933608
0.00083255523
0.00054147952
0.00027398827
9.7601872e-05
8.1867439e-05
0.00028388146
0.00073566203
0.0014374497
0.0023588316
0.0034465161
0.0046354241
0.0058594457
0.0070593567
0.0081869743
0.0092058981
0.010089724
0.010818603
3.2706777e-05
1.8957442e-05
1.0186182e-05
4.6490593e-06
1.6801065e-06
5.37672e-05
8.4678712e-05
0.00012569145
0.0001757429
0.00023350954
0.00029866338
0.00037561688
0.00046338487
0.00054992143
0.00064459404
0.00074374969
0.00086238445
0.0010018853
0.0011584603
0.0013192391
0.0014699626
0.0015929343
0.001670087
0.0016821916
0.0016128307
0.0014521059
0.0012033928
0.0008890553
0.00055370206
0.0002619878
8.9763049e-05
0.00010967974
0.00037555724
0.0009106531
0.0017035338
0.0027123618
0.0038751636
0.0051220693
0.0063859388
0.007609339
0.0087475412
0.009768273
0.010649282
0.011374598
5.2210289e-05
3.2803615e-05
1.9848561e-05
1.1248184e-05
5.4189399e-06
1.9722393e-06
8.1235403e-05
0.0001217468
0.00017354646
0.00023552047
0.00030669166
0.00039094724
0.00048451533
0.00058137551
0.00067831664
0.00079218831
0.00091393061
0.0010616878
0.0012316857
0.0014157142
0.001598154
0.0017622995
0.001888381
0.001956048
0.0019438159
0.0018344718
0.001620211
0.0013103036
0.00093675923
0.00055609473
0.00024432203
8.4719792e-05
0.00015090324
0.00049079394
0.0011166385
0.0020041259
0.0030999765
0.0043343884
0.0056339422
0.0069316491
0.0081727586
0.0093165252
0.010335033
0.011210205
0.011929876
7.9002744e-05
5.2112352e-05
3.3950704e-05
2.127634e-05
1.2475512e-05
6.1438965e-06
2.2210831e-06
0.00011791652
0.00017003594
0.00023473321
0.00031144544
0.00040356204
0.00050672268
0.00060919375
0.00071661692
0.00083098296
0.00097104377
0.0011224735
0.0013040803
0.0015065805
0.0017186949
0.0019216417
0.0020971196
0.0022226261
0.0022746994
0.0022294154
0.002069478
0.0017907744
0.0014106385
0.00097293679
0.00054755502
0.00022192301
8.517574e-05
0.00020924314
0.0006333036
0.001356503
0.0023408371
0.003521974
0.0048234327
0.0061695969
0.0074948027
0.0087477778
0.0098921868
0.010904607
0.011771103
0.012483192
0.00011538873
7.8629299e-05
5.349432e-05
3.5822337e-05
2.2871314e-05
1.3616767e-05
6.7025862e-06
2.3891092e-06
0.00016651577
0.00023226229
0.00031288277
0.0004124553
0.00052628595
0.0006398867
0.00075164668
0.00087611054
0.0010150867
0.0011895818
0.0013765216
0.001594987
0.0018316879
0.0020714458
0.0022939406
0.0024784861
0.0025986548
0.0026271987
0.0025380217
0.0023150229
0.0019598656
0.0015004975
0.00099490265
0.00052746453
0.00019642473
9.449475e-05
0.000288801
0.00080685648
0.0016329099
0.0027149058
0.0039782681
0.0053412242
0.0067273879
0.0080735285
0.009332545
0.010472825
0.011475494
0.012330664
0.013033389
0.00016439663
0.00011497872
8.0196924e-05
5.5913013e-05
3.7915081e-05
2.4283083e-05
1.4475014e-05
7.0355506e-06
2.4542014e-06
0.0002295443
0.00031211186
0.00041709398
0.00054161234
0.00066838579
0.00079222008
0.00091852424
0.0010669532
0.0012391175
0.0014556815
0.0016819105
0.0019405685
0.0022115071
0.0024789724
0.00272041
0.0029109495
0.003019184
0.0030138727
0.002867571
0.0025671735
0.0021227367
0.0015756642
0.0010002172
0.00049586764
0.00017026107
0.00011669753
0.00039399749
0.0010151767
0.0019482139
0.0031271566
0.0044683804
0.0058864037
0.0073055
0.0086658922
0.0099252164
0.011056791
0.012046269
0.012887669
0.013579402
0.00022817794
0.00016459749
0.00011678437
8.3106605e-05
5.8685789e-05
3.9734984e-05
2.5247955e-05
1.4945215e-05
7.1319812e-06
2.4075751e-06
0.00031064583
0.0004184773
0.00055121526
0.0006924958
0.00083163798
0.00096977783
0.0011170014
0.0012960941
0.0015112193
0.0017755044
0.00204613
0.0023454134
0.0026516617
0.0029480004
0.0032072962
0.0033990446
0.003486207
0.0034338888
0.003214654
0.0028208018
0.0022738918
0.001631799
0.00098691249
0.00045365912
0.00014675158
0.00015642719
0.00052946819
0.0012618293
0.0023043839
0.0035779675
0.0049914547
0.0064573524
0.0079019838
0.0092699203
0.010523975
0.011642504
0.012615598
0.013440993
0.014120259
0.00031028305
0.00022911893
0.00016709705
0.00012003547
8.6450002e-05
6.109673e-05
4.0913123e-05
2.5643021e-05
1.499456e-05
7.0235929e-06
2.2868525e-06
0.00041809258
0.00055575694
0.00070952648
0.00086713327
0.0010218322
0.0011801014
0.0013536631
0.001571875
0.0018383825
0.0021582547
0.002473871
0.0028155151
0.0031602153
0.0034864759
0.0037611011
0.0039467236
0.0040005887
0.0038849577
0.0035743738
0.0030695939
0.0024072445
0.00166468
0.00095375046
0.00040273914
0.00013013719
0.00021887413
0.00069993824
0.0015501055
0.0027029334
0.0040672577
0.0055462741
0.0070522295
0.0085147855
0.009883626
0.011127051
0.012228466
0.01318224
0.013989601
0.014655077
0.00041786247
0.00031191841
0.00023222681
0.00017093185
0.00012359948
8.9290854e-05
6.2612456e-05
4.1279819e-05
2.544879e-05
1.4695402e-05
6.7953248e-06
2.0923892e-06
0.00055664702
0.00071944979
0.00089447643
0.0010712859
0.0012466721
0.0014296606
0.0016370182
0.0019045571
0.0022310946
0.00260796
0.0029712536
0.0033603657
0.003746778
0.0041030111
0.0043879593
0.0045569419
0.0045617048
0.0043630481
0.0039402124
0.0033061115
0.0025163303
0.0016705074
0.00090047828
0.0003461544
0.00012557106
0.00030966559
0.00091007903
0.0018829098
0.003144872
0.0045944867
0.0061312927
0.0076689985
0.0091417783
0.010505037
0.011732748
0.012813278
0.013745045
0.014532546
0.015208693
0.00055599978
0.00041876402
0.00031520112
0.00023632058
0.00017462652
0.00012635518
9.0899127e-05
6.2994634e-05
4.0807864e-05
2.4816091e-05
1.4149078e-05
6.3431133e-06
1.8830644e-06
0.00072334262
0.00091264292
0.0011121793
0.0013128186
0.0015124015
0.0017266739
0.0019767671
0.0023051036
0.0026932395
0.003130233
0.0035493134
0.0039911832
0.0044222124
0.0048061268
0.0050931986
0.0052312404
0.0051670722
0.0048621955
0.0043040147
0.0035219464
0.0025946065
0.0016462306
0.00082808237
0.00028820035
0.00013906382
0.00043471633
0.0011643549
0.0022626649
0.003630672
0.0051586672
0.0067446582
0.0083054675
0.0097807984
0.011132235
0.012339466
0.013395622
0.014302941
0.015092088
0.015793243
0.000723223
0.00055471048
0.00042059425
0.00031881061
0.00023960424
0.0001768864
0.0001274223
9.097656e-05
6.2209566e-05
3.9753704e-05
2.3830565e-05
1.3277202e-05
5.9406566e-06
1.670661e-06
0.00092189826
0.0011423082
0.001370758
0.0015976926
0.0018265972
0.002080874
0.0023867438
0.0027807887
0.0032291908
0.0037375678
0.004220295
0.0047210874
0.0051974909
0.0056037451
0.0058809846
0.0059693348
0.0058120789
0.005374328
0.0046560089
0.0037079545
0.0026358153
0.0015899225
0.00073902054
0.00023447094
0.00017736724
0.00060005058
0.0014668769
0.0026912333
0.0041602499
0.005758375
0.0073842486
0.0089593344
0.010429704
0.011763384
0.012945671
0.013974243
0.014876948
0.01568087
0.016392914
0.00092368698
0.00071991776
0.00055304053
0.00042207042
0.00032074855
0.00024062935
0.00017670761
0.00012650192
8.9505638e-05
6.0643685e-05
3.8174237e-05
2.2429678e-05
1.2443314e-05
5.3594482e-06
1.4648134e-06
0.0011607728
0.00141686
0.0016754855
0.0019323979
0.0021995407
0.0025084446
0.0028766329
0.0033293738
0.0038518339
0.0044429108
0.0049998895
0.0055635327
0.006083118
0.0065030052
0.0067537771
0.0067687308
0.0064896594
0.0058891641
0.0049849429
0.0038545898
0.0026344286
0.0015011477
0.00063741043
0.00019182377
0.00024780436
0.00081161241
0.0018212685
0.0031698495
0.0047329459
0.0063917766
0.0080477322
0.0096282647
0.011086409
0.012396696
0.013549869
0.014570133
0.015480032
0.016287203
0.017007492
0.0011679793
0.00091866066
0.00071408998
0.00055029377
0.00042114483
0.00031953322
0.00023833948
0.0001738951
0.00012366918
8.7064226e-05
5.825863e-05
3.6028132e-05
2.1011413e-05
1.1360322e-05
4.7828746e-06
1.3083617e-06
0.0014487931
0.0017402968
0.0020314662
0.0023280194
0.002649883
0.003021797
0.0034433133
0.0039601688
0.0045731936
0.0052650987
0.0059039849
0.0065316029
0.0070895466
0.0075095733
0.0077119454
0.0076243392
0.0071900654
0.0063941795
0.0052783125
0.0039523557
0.0025861329
0.001381312
0.00052913761
0.00016827021
0.00035806366
0.0010750758
0.0022305332
0.0036990488
0.005347532
0.007056698
0.0087326645
0.010309934
0.011748832
0.01303038
0.014174227
0.01519639
0.016103219
0.016910786
0.017636715
0.0014656294
0.0011637712
0.00090813672
0.00070570379
0.00054451422
0.00041635961
0.00031417451
0.00023277968
0.00016869792
0.00011978396
8.3465045e-05
5.5116272e-05
3.3765374e-05
1.9333305e-05
1.0256839e-05
4.1972011e-06
1.1561177e-06
0.0017880399
0.0021158216
0.002450989
0.0028059192
0.0031935148
0.0036168489
0.004085998
0.0046858259
0.005414137
0.0062228696
0.0069478506
0.0076394174
0.0082259354
0.0086273024
0.0087533035
0.0085280791
0.0079006236
0.0068746857
0.005522735
0.0039923561
0.0024883617
0.001233974
0.00042188985
0.00017280952
0.00051597119
0.0013956368
0.0026969078
0.004278635
0.0060022816
0.0077507424
0.0094365398
0.011001959
0.012414837
0.013689072
0.014831765
0.015845512
0.016746145
0.017551233
0.018280264
0.0018161623
0.0014657027
0.0011493767
0.00089269537
0.00069321086
0.00053434271
0.00040684688
0.00030507584
0.00022448292
0.00016245939
0.00011442374
7.9005621e-05
5.171399e-05
3.1236147e-05
1.756835e-05
9.1237181e-06
3.5777306e-06
1.0230998e-06
0.0021793081
0.0025567412
0.0029573957
0.0033848325
0.0038253154
0.004287714
0.0048209696
0.0055279673
0.0063967674
0.0073325392
0.008149623
0.0088997626
0.0095001022
0.0098577472
0.0098725975
0.0094684428
0.0086056077
0.0073140054
0.0057044622
0.0039669473
0.0023408236
0.0010650863
0.00032509504
0.00021520133
0.00072921048
0.0017777684
0.0032217646
0.0049077452
0.0066951049
0.0084713436
0.010156691
0.011701812
0.013112968
0.014385485
0.015515225
0.0165171
0.017408342
0.018208072
0.018937773
0.0022175855
0.0018214027
0.0014490973
0.0011259896
0.00087136705
0.00067553456
0.00051900903
0.00039340523
0.00029308171
0.00021530829
0.00015434545
0.00010812747
7.4133956e-05
4.8021869e-05
2.8509762e-05
1.5821002e-05
7.9817412e-06
3.148062e-06
8.7255127e-07
0.0026362077
0.0030876249
0.0035716515
0.0040609095
0.0045346773
0.005049628
0.0056700838
0.0065117621
0.0075352648
0.0086174213
0.0095256719
0.010324896
0.010918099
0.01119958
0.01106093
0.010430141
0.0092861623
0.0076938461
0.0058100689
0.0038704703
0.0021459806
0.00088311397
0.00024976995
0.00030564648
0.0010049678
0.0022250294
0.0038056513
0.0055849865
0.0074235943
0.0092156228
0.010890183
0.012443534
0.013855378
0.015111269
0.016224201
0.017210632
0.018089222
0.018880746
0.019608821
0.0026838624
0.0022264483
0.0018023401
0.0014177322
0.0010936039
0.00084372822
0.00065231509
0.00049993578
0.00037721175
0.00028067379
0.00020390514
0.00014537686
0.00010127894
6.8943925e-05
4.3949569e-05
2.5872019e-05
1.4119519e-05
7.0967268e-06
2.6579085e-06
7.3301372e-07
0.0031836009
0.0037299659
0.0042919837
0.0048177217
0.0053347799
0.0059200735
0.0066604261
0.0076448891
0.008859107
0.010096978
0.01109285
0.011925886
0.012483464
0.012647804
0.012305079
0.011393734
0.0099204227
0.007994891
0.0058272982
0.0037000119
0.0019094696
0.0006990811
0.00020823008
0.000454329
0.0013496198
0.0027400573
0.0044484248
0.0063084584
0.0081848188
0.0099802619
0.011678329
0.013238444
0.01463112
0.015866037
0.016958147
0.017925438
0.01878808
0.019568608
0.020292937
0.0032388055
0.0026952784
0.0022036039
0.0017610509
0.0013720193
0.0010528529
0.00081014312
0.00062576835
0.0004785716
0.000361367
0.00026570323
0.00019199179
0.00013573761
9.417006e-05
6.3215022e-05
4.0009364e-05
2.3336565e-05
1.2728662e-05
6.1932397e-06
2.3448565e-06
5.9956813e-07
0.0038416339
0.0044843029
0.0050988186
0.0056674343
0.0062442184
0.0069191518
0.0077986019
0.0089652757
0.010388442
0.011792851
0.012867748
0.013711914
0.01419635
0.01419301
0.013586979
0.012335374
0.010483839
0.0081976273
0.0057460611
0.0034561536
0.0016404488
0.00052641313
0.0002135732
0.00067097214
0.0017686614
0.003324676
0.0051492043
0.007075454
0.0089751649
0.010815824
0.012531408
0.014071325
0.015439856
0.016649256
0.017716348
0.018660705
0.019504095
0.020270936
0.020989603
0.0039001457
0.0032487647
0.0026668766
0.0021507491
0.001698938
0.0013143773
0.001005378
0.00077394311
0.00059759136
0.000458426
0.00034246183
0.00025065355
0.00017897313
0.00012595543
8.6432805e-05
5.7732394e-05
3.6250527e-05
2.1195157e-05
1.1383942e-05
5.5150166e-06
1.9700234e-06
4.7822047e-07
0.004613107
0.0053320375
0.0060030387
0.0066311883
0.0072819921
0.0080886606
0.0091216966
0.010493121
0.012148641
0.013727635
0.014865654
0.015689303
0.016052793
0.015820543
0.014882997
0.013226771
0.010949784
0.0082834465
0.0055595353
0.0031437135
0.001351711
0.00038045563
0.00027911816
0.0009646904
0.0022667613
0.0039797417
0.0059059444
0.0078822578
0.0098565467
0.011731486
0.013428019
0.014941932
0.016281107
0.017460198
0.018497918
0.019415474
0.020236335
0.020986921
0.021698248
0.0046726929
0.0039027335
0.003210274
0.0025997963
0.0020703666
0.0016206326
0.0012483266
0.00095622139
0.00073727722
0.00057229237
0.00043498856
0.00032408761
0.00023374171
0.00016607583
0.00011560462
7.9202993e-05
5.2538652e-05
3.3011711e-05
1.9134282e-05
1.024377e-05
4.8117022e-06
1.7041382e-06
3.7309251e-07
0.0054832625
0.0062817993
0.0070281775
0.0077323067
0.0084894714
0.0094368604
0.010648581
0.012254571
0.014167944
0.015923497
0.017100042
0.017860912
0.018043608
0.017509445
0.0161633
0.014035343
0.011290559
0.0082359792
0.0052653492
0.0027723205
0.0010593943
0.00027786489
0.00041819708
0.0013439754
0.0028474349
0.0047045098
0.0067151668
0.0088042323
0.010837227
0.012697499
0.014368055
0.015849891
0.017154176
0.018297943
0.019301798
0.020188649
0.020983759
0.021715719
0.022418361
0.0055470982
0.0046635722
0.0038482343
0.0031244184
0.0024978264
0.0019695374
0.0015323729
0.0011817246
0.00090840089
0.0007059135
0.00054347902
0.00041278857
0.00030265099
0.00021737672
0.000152727
0.0001062799
7.243964e-05
4.800845e-05
2.9898637e-05
1.7294783e-05
9.1079534e-06
4.2120905e-06
1.4196019e-06
2.8490993e-07
0.006459265
0.0073615241
0.0082012178
0.008998878
0.0098750482
0.010988711
0.012407686
0.014281411
0.01647433
0.018401451
0.019581613
0.020224983
0.020153168
0.019231236
0.017391499
0.014724839
0.011478791
0.0080427218
0.0048667223
0.0023565118
0.0007824567
0.0002363878
0.00064407654
0.0018161175
0.0035121264
0.005496281
0.007667566
0.0098493946
0.011876811
0.013713925
0.015351293
0.016794586
0.018058152
0.019161372
0.020126762
0.020978991
0.021745293
0.02245654
0.023149298
0.0065300055
0.0055279541
0.0045885379
0.0037381822
0.0029966415
0.0023716076
0.0018580288
0.0014456411
0.0011184022
0.00086893729
0.00067108308
0.00051700536
0.00038605606
0.00028221939
0.00020058114
0.00014097802
9.7556598e-05
6.646496e-05
4.363868e-05
2.7042939e-05
1.5453987e-05
8.0331398e-06
3.6038128e-06
1.1806339e-06
2.1255747e-07
0.007572909
0.0086005668
0.009547751
0.010448366
0.011477922
0.012764424
0.014435756
0.01660647
0.01909561
0.021180684
0.022317432
0.022773661
0.02235769
0.020948791
0.018524583
0.015256484
0.011489297
0.007696822
0.0043731874
0.0019154698
0.00054255043
0.0002747798
0.00096905314
0.0023858846
0.0042597059
0.0064623079
0.0087723181
0.010964412
0.012975542
0.014780745
0.016377257
0.017775167
0.018991899
0.02004917
0.020971414
0.021785243
0.0225199
0.02320843
0.023890386
0.0076552629
0.0065046936
0.0054329289
0.0044493857
0.0035787465
0.0028411092
0.0022351874
0.0017508796
0.0013653418
0.0010684581
0.00082652217
0.00063985232
0.00048451167
0.00036094851
0.00026132701
0.00018591765
0.00012998543
8.9805481e-05
6.0672642e-05
3.9531716e-05
2.4185519e-05
1.3657541e-05
6.9483847e-06
3.0266216e-06
9.4339963e-07
1.5460441e-07
0.0088556097
0.010026179
0.011086738
0.012110761
0.013301424
0.014805663
0.016769085
0.019262737
0.022059374
0.024278267
0.025309869
0.025491279
0.024623318
0.022615522
0.01951348
0.015590809
0.011301423
0.0071985398
0.0038008501
0.0014731965
0.0003640905
0.00041152568
0.0014025714
0.0030548002
0.0052139309
0.0076154691
0.0099611811
0.012149687
0.014133637
0.015897666
0.017445205
0.018790524
0.019954055
0.020959824
0.021834351
0.022606138
0.023306372
0.023970342
0.024640923
0.0089562993
0.0076259172
0.0063923919
0.0052631259
0.0042529793
0.0033888004
0.0026769276
0.0021074199
0.001654161
0.0013041628
0.0010161572
0.00078915617
0.00060082552
0.00045418761
0.00033551996
0.00024297328
0.00017205134
0.0001200037
8.2249013e-05
5.5100017e-05
3.5412543e-05
2.1362274e-05
1.182853e-05
5.8637422e-06
2.4557121e-06
7.2738232e-07
1.0762123e-07
0.010338443
0.011660742
0.012842918
0.014021223
0.015390685
0.017155764
0.019445224
0.022282687
0.025392452
0.027708488
0.028554358
0.028351392
0.026904144
0.024174778
0.020304352