/*--------------------------------*- C++ -*----------------------------------*\
| =========                 |                                                 |
| \\      /  F ield         | OpenFOAM: The Open Source CFD Toolbox           |
|  \\    /   O peration     | Version:  5.0                                   |
|   \\  /    A nd           | Web:      www.OpenFOAM.org                      |
|    \\/     M anipulation  |                                                 |
\*---------------------------------------------------------------------------*/
FoamFile
{
    version     2.0;
    format      ascii;
    class       volVectorField;
    location    "140";
    object      U;
}
// * * * * * * * * * * * * * * * * * * * * * * * * * * * * * * * * * * * * * //

dimensions      [0 1 -1 0 0 0 0];

internalField   nonuniform List<vector> 
9520
(
(1.0134027 0.00011694979 0)
(1.0135072 0.00034309813 0)
(1.0130534 0.00011850514 0)
(1.0136927 0.00055323733 0)
(1.0131593 0.00034684802 0)
(1.0129147 0.00012195217 0)
(1.0139408 0.0007469907 0)
(1.0133486 0.0005584876 0)
(1.0130221 0.000356065 0)
(1.0126794 0.00012928011 0)
(1.0142348 0.00092431333 0)
(1.0136032 0.00075225507 0)
(1.0132143 0.00057335933 0)
(1.0127883 0.00037731804 0)
(1.0124895 0.00013633769 0)
(1.0145595 0.0010837513 0)
(1.0139077 0.00092819337 0)
(1.0134735 0.00077241955 0)
(1.0129829 0.00060821647 0)
(1.0125998 0.00039911244 0)
(1.0122677 0.00014146368 0)
(1.0149015 0.0012241015 0)
(1.0142486 0.0010846793 0)
(1.0137848 0.00095334894 0)
(1.0132463 0.00082097499 0)
(1.0127963 0.0006446899 0)
(1.0123774 0.00041625677 0)
(1.0120643 0.0001421037 0)
(1.01525 0.0013436491 0)
(1.014614 0.0012202436 0)
(1.0141358 0.001114929 0)
(1.0135639 0.0010156272 0)
(1.0130634 0.00087293799 0)
(1.012573 0.00067503839 0)
(1.0121726 0.00041990079 0)
(1.0118613 0.00013993269 0)
(1.0155976 0.0014404913 0)
(1.0149945 0.001333918 0)
(1.0145143 0.0012558409 0)
(1.0139238 0.0011916237 0)
(1.0133865 0.0010837262 0)
(1.0128397 0.00091886738 0)
(1.0123662 0.00068373882 0)
(1.0119658 0.00041409408 0)
(1.0116738 0.00013751517 0)
(1.0159402 0.0015130879 0)
(1.0153839 0.0014251854 0)
(1.0149097 0.0013751097 0)
(1.014315 0.0013483621 0)
(1.0137542 0.0012766122 0)
(1.0131636 0.0011482114 0)
(1.0126306 0.0009354791 0)
(1.0121541 0.0006766355 0)
(1.0117747 0.00040627865 0)
(1.0114942 0.00013698327 0)
(1.0162794 0.0015586863 0)
(1.0157778 0.0014975036 0)
(1.0153111 0.0014726014 0)
(1.0147274 0.0014844501 0)
(1.014157 0.0014515471 0)
(1.013533 0.0013629183 0)
(1.0129524 0.001176828 0)
(1.012411 0.00092992987 0)
(1.0119571 0.00066527266 0)
(1.0115913 0.0004035773 0)
(1.0113211 0.00013869143 0)
(1.0166005 0.0015879817 0)
(1.0161659 0.0015550447 0)
(1.0157066 0.0015531289 0)
(1.0151489 0.0015977822 0)
(1.0145856 0.0016069671 0)
(1.0139392 0.0015639826 0)
(1.01332 0.0014075036 0)
(1.0127242 0.001177544 0)
(1.0122057 0.00091701997 0)
(1.0117665 0.0006617253 0)
(1.0114146 0.0004078754 0)
(1.0111512 0.00014125877 0)
(1.0169098 0.0015914232 0)
(1.0165473 0.0016047958 0)
(1.0160764 0.0016167206 0)
(1.0155684 0.0016861869 0)
(1.0150312 0.0017400156 0)
(1.0143754 0.0017508209 0)
(1.013724 0.0016288943 0)
(1.0130822 0.0014194938 0)
(1.0125092 0.0011661753 0)
(1.0120042 0.00091455115 0)
(1.0115821 0.00066910174 0)
(1.0112412 0.00041575716 0)
(1.0109842 0.00014244593 0)
(1.0171947 0.001597784 0)
(1.0168735 0.0016525881 0)
(1.0164135 0.0016794914 0)
(1.015981 0.0017429592 0)
(1.0154897 0.0018456251 0)
(1.0148389 0.0019220927 0)
(1.0141578 0.0018420918 0)
(1.013475 0.00165676 0)
(1.0128566 0.001413752 0)
(1.0122928 0.001166407 0)
(1.0118093 0.00092682973 0)
(1.0114002 0.00068223352 0)
(1.0110705 0.00042061693 0)
(1.0108226 0.00014030804 0)
(1.0174671 0.0015571117 0)
(1.0171639 0.0017187135 0)
(1.0167544 0.0017118274 0)
(1.0164022 0.0017581935 0)
(1.015967 0.0019142607 0)
(1.015334 0.0020732105 0)
(1.0146186 0.0020496601 0)
(1.0138942 0.0018907026 0)
(1.0132371 0.001660101 0)
(1.0126233 0.0014196738 0)
(1.0120843 0.0011849426 0)
(1.011615 0.0009460931 0)
(1.011221 0.00069097443 0)
(1.0109044 0.00041593384 0)
(1.0106713 0.00013400595 0)
(1.0177177 0.0016278021 0)
(1.0174073 0.0017457351 0)
(1.0170565 0.0017134836 0)
(1.0168069 0.0017093742 0)
(1.0164668 0.0019367611 0)
(1.0158646 0.0022009907 0)
(1.0151031 0.002256583 0)
(1.0143324 0.0021249075 0)
(1.0136409 0.0019052379 0)
(1.0129866 0.0016751489 0)
(1.0123986 0.0014463298 0)
(1.0118739 0.0012118618 0)
(1.0114232 0.00095888741 0)
(1.0110466 0.00068463506 0)
(1.0107483 0.00039843436 0)
(1.010534 0.00012406123 0)
(1.0179983 0.0014907554 0)
(1.0176417 0.0018515811 0)
(1.0172631 0.001684042 0)
(1.0172083 0.0016440581 0)
(1.0169653 0.0019039941 0)
(1.0164231 0.0023137897 0)
(1.0156026 0.0024761968 0)
(1.0147778 0.0023668363 0)
(1.014056 0.0021499564 0)
(1.0133739 0.0019319361 0)
(1.0127443 0.0017129468 0)
(1.0121683 0.0014828906 0)
(1.0116657 0.0012296055 0)
(1.0112363 0.00095170584 0)
(1.0108818 0.00065711597 0)
(1.0106061 0.00036934275 0)
(1.0104134 0.00011214366 0)
(1.018207 0.0017683584 0)
(1.0176934 0.001911053 0)
(1.0173715 0.0016237642 0)
(1.0175814 0.0014838607 0)
(1.0174982 0.0018478331 0)
(1.0169924 0.0024124859 0)
(1.0161133 0.0027170183 0)
(1.0152182 0.0026229714 0)
(1.014471 0.0023952883 0)
(1.0137759 0.0021876098 0)
(1.0131139 0.0019847005 0)
(1.0124908 0.0017624385 0)
(1.0119391 0.0015076661 0)
(1.0114611 0.0012216952 0)
(1.0110593 0.00091614108 0)
(1.0107308 0.00060974318 0)
(1.0104812 0.00033358027 0)
(1.0103096 0.00010032239 0)
(1.0185363 0.0014685008 0)
(1.017873 0.0021930718 0)
(1.0173365 0.0016197541 0)
(1.0178837 0.0012456039 0)
(1.0181184 0.0017266552 0)
(1.0175835 0.002506154 0)
(1.0166239 0.0029966666 0)
(1.0156348 0.0029063966 0)
(1.0148728 0.0026388641 0)
(1.0141834 0.0024373524 0)
(1.013501 0.0022592937 0)
(1.0128363 0.0020522819 0)
(1.0122358 0.001797502 0)
(1.0117113 0.00150078 0)
(1.0112671 0.0011787867 0)
(1.0108957 0.00085154391 0)
(1.010598 0.00055052845 0)
(1.0103738 0.0002973508 0)
(1.0102205 9.0209089e-05 0)
(1.0186449 0.0021499825 0)
(1.0175056 0.0023092759 0)
(1.0171236 0.0013633634 0)
(1.018145 0.00084358928 0)
(1.0187903 0.0015280213 0)
(1.0182732 0.0026046856 0)
(1.0171157 0.0033244987 0)
(1.0160051 0.003233711 0)
(1.0152342 0.0028874292 0)
(1.0145811 0.0026735603 0)
(1.0139014 0.0025306982 0)
(1.0132024 0.0023521666 0)
(1.0125506 0.00210324 0)
(1.0119781 0.0017942582 0)
(1.0114942 0.0014512038 0)
(1.0110876 0.001099544 0)
(1.0107508 0.00076733494 0)
(1.0104847 0.00048987302 0)
(1.0102822 0.00026554553 0)
(1.0101433 8.2455439e-05 0)
(1.0188327 0.0016313457 0)
(1.0176672 0.0028991502 0)
(1.0166467 0.0015302716 0)
(1.0182928 0.00031022265 0)
(1.0196086 0.0011654938 0)
(1.0190958 0.0027556634 0)
(1.0176144 0.0037206962 0)
(1.0163004 0.003623973 0)
(1.0155198 0.0031274586 0)
(1.0149544 0.0028856197 0)
(1.0143122 0.0027887778 0)
(1.0135896 0.0026588504 0)
(1.0128812 0.0024280785 0)
(1.0122555 0.0021078833 0)
(1.011731 0.0017389403 0)
(1.0112929 0.0013570543 0)
(1.0109268 0.00099175702 0)
(1.0106277 0.00067907693 0)
(1.0103894 0.00043564272 0)
(1.0102037 0.00024041716 0)
(1.0100751 7.6812164e-05 0)
(1.0185571 0.0028108401 0)
(1.0166364 0.0032253269 0)
(1.0159604 0.00088319366 0)
(1.0184341 -0.00044116066 0)
(1.0205314 0.00073232741 0)
(1.0200811 0.0028848009 0)
(1.0181472 0.0042568944 0)
(1.0164884 0.0040634775 0)
(1.0157369 0.0033816444 0)
(1.015279 0.0030412019 0)
(1.0147342 0.0030138214 0)
(1.0140049 0.0029661959 0)
(1.0132309 0.00277508 0)
(1.0125398 0.0024475054 0)
(1.0119694 0.0020477305 0)
(1.0115014 0.0016288744 0)
(1.0111129 0.001225512 0)
(1.0107898 0.00087459207 0)
(1.0105255 0.00059988095 0)
(1.0103087 0.0003911168 0)
(1.0101358 0.00022176806 0)
(1.0100138 7.2565592e-05 0)
(1.0182571 0.0021100354 0)
(1.0166457 0.004011905 0)
(1.0148393 0.0014209144 0)
(1.0182976 -0.0014766657 0)
(1.0217167 -4.5941275e-05 0)
(1.021291 0.0031595619 0)
(1.0186835 0.004972496 0)
(1.0165436 0.0046306546 0)
(1.0158413 0.0035720441 0)
(1.0156214 0.0031409635 0)
(1.0151838 0.0031732568 0)
(1.0144659 0.0032584946 0)
(1.0136112 0.0031472602 0)
(1.0128302 0.0028214852 0)
(1.0122021 0.0023838599 0)
(1.0117039 0.0019193702 0)
(1.0112979 0.0014721736 0)
(1.0109589 0.0010777572 0)
(1.0106769 0.00076673112 0)
(1.0104409 0.00053520291 0)
(1.0102399 0.00035612007 0)
(1.0100762 0.00020794696 0)
(1.0099579 6.8945613e-05 0)
(1.0162457 0.0037683608 0)
(1.0146253 0.0047041203 0)
(1.013598 0.00019347664 0)
(1.0182089 -0.002729819 0)
(1.0229399 -0.00085053949 0)
(1.0227586 0.0033323292 0)
(1.019266 0.0059644736 0)
(1.0163742 0.0053445845 0)
(1.0156918 0.0037622307 0)
(1.0159252 0.0030901726 0)
(1.0156793 0.0032280076 0)
(1.0150046 0.0035242527 0)
(1.0140414 0.0035482306 0)
(1.0131306 0.0032418132 0)
(1.0124225 0.0027566742 0)
(1.0118911 0.0022330584 0)
(1.0114718 0.0017335448 0)
(1.0111238 0.0012918381 0)
(1.0108328 0.00093924799 0)
(1.010585 0.00067663507 0)
(1.0103704 0.0004836849 0)
(1.0101808 0.00032909489 0)
(1.0100231 0.00019682143 0)
(1.0099067 6.529837e-05 0)
(1.015425 0.0031193804 0)
(1.0121969 0.0055145178 0)
(1.0111791 0.0013166051 0)
(1.0175755 -0.0045581706 0)
(1.024788 -0.0022878017 0)
(1.0245625 0.0039137376 0)
(1.0198267 0.0072841089 0)
(1.0159325 0.006306162 0)
(1.015255 0.0038695983 0)
(1.0160768 0.0028702161 0)
(1.0162772 0.0031883397 0)
(1.0156139 0.0037244335 0)
(1.0145513 0.0039906365 0)
(1.0134481 0.0037295396 0)
(1.0126228 0.0031796361 0)
(1.0120516 0.0025755567 0)
(1.0116246 0.0020112641 0)
(1.0112753 0.0015177105 0)
(1.0109818 0.0011204101 0)
(1.0107305 0.00082119641 0)
(1.0105106 0.00060370112 0)
(1.0103115 0.00044126563 0)
(1.0101301 0.00030789368 0)
(1.009975 0.00018630695 0)
(1.0098602 6.1159348e-05 0)
(1.0149228 0.0052634249 0)
(1.0088669 0.0064986303 0)
(1.008175 -0.00070295717 0)
(1.016929 -0.0062517005 0)
(1.0261391 -0.0035444734 0)
(1.0267 0.004026376 0)
(1.0204742 0.0090769506 0)
(1.015127 0.0075205359 0)
(1.0144427 0.0039671434 0)
(1.0160967 0.0023604929 0)
(1.0170143 0.0029632739 0)
(1.0163581 0.0039020695 0)
(1.0151319 0.0044790867 0)
(1.0137947 0.004313909 0)
(1.0127926 0.0036752122 0)
(1.012169 0.002952937 0)
(1.0117448 0.0023051216 0)
(1.0114051 0.0017551211 0)
(1.0111157 0.0013114992 0)
(1.0108666 0.00097214761 0)
(1.0106488 0.00072291179 0)
(1.010451 0.00054293819 0)
(1.0102628 0.00040454635 0)
(1.0100867 0.00028916891 0)
(1.0099317 0.00017458923 0)
(1.0098185 5.6327402e-05 0)
(1.010559 0.0045858045 0)
(1.0096089 0.0077033399 0)
(1.0050776 0.00092030222 0)
(1.0152332 -0.0091041467 0)
(1.0280858 -0.0059738779 0)
(1.0290843 0.0053076996 0)
(1.0209035 0.011353509 0)
(1.0138239 0.0091165678 0)
(1.0131379 0.0039469435 0)
(1.0158887 0.0015679867 0)
(1.0178612 0.0024050828 0)
(1.0173764 0.004051567 0)
(1.0158107 0.0050407832 0)
(1.0141497 0.0050412945 0)
(1.0129127 0.0042733785 0)
(1.0122222 0.0033759205 0)
(1.0118167 0.002612603 0)
(1.0115047 0.0019999371 0)
(1.0112287 0.0015121485 0)
(1.0109857 0.0011321748 0)
(1.0107745 0.00084571014 0)
(1.0105853 0.00063847939 0)
(1.0104043 0.000488521 0)
(1.010224 0.00037079483 0)
(1.0100498 0.00026853115 0)
(1.0098936 0.0001604239 0)
(1.0097819 5.0875119e-05 0)
(0.99857759 0.0072488032 0)
(0.99973756 0.0088861491 0)
(1.0028505 -0.0022541994 0)
(1.0144416 -0.011602163 0)
(1.029312 -0.0074686868 0)
(1.03107 0.0051722048 0)
(1.0215844 0.014360747 0)
(1.011851 0.011163163 0)
(1.0111437 0.00393922 0)
(1.0154005 0.00024191148 0)
(1.0188554 0.0014935259 0)
(1.0187432 0.0040809974 0)
(1.0167289 0.0057286022 0)
(1.0145004 0.0059405558 0)
(1.0129553 0.005022248 0)
(1.0121758 0.0038564591 0)
(1.0118191 0.0029281515 0)
(1.0115648 0.0022426781 0)
(1.0113175 0.0017178629 0)
(1.0110839 0.0013024922 0)
(1.0108801 0.00097683924 0)
(1.0107034 0.00073374357 0)
(1.0105385 0.00056073396 0)
(1.0103701 0.00043539871 0)
(1.0101946 0.00033629293 0)
(1.010019 0.00024286769 0)
(1.0098611 0.00014369115 0)
(1.0097508 4.5144788e-05 0)
(0.98580597 0.0075839079 0)
(0.98474364 0.0099074635 0)
(0.99433508 9.7230776e-05 0)
(1.0130663 -0.015426454 0)
(1.0325496 -0.011023966 0)
(1.0328978 0.0075055878 0)
(1.0213388 0.018070364 0)
(1.0090388 0.013697292 0)
(1.0083518 0.0037820737 0)
(1.0145295 -0.0015147998 0)
(1.0200376 -4.6210141e-05 0)
(1.0205798 0.0040037681 0)
(1.0179745 0.0065803246 0)
(1.0149153 0.0070933737 0)
(1.0128717 0.0059520637 0)
(1.0119893 0.0044132403 0)
(1.0117182 0.0032394577 0)
(1.0115732 0.0024650924 0)
(1.011382 0.0019173086 0)
(1.0111624 0.0014813883 0)
(1.0109624 0.0011203652 0)
(1.0107967 0.00083570466 0)
(1.0106523 0.00062796919 0)
(1.0105077 0.00048355649 0)
(1.0103481 0.00038033244 0)
(1.0101738 0.00029790943 0)
(1.0099941 0.00021232677 0)
(1.0098347 0.00012574182 0)
(1.0097246 3.9719024e-05 0)
(0.9716567 0.0096845087 0)
(0.9707673 0.011432837 0)
(0.98308271 -0.0039985338 0)
(1.0097706 -0.018383113 0)
(1.0340603 -0.012695818 0)
(1.0364989 0.0074690253 0)
(1.0195033 0.022721843 0)
(1.004782 0.017047169 0)
(1.0044113 0.0035354187 0)
(1.0132481 -0.0041200521 0)
(1.0214773 -0.0021445557 0)
(1.0229898 0.0036160283 0)
(1.0196772 0.0076910698 0)
(1.0154171 0.0086113069 0)
(1.0126125 0.0071417064 0)
(1.0115964 0.0050608803 0)
(1.0114716 0.003529157 0)
(1.0115136 0.0026389359 0)
(1.0114249 0.002089122 0)
(1.0112299 0.0016614079 0)
(1.0110249 0.0012793492 0)
(1.0108612 0.00095162017 0)
(1.0107354 0.0006989222 0)
(1.0106208 0.00052204018 0)
(1.0104922 0.0004042967 0)
(1.0103378 0.0003220937 0)
(1.0101608 0.0002538492 0)
(1.0099762 0.000180433 0)
(1.0098136 0.00010880743 0)
(1.0097028 3.5264358e-05 0)
(0.95544635 0.010678757 1.1873832e-23)
(0.95564097 0.011872727 0)
(0.97123707 -0.0042742147 0)
(1.0055815 -0.02339832 0)
(1.0339067 -0.018156134 0)
(1.0404093 0.011258572 0)
(1.0190346 0.02744727 0)
(0.99886181 0.020665207 0)
(0.9992121 0.0031874369 0)
(1.0113382 -0.0073911716 0)
(1.0232532 -0.0052746901 0)
(1.0261652 0.0030494321 0)
(1.0219536 0.0090486734 0)
(1.0160594 0.010653338 0)
(1.0121195 0.0086854168 0)
(1.0108883 0.0058288344 0)
(1.0110197 0.0037712681 0)
(1.0113639 0.0027213766 0)
(1.0114531 0.0022019648 0)
(1.0113008 0.001828387 0)
(1.0110795 0.0014538658 0)
(1.0108992 0.0010899778 0)
(1.0107811 0.00078367461 0)
(1.0106969 0.00056002936 0)
(1.0106086 0.00041283581 0)
(1.0104916 0.00032029295 0)
(1.0103385 0.00025828049 0)
(1.0101555 0.00020407873 0)
(1.0099652 0.00015074013 0)
(1.0097973 9.4871951e-05 0)
(1.0096841 3.2331703e-05 0)
(0.93691207 0.01265692 -1.2510906e-23)
(0.93793906 0.013181747 -1.2407903e-23)
(0.95895369 -0.0085059535 0)
(0.99746729 -0.027317742 0)
(1.0310167 -0.019499783 0)
(1.0403101 0.0096474603 0)
(1.0259156 0.034511811 0)
(0.99328303 0.024920377 0)
(0.99239008 0.0022751737 0)
(1.0089428 -0.011910586 0)
(1.0253549 -0.0091912786 0)
(1.030222 0.0018993384 0)
(1.0249956 0.010853374 0)
(1.0168566 0.013357061 0)
(1.0113142 0.010751344 0)
(1.0097445 0.0067303878 0)
(1.0102691 0.0039393735 0)
(1.0110895 0.0026552391 0)
(1.011465 0.0022035901 0)
(1.011397 0.0019596699 0)
(1.0111457 0.0016442942 0)
(1.0109211 0.001261643 0)
(1.0107881 0.00089617087 0)
(1.0107256 0.00060886328 0)
(1.0106821 0.00041405883 0)
(1.0106159 0.00029522792 0)
(1.0105064 0.00022822596 0)
(1.0103499 0.00018838486 0)
(1.0101583 0.00015616697 0)
(1.0099596 0.0001259602 0)
(1.0097843 8.5305103e-05 0)
(1.0096674 3.1266324e-05 0)
(0.91708097 0.014370596 1.2559909e-23)
(0.91817579 0.014063547 3.9483658e-23)
(0.94258387 -0.010581369 0)
(0.98795846 -0.032074569 0)
(1.0229053 -0.023930717 0)
(1.0326126 0.014014202 0)
(1.0223959 0.041018068 0)
(0.98952991 0.030671633 0)
(0.98471094 0.001616763 0)
(1.0056397 -0.017500301 0)
(1.0280279 -0.014657769 0)
(1.0353792 0.00051622875 0)
(1.0289108 0.012989046 0)
(1.0178803 0.016959665 0)
(1.0100921 0.01345938 0)
(1.0080074 0.0078567752 0)
(1.009098 0.0039544392 0)
(1.010649 0.0023612182 0)
(1.0114857 0.0020493808 0)
(1.0115259 0.0020168877 0)
(1.0112533 0.0018453643 0)
(1.0109465 0.0014809829 0)
(1.010761 0.0010541302 0)
(1.0107003 0.00068455329 0)
(1.0106989 0.00041915557 0)
(1.0106929 0.00025400173 0)
(1.0106439 0.00016650128 0)
(1.010536 0.00013056238 0)
(1.0103714 0.0001198557 0)
(1.0101682 0.00011595786 0)
(1.0099582 0.00010825449 0)
(1.0097733 8.1021281e-05 0)
(1.0096515 3.2188476e-05 0)
(0.89717804 0.016265077 0)
(0.89761839 0.015348219 -3.9551242e-23)
(0.92423877 -0.014159964 0)
(0.97405916 -0.036820681 0)
(1.012451 -0.023842233 0)
(1.0188329 0.016211466 0)
(0.99982743 0.048855763 0)
(0.97943374 0.038590732 0)
(0.97484015 -0.00040539176 0)
(1.0017781 -0.024468158 0)
(1.0308735 -0.020943674 0)
(1.0416356 -0.0018363862 0)
(1.0339305 0.015880101 0)
(1.0190792 0.0216517 0)
(1.0083108 0.017059337 0)
(1.0054928 0.0092018674 0)
(1.0073587 0.003797737 0)
(1.0099804 0.0017093079 0)
(1.0115261 0.0016109092 0)
(1.0118063 0.001982938 0)
(1.011447 0.0020445089 0)
(1.0110081 0.0017582201 0)
(1.0107132 0.0012821313 0)
(1.0106178 0.00080839999 0)
(1.0106467 0.00044402544 0)
(1.0107059 0.0002067542 0)
(1.0107321 7.944002e-05 0)
(1.0106921 3.3411346e-05 0)
(1.0105781 3.6378553e-05 0)
(1.0104009 6.0770526e-05 0)
(1.0101835 8.5634837e-05 0)
(1.0099604 9.874034e-05 0)
(1.0097639 8.2390647e-05 0)
(1.0096354 3.5063416e-05 0)
(0.87774209 0.018134055 -5.443962e-24)
(0.87752742 0.016483887 0)
(0.90466692 -0.017530489 -3.1324332e-23)
(0.95687016 -0.041458047 0)
(0.99861341 -0.027116993 0)
(1.0045989 0.022790555 0)
(0.98011544 0.055835846 0)
(0.96045387 0.044509355 0)
(0.96318595 6.1850491e-05 0)
(0.99614445 -0.032748718 0)
(1.034164 -0.029207871 0)
(1.0488138 -0.0041673048 0)
(1.0398798 0.019200849 0)
(1.0205315 0.027713573 0)
(1.0057902 0.021714789 0)
(1.0019409 0.010928565 0)
(1.0048735 0.0033144421 0)
(1.0090091 0.00060521357 0)
(1.011598 0.00076235727 0)
(1.0122917 0.0017349408 0)
(1.0118007 0.0022095546 0)
(1.0111638 0.0021124683 0)
(1.0106684 0.0016070983 0)
(1.01048 0.0010102693 0)
(1.0105141 0.00051036379 0)
(1.0106371 0.00016746012 0)
(1.0107513 -2.5986774e-05 0)
(1.0107994 -9.9705254e-05 0)
(1.0107587 -9.4352172e-05 0)
(1.0106322 -4.7045197e-05 0)
(1.0104372 1.4757774e-05 0)
(1.010203 6.7905427e-05 0)
(1.0099633 9.6993566e-05 0)
(1.009755 8.9014591e-05 0)
(1.009618 3.9800559e-05 0)
(0.859726 0.019881308 1.4024264e-23)
(0.85878365 0.017758217 6.6646517e-23)
(0.8848528 -0.021162888 3.1308196e-23)
(0.93728942 -0.046291199 -2.1987667e-23)
(0.98157648 -0.02970252 -1.5874654e-22)
(0.98837282 0.027008549 0)
(0.96261897 0.063977945 0)
(0.9426232 0.050737687 0)
(0.95072724 -0.0026582602 0)
(0.98931922 -0.042534519 0)
(1.0371335 -0.037880268 0)
(1.0566886 -0.0080454675 0)
(1.0464006 0.023778055 0)
(1.0217302 0.035416196 0)
(1.0022977 0.02769017 0)
(0.99709649 0.012992341 0)
(1.0014248 0.0025287542 0)
(1.0076359 -0.0011932105 0)
(1.0117295 -0.00061735092 0)
(1.0130398 0.0011850494 0)
(1.0124697 0.0023769098 0)
(1.0114446 0.0025297545 0)
(1.0106762 0.0020801205 0)
(1.0102929 0.0013295928 0)
(1.0102896 0.00064729534 0)
(1.0104681 0.00015440387 0)
(1.0106797 -0.00013904029 0)
(1.010835 -0.00026470609 0)
(1.0108917 -0.00027242823 0)
(1.0108419 -0.0002099838 0)
(1.0106959 -0.00011391275 0)
(1.0104791 -1.5084788e-05 0)
(1.0102246 6.3833175e-05 0)
(1.0099668 0.00010512748 0)
(1.0097444 0.00010156935 0)
(1.0095986 4.6146598e-05 0)
(0.84415309 0.021430105 -1.579684e-23)
(0.84230765 0.018921698 -9.4518569e-23)
(0.86593889 -0.024610166 0)
(0.91616712 -0.051036557 2.0634375e-22)
(0.96120741 -0.031842169 1.5799805e-22)
(0.97068758 0.03040425 1.0578133e-22)
(0.9440184 0.071699894 5.4940534e-23)
(0.92553105 0.052663786 0)
(0.93741647 -0.0041507328 0)
(0.98394123 -0.054439481 0)
(1.0426063 -0.050184878 0)
(1.0671371 -0.010746778 0)
(1.0533346 0.029078453 0)
(1.0219896 0.045079354 0)
(0.99729591 0.035265448 0)
(0.99056738 0.015583981 0)
(0.99678381 0.0011574729 0)
(1.0057661 -0.0037502194 0)
(1.0119276 -0.0027820003 0)
(1.0141719 0.00023367858 0)
(1.0135603 0.0024618429 0)
(1.0119877 0.0031153282 0)
(1.0107382 0.0027261581 0)
(1.0100814 0.0018295861 0)
(1.0099616 0.00089741164 0)
(1.0101768 0.00019212777 0)
(1.0104944 -0.00024755613 0)
(1.0107767 -0.00045626756 0)
(1.0109544 -0.0004967393 0)
(1.0110066 -0.00043031219 0)
(1.0109376 -0.00030499827 0)
(1.0107667 -0.00016070782 0)
(1.0105246 -2.7264211e-05 0)
(1.0102448 7.2550759e-05 0)
(1.009969 0.00012581543 0)
(1.0097317 0.00011920652 0)
(1.0095765 5.3737884e-05 0)
(0.83170992 0.022768447 2.7415125e-24)
(0.82908524 0.02005561 1.921798e-23)
(0.8485741 -0.027845542 1.6302666e-23)
(0.8946235 -0.055418875 -9.2778713e-23)
(0.93929084 -0.034658202 -1.9161533e-22)
(0.94957316 0.03543445 1.563012e-22)
(0.92625245 0.078830931 -6.7467137e-23)
(0.90676148 0.059922197 2.448324e-23)
(0.92419215 -0.011284008 0)
(0.97750621 -0.066627216 0)
(1.0446463 -0.061858435 0)
(1.0802818 -0.018296564 0)
(1.0645329 0.036087079 0)
(1.0215331 0.057007783 0)
(0.98992872 0.044348901 0)
(0.98204239 0.01871071 0)
(0.99062872 -0.00074473374 0)
(1.0032783 -0.007481954 0)
(1.0122239 -0.0058284651 0)
(1.015807 -0.0013353635 0)
(1.0152329 0.0024419431 0)
(1.0129495 0.0038901499 0)
(1.0109291 0.0036456226 0)
(1.0098335 0.0025726397 0)
(1.009519 0.0013127233 0)
(1.0097384 0.0003150827 0)
(1.0101674 -0.00033435104 0)
(1.0105989 -0.00066731809 0)
(1.0109244 -0.00076508492 0)
(1.0111057 -0.00070992667 0)
(1.0111401 -0.00056330137 0)
(1.0110434 -0.00037534545 0)
(1.0108425 -0.00018543937 0)
(1.0105699 -2.1726698e-05 0)
(1.0102666 9.6050928e-05 0)
(1.0099692 0.00015300836 0)
(1.0097164 0.00014087649 0)
(1.0095514 6.2193539e-05 0)
(0.82283567 0.023684908 1.8866832e-24)
(0.81977437 0.020876692 -7.1437477e-25)
(0.83408849 -0.030504475 0)
(0.87329379 -0.059348096 -4.7870301e-24)
(0.9159597 -0.036954087 -6.4905588e-23)
(0.92806747 0.039399283 0)
(0.90627564 0.08657253 -2.5344346e-22)
(0.88943048 0.065512562 -2.0833426e-22)
(0.90671396 -0.013366476 0)
(0.97223248 -0.079203126 0)
(1.0442225 -0.076426456 0)
(1.0852267 -0.021997407 0)
(1.0811818 0.042454816 0)
(1.0259913 0.070479235 0)
(0.98081367 0.055346489 0)
(0.9707889 0.02220285 0)
(0.9828167 -0.0035412114 0)
(1.0000301 -0.01235311 0)
(1.0126313 -0.010204973 0)
(1.0180946 -0.0035819591 0)
(1.0176741 0.0021842527 0)
(1.0144958 0.0049232262 0)
(1.0113775 0.0049553652 0)
(1.0095358 0.0036375917 0)
(1.0089484 0.0019797657 0)
(1.0091135 0.0005562229 0)
(1.0096644 -0.00038316253 0)
(1.0102725 -0.00089219067 0)
(1.0107773 -0.0010772713 0)
(1.0111173 -0.001049634 0)
(1.0112829 -0.00089182806 0)
(1.0112874 -0.00066530016 0)
(1.0111561 -0.00041839823 0)
(1.0109196 -0.00018759134 0)
(1.0106157 1.2502697e-06 0)
(1.0102853 0.00013072157 0)
(1.0099664 0.00018771652 0)
(1.0096979 0.00016564322 0)
(1.0095232 7.114786e-05 0)
(0.81918857 0.024336084 0)
(0.81519149 0.021659367 0)
(0.82336322 -0.032694932 7.3731117e-25)
(0.85375864 -0.062588259 0)
(0.89212189 -0.039135463 6.7613365e-24)
(0.90514499 0.043808226 1.6931841e-22)
(0.88686457 0.093838487 3.9005248e-22)
(0.87120061 0.072199998 -1.818476e-22)
(0.88917017 -0.014066316 0)
(0.95890559 -0.092956358 0)
(1.0421752 -0.08512725 0)
(1.0840607 -0.033717316 0)
(1.0904793 0.051160008 0)
(1.0358199 0.086924149 0)
(0.97402366 0.067996961 0)
(0.95672252 0.026260505 0)
(0.97284483 -0.0073435856 0)
(0.99601839 -0.01897696 0)
(1.0131557 -0.015829734 0)
(1.0211855 -0.0069332397 0)
(1.021133 0.0017315179 0)
(1.016818 0.0062125939 0)
(1.0122019 0.0068083476 0)
(1.0092426 0.0051783575 0)
(1.008168 0.0029528718 0)
(1.0082684 0.00098645868 0)
(1.008939 -0.00036790441 0)
(1.009761 -0.0011287142 0)
(1.0104863 -0.0014371696 0)
(1.0110198 -0.0014541621 0)
(1.0113461 -0.0012938631 0)
(1.0114791 -0.0010347546 0)
(1.0114444 -0.00073339608 0)
(1.011272 -0.00043329653 0)
(1.010997 -0.00016787404 0)
(1.0106597 4.0752636e-05 0)
(1.0103013 0.00017595978 0)
(1.0099601 0.00022725343 0)
(1.0096761 0.00019218583 0)
(1.009492 8.0282456e-05 0)
(0.81407234 0.022166445 -6.3816315e-25)
(0.82026944 0.024710125 0)
(0.81599871 -0.034028887 -9.9506318e-24)
(0.83766806 -0.065012376 -1.8830334e-23)
(0.86913036 -0.041101227 1.9768187e-24)
(0.88247358 0.047669471 -1.9922791e-23)
(0.86734013 0.10076238 6.4871372e-24)
(0.85398973 0.078455632 -1.9849936e-22)
(0.87106963 -0.015524749 2.3201032e-22)
(0.94109533 -0.10386029 0)
(1.0311036 -0.10072656 -1.3433955e-21)
(1.0793314 -0.033037432 0)
(1.0853142 0.056347477 0)
(1.0409295 0.10676628 0)
(0.96866142 0.084558893 0)
(0.94085321 0.030613032 0)
(0.96080928 -0.012286931 0)
(0.99094111 -0.027181209 0)
(1.0138795 -0.02344882 0)
(1.0252123 -0.011260292 0)
(1.0258464 0.00074100779 0)
(1.0201903 0.0079243459 0)
(1.013526 0.0093478404 0)
(1.0089891 0.0073924851 0)
(1.0071252 0.0043553024 0)
(1.0071168 0.0016653276 0)
(1.0079255 -0.0002790497 0)
(1.0090185 -0.0013709112 0)
(1.010019 -0.0018512315 0)
(1.0107914 -0.0019325133 0)
(1.0113119 -0.0017767749 0)
(1.0116006 -0.0014883317 0)
(1.0116886 -0.0011355409 0)
(1.0116065 -0.00076663185 0)
(1.0113886 -0.00042092053 0)
(1.0110727 -0.00012737096 0)
(1.0107003 9.3972999e-05 0)
(1.0103135 0.00022922902 0)
(1.0099502 0.00027007294 0)
(1.009651 0.00021972422 0)
(1.0094579 8.9394225e-05 0)
(0.81261777 -0.034551921 8.4154718e-24)
(0.81825804 0.022794693 0)
(0.82667416 0.024884885 -1.0083621e-23)
(0.82365189 -0.066575175 1.8818595e-23)
(0.84896552 -0.042473741 5.4405431e-24)
(0.86098981 0.050953665 3.19752e-22)
(0.84934937 0.10683916 -4.6845004e-22)
(0.83831401 0.084488524 -1.3861217e-23)
(0.85370429 -0.016839868 1.2801573e-22)
(0.92193068 -0.11549108 4.9595831e-23)
(1.0139227 -0.1153877 -1.5054639e-21)
(1.0686979 -0.041484781 1.4073991e-21)
(1.0674023 0.067497726 0)
(1.021096 0.12638519 0)
(0.9564722 0.10433774 0)
(0.92438114 0.0373462 0)
(0.94565327 -0.019195278 0)
(0.98522219 -0.037668918 0)
(1.0146599 -0.032592132 0)
(1.0303408 -0.017362129 0)
(1.0321379 -0.00053691206 0)
(1.0248547 0.0099219056 0)
(1.0155515 0.012813071 0)
(1.0087886 0.01048088 0)
(1.0057738 0.0063734046 0)
(1.0055207 0.0026303349 0)
(1.0065484 -4.6917089e-05 0)
(1.0079779 -0.001636294 0)
(1.0093387 -0.0023452951 0)
(1.0104101 -0.0025035286 0)
(1.0111649 -0.0023528692 0)
(1.011638 -0.0020342184 0)
(1.0118725 -0.0016300132 0)
(1.0119053 -0.0011935595 0)
(1.0117705 -0.00076631161 0)
(1.0115036 -0.00038292886 0)
(1.0111452 -6.8549035e-05 0)
(1.0107371 0.00015848647 0)
(1.0103214 0.00028771314 0)
(1.0099364 0.00031523812 0)
(1.0096226 0.00024757642 0)
(1.0094213 9.8291141e-05 0)
(0.81334839 -0.067152508 6.658667e-24)
(0.81356704 -0.033992188 2.5397095e-23)
(0.82766217 0.023336059 0)
(0.83671174 0.02470931 -2.2722591e-24)
(0.83088962 -0.043470098 3.1964596e-24)
(0.84222736 0.053599929 -1.3923758e-22)
(0.83369628 0.11186744 0)
(0.82521635 0.089754765 1.376708e-23)
(0.83804002 -0.018047719 3.2699043e-24)
(0.90204744 -0.1275982 -4.8940748e-23)
(0.99387411 -0.12909948 1.6434079e-21)
(1.0536399 -0.055532049 1.5743719e-21)
(1.0518988 0.078242119 0)
(0.99488612 0.1451045 0)
(0.93892869 0.1238351 0)
(0.9081666 0.044772465 0)
(0.92887717 -0.026418737 0)
(0.97792264 -0.050223869 0)
(1.0158023 -0.044430553 0)
(1.0365942 -0.024621422 0)
(1.0402044 -0.0028584806 0)
(1.0312322 0.012603182 0)
(1.0184118 0.017377315 0)
(1.0086732 0.01474846 0)
(1.0040221 0.0091843547 0)
(1.0033539 0.0040021824 0)
(1.0046705 0.0003095703 0)
(1.0065562 -0.0019284098 0)
(1.0083918 -0.0029349219 0)
(1.0098489 -0.0031949741 0)
(1.0108923 -0.0030431995 0)
(1.0115816 -0.0026846435 0)
(1.0119851 -0.0022241008 0)
(1.0121537 -0.0017190244 0)
(1.0121249 -0.0012106114 0)
(1.0119331 -0.00073469215 0)
(1.0116153 -0.00032201268 0)
(1.011213 5.0125861e-06 0)
(1.0107689 0.00023128288 0)
(1.0103249 0.00034975247 0)
(1.0099188 0.0003608523 0)
(1.0095914 0.00027479778 0)
(1.0093824 0.00010687773 0)
(0.81645088 -0.044059422 -1.0820109e-23)
(0.80910518 -0.066882469 -6.6453768e-24)
(0.82081194 -0.032715677 -2.2676037e-23)
(0.84140781 0.023715687 -1.3873198e-23)
(0.8496234 0.024221744 5.0126036e-23)
(0.82683675 0.055576957 1.3014047e-22)
(0.82160315 0.11567886 6.6270906e-23)
(0.81576678 0.094135011 0)
(0.82519637 -0.019388934 -1.263694e-23)
(0.88200257 -0.13911562 -3.2477868e-22)
(0.97124479 -0.14376957 0)
(1.0347825 -0.064988235 -2.0243061e-21)
(1.0402132 0.074860153 0)
(0.97602139 0.16387641 0)
(0.92254703 0.13708518 0)
(0.89340981 0.055051517 0)
(0.91163297 -0.036663852 0)
(0.96972551 -0.065546755 0)
(1.0169529 -0.057681434 0)
(1.0441476 -0.034538836 0)
(1.0504008 -0.005434189 0)
(1.0395168 0.015505894 0)
(1.0224176 0.023447929 0)
(1.0086086 0.020465714 0)
(1.0017332 0.013066948 0)
(1.0004596 0.0058845502 0)
(1.0021175 0.00080346008 0)
(1.0046487 -0.0022627837 0)
(1.0071143 -0.0036925829 0)
(1.0090799 -0.0040540132 0)
(1.0104844 -0.0038797864 0)
(1.0114285 -0.0034587424 0)
(1.0120218 -0.0029275593 0)
(1.0123425 -0.0023484175 0)
(1.0124381 -0.0017582462 0)
(1.0123436 -0.0011896771 0)
(1.0120921 -0.00067500761 0)
(1.011722 -0.00024183304 0)
(1.0112754 9.0042571e-05 0)
(1.0107954 0.00030944379 0)
(1.0103236 0.00041368447 0)
(1.0098977 0.00040598091 0)
(1.0095574 0.00030131544 0)
(1.0093416 0.00011509993 0)
(0.81550721 0.056262503 6.461296e-24)
(0.80838875 -0.044108253 8.8111382e-24)
(0.81111223 -0.066125449 2.6884266e-23)
(0.83353897 -0.030864462 1.4316978e-23)
(0.85824483 0.023810889 -7.265088e-23)
(0.86558331 0.023399341 -2.8777483e-23)
(0.81436575 0.11827522 -1.3156865e-22)
(0.81057828 0.097656404 -5.9987314e-23)
(0.81567838 -0.020613539 -6.9370326e-23)
(0.86335045 -0.1496757 3.0346518e-22)
(0.94625436 -0.15770312 -1.9244706e-21)
(1.0121207 -0.076548777 9.6361114e-22)
(1.01743 0.079462228 0)
(0.96365805 0.1773486 -6.9341937e-22)
(0.9017108 0.15805178 -8.5192434e-22)
(0.87920102 0.056653801 0)
(0.89601217 -0.04301615 0)
(0.96017186 -0.083168944 0)
(1.018406 -0.074633301 0)
(1.052913 -0.045360389 0)
(1.0627561 -0.0099719951 0)
(1.0502533 0.019559123 0)
(1.0276125 0.031180063 0)
(1.0085931 0.028083508 0)
(0.99872817 0.018215534 0)
(0.99660757 0.0084500417 0)
(0.99869613 0.0014374788 0)
(1.0021114 -0.0027002979 0)
(1.0054189 -0.0046659804 0)
(1.0080666 -0.0051465437 0)
(1.0099361 -0.004916537 0)
(1.0111846 -0.0043877708 0)
(1.0119874 -0.0037549477 0)
(1.0124698 -0.0030874661 0)
(1.0127015 -0.0024121792 0)
(1.0127211 -0.0017519282 0)
(1.0125582 -0.0011347639 0)
(1.0122456 -0.00059126944 0)