/*--------------------------------*- C++ -*----------------------------------*\
| =========                 |                                                 |
| \\      /  F ield         | OpenFOAM: The Open Source CFD Toolbox           |
|  \\    /   O peration     | Version:  5.0                                   |
|   \\  /    A nd           | Web:      www.OpenFOAM.org                      |
|    \\/     M anipulation  |                                                 |
\*---------------------------------------------------------------------------*/
FoamFile
{
    version     2.0;
    format      ascii;
    class       volVectorField;
    location    "140";
    object      U_0;
}
// * * * * * * * * * * * * * * * * * * * * * * * * * * * * * * * * * * * * * //

dimensions      [0 1 -1 0 0 0 0];

internalField   nonuniform List<vector> 
9520
(
(1.0134076 0.00011693897 0)
(1.013512 0.00034308186 0)
(1.0130583 0.00011841199 0)
(1.0136975 0.00055323916 0)
(1.0131641 0.0003466138 0)
(1.0129198 0.00012175018 0)
(1.0139455 0.00074705226 0)
(1.0133533 0.00055813331 0)
(1.0130271 0.00035550419 0)
(1.012685 0.00012897973 0)
(1.0142393 0.00092447717 0)
(1.0136077 0.00075182196 0)
(1.0132192 0.00057248001 0)
(1.0127938 0.00037643073 0)
(1.0124956 0.00013605162 0)
(1.0145637 0.0010840665 0)
(1.013912 0.00092771826 0)
(1.0134782 0.00077126914 0)
(1.0129883 0.00060679315 0)
(1.0126057 0.00039822685 0)
(1.0122742 0.0001412753 0)
(1.0149055 0.0012246222 0)
(1.0142526 0.0010841868 0)
(1.0137892 0.00095198307 0)
(1.0132514 0.00081905351 0)
(1.0128021 0.00064323682 0)
(1.0123838 0.00041564475 0)
(1.012071 0.00014201509 0)
(1.0152535 0.0013444036 0)
(1.0146176 0.0012197543 0)
(1.0141399 0.0011133864 0)
(1.0135686 0.0010132624 0)
(1.0130689 0.00087092884 0)
(1.0125793 0.00067399948 0)
(1.0121792 0.00041961314 0)
(1.011868 0.00013985521 0)
(1.0156005 0.0014414556 0)
(1.0149975 0.0013334377 0)
(1.014518 0.001254141 0)
(1.0139282 0.0011888622 0)
(1.0133917 0.0010811813 0)
(1.0128458 0.00091738223 0)
(1.0123727 0.00068322865 0)
(1.0119725 0.00041389141 0)
(1.0116807 0.00013733506 0)
(1.0159422 0.0015140866 0)
(1.0153865 0.0014246942 0)
(1.0149129 0.0013732646 0)
(1.014319 0.0013452287 0)
(1.0137592 0.0012735588 0)
(1.0131694 0.0011462423 0)
(1.012637 0.00093472005 0)
(1.0121608 0.00067628849 0)
(1.0117816 0.00040580611 0)
(1.0115014 0.00013664016 0)
(1.0162803 0.0015593162 0)
(1.0157801 0.0014968568 0)
(1.0153141 0.0014706206 0)
(1.0147308 0.0014809769 0)
(1.0141615 0.0014479974 0)
(1.0135386 0.0013604446 0)
(1.0129587 0.0011757477 0)
(1.0124176 0.00092943419 0)
(1.0119639 0.00066450435 0)
(1.0115985 0.0004026204 0)
(1.0113289 0.00013820758 0)
(1.0166005 0.0015876678 0)
(1.0161686 0.0015541371 0)
(1.0157095 0.0015511083 0)
(1.0151517 0.0015940672 0)
(1.0145895 0.0016029266 0)
(1.0139444 0.0015609712 0)
(1.0133261 0.0014060477 0)
(1.0127307 0.001176855 0)
(1.0122125 0.00091595792 0)
(1.0117736 0.0006601797 0)
(1.0114223 0.00040646377 0)
(1.0111596 0.00014072226 0)
(1.0169092 0.0015897372 0)
(1.016551 0.0016034893 0)
(1.0160796 0.0016149266 0)
(1.0155703 0.0016825169 0)
(1.0150343 0.0017355085 0)
(1.0143802 0.0017472016 0)
(1.0137298 0.0016270249 0)
(1.0130885 0.0014185574 0)
(1.0125158 0.0011648336 0)
(1.0120113 0.00091240645 0)
(1.0115898 0.00066681628 0)
(1.0112495 0.00041413224 0)
(1.0109932 0.00014196783 0)
(1.0171935 0.0015938696 0)
(1.0168779 0.0016504197 0)
(1.0164157 0.0016783546 0)
(1.0159812 0.0017398009 0)
(1.0154915 0.0018406597 0)
(1.0148432 0.0019176765 0)
(1.0141635 0.0018397484 0)
(1.0134811 0.0016555638 0)
(1.0128631 0.0014121046 0)
(1.0122998 0.0011636907 0)
(1.0118169 0.00092367929 0)
(1.0114085 0.00067956926 0)
(1.0110795 0.00041912295 0)
(1.0108321 0.00013997469 0)
(1.0174657 0.0015506816 0)
(1.0171693 0.0017177395 0)
(1.0167548 0.0017133594 0)
(1.0164 0.0017566527 0)
(1.0159668 0.0019087754 0)
(1.0153375 0.0020676976 0)
(1.0146243 0.0020467056 0)
(1.0139002 0.0018892816 0)
(1.0132434 0.001658139 0)
(1.0126303 0.001416393 0)
(1.0120919 0.0011809353 0)
(1.0116233 0.00094242756 0)
(1.0112301 0.00068847061 0)
(1.010914 0.00041486533 0)
(1.0106811 0.00013384549 0)
(1.0177164 0.0016181948 0)
(1.0174149 0.0017450923 0)
(1.0170555 0.0017169485 0)
(1.0168031 0.0017093254 0)
(1.0164644 0.0019301745 0)
(1.0158676 0.0021935662 0)
(1.0151092 0.0022526282 0)
(1.0143384 0.0021233454 0)
(1.013647 0.0019030123 0)
(1.0129933 0.0016712852 0)
(1.0124061 0.0014414757 0)
(1.0118823 0.0012071953 0)
(1.0114323 0.00095538698 0)
(1.0110563 0.00068279092 0)
(1.0107582 0.00039790265 0)
(1.010544 0.00012403487 0)
(1.0179986 0.0014754161 0)
(1.0176536 0.001854383 0)
(1.0172609 0.0016905734 0)
(1.0172012 0.0016453376 0)
(1.0169604 0.001895552 0)
(1.0164259 0.0023033755 0)
(1.0156102 0.0024707409 0)
(1.0147844 0.0023653091 0)
(1.0140618 0.0021476486 0)
(1.0133803 0.0019274757 0)
(1.0127517 0.0017072163 0)
(1.0121767 0.0014772023 0)
(1.0116749 0.0012251327 0)
(1.011246 0.0009490073 0)
(1.0108919 0.00065615674 0)
(1.0106162 0.00036924207 0)
(1.0104233 0.00011216376 0)
(1.0182096 0.00174951 0)
(1.0177128 0.0019131577 0)
(1.0173678 0.0016359083 0)
(1.0175678 0.0014873286 0)
(1.017491 0.0018374407 0)
(1.016995 0.0023974938 0)
(1.0161235 0.0027094578 0)
(1.0152259 0.0026220031 0)
(1.0144765 0.0023933347 0)
(1.0137818 0.0021825942 0)
(1.013121 0.0019780167 0)
(1.0124992 0.0017556739 0)
(1.0119484 0.0015021753 0)
(1.011471 0.0012181484 0)
(1.0110695 0.00091462217 0)
(1.0107411 0.0006095126 0)
(1.0104912 0.00033365153 0)
(1.0103194 0.00010029624 0)
(1.0185452 0.0014374284 0)
(1.0179024 0.0022045522 0)
(1.017331 0.0016397675 0)
(1.0178599 0.001252266 0)
(1.0181064 0.0017122365 0)
(1.0175871 0.0024855239 0)
(1.0166379 0.0029860438 0)
(1.0156446 0.0029065297 0)
(1.0148778 0.0026379984 0)
(1.0141883 0.0024319519 0)
(1.0135076 0.0022515408 0)
(1.0128447 0.0020443145 0)
(1.0122453 0.0017909242 0)
(1.0117214 0.0014963464 0)
(1.0112776 0.0011765889 0)
(1.0109062 0.00085114729 0)
(1.0106083 0.00055059118 0)
(1.0103838 0.00029731855 0)
(1.0102304 9.0081075e-05 0)
(1.0186574 0.0021172664 0)
(1.0175516 0.0023183565 0)
(1.0171135 0.001397234 0)
(1.0181066 0.00085614459 0)
(1.0187711 0.0015064301 0)
(1.0182795 0.0025762676 0)
(1.0171355 0.0033096374 0)
(1.0160186 0.0032363506 0)
(1.0152387 0.0028888326 0)
(1.0145847 0.002668033 0)
(1.0139071 0.002521748 0)
(1.0132106 0.0023427741 0)
(1.0125603 0.0020954371 0)
(1.0119886 0.0017888896 0)
(1.0115049 0.0014483159 0)
(1.0110984 0.0010987616 0)
(1.0107614 0.00076745749 0)
(1.010495 0.00048977724 0)
(1.0102923 0.00026523571 0)
(1.0101533 8.222431e-05 0)
(1.0188559 0.001573226 0)
(1.0177317 0.0029294627 0)
(1.0166321 0.0015783135 0)
(1.0182354 0.00032722132 0)
(1.0195774 0.0011339391 0)
(1.0191062 0.0027159878 0)
(1.0176446 0.0037010207 0)
(1.0163184 0.0036299789 0)
(1.015524 0.003133449 0)
(1.0149556 0.0028807884 0)
(1.0143161 0.0027785105 0)
(1.0135974 0.0026476353 0)
(1.0128913 0.0024187999 0)
(1.0122664 0.0021015184 0)
(1.0117421 0.0017353706 0)
(1.011304 0.0013558176 0)
(1.0109378 0.00099182707 0)
(1.0106382 0.00067896972 0)
(1.0103997 0.0004351328 0)
(1.010214 0.00023979926 0)
(1.0100854 7.6518645e-05 0)
(1.0185851 0.0027583845 0)
(1.0167283 0.003251387 0)
(1.0159385 0.00095970755 0)
(1.018347 -0.00040911025 0)
(1.0204837 0.00068514012 0)
(1.0200986 0.0028274316 0)
(1.0181929 0.0042313347 0)
(1.0165125 0.0040765276 0)
(1.0157381 0.0033947464 0)
(1.0152752 0.0030380694 0)
(1.0147346 0.0030022674 0)
(1.0140117 0.0029524971 0)
(1.0132415 0.0027638331 0)
(1.0125515 0.0024400367 0)
(1.011981 0.0020435508 0)
(1.0115128 0.0016272421 0)
(1.0111242 0.0012254792 0)
(1.0108007 0.00087446699 0)
(1.0105361 0.00059909032 0)
(1.0103192 0.00039016364 0)
(1.0101463 0.00022092879 0)
(1.0100243 7.2267727e-05 0)
(1.0183004 0.0020165653 0)
(1.0167556 0.0040724087 0)
(1.0148091 0.0015225363 0)
(1.0181788 -0.0014396406 0)
(1.0216468 -0.00011158077 0)
(1.0213182 0.0030779535 0)
(1.0187531 0.0049386207 0)
(1.0165802 0.0046537603 0)
(1.0158384 0.0035965301 0)
(1.0156094 0.0031421066 0)
(1.0151778 0.0031601053 0)
(1.0144707 0.0032411579 0)
(1.0136226 0.003133149 0)
(1.0128432 0.0028126859 0)
(1.0122145 0.0023792123 0)
(1.0117156 0.0019175085 0)
(1.0113094 0.0014720048 0)
(1.0109702 0.0010775556 0)
(1.0106879 0.00076574203 0)
(1.0104517 0.00053370539 0)
(1.0102506 0.00035482302 0)
(1.0100869 0.00020703646 0)
(1.0099687 6.870236e-05 0)
(1.0163091 0.0036866375 0)
(1.0147841 0.0047552844 0)
(1.0135614 0.00034478813 0)
(1.0180323 -0.0026673979 0)
(1.022838 -0.0009478851 0)
(1.0228002 0.0032135674 0)
(1.0193699 0.0059208247 0)
(1.0164283 0.0053840494 0)
(1.0156844 0.0038046556 0)
(1.0158984 0.0030963647 0)
(1.0156664 0.0032138979 0)
(1.015006 0.0035010123 0)
(1.0140541 0.0035294718 0)
(1.0131458 0.0032312161 0)
(1.0124362 0.0027517995 0)
(1.0119032 0.002231279 0)
(1.0114835 0.0017333743 0)
(1.0111353 0.0012915368 0)
(1.0108442 0.00093796846 0)
(1.0105962 0.00067467143 0)
(1.0103816 0.0004817421 0)
(1.0101919 0.00032760233 0)
(1.010034 0.00019601193 0)
(1.0099177 6.5162411e-05 0)
(1.015516 0.0029895781 0)
(1.0123617 0.0056202891 0)
(1.0111259 0.0014989357 0)
(1.0173568 -0.004487223 0)
(1.0246523 -0.0024089669 0)
(1.0246228 0.0037464926 0)
(1.0199783 0.0072257427 0)
(1.0160114 0.0063693831 0)
(1.015239 0.003939433 0)
(1.0160275 0.0028856926 0)
(1.0162549 0.0031688787 0)
(1.0156116 0.0036917896 0)
(1.0145662 0.003964558 0)
(1.0134674 0.003716231 0)
(1.012639 0.0031749266 0)
(1.0120644 0.002574454 0)
(1.0116363 0.0020113945 0)
(1.0112868 0.0015173228 0)
(1.0109934 0.001118764 0)
(1.0107422 0.00081869121 0)
(1.0105222 0.0006010449 0)
(1.010323 0.0004391837 0)
(1.0101414 0.00030643471 0)
(1.0099862 0.00018577473 0)
(1.0098713 6.1170142e-05 0)
(1.0150006 0.0051584151 0)
(1.0090746 0.0065938852 0)
(1.0080966 -0.00041299784 0)
(1.0166191 -0.0061451402 0)
(1.0259509 -0.0037321609 0)
(1.0267889 0.0037892722 0)
(1.0206898 0.0090066943 0)
(1.0152389 0.0076183083 0)
(1.0144163 0.0040744971 0)
(1.0160183 0.0023894339 0)
(1.0169718 0.0029335014 0)
(1.0163526 0.0038573176 0)
(1.0151508 0.0044407963 0)
(1.0138212 0.0042964951 0)
(1.0128131 0.0036714365 0)
(1.0121831 0.0029536235 0)
(1.0117562 0.002306141 0)
(1.0114163 0.0017547537 0)
(1.0111274 0.0013093857 0)
(1.0108787 0.00096898392 0)
(1.0106609 0.00071951636 0)
(1.010463 0.00054004183 0)
(1.0102747 0.00040258556 0)
(1.0100983 0.00028810135 0)
(1.0099431 0.00017449665 0)
(1.0098295 5.650584e-05 0)
(1.0107308 0.0044129471 0)
(1.0098761 0.0078608234 0)
(1.0049825 0.001258883 0)
(1.0148545 -0.0089832821 0)
(1.02787 -0.0061700482 0)
(1.0292009 0.0049872428 0)
(1.0212068 0.011256352 0)
(1.0139829 0.009258788 0)
(1.0130986 0.0041073592 0)
(1.0157699 0.0016168831 0)
(1.0177868 0.0023615033 0)
(1.0173664 0.0039881812 0)
(1.0158364 0.0049859778 0)
(1.0141871 0.0050175143 0)
(1.0129407 0.0042717669 0)
(1.012238 0.0033801303 0)
(1.0118275 0.0026154962 0)
(1.0115151 0.0019998603 0)
(1.0112401 0.001509473 0)
(1.010998 0.0011281596 0)
(1.0107872 0.00084145604 0)
(1.0105979 0.00063475154 0)
(1.0104168 0.00048587225 0)
(1.0102361 0.00036928736 0)
(1.0100616 0.00026823522 0)
(1.0099049 0.00016087516 0)
(1.0097928 5.1219876e-05 0)
(0.99883712 0.0071063492 0)
(1.0000563 0.0090311387 0)
(1.0027452 -0.0018568977 0)
(1.0138971 -0.011459637 0)
(1.0290381 -0.0077924632 0)
(1.0312196 0.0047237201 0)
(1.0219966 0.014254501 0)
(1.0120672 0.011365374 0)
(1.0110869 0.0041699224 0)
(1.0152258 0.0003203032 0)
(1.0187337 0.0014316254 0)
(1.018725 0.0039873556 0)
(1.0167662 0.0056513135 0)
(1.0145541 0.0059079994 0)
(1.0129942 0.0050248158 0)
(1.0121945 0.0038671464 0)
(1.0118286 0.0029347667 0)
(1.0115733 0.0022434553 0)
(1.0113279 0.0017145217 0)
(1.0110961 0.0012973523 0)
(1.0108932 0.00097149657 0)
(1.0107167 0.00072906908 0)
(1.0105517 0.00055730178 0)
(1.010383 0.00043345145 0)
(1.0102069 0.00033565945 0)
(1.0100308 0.0002435236 0)
(1.0098723 0.0001446792 0)
(1.0097613 4.5628191e-05 0)
(0.98610033 0.0074273627 0)
(0.9849955 0.010152497 0)
(0.99415603 0.0005915872 0)
(1.0125156 -0.015261418 0)
(1.0322335 -0.01135478 0)
(1.0331288 0.0069342899 0)
(1.0218993 0.017919117 0)
(1.0093374 0.013974099 0)
(1.0082714 0.0041099777 0)
(1.0142785 -0.0013964889 0)
(1.0198506 -0.00013194771 0)
(1.0205474 0.0038652309 0)
(1.0180298 0.0064699313 0)
(1.0149957 0.0070488764 0)
(1.0129263 0.0059611159 0)
(1.0120126 0.0044350936 0)
(1.0117254 0.0032527216 0)
(1.0115782 0.0024677783 0)
(1.0113902 0.0019132061 0)
(1.011174 0.001474689 0)
(1.0109758 0.0011135584 0)
(1.0108108 0.00082984923 0)
(1.0106663 0.00062360935 0)
(1.0105214 0.00048093988 0)
(1.0103612 0.00037938977 0)
(1.0101862 0.00029839105 0)
(1.0100059 0.00021385917 0)
(1.0098456 0.00012714878 0)
(1.0097348 4.0293407e-05 0)
(0.97198626 0.0095586465 0)
(0.97097563 0.011686533 0)
(0.98271932 -0.0033839399 0)
(1.0090284 -0.018169901 0)
(1.033684 -0.01319392 0)
(1.0368029 0.0067427369 0)
(1.0202165 0.022574955 0)
(1.005165 0.017423064 0)
(1.004298 0.0039868113 0)
(1.0128951 -0.0039453962 0)
(1.0212005 -0.002260765 0)
(1.0229355 0.0034128556 0)
(1.0197587 0.0075337235 0)
(1.015538 0.0085507117 0)
(1.0126921 0.0071609964 0)
(1.0116262 0.0051002111 0)
(1.0114746 0.0035535706 0)
(1.0115122 0.0026451179 0)
(1.0114289 0.002084116 0)
(1.0112399 0.0016524333 0)
(1.0110385 0.0012704683 0)
(1.0108761 0.00094421671 0)
(1.0107503 0.00069340099 0)
(1.0106354 0.0005185335 0)
(1.0105063 0.00040281917 0)
(1.0103511 0.00032241442 0)
(1.0101733 0.00025561481 0)
(1.0099877 0.00018260792 0)
(1.0098242 0.00011047492 0)
(1.0097126 3.587744e-05 0)
(0.95581193 0.010559944 1.1538271e-23)
(0.95580758 0.012232679 0)
(0.97077258 -0.003538835 0)
(1.0045857 -0.023215444 0)
(1.0335438 -0.018590389 0)
(1.0405519 0.01031368 0)
(1.0199075 0.027245901 0)
(0.99932979 0.021151564 0)
(0.99904796 0.0038059121 0)
(1.0108522 -0.0071502408 0)
(1.0228595 -0.0054295204 0)
(1.0260787 0.002758425 0)
(1.0220721 0.0088217816 0)
(1.0162398 0.01057078 0)
(1.0122369 0.0087214318 0)
(1.010927 0.0058943658 0)
(1.0110164 0.0038135398 0)
(1.0113523 0.0027335092 0)
(1.0114498 0.0021957322 0)
(1.011308 0.0018159185 0)
(1.0110928 0.0014418442 0)
(1.010915 0.0010803183 0)
(1.0107973 0.0007766132 0)
(1.0107127 0.00055544644 0)
(1.0106237 0.00041068448 0)
(1.0105059 0.00032037204 0)
(1.0103517 0.00026012837 0)
(1.0101678 0.00020702958 0)
(1.0099763 0.00015334286 0)
(1.0098075 9.6660186e-05 0)
(1.0096936 3.2937694e-05 0)
(0.93731523 0.012567268 -1.2010211e-23)
(0.93810252 0.013596543 -1.2056576e-23)
(0.95838001 -0.0076922176 0)
(0.99654334 -0.027144431 0)
(1.030783 -0.020191113 0)
(1.0404768 0.008440948 0)
(1.026992 0.034303444 0)
(0.99388348 0.025528224 0)
(0.99215653 0.0031005135 0)
(1.0082819 -0.011577366 0)
(1.0248076 -0.0093950522 0)
(1.0300928 0.0014907632 0)
(1.0251647 0.010532352 0)
(1.0171213 0.013244084 0)
(1.0114877 0.010812363 0)
(1.0097964 0.0068355563 0)
(1.0102552 0.0040087031 0)
(1.0110617 0.0026760761 0)
(1.0114512 0.0021957606 0)
(1.0113999 0.0019416825 0)
(1.0111585 0.0016270578 0)
(1.0109382 0.0012484962 0)
(1.010806 0.00088700767 0)
(1.0107429 0.00060299561 0)
(1.0106985 0.00041114579 0)
(1.0106313 0.00029498015 0)
(1.0105207 0.00023011054 0)
(1.0103631 0.00019168904 0)
(1.0101704 0.00015970397 0)
(1.0099704 0.00012878073 0)
(1.0097941 8.7100301e-05 0)
(1.0096765 3.1831048e-05 0)
(0.91750714 0.014305997 1.2057215e-23)
(0.91833934 0.014577576 3.8613902e-23)
(0.94193216 -0.0096490748 0)
(0.98702135 -0.031954398 0)
(1.0226634 -0.024684703 0)
(1.0333387 0.012657762 0)
(1.0238045 0.040709106 0)
(0.99049882 0.031471939 0)
(0.98442205 0.0026869836 0)
(1.004765 -0.0170804 0)
(1.0272938 -0.014920523 0)
(1.0351911 -4.7033939e-05 0)
(1.0291482 0.012532619 0)
(1.0182624 0.016806863 0)
(1.0103446 0.01355781 0)
(1.0080782 0.0080198838 0)
(1.0090673 0.0040637542 0)
(1.0105965 0.0023967797 0)
(1.0114527 0.0020377017 0)
(1.0115219 0.001989459 0)
(1.0112649 0.0018200024 0)
(1.0109654 0.0014625558 0)
(1.0107814 0.0010420864 0)
(1.0107198 0.00067717475 0)
(1.0107169 0.00041543824 0)
(1.0107097 0.00025338891 0)
(1.0106594 0.00016831468 0)
(1.0105503 0.00013404458 0)
(1.0103844 0.00012406445 0)
(1.0101799 0.00011983544 0)
(1.0099687 0.00011112167 0)
(1.0097829 8.2731162e-05 0)
(1.0096603 3.2694782e-05 0)
(0.89761258 0.016227625 0)
(0.89778261 0.015949531 -3.8679616e-23)
(0.92353423 -0.013130719 0)
(0.97308335 -0.036713009 0)
(1.0122998 -0.02483374 0)
(1.0198176 0.014593154 0)
(1.0013989 0.048518701 0)
(0.98058256 0.039485713 0)
(0.97451997 0.00097934935 0)
(1.0006432 -0.023922294 0)
(1.0299186 -0.021288464 0)
(1.0413835 -0.0025913606 0)
(1.0342593 0.015250723 0)
(1.0196203 0.021444003 0)
(1.0086738 0.017209566 0)
(1.0055899 0.0094485016 0)
(1.0073029 0.0039645123 0)
(1.0098906 0.0017665157 0)
(1.0114634 0.00159566 0)
(1.0117892 0.001943019 0)
(1.0114542 0.0020075901 0)
(1.0110293 0.0017319818 0)
(1.0107374 0.0012660392 0)
(1.0106403 0.00079924307 0)
(1.0106669 0.00043956151 0)
(1.0107242 0.00020585004 0)
(1.0107489 8.1185019e-05 0)
(1.0107075 3.69622e-05 0)
(1.0105923 4.0999545e-05 0)
(1.0104137 6.5445468e-05 0)
(1.0101948 8.958882e-05 0)
(1.0099704 0.00010156708 0)
(1.009773 8.3970295e-05 0)
(1.0096439 3.5507706e-05 0)
(0.87816516 0.018124866 -5.3409818e-24)
(0.87769898 0.017184582 0)
(0.90393634 -0.016378208 -3.1743297e-23)
(0.95586776 -0.04139964 0)
(0.99850544 -0.0282749 0)
(1.0057376 0.021026391 0)
(0.9816884 0.055538847 0)
(0.96135382 0.045636986 0)
(0.96281052 0.0018387623 0)
(0.99472575 -0.032115467 0)
(1.0329701 -0.029639983 0)
(1.0484911 -0.0051624593 0)
(1.0403348 0.018329647 0)
(1.0212849 0.027440502 0)
(1.0062998 0.02193805 0)
(1.002073 0.011290354 0)
(1.0047816 0.0035623859 0)
(1.0088648 0.00069330769 0)
(1.0114923 0.00074199806 0)
(1.0122513 0.0016743136 0)
(1.0118052 0.002157719 0)
(1.0111878 0.0020739975 0)
(1.0106985 0.0015849898 0)
(1.0105074 0.00099900336 0)
(1.0105374 0.00050537603 0)
(1.0106573 0.00016652445 0)
(1.0107695 -2.417879e-05 0)
(1.0108161 -9.6027332e-05 0)
(1.010774 -8.9487105e-05 0)
(1.0106461 -4.1820586e-05 0)
(1.0104498 1.9566408e-05 0)
(1.010214 7.1703558e-05 0)
(1.0099731 9.9701579e-05 0)
(1.0097638 9.0457512e-05 0)
(1.0096263 4.0188772e-05 0)
(0.8601168 0.019895581 1.2402893e-23)
(0.85895565 0.018547278 6.6518242e-23)
(0.88413645 -0.019898704 3.172734e-23)
(0.93629073 -0.046302142 -1.6538227e-23)
(0.98148936 -0.031014276 -1.5437994e-22)
(0.98962835 0.02499934 0)
(0.96423876 0.063749803 0)
(0.94338842 0.051973213 0)
(0.95015377 -0.00035843853 0)
(0.98749176 -0.041700599 0)
(1.0356095 -0.038432347 0)
(1.0562982 -0.0093244578 0)
(1.0470309 0.022613822 0)
(1.0227675 0.035053901 0)
(1.0030025 0.028009467 0)
(0.99727302 0.013512366 0)
(1.0012812 0.0028870675 0)
(1.0074149 -0.0010625916 0)
(1.0115617 -0.00064407874 0)
(1.0129652 0.0010949869 0)
(1.0124702 0.0022972674 0)
(1.0114741 0.0024725827 0)
(1.0107152 0.0020486548 0)
(1.010328 0.0013155067 0)
(1.0103177 0.00064230446 0)
(1.0104911 0.00015409329 0)
(1.0106995 -0.000136757 0)
(1.010853 -0.0002607646 0)
(1.0109083 -0.00026731446 0)
(1.0108572 -0.00020436228 0)
(1.0107096 -0.00010846843 0)
(1.0104913 -1.0387176e-05 0)
(1.0102353 6.7365409e-05 0)
(1.0099763 0.00010750407 0)
(1.009753 0.00010283044 0)
(1.0096067 4.6495692e-05 0)
(0.84449421 0.021467866 -1.3396833e-23)
(0.84246972 0.019801962 -9.4465899e-23)
(0.86526882 -0.023228977 0)
(0.91519967 -0.051094077 1.9306481e-22)
(0.96114764 -0.033318079 1.5364937e-22)
(0.97197988 0.028183083 1.1281307e-22)
(0.94567252 0.071500282 5.8767636e-23)
(0.9262164 0.054235559 0)
(0.93663152 -0.0013491569 0)
(0.98180413 -0.053492249 0)
(1.0404816 -0.050841293 0)
(1.0665575 -0.012382141 0)
(1.0541677 0.027508877 0)
(1.0233975 0.044631843 0)
(0.99824032 0.035714691 0)
(0.99079918 0.016311871 0)
(0.99656875 0.0016649645 0)
(1.0054402 -0.003562942 0)
(1.0116727 -0.0028167856 0)
(1.0140484 0.00010199318 0)
(1.0135508 0.0023394148 0)
(1.0120282 0.0030320924 0)
(1.0107911 0.0026794994 0)
(1.010129 0.0018118831 0)
(1.0099972 0.00089319825 0)
(1.0102036 0.00019363724 0)
(1.010516 -0.00024387854 0)
(1.0107958 -0.00045163502 0)
(1.0109721 -0.00049129422 0)
(1.0110231 -0.0004243386 0)
(1.0109527 -0.00029909555 0)
(1.0107802 -0.00015532177 0)
(1.0105364 -2.2842992e-05 0)
(1.0102552 7.5780722e-05 0)
(1.0099782 0.0001278696 0)
(1.0097401 0.00012032964 0)
(1.0095844 5.4072698e-05 0)
(0.83198739 0.02282507 2.5736395e-24)
(0.82922527 0.021013824 1.9462179e-23)
(0.84799743 -0.026365673 1.3678478e-23)
(0.89373061 -0.055534283 -8.9046198e-23)
(0.93923006 -0.036299881 -1.8343224e-22)
(0.95088014 0.032991304 1.5575064e-22)
(0.92790397 0.078628842 -4.9471523e-23)
(0.90741461 0.061669616 2.2569415e-23)
(0.9231289 -0.0082535827 0)
(0.97505664 -0.065492173 0)
(1.0423964 -0.062737542 0)
(1.079667 -0.020286062 0)
(1.0654996 0.034121642 0)
(1.0233302 0.056456761 0)
(0.99115331 0.044973657 0)
(0.98233005 0.019710812 0)
(0.99031544 -4.5531593e-05 0)
(1.0028124 -0.007219815 0)
(1.0118507 -0.0058742987 0)
(1.0156146 -0.0015235382 0)
(1.0152064 0.0022571825 0)
(1.0130058 0.0037667616 0)
(1.0110051 0.0035790297 0)
(1.0098992 0.0025488067 0)
(1.0095668 0.0013111854 0)
(1.0097707 0.00032058617 0)
(1.0101911 -0.00032762141 0)
(1.0106188 -0.00066106802 0)
(1.0109428 -0.00075903317 0)
(1.0111232 -0.00070372141 0)
(1.0111564 -0.00055711258 0)
(1.0110583 -0.00036947773 0)
(1.0108557 -0.00018031188 0)
(1.0105815 -1.764713e-05 0)
(1.0102767 9.8955289e-05 0)
(1.0099782 0.00015489966 0)
(1.0097247 0.0001419182 0)
(1.0095592 6.2541833e-05 0)
(0.82302971 0.02375303 1.1974086e-24)
(0.81988755 0.021898641 -7.066218e-25)
(0.83364035 -0.028940404 0)
(0.87251347 -0.059512293 -2.2836328e-24)
(0.91591656 -0.03876759 -6.7478315e-23)
(0.92934436 0.036719325 0)
(0.90785923 0.08639262 -2.6309434e-22)
(0.89008363 0.067415603 -2.2411631e-22)
(0.90553692 -0.0097095043 0)
(0.96958458 -0.078053253 0)
(1.0418662 -0.077426736 0)
(1.0847751 -0.024403447 0)
(1.0822387 0.039861636 0)
(1.0281669 0.069855516 0)
(0.98235933 0.056197885 0)
(0.9711253 0.023542568 0)
(0.98236937 -0.002591703 0)
(0.99938104 -0.012000335 0)
(1.0121008 -0.010263874 0)
(1.0178074 -0.0038458384 0)
(1.0176221 0.0019123656 0)
(1.0145739 0.0047397601 0)
(1.0114895 0.0048601169 0)
(1.0096304 0.0036065635 0)
(1.0090141 0.0019826249 0)
(1.0091545 0.00056898432 0)
(1.009691 -0.00037038814 0)
(1.0102927 -0.00088254525 0)
(1.0107957 -0.0010698911 0)
(1.0111352 -0.0010431381 0)
(1.0113003 -0.00088560969 0)
(1.0113037 -0.00065924858 0)
(1.0111709 -0.00041279317 0)
(1.0109326 -0.00018281438 0)
(1.010627 4.9682045e-06 0)
(1.0102951 0.00013340673 0)
(1.0099751 0.00018947862 0)
(1.0097059 0.0001666836 0)
(1.0095308 7.1536869e-05 0)
(0.81930295 0.024407722 0)
(0.81528112 0.02272238 0)
(0.82304912 -0.031068635 7.2952562e-25)
(0.85313528 -0.062795457 0)
(0.89208648 -0.041104221 6.5910975e-24)
(0.90634964 0.040925077 1.6817602e-22)
(0.88837843 0.093678405 4.0849014e-22)
(0.8718247 0.07428303 -1.8071397e-22)
(0.88802336 -0.010039875 0)
(0.95612914 -0.091722951 0)
(1.0400069 -0.086444657 0)
(1.0837567 -0.036495141 0)
(1.0912514 0.047957153 0)
(1.0385447 0.086093191 0)
(0.97605474 0.069087355 0)
(0.95710627 0.028015292 0)
(0.97221744 -0.0060945417 0)
(0.99513672 -0.018508116 0)
(1.0124231 -0.015906822 0)
(1.0207706 -0.0072944342 0)
(1.0210424 0.0013391651 0)
(1.0169254 0.0059403316 0)
(1.0123666 0.0066713688 0)
(1.0093829 0.0051389157 0)
(1.00826 0.0029627631 0)
(1.0083232 0.0010126417 0)
(1.0089691 -0.00034506769 0)
(1.0097807 -0.0011129269 0)
(1.0105033 -0.0014271204 0)
(1.0110372 -0.0014470534 0)
(1.0113639 -0.001287842 0)
(1.0114967 -0.0010289314 0)
(1.0114608 -0.00072769667 0)
(1.0112867 -0.00042805828 0)
(1.0110098 -0.00016345617 0)
(1.0106707 4.4202964e-05 0)
(1.0103109 0.0001784745 0)
(1.0099687 0.00022904286 0)
(1.009684 0.00019330839 0)
(1.0094994 8.0733483e-05 0)
(0.81417297 0.023254491 -6.5081341e-25)
(0.82032709 0.02478407 0)
(0.81586174 -0.032349791 -1.0129183e-23)
(0.83721491 -0.0652551 -1.7169527e-23)
(0.86910533 -0.043200492 1.419292e-24)
(0.88355618 0.044596083 -1.5438854e-23)
(0.86871662 0.10063835 6.7312542e-24)
(0.85456511 0.080700459 -2.0383073e-22)
(0.86995789 -0.011006349 2.2481774e-22)
(0.93831576 -0.10233541 0)
(1.0289096 -0.10219856 -1.3229925e-21)
(1.0790128 -0.036232185 0)
(1.0867678 0.052327611 0)
(1.0447126 0.10576332 0)
(0.97138369 0.085887784 0)
(0.94142113 0.032893388 0)
(0.959933 -0.010662239 0)
(0.98976933 -0.026589583 0)
(1.0128953 -0.023543541 0)
(1.0246284 -0.011744804 0)
(1.0257027 0.0001889833 0)
(1.0203362 0.0075288832 0)
(1.0137665 0.0091495774 0)
(1.0091975 0.0073421569 0)
(1.0072585 0.0043789898 0)
(1.0071901 0.0017106481 0)
(1.0079613 -0.00023856232 0)
(1.0090365 -0.0013440102 0)
(1.0100327 -0.0018361625 0)
(1.0108063 -0.001924105 0)
(1.011329 -0.0017711403 0)
(1.0116189 -0.0014832327 0)
(1.0117064 -0.0011302713 0)
(1.011623 -0.00076134941 0)
(1.0114032 -0.00041602759 0)
(1.0110853 -0.00012323179 0)
(1.0107112 9.7292137e-05 0)
(1.0103229 0.00023176328 0)
(1.0099586 0.00027197813 0)
(1.0096587 0.0002209882 0)
(1.0094652 8.9923562e-05 0)
(0.81263853 -0.032848849 8.6427073e-24)
(0.81836008 0.023874838 0)
(0.82668323 0.024955741 -9.3275592e-24)
(0.8233735 -0.066842149 1.7158731e-23)
(0.84895758 -0.044673275 5.702561e-24)
(0.86190972 0.047713168 3.1883439e-22)
(0.85054856 0.10675721 -4.747965e-22)
(0.83880279 0.086885028 -2.0297992e-23)
(0.85267007 -0.011856298 1.22683e-22)
(0.91920213 -0.11379091 4.9909588e-23)
(1.0116461 -0.11687461 -1.474091e-21)
(1.0685938 -0.045303852 1.3856314e-21)
(1.0698881 0.062974499 0)
(1.0253796 0.125119 0)
(0.95963977 0.10604746 0)
(0.92521752 0.040260472 0)
(0.94449605 -0.01714573 0)
(0.98370027 -0.0369195 0)
(1.0133678 -0.032716452 0)
(1.029543 -0.017994913 0)
(1.0319155 -0.0012986547 0)
(1.0250508 0.0093519824 0)
(1.0158979 0.012529 0)
(1.0090949 0.01041644 0)
(1.0059694 0.006420072 0)
(1.0056202 0.0027059081 0)
(1.0065922 2.1539829e-05 0)
(1.0079923 -0.0015922688 0)
(1.0093459 -0.0023213941 0)
(1.0104198 -0.002492535 0)
(1.0111794 -0.0023477423 0)
(1.0116559 -0.0020305096 0)
(1.0118915 -0.0016259035 0)
(1.0119237 -0.0011888323 0)
(1.0117871 -0.00076136203 0)
(1.0115181 -0.0003782689 0)
(1.0111576 -6.4507839e-05 0)
(1.0107477 0.00016183568 0)
(1.0103307 0.0002904323 0)
(1.0099446 0.00031737543 0)
(1.0096301 0.00024905491 0)
(1.0094283 9.8909965e-05 0)
(0.81328017 -0.067428389 6.5621889e-24)
(0.81377205 -0.032280357 2.5675637e-23)
(0.8277447 0.02439104 0)
(0.83663291 0.024764781 -2.2473879e-24)
(0.83087202 -0.045743924 2.8005078e-24)
(0.84296125 0.050234633 -1.3948069e-22)
(0.83465343 0.11183144 0)
(0.8255942 0.092286489 2.0159969e-23)
(0.83712142 -0.012615707 2.6696648e-24)
(0.89941683 -0.12568503 -4.925132e-23)
(0.99159386 -0.13069493 1.6056982e-21)
(1.0535521 -0.059539373 1.5410925e-21)
(1.0544741 0.07287797 0)
(0.99893636 0.14387042 0)
(0.94191835 0.125839 0)
(0.90915906 0.048469205 0)
(0.92744507 -0.023793251 0)
(0.97595986 -0.049348469 0)
(1.014154 -0.044574709 0)
(1.0355248 -0.025434887 0)
(1.0398796 -0.00388422 0)
(1.0314914 0.011803892 0)
(1.0189044 0.016969288 0)
(1.0091188 0.01466427 0)
(1.0043068 0.0092667612 0)
(1.0034927 0.0041253583 0)
(1.0047231 0.00041814876 0)
(1.0065647 -0.0018547318 0)
(1.0083877 -0.0028966064 0)
(1.0098491 -0.003179709 0)
(1.0109011 -0.0030386952 0)
(1.0115973 -0.0026832399 0)
(1.0120044 -0.0022222333 0)
(1.0121737 -0.0017157483 0)
(1.0121438 -0.0012062483 0)
(1.0119498 -0.00072989768 0)
(1.0116296 -0.0003173856 0)
(1.0112252 9.1772342e-06 0)
(1.0107793 0.00023487561 0)
(1.0103338 0.00035277927 0)
(1.0099268 0.00036334543 0)
(1.0095987 0.00027653404 0)
(1.0093892 0.00010759043 0)
(0.8164354 -0.046362767 -1.077419e-23)
(0.80917137 -0.067153654 -6.6354839e-24)
(0.82118848 -0.031002606 -2.2949044e-23)
(0.84147411 0.024735971 -1.4032164e-23)
(0.84945432 0.024260141 4.7728704e-23)
(0.82731626 0.0521169 1.3051815e-22)
(0.82228872 0.11568735 6.7307337e-23)
(0.81600032 0.096775188 0)
(0.82441097 -0.013545609 -1.2081013e-23)
(0.87954214 -0.13700705 -3.0905551e-22)
(0.9690651 -0.14542426 0)
(1.0344908 -0.069410442 -1.9826039e-21)
(1.0426519 0.068625977 0)
(0.98015823 0.16270537 0)
(0.92511788 0.13957789 0)
(0.89445342 0.059433148 0)
(0.91001444 -0.033412141 0)
(0.96725882 -0.06446679 0)
(1.0148803 -0.057874843 0)
(1.0427555 -0.03555054 0)
(1.0499288 -0.0067935899 0)
(1.0398541 0.014391117 0)
(1.0231092 0.022876509 0)
(1.0092472 0.020357096 0)
(1.0021434 0.013201988 0)
(1.0006543 0.0060791127 0)
(1.0021802 0.00097102314 0)
(1.0046475 -0.0021456977 0)
(1.0070922 -0.0036326888 0)
(1.0090642 -0.004030973 0)
(1.0104825 -0.0038756302 0)
(1.0114389 -0.0034608655 0)
(1.0120399 -0.0029294864 0)
(1.0123637 -0.002347963 0)
(1.0124592 -0.0017554533 0)
(1.0123628 -0.0011853948 0)
(1.0121088 -0.00067011093 0)
(1.0117362 -0.00023697077 0)
(1.0112873 9.455529e-05 0)
(1.0108055 0.00031345906 0)
(1.0103323 0.00041718038 0)
(1.0099054 0.00040887246 0)
(1.0095644 0.00030333417 0)
(1.0093481 0.00011590817 0)
(0.81570252 0.052764745 6.4824841e-24)
(0.80839168 -0.046392355 8.8261163e-24)
(0.81128502 -0.066375095 2.7580969e-23)
(0.83404285 -0.029172503 1.4485261e-23)
(0.85828297 0.024770831 -7.3299072e-23)
(0.86533807 0.023411913 -2.7181423e-23)
(0.81476606 0.11831752 -1.3284581e-22)
(0.81068571 0.10036927 -6.0164533e-23)
(0.81508671 -0.014410916 -7.0939357e-23)
(0.86116751 -0.14741582 2.8765594e-22)
(0.94425367 -0.15941369 -1.8887716e-21)
(1.0117896 -0.08134305 9.5941362e-22)
(1.0202786 0.072395457 0)
(0.96797711 0.17570252 -7.3704053e-22)
(0.90431862 0.16061441 -7.9617982e-22)
(0.88035083 0.061734342 0)
(0.89429318 -0.038904968 0)
(0.95716401 -0.081985873 0)
(1.0158597 -0.074845997 0)
(1.0511319 -0.046607577 0)
(1.0621062 -0.011732145 0)
(1.0506857 0.018052973 0)
(1.0285713 0.030374931 0)
(1.0094998 0.02794294 0)
(0.99930628 0.018428001 0)
(0.99687872 0.0087475131 0)
(0.99877194 0.0016912837 0)
(1.0020935 -0.0025225794 0)
(1.00537 -0.0045723439 0)
(1.008026 -0.0051118736 0)
(1.0099167 -0.0049126747 0)
(1.0111852 -0.0043951473 0)
(1.0120018 -0.0037629371 0)
(1.0124912 -0.0030918922 0)
(1.0127248 -0.0024124975 0)
(1.0127433 -0.0017491504 0)
(1.0125779 -0.0011301986 0)
(1.0122623 -0.00058596163 0)