/*--------------------------------*- C++ -*----------------------------------*\
| =========                 |                                                 |
| \\      /  F ield         | OpenFOAM: The Open Source CFD Toolbox           |
|  \\    /   O peration     | Version:  5.0                                   |
|   \\  /    A nd           | Web:      www.OpenFOAM.org                      |
|    \\/     M anipulation  |                                                 |
\*---------------------------------------------------------------------------*/
FoamFile
{
    version     2.0;
    format      ascii;
    class       volVectorField;
    location    "140";
    object      UMean;
}
// * * * * * * * * * * * * * * * * * * * * * * * * * * * * * * * * * * * * * //

dimensions      [0 1 -1 0 0 0 0];

internalField   nonuniform List<vector> 
9520
(
(1.0065528 -7.1986862e-05 0)
(1.0066329 -0.00021099334 0)
(1.0067681 -7.1804332e-05 0)
(1.0067756 -0.00033917401 0)
(1.0068465 -0.00021015508 0)
(1.0068504 -7.240956e-05 0)
(1.0069678 -0.00045725231 0)
(1.006986 -0.00033756616 0)
(1.0069279 -0.00021221453 0)
(1.0069898 -7.4345064e-05 0)
(1.0071973 -0.00056537631 0)
(1.0071742 -0.00045463728 0)
(1.0070661 -0.00034066516 0)
(1.0070655 -0.00021750628 0)
(1.0070959 -7.6398457e-05 0)
(1.0074535 -0.00066453994 0)
(1.0073994 -0.00056147801 0)
(1.0072525 -0.00045841333 0)
(1.0072008 -0.00034876772 0)
(1.0071706 -0.00022363505 0)
(1.0072206 -7.9899218e-05 0)
(1.007727 -0.00075558417 0)
(1.0076514 -0.00065906187 0)
(1.0074758 -0.000565452 0)
(1.0073836 -0.00046857581 0)
(1.0073036 -0.00035834329 0)
(1.0072933 -0.00023369576 0)
(1.0073341 -8.3599659e-05 0)
(1.0080096 -0.00083923198 0)
(1.0079213 -0.00074826926 0)
(1.007726 -0.00066266825 0)
(1.0076027 -0.00057685829 0)
(1.0074833 -0.00048079454 0)
(1.007423 -0.00037413914 0)
(1.0074052 -0.00024451795 0)
(1.0074585 -8.8624005e-05 0)
(1.0082943 -0.00091720643 0)
(1.0082015 -0.0008302327 0)
(1.0079942 -0.0007508018 0)
(1.0078485 -0.00067446952 0)
(1.0076986 -0.00059074127 0)
(1.0075981 -0.00050134765 0)
(1.0075318 -0.00039129091 0)
(1.0075277 -0.00025919392 0)
(1.0075784 -9.3966331e-05 0)
(1.0085754 -0.00098881135 0)
(1.0084843 -0.00090597137 0)
(1.0082725 -0.00083045621 0)
(1.0081124 -0.00076217695 0)
(1.0079404 -0.0006889659 0)
(1.0078082 -0.00061490964 0)
(1.0077026 -0.00052386161 0)
(1.0076506 -0.00041475193 0)
(1.0076457 -0.00027487931 0)
(1.0077078 -0.00010034594 0)
(1.0088481 -0.0010586014 0)
(1.0087653 -0.00097474977 0)
(1.0085545 -0.00090356057 0)
(1.0083872 -0.00084096085 0)
(1.0082001 -0.00077610302 0)
(1.008044 -0.000715433 0)
(1.0079071 -0.0006416302 0)
(1.0078161 -0.00055508341 0)
(1.007765 -0.00043999259 0)
(1.0077734 -0.00029371581 0)
(1.0078356 -0.00010695306 0)
(1.0091088 -0.0011186342 0)
(1.0090394 -0.0010414955 0)
(1.0088349 -0.00097032369 0)
(1.0086663 -0.0009123156 0)
(1.0084706 -0.00085301458 0)
(1.0082975 -0.00080345263 0)
(1.0081366 -0.00074500478 0)
(1.008014 -0.00067938112 0)
(1.0079254 -0.00058898556 0)
(1.0078891 -0.00047061933 0)
(1.0078994 -0.00031329855 0)
(1.0079721 -0.00011423032 0)
(1.0093553 -0.0011879776 0)
(1.0093039 -0.00110007 0)
(1.0091087 -0.0010338157 0)
(1.0089446 -0.0009759062 0)
(1.0087456 -0.00092099718 0)
(1.008562 -0.00087984289 0)
(1.0083831 -0.00083431967 0)
(1.0082357 -0.00078784133 0)
(1.0081166 -0.00072086502 0)
(1.0080441 -0.00063066489 0)
(1.0080118 -0.00050265646 0)
(1.0080347 -0.00033499233 0)
(1.0081083 -0.00012152443 0)
(1.0095852 -0.0012307884 0)
(1.0095547 -0.0011655662 0)
(1.0093726 -0.001088943 0)
(1.0092176 -0.0010355478 0)
(1.0090206 -0.00098072839 0)
(1.0088315 -0.00094608093 0)
(1.0086401 -0.00091033061 0)
(1.0084733 -0.00088058651 0)
(1.0083301 -0.00083557253 0)
(1.008228 -0.00077265605 0)
(1.0081616 -0.0006746606 0)
(1.0081443 -0.00053851533 0)
(1.0081698 -0.00035681725 0)
(1.0082518 -0.00012909418 0)
(1.0097972 -0.0013144133 0)
(1.0097929 -0.0012087742 0)
(1.0096234 -0.0011492091 0)
(1.0094823 -0.0010866663 0)
(1.0092906 -0.0010349026 0)
(1.009101 -0.0010023357 0)
(1.0089016 -0.00097407632 0)
(1.0087208 -0.00095819725 0)
(1.0085582 -0.00093296581 0)
(1.0084323 -0.00089625351 0)
(1.0083386 -0.00082799246 0)
(1.0082896 -0.00072453105 0)
(1.0082771 -0.00057484964 0)
(1.0083131 -0.00037959898 0)
(1.0083954 -0.00013641821 0)
(1.0099895 -0.0013276109 0)
(1.0100102 -0.0012857153 0)
(1.0098602 -0.0011888221 0)
(1.0097342 -0.0011416864 0)
(1.0095526 -0.0010806803 0)
(1.0093667 -0.0010518333 0)
(1.0091637 -0.0010264805 0)
(1.0089729 -0.0010217154 0)
(1.0087948 -0.0010133748 0)
(1.0086495 -0.001001014 0)
(1.0085339 -0.00096202859 0)
(1.0084598 -0.00089161048 0)
(1.0084185 -0.00077558137 0)
(1.0084193 -0.00061318713 0)
(1.0084567 -0.00040175203 0)
(1.0085444 -0.00014360624 0)
(1.0101623 -0.0014395782 0)
(1.0102119 -0.0012993128 0)
(1.0100772 -0.0012590858 0)
(1.0099735 -0.0011773166 0)
(1.0098029 -0.0011283097 0)
(1.0096252 -0.0010918781 0)
(1.0094223 -0.0010698672 0)
(1.009225 -0.0010717295 0)
(1.0090346 -0.0010774043 0)
(1.0088737 -0.0010869821 0)
(1.0087401 -0.0010759839 0)
(1.0086461 -0.0010388238 0)
(1.0085829 -0.00095756659 0)
(1.0085582 -0.00083016099 0)
(1.0085626 -0.00065080695 0)
(1.0086068 -0.00042366219 0)
(1.0086931 -0.00015024523 0)
(1.0103102 -0.0014138486 0)
(1.010388 -0.001405413 0)
(1.0102805 -0.0012697057 0)
(1.0101924 -0.0012414018 0)
(1.0100417 -0.001158584 0)
(1.0098727 -0.0011319917 0)
(1.0096747 -0.0011026978 0)
(1.0094735 -0.0011102225 0)
(1.0092742 -0.0011258282 0)
(1.0091001 -0.0011546092 0)
(1.0089511 -0.0011695517 0)
(1.0088407 -0.0011650023 0)
(1.0087609 -0.001119613 0)
(1.0087179 -0.001029109 0)
(1.0087 -0.00088436933 0)
(1.008714 -0.00068848938 0)
(1.008757 -0.00044405578 0)
(1.0088448 -0.00015632762 0)
(1.0104372 -0.0015624539 0)
(1.0105526 -0.0013737289 0)
(1.0104621 -0.0013686489 0)
(1.0103981 -0.0012505174 0)
(1.0102627 -0.0012137023 0)
(1.0101104 -0.001155441 0)
(1.009917 -0.0011331782 0)
(1.0097159 -0.0011362017 0)
(1.0095097 -0.0011603827 0)
(1.0093247 -0.0012041834 0)
(1.0091621 -0.0012427146 0)
(1.0090377 -0.0012694029 0)
(1.0089445 -0.0012601493 0)
(1.0088886 -0.001208569 0)
(1.0088566 -0.0011011831 0)
(1.0088521 -0.00093948646 0)
(1.0088665 -0.00072401844 0)
(1.0089114 -0.00046295954 0)
(1.0089951 -0.00016154394 0)
(1.0105222 -0.0014943306 0)
(1.0106796 -0.0015249639 0)
(1.0106252 -0.0013358146 0)
(1.0105811 -0.001342067 0)
(1.0104718 -0.0012194559 0)
(1.010333 -0.0012001824 0)
(1.0101505 -0.0011471362 0)
(1.0099486 -0.0011569631 0)
(1.0097389 -0.0011802771 0)
(1.0095443 -0.0012375351 0)
(1.00937 -0.0012956978 0)
(1.0092327 -0.0013516131 0)
(1.0091277 -0.0013779454 0)
(1.0090619 -0.0013665527 0)
(1.0090216 -0.0012996069 0)
(1.0090075 -0.0011756508 0)
(1.0090068 -0.0009922738 0)
(1.0090252 -0.00075752724 0)
(1.0090651 -0.00047937566 0)
(1.0091459 -0.00016582913 0)
(1.010578 -0.0016757944 0)
(1.0107823 -0.0014372084 0)
(1.0107558 -0.0014794323 0)
(1.0107449 -0.0013075014 0)
(1.0106588 -0.0013036535 0)
(1.0105458 -0.0011985654 0)
(1.0103709 -0.0011781682 0)
(1.010173 -0.0011598697 0)
(1.0099584 -0.0011920855 0)
(1.0097567 -0.0012539246 0)
(1.0095716 -0.0013300321 0)
(1.0094221 -0.0014114779 0)
(1.0093058 -0.0014720065 0)
(1.0092314 -0.0015012542 0)
(1.009186 -0.0014772503 0)
(1.0091689 -0.0013952113 0)
(1.0091633 -0.0012482183 0)
(1.0091702 -0.0010431121 0)
(1.0091844 -0.00078723906 0)
(1.0092203 -0.00049312534 0)
(1.0092939 -0.00016895009 0)
(1.0105431 -0.0015792612 0)
(1.0108358 -0.0016326281 0)
(1.0108583 -0.0013871612 0)
(1.0108771 -0.001444019 0)
(1.010828 -0.001268888 0)
(1.0107375 -0.0012706605 0)
(1.0105836 -0.0011649343 0)
(1.0103854 -0.0011752005 0)
(1.0101691 -0.0011848525 0)
(1.0099591 -0.0012593062 0)
(1.0097651 -0.0013452583 0)
(1.0096036 -0.001450179 0)
(1.0094759 -0.0015418553 0)
(1.0093926 -0.0016111101 0)
(1.0093431 -0.0016317338 0)
(1.0093263 -0.0015953933 0)
(1.0093233 -0.0014900924 0)
(1.0093305 -0.0013195563 0)
(1.0093359 -0.0010892826 0)
(1.0093472 -0.00081290338 0)
(1.0093734 -0.00050351581 0)
(1.0094396 -0.00017085524 0)
(1.0104134 -0.001762082 0)
(1.0108252 -0.0015067215 0)
(1.0109146 -0.0015815517 0)
(1.0109793 -0.0013538191 0)
(1.0109667 -0.001402943 0)
(1.010915 -0.0012281892 0)
(1.0107758 -0.0012195055 0)
(1.0105906 -0.0011471642 0)
(1.0103681 -0.0011855758 0)
(1.0101523 -0.0012447504 0)
(1.0099482 -0.0013467498 0)
(1.0097757 -0.0014674374 0)
(1.0096359 -0.0015878811 0)
(1.0095424 -0.0016950113 0)
(1.009488 -0.001760786 0)
(1.0094726 -0.0017732211 0)
(1.0094763 -0.0017147979 0)
(1.0094924 -0.0015851794 0)
(1.0095026 -0.0013859757 0)
(1.0095082 -0.0011305322 0)
(1.0095092 -0.00083324456 0)
(1.0095252 -0.00051030369 0)
(1.0095809 -0.00017138226 0)
(1.0099697 -0.0016790748 0)
(1.0107051 -0.0017175651 0)
(1.010895 -0.0014423096 0)
(1.0110317 -0.0015425394 0)
(1.0110742 -0.0013140095 0)
(1.0110638 -0.0013521121 0)
(1.0109591 -0.0011623546 0)
(1.0107752 -0.0011792481 0)
(1.0105588 -0.0011443892 0)
(1.0103331 -0.0012339997 0)
(1.0101216 -0.0013274365 0)
(1.0099367 -0.0014680832 0)
(1.0097849 -0.0016101216 0)
(1.0096794 -0.0017526267 0)
(1.0096176 -0.001862614 0)
(1.0096022 -0.0019257302 0)
(1.0096141 -0.0019188076 0)
(1.009644 -0.0018367053 0)
(1.0096693 -0.0016758985 0)
(1.0096845 -0.0014472178 0)
(1.0096815 -0.0011648264 0)
(1.0096719 -0.00084788901 0)
(1.0096732 -0.00051307936 0)
(1.0097174 -0.00017050078 0)
(1.0090259 -0.0018102064 0)
(1.010255 -0.0015925657 0)
(1.0107742 -0.0016489197 0)
(1.0110115 -0.0014035076 0)
(1.0111358 -0.0015101955 0)
(1.0111875 -0.0012552218 0)
(1.0111145 -0.001264461 0)
(1.0109525 -0.0011019925 0)
(1.0107285 -0.0011563463 0)
(1.0105052 -0.0011835138 0)
(1.0102829 -0.0013081501 0)
(1.0100872 -0.0014465426 0)
(1.0099217 -0.0016124034 0)
(1.0098028 -0.0017838776 0)
(1.0097307 -0.0019360784 0)
(1.0097121 -0.0020503027 0)
(1.0097306 -0.0020984187 0)
(1.0097762 -0.0020700926 0)
(1.0098229 -0.0019556256 0)
(1.0098598 -0.0017618739 0)
(1.0098702 -0.0015003932 0)
(1.0098584 -0.0011916733 0)
(1.0098321 -0.00085605405 0)
(1.0098174 -0.00051170421 0)
(1.009848 -0.0001681743 0)
(1.0069439 -0.0017917719 0)
(1.0093211 -0.0017859971 0)
(1.0103404 -0.001504968 0)
(1.0108892 -0.0016200687 0)
(1.0111207 -0.0013723765 0)
(1.0112663 -0.0014481324 0)
(1.0112509 -0.0011483165 0)
(1.0111017 -0.0011749643 0)
(1.0108903 -0.0010622521 0)
(1.0106557 -0.0011803656 0)
(1.010436 -0.0012518841 0)
(1.0102268 -0.0014207608 0)
(1.0100472 -0.0015905981 0)
(1.0099124 -0.0017912811 0)
(1.0098271 -0.0019804488 0)
(1.0098009 -0.0021449599 0)
(1.0098224 -0.0022501834 0)
(1.0098824 -0.00228093 0)
(1.0099532 -0.0022207028 0)
(1.0100195 -0.0020711537 0)
(1.0100576 -0.0018393886 0)
(1.0100631 -0.0015448401 0)
(1.0100345 -0.0012097747 0)
(1.00999 -0.00085744858 0)
(1.009956 -0.00050602254 0)
(1.0099718 -0.00016440734 0)
(1.0035846 -0.0018606103 0)
(1.007315 -0.0016914539 0)
(1.0094024 -0.0016816135 0)
(1.010455 -0.0014674295 0)
(1.0110054 -0.0016093632 0)
(1.0112732 -0.00129954 0)
(1.0113431 -0.0013171496 0)
(1.0112335 -0.0010314312 0)
(1.0110218 -0.0011105699 0)
(1.0107973 -0.0010760634 0)
(1.0105681 -0.001237808 0)
(1.0103588 -0.0013595339 0)
(1.0101619 -0.0015600117 0)
(1.0100088 -0.0017717749 0)
(1.0099068 -0.001997426 0)
(1.0098688 -0.0022081649 0)
(1.0098879 -0.0023712011 0)
(1.0099583 -0.0024648775 0)
(1.0100526 -0.0024660255 0)
(1.0101522 -0.002370286 0)
(1.0102276 -0.0021786151 0)
(1.0102667 -0.0019074688 0)
(1.0102579 -0.0015785952 0)
(1.0102111 -0.0012186633 0)
(1.0101435 -0.00085173529 0)
(1.0100886 -0.00049601946 0)
(1.0100882 -0.00015922327 0)
(0.99925649 -0.0018776317 0)
(1.0039074 -0.0018717721 0)
(1.0074614 -0.001593514 0)
(1.0095425 -0.0016660166 0)
(1.0105964 -0.0014569952 0)
(1.0111746 -0.0015509328 0)
(1.0113715 -0.001137616 0)
(1.0113184 -0.0011633253 0)
(1.0111342 -0.00094521419 0)
(1.0109069 -0.0011095912 0)
(1.0106919 -0.0011292237 0)
(1.0104726 -0.0013344021 0)
(1.0102702 -0.0014937848 0)
(1.0100938 -0.0017381292 0)
(1.0099709 -0.0019841418 0)
(1.0099163 -0.002240663 0)
(1.0099275 -0.002459242 0)
(1.0100022 -0.0026181204 0)
(1.010116 -0.0026864229 0)
(1.0102489 -0.0026535644 0)
(1.0103671 -0.0025131404 0)
(1.0104517 -0.0022767667 0)
(1.0104813 -0.0019634551 0)
(1.0104566 -0.0016009502 0)
(1.0103848 -0.0012176953 0)
(1.0102921 -0.00083882877 0)
(1.0102141 -0.00048176009 0)
(1.0101965 -0.00015266178 0)
(0.99379651 -0.0018846635 0)
(0.99952703 -0.0018231367 0)
(1.0040297 -0.0017235765 0)
(1.007641 -0.0015839258 0)
(1.009751 -0.0016865961 0)
(1.0108035 -0.001382129 0)
(1.0112924 -0.0013686932 0)
(1.0113437 -0.000943843 0)
(1.0111959 -0.0010481244 0)
(1.0109957 -0.00093379984 0)
(1.0107841 -0.0011551669 0)
(1.0105809 -0.0012207319 0)
(1.0103635 -0.0014560335 0)
(1.0101722 -0.0016672424 0)
(1.0100212 -0.0019510918 0)
(1.0099443 -0.0022396952 0)
(1.009942 -0.0025136144 0)
(1.0100142 -0.0027374238 0)
(1.0101412 -0.0028771816 0)
(1.0103038 -0.002914926 0)
(1.010466 -0.0028367625 0)
(1.0106033 -0.0026478 0)
(1.0106856 -0.0023620707 0)
(1.010704 -0.0020062163 0)
(1.0106547 -0.0016108078 0)
(1.0105558 -0.0012066194 0)
(1.0104345 -0.00081875118 0)
(1.0103319 -0.00046332818 0)
(1.0102964 -0.00014479058 0)
(0.98767369 -0.0019319681 0)
(0.99401005 -0.0018903418 0)
(0.99957375 -0.0017041855 0)
(1.0042206 -0.0017386864 0)
(1.0079165 -0.0016088052 0)
(1.0100444 -0.0016385569 0)
(1.0109412 -0.0011541577 0)
(1.0112531 -0.0011350607 0)
(1.0111947 -0.00079906537 0)
(1.0110313 -0.0010263301 0)
(1.0108578 -0.00097839235 0)
(1.0106613 -0.0012369601 0)
(1.0104547 -0.0013337375 0)
(1.0102378 -0.001615386 0)
(1.0100633 -0.0018785172 0)
(1.0099549 -0.0022135299 0)
(1.0099325 -0.0025322142 0)
(1.0099958 -0.0028211065 0)
(1.0101283 -0.0030339759 0)
(1.010314 -0.0031484528 0)
(1.0105173 -0.003142648 0)
(1.0107099 -0.0030140201 0)
(1.0108546 -0.0027697187 0)
(1.0109327 -0.00243295 0)
(1.0109294 -0.002034119 0)
(1.010853 -0.0016076363 0)
(1.0107216 -0.0011853223 0)
(1.0105699 -0.0007915784 0)
(1.0104414 -0.00044091907 0)
(1.0103874 -0.00013568888 0)
(0.9802535 -0.0018991446 -5.8337584e-25)
(0.98786733 -0.0019153981 0)
(0.99407036 -0.0017228195 0)
(0.99972609 -0.0017552615 0)
(1.0045932 -0.001811312 0)
(1.0083261 -0.001530107 0)
(1.0102445 -0.0013949312 0)
(1.01089 -0.00085991341 0)
(1.0110713 -0.00096041945 0)
(1.0110019 -0.00076879344 0)
(1.0108797 -0.0010737905 0)
(1.0107294 -0.0010558222 0)
(1.0105227 -0.0013325854 0)
(1.0103032 -0.0014806475 0)
(1.0100921 -0.0018149162 0)
(1.009954 -0.0021452909 0)
(1.009901 -0.0025209848 0)
(1.0099483 -0.0028671462 0)
(1.0100787 -0.0031540812 0)
(1.0102792 -0.0033490673 0)
(1.0105172 -0.003423939 0)
(1.0107632 -0.0033678713 0)
(1.0109747 -0.0031797007 0)
(1.0111247 -0.0028768626 0)
(1.0111868 -0.0024870371 0)
(1.0111588 -0.0020461741 0)
(1.011048 -0.001591091 0)
(1.0108819 -0.0011537956 0)
(1.0106974 -0.00075758995 0)
(1.0105421 -0.00041475505 0)
(1.0104692 -0.00012544678 0)
(0.97093664 -0.0019333905 -1.4725255e-26)
(0.98034083 -0.001909971 6.0849058e-25)
(0.98791524 -0.0017776679 0)
(0.99423799 -0.0018056845 0)
(1.0001063 -0.0018625068 0)
(1.0051295 -0.0017960397 0)
(1.008716 -0.0012083246 0)
(1.0102065 -0.001068113 0)
(1.0106759 -0.00064462899 0)
(1.0108492 -0.00092942581 0)
(1.0108406 -0.00082336444 0)
(1.0107517 -0.0011503976 0)
(1.0105866 -0.0011369804 0)
(1.0103491 -0.0014541083 0)
(1.0101202 -0.0016690458 0)
(1.0099372 -0.002076859 0)
(1.0098536 -0.0024658695 0)
(1.0098736 -0.0028793873 0)
(1.0099945 -0.0032347929 0)
(1.0102008 -0.0035126192 0)
(1.0104648 -0.0036739597 0)
(1.0107581 -0.0037013746 0)
(1.0110362 -0.0035839311 0)
(1.0112649 -0.003331342 0)
(1.0114073 -0.0029659379 0)
(1.0114499 -0.0025227692 0)
(1.0113878 -0.0020417103 0)
(1.0112397 -0.0015609818 0)
(1.011035 -0.0011123551 0)
(1.0108163 -0.00071710924 0)
(1.0106336 -0.00038511516 0)
(1.0105419 -0.00011417897 0)
(0.96092718 -0.0018333893 1.2758989e-26)
(0.97088574 -0.0019597576 -2.5640984e-24)
(0.98033381 -0.0017402636 0)
(0.98812094 -0.0019043826 0)
(0.99465901 -0.001960371 0)
(1.0006606 -0.0018399147 0)
(1.0056716 -0.0014774776 0)
(1.0088447 -0.00078910902 0)
(1.0099664 -0.00083342347 0)
(1.0104277 -0.00060972012 0)
(1.0106855 -0.0010035491 0)
(1.0107235 -0.00089991781 0)
(1.010612 -0.0012151486 0)
(1.0103972 -0.0012326844 0)
(1.0101292 -0.001615722 0)
(1.0099165 -0.0019268133 0)
(1.0097865 -0.0024029532 0)
(1.0097781 -0.0028465452 0)
(1.0098778 -0.003278814 0)
(1.0100815 -0.0036358268 0)
(1.0103615 -0.0038875711 0)
(1.0106929 -0.0040068558 0)
(1.0110324 -0.0039735753 0)
(1.0113414 -0.0037879591 0)
(1.0115737 -0.0034645625 0)
(1.0117047 -0.0030347416 0)
(1.0117161 -0.0025389777 0)
(1.0116165 -0.0020200775 0)
(1.0114254 -0.0015174885 0)
(1.0111802 -0.0010613078 0)
(1.0109262 -0.00067055542 0)
(1.0107158 -0.00035227891 0)
(1.0106053 -0.00010201247 0)
(0.95056601 -0.0017967208 0)
(0.96063215 -0.0018594729 2.5662682e-24)
(0.97083143 -0.0018102202 0)
(0.98050174 -0.0019053643 0)
(0.9886103 -0.002088136 0)
(0.99522009 -0.0019821574 0)
(1.0011718 -0.0014647671 0)
(1.005955 -0.0010018905 0)
(1.0086688 -0.00049698849 0)
(1.0096842 -0.00081741443 0)
(1.0102711 -0.00070540864 0)
(1.0105942 -0.0010957894 0)
(1.0106009 -0.00094186308 0)
(1.0104116 -0.0012767713 0)
(1.0101418 -0.0013670907 0)
(1.0098741 -0.0018543186 0)
(1.0097112 -0.0022603219 0)
(1.0096588 -0.0027996178 0)
(1.0097353 -0.0032768916 0)
(1.0099241 -0.003719375 0)
(1.0102101 -0.004060288 0)
(1.0105689 -0.004277194 0)
(1.0109606 -0.0043394534 0)
(1.011346 -0.0042370289 0)
(1.0116725 -0.0039744143 0)
(1.0119044 -0.0035764876 0)
(1.0120103 -0.0030813384 0)
(1.0119865 -0.0025343403 0)
(1.0118412 -0.0019813502 0)
(1.0116046 -0.0014607969 0)
(1.0113166 -0.0010011839 0)
(1.0110266 -0.00061839331 0)
(1.0107886 -0.00031655236 0)
(1.0106596 -8.8986754e-05 0)
(0.93991584 -0.0016142549 3.5785415e-25)
(0.94988974 -0.0018365917 0)
(0.96045513 -0.0016994777 4.6839802e-24)
(0.97096367 -0.0020392899 0)
(0.9809771 -0.002124568 0)
(0.98924567 -0.0020925894 0)
(0.99566663 -0.0016063034 0)
(1.0014303 -0.00091370975 0)
(1.0059475 -0.00065940315 0)
(1.0084286 -0.00048800819 0)
(1.0095326 -0.0009560166 0)
(1.010225 -0.0008053284 0)
(1.0105049 -0.001126585 0)
(1.0104014 -0.00095758127 0)
(1.0101206 -0.0013715825 0)
(1.0098325 -0.0015881703 0)
(1.0096103 -0.0021827431 0)
(1.0095275 -0.0026760905 0)
(1.0095653 -0.0032553295 0)
(1.009736 -0.003755907 0)
(1.0100141 -0.0041909808 0)
(1.0103888 -0.0045068787 0)
(1.0108212 -0.0046730695 0)
(1.0112744 -0.0046684059 0)
(1.0116934 -0.0044854127 0)
(1.0120332 -0.0041397798 0)
(1.0122497 -0.0036641548 0)
(1.0123256 -0.0031036567 0)
(1.0122558 -0.0025087327 0)
(1.0120615 -0.0019253268 0)
(1.0117754 -0.001391531 0)
(1.0114435 -0.00093255858 0)
(1.0111172 -0.0005611278 0)
(1.0108519 -0.00027829118 0)
(1.0107048 -7.5286805e-05 0)
(0.92935233 -0.0014670144 1.8789829e-24)
(0.93878408 -0.0016531774 -7.6807687e-24)
(0.9495434 -0.0016942736 -4.6798044e-24)
(0.96044172 -0.0019643186 -7.141103e-24)
(0.97143072 -0.0023224087 -9.3587163e-24)
(0.98160102 -0.0021347335 0)
(0.98975619 -0.0016520781 0)
(0.99583362 -0.001051162 0)
(1.0015061 -0.00052849745 0)
(1.005928 -0.00066664068 0)
(1.0083399 -0.00066676812 0)
(1.009527 -0.0010919328 0)
(1.0101941 -0.00080625972 0)
(1.0103179 -0.0011005342 0)
(1.0100797 -0.00099987984 0)
(1.009752 -0.0015632662 0)
(1.0095056 -0.0019177969 0)
(1.0093669 -0.0026072989 0)
(1.0093797 -0.0031604592 0)
(1.0095165 -0.00376724 0)
(1.0097823 -0.0042729478 0)
(1.0101563 -0.0046927929 0)
(1.0106172 -0.0049669365 0)
(1.0111258 -0.0050717558 0)
(1.01163 -0.0049861831 0)
(1.0120787 -0.0047142498 0)
(1.0124163 -0.0042798199 0)
(1.0126114 -0.0037246766 0)
(1.012644 -0.0031010516 0)
(1.0125241 -0.0024612538 0)
(1.0122746 -0.0018527098 0)
(1.0119371 -0.0013102307 0)
(1.0115602 -0.00085612839 0)
(1.0111978 -0.00049923941 0)
(1.0109058 -0.00023782189 0)
(1.0107413 -6.0977443e-05 0)
(0.91914122 -0.0012030852 -3.458115e-24)
(0.92772478 -0.0014930406 1.3768324e-23)
(0.93823433 -0.0015103647 0)
(0.94928411 -0.0020165523 2.6038772e-23)
(0.96078038 -0.0022791546 9.3068742e-24)
(0.9720634 -0.002384635 1.5660425e-23)
(0.9820779 -0.0016503571 7.9817354e-24)
(0.98999569 -0.0010407715 0)
(0.99585623 -0.00068120869 0)
(1.0016467 -0.00055968379 0)
(1.0061294 -0.00090610232 0)
(1.0084308 -0.00082481587 0)
(1.009554 -0.0010902967 0)
(1.010043 -0.00070730123 0)
(1.0099684 -0.001089856 0)
(1.0096511 -0.00115181 0)
(1.0093556 -0.0018838994 0)
(1.0091992 -0.0023599519 0)
(1.0091633 -0.0031110114 0)
(1.0092786 -0.0037078886 0)
(1.0095151 -0.0043239169 0)
(1.0098813 -0.0048275255 0)
(1.0103517 -0.0052160709 0)
(1.010903 -0.0054375374 0)
(1.0114801 -0.0054650958 0)
(1.0120325 -0.0052880046 0)
(1.0124955 -0.0049182345 0)
(1.0128239 -0.0043907855 0)
(1.0129821 -0.0037565003 0)
(1.0129661 -0.0030718308 0)
(1.0127868 -0.0023927458 0)
(1.0124796 -0.0017637961 0)
(1.0120885 -0.001217806 0)
(1.0116664 -0.00077259829 0)
(1.0112684 -0.00043336637 0)
(1.0109505 -0.00019548823 0)
(1.0107693 -4.6181801e-05 0)
(0.90926255 -0.00094938052 -2.4884962e-25)
(0.91696629 -0.0011991642 -3.6024714e-24)
(0.92694264 -0.0013603156 5.2781725e-24)
(0.93764407 -0.0018786017 -1.0723753e-23)
(0.94941067 -0.0023910628 -1.9603262e-23)
(0.96129187 -0.002336914 1.3712429e-23)
(0.97256828 -0.0019173474 5.622223e-23)
(0.98227316 -0.00097556523 -9.7164664e-24)
(0.99010503 -0.00067580303 0)
(0.99601088 -0.00078649363 0)
(1.0021019 -0.00082990333 0)
(1.0065496 -0.0011274372 0)
(1.0085584 -0.00078735664 0)
(1.0094382 -0.00093954579 0)
(1.0096834 -0.00060995628 0)
(1.0094767 -0.0012043262 0)
(1.0091825 -0.0014598247 0)
(1.0089824 -0.0023361424 0)
(1.0089382 -0.0028933157 0)
(1.0090098 -0.0036839774 0)
(1.0092264 -0.0043050917 0)
(1.0095666 -0.0049248878 0)
(1.0100348 -0.0054123446 0)
(1.0106085 -0.0057589392 0)
(1.0112451 -0.0059105739 0)
(1.0118901 -0.0058479469 0)
(1.0124763 -0.0055669966 0)
(1.0129461 -0.0050924135 0)
(1.0132481 -0.0044698187 0)
(1.0133624 -0.003757064 0)
(1.0132856 -0.0030166286 0)
(1.0130438 -0.0023028094 0)
(1.0126744 -0.0016597382 0)
(1.0122289 -0.0011150691 0)
(1.0117618 -0.00068273423 0)
(1.0113291 -0.00036404621 0)
(1.0109863 -0.00015164058 0)
(1.0107892 -3.1036113e-05 0)
(0.8997132 -0.00058055991 1.4494473e-24)
(0.90649611 -0.00090284036 1.4113795e-24)
(0.91592773 -0.0010801824 0)
(0.92598522 -0.0017642616 -8.0817764e-24)
(0.93747533 -0.002299303 -2.7977738e-24)
(0.94970327 -0.002481693 0)
(0.96169346 -0.0018176216 -4.0776899e-23)
(0.97281749 -0.0012570405 -4.5699919e-23)
(0.98234949 -0.00056742512 0)
(0.99038181 -0.00085877896 0)
(0.9965862 -0.0011868387 0)
(1.00288 -0.0010375079 0)
(1.0069786 -0.0011019667 0)
(1.0085055 -0.00053914566 0)
(1.0090706 -0.00077579134 0)
(1.0091426 -0.00065690584 0)
(1.0089306 -0.0015085041 0)
(1.0087421 -0.0019250326 0)
(1.0086632 -0.0028903012 0)
(1.0087329 -0.003501193 0)
(1.008907 -0.0043102448 0)
(1.0092259 -0.0049514779 0)
(1.0096721 -0.0055637054 0)
(1.0102514 -0.0060259986 0)
(1.0109277 -0.0063132574 0)
(1.0116512 -0.0063808628 0)
(1.0123518 -0.0062122759 0)
(1.0129644 -0.005817395 0)
(1.0134228 -0.005232555 0)
(1.0136896 -0.0045134116 0)
(1.0137451 -0.0037263465 0)
(1.0136027 -0.002934296 0)
(1.013291 -0.0021930905 0)
(1.0128583 -0.0015412598 0)
(1.0123577 -0.0010030825 0)
(1.0118463 -0.00058737349 0)
(1.0113799 -0.00029192244 0)
(1.0110134 -0.0001066279 0)
(1.0108014 -1.5692956e-05 0)
(0.89084175 -0.00022303201 0)
(0.89632231 -0.00046752729 0)
(0.90515179 -0.00079395051 -1.4564386e-24)
(0.91455702 -0.0015116175 0)
(0.92547226 -0.002226442 -1.4678112e-24)
(0.93743663 -0.00241239 2.0453201e-23)
(0.9499173 -0.0019565234 9.9881066e-23)
(0.96187468 -0.001097645 8.6324145e-23)
(0.9729742 -0.00087630002 0)
(0.98262116 -0.00078663761 0)
(0.99110815 -0.0013575052 0)
(0.99757365 -0.0015348805 0)
(1.0037545 -0.00092955263 0)
(1.0071702 -0.00079311145 0)
(1.0081255 -0.00026049146 0)
(1.0084848 -0.00078024326 0)
(1.0085343 -0.00093298555 0)
(1.0084197 -0.0019992902 0)
(1.0083683 -0.0025066672 0)
(1.0084084 -0.0035221762 0)
(1.0085815 -0.004164191 0)
(1.0088539 -0.0049885635 0)
(1.0092775 -0.0056424131 0)
(1.0098396 -0.0062420717 0)
(1.0105346 -0.0066621679 0)
(1.011318 -0.006874629 0)
(1.0121194 -0.0068393437 0)
(1.0128692 -0.0065513315 0)
(1.0134897 -0.0060330859 0)
(1.0139261 -0.0053338772 0)
(1.0141402 -0.0045203821 0)
(1.0141298 -0.0036624045 0)
(1.0139117 -0.0028266453 0)
(1.0135282 -0.002063686 0)
(1.0130297 -0.0014098032 0)
(1.0124744 -0.00088282319 0)
(1.0119198 -0.00048736967 0)
(1.0114212 -0.00021750027 0)
(1.0110323 -6.0755435e-05 0)
(1.0108063 -9.35128e-08 0)
(0.88674464 -2.2653962e-05 -1.850025e-25)
(0.8908292 0.00028554703 0)
(0.89462527 -0.00035979363 -3.7083295e-24)
(0.90330127 -0.0012389219 -5.9381753e-24)
(0.91365063 -0.0020139751 -4.0850264e-24)
(0.92505191 -0.0023572947 7.5428324e-24)
(0.93734346 -0.0018733832 3.2311837e-24)
(0.94994009 -0.0012195869 1.0914107e-23)
(0.96199488 -0.00068681888 -1.1366229e-22)
(0.97334443 -0.0011722422 0)
(0.9833743 -0.0013648425 -9.7242145e-23)
(0.99225075 -0.0017521371 0)
(0.99872176 -0.0015005148 0)
(1.0044871 -0.00044999249 0)
(1.0069177 -0.00043175692 0)
(1.0074571 -0.00017382917 0)
(1.0078255 -0.0010617458 0)
(1.0079714 -0.0014296456 0)
(1.0079918 -0.0026210143 0)
(1.0080709 -0.0031704158 0)
(1.0082124 -0.0042066963 0)
(1.0084774 -0.0048786041 0)
(1.0088478 -0.0057163286 0)
(1.0093876 -0.0063821346 0)
(1.0100749 -0.0069548819 0)
(1.0108946 -0.0073169145 0)
(1.0117799 -0.0074336736 0)
(1.012655 -0.0072783834 0)
(1.0134363 -0.0068571524 0)
(1.014053 -0.0062080359 0)
(1.0144475 -0.0053937209 0)
(1.0145992 -0.0044879194 0)
(1.0145098 -0.0035667389 0)
(1.0142124 -0.0026931053 0)
(1.0137523 -0.0019168147 0)
(1.0131881 -0.0012663833 0)
(1.0125788 -0.00075546171 0)
(1.0119824 -0.00038354733 0)
(1.0114532 -0.00014138409 0)
(1.0110434 -1.4304474e-05 0)
(1.0108043 1.5558507e-05 0)
(0.88470976 7.3263532e-05 3.281864e-24)
(0.88679349 0.0006063563 0)
(0.89970208 0.00063264602 1.56104e-24)
(0.89224223 -0.00080332934 5.9342333e-24)
(0.90193417 -0.0017649308 1.576438e-24)
(0.91278298 -0.0021575952 4.2421695e-23)
(0.92460595 -0.0018014341 -8.0274637e-23)
(0.93708035 -0.0011197267 -3.6717744e-23)
(0.94992652 -0.00080677245 -1.0781725e-22)
(0.96235312 -0.0010304634 -4.0129898e-23)
(0.97421397 -0.0018704145 -1.3928475e-22)
(0.98455556 -0.0018311085 1.0100471e-22)
(0.99353729 -0.0017098212 0)
(0.99972293 -0.00096588168 0)
(1.0046641 0.00011094515 0)
(1.0062377 -0.00029068151 0)
(1.0066928 -0.00042602991 0)
(1.0072355 -0.0016105298 0)
(1.0075117 -0.002073165 0)
(1.0076554 -0.0033254876 0)
(1.0078394 -0.0038841187 0)
(1.0080612 -0.004937917 0)
(1.008413 -0.005644799 0)
(1.0088938 -0.0065017651 0)
(1.009563 -0.0071695566 0)
(1.0103904 -0.0077007342 0)
(1.0113356 -0.0079812325 0)
(1.0123208 -0.0079820423 0)
(1.0132541 -0.0076883501 0)
(1.0140544 -0.0071221849 0)
(1.0146455 -0.0063375453 0)
(1.0149858 -0.0054080822 0)
(1.0150587 -0.0044166407 0)
(1.0148844 -0.0034381542 0)
(1.0145001 -0.0025364591 0)
(1.013963 -0.0017529727 0)
(1.0133327 -0.0011126185 0)
(1.0126707 -0.00062206806 0)
(1.0120343 -0.0002767282 0)
(1.0114764 -6.4050306e-05 0)
(1.011047 3.2426491e-05 0)
(1.010796 3.122318e-05 0)
(0.88178305 -0.00035566253 1.5884378e-24)
(0.88476331 0.00069946759 4.3650628e-24)
(0.8964107 0.0010356391 0)
(0.90924191 0.00099672391 -2.2297726e-25)
(0.89034565 -0.0013398349 -2.0726089e-24)
(0.9005199 -0.0019099934 -2.3465442e-23)
(0.9119139 -0.0015863576 0)
(0.92401369 -0.0010239439 3.6475245e-23)
(0.93679946 -0.00071418102 -5.4039219e-23)
(0.95015577 -0.0012127703 3.9610875e-23)
(0.96322699 -0.0018213893 1.8218702e-22)
(0.97554434 -0.0024818852 1.4450736e-22)
(0.98587954 -0.0017731663 0)
(0.99459434 -0.0011031839 0)
(1.0002144 -0.00025785266 0)
(1.0042887 0.0003973688 0)
(1.0053896 -0.00055897497 0)
(1.0060431 -0.00098730781 0)
(1.0067786 -0.0023259582 0)
(1.0071614 -0.0027977259 0)
(1.0073952 -0.0040702432 0)
(1.0076514 -0.004636689 0)
(1.0079401 -0.0057177694 0)
(1.008389 -0.0064753829 0)
(1.0089996 -0.0073480307 0)
(1.0098187 -0.0080055097 0)
(1.0107938 -0.0084708991 0)
(1.0118665 -0.008646754 0)
(1.0129391 -0.0085086603 0)
(1.0139188 -0.0080598962 0)
(1.0147154 -0.0073394562 0)
(1.0152658 -0.0064162675 0)
(1.015532 -0.0053762605 0)
(1.0155173 -0.0043047119 0)
(1.0152474 -0.0032795088 0)
(1.0147747 -0.0023566441 0)
(1.0141583 -0.0015747482 0)
(1.0134631 -0.00094968963 0)
(1.0127502 -0.00048380996 0)
(1.0120759 -0.00016769164 0)
(1.011491 1.396872e-05 0)
(1.0110437 7.9187905e-05 0)
(1.0107818 4.6775047e-05 0)
(0.87942129 -0.00089518229 -2.3656347e-24)
(0.88184542 0.00029790995 -1.604804e-24)
(0.89481826 0.0011271225 -3.7430283e-24)
(0.90657794 0.001445967 -1.4026457e-24)
(0.91907622 0.0012358991 -3.2005444e-24)
(0.88834005 -0.001477915 2.3941593e-23)
(0.89913171 -0.0013204966 1.7625034e-23)
(0.91091113 -0.00078846457 0)
(0.9234206 -0.00061080316 5.5766312e-23)
(0.93674185 -0.0011927293 -1.7084288e-23)
(0.95089684 -0.0021131192 0)
(0.96459289 -0.0025233842 -2.1785936e-22)
(0.97705606 -0.0025505979 0)
(0.98696797 -0.0010580691 0)
(0.99522401 -0.00032321669 0)
(1.0002578 0.00018384594 0)
(1.0036293 0.00015429411 0)
(1.0046537 -0.001204898 0)
(1.0055835 -0.0017245927 0)
(1.0064548 -0.003120536 0)
(1.0068994 -0.0035533639 0)
(1.0071779 -0.0048365532 0)
(1.0074813 -0.0054313715 0)
(1.0078444 -0.006565278 0)
(1.0084148 -0.0073808621 0)
(1.0091825 -0.0082612054 0)
(1.0101672 -0.0088835985 0)
(1.0112975 -0.009257622 0)
(1.0124894 -0.0093009415 0)
(1.0136387 -0.0090023843 0)
(1.0146421 -0.0083836202 0)
(1.0154176 -0.0075018384 0)
(1.0159042 -0.0064415676 0)
(1.0160841 -0.0052955103 0)
(1.0159675 -0.0041544912 0)
(1.0155983 -0.0030903276 0)
(1.0150325 -0.0021571303 0)
(1.0143379 -0.0013828983 0)
(1.0135791 -0.00077929007 0)
(1.0128174 -0.00034172885 0)
(1.0121074 -5.7187181e-05 0)
(1.0114977 9.2247922e-05 0)
(1.011034 0.00012573188 0)
(1.0107621 6.2181986e-05 0)
(0.87683754 -0.0010282561 1.427025e-24)
(0.87942988 -0.00023018015 2.3776955e-24)
(0.89243418 0.00075163218 6.2790015e-24)
(0.9054414 0.0015466068 1.4478879e-24)
(0.91700705 0.0017128453 -3.9623154e-24)
(0.92921265 0.0014901043 2.1868882e-24)