/*--------------------------------*- C++ -*----------------------------------*\
| =========                 |                                                 |
| \\      /  F ield         | OpenFOAM: The Open Source CFD Toolbox           |
|  \\    /   O peration     | Version:  5.0                                   |
|   \\  /    A nd           | Web:      www.OpenFOAM.org                      |
|    \\/     M anipulation  |                                                 |
\*---------------------------------------------------------------------------*/
FoamFile
{
    version     2.0;
    format      ascii;
    class       volSymmTensorField;
    location    "140";
    object      UPrime2Mean;
}
// * * * * * * * * * * * * * * * * * * * * * * * * * * * * * * * * * * * * * //

dimensions      [0 2 -2 0 0 0 0];

internalField   nonuniform List<symmTensor> 
9520
(
(2.515831e-05 4.2759801e-07 0 1.6687897e-08 0 0)
(2.571946e-05 1.2574967e-06 0 1.4422491e-07 0 0)
(2.2700369e-05 4.2121936e-07 0 1.7528595e-08 0 0)
(2.6746817e-05 2.0396745e-06 0 3.7837958e-07 0 0)
(2.3265842e-05 1.241588e-06 0 1.5157537e-07 0 0)
(2.1662543e-05 4.2450479e-07 0 1.8104032e-08 0 0)
(2.8180416e-05 2.7771072e-06 0 7.0030696e-07 0 0)
(2.4306489e-05 2.0198473e-06 0 3.9764755e-07 0 0)
(2.2227027e-05 1.2516581e-06 0 1.5640847e-07 0 0)
(2.0083756e-05 4.2641811e-07 0 1.9202278e-08 0 0)
(2.9968132e-05 3.4709974e-06 0 1.094532e-06 0 0)
(2.5766068e-05 2.7613735e-06 0 7.3617441e-07 0 0)
(2.3265241e-05 2.0401658e-06 0 4.1051627e-07 0 0)
(2.0642559e-05 1.2599931e-06 0 1.6613075e-07 0 0)
(1.8849561e-05 4.2888612e-07 0 2.028944e-08 0 0)
(3.2063396e-05 4.1194509e-06 0 1.5487362e-06 0 0)
(2.759743e-05 3.4685671e-06 0 1.1510015e-06 0 0)
(2.4723363e-05 2.7964187e-06 0 7.6026578e-07 0 0)
(2.1675838e-05 2.0599681e-06 0 4.3642503e-07 0 0)
(1.9403777e-05 1.2684327e-06 0 1.7547655e-07 0 0)
(1.7479454e-05 4.3102577e-07 0 2.1729692e-08 0 0)
(3.4419962e-05 4.7197482e-06 0 2.0530109e-06 0 0)
(2.9758821e-05 4.140057e-06 0 1.6291639e-06 0 0)
(2.6556861e-05 3.5238017e-06 0 1.1890422e-06 0 0)
(2.3132166e-05 2.8350523e-06 0 8.0903041e-07 0 0)
(2.0428028e-05 2.0788188e-06 0 4.6130105e-07 0 0)
(1.802149e-05 1.2770942e-06 0 1.8814945e-07 0 0)
(1.6270531e-05 4.3070838e-07 0 2.3137583e-08 0 0)
(3.699127e-05 5.2693096e-06 0 2.6003799e-06 0 0)
(3.2208455e-05 4.7730231e-06 0 2.1603928e-06 0 0)
(2.8726512e-05 4.2214817e-06 0 1.6832594e-06 0 0)
(2.4970501e-05 3.5902385e-06 0 1.2667601e-06 0 0)
(2.1874128e-05 2.8707685e-06 0 8.560056e-07 0 0)
(1.9026224e-05 2.0994764e-06 0 4.9536289e-07 0 0)
(1.6801392e-05 1.27798e-06 0 2.0045696e-07 0 0)
(1.5019523e-05 4.2882484e-07 0 2.4779706e-08 0 0)
(3.9729882e-05 5.7614857e-06 0 3.1846333e-06 0 0)
(3.4906083e-05 5.3629233e-06 0 2.7368548e-06 0 0)
(3.1192456e-05 4.8870416e-06 0 2.2316878e-06 0 0)
(2.7154986e-05 4.3256688e-06 0 1.7955866e-06 0 0)
(2.3704117e-05 3.6507921e-06 0 1.3419236e-06 0 0)
(2.0449317e-05 2.9113111e-06 0 9.2092247e-07 0 0)
(1.7786084e-05 2.1064578e-06 0 5.2847284e-07 0 0)
(1.5532947e-05 1.2745043e-06 0 2.1491848e-07 0 0)
(1.3891166e-05 4.2333727e-07 0 2.6331181e-08 0 0)
(4.2589521e-05 6.1985009e-06 0 3.8039923e-06 0 0)
(3.7799475e-05 5.9040501e-06 0 3.3520532e-06 0 0)
(3.3910366e-05 5.5175809e-06 0 2.8261339e-06 0 0)
(2.9649288e-05 5.0392341e-06 0 2.3838583e-06 0 0)
(2.5885327e-05 4.4198643e-06 0 1.904508e-06 0 0)
(2.2256795e-05 3.7208282e-06 0 1.4467378e-06 0 0)
(1.9183325e-05 2.9315536e-06 0 9.8423278e-07 0 0)
(1.6487114e-05 2.1067373e-06 0 5.6762517e-07 0 0)
(1.4387567e-05 1.2600287e-06 0 2.2857511e-07 0 0)
(1.2764869e-05 4.1533328e-07 0 2.8000408e-08 0 0)
(4.5525628e-05 6.5650638e-06 0 4.45488e-06 0 0)
(4.0853379e-05 6.3991823e-06 0 4.0045775e-06 0 0)
(3.6840046e-05 6.106935e-06 0 3.4608769e-06 0 0)
(3.2416461e-05 5.7269761e-06 0 3.0223341e-06 0 0)
(2.838361e-05 5.1766404e-06 0 2.5318031e-06 0 0)
(2.4419953e-05 4.5303069e-06 0 2.0578657e-06 0 0)
(2.096209e-05 3.7631906e-06 0 1.5494846e-06 0 0)
(1.7844753e-05 2.9432106e-06 0 1.0595763e-06 0 0)
(1.5311265e-05 2.0880485e-06 0 6.0469856e-07 0 0)
(1.3239843e-05 1.2378889e-06 0 2.4333002e-07 0 0)
(1.1748039e-05 4.0396335e-07 0 2.9525514e-08 0 0)
(4.849887e-05 6.8903527e-06 0 5.1422552e-06 0 0)
(4.4025775e-05 6.8306667e-06 0 4.6899925e-06 0 0)
(3.9941356e-05 6.652706e-06 0 4.1312786e-06 0 0)
(3.5415015e-05 6.3817986e-06 0 3.7022914e-06 0 0)
(3.1162367e-05 5.917449e-06 0 3.2145361e-06 0 0)
(2.6908675e-05 5.3393114e-06 0 2.7418656e-06 0 0)
(2.309643e-05 4.6049541e-06 0 2.2091494e-06 0 0)
(1.957888e-05 3.7956908e-06 0 1.6725752e-06 0 0)
(1.6627971e-05 2.9270326e-06 0 1.1312692e-06 0 0)
(1.4125108e-05 2.0564368e-06 0 6.4499955e-07 0 0)
(1.2202404e-05 1.2053912e-06 0 2.5681924e-07 0 0)
(1.0761118e-05 3.9001868e-07 0 3.1060026e-08 0 0)
(5.1479619e-05 7.1089278e-06 0 5.8673951e-06 0 0)
(4.7283757e-05 7.2184518e-06 0 5.4128479e-06 0 0)
(4.3166838e-05 7.1436247e-06 0 4.8329367e-06 0 0)
(3.8601788e-05 7.0035731e-06 0 4.4222091e-06 0 0)
(3.4180821e-05 6.6364279e-06 0 3.9449874e-06 0 0)
(2.969128e-05 6.1443576e-06 0 3.4883984e-06 0 0)
(2.5559479e-05 5.4573648e-06 0 2.9508e-06 0 0)
(2.1667359e-05 4.6691762e-06 0 2.3915765e-06 0 0)
(1.8313678e-05 3.7904149e-06 0 1.790484e-06 0 0)
(1.5390067e-05 2.8923015e-06 0 1.2097108e-06 0 0)
(1.3050507e-05 2.0067991e-06 0 6.8195478e-07 0 0)
(1.1192365e-05 1.1649399e-06 0 2.7046601e-07 0 0)
(9.8759121e-06 3.7347286e-07 0 3.2383809e-08 0 0)
(5.4439859e-05 7.3554465e-06 0 6.6369046e-06 0 0)
(5.0585905e-05 7.5133186e-06 0 6.1744247e-06 0 0)
(4.6473764e-05 7.594592e-06 0 5.5716883e-06 0 0)
(4.1937006e-05 7.5781241e-06 0 5.1766367e-06 0 0)
(3.7405213e-05 7.3300462e-06 0 4.7180432e-06 0 0)
(3.2732814e-05 6.9385859e-06 0 4.2878327e-06 0 0)
(2.832142e-05 6.3173416e-06 0 3.7640106e-06 0 0)
(2.4086884e-05 5.5653935e-06 0 3.2040021e-06 0 0)
(2.0348896e-05 4.6845225e-06 0 2.567683e-06 0 0)
(1.7014391e-05 3.7605137e-06 0 1.9202786e-06 0 0)
(1.4264484e-05 2.8307872e-06 0 1.2820576e-06 0 0)
(1.1998373e-05 1.9433162e-06 0 7.1964806e-07 0 0)
(1.0285523e-05 1.1164847e-06 0 2.8227302e-07 0 0)
(9.0367761e-06 3.5467925e-07 0 3.3611289e-08 0 0)
(5.734347e-05 7.3683381e-06 0 7.4627286e-06 0 0)
(5.3930552e-05 7.8159463e-06 0 6.9857555e-06 0 0)
(4.9831929e-05 7.9654064e-06 0 6.348578e-06 0 0)
(4.5386797e-05 8.1207922e-06 0 5.9716673e-06 0 0)
(4.0789346e-05 7.9871631e-06 0 5.5286576e-06 0 0)
(3.5993194e-05 7.7182724e-06 0 5.1365307e-06 0 0)
(3.1348208e-05 7.1795614e-06 0 4.6400983e-06 0 0)
(2.6812638e-05 6.4822693e-06 0 4.0988712e-06 0 0)
(2.2712959e-05 5.6121338e-06 0 3.450616e-06 0 0)
(1.8981942e-05 4.6688593e-06 0 2.7627009e-06 0 0)
(1.5826658e-05 3.6936268e-06 0 2.0409618e-06 0 0)
(1.3154651e-05 2.748628e-06 0 1.3564964e-06 0 0)
(1.1051951e-05 1.8656348e-06 0 7.524326e-07 0 0)
(9.4237025e-06 1.0610578e-06 0 2.9331493e-07 0 0)
(8.2915887e-06 3.3411448e-07 0 3.4565044e-08 0 0)
(6.0188893e-05 7.5934883e-06 0 8.3490024e-06 0 0)
(5.7236827e-05 7.9273786e-06 0 7.865785e-06 0 0)
(5.3213571e-05 8.3359207e-06 0 7.172202e-06 0 0)
(4.8899646e-05 8.5869132e-06 0 6.8041922e-06 0 0)
(4.4297402e-05 8.6132554e-06 0 6.3803832e-06 0 0)
(3.9437502e-05 8.4700651e-06 0 6.027334e-06 0 0)
(3.4610662e-05 8.0386801e-06 0 5.5725845e-06 0 0)
(2.9816337e-05 7.4149757e-06 0 5.0663536e-06 0 0)
(2.5382027e-05 6.5719001e-06 0 4.4284919e-06 0 0)
(2.1275165e-05 5.6214688e-06 0 3.7252156e-06 0 0)
(1.7723381e-05 4.6043135e-06 0 2.9457462e-06 0 0)
(1.4646599e-05 3.5981962e-06 0 2.1661075e-06 0 0)
(1.2153215e-05 2.6448472e-06 0 1.4217806e-06 0 0)
(1.0148355e-05 1.7754989e-06 0 7.8348233e-07 0 0)
(8.6579769e-06 1.000168e-06 0 3.0195178e-07 0 0)
(7.6009877e-06 3.1185077e-07 0 3.5336721e-08 0 0)
(6.2948302e-05 7.3533005e-06 0 9.3582655e-06 0 0)
(6.0556586e-05 8.203705e-06 0 8.8283261e-06 0 0)
(5.6573182e-05 8.533281e-06 0 8.0634986e-06 0 0)
(5.2463969e-05 9.0503029e-06 0 7.6932579e-06 0 0)
(4.78863e-05 9.1734186e-06 0 7.274851e-06 0 0)
(4.3028019e-05 9.1982941e-06 0 6.9650611e-06 0 0)
(3.8072908e-05 8.884655e-06 0 6.555089e-06 0 0)
(3.3064155e-05 8.358026e-06 0 6.1002463e-06 0 0)
(2.8328062e-05 7.5603473e-06 0 5.4921146e-06 0 0)
(2.3873945e-05 6.6182469e-06 0 4.7970522e-06 0 0)
(1.9939353e-05 5.567923e-06 0 3.985587e-06 0 0)
(1.6463488e-05 4.502267e-06 0 3.1369104e-06 0 0)
(1.3576989e-05 3.4721033e-06 0 2.2771167e-06 0 0)
(1.1191815e-05 2.5219331e-06 0 1.4844237e-06 0 0)
(9.3447422e-06 1.675464e-06 0 8.0805636e-07 0 0)
(7.9467862e-06 9.3387468e-07 0 3.0904274e-07 0 0)
(6.9951138e-06 2.8871252e-07 0 3.5804147e-08 0 0)
(6.5617059e-05 7.5961236e-06 0 1.0419531e-05 0 0)
(6.3834842e-05 8.0472731e-06 0 9.9333599e-06 0 0)
(5.9977325e-05 8.8679192e-06 0 9.038684e-06 0 0)
(5.6009521e-05 9.3467734e-06 0 8.6511257e-06 0 0)
(5.1549869e-05 9.7250168e-06 0 8.2316851e-06 0 0)
(4.672255e-05 9.8664944e-06 0 7.9495874e-06 0 0)
(4.1702786e-05 9.7172506e-06 0 7.5909399e-06 0 0)
(3.6523076e-05 9.3027365e-06 0 7.1945018e-06 0 0)
(3.1525203e-05 8.5729368e-06 0 6.6336248e-06 0 0)
(2.6753881e-05 7.6563046e-06 0 5.968187e-06 0 0)
(2.2455498e-05 6.584917e-06 0 5.1503881e-06 0 0)
(1.8592785e-05 5.467157e-06 0 4.2594098e-06 0 0)
(1.5314673e-05 4.3584735e-06 0 3.3087334e-06 0 0)
(1.2544162e-05 3.3187544e-06 0 2.3849253e-06 0 0)
(1.0334918e-05 2.383491e-06 0 1.5348258e-06 0 0)
(8.5954953e-06 1.5654434e-06 0 8.2874235e-07 0 0)
(7.3228891e-06 8.648019e-07 0 3.1343743e-07 0 0)
(6.4462926e-06 2.6471435e-07 0 3.604361e-08 0 0)
(6.8180718e-05 7.0359624e-06 0 1.1766117e-05 0 0)
(6.7292263e-05 8.3763187e-06 0 1.1191928e-05 0 0)
(6.3406678e-05 8.8138208e-06 0 1.0174339e-05 0 0)
(5.9609712e-05 9.749197e-06 0 9.7014115e-06 0 0)
(5.5243901e-05 1.0126678e-05 0 9.2660699e-06 0 0)
(5.0528336e-05 1.0524887e-05 0 9.003482e-06 0 0)
(4.5458252e-05 1.0504019e-05 0 8.6814004e-06 0 0)
(4.0165322e-05 1.0247711e-05 0 8.3515512e-06 0 0)
(3.49393e-05 9.6015532e-06 0 7.8460073e-06 0 0)
(2.9885547e-05 8.7313054e-06 0 7.2308622e-06 0 0)
(2.5248561e-05 7.6533612e-06 0 6.4308552e-06 0 0)
(2.1018924e-05 6.4946547e-06 0 5.5243688e-06 0 0)
(1.735601e-05 5.311179e-06 0 4.5087842e-06 0 0)
(1.4199119e-05 4.1779666e-06 0 3.4774181e-06 0 0)
(1.1620312e-05 3.1425767e-06 0 2.4733879e-06 0 0)
(9.5327229e-06 2.2292038e-06 0 1.5784143e-06 0 0)
(7.9384101e-06 1.450149e-06 0 8.4206494e-07 0 0)
(6.756871e-06 7.9278331e-07 0 3.1585386e-07 0 0)
(5.9708175e-06 2.4080114e-07 0 3.5989524e-08 0 0)
(7.0475988e-05 7.3282565e-06 0 1.3170386e-05 0 0)
(7.0700858e-05 7.7864421e-06 0 1.2810388e-05 0 0)
(6.6931119e-05 9.1668783e-06 0 1.147018e-05 0 0)
(6.3250067e-05 9.7986562e-06 0 1.0948529e-05 0 0)
(5.9032509e-05 1.0600444e-05 0 1.0416185e-05 0 0)
(5.4422708e-05 1.1046429e-05 0 1.01444e-05 0 0)
(4.9354014e-05 1.1285904e-05 0 9.8511728e-06 0 0)
(4.3949875e-05 1.1162894e-05 0 9.571192e-06 0 0)
(3.8542307e-05 1.0644916e-05 0 9.1317756e-06 0 0)
(3.3235868e-05 9.8345423e-06 0 8.5769326e-06 0 0)
(2.8294616e-05 8.7698318e-06 0 7.8183794e-06 0 0)
(2.3721619e-05 7.5834666e-06 0 6.9228249e-06 0 0)
(1.9687256e-05 6.3326876e-06 0 5.8694725e-06 0 0)
(1.6148722e-05 5.1078056e-06 0 4.7561351e-06 0 0)
(1.3196286e-05 3.9651058e-06 0 3.6187743e-06 0 0)
(1.0751916e-05 2.9431331e-06 0 2.5518042e-06 0 0)
(8.8286732e-06 2.0661339e-06 0 1.6078523e-06 0 0)
(7.3405923e-06 1.3289485e-06 0 8.502494e-07 0 0)
(6.267124e-06 7.2095034e-07 0 3.1566893e-07 0 0)
(5.5498996e-06 2.1705825e-07 0 3.5699978e-08 0 0)
(7.2604071e-05 6.2713783e-06 0 1.504914e-05 0 0)
(7.4354206e-05 8.2770093e-06 0 1.4743717e-05 0 0)
(7.0548563e-05 8.6846488e-06 0 1.319883e-05 0 0)
(6.7039829e-05 1.0184862e-05 0 1.2419166e-05 0 0)
(6.2923362e-05 1.0734675e-05 0 1.1804078e-05 0 0)
(5.847936e-05 1.1626154e-05 0 1.1430165e-05 0 0)
(5.3386546e-05 1.1954561e-05 0 1.1124766e-05 0 0)
(4.7888305e-05 1.2083219e-05 0 1.0885414e-05 0 0)
(4.2295013e-05 1.1675277e-05 0 1.0488469e-05 0 0)
(3.6776258e-05 1.0964853e-05 0 1.0007915e-05 0 0)
(3.1560634e-05 9.9257409e-06 0 9.3047219e-06 0 0)
(2.6676102e-05 8.729605e-06 0 8.4464478e-06 0 0)
(2.2290588e-05 7.422757e-06 0 7.3829752e-06 0 0)
(1.838198e-05 6.1121376e-06 0 6.2150152e-06 0 0)
(1.5056648e-05 4.8600917e-06 0 4.9676685e-06 0 0)
(1.2250047e-05 3.7199852e-06 0 3.7468002e-06 0 0)
(9.9884323e-06 2.7299099e-06 0 2.6074506e-06 0 0)
(8.1863554e-06 1.8927805e-06 0 1.6277685e-06 0 0)
(6.8244998e-06 1.2077126e-06 0 8.5124944e-07 0 0)
(5.8331152e-06 6.4924997e-07 0 3.1344236e-07 0 0)
(5.1895383e-06 1.9431731e-07 0 3.5162707e-08 0 0)
(7.3810673e-05 6.591372e-06 0 1.7229471e-05 0 0)
(7.8110011e-05 6.8790121e-06 0 1.7445576e-05 0 0)
(7.4463878e-05 9.1493595e-06 0 1.5390872e-05 0 0)
(7.1070518e-05 9.8065163e-06 0 1.4459896e-05 0 0)
(6.7065068e-05 1.1134262e-05 0 1.3493419e-05 0 0)
(6.2741096e-05 1.1880539e-05 0 1.3000535e-05 0 0)
(5.7655218e-05 1.2681671e-05 0 1.258246e-05 0 0)
(5.1996327e-05 1.2913912e-05 0 1.2320286e-05 0 0)
(4.6202755e-05 1.2719442e-05 0 1.195359e-05 0 0)
(4.0472252e-05 1.2095881e-05 0 1.1519398e-05 0 0)
(3.5018198e-05 1.1118482e-05 0 1.0889991e-05 0 0)
(2.9854342e-05 9.9249253e-06 0 1.0087156e-05 0 0)
(2.5145873e-05 8.5781806e-06 0 9.0415247e-06 0 0)
(2.0883877e-05 7.1916456e-06 0 7.8473996e-06 0 0)
(1.7192308e-05 5.8323888e-06 0 6.516089e-06 0 0)
(1.4022414e-05 4.5695057e-06 0 5.1629507e-06 0 0)
(1.14154e-05 3.453872e-06 0 3.8419359e-06 0 0)
(9.2902753e-06 2.5004406e-06 0 2.6482563e-06 0 0)
(7.6328651e-06 1.718515e-06 0 1.6336273e-06 0 0)
(6.3664436e-06 1.0858038e-06 0 8.4682094e-07 0 0)
(5.4624452e-06 5.8050199e-07 0 3.0896613e-07 0 0)
(4.8770458e-06 1.7267555e-07 0 3.4411782e-08 0 0)
(7.4007088e-05 4.710925e-06 0 1.967642e-05 0 0)
(8.1625504e-05 7.6871939e-06 0 2.0882799e-05 0 0)
(7.8968368e-05 7.7235728e-06 0 1.850342e-05 0 0)
(7.5619395e-05 1.0196844e-05 0 1.712714e-05 0 0)
(7.1674592e-05 1.0778675e-05 0 1.5914751e-05 0 0)
(6.7459036e-05 1.2354297e-05 0 1.4976542e-05 0 0)
(6.2228995e-05 1.3110227e-05 0 1.4384738e-05 0 0)
(5.6386801e-05 1.3806547e-05 0 1.3978911e-05 0 0)
(5.0290003e-05 1.3697012e-05 0 1.3552789e-05 0 0)
(4.4325574e-05 1.3246486e-05 0 1.3150781e-05 0 0)
(3.8637523e-05 1.2322772e-05 0 1.2569902e-05 0 0)
(3.3230606e-05 1.1165123e-05 0 1.1844097e-05 0 0)
(2.8229019e-05 9.7921833e-06 0 1.0837254e-05 0 0)
(2.3636043e-05 8.3436859e-06 0 9.6461201e-06 0 0)
(1.9590274e-05 6.8840319e-06 0 8.2589102e-06 0 0)
(1.6061469e-05 5.4977523e-06 0 6.7987786e-06 0 0)
(1.310609e-05 4.2481551e-06 0 5.3141621e-06 0 0)
(1.0651302e-05 3.1640337e-06 0 3.916323e-06 0 0)
(8.689196e-06 2.267926e-06 0 2.6658584e-06 0 0)
(7.1413313e-06 1.541593e-06 0 1.6291904e-06 0 0)
(5.9771597e-06 9.6878758e-07 0 8.3609177e-07 0 0)
(5.1410592e-06 5.1482192e-07 0 3.0266026e-07 0 0)
(4.6118665e-06 1.526758e-07 0 3.3473694e-08 0 0)
(7.0809449e-05 4.3020832e-06 0 2.3292166e-05 0 0)
(8.4758092e-05 4.6770317e-06 0 2.5368996e-05 0 0)
(8.3479629e-05 8.4671136e-06 0 2.2972321e-05 0 0)
(8.1159272e-05 8.785969e-06 0 2.1204574e-05 0 0)
(7.7121072e-05 1.1039963e-05 0 1.9270042e-05 0 0)
(7.2945368e-05 1.207361e-05 0 1.7891482e-05 0 0)
(6.7481405e-05 1.3743737e-05 0 1.6725913e-05 0 0)
(6.1154416e-05 1.4434723e-05 0 1.6060264e-05 0 0)
(5.4679309e-05 1.4734216e-05 0 1.5410114e-05 0 0)
(4.8356931e-05 1.434694e-05 0 1.4928729e-05 0 0)
(4.2420324e-05 1.355058e-05 0 1.4383676e-05 0 0)
(3.678094e-05 1.2425565e-05 0 1.3713956e-05 0 0)
(3.1518993e-05 1.105837e-05 0 1.2769635e-05 0 0)
(2.662019e-05 9.5630061e-06 0 1.1604046e-05 0 0)
(2.2235475e-05 8.0138784e-06 0 1.0189906e-05 0 0)
(1.8356104e-05 6.508102e-06 0 8.6509472e-06 0 0)
(1.5054244e-05 5.1197289e-06 0 7.0255282e-06 0 0)
(1.2266587e-05 3.8936666e-06 0 5.4383884e-06 0 0)
(9.9929456e-06 2.866947e-06 0 3.9561864e-06 0 0)
(8.1559278e-06 2.0293728e-06 0 2.6668228e-06 0 0)
(6.725877e-06 1.3713255e-06 0 1.6122278e-06 0 0)
(5.6398146e-06 8.5617091e-07 0 8.2034702e-07 0 0)
(4.869475e-06 4.5409086e-07 0 2.946191e-07 0 0)
(4.3855586e-06 1.3438096e-07 0 3.2377367e-08 0 0)
(6.4394469e-05 -5.8211614e-07 0 2.6488231e-05 0 0)
(8.44372e-05 4.848529e-06 0 3.1591014e-05 0 0)
(8.8604355e-05 5.016337e-06 0 2.9095244e-05 0 0)
(8.755645e-05 9.3231292e-06 0 2.7157804e-05 0 0)
(8.4247166e-05 9.479458e-06 0 2.4576339e-05 0 0)
(7.9847339e-05 1.2288442e-05 0 2.2076941e-05 0 0)
(7.3808854e-05 1.3682721e-05 0 2.0270499e-05 0 0)
(6.6761322e-05 1.5249684e-05 0 1.8832094e-05 0 0)
(5.950374e-05 1.5534885e-05 0 1.7750554e-05 0 0)
(5.2706188e-05 1.5500616e-05 0 1.6993984e-05 0 0)
(4.6393976e-05 1.4740996e-05 0 1.6365604e-05 0 0)
(4.050871e-05 1.3709632e-05 0 1.5735976e-05 0 0)
(3.4998374e-05 1.2355249e-05 0 1.483775e-05 0 0)
(2.9819347e-05 1.0842275e-05 0 1.3720725e-05 0 0)
(2.5112328e-05 9.2184025e-06 0 1.2302646e-05 0 0)
(2.0892467e-05 7.6009897e-06 0 1.0714024e-05 0 0)
(1.7249607e-05 6.0733568e-06 0 8.9749153e-06 0 0)
(1.4130432e-05 4.6970148e-06 0 7.2194142e-06 0 0)
(1.1542245e-05 3.5254038e-06 0 5.5152078e-06 0 0)
(9.410734e-06 2.5590024e-06 0 3.9718574e-06 0 0)
(7.707538e-06 1.7985451e-06 0 2.646631e-06 0 0)
(6.3667927e-06 1.2059704e-06 0 1.5854705e-06 0 0)
(5.357022e-06 7.5205446e-07 0 7.9961498e-07 0 0)
(4.6381834e-06 3.9839403e-07 0 2.8513466e-07 0 0)
(4.1944639e-06 1.1800351e-07 0 3.1149459e-08 0 0)
(5.7704395e-05 -7.6227579e-06 0 3.1955922e-05 0 0)
(8.3881514e-05 -3.5627723e-06 0 3.8455953e-05 0 0)
(9.0586576e-05 5.1964237e-06 0 3.8011176e-05 0 0)
(9.5602519e-05 5.5113887e-06 0 3.5994119e-05 0 0)
(9.3270468e-05 9.5777508e-06 0 3.2619066e-05 0 0)
(8.9250571e-05 1.0639691e-05 0 2.8916126e-05 0 0)
(8.2166682e-05 1.4050104e-05 0 2.5505281e-05 0 0)
(7.3727011e-05 1.541851e-05 0 2.3118909e-05 0 0)
(6.5299637e-05 1.6499371e-05 0 2.0920198e-05 0 0)
(5.7541674e-05 1.6443434e-05 0 1.9595484e-05 0 0)
(5.0713011e-05 1.5975006e-05 0 1.8673832e-05 0 0)
(4.4463054e-05 1.496714e-05 0 1.7956319e-05 0 0)
(3.8673994e-05 1.3677307e-05 0 1.7082022e-05 0 0)
(3.3223726e-05 1.2164532e-05 0 1.5997205e-05 0 0)
(2.8208134e-05 1.0490984e-05 0 1.4595618e-05 0 0)
(2.3656929e-05 8.7746594e-06 0 1.2981605e-05 0 0)
(1.9679509e-05 7.111312e-06 0 1.1158301e-05 0 0)
(1.6233342e-05 5.5800812e-06 0 9.2612832e-06 0 0)
(1.3332245e-05 4.2512334e-06 0 7.3519245e-06 0 0)
(1.0904293e-05 3.1393643e-06 0 5.5591669e-06 0 0)
(8.9231565e-06 2.2584138e-06 0 3.9552334e-06 0 0)
(7.3222429e-06 1.5721781e-06 0 2.6100928e-06 0 0)
(6.0690061e-06 1.0530117e-06 0 1.5484948e-06 0 0)
(5.1170735e-06 6.5601031e-07 0 7.7484904e-07 0 0)
(4.443943e-06 3.4857804e-07 0 2.7445299e-07 0 0)
(4.0327572e-06 1.0354923e-07 0 2.9818026e-08 0 0)
(7.3606174e-05 -2.0935944e-05 0 3.5798702e-05 0 0)
(8.3933297e-05 -1.1302551e-05 0 4.9173636e-05 0 0)
(9.3827033e-05 -5.114305e-06 0 4.9084401e-05 0 0)
(0.00010134783 5.5344272e-06 0 4.8976277e-05 0 0)
(0.00010551909 5.0840369e-06 0 4.5090106e-05 0 0)
(0.00010211118 1.0325985e-05 0 3.9396005e-05 0 0)
(9.3893678e-05 1.2673097e-05 0 3.4281907e-05 0 0)
(8.3273689e-05 1.5911137e-05 0 2.9589585e-05 0 0)
(7.2745008e-05 1.6839825e-05 0 2.5875849e-05 0 0)
(6.3468432e-05 1.7533176e-05 0 2.3163936e-05 0 0)
(5.5583883e-05 1.701205e-05 0 2.1588603e-05 0 0)
(4.8810598e-05 1.625663e-05 0 2.0552246e-05 0 0)
(4.2616089e-05 1.4982651e-05 0 1.9557946e-05 0 0)
(3.6844008e-05 1.3518118e-05 0 1.8475251e-05 0 0)
(3.1516783e-05 1.1817638e-05 0 1.7072822e-05 0 0)
(2.6639628e-05 1.002469e-05 0 1.5449792e-05 0 0)
(2.2330467e-05 8.2339303e-06 0 1.3569103e-05 0 0)
(1.8562643e-05 6.5470142e-06 0 1.1561868e-05 0 0)
(1.5353912e-05 5.0514668e-06 0 9.4721164e-06 0 0)
(1.2631997e-05 3.7782351e-06 0 7.4425359e-06 0 0)
(1.0372363e-05 2.7586008e-06 0 5.5574568e-06 0 0)
(8.5085286e-06 1.9608094e-06 0 3.9138343e-06 0 0)
(7.0065812e-06 1.3621622e-06 0 2.555788e-06 0 0)
(5.8182032e-06 9.1073724e-07 0 1.5032943e-06 0 0)
(4.917835e-06 5.7022807e-07 0 7.4658608e-07 0 0)
(4.2803104e-06 3.0462159e-07 0 2.6283408e-07 0 0)
(3.8961432e-06 9.1030831e-08 0 2.8412518e-08 0 0)
(0.00012737752 -3.294651e-05 0 4.3148608e-05 0 0)
(0.00010780227 -3.3591214e-05 0 5.8989787e-05 0 0)
(9.8282237e-05 -1.397934e-05 0 6.5258093e-05 0 0)
(0.00011042634 -6.5942164e-06 0 6.6242864e-05 0 0)
(0.00011744136 4.4197661e-06 0 6.3893049e-05 0 0)
(0.0001202096 5.0308632e-06 0 5.6284115e-05 0 0)
(0.00011087494 1.2357604e-05 0 4.7920215e-05 0 0)
(9.7083401e-05 1.4732852e-05 0 4.0691804e-05 0 0)
(8.3344961e-05 1.7400839e-05 0 3.3499396e-05 0 0)
(7.1328004e-05 1.8032639e-05 0 2.8777885e-05 0 0)
(6.1679996e-05 1.8165099e-05 0 2.5638109e-05 0 0)
(5.3825156e-05 1.7358295e-05 0 2.3834377e-05 0 0)
(4.7016125e-05 1.6318205e-05 0 2.2466904e-05 0 0)
(4.0762875e-05 1.4866223e-05 0 2.1220264e-05 0 0)
(3.505174e-05 1.3183057e-05 0 1.9775995e-05 0 0)
(2.9836413e-05 1.1338858e-05 0 1.8122794e-05 0 0)
(2.5192918e-05 9.4388306e-06 0 1.620208e-05 0 0)
(2.1105081e-05 7.6003565e-06 0 1.4115094e-05 0 0)
(1.7595107e-05 5.9317165e-06 0 1.1876776e-05 0 0)
(1.4585371e-05 4.483146e-06 0 9.6325469e-06 0 0)
(1.2051515e-05 3.3060482e-06 0 7.4721994e-06 0 0)
(9.9259409e-06 2.3775439e-06 0 5.5206272e-06 0 0)
(8.1729008e-06 1.6828898e-06 0 3.8443968e-06 0 0)
(6.7442581e-06 1.16503e-06 0 2.4871477e-06 0 0)
(5.6135803e-06 7.8395831e-07 0 1.450707e-06 0 0)
(4.7513744e-06 4.9432909e-07 0 7.1556617e-07 0 0)
(4.1429303e-06 2.6663337e-07 0 2.5052097e-07 0 0)
(3.7802929e-06 8.0381693e-08 0 2.6961534e-08 0 0)
(0.00022286028 -4.6761776e-05 0 4.8004196e-05 0 0)
(0.00016909535 -5.1169566e-05 0 7.5570766e-05 0 0)
(0.00012847685 -4.33812e-05 0 8.3960278e-05 0 0)
(0.0001221303 -1.7160299e-05 0 9.085489e-05 0 0)
(0.00013502645 -1.0038279e-05 0 8.9852195e-05 0 0)
(0.00014146906 3.441593e-06 0 8.203148e-05 0 0)
(0.00013554988 6.9707185e-06 0 7.035734e-05 0 0)
(0.00011790292 1.4169964e-05 0 5.805783e-05 0 0)
(9.9269454e-05 1.6314638e-05 0 4.6752986e-05 0 0)
(8.2902983e-05 1.8721525e-05 0 3.7582467e-05 0 0)
(6.9999917e-05 1.873466e-05 0 3.2041168e-05 0 0)
(6.0261045e-05 1.8533629e-05 0 2.8426867e-05 0 0)
(5.221713e-05 1.7488584e-05 0 2.6150707e-05 0 0)
(4.5194217e-05 1.6247815e-05 0 2.4451389e-05 0 0)
(3.8899942e-05 1.455456e-05 0 2.2776498e-05 0 0)
(3.3261924e-05 1.2701797e-05 0 2.1036157e-05 0 0)
(2.8265056e-05 1.0718228e-05 0 1.9057725e-05 0 0)
(2.3850213e-05 8.7411782e-06 0 1.6914658e-05 0 0)
(2.0041331e-05 6.8959918e-06 0 1.4561782e-05 0 0)
(1.6752555e-05 5.2610462e-06 0 1.2134807e-05 0 0)
(1.3952723e-05 3.9081178e-06 0 9.7157373e-06 0 0)
(1.1571416e-05 2.8280934e-06 0 7.4549133e-06 0 0)
(9.5696924e-06 2.0187471e-06 0 5.4426254e-06 0 0)
(7.9004007e-06 1.4197315e-06 0 3.7522024e-06 0 0)
(6.5351057e-06 9.8943071e-07 0 2.405153e-06 0 0)
(5.4449854e-06 6.710995e-07 0 1.3922105e-06 0 0)
(4.6135145e-06 4.2893027e-07 0 6.8246932e-07 0 0)
(4.0271299e-06 2.3442101e-07 0 2.3778551e-07 0 0)
(3.6815133e-06 7.1520037e-08 0 2.5490296e-08 0 0)
(0.00037404929 -6.265561e-05 0 5.5498876e-05 0 0)
(0.00027124901 -7.5827463e-05 0 9.0688483e-05 0 0)
(0.00019659311 -6.7484961e-05 0 0.00010984849 0 0)
(0.00016027042 -5.4259098e-05 0 0.00012127805 0 0)
(0.00015791103 -2.3499647e-05 0 0.00012696719 0 0)
(0.00017141967 -1.3200732e-05 0 0.00011890573 0 0)
(0.00016745535 4.588179e-06 0 0.00010502951 0 0)
(0.00014913093 8.2489067e-06 0 8.7290943e-05 0 0)
(0.00012416344 1.5405746e-05 0 6.7701464e-05 0 0)
(0.00010089178 1.786831e-05 0 5.3001006e-05 0 0)
(8.2594684e-05 1.944331e-05 0 4.2268211e-05 0 0)
(6.9302036e-05 1.9107225e-05 0 3.5684614e-05 0 0)
(5.9068628e-05 1.8720454e-05 0 3.1321424e-05 0 0)
(5.0536096e-05 1.7497219e-05 0 2.8552759e-05 0 0)
(4.3292922e-05 1.596024e-05 0 2.6308329e-05 0 0)
(3.700125e-05 1.4081385e-05 0 2.4264069e-05 0 0)
(3.1559515e-05 1.205612e-05 0 2.2164811e-05 0 0)
(2.6795935e-05 9.9653322e-06 0 1.9957464e-05 0 0)
(2.2680968e-05 7.948321e-06 0 1.7522046e-05 0 0)
(1.9120267e-05 6.1189385e-06 0 1.4949716e-05 0 0)
(1.6064805e-05 4.5722644e-06 0 1.2299456e-05 0 0)
(1.3437987e-05 3.3191508e-06 0 9.7392702e-06 0 0)
(1.1195439e-05 2.3733318e-06 0 7.3803653e-06 0 0)
(9.2897466e-06 1.6755268e-06 0 5.3307353e-06 0 0)
(7.6888734e-06 1.1844584e-06 0 3.6380488e-06 0 0)
(6.367097e-06 8.3196466e-07 0 2.3123179e-06 0 0)
(5.3087316e-06 5.7438627e-07 0 1.3292239e-06 0 0)
(4.4987585e-06 3.7362923e-07 0 6.4806439e-07 0 0)
(3.9289585e-06 2.0774802e-07 0 2.2484413e-07 0 0)
(3.5965271e-06 6.4331226e-08 0 2.4022333e-08 0 0)
(0.00061442641 -7.652939e-05 -3.3576302e-27 6.2223848e-05 4.5474698e-26 7.5827124e-47)
(0.00043108246 -0.00010098596 0 0.00011044684 0 0)
(0.00030656308 -0.00010047726 0 0.00013814988 0 0)
(0.00023556606 -8.5961507e-05 0 0.00016107747 0 0)
(0.00020772684 -6.9853595e-05 0 0.00017431797 0 0)
(0.00021074989 -2.8991826e-05 0 0.00017207859 0 0)
(0.00021181613 -1.2996504e-05 0 0.00015594185 0 0)
(0.00019269727 3.8893722e-06 0 0.00013235292 0 0)
(0.00016268027 8.9191207e-06 0 0.00010349101 0 0)
(0.00012977959 1.700891e-05 0 7.7725701e-05 0 0)
(0.00010266862 1.8614919e-05 0 6.0230969e-05 0 0)
(8.3318629e-05 1.9718833e-05 0 4.7386314e-05 0 0)
(6.8958533e-05 1.9390139e-05 0 3.9461757e-05 0 0)
(5.771258e-05 1.881478e-05 0 3.432551e-05 0 0)
(4.8662854e-05 1.7254382e-05 0 3.0791501e-05 0 0)
(4.1299363e-05 1.5494607e-05 0 2.8041316e-05 0 0)
(3.5158075e-05 1.3424442e-05 0 2.5595344e-05 0 0)
(2.9956945e-05 1.1259256e-05 0 2.3265942e-05 0 0)
(2.5511752e-05 9.0888255e-06 0 2.0754582e-05 0 0)
(2.1676037e-05 7.0616518e-06 0 1.8073942e-05 0 0)
(1.8374832e-05 5.3060915e-06 0 1.5228946e-05 0 0)
(1.55154e-05 3.8582257e-06 0 1.2392079e-05 0 0)
(1.304437e-05 2.7517805e-06 0 9.6868571e-06 0 0)
(1.0911854e-05 1.9335832e-06 0 7.2581032e-06 0 0)
(9.0799554e-06 1.3667659e-06 0 5.1851724e-06 0 0)
(7.526874e-06 9.7188739e-07 0 3.5056963e-06 0 0)
(6.2364148e-06 6.9764287e-07 0 2.2109839e-06 0 0)
(5.1977349e-06 4.9255996e-07 0 1.2630911e-06 0 0)
(4.4028326e-06 3.2814526e-07 0 6.1294908e-07 0 0)
(3.8449141e-06 1.8624771e-07 0 2.1190718e-07 0 0)
(3.5224594e-06 5.8681668e-08 0 2.2579115e-08 0 0)
(0.00094942142 -8.9557752e-05 -1.4991843e-26 7.129064e-05 -6.8512615e-26 2.2848722e-46)
(0.00067431703 -0.00012761266 3.3027096e-26 0.00013334786 1.7542936e-27 8.2814143e-47)
(0.0004714875 -0.00013192081 0 0.00017009753 0 0)
(0.00035177201 -0.0001279908 0 0.00020687538 0 0)
(0.0002929899 -0.00011289176 0 0.00023424249 0 0)
(0.00027649126 -8.5648183e-05 0 0.00024078095 0 0)
(0.00027352422 -2.745221e-05 0 0.00023087505 0 0)
(0.00025335899 -1.5953831e-05 0 0.00020070213 0 0)
(0.00021981101 2.4776055e-06 0 0.00015849488 0 0)
(0.00017553723 1.0879761e-05 0 0.00012033494 0 0)
(0.00013544436 1.7580802e-05 0 8.9469397e-05 0 0)
(0.00010607895 1.8680951e-05 0 6.7927608e-05 0 0)
(8.4604196e-05 2.0092438e-05 0 5.2622899e-05 0 0)
(6.8273315e-05 1.9652416e-05 0 4.3406056e-05 0 0)
(5.5984025e-05 1.859946e-05 0 3.7117102e-05 0 0)
(4.6615695e-05 1.6807237e-05 0 3.2803904e-05 0 0)
(3.9310278e-05 1.4834978e-05 0 2.9575616e-05 0 0)
(3.3408033e-05 1.2600197e-05 0 2.690804e-05 0 0)
(2.8550749e-05 1.0309057e-05 0 2.4277063e-05 0 0)
(2.4416042e-05 8.0934112e-06 0 2.1507328e-05 0 0)
(2.0872943e-05 6.1182138e-06 0 1.850812e-05 0 0)
(1.7792151e-05 4.4542698e-06 0 1.5426908e-05 0 0)
(1.5107643e-05 3.1608225e-06 0 1.2388132e-05 0 0)
(1.2762402e-05 2.1969326e-06 0 9.5703584e-06 0 0)
(1.0710396e-05 1.5342448e-06 0 7.0866631e-06 0 0)
(8.9319179e-06 1.0852555e-06 0 5.0108928e-06 0 0)
(7.4076851e-06 7.9078297e-07 0 3.3585285e-06 0 0)
(6.1343649e-06 5.8363616e-07 0 2.1029878e-06 0 0)
(5.1075598e-06 4.2593981e-07 0 1.1951244e-06 0 0)
(4.3217344e-06 2.9187015e-07 0 5.7770064e-07 0 0)
(3.7719748e-06 1.6951726e-07 0 1.9915157e-07 0 0)
(3.4569077e-06 5.4422723e-08 0 2.1175538e-08 0 0)
(0.0014109528 -9.3180574e-05 2.584878e-26 8.1036833e-05 7.4363113e-26 2.3014947e-46)
(0.0010046851 -0.00015184304 -3.0586807e-26 0.00016103893 -2.6477242e-27 5.2442984e-46)
(0.00071949313 -0.00016793349 0 0.00021084798 0 0)
(0.00052062809 -0.00016508509 0 0.00025672457 0 0)
(0.00041675963 -0.00016737177 0 0.00030501711 0 0)
(0.00037285171 -0.00014130197 0 0.00032695629 0 0)
(0.00035902955 -9.1904069e-05 0 0.00032819701 0 0)
(0.00033905734 -2.9715704e-05 0 0.00030149458 0 0)
(0.00030065612 -2.0094649e-05 0 0.00024475398 0 0)
(0.00024615144 3.5253541e-06 0 0.00018599895 0 0)
(0.00018824502 1.1478679e-05 0 0.00014003389 0 0)
(0.00014363796 1.71387e-05 0 0.00010166475 0 0)
(0.00011037603 1.9199304e-05 0 7.5646695e-05 0 0)
(8.52134e-05 2.0588485e-05 0 5.8138162e-05 0 0)
(6.6933924e-05 1.9494265e-05 0 4.7070478e-05 0 0)
(5.3975119e-05 1.8136563e-05 0 3.9501271e-05 0 0)
(4.4502347e-05 1.6170329e-05 0 3.4538545e-05 0 0)
(3.7394374e-05 1.4000157e-05 0 3.1104302e-05 0 0)
(3.1868118e-05 1.1587941e-05 0 2.8159511e-05 0 0)
(2.7360289e-05 9.2087096e-06 0 2.5269397e-05 0 0)
(2.3556286e-05 7.0135522e-06 0 2.2141286e-05 0 0)
(2.025944e-05 5.1162859e-06 0 1.8853415e-05 0 0)
(1.7375463e-05 3.6091524e-06 0 1.5505729e-05 0 0)
(1.4833845e-05 2.4707135e-06 0 1.2301788e-05 0 0)
(1.2577802e-05 1.6869011e-06 0 9.3850422e-06 0 0)
(1.0586113e-05 1.1665006e-06 0 6.8724888e-06 0 0)
(8.832757e-06 8.4464302e-07 0 4.812576e-06 0 0)
(7.3232386e-06 6.363378e-07 0 3.1992265e-06 0 0)
(6.0559197e-06 4.9196423e-07 0 1.9912813e-06 0 0)
(5.0331887e-06 3.7340802e-07 0 1.1265031e-06 0 0)
(4.2520343e-06 2.6413255e-07 0 5.4285045e-07 0 0)
(3.7074965e-06 1.5711505e-07 0 1.8675436e-07 0 0)
(3.3978578e-06 5.141334e-08 0 1.9823156e-08 0 0)
(0.0020040681 -9.4737769e-05 0 9.1687233e-05 0 0)
(0.0014573535 -0.00016643932 -2.1873489e-26 0.00019325393 1.894261e-26 5.2576968e-46)
(0.0010473194 -0.00019864085 0 0.00025615251 0 0)
(0.00076991969 -0.00020946077 0 0.00032224712 0 0)
(0.00058943995 -0.00021200671 0 0.00037975999 0 0)
(0.00050383615 -0.00021210168 0 0.00042930186 0 0)
(0.00046393058 -0.0001626052 0 0.00045097776 0 0)
(0.00044984017 -0.00010246587 0 0.00043822111 0 0)
(0.00041576948 -3.5513879e-05 0 0.00037028129 0 0)
(0.0003483734 -1.9937989e-05 0 0.00029171705 0 0)
(0.00027138537 2.5024613e-06 0 0.0002183979 0 0)
(0.00020488056 1.0368625e-05 0 0.0001598955 0 0)
(0.0001532665 1.7841184e-05 0 0.00011362044 0 0)
(0.0001133902 2.0135737e-05 0 8.3897098e-05 0 0)
(8.4705611e-05 2.0448774e-05 0 6.3296705e-05 0 0)
(6.5182469e-05 1.9006568e-05 0 5.0003167e-05 0 0)
(5.180503e-05 1.7523846e-05 0 4.146651e-05 0 0)
(4.2416503e-05 1.5364359e-05 0 3.6284531e-05 0 0)
(3.5701219e-05 1.2939386e-05 0 3.2622163e-05 0 0)
(3.0585941e-05 1.0390664e-05 0 2.9432136e-05 0 0)