/*--------------------------------*- C++ -*----------------------------------*\
| =========                 |                                                 |
| \\      /  F ield         | OpenFOAM: The Open Source CFD Toolbox           |
|  \\    /   O peration     | Version:  5.0                                   |
|   \\  /    A nd           | Web:      www.OpenFOAM.org                      |
|    \\/     M anipulation  |                                                 |
\*---------------------------------------------------------------------------*/
FoamFile
{
    version     2.0;
    format      ascii;
    class       volScalarField;
    location    "80";
    object      ddt0(nuTilda);
}
// * * * * * * * * * * * * * * * * * * * * * * * * * * * * * * * * * * * * * //

dimensions      [0 2 -2 0 0 0 0];

internalField   nonuniform List<scalar> 
9520
(
-3.5296959e-34
-3.535055e-32
-2.9048722e-34
-1.7448936e-30
-2.9503722e-32
-2.6190968e-34
-5.6266716e-29
-1.4802063e-30
-2.7385062e-32
-2.7357331e-34
-1.3336839e-27
-4.8685695e-29
-1.4146109e-30
-2.9509444e-32
-3.2294192e-34
-2.4798891e-26
-1.1791055e-27
-4.7936478e-29
-1.5648209e-30
-3.5267088e-32
-3.9186973e-34
-3.7813673e-25
-2.2430593e-26
-1.193611e-27
-5.418611e-29
-1.881003e-30
-4.2356509e-32
-4.4745995e-34
-4.8611895e-24
-3.5013711e-25
-2.3272732e-26
-1.3705992e-27
-6.5135624e-29
-2.2261723e-30
-4.7115779e-32
-4.5278379e-34
-5.3903309e-23
-4.6028627e-24
-3.7065872e-25
-2.6982314e-26
-1.6387512e-27
-7.5656427e-29
-2.4059896e-30
-4.5872523e-32
-3.8444071e-34
-5.2392162e-22
-5.2044487e-23
-4.9432487e-24
-4.3099707e-25
-3.1930546e-26
-1.8617831e-27
-7.9215726e-29
-2.2483844e-30
-3.68638e-32
-2.49234e-34
-4.530528e-21
-5.1383474e-22
-5.6291038e-23
-5.728205e-24
-5.022434e-25
-3.5368409e-26
-1.8835006e-27
-7.0824382e-29
-1.7033751e-30
-2.1824223e-32
-9.0997048e-35
-3.5292263e-20
-4.4957977e-21
-5.5583992e-22
-6.4599302e-23
-6.5459061e-24
-5.4049786e-25
-3.4468135e-26
-1.6052223e-27
-5.0313368e-29
-9.1314833e-31
-6.3241614e-33
1.8015682e-35
-2.4974097e-19
-3.5199852e-20
-4.8193823e-21
-6.2756759e-22
-7.2116217e-23
-6.824211e-24
-5.0551756e-25
-2.786871e-26
-1.0619468e-27
-2.4189471e-29
-2.0800808e-31
1.5895647e-33
1.1149493e-37
-1.6139399e-18
-2.4814092e-19
-3.6959863e-20
-5.3062984e-21
-6.8147075e-22
-7.262794e-23
-6.1008784e-24
-3.8522549e-25
-1.7008502e-26
-4.5362593e-28
-4.735229e-30
-1.3667294e-32
-5.8612932e-33
-1.9834845e-34
-9.5616402e-18
-1.5851338e-18
-2.521549e-19
-3.9333641e-20
-5.5834703e-21
-6.6119831e-22
-6.1775106e-23
-4.343499e-24
-2.1391429e-25
-6.4183718e-27
-1.039064e-28
-6.1888797e-30
-6.9653757e-31
-3.3052779e-32
-5.8249157e-34
-5.2107467e-17
-9.2148014e-18
-1.5356805e-18
-2.5681139e-19
-3.9981125e-20
-5.2105708e-21
-5.3223564e-22
-4.0588427e-23
-2.1477588e-24
-7.1674736e-26
-2.5686445e-27
-3.5085853e-28
-3.9250587e-29
-2.4060651e-30
-7.8706847e-32
-1.0997956e-33
-2.6396656e-16
-4.9013039e-17
-8.3804549e-18
-1.4790505e-18
-2.513906e-19
-3.5876674e-20
-3.9488954e-21
-3.1712062e-22
-1.7227626e-23
-6.6074204e-25
-6.1011518e-26
-1.1525897e-26
-1.4084998e-27
-1.0610427e-28
-4.9803507e-30
-1.3551088e-31
-1.650843e-33
-1.2442479e-15
-2.39977e-16
-4.1118167e-17
-7.5210654e-18
-1.3933951e-18
-2.1775224e-19
-2.5512682e-20
-2.0810345e-21
-1.0761709e-22
-5.3698542e-24
-1.2091014e-24
-2.6729184e-25
-3.6306558e-26
-3.2565188e-27
-1.9812701e-28
-7.9590216e-30
-1.9188128e-31
-2.1168747e-33
-5.4700753e-15
-1.0826721e-15
-1.8076179e-16
-3.3211292e-17
-6.8143851e-18
-1.1787332e-18
-1.4569317e-19
-1.1492682e-20
-4.7600273e-22
-4.2128057e-23
-1.9369627e-23
-4.7551236e-24
-7.1879758e-25
-7.5067171e-26
-5.6084193e-27
-2.9745508e-28
-1.0705277e-29
-2.3530667e-31
-2.3946988e-33
-1.9854914e-14
-4.2495413e-15
-6.9989872e-16
-1.2391924e-16
-2.8839222e-17
-5.7489151e-18
-7.5041024e-19
-5.3785253e-20
-8.2828881e-22
-3.4155822e-22
-2.530757e-22
-6.7992001e-23
-1.1407715e-23
-1.3642578e-24
-1.2099995e-25
-7.9778148e-27
-3.8203422e-28
-1.2595928e-29
-2.5610763e-31
-2.4270736e-33
2.6833623e-13
-9.6263392e-15
-1.7594864e-15
-3.4343496e-16
-1.0125746e-16
-2.5448217e-17
-3.608581e-18
-2.1401704e-19
9.7856492e-21
-2.6694999e-21
-2.7323192e-21
-8.04746e-22
-1.4946906e-22
-2.0214408e-23
-2.0794447e-24
-1.6411741e-25
-9.8227087e-27
-4.3239361e-28
-1.321259e-29
-2.5033361e-31
-2.218926e-33
2.5880041e-11
7.3774429e-13
1.0317752e-14
3.5195579e-16
-2.5193464e-16
-1.0101916e-16
-1.6693873e-17
-7.3417048e-19
1.5285392e-19
-1.5019848e-20
-2.4211358e-20
-7.9872197e-21
-1.6500088e-21
-2.5022521e-22
-2.9356554e-23
-2.7024502e-24
-1.9433091e-25
-1.0716281e-26
-4.3774022e-28
-1.246906e-29
-2.2089313e-31
-1.8352651e-33
1.0569816e-09
5.6901874e-11
1.6178801e-12
3.2657063e-14
5.4833136e-16
-3.6565105e-16
-7.5158612e-17
-1.9393829e-18
1.5290526e-18
1.2423642e-21
-1.7088551e-19
-6.5745587e-20
-1.5330209e-20
-2.6180731e-21
-3.4825891e-22
-3.6697641e-23
-3.0852974e-24
-2.0470855e-25
-1.0483369e-26
-3.9931301e-28
-1.0636273e-29
-1.7668071e-31
-1.3829317e-33
2.4951983e-08
2.2700131e-09
1.1348152e-10
3.0378296e-12
5.1800987e-14
-8.8240124e-16
-3.3938002e-16
1.1110931e-18
1.3473887e-17
1.3131372e-18
-9.0884588e-19
-4.4619731e-19
-1.1669703e-19
-2.2878985e-20
-3.4763883e-21
-4.2008676e-22
-4.0483635e-23
-3.1428604e-24
-1.9374649e-25
-9.2565802e-27
-3.3003041e-28
-8.2638941e-30
-1.3012624e-31
-9.8288011e-34
3.5922503e-07
5.3117665e-08
4.4203867e-09
2.0561501e-10
4.9710525e-12
7.5704251e-14
-9.3808111e-16
8.8476016e-17
1.1077219e-16
2.004737e-17
-2.7636123e-18
-2.4790518e-18
-7.6888072e-19
-1.7575988e-19
-3.0021855e-20
-4.0716614e-21
-4.4862139e-22
-3.9934741e-23
-2.8814364e-24
-1.6588516e-25
-7.4378756e-27
-2.5079189e-28
-6.0302369e-30
-9.4000572e-32
-7.4124004e-34
3.1620423e-06
7.7516159e-07
1.0157598e-07
7.8593235e-09
3.4876446e-10
6.9434611e-12
1.4820728e-13
6.3584696e-15
9.4315844e-16
2.0607661e-16
9.1050421e-18
-9.8937203e-18
-4.3607187e-18
-1.1952861e-18
-2.2899678e-19
-3.4413422e-20
-4.2366944e-21
-4.2908165e-22
-3.5518959e-23
-2.3979162e-24
-1.3021987e-25
-5.5838909e-27
-1.8479696e-28
-4.5689558e-30
-7.8384688e-32
-7.2629673e-34
1.5818134e-05
7.3546431e-06
1.4672329e-06
1.7683414e-07
1.3021591e-08
3.6303073e-10
7.2623978e-12
6.2549909e-13
2.7424486e-14
2.1385654e-15
2.3180958e-16
-1.5487411e-17
-2.0861278e-17
-7.2582978e-18
-1.5632839e-18
-2.5746031e-19
-3.4853975e-20
-3.9525623e-21
-3.7085652e-22
-2.882519e-23
-1.8514816e-24
-9.7905245e-26
-4.2548838e-27
-1.5164005e-28
-4.3197191e-30
-8.8515025e-32
-9.5584647e-34
1.5432194e-05
4.3625058e-05
1.3983748e-05
2.4989042e-06
2.8189373e-07
1.1175229e-08
1.7721738e-10
3.3676624e-11
1.9977849e-12
8.1336085e-14
3.7807034e-15
1.9738378e-16
-7.8637293e-17
-3.9858989e-17
-9.6889831e-18
-1.7292415e-18
-2.5371382e-19
-3.1579453e-20
-3.3374873e-21
-2.947842e-22
-2.2093965e-23
-1.4180222e-24
-7.9127047e-26
-3.8724349e-27
-1.6272934e-28
-5.4363672e-30
-1.2389161e-31
-1.3963895e-33
-0.00011675445
0.00011103009
8.5358017e-05
2.3160716e-05
3.8057384e-06
2.1090598e-07
1.2820908e-09
1.0619123e-09
1.0286846e-10
5.7668748e-12
2.2126999e-13
7.1328877e-15
-1.2435104e-16
-1.9934184e-16
-5.5508074e-17
-1.0593386e-17
-1.6552582e-18
-2.2293061e-19
-2.6050755e-20
-2.6142843e-21
-2.2694346e-22
-1.7573188e-23
-1.2423041e-24
-8.0518984e-26
-4.6219082e-27
-2.1900512e-28
-7.7672131e-30
-1.7870305e-31
-1.9730307e-33
-0.00028986825
6.692406e-05
0.00026549958
0.00013363252
3.2736151e-05
2.529393e-06
-3.3712082e-08
1.9706704e-08
3.28894e-09
2.8083029e-10
1.5631804e-11
5.8995443e-13
1.0874311e-14
-8.6630576e-16
-2.9856814e-16
-6.0231894e-17
-9.8258794e-18
-1.4050885e-18
-1.7912845e-19
-2.0395387e-20
-2.0510936e-21
-1.9110414e-22
-1.6905752e-23
-1.4013373e-24
-1.0365432e-25
-6.41915e-27
-3.1124242e-28
-1.0904274e-29
-2.4334111e-31
-2.5870134e-33
-0.00043486509
-3.8565609e-05
0.00039930678
0.00039845114
0.00016445502
1.9451137e-05
-9.5267239e-07
2.0473026e-07
6.5910278e-08
8.5467264e-09
7.172566e-10
4.0391181e-11
1.1387702e-12
5.5402703e-15
-1.5221145e-15
-3.2302485e-16
-5.3839699e-17
-8.008786e-18
-1.0971769e-18
-1.393285e-19
-1.6577785e-20
-1.8584195e-21
-2.0225096e-22
-2.0716279e-23
-1.8874836e-24
-1.448839e-25
-8.9426928e-27
-4.2260912e-28
-1.4283725e-29
-3.0657447e-31
-3.1365257e-33
-0.00055270182
-0.00013331319
0.00041725874
0.00062825134
0.00041448096
8.1764363e-05
-1.0246781e-05
9.391178e-07
8.3629467e-07
1.646284e-07
2.0533575e-08
1.7349254e-09
7.3415864e-11
9.0835875e-13
-6.2977288e-15
-1.6630743e-15
-2.7584687e-16
-4.1694187e-17
-6.0361011e-18
-8.5227773e-19
-1.195767e-19
-1.6313836e-20
-2.1443755e-21
-2.6286134e-22
-2.8486462e-23
-2.6137641e-24
-1.9642791e-25
-1.1717563e-26
-5.3267794e-28
-1.7310374e-29
-3.5784162e-31
-3.5358839e-33
-0.0006396226
-0.00022614293
0.000377091
0.00070190771
0.00055442451
0.00013170988
-6.0451113e-05
-2.2966834e-06
6.7789503e-06
2.0377115e-06
3.7253014e-07
4.6377531e-08
2.9171361e-09
5.4045793e-11
9.4166698e-15
-9.3954746e-15
-1.3380159e-15
-2.0017916e-16
-3.0013544e-17
-4.6674641e-18
-7.7217588e-19
-1.3000209e-19
-2.0200694e-20
-2.8885341e-21
-3.6264848e-22
-3.8727097e-23
-3.4379598e-24
-2.4834077e-25
-1.4225934e-26
-6.2183062e-28
-1.9475464e-29
-3.8913483e-31
-3.7287275e-33
-0.00069620005
-0.00030377816
0.00030510525
0.00067779087
0.00054493512
4.4772022e-05
-0.00021721289
-4.9167913e-05
3.4370052e-05
1.6501388e-05
4.3506426e-06
7.8397608e-07
7.20976e-08
1.9339003e-09
-2.7809157e-12
-2.044569e-13
-6.2956745e-15
-8.7779536e-16
-1.3724269e-16
-2.2691761e-17
-4.4838501e-18
-9.1337687e-19
-1.6966976e-19
-2.7690101e-20
-3.950791e-21
-4.8159995e-22
-4.9375607e-23
-4.19777e-24
-2.9078486e-25
-1.6015734e-26
-6.7497644e-28
-2.0441037e-29
-3.9609156e-31
-3.6894756e-33
-0.00072215268
-0.00036141893
0.00022013789
0.0006113095
0.00045649132
-9.9568487e-05
-0.0004581399
-0.00021692931
9.6203837e-05
8.7143502e-05
3.3213228e-05
8.4913233e-06
1.1216844e-06
4.2571502e-08
-3.1565347e-10
-1.3443876e-11
-6.0969267e-14
-3.6449637e-15
-5.4980751e-16
-9.5792591e-17
-2.3130285e-17
-5.7840674e-18
-1.2644219e-18
-2.3351394e-19
-3.7280502e-20
-5.1109196e-21
-5.9520216e-22
-5.8296575e-23
-4.7470711e-24
-3.1602174e-25
-1.6781112e-26
-6.8377636e-28
-2.0074883e-29
-3.7793306e-31
-3.4298161e-33
-0.00071994279
-0.00039911286
0.00013327414
0.00050722213
0.00032769453
-0.00023643346
-0.00066751613
-0.0004582338
0.00012531748
0.00028217659
0.00016419301
5.9296401e-05
1.1072539e-05
5.7922506e-07
-1.3009707e-08
-6.4192517e-10
-2.934638e-12
-1.7914253e-14
-1.8929502e-15
-3.3228216e-16
-1.0298721e-16
-3.2727642e-17
-8.3595853e-18
-1.744918e-18
-3.0815093e-19
-4.693074e-20
-6.1250929e-21
-6.8027508e-22
-6.3745192e-23
-4.9839527e-24
-3.1965318e-25
-1.6398628e-26
-6.4705057e-28
-1.8435727e-29
-3.3734495e-31
-2.983558e-33
-0.00069724581
-0.00041975567
4.6215209e-05
0.000364722
0.000175908
-0.00035687486
-0.00081014475
-0.00065488181
7.2266407e-05
0.00054740666
0.00049551887
0.00025920398
6.8764242e-05
4.8225226e-06
-2.8755122e-07
-1.9140007e-08
-1.4540014e-10
-4.3064358e-13
-5.2719801e-15
-7.7551903e-16
-3.6740199e-16
-1.6397232e-16
-4.9591998e-17
-1.1588093e-17
-2.2520784e-18
-3.7733534e-19
-5.4575639e-20
-6.7825542e-21
-7.1980605e-22
-6.4676789e-23
-4.864345e-24
-3.0090434e-25
-1.4916918e-26
-5.6958973e-28
-1.5724599e-29
-2.7895323e-31
-2.3971039e-33
-0.00066650527
-0.00043370393
-4.0928587e-05
0.0002141216
2.4098092e-05
-0.00045938973
-0.00090455402
-0.00079459284
-2.6622471e-06
0.0007288848
0.00091194755
0.00066856796
0.00025551322
2.3300898e-05
-3.7738536e-06
-3.5995045e-07
-4.6990614e-09
-2.2830734e-11
-1.8184651e-14
1.2597867e-15
-7.7574737e-16
-7.1299981e-16
-2.64351e-16
-6.919226e-17
-1.4679499e-17
-2.6828354e-18
-4.2598932e-19
-5.8590706e-20
-6.9470761e-21
-7.0560525e-22
-6.0841648e-23
-4.3999815e-24
-2.6204367e-25
-1.2510956e-26
-4.5997219e-28
-1.2208075e-29
-2.0813732e-31
-1.718821e-33
-0.00063612392
-0.00045178813
-0.00013072973
5.9404253e-05
-0.000119065
-0.00053713677
-0.00095695361
-0.0008891969
-8.4242869e-05
0.000803363
0.0011827139
0.0010584502
0.00052545301
5.1106216e-05
-3.0529888e-05
-4.3289928e-06
-9.7462425e-08
-8.3034692e-10
-2.5381648e-14
1.3567412e-13
4.6915335e-15
-2.5300285e-15
-1.2702784e-15
-3.7390232e-16
-8.6199138e-17
-1.7019124e-17
-2.9414369e-18
-4.4344874e-19
-5.8085076e-20
-6.5738235e-21
-6.38396e-22
-5.2677012e-23
-3.6442607e-24
-2.0727621e-25
-9.4205494e-27
-3.2814894e-28
-8.1787833e-30
-1.30017e-31
-9.9192635e-34
-0.00063697365
-0.00048315945
-0.00022515351
-9.7463508e-05
-0.00024856036
-0.00057987323
-0.00097020204
-0.00093471987
-0.00017301253
0.00079749123
0.0012795008
0.0011909465
0.00060408591
-2.0202986e-05
-0.00015397476
-3.3334887e-05
-1.3087783e-06
-1.8949491e-08
4.2127041e-11
1.0394776e-11
4.3399914e-13
-8.0241508e-20
-5.4483163e-15
-1.8518449e-15
-4.6042702e-16
-9.7097228e-17
-1.8124271e-17
-2.9684024e-18
-4.2513531e-19
-5.2964926e-20
-5.7010721e-21
-5.2580193e-22
-4.1068746e-23
-2.6726365e-24
-1.4154336e-25
-5.8940945e-27
-1.8300455e-28
-3.8921708e-30
-4.8909249e-32
-2.5140963e-34
-0.00052966692
-0.00062806288
-0.00032498928
-0.00025342642
-0.00036429236
-0.00058963561
-0.00093378986
-0.00094661119
-0.0002459214
0.00072107454
0.0012719767
0.0011452916
0.0004663383
-0.00028530145
-0.00047778762
-0.00016111711
-1.1533593e-05
-2.7200125e-07
2.6247424e-09
5.5041558e-10
3.3540605e-11
8.7726966e-13
-1.3224055e-14
-8.4303123e-15
-2.2674562e-15
-5.0252161e-16
-1.0042827e-16
-1.7717449e-17
-2.747638e-18
-3.7241507e-19
-4.3791542e-20
-4.4243367e-21
-3.7928586e-22
-2.7083075e-23
-1.5645298e-24
-6.9593895e-26
-2.1539584e-27
-3.3011864e-29
4.4389207e-31
3.1770763e-32
4.755994e-34
-0.00042870578
-0.00058186693
-0.00058870358
-0.00040288535
-0.00046336218
-0.00057697616
-0.00086546142
-0.00096608717
-0.00030724677
0.00061687718
0.0011769676
0.0010168938
0.00028567362
-0.00057557847
-0.00093427165
-0.00048625895
-6.6075414e-05
-2.4861201e-06
7.5532577e-08
1.8040866e-08
1.6617178e-09
7.0291541e-11
9.789444e-13
-3.1996249e-14
-1.0364649e-14
-2.4049475e-15
-5.0435165e-16
-9.4969022e-17
-1.5791539e-17
-2.301408e-18
-2.9105735e-19
-3.1521988e-20
-2.8649142e-21
-2.1122976e-22
-1.1757129e-23
-3.9171591e-25
4.4893005e-27
1.6139184e-27
1.1525309e-28
4.6626988e-30
1.0928236e-31
1.1670215e-33
-0.00053941494
-0.00053213497
-0.00063990205
-0.00051797387
-0.0005418266
-0.00053310732
-0.00076991718
-0.0009590287
-0.00036912328
0.00049762375
0.0010455965
0.00088331718
0.00013240031
-0.00075622114
-0.0013012213
-0.00094675683
-0.00023594754
-1.4287467e-05
1.2226532e-06
3.6677937e-07
5.0420055e-08
3.3309211e-09
8.0663627e-11
3.5855118e-13
-4.4321785e-14
-1.0772789e-14
-2.3118582e-15
-4.6035934e-16
-8.1181462e-17
-1.2555189e-17
-1.6773566e-18
-1.8910199e-19
-1.724317e-20
-1.1442136e-21
-3.3031685e-23
4.0038277e-24
7.8513798e-25
7.732138e-26
5.2624142e-27
2.5622467e-28
8.6199271e-30
1.8117886e-31
1.8025625e-33
-0.00058651174
-0.00065305828
-0.0006293366
-0.00065126295
-0.00042423498
-0.00047405359
-0.00066012791
-0.00091683305
-0.00042756147
0.00037364897
0.00089188695
0.00073366471
4.5105212e-05
-0.00080928912
-0.0014920125
-0.0013379471
-0.00051655747
-4.7086245e-05
1.2000838e-05
4.6960712e-06
9.4472066e-07
9.5410422e-08
3.6581811e-09
3.6113105e-11
-1.693908e-13
-4.5055449e-14
-9.7832251e-15
-2.0301283e-15
-3.7519036e-16
-6.0591165e-17
-8.342351e-18
-9.3374287e-19
-7.4982142e-20
-1.9878738e-21
6.2941964e-22
1.4547113e-22
1.9423672e-23
1.9132925e-24
1.4592935e-25
8.6393548e-27
3.8460692e-28
1.2173387e-29
2.4497862e-31
2.3611951e-33
-0.00041167993
-0.00060093529
-0.00073935248
-0.00071187546
-0.00062688934
-0.00031065552
-0.00053696515
-0.00083525273
-0.00047328019
0.00024851876
0.00072710452
0.00057626574
-3.251073e-05
-0.00077749004
-0.0015018564
-0.0015711114
-0.00076046627
-6.9473861e-05
7.4502846e-05
3.8382995e-05
1.1074097e-05
1.672445e-06
9.8848721e-08
1.5280225e-09
-1.7485613e-12
-2.0715543e-13
-3.8722618e-14
-8.1920922e-15
-1.5644628e-15
-2.5830458e-16
-3.524552e-17
-3.5251686e-18
-1.2834446e-19
4.3533922e-20
1.3329646e-20
2.3609168e-21
3.15502e-22
3.3786054e-23
2.9417721e-24
2.0732876e-25
1.1595519e-26
4.9480267e-28
1.5170447e-29
2.9799998e-31
2.8201621e-33
-0.00040398172
-0.00034443986
-0.00060124731
-0.00081962569
-0.00079423565
-0.00055706873
-0.00018293561
-0.0007371595
-0.00050071414
0.00012998757
0.00055883797
0.0004166819
-0.00010247229
-0.00071163473
-0.0014059745
-0.0016687049
-0.00089432408
-3.3883718e-06
0.00029155178
0.00020127185
8.1890681e-05
1.8108489e-05
1.6133015e-06
3.6831837e-08
-1.7908074e-10
-3.9507802e-12
-1.4728288e-13
-3.0523589e-14
-5.8999274e-15
-9.6607081e-16
-1.2092029e-16
-7.2730603e-18
1.5407051e-18
6.8619594e-19
1.5947296e-19
2.7876612e-20
3.9604023e-21
4.6837189e-22
4.6352496e-23
3.8165418e-24
2.5825129e-25
1.3969174e-26
5.807666e-28
1.7447978e-29
3.3741639e-31
3.1559217e-33
-0.0006162456
-0.00026314943
-0.00027114922
-0.00058614772
-0.0008639828
-0.00082091221
-0.00044886464
-4.8016995e-05
-0.00050847032
2.3014e-05
0.00039267698
0.00025662368
-0.0001699665
-0.00062950992
-0.0012515672
-0.0016894526
-0.0010195052
0.00013231158
0.00069712648
0.00066276361
0.00037910593
0.00012122607
1.5981158e-05
5.0762122e-07
-9.4045945e-09
-2.18296e-10
-8.5717453e-13
-1.0642601e-13
-2.0170079e-14
-3.1122777e-15
-2.9055084e-16
2.5895266e-17
2.1332469e-17
6.528853e-18
1.4610885e-18
2.6615557e-19
4.0818746e-20
5.3338845e-21
5.94717e-22
5.6316576e-23
4.480111e-24
2.9500875e-25
1.5591723e-26
6.3636402e-28
1.8845067e-29
3.605207e-31
3.3464922e-33
-0.00049718049
-0.00047775346
-0.00011743443
-0.00019324871
-0.00056585398
-0.00087085788
-0.00078916535
-0.00031571814
8.697141e-05
-7.2103893e-05
0.00023194845
9.5831984e-05
-0.00023892594
-0.0005455745
-0.0010613248
-0.001632862
-0.0011265985
0.00017390787
0.0011147286
0.001346793
0.0010619434
0.00048948047
9.5018406e-05
3.832313e-06
-2.539739e-07
-8.34399e-09
-3.0126073e-11
-3.7075701e-13
-6.2770348e-14
-8.2520102e-15
-7.871309e-17
4.0943631e-16
1.7184132e-16
4.8701382e-17
1.1123986e-17
2.1471809e-18
3.5657771e-19
5.1257041e-20
6.3792199e-21
6.8446282e-22
6.282516e-23
4.8755801e-24
3.1414326e-25
1.6306367e-26
6.5614657e-28
1.9225233e-29
3.6511319e-31
3.3747378e-33
-0.00015651923
-0.00047397637
-0.00032524502
3.1218594e-05
-0.00011318614
-0.00054956788
-0.00088470073
-0.00071908626
-0.00016794839
0.00021493346
7.6970029e-05
-6.57552e-05
-0.00031117161
-0.00046824363
-0.00085728334
-0.0015050778
-0.0012019755
0.00014305371
0.0013802266
0.0018697152
0.0017931806
0.0011345659
0.00032152625
1.2752628e-05
-3.8778914e-06
-1.9345719e-07
-1.340088e-09
-3.3438577e-12
-1.8005119e-13
-1.5540309e-14
4.2693949e-15
2.9697794e-15
1.0846151e-15
3.0695585e-16
7.2951303e-17
1.4996111e-17
2.6916874e-18
4.2317582e-19
5.8234583e-20
6.9911022e-21
7.2769858e-22
6.5076902e-23
4.948005e-24
3.1283693e-25
1.599495e-26
6.3634131e-28
1.850204e-29
3.4992546e-31
3.2316421e-33
-7.368218e-05
-0.00023280174
-0.00044621122
-0.00016149054
0.00017972543
-2.8240466e-05
-0.00053547095
-0.00086750134
-0.00061548356
-1.4284117e-05
0.00030136468
-0.00022772379
-0.00038385867
-0.00039523089
-0.00065765703
-0.0013213508
-0.0012378876
6.35594e-05
0.001429631
0.0021319126
0.0020979095
0.0015190538
0.00055577519
-1.3803089e-05
-3.5135496e-05
-2.7613065e-06
-3.6720488e-08
-1.4121304e-10
-6.0762637e-13
-4.094765e-15
3.2275672e-14
1.646105e-14
5.8139443e-15
1.6857589e-15
4.2086643e-16
9.2072174e-17
1.7791223e-17
3.0389904e-18
4.5827855e-19
6.0832686e-20
7.0751851e-21
7.1627235e-22
6.2483245e-23
4.6605598e-24
2.8953211e-25
1.4605733e-26
5.7578515e-28
1.6661613e-29
3.149612e-31
2.9187928e-33
-0.00038731046
-0.00022309373
-0.00030488156
-0.0003863593
4.6443114e-06
0.00032596876
5.6773451e-05
-0.00050917724
-0.00081060868
-0.00048583513
0.00013409295
0.00035073188
-0.00045662512
-0.00032217303
-0.00047325534
-0.0011060215
-0.0012258727
-4.4240447e-05
0.0013688638
0.0021061594
0.0019948147
0.0013435124
0.00041251915
-0.00024115078
-0.00019156219
-2.4643867e-05
-6.1703573e-07
-4.8059038e-09
-1.2250288e-11
1.310651e-13
1.6612836e-13
7.7297639e-14
2.7413761e-14
8.2281846e-15
2.1605797e-15
5.0250829e-16
1.0395902e-16
1.9154142e-17
3.1367621e-18
4.5525548e-19
5.8339733e-20
6.5681265e-21
6.4566103e-22
5.4957949e-23
4.0070176e-24
2.444551e-25
1.2174239e-26
4.7655294e-28
1.3775884e-29
2.6167285e-31
2.4495259e-33
-0.00051256259
-0.00053961676
-0.00037274995
-0.00037967369
-0.00031797244
0.00016912822
0.0004678854
0.00014335715
-0.00045945271
-0.00071207234
-0.00032922675
0.00025394156
0.00033995427
-0.00025516941
-0.00030690697
-0.00087882978
-0.00116743
-0.00015759255
0.0012279594
0.0019743628
0.0017965322
0.00094422294
-1.5240011e-05
-0.00073205992
-0.00062841405
-0.00013820479
-6.5097869e-06
-9.9527207e-08
-4.9726246e-10
1.5145111e-13
7.0542853e-13
3.2059512e-13
1.1601957e-13
3.6169308e-14
9.97178e-15
2.4544281e-15
5.4082848e-16
1.0664815e-16
1.8784641e-17
2.9463566e-18
4.1008002e-19
5.0445771e-20
5.4579367e-21
5.1650028e-22
4.2596663e-23
3.0161972e-24
1.7988242e-25
8.8310004e-27
3.4409134e-28
1.0002857e-29
1.9292455e-31
3.3717304e-35
-0.00019155903
-0.00054897587
-0.00068394512
-0.00052473194
-0.00045293323
-0.00024630141
0.00032981376
0.00060385451
0.00023432608
-0.00037942127
-0.00057397675
-0.00016041788
0.00031695011
0.00018596823
-0.00014533076
-0.00066120365
-0.0010714213
-0.00026010762
0.0010417414
0.0017719727
0.0015463244
0.00068397824
-0.00033891036
-0.0011702853
-0.0012809301
-0.00048043132
-4.4175291e-05
-1.2751351e-06
-1.2743013e-08
-3.6475147e-11
2.5963145e-12
1.2014426e-12
4.4687956e-13
1.4466597e-13
4.171648e-14
1.0803056e-14
2.5164322e-15
5.2655156e-16
9.8721622e-17
1.6513085e-17
2.4544842e-18
3.2282256e-19
3.7399386e-20
3.7977349e-21
3.3607673e-22
2.6167618e-23
1.7524569e-24
1.0005382e-25
4.7932145e-27
1.8679465e-28
5.5732108e-30
3.2433483e-33
2.1788516e-37
1.1044889e-05
-0.00012200463
-0.00058334774
-0.00082152998
-0.00067124793
-0.00053814783
-0.00017100253
0.00048594173
0.00073109459
0.00032811086
-0.00026292811
-0.00039606977
1.6440485e-05
0.00021365165
3.8603902e-05
-0.00046212065
-0.0009445833
-0.00034373408
0.00083690767
0.0015351782
0.0012709903
0.00040908371
-0.00045457072
-0.0012804306
-0.0018062569
-0.0010624282
-0.00019296636
-1.0472692e-05
-1.975114e-07
-1.2822007e-09
6.3420035e-12
4.1286124e-12
1.5838638e-12
5.311695e-13
1.5935348e-13
4.310038e-14
1.0518646e-14
2.3101195e-15
4.5460041e-16
7.9763738e-17
1.2371337e-17
1.682204e-18
1.9854619e-19
2.0068532e-20
1.706567e-21
1.197175e-22
6.9041506e-24
3.095041e-25
1.0727442e-26
3.4130039e-28
1.5092026e-29
1.3158745e-31
2.5097362e-35
5.8008303e-40
-0.0002773914
0.00016407578
-4.312918e-05
-0.00060262827
-0.00096266108
-0.00082387859
-0.00061346712
-9.2177541e-05
0.00063565857
0.00084260856
0.0004151556
-0.00013249081
-0.00018822589
9.0512066e-05
5.3110768e-05
4.0423637e-06
-0.00081537073
-0.00040346921
0.00063729901
0.0012863679
0.001003778
0.00015613406
-0.00055326968
-0.0011615362
-0.0019154191
-0.0016893143
-0.00054422914
-5.5964104e-05
-1.9363585e-06
-2.4387979e-08
-7.6676509e-11
1.3050831e-11
5.2151352e-12
1.8058269e-12
5.5983401e-13
1.5672871e-13
3.9631152e-14
9.0069551e-15
1.8255016e-15
3.2638619e-16
5.0707295e-17
6.6321933e-18
6.8764771e-19
4.7219487e-20
-1.2441308e-22
-6.4668892e-22
-1.168256e-22
-1.3648359e-23
-1.2014174e-24
-8.1535784e-26
-4.2152745e-27
2.495001e-30
1.2864791e-33
7.9623109e-38
5.4966196e-43
-0.00069057732
-9.8042192e-05
0.00031914164
5.5190279e-05
-0.00060497236
-0.0010777137
-0.00096772657
-0.00066235385
-7.7126285e-06
0.00077323335
0.00092318685
0.00046996598
1.8896525e-05
-1.3573593e-05
3.5384011e-05
6.4206223e-06
3.2301769e-07
-0.00043772865
0.00045295405
0.0010397726
0.00075245825
-7.4794599e-05
-0.00063912333
-0.0010161081
-0.0018001557
-0.0021499879
-0.0010476095
-0.00019503731
-1.2349997e-05
-2.8547697e-07
-2.3406293e-09
3.2788665e-11
1.6091908e-11
5.7339929e-12
1.8232088e-12
5.2257364e-13
1.3494635e-13
3.1108815e-14
6.2987847e-15
1.0884305e-15
1.5105254e-16
1.3922969e-17
-2.0195527e-19
-4.3940625e-19
-1.1745677e-19
-2.1382752e-20
-3.0598062e-21
-3.5363623e-22
-3.3846625e-23
-2.6664239e-24
-1.7021854e-25
-4.3641284e-30
3.6822781e-32
4.9998631e-36
8.8608475e-41
2.006871e-46
-0.00045744881
-0.00057213106
8.0245624e-05
0.00048341428
0.00017118696
-0.00058783926
-0.0011638822
-0.0010937631
-0.00069701721
8.6772044e-05
0.00088625194
0.00093980551
0.00047588355
0.00012539895
2.1848379e-05
6.2425678e-06
5.7830178e-07
1.9110124e-08
0.00028618025
0.00080234865
0.00051665911
-0.00028137625
-0.00071947756
-0.00087756853
-0.0015119368
-0.0023612984
-0.0015806637
-0.00045602144
-5.2045811e-05
-2.1484638e-06
-3.3729812e-08
-8.0275433e-11
4.6670189e-11
1.7160554e-11
5.5527701e-12
1.6084633e-12
4.1609529e-13
9.4345922e-14
1.799575e-14
2.596464e-15
1.6288802e-16
-5.4981272e-17
-2.702556e-17
-7.4654216e-18
-1.5905423e-18
-2.801028e-19
-4.1793416e-20
-5.3059713e-21
-5.7164483e-22
-5.2176907e-23
-3.9839397e-24
-1.6806271e-27
5.3615538e-31
1.8660277e-34
6.6559135e-39
3.6345026e-44
3.7100114e-50
0.00013500854
-0.00047782138
-0.00044843563
0.00026056307
0.00066094186
0.00030356347
-0.00055041009
-0.001213903
-0.0011940395
-0.00070463097
0.00018698822
0.000961583
0.00086103122
0.00038166173
8.3637483e-05
8.3829679e-06
8.0380045e-07
3.9359465e-08
7.9152711e-10
0.00057498674
0.00029178413
-0.00046843333
-0.00080866789
-0.00075996642
-0.0011595115
-0.0022419295
-0.00208391
-0.00084931926
-0.000146672
-1.0758249e-05
-3.0017938e-07
-2.9607891e-09
1.1995552e-10
4.8975972e-11
1.5976973e-11
4.6089689e-12
1.1631958e-12
2.4601511e-13
3.8017345e-14
1.4744754e-15
-1.7356296e-15
-8.5611131e-16
-2.7031922e-16
-6.7933335e-17
-1.4436741e-17
-2.6563595e-18
-4.2614407e-19
-5.9650444e-20
-7.2297887e-21
-7.5524453e-22
-6.7448837e-23
-5.5640659e-26
-2.1208492e-30
4.3840479e-33
3.0665492e-37
3.1094032e-42
7.2596613e-48
4.2043891e-54
0.00035435618
-7.7772807e-06
-0.00049725517
-0.00031751058
0.00044624178
0.00085092279
0.00044580641
-0.00049477501
-0.0012268306
-0.0012624198
-0.0006787152
0.00030985324
0.00094297865
0.00063673768
0.00018351272
2.3118974e-05
1.4940252e-06
7.2403757e-08
1.8655238e-09
2.2129503e-11
7.2501321e-05
-0.00064028378
-0.00089061197
-0.00066273592
-0.00081797662
-0.0018973411
-0.0024345009
-0.0013275515
-0.00034707065
-3.6018178e-05
-1.7656549e-06
-3.3128885e-08
1.2853726e-10
1.3834363e-10
4.4617265e-11
1.2431574e-11
2.9514359e-12
5.2256106e-13
2.7986843e-14
-2.8267455e-14
-1.6681574e-14
-6.2241199e-15
-1.8580217e-15
-4.7224685e-16
-1.0468036e-16
-2.0460049e-17
-3.5443502e-18
-5.4410734e-19
-7.3692853e-20
-8.7074674e-21
-8.9411494e-22
-1.1531349e-24
-3.283131e-28
5.6226387e-32
9.5097846e-36
1.6659079e-40
6.7470137e-46
8.7368231e-52
3.2451485e-58
-0.00014870509
0.00013455121
-0.00014028885
-0.00049229292
-0.00018601565
0.00063956509
0.0010466228
0.00058621699
-0.00042845426
-0.0012143271
-0.0012625279
-0.0005958385
0.00042306101
0.00076523532
0.00030984488
4.8396696e-05
3.6849573e-06
1.574931e-07
4.261915e-09
5.9487088e-11
3.7544884e-13
-0.00079982199
-0.00096328329
-0.00057260127
-0.00052441019
-0.0014404469
-0.0025405992
-0.0018136898
-0.0006475132
-0.00010970521
-6.8485166e-06
-2.1580659e-07
-5.1318251e-10
4.6616853e-10
1.3394196e-10
3.5392914e-11
6.8076761e-12
7.455952e-13
-2.4691633e-13
-2.1341833e-13
-9.6943036e-14
-3.4407867e-14
-1.0371398e-14
-2.7368036e-15
-6.4079186e-16
-1.339394e-16
-2.5049045e-17
-4.1924423e-18
-6.2704947e-19
-8.3109782e-20
-9.6788796e-21
-1.7863055e-23
-9.6553939e-27
-1.8136798e-31
2.0015305e-34
6.2134306e-39
3.9668789e-44
8.6114405e-50
7.1575574e-56
1.7856602e-62
-0.00095248329
-0.00037805935
-8.6456e-05
-0.00027279235
-0.00048480904
-5.2918947e-05
0.00084017536
0.0012360711
0.0007074455
-0.00036073979
-0.0011694427
-0.0011925756
-0.00043129464
0.00047455506
0.00041540249
8.6779466e-05
7.7766073e-06
3.7850439e-07
1.0278014e-08
1.5656214e-10
1.2024565e-12
-7.0023604e-15
-0.0010132358
-0.00048162513
-0.00027278093
-0.0009905868
-0.0023857899
-0.0022216234
-0.0010267162
-0.00024403934
-2.621222e-05
-6.3196559e-07
4.8721796e-08
7.655282e-09
7.7423963e-10
1.1946119e-10
1.8138578e-11
-2.2888617e-13
-1.7546952e-12
-1.0516337e-12
-4.4943268e-13
-1.6004419e-13
-4.9739546e-14
-1.3748576e-14
-3.4099927e-15
-7.6207303e-16
-1.5367889e-16
-2.7949117e-17
-4.5750153e-18
-6.730593e-19
-8.7901747e-20
-2.2115829e-22
-1.8557343e-25
-2.8583618e-29
2.4823295e-33
1.6813573e-37
1.6510466e-42
5.3881651e-48
7.4143372e-54
4.2685325e-60
7.6267026e-67
-0.0010520555
-0.0011070781
-0.00061831844
-0.00031268786
-0.00040839943
-0.00048521936
8.6107612e-05
0.0010440399
0.0014039774
0.00079437901
-0.00029559658
-0.0010687008
-0.0010052525
-0.00020504542
0.00035253173
0.00013152626
1.4683951e-05
8.1906545e-07
2.501994e-08
4.1198485e-10
3.5313937e-12
6.7731632e-15
-3.5042374e-15
-0.00038495615
-4.1317421e-05
-0.00059001694
-0.0020093786
-0.0024741621
-0.0014259238
-0.00044075194
-6.3580045e-05
-5.2700598e-07
1.3770924e-06
2.5084167e-07
2.6217689e-08
1.3607306e-09
6.339633e-11
-5.3606488e-12
-7.7862339e-12
-4.2305791e-12
-1.7931209e-12
-6.5273014e-13
-2.1075367e-13
-6.1179839e-14
-1.6070467e-14
-3.8315459e-15
-8.300825e-16
-1.63347e-16
-2.9146869e-17
-4.7009614e-18
-6.8289574e-19
-2.2690006e-21
-2.7228458e-24
-8.0706908e-28
-2.3394937e-33
3.2654881e-36
5.1315284e-41
2.4059958e-46
4.8629901e-52
4.6670557e-58
2.133414e-64
1.8455492e-71
-0.00028029071
-0.0010868919
-0.0012824569
-0.0008855699
-0.00054893731
-0.00055705887
-0.00048615445
0.00023383413
0.0012437318
0.0015287601
0.00082993607
-0.00024158944
-0.00089624434
-0.00069719508
-2.2146108e-05
0.0001394271
2.4373195e-05
1.6165292e-06
5.6133456e-08
1.0348225e-09
9.8878268e-12
3.5556468e-14
-2.4625571e-15
-8.7229886e-16
0.00018541536
-0.00023929706
-0.0015851858
-0.0025375228
-0.0017645044
-0.00066080161
-0.00010162613
1.6821797e-05
1.4975603e-05
4.5869463e-06
8.0088863e-07
6.0687903e-08
1.5244456e-09
-1.7625888e-11
-2.816254e-11
-1.4866761e-11
-6.3718475e-12
-2.3874661e-12
-8.0261344e-13
-2.4463966e-13
-6.7941551e-14
-1.7232728e-14
-3.9954717e-15
-8.4659312e-16
-1.6372668e-16
-2.8832193e-17
-4.6072314e-18
-1.9749027e-20
-3.2380991e-23
-1.5064464e-26
-9.7841932e-31
3.9954021e-35
1.213518e-39
8.1383443e-45
2.2815366e-50
3.1958057e-56
2.5318573e-62