/*--------------------------------*- C++ -*----------------------------------*\
| =========                 |                                                 |
| \\      /  F ield         | OpenFOAM: The Open Source CFD Toolbox           |
|  \\    /   O peration     | Version:  5.0                                   |
|   \\  /    A nd           | Web:      www.OpenFOAM.org                      |
|    \\/     M anipulation  |                                                 |
\*---------------------------------------------------------------------------*/
FoamFile
{
    version     2.0;
    format      ascii;
    class       volVectorField;
    location    "80";
    object      ddtCorrDdt0(U);
}
// * * * * * * * * * * * * * * * * * * * * * * * * * * * * * * * * * * * * * //

dimensions      [0 1 -2 0 0 0 0];

internalField   nonuniform List<vector> 
9520
(
(0.00013718452 3.0370789e-06 0)
(0.00013651154 8.2109207e-06 0)
(0.00012860182 3.1780477e-06 0)
(0.00013519798 1.1163162e-05 0)
(0.00012999948 8.6707995e-06 0)
(0.00012529227 3.9092813e-06 0)
(0.00013340681 1.1065043e-05 0)
(0.00013271581 1.2003866e-05 0)
(0.00012745465 1.093834e-05 0)
(0.00011631229 5.2901812e-06 0)
(0.00013119342 7.1610731e-06 0)
(0.00013694282 1.2445069e-05 0)
(0.00013161555 1.5930521e-05 0)
(0.00011942045 1.5139274e-05 0)
(0.00010854305 6.8223817e-06 0)
(0.00012878623 -1.2220906e-06 0)
(0.00014296456 9.2481011e-06 0)
(0.00013800122 1.8326008e-05 0)
(0.00012539257 2.317499e-05 0)
(0.00011216394 1.9752771e-05 0)
(9.5993254e-05 8.4771719e-06 0)
(0.00012620675 -1.4530862e-05 0)
(0.0001511984 1.8262902e-06 0)
(0.00014702131 1.7659366e-05 0)
(0.00013428072 2.9037732e-05 0)
(0.00011911296 3.1117294e-05 0)
(9.9903944e-05 2.4735682e-05 0)
(8.2926574e-05 1.0003726e-05 0)
(0.00012326521 -3.4289391e-05 0)
(0.0001625644 -1.0385377e-05 0)
(0.00015911792 1.3722017e-05 0)
(0.00014628649 3.2660436e-05 0)
(0.00012921198 4.0662721e-05 0)
(0.00010741136 3.971035e-05 0)
(8.6878042e-05 2.9350928e-05 0)
(6.7601826e-05 1.1363946e-05 0)
(0.00012169178 -6.0797594e-05 0)
(0.00017819722 -2.902485e-05 0)
(0.00017551065 6.1998183e-06 0)
(0.00016160042 3.4185678e-05 0)
(0.00014239787 4.8489581e-05 0)
(0.00011826525 5.3221998e-05 0)
(9.449225e-05 4.7671529e-05 0)
(7.1347243e-05 3.3514608e-05 0)
(5.1341521e-05 1.2517842e-05 0)
(0.0001117907 -9.3677e-05 0)
(0.00019572451 -5.343889e-05 0)
(0.00019795985 -3.9762196e-06 0)
(0.00018046783 3.4099199e-05 0)
(0.00015844738 5.4773002e-05 0)
(0.0001323141 6.52932e-05 0)
(0.00010562347 6.4932769e-05 0)
(7.8573851e-05 5.4890628e-05 0)
(5.4678877e-05 3.7110256e-05 0)
(3.408257e-05 1.3468063e-05 0)
(0.00010394907 -0.00013831824 0)
(0.00021973158 -8.7081752e-05 0)
(0.00022371207 -1.5634233e-05 0)
(0.00020236176 3.4660707e-05 0)
(0.0001764857 6.0440659e-05 0)
(0.00014908725 7.5765384e-05 0)
(0.00012023431 8.1065026e-05 0)
(8.9346477e-05 7.5714083e-05 0)
(6.1113498e-05 6.1180437e-05 0)
(3.6797273e-05 4.0124851e-05 0)
(1.635329e-05 1.4225963e-05 0)
(9.7553611e-05 -0.00020097815 0)
(0.00026003546 -0.00013686541 0)
(0.00026729138 -3.2952003e-05 0)
(0.00023159343 3.6238887e-05 0)
(0.00019442166 6.6443496e-05 0)
(0.00016740647 8.4711041e-05 0)
(0.00013814958 9.5731565e-05 0)
(0.000103826 9.5972886e-05 0)
(7.0880916e-05 8.5271453e-05 0)
(4.2012139e-05 6.6506765e-05 0)
(1.8272704e-05 4.2562059e-05 0)
(-1.6302028e-06 1.4785776e-05 0)
(8.5815606e-05 -0.00027267728 0)
(0.00031174569 -0.00019460151 0)
(0.00032324826 -5.0516909e-05 0)
(0.00026229708 4.4214327e-05 0)
(0.00021109591 7.480436e-05 0)
(0.00018593593 9.1320824e-05 0)
(0.00015895445 0.00010806473 0)
(0.00012247058 0.00011547825 0)
(8.430891e-05 0.00010961388 0)
(5.0037082e-05 9.3471272e-05 0)
(2.1945039e-05 7.0841725e-05 0)
(-6.4058908e-07 4.4374742e-05 0)
(-1.9537367e-05 1.5126307e-05 0)
(7.3079439e-05 -0.00037919294 0)
(0.00038334434 -0.00026964625 0)
(0.00039195587 -5.815482e-05 0)
(0.00028804886 6.6317717e-05 0)
(0.00022287783 8.9216371e-05 0)
(0.00020278997 9.6134151e-05 0)
(0.00018132285 0.00011606503 0)
(0.00014588677 0.00013312386 0)
(0.00010226276 0.0001343339 0)
(6.1271062e-05 0.0001215981 0)
(2.7628342e-05 0.00010015285 0)
(1.2775398e-06 7.4068702e-05 0)
(-1.9546383e-05 4.5476407e-05 0)
(-3.7082463e-05 1.5225206e-05 0)
(1.5540565e-06 -0.00050496863 0)
(0.00046981541 -0.00036410573 0)
(0.00046922606 -6.9643052e-05 0)
(0.00031979251 0.000104145 0)
(0.00022661497 0.00011119674 0)
(0.00021272162 9.8320356e-05 0)
(0.00020353521 0.00011815611 0)
(0.00017520087 0.00014778421 0)
(0.00012598646 0.00015903537 0)
(7.6607635e-05 0.00015145287 0)
(3.5623835e-05 0.00013138863 0)
(4.2424206e-06 0.00010504868 0)
(-1.9441857e-05 7.6021997e-05 0)
(-3.8091799e-05 4.577426e-05 0)
(-5.3955217e-05 1.5063827e-05 0)
(-1.1841248e-05 -0.00066954076 0)
(0.00057649615 -0.00044102534 0)
(0.00056207367 -4.8485017e-05 0)
(0.00034763413 0.00016259632 0)
(0.00021560659 0.00014250512 0)
(0.00021190982 9.7541761e-05 0)
(0.00022295476 0.00011152005 0)
(0.00020732974 0.000154408 0)
(0.00015799217 0.00018336536 0)
(9.7452659e-05 0.0001836608 0)
(4.6529783e-05 0.00016554622 0)
(8.3597051e-06 0.00013838129 0)
(-1.9278425e-05 0.0001079091 0)
(-3.9775173e-05 7.6539842e-05 0)
(-5.5915704e-05 4.5176864e-05 0)
(-6.9858938e-05 1.4615896e-05 0)
(-1.1947311e-05 -0.00081730297 0)
(0.0006468643 -0.00065478972 0)
(0.00073699248 -5.1830071e-05 0)
(0.00038534027 0.00025300742 0)
(0.00019458984 0.00020533774 0)
(0.00019355664 9.1856089e-05 0)
(0.00023740543 9.311202e-05 0)
(0.00024525717 0.00015004636 0)
(0.00020195058 0.00020523379 0)
(0.00012625153 0.00021875974 0)
(6.1334513e-05 0.00020398902 0)
(1.378131e-05 0.00017523969 0)
(-1.91047e-05 0.00014218924 0)
(-4.227995e-05 0.00010858107 0)
(-5.9321196e-05 7.5479765e-05 0)
(-7.2692728e-05 4.3605457e-05 0)
(-8.4528029e-05 1.3848024e-05 0)
(-5.0701761e-06 -0.0010366231 0)
(0.00074066838 -0.00076087445 0)
(0.0009423286 1.7804176e-05 0)
(0.00043529139 0.00036477293 0)
(0.00014897078 0.00026059135 0)
(0.00016970257 8.5132176e-05 0)
(0.00024057073 5.5583185e-05 0)
(0.00029136071 0.00012720878 0)
(0.00025974764 0.00021804097 0)
(0.00016896432 0.00025809022 0)
(8.1550069e-05 0.00024834293 0)
(2.0684065e-05 0.00021713581 0)
(-1.9187063e-05 0.00017980438 0)
(-4.5709122e-05 0.00014271059 0)
(-6.4244738e-05 0.0001069408 0)
(-7.7611195e-05 7.2776347e-05 0)
(-8.8004504e-05 4.1109163e-05 0)
(-9.7689296e-05 1.279974e-05 0)
(1.5154013e-05 -0.0012513656 0)
(0.0010142164 -0.001114183 0)
(0.0012526535 -7.87872e-06 0)
(0.00049578765 0.0005678617 0)
(2.938398e-05 0.00038217069 0)
(0.00010913666 5.6035515e-05 0)
(0.0002294487 -1.2875769e-05 0)
(0.00034343084 7.2829604e-05 0)
(0.00034187119 0.00021612756 0)
(0.00023357735 0.00030304039 0)
(0.00010991546 0.0003013518 0)
(2.924322e-05 0.00026608339 0)
(-1.9790919e-05 0.00022172372 0)
(-5.0231926e-05 0.00017950629 0)
(-7.0630665e-05 0.00014011894 0)
(-8.4618687e-05 0.00010301255 0)
(-9.4206904e-05 6.860326e-05 0)
(-0.0001017645 3.7918471e-05 0)
(-0.00010927233 1.1558525e-05 0)
(-6.9147961e-05 -0.0015661601 0)
(0.0011767855 -0.0012070233 0)
(0.0015399015 0.00013461804 0)
(0.00057881554 0.00082004263 0)
(-0.00012990044 0.0005124307 0)
(-3.8494406e-05 2.1113618e-05 0)
(0.00020014495 -8.8639907e-05 0)
(0.00041585224 -2.750367e-05 0)
(0.00046319193 0.00019386479 0)
(0.00032415316 0.00034905177 0)
(0.00015031213 0.00037033068 0)
(3.8187512e-05 0.0003263214 0)
(-2.2640409e-05 0.00026977728 0)
(-5.643494e-05 0.00021921805 0)
(-7.8213939e-05 0.0001751251 0)
(-9.3108013e-05 0.00013482738 0)
(-0.00010298202 9.7130915e-05 0)
(-0.00010945317 6.3356037e-05 0)
(-0.00011398774 3.423914e-05 0)
(-0.00011927587 1.0162619e-05 0)
(-9.5376148e-05 -0.0018899153 0)
(0.0016799917 -0.0017527908 0)
(0.0020993046 8.7919254e-05 0)
(0.00067859608 0.0012047831 0)
(-0.00038378683 0.00078650451 0)
(-0.0003078654 -1.365846e-05 0)
(0.00019031112 -0.00022828938 0)
(0.00052203914 -0.00019067578 0)
(0.00063606771 0.00014200509 0)
(0.00045591279 0.00041315982 0)
(0.00020544062 0.00046547457 0)
(4.3443213e-05 0.00040626743 0)
(-3.3048636e-05 0.0003284819 0)
(-6.8469835e-05 0.00026385064 0)
(-8.9351165e-05 0.00021286498 0)
(-0.0001046519 0.00016740704 0)
(-0.00011372295 0.00012688881 0)
(-0.00012028983 8.9802637e-05 0)
(-0.00012282049 5.7262806e-05 0)
(-0.00012444415 3.0196821e-05 0)
(-0.00012763845 8.6606718e-06 0)
(-0.00017673835 -0.0023631102 0)
(0.0020347944 -0.0019080157 0)
(0.002566749 0.00036884851 0)
(0.00082014608 0.0016330178 0)
(-0.00066170453 0.0010639404 0)
(-0.00068608999 -9.79368e-05 0)
(0.00016304242 -0.00045512276 0)
(0.00065009793 -0.00040939063 0)
(0.00085389637 6.8507343e-05 0)
(0.00061754797 0.00049089743 0)
(0.00027370194 0.00060150962 0)
(4.1917402e-05 0.00051617874 0)
(-5.8741084e-05 0.0004039818 0)
(-9.0942279e-05 0.00031390788 0)
(-0.00010709318 0.00025437021 0)
(-0.0001203038 0.00020496149 0)
(-0.00013005251 0.00015914647 0)
(-0.00013465694 0.00011826939 0)
(-0.00013535841 8.1190162e-05 0)
(-0.00013428074 5.0480899e-05 0)
(-0.00013323362 2.5993175e-05 0)
(-0.00013450954 7.1585226e-06 0)
(-0.00024531947 -0.0028085851 0)
(0.0026628599 -0.0026554632 0)
(0.003442602 0.00028668749 0)
(0.00096097433 0.002262637 0)
(-0.0010806931 0.0016179586 0)
(-0.0012359291 -0.0001365482 0)
(2.3922043e-05 -0.0008197423 0)
(0.0008092476 -0.00076368363 0)
(0.0011657214 -5.4056424e-05 0)
(0.00083897132 0.00059326403 0)
(0.00036607581 0.00078205955 0)
(2.8920108e-05 0.00066957567 0)
(-9.9631748e-05 0.00049616954 0)
(-0.00012899049 0.00037465207 0)
(-0.00013144429 0.00029501536 0)
(-0.0001381273 0.00024153602 0)
(-0.00014690338 0.00019447937 0)
(-0.00015054532 0.00015002673 0)
(-0.00015165878 0.0001069809 0)
(-0.00014841775 7.1513219e-05 0)
(-0.00014391946 4.3381525e-05 0)
(-0.00014044614 2.18429e-05 0)
(-0.00013989223 5.7800337e-06 0)
(-0.00028743883 -0.0034968897 0)
(0.0032709342 -0.0029438531 0)
(0.0041630651 0.00076249217 0)
(0.0011616264 0.0029475155 0)
(-0.0015267301 0.0021104693 0)
(-0.001960884 -0.00023338251 0)
(-0.00021252849 -0.0013289893 0)
(0.0010305409 -0.0011356432 0)
(0.0015851851 -0.00022828246 0)
(0.0011851964 0.00071516738 0)
(0.00049662784 0.0010372907 0)
(-1.6696904e-06 0.00087889938 0)
(-0.00017822862 0.00060668875 0)
(-0.0001892247 0.00042860958 0)
(-0.00016358046 0.00032941109 0)
(-0.00015740739 0.00027205619 0)
(-0.0001624023 0.00022556452 0)
(-0.00016835059 0.00017892119 0)
(-0.00016987444 0.00013417879 0)
(-0.00016641815 9.4048113e-05 0)
(-0.00015919988 6.1437303e-05 0)
(-0.00015176779 3.634539e-05 0)
(-0.00014621867 1.791599e-05 0)
(-0.00014416177 4.5875121e-06 0)
(-0.00024914553 -0.0039973042 0)
(0.0039838268 -0.0038193319 0)
(0.0053988147 0.00058288824 0)
(0.0014259334 0.0039607038 0)
(-0.0022090585 0.0030412694 0)
(-0.0028778052 -0.00023829072 0)
(-0.00062125169 -0.0019981171 0)
(0.0013129286 -0.001794714 0)
(0.0021652317 -0.00049773898 0)
(0.0016366184 0.00088798629 0)
(0.00067035893 0.0013715994 0)
(-4.6675932e-05 0.0011878957 0)
(-0.00031382166 0.00075752431 0)
(-0.00028631499 0.00046939927 0)
(-0.00021437502 0.00034618581 0)
(-0.00017575453 0.0002910286 0)
(-0.00017540766 0.00025192584 0)
(-0.00018428962 0.00020912179 0)
(-0.00018926325 0.00016200682 0)
(-0.00018689818 0.00011817071 0)
(-0.00017868225 8.0588747e-05 0)
(-0.00016804352 5.1436445e-05 0)
(-0.0001580101 2.971726e-05 0)
(-0.00015073314 1.431814e-05 0)
(-0.0001473847 3.5720067e-06 0)
(-0.00030991009 -0.0050068946 0)
(0.0047670381 -0.0044321211 0)
(0.0065055678 0.0013130394 0)
(0.0016169422 0.0049058569 0)
(-0.0029326407 0.0037404444 0)
(-0.004099084 -0.00035478351 0)
(-0.0011439769 -0.0028281805 0)
(0.0016237274 -0.0025413502 0)
(0.0029238009 -0.00088136127 0)
(0.0023338529 0.0010833974 0)
(0.00091612901 0.0018545417 0)
(-0.00014604668 0.0015838491 0)
(-0.00051891626 0.00094999822 0)
(-0.00044171059 0.0005135867 0)
(-0.00028227573 0.00033295297 0)
(-0.00019417366 0.00028947207 0)
(-0.00018004808 0.00027013468 0)
(-0.00019472281 0.00023914204 0)
(-0.00020831849 0.00019335609 0)
(-0.000209961 0.00014506399 0)
(-0.00020176679 0.0001015607 0)
(-0.00018892782 6.728866e-05 0)
(-0.00017491325 4.2015285e-05 0)
(-0.00016283193 2.3705915e-05 0)
(-0.00015413537 1.1096734e-05 0)
(-0.00014976412 2.706444e-06 0)
(-0.00070421916 -0.0054008703 0)
(0.0059157207 -0.0052128457 0)
(0.0081267131 0.00085930383 0)
(0.0020347183 0.0063964085 0)
(-0.003880093 0.0054775134 0)
(-0.0055766924 -0.00028581748 0)
(-0.0019066046 -0.003919253 0)
(0.0019849701 -0.0037657004 0)
(0.0039270953 -0.0013767863 0)
(0.0031883739 0.0013616811 0)
(0.0012428111 0.0024837109 0)
(-0.00026390546 0.0021738143 0)
(-0.00085241115 0.0012319464 0)
(-0.00068821706 0.000529173 0)
(-0.00038341202 0.00027814775 0)
(-0.00020950469 0.00025238379 0)
(-0.00017202456 0.00027430964 0)
(-0.0001967284 0.00026833267 0)
(-0.00022399749 0.00022998556 0)
(-0.00023499491 0.00017726098 0)
(-0.00022875735 0.00012574062 0)
(-0.00021412673 8.4713595e-05 0)
(-0.00019671333 5.4718077e-05 0)
(-0.0001802709 3.3302278e-05 0)
(-0.00016644531 1.8328842e-05 0)
(-0.00015659879 8.2490606e-06 0)
(-0.00015143863 1.959655e-06 0)
(-0.0012254252 -0.0070768217 0)
(0.0071430553 -0.0063911725 0)
(0.0099441208 0.0021583551 0)
(0.0020323002 0.0078098343 0)
(-0.0049548997 0.006492125 0)
(-0.0074636928 -0.00039930781 0)
(-0.0028474844 -0.0051752334 0)
(0.002431758 -0.0051018474 0)
(0.0051956686 -0.0021091204 0)
(0.0044766382 0.0016543434 0)
(0.0017175615 0.0033735038 0)
(-0.00048851838 0.0029212286 0)
(-0.0013212416 0.0015754567 0)
(-0.0010616696 0.0005309107 0)
(-0.00053591461 0.00014627267 0)
(-0.00021564903 0.0001599911 0)
(-0.00013730547 0.00025517391 0)
(-0.00018107193 0.00029621888 0)
(-0.00023255634 0.00027472775 0)
(-0.00026010887 0.0002177409 0)
(-0.00025983465 0.00015503973 0)
(-0.00024430941 0.00010454864 0)
(-0.00022346669 6.8420795e-05 0)
(-0.00020269798 4.303851e-05 0)
(-0.00018407864 2.5520531e-05 0)
(-0.00016902143 1.3489053e-05 0)
(-0.00015827688 5.6730716e-06 0)
(-0.00015249372 1.2732461e-06 0)
(3.8228759e-05 -0.0076984212 0)
(0.0088153614 -0.0066485366 0)
(0.010637699 0.0018433887 0)
(0.0012454261 0.009656736 0)
(-0.0061264837 0.008964891 0)
(-0.0095204155 -0.00031280779 0)
(-0.0040463138 -0.0067012795 0)
(0.0029385088 -0.0071040872 0)
(0.0067964475 -0.0029694614 0)
(0.0059818084 0.0020568311 0)
(0.0023415715 0.0045025051 0)
(-0.00073902192 0.0040339796 0)
(-0.002037642 0.0020935418 0)
(-0.0016139088 0.00046807577 0)
(-0.00074706689 -8.8830123e-05 0)
(-0.00021137658 -2.3485573e-05 0)
(-5.7201963e-05 0.00019636782 0)
(-0.00013116145 0.00032415472 0)
(-0.00022672503 0.0003316349 0)
(-0.00028222142 0.00027160875 0)
(-0.00029488589 0.00019249876 0)
(-0.00028055757 0.00012811099 0)
(-0.00025594539 8.3686892e-05 0)
(-0.00023036617 5.3202471e-05 0)
(-0.00020680085 3.2562515e-05 0)
(-0.000186726 1.8429583e-05 0)
(-0.00017067893 9.0528148e-06 0)
(-0.00015925297 3.240007e-06 0)
(-0.00015299415 5.5953686e-07 0)
(0.002257756 -0.0086915219 0)
(0.0099489932 -0.0079046561 0)
(0.0098517336 0.0026443372 0)
(0.00067298163 0.011088153 0)
(-0.0064587813 0.010179716 0)
(-0.012558452 -0.00021910287 0)
(-0.005740968 -0.0084739319 0)
(0.0035272246 -0.0092903012 0)
(0.0087829356 -0.0042008812 0)
(0.0081213593 0.0024458248 0)
(0.0032138936 0.0060224798 0)
(-0.0011562808 0.0053944071 0)
(-0.003003535 0.0027281316 0)
(-0.0024107187 0.00039186491 0)
(-0.0010811004 -0.00049027572 0)
(-0.00018707203 -0.00032156779 0)
(7.0467685e-05 7.9278632e-05 0)
(-3.4778611e-05 0.00034696584 0)
(-0.00019685862 0.00040617097 0)
(-0.00029836104 0.00034445782 0)
(-0.0003347221 0.0002429146 0)
(-0.00032484785 0.0001578807 0)
(-0.00029584846 0.00010135186 0)
(-0.00026400384 6.3765748e-05 0)
(-0.00023469868 3.9364239e-05 0)
(-0.00020941194 2.2963105e-05 0)
(-0.0001883002 1.2004229e-05 0)
(-0.0001715556 4.8660672e-06 0)
(-0.00015962255 8.2227042e-07 0)
(-0.000153001 -2.1455761e-07 0)
(0.0044662383 -0.0095006204 -1.0566359e-23)
(0.0098136049 -0.0073634128 0)
(0.0063617257 0.0035539575 0)
(0.00092475547 0.013974284 0)
(-0.0056149167 0.013370536 0)
(-0.015200769 -0.00027605193 0)
(-0.0070996162 -0.010482885 0)
(0.004206252 -0.012310338 0)
(0.011146046 -0.005568718 0)
(0.010560447 0.0029811732 0)
(0.0043384586 0.0078850278 0)
(-0.0016190809 0.0074087228 0)
(-0.0044024558 0.0036474767 0)
(-0.0035437556 0.00018367069 0)
(-0.0015339589 -0.0010884248 0)
(-0.00013493797 -0.00082336693 0)
(0.0003119993 -0.00010223866 0)
(0.00012173501 0.00038623555 0)
(-0.00012751432 0.00051503757 0)
(-0.00030447429 0.00044828283 0)
(-0.00038045359 0.00031665317 0)
(-0.00038082744 0.00019891896 0)
(-0.00034599418 0.00012269931 0)
(-0.00030526009 7.4565316e-05 0)
(-0.00026831356 4.5492441e-05 0)
(-0.00023708839 2.6778234e-05 0)
(-0.00021077505 1.426271e-05 0)
(-0.00018893171 5.882022e-06 0)
(-0.00017175025 7.7810359e-07 0)
(-0.000159381 -1.6401635e-06 0)
(-0.00015249334 -9.5682035e-07 0)
(0.0069336556 -0.010488502 1.3195643e-23)
(0.0097282988 -0.0064326046 1.1029123e-23)
(0.0014196066 0.0049517949 0)
(-0.0062366301 0.016124326 0)
(-0.014727891 0.015269577 0)
(-0.020411163 0.00025789526 0)
(-0.010307388 -0.012877555 0)
(0.0049603516 -0.015711248 0)
(0.014078505 -0.0074021803 0)
(0.013835947 0.0034196976 0)
(0.0058305195 0.010277523 0)
(-0.0023523801 0.0098150997 0)
(-0.0062016794 0.0047646538 0)
(-0.0051083409 -2.7566683e-05 0)
(-0.002189834 -0.0020017179 0)
(-2.8763752e-05 -0.0015760506 0)
(0.00068015126 -0.00042893663 0)
(0.00048925706 0.00039657782 0)
(3.9592668e-05 0.00064982197 0)
(-0.00028399978 0.00059643491 0)
(-0.00043367991 0.00042643145 0)
(-0.00045412113 0.00025739026 0)
(-0.00041125788 0.00014912157 0)
(-0.00035712247 8.5091728e-05 0)
(-0.00030896917 5.0021812e-05 0)
(-0.00026992119 2.9153884e-05 0)
(-0.00023786277 1.5434586e-05 0)
(-0.00021098152 6.0134656e-06 0)
(-0.00018881778 -7.0690832e-08 0)
(-0.00017129607 -3.3582019e-06 0)
(-0.00015852582 -4.1507437e-06 0)
(-0.00015140439 -1.7632088e-06 0)
(0.009275455 -0.010652544 -1.3229279e-23)
(0.01031371 -0.0047542365 -3.5983074e-23)
(-0.002099768 0.0062118997 0)
(-0.012473543 0.019529889 0)
(-0.025639372 0.018402748 0)
(-0.025101271 0.00088152382 0)
(-0.013830529 -0.015229321 0)
(0.0059405073 -0.019995417 0)
(0.017388208 -0.0094264213 0)
(0.017496766 0.004153217 0)
(0.0076805586 0.013084524 0)
(-0.0031348729 0.013207922 0)
(-0.0086324932 0.0062628943 0)
(-0.007218732 -0.00047579702 0)
(-0.003068996 -0.0032423061 0)
(9.8937766e-05 -0.002686719 0)
(0.0012559626 -0.00096318942 0)
(0.0010076551 0.00039706648 0)
(0.00023531971 0.00083388799 0)
(-0.00021700863 0.00082129647 0)
(-0.00049460847 0.00058829907 0)
(-0.00055144561 0.00034647214 0)
(-0.00050017336 0.00018368616 0)
(-0.00042472098 9.4217602e-05 0)
(-0.00035882236 5.0921529e-05 0)
(-0.00030850759 2.8740956e-05 0)
(-0.00026941651 1.4761983e-05 0)
(-0.00023734073 4.8416235e-06 0)
(-0.00021036846 -1.9562984e-06 0)
(-0.0001878889 -6.077724e-06 0)
(-0.00017022176 -7.6794238e-06 0)
(-0.00015721871 -6.8624766e-06 0)
(-0.00014995213 -3.0930941e-06 0)
(0.011151616 -0.010819598 0)
(0.011182482 -0.0033942533 3.5989208e-23)
(-0.0043105869 0.0084903563 0)
(-0.01896785 0.02352706 0)
(-0.033134361 0.018935155 0)
(-0.024251958 -8.1650919e-05 0)
(-0.011874844 -0.019399882 0)
(0.0078475774 -0.02482618 0)
(0.0217042 -0.011851187 0)
(0.02218014 0.0044270921 0)
(0.010037942 0.016555037 0)
(-0.0042902153 0.017232019 0)
(-0.011717078 0.0081079485 0)
(-0.010018293 -0.00089462695 0)
(-0.0042600787 -0.0050309887 0)
(0.00033489523 -0.0042056506 0)
(0.0020741759 -0.0017226969 0)
(0.0018044212 0.00035769094 0)
(0.00067960382 0.0012151766 0)
(-0.00013305079 0.0011255428 0)
(-0.00056149123 0.00084328199 0)
(-0.0006881961 0.00048006522 0)
(-0.00062560434 0.00022828622 0)
(-0.00051561478 9.9894285e-05 0)
(-0.00042133979 4.4760971e-05 0)
(-0.00035375491 2.2774389e-05 0)
(-0.00030522467 1.0730809e-05 0)
(-0.00026747951 1.7498157e-06 0)
(-0.00023592691 -5.2308422e-06 0)
(-0.00020885504 -9.9644841e-06 0)
(-0.00018633402 -1.2281678e-05 0)
(-0.00016859873 -1.2271159e-05 0)
(-0.00015551569 -9.5679414e-06 0)
(-0.00014798658 -4.0023455e-06 0)
(0.012305211 -0.010967324 6.6329298e-24)
(0.012417673 -0.001653125 0)
(-0.0050836512 0.011143922 1.3091247e-23)
(-0.024227702 0.02695552 0)
(-0.036592174 0.019117753 0)
(-0.01995544 -0.0047997445 0)
(-0.0026422354 -0.022701082 0)
(0.011376732 -0.031095791 0)
(0.027149749 -0.015263256 0)
(0.028046504 0.0057332389 0)
(0.012930237 0.020637099 0)
(-0.0055151327 0.022680081 0)
(-0.015667421 0.010421878 0)
(-0.013612737 -0.0016696179 0)
(-0.005843968 -0.0072972662 0)
(0.00068293039 -0.0063620469 0)
(0.0032569864 -0.0027036967 0)
(0.002942731 0.00028481059 0)
(0.0013737166 0.0016738721 0)
(-6.1880151e-06 0.0016228941 0)
(-0.00065863997 0.0012320145 0)
(-0.00088444309 0.00068199823 0)
(-0.00080736671 0.0002953988 0)
(-0.00064380733 9.8286541e-05 0)
(-0.00050263747 2.4786208e-05 0)
(-0.00040685651 5.9635621e-06 0)
(-0.00034464092 2.5324118e-07 0)
(-0.00030047323 -4.5718815e-06 0)
(-0.00026476658 -1.0254441e-05 0)
(-0.0002336522 -1.5239899e-05 0)
(-0.00020669416 -1.8188301e-05 0)
(-0.00018408804 -1.8750367e-05 0)
(-0.00016627791 -1.6941287e-05 0)
(-0.00015327904 -1.2462253e-05 0)
(-0.00014556142 -5.0868475e-06 0)
(0.012513223 -0.01122197 -3.7878073e-23)
(0.013510625 0.00014960636 -6.0632112e-23)
(-0.0052744672 0.014101429 -1.3092266e-23)
(-0.027680201 0.03195449 -4.7594066e-23)
(-0.037997974 0.01857017 4.783898e-23)
(-0.016315236 -0.0075760077 0)
(0.0043720384 -0.026671879 0)
(0.019959812 -0.037640679 0)
(0.033453426 -0.016683386 0)
(0.030602922 0.0065617507 0)
(0.012346964 0.025203174 0)
(-0.0071117303 0.028680238 0)
(-0.020561875 0.01304302 0)
(-0.018141122 -0.0024030992 0)
(-0.0078423941 -0.010409909 0)
(0.0011398406 -0.0091751933 0)
(0.0048428683 -0.0041751996 0)
(0.0045677078 0.00016278624 0)
(0.0023638735 0.0023006505 0)
(0.00022252787 0.0023655421 0)
(-0.00081381176 0.0017694899 0)
(-0.0011646936 0.001006964 0)
(-0.00108521 0.00038580054 0)
(-0.00082975772 8.4423647e-05 0)
(-0.00061197979 -1.7422156e-05 0)
(-0.00047013967 -2.9296829e-05 0)
(-0.00038687008 -2.1365105e-05 0)
(-0.00033469758 -1.6523375e-05 0)
(-0.00029546264 -1.7912429e-05 0)
(-0.000261422 -2.1960027e-05 0)
(-0.00023078174 -2.5417698e-05 0)
(-0.00020377806 -2.6710011e-05 0)
(-0.00018125122 -2.5470223e-05 0)
(-0.00016338341 -2.1702725e-05 0)
(-0.00015046915 -1.555037e-05 0)
(-0.00014251831 -6.196042e-06 0)
(0.011596533 -0.011403275 4.156456e-23)
(0.013815796 0.0017750201 8.4750025e-23)
(-0.0051557279 0.017529683 0)
(-0.029132583 0.035445248 -8.9992076e-24)
(-0.037268353 0.015917434 -4.7505649e-23)
(-0.014055251 -0.011408001 -4.7649053e-23)
(0.0094812802 -0.032048469 -2.7705426e-23)
(0.02964947 -0.040035233 0)
(0.035461675 -0.0179724 0)
(0.030789898 0.010899469 0)
(0.0081019489 0.028850796 0)
(-0.0060319296 0.036748274 0)
(-0.026460174 0.016529317 0)
(-0.023775648 -0.0035864129 0)
(-0.010457359 -0.014170007 0)
(0.0018209763 -0.012950766 0)
(0.0070239572 -0.0060546743 0)
(0.0066949124 -3.9987888e-05 0)
(0.0038110077 0.003158732 0)
(0.00067212843 0.0034985004 0)
(-0.0010468527 0.0025573918 0)
(-0.0015928533 0.0014560453 0)
(-0.0014779613 0.00053242687 0)
(-0.0011091633 4.7988419e-05 0)
(-0.00076481033 -0.00010033065 0)
(-0.00054649046 -9.7558881e-05 0)
(-0.00042944942 -6.3099479e-05 0)
(-0.00036654821 -3.8537278e-05 0)
(-0.00032526162 -2.9810872e-05 0)
(-0.00029046264 -3.0460997e-05 0)
(-0.0002577648 -3.3774796e-05 0)
(-0.00022720405 -3.5928785e-05 0)
(-0.00020028592 -3.5512391e-05 0)
(-0.0001777983 -3.2253456e-05 0)
(-0.00016012683 -2.6612643e-05 0)
(-0.0001474039 -1.8007303e-05 0)
(-0.00013951274 -7.018476e-06 0)
(0.0095617714 -0.011539818 -8.3402926e-24)
(0.012950511 0.0034138241 -2.174565e-23)
(-0.0046153477 0.021362354 8.6643588e-24)
(-0.028874289 0.038878446 3.3179894e-23)
(-0.03452202 0.013837523 5.8007286e-23)
(-0.012572759 -0.015497579 -1.1777746e-22)
(0.013197325 -0.037121807 -5.3759674e-23)
(0.037958469 -0.04537136 3.2839161e-23)
(0.037003008 -0.016998421 0)
(0.0252378 0.013379362 0)
(0.0043550651 0.035134868 0)
(-0.0058864032 0.047912179 0)
(-0.036372324 0.020301776 0)
(-0.0308845 -0.0047435885 0)
(-0.013587621 -0.019057092 0)
(0.0026511643 -0.017684052 0)
(0.0097890047 -0.0085743281 0)
(0.0096681819 -0.00033920293 0)
(0.0057312253 0.0042879055 0)
(0.0013239848 0.0050318492 0)
(-0.001340731 0.0037467004 0)
(-0.0022513732 0.0021064298 0)
(-0.0020647589 0.00073508222 0)
(-0.0015230532 -2.4324453e-05 0)
(-0.00098020961 -0.00024093258 0)
(-0.00064142127 -0.00021873362 0)
(-0.00046933945 -0.00013849097 0)
(-0.00039088772 -7.7179072e-05 0)
(-0.0003498357 -4.8332038e-05 0)
(-0.00031790373 -4.1170504e-05 0)
(-0.00028596518 -4.3041742e-05 0)
(-0.00025362079 -4.6066546e-05 0)
(-0.00022305129 -4.6787471e-05 0)
(-0.00019612736 -4.4392856e-05 0)
(-0.00017389648 -3.908419e-05 0)
(-0.00015644061 -3.1222755e-05 0)
(-0.00014382771 -2.0843448e-05 0)
(-0.00013583471 -7.9375275e-06 0)
(0.006629672 -0.011480251 -7.2882275e-25)
(0.011110941 0.0046867433 2.5861938e-25)
(-0.0035849867 0.024706108 0)
(-0.026782137 0.041928519 -1.2620752e-23)
(-0.030494386 0.011416392 7.5383988e-23)
(-0.011375883 -0.018860228 0)
(0.015016883 -0.043388812 5.890808e-23)
(0.043928437 -0.048061619 1.254741e-22)
(0.038170025 -0.014431655 0)
(0.018901694 0.020379244 0)
(-0.0054225528 0.044606326 0)
(-0.031154302 0.056215729 0)
(-0.052776048 0.026046541 0)
(-0.040949046 -0.0062808042 0)
(-0.017472945 -0.024707929 0)
(0.0038573359 -0.023745496 0)
(0.013443251 -0.011626231 0)
(0.013320227 -0.00078766897 0)
(0.0084644541 0.0057156163 0)
(0.0023421988 0.0072342377 0)
(-0.0017378772 0.0054165945 0)
(-0.0031838909 0.0030124569 0)
(-0.0029601036 0.0010005895 0)
(-0.0020965333 -0.00013184547 0)
(-0.0013006382 -0.00049042645 0)
(-0.00076171253 -0.00042686867 0)
(-0.00050136573 -0.00026590633 0)
(-0.00039907811 -0.00014270955 0)
(-0.00036121096 -7.7705072e-05 0)
(-0.00033837121 -5.4687616e-05 0)
(-0.00031255699 -5.2529571e-05 0)
(-0.00028161272 -5.6368261e-05 0)
(-0.00024903949 -5.8936413e-05 0)
(-0.00021818561 -5.7874255e-05 0)
(-0.00019142727 -5.3238994e-05 0)
(-0.00016944167 -4.5654615e-05 0)
(-0.00015237138 -3.5638432e-05 0)
(-0.00013998806 -2.3336978e-05 0)
(-0.000132053 -8.678612e-06 0)
(0.0031123023 -0.011695134 0)
(0.0083127708 0.0055058052 0)
(-0.0024646418 0.027672011 -2.8039188e-25)
(-0.023137382 0.044483914 0)
(-0.026445514 0.0089262485 4.8236038e-24)
(-0.009675572 -0.022156216 -5.2118117e-23)
(0.015106155 -0.05038901 -1.1166671e-22)
(0.047372822 -0.051085265 3.8754624e-22)
(0.039187066 -0.013838588 0)
(0.015452332 0.023248466 0)
(-0.013803891 0.052718995 0)
(-0.053520679 0.067821263 0)
(-0.068379482 0.031045881 0)
(-0.051615049 -0.0095128487 0)
(-0.020761345 -0.032193929 0)
(0.0053490768 -0.031058351 0)
(0.017879906 -0.015521331 0)
(0.018122711 -0.0013302615 0)
(0.011858551 0.007468471 0)
(0.0037278213 0.010043456 0)
(-0.00219773 0.0078878976 0)
(-0.0045414821 0.0043368926 0)
(-0.0042681382 0.0013382757 0)
(-0.0029382357 -0.00032841077 0)
(-0.0017473355 -0.00087650628 0)
(-0.00091008971 -0.00075432172 0)
(-0.00051688257 -0.00048017475 0)
(-0.0003773666 -0.00025217045 0)
(-0.00034783768 -0.00012328176 0)
(-0.0003438579 -7.1545407e-05 0)
(-0.00033265699 -6.0857287e-05 0)
(-0.00030883889 -6.5237803e-05 0)
(-0.00027721521 -7.0770682e-05 0)
(-0.00024375919 -7.229019e-05 0)
(-0.00021268853 -6.9037356e-05 0)
(-0.00018611143 -6.1862845e-05 0)
(-0.00016458455 -5.1885118e-05 0)
(-0.00014797601 -3.974992e-05 0)
(-0.00013608435 -2.5302025e-05 0)
(-0.00012830624 -9.2261736e-06 0)
(0.0043781617 0.0059623497 9.3354868e-26)
(-0.00080692417 -0.0117258 0)
(-0.0014519669 0.030240162 9.8736949e-24)
(-0.018027777 0.046373582 -9.3318676e-24)
(-0.020429862 0.0064825393 -5.4705458e-23)
(-0.0065404386 -0.024653265 2.9181982e-23)
(0.013121906 -0.057441905 3.6802807e-24)
(0.047039568 -0.053938962 2.7513866e-22)
(0.039499797 -0.011488243 -3.3387147e-22)
(0.013669661 0.026145538 0)
(-0.018518556 0.06361494 -1.2608077e-22)
(-0.065114111 0.073935119 0)
(-0.070984541 0.030714964 0)
(-0.048711866 -0.016763698 0)
(-0.019794514 -0.041627701 0)
(0.0080107402 -0.041095238 0)
(0.023428083 -0.020087326 0)
(0.023826616 -0.002120673 0)
(0.016450523 0.0096019445 0)
(0.005719948 0.013748781 0)
(-0.0028413534 0.011117374 0)
(-0.006395956 0.0061809523 0)
(-0.0061716102 0.0018077523 0)
(-0.0041874821 -0.00068285031 0)
(-0.0023348928 -0.0014458433 0)
(-0.0011161942 -0.0013013757 0)
(-0.00049984843 -0.00081373409 0)
(-0.00030629078 -0.00042243557 0)
(-0.0002909227 -0.00019385029 0)
(-0.00032052765 -9.2545325e-05 0)
(-0.00033834682 -6.5566288e-05 0)
(-0.00033143555 -6.9631901e-05 0)
(-0.00030620551 -8.0005649e-05 0)
(-0.00027240635 -8.6247635e-05 0)
(-0.0002377875 -8.5917931e-05 0)
(-0.00020649645 -7.9998675e-05 0)
(-0.00018030777 -7.0144225e-05 0)
(-0.00015935809 -5.7636812e-05 0)
(-0.00014333403 -4.3301545e-05 0)
(-0.00013171297 -2.7424556e-05 0)
(-0.0001239817 -9.812724e-06 0)
(-0.00033013573 0.031742805 -9.1514508e-24)
(0.00012746323 0.0059987514 0)
(-0.0049634362 -0.011726652 -4.6756321e-24)
(-0.011723677 0.047441617 9.322155e-24)
(-0.014730929 0.0048488029 1.4483432e-23)
(-0.0048271677 -0.026334816 -8.1195775e-23)
(0.0088831586 -0.063950375 5.2390325e-23)
(0.043525681 -0.056390801 5.8885916e-23)
(0.038854484 -0.0083829394 -4.4634635e-22)
(0.012671133 0.030176006 -1.1408517e-22)
(-0.019750282 0.070097892 -4.0448436e-23)
(-0.070327068 0.08329797 1.1656661e-22)
(-0.068360307 0.02526117 0)
(-0.037697197 -0.025278295 0)
(-0.011220309 -0.051405771 0)
(0.01347076 -0.051800475 0)
(0.030120723 -0.025378221 0)
(0.03082976 -0.0029874086 0)
(0.02193441 0.012057657 0)
(0.0083617632 0.01840405 0)
(-0.003474282 0.015716496 0)
(-0.0089785023 0.0087420671 0)
(-0.0088148329 0.0023987575 0)
(-0.0059560967 -0.0012550262 0)
(-0.0031290934 -0.0023373982 0)
(-0.0013556832 -0.0021071842 0)
(-0.00042064201 -0.0013371237 0)
(-0.00015214034 -0.00069836109 0)
(-0.00016309476 -0.00030164641 0)
(-0.00024962824 -0.00011786258 0)
(-0.00031809708 -6.1721897e-05 0)
(-0.00034345506 -6.4329392e-05 0)
(-0.0003332756 -8.2513744e-05 0)
(-0.0003034311 -9.7033024e-05 0)
(-0.00026676582 -0.00010250759 0)