/*--------------------------------*- C++ -*----------------------------------*\
| =========                 |                                                 |
| \\      /  F ield         | OpenFOAM: The Open Source CFD Toolbox           |
|  \\    /   O peration     | Version:  5.0                                   |
|   \\  /    A nd           | Web:      www.OpenFOAM.org                      |
|    \\/     M anipulation  |                                                 |
\*---------------------------------------------------------------------------*/
FoamFile
{
    version     2.0;
    format      ascii;
    class       surfaceScalarField;
    location    "80";
    object      ddtCorrDdt0(phi);
}
// * * * * * * * * * * * * * * * * * * * * * * * * * * * * * * * * * * * * * //

dimensions      [0 3 -2 0 0 0 0];

internalField   nonuniform List<scalar> 
18820
(
-6.8267423e-06
-0.00017689484
-1.1642631e-05
-0.00016612899
-6.9382379e-06
-0.00016995652
-1.3295489e-05
-0.00015664082
-1.198781e-05
-0.00016107849
-8.3879452e-06
-0.00016156816
-1.0855192e-05
-0.00014847137
-1.4119075e-05
-0.00015450865
-1.5033043e-05
-0.00015443146
-1.1119847e-05
-0.00015044744
-3.471285e-06
-0.00014163336
-1.2496607e-05
-0.0001500925
-1.9105144e-05
-0.00015043447
-2.0664699e-05
-0.00014488343
-1.3939954e-05
-0.00013650601
9.6081026e-06
-0.00013625991
-6.3345216e-06
-0.00014779345
-2.0034526e-05
-0.00014916017
-2.8072962e-05
-0.00014302274
-2.644497e-05
-0.00013237371
-1.6791045e-05
-0.00011971267
2.9385829e-05
-0.00013258129
5.0269088e-06
-0.0001476186
-1.7422975e-05
-0.00015040097
-3.311846e-05
-0.00014411011
-3.7195608e-05
-0.00013226711
-3.2295507e-05
-0.00011686284
-1.917843e-05
-0.000100531
5.7122413e-05
-0.00013065848
2.2600562e-05
-0.00015015147
-1.1092186e-05
-0.00015394423
-3.5868237e-05
-0.00014764533
-4.6117339e-05
-0.00013518224
-4.6428359e-05
-0.00011812768
-3.7211097e-05
-9.8821952e-05
-2.1083861e-05
-7.9442843e-05
9.1891226e-05
-0.00012964428
4.7985675e-05
-0.00015603953
-1.3795621e-06
-0.00015985796
-3.6696313e-05
-0.00015310908
-5.3377129e-05
-0.00014037818
-5.9109898e-05
-0.00012249316
-5.4240491e-05
-0.00010109021
-4.1177997e-05
-7.8717913e-05
-2.2477966e-05
-5.6959582e-05
0.00013874074
-0.00012813188
8.0905884e-05
-0.00016255992
1.0577941e-05
-0.00016799013
-3.6750548e-05
-0.00015979573
-5.9487089e-05
-0.0001469908
-7.0268556e-05
-0.00012921111
-7.0212969e-05
-0.00010651205
-6.0658142e-05
-8.1600676e-05
-4.4140595e-05
-5.7043881e-05
-2.3402705e-05
-3.3550666e-05
0.00020213177
-0.00013376612
0.00012866281
-0.00017588385
2.6853167e-05
-0.00017882767
-3.8324165e-05
-0.00016640791
-6.5527264e-05
-0.00015374665
-7.9821944e-05
-0.0001374286
-8.4929778e-05
-0.00011448545
-7.9619637e-05
-8.7541262e-05
-6.5584232e-05
-6.0146729e-05
-4.6169063e-05
-3.426502e-05
-2.3908324e-05
-9.6354188e-06
0.00028376458
-0.00014299857
0.00019093338
-0.00019603134
4.5747488e-05
-0.00019477019
-4.3414122e-05
-0.00017372874
-7.2835339e-05
-0.00015909076
-8.7555678e-05
-0.00014600424
-9.7794991e-05
-0.00012455494
-9.7960562e-05
-9.6135842e-05
-8.7151084e-05
-6.5964938e-05
-6.9076682e-05
-3.7228246e-05
-4.7340761e-05
-1.0819326e-05
-2.4014772e-05
1.4386784e-05
0.00039031563
-0.0001564071
0.0002681886
-0.00022024809
6.0026368e-05
-0.0002103017
-5.9724506e-05
-0.00017845056
-8.4470929e-05
-0.00016208407
-9.3075223e-05
-0.00015356311
-0.00010751444
-0.00013627733
-0.00011510659
-0.00010740162
-0.00010899323
-7.4285783e-05
-9.2736923e-05
-4.2295503e-05
-7.1186676e-05
-1.3371337e-05
-4.7672619e-05
1.2852053e-05
-2.372088e-05
3.8115352e-05
0.00052459042
-0.00017306473
0.00036050381
-0.00024871629
6.8839833e-05
-0.00022905238
-9.1860708e-05
-0.000178156
-0.00010335571
-0.00015955665
-9.6557345e-05
-0.0001585946
-0.00011201574
-0.0001490557
-0.00012986398
-0.00012151462
-0.00013101313
-8.5376201e-05
-0.00011764666
-4.9369343e-05
-9.6262279e-05
-1.7211328e-05
-7.1892232e-05
1.0859091e-05
-4.7150817e-05
3.6295521e-05
-2.3023213e-05
6.1146289e-05
0.000700737
-0.00017507105
0.00046740669
-0.0002799615
6.6225801e-05
-0.00024609239
-0.00014574525
-0.00017515811
-0.00013181373
-0.00014968859
-9.7306631e-05
-0.00015880075
-0.00010976198
-0.00016084365
-0.00013961034
-0.00013930626
-0.00015276867
-9.9756325e-05
-0.00014432143
-5.8697938e-05
-0.00012336056
-2.2265787e-05
-9.7572757e-05
8.4769073e-06
-7.1177544e-05
3.4896163e-05
-4.5769771e-05
5.9055211e-05
-2.192353e-05
8.3077401e-05
0.00089498769
-0.00018550622
0.00062919876
-0.00033685723
5.2627353e-05
-0.00026635263
-0.00022416277
-0.00016766517
-0.00017808116
-0.00012888088
-9.3859972e-05
-0.00015312925
-9.6976796e-05
-0.00017158241
-0.00014039555
-0.00016005748
-0.00017336025
-0.00011871476
-0.00017328036
-7.0797299e-05
-0.00015345704
-2.859998e-05
-0.00012560585
5.7712113e-06
-9.6642742e-05
3.3948939e-05
-6.9074974e-05
5.8211113e-05
-4.3540816e-05
8.0685144e-05
-2.0436671e-05
0.00010352136
0.0011079343
-0.00020392637
0.00082589469
-0.00038219689
2.0310383e-05
-0.00030452966
-0.00033275917
-0.00015774691
-0.00024124176
-0.00010449446
-8.3391766e-05
-0.00013934365
-6.8695002e-05
-0.00018140849
-0.00012716978
-0.00018480899
-0.00018860253
-0.00014481768
-0.00020537896
-8.6619085e-05
-0.00018781712
-3.6439312e-05
-0.0001570702
2.8642738e-06
-0.000124318
3.3449247e-05
-9.3628433e-05
5.8508409e-05
-6.5638963e-05
8.0318341e-05
-4.0504388e-05
0.00010076477
-1.8610327e-05
0.0001221386
0.0013793023
-0.00026389491
0.0010747925
-0.00045281978
-1.6124819e-05
-0.00034575137
-0.0005053479
-0.00013193236
-0.00033184469
-6.7133997e-05
-6.4346478e-05
-0.00012353492
-2.0542741e-05
-0.00018749432
-9.1712867e-05
-0.00021686769
-0.00019349708
-0.00017991889
-0.00024152585
-0.00010867601
-0.00022828398
-4.6157056e-05
-0.00019337406
-1.3882371e-07
-0.00015495096
3.3496202e-05
-0.00011993935
5.9762234e-05
-8.8785228e-05
8.1660085e-05
-6.0994993e-05
0.00010081739
-3.6819716e-05
0.00011898546
-1.6557503e-05
0.0001387026
0.0016743314
-0.00029425543
0.0013499474
-0.00053904627
-6.3291724e-05
-0.00040564335
-0.00074781596
-0.00010327553
-0.00046546892
1.7011486e-06
-3.9788007e-05
-9.1688329e-05
4.8049821e-05
-0.00019212716
-2.0753481e-05
-0.00025845731
-0.00018338903
-0.00022698188
-0.00028159304
-0.00013985843
-0.00027908429
-5.7882223e-05
-0.00023705105
-2.4854232e-06
-0.00018954661
3.4453289e-05
-0.00014832524
6.1880995e-05
-0.00011309442
8.407325e-05
-8.2385161e-05
0.00010305523
-5.5429488e-05
0.00011943503
-3.2768569e-05
0.00013520708
-1.4415222e-05
0.00015312393
0.0020758668
-0.00036751988
0.0017054766
-0.00064978141
-0.00014626309
-0.00045606646
-0.0010918459
-6.1606051e-05
-0.00066948497
0.00010074856
8.080683e-07
-3.8891334e-05
0.00015638734
-0.00020002718
0.00010197715
-0.00031486267
-0.00014967983
-0.00029217432
-0.00032863114
-0.00017995159
-0.00034788934
-7.1060648e-05
-0.00029313863
-1.8005186e-06
-0.00023064394
3.8607578e-05
-0.0001796574
6.578288e-05
-0.00013915083
8.7936939e-05
-0.00010457717
0.00010626728
-7.4751728e-05
0.00012238229
-4.9399626e-05
0.0001360735
-2.8556261e-05
0.00014935817
-1.225647e-05
0.0001653861
0.0025359137
-0.00041609109
0.0021170512
-0.00077909106
-0.00024016623
-0.00055587101
-0.0015218788
-2.6025754e-05
-0.00096220703
0.00023112266
5.7338383e-05
4.4221637e-05
0.00033626013
-0.00021876722
0.00028652518
-0.00038458129
-9.2604558e-05
-0.00037194745
-0.00038938179
-0.00023143238
-0.00044275082
-8.509761e-05
-0.00036953026
5.3256408e-06
-0.00028183581
4.9387925e-05
-0.00021496845
7.3916701e-05
-0.00016754058
9.4171995e-05
-0.00012889633
0.00011225683
-9.5690888e-05
0.00012720894
-6.7033763e-05
0.00014002121
-4.3084068e-05
0.00015060838
-2.4285922e-05
0.00016139707
-1.0153657e-05
0.00017554514
0.0031017919
-0.00049609854
0.0026384281
-0.00093746356
-0.00039166507
-0.00062758595
-0.0021023166
2.457573e-05
-0.0013766738
0.00038844655
0.00012231397
0.00016615067
0.00062330549
-0.00024282807
0.00054355726
-0.00047580643
-7.1089311e-06
-0.00047008781
-0.0004686587
-0.00029268011
-0.0005758852
-9.8305453e-05
-0.00047468338
2.0051162e-05
-0.00034765167
7.1139993e-05
-0.00025279681
8.7216582e-05
-0.00019666376
0.00010304126
-0.0001542915
0.00011956891
-0.00011799493
0.00013456306
-8.6516744e-05
0.00014669511
-5.8529196e-05
0.00015547132
-3.6624334e-05
0.00016295363
-2.0146017e-05
0.00017139854
-8.1972997e-06
0.00018374749
0.0037570853
-0.00056664717
0.0032242976
-0.0010819622
-0.00056556554
-0.00076355755
-0.0027999416
7.0049372e-05
-0.0019375971
0.0005855042
0.00018646148
0.00032430286
0.0010384498
-0.0002489982
0.00088375605
-0.00058303485
0.00012677446
-0.00060970114
-0.00056667357
-0.00037208322
-0.00075758255
-0.00011098977
-0.0006201746
4.718246e-05
-0.00042526031
9.7660626e-05
-0.00028740846
0.00010575497
-0.00022301203
0.00011356965
-0.00017729237
0.0001260469
-0.00013987051
0.00014144861
-0.00010575572
0.00015380568
-7.4821456e-05
0.00016299126
-4.965935e-05
0.00016851149
-3.035816e-05
0.00017317242
-1.6303213e-05
0.00017951308
-6.4646563e-06
0.00019021693
0.0045011149
-0.00064716247
0.0039369482
-0.0012792905
-0.0007799179
-0.00086760474
-0.003699684
0.00013619624
-0.0026675022
0.00079995984
0.00024387263
0.00052809648
0.0016042366
-0.00024148758
0.0013610979
-0.00072634895
0.00032510433
-0.00078137514
-0.00069405692
-0.0004823284
-0.001003139
-0.00012653263
-0.00082498766
9.3821037e-05
-0.00052717383
0.00014909904
-0.00033029094
0.00014054917
-0.00024237447
0.00012512581
-0.00019433166
0.00013061752
-0.00015913127
0.00014531527
-0.00012475054
0.00016044946
-9.1879188e-05
0.00017086823
-6.3463474e-05
0.00017679993
-4.1067972e-05
0.00017922673
-2.4527239e-05
0.00018140294
-1.2876953e-05
0.00018593374
-4.9844342e-06
0.00019520585
0.0053255814
-0.00074258018
0.0047248864
-0.0014350925
-0.001038777
-0.0010204265
-0.0047577541
0.00019047662
-0.0036139385
0.0010826386
0.00028526818
0.00075856616
0.0023326915
-0.00020036025
0.0020206841
-0.00090108387
0.00061878623
-0.0010200392
-0.00085389874
-0.00062154373
-0.0013447725
-0.00014069861
-0.0011061847
0.00015466353
-0.00065955362
0.00022620609
-0.00036423727
0.00018305355
-0.00024194215
0.00014012795
-0.0002001392
0.00013094509
-0.0001737431
0.00014524045
-0.00014406156
0.00016463561
-0.00011022111
0.00017879857
-7.8746417e-05
0.00018615678
-5.254226e-05
0.00018827916
-3.3104258e-05
0.00018780925
-1.9337383e-05
0.00018786967
-9.9167364e-06
0.00019087396
-3.7393978e-06
0.00019894948
0.0062801914
-0.00086113281
0.0056197354
-0.0016374206
-0.0013074674
-0.0011663975
-0.0060604191
0.00028224838
-0.0047947034
0.0013712482
0.00032281181
0.0010450942
0.003243561
-0.00015230335
0.0029289175
-0.0011086052
0.0010110643
-0.001293368
-0.0010597215
-0.00081422606
-0.0018048775
-0.00016144006
-0.0015057604
0.00025887803
-0.00084321918
0.00033833639
-0.00038582066
0.00024779912
-0.00021701824
0.00015814215
-0.00018622029
0.00012622223
-0.00018124513
0.00013846003
-0.00016283131
0.00016402174
-0.00013117717
0.00018560122
-9.6436749e-05
0.00019649633
-6.5578521e-05
0.00019919886
-4.2301754e-05
0.00019748174
-2.6016478e-05
0.0001944939
-1.4830548e-05
0.00019278956
-7.4053499e-06
0.00019454757
-2.699578e-06
0.00020165297
0.0074027921
-0.00094312467
0.0066157021
-0.0018570916
-0.0016395952
-0.0013052885
-0.0075679866
0.00034117757
-0.0062327998
0.0017203518
0.00033205139
0.0013620048
0.0043662042
-7.7547808e-05
0.0041211052
-0.0013445037
0.0015619976
-0.0016595434
-0.0013076436
-0.0010454542
-0.0024440561
-0.00017504706
-0.0020482841
0.00038108704
-0.0010838093
0.00049947705
-0.00039129337
0.00034381987
-0.00014951294
0.0001803064
-0.00014063693
0.00011257137
-0.00017606439
0.00012105365
-0.00018107129
0.00015671127
-0.00015650523
0.00018935978
-0.00011813753
0.00020731039
-8.1023307e-05
0.00021194784
-5.265762e-05
0.0002095602
-3.3057783e-05
0.0002045279
-1.9809314e-05
0.00019947806
-1.1013332e-05
0.00019640333
-5.2848164e-06
0.00019713996
-1.8174273e-06
0.00020347403
0.0087185277
-0.0010328315
0.0075729539
-0.0019003694
-0.0021272308
-0.0013694518
-0.0093405482
0.00046727826
-0.0079621477
0.0020705325
0.00033320642
0.0017191906
0.0057211432
7.0672459e-06
0.0056667509
-0.0016232058
0.0022749098
-0.0020574211
-0.0016089174
-0.0013582756
-0.0032763664
-0.00021314368
-0.0027924764
0.00056915112
-0.0014189129
0.00071619998
-0.00036712415
0.00047531931
-1.5930245e-05
0.00021024879
-4.4931829e-05
8.4611828e-05
-0.0001493336
8.584957e-05
-0.00019898517
0.00013897534
-0.00018819814
0.00018841123
-0.00014639253
0.00021762136
-0.00010022711
0.00022652018
-6.471606e-05
0.00022401147
-4.0812283e-05
0.00021731921
-2.493101e-05
0.000209654
-1.4548196e-05
0.00020301812
-7.7435232e-06
0.00019886747
-3.4648179e-06
0.00019879418
-1.0427982e-06
0.0002045201
0.009970086
-0.0012420207
0.0083702719
-0.0018301435
-0.0026839356
-0.0013436606
-0.011284786
0.00057478958
-0.010010021
0.0025151581
0.00029678116
0.0021069511
0.0073168543
0.00012348024
0.0076099302
-0.0019361222
0.0032121891
-0.0025604925
-0.0019535645
-0.0017127771
-0.0043909742
-0.00024367
-0.003795853
0.00079024054
-0.0018625921
0.0010128386
-0.00031325198
0.00066233931
0.00021351025
0.00024588862
0.00012222302
4.3101478e-05
-9.0397751e-05
2.5680356e-05
-0.00021694003
0.00010380654
-0.00022914963
0.00017992779
-0.00018437443
0.0002263944
-0.00012556534
0.00024296163
-7.9510432e-05
0.00024131731
-4.9632597e-05
0.00023283472
-3.0273959e-05
0.00022266538
-1.7984887e-05
0.00021309438
-1.0015963e-05
0.00020529534
-4.943875e-06
0.00020035149
-1.8536909e-06
0.00019961135
-3.229913e-07
0.00020484605
0.010955492
-0.0013997671
0.0085275796
-0.0013993233
-0.0032828793
-0.0012311958
-0.013170655
0.00054221046
-0.012177853
0.0027426288
0.00030752018
0.0025044138
0.0091308907
0.00029291472
0.010017098
-0.0022836937
0.004368357
-0.0030923002
-0.0023474258
-0.0021666308
-0.0057889492
-0.00031480773
-0.0051406186
0.0011011039
-0.0024635675
0.0013912218
-0.00020667055
0.00090626722
0.00057570373
0.00030015339
0.000400073
-3.1957307e-05
8.1465834e-06
-5.544319e-05
-0.00023920118
4.7937201e-05
-0.00028652117
0.0001611714
-0.00023749558
0.00023304224
-0.00016147464
0.00026229848
-9.9168006e-05
0.00026261626
-6.0050047e-05
0.00025173368
-3.5778552e-05
0.00023833964
-2.1195869e-05
0.00022587804
-1.2016176e-05
0.0002150975
-6.1512795e-06
0.00020650708
-2.4583115e-06
0.00020096057
-3.7438614e-07
0.00019966866
3.693006e-07
0.00020447933
0.011747185
-0.0017237477
0.0078732652
-0.00074544834
-0.0045613396
-0.00012085871
-0.015931084
0.0015292361
-0.01470229
0.0030666545
3.4348803e-05
0.0030157976
0.011234109
0.00040119466
0.012993455
-0.0026834428
0.0058075333
-0.0037228823
-0.0027789085
-0.0026608144
-0.0075751917
-0.00038039648
-0.0069148567
0.0014594374
-0.0032484067
0.0018859474
-4.6350723e-05
0.0012309091
0.0011191832
0.00036279352
0.00083491704
-0.00013469037
0.00017976348
-0.00020357821
-0.00024740294
-4.7251173e-05
-0.0003630063
0.00012440883
-0.00031347647
0.00023713741
-0.00021441799
0.00028597165
-0.00012685331
0.00028997275
-7.2808402e-05
0.00027536685
-4.1245153e-05
0.00025719542
-2.3831769e-05
0.00024097327
-1.3495877e-05
0.00022735791
-6.9477559e-06
0.0002158959
-2.7199833e-06
0.00020677247
-2.0326768e-07
0.00020079335
1.021962e-06
0.00019902136
1.0222895e-06
0.00020345929
0.012285783
-0.0020070028
0.0065349388
-0.00038541767
-0.0061663083
0.00085952422
-0.019387776
0.0033358359
-0.017507508
0.0043344616
-0.00068880379
0.003789807
0.013540741
0.00070916441
0.016487406
-0.0030927542
0.007508672
-0.0043845951
-0.0032485043
-0.0032532827
-0.0097324214
-0.0005035929
-0.0092264311
0.0019311818
-0.0042705933
0.0024816292
0.00019865996
0.0016409397
0.0018987838
0.00045131415
0.0014838395
-0.00028613227
0.00044985024
-0.00040478305
-0.00025619654
-0.00019479784
-0.00046360594
5.3330932e-05
-0.00042296858
0.00023388046
-0.00029282293
0.00031552134
-0.0001677245
0.00032682377
-8.9023537e-05
0.00030617226
-4.624506e-05
0.00028035477
-2.5140171e-05
0.00025849563
-1.3955643e-05
0.0002414285
-7.0634522e-06
0.00022747224
-2.494983e-06
0.00021567187
3.7717007e-07
0.00020619521
1.9142778e-06
0.00019990438
2.365865e-06
0.00019768277
1.6954242e-06
0.00020176574
0.01259537
-0.0022777217
0.0047833926
-0.00025545264
-0.0081273018
0.0015755796
-0.023066871
0.0045386222
-0.019197789
0.0050261227
-0.00014330047
0.0037889594
0.016411222
0.00091932318
0.020806163
-0.0036095884
0.0095484066
-0.0051325031
-0.0037606589
-0.0038724389
-0.012356022
-0.00062968778
-0.012197315
0.0024672897
-0.0055569461
0.0032175438
0.00052850686
0.0021517816
0.0029847076
0.00055502353
0.0023927354
-0.0004575873
0.0008491298
-0.00068541781
-0.00024819356
-0.00041280026
-0.00063094851
-2.7473356e-05
-0.00058677738
0.00021711792
-0.00041295628
0.00035399006
-0.00022920324
0.00037697656
-0.00011005079
0.0003478296
-4.9909282e-05
0.00030981793
-2.3739383e-05
0.00027893914
-1.2385216e-05
0.0002569147
-5.9678859e-06
0.00024032648
-1.5505339e-06
0.00022652508
1.4753775e-06
0.00021457362
3.2756037e-06
0.00020483646
3.9546775e-06
0.00019831835
3.7156012e-06
0.00019566708
2.3444673e-06
0.00019942281
0.012787338
-0.0025530055
0.0028507077
-0.0003450323
-0.010667861
0.0022851106
-0.026954592
0.0054633032
-0.019548759
0.0048895968
0.0023871245
0.0024956982
0.019862457
0.00033771887
0.026037099
-0.0043116106
0.011957812
-0.0060190082
-0.0043178968
-0.0045752681
-0.015393972
-0.00083449003
-0.015964955
0.0031379469
-0.0071629584
0.0040733166
0.00096940576
0.0027766424
0.0044518611
0.00068463852
0.0036633056
-0.00071555197
0.0014635341
-0.0010719969
-0.00020296329
-0.00073066086
-0.00087098113
-0.00017278369
-0.00082446786
0.00021019831
-0.00060053362
0.00040467404
-0.00032321059
0.00044797514
-0.00013953521
0.00040643897
-5.0758527e-05
0.00034865751
-1.7079937e-05
0.00030313907
-6.837654e-06
0.00027337548
-2.5840812e-06
0.00025351891
5.4521803e-07
0.00023822286
3.2462226e-06
0.00022475029
5.1599902e-06
0.0002126884
6.0503925e-06
0.0002027429
5.9440521e-06
0.00019609217
4.6665234e-06
0.00019334917
2.9631179e-06
0.00019646087
0.012941455
-0.0027543094
0.00084892681
-0.00055122038
-0.013728346
0.0027154561
-0.031020493
0.006351014
-0.018938269
0.0048528176
0.0059443722
0.0013323501
0.023871541
-0.0015133916
0.031551318
-0.0051765003
0.014125287
-0.0064791004
-0.0054452033
-0.0048917098
-0.018883549
-0.0010856893
-0.020690079
0.0038906241
-0.0090911726
0.0050661798
0.0015382108
0.0035045105
0.0063816791
0.00084683562
0.0053840393
-0.0010360971
0.0023071423
-0.001559166
-0.00014786342
-0.0011271062
-0.0012308776
-0.00037077788
-0.0012022145
0.00020494967
-0.00086719798
0.00047684771
-0.00047030539
0.00055175333
-0.00018178785
0.00049021145
-4.6404025e-05
0.00040206668
-1.3646228e-06
0.00033292342
5.7802457e-06
0.00029050314
4.8894419e-06
0.00026588618
4.6309867e-06
0.00024942069
5.9602033e-06
0.00023549993
7.6262561e-06
0.00022227923
8.6556321e-06
0.00021008163
8.7340603e-06
0.00019995464
7.8437845e-06
0.00019291663
6.1694946e-06
0.0001901465
3.599674e-06
0.00019286206
0.013080645
-0.0027841971
-0.0011330609
-0.00077231732
-0.017239966
0.0029604028
-0.035085909
0.0067808747
-0.017346992
0.0047597409
0.0093667311
0.0014304631
0.028298739
-0.0030948509
0.0359266
-0.0058886732
0.015626117
-0.0066773424
-0.0075143036
-0.0044100112
-0.022575125
-0.0012001282
-0.026546686
0.0047709078
-0.011389627
0.0061890979
0.0022463529
0.004358041
0.0088586157
0.0010275811
0.0076641707
-0.0014332923
0.0034178225
-0.0021467869
-4.3295851e-05
-0.0016637397
-0.0016973069
-0.00066068945
-0.0017625298
0.00018952962
-0.0012520649
0.00058980849
-0.00068547672
0.00069201265
-0.00024466439
0.0006146235
-3.3467366e-05
0.00047726651
2.9941303e-05
0.00037074925
3.0820052e-05
0.00030786947
1.9655099e-05
0.00027572249
1.2234354e-05
0.00025826848
1.0155274e-05
0.00024521319
1.0757592e-05
0.00023235912
1.1744315e-05
0.0002191852
1.201611e-05
0.00020679767
1.1319816e-05
0.0001964801
9.7773098e-06
0.00018931006
7.3206616e-06
0.00018642896
4.0726508e-06
0.00018878996
0.01319745
-0.002573585
-0.0029820082
-0.0009352454
-0.021030284
0.003018003
-0.038836461
0.0067109578
-0.015147663
0.0045815507
0.01305453
0.0010719459
0.032781677
-0.0030524751
0.039355969
-0.006524218
0.015555268
-0.005817829
-0.010428286
-0.0037633701
-0.026385033
-0.00060009351
-0.033440652
0.0056938317
-0.014066386
0.0074476821
0.0031279491
0.0053075112
0.011954843
0.0012618126
0.010605414
-0.0019136537
0.0048908746
-0.0029063609
0.00011791715
-0.0023080049
-0.0023233813
-0.0010376787
-0.0025653359
0.00014211113
-0.0018209363
0.00075839784
-0.00099069543
0.00089502811
-0.00033855288
0.00078590479
-4.0378319e-06
0.00058519731
8.6279261e-05
0.00042092869
7.659952e-05
0.00032496541
4.6860669e-05
0.00028065559
2.5802028e-05
0.00026214397
1.6696392e-05
0.00025171515
1.4718707e-05
0.0002412404
1.5236043e-05
0.00022885777
1.5715083e-05
0.00021548086
1.52417e-05
0.00020287358
1.3731194e-05
0.00019252746
1.1335126e-05
0.00018529634
8.2418838e-06
0.00018226285
4.5250766e-06
0.00018426516
0.013304274
-0.002139869
-0.0045499988
-0.0010055897
-0.024810372
0.0028448454
-0.042107227
0.0062887728
-0.012695912
0.0042592118
0.016677636
0.00095844659
0.038168726
-0.0043151054
0.042495295
-0.0061918019
0.013923417
-0.0048923711
-0.014260874
-0.0019852479
-0.032810846
0.002662454
-0.041246145
0.0072053998
-0.017759844
0.0093873018
0.0041676805
0.0064079657
0.015761887
0.0015004558
0.014354778
-0.0024875425
0.0067403306
-0.0037631323
0.00035739022
-0.0031458421
-0.0031115889
-0.0015198113
-0.0036767115
7.3689456e-05
-0.0026517534
0.00097292751
-0.0014233135
0.0011910193
-0.00046325131
0.0010197362
4.2683666e-05
0.00073919528
0.000184515
0.00048697287
0.00015578849
0.00034174731
9.4016539e-05
0.00027781198
4.9132188e-05
0.00025732316
2.7000066e-05
0.00025183367
1.9709054e-05
0.00024671499
1.8944392e-05
0.00023752129
1.9615006e-05
0.00022494874
1.9559428e-05
0.00021115798
1.8276588e-05
0.0001983259
1.5974286e-05
0.00018788943
1.2804622e-05
0.00018073396
9.1151383e-06
0.00017767575
4.902905e-06
0.00017936227
0.013412
-0.0015212984
-0.0057225353
-0.00096732754
-0.028279544
0.0024635842
-0.044909945
0.0056475667
-0.010194943
0.0037878102
0.019973506
0.00096334482
0.044263164
-0.005135995
0.045151821
-0.0069716349
0.012740202
-0.005008597
-0.018599972
-0.00055328567
-0.040547347
0.0057512639
-0.049734617
0.01115093
-0.022461583
0.011907146
0.0059344411
0.0076205594
0.020390856
0.0017789803
0.019009901
-0.0031546605
0.0090636483
-0.0048108823
0.00067756002
-0.004083317
-0.0041101382
-0.0021473023
-0.0051541822
-4.2353281e-05
-0.0038421617
0.0012641001
-0.0020443816
0.001593997
-0.00062321493
0.0013509935
0.00012263401
0.00093979984
0.00034532356
0.00057840337
0.00028537845
0.00035739902
0.00017320614
0.00026257003
8.8138404e-05
0.00023881401
4.3090996e-05
0.00024123509
2.5970027e-05
0.00024557003
2.2460847e-05
0.00024319104
2.3262983e-05
0.00023386404
2.3972557e-05
0.00022052737
2.3237565e-05
0.00020619244
2.1084964e-05
0.00019321286
1.789525e-05
0.00018279981
1.4066166e-05
0.00017578288
9.8136594e-06
0.00017276776
5.1346577e-06
0.00017422741
-0.00073281424
0.013483431
-0.0064582433
-0.00078558515
-0.03117217
0.0019253003
-0.047056827
0.0046104689
-0.0077246619
0.0031772929
0.022745385
0.0010159361
0.050616019
-0.0053895129
0.047536353
-0.0075205286
0.010892287
-0.0051237242
-0.021095729
-0.0025128561
-0.048388082
0.0072874549
-0.056993152
0.013009799
-0.023758614
0.012447963
0.0096637792
0.0081778266
0.026211269
0.0018001291
0.024705782
-0.0039169005
0.011857802
-0.0059488258
0.0011049479
-0.0052382912
-0.0053061693
-0.0028872822
-0.0071294053
-0.00017209535
-0.0055007799
0.0016162741
-0.0029241533
0.0021438712
-0.00083870826
0.0018094994
0.0002662438
0.0012073944
0.00058342179
0.00070171608
0.00049562535
0.00036817383
0.000300546
0.00023007512
0.00015091161
0.00019981194
6.8093953e-05
0.00021382279
3.3765687e-05
0.00023344607
2.4995778e-05
0.00024303542
2.5752908e-05
0.00024069563
2.7830623e-05
0.00022999839
2.8273823e-05
0.0002154842
2.6689027e-05
0.00020058436
2.3597362e-05
0.00018750846
1.9591625e-05
0.00017727539
1.5097814e-05
0.0001704984
1.0293772e-05
0.00016761133
5.3438644e-06
0.00016888314
-0.00046388131
-0.006727171
0.00013141134
0.013527982
-0.033216526
0.0012587724
-0.048580682
0.0034491589
-0.0056353654
0.0025211794
0.024901824
0.0010208586
0.056697301
-0.0050653497
0.049768055
-0.0076212196
0.0086401724
-0.0052684102
-0.023911243
-0.0023082221
-0.054633831
0.0037328997
-0.062792717
0.013087022
-0.021391411
0.010642586
0.015671499
0.0064402599
0.033260409
0.0011286734
0.031348574
-0.0048426668
0.015188205
-0.0072472975
0.0016316682
-0.0064755682
-0.0067399903
-0.0038044472
-0.0096212254
-0.00039547414
-0.0077498574
0.0020770019
-0.0041542766
0.0028464011
-0.0011200106
0.0024251824
0.00050772734
0.0015680235
0.00094626345
0.00084456024
0.00082279002
0.00037456355
0.00049923751
0.00016949384
0.0002503794
0.00013062133
0.00010638751
0.00016153305
4.3253626e-05
0.00020434778
2.5079196e-05
0.00023337162
2.5499713e-05
0.00024329067
2.9943003e-05
0.00023857975
3.2644766e-05
0.00022562205
3.2421865e-05
0.00020974567
2.9823118e-05
0.00019435526
2.5769166e-05
0.00018132868
2.0973858e-05
0.0001714004
1.5864113e-05
0.00016492744
1.0690864e-05
0.00016226692
5.4363474e-06
0.00016344623
0.00053441567
-0.034214821
-9.5655369e-05
-0.0065000993
0.00093937361
0.013652003
-0.04947825
0.0021563437
-0.0040978122
0.0019116123
0.026273483
0.0011495238
0.061962446
-0.0042442879
0.051977529
-0.0072748325
0.0063656409
-0.0053466869
-0.027020148
-0.0021595153
-0.061065788
0.0041237399
-0.069007453
0.0099476496
-0.017249168
0.0089447714
0.02234234
0.0039717612
0.040536933
-0.00083627108
0.0387391
-0.0062618626
0.019006746
-0.0086611853
0.0022754786
-0.007891125
-0.0083678355
-0.0048476841
-0.012773112
-0.00065255854
-0.010758961
0.0026136569
-0.0058453115
0.0037680548
-0.0014993786
0.0032257795
0.00089169639
0.0020412248
0.0015024963
0.0010117922
0.0013002339
0.00036712257
0.00080461284
6.9190879e-05
0.00040008476
1.9794299e-05
0.00016313766
7.3880635e-05
5.4514829e-05
0.00015028343
2.0481243e-05
0.00020895865
1.9873724e-05
0.0002390065
2.8249055e-05
0.00024498736
3.5057598e-05
0.00023616555
3.7567532e-05
0.0002204729
3.6291976e-05
0.00020327232
3.2565731e-05
0.0001875559
2.7548893e-05
0.00017475164
2.2023402e-05
0.00016524232
1.6404686e-05
0.00015921285
1.0871719e-05
0.00015683414
5.4554229e-06
0.0001579901
0.0007554238
-0.049699255
-0.00020670316
-0.034103771
0.00023454126
-0.0057952624
0.001723363
0.013790816
-0.0031667594
0.001225297
0.027288337
0.00089676198
0.066254509
-0.0031425389
0.054398152
-0.0066649218
0.0043530847
-0.0052622797
-0.030338784
-0.0020280611
-0.067628665
0.0044033563
-0.074831262
0.0099475653
-0.016382896
0.0090813769
0.028623531
0.0026635937
0.047792871
-0.0032841749
0.045826267
-0.0079234521
0.022819782
-0.010074871
0.0030104405
-0.009396158
-0.010187963
-0.0060709584
-0.016578512
-0.0010422649
-0.014702445
0.0032909479
-0.0081353362
0.0049037191
-0.001988116
0.0042568017
0.0014718195
0.0026456791
0.0023274612
0.0012162603
0.0019740517
0.00033798039
0.0012490618
-7.7329731e-05
0.00061629031
-0.00014701802
0.00024539046
-6.2458614e-05
6.682566e-05
6.1572294e-05
7.3097089e-06
0.00016346402
4.6849253e-06
0.00022415779
1.9414082e-05
0.00024784844
3.3304804e-05
0.00024674365
4.0886291e-05
0.0002328475
4.238905e-05
0.00021437399
3.975757e-05
0.00019607681
3.4845313e-05
0.00018025737
2.8913707e-05
0.00016785955
2.273531e-05
0.00015891305
1.6694702e-05
0.00015338893
1.0932777e-05
0.00015135935
5.4335927e-06
0.00015255569
0.0003538503
-0.0027651805
-0.00078056864
-0.049125387
-0.0007450091
-0.033124217
0.0006489371
-0.0047208326
0.0025367845
0.013738092
0.028090062
0.00042357329
0.069321205
-0.0021699324
0.057122489
-0.0058668855
0.0025864319
-0.0048982763
-0.033686717
-0.001914354
-0.074075649
0.0044189165
-0.08014104
0.0097131419
-0.015555321
0.0091199874
0.030440467
0.0072644465
0.055353181
-0.0048967122
0.052306753
-0.0097646792
0.026492305
-0.011595951
0.0038620844
-0.010926524
-0.012157129
-0.0074269713
-0.021143655
-0.0015057854
-0.019804062
0.0040593513
-0.011158349
0.0063140102
-0.0026183855
0.0055339893
0.0023324896
0.003396165
0.0035204244
0.0014527193
0.0029192753
0.00027104834
0.0018625399
-0.00027549879
0.00092237609
-0.00038342172
0.0003575321
-0.0002591656
7.746548e-05
-7.3106419e-05
-1.9906887e-05
8.8788436e-05
-2.6424314e-05
0.00019457862
-1.707241e-06
0.00024528446
2.3893547e-05
0.00025726459
4.0292536e-05
0.00024734179
4.7074841e-05
0.00022816383
4.6907375e-05
0.00020722317
4.2725689e-05
0.00018819361
3.6559931e-05
0.00017260966
2.983965e-05
0.00016075378
2.3115973e-05
0.00015249336
1.6762222e-05
0.00014755851
1.0867989e-05
0.00014592755
5.3201342e-06
0.00014723466
6.3747169e-05
0.028380166
-0.00050825112
-0.0030374932
-0.0021043725
-0.04776602
-0.0012399711
-0.031235306
0.001070789
-0.003254834
0.0033087437
0.01343846
0.07106911
-0.00132433
0.05939734
-0.0044447913
0.00091922586
-0.00419969
-0.036743361
-0.0018416329
-0.080243033
0.0042530271
-0.084919329
0.0091972166
-0.014622417
0.0087802314
0.031930676
0.0076297797
0.061053943
0.0015636834
0.059006286
-0.011596262
0.029589998
-0.012862353
0.0047357451
-0.012469619
-0.014205192
-0.0088784697
-0.026406576
-0.002164023
-0.026296231
0.0049863491
-0.01510725
0.0080082929
-0.0034065391
0.0071021496
0.0035717146
0.0042947937
0.0051873875
0.0017292087
0.0042201776
0.00015183217
0.0026952547
-0.00056165782
0.0013506774
-0.00070380122
0.00050656998
-0.0005324616
8.4204161e-05
-0.00026591626
-7.0077239e-05
-2.2944203e-05
-8.2635259e-05
0.00014499743
-4.2837989e-05
0.00023570863
1.5532502e-06
0.00026762525
3.2580639e-05
0.00026498048
4.8563905e-05
0.00024585778
5.3229215e-05
0.0002218445
5.0915581e-05
0.0001990328
4.5119128e-05
0.00017963228
3.785574e-05
0.00016459285
3.0343055e-05
0.00015352557
2.319708e-05
0.00014606026
1.6646787e-05
0.00014177864
1.0670317e-05
0.00014057997
5.1942874e-06
0.0001420394
-0.00024741099
0.071380269
-8.9687197e-05
0.027961602
-0.0015071528
-0.0036347084
-0.0033818498
-0.045624138
-0.001832815
-0.028331698
0.0013561709
-0.0013022585
0.0038188191
0.012912217
0.060672121
-0.0025991163
-0.00039221233
-0.0031333651