/*--------------------------------*- C++ -*----------------------------------*\
| =========                 |                                                 |
| \\      /  F ield         | OpenFOAM: The Open Source CFD Toolbox           |
|  \\    /   O peration     | Version:  5.0                                   |
|   \\  /    A nd           | Web:      www.OpenFOAM.org                      |
|    \\/     M anipulation  |                                                 |
\*---------------------------------------------------------------------------*/
FoamFile
{
    version     2.0;
    format      ascii;
    class       volScalarField;
    location    "80";
    object      nut;
}
// * * * * * * * * * * * * * * * * * * * * * * * * * * * * * * * * * * * * * //

dimensions      [0 2 -1 0 0 0 0];

internalField   nonuniform List<scalar> 
9520
(
2.8825175e-114
3.5315737e-106
2.7229769e-114
2.5093397e-99
3.3533027e-106
2.5992559e-114
3.1946165e-93
2.3911477e-99
3.2138284e-106
2.4941877e-114
1.1617316e-87
3.0531814e-93
2.2973169e-99
3.092259e-106
2.3920458e-114
1.560653e-82
1.1131162e-87
2.9387786e-93
2.2131478e-99
2.9698897e-106
2.2812838e-114
9.1227603e-78
1.4985833e-82
1.0729779e-87
2.8329805e-93
2.1259077e-99
2.8342882e-106
2.1585101e-114
2.596812e-73
8.7748598e-78
1.4462196e-82
1.0347563e-87
2.7205617e-93
2.0281863e-99
2.6840705e-106
2.03044e-114
3.9113618e-69
2.5010232e-73
8.4749517e-78
1.3950028e-82
9.9335602e-88
2.5941492e-93
1.9210245e-99
2.530313e-106
1.9114449e-114
3.3219569e-65
3.7702087e-69
2.416829e-73
8.1749438e-78
1.3387909e-82
9.4689207e-88
2.4576709e-93
1.8140756e-99
2.3922143e-106
1.8173718e-114
1.6736116e-61
3.2032489e-65
3.6443145e-69
2.3312028e-73
7.8436188e-78
1.2761507e-82
8.9769711e-88
2.3253783e-93
1.721609e-99
2.2887188e-106
1.758641e-114
5.2118965e-58
1.6134414e-61
3.096476e-65
3.5152031e-69
2.2366771e-73
7.4789841e-78
1.2113377e-82
8.5152216e-88
2.2156979e-93
1.6561525e-99
2.2300256e-106
1.7351242e-114
1.0383051e-54
5.0198703e-58
1.5592567e-61
2.9869599e-65
3.3736457e-69
2.1343724e-73
7.1117067e-78
1.1526302e-82
8.1496702e-88
2.1428092e-93
1.6225897e-99
2.2116778e-106
1.7335634e-114
1.3624658e-51
9.9832678e-55
4.8487722e-58
1.5043917e-61
2.8686042e-65
3.2235531e-69
2.0343894e-73
6.7920865e-78
1.1085072e-82
7.9235696e-88
2.109424e-93
1.6143484e-99
2.2120991e-106
1.7282741e-114
1.208504e-48
1.3067668e-51
9.6364309e-55
4.6805207e-58
1.4465327e-61
2.7461937e-65
3.0817097e-69
1.9512423e-73
6.5660107e-78
1.0834353e-82
7.8325648e-88
2.102557e-93
1.6123865e-99
2.1951362e-106
1.687221e-114
7.4035361e-46
1.1550644e-48
1.2604057e-51
9.3113199e-55
4.509061e-58
1.3883234e-61
2.6347246e-65
2.9698108e-69
1.8966193e-73
6.4505021e-78
1.074752e-82
7.8120515e-88
2.0934703e-93
1.5885383e-99
2.1204162e-106
1.5843644e-114
3.1991971e-43
7.0461434e-46
1.1132934e-48
1.2200117e-51
8.9950893e-55
4.3415272e-58
1.3373966e-61
2.552139e-65
2.9030021e-69
1.8724966e-73
6.4170279e-78
1.0714183e-82
7.7426536e-88
2.0442603e-93
1.514998e-99
1.9609103e-106
1.4134235e-114
9.9377436e-41
3.025947e-43
6.7853313e-46
1.0804575e-48
1.1831005e-51
8.6949629e-55
4.2009585e-58
1.3024435e-61
2.5090133e-65
2.8796163e-69
1.8668768e-73
6.3874361e-78
1.0556843e-82
7.4836579e-88
1.9224965e-93
1.3777987e-99
1.7187707e-106
1.1932413e-114
2.2999599e-38
9.3266441e-41
2.9113152e-43
6.6107935e-46
1.053038e-48
1.1488667e-51
8.4526543e-55
4.1131899e-58
1.2876539e-61
2.4998647e-65
2.87555e-69
1.8537629e-73
6.250098e-78
1.0089329e-82
6.9342414e-88
1.7185913e-93
1.1860721e-99
1.4268017e-106
9.5906622e-115
4.0843474e-36
2.139397e-38
8.9671299e-41
2.8521784e-43
6.4874319e-46
1.027871e-48
1.1219167e-51
8.317923e-55
4.088252e-58
1.2882614e-61
2.4990524e-65
2.8462879e-69
1.7998339e-73
5.9019955e-78
9.2068541e-83
6.0930831e-88
1.4537526e-93
9.6885162e-100
1.1324038e-106
7.4558696e-115
7.7448346e-34
3.8011846e-36
2.0665958e-38
8.8587585e-41
2.8245788e-43
6.3707281e-46
1.0078659e-48
1.1088919e-51
8.3073216e-55
4.1058078e-58
1.2888041e-61
2.4644975e-65
2.7404383e-69
1.6785618e-73
5.3036106e-78
7.9553117e-83
5.0696654e-88
1.1703873e-93
7.6064278e-100
8.7565128e-107
5.7388481e-115
5.5321777e-30
1.0590615e-33
3.7866339e-36
2.0835771e-38
8.8872682e-41
2.7939266e-43
6.2676011e-46
9.994918e-49
1.1122099e-51
8.373769e-55
4.1106781e-58
1.2661351e-61
2.3524471e-65
2.523851e-69
1.4857172e-73
4.50978e-78
6.5196366e-83
4.0307382e-88
9.1124834e-94
5.8648683e-100
6.7654057e-107
4.4896009e-115
5.2572422e-24
6.0767279e-29
2.2046777e-33
4.112992e-36
2.1487119e-38
8.8700187e-41
2.7561069e-43
6.2283658e-46
1.006342e-48
1.1258638e-51
8.3976806e-55
4.026305e-58
1.1988383e-61
2.1401503e-65
2.2015659e-69
1.2445796e-73
3.646511e-78
5.1309223e-83
3.1209674e-88
7.026852e-94
4.5592715e-100
5.3587602e-107
3.6496563e-115
2.578965e-18
9.7380058e-23
9.0391582e-28
7.236819e-33
4.7839861e-36
2.1874356e-38
8.7616254e-41
2.7410146e-43
6.2953245e-46
1.0245269e-48
1.1335464e-51
8.221409e-55
3.7921287e-58
1.080135e-61
1.8426284e-65
1.81932e-69
9.9479182e-74
2.8476918e-78
3.9623556e-83
2.4141096e-88
5.5106037e-94
3.6610156e-100
4.4340053e-107
3.1169522e-115
2.628047e-13
3.8094323e-17
1.8407234e-21
1.2880255e-26
3.2419766e-32
5.7609409e-36
2.1608633e-38
8.7042668e-41
2.7839734e-43
6.4655889e-46
1.03988e-48
1.1139884e-51
7.7376867e-55
3.3922515e-58
9.1934977e-62
1.504769e-65
1.4405227e-69
7.7284993e-74
2.1995667e-78
3.0830005e-83
1.9141176e-88
4.4909077e-94
3.0807486e-100
3.8534046e-107
2.7855799e-115
7.6668237e-09
2.6065499e-12
6.3718263e-16
2.8175403e-20
1.476889e-25
1.5661694e-31
6.4020604e-36
2.1573782e-38
8.9078119e-41
2.9005531e-43
6.6616674e-46
1.0328285e-48
1.0535175e-51
6.8840752e-55
2.8555455e-58
7.4256667e-62
1.1823645e-65
1.1162202e-69
5.9865329e-74
1.725689e-78
2.4757165e-83
1.5839739e-88
3.8390996e-94
2.715457e-100
3.4825942e-107
2.5598112e-115
4.9010258e-05
3.9494213e-08
3.6122645e-11
8.9122458e-15
3.2164249e-19
1.06815e-24
2.2662311e-31
1.0018132e-35
2.3887196e-38
9.5484804e-41
3.0668158e-43
6.7549858e-46
9.8869354e-49
9.3464106e-52
5.7309546e-55
2.2815783e-58
5.7976673e-62
9.1563929e-66
8.6922432e-70
4.7450692e-74
1.4049915e-78
2.0798549e-83
1.3731287e-88
3.4203903e-94
2.4688049e-100
3.2025021e-107
2.3581532e-115
0.00062403405
6.3820603e-05
4.016092e-07
4.5151715e-10
9.3163053e-14
1.9799639e-18
1.0993117e-24
8.3709465e-31
4.1801147e-35
3.3583934e-38
1.0734255e-40
3.2234206e-43
6.6079268e-46
8.7719092e-49
7.6891016e-52
4.5250207e-55
1.7711406e-58
4.4945847e-62
7.1826764e-66
6.9708912e-70
3.9182686e-74
1.197187e-78
1.8240357e-83
1.2318785e-88
3.1127312e-94
2.2577357e-100
2.9160704e-107
2.1202912e-115
0.0020752765
0.0005540948
0.00012583879
3.9211471e-06
4.2422224e-09
4.8789336e-13
1.6307596e-18
1.5325509e-24
2.5363357e-29
5.6365043e-34
7.3953192e-38
1.2666087e-40
3.2746434e-43
5.8872078e-46
7.1132799e-49
5.9828292e-52
3.4905451e-55
1.3763728e-58
3.5554449e-62
5.8334665e-66
5.8370736e-70
3.3809738e-74
1.0591562e-78
1.6411794e-83
1.1166362e-88
2.8153827e-94
2.0196753e-100
2.5611548e-107
1.8181243e-115
0.003770273
0.0017366033
0.00065448721
0.00023052697
2.2359172e-05
1.8977144e-08
3.5925651e-13
9.3788311e-19
3.3394653e-23
1.3159481e-27
1.6273076e-32
3.3146505e-37
1.5726151e-40
2.9514285e-43
4.6865388e-46
5.4228464e-49
4.5748386e-52
2.7208224e-55
1.0995802e-58
2.9246188e-62
4.9489078e-66
5.0899075e-70
3.0076671e-74
9.518707e-79
1.4748033e-83
9.938428e-89
2.4616612e-94
1.723704e-100
2.1241766e-107
1.4616978e-115
0.0054627742
0.0032093231
0.0017640585
0.00093430461
0.00036695848
5.0968829e-05
1.3125232e-08
1.1517466e-13
9.4346833e-18
1.5157404e-21
6.3930407e-26
6.0835913e-31
2.6072721e-36
1.6279308e-40
2.2850507e-43
3.4682184e-46
4.0898318e-49
3.5742565e-52
2.197814e-55
9.1611338e-59
2.5105087e-62
4.3497804e-66
4.5374901e-70
2.6890207e-74
8.4431438e-79
1.2858845e-83
8.4561472e-89
2.0331237e-94
1.3773e-100
1.6398502e-107
1.0906757e-115
0.0071026813
0.0047396173
0.003131659
0.0021866548
0.001307906
0.00047159642
4.063802e-05
2.9355207e-09
5.0580203e-13
3.1198445e-16
6.1868402e-20
2.5548694e-24
1.5596765e-29
6.9208549e-36
1.1078695e-40
1.6113124e-43
2.5589509e-46
3.197392e-49
2.9211031e-52
1.8557217e-55
7.9408345e-59
2.2181038e-62
3.8718929e-66
4.020316e-70
2.3451668e-74
7.1841146e-79
1.060801e-83
6.7363588e-89
1.5607075e-94
1.0185153e-100
1.1699092e-107
7.5288561e-116
0.0085586012
0.00625175
0.0045626708
0.0035911715
0.0027632771
0.0015351863
0.00042237863
1.270565e-05
5.669593e-09
1.1451805e-11
1.0155637e-14
1.9864837e-18
5.7789862e-23
5.4235838e-29
2.1042211e-36
6.0673411e-41
1.1471607e-43
1.9969518e-46
2.6464868e-49
2.5015597e-52
1.6232472e-55
7.0299215e-59
1.9647641e-62
3.3871229e-66
3.4354711e-70
1.9412635e-74
5.7299883e-79
8.1307388e-84
4.9583733e-89
1.104176e-94
6.9429332e-101
7.7134123e-108
4.82523e-116
0.0098047939
0.0076273624
0.0059760453
0.0049871189
0.0042336828
0.0030237879
0.0013639989
0.00028192395
1.1482682e-05
8.1562604e-08
2.9451623e-10
2.5736434e-13
3.5829943e-17
1.7994527e-22
1.1705393e-29
1.1482174e-37
3.8041066e-41
8.9033902e-44
1.6722728e-46
2.3015754e-49
2.2088879e-52
1.4361934e-55
6.1764069e-59
1.691495e-62
2.8272171e-66
2.7594525e-70
1.4939778e-74
4.2190252e-79
5.7325764e-84
3.355201e-89
7.196183e-95
4.3788524e-101
4.735165e-108
2.8981066e-116
0.010837017
0.0088339682
0.007271989
0.0063235743
0.0055928601
0.0044403636
0.0026711383
0.00096573405
0.00023472032
4.9900625e-05
1.5472865e-06
5.8661124e-09
3.6667456e-12
9.8405286e-17
3.8438447e-23
1.1702011e-31
1.3649429e-38
2.8749654e-41
7.5241079e-44
1.478372e-46
2.0548478e-49
1.9527373e-52
1.245878e-55
5.2174606e-59
1.3756907e-62
2.1991068e-66
2.0462847e-70
1.0560414e-74
2.8490989e-79
3.712861e-84
2.0944052e-89
4.3545638e-95
2.5859921e-101
2.7493449e-108
1.6615617e-116
0.01166598
0.0098636119
0.0084196685
0.007523904
0.0068243083
0.0056976121
0.0039260033
0.0019873598
0.00075897566
0.00034245113
0.00015022123
1.7421691e-05
6.5054062e-08
8.8895272e-12
2.1729774e-17
3.9650212e-25
2.2083751e-34
7.148891e-39
2.4465498e-41
6.7691952e-44
1.3394988e-46
1.8172121e-49
1.6699526e-52
1.0296612e-55
4.1256706e-59
1.034828e-62
1.5703094e-66
1.3887006e-70
6.8371065e-75
1.7694325e-79
2.2266438e-84
1.2215768e-89
2.4894098e-95
1.4610691e-101
1.545488e-108
9.3500978e-117
0.01231233
0.010721433
0.0094089829
0.0085638476
0.0078784236
0.0068056116
0.0050628268
0.0030376856
0.0015680859
0.00093148657
0.0006072454
0.00029489978
6.568156e-05
1.3788082e-07
2.0684815e-12
2.8072994e-19
4.6163857e-28
3.8361212e-36
5.8798597e-39
2.2506078e-41
6.265013e-44
1.1892016e-46
1.5320488e-49
1.3422469e-52
7.9029509e-56
2.9982082e-59
7.1156119e-63
1.0241199e-66
8.6357575e-71
4.0841837e-75
1.0239398e-79
1.2595576e-84
6.8165916e-90
1.3831308e-95
8.1578042e-102
8.7136131e-109
5.3605086e-117
0.012800476
0.011418669
0.010239153
0.0094391715
0.0087552067
0.0077276987
0.0060812735
0.0040444953
0.0024604036
0.0017579598
0.0014585467
0.0010102513
0.00046039323
8.5169811e-05
3.4445317e-08
3.4969066e-14
5.0696196e-22
4.0944014e-31
1.2574229e-36
5.5709952e-39
2.1490848e-41
5.6234022e-44
9.8989902e-47
1.1961345e-49
9.9720127e-53
5.5455687e-56
1.9860969e-59
4.4673773e-63
6.1355971e-67
4.9829845e-71
2.2943191e-75
5.6623082e-80
6.9323654e-85
3.7733509e-90
7.7775323e-96
4.693538e-102
5.1544615e-109
3.2750997e-117
0.013151948
0.011966897
0.010913076
0.010150864
0.0094636917
0.0084778705
0.0069389851
0.0049914268
0.0033554335
0.0026382762
0.0024919272
0.0022039455
0.0014148587
0.00050572683
4.4364655e-05
7.8850327e-10
1.0267796e-16
5.1199359e-25
2.689838e-33
1.2132681e-36
5.6157362e-39
1.9739746e-41
4.6390938e-44
7.4986607e-47
8.529599e-50
6.7547372e-53
3.5424702e-56
1.2031662e-59
2.5888527e-63
3.4397612e-67
2.7380827e-71
1.2527584e-75
3.1127482e-80
3.8830599e-85
2.1763491e-90
4.6602776e-96
2.9304915e-102
3.3636037e-109
2.2346683e-117
0.013392182
0.012373575
0.011433376
0.010701969
0.010010919
0.0090807717
0.0076524479
0.0058253146
0.0042253717
0.003490129
0.0034746853
0.0034701301
0.0028236816
0.0014787554
0.00036529294
3.0515165e-06
3.7116059e-12
1.7254466e-19
1.4458866e-27
2.912558e-33
1.7807265e-36
5.4792103e-39
1.6263213e-41
3.4054454e-44
5.1220294e-47
5.5717812e-50
4.1661387e-53
2.0770336e-56
6.7774683e-60
1.4201975e-63
1.8666125e-67
1.4940048e-71
6.9813182e-76
1.7956698e-80
2.34414e-85
1.3859335e-90
3.1439327e-96
2.0907045e-102
2.5338189e-109
1.7692488e-117
0.012639767
0.013520062
0.01180044
0.01109565
0.010402109
0.0095470749
0.0082640314
0.0065515053
0.0050240145
0.0042905643
0.0043437205
0.0045342081
0.0041579492
0.0028293612
0.0011008799
0.00016001227
2.5528563e-08
1.0545722e-14
1.1212149e-21
3.1028283e-27
5.66337e-32
3.4972061e-36
4.6579439e-39
1.1565144e-41
2.2149917e-44
3.1894425e-47
3.322957e-50
2.3724973e-53
1.1440916e-56
3.6690945e-60
7.6966367e-64
1.0322139e-67
8.5814632e-72
4.227235e-76
1.1584032e-80
1.6212964e-85
1.0300667e-90
2.5014776e-96
1.7693553e-102
2.2647605e-109
1.6553262e-117
0.012011687
0.012759223
0.013490126
0.011334298
0.010643946
0.0098761628
0.0087813597
0.0072011299
0.0057404904
0.0050197084
0.0050790654
0.0053791831
0.0051817696
0.0040636928
0.0021656707
0.00057070604
2.1219022e-05
1.248723e-10
1.8446102e-16
4.3396941e-21
1.9104827e-25
1.2730681e-30
5.4719418e-36
3.1917843e-39
7.1107876e-42
1.3046945e-44
1.8403811e-47
1.8451452e-50
1.2865388e-53
6.1726092e-57
2.0114053e-60
4.3809774e-64
6.2213218e-68
5.5599329e-72
2.971466e-76
8.8643905e-81
1.3483479e-85
9.2607165e-91
2.4009691e-96
1.7949338e-102
2.4025958e-109
1.8166998e-117
0.011418811
0.012064474
0.012729785
0.013282972
0.010745056
0.010076166
0.0091838361
0.0077751919
0.0063819975
0.0056668973
0.0057109707
0.0060241902
0.0059341503
0.0049996927
0.0031993324
0.0012473603
0.00021628247
2.9777862e-07
5.8472182e-12
1.0916258e-15
2.3228046e-19
6.4582464e-24
6.7203763e-30
3.3122034e-36
1.7840062e-39
3.9244135e-42
7.2369873e-45
9.9978836e-48
9.9237136e-51
6.9930028e-54
3.471381e-57
1.1981553e-60
2.8205989e-64
4.3906478e-68
4.3285312e-72
2.5492116e-76
8.3251659e-81
1.3722205e-85
1.0080599e-90
2.7519051e-96
2.1405783e-102
2.9486665e-109
2.2718268e-117
0.010711639
0.011351905
0.011957527
0.012561763
0.012881216
0.010161372
0.0094600147
0.0082616664
0.0069521316
0.006236147
0.0062406072
0.0065338036
0.0064917378
0.005702308
0.0040447092
0.0020029627
0.00056508339
5.3678618e-05
3.6814371e-08
4.5761077e-11
4.5225354e-14
6.7723779e-18
3.7410568e-23
3.7118076e-30
7.6690165e-37
8.9438498e-40
2.0684893e-42
3.8573458e-45
5.3709269e-48
5.4978776e-51
4.0943404e-54
2.2000352e-57
8.3785361e-61
2.2003814e-64
3.8277094e-68
4.189339e-72
2.7059123e-76
9.5505776e-81
1.6757647e-85
1.2884628e-90
3.6294751e-96
2.8825421e-102
4.0186338e-109
3.110567e-117
0.010123961
0.010552102
0.011137154
0.011718646
0.012228453
0.01226988
0.0096298773
0.0086484644
0.007448614
0.0067350062
0.0066808521
0.0069188659
0.0068977876
0.0062540933
0.0047656749
0.0027084149
0.0010465951
0.00026634593
2.7769544e-05
3.3222689e-07
1.4327788e-09
1.0685544e-12
3.6014157e-17
2.1520632e-23
1.3764652e-31
1.8349203e-37
4.4063688e-40
1.081064e-42
2.084335e-45
3.0668877e-48
3.4005141e-51
2.8036465e-54
1.694078e-57
7.2978674e-61
2.1579752e-64
4.1733714e-68
4.9903727e-72
3.4569033e-76
1.2862029e-80
2.344114e-85
1.840649e-90
5.2446241e-96
4.1824083e-102
5.8220277e-109
4.4798917e-117
0.0096784128
0.0099668733
0.010269103
0.010789834
0.011340562
0.011715638
0.011436532
0.0089335646
0.0078668066
0.0071685722
0.0070473628
0.0072029528
0.0071692522
0.0066582799
0.0054002552
0.0034213809
0.0015927465
0.00062875231
0.00026166305
9.4952849e-05
6.6310835e-06
2.6360045e-08
5.0517701e-12
2.1369942e-17
7.7673394e-25
6.1489815e-34
7.2503498e-38
2.2456159e-40
5.9145469e-43
1.2400859e-45
2.0303781e-48
2.5487658e-51
2.4005545e-54
1.654429e-57
8.0350257e-61
2.6286162e-64
5.5040991e-68
6.9781083e-72
5.0328652e-76
1.9213528e-80
3.5481655e-85
2.7906307e-90
7.9196642e-96
6.2660921e-102
8.6316206e-109
6.5603382e-117
0.0091112078
0.0096107422
0.0096971947
0.0098721066
0.010317888
0.010841939
0.011004812
0.010370451
0.0082039602
0.0075375511
0.0073532567
0.0074092452
0.0073331891
0.0069261651
0.0059184526
0.0041217139
0.002216445
0.0011304109
0.00071717707
0.00046930749
0.00023258573
4.6641925e-05
1.0726984e-07
3.0487429e-12
9.4968503e-19
1.3213874e-27
1.4411128e-35
3.5308339e-38
1.2489303e-40
3.7037677e-43
8.8869243e-46
1.6816414e-48
2.4379984e-51
2.624466e-54
2.0282979e-57
1.0787988e-60
3.771741e-64
8.2584734e-68
1.0754796e-71
7.8610479e-76
3.0120379e-80
5.5290329e-85
4.297662e-90
1.2027347e-95
9.3744713e-102
1.2717665e-108
9.5195677e-117
0.0084561868
0.0091861095
0.0094350382
0.0093217936
0.0093731099
0.0097548724
0.010199279
0.010073996
0.009064261
0.0078401912
0.0076048106
0.0075564405
0.0074158294
0.0070795182
0.0063087349
0.0047559122
0.0028735957
0.0016972795
0.0013662208
0.0012067935
0.00085669432
0.00041367255
8.4491611e-05
6.5365735e-08
1.6685041e-13
2.4668646e-21
3.0123577e-31
4.4179387e-36
1.9946437e-38
8.3020768e-41
2.8993189e-43
8.1771428e-46
1.7969676e-48
2.9632039e-51
3.5382122e-54
2.9517996e-57
1.6523632e-60
5.9515304e-64
1.3206123e-67
1.7223067e-71
1.2508284e-75
4.7391409e-80
8.5364826e-85
6.5066346e-90
1.786297e-95
1.3671937e-101
1.8237583e-108
1.3440594e-116
0.0080725642
0.0086220557
0.0091629827
0.0091583084
0.0088483965
0.0087784208
0.0090933566
0.0093731227
0.00890612
0.0075202189
0.0078014267
0.0076544167
0.0074384007
0.0071442223
0.0065774595
0.0052992508
0.0035177373
0.0022983195
0.0020296787
0.0021541346
0.0019836759
0.0013325686
0.00052282505
6.6472406e-05
4.4505706e-09
6.9337482e-16
6.0311959e-25
1.1386582e-33
2.4490696e-36
1.4152916e-38
7.1436345e-41
2.9687291e-43
9.7136338e-46
2.4034571e-48
4.3263603e-51
5.4829339e-54
4.7360363e-57
2.6912525e-60
9.6979175e-64
2.1318245e-67
2.7373747e-71
1.9509541e-75
7.2337822e-80
1.2712191e-84
9.4684627e-90
2.5455701e-95
1.9124785e-101
2.5101625e-108
1.8240721e-116
0.0079375329
0.0082318174
0.0087058652
0.0090466592
0.0087869743
0.0082803321
0.0080852593
0.0082927184
0.0083353516
0.0074962273
0.0057637454
0.0077039629
0.0074139226
0.0071443246
0.0067450358
0.0057378702
0.0041191421
0.002895498
0.0026448281
0.0030280728
0.0032368342
0.0027719164
0.0015709007
0.00045070609
1.3785863e-05
2.9568154e-11
3.6098058e-19
8.4648846e-29
2.5106816e-34
1.8551263e-36
1.343093e-38
8.1263859e-41
3.8893592e-43
1.4110329e-45
3.741979e-48
7.0156909e-51
9.0567135e-54
7.8313297e-57
4.4004312e-60
1.5556612e-63
3.3402413e-67
4.1816495e-71
2.9058508e-75
1.0483036e-79
1.7938116e-84
1.3050424e-89
3.4382402e-95
2.539524e-101
3.2868354e-108
2.3613834e-116
0.0076995219
0.0080060003
0.0083155677
0.0087147982
0.0088398798
0.0083233558
0.0076155973
0.0072784281
0.0073235283
0.0070744957
0.00586112
0.003955702
0.0073459809
0.0071002267
0.0068353144
0.0060748613
0.0046565628
0.0034622016
0.0032117131
0.0036859635
0.0042464996
0.0041463891
0.0030677791
0.0013547232
0.00025170955
2.0315932e-07
3.2410636e-14
7.7227068e-23
9.789891e-32
1.89202e-34
1.9424398e-36
1.6904317e-38
1.1627963e-40
6.0526931e-43
2.3063357e-45
6.2535896e-48
1.1750732e-50
1.4991086e-53
1.2684924e-56
6.9331722e-60
2.3773671e-63
4.9484553e-67
6.0122622e-71
4.0638426e-75
1.4227916e-79
2.3722091e-84
1.6884484e-89
4.3692537e-95
3.1816559e-101
4.0736235e-108
2.9033968e-116
0.0072330212
0.0076325422
0.0080008899
0.0083241713
0.0086424572
0.0085417297
0.0077638132
0.0068469796
0.00634256
0.0061752022
0.00560324
0.0041254956
0.0021487478
0.0070177676
0.0068669682
0.0063244697
0.0051199165
0.0039828707
0.0037155493
0.0042250241
0.0048881969
0.005098872
0.0043765328
0.002660609
0.00083326247
6.7795413e-05
4.5985099e-10
1.4705133e-17
9.4170108e-27
1.7021164e-32
2.1754627e-34
2.6903519e-36
2.6151462e-38
1.9134544e-40
1.0241455e-42
3.9180534e-45
1.0489726e-47
1.9245336e-50
2.380294e-53
1.9445964e-56
1.0246134e-59
3.3888582e-63
6.8175203e-67
8.0304118e-71
5.2715279e-75
1.7940223e-79
2.9215008e-84
2.0404339e-89
5.2037878e-95
3.7495733e-101
4.7671983e-108
4.2071286e-124
0.0068957062
0.0070679835
0.0074971185
0.0079192442
0.0082610532
0.0084832312
0.0081452157
0.0071005799
0.0059685459
0.0052755357
0.0048619856
0.0040243044
0.0023379974
0.00064698862
0.0068582282
0.00649594
0.0055101152
0.0044504131
0.0041563091
0.004645576
0.0053526568
0.0056653716
0.0052295494
0.0038477794
0.0017829515
0.00035339273
1.0955789e-06
4.2294289e-13
2.9244332e-21
7.456175e-30
1.9080876e-32
3.2972685e-34
4.458271e-36
4.4985943e-38
3.3118027e-40
1.748545e-42
6.5138532e-45
1.6842538e-47
2.9704926e-50
3.5236979e-53
2.7602717e-56
1.3966237e-59
4.4482299e-63
8.6489918e-67
9.8910475e-71
6.3071587e-75
2.0929453e-79
3.3408446e-84
2.2985033e-89
5.8008833e-95
4.1532049e-101
1.0105679e-115
3.2335094e-133
0.0068097208
0.0067265809
0.0068425027
0.0072870309
0.0077699144
0.0081178575
0.0082258372
0.0076389983
0.0063269978
0.0049841973
0.0040987577
0.0034742405
0.0023706202
0.00077941423
5.6217876e-05
0.0066214831
0.0058291982
0.004863247
0.0045398994
0.0049695737
0.0056512023
0.006009766
0.0057569267
0.004703604
0.0027891377
0.00089236893
9.1641717e-05
2.0709316e-09
1.6767815e-16
3.5235684e-25
1.5017445e-30
3.134213e-32
5.8092993e-34
7.9434778e-36
7.8882819e-38
5.6308434e-40
2.857482e-42
1.0178771e-44
2.5102149e-47
4.2212687e-50
4.778522e-53
3.5802576e-56
1.7386515e-59
5.3377083e-63
1.0051811e-66
1.1188479e-70
6.9444941e-75
2.2562326e-79
3.5456423e-84
2.4138181e-89
6.055793e-95
1.2936827e-108
1.2111015e-124
7.9463853e-144
0.0067015846
0.0067181171
0.0065058835
0.0065517777
0.0070011852
0.0075284726
0.0078804978
0.0078564381
0.007011171
0.0054429818
0.0039165456
0.002891214
0.0020531761
0.00086694876
0.00010596262
9.2811572e-09
0.0060866535
0.0052212871
0.0048743301
0.0052197018
0.0058303204
0.0061655368
0.0060296735
0.0053167641
0.0037025246
0.001593851
0.00033447985
1.7434303e-06
1.5825398e-12
3.0467992e-20
4.2567207e-28
2.3421326e-30
5.8406831e-32
1.0650897e-33
1.4010721e-35
1.3262752e-37
8.9871653e-40
4.32094e-42
1.457646e-44
3.407784e-47
5.4460555e-50
5.8759313e-53
4.2125659e-56
1.9668638e-59
5.8364014e-63
1.0683448e-66
1.1595977e-70
7.0380706e-75
2.249543e-79
3.4972751e-84
2.3674264e-89
2.7803278e-102
2.4301652e-117
4.8406619e-135
3.6804154e-156
0.0062908595
0.0067379806
0.0065814934
0.0062321188
0.0061931447
0.0066292787
0.007188982
0.0075337071
0.0073612384
0.006252746
0.0044606663
0.0028228931
0.0017070473
0.00077823113
0.00014789818
6.3720549e-08
2.0985454e-13
0.0055268147
0.0051645218
0.0054173385
0.0059263968
0.0061946259
0.0060952206
0.005654722
0.0044821083
0.0024047167
0.00070413169
7.4963132e-05
2.7053024e-09
5.4136073e-16
4.3564902e-24
1.5305467e-28
4.5819583e-30
1.0978629e-31
1.8808425e-33
2.3177989e-35
2.0574413e-37
1.3093665e-39
5.9228468e-42
1.8843181e-44
4.1681755e-47
6.3298502e-50
6.5180574e-53
4.4822647e-56
2.0188442e-59
5.8135023e-63
1.0393667e-66
1.102912e-70
6.57984e-75
2.0797987e-79
3.2154587e-84
1.6036309e-96
8.2090603e-111
1.599025e-127
3.5350308e-147
4.8234956e-170
0.0057836609
0.0064509961
0.0067320561
0.0064029185
0.0059037954
0.0057645943
0.0061705288
0.0067411004
0.007065751
0.0067273752
0.0053611432
0.003403316
0.0017577401
0.00069205187
0.00014539263
2.7613349e-07
1.9063236e-12
1.2028424e-18
0.0054137461
0.0055758446
0.005969491
0.0061433438
0.0060215343
0.0057512361
0.0050184682
0.0032412513
0.0012447266
0.00023688545
8.7415187e-07
1.7175582e-12
9.362079e-20
1.9566919e-26
2.8514239e-28
8.8221729e-30
1.9368315e-31
3.05188e-33
3.482759e-35
2.8787463e-37
1.7130351e-39
7.2730756e-42
2.1807897e-44
4.5682948e-47
6.6062998e-50
6.5133312e-53
4.3131444e-56
1.8824836e-59
5.2863646e-63
9.2698332e-67
9.6595031e-71
5.6960708e-75
1.7903735e-79
3.2113783e-91
7.4485116e-105
8.9680126e-121
1.8953919e-139
6.1954333e-161
5.2824548e-185
0.005624777
0.0059971772
0.0065731293
0.0066911221
0.0061832152
0.0055191582
0.0052664153
0.0056223307
0.0061838969
0.006472174
0.0059406995
0.0043243609
0.002303624
0.00082772183
0.00016181872
4.9272889e-07
1.2965837e-11
1.5361287e-17
1.6377986e-24
0.0057013935
0.0059760951
0.0060441676
0.0058651746
0.0056795187
0.0052916616
0.0039744391
0.0019037992
0.00051640621
3.2289093e-05
1.0891719e-09
5.1494628e-16
2.5718047e-23
1.5051033e-26
5.6150111e-28
1.5553324e-29
3.0784825e-31
4.432145e-33
4.66902e-35
3.5870594e-37
1.9947503e-39
7.9539871e-42
2.2517779e-44
4.4797486e-47
6.1921341e-50
5.8721672e-53
3.763557e-56
1.6003137e-59
4.4077846e-63
7.606312e-67
7.8294073e-71
4.5900481e-75
2.6308175e-86
2.344134e-99
1.3585687e-114
1.7688296e-132
4.6311508e-153
7.7329622e-176
1.047985e-200
0.005796545
0.0058007463
0.0061784706
0.0066652847
0.0066182696
0.0059189906
0.0050761644
0.0047003564
0.0049906166
0.0055367966
0.0057348087
0.0049819818
0.0031389767
0.0012378972
0.00025872485
1.9450782e-06
5.2089785e-11
1.8039462e-16
3.0553641e-23
2.3492661e-30
0.0059527965
0.0059129011
0.0056648248
0.0055091841
0.0053529235
0.0045090889
0.0026063703
0.00091084047
0.00016413563
1.4170023e-07
5.9725709e-13
1.0320641e-19
9.6406668e-25
2.9086671e-26
9.9313707e-28
2.4226231e-29
4.3162122e-31
5.6836712e-33
5.5323772e-35
3.9560819e-37
2.0598335e-39
7.7347391e-42
2.0748402e-44
3.9373434e-47
5.2281827e-50
4.7959721e-53
2.9927924e-56
1.2472956e-59
3.3914118e-63
5.7784931e-67
5.9112536e-71
9.8849324e-82
3.008881e-94
7.160076e-109
4.5520212e-126
6.2771741e-146
6.811889e-168
1.5764641e-191
6.1117186e-217
0.0059001383
0.0058614619
0.005950106
0.0063406195
0.0067300444
0.0065089397
0.0056014365
0.0045712879
0.0040715377
0.0042900605
0.0047854054
0.0048488121
0.0038011648
0.0018468674
0.00045560418
1.6700847e-05
5.1949189e-10
1.6608174e-15
6.4825256e-22
2.8950028e-29
7.3987028e-34
0.0057547215
0.0054397312
0.0052910952
0.005276182
0.004825176
0.0032653553
0.0014023216
0.0003537949
1.2798588e-05
1.4677075e-10
1.9690264e-16
2.2191106e-22
1.3539433e-24
5.2678851e-26
1.5292742e-27
3.2788962e-29
5.2883909e-31
6.3963142e-33
5.7735532e-35
3.855931e-37
1.8867803e-39
6.7009159e-42
1.7117988e-44
3.116048e-47
3.9988628e-50
3.5713437e-53
2.1843161e-56
8.9798986e-60
2.420218e-63
4.096272e-67
1.8553718e-77
1.7629065e-89
1.5396312e-103
4.1420281e-120
2.4401989e-139
1.1227239e-160
1.4704447e-183
8.7802326e-208
1.4485726e-233
0.0055682013
0.0058171863
0.0059054863
0.0060819159
0.0064800696
0.0067626521
0.0063488888
0.005216099
0.0040015792
0.0033896155
0.0035311675
0.003938422
0.0037575523
0.0023997699
0.0007525691
8.0332652e-05
9.3613591e-09
3.1616551e-14
1.2696038e-20
6.8090306e-28
1.1516767e-33
4.1203832e-36
0.0051962936
0.0050511679
0.0051306899
0.0049590004
0.0038117102
0.0019468853
0.00062193253
9.5846323e-05
4.9488867e-08
1.4235841e-13
8.5848771e-19
2.2359935e-22
2.8606246e-24
8.3592775e-26
2.0164927e-27
3.8351446e-29
5.6465988e-31
6.3114561e-33
5.3108255e-35
3.3288753e-37
1.5387201e-39
5.1981901e-42
1.2725127e-44
2.2368359e-47
2.7933958e-50
2.4458689e-53
1.4765578e-56
6.0292206e-60
1.6164098e-63
1.8602748e-73
5.1250846e-85
1.5080347e-98
1.5568398e-114
3.4837126e-133
5.4725791e-154
2.6365308e-176
8.0524084e-200
1.8790253e-224
2.795834e-250
0.0049310069
0.0053507701
0.0057135662
0.005934452
0.0061940489
0.0065895735
0.0067473143
0.0061142526
0.0047468424
0.0033681458
0.0026706886
0.0027431155
0.0029730722
0.0024398662
0.0010707716
0.00018072082
1.6349171e-07
7.7162328e-13
3.8558132e-19
2.09593e-26
3.3824531e-33
4.0927973e-36
2.3004127e-38
0.0047988368
0.004958289
0.0049825865
0.0042115696
0.0024933484
0.00096735148
0.00022536173
3.3720072e-06
2.5807063e-10
2.6859923e-14
9.9597239e-18
3.1686894e-21
6.3807635e-24
1.0888705e-25
2.2333215e-27
3.8797563e-29
5.2630697e-31
5.4780264e-33
4.324689e-35
2.5598035e-37
1.1249969e-39
3.6402243e-42
8.6017917e-45
1.4710456e-47
1.8010498e-50
1.557313e-53
9.3455667e-57
3.8125308e-60
1.0526524e-69
7.8911989e-81
7.2964809e-94
2.688048e-109
2.1288124e-127
1.0105712e-147
1.4331482e-169
1.4577038e-192
1.6000517e-216
3.162408e-241
6.1012509e-267
0.004529971
0.0046349822
0.0051060813
0.0055876424
0.0059414733
0.0062753468
0.0066512588
0.0066561157
0.0057772667
0.0041793077
0.0026832201
0.0019524651
0.0019313902
0.0018730019
0.0011407361
0.00029404146
2.046414e-06
1.6476327e-11
1.1913703e-17
8.2385741e-25
2.6025551e-32
4.2661687e-36
2.2224759e-38
9.9552129e-41
0.0047754294
0.0049564366
0.0044750834
0.0030034085
0.0013752694
0.00041319327
5.3838551e-05
1.2128916e-07
3.9661238e-10
1.3378959e-12
8.7796753e-16
6.6034733e-20
1.0617742e-23
1.128748e-25
2.1171312e-27
3.4114293e-29
4.3084973e-31
4.2110961e-33
3.1419078e-35
1.769093e-37
7.4490928e-40
2.3271114e-42
5.3511245e-45
8.9750491e-48
1.0856309e-50
9.3373404e-54
5.6090006e-57
3.5224754e-66
6.7866693e-77
1.8570264e-89
2.3035123e-104
6.1740798e-122
8.2490128e-142
3.0200082e-163
8.190714e-186
2.7641718e-209
2.4065238e-233
5.8911477e-258
1.5218696e-283
0.0045830073
0.00423581
0.0043051955
0.0048208739
0.0054282195
0.0059031963
0.0063028588
0.0066340106
0.0064543224
0.0053067506
0.0035121725
0.001965088
0.0012528186
0.0011074285
0.00084784738
0.0003304394
1.3552316e-05
2.638816e-10
3.0315519e-16
3.0218085e-23
4.8872784e-31
4.9615095e-36
2.1720057e-38
9.61434e-41
3.1810379e-43
0.0049121166
0.0046572711
0.0034473546
0.0018243182
0.00068729705
0.0001937117
2.3612558e-05
8.2178654e-07
1.924572e-08
9.7313272e-11
3.2229413e-14
3.320206e-19
8.8877317e-24
9.6318956e-26
1.7521497e-27
2.6312145e-29
3.1281479e-31
2.8965205e-33
2.0595475e-35
1.1125329e-37
4.5272971e-40
1.3775009e-42
3.1091075e-45
5.1564048e-48
6.209435e-51
5.3491747e-54
7.2630935e-63
3.409798e-73
2.6155187e-85
1.0393615e-99
9.1475095e-117
3.3063349e-136
2.8758402e-157
1.8215811e-179
1.5193961e-202
3.8174087e-226
3.8925394e-250
1.2444652e-274
4.3217575e-300
0.004860212
0.0043716816
0.0039074172
0.0039309469
0.0044805137
0.0051964968
0.0057891141
0.0062398499
0.0064986051
0.0061005225
0.0046917509
0.0027026965
0.0012268767
0.00062971683
0.00044396701
0.00023363271
2.2269864e-05
2.7967102e-09
5.7745387e-15
9.0202599e-22
1.4120087e-29
7.8749472e-36
2.1227202e-38
9.3821133e-41
3.0752248e-43
7.3278426e-46
0.0047976442
0.0038193404
0.0022840771
0.0010525798
0.00043967051
0.00022006933
0.0001075537
2.2545056e-05
8.6225925e-07
2.6707514e-09
1.9181182e-13
1.8268369e-19
4.5747698e-24
7.2694731e-26
1.2707825e-27
1.8041044e-29
2.0411295e-31
1.8076255e-33
1.2364062e-35
6.4681002e-38
2.5678362e-40
7.6801275e-43
1.7163662e-45