/*--------------------------------*- C++ -*----------------------------------*\
| =========                 |                                                 |
| \\      /  F ield         | OpenFOAM: The Open Source CFD Toolbox           |
|  \\    /   O peration     | Version:  5.0                                   |
|   \\  /    A nd           | Web:      www.OpenFOAM.org                      |
|    \\/     M anipulation  |                                                 |
\*---------------------------------------------------------------------------*/
FoamFile
{
    version     2.0;
    format      ascii;
    class       volScalarField;
    location    "80";
    object      nuTilda;
}
// * * * * * * * * * * * * * * * * * * * * * * * * * * * * * * * * * * * * * //

dimensions      [0 2 -1 0 0 0 0];

internalField   nonuniform List<scalar> 
9520
(
3.186038e-32
3.3520194e-30
3.1411682e-32
1.7306529e-28
3.309043e-30
3.1049321e-32
5.8133931e-27
1.7099718e-28
3.2741331e-30
3.0730245e-32
1.4275967e-25
5.7481452e-27
1.692957e-28
3.2426512e-30
3.0409185e-32
2.7331214e-24
1.4124599e-25
5.6935294e-27
1.6771852e-28
3.209911e-30
3.004883e-32
4.2497757e-23
2.7055894e-24
1.3995427e-25
5.6413873e-27
1.6603126e-28
3.1724153e-30
2.9634423e-32
5.5200834e-22
4.2087323e-23
2.6816071e-24
1.3868552e-25
5.5842434e-27
1.6407918e-28
3.1293718e-30
2.9184432e-32
6.1152943e-21
5.4685154e-22
4.1722311e-23
2.6574314e-24
1.3726905e-25
5.5178976e-27
1.6186183e-28
3.0835806e-30
2.8748907e-32
5.8705996e-20
6.0593944e-21
5.4217895e-22
4.1346258e-23
2.6300997e-24
1.3562819e-25
5.4437253e-27
1.5956419e-28
3.0408596e-30
2.8392178e-32
4.9458927e-19
5.8174482e-20
6.0080294e-21
5.3728804e-22
4.091868e-23
2.5986749e-24
1.3383009e-25
5.3691581e-27
1.5750564e-28
3.0078381e-30
2.8164349e-32
3.6946654e-18
4.9008224e-19
5.7682194e-20
5.953845e-21
5.3173224e-22
4.04334e-23
2.5650488e-24
1.3208231e-25
5.3052573e-27
1.5600857e-28
2.988795e-30
2.8072686e-32
2.4683142e-17
3.6601456e-18
4.859044e-19
5.7163101e-20
5.8927508e-21
5.2553547e-22
3.9928453e-23
2.5335671e-24
1.3065632e-25
5.2618007e-27
1.5523151e-28
2.9828384e-30
2.8065693e-32
1.4855641e-16
2.4442009e-17
3.6284921e-18
4.8155764e-19
5.6586575e-20
5.826057e-21
5.1928872e-22
3.9475351e-23
2.5092648e-24
1.2975734e-25
5.2417157e-27
1.5503873e-28
2.9827505e-30
2.803845e-32
8.1070077e-16
1.4701464e-16
2.4226723e-17
3.5965221e-18
4.7685029e-19
5.597344e-20
5.7611743e-21
5.1394786e-22
3.9147426e-23
2.4952462e-24
1.293925e-25
5.2373744e-27
1.5497127e-28
2.9762263e-30
2.7859376e-32
4.0331513e-15
8.0159315e-16
1.4569403e-16
2.4019566e-17
3.5630971e-18
4.7198858e-19
5.5400117e-20
5.7087352e-21
5.1037344e-22
3.8978005e-23
2.490329e-24
1.2929996e-25
5.2307369e-27
1.5434562e-28
2.9492551e-30
2.7409747e-32
1.8387697e-14
3.9836441e-15
7.9426724e-16
1.4451373e-16
2.3813091e-17
3.5296392e-18
4.676342e-19
5.4966765e-20
5.6770016e-21
5.0878307e-22
3.8927447e-23
2.4881272e-24
1.2898108e-25
5.1977957e-27
1.5245317e-28
2.8905e-30
2.6622048e-32
7.719114e-14
1.8134132e-14
3.9464709e-15
7.8836752e-16
1.4341025e-16
2.3612841e-17
3.5010034e-18
4.6460039e-19
5.4738861e-20
5.6658473e-21
5.083827e-22
3.8876417e-23
2.4782246e-24
1.278354e-25
5.1159402e-27
1.4879019e-28
2.7951e-30
2.550356e-32
3.0105837e-13
7.5980247e-14
1.7961523e-14
3.9210603e-15
7.8333641e-16
1.4236731e-16
2.3448598e-17
3.4829633e-18
4.6331999e-19
5.4690517e-20
5.6634187e-21
5.0738411e-22
3.8652707e-23
2.4492013e-24
1.2535313e-25
4.9715732e-27
1.4323429e-28
2.6665325e-30
2.4137192e-32
1.0990155e-12
2.9569325e-13
7.5247847e-14
1.7871185e-14
3.9027572e-15
7.7864314e-16
1.4153697e-16
2.3357161e-17
3.477964e-18
4.6337635e-19
5.4679795e-20
5.6475452e-21
5.0346128e-22
3.8084222e-23
2.3924452e-24
1.2129359e-25
4.7651487e-27
1.3610345e-28
2.51591e-30
2.2659892e-32
4.0882319e-12
1.0797372e-12
2.9321483e-13
7.5029415e-14
1.7828411e-14
3.88518e-15
7.7488684e-16
1.4113938e-16
2.3351448e-17
3.4816235e-18
4.6335486e-19
5.4473853e-20
5.5919431e-21
4.9450163e-22
3.7058654e-23
2.3052995e-24
1.1578246e-25
4.5117862e-27
1.2807814e-28
2.3590107e-30
2.1226378e-32
3.8266677e-11
4.4338633e-12
1.0792718e-12
2.9387447e-13
7.5092159e-14
1.7779847e-14
3.8696093e-15
7.733529e-16
1.4125486e-16
2.3397196e-17
3.4820277e-18
4.6115253e-19
5.3819481e-20
5.4750782e-21
4.793674e-22
3.556675e-23
2.1923433e-24
1.0929158e-25
4.2372964e-27
1.2001634e-28
2.2120836e-30
1.997006e-32
1.2020304e-09
6.9945167e-11
5.3469037e-12
1.1024385e-12
2.9614907e-13
7.5052471e-14
1.7720121e-14
3.863956e-15
7.7473704e-16
1.4168151e-16
2.3409362e-17
3.4628312e-18
4.5468716e-19
5.2533532e-20
5.2882443e-21
4.5836571e-22
3.3712289e-23
2.0643214e-24
1.0250998e-25
3.9710747e-27
1.1272492e-28
2.0877693e-30
1.8972434e-32
3.172288e-08
2.4957034e-09
1.3740393e-10
7.2216227e-12
1.1453977e-12
2.9743386e-13
7.4823057e-14
1.7697992e-14
3.8747313e-15
7.7820448e-16
1.4189626e-16
2.3277663e-17
3.4098764e-18
4.4276418e-19
5.0577169e-20
5.0395816e-21
4.3324116e-22
3.1684935e-23
1.9351281e-24
9.6152456e-26
3.7382675e-27
1.0675902e-28
1.9922798e-30
1.8248274e-32
5.6426054e-07
6.2307112e-08
5.1943282e-09
2.6651981e-10
1.0523933e-11
1.2005163e-12
2.965304e-13
7.4712721e-14
1.7770042e-14
3.9008423e-15
7.8098591e-16
1.4123527e-16
2.2918095e-17
3.3144264e-18
4.2505233e-19
4.8058455e-20
4.7524365e-21
4.0669315e-22
2.9706047e-23
1.817927e-24
9.0769525e-26
3.5536136e-27
1.0230368e-28
1.9244599e-30
1.7748398e-32
7.3318463e-06
1.0052603e-06
1.2582649e-07
1.0248148e-08
4.8962066e-10
1.5585794e-11
1.234915e-12
2.966289e-13
7.5170313e-14
1.7955863e-14
3.929764e-15
7.7946042e-16
1.3922368e-16
2.2245332e-17
3.1730433e-18
4.0278959e-19
4.523609e-20
4.4586729e-21
3.8159536e-22
2.7966695e-23
1.7216687e-24
8.661573e-26
3.4185494e-27
9.9160578e-29
1.876731e-30
1.7376915e-32
8.1798609e-05
1.1126604e-05
1.9386243e-06
2.427535e-07
1.8795559e-08
7.9657626e-10
1.7095974e-11
1.3949652e-12
3.0490143e-13
7.6520953e-14
1.8208444e-14
3.9427651e-15
7.7067167e-16
1.3503232e-16
2.1236989e-17
2.9988097e-18
3.7855666e-19
4.2436418e-20
4.1893668e-21
3.6018927e-22
2.6577535e-23
1.6490291e-24
8.3608069e-26
3.3219948e-27
9.6829837e-29
1.83743e-30
1.7016816e-32
0.00062495189
9.3413382e-05
1.9974066e-05
3.6375255e-06
4.3541887e-07
2.932643e-08
7.9737767e-10
2.4413736e-11
2.0268486e-12
3.3354723e-13
7.8839943e-14
1.8435541e-14
3.9192666e-15
7.474012e-16
1.2852366e-16
2.0011934e-17
2.8145265e-18
3.5524872e-19
3.9948273e-20
3.9660786e-21
3.435055e-22
2.5544971e-23
1.5962163e-24
8.1375679e-26
3.2441514e-27
9.4654126e-29
1.7937976e-30
1.6557004e-32
0.002075359
0.00055528049
0.00014251937
3.6088897e-05
6.3522547e-06
6.5228583e-07
2.7680661e-08
8.9267564e-10
5.7984138e-11
3.9422459e-12
4.0998398e-13
8.2265794e-14
1.8498767e-14
3.8042284e-15
7.0875316e-16
1.2066859e-16
1.8753802e-17
2.6430197e-18
3.3513647e-19
3.793903e-20
3.7954428e-21
3.3117127e-22
2.4777826e-23
1.554485e-24
7.937638e-26
3.1619684e-27
9.1982106e-29
1.7348475e-30
1.5914739e-32
0.003770298
0.0017367226
0.00065535936
0.00023713107
6.0607908e-05
9.1526735e-06
5.9785746e-07
2.4667864e-08
1.9578046e-09
1.5573851e-10
9.2059395e-12
6.0457595e-13
8.6933193e-14
1.8003071e-14
3.5902925e-15
6.6204237e-16
1.128432e-16
1.7625793e-17
2.4996485e-18
3.1928844e-19
3.6423484e-20
3.6684173e-21
3.2162343e-22
2.4119119e-23
1.5127519e-24
7.7042054e-26
3.0547426e-27
8.8311378e-29
1.6535136e-30
1.504951e-32
0.0054627861
0.0032093579
0.0017641765
0.00093473459
0.00036969332
8.332362e-05
8.2543957e-06
4.5689978e-07
4.4831209e-08
5.0810161e-09
4.1038349e-10
2.2811675e-11
1.0162915e-12
8.7522399e-14
1.6867517e-14
3.3287549e-15
6.1703058e-16
1.0612624e-16
1.6716429e-17
2.3890192e-18
3.0741246e-19
3.52702e-20
3.5640172e-21
3.1261689e-22
2.3391526e-23
1.4605035e-24
7.3913884e-26
2.9085409e-27
8.3382238e-29
1.5477178e-30
1.3966706e-32
0.0071026884
0.0047396332
0.0031316961
0.0021867321
0.0013081227
0.00047321953
7.4817006e-05
5.7251048e-06
6.7711842e-07
1.0767954e-07
1.2809214e-08
1.0295467e-09
5.0754349e-11
1.2801992e-12
7.9168327e-14
1.5449735e-14
3.0858228e-15
5.8045785e-16
1.0094945e-16
1.6029591e-17
2.305533e-18
2.9802909e-19
3.4248534e-20
3.4558618e-21
3.0186062e-22
2.2443112e-23
1.3902504e-24
6.9737113e-26
2.7186196e-27
7.7208962e-29
1.4202981e-30
1.2711868e-32
0.0085586061
0.0062517591
0.0045626882
0.0035911999
0.002763325
0.0015353395
0.00042432478
4.9679216e-05
6.9139417e-06
1.4830093e-06
2.5655427e-07
3.041062e-08
2.2173501e-09
6.7892267e-11
9.3126239e-13
6.7998723e-14
1.4197346e-14
2.902007e-15
5.5392882e-16
9.714239e-17
1.5503297e-17
2.235922e-18
2.8899939e-19
3.3098604e-20
3.3195264e-21
2.8759939e-22
2.1182001e-23
1.2990014e-24
6.4499453e-26
2.4895949e-27
7.0051289e-29
1.2779864e-30
1.135826e-32
0.0098047976
0.0076273685
0.0059760554
0.0049871335
0.0042337031
0.0030238271
0.0013641877
0.00028615297
4.9141934e-05
1.3575755e-05
3.3322292e-06
5.7397918e-07
6.1923708e-08
2.8866126e-09
4.5125451e-11
4.444422e-13
6.0568933e-14
1.3336311e-14
2.7776251e-15
5.3509519e-16
9.4166479e-17
1.5031009e-17
2.1634488e-18
2.7814269e-19
3.1602813e-20
3.1386532e-21
2.690028e-22
1.9593038e-23
1.1885559e-24
5.8412744e-26
2.2336727e-27
6.23418e-29
1.1298115e-30
9.9880596e-33
0.01083702
0.0088339728
0.0072719958
0.0063235834
0.0055928716
0.0044403817
0.0026711874
0.00096610806
0.00024101597
8.3993472e-05
2.8632407e-05
7.0189287e-06
1.1025095e-06
7.8207504e-08
1.9154674e-09
1.3926417e-11
2.6269503e-13
5.6535949e-14
1.2794921e-14
2.6943573e-15
5.2009761e-16
9.1266511e-17
1.4495136e-17
2.0720624e-18
2.6382554e-19
2.9639322e-20
2.9084214e-21
2.4629145e-22
1.7735131e-23
1.064724e-24
5.185099e-26
1.9676477e-27
5.4592452e-29
9.8537462e-31
8.6855168e-33
0.011665983
0.0098636156
0.0084196735
0.0075239104
0.006824316
0.005697623
0.003926026
0.0019874481
0.00075960822
0.0003457168
0.00016395131
5.6517156e-05
1.2684297e-05
1.3513006e-06
5.2403769e-08
5.9573711e-10
2.90151e-12
2.2441396e-13
5.4345727e-14
1.2466791e-14
2.6283868e-15
5.0405814e-16
8.768554e-17
1.3805224e-17
1.9514523e-18
2.4535539e-19
2.7206056e-20
2.63588e-21
2.2060895e-22
1.572285e-23
9.3582909e-25
4.5266142e-26
1.7095507e-27
4.7304346e-29
8.5298445e-31
7.5227379e-33
0.012312332
0.010721437
0.009408987
0.0085638525
0.0078784294
0.0068056193
0.0050628405
0.0030377235
0.0015682324
0.00093192779
0.00060830728
0.00029925736
9.523812e-05
1.5067831e-05
9.1888624e-07
1.7267723e-08
1.0940724e-10
1.0707476e-12
2.1404247e-13
5.3253501e-14
1.2226318e-14
2.5494607e-15
4.8247718e-16
8.2920931e-17
1.2904163e-17
1.7991669e-18
2.230945e-19
2.4413306e-20
2.3375273e-21
1.9371038e-22
1.3699327e-23
8.1096773e-25
3.9104542e-26
1.4757385e-27
4.0899455e-29
7.3956047e-31
6.5519958e-33
0.012800479
0.011418672
0.010239156
0.0094391755
0.0087552114
0.0077277047
0.006081283
0.0040445167
0.0024604628
0.0017580813
0.0014587275
0.0010106294
0.00046217004
0.00010914393
1.0433679e-05
3.2440784e-07
3.5418375e-09
1.8947355e-11
8.187366e-13
2.1135985e-13
5.2640164e-14
1.1890085e-14
2.4321012e-15
4.5288825e-16
7.6873971e-17
1.1793131e-17
1.6207611e-18
1.9830974e-19
2.1451643e-20
2.0351818e-21
1.6757476e-22
1.1808408e-23
6.9846752e-25
3.37423e-26
1.2789443e-27
3.5664738e-29
6.4966117e-31
5.8043206e-33
0.01315195
0.011966899
0.010913079
0.010150867
0.0094636956
0.0084778754
0.0069389924
0.0049914409
0.0033554652
0.0026383295
0.002491988
0.0022040233
0.001415045
0.00050712812
7.7252277e-05
3.9786405e-06
7.5195581e-08
6.3186073e-10
5.5826763e-12
8.1602368e-13
2.1187495e-13
5.1481456e-14
1.1314752e-14
2.2653788e-15
4.1554407e-16
6.9637392e-17
1.0528085e-17
1.4280258e-18
1.7283575e-19
1.8547252e-20
1.751466e-21
1.4404801e-22
1.0172592e-23
6.0484251e-25
2.9449061e-26
1.1274704e-27
3.1780299e-29
5.8554891e-31
5.2916903e-33
0.013392184
0.012373578
0.011433379
0.010701972
0.010010923
0.009080776
0.007652454
0.005825325
0.0042253916
0.0034901592
0.0034747162
0.003470161
0.0028237275
0.0014789185
0.00036779672
3.2221623e-05
1.0377786e-06
1.525457e-08
1.526644e-10
6.0107799e-12
9.0700372e-13
2.1044014e-13
4.8960537e-14
1.0454148e-14
2.0561021e-15
3.7303504e-16
6.162877e-17
9.2018849e-18
1.2360539e-18
1.486701e-19
1.5918167e-20
1.506063e-21
1.2459246e-22
8.8802849e-24
5.3434069e-25
2.6379998e-26
1.0250968e-27
2.931138e-29
5.475765e-31
5.01109e-33
0.012639769
0.013520064
0.011800443
0.011095653
0.010402112
0.0095470788
0.0082640365
0.0065515135
0.0050240286
0.0042905841
0.0043437401
0.004534226
0.0041579702
0.0028294053
0.0011011607
0.00017044051
9.4677623e-06
2.4059352e-07
4.5698699e-09
1.998846e-10
1.2984472e-11
1.0845945e-12
2.016848e-13
4.4863987e-14
9.3715082e-15
1.8238924e-15
3.2740401e-16
5.3483546e-17
7.922474e-18
1.0601021e-18
1.276143e-19
1.374171e-20
1.313433e-21
1.1017134e-22
7.982505e-24
4.8899621e-25
2.4588599e-26
9.7214214e-28
2.8232436e-29
5.3467517e-31
4.948897e-33
0.01201169
0.012759225
0.013490128
0.0113343
0.010643949
0.0098761664
0.0087813643
0.0072011367
0.0057405012
0.0050197228
0.0050790797
0.0053791957
0.005181783
0.0040637141
0.0021657433
0.00057170135
5.7144548e-05
2.51978e-06
9.2658512e-08
6.839883e-09
5.63118e-10
2.8135082e-11
1.2120699e-12
1.8292494e-13
3.9646828e-14
8.1985747e-15
1.5878318e-15
2.8240626e-16
4.5882144e-17
6.7918464e-18
9.1307742e-19
1.1103674e-19
1.2137877e-20
1.1820937e-21
1.0125172e-22
7.4965587e-24
4.6899086e-25
2.4048378e-26
9.664185e-28
2.8453219e-29
5.4480674e-31
5.0845191e-33
0.011418814
0.012064477
0.012729787
0.013282974
0.010745059
0.010076169
0.0091838403
0.0077751978
0.0063820063
0.0056669086
0.0057109819
0.0060242002
0.0059341605
0.0049997068
0.0031993658
0.0012475717
0.00022254561
1.7771943e-05
1.2419767e-06
1.5189499e-07
1.8533764e-08
1.3341211e-09
4.176707e-11
1.0534377e-12
1.5770125e-13
3.4122558e-14
7.0690404e-15
1.3624912e-15
2.4186368e-16
3.94272e-17
5.8909288e-18
8.0409398e-19
9.9778953e-20
1.116753e-20
1.1150919e-21
9.7880955e-23
7.4130601e-24
4.7311315e-25
2.4665841e-26
1.0038041e-27
2.9839198e-29
5.7528226e-31
5.3926896e-33
0.010711642
0.011351907
0.01195753
0.012561766
0.012881218
0.010161376
0.0094600186
0.0082616716
0.0069521389
0.0062361562
0.0062406165
0.0065338121
0.0064917463
0.0057023188
0.0040447302
0.0020030456
0.00056609353
8.4154596e-05
1.1098007e-05
2.1548941e-06
3.8548441e-07
4.2322326e-08
2.0199691e-09
3.4955191e-11
7.1875762e-13
1.3248997e-13
2.9058729e-14
6.0389224e-15
1.1670714e-15
2.0894686e-16
3.4565527e-17
5.2723469e-18
7.3811547e-19
9.4178508e-20
1.0840262e-20
1.1110676e-21
9.9785639e-23
7.702973e-24
4.9916557e-25
2.6311802e-26
1.0787933e-27
3.2224073e-29
6.2293737e-31
5.844731e-33
0.010123964
0.010552105
0.011137157
0.011718649
0.012228456
0.012269882
0.0096298811
0.0086484691
0.0074486204
0.0067350142
0.0066808602
0.0069188734
0.0068977951
0.0062541023
0.0047656901
0.0027084607
0.0010468969
0.00027102624
6.6547518e-05
1.9805893e-05
5.093002e-06
8.3608616e-07
6.2780412e-08
1.7078023e-09
1.482705e-11
5.0039721e-13
1.1098046e-13
2.4712544e-14
5.1829458e-15
1.0165036e-15
1.8583309e-16
3.1559803e-17
4.9601896e-18
7.163645e-19
9.415502e-20
1.1125609e-20
1.1653457e-21
1.0645473e-22
8.3226365e-24
5.4420469e-25
2.8824908e-26
1.1847811e-27
3.5415529e-29
6.8421143e-31
6.4090115e-33
0.0096784166
0.0099668769
0.010269106
0.010789837
0.011340565
0.01171564
0.011436535
0.0089335691
0.0078668124
0.0071685792
0.0070473701
0.0072029597
0.0071692591
0.0066582879
0.0054002672
0.0034214099
0.0015928793
0.00062965775
0.00026726903
0.00011945509
4.3355517e-05
1.0393984e-05
1.2057835e-06
5.3577825e-08
7.199843e-10
3.7403072e-12
3.9725417e-13
9.3837301e-14
2.1287601e-14
4.5637789e-15
9.2013321e-16
1.7363852e-16
3.0498803e-17
4.9539612e-18
7.3704892e-19
9.9305162e-20
1.1962654e-20
1.2707106e-21
1.1719003e-22
9.2163613e-24
6.0438444e-25
3.2014167e-26
1.3141821e-27
3.9197826e-29
7.5518303e-31
7.0512687e-33
0.0091112121
0.0096107461
0.0096971985
0.0098721103
0.010317891
0.010841942
0.011004815
0.010370454
0.0082039655
0.0075375574
0.0073532634
0.0074092517
0.0073331957
0.0069261725
0.0059184625
0.004121734
0.0022165143
0.0011306956
0.00071795657
0.00047120867
0.00023988299
8.2305485e-05
1.4476196e-05
1.0352922e-06
2.3848734e-08
1.4135693e-10
1.4835028e-12
3.3234254e-13
8.1216244e-14
1.8998361e-14
4.2161464e-15
8.8180826e-16
1.725289e-16
3.1326209e-17
5.233591e-18
7.960248e-19
1.0897199e-19
1.3265805e-20
1.4177929e-21
1.3112778e-22
1.0317815e-23
6.7539352e-25
3.5661493e-26
1.4585311e-27
4.3334791e-29
8.3163191e-31
7.7351833e-33
0.0084561918
0.0091861137
0.0094350422
0.0093217977
0.009373114
0.0097548762
0.010199282
0.010073999
0.0090642653
0.0078401971
0.0076048168
0.0075564467
0.0074158358
0.0070795252
0.0063087438
0.0047559275
0.0028736373
0.0016974056
0.001366432
0.0012070737
0.00085725776
0.00041603099
0.00010973202
1.2478524e-05
4.8663421e-07
5.218553e-09
1.7312111e-11
1.111179e-12
2.8897883e-13
7.3619502e-14
1.7951377e-14
4.1490049e-15
9.0066292e-16
1.8189157e-16
3.3869604e-17
5.7632952e-18
8.8720896e-19
1.2228032e-19
1.4927267e-20
1.5952239e-21
1.4724844e-22
1.1550702e-23
7.523799e-25
3.9526362e-26
1.6086889e-27
4.7576196e-29
9.0915979e-31
8.4234515e-33
0.0080725697
0.0086220605
0.009162987
0.0091583127
0.0088484011
0.0087784254
0.0090933608
0.0093731267
0.0089061245
0.0075202253
0.0078014326
0.0076544228
0.0074384071
0.0071442293
0.0065774676
0.0052992631
0.0035177652
0.0022983879
0.0020297728
0.0021542199
0.0019837768
0.0013327906
0.00052421516
9.4752746e-05
6.2037267e-06
1.2014243e-07
6.4571803e-10
4.402813e-12
9.6279108e-13
2.6642443e-13
7.1251947e-14
1.8144083e-14
4.349995e-15
9.7199587e-16
2.0047895e-16
3.7859588e-17
6.4936471e-18
1.002767e-18
1.3815255e-19
1.6818583e-20
1.7898162e-21
1.6439602e-22
1.2824377e-23
8.3010032e-25
4.3355106e-26
1.7552236e-27
5.1668617e-29
9.8338502e-31
9.0794555e-33
0.0079375386
0.0082318227
0.0087058699
0.0090466635
0.0087869789
0.0082803373
0.0080852648
0.0082927236
0.0083353567
0.0074962337
0.0057637562
0.0077039689
0.0074139291
0.0071443316
0.0067450435
0.0057378808
0.0041191625
0.0028955409
0.0026448826
0.0030281151
0.0032368709
0.0027719659
0.0015710513
0.0004524358
5.0057916e-05
1.727211e-06
1.7973325e-08
7.0419637e-11
3.0628831e-12
9.0286694e-13
2.6430834e-13
7.3924936e-14
1.9485436e-14
4.7893224e-15
1.08788e-15
2.2649015e-16
4.2939119e-17
7.3626082e-18
1.1332494e-18
1.5533029e-19
1.8794e-20
1.9870142e-21
1.8133235e-22
1.4047873e-23
9.0320721e-25
4.6895516e-26
1.8889627e-27
5.5370317e-29
1.0501962e-30
9.66925e-33
0.0076995279
0.0080060059
0.0083155729
0.0087148029
0.0088398844
0.008323361
0.0076156035
0.0072784348
0.0073235349
0.0070745028
0.0058611305
0.0039557251
0.0073459875
0.0071002338
0.006835322
0.0060748708
0.0046565788
0.0034622314
0.0032117496
0.0036859916
0.0042465206
0.0041464107
0.0030678177
0.0013549138
0.0002566058
1.5793219e-05
3.1158278e-07
2.1645738e-09
1.3355827e-11
2.8733444e-12
9.1811655e-13
2.8116198e-13
8.1114019e-14
2.1810962e-14
5.4220258e-15
1.2374775e-15
2.5761437e-16
4.8670853e-17
8.2970301e-18
1.2678909e-18
1.7242558e-19
2.0697706e-20
2.1717286e-21
1.9681045e-22
1.5132608e-23
9.6663907e-25
4.9915237e-26
2.0016528e-27
5.8468074e-29
1.1060204e-30
1.0163677e-32
0.007233028
0.0076325483
0.0080008954
0.0083241764
0.008642462
0.0085417346
0.0077638192
0.0068469872
0.0063425688
0.0061752114
0.0056032513
0.0041255167
0.0021488267
0.0070177748
0.0068669757
0.0063244785
0.0051199299
0.0039828932
0.0037155763
0.0042250452
0.0048882125
0.005098886
0.0043765515
0.002660658
0.00083373501
9.3267239e-05
3.4063041e-06
4.5236027e-08
2.2772859e-10
8.8431682e-12
2.9914223e-12
9.9992887e-13
3.1438892e-13
9.200739e-14
2.4890218e-14
6.1891823e-15
1.4072902e-15
2.9109331e-16
5.4552852e-17
9.2160704e-18
1.3952277e-18
1.8801372e-19
2.2375423e-20
2.3295194e-21
2.0957121e-22
1.5999913e-23
1.0160546e-24
5.2221096e-26
2.0866143e-27
6.0792941e-29
1.1480682e-30
1.1170995e-34
0.0068957137
0.0070679906
0.0074971248
0.0079192499
0.0082610584
0.0084832361
0.0081452211
0.0071005871
0.005968556
0.0052755485
0.0048620006
0.0040243264
0.0023380639
0.0006478687
0.0068582358
0.0064959484
0.0055101267
0.0044504311
0.0041563305
0.0046455933
0.0053526697
0.0056653829
0.0052295624
0.0038478027
0.0017830553
0.00035582035
2.4121007e-05
5.896082e-07
5.3490795e-09
3.9460923e-11
9.1670558e-12
3.3307834e-12
1.1367673e-12
3.6035004e-13
1.0552837e-13
2.8432049e-14
7.0195716e-15
1.5816722e-15
3.2385949e-16
6.0050203e-17
1.0037208e-17
1.5040563e-18
2.0076218e-19
2.3689117e-20
2.4480945e-21
2.1865279e-22
1.6588617e-23
1.0482316e-24
5.3675682e-26
2.1392673e-27
6.2232226e-29
1.3879318e-32
5.8935873e-37
0.0068097285
0.0067265887
0.0068425103
0.0072870375
0.0077699202
0.0081178629
0.0082258425
0.0076390044
0.0063270068
0.0049842118
0.0040987789
0.0034742697
0.0023706839
0.00078002057
8.7654531e-05
0.0066214912
0.0058292086
0.0048632621
0.0045399172
0.0049695887
0.0056512138
0.006009776
0.0057569374
0.0047036196
0.0027891804
0.00089276312
0.00011138709
4.9373974e-06
8.2760361e-08
5.6200019e-10
2.7268493e-11
1.0410705e-11
3.8426968e-12
1.3136451e-12
4.1442539e-13
1.2036259e-13
3.2095638e-14
7.8333669e-15
1.743863e-15
3.527798e-16
6.4643608e-17
1.0684451e-17
1.5846109e-18
2.0957448e-19
2.4532066e-20
2.518208e-21
2.2340987e-22
1.6860971e-23
1.0613489e-24
5.4208004e-26
2.1574399e-27
8.2839895e-31
8.1836031e-35
1.3149977e-39
0.0067015926
0.0067181251
0.006505892
0.006551786
0.0070011924
0.0075284788
0.0078805036
0.0078564439
0.0070111784
0.005442994
0.0039165692
0.0028912566
0.0020532601
0.00086742964
0.00012590581
7.7104802e-06
0.006086663
0.0052213002
0.0048743454
0.0052197154
0.0058303311
0.0061655462
0.0060296833
0.0053167764
0.0037025493
0.0015939763
0.00033710965
2.7072927e-05
8.1595851e-07
9.5735419e-09
1.0912986e-10
3.0634878e-11
1.2173426e-11
4.4699532e-12
1.5122418e-12
4.7116516e-13
1.3502503e-13
3.5513332e-14
8.5486825e-15
1.8775921e-15
3.7498799e-16
6.7888417e-17
1.1097303e-17
1.6297253e-18
2.1371805e-19
2.4840982e-20
2.5340815e-21
2.2357511e-22
1.6805655e-23
1.0550993e-24
5.3816715e-26
3.1645141e-29
5.4657566e-33
2.0624762e-37
1.086936e-42
0.0062908684
0.0067379884
0.0065815018
0.0062321281
0.0061931539
0.0066292867
0.0071889888
0.0075337133
0.007361245
0.0062527553
0.0044606847
0.0028229388
0.0017071703
0.00077881967
0.00016091943
1.2488844e-05
5.328487e-07
0.0055268263
0.0051645354
0.005417351
0.0059264072
0.0061946352
0.0060952301
0.0056547329
0.0044821253
0.0024047727
0.00070474535
9.8055309e-05
5.2497508e-06
1.1042604e-07
1.0558552e-09
8.6988752e-11
3.6244811e-11
1.4241764e-11
5.1449664e-12
1.711705e-12
5.2465738e-13
1.4798284e-13
3.8326458e-14
9.0906255e-15
1.9690366e-15
3.8824623e-16
6.947177e-17
1.1238463e-17
1.6357103e-18
2.1290689e-19
2.4602548e-20
2.495813e-21
2.1926864e-22
1.6437378e-23
1.0306288e-24
8.7000388e-28
2.337939e-31
1.5605593e-35
1.91102e-40
3.6821972e-46
0.0057836715
0.0064510047
0.006732064
0.0064029273
0.0059038057
0.0057646049
0.006170538
0.0067411081
0.0070657581
0.0067273831
0.0053611559
0.0034033479
0.0017578597
0.00069281287
0.00015864371
1.7977415e-05
9.2557565e-07
2.6171279e-08
0.0054137583
0.0055758563
0.0059695011
0.0061433532
0.006021544
0.0057512467
0.0050184819
0.0032412827
0.0012449277
0.00024180001
2.2496474e-05
8.2858884e-07
1.2641659e-08
2.8739512e-10
1.0184164e-10
4.2639151e-11
1.6381856e-11
5.7935575e-12
1.8903964e-12
5.6909734e-13
1.578256e-13
4.0229783e-14
9.4012443e-15
2.0087143e-15
3.9125176e-16
6.925379e-17
1.1098348e-17
1.6027306e-18
2.0732058e-19
2.3843373e-20
2.4080152e-21
2.1095734e-22
1.579347e-23
1.8359335e-26
7.1984811e-30
7.5778473e-34
1.6325197e-38
6.9655272e-44
6.7008207e-50
0.0056247883
0.0059971871
0.0065731375
0.0066911301
0.0061832247
0.00551917
0.0052664281
0.0056223417
0.0061839061
0.0064721825
0.0059407097
0.0043243806
0.0023036944
0.00082827189
0.00017354526
2.0863033e-05
1.4909715e-06
4.9571554e-08
8.9820922e-10
0.0057014047
0.0059761052
0.0060441773
0.0058651849
0.0056795296
0.0052916741
0.0039744603
0.0019038868
0.0005175255
6.5237908e-05
4.1587708e-06
1.0861509e-07
1.6645294e-09
2.7436761e-10
1.2044882e-10
4.9020016e-11
1.8346314e-11
6.3425064e-12
2.0283095e-12
5.9950188e-13
1.63457e-13
4.1015166e-14
9.4479384e-15
1.9928252e-15
3.8380728e-16
6.728187e-17
1.0695247e-17
1.534582e-18
1.975622e-19
2.2632497e-20
2.2789163e-21
1.9937387e-22
3.0983977e-25
1.7007636e-28
2.6522921e-32
9.0050828e-37
6.4685331e-42
1.3105976e-47
7.9476771e-54
0.0057965557
0.005800757
0.0061784799
0.0066652927
0.0066182778
0.0059190009
0.0050761784
0.0047003724
0.0049906306
0.0055368079
0.0057348195
0.0049819963
0.0031390143
0.0012381449
0.00026417258
3.0047391e-05
2.1219024e-06
9.1753097e-08
1.8734363e-09
3.0934435e-11
0.0059528066
0.0059129112
0.0056648357
0.0055091958
0.0053529358
0.0045091057
0.0026064178
0.00091120886
0.00017328425
1.4089873e-05
6.3353151e-07
1.2999488e-08
7.7081995e-10
3.2336106e-10
1.3855865e-10
5.4605282e-11
1.990401e-11
6.7288465e-12
2.1096627e-12
6.124481e-13
1.6426017e-13
4.0602725e-14
9.2279938e-15
1.9236639e-15
3.6680629e-16
6.3774087e-17
1.0071022e-17
1.4379115e-18
1.8453838e-19
2.1075689e-20
2.1190648e-21
4.3032231e-24
3.2110714e-27
7.1285528e-31
3.5986839e-35
3.9182759e-40
1.2687681e-45
1.5663758e-51
6.9337069e-58
0.0059001485
0.0058614723
0.0059501161
0.0063406283
0.0067300523
0.0065089483
0.0056014482
0.0045713053
0.0040715591
0.0042900793
0.0047854206
0.0048488271
0.0038011898
0.0018469774
0.00045744709
5.5481758e-05
3.8005033e-06
1.6077887e-07
4.0281129e-09
5.849362e-11
4.0451439e-12
0.0057547321
0.0054397431
0.0052911078
0.0052761947
0.0048251909
0.003265386
0.0014024797
0.00035610805
4.7149016e-05
2.5127793e-06
8.6120627e-08
2.9898372e-09
8.4844274e-10
3.7441194e-10
1.5394015e-10
5.8707089e-11
2.08734e-11
6.9081834e-12
2.1254475e-12
6.0659506e-13
1.6018852e-13
3.9050174e-14
8.767886e-15
1.8089675e-15
3.4203463e-16
5.9075901e-17
9.2833833e-18
1.3210653e-18
1.691904e-19
1.9292418e-20
5.0247467e-23
4.9830526e-26
1.5311029e-29
1.1087622e-33
1.7363567e-38
8.0739859e-44
1.5392828e-49
1.3521847e-55
4.82466e-62
0.0055682126
0.0058171968
0.0059054965
0.0060819255
0.006480078
0.0067626599
0.0063488978
0.0052161125
0.004001602
0.0033896463
0.0035311952
0.0039384443
0.0037575773
0.0023998335
0.00075324071
0.00010650835
7.836826e-06
3.3724587e-07
8.5135055e-09
1.2956925e-10
4.5415009e-12
1.1018026e-12
0.0051963066
0.0050511818
0.0051307034
0.0049590146
0.0038117332
0.0019469686
0.00062270585
0.00011425917
1.0864406e-05
4.6162953e-07
2.5428443e-08
3.2589953e-09
1.0308919e-09
4.1926916e-10
1.6437787e-10
6.0844138e-11
2.1147002e-11
6.862452e-12
2.0747753e-12
5.8285152e-13
1.5175309e-13
3.6537042e-14
8.1174086e-15
1.6603588e-15
3.1183823e-16
5.3600622e-17
8.3965549e-18
1.1929689e-18
1.526035e-19
5.0163967e-22
6.4901609e-25
2.7014836e-28
2.7382478e-32
5.9883565e-37
3.7873801e-42
1.0009422e-47
1.3243006e-53
9.1806384e-60
3.1860623e-66
0.0049310213
0.0053507824
0.005713577
0.0059344621
0.0061940582
0.0065895817
0.0067473222
0.0061142624
0.0047468589
0.0033681783
0.0026707382
0.0027431611
0.0029731112
0.0024399257
0.0010710952
0.00019080979
1.60188e-05
7.4884219e-07
2.0009436e-08
3.0648514e-10
6.0033102e-12
1.100354e-12
3.0112941e-13
0.0047988523
0.0049583035
0.0049826007
0.0042115887
0.0024934
0.00096767774
0.00023074017
3.2433441e-05
3.1179153e-06
3.6077457e-07
5.2177862e-08
6.7233264e-09
1.2739174e-09
4.4602651e-10
1.6794138e-10
6.0806831e-11
2.0708022e-11
6.6020097e-12
1.9646476e-12
5.4411826e-13
1.3990696e-13
3.3327731e-14
7.3401567e-15
1.4912875e-15
2.7873736e-16
4.7767046e-17
7.472535e-18
1.0615901e-18
4.3412142e-21
7.2114833e-24
3.995871e-27
5.5666904e-31
1.6701407e-35
1.3933365e-40
4.8270815e-46
8.6381621e-52
8.8345283e-58
5.863558e-64
2.168118e-70
0.0045299884
0.0046349985
0.0051060946
0.0055876537
0.0059414833
0.0062753558
0.0066512668
0.0066561238
0.0057772777
0.004179329
0.0026832716
0.0019525578
0.0019314814
0.0018730997
0.0011410101
0.00029822454
3.0474443e-05
1.60533e-06
4.7085619e-08
7.6741015e-10
1.0116935e-11
1.1126805e-12
2.9857379e-13
7.7235741e-14
0.0047754452
0.0049564511
0.0044751006
0.0030034446
0.0013754342
0.00041494619
8.3415154e-05
1.5103609e-05
3.953784e-06
9.8598489e-07
1.6051211e-07
1.443853e-08
1.4445373e-09
4.4767969e-10
1.6507051e-10
5.8677428e-11
1.9632182e-11
6.1622614e-12
1.8083162e-12
4.9467396e-13
1.2585745e-13
2.9723069e-14
6.5027984e-15
1.3149524e-15
2.4507184e-16
4.1947756e-17
6.5646156e-18
3.2950544e-20
6.9277653e-23
5.0334843e-26
9.4978365e-30
3.8655212e-34
4.1784771e-39
1.8360592e-44
4.2028268e-50
5.700453e-56
5.4915125e-62
3.8375427e-68
1.525213e-74
0.0045830246
0.0042358299
0.0043052142
0.0048208887
0.0054282314
0.0059032064
0.0063028677
0.0066340187
0.0064543311
0.0053067637
0.0035122031
0.001965185
0.0012530427
0.0011077027
0.00084832238
0.00033363905
5.1503385e-05
3.2001647e-06
1.0543633e-07
1.8845775e-09
2.1218589e-11
1.1581178e-12
2.9686343e-13
7.657161e-14
1.8363506e-14
0.0049121314
0.0046572871
0.0034473824
0.0018244138
0.00068796268
0.00020196157
6.4614092e-05
2.6535564e-05
1.0544698e-05
2.8494298e-06
3.823099e-07
2.0974348e-08
1.3545713e-09
4.281733e-10
1.5687895e-10
5.4804918e-11
1.8065173e-11
5.5952936e-12
1.6225866e-12
4.3936463e-13
1.1085507e-13
2.6012503e-14
5.6655649e-15
1.1426279e-15
2.1275019e-16
3.6434984e-17
2.2162963e-19
5.8190071e-22
5.4688518e-25
1.3803343e-28
7.5626949e-33
1.0487182e-37
5.7239575e-43
1.6210329e-48
2.7602787e-54
3.4719742e-60
3.4723514e-66
2.5900859e-72
1.1086197e-78
0.0048602273
0.0043717006
0.0039074406
0.0039309693
0.0044805307
0.0051965096
0.0057891245
0.0062398589
0.0064986135
0.0061005322
0.0046917678
0.0027027488
0.0012271284
0.0006305939
0.00044563727
0.00023943543
5.9857798e-05
5.7368494e-06
2.1942273e-07
4.3917265e-09
4.9287258e-11
1.3067869e-12
2.9518588e-13
7.6104413e-14
1.8209976e-14
4.0231134e-15
0.0047976594
0.0038193634
0.0022841391
0.0010528738
0.00044156606
0.00022873033
0.0001326541
6.6676742e-05
2.7173014e-05
6.3287317e-06
5.7439374e-07
1.7235699e-08
1.1248664e-09
3.9764759e-10
1.4428294e-10
4.9715984e-11
1.6189854e-11
4.9600099e-12
1.4247899e-12
3.8280637e-13
9.6009963e-14
2.2437121e-14
4.8756733e-15
9.8269664e-16
1.8312332e-16
1.3334009e-18
4.3160234e-21
5.1802355e-24
1.7290603e-27
1.2679912e-31
2.2451668e-36
1.5016539e-41
5.1481742e-47
1.0650425e-52
1.6581111e-58
2.1341301e-64
2.2525154e-70
1.8086693e-76