/*--------------------------------*- C++ -*----------------------------------*\
| =========                 |                                                 |
| \\      /  F ield         | OpenFOAM: The Open Source CFD Toolbox           |
|  \\    /   O peration     | Version:  5.0                                   |
|   \\  /    A nd           | Web:      www.OpenFOAM.org                      |
|    \\/     M anipulation  |                                                 |
\*---------------------------------------------------------------------------*/
FoamFile
{
    version     2.0;
    format      ascii;
    class       volScalarField;
    location    "80";
    object      nuTilda_0;
}
// * * * * * * * * * * * * * * * * * * * * * * * * * * * * * * * * * * * * * //

dimensions      [0 2 -1 0 0 0 0];

internalField   nonuniform List<scalar> 
9520
(
3.1873666e-32
3.3533504e-30
3.1422635e-32
1.73131e-28
3.310156e-30
3.1059228e-32
5.815513e-27
1.7105305e-28
3.2751697e-30
3.0740627e-32
1.4280994e-25
5.7499841e-27
1.6934928e-28
3.2437713e-30
3.0421451e-32
2.7340565e-24
1.4129056e-25
5.695346e-27
1.6777792e-28
3.2112501e-30
3.0063689e-32
4.2512022e-23
2.7064376e-24
1.3999952e-25
5.6434443e-27
1.6610264e-28
3.1740201e-30
2.9651333e-32
5.5219183e-22
4.210057e-23
2.6824896e-24
1.3873754e-25
5.5867139e-27
1.6416345e-28
3.1311504e-30
2.9201466e-32
6.1173298e-21
5.4702575e-22
4.1736367e-23
2.6584552e-24
1.3733117e-25
5.520759e-27
1.6195256e-28
3.0853042e-30
2.8763286e-32
5.8725789e-20
6.0613646e-21
5.423664e-22
4.1362604e-23
2.6313091e-24
1.3569854e-25
5.4467092e-27
1.5964856e-28
3.0422361e-30
2.8401419e-32
4.9476049e-19
5.8193936e-20
6.0101635e-21
5.3750517e-22
4.0937687e-23
2.60001e-24
1.3390096e-25
5.3718122e-27
1.5756914e-28
3.0086455e-30
2.8167665e-32
3.6959995e-18
4.9025243e-19
5.7703258e-20
5.956292e-21
5.3197976e-22
4.0453782e-23
2.5663441e-24
1.3214238e-25
5.3071299e-27
1.5604229e-28
2.9890253e-30
2.8072034e-32
2.4692584e-17
3.6614777e-18
4.8608693e-19
5.7186856e-20
5.8954752e-21
5.2579252e-22
3.9947426e-23
2.5346085e-24
1.3069578e-25
5.2626932e-27
1.5523917e-28
2.982788e-30
2.8065945e-32
1.4861743e-16
2.4451394e-17
3.6298907e-18
4.8175832e-19
5.6612295e-20
5.8287896e-21
5.1951738e-22
3.9489723e-23
2.5098958e-24
1.2977409e-25
5.2418971e-27
1.550401e-28
2.9830067e-30
2.8046449e-32
8.1106224e-16
1.4707455e-16
2.4236256e-17
3.5980083e-18
4.7706082e-19
5.5998287e-20
5.7634861e-21
5.1410962e-22
3.9155353e-23
2.4954845e-24
1.2939673e-25
5.2376491e-27
1.5499975e-28
2.9775349e-30
2.7882083e-32
4.0351211e-15
8.0194099e-16
1.4575201e-16
2.4029259e-17
3.564603e-18
4.7218415e-19
5.5420001e-20
5.7102437e-21
5.1045295e-22
3.8980702e-23
2.4904368e-24
1.2931451e-25
5.2323043e-27
1.5443989e-28
2.9523053e-30
2.7452066e-32
1.8397673e-14
3.9854925e-15
7.9458314e-16
1.4456949e-16
2.382255e-17
3.530984e-18
4.6778146e-19
5.4978522e-20
5.6776392e-21
5.0880864e-22
3.8929995e-23
2.4885928e-24
1.2903661e-25
5.2019241e-27
1.5264534e-28
2.895698e-30
2.6685087e-32
7.7238138e-14
1.8143171e-14
3.9480175e-15
7.8865066e-16
1.4346264e-16
2.3620995e-17
3.5019529e-18
4.646773e-19
5.4742851e-20
5.6660657e-21
5.0843251e-22
3.8887062e-23
2.4796448e-24
1.2796149e-25
5.1235587e-27
1.4909469e-28
2.8024114e-30
2.5583945e-32
3.0126467e-13
7.6020942e-14
1.7968302e-14
3.9223081e-15
7.8359248e-16
1.4241142e-16
2.3454009e-17
3.4833863e-18
4.6333778e-19
5.469234e-20
5.6642068e-21
5.0757177e-22
3.868067e-23
2.4520968e-24
1.2556818e-25
4.9829279e-27
1.4364143e-28
2.6754526e-30
2.4227706e-32
1.0997601e-12
2.9585234e-13
7.5273968e-14
1.7875826e-14
3.9038409e-15
7.7885821e-16
1.4156479e-16
2.3359128e-17
3.477997e-18
4.6339185e-19
5.468999e-20
5.6502117e-21
5.0390322e-22
3.8136686e-23
2.397074e-24
1.2159753e-25
4.779653e-27
1.3658019e-28
2.5255758e-30
2.2751245e-32
4.0777183e-12
1.0800868e-12
2.9327939e-13
7.5042181e-14
1.7832218e-14
3.886133e-15
7.7502046e-16
1.4114712e-16
2.3351104e-17
3.4817476e-18
4.6346408e-19
5.4505264e-20
5.5977149e-21
4.9527706e-22
3.7138042e-23
2.3115412e-24
1.1615481e-25
4.5281282e-27
1.2857611e-28
2.3684203e-30
2.1309567e-32
3.7263485e-11
4.4052576e-12
1.0788619e-12
2.938603e-13
7.5101668e-14
1.778364e-14
3.8702269e-15
7.7337867e-16
1.4124925e-16
2.3397928e-17
3.482989e-18
4.6146295e-19
5.3883004e-20
5.4846571e-21
4.8048618e-22
3.5669367e-23
2.1996992e-24
1.0969605e-25
4.2537731e-27
1.2048444e-28
2.2203552e-30
2.003862e-32
1.1611078e-09
6.774788e-11
5.2845247e-12
1.1011831e-12
2.9612901e-13
7.5066274e-14
1.7722901e-14
3.8640167e-15
7.7467958e-16
1.416824e-16
2.341612e-17
3.4653741e-18
4.5527555e-19
5.2633337e-20
5.3014956e-21
4.597572e-22
3.3828918e-23
2.072038e-24
1.0290411e-25
3.9860487e-27
1.1312281e-28
2.0943646e-30
1.9023977e-32
3.0757377e-08
2.4081528e-09
1.3303563e-10
7.1049766e-12
1.1434124e-12
2.9746781e-13
7.4835574e-14
1.7697862e-14
3.8742162e-15
7.7815878e-16
1.4193226e-16
2.3294889e-17
3.4143379e-18
4.4363608e-19
5.0709123e-20
5.0554895e-21
4.3476961e-22
3.1803267e-23
1.9424041e-24
9.6499237e-26
3.7506046e-27
1.0706742e-28
1.9971329e-30
1.8284979e-32
5.5035498e-07
6.0260476e-08
5.024329e-09
2.5861677e-10
1.033084e-11
1.1975679e-12
2.9655895e-13
7.4708651e-14
1.7765764e-14
3.9000926e-15
7.810971e-16
1.4133103e-16
2.2947527e-17
3.3211226e-18
4.2619119e-19
4.8212356e-20
4.7693546e-21
4.081951e-22
2.9814151e-23
1.8241368e-24
9.1047467e-26
3.5629768e-27
1.0252899e-28
1.9279847e-30
1.7776401e-32
7.2090358e-06
9.7541157e-07
1.2192393e-07
9.9464156e-09
4.7616162e-10
1.5321276e-11
1.2288133e-12
2.9636662e-13
7.5133435e-14
1.7948019e-14
3.9294386e-15
7.7983562e-16
1.3939095e-16
2.2290882e-17
3.1817255e-18
4.0408936e-19
4.5395603e-20
4.4747946e-21
3.8292681e-22
2.8056413e-23
1.7265353e-24
8.6824461e-26
3.4254754e-27
9.9332868e-29
1.8797148e-30
1.7404843e-32
8.1179709e-05
1.0843348e-05
1.8823036e-06
2.3597477e-07
1.8296348e-08
7.829367e-10
1.6803321e-11
1.3698283e-12
3.0380407e-13
7.6438058e-14
1.8199661e-14
3.9433579e-15
7.7147605e-16
1.3530922e-16
2.1296245e-17
3.0085265e-18
3.798678e-19
4.2584699e-20
4.2032592e-21
3.6126754e-22
2.6646777e-23
1.652697e-24
8.3768235e-26
3.3277492e-27
9.6995341e-29
1.8408478e-30
1.7053869e-32
0.00062431702
9.1731128e-05
1.9437681e-05
3.5418681e-06
4.2465594e-07
2.891064e-08
7.9021259e-10
2.3065973e-11
1.9470659e-12
3.3030597e-13
7.8692538e-14
1.8428021e-14
3.9223393e-15
7.4892523e-16
1.2889098e-16
2.0077156e-17
2.8240622e-18
3.5643256e-19
4.0073239e-20
3.9771076e-21
3.443329e-22
2.5598266e-23
1.5992102e-24
8.1523491e-26
3.2504128e-27
9.4864313e-29
1.7985943e-30
1.6611019e-32
0.0020797058
0.00055097135
0.00013924921
3.5203769e-05
6.2074072e-06
6.4449682e-07
2.7626731e-08
8.5015626e-10
5.3896123e-11
3.7126191e-12
4.0116376e-13
8.1984686e-14
1.8503992e-14
3.8118805e-15
7.1085875e-16
1.2106794e-16
1.8815958e-17
2.6513694e-18
3.3611078e-19
3.8036906e-20
3.8039598e-21
3.3183439e-22
2.4825078e-23
1.5575722e-24
7.9554574e-26
3.1704311e-27
9.228216e-29
1.7417394e-30
1.5990659e-32
0.0037811535
0.0017339662
0.00064520049
0.000232039
5.9366015e-05
9.0598243e-06
5.9913879e-07
2.3874305e-08
1.827655e-09
1.4461253e-10
8.5847079e-12
5.8110415e-13
8.6510858e-14
1.8036554e-14
3.6016304e-15
6.6431214e-16
1.1321183e-16
1.7678369e-17
2.5063459e-18
3.2005187e-19
3.6500682e-20
3.6756606e-21
3.2226938e-22
2.4172998e-23
1.5167494e-24
7.7289701e-26
3.0667349e-27
8.8730656e-29
1.6628483e-30
1.5148516e-32
0.0054790776
0.0032104899
0.0017488762
0.00091961468
0.00036348527
8.2612741e-05
8.2914272e-06
4.485082e-07
4.2231902e-08
4.7440555e-09
3.8203007e-10
2.1212538e-11
9.7195844e-13
8.7316689e-14
1.6925438e-14
3.3409237e-15
6.1904839e-16
1.0642557e-16
1.6757433e-17
2.3942429e-18
3.0803858e-19
3.5340945e-20
3.5717713e-21
3.1341438e-22
2.3464261e-23
1.4660816e-24
7.4257533e-26
2.9247442e-27
8.3928607e-29
1.5594178e-30
1.4086148e-32
0.0071234144
0.004744295
0.0031156634
0.0021629702
0.001292584
0.0004702544
7.5217022e-05
5.6837264e-06
6.4421441e-07
1.0121812e-07
1.2001637e-08
9.6124162e-10
4.7912125e-11
1.2460986e-12
7.9415278e-14
1.5512362e-14
3.0961501e-15
5.8201397e-16
1.0117487e-16
1.6061588e-17
2.3100601e-18
2.9865245e-19
3.4330922e-20
3.4659819e-21
3.0295685e-22
2.2543521e-23
1.3977794e-24
7.0185182e-26
2.7389412e-27
7.7867869e-29
1.4338902e-30
1.284591e-32
0.0085825997
0.0062599123
0.0045481561
0.0035647023
0.0027427129
0.0015307078
0.00042667849
4.9730962e-05
6.6474105e-06
1.4033613e-06
2.4197342e-07
2.8594221e-08
2.1050584e-09
6.5879005e-11
9.3167574e-13
6.8352998e-14
1.4247239e-14
2.9094756e-15
5.5504766e-16
9.7317822e-17
1.5532638e-17
2.2409025e-18
2.8977629e-19
3.3209737e-20
3.3334587e-21
2.8908387e-22
2.1313459e-23
1.3084742e-24
6.504083e-26
2.5132067e-27
7.0789248e-29
1.2927021e-30
1.1499009e-32
0.009830918
0.0076384524
0.0059642283
0.0049615858
0.00421359
0.0030226678
0.0013725626
0.00028788733
4.7787639e-05
1.2933213e-05
3.1627335e-06
5.434286e-07
5.9163619e-08
2.8151983e-09
4.5280704e-11
4.521973e-13
6.080313e-14
1.3368979e-14
2.78272e-15
5.3594851e-16
9.4337449e-17
1.5066069e-17
2.1699752e-18
2.7920683e-19
3.1754321e-20
3.1570749e-21
2.7088656e-22
1.9752791e-23
1.1995962e-24
5.9019473e-26
2.259189e-27
6.3112978e-29
1.1447256e-30
1.0126735e-32
0.010864116
0.0088472495
0.0072633747
0.0063004376
0.005576174
0.0044447567
0.0026887154
0.00097405643
0.00023718924
8.0613155e-05
2.7344606e-05
6.6896886e-06
1.0598026e-06
7.6650504e-08
1.9293989e-09
1.44344e-11
2.64939e-13
5.6671016e-14
1.281536e-14
2.6979539e-15
5.2098268e-16
9.1489055e-17
1.454374e-17
2.0810242e-18
2.6525261e-19
2.9834427e-20
2.9310817e-21
2.4850524e-22
1.7914969e-23
1.0766691e-24
5.2483916e-26
1.9933832e-27
5.5346464e-29
9.9954182e-31
8.8138425e-33
0.011693
0.0098783361
0.0084143648
0.0075049013
0.0068125388
0.0057071745
0.0039514556
0.0020044098
0.00075445221
0.00033481137
0.00015761994
5.4230839e-05
1.2265127e-05
1.330357e-06
5.294471e-08
6.1990048e-10
3.0089013e-12
2.250719e-13
5.4415326e-14
1.2479173e-14
2.6323443e-15
5.0532022e-16
8.800697e-17
1.3872092e-17
1.9632271e-18
2.4714351e-19
2.7438786e-20
2.6616606e-21
2.2301877e-22
1.5910821e-23
9.4785757e-25
4.5881835e-26
1.73379e-27
4.7993408e-29
8.6556534e-31
7.6337586e-33
0.012338507
0.010736979
0.009407008
0.0085502473
0.0078723171
0.0068196888
0.0050936456
0.0030620346
0.00156485
0.00091082017
0.0005893247
0.00028933511
9.2652015e-05
1.4896132e-05
9.3051198e-07
1.7986345e-08
1.1473001e-10
1.0864092e-12
2.142302e-13
5.3281392e-14
1.2240536e-14
2.5558031e-15
4.8438456e-16
8.336449e-17
1.299007e-17
1.8135177e-18
2.2516427e-19
2.4669845e-20
2.364683e-21
1.9614435e-22
1.3881937e-23
8.2223603e-25
3.9661735e-26
1.4969581e-27
4.1483647e-29
7.49894e-31
6.6405259e-33
0.012825515
0.011434792
0.010240517
0.0094312772
0.0087547893
0.0077455556
0.0061156433
0.0040740556
0.0024597597
0.0017300018
0.0014239979
0.00098526972
0.00045264165
0.00010833598
1.058363e-05
3.3790083e-07
3.7139889e-09
1.9776023e-11
8.1916376e-13
2.1129787e-13
5.2670865e-14
1.1917809e-14
2.4422761e-15
4.5553456e-16
7.7433018e-17
1.1894988e-17
1.6368875e-18
2.0052162e-19
2.1713197e-20
2.0616762e-21
1.6985308e-22
1.1972708e-23
7.0822311e-25
3.4206543e-26
1.2959505e-27
3.6114265e-29
6.5729018e-31
5.8669996e-33
0.013175882
0.011983753
0.010917881
0.010148824
0.0094686079
0.0084985866
0.0069753097
0.0050245485
0.0033577718
0.0026073829
0.0024471419
0.0021642415
0.001395687
0.00050549922
7.845005e-05
4.1397741e-06
7.8768635e-08
6.6192086e-10
5.5661244e-12
8.1035694e-13
2.1169018e-13
5.1580862e-14
1.1363734e-14
2.2796734e-15
4.1882139e-16
7.0282468e-17
1.0639241e-17
1.444735e-18
1.7501809e-19
1.8793511e-20
1.7753063e-21
1.4600858e-22
1.0307717e-23
6.1249462e-25
2.9795045e-26
1.1394464e-27
3.2076417e-29
5.9020864e-31
5.3267776e-33
0.013416179
0.012391658
0.011441796
0.010705857
0.010020639
0.0091030235
0.007689249
0.0058601619
0.0042310337
0.0034594106
0.0034263362
0.0034257294
0.0028018643
0.0014804053
0.00037377205
3.3454221e-05
1.0857869e-06
1.5937696e-08
1.5021864e-10
5.5766441e-12
8.8903951e-13
2.104367e-13
4.9171306e-14
1.0524952e-14
2.073596e-15
3.7670943e-16
6.2312488e-17
9.3135215e-18
1.2519924e-18
1.5064916e-19
1.6130409e-20
1.5255554e-21
1.261073e-22
8.9782469e-24
5.3948592e-25
2.6591789e-26
1.03156e-27
2.9444927e-29
5.4916385e-31
5.0181532e-33
0.012659653
0.013543784
0.011812675
0.011105418
0.010416101
0.0095696179
0.008299472
0.0065868289
0.0050324425
0.0042627325
0.0042957412
0.0044917274
0.0041415519
0.002841216
0.0011195265
0.00017643
9.891046e-06
2.5033552e-07
4.4448117e-09
1.7711329e-10
1.160046e-11
1.0489214e-12
2.0219266e-13
4.5186573e-14
9.4575625e-15
1.8428792e-15
3.3118596e-16
5.4148554e-17
8.0252457e-18
1.0739781e-18
1.292386e-19
1.3904904e-20
1.3273216e-21
1.1115294e-22
8.0383182e-24
4.9141e-25
2.4658626e-26
9.7292784e-28
2.8202044e-29
5.332151e-31
4.9285224e-33
0.012027874
0.012781135
0.013512423
0.011349688
0.010661557
0.0098982136
0.0088142579
0.0072371931
0.0057512688
0.0049958355
0.005034712
0.0053416342
0.0051722354
0.0040865029
0.0022014247
0.0005898504
5.9570662e-05
2.6079546e-06
8.9316448e-08
6.1009176e-09
4.951912e-10
2.5300329e-11
1.1734456e-12
1.841529e-13
4.0040065e-14
8.2892487e-15
1.6067912e-15
2.8596338e-16
4.6471292e-17
6.8773109e-18
9.2382351e-19
1.1219146e-19
1.2241604e-20
1.1895907e-21
1.0165166e-22
7.5079377e-24
4.6860208e-25
2.3976067e-26
9.6160961e-28
2.8263809e-29
5.404279e-31
5.0381309e-33
0.011439312
0.01208459
0.01275387
0.01330265
0.010765509
0.01009631
0.0092131353
0.0078111438
0.0063951622
0.005647491
0.0056715969
0.0059916779
0.0059302479
0.005029251
0.0032489131
0.0012829946
0.00023120723
1.8270792e-05
1.1899745e-06
1.3701511e-07
1.6492052e-08
1.2010603e-09
3.8616971e-11
1.0401462e-12
1.5938426e-13
3.452784e-14
7.155788e-15
1.3796952e-15
2.4488351e-16
3.9891552e-17
5.9524787e-18
8.1094944e-19
1.0039047e-19
1.1205954e-20
1.1158393e-21
9.7684932e-23
7.3800076e-24
4.6997848e-25
2.4456172e-26
9.9369516e-28
2.95012e-29
5.6820699e-31
5.3224911e-33
0.010733608
0.011376644
0.011981318
0.012586458
0.012897392
0.010179221
0.009485138
0.0082961164
0.0069675632
0.0062214566
0.0062070487
0.0065069053
0.0064909998
0.005733739
0.0041014937
0.0020531324
0.0005850162
8.5744494e-05
1.0600593e-05
1.966157e-06
3.4757624e-07
3.8546259e-08
1.8784871e-09
3.3621437e-11
7.2551114e-13
1.3418548e-13
2.9425052e-14
6.1146001e-15
1.1809793e-15
2.1117609e-16
3.4868928e-17
5.3055885e-18
7.4063852e-19
9.4212183e-20
1.0811636e-20
1.1050791e-21
9.9008749e-23
7.627498e-24
4.934553e-25
2.5975591e-26
1.0638822e-27
3.1753389e-29
6.1348371e-31
5.7537373e-33
0.010139382
0.010574552
0.011165114
0.011745579
0.012252311
0.012281788
0.0096503384
0.0086799416
0.0074658797
0.0067250794
0.0066535222
0.0068978513
0.0068998219
0.0062841902
0.0048228373
0.0027672672
0.0010746388
0.00027309618
6.3521326e-05
1.8277664e-05
4.652655e-06
7.7050194e-07
5.8994027e-08
1.6522059e-09
1.4922051e-11
5.0818962e-13
1.1242679e-13
2.5017064e-14
5.240692e-15
1.0259385e-15
1.8709644e-16
3.1680206e-17
4.9629137e-18
7.1440692e-19
9.361081e-20
1.1031793e-20
1.1529693e-21
1.0513947e-22
8.2087028e-24
5.3620456e-25
2.8378713e-26
1.1657813e-27
3.4833938e-29
6.7280054e-31
6.3011116e-33
0.0096938337
0.0099796797
0.010291506
0.01082076
0.011370588
0.011736934
0.011443619
0.008961415
0.0078851804
0.0071631725
0.0070263918
0.0071878961
0.0071737642
0.0066857592
0.005453814
0.0034839538
0.0016253545
0.0006287324
0.00025563601
0.00011152163
4.0129906e-05
9.6905252e-06
1.1445911e-06
5.2263414e-08
7.281845e-10
3.8894691e-12
4.0273729e-13
9.4968229e-14
2.1504199e-14
4.5986893e-15
9.2434427e-16
1.738413e-16
3.0427617e-17
4.9259523e-18
7.307273e-19
9.8214769e-20
1.1808949e-20
1.2526278e-21
1.1540729e-22
9.0700057e-24
5.9450459e-25
3.148075e-26
1.2920384e-27
3.8533336e-29
7.4234375e-31
6.9312464e-33
0.0091345825
0.0096208153
0.0097071618
0.0098939052
0.010350446
0.010873085
0.011022078
0.010372435
0.0082227123
0.007536253
0.0073385689
0.0074001635
0.0073400882
0.0069504045
0.0059662252
0.0041852277
0.0022535858
0.0011242365
0.00069054783
0.00044538567
0.00022511243
7.7644186e-05
1.3876378e-05
1.0176804e-06
2.4245423e-08
1.4956479e-10
1.5149381e-12
3.3627053e-13
8.1951477e-14
1.9108835e-14
4.2254239e-15
8.8046364e-16
1.71652e-16
3.1067243e-17
5.1764934e-18
7.8571124e-19
1.0739911e-19
1.306112e-20
1.3950448e-21
1.2897937e-22
1.0147271e-23
6.6418507e-25
3.5070013e-26
1.4344202e-27
4.2621465e-29
8.1799457e-31
7.6086432e-33
0.0084746134
0.0092043144
0.009439575
0.0093287594
0.0093941099
0.0097876166
0.010229285
0.010086274
0.0090611296
0.0078425557
0.0075962094
0.0075533654
0.0074251776
0.0071004451
0.0063493274
0.0048174772
0.0029147188
0.0016890658
0.0013230342
0.001155222
0.00081642819
0.00039743792
0.00010620968
1.2352294e-05
4.9693541e-07
5.5308272e-09
1.8398278e-11
1.1247869e-12
2.9124475e-13
7.3902019e-14
1.7946968e-14
4.1318469e-15
8.9382193e-16
1.7998708e-16
3.3438717e-17
5.6806367e-18
8.735442e-19
1.2032311e-19
1.4684416e-20
1.5692349e-21
1.4486852e-22
1.1366378e-23
7.4052366e-25
3.891182e-26
1.5839892e-27
4.6853114e-29
8.9543494e-31
8.2966189e-33
0.0080781942
0.0086397082
0.0091755122
0.0091571946
0.0088522846
0.0087987579
0.0091266198
0.0094005381
0.0089128416
0.0075122341
0.0077987045
0.0076573824
0.0074503224
0.0071620866
0.0066103106
0.0053561888
0.0035617611
0.0022910885
0.0019762559
0.0020829033
0.0019158214
0.0012903263
0.0005125004
9.4401147e-05
6.3574544e-06
1.2735487e-07
6.9403045e-10
4.52355e-12
9.6920291e-13
2.6690025e-13
7.1061196e-14
1.8024789e-14
4.3074741e-15
9.6009823e-16
1.9767101e-16
3.7285279e-17
6.3909751e-18
9.8668036e-19
1.3594551e-19
1.6554359e-20
1.762383e-21
1.619485e-22
1.2638671e-23
8.1837991e-25
4.2756757e-26
1.7314471e-27
5.0977859e-29
9.7032621e-31
8.9588531e-33
0.0079405329
0.0082404159
0.0087226293
0.0090530695
0.0087802165
0.0082810286
0.0081050111
0.0083253509
0.0083588957
0.0074971507
0.0057523815
0.0077129871
0.0074284372
0.0071592716
0.006770286
0.0057880491
0.0041646708
0.002891209
0.0025895931
0.0029473301
0.0031583096
0.0027160588
0.0015514098
0.00045348709
5.1429498e-05
1.8298708e-06
1.9299386e-08
7.5491972e-11
3.0842205e-12
9.0262687e-13
2.6298043e-13
7.327579e-14
1.9259617e-14
4.7243932e-15
1.0717623e-15
2.2297973e-16
4.2263376e-17
7.2475789e-18
1.1159591e-18
1.5304224e-19
1.8528683e-20
1.9602309e-21
1.7900192e-22
1.3874495e-23
8.9245877e-25
4.6354238e-26
1.867652e-27
5.4754118e-29
1.0385503e-30
9.5612848e-33
0.0077144999
0.0080146741
0.0083269835
0.0087294422
0.0088400723
0.0083110435
0.0076130299
0.0072971466
0.0073540394
0.0070931392
0.0058564288
0.0039424997
0.0073630814
0.0071122936
0.0068535264
0.0061170492
0.004701854
0.0034620136
0.0031588385
0.003606487
0.004172561
0.0040979331
0.0030544567
0.0013652267
0.00026399981
1.670788e-05
3.3391024e-07
2.3373517e-09
1.3792004e-11
2.8670661e-12
9.1146837e-13
2.7814549e-13
8.0056068e-14
2.1495603e-14
5.3396402e-15
1.2183976e-15
2.5368218e-16
4.7949019e-17
8.1792489e-18
1.2508591e-18
1.7025108e-19
2.0453807e-20
2.1478427e-21
1.9478459e-22
1.4985372e-23
9.5768177e-25
4.9470151e-26
1.9842567e-27
5.7965532e-29
1.0964721e-30
1.0074191e-32
0.007252023
0.0076531883
0.0080152396
0.0083384989
0.0086546529
0.0085357632
0.0077461131
0.0068410951
0.006359342
0.0062020189
0.0056159907
0.0041162259
0.0021359566
0.0070271088
0.0068788187
0.0063581782
0.0051632512
0.0039870609
0.0036680797
0.0041507258
0.0048219388
0.0050657106
0.0043794115
0.0026898995
0.00085777598
9.8394713e-05
3.6424125e-06
4.8818735e-08
2.4552187e-10
8.8318593e-12
2.9635777e-12
9.8750281e-13
3.0993308e-13
9.0626836e-14
2.4511469e-14
6.0963614e-15
1.3869214e-15
2.8709311e-16
5.3851284e-17
9.1065298e-18
1.3800558e-18
1.8615711e-19
2.217567e-20
2.3107281e-21
2.0803032e-22
1.5891385e-23
1.0096124e-24
5.1905956e-26
2.0743601e-27
6.043677e-29
1.1411871e-30
1.1046456e-34
0.0069025072
0.0070882481
0.007523136
0.007939357
0.0082782285
0.0084928647
0.0081332276
0.0070777204
0.0059591926
0.0052893042
0.0048835998
0.0040306813
0.0023262813
0.00064079208
0.006863908
0.0065214369
0.0055500852
0.0044586194
0.0041159466
0.004579029
0.0052959655
0.0056417013
0.0052442061
0.0038934999
0.0018318062
0.00037349436
2.572786e-05
6.3557166e-07
5.8055838e-09
4.0741902e-11
9.0652787e-12
3.2844374e-12
1.1196698e-12
3.5484806e-13
1.0394974e-13
2.8025147e-14
6.9252289e-15
1.5620276e-15
3.201958e-16
5.9441041e-17
9.9472872e-18
1.4923251e-18
1.9941605e-19
2.3553957e-20
2.4362941e-21
2.1774654e-22
1.6528784e-23
1.0448598e-24
5.3515658e-26
2.1330516e-27
6.2046081e-29
1.3761237e-32
5.8124132e-37
0.0068094332
0.0067306437
0.0068639339
0.0073181582
0.0077955924
0.0081383162
0.0082327769
0.0076211526
0.0062993154
0.0049712908
0.0041081922
0.0034891609
0.0023703155
0.00077198629
8.6179583e-05
0.0066395149
0.0058646345
0.0048747769
0.0045072417
0.00491201
0.0056049329
0.0059962513
0.0057755215
0.0047531447
0.0028578825
0.00093226265
0.00011843162
5.3154696e-06
8.9841373e-08
6.0767835e-10
2.7012824e-11
1.0251981e-11
3.7822848e-12
1.2935083e-12
4.084169e-13
1.18746e-13
3.1703279e-14
7.7477209e-15
1.727128e-15
3.4986845e-16
6.4196943e-17
1.0624595e-17
1.5776899e-18
2.0889618e-19
2.44772e-20
2.5146922e-21
2.2323953e-22
1.6856165e-23
1.0613793e-24
5.4217404e-26
2.1577566e-27
8.2373545e-31
8.0910275e-35
1.2932224e-39
0.0067126915
0.006712
0.0065068877
0.0065738099
0.0070375091
0.0075599394
0.0079041485
0.007860536
0.0069876969
0.0054110748
0.0039003572
0.0028958096
0.0020603038
0.00086412833
0.00012389233
7.5556693e-06
0.006117437
0.0052353259
0.0048492626
0.0051715355
0.0057941088
0.006161333
0.0060515871
0.0053614452
0.0037756655
0.0016570867
0.00035705959
2.9097188e-05
8.8542983e-07
1.0443564e-08
1.1176407e-10
3.0134e-11
1.1974994e-11
4.4016896e-12
1.4912076e-12
4.6531298e-13
1.3355531e-13
3.5182008e-14
8.4822157e-15
1.8658725e-15
3.7320425e-16
6.7663121e-17
1.1075622e-17
1.6285896e-18
2.1380917e-19
2.4875544e-20
2.5395335e-21
2.2418251e-22
1.6857945e-23
1.0586129e-24
5.3998054e-26
3.1563707e-29
5.4190129e-33
2.0328108e-37
1.0661606e-42
0.0063172118
0.0067423585
0.0065694779
0.0062294047
0.0062151388
0.0066698107
0.007225869
0.007559302
0.0073622642
0.0062240846
0.0044257035
0.0028047055
0.0017061169
0.00077929847
0.00015959837
1.2243848e-05
5.2043108e-07
0.0055423443
0.0051465121
0.0053784674
0.0058996031
0.0061989238
0.0061200214
0.0056935463
0.0045511302
0.0024854402
0.00074330588
0.00010512822
5.6932293e-06
1.2061374e-07
1.1387695e-09
8.5714214e-11
3.5633634e-11
1.4025547e-11
5.0767016e-12
1.6922868e-12
5.1968746e-13
1.4685035e-13
3.8100934e-14
9.0527078e-15
1.9640645e-15
3.8787079e-16
6.9506959e-17
1.1259572e-17
1.6408057e-18
2.1380001e-19
2.4727939e-20
2.5101593e-21
2.2063341e-22
1.6544536e-23
1.0374613e-24
8.705347e-28
2.3249401e-31
1.5421147e-35
1.8777352e-40
3.6058691e-46
0.0058001196
0.0064730408
0.0067297338
0.0063846694
0.0058966079
0.0057858141
0.0062141763
0.0067827074
0.0070927218
0.0067249147
0.0053281985
0.0033677017
0.001739501
0.00068787338
0.00015776911
1.7740389e-05
9.033448e-07
2.5432337e-08
0.0054021519
0.0055459233
0.0059515182
0.006155272
0.00604907
0.0057845791
0.0050766002
0.0033305433
0.0013034466
0.0002583903
2.4367999e-05
9.0527968e-07
1.383931e-08
2.8991634e-10
1.0006998e-10
4.1993366e-11
1.6174639e-11
5.7341061e-12
1.875204e-12
5.6571448e-13
1.5720075e-13
4.0146574e-14
9.398701e-15
2.0115786e-15
3.9242711e-16
6.9562987e-17
1.1162725e-17
1.6139197e-18
2.0897608e-19
2.4052474e-20
2.4304697e-21
2.1300277e-22
1.5949499e-23
1.8430475e-26
7.1812695e-30
7.5100322e-34
1.6077007e-38
6.828064e-44
6.5588487e-50
0.0056190179
0.0060145697
0.0065906615
0.0066820253
0.0061582431
0.0055068838
0.0052861035
0.0056677389
0.0062292273
0.0064994578
0.0059345015
0.0042885016
0.002270992
0.00081360773
0.00017029866
2.0533446e-05
1.4600577e-06
4.8045941e-08
8.6739986e-10
0.0056800525
0.005966529
0.0060630231
0.005895594
0.0057080645
0.0053362775
0.0040605162
0.0019815013
0.00054862264
7.0522933e-05
4.5429722e-06
1.1927487e-07
1.7683729e-09
2.6977571e-10
1.1860629e-10
4.8425592e-11
1.8176948e-11
6.3005147e-12
2.0197092e-12
5.9828441e-13
1.6346321e-13
4.109653e-14
9.4839193e-15
2.0037944e-15
3.8651593e-16
6.7851346e-17
1.0799266e-17
1.5511841e-18
1.9987747e-19
2.2912487e-20
2.3081207e-21
2.0197984e-22
3.1206343e-25
1.7023068e-28
2.6368075e-32
8.8918293e-37
6.3516427e-42
1.282972e-47
7.7856814e-54
0.0057835493
0.0058005033
0.0061968024
0.0066780103
0.0066022086
0.0058868328
0.0050584387
0.0047178508
0.0050364073
0.005584686
0.0057611411
0.0049711758
0.0031036927
0.0012139015
0.00025711792
2.9151217e-05
2.0634991e-06
8.8945906e-08
1.8005272e-09
3.006688e-11
0.0059514292
0.0059381215
0.0056980763
0.0055337562
0.0053843683
0.0045820595
0.0026976842
0.00096007582
0.00018586916
1.5377159e-05
6.961821e-07
1.4163975e-08
7.6496763e-10
3.1812206e-10
1.3689372e-10
5.4151283e-11
1.9799114e-11
6.7115236e-12
2.1093951e-12
6.1374836e-13
1.6495227e-13
4.0852802e-14
9.3014532e-15
1.9421512e-15
3.7087681e-16
6.4565792e-17
1.0207656e-17
1.458828e-18
1.873655e-19
2.1409307e-20
2.1532947e-21
4.3482879e-24
3.2248538e-27
7.1104502e-31
3.5640616e-35
3.8560981e-40
1.2432357e-45
1.5329255e-51
6.8075521e-58
0.0059070417
0.0058567986
0.0059549968
0.0063589601
0.0067378996
0.0064856362
0.0055618775
0.004548191
0.0040864688
0.0043352913
0.0048332801
0.0048720758
0.0037860199
0.0018181376
0.0004456071
5.3616507e-05
3.6575535e-06
1.5462842e-07
3.8619432e-09
5.6161476e-11
4.0302522e-12
0.0057858333
0.0054754565
0.0053120261
0.0052962737
0.0048810784
0.0033613695
0.0014695799
0.00037970071
5.1089892e-05
2.7548325e-06
9.3534782e-08
2.9837939e-09
8.2969345e-10
3.6927838e-10
1.5262869e-10
5.8470579e-11
2.0852996e-11
6.9201205e-12
2.1343024e-12
6.1047584e-13
1.6154307e-13
3.9454397e-14
8.8738269e-15
1.8336487e-15
3.4717397e-16
6.0034207e-17
9.4433934e-18
1.3449539e-18
1.7235264e-19
1.9660402e-20
5.0936677e-23
5.0215326e-26
1.5324835e-29
1.1016659e-33
1.7133803e-38
7.9247702e-44
1.5064976e-49
1.3245906e-55
4.7542593e-62
0.005604923
0.0058326531
0.0059092213
0.0060919298
0.0064984397
0.0067655655
0.0063180694
0.0051693659
0.0039738079
0.0034019743
0.0035746605
0.003983661
0.0037746184
0.0023825167
0.00073745428
0.0001031786
7.5364058e-06
3.2253807e-07
8.111695e-09
1.2343911e-10
4.4940242e-12
1.1020542e-12
0.005233888
0.0050684475
0.0051410549
0.0049978756
0.003902714
0.0020295477
0.00066026725
0.00012304856
1.1787448e-05
4.7968365e-07
2.2947205e-08
2.9066135e-09
9.9771751e-10
4.1477919e-10
1.6374804e-10
6.0875987e-11
2.1221255e-11
6.9046515e-12
2.0924512e-12
5.8907629e-13
1.5367352e-13
3.7065051e-14
8.2478343e-15
1.6894126e-15
3.1768208e-16
5.4661238e-17
8.569881e-18
1.218435e-18
1.5592677e-19
5.1009777e-22
6.5625638e-25
2.7134887e-28
2.7301221e-32
5.9270225e-37
3.725713e-42
9.8054222e-48
1.2958998e-53
9.0145682e-60
3.1550825e-66
0.0049698792
0.0053931688
0.0057380245
0.0059468033
0.006209303
0.0066081427
0.0067450932
0.0060757826
0.0046937332
0.003337073
0.0026806333
0.0027828475
0.0030112629
0.002448356
0.001058055
0.00018577135
1.5453684e-05
7.1712826e-07
1.9034964e-08
2.9034485e-10
5.8641538e-12
1.1000716e-12
3.0126074e-13
0.0048122674
0.0049597272
0.0050062262
0.0042890986
0.0025858513
0.0010199976
0.00024660374
3.4629708e-05
3.0942953e-06
2.9868584e-07
4.0880107e-08
5.5253124e-09
1.2147926e-09
4.4374165e-10
1.682117e-10
6.1123616e-11
2.0874937e-11
6.671769e-12
1.989826e-12
5.5219965e-13
1.4224238e-13
3.3939008e-14
7.4854781e-15
1.5226962e-15
2.8490618e-16
4.8866082e-17
7.6495798e-18
1.0872861e-18
4.4274087e-21
7.3164062e-24
4.0280267e-27
5.5702113e-31
1.6585165e-35
1.3743436e-40
4.7365323e-46
8.4529376e-52
8.6544983e-58
5.7793266e-64
2.1595852e-70
0.0045392201
0.0046749346
0.0051549216
0.0056221556
0.0059628409
0.0062963557
0.0066700748
0.006648464
0.0057312741
0.0041214187
0.0026508248
0.0019605178
0.0019647702
0.0018996285
0.00114228
0.00029301911
2.9535246e-05
1.5429737e-06
4.4906704e-08
7.2699795e-10
9.7284133e-12
1.1112562e-12
2.986667e-13
7.726849e-14
0.0047681492
0.0049667212
0.0045368736
0.0030988192
0.0014402937
0.00043858708
8.6690871e-05
1.4256273e-05
3.2990633e-06
7.8603623e-07
1.2509748e-07
1.1785323e-08
1.3804674e-09
4.4854038e-10
1.6619493e-10
5.9257972e-11
1.9878217e-11
6.2537909e-12
1.8389279e-12
5.0396714e-13
1.2843e-13
3.0373828e-14
6.6533434e-15
1.3467923e-15
2.5122023e-16
4.302919e-17
6.7372668e-18
3.3696656e-20
7.0514677e-23
5.0922314e-26
9.5392368e-30
3.8522377e-34
4.134151e-39
1.8056442e-44
4.1164082e-50
5.5779794e-56
5.3929253e-62
3.8016656e-68
1.5285301e-74
0.0045667315
0.0042400357
0.0043460967
0.0048771786
0.0054738506
0.0059346963
0.0063302956
0.006653038
0.006440953
0.0052539769
0.003451893
0.0019354033
0.0012601408
0.0011306377
0.00086125895
0.00033311039
5.0371883e-05
3.0904084e-06
1.0096014e-07
1.7903695e-09
2.0201109e-11
1.1531312e-12
2.9695668e-13
7.6596498e-14
1.8370858e-14
0.0049102431
0.004703935
0.0035383218
0.0018976752
0.00071762151
0.00020331119
5.9070773e-05
2.2531463e-05
8.6820608e-06
2.3035695e-06
3.1131782e-07
1.782723e-08
1.329193e-09
4.318064e-10
1.5870619e-10
5.5595195e-11
1.8368488e-11
5.7008935e-12
1.6562008e-12
4.4918054e-13
1.1348875e-13
2.6662136e-14
5.812851e-15
1.173291e-15
2.1860113e-16
3.7455398e-17
2.2720765e-19
5.9413472e-22
5.5523765e-25
1.3916151e-28
7.5648522e-33
1.0410886e-37
5.6443569e-43
1.5902933e-48
2.7008328e-54
3.4013846e-60
3.4234301e-66
2.5811577e-72
1.117423e-78
0.0048465186
0.0043461154
0.0039065972
0.0039722061
0.0045446305
0.0052545376
0.005831781
0.0062741681
0.0065176934
0.0060810143
0.0046332755
0.0026460119
0.0012039191
0.00063576175
0.00045650683
0.00024334676
5.9632275e-05
5.588822e-06
2.1118849e-07
4.1890892e-09
4.6805037e-11
1.2920301e-12
2.9525057e-13
7.6129906e-14
1.8215769e-14
4.0246641e-15
0.0048309781
0.0039016373
0.0023616003
0.0010861999
0.00043623616
0.00020873189
0.00011532052
5.6757765e-05
2.2720953e-05
5.3262929e-06
4.9258399e-07
1.5596075e-08
1.1333075e-09
4.0295809e-10
1.4662581e-10
5.0642316e-11
1.6524724e-11
5.0714676e-12
1.4590218e-12
3.9251616e-13
9.855425e-14
2.3052894e-14
5.0132204e-15
1.0110131e-15
1.8848393e-16
1.3698952e-18
4.4195967e-21
5.2776486e-24
1.7498663e-27
1.2732727e-31
2.2368994e-36
1.4853405e-41
5.0617865e-47
1.043001e-52
1.6224341e-58
2.0961721e-64
2.2323609e-70
1.8135706e-76
8.4003782e-83