/*--------------------------------*- C++ -*----------------------------------*\
| =========                 |                                                 |
| \\      /  F ield         | OpenFOAM: The Open Source CFD Toolbox           |
|  \\    /   O peration     | Version:  5.0                                   |
|   \\  /    A nd           | Web:      www.OpenFOAM.org                      |
|    \\/     M anipulation  |                                                 |
\*---------------------------------------------------------------------------*/
FoamFile
{
    version     2.0;
    format      ascii;
    class       volScalarField;
    location    "80";
    object      p;
}
// * * * * * * * * * * * * * * * * * * * * * * * * * * * * * * * * * * * * * //

dimensions      [0 2 -2 0 0 0 0];

internalField   nonuniform List<scalar> 
9520
(
-3.1602984e-05
-3.0579428e-05
-1.8114804e-05
-2.8789816e-05
-1.6072214e-05
-2.9612208e-05
-2.6537312e-05
-1.2580112e-05
-2.6106274e-05
-3.3271582e-05
-2.4041952e-05
-8.3108741e-06
-2.0090553e-05
-2.8303247e-05
-4.742751e-05
-2.1500142e-05
-3.8218159e-06
-1.2667284e-05
-1.9728684e-05
-4.0621459e-05
-6.336872e-05
-1.9044292e-05
3.0574225e-07
-4.8339133e-06
-9.0142213e-06
-2.8770592e-05
-5.4462312e-05
-8.5222249e-05
-1.6741412e-05
3.5477364e-06
2.3296308e-06
2.4851012e-06
-1.3755684e-05
-3.8830345e-05
-7.3957382e-05
-0.0001118003
-1.4191117e-05
5.7353237e-06
8.0107398e-06
1.3415387e-05
2.7143714e-06
-1.8770512e-05
-5.4036519e-05
-9.7946655e-05
-0.00014422466
-1.1766134e-05
6.39478e-06
1.1501361e-05
2.2743731e-05
1.9040071e-05
3.628795e-06
-2.8153976e-05
-7.3265206e-05
-0.00012760501
-0.00018294634
-9.734512e-06
5.6524673e-06
1.1618092e-05
2.9136595e-05
3.385335e-05
2.6401008e-05
1.2349424e-06
-4.0825629e-05
-9.7778072e-05
-0.00016346755
-0.00022848989
-9.5451278e-06
3.9622277e-06
7.8439415e-06
3.1596305e-05
4.5729237e-05
4.784779e-05
3.1793489e-05
-3.4322422e-06
-5.8131222e-05
-0.00012825226
-0.00020616406
-0.00028117109
-8.4922082e-06
-8.8761286e-07
-4.4209177e-08
2.8474304e-05
5.3929319e-05
6.6735418e-05
6.151909e-05
3.6197723e-05
-1.1761391e-05
-8.0913785e-05
-0.00016549919
-0.00025613208
-0.00034115136
-1.3552848e-05
-7.2080099e-06
-1.4605235e-05
1.8867073e-05
5.7203052e-05
8.2175843e-05
8.8913029e-05
7.5670368e-05
3.826671e-05
-2.4751992e-05
-0.00011022095
-0.0002101808
-0.00031366515
-0.00040839292
-7.7853586e-06
-1.8299828e-05
-3.237494e-05
9.8550615e-07
5.5849048e-05
9.3194664e-05
0.0001122187
0.00011274718
8.912127e-05
3.6913044e-05
-4.3698619e-05
-0.00014702567
-0.00026284468
-0.00037886383
-0.00048266411
-2.4672383e-05
-3.64445e-05
-6.0799259e-05
-2.2186232e-05
4.883669e-05
9.9776887e-05
0.00013128081
0.00014594855
0.00013801178
0.00010088894
3.064151e-05
-6.9938866e-05
-0.00019222922
-0.00032384013
-0.00045162517
-0.00056353782
-2.230484e-05
-6.1605862e-05
-8.7493533e-05
-6.3779438e-05
3.5338257e-05
9.9222805e-05
0.00014557936
0.00017466027
0.00018329826
0.00016403112
0.00010939338
1.7731959e-05
-0.00010482247
-0.00024652095
-0.00039328657
-0.00053163255
-0.00065040002
-2.6358514e-05
-7.9102179e-05
-0.00012522252
-0.00011290964
1.0373104e-05
9.0999861e-05
0.00015444075
0.0001975774
0.00022311299
0.00022353692
0.00018906502
0.00011262073
-3.6892483e-06
-0.00014948768
-0.00031037291
-0.0004711489
-0.00061841717
-0.00074249095
-5.9005664e-06
-9.1417584e-05
-0.00015691817
-0.00018880073
-1.6836933e-05
8.6410379e-05
0.00016670987
0.00021637049
0.00025593015
0.00027618623
0.00026611219
0.00021117146
0.00010803436
-3.5435486e-05
-0.00020492255
-0.00038425357
-0.00055728617
-0.00071130383
-0.00083889236
1.3434697e-05
-9.3525754e-05
-0.00021535787
-0.00027309318
-6.2492051e-05
0.00010468702
0.00018330758
0.00023772699
0.00028361914
0.00032104743
0.00033647092
0.00030966494
0.00022689281
9.2823961e-05
-7.928789e-05
-0.00027227172
-0.00046845338
-0.00065101388
-0.00080933516
-0.00093853917
5.1050542e-05
-8.6783662e-05
-0.0002614378
-0.00040517442
-0.00011454139
0.00011669346
0.00020677343
0.00025566931
0.00030532552
0.00035509717
0.0003977271
0.00040407961
0.00034947919
0.00023220164
6.4375157e-05
-0.00013652186
-0.00035208474
-0.0005620005
-0.00075136652
-0.00091148209
-0.0010403291
9.0752392e-05
-6.1018558e-05
-0.00034699592
-0.00054474434
-0.00019894811
0.00014380814
0.00022362864
0.00027137423
0.00031192719
0.00037261164
0.00044256789
0.00049120054
0.00047199782
0.00037955523
0.00022352298
2.1297103e-05
-0.00020776267
-0.00044319743
-0.00066423784
-0.00085752094
-0.0010167104
-0.0011431617
0.00011947788
-1.520262e-05
-0.00042242832
-0.00074887194
-0.00028675952
0.00015252275
0.00027746806
0.00029743766
0.00031251386
0.0003676622
0.00046946061
0.00056346603
0.00059156357
0.00053148621
0.0003948576
0.0001985437
-3.7619978e-05
-0.0002938905
-0.00054585629
-0.00077474837
-0.00096852866
-0.0011239144
-0.0012459725
0.00015627477
6.2641522e-05
-0.00053646683
-0.00097141378
-0.0004047945
0.00018137099
0.00034709326
0.00035346818
0.00030250191
0.00034408756
0.0004699062
0.00062011199
0.00070302065
0.00068557406
0.00057552239
0.00039219154
0.00015554016
-0.00011490594
-0.00039500049
-0.00065992821
-0.00089265917
-0.0010832963
-0.0012319549
-0.0013476737
0.00015740561
0.00017456134
-0.00063972694
-0.0012870884
-0.00051773077
0.00019254198
0.00047886936
0.00042014137
0.00029933387
0.00028617358
0.0004418087
0.00064668669
0.00080559729
0.00083880493
0.00076301045
0.00059963964
0.00036960916
9.2139425e-05
-0.00021053556
-0.00051055812
-0.00078460027
-0.0010169347
-0.001200629
-0.001339693
-0.001447179
0.00018108356
0.00032106936
-0.00077323732
-0.0015953008
-0.00080705569
0.00020817704
0.0006223488
0.00053060849
0.00028692727
0.00020478786
0.00036598122
0.00065951978
0.00089194378
0.00099133078
0.00095519516
0.0008174851
0.00060138535
0.00032496389
7.3199538e-06
-0.00032403952
-0.00064026669
-0.00091894746
-0.0011462963
-0.0013193077
-0.0014460177
-0.0015434951
0.00015064792
0.00051817137
-0.00090079399
-0.0019815641
-0.0010087512
0.00019794955
0.00083889166
0.00067202698
0.00029962385
7.2594123e-05
0.0002449798
0.00061229346
0.00096676883
0.0011402806
0.001152166
0.0010432567
0.00084672867
0.0005797517
0.00025644951
-9.9181642e-05
-0.00045560532
-0.00078363166
-0.0010616999
-0.0012794839
-0.0014380699
-0.0015498465
-0.0016357123
0.00014708091
0.00073820581
-0.0011391941
-0.0023896689
-0.0012775313
0.00017665125
0.0010649872
0.00088188219
0.00031714439
-8.6172589e-05
4.9527804e-05
0.00053054666
0.0010117118
0.0012924339
0.0013531687
0.0012755116
0.0011017394
0.0008524173
0.00053360723
0.00016318666
-0.00022797312
-0.00060548194
-0.00093953706
-0.0012115774
-0.0014150142
-0.0015556837
-0.0016501528
-0.0017230433
8.39399e-05
0.00097015292
-0.0014226148
-0.0028028866
-0.0015942447
0.00012999628
0.0013993404
0.0011372785
0.00037873801
-0.00031331201
-0.00021563061
0.00037040411
0.0010406541
0.0014402357
0.0015659699
0.0015138289
0.0013625494
0.0011379008
0.00083460588
0.00046049275
4.3094783e-05
-0.00038028964
-0.00077269465
-0.0011067598
-0.001366965
-0.0015515043
-0.0016709453
-0.001746036
-0.0018048351
-6.7982322e-05
0.0012152438
-0.001664932
-0.0031289037
-0.0019764681
1.8989777e-05
0.001810805
0.0014618887
0.00046820092
-0.00057843807
-0.00059590982
0.00015829004
0.0010205514
0.0016026725
0.0017883705
0.0017645078
0.0016258978
0.0014311935
0.0011531538
0.00078804155
0.00035593832
-0.00010578496
-0.0005552227
-0.00095629223
-0.0012836378
-0.0015262709
-0.0016874707
-0.0017827439
-0.0018367191
-0.0018805057
-0.00018854061
0.001393124
-0.0020990242
-0.0035696158
-0.0025298821
-0.00013398272
0.0022961329
0.0018443127
0.0006199929
-0.00092720304
-0.001089554
-0.00016257128
0.00097808459
0.0017619438
0.0020431717
0.0020228949
0.0018965866
0.0017221231
0.0014807922
0.0011388536
0.00070710869
0.00021833426
-0.0002828912
-0.0007524212
-0.0011547499
-0.0014684199
-0.0016877378
-0.0018215238
-0.0018900637
-0.0019215129
-0.0019495051
-0.00018966013
0.0014312424
-0.0026610404
-0.0038988378
-0.0032437379
-0.0003355306
0.0029452908
0.0022588223
0.0008235115
-0.0013262787
-0.0017543861
-0.00056213288
0.00085432687
0.0019522281
0.0023228943
0.002310607
0.0021671733
0.0019919772
0.001807108
0.0015037426
0.0010903799
0.00058985786
4.6267198e-05
-0.00048904221
-0.00097080101
-0.0013661986
-0.0016590625
-0.0018496407
-0.0019523443
-0.0019919694
-0.0019997889
-0.0020114393
-0.00014285955
0.0012274254
-0.0031526003
-0.0038658723
-0.0037870363
-0.00051418279
0.0036037175
0.0027499248
0.0011038766
-0.0018251867
-0.0026021377
-0.0011004662
0.00068891068
0.0021385056
0.0026689176
0.0026155922
0.0024551436
0.002250901
0.002110669
0.0018693765
0.0014977334
0.0010039768
0.00043221325
-0.00016184876
-0.00072357871
-0.00120839
-0.0015884068
-0.0018535027
-0.0020102821
-0.0020786731
-0.0020876903
-0.0020710046
-0.0020662277
-0.00018220155
0.00087777227
-0.0035116751
-0.0036616602
-0.0042617511
-0.00051813507
0.004425174
0.0032335507
0.0014532373
-0.0023636106
-0.0037211955
-0.0017464062
0.00040124187
0.0023647229
0.0030665994
0.0029866842
0.0026935069
0.0024991886
0.0023781924
0.0022318409
0.001917384
0.0014551583
0.00087269306
0.00023095537
-0.00040686052
-0.00098492836
-0.0014629872
-0.0018189606
-0.002049608
-0.002168021
-0.0021994382
-0.0021765859
-0.0021347354
-0.0021137692
-0.00028080447
0.00050870028
-0.0037959789
-0.0034207601
-0.004851344
-0.00013481153
0.0050520446
0.0037673867
0.0017804242
-0.0030676802
-0.0051101867
-0.002536005
1.0044832e-05
0.0025794359
0.0035719507
0.0033978844
0.0030117708
0.0027035968
0.0026055815
0.0025581177
0.0023441464
0.0019342829
0.0013637989
0.00068954673
-1.6231523e-05
-0.00068725754
-0.0012708106
-0.0017318365
-0.0020553008
-0.0022452784
-0.0023213602
-0.0023136494
-0.0022581473
-0.0021912935
-0.002154111
-0.00035332318
0.00015870375
-0.003928113
-0.0033231208
-0.0054337282
0.0002776813
0.0052700984
0.0042697601
0.0020090106
-0.0038575467
-0.0067666941
-0.0034265684
-0.00056463049
0.0028151682
0.0041655658
0.0039103102
0.0033241765
0.0028989697
0.0027644799
0.0028380499
0.00275382
0.0024371136
0.0018999684
0.0012123168
0.00045061396
-0.00030901001
-0.0010014011
-0.001578474
-0.0020119966
-0.0022947966
-0.0024385066
-0.0024689102
-0.002420515
-0.0023315658
-0.002240256
-0.0021872418
-0.00034107544
-0.00011385364
-0.0038917622
-0.0032737055
-0.0057220694
0.00064239196
0.0050380073
0.0045985966
0.001933114
-0.0049038991
-0.0083286241
-0.0047192973
-0.001344118
0.0030166986
0.0049089281
0.004473525
0.0036960058
0.003035347
0.0028608477
0.0030332426
0.0031367764
0.0029447274
0.0024789286
0.00179722
0.00099392855
0.00015415635
-0.00064603226
-0.0013462457
-0.0019044624
-0.0023002915
-0.0025348704
-0.0026273819
-0.0026094637
-0.0025193316
-0.0023970051
-0.0022816407
-0.0022133334
-0.00025759852
-0.0003183357
-0.0037514725
-0.0031376991
-0.0057231153
0.00094078319
0.0045312615
0.0048402615
0.0016915087
-0.0061807895
-0.010210715
-0.0066389326
-0.0024084944
0.0031543791
0.0057860841
0.0051590152
0.0040715158
0.0031605968
0.0028421381
0.0031381679
0.0034521402
0.0034504019
0.0030897258
0.0024418331
0.0016130813
0.00070472673
-0.00019832963
-0.0010245078
-0.0017183286
-0.0022452523
-0.0025935334
-0.002772988
-0.0028101668
-0.0027419544
-0.0026095978
-0.0024543122
-0.0023154937
-0.0022324691
-0.00012045144
-0.00047811473
-0.0034790722
-0.0029755185
-0.0055304321
0.0009875595
0.0037051938
0.0050773839
0.001499472
-0.007827649
-0.012073265
-0.0084990826
-0.0037646482
0.0031457419
0.0068051277
0.0058963132
0.0045221638
0.0032044368
0.0027263579
0.0030904536
0.0037022966
0.0039269706
0.0037293073
0.0031417136
0.0023087871
0.0013431337
0.00034520137
-0.00060475873
-0.0014405937
-0.0021134712
-0.0025969266
-0.0028884872
-0.0030067709
-0.0029852782
-0.002865494
-0.0026909306
-0.0025034364
-0.002342055
-0.0022449867
6.9185723e-05
-0.00061193399
-0.0030633692
-0.0028075858
-0.0051233527
0.00069835692
0.0026535945
0.0048264388
0.0012987761
-0.0091241525
-0.013545033
-0.0095657861
-0.0050885604
0.0030470556
0.0079860899
0.0067064141
0.0049802113
0.0032297674
0.0024232504
0.0029373638
0.0038135823
0.0043793802
0.00437802
0.0038994382
0.00307575
0.0020684707
0.00098699753
-8.1254516e-05
-0.0010606899
-0.0018900086
-0.0025273785
-0.0029555885
-0.003182035
-0.0032339885
-0.0031513436
-0.0029793584
-0.0027631216
-0.0025444186
-0.0023614938
-0.0022511444
-0.00074237748
0.00030333343
-0.0025791969
-0.0026191551
-0.0045762025
4.9276015e-05
0.0014594162
0.0041625322
0.0009908567
-0.0099130862
-0.014435179
-0.010333574
-0.0062512534
0.0032697725
0.0091758665
0.0078759555
0.0054904199
0.0031592947
0.0019586022
0.0024963676
0.0038092019
0.0047460059
0.0050517644
0.0047024778
0.0039175469
0.0028788227
0.0017240684
0.00054769757
-0.00057111488
-0.0015617527
-0.0023678014
-0.0029553661
-0.0033173093
-0.0034711819
-0.0034526254
-0.003307173
-0.0030830356
-0.0028260624
-0.0025774289
-0.0023740705
-0.0022512468
-0.002037839
-0.00088102614
0.00052682196
-0.0023608236
-0.0040277027
-0.00090516688
0.00016706457
0.0031227485
0.00050194507
-0.010530716
-0.015236378
-0.011324668
-0.007225848
0.0035156987
0.0099726691
0.0085867585
0.005978379
0.003043598
0.0012288783
0.0018120748
0.0035613945
0.0050560011
0.0057067333
0.0055730668
0.004827894
0.0037747448
0.0025559954
0.0012820818
3.1827313e-05
-0.0011189782
-0.0021027986
-0.0028689267
-0.0033927567
-0.0036781912
-0.0037531106
-0.0036608857
-0.0034518192
-0.0031761718
-0.0028797742
-0.002602644
-0.0023801459
-0.0022457275
-0.0020362972
-0.001419445
-0.00099566915
0.00069712223
-0.0033646551
-0.0018419094
-0.0011452368
0.0017827895
2.629185e-05
-0.011070914
-0.015690033
-0.012905206
-0.0084144106
0.0038391337
0.0099653707
0.0091324595
0.0064170102
0.0027942672
0.00024817486
0.00074421921
0.0030927998
0.0051883801
0.0063908571
0.0064763715
0.005829475
0.0047453176
0.0034791401
0.0021177771
0.00074764877
-0.00055578546
-0.0017195407
-0.0026781781
-0.0033878698
-0.0038347561
-0.0040345415
-0.0040252635
-0.0038572504
-0.0035845654
-0.0032585617
-0.002924338
-0.0026203391
-0.0023800048
-0.0022348691
-0.0023313814
-0.0016610676
-0.00074136709
-0.0010723344
0.00080815773
-0.0026982883
-0.0024554669
0.00024860826
-0.00034264458
-0.011563662
-0.016144204
-0.014045329
-0.0098789592
0.0028841057
0.0098500477
0.00919814
0.0066685513
0.0024853052
-0.0011115525
-0.00074311716
0.0022708462
0.0052014225
0.0070177531
0.0074812466
0.0068910275
0.0058192402
0.0044830451
0.003045693
0.0015715189
0.00012834512
-0.0012095617
-0.0023674425
-0.0032822533
-0.0039191204
-0.0042766388
-0.0043827855
-0.0042853473
-0.004040467
-0.0037048804
-0.0033300907
-0.0029599355
-0.0026308528
-0.0023740838
-0.0022191575
-0.0036534654
-0.0011025009
-0.0011779192
1.6356393e-05
-0.0011557727
0.0008666073
-0.0037306576
-0.0013558486
-0.00084772276
-0.01207335
-0.0164301
-0.014917658
-0.011339275
0.0015019289
0.0086177387
0.0090219598
0.0067892788
0.0019464371
-0.0027888715
-0.0028386247
0.0010629301
0.0049143638
0.0076706759
0.0085242734
0.0080787551
0.0069432444
0.0055716589
0.0040554171
0.0024916995
0.00092844659
-0.00057002552
-0.0019241872
-0.0030567554
-0.0039087382
-0.0044569063
-0.0047137835
-0.0047197097
-0.0045314446
-0.0042095052
-0.0038123405
-0.0033907967
-0.0029869096
-0.0026346323
-0.0023628072
-0.002198915
-0.0048957705
-0.0046020189
-6.4665963e-06
-0.00057344084
0.00084113035
-0.0012510051
0.00085871229
-0.002906408
-0.0016772083
-0.012312747
-0.016478121
-0.015459253
-0.012543206
-9.4783063e-05
0.0072841913
0.0080985698
0.0065565806
0.0010879936
-0.0051209213
-0.0055889845
-0.00062697151
0.0043412506
0.008186423
0.0096973744
0.0093163293
0.0081932496
0.0067084601
0.0051341068
0.0034930386
0.0018327226
0.00019644837
-0.0013421139
-0.0026948337
-0.0037813405
-0.0045511455
-0.0049954945
-0.0051418172
-0.0050424037
-0.0047618845
-0.0043635416
-0.0039067504
-0.0034410003
-0.0030057756
-0.0026321367
-0.0023465074
-0.0021745149
-0.0042717796
-0.0058985847
-0.0052740425
0.00083018375
7.0402586e-05
0.0015679769
-0.0013476015
0.00077424745
-0.0028488573
-0.012075974
-0.016230118
-0.015600153
-0.013433908
-0.0018927754
0.0051849882
0.0071403702
0.0061873407
-0.00050130727
-0.0073695939
-0.0092566852
-0.0028987898
0.0032986111
0.0086532432
0.010903332
0.010697289
0.0094555364
0.0079369101
0.0062527993
0.0045553855
0.0028225892
0.0010790634
-0.00062059455
-0.0021840434
-0.0035157815
-0.0045341915
-0.0052026015
-0.0055292116
-0.0055566826
-0.0053482952
-0.004975206
-0.0045020573
-0.0039883379
-0.0034812702
-0.003016953
-0.0026235645
-0.0023254469
-0.0021463452
-0.0042207211
-0.0054644944
-0.0067233122
-0.0056350827
0.0015593021
0.00069961251
0.0020742122
-0.0014001291
0.00061703803
-0.011320827
-0.015623743
-0.015276882
-0.013951318
-0.0038281501
0.0025373487
0.0052188678
0.0063649477
-0.0014410717
-0.010709676
-0.0130338
-0.0062852683
0.0015661293
0.0088228682
0.012209634
0.012120147
0.010855598
0.0091478715
0.0074244195
0.0056484758
0.0038735424
0.0020593107
0.00023415236
-0.0015203314
-0.0030937302
-0.0043809851
-0.0053078136
-0.0058562023
-0.0060526906
-0.0059547117
-0.0056350253
-0.0051703029
-0.0046250182
-0.0040576806
-0.0035119223
-0.0030203662
-0.0026089388
-0.0022999967
-0.0021149247
-0.010118753
-0.0055324148
-0.0065271127
-0.0073869921
-0.0058680963
0.0022467592
0.0012611229
0.0023320836
-0.0014506056
0.00040793406
-0.014608206
-0.014469058
-0.014013411
-0.0057565199
-0.0006334068
0.0028015677
0.0058021077
-0.0014681708
-0.013845327
-0.017629054
-0.010741983
-0.00099579653
0.008553749
0.013503049
0.013631435
0.012214815
0.010461014
0.0085536821
0.006762254
0.0049511957
0.0031107289
0.0012064384
-0.00070340944
-0.0025026516
-0.0040675789
-0.0052824451
-0.0060939708
-0.0065050223
-0.0065608016
-0.0063324076
-0.0059005854
-0.0053470968
-0.0047329179
-0.004114935
-0.0035324586
-0.0030157883
-0.0025889456
-0.002271251
-0.0020808041
-0.013189573
-0.008597457
-0.006515016
-0.0074677929
-0.0078880936
-0.0059419767
0.0028067662
0.0016433507
0.0024395842
-0.001493675
0.00020577589
-0.013266712
-0.013545334
-0.0076655421
-0.0042267193
-0.00015095986
0.0043231611
-0.0016598171
-0.016588234
-0.021665148
-0.015458115
-0.0042892391
0.0076501989
0.014679027
0.015172681
0.01364451
0.01165974
0.009734254
0.0078151671
0.0060319863
0.0041962188
0.0022715172
0.00025792545
-0.0017373133
-0.0035718718
-0.0050973519
-0.0062109674
-0.0068842944
-0.0071423301
-0.007048661
-0.0066867947
-0.0061438549
-0.0055062877
-0.0048256224
-0.0041590462
-0.0035423807
-0.0030045456
-0.0025657565
-0.002240185
-0.0020437067
-0.011799855
-0.01135412
-0.0069959006
-0.0070364035
-0.0082382608
-0.0082557377
-0.0057339243
0.0032564197
0.001850991
0.002440908
-0.001439938
6.8033274e-05
-0.012409225
-0.0096462404
-0.0080635475
-0.0036732418
0.0021564334
-0.0025504389
-0.018775706
-0.026449392
-0.019092789
-0.0076724093
0.0061172766
0.015602936
0.016544844
0.015007228
0.012911502
0.01074948
0.0088683147
0.0070387574
0.0052840494
0.0033938111
0.0013446454
-0.00079640949
-0.0028793833
-0.0047244745
-0.0061736437
-0.0071571444
-0.0076702803
-0.0077614202
-0.0075117479
-0.0070159693
-0.0063646491
-0.0056445169
-0.0049014292
-0.0041891367
-0.0035439828
-0.0029904508
-0.00254085
-0.0022053173
-0.0020011203
-0.010345522
-0.010082006
-0.0092132279
-0.0053600333
-0.0072408175
-0.0087629302
-0.0085255731
-0.00527599
0.0035435349
0.0020866884
0.0022582106
-0.0012393041
-1.8242567e-05
-0.011607304
-0.011875269
-0.0076821721
-0.00078012554
-0.0038568824
-0.021245809
-0.030419807
-0.025200257
-0.011499734
0.0049003248
0.016204965
0.017802425
0.01616326
0.013966411
0.011788082
0.0097204375
0.008006384
0.0062966709
0.0045378803
0.0025283043
0.00031071651
-0.0019791089
-0.0041371343
-0.0059475297
-0.0072863091
-0.008110572
-0.0084430856
-0.008355874
-0.0079469488
-0.0073195191
-0.0065654615
-0.0057618523
-0.0049589079
-0.0042087277
-0.003543248
-0.0029752438
-0.0025098721
-0.0021615837
-0.001953316
-0.013297329
-0.0075680616
-0.0080374671
-0.0068575618
-0.0037171758
-0.007235864
-0.0090123964
-0.0087313751
-0.0046259242
0.0034533562
0.0023766869
0.0018654286
-0.001051541
-6.8537328e-05
-0.015548863
-0.011972378
-0.0044780839
-0.0055078854
-0.023589069
-0.03458022
-0.030508466
-0.017241104
0.00093718326
0.016610337
0.018037985
0.017775714
0.014850294
0.012548221
0.010558374
0.0087450221
0.0072489932
0.0056252489
0.0037745118
0.0015645588
-0.0008684711
-0.0033151008
-0.0054972197
-0.0072314092
-0.0084238118
-0.0090602237
-0.0091940431
-0.0089207719
-0.0083529539
-0.0075961552
-0.0067393077
-0.0058557723
-0.0050030111
-0.0042266038
-0.0035419804
-0.0029500777
-0.0024632831
-0.0021129772
-0.0019012698
-0.019085675
-0.014657976
-0.0045442742
-0.0056258644
-0.0044416167
-0.002121653
-0.0070212924
-0.0089761514
-0.0089001029
-0.0038800471
0.0030268586
0.0025779765
0.0013987345
-0.00075808725
-0.00018100874
-0.016334985
-0.0087557935
-0.007379358
-0.025539547
-0.038138242
-0.03568976
-0.022574396
-0.0038862131
0.012596089
0.018086671
0.016544292
0.015473001
0.013195409
0.011054586
0.0094273945
0.007953788
0.0066579787
0.0050099289
0.0029364935
0.00044839224
-0.0022387021
-0.0047875352
-0.0069496068
-0.0085657678
-0.0095729286
-0.0099945412
-0.0099156835
-0.0094534336
-0.0087274754
-0.0078403645
-0.006882625
-0.0059327787
-0.0050461748
-0.0042446088
-0.0035250725
-0.0028992461
-0.0024121274
-0.0020596476
-0.0018450136
-0.020442284
-0.022385535
-0.01556944
-0.0017742509
-0.0030685177
-0.0020858037
-0.00068758617
-0.0065808829
-0.0087109539
-0.0089632703
-0.0031284204
0.0026668226
0.0026543333
0.0011098693
-0.0004172948
-0.00025608684
-0.012963412
-0.0093828802
-0.027078336
-0.040706474
-0.040118376
-0.027666441
-0.0093792917
0.0083876125
0.015455348
0.01638125
0.015449124
0.013525183
0.011473877
0.0097098422
0.0085595922
0.0074411162
0.0062337512
0.0043751404
0.0019641397
-0.00087361849
-0.0037785923
-0.0063937351
-0.0084868977
-0.0099348665
-0.010718687
-0.010903083
-0.010603458
-0.0099504835
-0.0090629296
-0.0080471341
-0.0070040898
-0.006009805
-0.0050903694
-0.0042392448
-0.003468824
-0.0028439639
-0.0023556442
-0.0020018861
-0.0017844661
-0.016439574
-0.023837154
-0.024964064
-0.0159584
0.00036659149
-0.00056678114
0.00012604451
0.00042070819
-0.0060760159
-0.008350279
-0.0087693286
-0.0023278312
0.0023808112
0.0024512272
0.001014189
-0.00020309026
-0.00028026445
-0.011857068
-0.02798788
-0.041990493
-0.043594372
-0.031749237
-0.015039569
0.00277684
0.012987276
0.014491852
0.015160393
0.01352782
0.011478501
0.0099110865
0.0087149072
0.008110983
0.0072347487
0.0058875977
0.003630422
0.00078930615
-0.002440416
-0.0055155384
-0.00813399
-0.010093379
-0.011320424
-0.011847006
-0.011778531
-0.011252238
-0.01040196
-0.0093514971
-0.0082264148
-0.007126379
-0.0060889034
-0.0051008262
-0.004176479
-0.0034078958
-0.0027825956
-0.002294575
-0.0019395124
-0.001719687
-0.014735383
-0.019327486
-0.026232946
-0.026699399
-0.015699233
0.0018898933
0.0016799591
0.0021541411
0.0013769008
-0.0056967728
-0.0078538691
-0.008381375
-0.001598924
0.0020037917
0.0020454165
0.00094738454
-4.4434231e-05
-0.00029483418
-0.027854669
-0.041768394
-0.045612644
-0.034818198
-0.020870121
-0.0031648962
0.0082615013
0.012745477
0.013923408
0.013226905
0.011301452
0.0095822352
0.0087274476
0.0082801796
0.0081716368
0.0072394702
0.0054852708
0.0026727555
-0.00074222741
-0.0042764961
-0.0074521995
-0.0099908531
-0.011746356
-0.012703519
-0.012946825
-0.012613525
-0.011849121
-0.010796651
-0.0096054225
-0.0084074663
-0.0072517286
-0.0061208296
-0.0050305469
-0.0041083417
-0.0033399043
-0.0027164106
-0.0022286457
-0.0018726419
-0.0016506258
-0.026457098
-0.017376087
-0.02158898
-0.027817765
-0.027508254
-0.01495053
0.0028872271
0.0035578262
0.0039227308
0.0023070008
-0.0053635542
-0.007475135
-0.0076362295
-0.0011706208
0.0016161251
0.0017474539
0.00079464821
5.8045983e-05
-0.00026874056
-0.039849215
-0.045747613
-0.037005337
-0.025699821
-0.0093611337
0.0023538697
0.0078169115
0.012763949
0.012518704
0.010631317
0.0091296652
0.0081060173
0.0082285849
0.0085755066
0.0086631682
0.0072738151
0.004853094
0.0013113616
-0.0026483168
-0.0063955271
-0.0095683274
-0.011937003
-0.01342075
-0.014068308
-0.014007706
-0.013391182
-0.012378153
-0.011147655
-0.0098628819
-0.0085930597
-0.0073129789
-0.0060427298
-0.0049537249
-0.0040319651
-0.0032669262
-0.0026451488
-0.0021580242
-0.0018012536
-0.001577373
-0.036318486
-0.02380687
-0.018884467
-0.023195909
-0.028544847
-0.027467321
-0.013872392
0.0034331438
0.0050467037
0.0054535941
0.0030464155
-0.0050784841
-0.007059969
-0.0064942914
-0.00095954982
0.0012644534
0.0014513017
0.00068212062
0.00012754755
-0.00024617437
-0.043721948
-0.038000189
-0.02843995
-0.015056695
-0.0050353652
0.0027861837
0.0095521928
0.012229531
0.0098679493
0.0079190099
0.0072620614
0.0074244519
0.0087451017
0.0095806198
0.0093406018
0.0071040265
0.0037570817
-0.00056975821
-0.0049080469
-0.0087691718
-0.011830643
-0.01394044
-0.015094929
-0.015400397
-0.015008045
-0.014089386
-0.012853293
-0.011503222
-0.010127361
-0.0086940356
-0.0072272819
-0.0059556992
-0.0048671305
-0.0039504259
-0.0031885205
-0.0025688941
-0.0020826242
-0.0017254152
-0.0014999247
-0.039535862
-0.031218907
-0.020449916
-0.018874861
-0.024118909
-0.028358888
-0.026695279
-0.012523542
0.0036166947
0.0059245369
0.0065098618
0.0033242938
-0.0048265738
-0.0064583185
-0.005313408
-0.00086298077
0.00092726427
0.0012302947
0.00054697332
0.00012658274
-0.00016112813
-0.037180327
-0.028540467
-0.020184082
-0.013155206
-0.0036615126
0.0042708034
0.010744703
0.0096159808
0.0068395915
0.0054468985
0.0062231169
0.0081059156
0.010424844
0.01089879
0.0099226713
0.0064086015
0.0020134781
-0.002934552
-0.0075291095
-0.011363812
-0.014199454
-0.015971197
-0.016748797
-0.016672077
-0.015917473
-0.014721918
-0.01333523
-0.01186941
-0.010282091
-0.0086015089
-0.0071285439
-0.0058568648
-0.0047750601
-0.0038629398
-0.0031048129
-0.0024876234
-0.0020026073
-0.0016453008
-0.0014183355
-0.033908332
-0.033389746
-0.02545646
-0.016485204
-0.017649492
-0.024072557
-0.027332281
-0.025315285
-0.011055861
0.0034784727
0.0059931326
0.0073205639
0.0028395847
-0.0042716501
-0.0053753226
-0.0043961206
-0.00071255662
0.00068467607
0.00099684727
0.00043356327
0.00013330461
-0.00012021005
-0.025844587
-0.024282732
-0.021259916
-0.011682916
-0.0030419894
0.0076223488
0.0088109224
0.0059840138
0.0039367191
0.0039132879
0.0069009647
0.010478337
0.013117913
0.012486439
0.0098064397
0.0049419015
-0.00041013901
-0.0057741094
-0.010469156
-0.014132235
-0.016636403
-0.018002775
-0.018347786
-0.017842594
-0.016747802
-0.015364439
-0.013832627
-0.012096018
-0.010184488
-0.0084894542
-0.0070155903
-0.0057522009
-0.0046765574
-0.0037698331
-0.0030158281
-0.0024015671
-0.0019182466
-0.0015607933
-0.0013326147
-0.021583285
-0.028777744
-0.026395742
-0.019223183
-0.012283756
-0.015671074
-0.022980865
-0.025632769
-0.023505024
-0.0099030051
0.0032253997
0.0062143289
0.0074931383
0.0023397361
-0.0034256637
-0.0041509753
-0.0034991976
-0.0006061037
0.00048663306
0.00079376898
0.00032364214
0.00010787214
-6.2482773e-05
-0.02697447
-0.028789863
-0.020462892
-0.01157122
0.0029284226
0.0069313272
0.0049783778
0.0020072581
0.0017366166
0.0045867117
0.0098046442
0.014233096
0.015531124
0.013118912
0.0087137887
0.0025889938
-0.0034585143
-0.0090681457
-0.0136665
-0.017024603
-0.0191059
-0.019991988
-0.019837496
-0.018919286
-0.017592509
-0.016030221
-0.014153752
-0.011996669
-0.010057731
-0.0083604809
-0.0068961687
-0.005640503
-0.0045719297
-0.0036711063
-0.0029218557
-0.0023110755
-0.0018292118
-0.0014719952
-0.001242921
-0.028260444
-0.016781661
-0.022665825
-0.019095814
-0.012783159
-0.0081211321
-0.013226633
-0.021101704
-0.023391704
-0.021704134
-0.0086897889
0.003362747
0.0062050407
0.0074227614
0.0019187039
-0.002602573
-0.0032376941
-0.0027598593
-0.00052024601
0.00035934324
0.00062118245
0.00023137859
9.6548473e-05
-5.472724e-05
-0.035492272
-0.030157152
-0.021112958
-0.0041442142
0.0039833862
0.0030766679
0.00044351544
-0.0020824312
0.0015631274
0.0082849229
0.014815988
0.018052221
0.01717514
0.01245117
0.0064843966
-0.00059480387
-0.007103889
-0.012733706
-0.017067558
-0.019996573
-0.021554525
-0.021867429
-0.021217858
-0.020016588
-0.018472327
-0.016476947
-0.014059092
-0.011854134
-0.0099110107
-0.0082240663
-0.0067688824
-0.0055220651
-0.0044612081
-0.0035671765
-0.0028233373
-0.0022156391
-0.0017355246
-0.0013791063
-0.0011493626
-0.040664975
-0.027368572
-0.01184556
-0.015594574
-0.012119036
-0.0064234831
-0.004047448
-0.010471845
-0.018682788
-0.020898314
-0.019371923
-0.0069637004
0.0036202687
0.005894584
0.0066825251
0.0018640671
-0.0019250432
-0.0025661584
-0.0020694909
-0.00044665575
0.00026860539
0.00046345251
0.00017002845
6.8649239e-05
-4.0187231e-05
-0.040360818
-0.031856954
-0.013743213
-0.00026969272
0.00041549526
-0.0020059574
-0.0050868478
-0.0049350958
0.0053439264
0.015031035
0.02053428
0.020908027
0.017256925
0.010305047
0.0031042198
-0.0045458078
-0.011269748
-0.016693272
-0.020608733
-0.022979814
-0.023890883
-0.023618231
-0.022627944
-0.021166717
-0.019083623
-0.016395568
-0.013900867
-0.011688553
-0.0097553666
-0.0080786369
-0.0066340633
-0.0053968899
-0.0043450326
-0.0034585249
-0.0027195278
-0.0021149104
-0.001637581
-0.0012824234
-0.0010520235
-0.049395407
-0.043820065
-0.02405244
-0.0073704357
-0.0082468673
-0.0056401921
-0.00067462133
-1.4240669e-05
-0.0075864591
-0.015982542
-0.017621938
-0.016787715
-0.0049408102
0.0034280667
0.0054737737
0.0056533437
0.0017894697
-0.001375052
-0.0019129129
-0.0015587393
-0.00035224799
0.0002101431
0.00035297654
0.0001136787
5.5459629e-05
-4.7259499e-05
-0.042199303
-0.024080953
-0.0059366768
-0.0030189509
-0.0051928471
-0.008837288
-0.01074644
-0.0036825913
0.012902267
0.02294694
0.025216336
0.021870655
0.015607413
0.0068183614
-0.0012832171
-0.0092208911
-0.015842974
-0.020877838
-0.024208522
-0.02585955
-0.026087748
-0.025411452
-0.024116633
-0.021991937
-0.019028675
-0.016222353
-0.0137164
-0.011511628
-0.009589147
-0.0079245567
-0.0064917013
-0.0052658529
-0.0042238799
-0.0033441247
-0.0026095174
-0.0020098392