/*--------------------------------*- C++ -*----------------------------------*\
| =========                 |                                                 |
| \\      /  F ield         | OpenFOAM: The Open Source CFD Toolbox           |
|  \\    /   O peration     | Version:  5.0                                   |
|   \\  /    A nd           | Web:      www.OpenFOAM.org                      |
|    \\/     M anipulation  |                                                 |
\*---------------------------------------------------------------------------*/
FoamFile
{
    version     2.0;
    format      ascii;
    class       surfaceScalarField;
    location    "80";
    object      phi;
}
// * * * * * * * * * * * * * * * * * * * * * * * * * * * * * * * * * * * * * //

dimensions      [0 3 -1 0 0 0 0];

internalField   nonuniform List<scalar> 
18820
(
0.00022727255
-1.3516366
0.0004373839
-1.2640848
0.00020880477
-1.3518454
0.00062982181
-1.1823252
0.0004043001
-1.2642803
0.00019697432
-1.3520424
0.00080500867
-1.1059378
0.00058788035
-1.1825088
0.00038224152
-1.2644655
0.00018245187
-1.3522249
0.00096391462
-1.0345453
0.00076151025
-1.1061114
0.00055776051
-1.1826843
0.000355039
-1.2646381
0.00016820369
-1.3523931
0.0011080599
-0.96779474
0.00092757834
-1.0347114
0.00072589168
-1.1062795
0.00052026532
-1.1828495
0.00032763379
-1.2647975
0.00015281095
-1.3525459
0.0012391835
-0.90536574
0.0010889798
-0.96795614
0.00088942878
-1.0348749
0.00068072089
-1.10644
0.00048085305
-1.1830028
0.00029771565
-1.2649425
0.0001374469
-1.3526833
0.0013592139
-0.84696573
0.0012493303
-0.9055261
0.0010515166
-0.96811823
0.00083915861
-1.0350334
0.00063026181
-1.1065894
0.00043711656
-1.1831422
0.00026754663
-1.2650726
0.00012240605
-1.3528057
0.0014703723
-0.79232758
0.0014124652
-0.84712886
0.001216064
-0.90569064
0.00099826652
-0.96827734
0.00077815647
-1.0351813
0.00057319203
-1.1067255
0.00039230417
-1.1832669
0.00023780829
-1.265188
0.00010822385
-1.3529139
0.0015702235
-0.74119641
0.0015807665
-0.79249588
0.0013877629
-0.84730056
0.0011605974
-0.90585297
0.00092646301
-0.96842564
0.00070794736
-1.035316
0.00051365513
-1.1068468
0.00034765259
-1.1833768
0.00020959879
-1.2652893
9.5254172e-05
-1.3530092
0.0016632568
-0.69334432
0.0017571718
-0.74137281
0.001568747
-0.79267687
0.0013284064
-0.84746837
0.0010763538
-0.90600286
0.00084295663
-0.96856065
0.00063350588
-1.0354359
0.00045356926
-1.1069527
0.00030488008
-1.183472
0.00018367343
-1.2653778
8.3710684e-05
-1.3530929
0.0017534058
-0.64855923
0.0019533163
-0.69354047
0.0017679513
-0.74157202
0.0015044414
-0.7928529
0.0012274354
-0.84761945
0.0009788382
-0.90613875
0.00075362148
-0.96868077
0.00055736097
-1.0355397
0.00039522456
-1.1070431
0.00026525384
-1.1835536
0.00016052082
-1.2654546
7.3683161e-05
-1.3531666
0.0018383568
-0.60663723
0.0021746711
-0.64878058
0.00199023
-0.69376275
0.0016920008
-0.74175958
0.0013798015
-0.79300527
0.0011143429
-0.84775496
0.000875328
-0.90626045
0.00066115769
-0.96878457
0.00048211997
-1.0356265
0.00034049417
-1.1071183
0.00022967502
-1.1836228
0.00014039179
-1.2655213
6.518341e-05
-1.3532318
0.0019224683
-0.56740267
0.0024277596
-0.60689032
0.0022401258
-0.64903048
0.0018874958
-0.69395824
0.001528926
-0.7419087
0.001247712
-0.79313864
0.00099931254
-0.84787894
0.00076741019
-0.90636671
0.00056772664
-0.96887017
0.00041029945
-1.0356964
0.0002908897
-1.1071795
0.00019871818
-1.1836811
0.00012338353
-1.2655795
5.8170358e-05
-1.3532899
0.0019783781
-0.53066117
0.0027163243
-0.56769123
0.0025203298
-0.60717052
0.0020928304
-0.64923581
0.0016686078
-0.69409793
0.0013739355
-0.74203493
0.001124199
-0.79326352
0.00087937399
-0.84799091
0.00065504241
-0.90645402
0.00047629607
-0.96893617
0.00034423957
-1.0357497
0.00024758782
-1.1072284
0.00017270838
-1.1837304
0.00010947755
-1.2656308
5.2563864e-05
-1.3533425
0.0020066787
-0.49627912
0.0030407714
-0.53098562
0.0028342437
-0.56800515
0.0023060507
-0.60738374
0.0017919183
-0.64935912
0.001486372
-0.69421036
0.0012474627
-0.74215819
0.00099848592
-0.79338263
0.00074861951
-0.84808448
0.0005410471
-0.90651877
0.00039033265
-0.96898226
0.00028614553
-1.0357883
0.00021141425
-1.1072671
0.00015174046
-1.1837727
9.8558573e-05
-1.2656768
4.8251951e-05
-1.3533908
0.002009511
-0.46407717
0.0034086882
-0.49664703
0.0032108232
-0.5313622
0.0025297993
-0.5682289
0.0018935821
-0.6074854
0.0015744815
-0.64944723
0.0013660376
-0.69432894
0.0011268026
-0.74228651
0.00085455381
-0.79348857
0.00060845766
-0.84815189
0.00043050549
-0.90655895
0.00031379125
-0.96900991
0.00023783634
-1.0358147
0.00018276271
-1.1072981
0.00013570384
-1.1838098
9.0423017e-05
-1.2657189
4.5086662e-05
-1.3534359
0.0020354545
-0.43394656
0.0038369174
-0.4645054
0.0036616166
-0.49709783
0.0027710622
-0.53160346
0.0019648267
-0.56830014
0.001634172
-0.6075451
0.0014728009
-0.649554
0.0012682054
-0.69447034
0.00098025888
-0.74241221
0.00068617762
-0.79356629
0.00046705312
-0.84818844
0.00033026764
-0.90657542
0.00025034894
-0.96902242
0.00020033553
-1.0358323
0.00016157557
-1.107324
0.00012429563
-1.1838437
8.4759695e-05
-1.2657586
4.287435e-05
-1.3534787
0.0020345378
-0.40569905
0.0043643972
-0.43447404
0.0042116904
-0.46505547
0.0030332758
-0.49736004
0.0019822547
-0.53162089
0.0016428651
-0.56830883
0.0015618588
-0.60763415
0.0014240072
-0.6497098
0.0011364049
-0.69462648
0.00078472557
-0.74251076
0.00050393972
-0.79360317
0.00033554775
-0.84819372
0.00024732142
-0.90657239
0.00020223178
-0.96902432
0.0001737091
-1.0358444
0.00014739085
-1.1073471
0.00011697623
-1.1838759
8.112863e-05
-1.2657969
4.1377378e-05
-1.3535201
0.0020458967
-0.37927651
0.004979934
-0.40631459
0.004845407
-0.43510776
0.0033256281
-0.46534782
0.0019311634
-0.49730895
0.0015789649
-0.53155699
0.0016312815
-0.56837826
0.0016046725
-0.60781482
0.0013395315
-0.64991292
0.00091523043
-0.69475699
0.00054745539
-0.74255427
0.00032910609
-0.79359673
0.00022634855
-0.84817275
0.00018582718
-0.90655599
0.00016959347
-0.9690202
0.0001572074
-1.0358542
0.00013937655
-1.1073695
0.00011299203
-1.1839078
7.9021565e-05
-1.2658345
4.0348809e-05
-1.3535605
0.0020409626
-0.35450411
0.0057235491
-0.38002013
0.0056346076
-0.40710379
0.0036464342
-0.43542856
0.0017833999
-0.46520006
0.0014089139
-0.4971389
0.0016783676
-0.53160408
0.0018274984
-0.56860108
0.0016108724
-0.60808616
0.0010965082
-0.6500942
0.00060406713
-0.6948136
0.00030874067
-0.74253391
0.00018311739
-0.7935535
0.00014705833
-0.84813398
0.00014575027
-0.90653215
0.00015084283
-0.96901384
0.00014938935
-1.0358642
0.00013620255
-1.1073927
0.00011157152
-1.1839403
7.7943455e-05
-1.2658721
3.9543662e-05
-1.3536
0.002038901
-0.33133164
0.0065834657
-0.35536403
0.0065526505
-0.38093817
0.0040263108
-0.40748367
0.0015325482
-0.43517771
0.0010951453
-0.46488629
0.0016849807
-0.49714551
0.0020972952
-0.53187387
0.0019636924
-0.5689539
0.001342012
-0.60833166
0.0006819203
-0.65017205
0.00027194685
-0.69477681
0.00011068023
-0.74246147
8.0406628e-05
-0.79348685
9.805314e-05
-0.84808628
0.00012456805
-0.90650587
0.00014356801
-0.96900802
0.00014783144
-1.0358758
0.00013703908
-1.1074182
0.00011199631
-1.1839744
7.7374182e-05
-1.2659099
3.871079e-05
-1.3536387
0.0020395434
-0.30961835
0.0075846239
-0.3323328
0.0076744405
-0.35648582
0.0044474906
-0.38135935
0.0011429554
-0.40709407
0.00060128766
-0.43468385
0.0016201723
-0.46482148
0.0024219663
-0.49747018
0.0024268306
-0.53233701
0.001669825
-0.56928172
0.00078588971
-0.60843563
0.00021462035
-0.65011473
4.8190445e-07
-0.69466661
-2.1139231e-05
-0.74235993
2.2565071e-05
-0.79341136
7.5894007e-05
-0.84803761
0.00011935876
-0.90648166
0.00014522143
-0.96900541
0.00015288343
-1.0358917
0.00014092407
-1.1074471
0.00011338708
-1.1840104
7.6782654e-05
-1.265948
3.761446e-05
-1.3536763
0.002042652
-0.2892895
0.0087242442
-0.31075797
0.00897152
-0.33362988
0.0049556622
-0.35699399
0.00061772461
-0.38083412
-0.00012262625
-0.40637016
0.0014521347
-0.43451582
0.0028103274
-0.46520984
0.0030314286
-0.49807478
0.0021192862
-0.53278647
0.00092892586
-0.56942475
0.00013130096
-0.60835231
-0.00015985064
-0.64995439
-0.00016653214
-0.69452122
-8.4555883e-05
-0.74225281
3.4205368e-06
-0.79333889
7.5644052e-05
-0.84799389
0.00012688974
-0.90646333
0.00015654726
-0.96900907
0.00016247503
-1.0359132
0.00014648351
-1.1074802
0.00011489918
-1.1840485
7.5677483e-05
-1.2659861
3.6059701e-05
-1.3537124
0.0020549428
-0.27026933
0.010002617
-0.29056788
0.010501077
-0.31228752
0.0055353803
-0.33420959
-0.00010202742
-0.35627424
-0.0010997808
-0.37985696
0.0011344522
-0.40605248
0.003277969
-0.43498346
0.0038277345
-0.46600615
0.0027220923
-0.49867759
0.0011264598
-0.53298401
1.8190631e-05
-0.56931164
-0.00039030858
-0.60812185
-0.00036883411
-0.64975209
-0.00022711326
-0.69437866
-9.2460278e-05
-0.74215692
1.2667586e-05
-0.79327591
9.1445248e-05
-0.84795845
0.00014569774
-0.90645248
0.00017399002
-0.96902059
0.00017464739
-1.0359414
0.0001525057
-1.1075178
0.00011567573
-1.1840885
7.3646539e-05
-1.2660237
3.3905012e-05
-1.3537463
0.0020996725
-0.25248802
0.011435616
-0.27170233
0.012249547
-0.29231635
0.0062285702
-0.31298071
-0.00099328816
-0.33331833
-0.0023993832
-0.35497464
0.00064008449
-0.3793626
0.003818134
-0.40659264
0.0048469122
-0.43600263
0.0035438302
-0.46682789
0.001398207
-0.49894933
-0.00014368675
-0.53282213
-0.00071121021
-0.56899074
-0.00064706503
-0.60784362
-0.00041307437
-0.64956613
-0.00021052557
-0.69426059
-6.6740624e-05
-0.74207752
3.9230776e-05
-0.7932237
0.00011862602
-0.84793138
0.00017245272
-0.90645094
0.00019496457
-0.9690409
0.00018786895
-1.0359768
0.00015764547
-1.1075598
0.0001150888
-1.18413
7.0389068e-05
-1.2660601
3.1066673e-05
-1.3537774
0.0021776102
-0.23581081
0.013013106
-0.25406551
0.014245445
-0.27369823
0.0070330085
-0.29312079
-0.0021371025
-0.3118369
-0.0040459592
-0.33167176
-7.9330282e-05
-0.35425522
0.0044408532
-0.37998531
0.0061570574
-0.40790279
0.0046185822
-0.43707739
0.0017720238
-0.4672017
-0.00035547541
-0.49873755
-0.0011602182
-0.53237312
-0.0010291422
-0.56860866
-0.00065085748
-0.60760584
-0.0003488714
-0.64942779
-0.00015761941
-0.69416972
-2.7181913e-05
-0.7420111
7.4992502e-05
-0.79318006
0.00015502674
-0.84791395
0.00020374664
-0.90645973
0.00021814653
-0.96907118
0.00020031483
-1.0360194
0.00016105906
-1.1076057
0.00011258698
-1.1841722
6.5738817e-05
-1.2660948
2.752073e-05
-1.3538049
0.0023364671
-0.2200614
0.014651176
-0.23744888
0.016398195
-0.25621826
0.0079559394
-0.27462116
-0.0034970721
-0.29176082
-0.0060944846
-0.30978837
-0.0010654661
-0.33068562
0.0051433553
-0.35495773
0.0077883124
-0.38161657
0.0060427023
-0.40932691
0.0022780012
-0.43758336
-0.0006520038
-0.46690517
-0.0017706838
-0.49812708
-0.0015488925
-0.53185337
-0.00095537726
-0.56830414
-0.00050242204
-0.60745229
-0.00024989673
-0.64933551
-0.00010142639
-0.69409547
1.5919456e-05
-0.74195203
0.00011907571
-0.79314411
0.0001969449
-0.84790715
0.00023944746
-0.90648103
0.00024106447
-0.96911193
0.00021082344
-1.0360692
0.00016182394
-1.107655
0.00010789883
-1.1842143
5.9645657e-05
-1.2661269
2.330195e-05
-1.3538282
0.0027933005
-0.20473748
0.016342917
-0.22175314
0.018608951
-0.23965964
0.0089883063
-0.25725063
-0.0051453339
-0.2729729
-0.0085767725
-0.28927853
-0.0023495734
-0.30850427
0.0059414888
-0.33148375
0.0098162965
-0.35698571
0.0078474926
-0.38342136
0.0029625504
-0.41001146
-0.0010277278
-0.43720764
-0.0026036968
-0.46607216
-0.0022533608
-0.49742261
-0.0013411914
-0.53146756
-0.00066650145
-0.56814006
-0.00032791916
-0.60737427
-0.0001715658
-0.64926537
-5.5051387e-05
-0.6940245
6.2929637e-05
-0.74189588
0.00017032118
-0.79311749
0.00024695393
-0.84791466
0.00027602796
-0.90651599
0.00026219507
-0.9691633
0.00021800147
-1.0361254
0.00015954661
-1.1077066
0.00010090033
-1.1842556
5.2161735e-05
-1.2661558
1.8492036e-05
-1.3538467
0.0035914909
-0.18977563
0.018092922
-0.20648749
0.020728795
-0.22387298
0.010153744
-0.24082507
-0.0068597786
-0.25553618
-0.011541387
-0.27000828
-0.0039915543
-0.28763655
0.0068257213
-0.3093885
0.012274188
-0.33394165
0.010146493
-0.35928471
0.0038639712
-0.38432278
-0.0015327075
-0.40950648
-0.0037093396
-0.436102
-0.0031990601
-0.46512646
-0.0018370018
-0.4969268
-0.00082889899
-0.53130516
-0.00037486374
-0.56809312
-0.00022015796
-0.60732568
-0.00012986778
-0.64919055
-1.301035e-05
-0.69394856
0.00011971657
-0.74184528
0.0002347825
-0.79310532
0.00030001743
-0.84793865
0.00031161152
-0.90656541
0.00027956777
-0.96922487
0.00022125594
-1.0361871
0.0001539187
-1.1077596
9.1618274e-05
-1.184295
4.3423302e-05
-1.2661807
1.3207623e-05
-1.3538599
0.0030457736
-0.20592354
0.019739075
-0.19142178
0.022212927
-0.20797162
0.010657305
-0.22437654
-0.0085743298
-0.23911052
-0.015020851
-0.25205672
-0.0059855535
-0.26801428
0.0078167852
-0.28862761
0.015220179
-0.31233449
0.012964017
-0.33675917
0.0050413707
-0.36046211
-0.0021547352
-0.38370075
-0.0051737432
-0.40804207
-0.0044558709
-0.43484519
-0.0024675664
-0.4644959
-0.00098250107
-0.4967732
-0.00035518866
-0.53132483
-0.00022198771
-0.56809129
-0.00019511708
-0.60726043
-0.00010658837
-0.64909697
4.0471504e-05
-0.69386931
0.00019528025
-0.74180578
0.00030618664
-0.79311149
0.00035402733
-0.84798106
0.00034364017
-0.90662948
0.00029220496
-0.96929582
0.00021995116
-1.0362531
0.00014492338
-1.1078129
8.0262469e-05
-1.1843319
3.3631683e-05
-1.2662012
7.5789949e-06
-1.3538675
0.0034816627
-0.20304275
0.019670356
-0.20585482
0.022885473
-0.19209433
0.009649065
-0.20696338
-0.011418462
-0.22153241
-0.019112075
-0.2350193
-0.0085287051
-0.24951357
0.0089185101
-0.26911601
0.01870574
-0.29211317
0.016412084
-0.31578256
0.0065409628
-0.33825876
-0.0029479011
-0.35966894
-0.0070617929
-0.3818127
-0.0061081986
-0.40638974
-0.0032748738
-0.43403788
-0.0011097368
-0.46436866
-0.00023293123
-0.49689546
-0.00013799291
-0.53140883
-0.00022698804
-0.56805942
-0.00021127343
-0.60715574
-7.2481753e-05
-0.64898402
0.00011979371
-0.69379383
0.00028628042
-0.74178587
0.00038291183
-0.79314037
0.00040589623
-0.84804332
0.00037028286
-0.90670756
0.00029897473
-0.96937484
0.0002140005
-1.0363222
0.00013276662
-1.1078654
6.7046593e-05
-1.1843653
2.3022693e-05
-1.2662166
1.682972e-06
-1.3538691
0.0048092919
-0.19978433
0.020340973
-0.20371336
0.021379232
-0.20434858
0.0072452337
-0.1896905
-0.015735176
-0.20264667
-0.023509092
-0.21713539
-0.011647453
-0.23190055
0.01013118
-0.25072624
0.02274803
-0.2731583
0.020510936
-0.29621202
0.0084318543
-0.31767345
-0.0039022655
-0.3373044
-0.0094824521
-0.35724828
-0.0082444836
-0.37967642
-0.0043013181
-0.4053633
-0.001200219
-0.4339474
4.2482104e-05
-0.46464407
8.242774e-05
-0.49711588
-0.00020285128
-0.53143297
-0.00031528468
-0.56795541
-0.00022431596
-0.60700391
-1.9035273e-06
-0.64886232
0.00022883047
-0.69373638
0.00038929879
-0.74179226
0.00046034346
-0.79319482
0.00045208336
-0.84812512
0.00038979991
-0.90679838
0.00029958748
-0.96946043
0.00020346935
-1.0363929
0.00011768647
-1.1079161
5.2344265e-05
-1.1843946
1.1793111e-05
-1.2662267
-4.2030265e-06
-1.3538649
0.0068796019
-0.19641241
0.021819696
-0.20126306
0.020034806
-0.20236894
0.0022622461
-0.19936559
-0.020905246
-0.18452043
-0.027554173
-0.19860159
-0.014126469
-0.21465638
0.011598733
-0.2333681
0.027462527
-0.25544073
0.025344814
-0.27799218
0.010761494
-0.29854166
-0.0050783753
-0.31649734
-0.012512882
-0.33427397
-0.010974023
-0.35451875
-0.0055999621
-0.37837777
-0.0012303219
-0.4053332
0.00052817051
-0.43443308
0.0005039057
-0.46506555
-7.6404881e-05
-0.49724232
-0.00041726867
-0.53133098
-0.00041755132
-0.56776217
-0.0001840289
-0.60682178
0.00011928064
-0.64875277
0.00036271189
-0.69370979
0.0004997794
-0.74183169
0.00053311427
-0.79327585
0.00049014621
-0.84822546
0.00040137769
-0.90690017
0.00029385478
-0.96955081
0.00018864746
-1.0364639
0.00010016819
-1.1079639
3.6441392e-05
-1.1844193
1.4518104e-07
-1.2662311
-1.0336093e-05
-1.3538546
0.0094922091
-0.19313403
0.024048255
-0.19864097
0.018986872
-0.20021512
-0.003261546
-0.19684515
-0.028027856
-0.19224298
-0.030993785
-0.18108081
-0.015006894
-0.19772116
0.013890902
-0.21694855
0.032860157
-0.23876573
0.030804936
-0.26090086
0.013609252
-0.28083994
-0.0064728607
-0.29714718
-0.016261759
-0.31274846
-0.014391039
-0.33085695
-0.007234472
-0.35288423
-0.0011823178
-0.37842578
0.0012929396
-0.40609797
0.0011906797
-0.43511986
0.00020618564
-0.46534814
-0.00050346235
-0.49715613
-0.00066154779
-0.53108699
-0.00044503006
-0.56750117
-6.0371368e-05
-0.60664213
0.00028870427
-0.64867877
0.00051439396
-0.69372441
0.0006074723
-0.74190605
0.00059678617
-0.79338249
0.00051817862
-0.84834226
0.00040447179
-0.90701079
0.00028205188
-0.96964422
0.00017003474
-1.0365337
8.0575723e-05
-1.108008
1.9748233e-05
-1.1844389
-1.1600351e-05
-1.2662298
-1.6341551e-05
-1.3538383
0.01239974
-0.19009747
0.026846463
-0.19593224
0.018296723
-0.19795082
-0.0090503898
-0.19442628
-0.03524216
-0.18963084
-0.035747492
-0.18748927
-0.014463882
-0.18162383
0.017685471
-0.20151573
0.038818684
-0.22290707
0.036394161
-0.24435496
0.016863129
-0.26415473
-0.0081208808
-0.27919192
-0.020819493
-0.29258944
-0.018607837
-0.30853166
-0.0092567687
-0.32883466
-0.0010340384
-0.35303251
0.0024104342
-0.37954327
0.0022456223
-0.40715291
0.00070576097
-0.43561943
-0.00054456348
-0.46530704
-0.00097321911
-0.49684446
-0.00080299549
-0.53072902
-0.0003367259
-0.56722482
0.00014867045
-0.6065021
0.00049267048
-0.64865704
0.00066867681
-0.69378561
0.00070603118
-0.7420153
0.00064816286
-0.79351247
0.00053510817
-0.8484729
0.00039920109
-0.90712794
0.00026465297
-0.96973883
0.00014812976
-1.0366013
5.9471944e-05
-1.1080478
2.4700464e-06
-1.1844529
-2.337434e-05
-1.2662228
-2.2254049e-05
-1.353816
0.015321645
-0.18740462
0.029948486
-0.19319949
0.017961221
-0.19559674
-0.014777535
-0.19222367
-0.042266908
-0.18740153
-0.040072025
-0.18530631
-0.015332695
-0.18662046
0.022819521
-0.18675788
0.044955317
-0.20765236
0.041735476
-0.22824839
0.019915058
-0.24740689
-0.0098701873
-0.26240543
-0.026306761
-0.27370465
-0.023719867
-0.28747741
-0.011749728
-0.3060387
-0.00075395242
-0.32911474
0.0039736479
-0.35459573
0.0037447491
-0.3810424
0.001509675
-0.40795682
-0.00050393787
-0.43566006
-0.0013703256
-0.46490994
-0.0012935266
-0.49635393
-0.00073601637
-0.53032973
-8.2861001e-05
-0.56699328
0.00042028644
-0.60642971
0.00070908376
-0.64869745
0.00081371467
-0.69389329
0.00078919774
-0.74215633
0.00068507582
-0.79366244
0.00054075984
-0.84861446
0.00038599407
-0.90724928
0.00024227803
-0.96983298
0.00012358822
-1.0366654
3.7215794e-05
-1.1080825
-1.4903121e-05
-1.1844614
-3.5003454e-05
-1.26621
-2.7973726e-05
-1.353788
0.017974863
-0.18512672
0.033046119
-0.19050226
0.017968347
-0.19320662
-0.020142368
-0.1902319
-0.048747802
-0.18574278
-0.044075811
-0.18339774
-0.015066598
-0.18557241
0.026366745
-0.19016768
0.051054405
-0.19285696
0.046183202
-0.21210009
0.021705385
-0.23003872
-0.012166412
-0.24511066
-0.03294332
-0.25576887
-0.029836017
-0.2675885
-0.014759716
-0.28446743
-0.00032782814
-0.30646483
0.0060632947
-0.33120439
0.0058236123
-0.35667459
0.0026918687
-0.38222459
-0.00034586251
-0.4081149
-0.0018608461
-0.43516954
-0.0019664784
-0.46423698
-0.0012985102
-0.49579143
-0.00043501907
-0.52997757
0.00027978636
-0.56685279
0.00071985815
-0.60644049
0.00091635641
-0.64880009
0.00093979609
-0.69404389
0.00085368772
-0.74232494
0.00070693447
-0.79382862
0.00053543675
-0.8487639
0.0003655695
-0.90737257
0.00021569386
-0.96992509
9.6946846e-05
-1.0367251
1.4291686e-05
-1.1081117
-3.2306684e-05
-1.1844641
-4.637923e-05
-1.2661916
-3.3430404e-05
-1.3537546
0.020107056
-0.18334829
0.035837092
-0.18791769
0.018283949
-0.19081786
-0.024854939
-0.18849405
-0.054342492
-0.18463721
-0.047729691
-0.1820889
-0.014083779
-0.18438056
0.031475487
-0.19068115
0.055292516
-0.1944058
0.049646683
-0.19632044
0.021456498
-0.2118512
-0.017195673
-0.22500946
-0.040808736
-0.23724525
-0.037237526
-0.24836736
-0.018365727
-0.26398249
0.00028952891
-0.28508478
0.0087881867
-0.30918972
0.008557042
-0.33393782
0.0043729528
-0.35835568
-1.2923869e-05
-0.38255753
-0.0024649436
-0.4075108
-0.0028718451
-0.43426417
-0.0020837246
-0.46345177
-0.00094040829
-0.49528604
4.7147001e-05
-0.52974493
0.00069304359
-0.56682597
0.0010117895
-0.60653592
0.0010992752
-0.64895957
0.0010406798
-0.69423089
0.00089786156
-0.74251587
0.00071387513
-0.79400705
0.00051998491
-0.84891832
0.00033882278
-0.9074957
0.00018562352
-0.97001376
6.8826416e-05
-1.0367797
-8.9533639e-06
-1.1081351
-4.9459198e-05
-1.184461
-5.7297626e-05
-1.2661677
-3.8614608e-05
-1.353716
-0.18216899
0.021524458
0.038058277
-0.18556948
0.018854345
-0.18848809
-0.028670033
-0.18700276
-0.058875382
-0.18396116
-0.050907458
-0.18145945
-0.012785963
-0.18338671
0.037678766
-0.19058384
0.060394563
-0.19578319
0.052339583
-0.1970987
0.019762847
-0.19462679
-0.024857779
-0.2041891
-0.05010511
-0.21571308
-0.045469693
-0.22901308
-0.022409679
-0.24432341
0.0011271402
-0.2648201
0.01223562
-0.28853222
0.012094411
-0.31272709
0.0066317244
-0.33619659
0.00054939258
-0.35891799
-0.003186449
-0.38183603
-0.0040834565
-0.40629919
-0.0031647091
-0.43318319
-0.0016458839
-0.46274629
-0.00029812488
-0.49494077
0.00062046497
-0.52967235
0.0010990208
-0.5669132
0.0012694807
-0.60670613
0.0012475467
-0.64916644
0.0011142624
-0.69444729
0.00092201566
-0.74272401
0.00070693709
-0.79419401
0.00049547051
-0.84907497
0.0003067033
-0.90761678
0.00015285719
-0.9700978
3.9710698e-05
-1.0368283
-3.2186919e-05
-1.1081523
-6.6175023e-05
-1.1844521
-6.7779468e-05
-1.2661386
-4.3512927e-05
-1.3536725
-0.18362301
0.03951229
-0.18160989
0.022105591
0.019587923
-0.18630305
-0.031405268
-0.18575285
-0.062271181
-0.18360697
-0.053527472
-0.18134115
-0.011524519
-0.18272089
0.044360928
-0.19006887
0.06614195
-0.19633123
0.055382462
-0.19882607
0.019175362
-0.19651121
-0.033635178
-0.1858494
-0.059711029
-0.19458318
-0.052488741
-0.20869403
-0.026156856
-0.2252659
0.0023980967
-0.24559436
0.016504541
-0.26908902
0.016500108
-0.29293791
0.0096105991
-0.31570597
0.0014162522
-0.33706345
-0.0040531565
-0.35805129
-0.0056702165
-0.38024927
-0.0046349548
-0.40482894
-0.0026171782
-0.4322119
-0.00077894036
-0.46226548
0.00049017311
-0.49481048
0.001183378
-0.52975671
0.0014562681
-0.56709999
0.0014783318
-0.60693691
0.0013580904
-0.64941027
0.0011606737
-0.69468594
0.00092738051
-0.74294446
0.00068745007
-0.79438599
0.00046310151
-0.84923136
0.00027018709
-0.90773411
0.00011807189
-0.97017616
1.0117355e-05
-1.0368706
-5.5134569e-05
-1.1081634
-8.2302143e-05
-1.1844376
-7.7700758e-05
-1.2661044
-4.8055306e-05
-1.3536244
-0.18438003
0.020344948
-0.18220821
0.040110606
-0.18174696
0.021824928
-0.03291673
-0.18479159
-0.064555871
-0.18346816
-0.055521058
-0.18161338
-0.010523489
-0.18234218
0.050913931
-0.18927389
0.072192381
-0.19611931
0.058809252
-0.19975802
0.018626258
-0.19827697
-0.040344039
-0.18980235
-0.06888183
-0.17667859
-0.058022907
-0.18904901
-0.028186573
-0.20666432
0.0046280858
-0.22749589
0.021715362
-0.25080518
0.021891373
-0.27448028
0.013382049
-0.29670936
0.0026652542
-0.31695497
-0.0050577068
-0.3360589
-0.0077369068
-0.3559846
-0.0065977595
-0.37828646
-0.0039298022
-0.40351632
-0.0014280037
-0.43156283
0.00030162361
-0.46207693
0.0012720459
-0.49489915
0.0016706353
-0.52997108
0.0017417962
-0.56736345
0.0016338786
-0.6072127
0.0014315129
-0.64968111
0.0011819524
-0.69494052
0.00091587921
-0.74317289
0.00065700464
-0.79457989
0.00042411704
-0.84938529
0.00023019713
-0.90784623
8.1958021e-05
-0.970248
-1.9562471e-05
-1.0369062
-7.7528409e-05
-1.1081682
-9.7735025e-05
-1.1844176
-8.7009095e-05
-1.2660654
-5.2300104e-05
-1.3535721
-0.18416397
-0.033132788
-0.18291387
0.021050612
-0.18149198
0.039855629
-0.18256979
0.02069433
-0.065706872
-0.18364059
-0.05684059
-0.18214863
-0.0098673932
-0.18226948
0.056844818
-0.18827306
0.078196097
-0.19527761
0.062522261
-0.19983232
0.018170888
-0.19930265
-0.046832402
-0.19178861
-0.077234279
-0.1814499
-0.062800341
-0.17190116
-0.028358759
-0.18887683
0.0082318931
-0.21026812
0.027937754
-0.23371828
0.028343996
-0.25725781
0.018074877
-0.27917311
0.0043870747
-0.29843118
-0.0062311646
-0.31578151
-0.010376685
-0.33341912
-0.0091905614
-0.35339179
-0.0056745565
-0.37654171
-0.0022811434
-0.40266318
5.9997195e-05
-0.43132121
0.0013783562
-0.46218324
0.0019311741
-0.49515969
0.0020512552
-0.53028054
0.0019496178
-0.56767919
0.0017377935
-0.60751898
0.0014713965
-0.64997055
0.0011810527
-0.69520569
0.00088966681
-0.74340555
0.00061719289
-0.79477297
0.00037972394
-0.84953482
0.00018762065
-0.9079519
4.5078097e-05
-0.97031264
-4.8935003e-05
-1.0369348
-9.9192568e-05
-1.1081667
-0.00011235026
-1.1843922
-9.5714762e-05
-1.266022
-5.6176425e-05
-1.3535159
-0.18422973
-0.065641114
-0.18400858
-0.032038083
-0.18196
0.021518633
-0.18147249
0.038758333
-0.18405484
0.018734744
-0.057433063
-0.18304812
-0.0093054707
-0.18271055
0.061797372
-0.18722203
0.08383242
-0.19390939
0.066371028
-0.19912638
0.017848008
-0.19950944
-0.053039846
-0.19309521
-0.085281068
-0.18374182
-0.070281515
-0.17396873
-0.027528057
-0.17273186
0.01355824
-0.19420317
0.03531767
-0.21764804
0.035831666
-0.24120595
0.023770573
-0.2629535
0.0066814675
-0.28146751
-0.0075485877
-0.29711376
-0.013723764
-0.31243443
-0.012554692
-0.33005499
-0.0079568045
-0.35110955
-0.0033781556
-0.3754447
-0.00023083147
-0.40237235
0.0015204006
-0.43146325
0.0022641101
-0.46251618
0.0024277609
-0.49553619
0.0023181906
-0.53064911
0.0020851742
-0.56802657
0.0017967275
-0.60784431
0.0014825053
-0.650272
0.0011610909
-0.69547711
0.00085088444
-0.74363924
0.00056957026
-0.79496281
0.00033105114
-0.84967825
0.00014324839
-0.90805007
8.0168141e-06
-0.97036959
-7.7712462e-05
-1.0369563
-0.00011993726
-1.1081591
-0.00012610827
-1.1843618
-0.00010373513
-1.2659745
-5.9722992e-05
-1.3534562
-0.18450659
-0.057156208
-0.18531111
-0.064338587
-0.18419191
-0.029806177
-0.18166437
0.021710507
-0.18195765
0.036661145
-0.18620559
0.016037176
-0.0086765983
-0.18367699
0.065612461
-0.18652564
0.08877877
-0.19216838
0.070185797
-0.19772415
0.017661826
-0.19894019
-0.0587908
-0.19375848
-0.092780576
-0.1855957
-0.077752043
-0.17627129
-0.032257507
-0.16923928
0.020144387
-0.17931801
0.043831585
-0.20271709
0.044383986
-0.22620036
0.03051326
-0.24794864
0.0096461421
-0.26591818
-0.0090289828
-0.27998711
-0.017902394
-0.29293513
-0.016862866
-0.30812626
-0.010888687
-0.32712311
-0.0047636274
-0.34972407
-0.00055829255
-0.37511724
0.001736741
-0.40258869
0.002699532
-0.43189867
0.0029008527
-0.46298927
0.0027586183
-0.49597662
0.0024825903
-0.53104652
0.0021601149
-0.56838996
0.0018189912
-0.60818079
0.0014698735
-0.65058078
0.0011251202
-0.69575135
0.00080153574
-0.7438712
0.00051557956
-0.79514734
0.00027916556
-0.84981417
9.7831068e-05
-0.90813988
-2.883817e-05
-0.97041846
-0.00010560633
-1.0369706
-0.00013965611
-1.1081456
-0.00013892565
-1.1843267
-0.00011110834
-1.2659231
-6.2925627e-05
-1.3533933
-0.18502981
-0.0081533767
-0.18643644
-0.056030873
-0.18676351
-0.061766989
-0.18483123
-0.026639314
-0.18204485
0.0217977
-0.18313942
0.033594969
-0.18899956
0.012784075
0.068197028
-0.18626156
0.092581367
-0.19032824
0.07374535
-0.19572793
0.017614314
-0.19767664
-0.063992902
-0.19373809
-0.099550523
-0.18698853
-0.084998341
-0.1783494
-0.037048138
-0.17148066
0.021122
-0.17021689
0.053431158
-0.18891758
0.053701869
-0.21203497
0.038132548
-0.23381965
0.013351208
-0.25165371
-0.010631028
-0.26431613
-0.023044163
-0.27484534
-0.022301949
-0.28749605
-0.014603661
-0.30441128
-0.0064619828
-0.32542475
-0.00090998771
-0.34937238
0.0020667758
-0.37544727
0.0032878313
-0.40317699
0.0035096143
-0.43250743
0.0032967944
-0.46352744
0.0029434686
-0.4964375
0.0025650369
-0.53145145
0.0021884539
-0.56875942
0.0018126013
-0.60852352
0.001437874
-0.65089354
0.001075742
-0.69602556
0.00074343066
-0.74409906
0.00045654999
-0.79532473
0.0002250164
-0.84994135
5.2018866e-05
-0.90822074
-6.5006306e-05
-0.97045906
-0.00013241367
-1.0369779
-0.00015822128
-1.1081263
-0.00015078686
-1.184287
-0.00011780106
-1.2658682
-6.5783973e-05
-1.3533275
-0.18615372
0.06932094
-0.18658649
-0.0080033288
-0.18866524
-0.054129141
-0.1885376
-0.058060617
-0.18615849
-0.022525674
-0.18309385
0.021752138
-0.185195
0.029790406
-0.19239566
0.0091737057
0.094954308
-0.1886345
0.07671325
-0.19329614
0.01771094
-0.19582456
-0.068536413
-0.19313313
-0.10548123
-0.18780739
-0.091716142
-0.18027073
-0.042138993
-0.17325855
0.022521502
-0.17288016
0.059522414
-0.17630815
0.063320302
-0.19853602
0.045674447
-0.21957687
0.017455707
-0.23792415
-0.012445342
-0.24983939
-0.029327758
-0.25803254
-0.029053898
-0.26809339
-0.019235924
-0.28286378
-0.0085232086
-0.30235006
-0.0012417618
-0.32509298
0.0025661976
-0.3498718
0.0040750304
-0.37623447
0.0043032651
-0.40397064
0.0039692062
-0.43317985
0.0034871225
-0.4640711
0.0030171329
-0.49688959
0.0025889421
-0.53185194
0.0021837052
-0.56913053
0.0017843949
-0.60887004
0.0013900536
-0.65120785
0.0010151678
-0.69629729
0.00067815183
-0.74432066
0.00039368102
-0.79549339
0.00016950472
-0.85005884
6.5040575e-06
-0.90829225
-0.00010018742
-0.97049129
-0.00015793774
-1.0369781
-0.00017556689
-1.1081015
-0.00016166088
-1.1842431
-0.00012383151
-1.2658102
-6.832009e-05
-1.3532592
-0.18715678
0.095957367
-0.18606334
0.068797795
-0.18848638
-0.0081821875
-0.1910323
-0.051634445
-0.19061047
-0.053608633
-0.18786144
-0.017758085
-0.18487052
0.021427662
-0.18809598
0.025490726
-0.19630698
0.0053811679
0.078738161
-0.19065941
0.017928428
-0.19351362
-0.072276784
-0.19208419
-0.11051285
-0.18810151
-0.097668763
-0.18185477
-0.047377351
-0.17503238
0.023956126
-0.17469317
0.066627548
-0.17998529
0.071831809
-0.18481965
0.052509784
-0.20537135
0.020936242
-0.22305741
-0.014864058
-0.23550543
-0.03715857
-0.24200858
-0.037376719
-0.24970972
-0.024940965
-0.26238835
-0.010939032
-0.28044796
-0.0015234104
-0.30206841
0.0033028293
-0.32582961
0.0051426502
-0.35093942
0.0053351199
-0.37726632
0.0048191127
-0.40482055
0.0041391868
-0.43383191
0.0035253363
-0.4645793
0.0030173682