/*--------------------------------*- C++ -*----------------------------------*\
| =========                 |                                                 |
| \\      /  F ield         | OpenFOAM: The Open Source CFD Toolbox           |
|  \\    /   O peration     | Version:  5.0                                   |
|   \\  /    A nd           | Web:      www.OpenFOAM.org                      |
|    \\/     M anipulation  |                                                 |
\*---------------------------------------------------------------------------*/
FoamFile
{
    version     2.0;
    format      ascii;
    class       surfaceScalarField;
    location    "80";
    object      phi_0;
}
// * * * * * * * * * * * * * * * * * * * * * * * * * * * * * * * * * * * * * //

dimensions      [0 3 -1 0 0 0 0];

internalField   nonuniform List<scalar> 
18820
(
0.00022752972
-1.3516299
0.00043782233
-1.2640785
0.0002090669
-1.351839
0.00063032199
-1.1823193
0.00040475324
-1.2642742
0.00019729158
-1.3520363
0.00080541588
-1.1059321
0.0005884145
-1.1825029
0.00038281057
-1.2644597
0.00018287262
-1.3522192
0.00096404185
-1.03454
0.00076198405
-1.1061057
0.00055848453
-1.1826786
0.00035582146
-1.2646326
0.0001687309
-1.3523879
0.0011076915
-0.96778958
0.00092782098
-1.0347058
0.00072665271
-1.1062739
0.00052132919
-1.1828441
0.00032863448
-1.2647925
0.0001534454
-1.3525413
0.0012380653
-0.90536072
0.0010887958
-0.96795056
0.0008900943
-1.0348692
0.00068197766
-1.1064345
0.00048226134
-1.1829978
0.00029893644
-1.264938
0.00013817101
-1.3526795
0.0013570434
-0.84696077
0.001248487
-0.90552041
0.001051948
-0.96811241
0.00084052264
-1.0350278
0.00063200912
-1.1065843
0.00043887221
-1.1831377
0.00026895206
-1.2650688
0.00012320164
-1.3528027
0.0014668801
-0.79232265
0.0014106708
-0.84712295
0.0012161365
-0.9056846
0.00099966686
-0.96827155
0.00078018054
-1.0351759
0.0005754281
-1.1067208
0.00039435331
-1.1832631
0.0002393626
-1.265185
0.00010907168
-1.3529118
0.0015649465
-0.74119152
0.0015777379
-0.79248972
0.001387396
-0.84729421
0.0011620072
-0.90584694
0.0009287208
-0.96842009
0.00071060656
-1.0353111
0.00051630839
-1.1068428
0.00034994266
-1.1833737
0.0002112642
-1.2652872
9.6136635e-05
-1.3530079
0.0016555646
-0.69333921
0.001752354
-0.74136614
0.0015677854
-0.79267011
0.0013298858
-0.84746209
0.0010788425
-0.90599706
0.00084597808
-0.96855547
0.0006367161
-1.0354315
0.00045657585
-1.1069494
0.000307355
-1.1834698
0.00018541486
-1.2653764
8.4612007e-05
-1.3530925
0.0017426018
-0.64855374
0.0019461749
-0.69353303
0.0017663103
-0.74156467
0.0015061281
-0.79284635
0.0012302018
-0.84761345
0.00098215189
-0.90613324
0.00075731865
-0.96867607
0.00056106104
-1.035536
0.00039851398
-1.1070406
0.00026785974
-1.1835522
0.00016230602
-1.2654541
7.4588266e-05
-1.3531671
0.0018234854
-0.60663121
0.0021646571
-0.64877223
0.0019880968
-0.69375482
0.0016943232
-0.74175286
0.0013830062
-0.79299916
0.0011178627
-0.84774916
0.00087939271
-0.90625531
0.00066550663
-0.96878051
0.00048623479
-1.0356237
0.00034399325
-1.1071167
0.00023235981
-1.1836223
0.00014218901
-1.2655217
6.6077132e-05
-1.3532332
0.001902467
-0.56739598
0.0024143456
-0.60688089
0.00223772
-0.64902185
0.0018910547
-0.69395155
0.0015328373
-0.74190269
0.001251357
-0.79313265
0.0010035462
-0.84787332
0.00077231877
-0.90636212
0.00057267438
-0.96886695
0.00041473932
-1.0356945
0.00029452068
-1.1071789
0.00020142876
-1.1836815
0.00012516042
-1.2655808
5.9037384e-05
-1.3532922
0.001951538
-0.53065437
0.0026990108
-0.56768065
0.0025180941
-0.60716127
0.0020984569
-0.64922925
0.0016735798
-0.69409229
0.0013775963
-0.74202893
0.0011283432
-0.79325745
0.00088465407
-0.84798565
0.00066081457
-0.90645026
0.00048174409
-0.96893396
0.0003488933
-1.0357489
0.00025126694
-1.1072287
0.00017539098
-1.1837317
0.00011120152
-1.265633
5.3388944e-05
-1.3533456
0.0019722389
-0.49627187
0.0030174569
-0.53097282
0.002832586
-0.56799514
0.0023146719
-0.60737748
0.0017986085
-0.64935428
0.0014898813
-0.69420458
0.0012511144
-0.7421517
0.0010037985
-0.79337659
0.00075517552
-0.84808001
0.00054759077
-0.90651611
0.00039612259
-0.96898119
0.00029088191
-1.0357885
0.00021505676
-1.1072684
0.00015434245
-1.1837749
0.00010019744
-1.2656798
4.9020391e-05
-1.3533946
0.0019666908
-0.46406919
0.0033780667
-0.49663248
0.0032105445
-0.53135077
0.0025425616
-0.56822303
0.0019026077
-0.60748148
0.0015775635
-0.64944196
0.0013686033
-0.69432207
0.0011316174
-0.74227952
0.00086169716
-0.79348311
0.00061621768
-0.84814864
0.0004375928
-0.90655758
0.00031971401
-0.96901002
0.00024252189
-1.0358159
0.00018628972
-1.1073003
0.00013817465
-1.1838128
9.1946195e-05
-1.2657227
4.5785626e-05
-1.3534404
0.0019819512
-0.43393626
0.0037970093
-0.46448813
0.0036629275
-0.49708487
0.0027903893
-0.5315986
0.001977249
-0.56829767
0.0016365076
-0.60754043
0.0014735165
-0.64954688
0.0012716807
-0.69446213
0.00098760701
-0.74240543
0.00069531456
-0.79356221
0.00047566874
-0.84818671
0.00033755832
-0.90657542
0.00025618842
-0.96902369
0.00020485334
-1.0358345
0.00016491787
-1.1073271
0.00012658957
-1.1838475
8.6142867e-05
-1.2657631
4.3495501e-05
-1.3534839
0.0019693109
-0.40568754
0.0043142181
-0.43445347
0.0042150938
-0.4650403
0.0030618436
-0.49735632
0.0019996872
-0.53162104
0.0016441865
-0.56830535
0.0015599202
-0.60762683
0.0014247974
-0.64969999
0.0011434069
-0.69461793
0.00079540267
-0.74250552
0.0005144755
-0.79360102
0.00034448303
-0.84819364
0.00025446374
-0.9065737
0.00020781882
-0.96902665
0.00017796582
-1.0358476
0.0001504893
-1.107351
0.00011905865
-1.1838804
8.2358289e-05
-1.2658019
4.1917502e-05
-1.3535258
0.0019653402
-0.37926217
0.0049164233
-0.40628974
0.0048523429
-0.43509072
0.0033672863
-0.46534574
0.0019562286
-0.49731286
0.0015785891
-0.53155544
0.0016251567
-0.56837058
0.0016008237
-0.60780286
0.0013453234
-0.64990191
0.00092773296
-0.69475026
0.00056059878
-0.74255164
0.00034014959
-0.79359668
0.00023503735
-0.84817421
0.00019259618
-0.90655848
0.00017483229
-0.96902352
0.00016114155
-1.0358582
0.0001421849
-1.1073741
0.00011484617
-1.1839129
8.0091809e-05
-1.2658401
4.080731e-05
-1.3535667
0.0019429459
-0.35448788
0.0056448603
-0.3799906
0.0056456675
-0.40708307
0.0037044598
-0.4354279
0.0018194303
-0.46520894
0.0014061672
-0.49714044
0.0016653912
-0.53159568
0.0018166969
-0.56858646
0.0016146038
-0.60807214
0.001111381
-0.65008556
0.00062081736
-0.69481048
0.00032264972
-0.74253414
0.00019372093
-0.79355537
0.00015516282
-0.84813678
0.00015205849
-0.9065357
0.00015569358
-0.96901807
0.00015298805
-1.035869
0.00013872008
-1.107398
0.00011318666
-1.183946
7.8852241e-05
-1.2658782
3.9922779e-05
-1.3536066
0.0019195068
-0.33131234
0.006485459
-0.35532848
0.0065698862
-0.38091482
0.0041063944
-0.407485
0.0015841649
-0.43519263
0.0010895446
-0.46489232
0.0016611354
-0.49713619
0.0020767627
-0.53185574
0.0019643186
-0.56893617
0.0013599874
-0.60832074
0.0007037366
-0.65016848
0.00028982324
-0.69477765
0.00012368818
-0.74246411
8.9959879e-05
-0.79349016
0.00010545326
-0.84809017
0.0001303726
-0.90651038
0.00014800507
-0.96901309
0.00015108047
-1.0358814
0.0001392339
-1.107424
0.00011336713
-1.1839805
7.8126669e-05
-1.2659164
3.9016188e-05
-1.3536456
0.0018952816
-0.3095962
0.0074648851
-0.33229177
0.0076988808
-0.35645747
0.0045539896
-0.38136242
0.0012157198
-0.40711656
0.00059279404
-0.43469588
0.0015805773
-0.46481176
0.0023884532
-0.49744788
0.0024225751
-0.532314
0.0016916573
-0.56926784
0.00081463073
-0.60843164
0.00023797011
-0.65011662
1.6431201e-05
-0.6946704
-1.016427e-05
-0.74236399
3.0938312e-05
-0.79341565
8.2558519e-05
-0.84804236
0.00012461657
-0.90648699
0.00014919216
-0.9690112
0.00015568891
-1.0358978
0.00014278305
-1.1074534
0.00011452121
-1.1840169
7.7390286e-05
-1.2659547
3.7854667e-05
-1.3536834
0.0018701601
-0.28926423
0.0085782289
-0.31070954
0.0090048242
-0.33359771
0.0050961379
-0.35699962
0.00071816078
-0.38086486
-0.00013395189
-0.40638981
0.0013908571
-0.43450616
0.0027588081
-0.46518212
0.0030199735
-0.49804528
0.0021461625
-0.53276851
0.00096704596
-0.56942026
0.00016234135
-0.60835601
-0.00014011488
-0.64996008
-0.00015412913
-0.69452643
-7.5529751e-05
-0.74225752
1.0715254e-05
-0.79334381
8.1626004e-05
-0.84799937
0.00013157736
-0.90646938
0.00015999399
-0.9690155
0.00016485127
-1.0359199
0.0001480179
-1.1074869
0.00011581344
-1.1840553
7.6156173e-05
-1.265993
3.6244305e-05
-1.3537197
0.0018511295
-0.27024025
0.0098276091
-0.29051361
0.010545158
-0.31224987
0.0057164801
-0.33421805
3.4434298e-05
-0.35631589
-0.0011135406
-0.37988527
0.0010452264
-0.40604418
0.0032016244
-0.43494898
0.0038054812
-0.46596763
0.0027553342
-0.49865445
0.0011775879
-0.53297905
5.9771779e-05
-0.56931769
-0.0003656817
-0.60813044
-0.00035526644
-0.64975894
-0.00021808391
-0.69438388
-8.4965341e-05
-0.74216184
1.920153e-05
-0.79328138
9.6864885e-05
-0.84796466
0.00014983724
-0.90645922
0.00017694079
-0.96902759
0.00017661106
-1.0359485
0.00015373978
-1.1075249
0.00011639462
-1.1840956
7.4013971e-05
-1.2660308
3.4042925e-05
-1.3537537
0.0018596059
-0.25245425
0.011228217
-0.27164086
0.012304789
-0.29227324
0.0064594982
-0.31299289
-0.00081329326
-0.33337033
-0.002415756
-0.35501368
0.0005158355
-0.37935588
0.0037075699
-0.40655012
0.0048102814
-0.43595378
0.0035853183
-0.46679761
0.0014668694
-0.49894373
-8.7028983e-05
-0.53283225
-0.00067979805
-0.56900357
-0.00063281763
-0.60785289
-0.00040503236
-0.64957199
-0.00020354821
-0.69426529
-5.991451e-05
-0.74208272
4.5368768e-05
-0.79322989
0.00012356145
-0.84793838
0.00017607017
-0.90645835
0.00019741699
-0.9690484
0.00018944621
-1.0359842
0.00015861259
-1.1075671
0.00011563825
-1.1841372
7.0662155e-05
-1.2660674
3.1165629e-05
-1.3537849
0.0018950599
-0.23577382
0.012770028
-0.25399607
0.014314017
-0.27365009
0.0073218212
-0.29313556
-0.0019042264
-0.31190196
-0.0040633038
-0.33172278
-0.00024681065
-0.35425103
0.0042853533
-0.37993366
0.0061002212
-0.40784006
0.004670062
-0.43703852
0.0018650657
-0.46719581
-0.00027835274
-0.4987524
-0.0011199887
-0.53239206
-0.0010148849
-0.5686215
-0.00064544696
-0.60761248
-0.00034361315
-0.64943193
-0.000150958
-0.69417425
-2.0333878e-05
-0.74201702
8.0895441e-05
-0.79318722
0.00015946441
-0.84792178
0.00020677859
-0.90646771
0.00022011058
-0.96907906
0.00020154367
-1.0360271
0.00016179271
-1.1076132
0.00011299301
-1.1841795
6.5932246e-05
-1.2661022
2.7586596e-05
-1.3538125
0.0020035554
-0.22002093
0.01437395
-0.23737775
0.016485702
-0.25616775
0.0083123662
-0.27464063
-0.0032002571
-0.29183953
-0.0061124187
-0.30985284
-0.0012854213
-0.33068417
0.0049295791
-0.35489526
0.0077053541
-0.3815388
0.0061064312
-0.40927643
0.0024028147
-0.43757627
-0.00054688925
-0.46692727
-0.0017181655
-0.49815423
-0.0015358369
-0.5318711
-0.00095512725
-0.56831182
-0.00050078315
-0.60745531
-0.00024418321
-0.6493387
-9.386232e-05
-0.69410072
2.3039611e-05
-0.74195916
0.00012458369
-0.79315234
0.00020069845
-0.8479157
0.000241862
-0.90648946
0.00024258157
-0.9691201
0.00021174635
-1.0360771
0.00016235981
-1.1076626
0.00010818202
-1.1842218
5.9770647e-05
-1.2661344
2.3338708e-05
-1.3538358
0.0024124934
-0.2046893
0.016037766
-0.22168475
0.018718036
-0.23961008
0.0094186259
-0.25727401
-0.0047735166
-0.27306737
-0.0085942822
-0.28935767
-0.0026314875
-0.30850678
0.0056545422
-0.33140913
0.0096989919
-0.35688889
0.0079253383
-0.3833577
0.0031299189
-0.41000354
-0.00088486401
-0.43723829
-0.0025349073
-0.46611053
-0.0022427603
-0.4974473
-0.0013497727
-0.53147646
-0.0006711507
-0.56814146
-0.00032429633
-0.60737519
-0.00016325577
-0.64926931
-4.6350928e-05
-0.69403133
6.9879835e-05
-0.74190446
0.00017502822
-0.79312667
0.00024992152
-0.84792376
0.0002778727
-0.90652476
0.000263315
-0.96917167
0.000218663
-1.0361334
0.00015991213
-1.1077143
0.00010107832
-1.1842631
5.2225993e-05
-1.2661633
1.8501712e-05
-1.3538543
0.0031738462
-0.18972221
0.0177844
-0.20643593
0.020860933
-0.22382765
0.010656322
-0.24084777
-0.0064071972
-0.25564033
-0.011559206
-0.27010245
-0.0043447564
-0.2876444
0.0064481175
-0.30930035
0.012114586
-0.33382473
0.010240652
-0.35920421
0.0040847524
-0.38431254
-0.0013392901
-0.40954911
-0.003618499
-0.4361547
-0.003193068
-0.46516022
-0.0018595055
-0.49693757
-0.00084401173
-0.5313036
-0.00037485102
-0.5680909
-0.00021092407
-0.60732752
-0.00011895666
-0.6491967
-4.039628e-06
-0.69395741
0.00012577655
-0.74185521
0.00023848504
-0.79311523
0.00030224848
-0.84794813
0.0003129334
-0.90657437
0.0002803458
-0.96923335
0.00022169294
-1.0361952
0.0001541389
-1.1077674
9.1702782e-05
-1.1843026
4.3431622e-05
-1.2661882
1.3191327e-05
-1.3538675
0.0025994747
-0.2058586
0.01945729
-0.1913951
0.022393949
-0.20796895
0.011265916
-0.22443724
-0.0080272557
-0.23922772
-0.015029671
-0.25216987
-0.0064204558
-0.26802675
0.007327657
-0.28852394
0.015007949
-0.31219372
0.013076217
-0.33666029
0.0053304312
-0.36044989
-0.0018945876
-0.38375724
-0.0050541049
-0.40811351
-0.0044567363
-0.43489103
-0.0025109383
-0.46450879
-0.0010140012
-0.49676758
-0.00036151955
-0.53131693
-0.00021227897
-0.56808955
-0.00018127334
-0.60726521
-9.47248e-05
-0.64910602
4.8528426e-05
-0.69388016
0.00020001668
-0.74181674
0.00030888886
-0.79312187
0.00035554762
-0.84799075
0.00034451199
-0.90663854
0.00029269321
-0.96930435
0.00022019741
-1.0362612
0.00014501443
-1.1078207
8.0262108e-05
-1.1843394
3.3587002e-05
-1.2662086
7.5383109e-06
-1.3538751
0.0030174007
-0.20296854
0.019440472
-0.20584179
0.023127965
-0.19212912
0.01038893
-0.20709196
-0.010766978
-0.22169752
-0.019096607
-0.23516078
-0.0090535753
-0.24953675
0.0082971955
-0.26899629
0.018431427
-0.29194742
0.016544168
-0.31566167
0.0069126017
-0.33824246
-0.0026008824
-0.35974359
-0.0069046193
-0.38190672
-0.006119392
-0.40645085
-0.0033481752
-0.4340538
-0.0011656844
-0.4643571
-0.00024922342
-0.49687988
-0.00012768896
-0.53140152
-0.00020924929
-0.56806157
-0.00019521459
-0.60716472
-6.1463052e-05
-0.64899603
0.00012605406
-0.6938062
0.00028957773
-0.74179743
0.00038460921
-0.79315093
0.00040681013
-0.84805304
0.0003707831
-0.90671663
0.00029922081
-0.96938338
0.00021407903
-1.0363303
0.000132741
-1.1078732
6.6966499e-05
-1.1843728
2.2926772e-05
-1.266224
1.6171016e-06
-1.3538767
0.0043358304
-0.19970021
0.020177249
-0.20370532
0.021697673
-0.20441149
0.0081237593
-0.18986394
-0.015023037
-0.2028359
-0.023519099
-0.21727503
-0.01228336
-0.231931
0.0093466921
-0.25058624
0.022399593
-0.27296445
0.020664844
-0.29606809
0.008904062
-0.31765313
-0.0034436543
-0.33739969
-0.0092780379
-0.35737017
-0.0082695654
-0.37975655
-0.0044162951
-0.40538273
-0.0012904165
-0.43392907
1.1513664e-05
-0.46461784
9.26814e-05
-0.49710025
-0.00017853174
-0.53143224
-0.00029293292
-0.56796385
-0.00020875532
-0.60701743
6.6478371e-06
-0.64887662
0.00023289305
-0.69374952
0.00039111621
-0.74180394
0.0004611944
-0.79320532
0.00045251803
-0.84813478
0.00038999963
-0.90680741
0.00029962585
-0.96946893
0.00020339817
-1.0364009
0.00011755158
-1.1079238
5.2187415e-05
-1.184402
1.1645411e-05
-1.266234
-4.2924901e-06
-1.3538724
0.0064011986
-0.1963178
0.021728859
-0.20125182
0.020450982
-0.20245862
0.0032858383
-0.19957357
-0.020184621
-0.18470236
-0.027663453
-0.19869155
-0.01489437
-0.21466402
0.01061755
-0.23320185
0.027026267
-0.25521292
0.025522431
-0.27782204
0.011350428
-0.29851446
-0.0044784801
-0.3166183
-0.012249442
-0.33442828
-0.011017582
-0.35462216
-0.0057712296
-0.37840162
-0.0013684248
-0.40530472
0.00047454894
-0.4343921
0.00051311468
-0.46503827
-4.2383402e-05
-0.4972364
-0.00038588002
-0.53133929
-0.00039490111
-0.56777771
-0.00017197641
-0.6068388
0.00012440883
-0.64876814
0.00036453227
-0.69372293
0.00050036432
-0.74184311
0.00053333213
-0.79328613
0.00049021306
-0.84823499
0.0004013322
-0.90690912
0.00029371218
-0.96955924
0.00018843722
-1.0364718
9.9928688e-05
-1.1079715
3.6209971e-05
-1.1844266
-1.6475841e-08
-1.2662383
-1.0449517e-05
-1.3538619
0.0090099079
-0.19303143
0.02403317
-0.19862211
0.019520901
-0.20032174
-0.0020875238
-0.19708526
-0.027335606
-0.19242259
-0.031238787
-0.18112703
-0.015927117
-0.1976588
0.012704384
-0.21675085
0.032346752
-0.23852234
0.031029411
-0.2607199
0.01433248
-0.28080409
-0.0056958
-0.29729714
-0.015927322
-0.31294042
-0.0144584
-0.33098747
-0.0074797606
-0.35291363
-0.0013853346
-0.37838471
0.0012081971
-0.40603837
0.0011985686
-0.43507755
0.00025398504
-0.46533464
-0.00045785935
-0.49716442
-0.00062881869
-0.53110537
-0.00042750763
-0.56752218
-5.3727932e-05
-0.60666067
0.00029031153
-0.64869392
0.00051436299
-0.69373693
0.00060720485
-0.74191698
0.00059656617
-0.79339249
0.00051797459
-0.84835164
0.00040422203
-0.90701963
0.00028174381
-0.96965255
0.00016969253
-1.0365416
8.0235123e-05
-1.1080155
1.9446168e-05
-1.1844461
-1.184023e-05
-1.2662369
-1.6479135e-05
-1.3538455
0.011913812
-0.18999351
0.026906969
-0.19590523
0.018965489
-0.1980667
-0.0077281838
-0.19468108
-0.034614141
-0.18980673
-0.036121825
-0.18753955
-0.015551826
-0.18150232
0.016338942
-0.20129336
0.038255236
-0.22265934
0.036698781
-0.24419171
0.017729952
-0.26411737
-0.0071242985
-0.27937559
-0.020400611
-0.29282385
-0.01870487
-0.30869395
-0.0095969578
-0.32887027
-0.0013231976
-0.35297576
0.00228472
-0.37946123
0.0022505777
-0.40709038
0.00077176548
-0.43559533
-0.00047752912
-0.46531497
-0.00092596804
-0.49686727
-0.00077746764
-0.53075541
-0.00032784411
-0.56724806
0.00014970869
-0.60652006
0.00049142141
-0.64867097
0.00066745231
-0.69379718
0.00070525036
-0.74202566
0.00064766916
-0.79352218
0.00053469605
-0.84848211
0.00039876991
-0.90713665
0.00026418924
-0.96974704
0.00014766076
-1.036609
5.9034085e-05
-1.1080551
2.0948327e-06
-1.18446
-2.3656297e-05
-1.2662297
-2.2409402e-05
-1.353823
0.014832739
-0.18730852
0.030079714
-0.19316625
0.018775001
-0.19571474
-0.013319655
-0.19247523
-0.041724227
-0.18757099
-0.040585768
-0.18534278
-0.016590973
-0.1865004
0.021348072
-0.18651145
0.044397916
-0.20743604
0.04214905
-0.22810961
0.020931603
-0.24739336
-0.0086177051
-0.26262396
-0.025789338
-0.27398687
-0.023853734
-0.28767498
-0.012208379
-0.30608253
-0.0011544037
-0.32903906
0.0037936211
-0.35448466
0.0037449302
-0.38095558
0.0016002592
-0.40791887
-0.00040627898
-0.43566658
-0.0013016022
-0.46493934
-0.0012566451
-0.49638809
-0.00072379599
-0.53035946
-8.3066745e-05
-0.56701528
0.0004168518
-0.60644549
0.00070611528
-0.64870964
0.00081190626
-0.69390383
0.00078819291
-0.74216619
0.00068441511
-0.7936719
0.00054017494
-0.84862351
0.00038539325
-0.90725786
0.00024166425
-0.96984105
0.00012299772
-1.036673
3.6687331e-05
-1.1080897
-1.5337319e-05
-1.1844683
-3.5319141e-05
-1.2662168
-2.814605e-05
-1.3537949
0.017483127
-0.18504689
0.033237148
-0.19046596
0.018926749
-0.193318
-0.018567682
-0.19046671
-0.048298423
-0.18590103
-0.044727144
-0.18342962
-0.016529213
-0.18540455
0.024782972
-0.1899353
0.050562298
-0.19267583
0.046743703
-0.2120307
0.022970548
-0.23014855
-0.010622883
-0.24538818
-0.032289205
-0.25612409
-0.030013627
-0.26782697
-0.015363642
-0.28451972
-0.00087056113
-0.30636637
0.0058151782
-0.33106062
0.0058164714
-0.3565562
0.0028135506
-0.38216887
-0.00020582234
-0.40811933
-0.001760793
-0.43520739
-0.0019135179
-0.46428247
-0.0012818868
-0.49583
-0.00043720268
-0.53000532
0.00027255147
-0.56687098
0.00071387637
-0.60645325
0.00091277197
-0.6488105
0.00093791865
-0.69405356
0.00085264147
-0.74233441
0.00070615934
-0.79383788
0.00053469109
-0.84877281
0.00036480279
-0.90738099
0.00021493503
-0.96993298
9.6242248e-05
-1.0367325
1.3679182e-05
-1.1081187
-3.279584e-05
-1.1844708
-4.6727059e-05
-1.2661982
-3.3616649e-05
-1.3537613
0.019612398
-0.18329172
0.036073079
-0.18788282
0.019375368
-0.19091458
-0.023180279
-0.1887054
-0.05398652
-0.18477861
-0.048507944
-0.18212023
-0.015777444
-0.18418139
0.02979829
-0.19041986
0.054845403
-0.19421841
0.050375192
-0.19630732
0.023018538
-0.21207869
-0.015335383
-0.22543605
-0.039984394
-0.23769299
-0.037487524
-0.2486502
-0.019145757
-0.26404486
-0.00043053717
-0.28495974
0.0084547682
-0.30900596
0.0085399433
-0.33378409
0.0045338728
-0.35827653
0.00018345379
-0.38255815
-0.002319981
-0.40756014
-0.002795825
-0.43432509
-0.0020615204
-0.46350283
-0.00094592206
-0.49532128
3.3688733e-05
-0.52976646
0.00068213592
-0.56683924
0.001005228
-0.60654571
0.0010959445
-0.64896853
0.0010390386
-0.69423996
0.00089685349
-0.74252511
0.0007129937
-0.79401619
0.00051907472
-0.84892708
0.00033789121
-0.90750395
0.00018472622
-0.97002147
6.8016525e-05
-1.0367869
-9.6376768e-06
-1.1081419
-4.9995291e-05
-1.1844676
-5.7670892e-05
-1.2661742
-3.8809299e-05
-1.3537225
-0.18214174
0.021027815
0.038322351
-0.18554099
0.020056345
-0.1885638
-0.02692031
-0.18717455
-0.05861186
-0.18408006
-0.051793011
-0.18149355
-0.014719701
-0.18317798
0.035919451
-0.19030255
0.060017003
-0.19559146
0.053164573
-0.19700779
0.021622954
-0.19491173
-0.022732941
-0.20468113
-0.049245204
-0.21617524
-0.045865807
-0.22931471
-0.023412081
-0.24438387
0.00018899032
-0.26466438
0.011800117
-0.28830509
0.012063885
-0.31252991
0.0068398163
-0.33609003
0.00082167088
-0.35891474
-0.002978792
-0.38189934
-0.0039748079
-0.40638116
-0.0031350634
-0.43325154
-0.0016572794
-0.46279147
-0.0003208064
-0.49496678
0.00060157059
-0.52968589
0.0010876756
-0.56692169
0.0012638176
-0.60671358
0.0012449894
-0.64917448
0.0011129731
-0.69445608
0.00092104001
-0.74273315
0.00070592799
-0.79420304
0.00049438656
-0.84908358
0.00030560944
-0.90762483
0.00015183035
-0.97010528
3.8806965e-05
-1.0368353
-3.2934272e-05
-1.1081589
-6.6749175e-05
-1.1844585
-6.817009e-05
-1.2661448
-4.3715196e-05
-1.3536788
-0.1836061
0.039786713
-0.18161448
0.021607102
0.020867924
-0.18635257
-0.029603125
-0.18588098
-0.062084276
-0.18370213
-0.054498108
-0.18137497
-0.013688616
-0.18252463
0.042526071
-0.1897846
0.065848076
-0.19613362
0.056316906
-0.1987438
0.021278171
-0.19666301
-0.031303789
-0.18634089
-0.05895102
-0.19497531
-0.053111713
-0.20892933
-0.027429762
-0.22529703
0.0012090697
-0.24540395
0.01594823
-0.2688125
0.016452982
-0.29269419
0.0098753005
-0.31556539
0.001784268
-0.33705263
-0.0037606226
-0.35813291
-0.0055159708
-0.38035818
-0.00459572
-0.4049205
-0.0026383816
-0.43227044
-0.00081563971
-0.46229664
0.00045882507
-0.49482404
0.0011645739
-0.52976279
0.0014469137
-0.56710479
0.0014743802
-0.60694297
0.0013564717
-0.64941798
0.0011597048
-0.69469474
0.00092637906
-0.7429536
0.00068627917
-0.79439493
0.00046183507
-0.8492398
0.00026893728
-0.90774194
0.00011692788
-0.9701834
9.1328821e-06
-1.0368774
-5.59329e-05
-1.1081698
-8.2904244e-05
-1.1844437
-7.8105594e-05
-1.2661104
-4.8260673e-05
-1.3536305
-0.1844011
0.021662927
-0.18220468
0.040376914
-0.18178148
0.021320632
-0.031083044
-0.18487265
-0.064425335
-0.18353993
-0.05654707
-0.18165317
-0.012886321
-0.18217726
0.04900355
-0.18900211
0.07198173
-0.19591825
0.059865734
-0.19968245
0.020977432
-0.19844306
-0.037789232
-0.19017756
-0.068283296
-0.17700861
-0.058895771
-0.18919125
-0.029736503
-0.20662259
0.0031663305
-0.22725429
0.021019362
-0.25047509
0.021823875
-0.27418339
0.013711039
-0.29652993
0.0031544481
-0.31693557
-0.0046513239
-0.33616193
-0.0075200283
-0.35612886
-0.0065457014
-0.37840819
-0.0039665107
-0.40359237
-0.0014861118
-0.43159997
0.00025210192
-0.46208992
0.001241816
-0.49490128
0.00165574
-0.52997162
0.001735791
-0.5673662
0.0016318891
-0.60721839
0.0014307415
-0.64968901
0.0011811674
-0.69494953
0.00091476615
-0.74318209
0.00065563754
-0.79458873
0.0004226649
-0.84939353
0.00022880246
-0.90785382
8.0711983e-05
-0.97025498
-2.0612639e-05
-1.0369127
-7.8365e-05
-1.1081743
-9.835649e-05
-1.1844235
-8.7419949e-05
-1.2660713
-5.2505884e-05
-1.353578
-0.18419201
-0.031292139
-0.18290591
0.022364151
-0.18150063
0.040096061
-0.18263344
0.020182806
-0.065611879
-0.1836861
-0.057906841
-0.18218015
-0.012392913
-0.18214658
0.054847706
-0.18802142
0.078060471
-0.19508085
0.063709502
-0.19976202
0.020773328
-0.19947834
-0.044069937
-0.19216235
-0.076670323
-0.18179053
-0.063910771
-0.17199361
-0.030184218
-0.18874354
0.0065065851
-0.20996285
0.027099705
-0.23333463
0.028253269
-0.25690448
0.018475731
-0.27894808
0.0050228079
-0.29839829
-0.0056753761
-0.31591152
-0.010075008
-0.33360695
-0.0091222255
-0.35355233
-0.0057346036
-0.3766401
-0.0023710177
-0.40270747
-1.5133858e-05
-0.43133273
0.0013315156
-0.46217962
0.0019083014
-0.49515384
0.0020422936
-0.53027812
0.0019472564
-0.56768156
0.0017375656
-0.60752521
0.001471199
-0.64997904
0.0011802698
-0.69521503
0.00088835539
-0.74341481
0.00061560361
-0.79478167
0.00037809101
-0.84954282
0.00018609691
-0.9079592
4.3747813e-05
-0.97031934
-5.0034938e-05
-1.036941
-0.00010005457
-1.1081726
-0.00011298157
-1.1843979
-9.6127223e-05
-1.2660276
-5.638103e-05
-1.3535216
-0.18424279
-0.065561101
-0.18397937
-0.030218681
-0.18193036
0.022793883
-0.18149648
0.038959106
-0.18414934
0.018223815
-0.05853082
-0.18306212
-0.011947694
-0.18262537
0.059701902
-0.18700077
0.083767002
-0.19372795
0.06768781
-0.19905916
0.020695833
-0.19968453
-0.050088486
-0.19345979
-0.084747898
-0.18408478
-0.071463994
-0.17423731
-0.029640322
-0.17253751
0.011592013
-0.19382897
0.034343235
-0.21720638
0.035714043
-0.2407954
0.024248992
-0.26267774
0.0074932364
-0.28141851
-0.0067990697
-0.29727459
-0.013310184
-0.31267634
-0.012465579
-0.3302636
-0.0080513293
-0.35123561
-0.0035138273
-0.37549729
-0.00034164164
-0.40238096
0.0014506269
-0.43145185
0.0022299612
-0.46250128
0.0024147834
-0.49552633
0.0023155771
-0.53064644
0.0020860538
-0.56803005
0.0017977351
-0.60785175
0.0014825215
-0.6502813
0.0011601238
-0.6954868
0.00084930309
-0.74364851
0.00056774657
-0.79497133
0.00032925011
-0.84968597
0.00014161477
-0.90805707
6.6237573e-06
-0.970376
-7.8845457e-05
-1.0369622
-0.00012081211
-1.1081648
-0.00012674107
-1.1843673
-0.00010414442
-1.2659799
-5.9923015e-05
-1.3534617
-0.18450879
-0.058264811
-0.18529189
-0.064248577
-0.18411184
-0.028037196
-0.18161501
0.022912408
-0.18199779
0.036807559
-0.18632898
0.015535541
-0.011384966
-0.18362485
0.063435275
-0.18635875
0.088778766
-0.19201254
0.071620518
-0.19766066
0.020744571
-0.1991079
-0.055668969
-0.19410404
-0.092281706
-0.18592599
-0.078994098
-0.17655467
-0.034589005
-0.16928863
0.01792927
-0.17887476
0.042743145
-0.20222888
0.044237712
-0.22573005
0.031072099
-0.24761851
0.010661203
-0.26584571
-0.0080325142
-0.28018507
-0.017342719
-0.29324206
-0.01674808
-0.30839384
-0.011032714
-0.32728221
-0.0049631599
-0.34978627
-0.00071820859
-0.37512073
0.0016357941
-0.40256613
0.0026496098
-0.43187149
0.0028825625
-0.46296906
0.0027559729
-0.49596673
0.0024854907
-0.53104588
0.0021633004
-0.56839562
0.0018205704
-0.6081898
0.0014697383
-0.65059091
0.001123812
-0.69576131
0.00079963811
-0.7438804
0.00051352423
-0.7951556
0.00027721712
-0.84982158
9.6109531e-05
-0.90814655
-3.0277958e-05
-0.97042457
-0.0001067564
-1.0369763
-0.00014053257
-1.108151
-0.00013955308
-1.1843319
-0.00011150956
-1.2659283
-6.3120637e-05
-1.3533986
-0.18501977
-0.010873987
-0.18643399
-0.057122711
-0.18670733
-0.061653089
-0.18470445
-0.024947751
-0.18197189
0.022886504
-0.18318918
0.033667759
-0.18914224
0.012299836
0.065974791
-0.18616437
0.092631271
-0.19021125
0.075279357
-0.19567137
0.020913413
-0.1978295
-0.060720025
-0.19405684
-0.099090016
-0.18729573
-0.086280558
-0.17863953
-0.039607275
-0.1715364
0.018588435
-0.16994779
0.052261366
-0.18839298
0.053546527
-0.21153769
0.038813586
-0.23347153
0.014599556
-0.25155686
-0.0093214968
-0.26455672
-0.0223
-0.27522778
-0.022155434
-0.28783471
-0.014816536
-0.30461002
-0.0067493687
-0.325496
-0.001135865
-0.34936862
0.0019253927
-0.37541032
0.0032169417
-0.40313346
0.0034841968
-0.43247313
0.0032944628
-0.46350755
0.0029497072
-0.49643094
0.0025718441
-0.53145442
0.0021927889
-0.56876784
0.0018140828
-0.60853414
0.001437284
-0.65090438
0.0010739859
-0.69603566
0.00074119966
-0.74410807
0.00045428046
-0.79533267
0.00022294758
-0.84994841
5.0234172e-05
-0.90822706
-6.6470044e-05
-0.97046485
-0.00013356619
-1.0369833
-0.00015909022
-1.1081314
-0.00015140254
-1.184292
-0.00011819206
-1.2658732
-6.5971794e-05
-1.3533326
-0.18612599
0.067081004
-0.1866252
-0.010682781
-0.18865618
-0.055173861
-0.18844873
-0.057908814
-0.18599018
-0.020929455
-0.18300154
0.022698863
-0.18525219
0.029777711
-0.1925464
0.0087135548
0.095034102
-0.1885672
0.078318171
-0.19325006
0.021196703
-0.19595466
-0.065131778
-0.19341774
-0.10506421
-0.18808265
-0.093017696
-0.1805586
-0.044913494
-0.17333331
0.019625425
-0.17257339
0.05814997
-0.1758364
0.063217052
-0.19806351
0.046562924
-0.21928703
0.018972857
-0.23784484
-0.010729287
-0.25014908
-0.028350057
-0.25850667
-0.028868278
-0.26851494
-0.019543689
-0.28310755
-0.0089283693
-0.30243102
-0.0015541596
-0.32507771
0.0023718403
-0.34981506
0.0039769782
-0.37617036
0.004268749
-0.40391801
0.0039678599
-0.43314652
0.0034985529
-0.46405639
0.0030296617
-0.49688876
0.0025977667
-0.5318594
0.0021880164
-0.56914177
0.0017852276
-0.60888209
0.0013888015
-0.6512192
0.001012911
-0.69630737
0.00067559775
-0.74432939
0.00039122559
-0.79550094
0.00016734689
-0.85006553
4.6877574e-06
-0.90829822
-0.00010165771
-0.97049676
-0.00015908055
-1.0369833
-0.00017642001
-1.1081064
-0.00016226011
-1.184248
-0.00012420852
-1.265815
-6.8500229e-05
-1.3532641
-0.18714003
0.096048146
-0.18610191
0.066557714
-0.18856925
-0.010769716
-0.19102067
-0.052601922
-0.19050339
-0.053395613
-0.18766439
-0.016266599
-0.18477199
0.022218663
-0.18815945
0.025390754
-0.19645605
0.0049511445
0.080381322
-0.19063035
0.021559423
-0.19361279
-0.068760511
-0.19232593
-0.1101411
-0.18834085
-0.098972369
-0.18212798
-0.050335224
-0.17513687
0.020660523
-0.1743684
0.065052521
-0.17947594
0.071656134
-0.18427548
0.053649388
-0.20514997
0.022760437
-0.22307461
-0.012624188
-0.23594993
-0.035888598
-0.24261053
-0.037143018
-0.25023193
-0.025374319
-0.26268431
-0.011501399
-0.28053452
-0.0019468769
-0.3020383
0.0030432449
-0.32574911
0.0050107636
-0.35084885
0.005288955
-0.37719057
0.004819707
-0.40476986
0.0041583978
-0.43380637
0.0035465325
-0.46457326
0.0030331724
-0.49732417
0.0025844733
-0.53225586
0.0021598287