/*--------------------------------*- C++ -*----------------------------------*\
| =========                 |                                                 |
| \\      /  F ield         | OpenFOAM: The Open Source CFD Toolbox           |
|  \\    /   O peration     | Version:  5.0                                   |
|   \\  /    A nd           | Web:      www.OpenFOAM.org                      |
|    \\/     M anipulation  |                                                 |
\*---------------------------------------------------------------------------*/
FoamFile
{
    version     2.0;
    format      ascii;
    class       volScalarField;
    location    "80";
    object      pMean;
}
// * * * * * * * * * * * * * * * * * * * * * * * * * * * * * * * * * * * * * //

dimensions      [0 2 -2 0 0 0 0];

internalField   nonuniform List<scalar> 
9520
(
-0.00012235454
-0.00011987203
-0.00024056161
-0.00011554471
-0.00023439234
-0.00039649877
-0.00010979422
-0.00022321375
-0.00038658859
-0.00054079773
-0.00010292932
-0.00020817058
-0.00036851434
-0.00052716117
-0.00069937984
-9.5257337e-05
-0.00019015078
-0.00034403489
-0.00050244667
-0.00068212238
-0.00086095747
-8.6999596e-05
-0.00017001425
-0.00031459269
-0.0004689481
-0.00065076852
-0.00084024513
-0.0010308492
-7.8407788e-05
-0.00014845495
-0.00028152423
-0.00042865648
-0.00060817456
-0.00080256449
-0.001006806
-0.0012072717
-6.9637387e-05
-0.0001259934
-0.0002460117
-0.00038339646
-0.00055678028
-0.00075122
-0.00096295061
-0.0011801882
-0.0013913425
-6.0824716e-05
-0.00010312521
-0.0002092799
-0.00033471779
-0.00049884129
-0.00068901603
-0.00090299078
-0.0011306242
-0.0013615063
-0.0015827108
-5.1781363e-05
-8.0661912e-05
-0.00017204952
-0.00028395559
-0.00043633189
-0.00061855961
-0.00083006362
-0.0010625443
-0.0013067121
-0.0015505632
-0.0017813741
-4.3291312e-05
-5.8610596e-05
-0.0001349132
-0.00023226078
-0.00037099639
-0.00054216922
-0.00074708563
-0.00097930485
-0.0012310845
-0.0014912728
-0.0017473941
-0.00198672
-3.3859915e-05
-3.748811e-05
-9.8298919e-05
-0.00018081285
-0.00030434865
-0.00046201
-0.00065669063
-0.0008840551
-0.0011380831
-0.0014089582
-0.0016844291
-0.001951537
-0.0021981776
-2.6315739e-05
-1.6130223e-05
-6.3274388e-05
-0.00013026449
-0.00023778961
-0.00037996554
-0.00056136348
-0.00077970825
-0.0010309801
-0.0013070342
-0.0015964454
-0.0018859794
-0.0021624707
-0.0024147087
-1.5532238e-05
2.6791726e-06
-2.8944563e-05
-8.1659718e-05
-0.00017233641
-0.00029773058
-0.00046334146
-0.00066902993
-0.00091285905
-0.0011887715
-0.0014866614
-0.0017936722
-0.0020955133
-0.002379294
-0.0026353628
-8.9786435e-06
2.3847299e-05
1.9175995e-06
-3.4413147e-05
-0.00010931462
-0.0002165984
-0.00036460912
-0.00055454445
-0.00078671127
-0.0010573235
-0.0013581977
-0.0016774572
-0.0020004165
-0.0023123773
-0.0026010958
-0.0028587393
3.2357086e-06
3.9296324e-05
3.4130595e-05
8.7646745e-06
-4.8512014e-05
-0.00013809584
-0.00026682542
-0.00043856219
-0.00065534116
-0.00091583537
-0.0012141472
-0.001540138
-0.0018794697
-0.0022163553
-0.002535754
-0.0028265825
-0.0030836573
9.2791238e-06
5.9985659e-05
5.9564708e-05
5.2322029e-05
7.4025896e-06
-6.2433896e-05
-0.00017182839
-0.00032309375
-0.0005214009
-0.00076734662
-0.0010577121
-0.0013846095
-0.0017349858
-0.0020927726
-0.0024408458
-0.0027645535
-0.0030545862
-0.003308483
2.1667256e-05
7.2264908e-05
9.0303999e-05
8.7874311e-05
6.233893e-05
7.9307671e-06
-8.0096037e-05
-0.0002101909
-0.00038724288
-0.0006148627
-0.00089212949
-0.0012140004
-0.0015694924
-0.0019432613
-0.0023169941
-0.0026730911
-0.0029976573
-0.003283529
-0.0035319643
2.7815349e-05
9.2221653e-05
0.000110791
0.00012775291
0.00010826674
7.6401316e-05
6.1152157e-06
-0.00010054572
-0.00025509671
-0.00046100583
-0.00072069787
-0.001031655
-0.0013859078
-0.0017698016
-0.0021649646
-0.0025517127
-0.0029120921
-0.0032336129
-0.0035121305
-0.0037523888
3.9560666e-05
0.00010209536
0.00013947688
0.00015542863
0.00015737459
0.00013509506
8.9578738e-05
3.4536825e-06
-0.00012604345
-0.00030826627
-0.00054629368
-0.00084107359
-0.0011875412
-0.0015749539
-0.0019860031
-0.0024001283
-0.0027961556
-0.0031565957
-0.0034711119
-0.0037386807
-0.003968503
4.7441705e-05
0.00012048554
0.00015673245
0.00019080887
0.00019247819
0.00019591482
0.00016273766
0.00010392261
-2.8327955e-06
-0.00015836413
-0.00037183819
-0.00064546714
-0.00097796503
-0.0013618238
-0.0017821022
-0.0022186533
-0.0026483291
-0.0030493427
-0.0034053089
-0.0037084651
-0.0039618936
-0.004178696
5.7621212e-05
0.00013033758
0.00018224957
0.00021167343
0.00023489151
0.0002412559
0.00023748669
0.00019389319
0.00011612344
-1.4310438e-05
-0.00019968024
-0.00044821549
-0.00076077138
-0.0011339836
-0.001556018
-0.0020085276
-0.0024677901
-0.0029089638
-0.0033100935
-0.0036566211
-0.0039442976
-0.0041800804
-0.0043818269
6.8754395e-05
0.00014499222
0.00019827681
0.00024112459
0.00026037754
0.00029337459
0.00029573039
0.00028470282
0.00022446056
0.00012501474
-3.3022936e-05
-0.00025217089
-0.00053973292
-0.00089529527
-0.0013111936
-0.0017719687
-0.0022548224
-0.0027333436
-0.0031810849
-0.0035769458
-0.0039090674
-0.0041768504
-0.0043920253
-0.0045765541
7.7295327e-05
0.00015596987
0.00021867898
0.00025732038
0.00029461543
0.00032642401
0.00036084175
0.00035821156
0.00033269427
0.00025350903
0.0001284959
-6.0851038e-05
-0.00031818455
-0.00064975778
-0.0010515896
-0.0015121216
-0.0020109108
-0.0025215914
-0.0030147072
-0.0034634796
-0.0038484109
-0.0041608238
-0.0044047845
-0.0045962654
-0.0047619112
9.2258444e-05
0.00016450778
0.00023611801
0.00027865574
0.00031306799
0.00036813585
0.00040509603
0.0004386889
0.00042299222
0.00038071693
0.0002788914
0.0001252912
-0.00010011597
-0.00040123661
-0.00078148582
-0.0012328892
-0.0017387045
-0.0022742042
-0.0028087126
-0.0033110731
-0.0037547361
-0.0041226473
-0.0044103607
-0.0046264176
-0.0047917439
-0.0049369111
0.00010150015
0.00017597258
0.0002504275
0.0002933009
0.00033666601
0.00039102795
0.00045877909
0.00049699593
0.00052005357
0.0004889002
0.00042657184
0.0003002235
0.00011335392
-0.00015418685
-0.00050510639
-0.00093877159
-0.0014419031
-0.001993113
-0.0025624122
-0.0031159416
-0.0036212178
-0.0040530866
-0.0043979481
-0.0046558032
-0.0048405224
-0.004977323
-0.0051008125
0.00011882106
0.00017741077
0.00026946785
0.0003046791
0.00035089434
0.00041899381
0.000491773
0.00056554799
0.00059343369
0.00060320138
0.00055396597
0.00047110921
0.00031596623
8.9568528e-05
-0.00022731652
-0.0006341899
-0.0011250042
-0.0016815975
-0.0022767863
-0.002875982
-0.0034424085
-0.0039436154
-0.0043567141
-0.0046722507
-0.0048956772
-0.0050456838
-0.0051521528
-0.0052529938
0.00013280374
0.0001864677
0.00027860068
0.00031872715
0.00036120127
0.00043469202
0.00053050604
0.00061169029
0.0006777214
0.00069160907
0.00068630145
0.0006205152
0.0005136614
0.00032354831
4.9256639e-05
-0.00032447678
-0.00079277507
-0.0013440217
-0.0019543739
-0.0025909365
-0.0032146027
-0.0037870028
-0.0042764295
-0.0046634309
-0.0049437789
-0.0051282257
-0.0052408742
-0.0053154666
-0.0053930056
0.00015673644
0.00018415164
0.00029575121
0.00032117811
0.00037154678
0.00044571766
0.00055536828
0.00066490328
0.00073770263
0.00079101192
0.00078974197
0.00077363594
0.0006894465
0.0005524451
0.00031791951
-1.3030641e-05
-0.00045081225
-0.00098545567
-0.0015991648
-0.0022624318
-0.0029360907
-0.0035777647
-0.0041480448
-0.0046174745
-0.0049711566
-0.0052104292
-0.005352136
-0.0054250315
-0.0054666882
-0.0055205488
0.00018248404
0.00018995807
0.00029725403
0.00033135743
0.00036889013
0.00045467113
0.00057580069
0.00070297017
0.00080573631
0.00086305946
0.00090313431
0.00089437166
0.00086748815
0.00075990159
0.00058205792
0.00029308018
-0.00010323445
-0.00061158384
-0.0012163157
-0.0018937795
-0.0026072384
-0.0033124858
-0.0039641715
-0.0045235052
-0.0049644244
-0.0052774776
-0.0054705105
-0.0055659308
-0.0055973562
-0.0056053979
-0.0056354731
0.00021506358
0.00019195334
0.00029904429
0.00032469678
0.0003723142
0.00044820993
0.0005932286
0.00073646604
0.00085677799
0.0009439628
0.00098480603
0.0010240018
0.0010103848
0.00096874719
0.00082621539
0.00059602176
0.00024234251
-0.00022734213
-0.0008117748
-0.0014898886
-0.0022304546
-0.0029900301
-0.0037194969
-0.0043721599
-0.0049109551
-0.005314615
-0.0055802411
-0.0057220765
-0.0057685343
-0.0057571732
-0.0057313278
-0.005737768
0.00025608265
0.00019392112
0.00029757418
0.00032063421
0.00036090015
0.00044566993
0.00059280331
0.00076768641
0.00090404705
0.0010044685
0.0010744502
0.0011167406
0.0011618241
0.0011402359
0.0010711729
0.00088103487
0.00058689103
0.00015917246
-0.00039123539
-0.0010568532
-0.0018099736
-0.0026115362
-0.0034110516
-0.0041560499
-0.0047994007
-0.0053075934
-0.005665432
-0.0058770111
-0.005963639
-0.0059588468
-0.0059039954
-0.0058443593
-0.0058275623
0.00030054192
0.00019391481
0.00029605727
0.00031405604
0.00035517024
0.00042729935
0.0005968452
0.0007791863
0.00094776673
0.001061555
0.0011383391
0.0012164708
0.0012713778
0.0013209306
0.0012784789
0.001166625
0.00091590164
0.0005475861
3.7017025e-05
-0.00060094211
-0.0013517904
-0.0021802834
-0.0030383865
-0.0038701641
-0.004620215
-0.0052431448
-0.0057104141
-0.0060139769
-0.0061657801
-0.0061935744
-0.0061360807
-0.0060374933
-0.0059445183
-0.005905093
0.00034912194
0.00018670315
0.00029752392
0.00031064545
0.00034441376
0.00042147059
0.00058265446
0.00079653898
0.00096964492
0.0011128653
0.001197122
0.0012834705
0.0013873905
0.0014551911
0.001496178
0.0014151523
0.0012459306
0.00092320417
0.00047092828
-0.00013059395
-0.00086256585
-0.0017016885
-0.0026035355
-0.00351209
-0.0043661073
-0.0051095192
-0.0057001373
-0.0061160986
-0.0063576023
-0.0064443096
-0.0064106874
-0.0062995564
-0.0061574993
-0.0060319615
-0.0059707014
0.0003937159
0.00017988648
0.00029858413
0.000309996
0.00033639871
0.00040803658
0.00058201529
0.00078537638
0.00099904727
0.0011397344
0.00124353
0.0013438553
0.0014644589
0.0015967266
0.0016641119
0.001675884
0.001539734
0.0013008923
0.00089555964
0.00035024831
-0.00035095792
-0.0011824433
-0.0021108322
-0.0030821704
-0.0040324289
-0.0048970316
-0.0056207158
-0.006166754
-0.0065213449
-0.0066934384
-0.0067108907
-0.006613793
-0.0064488221
-0.0062640015
-0.0061069555
-0.0060248064
0.0004350139
0.00016995672
0.00030305663
0.00030618834
0.00033383789
0.00039693143
0.00056483171
0.00078556402
0.00099538472
0.0011720764
0.0012637023
0.0013850296
0.001533547
0.0016931557
0.0018418489
0.0018833541
0.0018467656
0.0016434486
0.0013236083
0.00082638026
0.00017791783
-0.00063152122
-0.0015666497
-0.0025834127
-0.003617446
-0.0045985368
-0.0054600053
-0.0061500495
-0.0066390967
-0.0069226381
-0.0070190705
-0.0069636694
-0.0068020723
-0.0065835856
-0.0063571278
-0.0061698726
-0.0060678802
0.00047048407
0.00015762125
0.00030531038
0.00030521469
0.00033032333
0.00039424742
0.00054678431
0.00075941429
0.00099980973
0.0011629511
0.0012863328
0.0013980983
0.00157567
0.0017804563
0.0019695941
0.0021041998
0.0020974194
0.0019996513
0.0017181649
0.0013079874
0.00070809367
-5.4828366e-05
-0.00097976036
-0.0020211347
-0.0031223416
-0.0042098236
-0.0052081925
-0.0060514318
-0.0066931898
-0.0071130139
-0.007316713
-0.0073319131
-0.0072013443
-0.0069748019
-0.0067037409
-0.0064371215
-0.006221157
-0.0061004439
0.00049684085
0.00014460016
0.00030744139
0.00030141025
0.00033250079
0.0003883207
0.00053716882
0.00072879762
0.0009735005
0.0011573437
0.0012612083
0.0014084622
0.0015825667
0.0018343312
0.0020902667
0.0022699475
0.0023650855
0.0022960663
0.0021263774
0.0017586775
0.0012469898
0.0005313736
-0.00035715985
-0.0014036807
-0.0025510371
-0.0037298598
-0.0048583157
-0.0058583304
-0.0066667973
-0.007245425
-0.0075843533
-0.0077002011
-0.0076299921
-0.007422579
-0.0071315627
-0.0068093319
-0.0065043287
-0.0062613018
-0.0061230854
0.00051262838
0.00013294859
0.00030913644
0.00029552511
0.00033336744
0.00038710965
0.00052010498
0.00070444667
0.00093946082
0.0011202847
0.0012403584
0.0013725523
0.0015812719
0.0018487816
0.0021743875
0.0024323076
0.0025713038
0.0026129589
0.002471506
0.0022227845
0.0017589021
0.0011315568
0.00028543799
-0.00073879114
-0.0019106884
-0.0031607488
-0.0044066558
-0.0055608092
-0.0065446221
-0.0073010166
-0.0078017533
-0.0080488621
-0.0080701933
-0.007911207
-0.0076265435
-0.0072720735
-0.0069005573
-0.0065591969
-0.0062908612
-0.0061364399
0.00012612423
0.00050273202
0.0003095345
0.0002888008
0.00033492729
0.00038293905
0.00050606337
0.00066801546
0.00090822884
0.0010733491
0.0011879262
0.0013462057
0.0015329316
0.0018525982
0.0022155545
0.002552796
0.0027780133
0.0028614177
0.0028397342
0.0026210558
0.0022848937
0.0017102995
0.00094999089
-4.1211494e-05
-0.0012093516
-0.0025076953
-0.0038529359
-0.0051520841
-0.0063136273
-0.0072619001
-0.0079483684
-0.0083569935
-0.0085025586
-0.008423758
-0.0081741337
-0.0078124458
-0.0073963085
-0.0069777451
-0.0066022544
-0.0063104462
-0.0061411631
0.00031281925
0.00011318927
0.00046660686
0.00028331203
0.00033837731
0.00037722873
0.00048461953
0.0006335239
0.0008602736
0.0010283088
0.0011213315
0.0012792664
0.0015003238
0.0018053607
0.0022426704
0.002626207
0.0029360644
0.0031139431
0.0031307887
0.0030451237
0.0027442069
0.0023056364
0.0016007936
0.00068861242
-0.00046088929
-0.0017784786
-0.0032001561
-0.0046290008
-0.0059637165
-0.0071119461
-0.0080039808
-0.0086027831
-0.0089059971
-0.0089415092
-0.0087585855
-0.0084172951
-0.0079799529
-0.0075043773
-0.0070413346
-0.0066340532
-0.0063206923
-0.0061378799
0.00028669586
0.00030505992
9.6804469e-05
0.00041725071
0.00034587755
0.00037279252
0.00045837833
0.00058898189
0.00081082689
0.0009641682
0.0010598645
0.0011864137
0.0014157043
0.0017770817
0.002204131
0.0026819965
0.0030480726
0.0033099938
0.0034292014
0.0033809876
0.0032307621
0.0028354231
0.002273228
0.0014152177
0.00033242671
-0.00098596991
-0.0024546819
-0.0039920385
-0.005488391
-0.0068375886
-0.0079495095
-0.0087640585
-0.0092579243
-0.0094436585
-0.0093622676
-0.0090723885
-0.0086398991
-0.0081288012
-0.0075965764
-0.0070918385
-0.0066552145
-0.0063222634
-0.0061272262
0.00036462648
0.00028350465
0.0002884061
9.1701409e-05
0.0003610781
0.00037302224
0.00043332724
0.00053729241
0.00074732265
0.00089768238
0.00097855499
0.0011077628
0.0012946397
0.0016765643
0.0021853318
0.0026540125
0.0031362865
0.0034629008
0.0036604158
0.0037276134
0.0036185102
0.0033950909
0.0028830851
0.002170967
0.0011358904
-0.0001339712
-0.0016281021
-0.0032450659
-0.0048849348
-0.0064286201
-0.0077678942
-0.0088190633
-0.0095346904
-0.009907394
-0.0099651961
-0.0097615517
-0.0093636237
-0.0088411498
-0.0082590871
-0.0076732707
-0.0071298161
-0.00666644
-0.0063158527
-0.0061098252
0.00038996504
0.00037854848
0.00027480488
0.00027707282
9.3725152e-05
0.00030531159
0.00041473722
0.00048702258
0.00067168033
0.00081634173
0.00089576289
0.0010063617
0.0011950962
0.0015280471
0.0020689464
0.0026473696
0.0031263724
0.0035825812
0.0038498988
0.0039930691
0.004021751
0.0038473849
0.0035275011
0.0028705829
0.0019784819
0.00074423814
-0.0007256517
-0.0023978654
-0.0041545221
-0.0058786764
-0.0074450068
-0.0087473789
-0.009712282
-0.010308156
-0.010544904
-0.010466066
-0.010136758
-0.009630824
-0.0090208106
-0.0083709025
-0.0077349686
-0.0071560155
-0.0066685155
-0.0063021304
-0.0060862711
0.00041609711
0.0004050372
0.00038694664
0.00027761916
0.00026342069
9.5917981e-05
0.00025361703
0.00044474573
0.00059279392
0.00072228231
0.00080042112
0.00090555261
0.0010704826
0.0014048783
0.0018931695
0.0025193634
0.003136321
0.0035966872
0.0039958582
0.0042167357
0.0043276885
0.0043216028
0.004059253
0.0036117805
0.0027746761
0.0016743614
0.00022219159
-0.0014566879
-0.0033038119
-0.0051856465
-0.006970418
-0.0085309238
-0.0097672196
-0.010620213
-0.011076548
-0.011164387
-0.01094233
-0.010485552
-0.0098731811
-0.0091785172
-0.0084646979
-0.0077824305
-0.0071713468
-0.0066621463
-0.0062816312
-0.0060571091
0.00042830929
0.00041814183
0.0004170347
0.00040451545
0.00028499567
0.00024709637
9.8600078e-05
0.00020514715
0.00051954293
0.00062602877
0.00069397912
0.00079490872
0.00095083948
0.0012499635
0.0017391495
0.002323138
0.0030046336
0.0036249924
0.0040288894
0.0043840203
0.004592068
0.004683056
0.0046225542
0.0042383995
0.0036224575
0.0025700926
0.001236987
-0.00044835787
-0.0023392427
-0.0043522859
-0.0063380765
-0.0081549383
-0.0096776096
-0.010817489
-0.011533326
-0.011832058
-0.011760281
-0.011390476
-0.010806251
-0.010089785
-0.0093144922
-0.0085411087
-0.0078167192
-0.007176538
-0.0066477043
-0.0062547788
-0.0060229125
0.00047468454
0.00041959189
0.00042239562
0.0004437438
0.00042138518
0.00029231277
0.0002301143
0.00010119243
0.00016592487
0.00053880664
0.00059037177
0.00067563497
0.00082592649
0.0011021371
0.0015447761
0.0021351937
0.0027947196
0.0034964719
0.0040702121
0.0044298357
0.0047881178
0.0050069492
0.0050566987
0.004908073
0.0043559663
0.0035306574
0.002232164
0.00064382727
-0.0012842804
-0.0033840896
-0.0055465469
-0.0076088307
-0.0094242245
-0.010874597
-0.011887178
-0.01244193
-0.012567212
-0.012327547
-0.011807637
-0.011097208
-0.010280424
-0.0094293927
-0.0086014127
-0.0078385567
-0.0071716876
-0.0066254207
-0.0062222978
-0.0059844051
0.00048844663
0.00044171302
0.00041808848
0.00044717667
0.00047302075
0.00043518561
0.0002968399
0.00021198302
0.00010631886
0.00013392511
0.00050141091
0.00056297225
0.00069442998
0.0009525687
0.0013539344
0.0018999814
0.00258136
0.0032805699
0.003935344
0.0044763076
0.0048497947
0.005246257
0.0054587596
0.0054343984
0.0051455171
0.004378239
0.003307383
0.0017354625
-0.00012586243
-0.0023004522
-0.0045986307
-0.0068866104
-0.0089916513
-0.010768008
-0.012109748
-0.0129647
-0.013336401
-0.013275083
-0.01286178
-0.012191131
-0.011357509
-0.010445487
-0.0095245562
-0.0086462666
-0.0078476596
-0.0071567508
-0.0065964555
-0.006185607
-0.0059422855
0.0004602079
0.00045798266
0.000424374
0.00044364703
0.00047764894
0.000500385
0.00044344314
0.00029738488
0.00019993839
0.00010649631
0.00011005137
0.00047057406
0.00057655534
0.00079554278
0.0011616262
0.0016593511
0.0023099347
0.0030548852
0.0037101133
0.0043286482
0.0049026012
0.0053364495
0.0057603602
0.0059415853
0.0057797246
0.0052975826
0.0042739893
0.002924472
0.0010547412
-0.0010921593
-0.0035091805
-0.0059871887
-0.0083688722
-0.010477323
-0.012173536
-0.013369742
-0.014038136
-0.014207569
-0.01394933
-0.013358863
-0.012539032
-0.011587179
-0.01058653
-0.0096005101
-0.0086748787
-0.007843603
-0.0071336393
-0.0065636044
-0.0061458322
-0.0058965604
0.00043690889
0.00044903493
0.00045041475
0.00044401062
0.00047892795
0.00050869684
0.00052082957
0.00044482449
0.00030076492
0.00019036685
0.0001067646
9.1451175e-05
0.00048527136
0.00065497375
0.00095829099
0.0014162465
0.0020213078
0.0027636538
0.0034699342
0.0040749454
0.0047488753
0.0054164141
0.0059057517
0.0063335965
0.0064133061
0.006052261
0.0053326257
0.0040129182
0.0023528994
0.00016578752
-0.0022722759
-0.0049199164
-0.0075500257
-0.0099861183
-0.012053291
-0.013626187
-0.014640365
-0.015095778
-0.015046748
-0.014583943
-0.013815496
-0.01285075
-0.011787667
-0.010703785
-0.0096557709
-0.008686285
-0.007829341
-0.0071071768
-0.0065284568
-0.0061012253
-0.0058442118
0.00046549805
0.0004455782
0.00046837528
0.0004874572
0.00047870474
0.00051619042
0.00053365276
0.00053397837
0.00044749447
0.00030089717
0.00018872102
0.00011221647
7.4686468e-05
0.00054526731
0.00077146079
0.0011561245
0.0017273765
0.0024400976
0.0031510129
0.0038099357
0.0044536081
0.0052630311
0.0060358444
0.0065667258
0.0069165026
0.0068266802
0.0062172588
0.0052182583
0.0035629956
0.0015639903
-0.00095458798
-0.0036810532
-0.0065380436
-0.0092830529
-0.011727017
-0.013704299
-0.015109664
-0.015907204
-0.0161262
-0.015845539
-0.015173767
-0.014230138
-0.013127484
-0.011959056
-0.01079481
-0.009688656
-0.0086848487
-0.007812476
-0.0070793986
-0.0064855841
-0.0060457987
-0.0057853247
0.00051917874
0.00050037876
0.00049554089
0.00053964277
0.00054096565
0.00051964232
0.00054677225
0.00055169936
0.00054766276
0.00044494073
0.00030453887
0.00019322918
0.00011415341
6.4060676e-05
0.00061814433
0.00091088429
0.001408489
0.002111093
0.0027895536
0.0034536488
0.0041553549
0.0049352896
0.0058939836
0.0067804894
0.0072625439
0.0074528833
0.0071443913
0.0062396633
0.0049184961
0.0028907054
0.00052834317
-0.002327436
-0.0053296244
-0.0083642313
-0.011177578
-0.013576731
-0.015412473
-0.016606817
-0.017155744
-0.017118098
-0.016596361
-0.015715872
-0.014603453
-0.013368863
-0.012097461
-0.010856994
-0.0097053089
-0.0086817743
-0.0077954925
-0.007039236
-0.006423665
-0.005984274
-0.0057211636
0.00055805881
0.00056147213
0.00058724085
0.00060598194
0.00062941323
0.00059999243
0.00055550043
0.00057012461
0.00057151511
0.00055314503
0.00044789175
0.00031000327
0.00019387423
0.00012470914
4.8529536e-05
0.0007021672
0.001103164
0.0017476864
0.0024270361
0.0030470381
0.0037580877
0.0045984215
0.0055496481
0.006664468
0.0075822791
0.0079260009
0.0079061311
0.0073336789
0.0060807949
0.0043961848
0.0019617838
-0.0007818264
-0.0039708894
-0.007224696
-0.010393778
-0.01322023
-0.01551652
-0.017158184
-0.018099864
-0.018371306
-0.018060856
-0.017294318
-0.016210112
-0.014934309
-0.013569284
-0.012199045
-0.010898641
-0.0097215159
-0.0086800042
-0.0077594499
-0.0069677303
-0.0063560343
-0.0059170788
-0.0056517664
0.00059584076
0.00057738818
0.00066809851
0.00074211153
0.00073683409
0.00072497115
0.00065201093
0.00058647108
0.00059625458
0.00058348519
0.00056456239
0.00045213721
0.00030905703
0.00020349433
0.00012221338
4.1924649e-05
0.00083739489
0.0013924586
0.0020261202
0.0026495895
0.0033004412
0.0041589211
0.0051796868
0.0063203317
0.0075175167
0.0083764686
0.008530525
0.0082414021
0.0073548595
0.0057011554
0.0036100969
0.00074206189
-0.0023930757
-0.0058984001
-0.0093669698
-0.012616103
-0.015392497
-0.017524859
-0.018920384
-0.019570328
-0.019539573
-0.018946927
-0.017938035
-0.016654237
-0.015214977
-0.013723181
-0.012274688
-0.010941333
-0.0097407329
-0.0086501065
-0.0076752162
-0.0068907882
-0.0062822861
-0.0058444006
-0.0055771281
0.00068469485
0.00058270237
0.00067714832
0.00085222697
0.00091671333
0.00087352598
0.00081063199
0.00069817487
0.00062266457
0.00061330528
0.00060685819
0.00057655867
0.00044723422
0.00031688914
0.0002002978
0.00012660964
3.0790471e-05
0.0010737496
0.0016354628
0.0022164941
0.0028608808
0.0036479794
0.0047050655
0.0059268085
0.0072036423
0.0083814384
0.0091227108
0.0090373459
0.0084196654
0.0071653421
0.0050568019
0.0025220111
-0.00080091773
-0.0043264105
-0.0081182984
-0.011750732
-0.015014829
-0.01767206
-0.019577712
-0.02067651
-0.020999579
-0.020649624
-0.019773143
-0.018523801
-0.01703745
-0.015437517
-0.013844442
-0.012353233
-0.010989053
-0.0097199061
-0.0085498067
-0.0075857344
-0.006807041
-0.0062029328
-0.0057662136
-0.0054972922
0.00087286617
0.00064053169
0.00066966677
0.00086939617
0.0010577716
0.0010929112
0.00099588384
0.00088630755
0.00074895401
0.00065173434
0.00064395769
0.00063209348
0.00057552359
0.00044977515
0.00030924639
0.00020298842
0.0001211831
2.640777e-05
0.0012858645
0.0018017681
0.0023951272
0.0031588783
0.004143923
0.0054261433
0.0067905541
0.0081322195
0.0092403706
0.009793885
0.0094095421
0.0083944205
0.0067188289
0.0041018091
0.0010915027
-0.0026979012
-0.0065979288
-0.010631984
-0.014363187
-0.017567556
-0.020032475
-0.021648441
-0.022403093
-0.022372509
-0.021695806
-0.020533822
-0.019036995
-0.017349015
-0.01561926
-0.013970905
-0.012439245
-0.010981366
-0.0096000227
-0.0084442817
-0.0074884814
-0.006717634
-0.0061179203
-0.0056825627
-0.0054122978
0.0010666464
0.00079500635
0.00071530258
0.00086439303
0.0010908902
0.0012651897
0.0012465518
0.0011041305
0.00096321992
0.00079269677
0.00069787819
0.00067414902
0.0006407866
0.00057846176
0.00043413592
0.00030861678
0.00019558185
0.00011691153
1.9399801e-05
0.0014395747
0.0019590858
0.002654657
0.0036104253
0.0048134094
0.0062786716
0.0077293258
0.0090901214
0.010058995
0.010346177
0.0095996236
0.0081149678
0.0059625635
0.0027882415
-0.00072245967
-0.0049735486
-0.0092173516
-0.013432612
-0.017184296
-0.020246597
-0.022443332
-0.023708313
-0.02408003
-0.023680253
-0.022669859
-0.021209647
-0.019462574
-0.017610015
-0.015809045
-0.014107786
-0.012450175
-0.010838175
-0.0094745666
-0.0083297549
-0.007385618
-0.0066223713
-0.0060272748
-0.0055935171
-0.0053222275
0.0012261691
0.00098648104
0.00085281154
0.00091325026
0.001099248
0.001320482
0.0014447041
0.0013808013
0.0012135382
0.00103071
0.00085358971
0.00073839432
0.00068691003
0.00065250733
0.00055739659
0.00042699125
0.00029577444
0.00018979098
0.00011249228
1.4148497e-05
0.001593419
0.0021943595
0.003074641
0.00423121
0.0056162253
0.0072281342
0.0087227871
0.010060092
0.01078594
0.010725216
0.0095544684
0.0075253551
0.0048425053
0.0010680246
-0.0029581306
-0.0076487792
-0.012186086
-0.016504881
-0.020186568
-0.023018464
-0.02487054
-0.025731489
-0.025694446
-0.024911266
-0.023546667
-0.021779961
-0.01982617
-0.017882602
-0.016012874
-0.014144803
-0.012279781
-0.010688476
-0.0093386406
-0.0082096646
-0.0072766823
-0.0065213378
-0.0059310954
-0.0054991995
-0.0052271544
0.0014007699
0.0011756626
0.0010616393
0.0010546259
0.0011621659
0.0013500714
0.0015235601
0.0016034471
0.0015163271
0.0013081083
0.0011151297
0.00090037973
0.00075842291
0.00070667289
0.00063577575
0.00054486152
0.00040604805
0.00028517123
0.00018175678
0.0001011792
1.111676e-05
0.0018227937
0.0025979477
0.0036514659
0.0049791298
0.0065226024
0.0082522373
0.009764934
0.010995411
0.011379651
0.010877355
0.0092122517
0.0065636586
0.0033015276
-0.0011085826
-0.0056497073
-0.010735017
-0.0154951
-0.019823574
-0.023334047
-0.025843727
-0.027281914
-0.02770028
-0.027230796
-0.026033382
-0.024298368
-0.022274723
-0.020205954
-0.018173796
-0.016085966
-0.013943221
-0.012101121
-0.010526546
-0.0091972113
-0.0080833209
-0.0071618563
-0.0064146182
-0.0058295381
-0.0053997562
-0.0051271435
0.0016504442
0.001394334
0.0012976991
0.0012968339
0.0013201943
0.001436066
0.0015769651
0.0017105021
0.00176569
0.0016241008
0.0014142132
0.0011737343
0.00091699751
0.00078931361
0.00069915191
0.00062703494
0.00051691161
0.00038722459
0.00027178871
0.00016777369
9.634402e-05
3.7914356e-06
0.002224948
0.0031438671
0.0043420524
0.0058323176
0.0075154341
0.0093593902
0.010809843
0.011849699
0.011776595
0.010736279
0.0085112544
0.005167357
0.0012821732
-0.0037861144
-0.0088212313
-0.014233445
-0.019123735
-0.023352587
-0.02658311
-0.0286836
-0.029654187
-0.02959443
-0.028648494
-0.027009504
-0.024959221
-0.022791829
-0.0206102
-0.01829621
-0.015849289
-0.013730473
-0.011908073
-0.010359191
-0.0090493315
-0.0079509525
-0.0070411892
-0.0063024787
-0.0057228291
-0.0052952188
-0.0050222601
0.0020698664
0.0016893175
0.0015775015
0.0015901609
0.0016020849
0.0016194884
0.0016897931
0.0017960658
0.0019056879
0.001888692
0.0017404345
0.0014869477
0.0011875633
0.00094936234
0.00079347217
0.00069806782
0.00060140905
0.00049098251
0.00036560294
0.00025026768
0.00015888148
8.0642443e-05
1.9650372e-06
0.0027580666
0.0037826659
0.0051288643
0.0067833586
0.0086193696
0.010519686
0.011812475
0.012579634
0.011908092
0.010233338
0.0073826139
0.0032662385
-0.0012765583
-0.0070025581
-0.012487722
-0.018132536
-0.023037634
-0.027044121
-0.029888167
-0.031508519
-0.031961691
-0.031363532
-0.029898734
-0.027877977
-0.025650119
-0.023341109
-0.02079928
-0.018020883
-0.015597002
-0.013500661
-0.011709671
-0.010185149
-0.0088952616
-0.0078126206
-0.0069150818
-0.0061851965
-0.0056108527
-0.0051855596
-0.0049127318
0.0026123619
0.0021493853
0.0019365892
0.0019411183
0.0019574329
0.0019424398
0.0019024647
0.0019466875
0.0020254377
0.002052973
0.0020185211
0.0018187277
0.0014978323
0.0012180875
0.00095359086
0.00080345962
0.00067882745
0.00057452728
0.00046232584
0.00033520642
0.00023519618
0.0001379438
7.5654649e-05
-7.149954e-06
0.003354811
0.0045054912
0.0060217082
0.0078637476
0.0098259094
0.011683431
0.01273993
0.013125351
0.011701104
0.0092982674
0.0057485742
0.00078482467
-0.0044338964
-0.010788677
-0.016649616
-0.022404007
-0.027187205
-0.030846275
-0.033213101
-0.034286728
-0.034142761
-0.032944205
-0.031023281
-0.02878678
-0.026383844
-0.023619317
-0.020482533
-0.017723396
-0.015324295
-0.013265514
-0.011504273
-0.010004706
-0.0087350841
-0.0076688454
-0.0067838545
-0.0060624683
-0.0054933303
-0.0050712488
-0.0047986897
0.0031828787
0.0027175977
0.0024505151
0.0023760545
0.0023822487
0.0023591357
0.0022678459
0.0022050056
0.0022145196
0.0022017344
0.0022090069
0.0021086817
0.0018214089
0.0015272226
0.0012100173
0.00096361813
0.00078896045
0.0006559289
0.00054485882
0.00042337062
0.00031197955
0.00020541516
0.00012622614
5.8650811e-05
-8.9040626e-06
0.0040128753
0.0053408198
0.0070529847
0.0090913344
0.011087415
0.012817822
0.013534367
0.013400398
0.011083558
0.007840927
0.0035215973
-0.0023555298
-0.0082426507
-0.015158374
-0.021286976
-0.027000008
-0.031514908
-0.034716016
-0.036519539
-0.036943941
-0.036116303
-0.034380401
-0.032202028
-0.029752676
-0.026779919
-0.023259775
-0.020134217
-0.017401283
-0.015046143
-0.013022936
-0.011292177
-0.0098179371
-0.0085694743
-0.007519963
-0.0066469433
-0.0059335949
-0.0053711088
-0.0049524711
-0.0046803019
0.0037923604
0.003286165
0.0030574124
0.0029540781
0.0028916719
0.0028545076
0.0027442254
0.0026242579
0.0025119311
0.0024290311
0.0023925367
0.0023242675
0.0021140974
0.0018411881
0.0015041521
0.001204025
0.00094763078
0.00076487689
0.00062871099
0.00050160102
0.00039266548
0.00027270933
0.00018591873
0.00010082979
5.068106e-05
-1.7899681e-05
0.004778121
0.0063189168
0.00826542
0.010419482
0.012368139
0.013881332
0.014121865
0.013342421
0.0099741762
0.0057548663
0.00060665688
-0.0062279567
-0.012739484
-0.0201012
-0.026353478
-0.031860303
-0.03597051
-0.038607558
-0.039719241
-0.039378053
-0.037926648
-0.035889155
-0.033457511
-0.030303225
-0.026378377
-0.022855398
-0.019756001
-0.017073361
-0.014759914
-0.01277322
-0.011073431
-0.0096257172
-0.0083987675
-0.0073650253
-0.0065030754
-0.0058000085
-0.0052444121
-0.0048294905
-0.004557714