/*--------------------------------*- C++ -*----------------------------------*\
| =========                 |                                                 |
| \\      /  F ield         | OpenFOAM: The Open Source CFD Toolbox           |
|  \\    /   O peration     | Version:  5.0                                   |
|   \\  /    A nd           | Web:      www.OpenFOAM.org                      |
|    \\/     M anipulation  |                                                 |
\*---------------------------------------------------------------------------*/
FoamFile
{
    version     2.0;
    format      ascii;
    class       volScalarField;
    location    "80";
    object      pPrime2Mean;
}
// * * * * * * * * * * * * * * * * * * * * * * * * * * * * * * * * * * * * * //

dimensions      [0 4 -4 0 0 0 0];

internalField   nonuniform List<scalar> 
9520
(
6.899335e-07
6.3630501e-07
4.7084337e-06
5.4613734e-07
4.3426732e-06
1.2743932e-05
4.3726899e-07
3.7272535e-06
1.1757744e-05
2.5157199e-05
3.2534323e-07
2.9833844e-06
1.0097551e-05
2.3220617e-05
4.2617494e-05
2.2236779e-07
2.2174938e-06
8.0892816e-06
1.9957971e-05
3.9359486e-05
6.6052234e-05
1.3635282e-07
1.5114108e-06
6.0194668e-06
1.6006858e-05
3.3865543e-05
6.1045339e-05
9.663756e-05
7.1643142e-08
9.1990986e-07
4.1089386e-06
1.1928724e-05
2.7202896e-05
5.2592813e-05
8.9385594e-05
0.0001357808
2.9593397e-08
4.7287204e-07
2.5060469e-06
8.1576931e-06
2.0313425e-05
4.2324604e-05
7.7127043e-05
0.00012570942
0.00018511461
9.4144798e-09
1.7979728e-07
1.2922078e-06
4.9870396e-06
1.3928459e-05
3.1683019e-05
6.2205272e-05
0.00010865967
0.00017156484
0.00024648319
8.8860245e-09
3.5153849e-08
4.941449e-07
2.5794997e-06
8.545402e-06
2.1793672e-05
4.6700266e-05
8.785805e-05
0.00014858828
0.00022870835
0.00032192794
2.5032819e-08
2.3649226e-08
9.7985232e-08
9.9010368e-07
4.4436621e-06
1.3428402e-05
3.2244898e-05
6.6178395e-05
0.00012048332
0.00019851177
0.00029909424
0.00041366466
5.4735208e-08
1.2454567e-07
6.2952207e-08
1.9371751e-07
1.7217749e-06
7.0271419e-06
1.9969489e-05
4.5891937e-05
9.1093181e-05
0.00016146981
0.00026022539
0.00038485617
0.00052405547
9.4778413e-08
3.1503554e-07
3.3315977e-07
1.1190911e-07
3.4272345e-07
2.7526252e-06
1.0529473e-05
2.8587826e-05
6.3477964e-05
0.00012258923
0.00021239645
0.0003357099
0.00048828337
0.00065557245
1.4300053e-07
5.7246557e-07
8.4701237e-07
6.3593705e-07
1.7796895e-07
5.5761405e-07
4.1798519e-06
1.5205205e-05
3.9804406e-05
8.5889338e-05
0.00016198826
0.0002750301
0.00042711491
0.00061178927
0.00081075554
1.9650833e-07
8.7671698e-07
1.5433183e-06
1.6448188e-06
1.0464579e-06
2.5148386e-07
8.6885763e-07
6.129182e-06
2.1379457e-05
5.4253054e-05
0.00011416865
0.00021079487
0.00035131794
0.00053673615
0.00075787363
0.00099216309
2.5456297e-07
1.2092984e-06
2.3667803e-06
3.0182586e-06
2.7449139e-06
1.559734e-06
3.3286096e-07
1.3152544e-06
8.7687719e-06
2.9457869e-05
7.2696312e-05
0.00014952695
0.00027069829
0.00044337523
0.00066698533
0.00092907774
0.0012023194
3.1463128e-07
1.556629e-06
3.2678386e-06
4.6459254e-06
5.0704432e-06
4.1706781e-06
2.1810222e-06
4.1793207e-07
1.9555088e-06
1.2316161e-05
3.9943041e-05
9.6041342e-05
0.0001933536
0.00034357106
0.00055346559
0.00082035367
0.0011279354
0.001443658
3.7706401e-07
1.9062424e-06
4.207723e-06
6.4303585e-06
7.8349027e-06
7.7708523e-06
5.9636153e-06
2.9060028e-06
5.0700183e-07
2.870177e-06
1.7052715e-05
5.3450716e-05
0.00012535547
0.00024722462
0.00043146099
0.00068397561
0.00099936936
0.0013569192
0.0017184685
4.405745e-07
2.2504836e-06
5.153832e-06
8.2926359e-06
1.0873336e-05
1.2067379e-05
1.1223797e-05
8.1582097e-06
3.7276893e-06
6.0137334e-07
4.1726848e-06
2.3337167e-05
7.0727909e-05
0.00016188163
0.00031290621
0.00053657859
0.00083738206
0.0012065501
0.0016183845
0.0020288418
5.0496707e-07
2.5829158e-06
6.0822024e-06
1.016836e-05
1.4048639e-05
1.6802843e-05
1.7531651e-05
1.5536113e-05
1.0788349e-05
4.6278836e-06
7.0996061e-07
6.0183778e-06
3.1623398e-05
9.2672228e-05
0.00020705177
0.00039235524
0.00066127661
0.0010162138
0.0014443505
0.00191452
0.0023766175
5.6880895e-07
2.9000774e-06
6.9774137e-06
1.2009024e-05
1.7251047e-05
2.1760476e-05
2.4506674e-05
2.4434168e-05
2.0825389e-05
1.3873481e-05
5.5787247e-06
8.5233676e-07
8.6187833e-06
4.247982e-05
0.00012035208
0.00026249893
0.00048771247
0.00080802422
0.0012230073
0.0017151067
0.0022472932
0.0027633346
6.295721e-07
3.2010006e-06
7.8265344e-06
1.3783113e-05
2.0396209e-05
2.6767831e-05
3.1826431e-05
3.4312145e-05
3.3011695e-05
2.7200055e-05
1.7415683e-05
6.5391416e-06
1.0671185e-06
1.2257139e-05
5.6611805e-05
0.00015502682
0.00033006362
0.00060129119
0.00097937299
0.0014602508
0.0020209935
0.0026183988
0.0031901939
6.8619707e-07
3.4839481e-06
8.62767e-06
1.5465319e-05
2.342659e-05
3.1690303e-05
3.9232627e-05
4.4709453e-05
4.6602458e-05
4.3505423e-05
3.4754388e-05
2.1390473e-05
7.4566485e-06
1.4208739e-06
1.7308828e-05
7.4885841e-05
0.00019816409
0.0004117974
0.00073555698
0.0011779168
0.0017303427
0.002363965
0.0030292174
0.0036580256
7.3236661e-07
3.7552529e-06
9.3751673e-06
1.7047752e-05
2.6298686e-05
3.6434607e-05
4.6522596e-05
5.5253242e-05
6.0957944e-05
6.1787024e-05
5.6156012e-05
4.3554371e-05
2.5742216e-05
8.2682536e-06
2.0225709e-06
2.4264708e-05
9.8353772e-05
0.00025145693
0.00050995871
0.00089310103
0.0014062366
0.0020355392
0.0027457084
0.0034807781
0.0041672688
7.6883999e-07
4.0101847e-06
1.0077591e-05
1.8521278e-05
2.8995407e-05
4.0930939e-05
5.3553491e-05
6.565003e-05
7.5555591e-05
8.1176462e-05
8.0297178e-05
7.1185717e-05
5.3627495e-05
3.0376002e-05
8.906124e-06
3.0420042e-06
3.3757243e-05
0.0001282797
0.00031683508
0.0006270025
0.0010766055
0.001666865
0.0023778994
0.0031675992
0.0039737337
0.004717959
7.9302785e-07
4.2673105e-06
1.0731498e-05
1.9895253e-05
3.1501109e-05
4.5148794e-05
6.0218796e-05
7.568915e-05
8.9981442e-05
0.00010095758
0.00010602035
0.00010256656
8.8785194e-05
6.4947307e-05
3.5153194e-05
9.3058662e-06
4.7316891e-06
4.6591237e-05
0.00016616378
0.00039647252
0.00076556107
0.0012887892
0.0019622314
0.0027592341
0.0036306678
0.0045083405
0.0053097275
8.0924672e-07
4.5148073e-06
1.1356238e-05
2.11678e-05
3.3828896e-05
4.9062179e-05
6.646708e-05
8.521547e-05
0.00010393427
0.00012055878
0.00013236249
0.00013617787
0.00012901794
0.00010909265
7.7418628e-05
3.9887046e-05
9.4196529e-06
7.4545365e-06
6.3775014e-05
0.00021376607
0.0004927862
0.00092841604
0.0015323779
0.0022946037
0.0031810617
0.0041355688
0.0050844533
0.0059418098
8.2522382e-07
4.7669388e-06
1.1942082e-05
2.2363259e-05
3.5978212e-05
5.2684705e-05
7.2258199e-05
9.4146889e-05
0.00011719084
0.00013955825
0.00015854772
0.00017074346
0.00017235927
0.00016004039
0.0001321698
9.0859103e-05
4.4343778e-05
9.2357606e-06
1.1717029e-05
8.6556679e-05
0.00027312369
0.00060842846
0.0011184504
0.001810046
0.0026660365
0.0036445652
0.004682565
0.0057015264
0.0066130619
8.5698227e-07
5.0152461e-06
1.2516034e-05
2.3471924e-05
3.7987809e-05
5.601589e-05
7.7605524e-05
0.00010242601
0.00012962704
0.00015764129
0.00018399786
0.00020522348
0.00021713756
0.00021527731
0.00019595788
0.00015797053
0.00010498635
4.8247775e-05
8.8056146e-06
1.8208725e-05
0.00011645533
0.00034656482
0.00074626708
0.0013386181
0.0021243593
0.0030783159
0.0041505632
0.0052715174
0.006358625
0.0073219869
9.026202e-07
5.2312495e-06
1.3068958e-05
2.453466e-05
3.98459e-05
5.9109827e-05
8.2506648e-05
0.00011006075
0.00014115722
0.00017462558
0.00020827953
0.00023883732
0.00026197661
0.00027263759
0.0002656106
0.00023698732
0.00018631253
0.00011940609
5.1296238e-05
8.2778097e-06
2.7844328e-05
0.00015529653
0.00043671191
0.00090934881
0.0015918917
0.0024777126
0.0035329162
0.0046994834
0.0059018857
0.0070544459
0.0080667662
9.608581e-07
5.414022e-06
1.3565788e-05
2.5539055e-05
4.1621132e-05
6.195348e-05
8.7030065e-05
0.00011705231
0.00015178039
0.00019038257
0.00023113233
0.00027099262
0.00030582871
0.00033031994
0.00033835251
0.00032395292
0.00028319569
0.00021684731
0.00013360894
5.3181399e-05
7.9427923e-06
4.1811704e-05
0.00020523748
0.00054647696
0.0011008665
0.0018811981
0.0028722734
0.0040309562
0.0052913489
0.0065727389
0.007787345
0.0088452969
1.0322047e-06
5.5440532e-06
1.3969825e-05
2.6431863e-05
4.3262083e-05
6.4651035e-05
9.1167209e-05
0.00012347929
0.00016149841
0.00020489799
0.00025237782
0.00030132523
0.00034788898
0.00038692903
0.00041185168
0.00041534974
0.00039075923
0.00033445293
0.00024903784
0.00014697294
5.362558e-05
8.285298e-06
6.161789e-05
0.00026879099
0.00067903831
0.0013241153
0.002209356
0.0033099232
0.0045731681
0.0059257731
0.0072827737
0.0085553708
0.0096552328
1.12102e-06
5.6497038e-06
1.4246498e-05
2.7105888e-05
4.4706736e-05
6.7138106e-05
9.5049356e-05
0.00012935341
0.00017039638
0.00021816468
0.0002719864
0.00032958782
0.00038764995
0.00044138138
0.00048426526
0.00050818869
0.00050459295
0.00046628427
0.00039038939
0.00028213968
0.00015878282
5.2428153e-05
1.0041768e-05
8.9137621e-05
0.00034883419
0.00083780761
0.0015824293
0.0025790063
0.0037922071
0.0051598718
0.0066019654
0.0080303408
0.0093563028
0.010494027
1.2215673e-06
5.7088446e-06
1.4455812e-05
2.750321e-05
4.5784114e-05
6.9297843e-05
9.8618251e-05
0.00013483018
0.00017850957
0.00023027888
0.0002899463
0.00035572537
0.0004247595
0.00049296998
0.00055415262
0.00060005875
0.00062090157
0.00060687253
0.0005505215
0.00045035553
0.00031519284
0.00016825952
4.9522579e-05
1.4266291e-05
0.00012665325
0.00044860924
0.0010264022
0.0018791107
0.0029925459
0.0043202869
0.0057909632
0.0073187439
0.0088134779
0.010187694
0.011358978
1.3168621e-06
5.7069916e-06
1.4575624e-05
2.7796563e-05
4.6414304e-05
7.0871154e-05
0.00010172422
0.0001397966
0.00018601011
0.00024129765
0.00030639988
0.00037972489
0.00045911412
0.00054119676
0.00062054052
0.00068906174
0.00073655988
0.00075144192
0.00072272904
0.00064314291
0.0005133847
0.00034702572
0.00017460238
4.504959e-05
2.23973e-05
0.00017689128
0.00057169368
0.0012485801
0.0022173553
0.0034520607
0.0048949076
0.0064659086
0.0080745594
0.0096299474
0.011046912
0.012247268
1.3833803e-06
5.6416495e-06
1.4593282e-05
2.7989257e-05
4.689414e-05
7.1746376e-05
0.00010392336
0.00014409923
0.00019279258
0.00025141744
0.00032139723
0.00040176499
0.00049067523
0.00058587564
0.00068273328
0.00077387263
0.00084909062
0.00089598315
0.00090105485
0.00085237559
0.00074343682
0.00057816564
0.00037627448
0.00017705479
3.9436127e-05
3.632714e-05
0.00024304235
0.00072199067
0.0015081695
0.0026001716
0.0039592687
0.0055163673
0.0071837538
0.0088675249
0.010477277
0.011931185
0.013156011
1.4085374e-06
5.5268312e-06
1.4513786e-05
2.8066794e-05
4.7232145e-05
7.2407737e-05
0.00010505499
0.00014703299
0.00019867842
0.00026058095
0.00033520081
0.00042187917
0.00051966176
0.00062692655
0.00074042933
0.00085353253
0.00095669983
0.0010372864
0.0010804081
0.001070692
0.00099561604
0.00085024509
0.0006430266
0.00040141963
0.00017498174
3.3492118e-05
5.8463634e-05
0.00032875913
0.00090367098
0.0018089859
0.0030303031
0.0045154639
0.0061845067
0.0079431392
0.0096954513
0.011352804
0.012837644
0.014082289
1.4082974e-06
5.3924966e-06
1.4353542e-05
2.8030092e-05
4.7401493e-05
7.2889316e-05
0.00010589587
0.00014841813
0.00020254822
0.00026859498
0.00034777718
0.0004404787
0.0005461835
0.00066455726
0.00079347464
0.0009275741
0.0010580778
0.0011729524
0.0012566595
0.0012916898
0.001260918
0.0011517544
0.00096190856
0.00070593329
0.00042084801
0.00016797496
2.8504865e-05
9.1784444e-05
0.00043815142
0.0011211069
0.002154743
0.0035101484
0.005121479
0.0068987022
0.0087423261
0.010555889
0.012253719
0.013763366
0.015023189
1.4029497e-06
5.2852214e-06
1.414219e-05
2.789315e-05
4.7394199e-05
7.3155739e-05
0.00010651847
0.00014941393
0.0002042478
0.00027366999
0.00035886284
0.00045731885
0.0005706944
0.00069892498
0.000842047
0.00099573247
0.0011525177
0.0013012109
0.0014266339
0.0015100921
0.0015313629
0.0014717994
0.0013195004
0.001076217
0.00076451392
0.00043294272
0.00015596789
2.6342844e-05
0.00013986883
0.00057575776
0.0013787856
0.0025489549
0.0040416929
0.0057776506
0.0076578766
0.0095792301
0.011446169
0.013177111
0.014705408
0.015975836
5.2548514e-06
1.4000063e-06
1.3936576e-05
2.7685448e-05
4.7226629e-05
7.3196302e-05
0.00010687966
0.00015016576
0.00020543002
0.00027573443
0.0003656745
0.00047208457
0.00059289311
0.00073056992
0.00088636804
0.0010581538
0.0012395881
0.0014210289
0.0015879671
0.0017217391
0.0018002523
0.0018005286
0.0017027768
0.001496869
0.0011903829
0.00081611573
0.00043620054
0.00013937481
2.9545316e-05
0.00020691022
0.00074648407
0.0016812091
0.0029948414
0.0046264437
0.0064838062
0.0084605166
0.010451461
0.012363454
0.014120006
0.015660847
0.016937421
1.3817264e-05
5.3198526e-06
1.4022582e-06
2.7464685e-05
4.6932707e-05
7.3033716e-05
0.00010698656
0.00015063607
0.00020632392
0.00027716498
0.00036836932
0.00048091315
0.00061229627
0.00075921776
0.00092700367
0.0011150513
0.0013193665
0.0015317476
0.0017391891
0.0019234976
0.0020621856
0.0021294998
0.0020997005
0.0019525175
0.0016810894
0.0013010416
0.00085789174
0.00042938111
0.00011923047
4.1406449e-05
0.00029772353
0.00095551983
0.0020327834
0.0034952317
0.0052653827
0.0072392564
0.0093047035
0.011356365
0.013304778
0.015079411
0.016626809
0.017905227
2.7324795e-05
1.3840156e-05
5.4593077e-06
1.3899279e-06
4.6582668e-05
7.2711023e-05
0.00010688708
0.00015084419
0.00020688597
0.00027829804
0.0003701679
0.00048443126
0.00062359903
0.00078420578
0.00096372847
0.0011670139
0.0013920091
0.001633336
0.0018793364
0.0021133162
0.0023130329
0.0024517608
0.002499727
0.0024286169
0.0022187561
0.0018685379
0.0014042881
0.00088693835
0.00041167835
9.7340154e-05
6.6018094e-05
0.00041769953
0.0012082321
0.0024376983
0.0040524794
0.0059589273
0.0080428092
0.010188149
0.012291077
0.014267092
0.016052348
0.017600496
0.018876648
4.6304446e-05
2.7322582e-05
1.3997524e-05
5.6288239e-06
1.3457417e-06
7.2304949e-05
0.00010663458
0.00015085349
0.00020715036
0.00027906442
0.00037166575
0.00048659446
0.00062807782
0.00079828918
0.00099566549
0.001213846
0.001458155
0.001725867
0.0020082258
0.0022898232
0.0025499635
0.0027618898
0.0028939879
0.0029121334
0.002786022
0.0024981541
0.0020547061
0.0014957644
0.00090046887
0.00038292301
7.6413443e-05
0.00010831944
0.00057273304
0.0015100396
0.0028998081
0.0046683847
0.0067069142
0.0088927879
0.011108242
0.013252562
0.015247312
0.017035885
0.018579214
0.019849209
7.1974374e-05
4.6198871e-05
2.7451684e-05
1.4234801e-05
5.7846291e-06
1.2639382e-06
0.00010630448
0.00015072171
0.00020720584
0.00027950391
0.00037269616
0.00048852059
0.00063064142
0.00080363026
0.0010128384
0.0012545185
0.0015177509
0.0018100729
0.0021258216
0.0024526139
0.0027710481
0.0030560135
0.003275415
0.003391865
0.0033669499
0.0031694478
0.0027861847
0.0022342096
0.0015707991
0.00089603514
0.0003437897
6.0178283e-05
0.00017408617
0.0007691177
0.0018662706
0.0034225121
0.0053441365
0.0075085907
0.0097870685
0.012062094
0.014237669
0.01624235
0.018027169
0.019560385
0.020820572
0.00010607882
7.1841252e-05
4.6285389e-05
2.7653925e-05
1.4481306e-05
5.8933764e-06
1.1637706e-06
0.0001505221
0.00020714291
0.00027969832
0.00037327425
0.00048985802
0.00063304111
0.00080634297
0.0010189229
0.0012751955
0.0015693443
0.0018860172
0.0022329919
0.0026015358
0.0029755628
0.0033314124
0.0036387621
0.003858679
0.0039475337
0.0038631669
0.0035750213
0.0030770481
0.0024008509
0.0016246124
0.00087178371
0.00029601115
5.3467107e-05
0.00026988419
0.0010134084
0.0022820113
0.0040086491
0.0060802659
0.0083626313
0.01072312
0.013046597
0.015243178
0.017249156
0.019023447
0.020541568
0.021788553
0.00015044965
0.00010608719
7.1923231e-05
4.648622e-05
2.7857432e-05
1.4681305e-05
5.9293278e-06
1.0707206e-06
0.00020707473
0.00027973411
0.00037345758
0.00049060909
0.00063470193
0.00080914266
0.0010213473
0.0012821171
0.0015940629
0.0019517769
0.002329806
0.002737536
0.0031631868
0.0035868413
0.0039802364
0.0043055744
0.0045160863
0.0045619721
0.004398257
0.0039972726
0.0033636263
0.0025477644
0.0016525824
0.00082675062
0.00024257348
6.2274195e-05
0.00040297236
0.0013122565
0.0027619525
0.0046604011
0.0068766255
0.0092671599
0.011698057
0.014058471
0.01626584
0.018264748
0.020022088
0.02152047
0.022751125
0.00020723752
0.0001506188
0.00010632502
7.2134668e-05
4.6701455e-05
2.8009833e-05
1.4796562e-05
5.881681e-06
9.9844567e-07
0.00027972702
0.00037332673
0.000490791
0.00063561642
0.00081117848
0.0010242491
0.0012838322
0.0016016351
0.0019817005
0.0024139855
0.0028607083
0.0033349585
0.0038216446
0.0042978407
0.0047273552
0.0050633847
0.0052510538
0.00523467
0.0049678951
0.0044289619
0.0036375177
0.002667635
0.0016505758
0.00076116558
0.00018787547
9.3745561e-05
0.00058116195
0.0016722252
0.0033102389
0.0053792207
0.0077323816
0.010219794
0.012708698
0.015094322
0.017302424
0.019286239
0.021020596
0.02249495
0.023706417
0.00027993804
0.00020771942
0.00015100842
0.00010667313
7.2344197e-05
4.686707e-05
2.8069248e-05
1.4797649e-05
5.7717033e-06
9.4247984e-07
0.00037301847
0.00049048911
0.00063573914
0.00081243365
0.0010265448
0.0012866143
0.001602357
0.0019865061
0.0024510802
0.0029683062
0.0034910133
0.0040367938
0.0045903735
0.0051209899
0.0055824011
0.0059184032
0.0060656853
0.0059632597
0.005565647
0.0048609742
0.0038891562
0.0027530165
0.0016153292
0.00067675965
0.00013786823
0.00015611002
0.00081263176
0.0020995901
0.0039303336
0.0061657765
0.0086460336
0.011217694
0.013751622
0.016150691
0.018349749
0.020310861
0.022016629
0.02346303
0.024652725
0.00037286615
0.00028043737
0.00020843045
0.00015149888
0.00010695638
7.2473849e-05
4.6920538e-05
2.8004906e-05
1.4678192e-05
5.6379113e-06
8.9792883e-07
0.00048985361
0.00063516638
0.00081279732
0.0010282126
0.0012890588
0.0016049285
0.0019861569
0.0024515172
0.003015513
0.0036281986
0.0042325774
0.0048585276
0.0054844876
0.0060687069
0.0065546311
0.0068758254
0.0069603409
0.0067431126
0.006182716
0.0052822874
0.0041080462
0.0027967329
0.0015448785
0.00057703456
0.00010011071
0.00025854509
0.0011057059
0.0026001393
0.0046248984
0.0070199277
0.0096154451
0.012257627
0.014823228
0.017224102
0.019404717
0.021335984
0.023008002
0.024422895
0.025588505
0.0004892937
0.00037293423
0.00028114476
0.00020920467
0.0001518748
0.00010709396
7.2450101e-05
4.6810919e-05
2.7815808e-05
1.4459921e-05
5.4901719e-06
8.6316745e-07
0.00063410051
0.0008123772
0.0010290965
0.0012911707
0.0016074561
0.0019888122
0.0024495703
0.003015007
0.0036887198
0.004404574
0.0051025656
0.0058180885
0.0065191941
0.0071534434
0.0076527005
0.0079394051
0.0079331611
0.0075668922
0.0068077137
0.0056800549
0.0042831104
0.0027923819
0.001439006
0.00046750742
8.3752802e-05
0.00041097869
0.0014686042
0.0031789786
0.0053957051
0.0079407209
0.010637896
0.013336024
0.015919797
0.018311105
0.020464348
0.022359133
0.023992697
0.025372893
0.026557212
0.00063302893
0.00048880705
0.00037321861
0.00028191598
0.00020976981
0.00015203661
0.00010700534
7.2219188e-05
4.6528063e-05
2.7529711e-05
1.4163943e-05
5.2859817e-06
8.4037124e-07
0.0008113637
0.0010293269
0.0012927819
0.0016099669
0.0019915732
0.0024526898
0.0030117582
0.0036882543
0.0044812137
0.0053165358
0.0061219527
0.0069334641
0.0077102218
0.0083875395
0.0088842347
0.0091109212
0.0089794486
0.0084241503
0.0074265421
0.0060398161
0.004403187
0.002734902
0.0012996692
0.00035587577
9.9428041e-05
0.00062382914
0.0019091759
0.00384036
0.0062435728
0.0089264127
0.011710141
0.014449055
0.017037548
0.019408323
0.021525802
0.023377996
0.024968857
0.026351993
0.027580082
0.00081024419
0.00063190628
0.00048849736
0.00037365309
0.0002824513
0.00021001113
0.00015189177
0.00010663581
7.1781371e-05
4.6095502e-05
2.713087e-05
1.3729651e-05
5.0588924e-06
8.2916289e-07
0.0010290809
0.0012940708
0.0016123471
0.0019944851
0.0024560596
0.0030160229
0.0036849768
0.0044844801
0.0054124141
0.0063882617
0.0073111326
0.0082236999
0.0090737451
0.0097828183
0.010255428
0.010389449
0.010091099
0.0093009554
0.0080223901
0.0063458834
0.0044576435
0.0026211964
0.0011313899
0.00025208685
0.00015905065
0.00090769575
0.0024346384
0.0045875359
0.0071683375
0.0099745067
0.012828479
0.0155927
0.018172703
0.020512492
0.022586387
0.024390422
0.025973309
0.027382294
0.028629445
0.0010288501
0.00080881136
0.00063095937
0.00048843987
0.00037391996
0.00028262482
0.00020980997
0.00015139092
0.00010598964
7.1161488e-05
4.5485866e-05
2.6447796e-05
1.320723e-05
4.8022854e-06
8.159909e-07
0.0012951803
0.0016147818
0.00199744
0.0024597879
0.0030207574
0.0036919769
0.0044822243
0.0054189728
0.0065082549
0.0076418285
0.0086925111
0.0097088364
0.010625845
0.011350518
0.011770116
0.0117706
0.011255958
0.010179628
0.0085759029
0.0065819045
0.0044371338
0.0024507823
0.00094158162
0.00016828081
0.00027552175
0.0012730203
0.0030513291
0.005422646
0.008168844
0.011081816
0.013988839
0.016762829
0.019321537
0.021620467
0.023643571
0.025433224
0.027028685
0.028443339
0.029704929
0.0012965723
0.0010281603
0.00080741181
0.00063045302
0.00048832658
0.00037388878
0.00028229009
0.00020912217
0.00015054416
0.00010510015
7.0305897e-05
4.4415248e-05
2.5553401e-05
1.2623344e-05
4.5440014e-06
7.9281296e-07
0.0016173874
0.0020007138
0.0024636603
0.0030258575
0.0036992759
0.0044919825
0.0054191078
0.0065162472
0.0077905055
0.0091035506
0.01029033
0.011408925
0.012383352
0.01310004
0.013428921
0.013245705
0.01245729
0.011038612
0.0090655712
0.0067316299
0.0043344517
0.0022263948
0.00074074849
0.00011860706
0.0004623606
0.001729735
0.0037644797
0.0063466309
0.009242975
0.012244548
0.015186882
0.017955275
0.020480396
0.022729246
0.024736268
0.026529222
0.028119267
0.029534602
0.030806073
0.0016205698
0.0012973563
0.0010271894
0.00080652993
0.00063006669
0.00048802646
0.00037338707
0.00028140103
0.00020797688
0.00014941901
0.0001038919
6.874469e-05
4.29952e-05
2.4533997e-05
1.2025831e-05
4.2950193e-06
7.5595637e-07
0.0020045101
0.0024679005
0.003030786
0.0037067698
0.0045023133
0.0054318559
0.0065117823
0.0077993832
0.0092891243
0.010801875
0.012127753
0.013346996
0.014361787
0.015038139
0.015228296
0.014800984
0.0136733
0.01185255
0.009468354
0.0067798723
0.0041454455
0.0019545273
0.00054252912
0.00011891302
0.00073327741
0.0022869056
0.0045780138
0.0073591971
0.010387724
0.013458421
0.016418089
0.019165854
0.02164573
0.023882128
0.025887103
0.027665258
0.029244425
0.03065541
0.031932321
0.0020093219
0.0016228938
0.0012973898
0.0010266067
0.00080582931
0.00062963153
0.00048732963
0.00037235275
0.00027998993
0.0002064732
0.00014786768
0.00010160323
6.6623894e-05
4.1384964e-05
2.3458322e-05
1.1425098e-05
4.0345381e-06
7.0887668e-07
0.0024725916
0.0030354938
0.0037132429
0.00451298
0.0054453359
0.0065302433
0.0077908109
0.0092980713
0.011036889
0.012761307
0.014234807
0.015544887
0.016574876
0.017167848
0.01715945
0.01641671
0.014876802
0.01259261
0.009760585
0.0067136658
0.0038699451
0.0016458397
0.00036357233
0.00018631569
0.0011016916
0.002952377
0.0054944061
0.0084588495
0.011599313
0.014718766
0.017677783
0.020390419
0.022867765
0.025101121
0.027083323
0.02884064
0.030403337
0.031804935
0.033083031
0.0024783366
0.0020131393
0.001623927
0.0012975809
0.0010259702
0.0008051223
0.00062885468
0.00048616384
0.0003707766
0.00027818887
0.00020442291
0.00014476502
9.8428323e-05
6.4229494e-05
3.96578e-05
2.2347818e-05
1.07845e-05
3.7754054e-06
6.502456e-07
0.0030398781
0.0037181038
0.0045217302
0.0054592223
0.0065488968
0.007816959
0.0092866058
0.011051168
0.013054333
0.015020544
0.016639543
0.018023998
0.019033501
0.019487244
0.019207193
0.01806644
0.016035099
0.013227145
0.0099191997
0.0065235257
0.0035125957
0.0013153782
0.00022323662
0.00033864597
0.0015802063
0.0037324793
0.0065146352
0.0096429842
0.012873295
0.016020551
0.018961216
0.021688911
0.024167417
0.026371532
0.028324223
0.030054452
0.031594975
0.032982202
0.034257465
0.0030448984
0.0024825915
0.0020152251
0.0016248697
0.0012972796
0.0010250706
0.00080409629
0.00062763942
0.00048445423
0.00036881537
0.00027570375
0.00020023277
0.00014028232
9.4871611e-05
6.1636973e-05
3.7839013e-05
2.1152822e-05
1.0120385e-05
3.5001949e-06
5.8731739e-07
0.003721138
0.0045273442
0.0054702671
0.0065676643
0.0078414842
0.0093147055
0.011039163
0.013065769
0.015390429
0.017613062
0.019371398
0.020804011
0.021744233
0.02198804
0.021348673
0.019716318
0.017110166
0.013722754
0.0099232466
0.0062047968
0.0030835919
0.00098258232
0.00014307234
0.00059376836
0.0021801212
0.0046318538
0.0076382189
0.010907973
0.014204564
0.017358493
0.020341172
0.02308065
0.025525411
0.027692689
0.029608847
0.031305521
0.032818105
0.034186084
0.035454801
0.003723888
0.0030476241
0.0024844886
0.0020168504
0.001624811
0.0012962362
0.0010236401
0.0008026772
0.00062583926
0.00048246486
0.0003659477
0.00027028576
0.00019401211
0.00013519683
9.1032187e-05
5.8863712e-05
3.5866458e-05
1.9885794e-05
9.4078852e-06
3.2140695e-06
5.1994497e-07
0.0045292779
0.0054766493
0.0065827725
0.0078666336
0.0093481077
0.011049668
0.013056518
0.015404981
0.018080599
0.020576458
0.022459574
0.023901263
0.024707839
0.024654016
0.023552243
0.02132469
0.018059336
0.014045793
0.0097556319
0.0057589584
0.0025992029
0.00067098774
0.00014606482
0.00096888737
0.0029110839
0.0056533804
0.0088632289
0.012249129
0.015587502
0.018821712
0.021834975
0.024538841
0.026941167
0.029063654
0.030935942
0.032592427
0.034071291
0.035415309
0.036674131
0.0045296215
0.0037234007
0.0030476235
0.0024856663
0.0020168622
0.0016234411
0.001294249
0.0010216943
0.00080069834
0.00062390873
0.00047923289
0.00035912688
0.00026197161
0.0001869392
0.00012963159
8.6915759e-05
5.5835338e-05
3.3745945e-05
1.8515566e-05
8.6529844e-06
2.9105399e-06
4.5267331e-07
0.0054777109
0.0065916597
0.0078878167
0.0093839042
0.011091044
0.013090846
0.015400019
0.018103276
0.021168817
0.023949988
0.025931131
0.027327523
0.027917704
0.027459397
0.025776263
0.022842066
0.01883646
0.014164347
0.0094050335
0.0051948462
0.0020819402
0.00040755195
0.0002557723
0.0014799941
0.0037808497
0.0067980612
0.010186182
0.01366089
0.017131269
0.020425374
0.023404951
0.026063067
0.028413836
0.030483157
0.032303961
0.033913493
0.035352902
0.036668468
0.037914454
0.0054763247
0.0045255289
0.0037201178
0.003047111
0.0024849
0.0020149246
0.0016206358
0.0012914902
0.0010191479
0.000798863
0.00062019203
0.00047073576
0.00034814226
0.00025248018
0.00017916269
0.00012368533
8.2415778e-05
5.2550084e-05
3.1440434e-05
1.7044816e-05
7.8457687e-06
2.5907657e-06
3.8631887e-07
0.0065930105
0.007901563
0.0094146123
0.011148504
0.013139156
0.01545101
0.018101613
0.021206984
0.024703034
0.027771859
0.029810005
0.031088154
0.031357568
0.030366839
0.027968156
0.02421161
0.019393735
0.014050597
0.0088679369
0.0045295774
0.0015602163
0.00022174545
0.00049558412
0.0021414037
0.0047949457
0.0080647567
0.011602217
0.015276155
0.018849138
0.02211713
0.025050927
0.027652663
0.029942206
0.03194959
0.03371105
0.035266795
0.036661116
0.03794408
0.039174879
0.0065905226
0.0054694708
0.0045184764
0.0037169194
0.0030447494
0.002481899
0.0020110289
0.0016167919
0.0012880355
0.0010171346
0.00079456035
0.00060959551
0.00045638176
0.00033553073
0.00024202229
0.00017083521
0.00011718484
7.7533122e-05
4.8964283e-05
2.8950636e-05
1.5465792e-05
6.9914195e-06
2.2560963e-06
3.2134935e-07
0.0079058716
0.0094367199
0.011194785
0.013203992
0.015505349
0.018175638
0.021211948
0.024770524
0.028730975
0.032079228
0.034115579
0.035179855
0.034998939
0.0333255
0.030063983
0.025370429
0.019684229
0.013683593
0.0081504828
0.0037888639
0.0010676199
0.00014472159
0.00088801399
0.0029650911
0.00595615
0.0094503311
0.013271306
0.017107402
0.020670056
0.023897101
0.026772498
0.029306561
0.031524681
0.033460995
0.035155062
0.036650172
0.037994055
0.039240765
0.040454275
0.0079047723
0.0065815983
0.0054597135
0.0045122854
0.0037123283
0.0030403053
0.0024767589
0.0020058355
0.0016122461
0.0012857151
0.0010115604
0.00078134059
0.00059093333
0.00043983937
0.00032159363
0.00023075464
0.00016177567
0.00011013706
7.2200718e-05
4.5078269e-05
2.6267709e-05
1.3784257e-05
6.0926987e-06
1.9103404e-06
2.5966677e-07
0.0094474276
0.011229033
0.013266949
0.015582498
0.018261707
0.021300914
0.024793358
0.028848537
0.033301022
0.036906995
0.038860414
0.039587484
0.038798286
0.036269476
0.031988677
0.026251728
0.019665174
0.013052216
0.0072698193
0.0030068134
0.00064221484
0.00020841872
0.0014535971
0.0039597729
0.0072645222
0.011143999
0.015207505
0.019060846
0.022594452
0.025765237
0.028568842
0.03102327
0.033159275
0.035015067
0.036633558
0.038061426
0.039349904
0.040556848
0.041751464
0.0094507325
0.007895469
0.0065694717
0.005451346
0.004505226
0.0037061093
0.0030339278
0.0024704001
0.0019999624
0.0016096716
0.0012780422
0.00099456441
0.0007571372
0.00056935525
0.00042145691
0.0003065166
0.00021844795
0.00015195586
0.00010246267
6.6422047e-05
4.0881419e-05
2.3404866e-05
1.2011828e-05
5.1613675e-06
1.5595762e-06
2.0022505e-07
0.011249137
0.013315772
0.015663371
0.018340091
0.02141825
0.02489942
0.028905994
0.033496231
0.038462359
0.04228622
0.044046865
0.044280457
0.04269414
0.039116799
0.033657387
0.026788129
0.01930185
0.012157724
0.00625485
0.0022257346
0.00032564689
0.00044394378
0.0022093926
0.0051306954
0.0089384519
0.013165753
0.01729083
0.021137182
0.024622688
0.027721041
0.030438661
0.032800848
0.034843602
0.036609165
0.038144086
0.039498333
0.040726542
0.041890499
0.043065216
0.011259658
0.0094434522
0.0078809728
0.0065588983
0.00544232
0.0044970645
0.0036984417
0.0030269016
0.0024635957
0.0019973657
0.0015999833
0.0012564876
0.00096276284
0.00072919744
0.00054538091
0.00040146616
0.00029001179
0.00020506874
0.00014125667
9.4161697e-05
6.018316e-05
3.6400382e-05
2.0382411e-05
1.0170594e-05
4.2130921e-06
1.2116875e-06
1.4588427e-07
0.013347614
0.015732916
0.018437368
0.021547035
0.025053804
0.029044765
0.033612833
0.038772261
0.044263937
0.048240653
0.049662915
0.049208792
0.04660458
0.041769077
0.034977978
0.026916129
0.018571537
0.011015908
0.0051470718
0.0014956339
0.00016102466
0.00087928773
0.003168367
0.0067214719
0.011011093
0.015367528
0.019522105
0.023337191
0.026754675
0.029763505
0.032380155
0.034636909
0.036574891
0.038240655
0.039684038