/*--------------------------------*- C++ -*----------------------------------*\
| =========                 |                                                 |
| \\      /  F ield         | OpenFOAM: The Open Source CFD Toolbox           |
|  \\    /   O peration     | Version:  5.0                                   |
|   \\  /    A nd           | Web:      www.OpenFOAM.org                      |
|    \\/     M anipulation  |                                                 |
\*---------------------------------------------------------------------------*/
FoamFile
{
    version     2.0;
    format      ascii;
    class       volVectorField;
    location    "80";
    object      U;
}
// * * * * * * * * * * * * * * * * * * * * * * * * * * * * * * * * * * * * * //

dimensions      [0 1 -1 0 0 0 0];

internalField   nonuniform List<vector> 
9520
(
(1.0091177 -9.5445869e-05 0)
(1.0092532 -0.00027950424 0)
(1.0093992 -9.0670158e-05 0)
(1.0094932 -0.0004483195 0)
(1.0095321 -0.00026668234 0)
(1.0094997 -8.8624731e-05 0)
(1.009813 -0.00060265947 0)
(1.0097675 -0.00043116264 0)
(1.009634 -0.00026107047 0)
(1.0096671 -8.5037054e-05 0)
(1.0101891 -0.00074254993 0)
(1.0100819 -0.00058629649 0)
(1.0098723 -0.00042332229 0)
(1.0098023 -0.00025097095 0)
(1.0097863 -8.127547e-05 0)
(1.0106008 -0.00086948805 0)
(1.0104525 -0.00073346684 0)
(1.0101915 -0.00057800957 0)
(1.0100428 -0.00040841911 0)
(1.0099234 -0.00024004852 0)
(1.0099115 -7.6564444e-05 0)
(1.0110293 -0.00098472735 0)
(1.0108598 -0.0008753414 0)
(1.0105695 -0.00072697283 0)
(1.0103661 -0.00056041206 0)
(1.0101676 -0.00039115731 0)
(1.0100503 -0.0002262369 0)
(1.010018 -7.143581e-05 0)
(1.0114591 -0.0010892496 0)
(1.0112861 -0.0010141275 0)
(1.0109878 -0.00087315131 0)
(1.010751 -0.00070893855 0)
(1.0104968 -0.00053769316 0)
(1.010298 -0.00036873388 0)
(1.0101582 -0.00021106184 0)
(1.0101156 -6.6015481e-05 0)
(1.0118797 -0.0011867937 0)
(1.0117164 -0.0011539237 0)
(1.0114302 -0.0010193095 0)
(1.0111794 -0.00085686387 0)
(1.0108903 -0.00068139775 0)
(1.0106328 -0.00050713365 0)
(1.010409 -0.000343556 0)
(1.0102569 -0.00019491656 0)
(1.0102014 -6.0596593e-05 0)
(1.0122818 -0.0012745149 0)
(1.0121417 -0.0012983783 0)
(1.0118838 -0.0011700795 0)
(1.0116364 -0.0010068132 0)
(1.0113304 -0.00082482563 0)
(1.0110339 -0.00064294834 0)
(1.0107486 -0.00047184382 0)
(1.0105099 -0.00031642276 0)
(1.0103431 -0.00017865271 0)
(1.0102773 -5.5406046e-05 0)
(1.0126477 -0.0013562748 0)
(1.0125418 -0.0014451272 0)
(1.0123366 -0.0013282553 0)
(1.0121106 -0.0011609291 0)
(1.0118024 -0.0009695427 0)
(1.0114837 -0.00077856912 0)
(1.0111566 -0.0005972532 0)
(1.0108532 -0.00043312393 0)
(1.0105972 -0.00028879674 0)
(1.0104189 -0.00016294597 0)
(1.0103439 -5.0614253e-05 0)
(1.012974 -0.0014257452 0)
(1.0129181 -0.0016060053 0)
(1.0127797 -0.0014963772 0)
(1.0125893 -0.0013205632 0)
(1.0122942 -0.0011155057 0)
(1.0119662 -0.00091484563 0)
(1.0116154 -0.00072225151 0)
(1.0112669 -0.00054617249 0)
(1.0109427 -0.00039303401 0)
(1.0106727 -0.00026188419 0)
(1.0104846 -0.0001483297 0)
(1.0104025 -4.6332032e-05 0)
(1.0132545 -0.001517657 0)
(1.013266 -0.001783418 0)
(1.0132228 -0.0016880492 0)
(1.013075 -0.0014901127 0)
(1.0127948 -0.0012634965 0)
(1.0124664 -0.0010520244 0)
(1.0121084 -0.00084810061 0)
(1.0117335 -0.00065811665 0)
(1.0113599 -0.00049217705 0)
(1.0110183 -0.00035340816 0)
(1.0107368 -0.00023667478 0)
(1.0105417 -0.00013518594 0)
(1.0104542 -4.2630667e-05 0)
(1.0134879 -0.0015501765 0)
(1.013569 -0.0019956137 0)
(1.0136536 -0.0018931684 0)
(1.0135629 -0.0016721643 0)
(1.0132981 -0.001410842 0)
(1.0129739 -0.0011881841 0)
(1.0126199 -0.00097660542 0)
(1.0122372 -0.00077112668 0)
(1.0118327 -0.00058854247 0)
(1.0114366 -0.00043771535 0)
(1.0110803 -0.00031586653 0)
(1.010791 -0.00021393487 0)
(1.0105914 -0.00012379426 0)
(1.0105001 -3.9551243e-05 0)
(1.0136881 -0.0016877885 0)
(1.0138368 -0.002211707 0)
(1.0140633 -0.0021433446 0)
(1.0140497 -0.001852666 0)
(1.0137953 -0.0015541287 0)
(1.013478 -0.0013201468 0)
(1.0131373 -0.0011067195 0)
(1.0127625 -0.00088823738 0)
(1.0123463 -0.00068476546 0)
(1.0119124 -0.00051648986 0)
(1.0114966 -0.00038522026 0)
(1.0111303 -0.00028180773 0)
(1.0108367 -0.00019427171 0)
(1.0106349 -0.00011435255 0)
(1.0105413 -3.7106342e-05 0)
(1.0138539 -0.0015979522 0)
(1.0139893 -0.002510739 0)
(1.0144555 -0.0023873269 0)
(1.0145204 -0.0020652791 0)
(1.0142889 -0.001681003 0)
(1.0139663 -0.0014444509 0)
(1.0136449 -0.0012375965 0)
(1.0132933 -0.0010130179 0)
(1.0128876 -0.00078445002 0)
(1.0124323 -0.00059190581 0)
(1.0119709 -0.00044538234 0)
(1.011541 -0.00033710267 0)
(1.0111698 -0.0002524307 0)
(1.0108755 -0.00017815024 0)
(1.0106735 -0.00010698702 0)
(1.0105788 -3.5285988e-05 0)
(1.0139183 -0.0017875597 0)
(1.0140815 -0.0027468501 0)
(1.0148104 -0.002723157 0)
(1.0149957 -0.0022367316 0)
(1.0147594 -0.0018030776 0)
(1.0144317 -0.001546718 0)
(1.0141272 -0.0013656157 0)
(1.0138152 -0.0011467014 0)
(1.0134411 -0.00089491555 0)
(1.0129859 -0.00066750529 0)
(1.0124912 -0.0004972548 0)
(1.0120089 -0.00037918109 0)
(1.0115721 -0.0002955973 0)
(1.0112012 -0.00022867255 0)
(1.0109091 -0.00016589981 0)
(1.0107085 -0.00010175943 0)
(1.0106135 -3.406832e-05 0)
(1.0138343 -0.0015581175 0)
(1.0141023 -0.003186741 0)
(1.0151917 -0.003047416 0)
(1.015498 -0.0025068992 0)
(1.015228 -0.0018637958 0)
(1.0148624 -0.0016197524 0)
(1.0145705 -0.0014807419 0)
(1.0143129 -0.00128959 0)
(1.0139946 -0.0010221101 0)
(1.0135644 -0.00074920931 0)
(1.0130491 -0.00054303063 0)
(1.0125223 -0.00040726037 0)
(1.0120289 -0.00032193129 0)
(1.0115928 -0.00026248941 0)
(1.0112266 -0.00021117156 0)
(1.0109391 -0.00015768868 0)
(1.010741 -9.8628815e-05 0)
(1.0106462 -3.3405453e-05 0)
(1.0136842 -0.0018771026 0)
(1.014175 -0.0034516802 0)
(1.0155461 -0.0035589164 0)
(1.0160475 -0.0026552783 0)
(1.0156969 -0.001963331 0)
(1.0152451 -0.0016617339 0)
(1.0149607 -0.0015878237 0)
(1.0147623 -0.0014474016 0)
(1.0145389 -0.0011739888 0)
(1.0141598 -0.00084741375 0)
(1.0136402 -0.00058624797 0)
(1.0130735 -0.00042139211 0)
(1.0125282 -0.00032914804 0)
(1.0120351 -0.00027690551 0)
(1.0116065 -0.00023891573 0)
(1.0112486 -0.00020022153 0)
(1.0109671 -0.00015341126 0)
(1.0107721 -9.7368519e-05 0)
(1.0106777 -3.3197222e-05 0)
(1.0134019 -0.0015173996 0)
(1.0139828 -0.0041393993 0)
(1.0159812 -0.0040004642 0)
(1.0166739 -0.0030456545 0)
(1.016203 -0.0018765832 0)
(1.0155386 -0.0016647483 0)
(1.0152616 -0.0016658288 0)
(1.0151532 -0.0016325822 0)
(1.0150543 -0.0013712571 0)
(1.0147697 -0.00097743299 0)
(1.0142647 -0.00063163119 0)
(1.0136589 -0.0004214995 0)
(1.0130618 -0.00031517017 0)
(1.0125156 -0.00026866231 0)
(1.0120329 -0.00024594032 0)
(1.0116167 -0.00022523188 0)
(1.0112692 -0.00019561964 0)
(1.0109943 -0.00015262737 0)
(1.0108023 -9.7607428e-05 0)
(1.0107081 -3.3314246e-05 0)
(1.0129945 -0.0019246222 0)
(1.0138282 -0.0044823643 0)
(1.0163363 -0.004741959 0)
(1.0173733 -0.0031383069 0)
(1.016753 -0.0019023017 0)
(1.0157936 -0.0015072203 0)
(1.015462 -0.0017523747 0)
(1.0154866 -0.0018330832 0)
(1.0155635 -0.0016349643 0)
(1.0153985 -0.0011533227 0)
(1.0149232 -0.00069325999 0)
(1.0142787 -0.00040598573 0)
(1.0136236 -0.00027595105 0)
(1.0130235 -0.0002338602 0)
(1.0124919 -0.00022834536 0)
(1.0120268 -0.00022945485 0)
(1.0116264 -0.00022113208 0)
(1.0112896 -0.00019669419 0)
(1.0110216 -0.00015475417 0)
(1.0108323 -9.8911954e-05 0)
(1.010738 -3.361007e-05 0)
(1.0124799 -0.0015054955 0)
(1.0134137 -0.0054543852 0)
(1.0168495 -0.0053718833 0)
(1.0182227 -0.0037283221 0)
(1.0173804 -0.0015450002 0)
(1.0159619 -0.0013599986 0)
(1.0155295 -0.001723439 0)
(1.0157176 -0.002114598 0)
(1.0160593 -0.0019678344 0)
(1.016067 -0.0013992983 0)
(1.0156297 -0.0007679758 0)
(1.0149351 -0.00037361952 0)
(1.0142087 -0.00020413009 0)
(1.0135487 -0.00016568406 0)
(1.0129696 -0.00018060496 0)
(1.0124628 -0.00020775269 0)
(1.0120202 -0.00022646352 0)
(1.011636 -0.000225395 0)
(1.0113115 -0.00020273593 0)
(1.01105 -0.00015911649 0)
(1.0108624 -0.00010075483 0)
(1.0107673 -3.3900556e-05 0)
(1.0117838 -0.0018953421 0)
(1.012967 -0.0059665726 0)
(1.0172638 -0.0064346563 0)
(1.0191431 -0.0037533461 0)
(1.0181209 -0.0014753454 0)
(1.016117 -0.00083965754 0)
(1.0153899 -0.0018181059 0)
(1.0158075 -0.0023983888 0)
(1.0164897 -0.0024284826 0)
(1.0167597 -0.0017139079 0)
(1.0163947 -0.00088226004 0)
(1.0156396 -0.00031241924 0)
(1.0148144 -9.085955e-05 0)
(1.0140813 -5.5266782e-05 0)
(1.0134538 -9.6406653e-05 0)
(1.01291 -0.00015469985 0)
(1.0124329 -0.00020505637 0)
(1.0120144 -0.00023361298 0)
(1.0116491 -0.0002374446 0)
(1.0113363 -0.00021286282 0)
(1.0110798 -0.00016480335 0)
(1.0108927 -0.00010251042 0)
(1.0107959 -3.3963368e-05 0)
(1.0109537 -0.0015746907 0)
(1.0123283 -0.0071582371 0)
(1.0178431 -0.0073554601 0)
(1.0203389 -0.0046242795 0)
(1.0189273 -0.00073558462 0)
(1.0161778 -0.00041023139 0)
(1.0150616 -0.0015373752 0)
(1.0156763 -0.0028467635 0)
(1.0168621 -0.002990176 0)
(1.0175056 -0.0021712852 0)
(1.0172392 -0.0010158392 0)
(1.0164096 -0.00023662937 0)
(1.0154467 8.3325969e-05 0)
(1.0146129 0.00010645937 0)
(1.0139316 2.9263486e-05 0)
(1.0133564 -6.7593592e-05 0)
(1.0128531 -0.00015454057 0)
(1.0124092 -0.00021840638 0)
(1.0120146 -0.00025451008 0)
(1.0116671 -0.00025633319 0)
(1.0113644 -0.00022562792 0)
(1.0111115 -0.0001707376 0)
(1.0109232 -0.0001035198 0)
(1.0108235 -3.3564083e-05 0)
(1.0100023 -0.0017961259 0)
(1.0115215 -0.0080310414 0)
(1.0183747 -0.0087866381 0)
(1.0215851 -0.0045820543 0)
(1.0199474 -0.00052520564 0)
(1.0162316 0.00062742564 0)
(1.0144419 -0.0015276352 0)
(1.0153369 -0.0031896163 0)
(1.0170979 -0.003801812 0)
(1.0183063 -0.0027379344 0)
(1.0182207 -0.0012356384 0)
(1.0172705 -9.8777882e-05 0)
(1.016109 0.00032102587 0)
(1.0151381 0.00033555245 0)
(1.0143912 0.00020122692 0)
(1.0137893 5.4108819e-05 0)
(1.0132685 -7.4524052e-05 0)
(1.012806 -0.00017728287 0)
(1.012392 -0.00025001269 0)
(1.0120223 -0.00028548402 0)
(1.0116911 -0.00027993391 0)
(1.0113968 -0.00023946993 0)
(1.011145 -0.00017574372 0)
(1.0109536 -0.00010315348 0)
(1.0108498 -3.2489095e-05 0)
(1.0089065 -0.0016944741 0)
(1.0105922 -0.0092411453 0)
(1.0189507 -0.010104741 0)
(1.0232006 -0.0058374463 0)
(1.0210539 0.00070568889 0)
(1.0161309 0.0015404649 0)
(1.0136005 -0.00082298964 0)
(1.0146184 -0.0039069566 0)
(1.0172623 -0.0047350907 0)
(1.0191913 -0.0035964587 0)
(1.0193396 -0.0014784988 0)
(1.0182605 3.474437e-05 0)
(1.0168225 0.0006838501 0)
(1.0156406 0.00064612086 0)
(1.0148165 0.00042771904 0)
(1.0141967 0.00020946035 0)
(1.0136696 3.3319239e-05 0)
(1.0131953 -0.00010915903 0)
(1.0127684 -0.00022056516 0)
(1.0123848 -0.0002955085 0)
(1.0120386 -0.00032371916 0)
(1.0117222 -0.00030620354 0)
(1.0114331 -0.00025248562 0)
(1.0111799 -0.00017866801 0)
(1.0109833 -0.00010084694 0)
(1.0108742 -3.056988e-05 0)
(1.0075118 -0.0017761158 0)
(1.0096613 -0.010723375 0)
(1.0197318 -0.011971655 0)
(1.0248655 -0.0057397077 0)
(1.022434 0.0011697973 0)
(1.0160651 0.0032223365 0)
(1.0123209 -0.00054672844 0)
(1.0136189 -0.0043001371 0)
(1.0171657 -0.0061223102 0)
(1.0201567 -0.0046029725 0)
(1.0207155 -0.0019136148 0)
(1.0194223 0.00031988166 0)
(1.0175827 0.0011388739 0)
(1.0161209 0.0010873573 0)
(1.0151806 0.00071814871 0)
(1.0145583 0.00039632907 0)
(1.0140469 0.00016392364 0)
(1.0135722 -1.5690724e-05 0)
(1.0131358 -0.00016372982 0)
(1.0127413 -0.00028134194 0)
(1.0123882 -0.00035104648 0)
(1.0120648 -0.00036697243 0)
(1.0117602 -0.00033234765 0)
(1.0114736 -0.00026312446 0)
(1.0112158 -0.00017847075 0)
(1.0110119 -9.6146775e-05 0)
(1.0108962 -2.7693298e-05 0)
(1.0050842 -0.0019180346 0)
(1.0084303 -0.011781855 0)
(1.0205957 -0.013644656 0)
(1.0269072 -0.0074205301 0)
(1.0239131 0.0029590273 0)
(1.0157599 0.0048608677 0)
(1.0107014 0.0007162035 0)
(1.0120735 -0.0053082795 0)
(1.0169682 -0.0076164584 0)
(1.0212366 -0.0061410174 0)
(1.0223176 -0.0023493784 0)
(1.0208245 0.00054538419 0)
(1.018444 0.0018602259 0)
(1.0165393 0.0016622052 0)
(1.0154603 0.0010954966 0)
(1.014848 0.00061015911 0)
(1.0143857 0.00030634236 0)
(1.0139317 9.6891823e-05 0)
(1.013489 -8.0378751e-05 0)
(1.0130834 -0.00023833912 0)
(1.012726 -0.00035519743 0)
(1.0124047 -0.00041569752 0)
(1.0121017 -0.00041183847 0)
(1.0118057 -0.00035641412 0)
(1.011517 -0.00026969218 0)
(1.011252 -0.00017435009 0)
(1.0110387 -8.8722181e-05 0)
(1.0109153 -2.3800917e-05 0)
(0.99848785 -0.0020208953 0)
(1.006582 -0.013686821 0)
(1.0206918 -0.015850307 0)
(1.0284609 -0.0073832508 0)
(1.025752 0.0037250252 0)
(1.0154907 0.0073036812 0)
(1.0085584 0.0014651886 0)
(1.0101012 -0.0057757276 0)
(1.0163942 -0.009820709 0)
(1.022438 -0.0078463934 0)
(1.0243484 -0.003176482 0)
(1.0225279 0.0010843422 0)
(1.0193855 0.0026911055 0)
(1.0169135 0.0024975588 0)
(1.015599 0.0015598063 0)
(1.0150362 0.00084547573 0)
(1.014671 0.00044250471 0)
(1.0142706 0.00021570609 0)
(1.0138288 2.6029944e-05 0)
(1.0134089 -0.00016233657 0)
(1.0130428 -0.00032876882 0)
(1.0127256 -0.00044454923 0)
(1.0124356 -0.00048485773 0)
(1.01215 -0.00045569354 0)
(1.0118573 -0.0003757652 0)
(1.0115635 -0.00027100788 0)
(1.0112878 -0.00016572807 0)
(1.0110632 -7.8395403e-05 0)
(1.0109311 -1.8894283e-05 0)
(0.98780193 -0.0026268065 0)
(1.0026596 -0.014768739 0)
(1.0199167 -0.017909287 0)
(1.0290898 -0.0094528824 0)
(1.0278347 0.0061538407 0)
(1.0148863 0.0098627679 0)
(1.0058836 0.003362099 0)
(1.0074738 -0.0070595262 0)
(1.0156502 -0.012111419 0)
(1.0237823 -0.01039214 0)
(1.0267136 -0.0039535158 0)
(1.02464 0.0014517378 0)
(1.0205077 0.0040499344 0)
(1.0171563 0.003526908 0)
(1.0155694 0.0021869136 0)
(1.0150717 0.0010812757 0)
(1.0148792 0.00054529383 0)
(1.0145877 0.0003159088 0)
(1.0141639 0.00014801502 0)
(1.0137225 -5.1839962e-05 0)
(1.0133359 -0.00026416991 0)
(1.0130163 -0.0004439441 0)
(1.0127436 -0.00054311648 0)
(1.0124827 -0.00055553901 0)
(1.012209 -0.00049500412 0)
(1.0119154 -0.00038886003 0)
(1.0116114 -0.00026608845 0)
(1.0113225 -0.00015226476 0)
(1.0110849 -6.5144492e-05 0)
(1.010943 -1.3030746e-05 0)
(0.9733264 -0.0033821381 3.3717882e-24)
(0.99544947 -0.016544849 0)
(1.0154654 -0.019612351 0)
(1.0278446 -0.0095700035 0)
(1.0295574 0.0070774516 0)
(1.0151333 0.01316592 0)
(1.0026318 0.0049898965 0)
(1.0041703 -0.0077153946 0)
(1.0144261 -0.015353809 0)
(1.0252775 -0.013121156 0)
(1.0297115 -0.0054047341 0)
(1.0272252 0.0023779483 0)
(1.021776 0.0054934451 0)
(1.0173178 0.0050718796 0)
(1.0152556 0.0029208013 0)
(1.0148992 0.0013320949 0)
(1.0149826 0.00058146068 0)
(1.0148712 0.00036895692 0)
(1.0145037 0.00026671124 0)
(1.0140355 9.0597796e-05 0)
(1.0136081 -0.00015491247 0)
(1.0132707 -0.00040245194 0)
(1.013011 -0.00057567975 0)
(1.0127827 -0.00064766532 0)
(1.012546 -0.00062303451 0)
(1.0122787 -0.00052755571 0)
(1.0119779 -0.00039398136 0)
(1.0116604 -0.00025422574 0)
(1.0113553 -0.00013383105 0)
(1.0111031 -4.9093141e-05 0)
(1.0109508 -6.292397e-06 0)
(0.95511688 -0.0045919715 1.764422e-24)
(0.98404524 -0.017987224 -3.5195271e-24)
(1.0057107 -0.020209719 0)
(1.0190141 -0.010115923 0)
(1.0235428 0.0097960363 0)
(1.0148709 0.016974409 0)
(0.99879695 0.0072601159 0)
(1.0002314 -0.0090983235 0)
(1.012894 -0.018709868 0)
(1.0268961 -0.016996761 0)
(1.0331546 -0.0067451293 0)
(1.0304318 0.0029557511 0)
(1.023322 0.007901778 0)
(1.017249 0.0068471615 0)
(1.0146315 0.0039790869 0)
(1.0144205 0.0015112747 0)
(1.0149453 0.00050265279 0)
(1.0151552 0.0003251707 0)
(1.0148627 0.00035562691 0)
(1.0143702 0.00025968758 0)
(1.0138726 8.9234676e-06 0)
(1.0134903 -0.0003038869 0)
(1.0132277 -0.0005677371 0)
(1.013032 -0.00072080994 0)
(1.012845 -0.00075271393 0)
(1.0126258 -0.0006841968 0)
(1.0123571 -0.00055068131 0)
(1.0120444 -0.00039014255 0)
(1.0117088 -0.00023526565 0)
(1.0113855 -0.00011049772 0)
(1.0111175 -3.047264e-05 0)
(1.0109543 1.1733099e-06 0)
(0.93554777 -0.0061341709 -1.7689238e-24)
(0.96945833 -0.019469925 1.1633002e-23)
(0.99216396 -0.020932461 0)
(1.0037924 -0.0078973989 0)
(1.0046748 0.012266919 0)
(1.0022156 0.021634429 0)
(0.99313781 0.010639856 0)
(0.99517068 -0.010281371 0)
(1.0109045 -0.02311686 0)
(1.0287189 -0.021072731 0)
(1.037425 -0.0090905736 0)
(1.0342956 0.0043889586 0)
(1.0251076 0.010306946 0)
(1.0170375 0.0095690074 0)
(1.0135011 0.0051280452 0)
(1.0135761 0.0017361826 0)
(1.014703 0.000199291 0)
(1.0154103 0.00011644155 0)
(1.0152975 0.00037656567 0)
(1.01476 0.00044110083 0)
(1.0141539 0.00023431151 0)
(1.0136821 -0.00013287598 0)
(1.0133874 -0.00050350911 0)
(1.0132157 -0.00076115483 0)
(1.0130846 -0.00087398391 0)
(1.0129312 -0.00085298342 0)
(1.0127203 -0.00073497342 0)
(1.0124437 -0.00056288038 0)
(1.0121128 -0.00037670958 0)
(1.0117563 -0.00020894522 0)
(1.0114124 -8.247379e-05 0)
(1.0111278 -9.3104306e-06 0)
(1.0109534 8.8242556e-06 0)
(0.91614868 -0.0079533596 0)
(0.95342919 -0.021225562 -1.1636237e-23)
(0.9766109 -0.020856748 0)
(0.98561801 -0.0055632064 0)
(0.9799566 0.017785144 0)
(0.9771792 0.025746558 0)
(0.98143106 0.013524392 0)
(0.98861232 -0.01153381 0)
(1.008457 -0.027922376 0)
(1.0306444 -0.026584126 0)
(1.0422686 -0.011218098 0)
(1.038979 0.0052941195 0)
(1.0272403 0.01422379 0)
(1.0164749 0.012501086 0)
(1.0118559 0.0068977662 0)
(1.0121727 0.0017389412 0)
(1.0142245 -0.00029936872 0)
(1.0156393 -0.00036684871 0)
(1.0158493 0.00028491142 0)
(1.015239 0.00060423635 0)
(1.0144917 0.00053683553 0)
(1.0138627 0.00013035827 0)
(1.0134915 -0.00035586147 0)
(1.0133218 -0.00074754511 0)
(1.0132454 -0.00097272065 0)
(1.0131709 -0.0010255694 0)
(1.0130403 -0.00094302934 0)
(1.0128286 -0.00077303053 0)
(1.0125359 -0.00056280475 0)
(1.0121825 -0.00035330574 0)
(1.0118014 -0.00017570929 0)
(1.0114356 -5.0092872e-05 0)
(1.0111336 1.3969733e-05 0)
(1.010948 1.7842006e-05 0)
(0.89813726 -0.010026665 1.5238956e-25)
(0.93694445 -0.023310993 0)
(0.96068123 -0.020552916 4.4401641e-23)
(0.96615751 -0.0017417333 0)
(0.9541177 0.023090085 0)
(0.94987665 0.029296808 0)
(0.96260181 0.015931402 0)
(0.98017247 -0.013737527 0)
(1.0055892 -0.033519773 0)
(1.0330375 -0.032345702 0)
(1.0481206 -0.014877088 0)
(1.0445121 0.0073561991 0)
(1.0296747 0.018091625 0)
(1.0156378 0.016969058 0)
(1.0094008 0.0086811508 0)
(1.0101825 0.0018828195 0)
(1.0133631 -0.001276725 0)
(1.0158513 -0.0011633404 0)
(1.0165555 -3.4697977e-05 0)
(1.0159071 0.00078699689 0)
(1.0149103 0.0008979273 0)
(1.0140675 0.00052342232 0)
(1.0135441 -9.801631e-05 0)
(1.0133399 -0.00066057071 0)
(1.0133097 -0.0010341755 0)
(1.0133227 -0.0011917195 0)
(1.0132913 -0.0011689592 0)
(1.0131708 -0.0010187409 0)
(1.0129477 -0.00079595534 0)
(1.0126325 -0.000549782 0)
(1.0122515 -0.00032014647 0)
(1.0118436 -0.00013564885 0)
(1.0114546 -1.3770893e-05 0)
(1.0111349 3.9490277e-05 0)
(1.0109381 2.7151583e-05 0)
(0.88243193 -0.012235583 -7.4321886e-24)
(0.92069175 -0.025708973 3.3994207e-25)
(0.9447037 -0.020220948 -4.4340884e-23)
(0.94725434 0.0030397016 -3.9491782e-23)
(0.92952917 0.028999598 -6.961012e-23)
(0.92308329 0.033163703 0)
(0.94118435 0.014988588 0)
(0.96982299 -0.016088023 0)
(1.0021669 -0.04024359 0)
(1.0349834 -0.039331961 0)
(1.0537292 -0.017745587 0)
(1.0511438 0.0086529162 0)
(1.032496 0.023969136 0)
(1.0143315 0.021601351 0)
(1.0061432 0.011521329 0)
(1.0072692 0.0015437193 0)
(1.0121413 -0.0025326078 0)
(1.0160124 -0.0025340447 0)
(1.0174593 -0.00060767863 0)
(1.016855 0.00088438309 0)
(1.0154984 0.0013861402 0)
(1.0143066 0.0010612799 0)
(1.0135589 0.00031342619 0)
(1.0132628 -0.00046370007 0)
(1.0132594 -0.0010338448 0)
(1.0133639 -0.0013369306 0)
(1.0134484 -0.0014046509 0)
(1.0134433 -0.001296591 0)
(1.0133193 -0.0010764258 0)
(1.0130757 -0.00080253875 0)
(1.012731 -0.00052363564 0)
(1.012319 -0.00027737817 0)
(1.011882 -8.955438e-05 0)
(1.011469 2.6235909e-05 0)
(1.0111316 6.6476224e-05 0)
(1.0109236 3.7039758e-05 0)
(0.86966744 -0.014388813 9.766871e-24)
(0.90509639 -0.028266684 1.2759549e-23)
(0.928797 -0.019849852 0)
(0.92935538 0.0082382399 1.4718993e-22)
(0.90803677 0.03560757 6.9168244e-23)
(0.89830004 0.036641169 -5.7913573e-23)
(0.91802341 0.01523795 -3.2843246e-23)
(0.95732899 -0.021954344 0)
(0.99870354 -0.046924691 0)
(1.035128 -0.04544149 0)
(1.0555324 -0.023036421 0)
(1.0577604 0.011685829 0)
(1.0358311 0.029794813 0)
(1.0125442 0.028301455 0)
(1.0017396 0.014252321 0)
(1.0034919 0.00153103 0)
(1.0102804 -0.0046853384 0)
(1.0161631 -0.0043750145 0)
(1.0186709 -0.001677462 0)
(1.0181695 0.00094143262 0)
(1.0163624 0.0019642938 0)
(1.0146363 0.0018139357 0)
(1.0135416 0.00092599774 0)
(1.0130791 -0.00012075642 0)
(1.0130751 -0.00094894121 0)
(1.0132718 -0.0014485228 0)
(1.013488 -0.0016423866 0)
(1.0136207 -0.0016019847 0)
(1.0136231 -0.0014031007 0)
(1.0134827 -0.0011138127 0)
(1.0132094 -0.00079202245 0)
(1.0128301 -0.00048443307 0)
(1.0123835 -0.00022570729 0)
(1.0119162 -3.767084e-05 0)
(1.0114787 6.9339734e-05 0)
(1.0111238 9.5000444e-05 0)
(1.010905 4.7039404e-05 0)
(0.86019154 -0.016260729 -1.1832686e-24)
(0.89046124 -0.030711062 -1.4784271e-24)
(0.91313243 -0.019474031 2.7199226e-23)
(0.91260596 0.013671159 -5.1785165e-23)
(0.89029447 0.042208632 -1.1151615e-22)
(0.87751247 0.040410116 -1.0194706e-23)
(0.8952167 0.014355116 -2.1343006e-22)
(0.94149619 -0.027561082 3.549579e-23)
(0.99298256 -0.053693324 0)
(1.0311985 -0.05194394 0)
(1.053497 -0.024985769 0)
(1.0591121 0.013000537 0)
(1.0398858 0.038101548 0)
(1.0101445 0.035278979 0)
(0.99612888 0.018491 0)
(0.99836131 0.00066632089 0)
(1.0079123 -0.0071300459 0)
(1.016215 -0.0072703536 0)
(1.0202108 -0.0031443031 0)
(1.0200138 0.00073195593 0)
(1.0176197 0.0027780597 0)
(1.015128 0.0028112814 0)
(1.0134913 0.0018051048 0)
(1.0127823 0.00042745093 0)
(1.0127315 -0.00074546031 0)
(1.01302 -0.0015076403 0)
(1.0133842 -0.0018718338 0)
(1.013678 -0.0019297806 0)
(1.0138335 -0.0017739245 0)
(1.0138263 -0.0014846812 0)
(1.0136574 -0.0011294378 0)
(1.0133467 -0.00076425873 0)
(1.0129277 -0.00043274417 0)
(1.0124442 -0.00016557353 0)
(1.0119455 1.9198078e-05 0)
(1.0114835 0.00011516083 0)
(1.0111113 0.00012493856 0)
(1.0108818 5.7567603e-05 0)
(0.85425829 -0.017754614 -2.0285315e-24)
(0.87711644 -0.032869618 4.9592055e-24)
(0.89791812 -0.019224299 0)
(0.89736852 0.018869298 -3.9797274e-23)
(0.87598104 0.048410044 -1.1925577e-23)
(0.86183418 0.04425144 0)
(0.87513362 0.012929787 9.8253458e-23)
(0.92390683 -0.033057468 1.6681817e-22)
(0.98258594 -0.061001049 0)
(1.0236956 -0.054861388 0)
(1.0448723 -0.027368239 0)
(1.0491692 0.01780468 0)
(1.0366334 0.047410855 0)
(1.0050035 0.044802286 0)
(0.98903527 0.022637599 0)
(0.99198768 0.00033202077 0)
(1.0046118 -0.011040375 0)
(1.0162525 -0.010736921 0)
(1.0222455 -0.0055614529 0)
(1.0224728 0.00044125076 0)
(1.01942 0.0036318336 0)
(1.0158862 0.0042467119 0)
(1.0134213 0.0030126229 0)
(1.0123397 0.0012432331 0)
(1.0121929 -0.00039027119 0)
(1.0125763 -0.0014951976 0)
(1.0131104 -0.0020874819 0)
(1.0135921 -0.0022785502 0)
(1.0139273 -0.0021879099 0)
(1.014081 -0.0019152305 0)
(1.0140475 -0.0015387778 0)
(1.0138397 -0.0011227439 0)
(1.0134848 -0.0007196229 0)
(1.0130225 -0.00036910234 0)
(1.0125002 -9.7821322e-05 0)
(1.0119696 8.0660456e-05 0)
(1.0114834 0.00016339773 0)
(1.0110944 0.00015552898 0)
(1.0108552 6.80366e-05 0)
(0.85206115 -0.018615646 0)
(0.86564333 -0.034478231 0)
(0.88346275 -0.019096099 -5.1313528e-24)
(0.88377755 0.02354886 0)
(0.8650373 0.053851666 5.8333721e-24)
(0.85130557 0.047957588 -4.7714763e-24)
(0.85941567 0.011403946 -1.6130364e-22)
(0.90664736 -0.040397705 -9.1279902e-23)
(0.96879206 -0.067446011 0)
(1.0123349 -0.060681443 0)
(1.0316225 -0.02392083 0)
(1.025628 0.024815669 0)
(1.0088793 0.058914206 0)
(0.99197561 0.055743277 0)
(0.97891721 0.02848741 0)
(0.98394163 -0.0011263998 0)
(1.0005982 -0.015228807 0)
(1.0161215 -0.015879999 0)
(1.0247447 -0.0084741438 0)
(1.0258267 -0.00043686651 0)
(1.0219299 0.0049100937 0)
(1.0169965 0.0060281918 0)
(1.0133919 0.0047477863 0)
(1.011695 0.0023728582 0)
(1.0114279 0.00018490076 0)
(1.0118943 -0.001398993 0)
(1.0126332 -0.0022871238 0)
(1.0133369 -0.0026466418 0)
(1.0138814 -0.0026447198 0)
(1.0142241 -0.0024060059 0)
(1.014355 -0.002021761 0)
(1.0142821 -0.001564419 0)
(1.0140263 -0.0010938193 0)
(1.0136218 -0.00065866512 0)
(1.013113 -0.00029442667 0)
(1.0125508 -2.3028806e-05 0)
(1.0119882 0.00014603531 0)
(1.0114783 0.00021355837 0)
(1.0110732 0.00018720165 0)
(1.0108242 7.8906798e-05 0)
(0.85682903 -0.035325431 -4.8427911e-25)
(0.85335879 -0.01874039 0)
(0.87026914 -0.019018706 -1.3205137e-23)
(0.87203133 0.027415358 -1.470908e-23)
(0.85713553 0.058374814 2.6117164e-23)
(0.84472736 0.051362738 -3.423922e-24)
(0.84842922 0.010019092 1.6484916e-23)
(0.89063431 -0.04820967 3.1042705e-23)
(0.95317185 -0.074728234 1.6601847e-22)
(0.99800531 -0.065539986 0)
(1.0166318 -0.024009091 -8.3309089e-22)
(1.0020693 0.036807451 0)
(0.97243532 0.071033435 0)
(0.96330131 0.066648183 0)
(0.96367135 0.033994444 0)
(0.97385992 -0.0022712483 0)
(0.99550643 -0.021445617 0)
(1.0159411 -0.021641393 0)
(1.0279154 -0.012955404 0)
(1.0300811 -0.0013887346 0)
(1.0253755 0.0060722101 0)
(1.01861 0.0086478965 0)
(1.013375 0.0070089641 0)
(1.0108317 0.0039893794 0)
(1.0103442 0.00099307283 0)
(1.0109235 -0.0011924858 0)
(1.0119129 -0.0024651911 0)
(1.0128864 -0.0030435517 0)
(1.013678 -0.0031517074 0)
(1.0142377 -0.0029602306 0)
(1.0145591 -0.0025803444 0)
(1.0146495 -0.0020922391 0)
(1.0145251 -0.0015614023 0)
(1.014214 -0.0010432475 0)
(1.0137554 -0.00058232838 0)
(1.0131981 -0.00020948397 0)
(1.0125953 5.7930577e-05 0)
(1.0120012 0.00021489278 0)
(1.0114683 0.00026537892 0)
(1.0110479 0.00021937813 0)
(1.0107901 8.9748647e-05 0)
(0.85904572 -0.019033647 1.2247773e-23)
(0.85100393 -0.03546839 0)
(0.85805913 -0.018082309 6.5635127e-24)
(0.86234782 0.030243742 1.4695792e-23)
(0.85191189 0.06194041 -4.7505584e-24)
(0.84129861 0.054314709 3.9553731e-23)
(0.84146895 0.0090702573 1.3632347e-23)
(0.87627876 -0.055874951 3.3615972e-23)
(0.93630529 -0.082301738 6.9406606e-23)
(0.98183886 -0.070096629 -1.6203532e-22)
(1.0006404 -0.025581999 -8.9388166e-22)
(0.9808141 0.047250272 8.6564572e-22)
(0.94348411 0.083552009 0)
(0.92940774 0.074790646 0)
(0.94204719 0.038532641 0)
(0.96192354 -0.004582828 0)
(0.98934981 -0.028082853 0)
(1.0155778 -0.029700193 0)
(1.0316607 -0.017988871 0)
(1.0356576 -0.003426526 0)
(1.0299329 0.0079686245 0)
(1.0208515 0.011649734 0)
(1.0134623 0.010277974 0)
(1.0096443 0.0060981452 0)
(1.0088584 0.0021320267 0)
(1.0095883 -0.00086529538 0)
(1.0108955 -0.0026526361 0)
(1.012212 -0.0034855449 0)
(1.0132983 -0.0037199764 0)
(1.0141069 -0.0035838156 0)
(1.0146429 -0.0032167374 0)
(1.0149213 -0.0027083332 0)
(1.0149573 -0.002126267 0)
(1.0147726 -0.0015302698 0)
(1.0143999 -0.00097189814 0)
(1.0138839 -0.00049151873 0)
(1.0132768 -0.00011529444 0)
(1.0126335 0.00014440848 0)
(1.0120085 0.00028661578 0)
(1.0114535 0.00031855321 0)
(1.0110187 0.00025193458 0)
(1.0107526 0.00010074796 0)
(0.85501458 0.03186077 3.1147812e-24)
(0.85066864 -0.018971907 7.2813234e-24)
(0.8486066 -0.034954813 0)
(0.86593843 -0.016699108 1.5075047e-24)
(0.84946136 0.064432776 4.0751677e-24)
(0.84025923 0.056742095 -3.262173e-23)
(0.83800867 0.0086164049 0)
(0.8635818 -0.062848576 -3.3359339e-23)
(0.91885285 -0.089645088 -1.697217e-22)
(0.96410091 -0.075196081 1.598993e-22)
(0.98332127 -0.025213936 9.2963177e-22)
(0.96396568 0.052571416 9.2627403e-22)
(0.92156238 0.095302157 0)
(0.90252022 0.080275182 0)
(0.91617074 0.040706341 0)
(0.94712206 -0.0088997264 0)
(0.98275827 -0.037060477 0)
(1.0150527 -0.038351655 0)
(1.0361781 -0.025249794 0)
(1.0424294 -0.0055093955 0)
(1.0359285 0.0094823853 0)
(1.0239012 0.016168592 0)
(1.0135839 0.014246316 0)
(1.0081175 0.0091223832 0)
(1.0068222 0.0035703264 0)
(1.0078026 -0.00039673577 0)
(1.0095182 -0.0028535364 0)
(1.0112787 -0.0040064293 0)
(1.0127294 -0.0043790147 0)
(1.0138259 -0.0042930637 0)
(1.0145986 -0.003937308 0)
(1.0150835 -0.0034141808 0)
(1.0153027 -0.0027906624 0)
(1.0152736 -0.0021246689 0)
(1.0150206 -0.0014719761 0)
(1.0145817 -0.00088087691 0)
(1.0140059 -0.00038740459 0)
(1.0133483 -1.2683481e-05 0)
(1.0126649 0.00023562745 0)
(1.01201 0.0003608068 0)
(1.0114341 0.00037268799 0)
(1.0109857 0.00028495606 0)
(1.010712 0.000111788 0)
(0.84977339 0.065601896 -3.9389754e-24)
(0.85039585 0.032183753 -2.1533643e-24)
(0.84608557 -0.018736544 -6.1797525e-24)
(0.84987758 -0.03363628 -1.4323013e-24)
(0.87684258 -0.014733082 -2.5473428e-23)
(0.84225541 0.058462937 3.3255738e-23)
(0.83748364 0.0085871033 2.0219935e-23)
(0.85309862 -0.068711663 0)
(0.90134112 -0.096500307 1.6853208e-22)
(0.94513806 -0.080067776 -2.3914308e-22)
(0.96494955 -0.025330137 0)
(0.94631726 0.06103313 -1.0781376e-21)
(0.90651514 0.1048094 0)
(0.88200026 0.089610257 0)
(0.89234205 0.037400099 0)
(0.9305061 -0.014279255 0)
(0.97500658 -0.046923624 0)
(1.0145588 -0.049949038 0)
(1.0414229 -0.033013997 0)
(1.0508851 -0.0093049121 0)
(1.0434992 0.012070701 0)
(1.0279164 0.021028134 0)
(1.01382 0.020054213 0)
(1.0060247 0.012773217 0)
(1.0041454 0.005612059 0)
(1.0053879 0.00012099275 0)
(1.0077159 -0.0031005127 0)
(1.0100442 -0.0046552079 0)
(1.0119558 -0.0051623243 0)
(1.013392 -0.005109703 0)
(1.0144257 -0.0047518866 0)
(1.01513 -0.0042121588 0)
(1.0155473 -0.003554225 0)
(1.0156961 -0.0028287045 0)
(1.015593 -0.0020886448 0)
(1.0152658 -0.0013877912 0)
(1.0147572 -0.00077142351 0)
(1.0141201 -0.00027104188 0)
(1.0134119 9.7300344e-05 0)
(1.0126894 0.00033098303 0)
(1.0120058 0.00043690943 0)
(1.0114103 0.00042762434 0)
(1.0109494 0.00031794499 0)
(1.0106688 0.00012279229 0)
(0.84811987 0.059410304 2.356543e-24)
(0.85271033 0.065729598 3.2334453e-24)
(0.84798427 0.031192491 5.1698522e-24)
(0.84552662 -0.018475742 1.4831187e-24)
(0.85477705 -0.031605296 -1.3825689e-23)
(0.89045744 -0.012187868 1.7903785e-23)
(0.84016361 0.008588488 -4.1781175e-23)
(0.84722157 -0.073191991 -1.431121e-23)
(0.88459924 -0.1025083 -1.7763924e-22)
(0.92538211 -0.084641102 2.3212636e-22)
(0.94569981 -0.025144804 -7.9455643e-22)
(0.92910492 0.068486459 3.5694438e-22)
(0.89221715 0.11507446 0)
(0.86754117 0.099053925 3.0954371e-22)
(0.87162483 0.04072857 -1.2777235e-21)