/*--------------------------------*- C++ -*----------------------------------*\
| =========                 |                                                 |
| \\      /  F ield         | OpenFOAM: The Open Source CFD Toolbox           |
|  \\    /   O peration     | Version:  5.0                                   |
|   \\  /    A nd           | Web:      www.OpenFOAM.org                      |
|    \\/     M anipulation  |                                                 |
\*---------------------------------------------------------------------------*/
FoamFile
{
    version     2.0;
    format      ascii;
    class       volVectorField;
    location    "80";
    object      U_0;
}
// * * * * * * * * * * * * * * * * * * * * * * * * * * * * * * * * * * * * * //

dimensions      [0 1 -1 0 0 0 0];

internalField   nonuniform List<vector> 
9520
(
(1.0091125 -9.5560302e-05 0)
(1.009248 -0.00027981355 0)
(1.0093944 -9.0790207e-05 0)
(1.0094881 -0.00044873978 0)
(1.0095272 -0.00026701001 0)
(1.009495 -8.8772565e-05 0)
(1.0098079 -0.00060307544 0)
(1.0097625 -0.00043161654 0)
(1.0096292 -0.00026148433 0)
(1.0096627 -8.5237202e-05 0)
(1.0101841 -0.00074281768 0)
(1.0100767 -0.00058676764 0)
(1.0098673 -0.00042392558 0)
(1.0097978 -0.00025154396 0)
(1.0097822 -8.1533474e-05 0)
(1.0105959 -0.00086943805 0)
(1.0104471 -0.00073381828 0)
(1.0101862 -0.00057870465 0)
(1.0100381 -0.00040929692 0)
(1.0099192 -0.00024079574 0)
(1.0099079 -7.6884732e-05 0)
(1.0110245 -0.00098417299 0)
(1.0108541 -0.00087541431 0)
(1.010564 -0.0007276449 0)
(1.010361 -0.00056151309 0)
(1.0101631 -0.00039233508 0)
(1.0100465 -0.0002271717 0)
(1.0100149 -7.1813486e-05 0)
(1.0114545 -0.0010879458 0)
(1.0112799 -0.0010137418 0)
(1.0109818 -0.00087367816 0)
(1.0107454 -0.00071017906 0)
(1.0104919 -0.00053923321 0)
(1.010294 -0.00037023516 0)
(1.0101549 -0.00021217018 0)
(1.0101131 -6.6444249e-05 0)
(1.0118751 -0.001184484 0)
(1.0117096 -0.0011528389 0)
(1.0114236 -0.0010195576 0)
(1.0111733 -0.00085816579 0)
(1.0108849 -0.00068323572 0)
(1.0106283 -0.00050914655 0)
(1.0104055 -0.00034535665 0)
(1.0102542 -0.00019618138 0)
(1.0101995 -6.106869e-05 0)
(1.0122775 -0.0012709543 0)
(1.0121343 -0.0012963795 0)
(1.0118763 -0.0011699526 0)
(1.0116296 -0.0010081177 0)
(1.0113244 -0.00082690369 0)
(1.0110289 -0.0006454188 0)
(1.0107446 -0.00047429714 0)
(1.010507 -0.00031849475 0)
(1.0103411 -0.00018005263 0)
(1.010276 -5.5913832e-05 0)
(1.0126437 -0.0013510112 0)
(1.0125334 -0.0014418664 0)
(1.0123281 -0.0013277007 0)
(1.012103 -0.0011622626 0)
(1.0117957 -0.00097183803 0)
(1.0114781 -0.0007814369 0)
(1.0111521 -0.00060031683 0)
(1.0108498 -0.00043598256 0)
(1.0105949 -0.00029110512 0)
(1.0104175 -0.00016445918 0)
(1.0103433 -5.1150498e-05 0)
(1.0129702 -0.0014180966 0)
(1.0129082 -0.0016008812 0)
(1.0127696 -0.001495191 0)
(1.0125806 -0.0013219678 0)
(1.0122869 -0.0011180301 0)
(1.0119598 -0.00091805237 0)
(1.0116102 -0.00072587035 0)
(1.0112629 -0.00054979681 0)
(1.01094 -0.00039625194 0)
(1.0106711 -0.0002643928 0)
(1.0104839 -0.00014993446 0)
(1.0104026 -4.6889248e-05 0)
(1.0132512 -0.0015072687 0)
(1.0132541 -0.0017761479 0)
(1.0132105 -0.0016862376 0)
(1.0130652 -0.0014918359 0)
(1.0127868 -0.0012663379 0)
(1.0124594 -0.0010554802 0)
(1.0121024 -0.00085218619 0)
(1.0117289 -0.00066247866 0)
(1.0113568 -0.00049631446 0)
(1.0110164 -0.0003569344 0)
(1.010736 -0.00023934628 0)
(1.0105417 -0.00013685863 0)
(1.0104549 -4.3200545e-05 0)
(1.0134849 -0.0015357682 0)
(1.0135543 -0.0019855565 0)
(1.0136388 -0.0018911138 0)
(1.013552 -0.0016747424 0)
(1.0132897 -0.0014142246 0)
(1.0129662 -0.0011918181 0)
(1.012613 -0.00098099331 0)
(1.0122317 -0.00077615674 0)
(1.0118289 -0.00059361419 0)
(1.0114343 -0.00044230349 0)
(1.0110793 -0.00031964383 0)
(1.010791 -0.00021672731 0)
(1.0105921 -0.00012550788 0)
(1.0105015 -4.0124613e-05 0)
(1.013688 -0.0016684126 0)
(1.0138188 -0.0021981456 0)
(1.0140456 -0.0021409169 0)
(1.0140378 -0.0018566934 0)
(1.0137868 -0.0015583324 0)
(1.01347 -0.0013238548 0)
(1.0131296 -0.001111184 0)
(1.0127559 -0.00089382458 0)
(1.0123415 -0.00069077209 0)
(1.0119095 -0.00052220567 0)
(1.0114952 -0.00039017622 0)
(1.0111301 -0.00028576849 0)
(1.0108374 -0.00019713676 0)
(1.0106363 -0.00011607658 0)
(1.0105433 -3.7673327e-05 0)
(1.0138544 -0.001572375 0)
(1.0139669 -0.0024944919 0)
(1.0144343 -0.0023857577 0)
(1.0145074 -0.0020715588 0)
(1.0142809 -0.0016863698 0)
(1.0139583 -0.0014481142 0)
(1.0136365 -0.0012418042 0)
(1.0132855 -0.0010188587 0)
(1.0128817 -0.00079137919 0)
(1.0124286 -0.00059883923 0)
(1.0119691 -0.00045162751 0)
(1.0115407 -0.00034232055 0)
(1.0111706 -0.00025649778 0)
(1.010877 -0.00018103335 0)
(1.0106756 -0.0001086874 0)
(1.0105814 -3.5835655e-05 0)
(1.0139189 -0.0017558488 0)
(1.0140563 -0.0027224368 0)
(1.0147826 -0.0027215472 0)
(1.0149814 -0.0022464338 0)
(1.0147521 -0.0018108073 0)
(1.0144244 -0.0015501456 0)
(1.0141183 -0.0013691145 0)
(1.013806 -0.0011523803 0)
(1.0134335 -0.00090268082 0)
(1.0129812 -0.00067576729 0)
(1.0124889 -0.00050495118 0)
(1.0120083 -0.00038578895 0)
(1.0115728 -0.00030095651 0)
(1.0112028 -0.00023276287 0)
(1.0109113 -0.00016874101 0)
(1.0107113 -0.00010339918 0)
(1.0106167 -3.4588497e-05 0)
(1.0138347 -0.0015181955 0)
(1.0140732 -0.0031586946 0)
(1.0151562 -0.0030486094 0)
(1.0154818 -0.002520898 0)
(1.0152225 -0.0018735019 0)
(1.014856 -0.0016228463 0)
(1.0145614 -0.0014827965 0)
(1.0143019 -0.0012944065 0)
(1.0139848 -0.0010303746 0)
(1.0135581 -0.00075896266 0)
(1.0130461 -0.00055240146 0)
(1.0125215 -0.00041544734 0)
(1.0120296 -0.00032870805 0)
(1.0115945 -0.00026786531 0)
(1.0112291 -0.00021519728 0)
(1.010942 -0.00016042563 0)
(1.0107443 -0.00010017303 0)
(1.0106499 -3.3885685e-05 0)
(1.0136841 -0.0018281535 0)
(1.0141353 -0.0034100239 0)
(1.0154989 -0.0035593666 0)
(1.0160292 -0.0026769524 0)
(1.015696 -0.00197767 0)
(1.015241 -0.0016637865 0)
(1.014952 -0.0015872578 0)
(1.0147492 -0.0014501631 0)
(1.014526 -0.0011822079 0)
(1.014151 -0.00085888532 0)
(1.0136361 -0.00059762083 0)
(1.0130724 -0.00043142218 0)
(1.012529 -0.0003375034 0)
(1.012037 -0.00028366728 0)
(1.0116092 -0.00024419049 0)
(1.0112517 -0.00020409592 0)
(1.0109707 -0.00015598863 0)
(1.0107759 -9.8791305e-05 0)
(1.0106818 -3.3630317e-05 0)
(1.0134036 -0.0014568962 0)
(1.0139364 -0.004094774 0)
(1.0159233 -0.0040065988 0)
(1.0166527 -0.003077009 0)
(1.0162084 -0.0018957938 0)
(1.01554 -0.0016653121 0)
(1.0152539 -0.0016623267 0)
(1.0151374 -0.0016315483 0)
(1.0150368 -0.0013786875 0)
(1.0147575 -0.0009906843 0)
(1.0142591 -0.0006456142 0)
(1.0136575 -0.00043379565 0)
(1.0130627 -0.00032533491 0)
(1.0125177 -0.00027692088 0)
(1.0120358 -0.00025253176 0)
(1.0116202 -0.00023030292 0)
(1.0112731 -0.00019926921 0)
(1.0109984 -0.00015500519 0)
(1.0108065 -9.8890581e-05 0)
(1.0107126 -3.3694353e-05 0)
(1.0129969 -0.0018509032 0)
(1.0137639 -0.0044167548 0)
(1.0162572 -0.0047468191 0)
(1.0173485 -0.0031842207 0)
(1.0167681 -0.0019317408 0)
(1.0158051 -0.0015062456 0)
(1.0154546 -0.0017434705 0)
(1.0154666 -0.0018258683 0)
(1.0155394 -0.0016405227 0)
(1.0153814 -0.0011690676 0)
(1.0149156 -0.00071085695 0)
(1.0142771 -0.00042128466 0)
(1.0136249 -0.0002883181 0)
(1.0130261 -0.00024380693 0)
(1.0124952 -0.00023636114 0)
(1.0120308 -0.00023575384 0)
(1.0116307 -0.00022589886 0)
(1.0112941 -0.00020006521 0)
(1.0110262 -0.00015690064 0)
(1.0108369 -0.0001000419 0)
(1.0107428 -3.3933296e-05 0)
(1.012485 -0.0014145545 0)
(1.0133357 -0.0053840052 0)
(1.0167528 -0.0053877123 0)
(1.018193 -0.0037905794 0)
(1.0174064 -0.0015848925 0)
(1.0159877 -0.0013555694 0)
(1.0155233 -0.0017057812 0)
(1.0156926 -0.0020991352 0)
(1.0160269 -0.0019707407 0)
(1.0160438 -0.0014180802 0)
(1.0156195 -0.00079074269 0)
(1.0149337 -0.00039305597 0)
(1.0142109 -0.00021928874 0)
(1.0135522 -0.00017753731 0)
(1.0129737 -0.00019018164 0)
(1.0124673 -0.00021546672 0)
(1.0120251 -0.00023245281 0)
(1.0116411 -0.0002298386 0)
(1.0113166 -0.00020578001 0)
(1.011055 -0.0001610058 0)
(1.0108674 -0.00010172575 0)
(1.0107723 -3.4167088e-05 0)
(1.011791 -0.0017874638 0)
(1.0128651 -0.0058677893 0)
(1.0171342 -0.0064480035 0)
(1.0191082 -0.0038394824 0)
(1.0181631 -0.0015360698 0)
(1.0161636 -0.00083330096 0)
(1.0153882 -0.0017870835 0)
(1.0157762 -0.0023696586 0)
(1.0164454 -0.00242691 0)
(1.0167282 -0.0017367005 0)
(1.0163812 -0.00091190261 0)
(1.0156387 -0.00033763384 0)
(1.0148183 -0.00010945815 0)
(1.0140862 -6.9228465e-05 0)
(1.0134588 -0.00010749792 0)
(1.0129152 -0.0001637833 0)
(1.0124384 -0.00021236694 0)
(1.0120201 -0.00023924491 0)
(1.0116548 -0.00024145715 0)
(1.0113418 -0.0002155399 0)
(1.0110852 -0.00016642396 0)
(1.010898 -0.00010332459 0)
(1.0108011 -3.4178019e-05 0)
(1.0109621 -0.0014405065 0)
(1.0122029 -0.0070487772 0)
(1.0176865 -0.0073872245 0)
(1.020297 -0.0047362841 0)
(1.0189867 -0.0008150428 0)
(1.0162519 -0.00039967899 0)
(1.0150686 -0.0014865524 0)
(1.0156367 -0.0028034534 0)
(1.0168018 -0.0029823026 0)
(1.0174612 -0.0021989033 0)
(1.0172209 -0.0010552289 0)
(1.01641 -0.00026971158 0)
(1.0154535 6.0586279e-05 0)
(1.01462 9.0508726e-05 0)
(1.0139378 1.6943289e-05 0)
(1.0133624 -7.7812424e-05 0)
(1.0128592 -0.00016301863 0)
(1.0124155 -0.00022512652 0)
(1.012021 -0.00025954115 0)
(1.0116734 -0.00025985449 0)
(1.0113704 -0.00022792352 0)
(1.0111172 -0.00017209241 0)
(1.0109287 -0.00010418586 0)
(1.0108289 -3.3733956e-05 0)
(1.0100085 -0.0016430645 0)
(1.0113691 -0.0078897824 0)
(1.0181718 -0.0088126399 0)
(1.0215348 -0.0047330299 0)
(1.0200333 -0.00063596813 0)
(1.0163405 0.00063892632 0)
(1.0144637 -0.0014512902 0)
(1.015286 -0.003121847 0)
(1.0170155 -0.0037840333 0)
(1.0182449 -0.0027723829 0)
(1.0181961 -0.0012877657 0)
(1.0172728 -0.00014356536 0)
(1.016121 0.00029268812 0)
(1.0151489 0.00031798451 0)
(1.0143991 0.00018831229 0)
(1.0137959 4.3197562e-05 0)
(1.0132751 -8.3993837e-05 0)
(1.0128129 -0.00018514381 0)
(1.0123991 -0.00025609268 0)
(1.0120293 -0.00028990976 0)
(1.0116979 -0.00028294545 0)
(1.0114031 -0.0002413876 0)
(1.0111509 -0.00017684864 0)
(1.0109592 -0.00010368404 0)
(1.0108553 -3.2620894e-05 0)
(1.0089139 -0.001503143 0)
(1.0104096 -0.0090768612 0)
(1.0187058 -0.010159047 0)
(1.0231454 -0.0060238155 0)
(1.0211678 0.00056942195 0)
(1.0162862 0.0015573933 0)
(1.0136414 -0.00071469487 0)
(1.0145551 -0.0038109937 0)
(1.017151 -0.0047032974 0)
(1.0191038 -0.003638757 0)
(1.0193059 -0.0015490326 0)
(1.0182668 -2.4994852e-05 0)
(1.0168424 0.00064840752 0)
(1.0156572 0.00062704806 0)
(1.014827 0.00041531824 0)
(1.0142039 0.00019861615 0)
(1.0136764 2.3155941e-05 0)
(1.0132026 -0.00011816197 0)
(1.0127763 -0.00022783223 0)
(1.0123927 -0.00030094674 0)
(1.0120462 -0.00032751597 0)
(1.0117293 -0.00030871247 0)
(1.0114396 -0.0002540478 0)
(1.011186 -0.00017954655 0)
(1.0109891 -0.00010125627 0)
(1.0108798 -3.0669235e-05 0)
(1.0075325 -0.0015691942 0)
(1.0094346 -0.010531897 0)
(1.0194291 -0.01201012 0)
(1.0247965 -0.0059829593 0)
(1.0225832 0.00096398983 0)
(1.0162758 0.0032375398 0)
(1.0123898 -0.00039609968 0)
(1.0135411 -0.0041579794 0)
(1.017016 -0.0060722741 0)
(1.0200371 -0.0046563797 0)
(1.0206701 -0.0020081155 0)
(1.0194335 0.00023807663 0)
(1.0176153 0.001093038 0)
(1.0161468 0.0010679032 0)
(1.0151949 0.00070790516 0)
(1.014566 0.0003868778 0)
(1.0140533 0.00015357662 0)
(1.0135796 -2.5817058e-05 0)
(1.0131442 -0.00017239127 0)
(1.0127501 -0.00028799547 0)
(1.0123968 -0.00035575042 0)
(1.0120729 -0.00037013188 0)
(1.0117676 -0.00033438201 0)
(1.0114803 -0.00026435831 0)
(1.011222 -0.00017914682 0)
(1.0110178 -9.644901e-05 0)
(1.0109019 -2.7764618e-05 0)
(1.005126 -0.0016483395 0)
(1.0081578 -0.011547325 0)
(1.0202275 -0.013731211 0)
(1.0268375 -0.0077191324 0)
(1.0241029 0.0027165155 0)
(1.0160419 0.0048811852 0)
(1.0108046 0.00091538074 0)
(1.0119777 -0.0051158377 0)
(1.01677 -0.0075396738 0)
(1.0210687 -0.0062063629 0)
(1.0222548 -0.0024778628 0)
(1.0208447 0.00043540118 0)
(1.0184945 0.0018018249 0)
(1.0165792 0.0016430077 0)
(1.0154801 0.0010903669 0)
(1.0148558 0.00060420355 0)
(1.0143907 0.00029665232 0)
(1.0139385 8.5667375e-05 0)
(1.0134978 -9.0753563e-05 0)
(1.0130932 -0.00024652424 0)
(1.0127358 -0.00036100167 0)
(1.0124139 -0.00041959803 0)
(1.0121101 -0.00041438228 0)
(1.0118133 -0.00035800811 0)
(1.0115239 -0.00027063292 0)
(1.0112584 -0.00017484385 0)
(1.0110446 -8.8927332e-05 0)
(1.010921 -2.3846345e-05 0)
(0.99848229 -0.0017288904 0)
(1.0062448 -0.013442624 0)
(1.0202957 -0.015927804 0)
(1.0284188 -0.0077520538 0)
(1.025987 0.0033918041 0)
(1.0158546 0.0073214403 0)
(1.0087056 0.0017228908 0)
(1.0099846 -0.0055077414 0)
(1.0161347 -0.0097122918 0)
(1.0222136 -0.0079280321 0)
(1.024263 -0.0033480123 0)
(1.0225583 0.00093250048 0)
(1.0194634 0.0026136494 0)
(1.0169742 0.0024811825 0)
(1.0156265 0.0015637432 0)
(1.0150437 0.00084643945 0)
(1.014673 0.00043497086 0)
(1.0142755 0.00020335321 0)
(1.0138374 1.346506e-05 0)
(1.0134196 -0.00017256397 0)
(1.013054 -0.00033598154 0)
(1.0127361 -0.00044933046 0)
(1.0124453 -0.00048796902 0)
(1.0121587 -0.00045766295 0)
(1.0118651 -0.00037696422 0)
(1.0115705 -0.00027168149 0)
(1.0112942 -0.00016605457 0)
(1.0110692 -7.8508584e-05 0)
(1.0109368 -1.8912707e-05 0)
(0.9877117 -0.0022928433 0)
(1.002281 -0.014479988 0)
(1.0195511 -0.018017794 0)
(1.0290719 -0.0098751057 0)
(1.0280845 0.0057756861 0)
(1.0153575 0.0098785357 0)
(1.0060895 0.0036890899 0)
(1.007333 -0.006709327 0)
(1.0153149 -0.011958046 0)
(1.0234774 -0.010489962 0)
(1.0265963 -0.0041831581 0)
(1.0246872 0.0012486765 0)
(1.0206225 0.0039492789 0)
(1.0172469 0.0035140776 0)
(1.0156092 0.0022062861 0)
(1.0150779 0.001093455 0)
(1.0148762 0.00054178965 0)
(1.014589 0.00030253149 0)
(1.0141714 0.00013257095 0)
(1.0137338 -6.4836615e-05 0)
(1.0133485 -0.00027328101 0)
(1.0130286 -0.00044983859 0)
(1.0127547 -0.00054688387 0)
(1.0124927 -0.00055789742 0)
(1.0122178 -0.00049645127 0)
(1.0119233 -0.00038969709 0)
(1.0116184 -0.00026651979 0)
(1.0113289 -0.00015243313 0)
(1.0110908 -6.5166019e-05 0)
(1.0109487 -1.3020168e-05 0)
(0.97315363 -0.0030204464 3.8893555e-24)
(0.99508128 -0.016281749 0)
(1.0152356 -0.019752536 0)
(1.0278178 -0.010104135 0)
(1.0297791 0.0065806747 0)
(1.0157097 0.013182244 0)
(1.0028951 0.005394369 0)
(1.0040014 -0.0072512057 0)
(1.0140003 -0.015150248 0)
(1.024881 -0.013240985 0)
(1.0295534 -0.0057054763 0)
(1.0272912 0.0020992302 0)
(1.0219443 0.0053589487 0)
(1.017451 0.0050677999 0)
(1.0153119 0.0029631716 0)
(1.0149031 0.0013631672 0)
(1.0149701 0.00058483456 0)
(1.0148666 0.00035408044 0)
(1.0145086 0.00024704785 0)
(1.0140471 7.3647161e-05 0)
(1.0136226 -0.00016680362 0)
(1.0132851 -0.00040988082 0)
(1.0130241 -0.00058023819 0)
(1.0127942 -0.00065041884 0)
(1.0125561 -0.00062470283 0)
(1.0122876 -0.00052852789 0)
(1.0119858 -0.00039449004 0)
(1.0116675 -0.00025442593 0)
(1.0113617 -0.00013384471 0)
(1.0111091 -4.9021142e-05 0)
(1.0109565 -6.2542063e-06 0)
(0.95485175 -0.0041928669 1.2146875e-24)
(0.98368312 -0.017758912 -4.0597655e-24)
(1.0056675 -0.020404851 0)
(1.0192617 -0.010731131 0)
(1.0241167 0.0092281398 0)
(1.0156452 0.016972802 0)
(0.99917449 0.0077598577 0)
(1.0000307 -0.0085077202 0)
(1.0123562 -0.018440093 0)
(1.0263764 -0.017135449 0)
(1.0329419 -0.0071374757 0)
(1.0305273 0.0025865352 0)
(1.0235592 0.0077263702 0)
(1.0174409 0.0068523107 0)
(1.0147118 0.0040565026 0)
(1.0144196 0.0015707408 0)
(1.0149187 0.00051801788 0)
(1.0151366 0.00030939032 0)
(1.0148613 0.00033081922 0)
(1.0143811 0.00023708885 0)
(1.0138892 -7.1107037e-06 0)
(1.0135075 -0.00031349835 0)
(1.0132432 -0.00057326925 0)
(1.0130454 -0.00072394299 0)
(1.0128566 -0.0007545407 0)
(1.012636 -0.00068524845 0)
(1.0123661 -0.000551225 0)
(1.0120523 -0.00039033949 0)
(1.0117159 -0.0002352409 0)
(1.0113919 -0.00011035447 0)
(1.0111234 -3.0305101e-05 0)
(1.0109599 1.2428469e-06 0)
(0.93519496 -0.0057348024 -1.2177862e-24)
(0.96908331 -0.019306803 1.3532786e-23)
(0.99225516 -0.021176183 0)
(1.0042801 -0.0086418422 0)
(1.0056549 0.011581223 0)
(1.0031575 0.021609484 0)
(0.99364205 0.011230502 0)
(0.99492974 -0.0095296668 0)
(1.0102404 -0.022771246 0)
(1.0280616 -0.021241613 0)
(1.0371453 -0.0095903683 0)
(1.034423 0.0038923184 0)
(1.0254376 0.010076338 0)
(1.0173087 0.0095927254 0)
(1.0136134 0.0052531149 0)
(1.0135695 0.0018375129 0)
(1.0146542 0.00023437756 0)
(1.0153719 0.00010031726 0)
(1.015289 0.00034459542 0)
(1.0147686 0.00040986998 0)
(1.0141728 0.00021215782 0)
(1.0137031 -0.00014580848 0)
(1.0134063 -0.00051030707 0)
(1.0132317 -0.0007646056 0)
(1.0130982 -0.00087582817 0)
(1.0129428 -0.00085400763 0)
(1.0127305 -0.00073548143 0)
(1.0124526 -0.00056302346 0)
(1.0121207 -0.00037660497 0)
(1.0117633 -0.00020869331 0)
(1.0114188 -8.2166409e-05 0)
(1.0111337 -9.0396331e-06 0)
(1.010959 8.9421939e-06 0)
(0.91572543 -0.0075475207 0)
(0.95302321 -0.02111 -1.353642e-23)
(0.97678134 -0.021189199 0)
(0.98635705 -0.0064551128 0)
(0.98121052 0.017084781 0)
(0.97807806 0.025774222 0)
(0.98185636 0.014280332 0)
(0.98829835 -0.010594177 0)
(1.0076275 -0.027488187 0)
(1.029811 -0.026765754 0)
(1.0419026 -0.011851127 0)
(1.0391529 0.0046458312 0)
(1.0276882 0.013925582 0)
(1.0168513 0.012542776 0)
(1.0120118 0.0070914175 0)
(1.0121559 0.0018975019 0)
(1.0141441 -0.00023631666 0)
(1.0155711 -0.00038215704 0)
(1.0158244 0.00023866249 0)
(1.0152446 0.00056131748 0)
(1.0145134 0.00050505141 0)
(1.0138889 0.00011244455 0)
(1.0135151 -0.00036427606 0)
(1.0133413 -0.00075116661 0)
(1.0132613 -0.00097430874 0)
(1.0131842 -0.0010263544 0)
(1.0130518 -0.00094337413 0)
(1.0128387 -0.0007730464 0)
(1.0125447 -0.00056256633 0)
(1.0121903 -0.00035289783 0)
(1.0118083 -0.00017522289 0)
(1.0114419 -4.9611021e-05 0)
(1.0111394 1.4343972e-05 0)
(1.0109535 1.7995133e-05 0)
(0.89767043 -0.0096182579 -1.7048512e-25)
(0.93649241 -0.023264542 0)
(0.96088251 -0.020987019 4.3243328e-23)
(0.96709417 -0.0027726394 0)
(0.9554905 0.022384506 0)
(0.95060278 0.02949611 0)
(0.96267635 0.016801721 0)
(0.97972118 -0.012567394 0)
(1.0045523 -0.032966315 0)
(1.0319774 -0.0325823 0)
(1.0476492 -0.01566927 0)
(1.0447368 0.0065053961 0)
(1.0302734 0.017708636 0)
(1.0161492 0.017042787 0)
(1.0096146 0.0089618196 0)
(1.0101507 0.002122732 0)
(1.0132371 -0.0011775282 0)
(1.0157398 -0.0011769906 0)
(1.0165049 -9.8922107e-05 0)
(1.0159084 0.00072534334 0)
(1.014936 0.00085142975 0)
(1.0141013 0.00049799569 0)
(1.0135747 -0.00010885374 0)
(1.0133642 -0.00066406282 0)
(1.0133286 -0.0010349746 0)
(1.013338 -0.0011918533 0)
(1.0133043 -0.0011688976 0)
(1.0131821 -0.0010185076 0)
(1.0129576 -0.00079551625 0)
(1.0126412 -0.00054916405 0)
(1.0122592 -0.00031942702 0)
(1.0118505 -0.00013491837 0)
(1.0114608 -1.3111673e-05 0)
(1.0111406 3.9972682e-05 0)
(1.0109436 2.7346282e-05 0)
(0.88195719 -0.011817032 -5.6374605e-24)
(0.92019653 -0.025727902 3.6207279e-24)
(0.94491294 -0.020767876 -4.318343e-23)
(0.9483187 0.0018352361 -3.7273059e-23)
(0.93094865 0.028328415 -7.1190298e-23)
(0.92367077 0.033470458 0)
(0.94099858 0.016016525 0)
(0.96905025 -0.01467197 0)
(1.0009 -0.039634125 0)
(1.033842 -0.039605919 0)
(1.0532998 -0.018709563 0)
(1.0514325 0.0075755119 0)
(1.0332808 0.023488357 0)
(1.0150132 0.02170616 0)
(1.0064301 0.011921201 0)
(1.0072178 0.0018899212 0)
(1.0119541 -0.0023791282 0)
(1.0158392 -0.0025444186 0)
(1.0173717 -0.00069705918 0)
(1.016848 0.00079453259 0)
(1.0155304 0.0013193446 0)
(1.0143512 0.0010237682 0)
(1.0136 0.00029936183 0)
(1.0132941 -0.00046654896 0)
(1.0132824 -0.001032995 0)
(1.0133815 -0.0013357127 0)
(1.0134629 -0.0014037639 0)
(1.0134559 -0.001295898 0)
(1.0133304 -0.001075687 0)
(1.0130855 -0.00080165524 0)
(1.0127397 -0.00052263164 0)
(1.0123266 -0.00027633613 0)
(1.0118888 -8.857123e-05 0)
(1.0114751 2.7073704e-05 0)
(1.0111372 6.7073549e-05 0)
(1.0109289 3.7276153e-05 0)
(0.86922749 -0.013965835 7.6392214e-24)
(0.90458818 -0.028351291 8.099246e-24)
(0.92900419 -0.020530119 0)
(0.93047173 0.0069072603 1.4566328e-22)
(0.90942442 0.035036147 7.0737289e-23)
(0.89880208 0.037096513 -5.7036163e-23)
(0.9176429 0.016469872 -3.2271729e-23)
(0.95619335 -0.02045793 0)
(0.99737066 -0.046286347 0)
(1.0340031 -0.04587759 0)
(1.055253 -0.024142064 0)
(1.058009 0.010305415 0)
(1.0368419 0.029188391 0)
(1.0134378 0.028455402 0)
(1.0021224 0.014796349 0)
(1.0034117 0.0020199865 0)
(1.0100089 -0.0044625262 0)
(1.0159093 -0.0043795514 0)
(1.0185293 -0.001800447 0)
(1.0181467 0.00080832132 0)
(1.0164037 0.0018677294 0)
(1.0146975 0.0017597048 0)
(1.0135978 0.00090670866 0)
(1.0131209 -0.0001220395 0)
(1.0131038 -0.0009448712 0)
(1.0132923 -0.0014446991 0)
(1.0135041 -0.0016399187 0)
(1.0136345 -0.0016004576 0)
(1.0136353 -0.001401905 0)
(1.0134936 -0.0011125967 0)
(1.013219 -0.00079068996 0)
(1.0128386 -0.0004830306 0)
(1.012391 -0.00022433254 0)
(1.0119229 -3.6430628e-05 0)
(1.0114847 7.0361449e-05 0)
(1.0111293 9.5689316e-05 0)
(1.0109102 4.7306655e-05 0)
(0.85982862 -0.015833429 -8.3248707e-25)
(0.8899835 -0.030856945 -3.9671836e-25)
(0.91331947 -0.020299616 2.6538428e-23)
(0.91370955 0.012214353 -5.2333961e-23)
(0.89157933 0.041713357 -1.1221033e-22)
(0.87796134 0.041012943 -6.5198152e-24)
(0.89469406 0.015778962 -2.1408223e-22)
(0.94004943 -0.025868836 3.4874745e-23)
(0.99158074 -0.05308578 0)
(1.0302729 -0.052470828 0)
(1.0533396 -0.02634848 0)
(1.0593734 0.011206746 0)
(1.0412754 0.037355924 0)
(1.0113052 0.035481461 0)
(0.99662608 0.019221777 0)
(0.99824578 0.0013347565 0)
(1.0075343 -0.0068143948 0)
(1.0158485 -0.0072659014 0)
(1.0199974 -0.0033117403 0)
(1.0199678 0.00054042261 0)
(1.0176731 0.0026366742 0)
(1.0152146 0.0027328496 0)
(1.0135697 0.0017786151 0)
(1.0128397 0.0004292269 0)
(1.0127683 -0.00073593581 0)
(1.013044 -0.0014992055 0)
(1.0134018 -0.0018665228 0)
(1.0136927 -0.0019268026 0)
(1.0138467 -0.0017720299 0)
(1.0138383 -0.0014830525 0)
(1.0136681 -0.0011277422 0)
(1.0133562 -0.00076245924 0)
(1.0129361 -0.00043093054 0)
(1.0124516 -0.00016386359 0)
(1.011952 2.0696043e-05 0)
(1.0114893 0.00011635485 0)
(1.0111166 0.00012573359 0)
(1.0108868 5.7869255e-05 0)
(0.85400636 -0.017329563 -1.789448e-24)
(0.87670584 -0.03306453 4.8746938e-24)
(0.89806562 -0.020175614 0)
(0.89839123 0.017303474 -3.873168e-23)
(0.87710993 0.048008494 -1.461522e-23)
(0.86224188 0.044986922 0)
(0.87454061 0.014589206 9.770915e-23)
(0.92223658 -0.031268154 1.6454054e-22)
(0.98116437 -0.060491365 0)
(1.0230316 -0.055657114 0)
(1.0451158 -0.029083707 0)
(1.050411 0.015705285 0)
(1.0386434 0.046449314 0)
(1.0065384 0.045069742 0)
(0.9896751 0.023583668 0)
(0.99182182 0.0012307259 0)
(1.0040926 -0.010612571 0)
(1.0157474 -0.010718561 0)
(1.0219296 -0.0057850942 0)
(1.02239 0.00016472478 0)
(1.01949 0.0034274056 0)
(1.0160089 0.0041346373 0)
(1.0135338 0.0029767968 0)
(1.0124186 0.0012495596 0)
(1.0122415 -0.00037110776 0)
(1.0126047 -0.0014788395 0)
(1.0131291 -0.002077374 0)
(1.013607 -0.0022731265 0)
(1.0139408 -0.0021849223 0)
(1.0140937 -0.0019130914 0)
(1.0140592 -0.0015367131 0)
(1.0138503 -0.0011205402 0)
(1.0134941 -0.0007173351 0)
(1.0130307 -0.00036686964 0)
(1.0125073 -9.5778058e-05 0)
(1.0119759 8.240534e-05 0)
(1.0114891 0.00016475665 0)
(1.0110997 0.0001564162 0)
(1.0108601 6.8365557e-05 0)
(0.85194279 -0.018186111 0)
(0.8653364 -0.034705492 0)
(0.88356989 -0.02016625 -5.0434197e-24)
(0.88465957 0.02188987 0)
(0.86602349 0.053544998 5.7683719e-24)
(0.85165937 0.048820793 -3.6434526e-24)
(0.85881199 0.01333288 -1.6036625e-22)
(0.90484898 -0.038500893 -1.0880626e-22)
(0.96733525 -0.066963187 0)
(1.0117802 -0.061592649 0)
(1.0321867 -0.025949829 0)
(1.0276984 0.022280945 0)
(1.0114522 0.057772666 0)
(0.99389476 0.05614267 0)
(0.9796703 0.029719102 0)
(0.98371304 3.8383404e-05 0)
(0.9999076 -0.014658281 0)
(1.0154344 -0.015844839 0)
(1.0243016 -0.0087667445 0)
(1.0256942 -0.00082085757 0)
(1.0220193 0.0046124006 0)
(1.0171717 0.0058669161 0)
(1.013554 0.0047002244 0)
(1.0118055 0.0023873127 0)
(1.0114931 0.00021903456 0)
(1.0119279 -0.0013701988 0)
(1.0126523 -0.0022689696 0)
(1.0133509 -0.0026371432 0)
(1.0138945 -0.0026400535 0)
(1.014237 -0.0024032471 0)
(1.0143675 -0.0020193782 0)
(1.0142937 -0.0015618657 0)
(1.0140367 -0.0010910672 0)
(1.0136309 -0.00065587171 0)
(1.013121 -0.00029177294 0)
(1.0125577 -2.0661351e-05 0)
(1.0119944 0.00014801359 0)
(1.0114838 0.00021507014 0)
(1.0110783 0.0001881617 0)
(1.010829 7.9255976e-05 0)
(0.85666691 -0.035567388 -4.7548334e-25)
(0.85338867 -0.018309089 0)
(0.87033362 -0.020184151 -1.3334331e-23)
(0.87271454 0.025695961 -1.3968225e-23)
(0.85789459 0.058159947 2.8107308e-23)
(0.84495634 0.052321401 -4.3575344e-24)
(0.8479024 0.012212141 1.6411393e-23)
(0.88885659 -0.046220367 2.1297184e-23)
(0.95170408 -0.074335518 1.8277999e-22)
(0.99751663 -0.066562331 0)
(1.0173769 -0.026452082 -8.3404505e-22)
(1.0045661 0.034050626 0)
(0.97508204 0.0699367 0)
(0.96508907 0.067332563 0)
(0.9643738 0.035586509 0)
(0.97352431 -0.00075105622 0)
(0.99460119 -0.020708896 0)
(1.0150382 -0.021581168 0)
(1.0273002 -0.013332177 0)
(1.0298761 -0.0019143415 0)
(1.0254927 0.0056525177 0)
(1.0188571 0.0084183162 0)
(1.0136094 0.0069452523 0)
(1.0109889 0.0040182993 0)
(1.0104311 0.0010492563 0)
(1.0109645 -0.001142906 0)
(1.0119311 -0.0024345011 0)
(1.0128977 -0.0030277373 0)
(1.0136889 -0.0031444638 0)
(1.0142498 -0.0029567251 0)
(1.0145718 -0.0025777952 0)
(1.0146619 -0.0020895097 0)
(1.0145366 -0.0015582824 0)
(1.0142241 -0.0010399076 0)
(1.0137642 -0.0005790203 0)
(1.0132058 -0.00020641792 0)
(1.012602 6.06084e-05 0)
(1.0120071 0.00021708567 0)
(1.0114736 0.00026702223 0)
(1.0110528 0.0002204166 0)
(1.0107947 9.0119266e-05 0)
(0.8590634 -0.020256403 1.2380474e-23)
(0.8509978 -0.035712752 0)
(0.85824799 -0.017650314 6.6129811e-24)
(0.86279241 0.028484398 1.3955649e-23)
(0.85245799 0.06177308 -4.9521029e-24)
(0.84147228 0.055339502 4.0881628e-23)
(0.84110763 0.011509823 1.3764932e-23)
(0.87463139 -0.053797332 3.2092573e-23)
(0.93486053 -0.082024961 8.7535627e-23)
(0.9813873 -0.071273205 -1.5754026e-22)
(1.0014405 -0.028282568 -8.9832742e-22)
(0.98349917 0.044165619 8.6718412e-22)
(0.94602214 0.082672069 0)
(0.93077704 0.075778899 0)
(0.94243168 0.040499072 0)
(0.96137716 -0.0026486358 0)
(0.98819078 -0.027153713 0)
(1.0144101 -0.029612803 0)
(1.0308398 -0.018462604 0)
(1.0353569 -0.0041308638 0)
(1.0300783 0.0073751424 0)
(1.0211989 0.011325125 0)
(1.0137972 0.010194184 0)
(1.0098676 0.0061502462 0)
(1.0089744 0.0022225805 0)
(1.0096376 -0.00078498835 0)
(1.0109102 -0.0026023009 0)
(1.0122172 -0.0034594805 0)
(1.0133043 -0.0037088129 0)
(1.0141163 -0.0035794471 0)
(1.0146549 -0.003214371 0)
(1.0149342 -0.0027058045 0)
(1.0149698 -0.0021230336 0)
(1.0147839 -0.0015264988 0)
(1.0144099 -0.00096794294 0)
(1.0138925 -0.00048769964 0)
(1.0132842 -0.00011183417 0)
(1.01264 0.00014737241 0)
(1.0120142 0.00028900039 0)
(1.0114587 0.00032031395 0)
(1.0110234 0.00025302497 0)
(1.010757 0.00010112833 0)
(0.85520631 0.030080501 3.0696824e-24)
(0.85064593 -0.020209085 7.1840424e-24)
(0.84872829 -0.035184393 0)
(0.86627158 -0.016258536 1.2298526e-24)
(0.84979427 0.064319484 4.599135e-24)
(0.84038814 0.057840237 -3.2748322e-23)
(0.8378449 0.011256919 0)
(0.86213528 -0.060680319 -3.1847797e-23)
(0.9174797 -0.089439231 -1.6534633e-22)
(0.96366543 -0.076510702 1.5546024e-22)
(0.98418147 -0.028253635 9.3691546e-22)
(0.96662527 0.049172623 9.3152007e-22)
(0.92395089 0.094597538 0)
(0.90365286 0.081664449 0)
(0.91615531 0.043040922 0)
(0.94623434 -0.0065766089 0)
(0.9812989 -0.035895552 0)
(1.0135758 -0.038232354 0)
(1.0350964 -0.025834387 0)
(1.0419976 -0.0064366645 0)
(1.0361129 0.0086692814 0)
(1.0243816 0.015712674 0)
(1.0140614 0.014134328 0)
(1.0084335 0.0092106163 0)
(1.0069781 0.0037120148 0)
(1.0078603 -0.0002721117 0)
(1.0095262 -0.0027737161 0)
(1.011273 -0.0039657416 0)
(1.0127264 -0.0043622069 0)
(1.0138297 -0.0042877459 0)
(1.0146082 -0.0039357189 0)
(1.0150962 -0.0034125493 0)
(1.0153161 -0.002787834 0)
(1.0152862 -0.0021207527 0)
(1.0150318 -0.0014674797 0)
(1.0145915 -0.00087629463 0)
(1.0140142 -0.00038309057 0)
(1.0133554 -8.8561254e-06 0)
(1.0126711 0.00023884625 0)
(1.0120155 0.00036335684 0)
(1.0114391 0.00037454385 0)
(1.0109902 0.0002860937 0)
(1.0107163 0.00011218012 0)
(0.84986213 0.06552971 -3.854487e-24)
(0.85033608 0.030403422 -2.1093816e-24)
(0.846036 -0.01994812 -6.0827115e-24)
(0.85013098 -0.033833793 -1.5114119e-24)
(0.87728502 -0.014288632 -2.3994033e-23)
(0.84233231 0.059596772 3.3048427e-23)
(0.83738984 0.011380588 2.0147675e-23)
(0.85190865 -0.066428753 0)
(0.90006701 -0.09636747 1.6129934e-22)
(0.94471292 -0.081566625 -2.5001647e-22)
(0.9658157 -0.028691113 0)
(0.94886859 0.057398913 -1.087473e-21)
(0.90879747 0.10405653 0)
(0.88304322 0.091171028 0)
(0.89209837 0.040144666 0)
(0.9291347 -0.011567143 0)
(0.97318134 -0.045588489 0)
(1.0127415 -0.049783715 0)
(1.040032 -0.033721428 0)
(1.0502826 -0.01050075 0)
(1.0437199 0.010959352 0)
(1.0285752 0.020401696 0)
(1.0144896 0.019909483 0)
(1.0064654 0.012915075 0)
(1.0043542 0.0058299466 0)
(1.005454 0.00030799492 0)
(1.007713 -0.0029781235 0)
(1.0100208 -0.0045935216 0)
(1.0119377 -0.0051373861 0)
(1.0133859 -0.0051034851 0)
(1.0144303 -0.0047521804 0)
(1.0151412 -0.0042126515 0)
(1.0155611 -0.0035527454 0)
(1.01571 -0.0028252239 0)
(1.0156057 -0.0020838817 0)
(1.0152769 -0.0013825207 0)
(1.0147666 -0.00076622267 0)
(1.014128 -0.00026626334 0)
(1.0134188 0.00010145755 0)
(1.0126954 0.00033442035 0)
(1.0120111 0.00043959448 0)
(1.011415 0.00042955417 0)
(1.0109538 0.00031911769 0)
(1.0106729 0.00012318825 0)
(0.84810869 0.060550762 2.3036876e-24)
(0.85253164 0.065656437 3.08442e-24)
(0.84771626 0.029455238 5.598993e-24)
(0.84548155 -0.019641187 1.5648719e-24)
(0.85520631 -0.031764346 -1.5585518e-23)
(0.8909956 -0.011747539 1.6878504e-23)
(0.8400704 0.011481136 -4.1998355e-23)
(0.84637953 -0.070798511 -1.4990962e-23)
(0.88346826 -0.10246815 -1.7182071e-22)
(0.9249903 -0.086303238 2.4091416e-22)
(0.94652737 -0.02881853 -8.1142557e-22)
(0.93149194 0.064594955 3.6140214e-22)
(0.89432182 0.11438929 0)
(0.86861532 0.10071323 2.9064288e-22)
(0.87133892 0.043887547 -1.2617656e-21)