/*--------------------------------*- C++ -*----------------------------------*\
| =========                 |                                                 |
| \\      /  F ield         | OpenFOAM: The Open Source CFD Toolbox           |
|  \\    /   O peration     | Version:  5.0                                   |
|   \\  /    A nd           | Web:      www.OpenFOAM.org                      |
|    \\/     M anipulation  |                                                 |
\*---------------------------------------------------------------------------*/
FoamFile
{
    version     2.0;
    format      ascii;
    class       volVectorField;
    location    "80";
    object      UMean;
}
// * * * * * * * * * * * * * * * * * * * * * * * * * * * * * * * * * * * * * //

dimensions      [0 1 -1 0 0 0 0];

internalField   nonuniform List<vector> 
9520
(
(1.0026855 -0.00016038047 0)
(1.0027316 -0.00047006904 0)
(1.0031672 -0.00016513906 0)
(1.0028135 -0.00075674017 0)
(1.0032106 -0.00048396357 0)
(1.0033631 -0.00016891357 0)
(1.0029237 -0.0010212402 0)
(1.0032867 -0.00077898786 0)
(1.0034047 -0.00049516872 0)
(1.0036874 -0.00017567014 0)
(1.0030553 -0.00126389 0)
(1.003389 -0.0010511993 0)
(1.0034787 -0.00079717057 0)
(1.0037272 -0.00051498162 0)
(1.0039428 -0.000182146 0)
(1.003202 -0.0014858424 0)
(1.0035107 -0.0013009159 0)
(1.0035781 -0.0010758989 0)
(1.0037974 -0.00082920883 0)
(1.0039811 -0.00053405924 0)
(1.0042391 -0.00019079883 0)
(1.0033584 -0.0016881099 0)
(1.0036463 -0.0015293019 0)
(1.0036964 -0.0013316287 0)
(1.0038914 -0.001119292 0)
(1.0040486 -0.000860097 0)
(1.0042759 -0.00055956067 0)
(1.0045128 -0.00019921918 0)
(1.0035198 -0.0018717945 0)
(1.0037903 -0.0017375201 0)
(1.0038279 -0.0015654385 0)
(1.0040029 -0.0013856079 0)
(1.0041389 -0.0011612089 0)
(1.0043403 -0.0009015543 0)
(1.0045482 -0.00058440693 0)
(1.0048075 -0.00020924212 0)
(1.003682 -0.0020384809 0)
(1.0039384 -0.0019270456 0)
(1.0039676 -0.0017782132 0)
(1.0041266 -0.0016293363 0)
(1.0042458 -0.0014377182 0)
(1.0044261 -0.001217807 0)
(1.0046101 -0.00094196841 0)
(1.0048419 -0.00061405465 0)
(1.0050913 -0.00021899643 0)
(1.0038417 -0.0021885513 0)
(1.0040862 -0.0020986715 0)
(1.0041112 -0.0019708686 0)
(1.0042575 -0.0018514974 0)
(1.004364 -0.0016907582 0)
(1.0045274 -0.0015086114 0)
(1.0046922 -0.0012730144 0)
(1.0049015 -0.00099042457 0)
(1.0051248 -0.00064294144 0)
(1.0053901 -0.00022974579 0)
(1.0039961 -0.0023253193 0)
(1.0042317 -0.0022527464 0)
(1.0042544 -0.0021461079 0)
(1.0043914 -0.0020533798 0)
(1.0044887 -0.0019213079 0)
(1.004639 -0.0017750137 0)
(1.0047887 -0.0015778136 0)
(1.0049803 -0.0013395692 0)
(1.0051825 -0.0010377261 0)
(1.0054233 -0.00067489456 0)
(1.0056818 -0.00024008425 0)
(1.0041432 -0.0024439433 0)
(1.0043713 -0.0023935184 0)
(1.004394 -0.0023044253 0)
(1.0045248 -0.0022361779 0)
(1.0046163 -0.0021306676 0)
(1.0047561 -0.0020178984 0)
(1.0048943 -0.0018573053 0)
(1.005072 -0.0016617292 0)
(1.0052584 -0.0014047442 0)
(1.0054801 -0.0010903839 0)
(1.0057149 -0.00070568015 0)
(1.0059847 -0.00025084379 0)
(1.0042815 -0.0025596428 0)
(1.0045036 -0.0025171921 0)
(1.0045275 -0.002448138 0)
(1.0046557 -0.0024011035 0)
(1.0047434 -0.0023203973 0)
(1.004875 -0.0022384018 0)
(1.0050047 -0.0021122832 0)
(1.0051716 -0.0019577215 0)
(1.005346 -0.0017442465 0)
(1.005554 -0.001477806 0)
(1.0057711 -0.001141279 0)
(1.0060185 -0.00073787016 0)
(1.0062818 -0.00026094544 0)
(1.0044094 -0.0026437974 0)
(1.0046257 -0.0026359249 0)
(1.0046541 -0.0025752066 0)
(1.0047814 -0.0025515261 0)
(1.0048672 -0.0024917151 0)
(1.0049928 -0.0024378554 0)
(1.0051161 -0.0023438054 0)
(1.0052744 -0.0022281207 0)
(1.0054402 -0.002056894 0)
(1.0056382 -0.0018373879 0)
(1.0058437 -0.0015487841 0)
(1.0060756 -0.0011949236 0)
(1.0063166 -0.00076818522 0)
(1.0065863 -0.00027091275 0)
(1.004528 -0.002753355 0)
(1.0047392 -0.0027265328 0)
(1.0047713 -0.0026969205 0)
(1.0049002 -0.0026853168 0)
(1.0049855 -0.0026466988 0)
(1.0051073 -0.0026173284 0)
(1.0052257 -0.0025530015 0)
(1.0053771 -0.0024737451 0)
(1.0055364 -0.0023430704 0)
(1.0057273 -0.002169608 0)
(1.0059255 -0.0019284924 0)
(1.0061484 -0.0016242696 0)
(1.0063752 -0.0012457224 0)
(1.0066233 -0.00079827864 0)
(1.0068849 -0.00027992224 0)
(1.0046333 -0.0027944436 0)
(1.0048406 -0.002838512 0)
(1.0048798 -0.0027921359 0)
(1.0050096 -0.0028121699 0)
(1.0050973 -0.0027844992 0)
(1.0052167 -0.0027793405 0)
(1.0053314 -0.0027410699 0)
(1.0054767 -0.0026956112 0)
(1.0056311 -0.0026034093 0)
(1.0058167 -0.0024745832 0)
(1.0060107 -0.0022806965 0)
(1.0062291 -0.0020262511 0)
(1.0064492 -0.0016963221 0)
(1.0066852 -0.0012966713 0)
(1.0069244 -0.00082562493 0)
(1.0071871 -0.00028827101 0)
(1.0047301 -0.0029137601 0)
(1.0049339 -0.0028857808 0)
(1.0049744 -0.0029084368 0)
(1.0051112 -0.0029134963 0)
(1.0052004 -0.0029136837 0)
(1.0053195 -0.0029229027 0)
(1.0054311 -0.0029097409 0)
(1.0055716 -0.0028946953 0)
(1.0057214 -0.0028387217 0)
(1.0059029 -0.0027526372 0)
(1.0060944 -0.0026052133 0)
(1.0063114 -0.0024009434 0)
(1.0065302 -0.0021204901 0)
(1.0067626 -0.0017694439 0)
(1.0069905 -0.001343393 0)
(1.0072305 -0.00085119187 0)
(1.0074824 -0.00029535848 0)
(1.0048096 -0.0029048402 0)
(1.0050132 -0.0030089394 0)
(1.0050605 -0.0029616323 0)
(1.0052006 -0.0030326666 0)
(1.0052962 -0.0030188732 0)
(1.0054139 -0.0030552904 0)
(1.005524 -0.0030586195 0)
(1.0056598 -0.0030726898 0)
(1.0058058 -0.0030498814 0)
(1.0059831 -0.0030043467 0)
(1.006173 -0.0029020314 0)
(1.0063901 -0.0027478151 0)
(1.0066112 -0.0025181318 0)
(1.0068461 -0.0022172863 0)
(1.0070727 -0.0018373224 0)
(1.0073029 -0.0013877238 0)
(1.0075302 -0.00087311341 0)
(1.0077773 -0.00030132152 0)
(1.0048867 -0.0030432353 0)
(1.0050786 -0.0030037156 0)
(1.0051317 -0.0030933304 0)
(1.0052838 -0.0030915091 0)
(1.0053809 -0.0031385232 0)
(1.0055012 -0.003163369 0)
(1.0056082 -0.003193899 0)
(1.0057402 -0.0032293393 0)
(1.0058824 -0.0032382787 0)
(1.0060559 -0.0032302686 0)
(1.0062439 -0.0031713097 0)
(1.0064613 -0.0030663743 0)
(1.0066864 -0.002888321 0)
(1.0069276 -0.0026399205 0)
(1.0071605 -0.0023084257 0)
(1.0073926 -0.0019028198 0)
(1.0076101 -0.0014263519 0)
(1.0078308 -0.00089186134 0)
(1.0080641 -0.00030576163 0)
(1.0049395 -0.0029816113 0)
(1.0051308 -0.0031546909 0)
(1.0051923 -0.0030919371 0)
(1.0053523 -0.0032267954 0)
(1.0054606 -0.0032013499 0)
(1.0055782 -0.003281095 0)
(1.0056846 -0.0033050577 0)
(1.0058112 -0.0033699981 0)
(1.0059501 -0.0034041706 0)
(1.0061197 -0.0034319347 0)
(1.0063057 -0.0034133663 0)
(1.0065225 -0.0033562862 0)
(1.0067516 -0.0032300546 0)
(1.0070008 -0.003036018 0)
(1.0072448 -0.002756339 0)
(1.0074876 -0.002397879 0)
(1.0077089 -0.0019610371 0)
(1.0079206 -0.0014602468 0)
(1.0081238 -0.0009061668 0)
(1.0083463 -0.00030871784 0)
(1.0049968 -0.003136258 0)
(1.0051631 -0.003088627 0)
(1.0052387 -0.0032565907 0)
(1.0054137 -0.003231709 0)
(1.0055275 -0.0033366166 0)
(1.0056513 -0.0033430332 0)
(1.0057503 -0.0034211699 0)
(1.005874 -0.0034859173 0)
(1.0060077 -0.0035522097 0)
(1.0061734 -0.0036097833 0)
(1.0063571 -0.0036296243 0)
(1.0065724 -0.003617406 0)
(1.0068041 -0.0035423373 0)
(1.007061 -0.0034039576 0)
(1.0073184 -0.0031793466 0)
(1.0075775 -0.0028724925 0)
(1.0078133 -0.0024791211 0)
(1.0080317 -0.0020135748 0)
(1.0082246 -0.0014870712 0)
(1.0084138 -0.00091618689 0)
(1.008619 -0.0003099635 0)
(1.0050183 -0.0030391311 0)
(1.0051943 -0.003273031 0)
(1.0052711 -0.0031954569 0)
(1.00546 -0.0034043294 0)
(1.0055897 -0.0033421548 0)
(1.0057116 -0.0034715399 0)
(1.0058115 -0.0034838526 0)
(1.0059258 -0.0036029603 0)
(1.0060572 -0.0036757397 0)
(1.0062173 -0.0037679486 0)
(1.0063977 -0.0038204881 0)
(1.0066105 -0.0038507831 0)
(1.0068427 -0.0038245812 0)
(1.0071053 -0.0037420686 0)
(1.0073758 -0.0035752112 0)
(1.007654 -0.00332459 0)
(1.0079117 -0.0029802903 0)
(1.0081491 -0.0025544368 0)
(1.0083497 -0.0020568413 0)
(1.0085279 -0.0015072128 0)
(1.0086946 -0.00092117385 0)
(1.0088837 -0.00030948987 0)
(1.0050503 -0.0031840308 0)
(1.0051908 -0.0031572453 0)
(1.0052913 -0.0033975388 0)
(1.0054969 -0.0033476497 0)
(1.0056392 -0.0035165289 0)
(1.0057695 -0.0034696451 0)
(1.0058589 -0.0036067457 0)
(1.0059718 -0.0036686913 0)
(1.006095 -0.0037972305 0)
(1.0062526 -0.003901739 0)
(1.0064285 -0.0039898005 0)
(1.0066365 -0.0040565636 0)
(1.0068672 -0.0040766981 0)
(1.0071323 -0.0040489233 0)
(1.0074135 -0.0039414439 0)
(1.0077108 -0.0037512992 0)
(1.0079944 -0.0034622007 0)
(1.0082596 -0.0030826992 0)
(1.0084827 -0.0026188788 0)
(1.0086705 -0.0020915461 0)
(1.0088232 -0.0015192117 0)
(1.0089685 -0.00092112945 0)
(1.0091372 -0.00030720588 0)
(1.005043 -0.0030917301 0)
(1.0051957 -0.0033505529 0)
(1.0052857 -0.0032901235 0)
(1.0055242 -0.0035675417 0)
(1.0056824 -0.0034547883 0)
(1.0058152 -0.0036338349 0)
(1.0059042 -0.0035994055 0)
(1.0060012 -0.0037889471 0)
(1.0061257 -0.0038714346 0)
(1.0062765 -0.0040302505 0)
(1.0064503 -0.0041340769 0)
(1.0066522 -0.0042382442 0)
(1.006878 -0.0042989371 0)
(1.007142 -0.0043235779 0)
(1.00743 -0.0042758214 0)
(1.0077438 -0.0041493549 0)
(1.0080538 -0.0039213957 0)
(1.0083521 -0.0035958424 0)
(1.0086088 -0.0031734112 0)
(1.008823 -0.0026734982 0)
(1.0089849 -0.0021153079 0)
(1.0091139 -0.0015231386 0)
(1.0092318 -0.00091571743 0)
(1.0093797 -0.00030311224 0)
(1.0050344 -0.0031819879 0)
(1.0051549 -0.0032275174 0)
(1.0052784 -0.0035039729 0)
(1.0055259 -0.00346145 0)
(1.0057188 -0.0036811088 0)
(1.0058578 -0.0035559593 0)
(1.0059355 -0.003754124 0)
(1.0060277 -0.0037810536 0)
(1.0061382 -0.0039945497 0)
(1.0062935 -0.0041154434 0)
(1.006462 -0.0042699631 0)
(1.0066585 -0.0043928527 0)
(1.0068769 -0.0044937174 0)
(1.0071353 -0.004565875 0)
(1.0074251 -0.0045765215 0)
(1.0077509 -0.0045155859 0)
(1.008085 -0.0043538101 0)
(1.0084178 -0.004089933 0)
(1.008715 -0.0037178914 0)
(1.0089688 -0.0032537826 0)
(1.0091595 -0.0027148384 0)
(1.009298 -0.0021282918 0)
(1.0093949 -0.0015182595 0)
(1.009485 -0.00090493251 0)
(1.0096098 -0.00029721146 0)
(1.0050281 -0.0031412659 0)
(1.0051171 -0.0033796929 0)
(1.0052323 -0.0033956555 0)
(1.0055304 -0.0037107252 0)
(1.0057353 -0.0035596842 0)
(1.0058939 -0.0037704368 0)
(1.0059642 -0.0036607881 0)
(1.0060357 -0.0039325632 0)
(1.0061477 -0.0039961521 0)
(1.0062926 -0.0042442656 0)
(1.0064682 -0.0043657354 0)
(1.0066564 -0.0045349159 0)
(1.0068659 -0.0046586516 0)
(1.0071141 -0.0047767263 0)
(1.0074002 -0.0048422628 0)
(1.0077318 -0.0048472791 0)
(1.0080853 -0.0047554033 0)
(1.0084507 -0.0045601812 0)
(1.0087912 -0.0042479803 0)
(1.0090934 -0.0038299979 0)
(1.0093287 -0.0033192023 0)
(1.0094987 -0.0027431421 0)
(1.0096027 -0.002129174 0)
(1.0096676 -0.0015045697 0)
(1.0097261 -0.0008887453 0)
(1.0098269 -0.00028954252 0)
(1.0050019 -0.0031401188 0)
(1.0050652 -0.0033091343 0)
(1.0051846 -0.003564317 0)
(1.0054933 -0.0035987358 0)
(1.0057583 -0.00382199 0)
(1.0059143 -0.0036196262 0)
(1.0059827 -0.0038622797 0)
(1.0060398 -0.0038318823 0)
(1.0061344 -0.0041539994 0)
(1.0062898 -0.0042597641 0)
(1.0064596 -0.0044993515 0)
(1.0066499 -0.0046376091 0)
(1.0068466 -0.004806096 0)
(1.0070811 -0.0049541249 0)
(1.007357 -0.0050734908 0)
(1.0076878 -0.0051420428 0)
(1.0080539 -0.0051223972 0)
(1.0084471 -0.0050015391 0)
(1.00883 -0.0047581678 0)
(1.0091849 -0.0043975686 0)
(1.009476 -0.0039262951 0)
(1.0096957 -0.003369891 0)
(1.0098319 -0.0027562961 0)
(1.0099021 -0.0021179076 0)
(1.0099288 -0.0014818859 0)
(1.0099548 -0.00086725439 0)
(1.0100303 -0.00028017042 0)
(1.0049331 -0.0031587495 0)
(1.0049856 -0.0033723219 0)
(1.0051348 -0.0035190884 0)
(1.0054612 -0.0038224996 0)
(1.0057454 -0.0036853286 0)
(1.0059411 -0.003870984 0)
(1.0059858 -0.003680428 0)
(1.0060265 -0.0040322419 0)
(1.0061166 -0.004062677 0)
(1.0062633 -0.0044287011 0)
(1.0064515 -0.004527628 0)
(1.0066329 -0.0047703493 0)
(1.006824 -0.0049125016 0)
(1.007038 -0.0051083189 0)
(1.0072991 -0.0052676672 0)
(1.0076209 -0.0053996698 0)
(1.0079921 -0.0054517072 0)
(1.0084058 -0.0054092154 0)
(1.0088268 -0.0052425125 0)
(1.0092346 -0.0049504009 0)
(1.009588 -0.0045314694 0)
(1.0098711 -0.0040069661 0)
(1.0100604 -0.0034028401 0)
(1.0101634 -0.0027541582 0)
(1.0101911 -0.0020940284 0)
(1.0101788 -0.0014503181 0)
(1.01017 -0.00084063114 0)
(1.0102196 -0.00026917971 0)
(1.0039702 -0.0030882849 0)
(1.0049342 -0.0033900986 0)
(1.0050697 -0.0035899702 0)
(1.0054201 -0.0037774531 0)
(1.0057426 -0.0039265148 0)
(1.0059367 -0.00368762 0)
(1.0059904 -0.0039153671 0)
(1.0059955 -0.0038311148 0)
(1.0060747 -0.0042781413 0)
(1.0062345 -0.0043548179 0)
(1.0064233 -0.0047050503 0)
(1.0066196 -0.0048028321 0)
(1.0067935 -0.005039686 0)
(1.0069909 -0.0052183419 0)
(1.0072277 -0.0054330255 0)
(1.0075346 -0.0056169634 0)
(1.0079022 -0.0057414268 0)
(1.0083278 -0.0057790545 0)
(1.0087797 -0.0056953252 0)
(1.0092365 -0.0054816297 0)
(1.0096539 -0.0051282004 0)
(1.0100093 -0.0046498641 0)
(1.0102682 -0.0040679379 0)
(1.0104277 -0.003417656 0)
(1.0104864 -0.0027357858 0)
(1.0104711 -0.0020575504 0)
(1.0104159 -0.0014100712 0)
(1.0103712 -0.00080910698 0)
(1.0103945 -0.00025667747 0)
(1.0025536 -0.0031702772 0)
(1.003944 -0.0033742815 0)
(1.0050483 -0.0036425335 0)
(1.0053531 -0.0039074923 0)
(1.0057311 -0.0038512556 0)
(1.005942 -0.0039164384 0)
(1.0059625 -0.0036822282 0)
(1.0059577 -0.0040701654 0)
(1.0060138 -0.0040841451 0)
(1.0061794 -0.0045948412 0)
(1.0063976 -0.0046459756 0)
(1.006592 -0.0049768763 0)
(1.0067694 -0.0050686891 0)
(1.0069362 -0.0053382165 0)
(1.0071492 -0.0055515266 0)
(1.0074305 -0.0058006504 0)
(1.0077874 -0.0059889826 0)
(1.0082155 -0.0061079711 0)
(1.0086889 -0.0061111385 0)
(1.0091878 -0.005984112 0)
(1.0096666 -0.0057088125 0)
(1.0100978 -0.0052918091 0)
(1.010438 -0.0047474651 0)
(1.0106735 -0.0041084746 0)
(1.0107896 -0.0034127823 0)
(1.0108033 -0.0027010029 0)
(1.0107387 -0.0020086494 0)
(1.0106395 -0.0013614681 0)
(1.0105581 -0.0007729874 0)
(1.0105548 -0.0002427859 0)
(1.0000542 -0.0030393782 1.0407577e-24)
(1.0025547 -0.0035019392 0)
(1.0041716 -0.003600455 0)
(1.0053246 -0.0039758825 0)
(1.0056861 -0.0040015962 0)
(1.0059536 -0.0037820007 0)
(1.0059386 -0.0038862969 0)
(1.0058816 -0.0038039045 0)
(1.0059378 -0.0043538116 0)
(1.0061082 -0.0044214522 0)
(1.0063503 -0.0049063659 0)
(1.0065739 -0.0049160578 0)
(1.0067351 -0.0052273445 0)
(1.0068879 -0.005360326 0)
(1.0070611 -0.0056691292 0)
(1.007315 -0.0059349941 0)
(1.0076501 -0.0061990833 0)
(1.0080726 -0.0063933961 0)
(1.0085571 -0.0064857443 0)
(1.0090882 -0.0064516916 0)
(1.0096218 -0.0062652517 0)
(1.0101274 -0.0059244934 0)
(1.0105552 -0.0054346478 0)
(1.0108811 -0.004823153 0)
(1.0110773 -0.0041262295 0)
(1.0111493 -0.0033876634 0)
(1.0111092 -0.0026498126 0)
(1.0109941 -0.001947592 0)
(1.0108489 -0.0013049646 0)
(1.0107304 -0.00073262269 0)
(1.0107006 -0.00022764144 0)
(0.99536867 -0.0031039291 -2.6217298e-24)
(0.99988688 -0.0034336332 -1.0882674e-24)
(1.0028222 -0.0037603176 0)
(1.0044876 -0.0039666708 0)
(1.005634 -0.0040496892 0)
(1.0059418 -0.0039084346 0)
(1.0059254 -0.0036886586 0)
(1.0058024 -0.0040131446 0)
(1.0058185 -0.0040912193 0)
(1.0060179 -0.0047385589 0)
(1.0062931 -0.0047496547 0)
(1.0065419 -0.0051769444 0)
(1.0067167 -0.005148372 0)
(1.0068299 -0.0054963367 0)
(1.006976 -0.005690559 0)
(1.0071857 -0.0060597154 0)
(1.0074961 -0.0063585466 0)
(1.0079021 -0.006637695 0)
(1.0083885 -0.0068153352 0)
(1.0089399 -0.0068784796 0)
(1.0095186 -0.006789349 0)
(1.0100927 -0.0065386493 0)
(1.0106088 -0.0061207205 0)
(1.0110342 -0.0055552051 0)
(1.0113282 -0.0048735496 0)
(1.0114841 -0.0041200613 0)
(1.0115002 -0.0033420036 0)
(1.011405 -0.002582274 0)
(1.0112355 -0.0018749723 0)
(1.0110436 -0.0012410879 0)
(1.0108878 -0.00068841135 0)
(1.0108319 -0.00021139887 0)
(0.98983611 -0.002904047 2.629177e-24)
(0.99489212 -0.00355991 2.2702704e-24)
(1.0001358 -0.0036760711 0)
(1.0031482 -0.0041259839 0)
(1.0047633 -0.0040281261 0)
(1.005776 -0.0038953568 0)
(1.0058937 -0.0037667534 0)
(1.0057194 -0.0037777218 0)
(1.0056912 -0.0043478941 0)
(1.0058873 -0.0045001025 0)
(1.0062221 -0.0051094003 0)
(1.0065099 -0.0050106584 0)
(1.0066893 -0.0053876677 0)
(1.0067909 -0.0053911844 0)
(1.0068783 -0.0058080822 0)
(1.0070547 -0.0060908982 0)
(1.007324 -0.0065015151 0)
(1.0077095 -0.0068307195 0)
(1.0081869 -0.0071013164 0)
(1.0087472 -0.0072598589 0)
(1.0093586 -0.0072744364 0)
(1.0099913 -0.0071251241 0)
(1.0105914 -0.0067956652 0)
(1.0111195 -0.006295738 0)
(1.0115238 -0.0056488574 0)
(1.0117845 -0.004896853 0)
(1.0118852 -0.0040892546 0)
(1.011844 -0.0032754285 0)
(1.0116873 -0.0024990736 0)
(1.0114625 -0.0017913794 0)
(1.0112232 -0.0011704614 0)
(1.0110306 -0.00064076601 0)
(1.010949 -0.00019420638 0)
(0.9835563 -0.002835502 0)
(0.98892583 -0.0034198193 -2.2757963e-24)
(0.99505854 -0.0038142503 0)
(1.0003929 -0.0040518624 0)
(1.0033504 -0.0041334588 0)
(1.0047116 -0.003834977 0)
(1.0056191 -0.0036782941 0)
(1.0056133 -0.0038435141 0)
(1.0055459 -0.0041205665 0)
(1.0057451 -0.0048322672 0)
(1.0061179 -0.0048881702 0)
(1.0064733 -0.0053832498 0)
(1.006672 -0.0051822431 0)
(1.0067419 -0.0055957492 0)
(1.0067973 -0.0056849578 0)
(1.0069062 -0.0062024291 0)
(1.0071455 -0.0065551941 0)
(1.0074946 -0.0070013031 0)
(1.007958 -0.0073353605 0)
(1.0085157 -0.0075946376 0)
(1.009146 -0.0077140159 0)
(1.0098244 -0.0076748417 0)
(1.010499 -0.0074486769 0)
(1.0111273 -0.007033986 0)
(1.0116485 -0.0064434355 0)
(1.01203 -0.0057131037 0)
(1.0122399 -0.0048915775 0)
(1.0122837 -0.0040326705 0)
(1.0121755 -0.0031886598 0)
(1.0119562 -0.0024006582 0)
(1.0116742 -0.0016976519 0)
(1.0113876 -0.001093753 0)
(1.0111587 -0.00059012152 0)
(1.0110523 -0.00017617224 0)
(0.97625987 -0.0025241445 -7.4234782e-25)
(0.98200966 -0.0034023036 0)
(0.98894079 -0.0036911982 -3.6649163e-24)
(0.99519106 -0.0041859718 0)
(1.0004492 -0.0039979717 0)
(1.003148 -0.0038761876 0)
(1.0043571 -0.003579513 0)
(1.0052776 -0.0037218992 0)
(1.0053699 -0.0042403337 0)
(1.0055856 -0.0046392743 0)
(1.0060095 -0.005293896 0)
(1.0064169 -0.0051418415 0)
(1.0066557 -0.0055301033 0)
(1.0067081 -0.0053343495 0)
(1.0066997 -0.0058602122 0)
(1.0067694 -0.0060790127 0)
(1.0069444 -0.006676135 0)
(1.0072698 -0.0070872429 0)
(1.0077031 -0.0075410914 0)
(1.0082517 -0.0078760175 0)
(1.0088866 -0.008104947 0)
(1.0095954 -0.0081801293 0)
(1.0103316 -0.0080692947 0)
(1.0110518 -0.0077582518 0)
(1.0116902 -0.0072463322 0)
(1.0122026 -0.0065606913 0)
(1.0125417 -0.0057453062 0)
(1.0126983 -0.0048557538 0)
(1.012672 -0.0039510679 0)
(1.0124955 -0.0030817269 0)
(1.0122096 -0.0022881433 0)
(1.0118701 -0.0015946506 0)
(1.0115366 -0.0010116775 0)
(1.0112724 -0.0005369244 0)
(1.0111421 -0.00015749317 0)
(0.96818964 -0.0022737205 9.3392974e-24)
(0.97401093 -0.0031485176 4.9173015e-24)
(0.9817936 -0.0037109157 3.663871e-24)
(0.9888483 -0.0040449724 4.0050439e-24)
(0.99508595 -0.0040711757 4.6017523e-24)
(1.0000425 -0.0036652517 0)
(1.0026799 -0.0035924138 0)
(1.0039254 -0.0036144459 0)
(1.0050234 -0.0041569494 0)
(1.0054009 -0.0048548967 0)
(1.0058893 -0.0051219133 0)
(1.0063682 -0.0055788382 0)
(1.0066327 -0.0052197193 0)
(1.0066743 -0.0056371605 0)
(1.0066164 -0.0055526217 0)
(1.0066061 -0.0062436619 0)
(1.0067502 -0.0065735961 0)
(1.0070192 -0.0072291954 0)
(1.0074356 -0.0076662954 0)
(1.0079578 -0.0081227187 0)
(1.0085891 -0.0084402169 0)
(1.0093104 -0.0086354129 0)
(1.010092 -0.0086476344 0)
(1.010891 -0.0084561625 0)
(1.011641 -0.0080448367 0)
(1.0122878 -0.0074287152 0)
(1.0127704 -0.0066433055 0)
(1.0130634 -0.0057426172 0)
(1.0131501 -0.0047897446 0)
(1.013052 -0.0038435852 0)
(1.0128002 -0.0029560762 0)
(1.0124471 -0.0021623693 0)
(1.01205 -0.0014833628 0)
(1.0116705 -0.00092496379 0)
(1.0113722 -0.00048161757 0)
(1.011219 -0.00013827949 0)
(0.95933126 -0.0018299595 -1.3638264e-23)
(0.96521692 -0.0029264273 -7.524844e-24)
(0.97351531 -0.0034822071 0)
(0.98132318 -0.0040450084 -1.2332871e-23)
(0.98850387 -0.0038533686 -4.5867472e-24)
(0.99450137 -0.0036901486 -7.8028204e-24)
(0.99938952 -0.0033390343 -4.1393301e-24)
(1.0022447 -0.0036666804 0)
(1.0037008 -0.0040983081 0)
(1.0050927 -0.0048371093 0)
(1.0057315 -0.005436907 0)
(1.0063075 -0.0053766062 0)
(1.0066261 -0.0056331616 0)
(1.0066391 -0.0052309415 0)
(1.0065236 -0.0058181336 0)
(1.0064537 -0.005916072 0)
(1.0065209 -0.0067495914 0)
(1.0067731 -0.0071612762 0)
(1.0071419 -0.0078360241 0)
(1.0076484 -0.0082909222 0)
(1.0082565 -0.0087340807 0)
(1.0089787 -0.0090321842 0)
(1.0097855 -0.0091756531 0)
(1.0106469 -0.0091157011 0)
(1.0114964 -0.0088253823 0)
(1.0122749 -0.0083041552 0)
(1.0129089 -0.0075753057 0)
(1.0133568 -0.0066875281 0)
(1.0135841 -0.0057044891 0)
(1.0135981 -0.0046917843 0)
(1.0134174 -0.003712224 0)
(1.0130896 -0.0028122368 0)
(1.0126677 -0.0020246948 0)
(1.0122136 -0.0013647896 0)
(1.0117895 -0.0008343588 0)
(1.0114585 -0.00042462864 0)
(1.0112836 -0.00011867983 0)
(0.94926822 -0.0014113109 -3.5883734e-25)
(0.95555868 -0.0024942637 1.0899616e-24)
(0.96438741 -0.0033032492 -2.3052947e-24)
(0.97255541 -0.0037927343 4.1773515e-24)
(0.98064537 -0.0037774326 8.6599314e-24)
(0.98768565 -0.0034023339 -5.6554553e-24)
(0.99370778 -0.0033574791 -2.7460961e-23)
(0.99883929 -0.0034250848 5.7344987e-24)
(1.0021347 -0.004235841 0)
(1.0038403 -0.0048501969 0)
(1.0054666 -0.005444271 0)
(1.0061754 -0.0057502753 0)
(1.0066378 -0.0053265192 0)
(1.0066192 -0.0055876789 0)
(1.0064265 -0.0053260058 0)
(1.006277 -0.0061744674 0)
(1.0063006 -0.0064332434 0)
(1.0064877 -0.0073623124 0)
(1.0068516 -0.0078100298 0)
(1.0073144 -0.0084906377 0)
(1.0079047 -0.0089486764 0)
(1.0086062 -0.0093805321 0)
(1.0094211 -0.009643989 0)
(1.0103236 -0.0097266372 0)
(1.0112564 -0.0095741477 0)
(1.012157 -0.0091723157 0)
(1.0129436 -0.0085283055 0)
(1.0135587 -0.0076812571 0)
(1.0139497 -0.0066913487 0)
(1.0141068 -0.0056282317 0)
(1.0140335 -0.0045639476 0)
(1.0137694 -0.0035565359 0)
(1.0133613 -0.0026520903 0)
(1.012871 -0.0018762593 0)
(1.0123609 -0.0012399871 0)
(1.0118938 -0.00074060453 0)
(1.0115318 -0.00036638834 0)
(1.0113365 -9.8871362e-05 0)
(0.93775609 -0.00079411269 5.4913623e-24)
(0.94461673 -0.0020622678 -6.8557045e-25)
(0.95432604 -0.0029141817 0)
(0.9628991 -0.0035736087 3.908475e-24)
(0.97148477 -0.0034470793 2.23588e-25)
(0.97949486 -0.0032617231 0)
(0.98668964 -0.0030435698 1.576822e-23)
(0.99308754 -0.0035015618 2.2589076e-23)
(0.99873067 -0.0040611556 0)
(1.0024271 -0.0050664735 0)
(1.0042799 -0.0055266782 0)
(1.0059154 -0.0057159206 0)
(1.0065366 -0.0056660421 0)
(1.0066121 -0.0051437255 0)
(1.0063341 -0.0056384951 0)
(1.0060903 -0.0056343154 0)
(1.0060418 -0.0067198861 0)
(1.0062131 -0.0070777466 0)
(1.0065231 -0.0080398152 0)
(1.0069846 -0.0085062794 0)
(1.0075289 -0.0091796561 0)
(1.0082078 -0.009646667 0)
(1.0090073 -0.010055595 0)
(1.0099289 -0.010277169 0)
(1.0109242 -0.010277741 0)
(1.0119313 -0.010017745 0)
(1.0128646 -0.0094871743 0)
(1.0136526 -0.0087114095 0)
(1.0142249 -0.007742668 0)
(1.0145523 -0.0066511125 0)
(1.014621 -0.005515403 0)
(1.0144585 -0.0044048694 0)
(1.014103 -0.0033794506 0)
(1.0136151 -0.0024766129 0)
(1.0130566 -0.0017185192 0)
(1.0124922 -0.0011099933 0)
(1.011984 -0.0006444213 0)
(1.0115927 -0.00030731535 0)
(1.0113784 -7.9016067e-05 0)
(0.92502953 -0.00020728911 0)
(0.93214456 -0.0013949991 0)
(0.94287392 -0.0025142893 7.0785559e-25)
(0.95221792 -0.0031426221 0)
(0.96141124 -0.0031488003 2.5175709e-26)
(0.96993629 -0.0028718377 -5.4978527e-24)
(0.97820479 -0.0028925515 -3.2682554e-23)
(0.98591778 -0.0032406579 -3.7960132e-23)
(0.9930044 -0.0042149189 0)
(0.9990743 -0.0049617778 0)
(1.0029694 -0.0057556905 0)
(1.0047103 -0.0058010433 0)
(1.0061241 -0.0055155186 0)
(1.006482 -0.0053887479 0)
(1.0062334 -0.0050693767 0)
(1.0058918 -0.005951074 0)
(1.0057708 -0.006177902 0)
(1.0058915 -0.0074132823 0)
(1.0062108 -0.0077944337 0)
(1.0066209 -0.008759593 0)
(1.0071586 -0.0092343947 0)
(1.0077829 -0.0099121558 0)
(1.0085584 -0.01038251 0)
(1.0094722 -0.010765905 0)
(1.0105056 -0.010923506 0)
(1.0115995 -0.01082488 0)
(1.0126664 -0.010435305 0)
(1.0136257 -0.0097628357 0)
(1.0143903 -0.0088472423 0)
(1.0149106 -0.0077547498 0)
(1.0151528 -0.0065671692 0)
(1.0151288 -0.0053637892 0)
(1.0148654 -0.0042180934 0)
(1.014419 -0.0031809607 0)
(1.0138495 -0.0022879137 0)
(1.0132243 -0.0015527666 0)
(1.0126076 -0.00097584775 0)
(1.0120606 -0.00054645917 0)
(1.011642 -0.00024775163 0)
(1.0114099 -5.8975533e-05 0)
(0.91831754 -0.00071079724 8.376343e-26)
(0.92506417 0.00062786749 0)
(0.92980259 -0.0018707006 1.9366814e-24)
(0.94002639 -0.002695909 1.8712536e-24)
(0.95025618 -0.0026537018 3.3274212e-25)
(0.95945836 -0.0025081582 -1.4403444e-24)
(0.96829248 -0.0024860005 2.2109235e-25)
(0.97713691 -0.003159742 -4.9666086e-24)
(0.98574742 -0.0040595981 5.0776777e-23)
(0.99342354 -0.0051753066 0)
(0.99965316 -0.0056892681 8.6551622e-23)
(1.0034265 -0.0059515761 0)
(1.004731 -0.0055230142 0)
(1.0058686 -0.0050760517 0)
(1.0060079 -0.0052454462 0)
(1.0056736 -0.005305768 0)
(1.0054721 -0.0065551798 0)
(1.0055624 -0.0068953622 0)
(1.0058496 -0.0081829107 0)
(1.0062818 -0.00854908 0)
(1.0067596 -0.0095024653 0)
(1.0073632 -0.010004319 0)
(1.0080754 -0.010690674 0)
(1.0089686 -0.011166271 0)
(1.0100091 -0.01150404 0)
(1.0111651 -0.011578865 0)
(1.0123475 -0.011355446 0)
(1.0134691 -0.010818383 0)
(1.0144298 -0.0099905797 0)
(1.0151595 -0.0089296201 0)
(1.015603 -0.0077160223 0)
(1.0157528 -0.0064365035 0)
(1.0156208 -0.0051768945 0)
(1.0152559 -0.0040026886 0)
(1.0147138 -0.0029645793 0)
(1.0140645 -0.0020872549 0)
(1.0133743 -0.0013804542 0)
(1.0127077 -0.00083853715 0)
(1.0121241 -0.00044737444 0)
(1.0116801 -0.00018799352 0)
(1.0114318 -3.9021439e-05 0)
(0.91531209 -0.0012135757 -1.7887596e-24)
(0.91841649 0.0002878129 0)
(0.93791034 0.0012007873 5.0391138e-24)
(0.9261153 -0.002004999 -1.8709597e-24)
(0.93750905 -0.0021433934 -1.0901576e-25)
(0.94783636 -0.0019546154 -1.0448524e-23)
(0.95745251 -0.0020905248 2.0000979e-23)
(0.96682282 -0.0028211417 9.2542061e-24)
(0.97667444 -0.0040830566 3.6944341e-23)
(0.98612876 -0.0051164547 1.6270657e-23)
(0.99408798 -0.0059396457 7.9865616e-23)
(1.0000968 -0.0058184965 -9.0280072e-23)
(1.0033733 -0.0055269019 0)
(1.0042214 -0.0050042243 0)
(1.0052625 -0.0048069002 0)
(1.0053407 -0.0054950577 0)
(1.0051542 -0.0058925375 0)
(1.0051961 -0.0073643465 0)
(1.0054918 -0.0076949782 0)
(1.0058972 -0.0089777363 0)
(1.0063936 -0.0093165113 0)
(1.0069169 -0.010281143 0)
(1.0075925 -0.010825303 0)
(1.0084192 -0.011531252 0)
(1.0094499 -0.011995801 0)
(1.0106353 -0.012268495 0)
(1.0119104 -0.012230303 0)
(1.0131782 -0.011859344 0)
(1.0143309 -0.011155527 0)
(1.0152796 -0.010162509 0)
(1.015947 -0.0089547231 0)
(1.0163031 -0.0076224934 0)
(1.0163412 -0.0062618017 0)
(1.0160984 -0.004953106 0)
(1.0156238 -0.0037633186 0)
(1.014988 -0.0027306478 0)
(1.0142592 -0.0018768177 0)
(1.0135067 -0.0012028758 0)
(1.012793 -0.00069901957 0)
(1.0121753 -0.00034773665 0)
(1.0117079 -0.00012838663 0)
(1.0114446 -1.9191024e-05 0)
(0.91067402 -0.0012944982 -5.1157499e-25)
(0.91525663 -0.00022426976 -2.0883992e-24)
(0.93238508 0.00099086754 0)
(0.94952995 0.0018170211 -5.9618418e-25)
(0.92294815 -0.001395643 1.368439e-25)
(0.93451574 -0.0013830563 5.1757988e-24)
(0.94541023 -0.0015068047 0)
(0.95554471 -0.0024658192 -9.1878035e-24)
(0.96590803 -0.0038584667 1.3619549e-23)
(0.97676909 -0.0052233357 -1.6071157e-23)
(0.98678423 -0.0059378342 -7.4261536e-23)
(0.99462394 -0.0060651833 -8.3161036e-23)
(0.99999716 -0.0052486021 0)
(1.002753 -0.0048978503 0)
(1.0034275 -0.0046873582 0)
(1.0045475 -0.0049932636 0)
(1.0047419 -0.0061806328 0)
(1.0048206 -0.0067165479 0)
(1.005095 -0.0082603513 0)
(1.0055336 -0.008505951 0)
(1.0059891 -0.0097624044 0)
(1.0065102 -0.010107689 0)
(1.0070802 -0.011112577 0)
(1.007858 -0.011722419 0)
(1.0088297 -0.012436909 0)
(1.0100237 -0.01287071 0)
(1.0113586 -0.013045483 0)
(1.0127525 -0.012866818 0)
(1.0140857 -0.012322816 0)
(1.0152552 -0.011436869 0)
(1.0161625 -0.010271947 0)
(1.0167531 -0.0089172098 0)
(1.0169984 -0.0074753645 0)
(1.0169188 -0.0060409486 0)
(1.0165535 -0.004697543 0)
(1.0159706 -0.003499427 0)
(1.0152392 -0.0024829771 0)
(1.014434 -0.0016579439 0)
(1.0136219 -0.0010213972 0)
(1.012864 -0.00055818173 0)
(1.0122148 -0.00024811044 0)
(1.0117261 -6.9187992e-05 0)
(1.0114493 3.681455e-07 0)
(0.90683408 -0.00064224339 5.997955e-25)
(0.91053773 -0.00024821637 5.1164105e-25)
(0.92971282 0.00047220599 1.8547524e-24)
(0.94490713 0.0016887646 5.6818143e-25)
(0.95962 0.0022216121 -1.2672412e-23)
(0.91930819 -0.0005753031 -5.1993716e-24)
(0.93157364 -0.00089216481 -3.137325e-24)
(0.94299658 -0.0019105314 0)
(0.95410316 -0.0035840937 -1.3241314e-23)
(0.96551139 -0.0050982583 1.5631831e-24)
(0.97715238 -0.006091131 0)
(0.98734371 -0.0060364013 8.6666303e-23)
(0.99463989 -0.0054361693 0)
(0.99934706 -0.0044827981 0)
(1.0018616 -0.0045629196 0)
(1.0026287 -0.004898541 0)
(1.0039664 -0.0056780827 0)
(1.0043772 -0.007152977 0)
(1.004707 -0.0076294194 0)
(1.0051356 -0.0091500726 0)
(1.0056273 -0.0092802462 0)
(1.0060699 -0.010546311 0)
(1.0066079 -0.010950059 0)
(1.0072588 -0.012032331 0)
(1.0081816 -0.012706659 0)
(1.0093338 -0.013412009 0)
(1.0107045 -0.013778989 0)
(1.0121942 -0.013823623 0)
(1.0136902 -0.013472147 0)
(1.0150743 -0.012733454 0)
(1.0162301 -0.011652581 0)
(1.0170778 -0.010311825 0)
(1.0175642 -0.0088161823 0)
(1.0176886 -0.0072718701 0)
(1.0174757 -0.0057787254 0)
(1.0169874 -0.0044091529 0)
(1.0162917 -0.0032163749 0)
(1.0154682 -0.0022220706 0)
(1.0145888 -0.0014327712 0)
(1.0137205 -0.00083722223 0)
(1.0129214 -0.00041686185 0)
(1.0122434 -0.00014897849 0)
(1.0117353 -1.0670843e-05 0)
(1.0114462 1.9628636e-05 0)
(0.9024214 0.00023041731 -3.3322936e-25)
(0.90666406 0.00044250751 -6.15068e-25)
(0.92571589 0.00048544986 -1.8108685e-24)
(0.94269752 0.0011958363 -5.8648237e-25)
(0.9558678 0.0021816856 1.8525742e-24)
(0.96840524 0.0026561482 7.5817129e-24)
(0.91575611 -3.8506722e-05 6.3362851e-24)
(0.92856769 -0.0012943452 3.5773513e-24)
(0.94094495 -0.00309765 1.0780114e-23)
(0.95310663 -0.0048935884 -1.0936371e-24)
(0.96538697 -0.0060306957 4.5511196e-23)
(0.97746668 -0.0061684098 -2.6385527e-23)