/*--------------------------------*- C++ -*----------------------------------*\
| =========                 |                                                 |
| \\      /  F ield         | OpenFOAM: The Open Source CFD Toolbox           |
|  \\    /   O peration     | Version:  5.0                                   |
|   \\  /    A nd           | Web:      www.OpenFOAM.org                      |
|    \\/     M anipulation  |                                                 |
\*---------------------------------------------------------------------------*/
FoamFile
{
    version     2.0;
    format      ascii;
    class       volSymmTensorField;
    location    "80";
    object      UPrime2Mean;
}
// * * * * * * * * * * * * * * * * * * * * * * * * * * * * * * * * * * * * * //

dimensions      [0 2 -2 0 0 0 0];

internalField   nonuniform List<symmTensor> 
9520
(
(8.1616936e-06 -9.1577036e-08 0 8.242738e-09 0 0)
(8.5472703e-06 -2.8026e-07 0 7.2031815e-08 0 0)
(8.7292818e-06 -8.0226723e-08 0 7.9143455e-09 0 0)
(9.2630965e-06 -4.8459843e-07 0 1.9244533e-07 0 0)
(9.1445623e-06 -2.458158e-07 0 6.9167645e-08 0 0)
(8.8633158e-06 -7.203686e-08 0 7.6926532e-09 0 0)
(1.0283163e-05 -7.1698348e-07 0 3.652641e-07 0 0)
(9.9080036e-06 -4.2605277e-07 0 1.8502549e-07 0 0)
(9.2795716e-06 -2.2151939e-07 0 6.7240237e-08 0 0)
(9.1344529e-06 -5.9609437e-08 0 7.5748297e-09 0 0)
(1.1586177e-05 -9.8334896e-07 0 5.8870721e-07 0 0)
(1.0996332e-05 -6.3337651e-07 0 3.5191677e-07 0 0)
(1.0058648e-05 -3.8544409e-07 0 1.7995847e-07 0 0)
(9.5692998e-06 -1.8421031e-07 0 6.6245668e-08 0 0)
(9.2893527e-06 -4.9290711e-08 0 7.5055265e-09 0 0)
(1.3151246e-05 -1.2876678e-06 0 8.6312497e-07 0 0)
(1.2386352e-05 -8.7358194e-07 0 5.6860013e-07 0 0)
(1.1168566e-05 -5.7537352e-07 0 3.4245786e-07 0 0)
(1.0375398e-05 -3.2277742e-07 0 1.7736106e-07 0 0)
(9.7333883e-06 -1.5309451e-07 0 6.5651315e-08 0 0)
(9.4139514e-06 -3.6337793e-08 0 7.564279e-09 0 0)
(1.495519e-05 -1.629867e-06 0 1.1897639e-06 0 0)
(1.4055767e-05 -1.1509493e-06 0 8.358868e-07 0 0)
(1.2586427e-05 -7.969214e-07 0 5.5362994e-07 0 0)
(1.1524409e-05 -4.8590116e-07 0 3.3770002e-07 0 0)
(1.0560461e-05 -2.7011825e-07 0 1.7586739e-07 0 0)
(9.8692284e-06 -1.1398526e-07 0 6.6167028e-08 0 0)
(9.5168674e-06 -2.4361023e-08 0 7.6737983e-09 0 0)
(1.6970972e-05 -2.0079595e-06 0 1.5709134e-06 0 0)
(1.5979651e-05 -1.467026e-06 0 1.155462e-06 0 0)
(1.4290231e-05 -1.0541568e-06 0 8.1429336e-07 0 0)
(1.2992291e-05 -6.7936897e-07 0 5.4633737e-07 0 0)
(1.1740339e-05 -4.1010659e-07 0 3.3500447e-07 0 0)
(1.0715613e-05 -2.0376666e-07 0 1.7725773e-07 0 0)
(9.981329e-06 -7.7756527e-08 0 6.7140502e-08 0 0)
(9.5486292e-06 -1.0761838e-08 0 7.9146663e-09 0 0)
(1.9167533e-05 -2.4189874e-06 0 2.0093154e-06 0 0)
(1.8128327e-05 -1.823193e-06 0 1.5295812e-06 0 0)
(1.6255575e-05 -1.3470103e-06 0 1.1262691e-06 0 0)
(1.4755995e-05 -9.0805066e-07 0 8.0420756e-07 0 0)
(1.3248406e-05 -5.7838849e-07 0 5.4221191e-07 0 0)
(1.192411e-05 -3.1456866e-07 0 3.3768414e-07 0 0)
(1.0846286e-05 -1.4218042e-07 0 1.7997631e-07 0 0)
(1.0020999e-05 -3.653266e-08 0 6.9257757e-08 0 0)
(9.5770229e-06 1.8969655e-09 0 8.2083998e-09 0 0)
(2.1512017e-05 -2.8562696e-06 0 2.5068455e-06 0 0)
(2.0461259e-05 -2.2125848e-06 0 1.9624218e-06 0 0)
(1.8452264e-05 -1.6726327e-06 0 1.492837e-06 0 0)
(1.6789727e-05 -1.1735986e-06 0 1.1131514e-06 0 0)
(1.506184e-05 -7.7988547e-07 0 7.984766e-07 0 0)
(1.3471643e-05 -4.5128427e-07 0 5.4665585e-07 0 0)
(1.2082187e-05 -2.2543906e-07 0 3.4304491e-07 0 0)
(1.0900926e-05 -7.164076e-08 0 1.8571216e-07 0 0)
(1.0056094e-05 1.8773707e-09 0 7.1840589e-08 0 0)
(9.5378689e-06 1.5329319e-08 0 8.6200463e-09 0 0)
(2.396741e-05 -3.318459e-06 0 3.0695555e-06 0 0)
(2.2958403e-05 -2.6265397e-06 0 2.4580001e-06 0 0)
(2.0841069e-05 -2.0374165e-06 0 1.9155266e-06 0 0)
(1.9061442e-05 -1.4771258e-06 0 1.4759069e-06 0 0)
(1.7155523e-05 -1.0165053e-06 0 1.1056754e-06 0 0)
(1.5336195e-05 -6.1886546e-07 0 8.0516546e-07 0 0)
(1.3665943e-05 -3.3186094e-07 0 5.5560145e-07 0 0)
(1.2159709e-05 -1.2264916e-07 0 3.5407314e-07 0 0)
(1.094953e-05 -5.9432892e-09 0 1.9276154e-07 0 0)
(1.0021688e-05 4.2702886e-08 0 7.547982e-08 0 0)
(9.496674e-06 2.7711816e-08 0 9.067894e-09 0 0)
(2.6501639e-05 -3.7751522e-06 0 3.6955363e-06 0 0)
(2.5572331e-05 -3.0734645e-06 0 3.0193921e-06 0 0)
(2.3379928e-05 -2.4354467e-06 0 2.3977154e-06 0 0)
(2.1538039e-05 -1.8155199e-06 0 1.8963458e-06 0 0)
(1.9501978e-05 -1.2896657e-06 0 1.4665081e-06 0 0)
(1.74909e-05 -8.1970358e-07 0 1.1151751e-06 0 0)
(1.5575783e-05 -4.6622191e-07 0 8.1861968e-07 0 0)
(1.3775576e-05 -1.932593e-07 0 5.7361554e-07 0 0)
(1.2229305e-05 -2.6780145e-08 0 3.6774937e-07 0 0)
(1.092464e-05 6.4260815e-08 0 2.0272032e-07 0 0)
(9.984353e-06 8.0401954e-08 0 7.942939e-08 0 0)
(9.4001173e-06 4.0133422e-08 0 9.610088e-09 0 0)
(2.9085992e-05 -4.2877621e-06 0 4.397592e-06 0 0)
(2.8269676e-05 -3.5297709e-06 0 3.6478197e-06 0 0)
(2.6030514e-05 -2.8614762e-06 0 2.9458422e-06 0 0)
(2.4193246e-05 -2.186695e-06 0 2.3775374e-06 0 0)
(2.2066235e-05 -1.5996063e-06 0 1.8840026e-06 0 0)
(1.9906953e-05 -1.0554064e-06 0 1.4795787e-06 0 0)
(1.7788502e-05 -6.310458e-07 0 1.1339752e-06 0 0)
(1.5728097e-05 -2.8817237e-07 0 8.4526901e-07 0 0)
(1.387437e-05 -6.3539341e-08 0 5.9617006e-07 0 0)
(1.221972e-05 7.6317958e-08 0 3.8714432e-07 0 0)
(1.0895578e-05 1.291433e-07 0 2.1353452e-07 0 0)
(9.8895005e-06 1.1824194e-07 0 8.4248043e-08 0 0)
(9.3023669e-06 5.1500628e-08 0 1.0156876e-08 0 0)
(3.1685561e-05 -4.6881615e-06 0 5.1675653e-06 0 0)
(3.1004961e-05 -4.0351285e-06 0 4.356081e-06 0 0)
(2.8770791e-05 -3.3030721e-06 0 3.5597017e-06 0 0)
(2.6988429e-05 -2.5958846e-06 0 2.9229209e-06 0 0)
(2.4810376e-05 -1.9452322e-06 0 2.3613181e-06 0 0)
(2.2551844e-05 -1.325749e-06 0 1.9016952e-06 0 0)
(2.0274572e-05 -8.2864487e-07 0 1.504367e-06 0 0)
(1.7993106e-05 -4.1003073e-07 0 1.1709857e-06 0 0)
(1.5865279e-05 -1.2054914e-07 0 8.7897707e-07 0 0)
(1.3887586e-05 7.6949354e-08 0 6.2824873e-07 0 0)
(1.2204254e-05 1.7181216e-07 0 4.0826651e-07 0 0)
(1.080461e-05 1.944672e-07 0 2.2684653e-07 0 0)
(9.7928122e-06 1.5293711e-07 0 8.9099186e-08 0 0)
(9.1621828e-06 6.2377948e-08 0 1.0765214e-08 0 0)
(3.4303549e-05 -5.3001046e-06 0 6.0253892e-06 0 0)
(3.3782934e-05 -4.4648184e-06 0 5.1392771e-06 0 0)
(3.1556924e-05 -3.7955405e-06 0 4.2505514e-06 0 0)
(2.9882318e-05 -3.0288871e-06 0 3.5353005e-06 0 0)
(2.7694815e-05 -2.3232307e-06 0 2.9045035e-06 0 0)
(2.5394742e-05 -1.628866e-06 0 2.3854191e-06 0 0)
(2.299844e-05 -1.0591154e-06 0 1.9332045e-06 0 0)
(2.0541568e-05 -5.6146014e-07 0 1.553513e-06 0 0)
(1.8179621e-05 -2.0056217e-07 0 1.2180637e-06 0 0)
(1.5910556e-05 6.2306599e-08 0 9.2706789e-07 0 0)
(1.3892137e-05 2.0746838e-07 0 6.634347e-07 0 0)
(1.2120726e-05 2.6834245e-07 0 4.3453869e-07 0 0)
(1.0710921e-05 2.5440856e-07 0 2.4024775e-07 0 0)
(9.6517073e-06 1.8610691e-07 0 9.4537407e-08 0 0)
(9.022085e-06 7.2304823e-08 0 1.13441e-08 0 0)
(3.6870336e-05 -5.5386479e-06 0 6.9505397e-06 0 0)
(3.6553564e-05 -5.0727068e-06 0 6.0165203e-06 0 0)
(3.4378841e-05 -4.2289766e-06 0 5.0155417e-06 0 0)
(3.2828765e-05 -3.5127145e-06 0 4.2254531e-06 0 0)
(3.0690762e-05 -2.7259747e-06 0 3.5154884e-06 0 0)
(2.8397031e-05 -1.9661626e-06 0 2.9349274e-06 0 0)
(2.5927578e-05 -1.3221981e-06 0 2.4240674e-06 0 0)
(2.3339606e-05 -7.4362281e-07 0 1.996075e-06 0 0)
(2.07888e-05 -3.0683198e-07 0 1.6159454e-06 0 0)
(1.8267153e-05 2.9691841e-08 0 1.2855499e-06 0 0)
(1.5943051e-05 2.3292958e-07 0 9.8034923e-07 0 0)
(1.3821435e-05 3.40159e-07 0 7.0756867e-07 0 0)
(1.2032897e-05 3.5705964e-07 0 4.6105258e-07 0 0)
(1.0568749e-05 3.11733e-07 0 2.5542311e-07 0 0)
(9.5102975e-06 2.164288e-07 0 9.970618e-08 0 0)
(8.8515779e-06 8.1452831e-08 0 1.1945333e-08 0 0)
(3.9440023e-05 -6.3115257e-06 0 8.0041516e-06 0 0)
(3.935039e-05 -5.3544312e-06 0 6.9817358e-06 0 0)
(3.7148042e-05 -4.8481993e-06 0 5.8671605e-06 0 0)
(3.5828891e-05 -3.9520136e-06 0 4.9952139e-06 0 0)
(3.3752925e-05 -3.1746919e-06 0 4.2048487e-06 0 0)
(3.1521617e-05 -2.3281172e-06 0 3.5541162e-06 0 0)
(2.9017426e-05 -1.6151485e-06 0 2.9824081e-06 0 0)
(2.6352931e-05 -9.5624633e-07 0 2.5025066e-06 0 0)
(2.3657159e-05 -4.4157232e-07 0 2.0755045e-06 0 0)
(2.0930426e-05 -2.446602e-08 0 1.7060413e-06 0 0)
(1.8337707e-05 2.4577641e-07 0 1.3611149e-06 0 0)
(1.5892554e-05 4.0764461e-07 0 1.0476361e-06 0 0)
(1.3743635e-05 4.622943e-07 0 7.5242228e-07 0 0)
(1.1891019e-05 4.4196411e-07 0 4.9141218e-07 0 0)
(1.0425818e-05 3.6413751e-07 0 2.698471e-07 0 0)
(9.3368677e-06 2.4428872e-07 0 1.0511214e-07 0 0)
(8.6822902e-06 8.9819437e-08 0 1.2489698e-08 0 0)
(4.1896017e-05 -6.3127273e-06 0 9.0608293e-06 0 0)
(4.2104618e-05 -6.127827e-06 0 8.0840336e-06 0 0)
(3.9928613e-05 -5.1625789e-06 0 6.8167151e-06 0 0)
(3.8814258e-05 -4.5585176e-06 0 5.8538231e-06 0 0)
(3.6879044e-05 -3.5953444e-06 0 4.9733768e-06 0 0)
(3.4723957e-05 -2.7291673e-06 0 4.2530855e-06 0 0)
(3.2233745e-05 -1.930563e-06 0 3.6123945e-06 0 0)
(2.9536366e-05 -1.1983793e-06 0 3.0775077e-06 0 0)
(2.6749357e-05 -6.0568403e-07 0 2.6002036e-06 0 0)
(2.3866866e-05 -1.0345387e-07 0 2.1909132e-06 0 0)
(2.1050774e-05 2.4223443e-07 0 1.8079874e-06 0 0)
(1.8316532e-05 4.6889056e-07 0 1.4572789e-06 0 0)
(1.5830667e-05 5.6866071e-07 0 1.1168208e-06 0 0)
(1.3605091e-05 5.7945264e-07 0 8.0428883e-07 0 0)
(1.1747189e-05 5.1956662e-07 0 5.20354e-07 0 0)
(1.0247541e-05 4.1212957e-07 0 2.8509276e-07 0 0)
(9.1645586e-06 2.6980176e-07 0 1.0999925e-07 0 0)
(8.4929054e-06 9.7342984e-08 0 1.3017388e-08 0 0)
(4.44399e-05 -7.2696123e-06 0 1.0397513e-05 0 0)
(4.4785772e-05 -6.1799352e-06 0 9.2332086e-06 0 0)
(4.2633395e-05 -5.9965715e-06 0 7.8784542e-06 0 0)
(4.185514e-05 -4.8938251e-06 0 6.8241379e-06 0 0)
(4.0009461e-05 -4.1645955e-06 0 5.8341511e-06 0 0)
(3.7997923e-05 -3.1065611e-06 0 5.0345185e-06 0 0)
(3.5528327e-05 -2.2776285e-06 0 4.3238469e-06 0 0)
(3.2847874e-05 -1.4641687e-06 0 3.7259125e-06 0 0)
(3.0017175e-05 -7.9885691e-07 0 3.1948082e-06 0 0)
(2.7040251e-05 -2.0915468e-07 0 2.7432906e-06 0 0)
(2.4050323e-05 2.1893191e-07 0 2.3232651e-06 0 0)
(2.1070242e-05 5.2045335e-07 0 1.9389663e-06 0 0)
(1.827839e-05 6.7496494e-07 0 1.5574648e-06 0 0)
(1.5700275e-05 7.2385562e-07 0 1.1974321e-06 0 0)
(1.3462292e-05 6.8638978e-07 0 8.5407785e-07 0 0)
(1.1563644e-05 5.9037921e-07 0 5.512895e-07 0 0)
(1.007044e-05 4.5607204e-07 0 2.9887062e-07 0 0)
(8.9709028e-06 2.9262416e-07 0 1.147683e-07 0 0)
(8.3053984e-06 1.0426527e-07 0 1.3471394e-08 0 0)
(4.6763639e-05 -6.962511e-06 0 1.1575008e-05 0 0)
(4.7454081e-05 -7.2055004e-06 0 1.0669682e-05 0 0)
(4.5312894e-05 -6.0799289e-06 0 9.0413857e-06 0 0)
(4.4839016e-05 -5.7360492e-06 0 7.902319e-06 0 0)
(4.3218002e-05 -4.4982806e-06 0 6.8090165e-06 0 0)
(4.1294223e-05 -3.6046216e-06 0 5.9114509e-06 0 0)
(3.8883605e-05 -2.6098605e-06 0 5.1195829e-06 0 0)
(3.6233888e-05 -1.7606842e-06 0 4.4569678e-06 0 0)
(3.3411901e-05 -1.0201416e-06 0 3.8632977e-06 0 0)
(3.0403473e-05 -3.4540838e-07 0 3.36621e-06 0 0)
(2.7302058e-05 1.7288139e-07 0 2.9094079e-06 0 0)
(2.4125555e-05 5.5919565e-07 0 2.4949891e-06 0 0)
(2.1066246e-05 7.784118e-07 0 2.0774075e-06 0 0)
(1.8162915e-05 8.747953e-07 0 1.6751041e-06 0 0)
(1.5562059e-05 8.6506663e-07 0 1.2756751e-06 0 0)
(1.3274593e-05 7.837371e-07 0 9.0783401e-07 0 0)
(1.1380781e-05 6.5513027e-07 0 5.7933179e-07 0 0)
(9.8694692e-06 4.9509498e-07 0 3.1247572e-07 0 0)
(8.7793041e-06 3.1366692e-07 0 1.1886453e-07 0 0)
(8.1061018e-06 1.1044739e-07 0 1.3877935e-08 0 0)
(4.9290526e-05 -8.1284186e-06 0 1.328399e-05 0 0)
(5.0006822e-05 -6.9192007e-06 0 1.2054262e-05 0 0)
(4.7939897e-05 -7.2096909e-06 0 1.0437715e-05 0 0)
(4.7869031e-05 -5.8782821e-06 0 9.1147363e-06 0 0)
(4.6413912e-05 -5.3082029e-06 0 7.8891535e-06 0 0)
(4.4686323e-05 -3.8775886e-06 0 6.9123773e-06 0 0)
(4.2251385e-05 -3.0365338e-06 0 6.0165969e-06 0 0)
(3.9678182e-05 -2.0492546e-06 0 5.2753062e-06 0 0)
(3.6884729e-05 -1.2746786e-06 0 4.6144441e-06 0 0)
(3.3904001e-05 -5.1504936e-07 0 4.0627265e-06 0 0)
(3.076105e-05 9.7359521e-08 0 3.5678088e-06 0 0)
(2.7449724e-05 5.8191675e-07 0 3.1275822e-06 0 0)
(2.4167301e-05 8.7658253e-07 0 2.6795405e-06 0 0)
(2.097406e-05 1.0302879e-06 0 2.2413323e-06 0 0)
(1.8034439e-05 1.0560254e-06 0 1.7907439e-06 0 0)
(1.5372908e-05 9.9362402e-07 0 1.3608519e-06 0 0)
(1.3086248e-05 8.7240086e-07 0 9.5692116e-07 0 0)
(1.1170951e-05 7.1212366e-07 0 6.0737493e-07 0 0)
(9.6710581e-06 5.3113232e-07 0 3.2415972e-07 0 0)
(8.5749327e-06 3.3233448e-07 0 1.2255855e-07 0 0)
(7.908679e-06 1.1618593e-07 0 1.4205953e-08 0 0)
(5.1474806e-05 -7.5115638e-06 0 1.4595411e-05 0 0)
(5.2789066e-05 -8.2703374e-06 0 1.3959559e-05 0 0)
(5.0545572e-05 -6.9856725e-06 0 1.187822e-05 0 0)
(5.0873952e-05 -7.0733756e-06 0 1.0560682e-05 0 0)
(4.9701626e-05 -5.4338747e-06 0 9.1306396e-06 0 0)
(4.8078668e-05 -4.5782583e-06 0 8.0206128e-06 0 0)
(4.5697795e-05 -3.2639755e-06 0 7.0444022e-06 0 0)
(4.3131234e-05 -2.4220244e-06 0 6.1959141e-06 0 0)
(4.0424456e-05 -1.5356696e-06 0 5.4527267e-06 0 0)
(3.7511642e-05 -7.2297064e-07 0 4.8406157e-06 0 0)
(3.438043e-05 -1.1187565e-08 0 4.3009959e-06 0 0)
(3.100484e-05 5.8164935e-07 0 3.8373583e-06 0 0)
(2.7551689e-05 9.6614285e-07 0 3.3660635e-06 0 0)
(2.4109307e-05 1.1886135e-06 0 2.8998404e-06 0 0)
(2.0862152e-05 1.2580381e-06 0 2.4046202e-06 0 0)
(1.784802e-05 1.2211922e-06 0 1.9176036e-06 0 0)
(1.5180765e-05 1.1098663e-06 0 1.4394805e-06 0 0)
(1.286751e-05 9.4976876e-07 0 1.006569e-06 0 0)
(1.0963779e-05 7.6470286e-07 0 6.3153016e-07 0 0)
(9.457896e-06 5.6274692e-07 0 3.3483991e-07 0 0)
(8.3728156e-06 3.4973052e-07 0 1.2553268e-07 0 0)
(7.7056527e-06 1.213799e-07 0 1.4470396e-08 0 0)
(5.3934731e-05 -8.850576e-06 0 1.6729866e-05 0 0)
(5.5371415e-05 -7.5806395e-06 0 1.5718987e-05 0 0)
(5.3185204e-05 -8.4875022e-06 0 1.3806084e-05 0 0)
(5.3966563e-05 -6.9481041e-06 0 1.2107948e-05 0 0)
(5.3049177e-05 -6.6129482e-06 0 1.0585665e-05 0 0)
(5.1606099e-05 -4.5913976e-06 0 9.3353258e-06 0 0)
(4.9120991e-05 -3.8772923e-06 0 8.1822949e-06 0 0)
(4.6633372e-05 -2.623224e-06 0 7.2531048e-06 0 0)
(4.3961734e-05 -1.8786356e-06 0 6.3944002e-06 0 0)
(4.1196837e-05 -9.5727582e-07 0 5.7042201e-06 0 0)
(3.8139856e-05 -1.6014178e-07 0 5.1143334e-06 0 0)
(3.4749933e-05 5.5536134e-07 0 4.6269398e-06 0 0)
(3.1185366e-05 1.0441357e-06 0 4.139372e-06 0 0)
(2.7538988e-05 1.3475066e-06 0 3.6539812e-06 0 0)
(2.4021148e-05 1.4701768e-06 0 3.122438e-06 0 0)
(2.0683629e-05 1.4658853e-06 0 2.5851535e-06 0 0)
(1.7655136e-05 1.3691649e-06 0 2.0362444e-06 0 0)
(1.495463e-05 1.2105902e-06 0 1.5198641e-06 0 0)
(1.2650932e-05 1.0207945e-06 0 1.0496836e-06 0 0)
(1.0739836e-05 8.1019518e-07 0 6.5393643e-07 0 0)
(9.2478903e-06 5.9239055e-07 0 3.4344041e-07 0 0)
(8.1642566e-06 3.6536714e-07 0 1.2794826e-07 0 0)
(7.5043689e-06 1.2626562e-07 0 1.4662789e-08 0 0)
(5.5974471e-05 -8.0243871e-06 0 1.8260033e-05 0 0)
(5.8368615e-05 -9.2697871e-06 0 1.8275415e-05 0 0)
(5.5786962e-05 -7.9311508e-06 0 1.569253e-05 0 0)
(5.721885e-05 -8.6300311e-06 0 1.4185619e-05 0 0)
(5.6564724e-05 -6.4308485e-06 0 1.2206511e-05 0 0)
(5.5230473e-05 -5.6083708e-06 0 1.0862358e-05 0 0)
(5.2678428e-05 -3.8183163e-06 0 9.5661411e-06 0 0)
(5.0062115e-05 -3.1801344e-06 0 8.4237119e-06 0 0)
(4.7524156e-05 -2.0967106e-06 0 7.4734459e-06 0 0)
(4.4896757e-05 -1.2775104e-06 0 6.6726846e-06 0 0)
(4.2000644e-05 -3.4554405e-07 0 6.0125075e-06 0 0)
(3.8667713e-05 4.9338805e-07 0 5.4987353e-06 0 0)
(3.5034305e-05 1.1068318e-06 0 5.0020063e-06 0 0)
(3.1233399e-05 1.5059501e-06 0 4.5074086e-06 0 0)
(2.7483338e-05 1.69081e-06 0 3.9486304e-06 0 0)
(2.3857354e-05 1.7273492e-06 0 3.3701566e-06 0 0)
(2.0494528e-05 1.6502707e-06 0 2.7562468e-06 0 0)
(1.7424526e-05 1.4967103e-06 0 2.1587708e-06 0 0)
(1.4729245e-05 1.3021431e-06 0 1.590487e-06 0 0)
(1.2415823e-05 1.0812943e-06 0 1.0902036e-06 0 0)
(1.0519639e-05 8.5298688e-07 0 6.7203697e-07 0 0)
(9.0298966e-06 6.1869544e-07 0 3.5053822e-07 0 0)
(7.957763e-06 3.8015945e-07 0 1.2970207e-07 0 0)
(7.3015626e-06 1.3080253e-07 0 1.4792213e-08 0 0)
(5.8494268e-05 -9.3574512e-06 0 2.0814559e-05 0 0)
(6.110271e-05 -8.2773807e-06 0 2.06649e-05 0 0)
(5.8676449e-05 -9.803865e-06 0 1.8440904e-05 0 0)
(6.0494456e-05 -8.2294916e-06 0 1.6314977e-05 0 0)
(6.0408941e-05 -8.1184079e-06 0 1.4340001e-05 0 0)
(5.910123e-05 -5.2442106e-06 0 1.2654899e-05 0 0)
(5.6320143e-05 -4.7206107e-06 0 1.1159373e-05 0 0)
(5.3600781e-05 -3.1009645e-06 0 9.8698519e-06 0 0)
(5.0978828e-05 -2.6447752e-06 0 8.6766675e-06 0 0)
(4.8639328e-05 -1.5286875e-06 0 7.7779957e-06 0 0)
(4.5931322e-05 -6.1755645e-07 0 7.0138676e-06 0 0)
(4.2727116e-05 3.999568e-07 0 6.4594693e-06 0 0)
(3.9080841e-05 1.1492099e-06 0 5.9576402e-06 0 0)
(3.5160552e-05 1.660625e-06 0 5.4636435e-06 0 0)
(3.1217619e-05 1.9195105e-06 0 4.8880913e-06 0 0)
(2.734072e-05 2.0044048e-06 0 4.2782896e-06 0 0)
(2.3677111e-05 1.9531717e-06 0 3.6078332e-06 0 0)
(2.0263509e-05 1.8083749e-06 0 2.9345419e-06 0 0)
(1.719258e-05 1.6108772e-06 0 2.2678896e-06 0 0)
(1.4484426e-05 1.3788702e-06 0 1.6576733e-06 0 0)
(1.2184608e-05 1.1381171e-06 0 1.1232447e-06 0 0)
(1.0289985e-05 8.9036033e-07 0 6.8726063e-07 0 0)
(8.8148021e-06 6.4385012e-07 0 3.5569593e-07 0 0)
(7.7492089e-06 3.9386364e-07 0 1.3089238e-07 0 0)
(7.1003596e-06 1.3512153e-07 0 1.4863475e-08 0 0)
(6.0821421e-05 -8.4654098e-06 0 2.2719868e-05 0 0)
(6.4670327e-05 -1.0205928e-05 0 2.4080672e-05 0 0)
(6.1451506e-05 -9.004643e-06 0 2.1144202e-05 0 0)
(6.4281643e-05 -1.0516594e-05 0 1.9429346e-05 0 0)
(6.4493488e-05 -7.5670852e-06 0 1.6649366e-05 0 0)
(6.3381194e-05 -6.697824e-06 0 1.4994641e-05 0 0)
(6.022287e-05 -4.2415603e-06 0 1.3129678e-05 0 0)
(5.7167426e-05 -3.9521756e-06 0 1.1517144e-05 0 0)
(5.4534593e-05 -2.6296885e-06 0 1.0183078e-05 0 0)
(5.2287433e-05 -2.1040002e-06 0 9.022226e-06 0 0)
(4.9956242e-05 -8.6421086e-07 0 8.1493832e-06 0 0)
(4.6924921e-05 2.3417635e-07 0 7.5246617e-06 0 0)
(4.3303159e-05 1.1768544e-06 0 7.0168815e-06 0 0)
(3.9299753e-05 1.8125736e-06 0 6.5300789e-06 0 0)
(3.5195805e-05 2.1563656e-06 0 5.9471303e-06 0 0)
(3.1102548e-05 2.2965089e-06 0 5.3149786e-06 0 0)
(2.7175355e-05 2.2766994e-06 0 4.5976861e-06 0 0)
(2.3451036e-05 2.1456809e-06 0 3.8574011e-06 0 0)
(2.0029218e-05 1.9474939e-06 0 3.095767e-06 0 0)
(1.6940907e-05 1.7049341e-06 0 2.3729474e-06 0 0)
(1.4242619e-05 1.4503066e-06 0 1.7132583e-06 0 0)
(1.1943088e-05 1.1867488e-06 0 1.1515081e-06 0 0)
(1.0064145e-05 9.2653065e-07 0 6.9839389e-07 0 0)
(8.5963154e-06 6.6690579e-07 0 3.5926469e-07 0 0)
(7.5423952e-06 4.070005e-07 0 1.3154907e-07 0 0)
(6.9000351e-06 1.392311e-07 0 1.4884917e-08 0 0)
(6.4269369e-05 -9.7283582e-06 0 2.563768e-05 0 0)
(6.8105834e-05 -9.1057161e-06 0 2.7419565e-05 0 0)
(6.5162111e-05 -1.1089214e-05 0 2.5130883e-05 0 0)
(6.8050636e-05 -9.9206325e-06 0 2.2647449e-05 0 0)
(6.9382702e-05 -9.9070008e-06 0 1.995355e-05 0 0)
(6.8039357e-05 -5.8456405e-06 0 1.770728e-05 0 0)
(6.4540544e-05 -5.5585327e-06 0 1.5683027e-05 0 0)
(6.1002279e-05 -3.4488211e-06 0 1.362089e-05 0 0)
(5.8052878e-05 -3.5082915e-06 0 1.1907134e-05 0 0)
(5.6063118e-05 -2.2266265e-06 0 1.0602609e-05 0 0)
(5.3992361e-05 -1.4256466e-06 0 9.4313833e-06 0 0)
(5.1287945e-05 8.3259642e-08 0 8.7258855e-06 0 0)
(4.7708613e-05 1.1594235e-06 0 8.1936132e-06 0 0)
(4.3634326e-05 1.9689103e-06 0 7.7218788e-06 0 0)
(3.9386723e-05 2.3997177e-06 0 7.1341269e-06 0 0)
(3.5113846e-05 2.6049087e-06 0 6.4869506e-06 0 0)
(3.0957442e-05 2.6204547e-06 0 5.7320065e-06 0 0)
(2.6959751e-05 2.507811e-06 0 4.9356847e-06 0 0)
(2.3220054e-05 2.3125168e-06 0 4.0871111e-06 0 0)
(1.9774557e-05 2.0597952e-06 0 3.2529211e-06 0 0)
(1.6691073e-05 1.7911605e-06 0 2.4614254e-06 0 0)
(1.3991448e-05 1.5100925e-06 0 1.7616014e-06 0 0)
(1.1705895e-05 1.2342657e-06 0 1.1724843e-06 0 0)
(9.8336118e-06 9.5925148e-07 0 7.0631966e-07 0 0)
(8.3801114e-06 6.8934201e-07 0 3.6125608e-07 0 0)
(7.3360779e-06 4.1952789e-07 0 1.3175037e-07 0 0)
(6.7015621e-06 1.4318162e-07 0 1.4865903e-08 0 0)
(6.3641169e-05 -9.5975122e-06 0 2.8213979e-05 0 0)
(7.2838998e-05 -1.1348823e-05 0 3.1982159e-05 0 0)
(6.9001576e-05 -1.0212824e-05 0 2.9265995e-05 0 0)
(7.3151233e-05 -1.2821625e-05 0 2.7434249e-05 0 0)
(7.4641955e-05 -9.0440335e-06 0 2.360292e-05 0 0)
(7.3651319e-05 -7.8545252e-06 0 2.1554051e-05 0 0)
(6.9326134e-05 -4.5593807e-06 0 1.8844311e-05 0 0)
(6.5248108e-05 -4.7183028e-06 0 1.6316283e-05 0 0)
(6.1844039e-05 -3.094324e-06 0 1.4191409e-05 0 0)
(5.9802387e-05 -3.2482471e-06 0 1.2444333e-05 0 0)
(5.8252078e-05 -1.6440698e-06 0 1.1064423e-05 0 0)
(5.5808914e-05 -3.3703802e-07 0 1.0079345e-05 0 0)
(5.2344175e-05 1.1838407e-06 0 9.536157e-06 0 0)
(4.816521e-05 2.1062063e-06 0 9.0567198e-06 0 0)
(4.3779025e-05 2.6603181e-06 0 8.4698052e-06 0 0)
(3.9339869e-05 2.9249122e-06 0 7.8019732e-06 0 0)
(3.4991825e-05 2.9831994e-06 0 7.0163643e-06 0 0)
(3.0759498e-05 2.8944825e-06 0 6.1757926e-06 0 0)
(2.6740195e-05 2.7056603e-06 0 5.2522255e-06 0 0)
(2.2968068e-05 2.4440671e-06 0 4.3137089e-06 0 0)
(1.952167e-05 2.1606367e-06 0 3.3879323e-06 0 0)
(1.643414e-05 1.8612337e-06 0 2.5397939e-06 0 0)
(1.3743731e-05 1.5685144e-06 0 1.7982366e-06 0 0)
(1.1463374e-05 1.2765111e-06 0 1.1878305e-06 0 0)
(9.6061169e-06 9.9178449e-07 0 7.1086711e-07 0 0)
(8.1634604e-06 7.1070809e-07 0 3.6191956e-07 0 0)
(7.1314821e-06 4.3164346e-07 0 1.315788e-07 0 0)
(6.5050664e-06 1.4698087e-07 0 1.4814992e-08 0 0)
(5.5524163e-05 -1.6092203e-05 0 3.1289923e-05 0 0)
(7.6016614e-05 -1.0676996e-05 0 3.6747513e-05 0 0)
(7.4940499e-05 -1.2470298e-05 0 3.4998912e-05 0 0)
(7.8484683e-05 -1.2265621e-05 0 3.2546623e-05 0 0)
(8.1735546e-05 -1.208591e-05 0 2.8882996e-05 0 0)
(7.9899199e-05 -6.4740948e-06 0 2.6132748e-05 0 0)
(7.5168942e-05 -6.4729745e-06 0 2.3295406e-05 0 0)
(7.0078347e-05 -3.6892053e-06 0 1.9781318e-05 0 0)
(6.601987e-05 -4.3979836e-06 0 1.713923e-05 0 0)
(6.3872369e-05 -3.1284122e-06 0 1.4997073e-05 0 0)
(6.2659979e-05 -2.7836822e-06 0 1.2981517e-05 0 0)
(6.0705226e-05 -4.569948e-07 0 1.1791971e-05 0 0)
(5.7234986e-05 1.0142303e-06 0 1.1061616e-05 0 0)
(5.2945922e-05 2.3104981e-06 0 1.0602792e-05 0 0)
(4.8355982e-05 2.9176255e-06 0 9.976282e-06 0 0)
(4.3761568e-05 3.26681e-06 0 9.2820512e-06 0 0)
(3.9246647e-05 3.3634661e-06 0 8.4591001e-06 0 0)
(3.4816811e-05 3.3038354e-06 0 7.5821635e-06 0 0)
(3.0558447e-05 3.1249291e-06 0 6.5971318e-06 0 0)
(2.6497785e-05 2.8578115e-06 0 5.5686769e-06 0 0)
(2.2718629e-05 2.5589454e-06 0 4.5127011e-06 0 0)
(1.926424e-05 2.2393616e-06 0 3.5099514e-06 0 0)
(1.6179289e-05 1.9292237e-06 0 2.6005961e-06 0 0)
(1.34925e-05 1.6195719e-06 0 1.8258111e-06 0 0)
(1.1224407e-05 1.3195401e-06 0 1.1970207e-06 0 0)
(9.3767951e-06 1.022576e-06 0 7.1258933e-07 0 0)
(7.9485074e-06 7.3167346e-07 0 3.6147276e-07 0 0)
(6.9286215e-06 4.4336128e-07 0 1.3111071e-07 0 0)
(6.3109329e-06 1.5063722e-07 0 1.4741276e-08 0 0)
(4.2225501e-05 -2.6338697e-05 0 3.3542434e-05 0 0)
(7.2372203e-05 -1.9816319e-05 0 4.2753653e-05 0 0)
(8.0231853e-05 -1.1295801e-05 0 4.1473897e-05 0 0)
(8.5571064e-05 -1.5736214e-05 0 3.9812972e-05 0 0)
(8.9445515e-05 -1.1081848e-05 0 3.4936193e-05 0 0)
(8.8257044e-05 -9.0754826e-06 0 3.2655558e-05 0 0)
(8.1887991e-05 -5.0125544e-06 0 2.8935768e-05 0 0)
(7.6179138e-05 -5.5875897e-06 0 2.4611508e-05 0 0)
(7.0870191e-05 -3.4066687e-06 0 2.1098642e-05 0 0)
(6.8355711e-05 -4.761007e-06 0 1.8371494e-05 0 0)
(6.7601353e-05 -2.9606446e-06 0 1.5715972e-05 0 0)
(6.6026714e-05 -1.4366117e-06 0 1.3789867e-05 0 0)
(6.2621397e-05 1.177118e-06 0 1.3008238e-05 0 0)
(5.8009427e-05 2.3928964e-06 0 1.2395539e-05 0 0)
(5.3165861e-05 3.2436922e-06 0 1.1731959e-05 0 0)
(4.8354355e-05 3.6080242e-06 0 1.094706e-05 0 0)
(4.3691917e-05 3.7616258e-06 0 1.0075361e-05 0 0)
(3.9101611e-05 3.7345236e-06 0 9.1600797e-06 0 0)
(3.4642144e-05 3.5694119e-06 0 8.1276094e-06 0 0)
(3.0336558e-05 3.302735e-06 0 7.0292419e-06 0 0)
(2.6260236e-05 2.9864063e-06 0 5.8534203e-06 0 0)
(2.2468034e-05 2.6442222e-06 0 4.6964155e-06 0 0)
(1.9008724e-05 2.314409e-06 0 3.6069902e-06 0 0)
(1.5925015e-05 1.987074e-06 0 2.647834e-06 0 0)
(1.3243604e-05 1.6724583e-06 0 1.8431329e-06 0 0)
(1.0982686e-05 1.3599566e-06 0 1.2009801e-06 0 0)
(9.1494562e-06 1.0536043e-06 0 7.1189901e-07 0 0)
(7.7346228e-06 7.5212872e-07 0 3.6013858e-07 0 0)
(6.7278376e-06 4.5471241e-07 0 1.3042964e-07 0 0)
(6.1194338e-06 1.5414187e-07 0 1.4652724e-08 0 0)
(6.5229532e-05 -3.8734682e-05 -1.4068281e-26 3.5645837e-05 1.0809071e-26 1.148066e-47)
(6.3599573e-05 -3.3649329e-05 0 4.771036e-05 0 0)
(8.0034722e-05 -1.8793117e-05 0 4.9897782e-05 0 0)
(9.1736736e-05 -1.4543889e-05 0 4.8013543e-05 0 0)
(9.8658913e-05 -1.505317e-05 0 4.327924e-05 0 0)
(9.8025002e-05 -7.0735544e-06 0 4.0660973e-05 0 0)
(9.1005705e-05 -7.7382345e-06 0 3.6992684e-05 0 0)
(8.3554396e-05 -4.1455603e-06 0 3.0942292e-05 0 0)
(7.7138124e-05 -5.2421873e-06 0 2.6638947e-05 0 0)
(7.3629081e-05 -4.2723622e-06 0 2.3171693e-05 0 0)
(7.3324033e-05 -5.0242056e-06 0 1.9373088e-05 0 0)
(7.2230446e-05 -1.4936651e-06 0 1.6673368e-05 0 0)
(6.8622447e-05 6.3226031e-07 0 1.5299911e-05 0 0)
(6.3592473e-05 2.8252568e-06 0 1.4714633e-05 0 0)
(5.8240441e-05 3.4862946e-06 0 1.3793257e-05 0 0)
(5.315449e-05 4.0047664e-06 0 1.2877499e-05 0 0)
(4.8300441e-05 4.1571427e-06 0 1.1881848e-05 0 0)
(4.3583785e-05 4.1801384e-06 0 1.0916975e-05 0 0)
(3.8963106e-05 4.0378052e-06 0 9.8467736e-06 0 0)
(3.4452669e-05 3.7757229e-06 0 8.6972562e-06 0 0)
(3.0120277e-05 3.4438486e-06 0 7.4233196e-06 0 0)
(2.6025403e-05 3.0757746e-06 0 6.1216298e-06 0 0)
(2.2220516e-05 2.7224385e-06 0 4.8464133e-06 0 0)
(1.8758963e-05 2.375485e-06 0 3.6849888e-06 0 0)
(1.5670684e-05 2.0478331e-06 0 2.6789796e-06 0 0)
(1.2993577e-05 1.7220434e-06 0 1.8516205e-06 0 0)
(1.0743027e-05 1.4020698e-06 0 1.2004678e-06 0 0)
(8.9218006e-06 1.083968e-06 0 7.0920918e-07 0 0)
(7.5223402e-06 7.7220886e-07 0 3.5815974e-07 0 0)
(6.5293674e-06 4.6566982e-07 0 1.2960466e-07 0 0)
(5.9307651e-06 1.5747554e-07 0 1.4555432e-08 0 0)
(0.00017300954 -4.6978686e-05 3.2108335e-27 3.6670049e-05 -2.9964949e-27 3.735977e-47)
(8.7108145e-05 -5.0964484e-05 1.7632589e-26 5.3909783e-05 -4.4635687e-27 1.253983e-47)
(6.9916379e-05 -3.2491059e-05 0 5.6844893e-05 0 0)
(9.2564965e-05 -2.0979806e-05 0 5.91056e-05 0 0)
(0.00010486507 -1.3807223e-05 0 5.3090927e-05 0 0)
(0.00011010529 -1.0364341e-05 0 5.1663936e-05 0 0)
(0.00010221013 -5.8431232e-06 0 4.7158433e-05 0 0)
(9.3963281e-05 -6.9728554e-06 0 3.9949964e-05 0 0)
(8.4984789e-05 -3.602779e-06 0 3.4184241e-05 0 0)
(8.0429878e-05 -6.6831661e-06 0 2.9992594e-05 0 0)
(8.0220437e-05 -5.2651772e-06 0 2.4771286e-05 0 0)
(7.9802595e-05 -3.4087965e-06 0 2.048239e-05 0 0)
(7.5783155e-05 1.1431797e-06 0 1.8681971e-05 0 0)
(6.9819742e-05 2.6898111e-06 0 1.7528702e-05 0 0)
(6.3792537e-05 4.0354055e-06 0 1.6457621e-05 0 0)
(5.8186238e-05 4.3237136e-06 0 1.5131342e-05 0 0)
(5.3092162e-05 4.5876195e-06 0 1.3949518e-05 0 0)
(4.8235849e-05 4.6264444e-06 0 1.2867297e-05 0 0)
(4.3496497e-05 4.5264212e-06 0 1.1757695e-05 0 0)
(3.8816193e-05 4.27715e-06 0 1.0577068e-05 0 0)
(3.427273e-05 3.9348063e-06 0 9.2345057e-06 0 0)
(2.9911831e-05 3.5362561e-06 0 7.8063614e-06 0 0)
(2.5796697e-05 3.1524041e-06 0 6.3473495e-06 0 0)
(2.1985407e-05 2.7815324e-06 0 4.9711184e-06 0 0)
(1.8507882e-05 2.4402723e-06 0 3.7388244e-06 0 0)
(1.5419952e-05 2.1046948e-06 0 2.6961682e-06 0 0)
(1.274377e-05 1.7753365e-06 0 1.8524052e-06 0 0)
(1.0501673e-05 1.4434002e-06 0 1.1959934e-06 0 0)
(8.6952927e-06 1.1144771e-06 0 7.0508693e-07 0 0)
(7.3117462e-06 7.9183951e-07 0 3.5573541e-07 0 0)
(6.3334731e-06 4.7617869e-07 0 1.2869291e-07 0 0)
(5.745188e-06 1.6061171e-07 0 1.4450376e-08 0 0)
(0.00042267217 -4.7984407e-05 -9.3501969e-27 3.7268007e-05 4.0441942e-27 3.7493909e-47)
(0.00019905095 -6.3219489e-05 -3.3883158e-26 5.8097199e-05 1.2283854e-26 1.1760383e-46)
(8.8746126e-05 -5.0467497e-05 0 6.5666447e-05 0 0)
(8.0162188e-05 -3.3857375e-05 0 6.7637702e-05 0 0)
(0.00010535258 -2.0572774e-05 0 6.6637366e-05 0 0)
(0.00011495404 -1.1097997e-05 0 6.5176856e-05 0 0)
(0.00011715521 -9.7813842e-06 0 6.1960681e-05 0 0)
(0.00010755403 -5.3157861e-06 0 5.1474649e-05 0 0)
(9.6422553e-05 -6.0046464e-06 0 4.4907145e-05 0 0)
(8.906433e-05 -5.7859637e-06 0 3.9737363e-05 0 0)
(8.9327074e-05 -8.7668766e-06 0 3.2537256e-05 0 0)
(8.9252548e-05 -3.5420124e-06 0 2.6210028e-05 0 0)
(8.4699411e-05 2.5604254e-08 0 2.3100238e-05 0 0)
(7.7281138e-05 3.6732199e-06 0 2.1755287e-05 0 0)
(6.995387e-05 4.0844511e-06 0 1.9757521e-05 0 0)
(6.3645525e-05 4.877407e-06 0 1.7998965e-05 0 0)
(5.8091046e-05 4.937819e-06 0 1.6329868e-05 0 0)
(5.3063101e-05 5.0877669e-06 0 1.5063114e-05 0 0)
(4.8219174e-05 5.0200872e-06 0 1.3868391e-05 0 0)
(4.3408093e-05 4.8040146e-06 0 1.2667655e-05 0 0)
(3.8688661e-05 4.4573868e-06 0 1.1287099e-05 0 0)
(3.4101556e-05 4.0285324e-06 0 9.7639341e-06 0 0)
(2.9714661e-05 3.6056793e-06 0 8.1358623e-06 0 0)
(2.5588435e-05 3.2024571e-06 0 6.5405715e-06 0 0)
(2.1749607e-05 2.8440772e-06 0 5.0609977e-06 0 0)
(1.8266718e-05 2.5003658e-06 0 3.7718128e-06 0 0)
(1.5165444e-05 2.1677098e-06 0 2.700716e-06 0 0)
(1.2492983e-05 1.8282796e-06 0 1.84612e-06 0 0)
(1.026085e-05 1.4863989e-06 0 1.1888612e-06 0 0)
(8.4692376e-06 1.1447072e-06 0 6.999282e-07 0 0)
(7.1030336e-06 8.1094525e-07 0 3.5306374e-07 0 0)
(6.1403219e-06 4.8617652e-07 0 1.2775835e-07 0 0)
(5.5629546e-06 1.6353475e-07 0 1.4343041e-08 0 0)
(0.00086820194 -4.4666935e-05 0 3.6748573e-05 0 0)
(0.00046247905 -6.623456e-05 1.722524e-27 6.2580323e-05 -5.5563615e-27 1.1752732e-46)
(0.00019280773 -6.4098033e-05 0 7.1845688e-05 0 0)
(9.3705312e-05 -5.3316537e-05 0 7.9284699e-05 0 0)
(9.3595041e-05 -3.6273785e-05 0 7.8434736e-05 0 0)
(0.00012143293 -2.5477159e-05 0 8.3665609e-05 0 0)
(0.00012746966 -1.3799058e-05 0 7.9870099e-05 0 0)
(0.00012764152 -9.7427918e-06 0 6.868301e-05 0 0)
(0.00011185097 -3.6453865e-06 0 5.9068614e-05 0 0)
(0.00010161989 -9.0077655e-06 0 5.3676677e-05 0 0)
(0.00010099609 -9.4341971e-06 0 4.3970411e-05 0 0)
(0.00010208621 -6.9843004e-06 0 3.4379535e-05 0 0)
(9.6058934e-05 1.0358862e-06 0 2.991249e-05 0 0)
(8.6554117e-05 3.2013237e-06 0 2.7330875e-05 0 0)