/*--------------------------------*- C++ -*----------------------------------*\
| =========                 |                                                 |
| \\      /  F ield         | OpenFOAM: The Open Source CFD Toolbox           |
|  \\    /   O peration     | Version:  5.0                                   |
|   \\  /    A nd           | Web:      www.OpenFOAM.org                      |
|    \\/     M anipulation  |                                                 |
\*---------------------------------------------------------------------------*/
FoamFile
{
    version     2.0;
    format      ascii;
    class       volScalarField;
    location    "300";
    object      ddt0(nuTilda);
}
// * * * * * * * * * * * * * * * * * * * * * * * * * * * * * * * * * * * * * //

dimensions      [0 2 -2 0 0 0 0];

internalField   nonuniform List<scalar> 
9520
(
-9.2237936e-37
-1.6625003e-34
-1.0934472e-35
-1.2508525e-32
-1.2546305e-33
-1.3420107e-35
-5.5706859e-31
-6.8527909e-32
-1.4482616e-33
-3.1168456e-36
-1.7256623e-29
-2.3570997e-30
-7.3517903e-32
-1.4825127e-34
1.6541229e-35
-4.071083e-28
-5.7859763e-29
-2.3187453e-30
4.005283e-33
2.1631529e-33
3.5678272e-35
-7.6854073e-27
-1.0987271e-27
-5.1036714e-29
5.7792335e-31
1.3223545e-31
4.192272e-33
4.1784073e-35
-1.1797819e-25
-1.6920859e-26
-8.4196735e-28
2.5965659e-29
5.040575e-30
2.3268832e-31
4.4234321e-33
2.5510866e-35
-1.4781473e-24
-2.1533296e-25
-1.0796241e-26
7.3517441e-28
1.3608139e-28
8.1192066e-30
2.2000784e-31
1.9454925e-33
-1.3944465e-35
-1.4963486e-23
-2.2651719e-24
-1.0764557e-25
1.533477e-26
2.812673e-27
2.0121609e-28
6.8217058e-30
5.4325059e-32
-2.9192538e-33
-6.513873e-35
-1.1666654e-22
-1.9095691e-23
-8.19806e-25
2.5194426e-25
4.6809529e-26
3.8107688e-27
1.4757355e-28
1.3167121e-31
-2.2493321e-31
-8.4194288e-33
-1.0551194e-34
-4.9517758e-22
-1.1275216e-22
-4.2840226e-24
3.3152796e-24
6.4826149e-25
5.7865445e-26
2.3545843e-27
-4.0030899e-29
-9.8794582e-30
-5.0085795e-31
-1.1820716e-32
-1.0903343e-34
2.4754359e-20
1.2895934e-22
-1.0013313e-23
3.5194789e-23
7.5786327e-24
7.2994507e-25
2.8182742e-26
-1.6199112e-27
-2.9320618e-28
-1.849541e-29
-6.2033731e-31
-1.0475352e-32
-5.8484651e-35
2.8568604e-18
4.9872358e-20
-4.1186418e-23
2.9079867e-22
7.5451786e-23
7.8500036e-24
2.4834282e-25
-3.9107733e-26
-6.4692965e-27
-4.805869e-28
-2.0349696e-29
-4.6001768e-31
-3.1906564e-33
4.2593209e-35
1.9891646e-16
3.5060862e-18
-4.7926819e-21
1.4000445e-21
6.4030045e-22
7.388541e-23
1.4867589e-24
-6.9757762e-25
-1.1296698e-25
-9.4474086e-27
-4.6959727e-28
-1.1978237e-29
4.4568893e-33
8.7099632e-33
1.6514575e-34
9.6339745e-15
1.7581616e-16
-1.0085869e-18
-3.6166917e-20
4.4903803e-21
6.3322333e-22
4.0701681e-24
-9.8098265e-24
-1.6265851e-24
-1.4764832e-25
-8.1036521e-27
-1.9583628e-28
6.058776e-30
6.5724559e-31
2.1298127e-32
2.6183982e-34
3.3636246e-13
6.3254973e-15
-1.1537197e-16
-3.8693133e-18
2.6190554e-21
5.2244276e-21
-1.2064388e-23
-1.1343359e-22
-1.974026e-23
-1.9043612e-24
-1.0787297e-25
-1.6778733e-27
2.9185106e-28
2.837255e-29
1.2588364e-30
2.9244757e-32
2.8469291e-34
8.3692586e-12
1.5814918e-13
-7.7039712e-15
-2.6185989e-16
-2.11603e-18
4.4143701e-20
2.292113e-22
-1.1059524e-21
-2.0653489e-22
-2.0740177e-23
-1.1242763e-24
9.4073997e-27
8.2200704e-27
8.2806236e-28
4.6015853e-29
1.5281158e-30
2.7923935e-32
2.0517152e-34
1.4999671e-10
2.6806804e-12
-3.4174961e-13
-1.3030375e-14
-1.2598361e-16
8.8740989e-19
2.7473054e-20
-9.1658916e-21
-1.9045881e-21
-1.9502737e-22
-9.034043e-24
6.2019727e-25
1.6834706e-25
1.788379e-26
1.1793912e-27
4.9776861e-29
1.2601032e-30
1.5442427e-32
2.7429625e-35
1.8376691e-09
2.6854669e-11
-1.0288333e-11
-4.7411794e-13
-4.872285e-15
7.7725263e-17
2.44072e-18
-4.9174369e-20
-1.5818035e-20
-1.6259585e-21
-5.1164049e-23
1.262796e-23
2.7161834e-24
3.0404677e-25
2.2745489e-26
1.1354278e-27
3.4226439e-29
4.2308095e-31
-6.3497348e-33
-2.1049408e-34
1.5092075e-08
1.2767355e-10
-2.1265681e-10
-1.2472311e-11
-1.2323186e-13
5.9215854e-15
1.9525831e-16
1.5652867e-18
-1.1624986e-19
-1.2446705e-20
-1.1996739e-22
1.7891502e-22
3.5770703e-23
4.2365534e-24
3.4614991e-25
1.9248761e-26
6.0557665e-28
5.9645362e-31
-8.1373055e-31
-3.222228e-32
-4.4696334e-34
7.9370711e-08
-1.092146e-09
-2.9024323e-09
-2.319941e-10
-1.7967511e-12
3.0237758e-13
1.1829763e-14
1.4858881e-16
-5.144745e-19
-9.3425121e-20
1.3540436e-21
2.0174481e-21
3.9665045e-22
4.9361812e-23
4.2990778e-24
2.4914715e-25
6.5805286e-27
-3.2454061e-28
-4.3090308e-29
-2.1274139e-30
-5.5043672e-32
-6.1409039e-34
2.8736975e-07
-1.7092475e-08
-2.6942092e-08
-2.8888725e-09
-6.8099001e-12
1.0448663e-11
5.1877958e-13
8.1267251e-15
-1.4714993e-18
-1.1264852e-18
1.945771e-20
1.9109573e-20
3.7952881e-21
4.9035746e-22
4.4272245e-23
2.4666802e-24
1.6328483e-26
-1.2587109e-26
-1.4088035e-27
-8.4593678e-29
-3.1350789e-30
-6.7796921e-32
-6.5626602e-34
7.267495e-07
-1.1408705e-07
-1.6486252e-07
-2.4522467e-08
3.4047828e-10
2.4236845e-10
1.6136613e-11
3.0913817e-13
-1.4400479e-15
-6.1152965e-17
-1.5490838e-19
1.5606458e-19
3.2018693e-20
4.2310395e-21
3.8151265e-22
1.7664598e-23
-9.9242514e-25
-2.948036e-25
-3.2782598e-26
-2.3240574e-27
-1.1107656e-28
-3.5002652e-30
-6.5484096e-32
-5.4440444e-34
1.3763016e-06
-4.484544e-07
-6.8765013e-07
-1.309243e-07
6.838007e-09
3.6470871e-09
3.472657e-10
8.0795851e-12
-1.3681174e-13
-4.5109996e-15
-3.2437918e-17
1.0325215e-18
2.4324938e-19
3.2366518e-20
2.7619938e-21
6.5533344e-23
-2.4842948e-23
-5.1245964e-24
-5.8950795e-25
-4.7629e-26
-2.7672002e-27
-1.1259103e-28
-3.0220015e-30
-4.638829e-32
-2.8251005e-34
2.2531954e-06
-1.0842488e-06
-1.9735839e-06
-4.7831073e-07
6.5808849e-08
3.6707281e-08
5.0565334e-09
1.3999335e-10
-6.5858073e-12
-2.4159844e-13
-2.3012238e-15
-2.6211299e-18
1.6782219e-18
2.2502736e-19
1.6794389e-20
-4.2270766e-22
-3.7620705e-22
-7.0512232e-23
-8.5957812e-24
-7.6891595e-25
-5.1780505e-26
-2.5349862e-27
-8.463689e-29
-1.6853031e-30
-1.2442099e-32
9.3748845e-35
3.5617895e-06
-1.5540935e-06
-4.0713175e-06
-1.2154629e-06
3.859632e-07
2.4598219e-07
4.9181666e-08
1.5286592e-09
-1.9127243e-10
-8.8994421e-12
-1.1160208e-13
-5.6968466e-16
9.9384723e-18
1.4639798e-18
8.5374342e-20
-1.1201922e-20
-4.3773797e-21
-8.0171178e-22
-1.0378152e-22
-1.0160626e-23
-7.6007502e-25
-4.2269249e-26
-1.5754859e-27
-2.9292276e-29
3.3420748e-31
3.1205905e-32
5.2428783e-34
3.7602232e-06
-2.2174207e-06
-6.6463062e-06
-2.3672479e-06
1.4310947e-06
1.1466619e-06
3.1633692e-07
9.3971247e-09
-3.5290732e-09
-2.2094752e-10
-3.7994475e-12
-2.483515e-14
8.5128798e-17
1.0849396e-17
3.6949504e-19
-1.3429009e-19
-4.2229465e-20
-7.7465937e-21
-1.0583979e-21
-1.1174464e-22
-9.0342423e-24
-5.333287e-25
-1.9252033e-26
-2.7716069e-30
4.5122694e-29
2.7045364e-30
7.71426e-32
9.3492155e-34
3.6857285e-06
-3.6349178e-06
-9.4514425e-06
-4.0348094e-06
3.5458326e-06
3.674429e-06
1.3345691e-06
2.1055519e-08
-4.2180142e-08
-3.6991945e-09
-8.6913418e-11
-6.5852726e-13
8.0806628e-15
3.1065836e-16
3.5002582e-18
-1.2027198e-18
-3.5106047e-19
-6.4982444e-20
-9.2642546e-21
-1.0361025e-21
-8.7829921e-23
-5.0645606e-24
-1.0998597e-25
1.3937433e-26
1.9229347e-27
1.255291e-28
4.9961003e-30
1.1691152e-31
1.2489773e-33
3.7290719e-06
-4.448755e-06
-1.1448217e-05
-5.9829574e-06
6.2078574e-06
8.2747994e-06
3.749858e-06
-1.1339468e-07
-3.2831893e-07
-4.1363424e-08
-1.3963685e-09
-1.3808347e-11
6.1299351e-13
2.287929e-14
2.8226654e-16
-8.0356613e-18
-2.5801702e-18
-4.8131597e-19
-7.0573422e-20
-8.169611e-21
-6.9557728e-22
-3.3074793e-23
1.2207394e-24
4.4031858e-25
5.1360955e-26
3.8401853e-27
1.9632638e-28
6.7531675e-30
1.4237663e-31
1.3996056e-33
3.1879998e-06
-4.9006765e-06
-1.2358452e-05
-6.5436559e-06
8.666975e-06
1.4160002e-05
7.3357436e-06
-1.023796e-06
-1.6850127e-06
-3.0166005e-07
-1.5403037e-08
-1.3645413e-10
2.5859174e-11
1.3099372e-12
2.2786393e-14
5.3684576e-17
-1.7075641e-17
-3.2002617e-18
-4.7349945e-19
-5.5032426e-20
-4.3642737e-21
-7.4145464e-23
4.3909254e-23
8.6914024e-24
1.0116348e-24
8.5496259e-26
5.3481964e-27
2.4210082e-28
7.573158e-30
1.4716731e-31
1.3422745e-33
2.5258744e-06
-5.1426314e-06
-1.2770245e-05
-6.3699766e-06
1.1190987e-05
1.9458944e-05
1.0799021e-05
-3.5801681e-06
-5.7987937e-06
-1.4996934e-06
-1.1281605e-07
7.4381925e-11
6.8715891e-10
4.9872141e-11
1.2458821e-12
7.4188303e-15
-1.1646991e-16
-1.9487044e-17
-2.8321318e-18
-3.1644835e-19
-1.9621564e-20
1.5994739e-21
7.194748e-22
1.2823373e-22
1.5809151e-23
1.4806631e-24
1.0858821e-25
6.0817061e-27
2.5063096e-28
7.187925e-30
1.2808695e-31
1.0655535e-33
1.658233e-06
-5.6016788e-06
-1.224314e-05
-5.9942457e-06
1.2921957e-05
2.3359853e-05
1.376954e-05
-7.3474606e-06
-1.3824582e-05
-5.091308e-06
-5.3360264e-07
1.9810173e-08
1.1738503e-08
1.2432949e-09
4.4884043e-11
3.2822967e-13
-3.1328713e-15
-1.2723073e-16
-1.5334697e-17
-1.5355217e-18
-3.347017e-20
2.9714046e-20
8.595367e-21
1.521508e-21
2.0132151e-22
2.0913754e-23
1.7309718e-24
1.142473e-25
5.7908519e-27
2.1573055e-28
5.5333364e-30
8.6114196e-32
5.9674724e-34
7.6619253e-07
-6.0061119e-06
-1.1599235e-05
-5.0465704e-06
1.3694868e-05
2.4970932e-05
1.478183e-05
-1.1459349e-05
-2.4276629e-05
-1.2144271e-05
-1.5959293e-06
2.5103835e-07
1.2941623e-07
2.0062887e-08
1.0483385e-09
8.0377123e-12
-2.3931578e-13
-2.6561811e-15
-8.0278674e-17
-6.1136719e-18
4.4646818e-19
3.2356932e-19
8.3080642e-20
1.5086614e-20
2.142709e-21
2.4458461e-22
2.2576736e-23
1.6794794e-24
9.9034724e-26
4.4087271e-27
1.3923337e-28
2.7857725e-30
2.6569247e-32
-7.4421348e-37
-2.0901678e-07
-6.2970163e-06
-1.0768726e-05
-3.7907566e-06
1.3825893e-05
2.4859419e-05
1.3359935e-05
-1.5736318e-05
-3.4229408e-05
-2.1552041e-05
-2.9614919e-06
1.6144216e-06
9.2576232e-07
2.081386e-07
1.5635417e-08
8.5775895e-11
-1.2551461e-11
-1.5399066e-13
-8.116673e-16
-1.882174e-17
6.2667785e-18
2.7331099e-18
6.7939277e-19
1.2802342e-19
1.9422412e-20
2.4090746e-21
2.4379819e-22
1.9961342e-23
1.2988953e-24
6.3641865e-26
2.0859872e-27
3.136892e-29
-6.5857404e-31
-4.1766021e-32
-6.3923087e-34
-1.1038166e-06
-6.5151922e-06
-9.7622038e-06
-2.4031864e-06
1.3822242e-05
2.394454e-05
1.1890713e-05
-1.8167587e-05
-4.0731634e-05
-3.0219342e-05
-3.3810982e-06
6.2503813e-06
4.3386252e-06
1.3839555e-06
1.4719715e-07
-5.0314877e-10
-4.0362268e-10
-7.1380277e-12
-3.2471589e-14
-7.9523773e-17
5.1305228e-17
1.9421345e-17
4.8267839e-18
9.4571136e-19
1.5211687e-19
2.0230315e-20
2.2061839e-21
1.9326306e-22
1.3056022e-23
6.2428017e-25
1.3018184e-26
-8.2663423e-28
-9.1043809e-29
-4.2635496e-30
-1.0847659e-31
-1.225476e-33
-1.660755e-06
-6.51958e-06
-8.6355042e-06
-9.7926724e-07
1.3650395e-05
2.2579201e-05
9.9331938e-06
-1.8717451e-05
-4.2650544e-05
-3.5238693e-05
-1.8468639e-06
1.5810192e-05
1.3548776e-05
5.9172345e-06
8.645315e-07
-2.551594e-08
-8.0274273e-09
-2.1160172e-10
-1.4949596e-12
-4.4644059e-15
3.2334139e-16
1.2079672e-16
3.0408105e-17
6.1702021e-18
1.0409063e-18
1.4623984e-19
1.6801155e-20
1.5160496e-21
9.6905084e-23
2.7883295e-24
-2.4023532e-25
-4.5094413e-26
-3.8516762e-27
-2.0834921e-28
-7.473511e-30
-1.6389249e-31
-1.6809207e-33
-2.0533721e-06
-6.1327034e-06
-7.4863146e-06
4.5818612e-07
1.3246403e-05
2.0944437e-05
8.0878612e-06
-1.8195786e-05
-4.2069886e-05
-3.642774e-05
1.0262992e-06
2.8716843e-05
2.923525e-05
1.6490355e-05
3.1376993e-06
-3.146657e-07
-1.0035379e-07
-4.0284042e-09
-4.8850009e-11
-2.5998229e-13
1.2898962e-15
6.7569343e-16
1.7309434e-16
3.6033554e-17
6.289599e-18
9.151663e-19
1.0750682e-19
9.3471619e-21
4.241303e-22
-2.997446e-23
-9.1023352e-24
-1.146067e-24
-1.0073777e-25
-6.496524e-27
-3.0267513e-28
-9.8402203e-30
-2.0113042e-31
-1.9571159e-33
-2.328977e-06
-5.1172379e-06
-6.3878175e-06
1.6553427e-06
1.276219e-05
1.9091183e-05
6.1373414e-06
-1.7404137e-05
-3.9293945e-05
-3.5832245e-05
3.9218947e-06
4.0736562e-05
4.702149e-05
3.1309839e-05
7.0038779e-06
-2.0355591e-06
-7.9818416e-07
-5.0965291e-08
-1.0658328e-09
-9.8159665e-12
-2.9497694e-14
3.456312e-15
9.0795003e-16
1.9112728e-16
3.3879663e-17
4.9762223e-18
5.6953354e-19
4.0599696e-20
-1.0170344e-21
-8.8063964e-22
-1.6467784e-22
-2.0504031e-23
-1.9383196e-24
-1.4487782e-25
-8.379336e-27
-3.6191769e-28
-1.1113186e-29
-2.1728906e-31
-2.0420777e-33
-1.9096527e-06
-3.5412202e-06
-4.0947915e-06
2.0942368e-06
1.1943153e-05
1.7060675e-05
4.1181299e-06
-1.6309793e-05
-3.5401896e-05
-3.5481932e-05
6.8771838e-06
4.8487041e-05
6.1299135e-05
4.3382735e-05
9.813917e-06
-7.8661141e-06
-4.1055578e-06
-4.2557336e-07
-1.5291344e-08
-2.4098443e-10
-1.5752622e-12
1.5949133e-14
4.5570614e-15
9.3846455e-16
1.6424365e-16
2.3451588e-17
2.3772776e-18
5.6797915e-20
-4.343188e-20
-1.2389277e-20
-2.1567308e-21
-2.8289804e-22
-2.947816e-23
-2.4937973e-24
-1.7149415e-25
-9.2916475e-27
-3.8186617e-28
-1.1269342e-29
-2.1346643e-31
-1.956598e-33
-1.0098772e-06
9.2228926e-07
-1.71527e-06
1.8497733e-06
1.0627856e-05
1.473607e-05
1.780915e-06
-1.5157429e-05
-3.0835167e-05
-3.3711597e-05
6.1960018e-06
5.2418784e-05
6.6999282e-05
4.738203e-05
8.1731543e-06
-1.9630993e-05
-1.4011886e-05
-2.3606937e-06
-1.4371867e-07
-3.8139779e-09
-4.07422e-11
1.9500313e-13
3.2490405e-14
4.5061311e-15
7.2713202e-16
9.4237298e-17
6.5211884e-18
-1.0339519e-18
-5.3338514e-19
-1.2854068e-19
-2.2624703e-20
-3.1745039e-21
-3.6511898e-22
-3.47415e-23
-2.7486735e-24
-1.7869824e-25
-9.2401317e-27
-3.6591051e-28
-1.0477738e-29
-1.937515e-31
-1.7431685e-33
1.6376042e-07
2.5948708e-06
2.0788672e-06
7.6977675e-07
8.9417334e-06
1.2240585e-05
-5.8622932e-07
-1.3842835e-05
-2.5643792e-05
-3.1324503e-05
4.8562006e-06
5.3138853e-05
6.6783898e-05
4.7050957e-05
3.1637935e-06
-3.4563957e-05
-3.3059855e-05
-8.8570777e-06
-8.8925315e-07
-3.8545434e-08
-5.8615607e-10
1.3674293e-11
1.1602851e-12
4.1934831e-14
3.1425021e-15
3.102906e-16
-4.0453248e-18
-1.3468274e-17
-4.6635353e-18
-1.0855018e-18
-1.9861045e-19
-2.9921567e-20
-3.7763854e-21
-4.0126063e-22
-3.5913362e-23
-2.7060037e-24
-1.6849542e-25
-8.3973018e-27
-3.2274873e-28
-9.0204673e-30
-1.6366362e-31
-1.4519037e-33
-1.8104276e-06
1.3480345e-06
4.7313535e-06
1.9323e-06
6.8299219e-06
9.5255428e-06
-2.86401e-06
-1.2293206e-05
-2.013393e-05
-2.844715e-05
3.3785966e-06
5.0404077e-05
6.4743035e-05
4.0426324e-05
-4.9993529e-06
-4.7554289e-05
-5.7146919e-05
-2.3287121e-05
-3.6665117e-06
-2.4603001e-07
-3.6783557e-09
5.9395399e-10
5.9371787e-11
2.1128717e-12
3.5286572e-14
7.7159608e-16
-2.0757481e-16
-1.0824601e-16
-3.3179892e-17
-7.7886398e-18
-1.4962306e-18
-2.4187515e-19
-3.3278328e-20
-3.9104147e-21
-3.9196005e-22
-3.3459238e-23
-2.4225475e-24
-1.4548509e-25
-7.0254191e-27
-2.6311759e-28
-7.2012882e-30
-1.2857324e-31
-1.1279361e-33
4.1431258e-06
-4.6647409e-06
2.9928295e-06
5.8504082e-06
1.4872552e-06
6.7642163e-06
-5.0036172e-06
-1.0457406e-05
-1.4493645e-05
-2.5119075e-05
1.8502033e-06
4.6902525e-05
6.0475003e-05
3.2891634e-05
-1.1323747e-05
-5.6069961e-05
-7.7187879e-05
-4.4925317e-05
-1.0357106e-05
-9.6658625e-07
1.2496063e-08
1.3864792e-08
1.9247866e-09
1.0690354e-10
2.1321297e-12
1.0231875e-14
-1.8131535e-15
-7.0222507e-16
-2.021397e-16
-4.8667717e-17
-9.8423909e-18
-1.7022644e-18
-2.5367936e-19
-3.2654005e-20
-3.6265909e-21
-3.4635282e-22
-2.8389258e-23
-1.98221e-24
-1.1506456e-25
-5.3902309e-27
-1.9671715e-28
-5.2698916e-30
-9.2555758e-32
-8.0324997e-34
4.0163843e-06
-3.5303905e-07
-5.1918015e-06
4.7661152e-06
6.4010996e-06
8.5851119e-07
-6.6698253e-06
-8.0898163e-06
-8.7998126e-06
-2.1546775e-05
4.7385644e-07
4.2976763e-05
5.5857567e-05
2.8648223e-05
-1.3279318e-05
-5.6845787e-05
-8.813628e-05
-6.7128256e-05
-2.0772239e-05
-2.1970724e-06
3.8578876e-07
1.8830463e-07
3.7465529e-08
3.2726104e-09
1.053519e-10
8.7074189e-13
-1.1630704e-14
-3.9276031e-15
-1.0860278e-15
-2.6930348e-16
-5.728186e-17
-1.0554595e-17
-1.6927446e-18
-2.3661383e-19
-2.8797546e-20
-3.0415699e-21
-2.776224e-22
-2.1854181e-23
-1.4670433e-24
-8.1866424e-26
-3.693657e-27
-1.3014793e-28
-3.378864e-30
-5.7849401e-32
-4.9361745e-34
-7.2265157e-06
9.2330264e-07
-3.7437003e-06
-4.6399501e-06
6.321616e-06
6.6185727e-06
-5.0253591e-08
-4.8641158e-06
-3.0698085e-06
-1.8089471e-05
-8.9478399e-07
3.8823277e-05
5.0755986e-05
2.3644845e-05
-1.4264096e-05
-5.0375946e-05
-9.0581031e-05
-8.3189152e-05
-3.127661e-05
-2.1039196e-06
2.9273002e-06
1.553605e-06
4.4267868e-07
5.9479724e-08
3.0562841e-09
4.1417327e-11
-9.9614293e-14
-2.0689104e-14
-5.2767743e-15
-1.3368033e-15
-2.9808651e-16
-5.8219672e-17
-9.9822494e-18
-1.502575e-18
-1.9824395e-19
-2.2851367e-20
-2.289034e-21
-1.9822711e-22
-1.4789948e-23
-9.3530336e-25
-4.8761137e-26
-2.0396952e-27
-6.6147401e-29
-1.5749779e-30
-2.486913e-32
-1.9986447e-34
2.1356525e-07
-6.8430387e-06
-1.750006e-06
-6.3798572e-06
-3.6099271e-06
7.6328416e-06
6.5061028e-06
-1.0011259e-06
1.5750851e-06
-1.478183e-05
-2.3187274e-06
3.4453683e-05
4.5731552e-05
1.818514e-05
-1.5507925e-05
-4.385023e-05
-7.9735129e-05
-9.1851867e-05
-3.8243944e-05
2.5640792e-06
1.2074779e-05
8.0305832e-06
3.222466e-06
6.49569e-07
5.1857722e-08
1.0794077e-09
-5.6318481e-12
-1.957897e-13
-2.3793397e-14
-6.0249776e-15
-1.3997632e-15
-2.8805489e-16
-5.2428863e-17
-8.4245134e-18
-1.1914584e-18
-1.4761436e-19
-1.5907451e-20
-1.4753343e-21
-1.1642749e-22
-7.7076181e-24
-4.1157829e-25
-1.6497121e-26
-4.3365254e-28
-3.9518968e-30
1.8327994e-31
7.3874325e-33
8.8181342e-35
7.5700014e-06
4.1829365e-06
-6.5992677e-06
-5.2838033e-06
-8.3748081e-06
-2.4824682e-06
8.8861543e-06
6.1987748e-06
-1.8725999e-06
-1.1334832e-05
-4.2293273e-06
2.9830017e-05
4.0482778e-05
1.2566479e-05
-1.7163861e-05
-3.7664791e-05
-6.914741e-05
-9.6329061e-05
-4.0420861e-05
1.2410257e-05
3.1580679e-05
2.6725885e-05
1.4694711e-05
4.312141e-06
5.2016633e-07
1.54982e-08
-2.9850738e-10
-8.009941e-12
-1.1413845e-13
-2.5020876e-14
-5.9809478e-15
-1.2875144e-15
-2.4677418e-16
-4.1910936e-17
-6.2691299e-18
-8.1862435e-19
-9.199325e-20
-8.6768713e-21
-6.5367296e-22
-3.4879103e-23
-6.518808e-25
1.1226361e-25
1.5936233e-26
1.1942447e-27
5.9622348e-29
1.9931465e-30
4.0746358e-32
3.8661575e-34
-9.4020984e-06
1.2322635e-05
7.8560547e-06
-7.1246671e-06
-8.8540323e-06
-1.0032578e-05
-1.094549e-06
9.9532809e-06
5.8045438e-06
-2.6838638e-06
-7.0918893e-06
2.5271259e-05
3.5227563e-05
6.8631434e-06
-1.9558634e-05
-3.1606367e-05
-5.7003199e-05
-9.3584019e-05
-5.0287018e-05
2.494564e-05
5.7818688e-05
5.9721873e-05
4.2774565e-05
1.7617136e-05
3.1040818e-06
1.1814027e-07
-8.2997001e-09
-3.2053734e-10
-1.7399491e-12
-9.8389911e-14
-2.3465759e-14
-5.2316271e-15
-1.0456913e-15
-1.853735e-16
-2.8786574e-17
-3.8394263e-18
-4.2311957e-19
-3.492161e-20
-1.3550237e-21
1.7959128e-22
4.881556e-23
6.7013635e-24
6.6562556e-25
5.0611447e-26
2.9522891e-27
1.2877867e-28
3.9700585e-30
7.7223046e-32
7.1233287e-34
-1.0322429e-05
-5.9478817e-06
1.6361882e-05
1.0598273e-05
-7.0322674e-06
-1.2520283e-05
-1.1394434e-05
4.424793e-07
1.0811748e-05
5.3094691e-06
-3.3006316e-06
2.0366612e-05
2.977414e-05
1.3167319e-06
-2.168732e-05
-2.5610728e-05
-4.4016068e-05
-8.7071285e-05
-5.7760177e-05
2.8097965e-05
8.2914725e-05
9.6050671e-05
8.2472591e-05
4.4957628e-05
1.1053626e-05
4.0242599e-07
-1.2827685e-07
-7.7308632e-09
-7.0780935e-11
-5.0170802e-13
-8.5604658e-14
-1.9438504e-14
-4.000342e-15
-7.2720846e-16
-1.1371756e-16
-1.4516472e-17
-1.2970213e-18
-1.5289002e-20
2.4082226e-20
6.320398e-21
1.0705333e-21
1.4020044e-22
1.486412e-23
1.2866899e-24
8.9806781e-26
4.9470263e-27
2.0731145e-28
6.2115036e-30
1.1843635e-31
1.0784639e-33
1.5041605e-05
-1.3621719e-05
-2.1185231e-06
2.0042345e-05
1.2868746e-05
-7.0860614e-06
-1.61437e-05
-1.225921e-05
1.8885044e-06
1.1422175e-05
4.7736989e-06
-3.7368822e-06
2.4113719e-05
-4.3284745e-06
-2.3533047e-05
-1.898815e-05
-3.104525e-05
-7.7666396e-05
-6.2624327e-05
2.6824911e-05
0.00010062743
0.00012228466
0.00011378181
7.4597172e-05
2.368503e-05
-1.3332614e-07
-1.1571781e-06
-1.113601e-07
-2.0041518e-09
-1.0758846e-11
-3.0646598e-13
-6.6490434e-14
-1.3821056e-14
-2.5046206e-15
-3.7093623e-16
-3.7079268e-17
4.7150042e-19
1.3774895e-18
4.200784e-19
8.8413069e-20
1.4873466e-20
2.0822543e-21
2.4537919e-22
2.4328916e-23
2.0066425e-24
1.3514986e-25
7.2453721e-27
2.9732764e-28
8.7658482e-30
1.6512211e-31
1.4906927e-33
1.7965247e-05
9.1359651e-06
-1.4437605e-05
1.8628974e-06
2.3545586e-05
1.486868e-05
-7.2273679e-06
-1.9166374e-05
-1.2756072e-05
3.3389082e-06
1.1860002e-05
4.4600555e-06
-3.6241553e-06
-9.8987498e-06
-2.485373e-05
-1.1447449e-05
-1.8575722e-05
-6.6166945e-05
-6.5649043e-05
2.2871353e-05
0.00010632479
0.00014056929
0.00012373114
8.7331516e-05
3.1930444e-05
-5.4272194e-06
-6.324406e-06
-9.8120239e-07
-3.369695e-08
-3.4563216e-10
-2.0670381e-12
-2.1213188e-13
-4.3002568e-14
-7.3699455e-15
-8.7135627e-16
9.6624361e-18
4.4742579e-17
1.6693929e-17
4.3336889e-18
9.1189252e-19
1.6238789e-19
2.4822817e-20
3.2651695e-21
3.6824978e-22
3.5320399e-23
2.8355462e-24
1.8687263e-25
9.8433869e-27
3.9823964e-28
1.1608999e-29
2.1678216e-31
1.145946e-35
-1.5409948e-05
1.1043873e-05
2.5332741e-06
-1.4424431e-05
5.9881347e-06
2.6844088e-05
1.6622491e-05
-7.8407016e-06
-2.1041256e-05
-1.3064701e-05
4.7572669e-06
1.2187068e-05
3.9498075e-06
-3.6020673e-06
-2.5502469e-05
-3.447981e-06
-6.5065768e-06
-5.3770096e-05
-6.6815401e-05
1.716573e-05
0.0001070848
0.00014288131
0.00012072606
7.82452e-05
2.7652748e-05
-1.8182682e-05
-2.1689496e-05
-5.4301405e-06
-3.4522944e-07
-7.0294633e-09
-5.2437261e-11
-7.3865961e-13
-1.1963002e-13
-1.7147804e-14
-4.0003237e-16
8.9023338e-16
4.2544311e-16
1.3595295e-16
3.5158809e-17
7.7543273e-18
1.4862327e-18
2.4890517e-19
3.6401109e-20
4.6284438e-21
5.0802423e-22
4.7643219e-23
3.751415e-24
2.4328064e-25
1.2645821e-26
5.0616791e-28
1.4631782e-29
1.909568e-33
3.7366265e-38
-2.4963623e-05
-2.0506584e-05
2.9740944e-06
-4.463412e-06
-1.3742784e-05
9.9711362e-06
2.9991468e-05
1.8031107e-05
-8.7726655e-06
-2.2655701e-05
-1.3124294e-05
5.9750472e-06
1.1669593e-05
3.143996e-06
-3.574711e-06
5.067503e-06
5.5822343e-06
-4.1665817e-05
-6.612765e-05
1.0473672e-05
0.00010450217
0.00014264197
0.0001153043
6.1009819e-05
1.4225583e-05
-3.294026e-05
-4.8856895e-05
-1.9533829e-05
-2.2300518e-06
-8.66066e-08
-1.2375984e-09
-7.8327583e-12
-3.0107912e-13
-2.2299712e-14
1.0735254e-14
7.2338687e-15
2.8601077e-15
9.0001842e-16
2.4165304e-16
5.6707281e-17
1.1739299e-17
2.148988e-18
3.4722433e-19
4.9312351e-20
6.1177706e-21
6.5789804e-22
6.0562385e-23
4.694724e-24
3.0054963e-25
1.5461217e-26
6.1389555e-28
1.4644757e-31
7.4981692e-36
4.0248157e-41
1.3764967e-05
-2.2500284e-05
-2.4595649e-05
-5.4567253e-06
-1.1019182e-05
-1.2509714e-05
1.3943394e-05
3.29558e-05
1.9300682e-05
-1.0080708e-05
-2.4127567e-05
-1.3181514e-05
6.5202055e-06
1.069304e-05
1.8491492e-06
-2.4317506e-06
1.8139644e-05
-3.0700735e-05
-6.3732215e-05
3.2808598e-06
0.00010000743
0.00013956217
0.00011097567
5.0658898e-05
-1.691256e-06
-4.1407113e-05
-7.632578e-05
-4.7841376e-05
-9.417372e-06
-6.686309e-07
-1.8042302e-08
-1.857552e-10
-1.2243526e-12
5.3731434e-14
8.2799956e-14
4.1772091e-14
1.5928568e-14
5.1384695e-15
1.4519777e-15
3.6402172e-16
8.1316943e-17
1.6196838e-17
2.8713718e-18
4.5134019e-19
6.2581553e-20
7.6042318e-21
8.0344642e-22
7.2800904e-23
5.5705352e-24
3.5295672e-25
1.8016434e-26
6.9731302e-30
6.7289082e-34
1.1070107e-38
4.2799964e-45
3.0371453e-05
2.2427367e-05
-1.8714296e-05
-2.8162146e-05
-1.2633526e-05
-1.6650089e-05
-1.1176513e-05
1.7700847e-05
3.5871977e-05
2.0268472e-05
-1.1342502e-05
-2.5321758e-05
-1.2548944e-05
6.99772e-06
8.3837947e-06
1.4361984e-06
-1.5227638e-06
-1.9915428e-05
-6.0330509e-05
-4.2851358e-06
9.3992881e-05
0.00013565952
0.00010553341
3.931242e-05
-1.2938259e-05
-4.2633517e-05
-8.7684334e-05
-8.497413e-05
-2.7268407e-05
-3.354123e-06
-1.6350036e-07
-3.1397424e-09
-2.3282863e-11
5.1927625e-13
4.2888848e-13
2.012696e-13
7.7468183e-14
2.5990391e-14
7.7584561e-15
2.075824e-15
4.9875324e-16
1.0753731e-16
2.0769508e-17
3.5823531e-18
5.4947832e-19
7.4555719e-20
8.8903157e-21
9.2481423e-22
8.2672959e-23
6.2596261e-24
3.9359065e-25
2.326618e-28
3.7149551e-32
1.2204772e-36
4.7738446e-42
-7.7079582e-48
-9.3523126e-06
4.1292353e-05
3.1140935e-05
-1.4910173e-05
-3.4035634e-05
-2.1114515e-05
-2.1393797e-05
-9.8202556e-06
2.1284909e-05
3.8605845e-05
2.0904841e-05
-1.2386076e-05
-2.5336082e-05
-1.1053424e-05
6.8355846e-06
5.8563299e-06
9.1448378e-07
-7.9435412e-07
-5.7978737e-05
-1.166367e-05
8.6449704e-05
0.00013070166
9.8313119e-05
2.700294e-05
-2.5315483e-05
-4.4447579e-05
-7.3710456e-05
-0.0001152121
-5.7579882e-05
-1.1467822e-05
-9.5489023e-07
-3.2974612e-08
-4.5410742e-10
5.7382328e-13
1.8348588e-12
8.5372847e-13
3.374314e-13
1.182565e-13
3.7264228e-14
1.0604763e-14
2.726872e-15
6.3278498e-16
1.3224179e-16
2.4824364e-17
4.1720538e-18
6.2518561e-19
8.310786e-20
9.7487207e-21
9.994469e-22
8.8353737e-23
6.6378063e-24
5.7992561e-27
1.4344921e-30
8.0188843e-35
7.3736117e-40
1.2321716e-46
-3.2854518e-51
-5.5970632e-05
9.8234496e-07
5.094127e-05
3.9282168e-05
-1.1508039e-05
-3.8965731e-05
-2.9789656e-05
-2.6124103e-05
-8.9364509e-06
2.4645799e-05
4.0923288e-05
2.0724646e-05
-1.3358141e-05
-2.4029097e-05
-8.2955858e-06
4.5429714e-06
3.5210456e-06
3.6861965e-07
-3.1793578e-07
-1.8814189e-05
7.6990163e-05
0.00012401281
9.0725018e-05
1.3160813e-05
-4.1735666e-05
-4.9127943e-05
-6.029308e-05
-0.00011152332
-9.451379e-05
-2.8308378e-05
-3.7744625e-06
-2.2118485e-07
-5.5124773e-09
-4.3601243e-11
6.7554166e-12
3.2715991e-12
1.3364099e-12
4.8907505e-13
1.6214496e-13
4.884445e-14
1.3364217e-14
3.3156846e-15
7.443758e-16
1.5086921e-16
2.7530509e-17
4.5085443e-18
6.6018174e-19
8.6036739e-20
9.941242e-21
1.006573e-21
8.8239027e-23
1.1217933e-25
4.1431714e-29
3.6492757e-33
5.9812644e-38
1.3749786e-43
-2.8556887e-49
-6.6086147e-55
-2.5685537e-05
-5.2673911e-05
1.0789038e-05
5.965781e-05
4.6839193e-05
-8.2862465e-06
-4.376048e-05
-3.8590939e-05
-3.1116424e-05
-8.416013e-06
2.7608285e-05
4.2053039e-05
1.9195218e-05
-1.3433842e-05
-2.0507761e-05
-5.8931822e-06
2.950406e-06
1.6536404e-06
8.5364601e-08
-8.7794228e-08
6.5106985e-05
0.0001149731
8.21064e-05
-2.7156378e-06
-5.9970189e-05
-5.5011002e-05
-4.7576727e-05
-9.4134724e-05
-0.00012507397
-5.3911763e-05
-1.0672661e-05
-9.9658546e-07
-4.219111e-08
-7.314375e-10
1.8436376e-11
1.1517412e-11
4.8655509e-12
1.8537505e-12
6.43364e-13
2.0392581e-13
5.8981702e-14
1.553403e-14
3.7169704e-15
8.0629821e-16
1.582389e-16
2.8026306e-17
4.4666315e-18
6.3852926e-19
8.159279e-20
9.2981712e-21
9.3206778e-22
1.7237159e-24
9.3141057e-28
1.2401299e-31
3.2479007e-36
1.5521981e-41
1.3510775e-49
-7.7500577e-53
-8.6019279e-59
5.1876289e-05
-3.2811174e-05
-4.7019653e-05
2.0008165e-05
6.7693678e-05
5.3899256e-05
-5.1004678e-06
-4.7939936e-05
-4.7193575e-05
-3.6149584e-05
-7.8486193e-06
3.1267797e-05
4.2189146e-05
1.6221711e-05
-1.1966276e-05
-1.4796218e-05
-3.5251571e-06
1.5894946e-06
5.6138065e-07
6.3079735e-09
-1.6748608e-08
0.00010313172
7.1414765e-05
-2.0055516e-05
-7.9120103e-05
-6.2544925e-05
-3.7048096e-05
-6.7270038e-05
-0.00013474368
-8.951474e-05
-2.3109488e-05
-3.1855784e-06
-2.1470449e-07
-6.5750979e-09
-1.2233643e-11
3.7705472e-11
1.6520085e-11
6.4901103e-12
2.3423847e-12
7.7567555e-13
2.3537698e-13
6.5281892e-14
1.6504553e-14
3.7948635e-15
7.9205307e-16
1.4983744e-16
2.5645114e-17
3.9620743e-18
5.5105941e-19
6.9062592e-20
7.7591224e-21
2.1310029e-23
1.67087e-26
3.285621e-30
1.3053066e-34
1.0173446e-39
1.5149123e-45
-3.5048127e-51
-1.1285667e-56
-8.2061639e-63
8.8319835e-05
3.7658116e-05
-3.7597353e-05
-3.9605165e-05
2.8943569e-05
7.5023239e-05
6.022626e-05
-1.4223479e-06
-5.1033343e-05
-5.5109135e-05
-4.1033515e-05
-7.2231709e-06
3.4497217e-05
3.8604809e-05
1.2049895e-05
-8.7705162e-06
-8.9501325e-06
-1.4382327e-06
6.1752744e-07
1.2968854e-07
-1.8988125e-09
-2.0314143e-09
5.8380903e-05
-3.787251e-05
-9.9119594e-05
-6.9971313e-05
-2.6757076e-05
-3.9857678e-05
-0.00011983592
-0.00012180011
-4.7977185e-05
-7.6971202e-06
-7.6663404e-07
-3.7671379e-08
-6.2411947e-10
1.1387405e-10
5.3727431e-11
2.1477913e-11
7.8902756e-12
2.7022062e-12
8.5271399e-13
2.4672819e-13
6.5232395e-14
1.5712652e-14
3.4404529e-15
6.8375733e-16
1.2324682e-16
2.0136277e-17
2.9805902e-18
3.9877431e-19
4.878902e-20
2.1248054e-22
2.4284519e-25
6.9701904e-29
4.0905372e-33
4.7636072e-38
1.3691849e-43
-1.3278795e-50
-6.654039e-55
-1.1406934e-60
-6.9007683e-67
4.2404292e-05
7.0707959e-05
2.2818503e-05
-3.9851726e-05
-3.1046622e-05
3.7382812e-05
8.1641481e-05
6.5610389e-05
2.3195481e-06
-5.2807981e-05
-6.1962899e-05
-4.6044525e-05
-4.60228e-06
3.4807412e-05
3.158346e-05
7.5220698e-06
-5.3806404e-06
-4.1225712e-06
-3.8106135e-07
1.6290796e-07
2.2273853e-08
-4.8035857e-10
-1.6602293e-10
-5.4444263e-05
-0.00011635847
-7.506819e-05
-1.5111651e-05
-1.2228183e-05
-8.583594e-05
-0.00014394064
-7.902066e-05
-1.995053e-05
-2.0203312e-06
-1.4369257e-07
-3.7492153e-09
3.9653825e-10
1.7659933e-10
6.9973929e-11
2.5895135e-11
8.7696905e-12
2.8157395e-12
8.4023811e-13
2.2929651e-13
5.6953442e-14
1.2826466e-14
2.6108501e-15
4.7921268e-16
7.9230231e-17
1.1805047e-17
1.591072e-18
1.9543337e-19
1.6867558e-21
2.8801033e-24
1.2040273e-27
1.0303083e-31
1.7276363e-36
7.5137233e-42
8.1362879e-48
-2.0592767e-53
-7.435311e-59
-9.9638821e-65
-5.5564485e-71
-6.8861775e-05
2.4153915e-05
5.0959778e-05
8.4900642e-06
-4.0163853e-05
-2.1882013e-05
4.5655076e-05
8.7450428e-05
7.0088253e-05
5.7137201e-06
-5.2815431e-05
-6.8316139e-05
-4.671565e-05
6.610896e-08
3.1220263e-05
2.1388283e-05
3.4384269e-06
-2.6122206e-06
-1.3442463e-06
-6.3227584e-08
2.8579469e-08
2.4625542e-09
-5.5005598e-11
-9.2722595e-12
-0.00012806589
-7.589818e-05
-1.1137754e-06
1.7090409e-05
-5.0406321e-05
-0.00014711318
-0.00011374384
-3.9233615e-05
-6.4928677e-06
-3.3520851e-07
5.4599606e-09
5.1551656e-09
1.0019949e-09
2.5100455e-10
8.6295277e-11
2.843925e-11
8.7172223e-12
2.5810718e-12
7.1393462e-13
1.7850781e-13
3.9942552e-14
7.8992096e-15
1.3554035e-15
1.953696e-16
2.2027452e-17
1.5120359e-18
-6.2399547e-20
1.015657e-20
2.7815104e-23
1.7099511e-26
2.1249038e-30
5.0550187e-35
3.0656303e-40
6.182457e-46
-1.1134267e-52
-2.9198513e-57
-6.8545479e-63
-8.2647353e-69
-4.296779e-75
-0.00013159791
-8.0480392e-05
4.6134799e-06
3.061283e-05
-4.3946932e-06
-3.9545819e-05
-1.2675925e-05
5.3324813e-05
9.2762352e-05
7.3212797e-05
8.6141763e-06