/*--------------------------------*- C++ -*----------------------------------*\
| =========                 |                                                 |
| \\      /  F ield         | OpenFOAM: The Open Source CFD Toolbox           |
|  \\    /   O peration     | Version:  5.0                                   |
|   \\  /    A nd           | Web:      www.OpenFOAM.org                      |
|    \\/     M anipulation  |                                                 |
\*---------------------------------------------------------------------------*/
FoamFile
{
    version     2.0;
    format      ascii;
    class       volVectorField;
    location    "300";
    object      ddtCorrDdt0(U);
}
// * * * * * * * * * * * * * * * * * * * * * * * * * * * * * * * * * * * * * //

dimensions      [0 1 -2 0 0 0 0];

internalField   nonuniform List<vector> 
9520
(
(-0.00026799149 -7.9433579e-07 0)
(-0.00026537689 -1.6460585e-06 0)
(-0.00026588306 -1.579212e-06 0)
(-0.00026036179 -1.8638456e-06 0)
(-0.00026417961 -4.6213015e-06 0)
(-0.00026283226 1.6723356e-06 0)
(-0.00025281075 -1.6309275e-06 0)
(-0.00026003024 -6.9893843e-06 0)
(-0.00026110118 3.8398074e-06 0)
(-0.00027097385 7.2935282e-06 0)
(-0.0002429776 -8.7103049e-07 0)
(-0.00025358562 -8.7282619e-06 0)
(-0.0002572539 5.4116654e-06 0)
(-0.00026799296 2.0213374e-05 0)
(-0.00028400844 1.0319856e-05 0)
(-0.0002314494 -1.4268618e-08 0)
(-0.00024479714 -8.5434185e-06 0)
(-0.00025216308 6.7127608e-06 0)
(-0.00026321724 3.1492744e-05 0)
(-0.0002804419 3.0374249e-05 0)
(-0.00030179894 9.2809823e-06 0)
(-0.00021795808 8.7706647e-07 0)
(-0.00023391609 -7.0164312e-06 0)
(-0.00024550514 8.9128277e-06 0)
(-0.00025764709 4.1673114e-05 0)
(-0.00027526214 4.9178563e-05 0)
(-0.00029914296 2.8933163e-05 0)
(-0.0003142822 5.0650562e-06 0)
(-0.00020168601 2.2609886e-06 0)
(-0.00022137137 -4.4614054e-06 0)
(-0.00023653912 1.22752e-05 0)
(-0.00025139952 5.0614071e-05 0)
(-0.00026895192 6.711083e-05 0)
(-0.00029505549 4.8826494e-05 0)
(-0.00031303636 1.7035563e-05 0)
(-0.00031786389 1.3266319e-06 0)
(-0.00018079607 5.0724638e-06 0)
(-0.00020763153 -6.1937602e-07 0)
(-0.00022597517 1.6768105e-05 0)
(-0.00024356665 5.9521796e-05 0)
(-0.00026213378 8.2691096e-05 0)
(-0.00028902345 6.9139641e-05 0)
(-0.00031049868 3.0320131e-05 0)
(-0.00031837037 4.9931485e-06 0)
(-0.00031829983 1.0918789e-06 0)
(-0.00015198463 1.1465149e-05 0)
(-0.0001942216 5.4984877e-06 0)
(-0.00021543643 2.2221818e-05 0)
(-0.00023429981 6.8984148e-05 0)
(-0.00025466373 9.7185931e-05 0)
(-0.00028182541 8.8159512e-05 0)
(-0.00030557439 4.5154917e-05 0)
(-0.00031778556 9.7123591e-06 0)
(-0.00031909415 2.6161139e-06 0)
(-0.00032044582 4.6453005e-06 0)
(-0.00010969369 2.7997362e-05 0)
(-0.00018390702 1.7961468e-05 0)
(-0.00020892323 2.8606365e-05 0)
(-0.0002241279 7.898206e-05 0)
(-0.0002462789 0.00011134159 0)
(-0.00027471248 0.00010641215 0)
(-0.00029953186 6.1445929e-05 0)
(-0.00031537772 1.5381849e-05 0)
(-0.00031880956 4.2960893e-06 0)
(-0.00032067947 1.1807231e-05 0)
(-0.0003288371 9.9629329e-06 0)
(-6.3645754e-05 5.9254661e-05 0)
(-0.00018443998 4.4352243e-05 0)
(-0.00021373684 3.6067558e-05 0)
(-0.00021397446 8.8313185e-05 0)
(-0.00023602387 0.00012550577 0)
(-0.00026735794 0.00012451108 0)
(-0.00029413723 7.8080808e-05 0)
(-0.00031107753 2.4573853e-05 0)
(-0.00031903576 5.4583768e-06 0)
(-0.00031991171 1.8035668e-05 0)
(-0.00032809695 2.7339209e-05 0)
(-0.00034369202 1.4078707e-05 0)
(-4.0680492e-05 0.00011147819 0)
(-0.00021053012 8.904375e-05 0)
(-0.00024550329 4.2558235e-05 0)
(-0.00020625825 9.2222331e-05 0)
(-0.00022071051 0.00013842796 0)
(-0.00025864445 0.00014312579 0)
(-0.00028960068 9.503009e-05 0)
(-0.0003068447 3.5052749e-05 0)
(-0.00031813738 8.6586181e-06 0)
(-0.00031917866 2.3919029e-05 0)
(-0.00032743421 4.2803637e-05 0)
(-0.00034220665 4.0654568e-05 0)
(-0.00036184131 1.4916131e-05 0)
(-1.7806328e-05 0.00019533946 0)
(-0.00030140877 0.00017220683 0)
(-0.00031147372 4.5398125e-05 0)
(-0.00020102763 7.9571233e-05 0)
(-0.00019695825 0.00014682809 0)
(-0.00024573317 0.00016377484 0)
(-0.00028595549 0.00011292671 0)
(-0.00030324631 4.5415951e-05 0)
(-0.00031456532 1.3378575e-05 0)
(-0.00031853034 2.9080957e-05 0)
(-0.000326889 5.8280653e-05 0)
(-0.00034171614 6.5365399e-05 0)
(-0.00036058808 4.4961039e-05 0)
(-0.00037863878 1.2125086e-05 0)
(-4.7833404e-06 0.00028917279 0)
(-0.00036789028 0.00022964559 0)
(-0.00031627891 5.2348484e-06 0)
(-0.00016132338 3.817242e-05 0)
(-0.00014376129 0.00014515399 0)
(-0.00021863877 0.00018725473 0)
(-0.00028278574 0.00013407197 0)
(-0.000302139 5.5028908e-05 0)
(-0.00030979254 1.7700636e-05 0)
(-0.00031558146 3.4291861e-05 0)
(-0.00032595759 7.2394397e-05 0)
(-0.0003416588 8.9162843e-05 0)
(-0.0003602996 7.443466e-05 0)
(-0.00037874389 3.8225851e-05 0)
(-0.00039027196 6.8614395e-06 0)
(2.9675894e-06 0.00045071892 0)
(-0.00048466687 0.00029496992 0)
(-0.00029638831 -7.2970375e-05 0)
(-5.9207402e-05 -5.0035011e-05 0)
(-4.8471998e-05 0.00012960442 0)
(-0.0001717891 0.00022187471 0)
(-0.00028078625 0.00016636993 0)
(-0.00030829561 6.4693349e-05 0)
(-0.00030548838 1.9569153e-05 0)
(-0.00030928802 3.9549779e-05 0)
(-0.00032335085 8.5909518e-05 0)
(-0.00034095066 0.00011226436 0)
(-0.00036067647 0.0001021298 0)
(-0.00037916766 6.5560602e-05 0)
(-0.00039231583 2.3233736e-05 0)
(-0.00039509885 1.1652724e-06 0)
(-2.2344647e-05 0.00059348106 0)
(-0.00068002652 0.00027290868 0)
(-0.00029508379 -0.00018358737 0)
(3.7821879e-05 -0.00015453007 0)
(4.9921843e-05 9.9060969e-05 0)
(-0.00011092694 0.00027746717 0)
(-0.00029081806 0.00022191291 0)
(-0.00033329321 7.6779303e-05 0)
(-0.00030502769 1.5850401e-05 0)
(-0.0003001667 4.3280815e-05 0)
(-0.00031861264 0.00010020424 0)
(-0.00033982285 0.00013508723 0)
(-0.00036116891 0.00012917635 0)
(-0.00037997988 9.2855118e-05 0)
(-0.00039495216 4.1873888e-05 0)
(-0.00039883329 5.9401699e-06 0)
(-0.00039409456 -2.8334287e-06 0)
(-8.760895e-05 0.00086056531 0)
(-0.00091856452 0.00037804488 0)
(-0.00029795442 -0.00034748875 0)
(0.00020104204 -0.00029557989 0)
(0.00012292271 9.8089148e-05 0)
(-5.2428198e-05 0.00039218899 0)
(-0.00032628164 0.0003146769 0)
(-0.00038546909 9.0619906e-05 0)
(-0.00030920022 2.4327682e-07 0)
(-0.00028613977 4.2236615e-05 0)
(-0.00030917895 0.00011588057 0)
(-0.00033713347 0.00015928991 0)
(-0.00036194699 0.00015669073 0)
(-0.00038229871 0.00011849465 0)
(-0.0003970965 6.4650343e-05 0)
(-0.00040474652 1.2798414e-05 0)
(-0.0003988616 -7.0033565e-06 0)
(-0.00039021616 -3.8047413e-06 0)
(-0.00010191192 0.0010987519 0)
(-0.0011755868 0.00025496787 0)
(-0.00037291291 -0.00048483561 0)
(0.00034150092 -0.00046663215 0)
(0.00028308992 0.00015088132 0)
(4.9381836e-06 0.00053469798 0)
(-0.00040557692 0.00046892915 0)
(-0.00048777277 0.00011087936 0)
(-0.00032665163 -3.7442377e-05 0)
(-0.00026508609 3.0273985e-05 0)
(-0.00029261785 0.00013271951 0)
(-0.00033142518 0.00018653278 0)
(-0.00036332405 0.00018579091 0)
(-0.00038577005 0.00014568384 0)
(-0.00040043111 8.678503e-05 0)
(-0.00040900823 2.6122705e-05 0)
(-0.00040682854 -9.3198834e-06 0)
(-0.00039554468 -1.1187359e-05 0)
(-0.00038684385 -1.8268411e-06 0)
(-0.00014085682 0.0014871411 0)
(-0.0018330712 0.00040358808 0)
(-0.00054945518 -0.0009270848 0)
(0.00059291645 -0.00082547863 0)
(0.00064464012 0.00020966912 0)
(3.7933666e-05 0.00071310146 0)
(-0.00051707709 0.00068350222 0)
(-0.00063978041 0.00012863851 0)
(-0.00036337353 -0.00010749986 0)
(-0.00023398444 -8.8818325e-07 0)
(-0.00026525298 0.00014973218 0)
(-0.0003198697 0.00021881623 0)
(-0.00036476027 0.00021854714 0)
(-0.00039142139 0.00017450248 0)
(-0.00040621889 0.00011049184 0)
(-0.00041382462 4.3801454e-05 0)
(-0.00041655722 -9.8205983e-06 0)
(-0.00040342213 -1.6392964e-05 0)
(-0.00039252856 -6.6694802e-06 0)
(-0.0003862157 1.7676841e-06 0)
(-0.00017179064 0.0019822553 0)
(-0.0023026603 0.00015437543 0)
(-0.00069367584 -0.0010215163 0)
(0.00097074841 -0.0011469906 0)
(0.0011817798 0.00028521541 0)
(0.0001063427 0.0010092761 0)
(-0.00070830136 0.00097570319 0)
(-0.00087778703 0.00014101719 0)
(-0.00043738828 -0.00023775027 0)
(-0.00018951993 -6.4920533e-05 0)
(-0.00021931737 0.00016638681 0)
(-0.00029733742 0.00025899844 0)
(-0.000365509 0.00025799272 0)
(-0.00040001869 0.00020638366 0)
(-0.00041467232 0.00013505483 0)
(-0.0004215924 6.2019237e-05 0)
(-0.00042390657 -1.1635858e-06 0)
(-0.000414696 -2.4209028e-05 0)
(-0.00039977744 -9.2381671e-06 0)
(-0.00039196256 2.9256162e-06 0)
(-0.00038888578 5.2122318e-06 0)
(-0.00021560327 0.0024472987 0)
(-0.0033697167 0.00051676077 0)
(-0.0010576565 -0.0021312983 0)
(0.0015297975 -0.0018604286 0)
(0.00191288 0.0004114893 0)
(0.00018283846 0.0014716856 0)
(-0.0010362563 0.0013464632 0)
(-0.0011806407 0.00014197613 0)
(-0.00049089316 -0.00043199387 0)
(-0.00013209516 -0.00019801281 0)
(-0.00014088662 0.00017161091 0)
(-0.00025336391 0.00030953281 0)
(-0.00036320969 0.00030995135 0)
(-0.00041368396 0.00024383401 0)
(-0.00042741048 0.00016017715 0)
(-0.00043099834 7.9578985e-05 0)
(-0.00043059032 1.0073583e-05 0)
(-0.00042683816 -2.6728645e-05 0)
(-0.00041077433 -1.3703326e-05 0)
(-0.0003996505 5.1898013e-06 0)
(-0.00039414244 1.2972717e-05 0)
(-0.00039411545 7.2194869e-06 0)
(-0.00031115488 0.0031953876 0)
(-0.0036198349 2.914379e-05 0)
(-0.0013225182 -0.0020160769 0)
(0.0022071732 -0.0024799746 0)
(0.0029707044 0.0005032193 0)
(0.00035048109 0.0021540848 0)
(-0.001541623 0.001906783 0)
(-0.0017061642 0.00012504882 0)
(-0.000651762 -0.00076028569 0)
(8.3695827e-06 -0.00038638591 0)
(1.5116229e-05 0.00016871326 0)
(-0.00016819442 0.0003711343 0)
(-0.00035153717 0.00038285616 0)
(-0.00043538386 0.00029243452 0)
(-0.00044842984 0.0001859306 0)
(-0.00044322488 9.4452762e-05 0)
(-0.00043754213 2.0091449e-05 0)
(-0.00043655619 -2.7108259e-05 0)
(-0.00042365538 -1.642828e-05 0)
(-0.00041056601 1.0450398e-05 0)
(-0.0004035502 1.9657831e-05 0)
(-0.00039850624 1.9922005e-05 0)
(-0.00040038648 7.306663e-06 0)
(-0.0013247504 0.0038630573 0)
(-0.0058035873 0.00073607302 0)
(-0.0020605929 -0.0042138828 0)
(0.0032114292 -0.0035276479 0)
(0.0042690823 0.00088058433 0)
(0.00052741236 0.0031247358 0)
(-0.0022564227 0.0026326295 0)
(-0.0024698079 4.5158681e-05 0)
(-0.00082512315 -0.0012444456 0)
(0.00028639761 -0.00073014208 0)
(0.00027735635 0.00010868974 0)
(1.6655343e-07 0.00045895503 0)
(-0.0003197768 0.00049458621 0)
(-0.00047042385 0.00036245688 0)
(-0.0004849704 0.0002134088 0)
(-0.00046161596 0.00010372454 0)
(-0.00044459801 2.5114081e-05 0)
(-0.00044274619 -2.6054979e-05 0)
(-0.00043360428 -1.6179401e-05 0)
(-0.0004245383 1.3862937e-05 0)
(-0.00041537516 3.3939288e-05 0)
(-0.00040996313 3.0395339e-05 0)
(-0.00040445682 2.2023639e-05 0)
(-0.00040601298 5.4962668e-06 0)
(-0.00091249678 0.0048728933 0)
(-0.0065106803 -0.00016167117 0)
(-0.0018980641 -0.0038699317 0)
(0.0042882925 -0.0042404842 0)
(0.0063048244 0.0009411124 0)
(0.00083293936 0.0044343337 0)
(-0.0033048152 0.0037555183 0)
(-0.0036072035 -7.8965664e-05 0)
(-0.0011057243 -0.0019855608 0)
(0.00065379008 -0.0012433439 0)
(0.00073791945 5.2062246e-05 0)
(0.00019657354 0.00054059348 0)
(-0.00026288493 0.00067218104 0)
(-0.00052784514 0.00047540971 0)
(-0.00055088046 0.00024594115 0)
(-0.00049272371 0.00010233377 0)
(-0.00045155273 2.0878441e-05 0)
(-0.00044439634 -2.735382e-05 0)
(-0.00043983362 -1.3843195e-05 0)
(-0.0004367435 2.1436641e-05 0)
(-0.00043013134 4.5806604e-05 0)
(-0.00042414196 4.7839993e-05 0)
(-0.00041704263 3.6505361e-05 0)
(-0.00041109519 1.8872261e-05 0)
(-0.00040987947 2.0225376e-06 0)
(-0.0012955837 0.0058580253 0)
(-0.0087044576 0.00043810533 0)
(-0.001713442 -0.0069966702 0)
(0.0063774841 -0.0070274975 0)
(0.0079889769 0.0019430154 0)
(0.00080773558 0.0059312248 0)
(-0.0045968445 0.0050920328 0)
(-0.0051367351 -0.00033392516 0)
(-0.0014928555 -0.003033455 0)
(0.0011736256 -0.002009715 0)
(0.0014642035 -2.8811357e-05 0)
(0.00042081985 0.00078796678 0)
(-0.00020663198 0.00097557411 0)
(-0.00063240906 0.00065788884 0)
(-0.00066804711 0.00029054559 0)
(-0.00054827327 8.2887451e-05 0)
(-0.00045950243 -9.4772436e-07 0)
(-0.00043926352 -3.6076685e-05 0)
(-0.00043951971 -1.0350457e-05 0)
(-0.00044508935 3.3348822e-05 0)
(-0.00044573609 6.1213884e-05 0)
(-0.00043999182 6.8011911e-05 0)
(-0.00043455727 5.1813719e-05 0)
(-0.00042368103 3.6116624e-05 0)
(-0.00041692483 1.0439114e-05 0)
(-0.00041093843 -2.716439e-06 0)
(-0.0040908765 0.0066789594 0)
(-0.0093065646 -0.00070367088 0)
(-0.0026315655 -0.0066612476 0)
(0.0079902363 -0.0080001554 0)
(0.010663246 0.0018235589 0)
(0.00074128969 0.0097821038 0)
(-0.0064869856 0.0073699258 0)
(-0.0073101217 -0.00071801898 0)
(-0.0019890594 -0.0045319988 0)
(0.0019060042 -0.0030956304 0)
(0.0024720115 -0.0001713446 0)
(0.00085035979 0.0012156972 0)
(-0.00020661935 0.0013852357 0)
(-0.00081451088 0.00097448946 0)
(-0.00088020476 0.00035729097 0)
(-0.00064686382 3.3501311e-05 0)
(-0.00047347651 -5.7387843e-05 0)
(-0.0004234676 -6.0859251e-05 0)
(-0.00042774229 -7.5677627e-06 0)
(-0.00044700159 5.0152118e-05 0)
(-0.00045875919 8.2104517e-05 0)
(-0.00045884736 9.0097304e-05 0)
(-0.00045288225 7.5955558e-05 0)
(-0.00044342419 4.9173688e-05 0)
(-0.00042991191 2.4866512e-05 0)
(-0.00042006015 -3.3296462e-06 0)
(-0.00040788844 -8.2587371e-06 0)
(-0.0071922603 0.0079064612 0)
(-0.01453344 0.0011168455 0)
(-0.0047708423 -0.011858054 0)
(0.010116074 -0.011644437 0)
(0.013743068 0.0037057792 0)
(0.00035164649 0.012318382 0)
(-0.0078649685 0.0092970158 0)
(-0.010024396 -0.0012791572 0)
(-0.0026531308 -0.0064925323 0)
(0.0028845797 -0.0046288474 0)
(0.0039050518 -0.00038449848 0)
(0.0016082967 0.0018689944 0)
(-0.0002257243 0.0019771649 0)
(-0.0011066704 0.0014055657 0)
(-0.0012043043 0.00045264226 0)
(-0.00082343215 -6.9966558e-05 0)
(-0.00049828764 -0.00017005184 0)
(-0.00038806042 -0.00010980197 0)
(-0.00039695314 -9.004793e-06 0)
(-0.00043745446 7.2177742e-05 0)
(-0.00046699167 0.00011058177 0)
(-0.00047729493 0.00011730679 0)
(-0.0004743143 0.00010176569 0)
(-0.0004657135 6.9241462e-05 0)
(-0.00044983078 3.689966e-05 0)
(-0.00043501445 3.3962961e-07 0)
(-0.00041846587 -2.127279e-05 0)
(-0.00040066872 -1.3988306e-05 0)
(-0.0084604537 0.0088466204 0)
(-0.015023551 -0.0022877633 0)
(-0.000766646 -0.011738368 0)
(0.012901114 -0.012271705 0)
(0.017829021 0.0030964137 0)
(0.00021076711 0.014538492 0)
(-0.011277493 0.012789803 0)
(-0.013838405 -0.002034177 0)
(-0.003403596 -0.009113976 0)
(0.0042255877 -0.0066475503 0)
(0.0058699818 -0.00072246987 0)
(0.002747183 0.0027897289 0)
(-0.00023573975 0.0029201971 0)
(-0.0015911982 0.0019927841 0)
(-0.0016850695 0.00057696274 0)
(-0.0010936365 -0.00025868455 0)
(-0.00053425424 -0.00036769962 0)
(-0.00032679898 -0.00020591576 0)
(-0.00033531889 -2.1501372e-05 0)
(-0.00040808002 0.00010056331 0)
(-0.00046637932 0.0001489702 0)
(-0.0004936742 0.00015284597 0)
(-0.00049780619 0.0001321781 0)
(-0.0004896694 9.3698725e-05 0)
(-0.00047554873 4.8430102e-05 0)
(-0.00045493792 8.6502592e-06 0)
(-0.00043577355 -3.1763656e-05 0)
(-0.00041167797 -3.9724833e-05 0)
(-0.00038989144 -1.9010719e-05 0)
(-0.0099321424 0.0090816001 0)
(-0.014334601 -0.0023692987 0)
(0.0040988078 -0.016949277 0)
(0.019380534 -0.017251934 0)
(0.021923817 0.0066405855 0)
(0.0016785134 0.019241883 0)
(-0.015511132 0.015443987 0)
(-0.018138482 -0.0028688677 0)
(-0.0044279368 -0.012499242 0)
(0.0060270197 -0.0094641984 0)
(0.008549538 -0.0011927155 0)
(0.004342626 0.004047882 0)
(-0.00021474446 0.0043155279 0)
(-0.0023415169 0.0028495547 0)
(-0.0024774572 0.00073495218 0)
(-0.0014678272 -0.00053988548 0)
(-0.00060178884 -0.00070587095 0)
(-0.00022315536 -0.00037864839 0)
(-0.0002237732 -5.5166143e-05 0)
(-0.00034473327 0.00013657019 0)
(-0.00045049496 0.00020231275 0)
(-0.00050566114 0.00020050076 0)
(-0.00052217014 0.00017059028 0)
(-0.00051791604 0.00012370647 0)
(-0.0005038364 6.8460788e-05 0)
(-0.0004819517 1.6641825e-05 0)
(-0.00045676862 -2.9254329e-05 0)
(-0.00043178383 -6.1973422e-05 0)
(-0.00040156645 -5.4757098e-05 0)
(-0.00037675327 -2.2621549e-05 0)
(-0.010753212 0.0097609024 9.5500822e-24)
(-0.013538304 -0.0051824664 0)
(0.0058899098 -0.019777427 0)
(0.025963961 -0.017514961 0)
(0.023974024 0.0059238539 0)
(-0.0014228486 0.024171247 0)
(-0.020457399 0.019885563 0)
(-0.022752341 -0.0045924815 0)
(-0.0051049541 -0.016846456 0)
(0.0084523479 -0.012915483 0)
(0.01209157 -0.0018613868 0)
(0.0065635945 0.0057250249 0)
(-0.00013673591 0.0063650681 0)
(-0.0034423567 0.0040593855 0)
(-0.0036973276 0.00092274607 0)
(-0.0020694604 -0.00098513555 0)
(-0.00069608421 -0.0012385104 0)
(-5.2572259e-05 -0.00066820651 0)
(-3.2009804e-05 -0.00012587374 0)
(-0.00022487552 0.00018205452 0)
(-0.00040770154 0.00027867473 0)
(-0.00051022058 0.00026757033 0)
(-0.00054760145 0.00022109403 0)
(-0.00054987095 0.00016187636 0)
(-0.00053761264 9.7428839e-05 0)
(-0.00051563016 3.2028478e-05 0)
(-0.0004858311 -2.5692444e-05 0)
(-0.00045688407 -7.2301767e-05 0)
(-0.00042321471 -8.4766248e-05 0)
(-0.00038919932 -6.5232012e-05 0)
(-0.00036234001 -2.4640859e-05 0)
(-0.01158869 0.010016079 -1.2294097e-24)
(-0.014155905 -0.0061687287 -9.9701489e-24)
(0.0081547497 -0.024083046 0)
(0.029733141 -0.020631729 0)
(0.024033755 0.010107715 0)
(-0.0022663298 0.02855013 0)
(-0.01681517 0.023230301 0)
(-0.028516075 -0.0059879108 0)
(-0.0059364085 -0.022110231 0)
(0.011736668 -0.01758851 0)
(0.016703855 -0.0026133569 0)
(0.0094409653 0.0078769571 0)
(1.4672971e-05 0.0091592924 0)
(-0.0050133547 0.0058564286 0)
(-0.0055124818 0.0011694372 0)
(-0.0029970395 -0.0016947026 0)
(-0.00079842365 -0.0020254067 0)
(0.00020719482 -0.001146516 0)
(0.00029043166 -0.00024896113 0)
(-1.0988891e-05 0.00024344933 0)
(-0.0003223529 0.00039509398 0)
(-0.00050512611 0.00036497107 0)
(-0.00057633962 0.0002908345 0)
(-0.00058824927 0.0002115223 0)
(-0.00057656777 0.00013337826 0)
(-0.00055432758 5.3609573e-05 0)
(-0.0005217662 -1.9384864e-05 0)
(-0.00048659142 -7.6888181e-05 0)
(-0.00045152747 -0.00011102713 0)
(-0.0004115971 -0.00010203554 0)
(-0.00037537175 -7.1511999e-05 0)
(-0.00034771118 -2.5212665e-05 0)
(-0.011864979 0.010498055 1.234245e-24)
(-0.014387355 -0.008483207 4.0112754e-23)
(0.0097563588 -0.028676018 0)
(0.032490907 -0.020122559 0)
(0.022920737 0.01191384 0)
(-0.0031493452 0.035996907 0)
(-0.022734486 0.031405316 0)
(-0.040620857 -0.0077370793 0)
(-0.0083134368 -0.027939333 0)
(0.015937939 -0.022862647 0)
(0.022517772 -0.0036184824 0)
(0.013252126 0.010661984 0)
(0.0002564319 0.01298437 0)
(-0.0071812121 0.0082555685 0)
(-0.0080810422 0.0014833034 0)
(-0.004372323 -0.0027505159 0)
(-0.0009399018 -0.0032091675 0)
(0.00062082618 -0.001869926 0)
(0.00078887695 -0.00044133127 0)
(0.00030734321 0.00032225837 0)
(-0.00018917376 0.0005657898 0)
(-0.00049218364 0.00051578278 0)
(-0.00061469771 0.00039673851 0)
(-0.00063933324 0.00027974518 0)
(-0.00062461942 0.00017747395 0)
(-0.00059779276 8.0832762e-05 0)
(-0.00056394525 -7.7281184e-06 0)
(-0.0005236375 -7.8236822e-05 0)
(-0.0004841671 -0.0001242656 0)
(-0.00044173582 -0.00013607487 0)
(-0.0003982881 -0.0001131582 0)
(-0.000361283 -7.3856715e-05 0)
(-0.00033362794 -2.4626786e-05 0)
(-0.011642005 0.010668103 0)
(-0.014003326 -0.010316337 -4.0178083e-23)
(0.010970953 -0.033725736 0)
(0.034621808 -0.021288658 0)
(0.02060889 0.017008327 0)
(-0.010404052 0.042390333 0)
(-0.045008196 0.035303869 0)
(-0.052147057 -0.007277162 0)
(-0.014344275 -0.036851801 0)
(0.020570542 -0.02990891 0)
(0.02956812 -0.0043701597 0)
(0.017727105 0.014079988 0)
(0.00062495104 0.018031627 0)
(-0.010139392 0.011768185 0)
(-0.011693093 0.0018885143 0)
(-0.0063203668 -0.004308561 0)
(-0.0011444165 -0.004947655 0)
(0.0012626517 -0.0029300108 0)
(0.001543758 -0.00076968438 0)
(0.00084750501 0.00049032707 0)
(-3.4256989e-05 0.00085319096 0)
(-0.00047343366 0.00076432694 0)
(-0.00067078161 0.00055994715 0)
(-0.00071382494 0.0003739704 0)
(-0.00069032621 0.00023126512 0)
(-0.00065085345 0.00011142339 0)
(-0.00060949176 9.0395953e-06 0)
(-0.00056938756 -7.400629e-05 0)
(-0.00052307751 -0.00013339976 0)
(-0.00047691992 -0.00016079063 0)
(-0.00042983301 -0.00015344427 0)
(-0.00038420172 -0.00011742023 0)
(-0.00034749018 -7.3044358e-05 0)
(-0.00032020268 -2.330415e-05 0)
(-0.010821918 0.010632108 -3.822949e-24)
(-0.013271403 -0.012186874 0)
(0.011613013 -0.039357773 1.7760112e-23)
(0.035118651 -0.020906329 0)
(0.020012741 0.019624987 0)
(-0.014686078 0.050357877 0)
(-0.050874814 0.042141013 0)
(-0.04915234 -0.012077707 0)
(-0.015406894 -0.046838374 0)
(0.026342346 -0.037648631 0)
(0.037734433 -0.005469958 0)
(0.023056431 0.018375848 0)
(0.00070768518 0.024293176 0)
(-0.014079824 0.016072922 0)
(-0.01655607 0.0024095319 0)
(-0.0090432324 -0.0064602682 0)
(-0.0014335674 -0.0074548002 0)
(0.0022215582 -0.0044423592 0)
(0.0026756457 -0.0012594488 0)
(0.0016721124 0.00067696376 0)
(0.00035329445 0.0012821963 0)
(-0.00036326722 0.0011278652 0)
(-0.00074603503 0.00080022145 0)
(-0.00082659838 0.00050451156 0)
(-0.00078399623 0.00029651624 0)
(-0.00072128217 0.00014459537 0)
(-0.00066412587 2.5307993e-05 0)
(-0.00061522062 -6.5920466e-05 0)
(-0.00057130034 -0.00013511834 0)
(-0.0005216768 -0.00017849754 0)
(-0.0004682516 -0.00018372761 0)
(-0.00041631916 -0.0001614736 0)
(-0.00036928185 -0.00011734396 0)
(-0.00033336604 -7.0522816e-05 0)
(-0.00030809301 -2.1582143e-05 0)
(-0.0094483012 0.010618322 -1.9294557e-23)
(-0.011868907 -0.01372843 7.3954537e-23)
(0.011389981 -0.044607381 -1.7741923e-23)
(0.034426828 -0.020620448 9.4413182e-24)
(0.020129174 0.022073043 -8.3580352e-23)
(-0.01772536 0.058935454 0)
(-0.05397449 0.042322914 0)
(-0.044315091 -0.015935631 0)
(-0.005914534 -0.055577127 0)
(0.033237233 -0.048891298 0)
(0.047726982 -0.0059414708 0)
(0.029170546 0.023352119 0)
(0.00074426299 0.032423582 0)
(-0.019199664 0.02246635 0)
(-0.023102776 0.0029735597 0)
(-0.012656585 -0.0094678856 0)
(-0.0017830227 -0.010921217 0)
(0.0035836408 -0.0065706773 0)
(0.0043207777 -0.0019535566 0)
(0.0028873293 0.00094024549 0)
(0.00097984961 0.0019113466 0)
(-0.00033231908 0.0015774209 0)
(-0.00083092865 0.0011591609 0)
(-0.00099657565 0.00068891072 0)
(-0.00092642694 0.00037373086 0)
(-0.00081909275 0.0001750695 0)
(-0.0007310845 3.7573669e-05 0)
(-0.00066815442 -6.0164835e-05 0)
(-0.00061712554 -0.00013353526 0)
(-0.00056574028 -0.00018591729 0)
(-0.00051791021 -0.00020643676 0)
(-0.00045665294 -0.00019680959 0)
(-0.00040301728 -0.00016098441 0)
(-0.00035572502 -0.00011821652 0)
(-0.00032047909 -6.6900833e-05 0)
(-0.00029711607 -1.9872113e-05 0)
(-0.0077317682 0.010544475 3.3202754e-23)
(-0.0099507681 -0.015168113 -1.0765717e-22)
(0.010680452 -0.049797763 0)
(0.032683138 -0.020229935 8.7160923e-23)
(0.0194073 0.025270496 8.3194331e-23)
(-0.018519368 0.066373775 9.6667696e-23)
(-0.055897745 0.046130531 6.1754463e-23)
(-0.043349995 -0.023812406 0)
(0.00048418696 -0.065604162 0)
(0.039592053 -0.060689601 0)
(0.059923657 -0.0065111394 0)
(0.037666194 0.030010224 0)
(0.00037044188 0.042463408 0)
(-0.026570985 0.029745994 0)
(-0.031630658 0.0037740984 0)
(-0.01744956 -0.013411411 0)
(-0.0021801807 -0.015684717 0)
(0.0055035984 -0.0094572629 0)
(0.0066341463 -0.0029012992 0)
(0.0046371159 0.0012908161 0)
(0.0018847048 0.0028253485 0)
(-0.00021885863 0.0024190154 0)
(-0.0010078041 0.0016806689 0)
(-0.0012482698 0.00096584798 0)
(-0.0011463243 0.00047225421 0)
(-0.00096334218 0.00019449894 0)
(-0.00081970918 3.5285914e-05 0)
(-0.00072614327 -6.3822334e-05 0)
(-0.00066595679 -0.00013620642 0)
(-0.00061472203 -0.00018902963 0)
(-0.00055890541 -0.00022005732 0)
(-0.00050879739 -0.00022304008 0)
(-0.00044424845 -0.00020113626 0)
(-0.00039052265 -0.00015491889 0)
(-0.00034391774 -0.00011055867 0)
(-0.00030891061 -6.2450695e-05 0)
(-0.00028728966 -1.8475124e-05 0)
(-0.0059288759 0.01037118 2.5325866e-24)
(-0.0074958704 -0.016321535 2.6048539e-23)
(0.0093193873 -0.054434592 2.1909508e-23)
(0.029729075 -0.019777174 -5.9056804e-23)
(0.018905258 0.027584014 -1.003581e-22)
(-0.019193447 0.07525778 -1.7134612e-22)
(-0.05609097 0.050721253 9.5627414e-23)
(-0.043108733 -0.026509448 6.1388298e-23)
(0.0016577515 -0.075637429 0)
(0.045394856 -0.071914215 0)
(0.072811371 -0.0088963862 0)
(0.050778265 0.032788595 0)
(0.0033997512 0.055737646 0)
(-0.035069248 0.039732534 0)
(-0.042322564 0.0040936803 0)
(-0.023233438 -0.018651736 0)
(-0.0025848791 -0.021955908 0)
(0.0081220022 -0.013329604 0)
(0.0097894499 -0.0041693661 0)
(0.0070942336 0.0017600485 0)
(0.0031869414 0.0041202182 0)
(3.1831136e-05 0.0036686939 0)
(-0.0013405805 0.0024297269 0)
(-0.0016422154 0.0014004568 0)
(-0.0014949473 0.00059396654 0)
(-0.0011799691 0.00019674123 0)
(-0.00094127175 2.7104332e-06 0)
(-0.00079387006 -9.0015721e-05 0)
(-0.00071317402 -0.00014822786 0)
(-0.00066028468 -0.00019661061 0)
(-0.00061050192 -0.00022866937 0)
(-0.00055519063 -0.00023912806 0)
(-0.00049906069 -0.00023030501 0)
(-0.00043574864 -0.00019865713 0)
(-0.00037837751 -0.00014866446 0)
(-0.00033191338 -0.00010289612 0)
(-0.00029844198 -5.8259956e-05 0)
(-0.0002784342 -1.7648335e-05 0)
(-0.003533347 0.010181529 -1.4843193e-23)
(-0.0050232148 -0.017331032 -4.1846589e-24)
(0.0078226921 -0.058294746 0)
(0.025460833 -0.019263016 -1.2170635e-23)
(0.017666227 0.030101844 -3.6206931e-23)
(-0.018563884 0.083469812 0)
(-0.054549214 0.053203352 -1.3701878e-22)
(-0.043100882 -0.028711148 -1.9186558e-22)
(0.0021855016 -0.086912032 0)
(0.057067998 -0.080382715 0)
(0.081508105 -0.0067034034 0)
(0.054805915 0.046242233 0)
(0.0096098802 0.071133015 0)
(-0.042084158 0.049255031 0)
(-0.053504928 0.0043139692 0)
(-0.02994225 -0.025413906 0)
(-0.0027734736 -0.030234115 0)
(0.011674885 -0.018255893 0)
(0.013976088 -0.0058407011 0)
(0.010439545 0.0023841306 0)
(0.0050162853 0.0058918593 0)
(0.00044107092 0.0054650369 0)
(-0.0018104965 0.0035859793 0)
(-0.0023028673 0.0019630805 0)
(-0.0020015721 0.00079340641 0)
(-0.0015290153 0.00015066219 0)
(-0.0011161027 -8.748514e-05 0)
(-0.00087416141 -0.00016083475 0)
(-0.00075570755 -0.00018462323 0)
(-0.00069769934 -0.00020990761 0)
(-0.00065503468 -0.00023562425 0)
(-0.00060662985 -0.00025051439 0)
(-0.00054862001 -0.00024731975 0)
(-0.00048524404 -0.00022983123 0)
(-0.00042661714 -0.0001905405 0)
(-0.00036676609 -0.00014172019 0)
(-0.00032131341 -9.6125144e-05 0)
(-0.00028916968 -5.5060568e-05 0)
(-0.00027024656 -1.7545305e-05 0)
(-0.00073581923 0.010133554 0)
(-0.0024636153 -0.017959708 0)
(0.0061937052 -0.061355153 4.3365617e-24)
(0.020250975 -0.018739321 0)
(0.015997677 0.032209095 3.9254122e-24)
(-0.017917389 0.092099885 -3.8473382e-23)
(-0.05336405 0.056737418 -1.7285141e-22)
(-0.041070237 -0.030978806 -4.7924118e-22)
(0.0016860066 -0.095668383 0)
(0.062879063 -0.093621917 0)
(0.085040769 -0.0036939979 0)
(0.053221823 0.046142039 0)
(-0.00018288569 0.083616653 0)
(-0.049843179 0.063541168 0)
(-0.066015936 0.0037813516 0)
(-0.037959707 -0.033873915 0)
(-0.0025382805 -0.040561607 0)
(0.016400673 -0.024634658 0)
(0.019407157 -0.0078522378 0)
(0.014924273 0.0031477192 0)
(0.0075343775 0.0083157667 0)
(0.0010502872 0.0079525597 0)
(-0.0024575524 0.0053042721 0)
(-0.0033144124 0.0027709041 0)
(-0.0028157801 0.0010183369 0)
(-0.0020400462 6.7365141e-05 0)
(-0.001376739 -0.00025934101 0)
(-0.00097618043 -0.00031043134 0)
(-0.000787934 -0.00026939967 0)
(-0.0007178789 -0.0002427113 0)
(-0.00068654181 -0.00024311729 0)
(-0.00065293504 -0.00025397338 0)
(-0.00060377641 -0.00025871351 0)
(-0.00054213302 -0.0002469272 0)
(-0.0004724469 -0.00022322509 0)
(-0.00041315084 -0.00018068125 0)
(-0.00035541316 -0.00013443887 0)
(-0.00031133074 -9.1611796e-05 0)
(-0.00028028302 -5.3833008e-05 0)
(-0.00026227943 -1.822081e-05 0)
(-0.00040489811 -0.018226278 -3.2804247e-25)
(0.0014972104 0.010175892 0)
(0.0028784937 -0.063636686 3.5041595e-24)
(0.015041473 -0.018174723 -1.4584788e-23)
(0.013231822 0.033792088 7.6431428e-23)
(-0.016340763 0.099982288 3.5419522e-23)
(-0.050742966 0.058888684 -4.9039553e-24)
(-0.037742785 -0.032672523 -1.2958304e-22)
(0.0010168967 -0.10613779 6.6078988e-22)
(0.062372383 -0.10747195 0)
(0.089389211 -0.006136804 -1.738857e-21)
(0.050598529 0.060940428 0)
(-0.0028834337 0.10242001 0)
(-0.047247498 0.080667022 0)
(-0.085527197 0.0070564896 0)
(-0.051512964 -0.043366793 0)
(-0.0016547768 -0.053272344 0)
(0.022592726 -0.032128409 0)
(0.02623762 -0.010424164 0)
(0.020654633 0.0041239967 0)
(0.011171123 0.011363087 0)
(0.001983533 0.011774487 0)
(-0.0033274698 0.0078474956 0)
(-0.0048034771 0.0039558134 0)
(-0.0040994173 0.0012807461 0)
(-0.0027804856 -7.9803216e-05 0)
(-0.0017919443 -0.00059800576 0)
(-0.001111032 -0.00057246398 0)
(-0.00080495952 -0.00042945517 0)
(-0.00070779739 -0.00031323384 0)
(-0.00069198894 -0.00025994809 0)
(-0.00068415264 -0.00025070307 0)
(-0.00065501904 -0.00025725509 0)
(-0.0006025534 -0.00025786034 0)
(-0.00053580962 -0.00024285641 0)
(-0.000463629 -0.00021423785 0)
(-0.00040125171 -0.000172689 0)
(-0.00034459 -0.00012894806 0)
(-0.00030169828 -9.0372609e-05 0)
(-0.0002717883 -5.4618901e-05 0)
(-0.00025438814 -1.956505e-05 0)
(-0.00024781516 -0.064565186 -3.8577823e-24)
(0.0019828367 -0.018223422 0)
(0.004059044 0.010382128 -2.646585e-23)
(0.0087950143 -0.01781771 1.4573993e-23)
(0.01030347 0.035250624 -2.7326191e-23)
(-0.014319325 0.10695869 -3.2268526e-23)
(-0.045136003 0.06033745 7.9112135e-23)
(-0.031673878 -0.034262295 1.707754e-22)
(0.00020264084 -0.11586827 4.8389003e-22)
(0.061000822 -0.12090849 2.6597125e-22)
(0.091069573 -0.0089850833 -2.0157596e-21)
(0.051245546 0.06882526 1.818702e-21)
(-0.0056602934 0.11721322 0)
(-0.072510803 0.10014656 0)
(-0.11795285 0.0082109784 0)
(-0.070094342 -0.054168407 0)
(-0.0033045474 -0.069520203 0)
(0.030847582 -0.041519944 0)
(0.034700597 -0.013051195 0)
(0.027790525 0.0051806041 0)
(0.015730317 0.015176727 0)
(0.0032742159 0.016427143 0)
(-0.0044681618 0.01140533 0)
(-0.0069366728 0.005686477 0)
(-0.0060026011 0.0016225204 0)
(-0.00396371 -0.0004124128 0)
(-0.0023460613 -0.0010717213 0)
(-0.0013142613 -0.0010354034 0)
(-0.00080022118 -0.00072985686 0)
(-0.00064816121 -0.00045126651 0)
(-0.00065208125 -0.00029853267 0)