/*--------------------------------*- C++ -*----------------------------------*\
| =========                 |                                                 |
| \\      /  F ield         | OpenFOAM: The Open Source CFD Toolbox           |
|  \\    /   O peration     | Version:  5.0                                   |
|   \\  /    A nd           | Web:      www.OpenFOAM.org                      |
|    \\/     M anipulation  |                                                 |
\*---------------------------------------------------------------------------*/
FoamFile
{
    version     2.0;
    format      ascii;
    class       surfaceScalarField;
    location    "300";
    object      ddtCorrDdt0(phi);
}
// * * * * * * * * * * * * * * * * * * * * * * * * * * * * * * * * * * * * * //

dimensions      [0 3 -2 0 0 0 0];

internalField   nonuniform List<scalar> 
18820
(
1.4619606e-06
0.0003575021
2.109882e-06
0.00033174289
3.6794992e-06
0.0003538245
2.1162368e-06
0.00030493277
6.7909176e-06
0.00032864462
-3.0405162e-06
0.00035687306
1.5429257e-06
0.0002774466
9.1666156e-06
0.00030256897
-5.0815692e-06
0.00033070711
-1.4892976e-05
0.00037177884
6.1240109e-07
0.00024976069
1.0036446e-05
0.00027658855
-6.6336073e-06
0.00030414024
-2.7766311e-05
0.00034360655
-2.1285435e-05
0.00039307989
-3.9621811e-07
0.00022264665
9.0640694e-06
0.00025074423
-8.5564065e-06
0.00027852983
-3.9174863e-05
0.00031557206
-4.1248703e-05
0.00036359697
-1.9291189e-05
0.00041238737
-1.6562049e-06
0.00019642648
6.730499e-06
0.00022499018
-1.1631526e-05
0.00025383623
-4.9322702e-05
0.00028869946
-6.0131497e-05
0.00033447883
-3.8895821e-05
0.00038322633
-1.0743478e-05
0.00042314576
-3.9726033e-06
0.00017117947
3.1125314e-06
0.00020005294
-1.5934803e-05
0.00022930793
-5.8848006e-05
0.00026338062
-7.7325539e-05
0.00030591519
-5.8885418e-05
0.00035448983
-2.2821129e-05
0.00039532321
-2.9409239e-06
0.00042609835
-9.518559e-06
0.00014707406
-2.5451669e-06
0.00017684447
-2.1388319e-05
0.00020551837
-6.8620221e-05
0.00023909554
-9.2811105e-05
0.00027888404
-7.8362057e-05
0.0003254102
-3.6315465e-05
0.0003680002
-6.8148377e-06
0.00039920864
-1.6465528e-06
0.00042775199
-2.2594045e-05
0.00012430872
-1.2854124e-05
0.00015738998
-2.7972625e-05
0.00018343889
-7.8982874e-05
0.0002158927
-0.0001075898
0.00025388711
-9.6844658e-05
0.00029738018
-5.1255939e-05
0.00034036305
-1.1545631e-05
0.00037273959
-3.0621988e-06
0.00040062684
-7.1305807e-06
0.00043488429
-5.0985823e-05
0.0001035092
-3.3489072e-05
0.00014495138
-3.5441541e-05
0.00016486862
-8.9258495e-05
0.00019372354
-0.00012218506
0.00023049585
-0.00011494108
0.00027199105
-6.6963641e-05
0.00031309483
-1.8502265e-05
0.00034732443
-4.2817815e-06
0.00037395938
-1.2852676e-05
0.00040634253
-1.5646114e-05
0.00045052678
-0.00010130454
9.1228607e-05
-7.6734422e-05
0.00014676382
-4.3178219e-05
0.00015269881
-9.6116972e-05
0.00017173519
-0.00013621096
0.00020775352
-0.00013332069
0.00024887708
-8.3061736e-05
0.00028808969
-2.7611126e-05
0.00032220317
-6.2391137e-06
0.00034927844
-1.8074118e-05
0.00037917287
-2.9205439e-05
0.00041988766
-2.2164954e-05
0.00047268343
-0.00018418517
0.00010759994
-0.00015378567
0.00016829084
-4.6906158e-05
0.00015050424
-9.3320679e-05
0.00014991112
-0.00014806797
0.00018359412
-0.0001529096
0.00022733934
-9.9795821e-05
0.00026560552
-3.717724e-05
0.00029764955
-9.8198921e-06
0.00032577645
-2.2771489e-05
0.00035396534
-4.2009957e-05
0.00039196272
-4.2598473e-05
0.00044030141
-2.3399297e-05
0.00049607109
-0.0002919764
0.00011835354
-0.00023160012
0.00018542654
-2.6378397e-05
0.00014777701
-6.5232575e-05
0.00012242565
-0.00015175485
0.00015359893
-0.00017521337
0.00020589155
-0.00011862893
0.00024616178
-4.6284079e-05
0.00027470102
-1.379924e-05
0.0003016176
-2.7202293e-05
0.00033019476
-5.423019e-05
0.00036617001
-6.1938747e-05
0.00041128397
-4.6290929e-05
0.00046317044
-1.8987431e-05
0.0005150452
-0.00043618376
0.00014772915
-0.00029562876
0.00018239454
4.588501e-05
0.00011317756
8.152728e-06
7.4401504e-05
-0.00013901254
0.00010968353
-0.00020318293
0.00018155975
-0.00014377026
0.00023101835
-5.4951457e-05
0.00025481384
-1.6356764e-05
0.00027724457
-3.1660561e-05
0.00030606274
-6.5609065e-05
0.00034155895
-8.0616451e-05
0.0003848299
-6.8244807e-05
0.00043321737
-3.8818909e-05
0.00048297951
-1.0950509e-05
0.00052598246
-0.00062967203
0.00019225013
-0.00033851716
0.00019062922
0.00014581714
8.2476371e-05
0.00011382706
7.5121473e-06
-0.00011621691
5.1604916e-05
-0.00024988614
0.00015637567
-0.00018579216
0.00022356389
-6.4596632e-05
0.000240645
-1.5273264e-05
0.00025371473
-3.5557355e-05
0.00028112917
-7.7148982e-05
0.00031759121
-9.8939082e-05
0.00035986789
-8.9257828e-05
0.00040582581
-5.9054413e-05
0.00045343376
-2.347537e-05
0.00049548477
-2.4981599e-06
0.00052846897
-0.00087527522
0.00025706052
-0.00036214759
0.00021589118
0.00029092804
4.5531508e-05
0.00024399648
-4.768582e-05
-0.0001122821
3.5749345e-06
-0.00033560405
0.00013730925
-0.00025845761
0.00022902036
-7.6710235e-05
0.00023565597
-6.482123e-06
0.00023183687
-3.6751817e-05
0.0002548986
-8.9674052e-05
0.00029364772
-0.00011779607
0.00033644157
-0.00011033469
0.00038093475
-7.8676272e-05
0.00042543383
-3.8369922e-05
0.00046831294
-6.5487078e-06
0.00049952058
3.308111e-06
0.00052515201
-0.0011578912
0.00032309963
-0.00036583505
0.00026075777
0.00048666741
2.0164771e-05
0.0004207582
-0.00013122461
-0.00013296873
-2.7002673e-05
-0.00046478444
0.00013273965
-0.00037809905
0.00025692742
-9.2041449e-05
0.00024432726
1.7540027e-05
0.00021161507
-3.0997461e-05
0.00022607286
-0.00010318974
0.00026841251
-0.00013839275
0.00031424603
-0.00013214375
0.0003582506
-9.833744e-05
0.00040059126
-5.4442719e-05
0.00044149764
-1.3572186e-05
0.00047532617
5.4195462e-06
0.00049740037
4.8678302e-06
0.0005202788
-0.0015685705
0.00045662008
-0.00036171191
0.00031898622
0.00076712464
-1.9685637e-05
0.0006844295
-0.00024350171
-0.00019126963
-7.2927325e-05
-0.0006285482
0.00013674463
-0.00055284354
0.00030745962
-0.00010817398
0.00027303395
6.6994572e-05
0.00019485213
-1.2308764e-05
0.00019291645
-0.00011734378
0.00024022783
-0.00016232845
0.0002923565
-0.00015601782
0.00033813011
-0.00011910118
0.00037902097
-7.0821277e-05
0.00041697075
-2.4369288e-05
0.00045229101
6.3402526e-06
0.00047440084
8.8507855e-06
0.0004934149
2.6578345e-06
0.00051761932
-0.0020395365
0.00052902946
-0.00034414574
0.00043906441
0.0011403746
-5.4247984e-05
0.0010592639
-0.00039451479
-0.00026431559
-0.00017045848
-0.00086702857
0.00016553747
-0.00079714081
0.00038101782
-0.00012381146
0.00032307165
0.00015793119
0.00018207601
2.986365e-05
0.00015266923
-0.0001312474
0.00020682124
-0.00019167588
0.0002695865
-0.00018396892
0.00032032413
-0.00014165134
0.00036069666
-8.8065244e-05
0.00039627662
-3.6707633e-05
0.00042931443
3.4833853e-06
0.00045514863
1.3023079e-05
0.00047022906
4.8997973e-06
0.00049117617
-1.4272721e-06
0.00051904846
-0.0026845917
0.00070963466
-0.00035646583
0.00054136154
0.0017101091
-0.00013065186
0.0015965914
-0.00059156916
-0.00036273446
-0.00029609743
-0.0012486195
0.00021111896
-0.0011140099
0.00048238427
-0.0001248568
0.00038204088
0.00030401679
0.0001769662
0.00011103826
0.00010089171
-0.000142261
0.00016368318
-0.000228462
0.00024361789
-0.00021940218
0.00030503722
-0.00016742505
0.00034611841
-0.0001058088
0.0003784593
-4.900139e-05
0.00040858415
-3.1065386e-06
0.00043591192
1.6323588e-05
0.00045185185
7.093368e-06
0.00046804006
-2.4767522e-06
0.00049223364
-5.3131566e-06
0.00052436653
-0.0033364152
0.00072325566
-0.00034924371
0.00070242629
0.0024124817
-0.00016099064
0.0023267405
-0.00086079334
-0.00049370719
-0.0004605973
-0.0018263754
0.00028164725
-0.0015601249
0.00065721412
-0.00011758416
0.00047509429
0.00053931616
0.00014672555
0.00025804741
2.9950663e-05
-0.00014484162
0.00010347298
-0.00027406188
0.00020929139
-0.00026779351
0.00029202295
-0.00019941397
0.00033704396
-0.00012394613
0.00036427515
-6.0116789e-05
0.00038959217
-1.0156137e-05
0.00041564617
1.7221718e-05
0.00043502099
9.2837962e-06
0.00044966623
-4.7456965e-06
0.00047031624
-9.4618309e-06
0.00049639368
-7.6425305e-06
0.00053201634
-0.0042930591
0.0010504348
-0.00041617367
0.00079020103
0.0033684239
-0.00025349431
0.0033301724
-0.0011644141
-0.00069663852
-0.00065786348
-0.0026429425
0.00035596
-0.0021823205
0.00090382477
-7.1495497e-05
0.00061111334
0.00090416545
0.00011023457
0.00048622692
-8.145489e-05
-0.00011737728
2.4898079e-06
-0.0003285797
0.00015799796
-0.00033902047
0.00028052682
-0.00024356087
0.0003361799
-0.00014284998
0.00035596008
-6.8332284e-05
0.00037250411
-1.5106878e-05
0.00039455493
1.6930731e-05
0.00041594522
1.000232e-05
0.00043430711
-7.3201194e-06
0.0004522449
-1.5562315e-05
0.0004764253
-1.4046737e-05
0.00050281127
-7.9702713e-06
0.00053999548
-0.0051604775
0.0012410471
-0.00036463785
0.00099891558
0.0044608308
-0.00030218449
0.0047012838
-0.001624597
-0.00097221552
-0.00088884024
-0.0037703928
0.00046957739
-0.0030724236
0.0012460465
2.6686719e-05
0.00080563481
0.0014576725
5.7601981e-05
0.00085459796
-0.0002581314
-6.6417407e-05
-0.00013240635
-0.00040476053
7.8678514e-05
-0.00045085154
0.00026983369
-0.00031152496
0.00034849213
-0.00016417097
0.00035750189
-7.0771952e-05
0.00035840256
-1.5260233e-05
0.00037266214
1.7056975e-05
0.00039443291
9.1736336e-06
0.00041677576
-1.0652645e-05
0.0004376403
-2.3051748e-05
0.00045973683
-2.1848761e-05
0.00048423607
-1.5769028e-05
0.00051062399
-6.4125441e-06
0.00054641775
-0.0063396778
0.0014174136
-0.0001000334
0.00097645997
0.0060639375
-0.00060417131
0.0063179822
-0.0019188744
-0.0014535092
-0.0011433086
-0.0052332258
0.00057398318
-0.0042935218
0.0016906605
0.00020243941
0.0010702894
0.0022628976
4.1153854e-07
0.0014076046
-0.00049539459
-9.7166568e-06
-0.00031481835
-0.0005440999
6.9423415e-06
-0.00063831716
0.0002661471
-0.00042300483
0.00038130771
-0.00019160272
0.00037591396
-6.3137267e-05
0.00034985702
-6.1423773e-06
0.00034927753
2.0450827e-05
0.00036926373
7.3609429e-06
0.0003962417
-1.6512497e-05
0.00042263104
-3.0921968e-05
0.00044550698
-3.2296452e-05
0.00047018476
-2.3734854e-05
0.00049221005
-1.4307763e-05
0.00051853265
-3.1985301e-06
0.00054962619
-0.0074836066
0.0014580401
4.1406986e-06
0.0013132569
0.0078498492
-0.00080943408
0.0081698476
-0.0024560287
-0.0020632141
-0.0013091765
-0.0072055086
0.00082896458
-0.0059662525
0.0022467013
0.00050258997
0.0013905084
0.0034041107
-7.0915949e-05
0.0022075925
-0.00079956294
7.7833017e-05
-0.00058292639
-0.00081162081
-4.7287908e-05
-0.00091549399
0.00028412085
-0.00060841232
0.00045154354
-0.00023108373
0.00042077078
-3.838332e-05
0.00035113904
2.0417785e-05
0.00032327819
3.1282766e-05
0.00033843085
5.3843763e-06
0.00037122871
-2.5128668e-05
0.00040484763
-4.1409558e-05
0.00043310882
-4.3998833e-05
0.00045720227
-3.4331246e-05
0.00048077916
-2.208281e-05
0.00049999223
-8.8674305e-06
0.00052421351
1.434471e-06
0.00054820128
-0.0088931077
0.0023493127
-5.7769321e-05
0.0015199671
0.010127559
-0.00096443758
0.010311266
-0.0029508452
-0.0028126401
-0.0017066098
-0.0094654069
0.00095071288
-0.0080479866
0.0029106899
0.00094372005
0.0018055724
0.0049509992
-0.00015636696
0.0033337841
-0.0011970921
0.00022577326
-0.00094748368
-0.0012478563
-0.00014668335
-0.0013063671
0.0003435836
-0.00088630016
0.00056199263
-0.00028845293
0.00050888894
1.5015715e-05
0.00036734402
7.7222338e-05
0.00029430853
5.5045213e-05
0.00029949391
4.8601521e-06
0.00033893757
-3.6808241e-05
0.00038289366
-5.5679216e-05
0.00041910368
-5.7695028e-05
0.00044679216
-4.7689842e-05
0.00047055163
-3.0644926e-05
0.00048933757
-1.5450851e-05
0.0005065817
6.9348867e-07
0.00052496441
6.910303e-06
0.00054129979
-0.009960599
0.0026236681
0.00081618332
0.0014753763
0.012612679
-0.00096513934
0.012872239
-0.0035254028
-0.0038027469
-0.0019607443
-0.012782112
0.0016100874
-0.010687221
0.003589943
0.00158833
0.0022660837
0.0070147692
-0.00025818029
0.0048719798
-0.0016945462
0.00045783275
-0.0014291335
-0.0018811307
-0.00031420543
-0.0019007548
0.00044769666
-0.0012660711
0.00072333262
-0.00036729697
0.00064080719
0.00011709246
0.00040678067
0.00018108573
0.00026345208
0.00010192693
0.00024740352
9.2213578e-06
0.00029511446
-5.1989006e-05
0.00035410381
-7.5017644e-05
0.00040221879
-7.5180217e-05
0.00043657536
-6.2706278e-05
0.00046179517
-4.2164917e-05
0.00048206182
-2.1294355e-05
0.00049517642
-2.2906555e-06
0.00050957102
1.2259402e-05
0.00051962277
1.2120857e-05
0.00052918682
-0.010749828
0.0025068601
0.0025448831
0.00089498367
0.016191162
-0.0021030939
0.015997898
-0.0040907898
-0.0047867211
-0.0025414319
-0.016824105
0.0020812418
-0.013542217
0.0044650832
0.0023114682
0.0028668102
0.0096868037
-0.00040593204
0.0069428787
-0.0023290629
0.00079961814
-0.0020363176
-0.0027608668
-0.00054939756
-0.0028093811
0.00059440515
-0.0018031371
0.00098473524
-0.00046601086
0.00082201119
0.00028226498
0.00047560117
0.00036144089
0.00022639736
0.00018881903
0.00017653999
2.3403576e-05
0.00023320786
-7.1438218e-05
0.00031455501
-0.00010157554
0.00038065445
-9.8317676e-05
0.0004253478
-8.1174447e-05
0.00045503286
-5.6162615e-05
0.000475781
-2.9186466e-05
0.00048994522
-6.145318e-06
0.00049902635
1.3993171e-05
0.00050784194
2.2706725e-05
0.00050904184
1.6040544e-05
0.00051315315
-0.011247772
0.0023884872
0.0044105146
0.00064124323
0.020352676
-0.0032665176
0.018640011
-0.0047451982
-0.0063718655
-0.0025056458
-0.021728532
0.0023629892
-0.016871569
0.0054105971
0.0033700216
0.0034065354
0.013129063
-0.00057543146
0.0096448856
-0.0031079237
0.0012684089
-0.002797846
-0.0039412546
-0.00085593346
-0.0041439284
0.00078512677
-0.0025765224
0.0013677601
-0.00058831188
0.0011069973
0.00053595091
0.00056829238
0.00065440603
0.0001826105
0.00033829833
7.6904038e-05
5.5668569e-05
0.00014426962
-9.6241473e-05
0.00025801227
-0.00013910452
0.00035208736
-0.00013017413
0.00041251297
-0.0001049094
0.00044908083
-7.3778185e-05
0.00047264222
-4.1342879e-05
0.00048792862
-1.1803993e-05
0.00049559752
1.260696e-05
0.00050040852
2.9902971e-05
0.00050065038
3.0087536e-05
0.0004949973
1.8426937e-05
0.00049473218
-0.011702605
0.0027296552
0.0064033317
0.0003956838
0.024724298
-0.0037303662
0.020455131
-0.0050816291
-0.0085774569
-0.0025396046
-0.026301045
0.0020668619
-0.020988601
0.0064800238
0.0048335422
0.0039470817
0.017438531
-0.00090291906
0.013135634
-0.0040661659
0.0018671702
-0.0037066839
-0.0054874494
-0.0012516573
-0.006027682
0.0010277927
-0.0036911296
0.0018997043
-0.00074236301
0.001521774
0.0009383047
0.00070461581
0.0010950012
0.00012767817
0.00058618966
-6.5286867e-05
0.00011690762
1.566862e-05
-0.00012809028
0.00017612985
-0.00019406834
0.00031299085
-0.00017575238
0.00039768003
-0.00013710952
0.00044472344
-9.6448227e-05
0.00047175502
-5.7516728e-05
0.00048881454
-2.0575069e-05
0.00049669465
1.0244085e-05
0.0004979572
3.3085679e-05
0.00049722301
4.2101637e-05
0.00048864145
3.4790866e-05
0.00047863361
1.9456172e-05
0.00047528125
-0.012049246
0.0028065496
0.0084642183
0.00066878181
0.029237177
-0.0041171839
0.021607735
-0.0048829601
-0.01136883
-0.0022902521
-0.031613547
0.0027728932
-0.026130899
0.0072091622
0.0065651652
0.0047484052
0.022676593
-0.001290971
0.017445244
-0.0052125172
0.0025930482
-0.0047920473
-0.0074732941
-0.0017208465
-0.0086041873
0.0013248209
-0.0052634136
0.0026000504
-0.00094167584
0.0020989877
0.0015539924
0.00090606837
0.0017552128
4.4397027e-05
0.00097378976
-0.00025991734
0.00021290189
-0.00016126775
-0.00017029781
5.7895876e-05
-0.00027771989
0.00025980437
-0.00024535642
0.00038261849
-0.00018451289
0.00044510435
-0.00012689485
0.00047518536
-7.7388214e-05
0.00049163467
-3.235798e-05
0.00050059977
6.2557326e-06
0.00050068154
3.4345089e-05
0.000496698
5.036504e-05
0.00048895834
4.9368523e-05
0.00047406995
3.7035887e-05
0.00046105221
1.9330504e-05
0.00045595551
-0.012257616
0.0027383724
0.010581952
0.00068883019
0.034419259
-0.0045132863
0.021914596
-0.0044240348
-0.014887501
-0.0013642852
-0.039083508
0.0051797044
-0.032131076
0.00877307
0.0072192156
0.0065551163
0.028894437
-0.0014694326
0.022678657
-0.0065243715
0.0033556643
-0.0059751371
-0.0099663137
-0.0022990348
-0.012015577
0.0016905212
-0.007450479
0.0035118643
-0.0011994758
0.0028578329
0.0024634634
0.00118951
0.0027336028
-7.2313248e-05
0.0015479391
-0.00052973547
0.00037546932
-0.00042246078
-0.00024637521
-8.5164523e-05
-0.0004172567
0.0001974592
-0.00035770059
0.00037217477
-0.00025726924
0.00045539964
-0.00016907501
0.00048730587
-0.00010165222
0.00049946515
-4.6098233e-05
0.0005053842
-4.4597578e-07
0.00050730592
3.3918263e-05
0.00050110964
5.4972359e-05
0.0004920941
6.1409624e-05
0.00047691758
5.3309482e-05
0.00045780393
3.6971306e-05
0.00044340817
1.8363799e-05
0.00043759628
-0.012345931
0.002575152
0.012648776
0.00067156291
0.039984258
-0.0048761545
0.022085042
-0.0046837227
-0.018527982
-0.00078354889
-0.046708378
0.0062605796
-0.037105848
0.010154475
0.0085519155
0.0074403749
0.036645251
-0.0011956927
0.029090612
-0.007881374
0.0040651347
-0.0072338433
-0.013070982
-0.0028704751
-0.016437701
0.0021230735
-0.01041523
0.004655254
-0.001531582
0.0038439646
0.0037541992
0.0015670989
0.0041527174
-0.00022958299
0.0023775176
-0.00090186538
0.00062701485
-0.00078124843
-0.00035181483
-0.0003169921
-0.00061582296
0.00011342744
-0.00052727402
0.00036705484
-0.00036589273
0.00048081849
-0.00022719013
0.00051353347
-0.00013124382
0.00051691373
-6.1076821e-05
0.00051445592
-7.9122822e-06
0.00051285797
3.0750001e-05
0.00051047881
5.7778252e-05
0.00049830648
6.9488502e-05
0.00048402128
6.7045443e-05
0.00046318343
5.3859345e-05
0.00044092519
3.5509575e-05
0.00042625792
1.7019102e-05
0.00042058186
-0.012330524
0.0022928152
0.014556476
0.00066746672
0.04565149
-0.0049956539
0.021883757
-0.0046748582
-0.021334825
-0.0018768735
-0.054171668
0.0066797361
-0.040284401
0.0094391298
0.013081486
0.005624909
0.04568607
-0.001600439
0.037383363
-0.0094884303
0.0046875128
-0.0085037504
-0.016787828
-0.003517003
-0.022028243
0.0027200578
-0.014381987
0.0060898143
-0.001931939
0.0050556127
0.0055467646
0.0020514051
0.0061499751
-0.00043013192
0.0035471166
-0.0013991534
0.00099171614
-0.0012665331
-0.00048830153
-0.00064473518
-0.00092412392
-8.6712285e-06
-0.00075368307
0.00033984954
-0.00052213962
0.00052331082
-0.00030813434
0.00056177069
-0.00016653402
0.00054883197
-7.573885e-05
0.00053158347
-1.527888e-05
0.00052182838
2.7890114e-05
0.00051572116
5.7796965e-05
0.00051046305
6.8202433e-05
0.00049959533
7.7719356e-05
0.00047335534
6.8458892e-05
0.00044858685
5.1882659e-05
0.00042456327
3.4000617e-05
0.00040927102
1.548969e-05
0.00040509724
-0.012240895
0.0019263466
0.016246503
0.00060280238
0.051190989
-0.004872014
0.021404592
-0.0045164767
-0.024065646
-0.0019440309
-0.061695499
0.005646953
-0.042483581
0.0088789111
0.018267562
0.0042530597
0.054470209
-0.0031592251
0.047051077
-0.011268141
0.0052361355
-0.01003705
-0.021152145
-0.004139441
-0.02913246
0.0035872068
-0.019468599
0.0078066564
-0.0023859834
0.0065438631
0.0079630831
0.0026393021
0.0088983851
-0.00069698019
0.0051629616
-0.0020459531
0.0015036834
-0.0019110963
-0.00067109928
-0.0010837195
-0.0013735598
-0.00019529216
-0.0011181909
0.00035583596
-0.00076399533
0.0005816994
-0.00042622399
0.00064139348
-0.00020969958
0.00060493118
-8.7794042e-05
0.0005608845
-1.7157584e-05
0.00053346106
2.7538227e-05
0.00052217893
5.7803022e-05
0.00051571303
7.6872608e-05
0.00050179274
8.6449452e-05
0.00049086679
8.076915e-05
0.00046105421
6.6414688e-05
0.00043405844
4.9084805e-05
0.00040949211
3.0813754e-05
0.00039394085
1.3909165e-05
0.00039119382
-0.012083384
0.0014944069
0.017663967
0.00050889788
0.05632798
-0.0045341696
0.02084197
-0.0043093797
-0.026688803
-0.001893315
-0.069548531
0.0059089973
-0.045805432
0.0089687983
0.023271936
0.0038745409
0.063050846
-0.0043275723
0.056699732
-0.012807873
0.0061150478
-0.012147052
-0.025757035
-0.0054321739
-0.037803291
0.0045313806
-0.025779908
0.0098985021
-0.0028243277
0.0082450049
0.011158603
0.0033483535
0.012581579
-0.0010438709
0.0073336566
-0.0028676567
0.0021960526
-0.0027383118
-0.00091969996
-0.0016624953
-0.0020108729
-0.00044641774
-0.0016997287
0.00038622756
-0.0011043368
0.0006961547
-0.00061193946
0.00076739237
-0.00026501405
0.000696689
-9.2460994e-05
0.0006095836
-8.5674489e-06
0.00055228437
3.4240186e-05
0.00052675122
6.0965819e-05
0.00051900857
7.98091e-05
0.00051276895
8.9234584e-05
0.00049900358
8.9191589e-05
0.00048244383
7.8927607e-05
0.00044855083
6.2190129e-05
0.00042095671
4.4842999e-05
0.00039547757
2.7663325e-05
0.00038018008
1.2508021e-05
0.00037869245
-0.011895061
0.0010807706
0.018824297
0.00033409192
0.060798585
-0.0039616872
0.020242395
-0.0039345828
-0.029110571
-0.0018876068
-0.077461482
0.0060196318
-0.048925833
0.0090293912
0.025350729
0.0068900092
0.072272219
-0.005346828
0.065754722
-0.01338256
0.0061948668
-0.012887693
-0.030434364
-0.0074697393
-0.047939082
0.0047036062
-0.03315878
0.01191024
-0.0030353988
0.010109578
0.015307379
0.0040962442
0.017425802
-0.0014958495
0.010170116
-0.0038803124
0.0031002086
-0.0037718101
-0.0012483019
-0.0024097206
-0.0028952416
-0.00077815388
-0.0025525675
0.00040638665
-0.001615433
0.0008972851
-0.00086868774
0.00095286693
-0.00034401622
0.00084636448
-8.2615322e-05
0.00068681986
2.0151273e-05
0.00058084836
5.628803e-05
0.00053022452
7.1487302e-05
0.00051621896
8.3994256e-05
0.00051481198
9.2498594e-05
0.00050949258
9.4046381e-05
0.00049414099
8.8170635e-05
0.00047319777
6.7292623e-05
0.00044345753
5.795617e-05
0.00040784637
4.0780766e-05
0.00038237628
2.4892837e-05
0.00036778826
1.1426846e-05
0.00036727338
-0.011759
0.00062387404
0.01976719
0.0001378939
0.064383322
-0.0032506252
0.019681318
-0.0034005983
-0.031302811
-0.0017423402
-0.085374476
0.0060253821
-0.051640716
0.0087345062
0.027253995
0.0071261298
0.080475178
-0.0013129449
0.074262322
-0.013854427
0.0055237562
-0.01271145
-0.036808473
-0.0065135997
-0.059981637
0.0045728066
-0.04212027
0.013665091
-0.0030245646
0.011899415
0.020577797
0.0048391798
0.023623163
-0.0021010917
0.013787253
-0.0051129645
0.0042523513
-0.00503245
-0.0016694545
-0.0033506675
-0.0041023265
-0.0012026657
-0.0037528011
0.00042203998
-0.00239005
0.0011809572
-0.001222435
0.0012509887
-0.00044978201
0.0010585964
-4.998261e-05
0.00081370388
8.1370654e-05
0.00062558182
0.00010562699
0.00053149757
9.7706687e-05
0.00050399661
9.3599171e-05
0.0005066048
9.5310664e-05
0.0005119872
9.684552e-05
0.0005066779
9.3826255e-05
0.00048847468
8.4306879e-05
0.00045617784
7.1767e-05
0.00042965486
5.336134e-05
0.00039526715
3.7055506e-05
0.00037023091
2.2795533e-05
0.00035641229
1.0809583e-05
0.00035647278
0.00019165534
-0.011785566
0.020302133
8.8948311e-05
0.067027107
-0.0025058696
0.019105223
-0.0026745176
-0.033140586
-0.0015628226
-0.093031647
0.0059148281
-0.053937286
0.0083219429
0.028834775
0.0071537263
0.088861657
-0.0012603443
0.085344895
-0.01239552
0.0037484054
-0.012079076
-0.043856392
-0.0056635381
-0.071488641
0.0049934014
-0.053676879
0.016129421
-0.0035803296
0.014220872
0.026867632
0.0056096026
0.031361143
-0.002898774
0.018259606
-0.0065734203
0.0056588035
-0.0065194072
-0.0021814911
-0.004520414
-0.0057131748
-0.0017398385
-0.0053870828
0.0004315879
-0.0035318934
0.0015638448
-0.0017380066
0.0016964898
-0.00056973867
0.0013709106
6.3884329e-06
0.0010021981
0.00019934163
0.00069571554
0.00019836876
0.00053283128
0.00015089434
0.0004783071
0.00011517271
0.00048242237
0.00010017245
0.00050173847
9.680031e-05
0.00051202098
9.5466713e-05
0.00050502099
9.0345971e-05
0.00048242335
7.9881768e-05
0.00044805477
6.6239916e-05
0.00041678283
4.9166006e-05
0.00038315592
3.4188912e-05
0.00035885568
2.1615439e-05
0.00034559887
1.063063e-05
0.00034585244
6.7158023e-05
0.020426647
-0.00021367708
-0.011881539
0.068569236
-0.0014531605
0.018555444
-0.0019560796
-0.034584427
-0.0012306763
-0.099985645
0.0053911721
-0.055514711
0.0074922451
0.030212434
0.0069442827
0.097169926
-0.0011545367
0.096899804
-0.012815257
0.0060475961
-0.014694711
-0.051288004
-0.0046474656
-0.084730265
0.0075780869
-0.067199516
0.018516053
-0.0049120393
0.01746115
0.033791013
0.0072975126
0.040942768
-0.0039720033
0.023642234
-0.0082813859
0.007300463
-0.0082150772
-0.0027988036
-0.0059020905
-0.007661918
-0.0025716796
-0.0075316567
0.00040472765
-0.005165558
0.0020652349
-0.002489796
0.002315615
-0.00071802336
0.0018447531
0.00012183167
0.0012554478
0.00038965752
0.0008118688
0.00036097303
0.000533105
0.00024983592
0.00043389102
0.00015858178
0.00043490537
0.0001113079
0.00047129519
9.4859925e-05
0.00050368035
9.2186573e-05
0.00051529335
9.0935452e-05
0.00050441656
8.541019e-05
0.00047688238
7.4801641e-05
0.00043948231
6.1065512e-05
0.00040488795
4.583376e-05
0.00037150785
3.2505565e-05
0.00034798427
2.1083438e-05
0.00033513825
1.0792391e-05
0.00033507159
-0.00045719554
0.06909361
-5.0386132e-05
0.020263374
-0.00064208914
-0.012092913
0.018303501
-0.0012012053
-0.035675819
-0.00086468901
-0.10588192
0.0046655989
-0.056580177
0.0064566329
0.03136381
0.0063408664
0.10501459
-0.00090037635
0.10889712
-0.013151858
0.0081322074
-0.014899869
-0.054786984
-0.01119573
-0.099886151
0.010508424
-0.080364009
0.020742587
-0.0071675107
0.02077154
0.041562017
0.0096901608
0.053057009
-0.0048167243
0.029911054
-0.010240819
0.0091385036
-0.010119444
-0.0035289668
-0.007484918
-0.010120598
-0.0034434231
-0.010638551
0.00053521776
-0.0074792183
0.0027183899
-0.0035667931
0.0031422376
-0.00091279477
0.0025103876
0.00034040646
0.0016261742
0.00068047246
0.00096462763
0.00062984433
0.00054299252
0.00041523296
0.00036770791
0.00023798131
0.00035449908
0.00013525502
0.00041097307
9.2708971e-05
0.00047346119
8.3236001e-05
0.00051263865
8.49363e-05
0.00052129022
8.5352066e-05
0.000504463
8.0233135e-05
0.00047143909
6.9857266e-05
0.00043067776
5.7230017e-05
0.00039349437
4.3721338e-05
0.00036028614
3.1785433e-05
0.00033730134
2.1325541e-05
0.00032459698
1.1316726e-05
0.0003237676
-0.00037571907
0.018222036
0.00060250996
0.068440734
-4.9641007e-05
0.019670943
-0.0011177244
-0.012328123
-0.036201503
-0.00067552302
-0.11049019
0.0037435711
-0.057125201
0.0052106182
0.032194545
0.0056258934
0.11195747
-0.00060200472
0.12110793
-0.013111181
0.0099043426
-0.014923993
-0.057777114
-0.011909736
-0.1128749
0.0017930236
-0.091039867
0.021184285
-0.0067150021
0.020290082
0.05143949
0.010894069
0.068168538
-0.0054213788
0.037584379
-0.012490057
0.011024919
-0.012127269
-0.0043527639
-0.0092956643
-0.013096681
-0.004508862
-0.014544539
0.00046255881
-0.01050172
0.0035577246
-0.0050822038
0.004233817
-0.0011705191
0.0033999829
0.00069328571
0.0021575217
0.0011550629
0.0011515915
0.0010294306
0.00056503943
0.00068881776
0.00026940312
0.00037428202
0.00023140576
0.00018111832
0.00030864373
9.2714001e-05
0.00041098407
6.7587321e-05
0.00048912816
7.0060805e-05
0.0005275274
7.7602511e-05
0.00052904355
8.0144947e-05
0.00050454367
7.579041e-05
0.00046549571
6.6334883e-05
0.00042155871
5.4984921e-05
0.00038223171
4.2937161e-05
0.00034912571
3.2136315e-05
0.00032650972
2.2282316e-05
0.00031362293
1.2029091e-05
0.00031175226
-0.00026434064
-0.036312884
0.00055438592
0.018270171
0.0016576592
0.066733452
-0.00016103614
0.018714272
-0.0015582944
-0.012503139
-0.11348804
0.0023223297
-0.057286786
0.0039051539
0.032762946
0.004642211
0.11803145
-0.00044807946
0.13298189
-0.012475956
0.011208538
-0.014415377
-0.061645427
-0.011055671
-0.12605177
0.0012671392
-0.10548337
0.016236532
-0.0031367671
0.017606051
0.061771254
0.0099583157
0.084780294
-0.005717706
0.046971748
-0.014808758
0.012883187
-0.014348355
-0.0052640499
-0.011216004
-0.016576166
-0.0058162066
-0.019465077
0.00041165311
-0.01462085
0.0045816872
-0.0071525392
0.0056280645
-0.0015069221
0.0045702437
0.0012317083
0.0028615802
0.0018724163
0.001440187
0.0016001131
0.000580913
0.0011196814
0.00013416939
0.00059673678
4.693618e-05
0.00026489289
0.00014762217
9.8917834e-05
0.00030244109
4.3822632e-05
0.00043475969
4.3004104e-05
0.00051620327
5.8666456e-05
0.00054648014
7.1823043e-05
0.00053737468
7.6345606e-05
0.00050398512
7.2926131e-05
0.00045889662
6.4537812e-05
0.00041199105
5.4411275e-05
0.00037075708
4.3440847e-05
0.00033780985
3.3450111e-05
0.00031536102
2.3534274e-05
0.00030210887
1.2872359e-05
0.00029889452
0.00072436459
-0.11447675
0.00013705741
-0.035895558
0.001091367
0.018836475
0.0026126375
0.063959796
-0.00036028441
0.017516279
-0.0020032307
-0.012617176
-0.057521278
0.0025568213
0.033242775
0.0034253201
0.12295877
-0.0002851076
0.14387071
-0.011336903
0.012151642
-0.013419062
-0.064697736
-0.011363061
-0.13893331
0.0018258734
-0.1216397
0.01742348
-0.0086001914
0.021699956
0.07002088
0.0093564251
0.10040551
-0.0056669101
0.058118612
-0.016864574
0.014662475
-0.016588056
-0.0062832989
-0.013329114
-0.02052811
-0.007264061
-0.02554445
0.00026314402
-0.020035004
0.0058258065
-0.0099882248
0.0074173588
-0.001929378
0.00605053
0.0020313989
0.0037705627
0.0029370895
0.0017969242
0.0024907981
0.00054951032
0.001751789
-5.1198255e-05
0.00094651912
-0.00021562751
0.00039924538
-8.7439313e-05
0.00011415015
0.00013237099
9.3326176e-06
0.00033691955
-8.757284e-07
0.00047864308
2.3591961e-05
0.00055129233
5.1057227e-05
0.00056726355
6.8666858e-05
0.00054506636
7.4728107e-05
0.00050218357
7.2222773e-05
0.00045120697
6.4905608e-05
0.00040148213
5.5348982e-05
0.00035884742
4.5140358e-05
0.00032610586
3.5283305e-05
0.00030363082
2.5197791e-05
0.00028977408
1.3782704e-05
0.00028512709
0.0011264538
-0.057923367
-0.00093142646
-0.11340828
0.00066523553
-0.035469427
0.0019431213
0.019506003
0.0033670223
0.060232506
-0.00049556164
0.016008627
-0.0023741526
-0.012641701
0.033492943
0.0023066495
0.12649109
-0.00010699732
0.15340714
-0.0098215298
0.0126251
-0.011810363
-0.067374802
-0.01074199
-0.15163601
0.0013396463
-0.13691182
0.017097992
-0.013386202
0.02220948
0.06961048
0.022110346
0.11518595
-0.0054240313
0.070145746
-0.017694041
0.016640979
-0.018843069
-0.0075395308
-0.015331819
-0.024949842
-0.0089073543
-0.032962131
0.00015361762
-0.027108614
0.007336768
-0.013759846
0.0095974149
-0.0024314004
0.0079193759