/*--------------------------------*- C++ -*----------------------------------*\
| =========                 |                                                 |
| \\      /  F ield         | OpenFOAM: The Open Source CFD Toolbox           |
|  \\    /   O peration     | Version:  5.0                                   |
|   \\  /    A nd           | Web:      www.OpenFOAM.org                      |
|    \\/     M anipulation  |                                                 |
\*---------------------------------------------------------------------------*/
FoamFile
{
    version     2.0;
    format      ascii;
    class       volScalarField;
    location    "300";
    object      nut;
}
// * * * * * * * * * * * * * * * * * * * * * * * * * * * * * * * * * * * * * //

dimensions      [0 2 -1 0 0 0 0];

internalField   nonuniform List<scalar> 
9520
(
1.5204285e-117
1.9306426e-109
1.334801e-117
1.405049e-102
1.6971764e-109
1.1671615e-117
1.8235921e-96
1.2359948e-102
1.4852133e-109
1.0240506e-117
6.7780685e-91
1.6051195e-96
1.0821291e-102
1.3049391e-109
9.1060527e-118
9.4147362e-86
5.9690394e-91
1.4062978e-96
9.5197158e-103
1.1642675e-109
8.2574647e-118
5.8326499e-81
8.2931506e-86
5.2346851e-91
1.2390847e-96
8.5186719e-103
1.0613818e-109
7.6240942e-118
1.8160233e-76
5.1393373e-81
7.279454e-86
4.6209102e-91
1.1119337e-96
7.7987776e-103
9.8471037e-110
7.0917566e-118
3.0617648e-72
1.6017702e-76
4.5158006e-81
6.4381644e-86
4.1578876e-91
1.021357e-96
7.2563152e-103
9.164566e-110
6.5278706e-118
2.961644e-68
2.7056468e-72
1.4099104e-76
4.0021442e-81
5.8070781e-86
3.8284194e-91
9.5151815e-97
6.740676e-103
8.3830467e-110
5.8360952e-118
1.7339954e-64
2.6245853e-68
2.3875604e-72
1.2528701e-76
3.6182849e-81
5.3551055e-86
3.5655941e-91
8.8070892e-97
6.1143056e-103
7.4049983e-110
5.0162834e-118
6.8660553e-61
1.5398463e-64
2.3236662e-68
2.1277905e-72
1.1357374e-76
3.3398641e-81
4.9785815e-86
3.283324e-91
7.913273e-97
5.3318482e-103
6.2852064e-110
4.178721e-118
3.4360491e-57
6.0017758e-61
1.3673261e-64
2.0762124e-68
1.9337523e-72
1.0494109e-76
3.0960998e-81
4.5539292e-86
2.9203831e-91
6.813708e-97
4.474e-103
5.2094346e-110
3.482483e-118
2.2552297e-52
2.619438e-57
5.2702199e-61
1.2220259e-64
1.890113e-68
1.788504e-72
9.6987216e-77
2.809669e-81
4.0066415e-86
2.4850136e-91
5.6629958e-97
3.7004484e-103
4.3859158e-110
3.0524875e-118
2.9639402e-46
1.2892471e-52
2.0392065e-57
4.6347157e-61
1.1113586e-64
1.7496227e-68
1.6485405e-72
8.7299761e-77
2.4434545e-81
3.3717176e-86
2.0505401e-91
4.6892444e-97
3.1577912e-103
3.9508041e-110
2.9487412e-118
5.0944345e-40
1.7943955e-46
6.9037065e-53
1.5481042e-57
4.153937e-61
1.0291568e-64
1.6101009e-68
1.4725538e-72
7.5047195e-77
2.0347779e-81
2.7686602e-86
1.7053105e-91
4.0679317e-97
2.9260754e-103
3.9563678e-110
3.1816341e-118
4.0679688e-34
3.8004878e-40
8.3275899e-47
2.7646225e-53
1.2130722e-57
3.8248843e-61
9.4731167e-65
1.4288821e-68
1.2519464e-72
6.1901406e-77
1.6663602e-81
2.3191438e-86
1.5069679e-91
3.8773194e-97
3.0261685e-103
4.3916292e-110
3.7041783e-118
1.1959324e-28
3.6560681e-34
1.8602665e-40
1.9850847e-47
1.0249882e-53
1.0325824e-57
3.5216648e-61
8.3673169e-65
1.2019783e-68
1.0237928e-72
5.0668207e-77
1.4099195e-81
2.0901779e-86
1.475157e-91
4.1215922e-97
3.4275175e-103
5.1458776e-110
4.3486942e-118
1.168577e-23
1.2364494e-28
1.8913349e-34
3.9967257e-41
3.1179712e-48
5.1434284e-54
9.2248964e-58
3.0990605e-61
6.964595e-65
9.7472125e-69
8.3905165e-73
4.3415804e-77
1.2976684e-81
2.0956981e-86
1.602065e-91
4.7243048e-97
4.0027216e-103
5.9197601e-110
4.7890472e-118
3.4359093e-19
1.3291355e-23
6.6784405e-29
3.9636449e-35
5.3422912e-42
7.6595767e-49
3.7024424e-54
7.9813923e-58
2.547472e-61
5.5941778e-65
8.0056474e-69
7.2930766e-73
4.0844209e-77
1.3294633e-81
2.3097766e-86
1.8427428e-91
5.4520484e-97
4.4740821e-103
6.2429684e-110
4.6749527e-118
2.8077467e-15
4.1096801e-19
7.4040081e-24
1.3978226e-29
5.6309018e-36
1.477743e-42
4.8162006e-49
2.9306103e-54
6.3642789e-58
2.0183913e-61
4.6022102e-65
7.0663164e-69
7.0104309e-73
4.2657915e-77
1.4780201e-81
2.6439225e-86
2.0854741e-91
5.8833778e-97
4.4934529e-103
5.7478084e-110
3.9119854e-118
5.7976616e-12
3.3700264e-15
2.3998402e-19
1.6085799e-24
2.2675153e-30
2.3567404e-36
1.4667946e-42
3.9985547e-49
1.9369713e-54
4.8561127e-58
1.6580845e-61
4.126618e-65
6.9366823e-69
7.4383914e-73
4.7593201e-77
1.6708921e-81
2.9136265e-86
2.162387e-91
5.6078483e-97
3.8942756e-103
4.5091236e-110
2.7833886e-118
2.9804264e-09
6.7606454e-12
2.043119e-15
5.9022902e-20
3.2115939e-25
1.4795656e-30
3.863625e-36
1.6733702e-42
1.6130363e-49
1.1052078e-54
3.9104593e-58
1.5091787e-61
4.1357936e-65
7.454755e-69
8.2836201e-73
5.2821697e-77
1.7808298e-81
2.8911588e-86
1.9538079e-91
4.5745168e-97
2.8709174e-103
3.0242377e-110
1.7222957e-118
3.8104902e-07
3.359049e-09
4.3337362e-12
5.8718047e-16
1.647145e-20
3.091092e-25
3.5584917e-30
5.5918596e-36
5.9013186e-43
2.5692934e-50
7.1044245e-55
3.5848964e-58
1.5446336e-61
4.4929783e-65
8.2479324e-69
8.9783967e-73
5.4172049e-77
1.6834783e-81
2.4756953e-86
1.5041159e-91
3.1828299e-97
1.830328e-103
1.8039708e-110
9.9005698e-119
1.1278663e-05
4.1438854e-07
2.2574579e-09
1.5044646e-12
2.2618366e-16
1.9375573e-20
9.3114895e-25
5.9059647e-30
1.9747491e-36
4.1552454e-44
3.5835006e-51
5.954821e-55
3.7453696e-58
1.6958538e-61
4.9217495e-65
8.6899278e-69
8.8290199e-73
4.8634762e-77
1.364507e-81
1.8063013e-86
9.9512241e-92
1.9502346e-97
1.0707947e-103
1.0482306e-110
5.9856025e-119
6.3482167e-05
1.1892209e-05
2.9431003e-07
9.3874157e-10
7.5182794e-13
3.0570843e-16
6.1448829e-20
1.6295664e-24
2.0699716e-30
1.1312752e-37
9.4757556e-46
1.1323438e-51
6.1727881e-55
4.1635219e-58
1.8361295e-61
5.0204382e-65
8.1672297e-69
7.5212026e-73
3.7301957e-77
9.4675991e-82
1.1479613e-86
5.9461178e-92
1.1424445e-97
6.4670664e-104
6.8964635e-111
4.5112293e-119
0.00013160382
6.5105744e-05
9.3180734e-06
1.4622845e-07
5.7960234e-10
1.1096153e-12
9.3352768e-16
1.0659365e-19
5.6436789e-25
1.0775727e-31
1.5507272e-39
2.4959976e-47
8.3082831e-52
6.9228536e-55
4.4572895e-58
1.8074338e-61
4.4946328e-65
6.5973217e-69
5.4735005e-73
2.471313e-77
5.8399509e-82
6.8111868e-87
3.5703275e-92
7.3866209e-98
4.7763238e-104
6.0889528e-111
4.8605308e-119
0.00019007004
0.00013353469
5.7834192e-05
5.679626e-06
1.0631832e-07
9.0534281e-10
3.1117467e-12
1.5423379e-15
3.6752685e-20
2.8827642e-26
1.2602898e-33
1.4646745e-41
3.2863086e-48
8.6854119e-52
7.3320731e-55
4.2228765e-58
1.5356475e-61
3.4391183e-65
4.5707762e-69
3.4894967e-73
1.4955615e-77
3.5088063e-82
4.2996717e-87
2.5389197e-92
6.2760549e-98
5.0005184e-104
7.843966e-111
7.4820475e-119
0.00023579483
0.00019076915
0.00012397392
4.4752101e-05
4.6831532e-06
1.6944087e-07
2.2793464e-09
4.7970703e-12
5.3617486e-16
1.991129e-21
3.8011136e-28
1.1730962e-35
6.8544003e-43
2.2465969e-48
9.0015353e-52
6.6664513e-55
3.3892945e-58
1.1108522e-61
2.2758754e-65
2.8298609e-69
2.101996e-73
9.2724171e-78
2.390472e-82
3.4373036e-87
2.5118589e-92
7.7680598e-98
7.5345681e-104
1.3709218e-110
1.4373268e-118
0.00027334011
0.00023558426
0.00017911938
0.00010690224
4.0655833e-05
7.0681376e-06
3.7800628e-07
3.2197301e-09
1.7095873e-12
3.2820464e-17
3.6132527e-23
5.7439796e-30
1.2481573e-36
6.1881124e-43
2.3978858e-48
7.7298861e-52
5.0213669e-55
2.3102676e-58
7.0407223e-62
1.3818795e-65
1.7243492e-69
1.3718485e-73
6.9632812e-78
2.1872188e-82
3.9542944e-87
3.6083809e-92
1.3259117e-97
1.4356883e-103
2.7576485e-110
2.9214302e-118
0.00030488573
0.00027200802
0.00022251511
0.00016101791
0.00010150197
5.1948578e-05
1.2754147e-05
4.8609221e-07
1.1931481e-09
1.2561063e-13
8.7080342e-19
1.0208678e-24
1.5672349e-30
3.1829701e-36
1.150539e-42
1.6709024e-48
5.3001978e-52
3.2057784e-55
1.4053593e-58
4.2346283e-62
8.660778e-66
1.2076049e-69
1.1526862e-73
7.3452229e-78
2.9023759e-82
6.4029929e-87
6.7215782e-92
2.6514828e-97
2.9183896e-103
5.4921662e-110
5.568981e-118
0.00033127351
0.0003021478
0.00025774008
0.00020379179
0.00015641951
0.00011714816
7.0072105e-05
1.468168e-05
1.9311202e-07
1.0985369e-10
4.9955094e-15
4.8391356e-20
5.8836283e-25
7.3324274e-30
8.8263815e-36
5.8294399e-43
6.7865135e-49
3.092742e-52
1.8716981e-55
8.4578953e-59
2.7749367e-62
6.6190178e-66
1.1454476e-69
1.3935653e-73
1.1064302e-77
5.142746e-82
1.2538547e-86
1.3638594e-91
5.2976973e-97
5.5680283e-103
9.8420007e-110
9.3011712e-118
0.00035176081
0.00032681379
0.000287265
0.00023863769
0.00020017279
0.00017446042
0.00013952311
7.385637e-05
7.1959102e-06
2.3219091e-08
6.7382032e-12
5.5977883e-16
5.1925108e-20
3.7297958e-24
2.3549332e-29
4.5002803e-36
4.6139681e-44
2.5068694e-49
1.7199295e-52
1.1377569e-55
5.8855701e-59
2.3457188e-62
7.1050888e-66
1.5658909e-69
2.3206346e-73
2.0891618e-77
1.0261061e-81
2.5091599e-86
2.6216589e-91
9.5295638e-97
9.2645163e-103
1.5096006e-109
1.3168303e-117
0.00036674444
0.0003458608
0.00031121702
0.00026852543
0.00023545432
0.00021936817
0.00019879817
0.00014324173
5.0739841e-05
1.2938678e-06
2.2582393e-09
1.5077164e-12
9.7159134e-16
3.6950173e-19
1.2528352e-23
1.2514894e-29
2.2829584e-37
1.26457e-45
1.1569409e-49
1.0631966e-52
8.5252922e-56
5.5533491e-59
2.8399775e-62
1.0787114e-65
2.8031683e-69
4.5344573e-73
4.1580602e-77
1.9813648e-81
4.5637959e-86
4.3957697e-91
1.4601868e-96
1.2965875e-102
1.9368502e-109
1.5581827e-117
0.00037695425
0.00035964767
0.0003300094
0.00029327564
0.00026563828
0.00025452646
0.00024332541
0.00020056523
0.00011385585
1.8120179e-05
2.0595582e-07
9.494207e-10
3.7115692e-12
6.8671871e-15
1.2202654e-18
6.8657309e-24
6.4618668e-31
1.2335454e-39
9.5645174e-47
7.1342077e-50
8.6737875e-53
9.0212924e-56
7.5186279e-59
4.6924144e-62
2.0225435e-65
5.5253686e-69
8.8219976e-73
7.6519014e-77
3.368622e-81
7.0746786e-86
6.1680841e-91
1.8570067e-96
1.502327e-102
2.0596489e-109
1.5337309e-117
0.00038259852
0.00036896084
0.00034394981
0.00031325396
0.00029088108
0.00028361366
0.00027679193
0.00024286006
0.00016750505
6.5520679e-05
5.3333063e-06
1.4513193e-07
2.9226755e-09
2.3966013e-11
2.1318175e-14
6.8418536e-19
3.8644125e-25
3.2555925e-33
2.620179e-42
3.8395215e-47
6.3677865e-50
1.0299239e-52
1.3498144e-55
1.3242182e-58
9.0047077e-62
3.9389056e-65
1.0342049e-68
1.5297246e-72
1.2052838e-76
4.7946771e-81
9.0652037e-86
7.1089713e-91
1.9389756e-96
1.4328104e-102
1.810948e-109
1.2556377e-117
0.00038436624
0.00037424877
0.00035384464
0.00032882343
0.00031148141
0.00030744198
0.00030325321
0.000274401
0.00020867786
0.00011634121
3.5224154e-05
5.3514515e-06
4.9106948e-07
1.6262608e-08
6.735635e-11
1.2171935e-14
4.3595964e-20
2.3447128e-27
4.3302788e-36
4.8041376e-44
3.5024656e-47
8.448715e-50
1.6813877e-52
2.4864098e-55
2.5497479e-58
1.7040815e-61
7.0038309e-65
1.6746089e-68
2.2207028e-72
1.5624944e-76
5.5729773e-81
9.461921e-86
6.6798769e-91
1.6563162e-96
1.1237305e-102
1.3176905e-109
8.5691977e-118
0.00038359914
0.000376453
0.00036024723
0.00034072938
0.00032784312
0.00032659304
0.00032421072
0.00029917102
0.00024032919
0.00015826683
8.3887247e-05
4.0512209e-05
1.5338244e-05
2.1645774e-06
4.0094049e-08
3.9001875e-11
9.0729463e-16
3.5588528e-22
4.8570934e-30
5.7138893e-39
1.7345766e-44
5.105865e-47
1.4884612e-49
3.1880317e-52
4.7274689e-55
4.6254095e-58
2.8502893e-61
1.0528767e-64
2.2334714e-68
2.6210547e-72
1.6384284e-76
5.2371564e-81
7.997888e-86
5.1067031e-91
1.1575272e-96
7.2580358e-103
7.9558256e-110
4.8932858e-118
0.00038094528
0.00037658021
0.00036421823
0.00034942604
0.00034076062
0.00034150887
0.00034046988
0.00031861337
0.00026715916
0.00019148174
0.00012842016
9.6551326e-05
7.5233746e-05
3.8894098e-05
4.3763836e-06
2.3568494e-08
3.4983815e-12
1.0513543e-17
1.1856197e-24
6.4780475e-33
4.2278119e-41
2.3961778e-44
9.6399187e-47
2.8725044e-49
5.9121085e-52
8.1326824e-55
7.2177082e-58
3.9606858e-61
1.2866826e-64
2.3981138e-68
2.4819813e-72
1.3796777e-76
3.9649014e-81
5.4682201e-86
3.1782085e-91
6.6308552e-97
3.872352e-103
4.0020963e-110
2.3497879e-118
0.00037644241
0.0003753224
0.0003671829
0.00035583238
0.00035048537
0.00035308161
0.00035255176
0.00033352086
0.00028884665
0.00022163173
0.00016453021
0.00014576685
0.00014218889
0.00011721511
5.4735962e-05
2.7279973e-06
2.6114987e-09
5.9071463e-14
5.4336523e-20
2.3905054e-27
7.999347e-36
1.2660551e-41
4.7960306e-44
1.8840212e-46
5.1480555e-49
9.5621559e-52
1.175729e-54
9.2409803e-58
4.4259426e-61
1.2554633e-64
2.0517027e-68
1.8754213e-72
9.3088342e-77
2.4172543e-81
3.0277126e-86
1.6140374e-91
3.1240811e-97
1.7142754e-103
1.6866922e-110
9.552204e-119
0.00037359033
0.00037409913
0.00036963539
0.00036110072
0.00035751603
0.00036136751
0.00036120676
0.00034430941
0.00030641966
0.00024742667
0.00019509642
0.00018495141
0.00019600824
0.00018863489
0.00013663456
4.1848654e-05
4.0615466e-07
6.4886954e-11
4.5823259e-16
1.6785261e-22
3.7711347e-30
9.8605297e-38
2.4342202e-41
9.5537992e-44
3.2451076e-46
7.7653055e-49
1.2722624e-51
1.3808234e-54
9.4284877e-58
3.920876e-61
9.7020866e-65
1.3928545e-68
1.1290787e-72
5.0346384e-77
1.1886135e-81
1.3616908e-86
6.7149681e-92
1.2169255e-97
6.3387926e-104
6.0035425e-111
3.3181433e-119
0.00037164278
0.00037512449
0.00037553447
0.00036525489
0.00036273115
0.00036682501
0.0003665781
0.00035163741
0.00032019666
0.00026934573
0.00022177949
0.00021533327
0.00023621204
0.00024407926
0.00020702883
0.00011728467
1.2382895e-05
1.5015818e-08
7.3652495e-13
2.161575e-18
5.0229009e-25
5.7714444e-32
2.3402533e-37
5.8478073e-41
1.5831203e-43
4.5281043e-46
9.4327869e-49
1.3607295e-51
1.2847016e-54
7.5784016e-58
2.735928e-61
5.9192254e-65
7.4960508e-69
5.4208812e-73
2.1881213e-77
4.7310087e-82
5.0011311e-87
2.3041597e-92
3.9536457e-98
1.9790961e-104
1.8282607e-111
9.9972515e-120
0.00036839302
0.00037616775
0.00037613581
0.00037606516
0.00036598147
0.00037009669
0.00036926952
0.00035592798
0.00033075588
0.00028787568
0.00024475654
0.00024009374
0.00026588318
0.00028237985
0.00025981743
0.00018306967
6.3691121e-05
8.3544688e-07
2.4563591e-10
5.4670989e-15
1.5348498e-20
3.9220404e-26
4.2495084e-31
2.2019245e-36
1.0345851e-40
2.0168722e-43
4.9700867e-46
9.1166945e-49
1.1529767e-51
9.3632435e-55
4.7739432e-58
1.5001163e-61
2.8500515e-65
3.202862e-69
2.0827554e-73
7.6832877e-78
1.5355922e-82
1.515503e-87
6.6076771e-93
1.089529e-98
5.3263527e-105
4.8805088e-112
2.6850512e-120
0.00036710981
0.00037204895
0.00037867085
0.00037557022
0.00037536266
0.00037113106
0.0003697072
0.00035785429
0.00033861597
0.00030346046
0.00026450145
0.00026094099
0.00028725919
0.00030744416
0.00029358274
0.00023180321
0.00012243878
1.1593271e-05
2.0397416e-08
3.1248828e-12
1.196347e-16
6.4522868e-21
5.7765828e-25
8.007685e-30
7.2299591e-36
1.0677214e-40
1.9561842e-43
4.2938283e-46
7.0038892e-49
7.6138409e-52
5.3239548e-55
2.3530575e-58
6.4660309e-62
1.0857672e-65
1.0920118e-69
6.4573876e-74
2.2060025e-78
4.1327138e-83
3.8762233e-88
1.6307316e-93
2.6424014e-99
1.2916621e-105
1.2017491e-112
6.7977089e-121
0.00036984465
0.00036639545
0.00037502886
0.00037890652
0.00037349306
0.0003725968
0.00036815503
0.00035799619
0.00034447855
0.00031641191
0.00028143029
0.00027840957
0.00030442969
0.00032489114
0.0003146111
0.00026463765
0.00016892573
4.5388489e-05
5.2308888e-07
5.1454573e-10
2.6326562e-13
2.0205471e-16
1.2468688e-19
1.0591867e-23
3.2103233e-29
4.0383162e-36
7.1523911e-41
1.4797866e-43
2.9601747e-46
4.1858918e-49
3.9065753e-52
2.3600695e-55
9.090153e-59
2.2008896e-62
3.2999427e-66
3.0115156e-70
1.6495065e-74
5.3342731e-79
9.6083666e-84
8.8323216e-89
3.7148479e-94
6.1441915e-100
3.1179603e-106
3.0472599e-113
1.8214733e-121
0.00036480511
0.00036573945
0.0003666498
0.00037652403
0.0003770588
0.00036933726
0.00036626882
0.00035692525
0.0003490977
0.000327255
0.00029586728
0.0002930157
0.0003179502
0.00033791201
0.00032949043
0.00028799984
0.00020378828
8.5857058e-05
5.1001359e-06
3.0637436e-08
1.697148e-10
1.158086e-12
3.9776489e-15
1.9646671e-18
4.0446566e-23
1.6145197e-29
3.9456547e-37
4.0383592e-41
8.9911696e-44
1.5965929e-46
1.9369957e-49
1.5584402e-52
8.1869424e-56
2.7743928e-59
6.0004714e-63
8.1907448e-67
6.9685789e-71
3.6665421e-75
1.1728482e-79
2.1411966e-84
2.0489883e-89
9.1973407e-95
1.6546093e-100
9.2154796e-107
9.8713224e-114
6.4000661e-122
0.00035548627
0.00035972988
0.00036169498
0.00036672989
0.00037600762
0.00037296329
0.00036159554
0.00035562536
0.00035273511
0.00033677121
0.00030820224
0.00030508548
0.00032860755
0.00034670213
0.00033933722
0.00030499403
0.00023553281
0.0001205522
2.1684899e-05
7.557861e-07
3.0738107e-08
1.2513183e-09
1.996522e-11
5.12205e-14
6.8274077e-18
2.1266025e-23
7.7907615e-31
2.2987664e-38
2.0503954e-41
4.339143e-44
6.6562681e-47
6.9599453e-50
4.8692819e-53
2.2542573e-56
6.8592742e-60
1.3658774e-63
1.7731693e-67
1.4947124e-71
8.1742971e-76
2.8353802e-80
5.8172272e-85
6.4341706e-90
3.3950699e-95
7.1776191e-101
4.6215094e-107
5.5648201e-114
3.9170716e-122
0.00035647914
0.00035295781
0.00035344191
0.00035739809
0.00036559088
0.00037315029
0.00036535808
0.00034979287
0.00034036772
0.0003450478
0.00031880783
0.00031493475
0.00033654845
0.00035264287
0.00034475532
0.00031664822
0.00026040088
0.00015909694
4.9649978e-05
7.4649701e-06
1.5126444e-06
2.6801896e-07
1.7192015e-08
2.0155646e-10
1.5809184e-13
3.7198747e-18
1.2248273e-24
3.5582956e-33
4.1709111e-39
8.6788819e-42
1.6253032e-44
2.1566344e-47
1.9680335e-50
1.2218024e-53
5.148202e-57
1.478305e-60
2.9171543e-64
3.9906419e-68
3.8035672e-72
2.5131328e-76
1.0987387e-80
2.9013152e-85
4.114146e-90
2.7165911e-95
6.9020818e-101
5.0912587e-107
6.6897244e-114
4.9070432e-122
0.00035293569
0.00035786507
0.00034896019
0.00034654304
0.00035221272
0.00036250859
0.00036718338
0.00035375287
0.00033373854
0.00031970436
0.00032801466
0.00032289579
0.00034217313
0.0003556344
0.0003467546
0.00032356934
0.00027996468
0.00019217632
8.5616816e-05
3.0294548e-05
1.7971573e-05
1.0639918e-05
2.6094839e-06
1.3037657e-07
5.4095404e-10
8.8340618e-14
2.6803708e-19
6.6223114e-27
7.8025299e-36
1.3480991e-39
2.8965022e-42
4.7554703e-45
5.5600438e-48
4.5738515e-51
2.6570124e-54
1.1071473e-57
3.3892438e-61
7.8098203e-65
1.3698756e-68
1.803573e-72
1.6964816e-76
1.0369648e-80
3.6588439e-85
6.5276115e-90
5.0971358e-95
1.4467238e-100
1.1359432e-106
1.5268075e-113
1.1079801e-121
0.00033606047
0.00035848826
0.0003572371
0.00034338043
0.00033856209
0.00034555625
0.00035680417
0.00035740819
0.00033806916
0.00031266518
0.00029349889
0.00032901904
0.0003457983
0.00035636972
0.00034586249
0.00032673552
0.00029480217
0.00022101651
0.00012059922
6.1320699e-05
6.1092221e-05
6.3303785e-05
4.545025e-05
1.2066526e-05
2.9624009e-07
3.089534e-10
7.93048e-15
2.3108638e-21
4.6750859e-30
2.6526006e-37
3.8980046e-40
7.6589413e-43
1.1306436e-45
1.2279148e-48
9.9358451e-52
6.180317e-55
3.077003e-58
1.2665512e-61
4.3187398e-65
1.1694731e-68
2.3249779e-72
3.0687473e-76
2.4100101e-80
1.0068827e-84
1.9943477e-89
1.6472438e-94
4.774267e-100
3.7321184e-106
4.900658e-113
3.4210034e-121
0.00033356712
0.00034269958
0.00036182164
0.00035453298
0.00033585198
0.00032897882
0.0003367937
0.00034778956
0.00034360911
0.0003174809
0.00028638787
0.00026172575
0.0003474034
0.00035492663
0.00034270085
0.00032710479
0.00030562959
0.00024598044
0.00015266698
9.3930079e-05
0.00010089126
0.0001277953
0.000127554
8.9470802e-05
2.0151713e-05
1.7436411e-07
3.4760071e-11
1.081615e-16
3.0248925e-24
3.2892187e-33
4.3707186e-38
9.2808224e-41
1.7079889e-43
2.4667786e-46
2.8600459e-49
2.7935531e-52
2.4125092e-55
1.8737477e-58
1.2650192e-61
6.8514304e-65
2.6902916e-68
6.9429565e-72
1.076652e-75
9.2341796e-80
3.9991306e-84
7.9583304e-89
6.4748805e-94
1.8260918e-99
1.378478e-105
1.7388379e-112
1.1608029e-120
0.00034706101
0.00033664534
0.0003480032
0.00036302837
0.00034968246
0.00032646838
0.00031729313
0.00032554489
0.00033502203
0.0003250504
0.00029173382
0.00025493963
0.00022491657
0.00035139469
0.00033751192
0.00032557876
0.00031336204
0.00026720166
0.00018187733
0.00012402688
0.00013329326
0.00017687458
0.00019811926
0.00017883319
0.00010777972
1.3739429e-05
2.5165817e-08
7.4525355e-13
2.836631e-19
1.979697e-27
1.5268826e-35
8.8260157e-39
1.9860648e-41
3.8925012e-44
6.777225e-47
1.10767e-49
1.7528435e-52
2.6094735e-55
3.3586133e-58
3.3641244e-61
2.3740454e-64
1.0865717e-67
3.0149982e-71
4.7725168e-75
4.046288e-79
1.7002375e-83
3.2559856e-88
2.540155e-93
6.8632803e-99
4.9658851e-105
6.0093821e-112
3.7337903e-129
0.00034567617
0.00034460972
0.00033828496
0.0003517484
0.00036209371
0.00034281114
0.00031482896
0.00030317438
0.00031127036
0.00031782309
0.00030134779
0.00026100883
0.0002185643
0.00018028094
0.0003305615
0.00032261016
0.0003190546
0.00028498197
0.00020852374
0.00015118854
0.00016085592
0.00020968064
0.00025107058
0.00024804642
0.00019714333
9.1050053e-05
3.1731125e-06
8.5531185e-10
3.7847053e-15
3.553319e-22
9.6908159e-31
8.5590605e-37
1.8532518e-39
5.08786e-42
1.4109918e-44
4.0766324e-47
1.2000082e-49
3.2934963e-52
7.4863134e-55
1.2663808e-57
1.4710842e-60
1.1036039e-63
5.0877457e-67
1.378692e-70
2.0982545e-74
1.6924268e-78
6.7521169e-83
1.2294918e-87
9.1462805e-93
2.3645834e-98
1.6428983e-104
2.7388279e-120
5.8688692e-139
0.00032200197
0.0003375457
0.00033997422
0.00033887158
0.00035381338
0.00035900332
0.00033356959
0.00030049394
0.0002862413
0.00029309873
0.00029580998
0.00027238425
0.00022466182
0.00017416611
0.00012444214
0.00031856528
0.00032352846
0.00030011954
0.00023273842
0.00017593046
0.00018456722
0.00023643353
0.00028373461
0.00029570491
0.00026269242
0.00017779439
4.6991531e-05
1.8701398e-07
8.1908187e-12
9.0903865e-18
2.4211485e-25
1.0487522e-33
1.4912217e-37
5.8056261e-40
2.7086213e-42
1.4133316e-44
7.474525e-47
3.5077036e-49
1.293358e-51
3.4225961e-54
6.1196861e-57
7.0927848e-60
5.1427046e-63
2.2554266e-66
5.7762228e-70
8.2961794e-74
6.3049003e-78
2.3802815e-82
4.1216423e-87
2.9306184e-92
7.278047e-98
1.12521e-112
5.7822363e-130
4.0886264e-150
0.00031366915
0.00031188771
0.00032715518
0.00033392268
0.0003386495
0.00035390747
0.00035357123
0.00032157965
0.00028319218
0.00026589684
0.0002705038
0.00026850497
0.00023686388
0.00017972174
0.00011819881
5.847242e-05
0.00032735099
0.00031361114
0.00025480069
0.00019872519
0.00020549849
0.00025833562
0.00030969162
0.0003264466
0.00030331124
0.00024290124
0.0001263906
8.0533001e-06
3.3173221e-09
3.6281e-14
1.1213113e-20
1.0328285e-28
1.8628608e-35
6.045448e-38
4.8807666e-40
4.4970019e-42
3.9902563e-44
2.9503301e-46
1.639346e-48
6.4008772e-51
1.6805977e-53
2.8811366e-56
3.1492263e-59
2.1392789e-62
8.7823092e-66
2.1103429e-69
2.8498229e-73
2.0432636e-77
7.3226814e-82
1.2110955e-86
8.2738439e-92
7.7005834e-106
3.6371176e-122
4.1989881e-141
1.4613259e-162
0.00033026439
0.00030754906
0.00030026094
0.00031528705
0.00032764945
0.00033719921
0.00035174636
0.00034527856
0.00030666394
0.00026230792
0.00024136484
0.00024275528
0.00023455441
0.000192077
0.00012234879
5.395122e-05
9.6771254e-06
0.00032666286
0.00027493114
0.00021987367
0.00022422931
0.00027699519
0.000330007
0.0003494272
0.00033018063
0.00028228471
0.00019394152
5.5644278e-05
3.0273407e-07
2.6037423e-11
7.9203723e-17
7.3273631e-24
6.2238419e-32
6.2075671e-36
8.1405526e-38
1.2523923e-39
1.726442e-41
1.8739599e-43
1.483254e-45
8.1728213e-48
3.0414105e-50
7.4720378e-53
1.1904577e-55
1.2080766e-58
7.6366045e-62
2.9298253e-65
6.6166844e-69
8.4164117e-73
5.7205509e-77
1.9570331e-81
3.1103063e-86
1.3703766e-99
4.049395e-115
3.6078249e-133
1.0572369e-153
4.4589981e-176
0.00033858582
0.00033143536
0.00029999591
0.00028727835
0.00030277983
0.00031963126
0.00033379933
0.00034672874
0.00033413834
0.00028802617
0.00023725734
0.00021222407
0.00020947262
0.00019145376
0.00013378361
5.7200993e-05
8.2302341e-06
3.1723131e-07
0.00029373312
0.00023959061
0.00024099494
0.00029286361
0.0003468753
0.00036622785
0.00034814119
0.00030822929
0.00024312911
0.00012021797
6.9179401e-06
4.1217349e-09
9.6799145e-14
8.77329e-20
2.9150106e-27
1.1574232e-33
1.2181039e-35
2.9131267e-37
5.8260789e-39
8.7857335e-41
9.4956759e-43
7.1381478e-45
3.6550531e-47
1.2536186e-49
2.8354459e-52
4.1694132e-55
3.9216017e-58
2.3101016e-61
8.3102915e-65
1.770509e-68
2.1321947e-72
1.3825429e-76
4.5450296e-81
8.120172e-94
1.2042574e-108
6.3993978e-126
8.721798e-146
1.969029e-167
2.0786675e-190
0.00031115678
0.00034801782
0.00033036883
0.00029095435
0.00027287873
0.00028812771
0.00030968907
0.00032766643
0.00033855409
0.0003191957
0.0002650659
0.00020749594
0.00017820519
0.00016754298
0.00013489511
6.5943372e-05
9.1672871e-06
2.4489244e-07
2.545731e-09
0.00025796927
0.00025590044
0.0003058072
0.00036061579
0.00037905736
0.00035895895
0.00032332036
0.00027580912
0.00018279725
3.9304876e-05
1.8010048e-07
2.5187354e-11
1.7695538e-16
5.166115e-23
2.3711236e-30
1.6443629e-33
5.4702981e-35
1.5033843e-36
3.0204933e-38
4.3135146e-40
4.3037768e-42
2.9577429e-44
1.3819895e-46
4.3350998e-49
9.0091973e-52
1.2240987e-54
1.0703847e-57
5.9014618e-61
2.0013048e-64
4.0404113e-68
4.6382602e-72
2.8895328e-76
1.8775061e-88
1.2068562e-102
3.2635095e-119
2.0055273e-138
1.0125632e-159
6.7118979e-182
2.1185296e-205
0.00027497182
0.00032671079
0.00035428382
0.00032721659
0.00028020368
0.0002568084
0.00027144985
0.00029698669
0.00031813187
0.00032644759
0.00029969705
0.00023633984
0.00017194733
0.00013596014
0.00011350659
6.6932894e-05
1.2100938e-05
2.7507788e-07
1.7472244e-09
5.2317961e-12
0.00026875343
0.00031562419
0.00037055391
0.00038812523
0.0003644896
0.00032987826
0.00029480532
0.00022920606
0.00010134915
2.6839383e-06
1.7565738e-09
7.3378216e-14
1.6571309e-19
2.2499616e-26
2.6138424e-31
8.1636085e-33
2.9502294e-34
7.6461314e-36
1.404103e-37
1.8151787e-39
1.6371377e-41
1.019356e-43
4.3339581e-46
1.2441555e-48
2.3821289e-51
3.0027288e-54
2.4531544e-57
1.2731059e-60
4.0965874e-64
7.8789303e-68
8.6865111e-72
1.8915735e-83
4.7434072e-97
5.8027685e-113
1.5942252e-131
1.9317774e-152
1.9522956e-174
6.1887512e-197
6.1211924e-221
0.00027978893
0.00029045842
0.00033959543
0.00035763983
0.00032184547
0.00026769662
0.0002387971
0.00025200291
0.0002808306
0.00030444491
0.00030963939
0.00027416694
0.00020036436
0.00012766735
8.3110995e-05
4.9939848e-05
1.2518678e-05
4.0289263e-07
1.9069175e-09
3.0952846e-12
2.7554952e-15
0.00032186128
0.00037571326
0.00039269955
0.00036495947
0.00032950632
0.00030350295
0.00026197482
0.00015886336
2.5668329e-05
4.2493673e-08
7.8503928e-12
1.0687665e-16
9.0924948e-23
1.020299e-28
9.876835e-31
4.4375614e-32
1.4407954e-33
3.3219347e-35
5.4407818e-37
6.3035704e-39
5.1217924e-41
2.8894083e-43
1.1201735e-45
2.9530645e-48
5.232609e-51
6.1519774e-54
4.7242409e-57
2.3228664e-60
7.1345903e-64
1.3169913e-67
9.0093201e-79
8.1365032e-92
4.1125461e-107
4.8610769e-125
1.7341306e-145
2.0719612e-167
1.265858e-189
1.8079154e-212
6.21288e-237
0.00032473199
0.00028909231
0.00030462818
0.00034960835
0.00035815467
0.00031430185
0.00025312922
0.00021847126
0.00022942646
0.00026066131
0.00028614474
0.00028740494
0.00024012043
0.00015359316
7.3334093e-05
2.7723125e-05
7.0487369e-06
4.3483606e-07
2.9761596e-09
3.1905283e-12
1.3531049e-15
3.8704032e-19
0.00037521579
0.00039119568
0.00035993795
0.0003231184
0.00030455504
0.00028246306
0.00020878242
7.5015943e-05
1.2869746e-06
2.7665891e-10
1.7151944e-14
8.6060185e-20
9.9264314e-26
1.079767e-28
5.2748593e-30
2.0714005e-31
5.8138315e-33
1.1797286e-34
1.7187599e-36
1.7851288e-38
1.3090471e-40
6.7103323e-43
2.3812766e-45
5.7921068e-48
9.5502223e-51
1.0538236e-53
7.6593614e-57
3.5945977e-60
1.0605258e-63
2.1598886e-74
6.5921027e-87
1.2821354e-101
6.2090426e-119
7.3309387e-139
1.3325148e-160
7.2575493e-183
3.2527795e-205
1.9250402e-228
4.2419735e-253
0.00036891092
0.00032422937
0.00029732772
0.00031732304
0.00035669482
0.00035585471
0.00030423283
0.0002361608
0.00019547729
0.00020342123
0.00023594257
0.00026224183
0.00025665195
0.00019192438
9.4716628e-05
2.0756323e-05
2.42766e-06
2.0088261e-07
3.3760926e-09
5.2961047e-12
1.2796085e-15
1.5909223e-19
1.5632989e-23
0.00038269896
0.00034896731
0.00031142354
0.00029966315
0.00029442386
0.0002479094
0.00012995392
1.2447328e-05
1.9076181e-08
8.6564125e-13
2.1406667e-17
9.1329862e-23
1.5416342e-26
5.3162508e-28
2.3988663e-29
7.8703114e-31
1.8916977e-32
3.382288e-34
4.3969012e-36
4.1063138e-38
2.7268178e-40
1.2752351e-42
4.1621097e-45
9.392527e-48
1.4501238e-50
1.5123034e-53
1.0483933e-56
4.7349574e-60
2.7401091e-70
2.6806972e-82
1.894452e-96
3.5888458e-113
1.4597879e-132
5.4403042e-154
2.4049432e-176
1.285365e-198
3.4239985e-221
1.3970685e-244
2.595178e-269
0.00036685818
0.00035717054
0.0003218361
0.00030488934
0.00032804274
0.00036064771
0.00035059933
0.00029130979
0.00021631311
0.0001694349
0.00017371574
0.00020562851
0.00023184602
0.00021092043
0.00012944558
3.1877812e-05
1.3786396e-06
4.8631645e-08
1.418034e-09
6.3287401e-12
2.2376926e-15
1.2856797e-19
5.5288725e-24
1.990678e-28
0.00033219983
0.0002952093
0.00029037804
0.0003004672
0.00027812642
0.00018205177
4.7582632e-05
4.1887765e-07
1.3387225e-10
2.0449085e-15
8.2467293e-20
1.3910751e-23
7.9997403e-26
2.5163444e-27
8.9373835e-29
2.4170057e-30
4.9378996e-32
7.803357e-34
9.0894711e-36
7.6617541e-38
4.6259485e-40
1.9830192e-42
5.9854063e-45
1.2610561e-47
1.8357894e-50
1.8232845e-53
1.2157485e-56
1.9166295e-66
5.741965e-78
1.4055113e-91
1.0009315e-107
1.4114277e-126
1.2846745e-147
6.3330127e-170
2.2454015e-192
1.1714005e-214
2.5863075e-237
9.0893841e-261
1.4231857e-285
0.00031013143
0.0003446479
0.00034215573
0.00031866486
0.00031137123
0.00033617549
0.00036134706
0.00034203758
0.0002751595
0.00019298854
0.00014013008
0.00014010636
0.00017335127
0.00018897159
0.00014818511
5.6718501e-05
2.4220595e-06
2.040474e-08
2.5771201e-10
2.4841428e-12
2.7694389e-15
2.2253267e-19
3.6978739e-24
6.2757042e-29
8.4000716e-34
0.00027540856
0.00027795141
0.00030270592
0.00030264506
0.00023017685
9.7470982e-05
4.4548471e-06
5.5118399e-09
8.2399179e-13
1.4414274e-16
2.3772893e-19
3.14699e-22
7.9765242e-25
1.0602186e-26
2.6174609e-28
5.7717517e-30
1.023722e-31
1.4478087e-33
1.5173887e-35
1.1590271e-37
6.3920433e-40
2.5251533e-42
7.0925283e-45
1.4049248e-47
1.9433533e-50
1.8535117e-53
7.6528342e-63
6.7371587e-74
5.4802336e-87
1.418507e-102
6.9123277e-121
1.659378e-141
1.2862955e-163
2.8980171e-186
1.3998857e-208
8.7009391e-231
1.7794578e-253
5.2789091e-277
7.020145e-302
0.0002531102