/*--------------------------------*- C++ -*----------------------------------*\
| =========                 |                                                 |
| \\      /  F ield         | OpenFOAM: The Open Source CFD Toolbox           |
|  \\    /   O peration     | Version:  5.0                                   |
|   \\  /    A nd           | Web:      www.OpenFOAM.org                      |
|    \\/     M anipulation  |                                                 |
\*---------------------------------------------------------------------------*/
FoamFile
{
    version     2.0;
    format      ascii;
    class       volScalarField;
    location    "300";
    object      nuTilda;
}
// * * * * * * * * * * * * * * * * * * * * * * * * * * * * * * * * * * * * * //

dimensions      [0 2 -1 0 0 0 0];

internalField   nonuniform List<scalar> 
9520
(
4.8298382e-33
5.1270202e-31
4.674885e-33
2.6629362e-29
4.9641675e-31
4.5205694e-33
8.988105e-28
2.5787985e-29
4.8012815e-31
4.3753965e-33
2.219274e-26
8.7054171e-28
2.4944834e-29
4.6487826e-31
4.2493501e-33
4.2843462e-25
2.1497557e-26
8.4223342e-28
2.4160354e-29
4.5186989e-31
4.1471982e-33
6.7592253e-24
4.1504337e-25
2.0803638e-26
8.1607259e-28
2.3501888e-29
4.4159177e-31
4.0654407e-33
8.9786045e-23
6.5484903e-24
4.017404e-25
2.0167035e-26
7.9439703e-28
2.2991463e-29
4.3339751e-31
3.9921105e-33
1.0231046e-21
8.7009324e-23
6.340289e-24
3.896346e-25
1.9644573e-26
7.7778167e-28
2.2580449e-29
4.2561879e-31
3.9092356e-33
1.0146355e-20
9.9194087e-22
8.4280706e-23
6.1524356e-24
3.7976866e-25
1.9245007e-26
7.640963e-28
2.2163793e-29
4.161117e-31
3.7999245e-33
8.8754592e-20
9.8443531e-21
9.6144349e-22
8.1838385e-23
6.000117e-24
3.7217949e-25
1.8904433e-26
7.4929021e-28
2.1622585e-29
4.0325853e-31
3.6577102e-33
7.0406547e-19
8.6158595e-20
9.5495565e-21
9.3426065e-22
7.9865076e-23
5.8814952e-24
3.6541908e-25
1.8513715e-26
7.2924619e-28
2.0887533e-29
3.8696855e-31
3.494243e-33
5.9225527e-18
6.807949e-19
8.3639499e-20
9.2855251e-21
9.1230411e-22
7.8304323e-23
5.770328e-24
3.5726016e-25
1.7972723e-26
7.0224326e-28
1.9987831e-29
3.6925308e-31
3.3398501e-33
9.4862368e-17
5.5347572e-18
6.5902342e-19
8.1330991e-20
9.0711288e-21
8.9467504e-22
7.6763779e-23
5.6302069e-24
3.4587745e-25
1.7256696e-26
6.7044402e-28
1.9065147e-29
3.5388994e-31
3.2342421e-33
3.2146107e-15
8.2510326e-17
5.197525e-18
6.3822793e-19
7.9432817e-20
8.8976107e-21
8.7646564e-22
7.4745788e-23
5.4350691e-24
3.3119334e-25
1.6447125e-26
6.3975756e-28
1.8336046e-29
3.4507875e-31
3.2096252e-33
1.1645847e-13
2.8354244e-15
7.0475216e-17
4.8507524e-18
6.2107222e-19
7.7921201e-20
8.7128276e-21
8.5177815e-22
7.19478e-23
5.1909892e-24
3.1530014e-25
1.5713147e-26
6.1789252e-28
1.8007199e-29
3.4552818e-31
3.2736035e-33
3.4825394e-12
1.0815592e-13
2.3333659e-15
5.5983717e-17
4.5648267e-18
6.0840859e-19
7.6306555e-20
8.4534941e-21
8.1764265e-22
6.855747e-23
4.9390596e-24
3.0180322e-25
1.5247623e-26
6.1111066e-28
1.8174689e-29
3.5484902e-31
3.4006874e-33
8.1105404e-11
3.3861244e-12
9.0122386e-14
1.6257497e-15
4.3710531e-17
4.3857206e-18
5.9584293e-19
7.3946258e-20
8.0933111e-21
7.7749284e-22
6.5228833e-23
4.7399874e-24
2.9432141e-25
1.5180552e-26
6.20958e-28
1.8755006e-29
3.6911506e-31
3.5373376e-33
1.4340023e-09
8.1626319e-11
2.8591944e-12
6.1158001e-14
1.0246086e-15
3.6859819e-17
4.2633949e-18
5.7685458e-19
7.0608994e-20
7.6803189e-21
7.4005039e-22
6.2803077e-23
4.6468736e-24
2.9476644e-25
1.5505477e-26
6.4254993e-28
1.9487491e-29
3.819078e-31
3.6187933e-33
1.8774428e-08
1.4774354e-09
6.9646854e-11
1.9283676e-12
3.706403e-14
7.2576773e-16
3.3993789e-17
4.1098212e-18
5.4908913e-19
6.6850786e-20
7.3151567e-21
7.1513088e-22
6.1906843e-23
4.6785553e-24
3.0213105e-25
1.6054905e-26
6.6550629e-28
2.0014069e-29
3.8643282e-31
3.5907726e-33
1.7843996e-07
1.9585542e-08
1.2702185e-09
4.6969646e-11
1.1885094e-12
2.7130328e-14
6.4956623e-16
3.2043152e-17
3.8818546e-18
5.1811749e-19
6.3705267e-20
7.0964667e-21
7.0870593e-22
6.2621045e-23
4.8048795e-24
3.1238943e-25
1.6544026e-26
6.7738099e-28
2.0002975e-29
3.778482e-31
3.427926e-33
1.2022762e-06
1.8631737e-07
1.7042325e-08
8.6505464e-10
2.9975075e-11
9.6656958e-13
2.7232822e-14
6.1893458e-16
2.884094e-17
3.6285248e-18
4.9361588e-19
6.2047686e-20
7.0693668e-21
7.1961149e-22
6.4355461e-23
4.9515266e-24
3.1971529e-25
1.6669656e-26
6.6815646e-28
1.9264835e-29
3.5496062e-31
3.1430594e-33
5.7231685e-06
1.246687e-06
1.6372951e-07
1.1981134e-08
5.822419e-10
2.7258525e-11
1.098186e-12
2.8029352e-14
4.90065e-16
2.5049291e-17
3.4401608e-18
4.8260616e-19
6.2128006e-20
7.1999294e-21
7.3904733e-22
6.6001617e-23
5.0247132e-24
3.1859052e-25
1.6223592e-26
6.3385118e-28
1.7821013e-29
3.2076844e-31
2.7848737e-33
1.9331831e-05
5.8859367e-06
1.1116294e-06
1.197754e-07
8.7734834e-09
5.8325853e-10
3.4021098e-11
1.197338e-12
2.1394971e-14
3.0804677e-16
2.2452375e-17
3.3697968e-18
4.8574416e-19
6.3435823e-20
7.3808555e-21
7.5333822e-22
6.6327081e-23
4.946395e-24
3.0593034e-25
1.5170585e-26
5.7803526e-28
1.5906783e-29
2.8176485e-31
2.4258137e-33
4.7966068e-05
1.9716217e-05
5.3139061e-06
8.5328289e-07
9.505352e-08
9.2236176e-09
7.6896403e-10
3.8334422e-11
9.130732e-13
1.0924073e-14
1.8840297e-16
2.1514054e-17
3.4090683e-18
4.971954e-19
6.485502e-20
7.4692178e-21
7.4906152e-22
6.4453825e-23
4.6852625e-24
2.822991e-25
1.3665069e-26
5.1107073e-28
1.3913714e-29
2.4631024e-31
2.1444329e-33
9.2377349e-05
4.8685329e-05
1.8037676e-05
4.2694445e-06
7.220814e-07
1.0326145e-07
1.2310944e-08
8.7737671e-10
2.9157957e-11
4.4223097e-13
4.2317789e-15
1.4182579e-16
2.1724476e-17
3.4997215e-18
5.0673284e-19
6.5092496e-20
7.3426461e-21
7.1841308e-22
6.0219277e-23
4.2702223e-24
2.5182503e-25
1.2012555e-26
4.4751578e-28
1.2292555e-29
2.2262243e-31
2.0075873e-33
0.00014659344
9.3531732e-05
4.5167992e-05
1.5131332e-05
3.8059201e-06
8.0044688e-07
1.3648934e-07
1.4012584e-08
6.6522009e-10
1.3780993e-11
1.5061104e-13
1.7143491e-15
1.3158211e-16
2.2348648e-17
3.5560179e-18
5.0400001e-19
6.3212554e-20
6.9494731e-21
6.6254712e-22
5.4268711e-23
3.7825357e-24
2.211161e-25
1.0592509e-26
4.0255144e-28
1.1446307e-29
2.1694551e-31
2.056665e-33
0.00019875163
0.00014819485
8.7984188e-05
3.9206395e-05
1.4032496e-05
4.2733343e-06
1.0355595e-06
1.5349115e-07
1.0614489e-08
3.1294789e-10
4.5109418e-12
4.7224474e-14
1.0439563e-15
1.3306615e-16
2.2641877e-17
3.5025326e-18
4.8305579e-19
5.9026267e-20
6.3319152e-21
5.9155925e-22
4.7866474e-23
3.334039e-24
1.9759472e-25
9.7657898e-27
3.8842904e-28
1.1640724e-29
2.3227496e-31
2.2999488e-33
0.00024177549
0.00019936804
0.000140022
7.8144172e-05
3.730511e-05
1.5832256e-05
5.3796474e-06
1.1449831e-06
1.1656946e-07
5.0704641e-09
1.0577114e-10
1.4152816e-12
2.2489395e-14
9.5538311e-16
1.3405969e-16
2.2068271e-17
3.3093393e-18
4.4481935e-19
5.3180435e-20
5.614455e-21
5.2147064e-22
4.2555509e-23
3.0390898e-24
1.8769606e-25
9.7905299e-27
4.1174487e-28
1.2948946e-29
2.6778723e-31
2.7113269e-33
0.00027790453
0.00024155459
0.00018861288
0.00012595725
7.5192551e-05
4.1981126e-05
1.9370426e-05
5.8229897e-06
8.7568559e-07
5.7475209e-08
1.8606033e-09
3.7538389e-11
8.3474842e-13
2.2318534e-14
9.6999822e-16
1.2874946e-16
2.0520977e-17
3.0028203e-18
3.965833e-19
4.6947552e-20
4.9666195e-21
4.6994488e-22
3.9773623e-23
2.9868283e-24
1.9535761e-25
1.076368e-26
4.7198153e-28
1.5235388e-29
3.1895945e-31
3.2345881e-33
0.00030860253
0.00027659958
0.00022910061
0.00017225113
0.00012177581
8.3945266e-05
4.994745e-05
2.0515324e-05
4.5013919e-06
4.5266629e-07
2.3234635e-08
7.7453695e-10
2.8085243e-11
1.0687616e-12
2.5939219e-14
8.8068282e-16
1.1690561e-16
1.8320607e-17
2.6508057e-18
3.4945943e-19
4.1851394e-20
4.5585355e-21
4.5194069e-22
4.0504554e-23
3.2197962e-24
2.2108283e-25
1.2596242e-26
5.6143143e-28
1.8176808e-29
3.7829199e-31
3.7923771e-33
0.00033444538
0.00030591817
0.0002627969
0.00021148037
0.0001682576
0.00013460479
9.7466763e-05
5.1923864e-05
1.6109391e-05
2.4653037e-06
2.02765e-07
1.1483346e-08
6.9637982e-10
4.1599778e-11
1.3662059e-12
2.155887e-14
6.9889827e-16
1.020621e-16
1.6014724e-17
2.3375956e-18
3.1522502e-19
3.9282338e-20
4.519665e-21
4.7605287e-22
4.5032903e-23
3.7227542e-24
2.6169829e-25
1.5024102e-26
6.6644265e-28
2.1315619e-29
4.3653801e-31
4.2988075e-33
0.00035458605
0.00033006088
0.0002914018
0.00024446934
0.00020816847
0.00018453115
0.00015346684
0.00010004136
4.164011e-05
9.4220361e-06
1.2327371e-06
1.1958554e-07
1.1998119e-08
1.1084115e-09
5.5063439e-11
1.1345912e-12
1.1249315e-14
5.4397694e-16
8.8182319e-17
1.4167155e-17
2.1418686e-18
3.0354517e-19
4.0167834e-20
4.9064856e-21
5.4220892e-22
5.2846336e-23
4.4232678e-24
3.108335e-25
1.7652735e-26
7.6978168e-28
2.4138139e-29
4.8429704e-31
4.6740715e-33
0.00036935002
0.00034877316
0.00031477466
0.00027322871
0.00024147602
0.00022622863
0.00020689122
0.00015650687
8.2309263e-05
2.6106235e-05
5.2929524e-06
8.6427288e-07
1.4009305e-07
1.9608237e-08
1.4826058e-09
4.618935e-11
5.2812602e-13
4.5431783e-15
4.4904366e-16
7.8393323e-17
1.3230978e-17
2.1204051e-18
3.1976685e-19
4.4730678e-20
5.6849173e-21
6.4116341e-22
6.2702847e-23
5.2041841e-24
3.6005934e-25
2.0028719e-26
8.5374805e-28
2.616799e-29
5.1370249e-31
4.858431e-33
0.00037942399
0.00036234832
0.00033319178
0.00029726669
0.00027046997
0.00025977554
0.00024899725
0.00020842765
0.00013135032
5.5187226e-05
1.6458285e-05
4.3386356e-06
1.0987441e-06
2.2821604e-07
2.6113421e-08
1.2535589e-09
2.1592041e-11
1.4096839e-13
2.3981586e-15
3.9932183e-16
7.4824351e-17
1.3479379e-17
2.2958569e-18
3.6340113e-19
5.2383904e-20
6.7318963e-21
7.55973e-22
7.2858015e-23
5.9258636e-24
4.0050704e-25
2.1726477e-26
9.0354137e-28
2.705567e-29
5.1984781e-31
4.8224972e-33
0.00038499737
0.000371531
0.0003468903
0.00031677857
0.00029495858
0.00028790456
0.00028126302
0.00024848066
0.00017789943
9.3379133e-05
3.8506868e-05
1.5304211e-05
5.8050898e-06
1.7481362e-06
2.9934221e-07
2.2219584e-08
5.9907466e-10
5.6585497e-12
3.0294241e-14
1.9236902e-15
3.8997771e-16
7.8444941e-17
1.4954674e-17
2.6489046e-18
4.277103e-19
6.1804901e-20
7.8572666e-21
8.6515582e-22
8.1372313e-23
6.4514069e-24
4.2466461e-25
2.2432541e-26
9.1012216e-28
2.664241e-29
5.0161243e-31
4.5711495e-33
0.00038674333
0.00037674902
0.00035662976
0.00033203775
0.00031506265
0.00031112363
0.00030701571
0.00027889529
0.00021594225
0.00013340852
7.0758474e-05
3.9028331e-05
2.0961087e-05
8.8948781e-06
2.2379105e-06
2.5610804e-07
1.0963666e-08
1.6480671e-10
1.0777848e-12
1.1339528e-14
1.8905571e-15
4.2025833e-16
8.8886803e-17
1.743488e-17
3.1180962e-18
5.0076158e-19
7.1191288e-20
8.8372051e-21
9.4657426e-22
8.6532078e-23
6.6751664e-24
4.2770416e-25
2.2006581e-26
8.7181579e-28
2.4982157e-29
4.6163021e-31
4.1400857e-33
0.00038598524
0.0003789252
0.00036293846
0.00034373288
0.00033108996
0.00032987123
0.00032752142
0.00030299531
0.00024600366
0.00016962063
0.00010786276
7.5551724e-05
5.3456051e-05
3.0649182e-05
1.1033912e-05
1.9237721e-06
1.3158915e-07
3.2565375e-09
3.5068738e-11
2.0607302e-13
8.9128945e-15
2.085717e-15
4.8502586e-16
1.043027e-16
2.0445912e-17
3.6106882e-18
5.6789671e-19
7.8581652e-20
9.4648717e-21
9.8316085e-22
8.7251106e-23
6.5484263e-24
4.0860256e-25
2.0502422e-26
7.942123e-28
2.2314905e-29
4.0546544e-31
3.5862176e-33
0.00038336364
0.00037905149
0.00036685383
0.00035228818
0.00034377448
0.00034451541
0.00034348201
0.00032200876
0.00027184671
0.00019990422
0.00014390284
0.00011824572
0.00010193466
7.432763e-05
3.6691409e-05
9.532169e-06
1.036788e-06
4.2738822e-08
7.799751e-10
6.6903951e-12
6.1642579e-14
9.7161258e-15
2.4476707e-15
5.7127031e-16
1.2149023e-16
2.3355335e-17
4.0233883e-18
6.1455339e-19
8.2334756e-20
9.6001217e-21
9.6631121e-22
8.3273763e-23
6.0857258e-24
3.7017276e-25
1.8142964e-26
6.8841724e-28
1.9002268e-29
3.4024908e-31
2.9748325e-33
0.00037891759
0.00037781085
0.00036977908
0.00035859619
0.00035333922
0.00035589895
0.00035536638
0.00033663367
0.0002929084
0.00022820075
0.0001754816
0.00015914317
0.000156128
0.00013489058
8.5939863e-05
3.1926707e-05
5.4218969e-06
3.7040431e-07
1.1419533e-08
1.6492123e-10
1.2614115e-12
4.6584307e-14
1.1567077e-14
2.8901679e-15
6.5942012e-16
1.3661002e-16
2.5527491e-17
4.26522e-18
6.2961044e-19
8.1532223e-20
9.1987029e-21
8.9757074e-22
7.5190415e-23
5.3574286e-24
3.1812289e-25
1.5259151e-26
5.6825922e-28
1.5444061e-29
2.7317615e-31
2.3671469e-33
0.00037610297
0.00037660648
0.00037219992
0.00036378687
0.00036026126
0.00036405924
0.00036389068
0.00034723901
0.00031006043
0.00025283109
0.00020342412
0.00019424871
0.00020450025
0.00019760479
0.00015092684
7.5576766e-05
1.9261939e-05
2.1345965e-06
1.0950215e-07
2.6874945e-09
3.3076739e-11
4.4002021e-13
5.5218512e-14
1.3716372e-14
3.301538e-15
7.2843403e-16
1.4622331e-16
2.6481872e-17
4.2711771e-18
6.0856548e-19
7.6157849e-20
8.3182674e-21
7.8764594e-22
6.4238083e-23
4.4694037e-24
2.5954368e-25
1.220996e-26
4.4731306e-28
1.2000767e-29
2.1027892e-31
1.8112728e-33
0.00037418181
0.00037761966
0.00037802405
0.00036788138
0.00036539914
0.00036943775
0.0003691847
0.00035445185
0.00032355189
0.00027397801
0.0002284558
0.00022251079
0.00024232815
0.00024979367
0.00021453844
0.00013418184
4.8520197e-05
8.3379076e-06
6.9386774e-07
2.8684629e-08
6.3709349e-10
1.2410236e-11
5.7134879e-13
6.8780961e-14
1.5508848e-14
3.5754787e-15
7.6200885e-16
1.4817256e-16
2.5912918e-17
4.0290663e-18
5.5410567e-19
6.7051659e-20
7.0975272e-21
6.531569e-22
5.1961788e-23
3.5367679e-24
2.0130983e-25
9.3118547e-27
3.3655261e-28
8.941217e-30
1.5572205e-31
1.3380033e-33
0.00037097447
0.00037864855
0.00037861941
0.00037854783
0.00036860215
0.00037266282
0.00037183784
0.00035867869
0.00033391525
0.0002919735
0.00025035053
0.00024599487
0.00027079719
0.00028672932
0.00026481171
0.0001920725
9.1535504e-05
2.3000833e-05
2.9687208e-06
2.041508e-07
8.5325655e-09
3.6161923e-10
2.1454413e-11
1.001658e-12
7.8948692e-14
1.6408242e-14
3.6458584e-15
7.5281194e-16
1.4163196e-16
2.3852299e-17
3.5757928e-18
4.7498884e-19
5.5640743e-20
5.7165069e-21
5.1230969e-22
3.9853185e-23
2.6600494e-24
1.488534e-25
6.7926418e-27
2.4313237e-28
6.4231024e-30
1.1167396e-31
9.6129676e-34
0.00036971293
0.00037457922
0.00038112096
0.00037806187
0.00037785406
0.00037368137
0.00037226816
0.000360578
0.00034164158
0.00030717591
0.00026935165
0.00026599812
0.00029150119
0.00031113679
0.00029755318
0.00023781716
0.00013812292
4.726234e-05
8.9853652e-06
1.0044968e-06
8.1427515e-08
7.330135e-09
7.2906072e-10
4.4137672e-11
1.3263789e-12
7.8874858e-14
1.6215638e-14
3.5018847e-15
7.0216903e-16
1.2718988e-16
2.0633231e-17
2.9846503e-18
3.8339932e-19
4.3548662e-20
4.3521626e-21
3.8094204e-22
2.9076554e-23
1.9101432e-24
1.0557968e-25
4.7774453e-27
1.7035397e-28
4.5030824e-30
7.8639124e-32
6.8201909e-34
0.00037241027
0.00036900515
0.00037751987
0.00038135484
0.0003760121
0.00037512381
0.00037073583
0.00036071973
0.00034741099
0.00031984852
0.00028574979
0.00028288376
0.00030822203
0.00032820916
0.0003180928
0.0002693754
0.00017894505
7.742157e-05
2.0410265e-05
3.6318717e-06
5.6561789e-07
9.7542423e-08
1.558886e-08
1.486056e-09
6.1069051e-11
1.1188231e-12
7.0806303e-14
1.5064622e-14
3.1793517e-15
6.1501963e-16
1.0723395e-16
1.6771698e-17
2.34415e-18
2.9177016e-19
3.2221174e-20
3.1437005e-21
2.7006321e-22
2.0344106e-23
1.324406e-24
7.2907038e-26
3.3025055e-27
1.1850951e-28
3.1658924e-30
5.6031544e-32
4.9310547e-34
0.00036743165
0.00036835898
0.00036925352
0.00037899621
0.00037953155
0.00037191179
0.00036888053
0.00035966721
0.00035196067
0.00033048139
0.00029979735
0.0002970724
0.00032143373
0.00034098376
0.00033267781
0.00029206146
0.00021118943
0.00010824725
3.7343469e-05
1.0200946e-05
2.8753182e-06
8.457838e-07
2.0657417e-07
3.0589644e-08
2.0323548e-09
5.0080545e-11
6.0983264e-13
6.1106858e-14
1.3253721e-14
2.71419e-15
5.0531135e-16
8.4900594e-17
1.282402e-17
1.7362532e-18
2.1016226e-19
2.2682276e-20
2.1762839e-21
1.8529493e-22
1.3940565e-23
9.1223251e-25
5.0831648e-26
2.3454892e-27
8.613713e-29
2.359521e-30
4.2785595e-32
3.8456472e-34
0.00035825377
0.00036242889
0.00036436956
0.00036933057
0.00037848706
0.00037549
0.00036427795
0.00035838968
0.00035554518
0.00033982843
0.00031183815
0.00030883709
0.00033187176
0.00034962069
0.00034234889
0.00030865028
0.00024132483
0.00013641268
5.8329692e-05
2.3095276e-05
1.0586181e-05
4.8224935e-06
1.7237966e-06
3.8560509e-07
4.0910247e-08
1.6878509e-09
2.2801881e-11
2.9599846e-13
5.142023e-14
1.1005053e-14
2.1726855e-15
3.8978112e-16
6.3252863e-17
9.2601785e-18
1.2211488e-18
1.4492658e-19
1.5468703e-20
1.4837844e-21
1.2789939e-22
9.8497859e-24
6.6586579e-25
3.859791e-26
1.8596343e-27
7.1251875e-29
2.0263472e-30
3.7854301e-32
3.4728542e-34
0.00035923717
0.00035576697
0.00035623466
0.00036013245
0.00036820579
0.00037566745
0.00036798882
0.00035265283
0.00034337507
0.00034796867
0.00032221492
0.00031846025
0.00033966063
0.00035546254
0.00034767571
0.0003200617
0.00026525805
0.00017002233
8.1224914e-05
4.2791056e-05
2.8369842e-05
1.839434e-05
9.2615617e-06
3.0303152e-06
5.0133945e-07
3.4343264e-08
8.0491773e-10
5.7639825e-12
1.9358288e-13
4.1326388e-14
8.5773503e-15
1.6334049e-15
2.8332849e-16
4.4652357e-17
6.3916635e-18
8.3213688e-19
9.8781216e-20
1.0719127e-20
1.0647493e-21
9.6652809e-23
7.9186423e-24
5.7194799e-25
3.5342e-26
1.801963e-27
7.2263967e-29
2.124402e-30
4.0521818e-32
3.7526464e-34
0.00035573364
0.00036060619
0.0003518349
0.00034944393
0.00035502248
0.0003651654
0.00036978143
0.00035655418
0.00033686899
0.00032309415
0.00033123853
0.00032625177
0.00034518243
0.00035840387
0.00034964089
0.0003268521
0.0002842359
0.00020032559
0.00010851867
6.734969e-05
5.6946243e-05
4.8606425e-05
3.2889843e-05
1.5197621e-05
3.8106304e-06
4.2438902e-07
1.7364084e-08
2.1228319e-10
1.2487816e-12
1.4564227e-13
3.1298944e-14
6.2877252e-15
1.1608118e-15
1.9640838e-16
3.0498348e-17
4.3656556e-18
5.7984548e-19
7.1913999e-20
8.3485379e-21
9.0306769e-22
8.9775057e-23
8.0021768e-24
6.2074704e-25
4.0539887e-26
2.1504121e-27
8.8466979e-29
2.6370701e-30
5.0524646e-32
4.6631499e-34
0.00033913505
0.00036120576
0.00035999075
0.00034634836
0.00034159609
0.00034846808
0.00035954253
0.00036014669
0.00034112742
0.00031621099
0.00029748453
0.00033225118
0.00034874211
0.0003591238
0.00034876149
0.0003299642
0.00029869932
0.00022747272
0.00013677355
9.1259311e-05
9.204432e-05
9.3896354e-05
8.0409789e-05
5.0025629e-05
1.8400107e-05
3.2506115e-06
2.272657e-07
5.1616319e-09
3.4195999e-11
5.4219496e-13
1.064631e-13
2.2380489e-14
4.3826786e-15
7.9574927e-16
1.3447784e-16
2.1333888e-17
3.2106504e-18
4.6191788e-19
6.3476305e-20
8.2297442e-21
9.8581114e-22
1.0634472e-22
1.0055311e-23
8.1083812e-25
5.4196764e-26
2.9088816e-27
1.2010457e-28
3.5724583e-30
6.800996e-32
6.2154611e-34
0.00033670991
0.00034565786
0.00036449381
0.00035733043
0.00033895151
0.00033218448
0.00033984947
0.00035066558
0.00034656499
0.0003209314
0.00029057331
0.00026665897
0.00035031609
0.00035769791
0.00034565002
0.00033033343
0.00030928708
0.00025134688
0.00016448407
0.00011604344
0.00012242279
0.00014442778
0.00014413885
0.00011315569
5.8223089e-05
1.5833854e-05
1.8465275e-06
7.598817e-08
9.6985589e-10
5.5884209e-12
3.4575702e-13
7.4210366e-14
1.5372274e-14
3.0024468e-15
5.5658756e-16
9.9176727e-17
1.7186684e-17
2.9041958e-18
4.7346209e-19
7.2879576e-20
1.0323706e-20
1.3136816e-21
1.4693315e-22
1.4158064e-23
1.149347e-24
7.6791258e-26
4.1017912e-27
1.6809808e-28
4.9548534e-30
9.3376415e-32
8.4400363e-34
0.00034997398
0.00033972752
0.00035087442
0.00036568633
0.00035255846
0.00032974335
0.00032072783
0.00032880273
0.00033811172
0.00032834017
0.00029578574
0.00026013293
0.00023140282
0.00035421545
0.00034054763
0.00032884413
0.00031686485
0.00027184067
0.00019091204
0.00014039117
0.00014891053
0.00018731274
0.00020667488
0.0001888091
0.00012705723
5.0781302e-05
9.5776509e-06
6.9321163e-07
1.7003908e-08
1.545349e-10
1.4767812e-12
2.3165777e-13
5.0549854e-14
1.0683006e-14
2.1995765e-15
4.4726972e-16
9.0361959e-17
1.7961878e-17
3.4334617e-18
6.1455e-19
1.0052303e-19
1.4730187e-20
1.90259e-21
2.1344082e-22
2.0479088e-23
1.6484979e-24
1.090273e-25
5.7610123e-27
2.3354293e-28
6.8111717e-30
1.2704553e-31
6.3653603e-36
0.0003485828
0.0003475568
0.00034133237
0.00035456093
0.00036476807
0.00034580257
0.00031834152
0.00030691833
0.00031481606
0.00032123957
0.00030514935
0.00026599652
0.0002254079
0.00018971261
0.00033372008
0.00032594162
0.00032245262
0.00028911907
0.0002157266
0.00016369208
0.00017279358
0.00021750274
0.00025665338
0.00025365979
0.00020539134
0.00011313556
3.2901343e-05
4.0423084e-06
1.8314558e-07
3.1826195e-09
2.2964729e-11
7.2528622e-13
1.5750661e-13
3.6333439e-14
8.4335385e-15
1.9817285e-15
4.6744859e-16
1.0802121e-16
2.3730963e-17
4.8288687e-18
8.9283633e-19
1.4782324e-19
2.1656193e-20
2.7771358e-21
3.0826681e-22
2.9198505e-23
2.3195006e-24
1.5146528e-25
7.9085198e-27
3.1709234e-28
9.1553648e-30
1.0477793e-33
2.2463909e-38
0.00032532334
0.00034058372
0.00034299198
0.00034190245
0.00035659478
0.0003617255
0.000336726
0.00030433414
0.00029041182
0.00029706835
0.00029972361
0.00027698181
0.00023120273
0.00018416475
0.00014046958
0.0003219873
0.00032684996
0.00030389058
0.00023869201
0.00018582298
0.00019413939
0.00024273158
0.00028815902
0.00029971724
0.00026762002
0.00018729012
7.8971042e-05
1.5626099e-05
1.2520937e-06
4.0303105e-08
5.1182465e-10
4.2071379e-12
4.7334449e-13
1.1966253e-13
3.17194e-14
8.6415868e-15
2.3546135e-15
6.2027251e-16
1.533585e-16
3.4828861e-17
7.1630712e-18
1.321035e-18
2.1660368e-19
3.1317137e-20
3.9581572e-21
4.3296292e-22
4.0399689e-23
3.1652275e-24
2.041141e-25
1.0538405e-26
4.1835275e-28
8.3680199e-32
4.0020427e-36
3.5959648e-41
0.00031720394
0.00031542021
0.00033037648
0.00033703848
0.00034167819
0.00035668829
0.00035637811
0.00032496941
0.00028748916
0.00027067813
0.00027511093
0.0002731937
0.00024280246
0.00018926614
0.00013530398
8.8539192e-05
0.00033061132
0.00031709425
0.0002598672
0.00020679648
0.00021345618
0.00026367076
0.00031342508
0.00032975507
0.00030705589
0.00024846544
0.00014147513
4.2198577e-05
5.6316456e-06
3.207945e-07
7.5107022e-09
7.3384297e-11
1.5776798e-12
3.8561953e-13
1.1737469e-13
3.6793895e-14
1.1374433e-14
3.3473983e-15
9.1508342e-16
2.2873849e-16
5.1741501e-17
1.0517699e-17
1.9102111e-18
3.0802857e-19
4.3797144e-20
5.447522e-21
5.8676823e-22
5.396113e-23
4.1733159e-24
2.6607328e-25
1.3602148e-26
4.2645729e-30
3.5639716e-34
6.5400018e-39
2.7083964e-44
0.00033348181
0.00031122957
0.00030406123
0.00031873921
0.00033087333
0.00034024709
0.00035456117
0.00034822041
0.00031037967
0.00026726627
0.00024706699
0.00024836603
0.00024055152
0.00020062084
0.00013882191
8.5215223e-05
4.5741938e-05
0.00032989687
0.00027934493
0.00022663236
0.00023103205
0.00028166384
0.00033330281
0.000352318
0.00033335564
0.00028651183
0.00020198345
8.494636e-05
1.752616e-05
1.6628352e-06
6.889691e-08
1.194979e-09
1.1647883e-11
1.2369473e-12
4.2529641e-13
1.5110469e-13
5.1994409e-14
1.6805822e-14
5.0120039e-15
1.3642915e-15
3.3654145e-16
7.4822104e-17
1.4927682e-17
2.6607209e-18
4.2135792e-19
5.8903556e-20
7.2137668e-21
7.6554657e-22
6.9473417e-23
5.3114407e-24
3.3531534e-25
1.5511682e-28
2.0532285e-32
6.3358347e-37
4.5515406e-42
1.1062436e-47
0.00034161493
0.00033464167
0.00030386583
0.00029141336
0.00030649969
0.00032300218
0.00033690236
0.00034962355
0.00033727553
0.00029221552
0.00024321517
0.00021937822
0.00021674577
0.0001999715
0.00014848022
8.7732876e-05
4.3673821e-05
1.8415763e-05
0.00029763973
0.00024537451
0.00024694544
0.00029705286
0.00034985922
0.00036885731
0.00035099918
0.0003118134
0.00024861499
0.00013590794
4.0113053e-05
5.9092008e-06
4.0762362e-07
1.2496484e-08
1.6857642e-10
4.5375476e-12
1.4962978e-12
5.9182176e-13
2.2294728e-13
7.8111457e-14
2.5157811e-14
7.396741e-15
1.9754204e-15
4.7726881e-16
1.0391686e-16
2.0318658e-17
3.5533073e-18
5.5287011e-19
7.6056658e-20
9.1805205e-21
9.6110875e-22
8.6207897e-23
6.526251e-24
4.2848112e-27
8.4941161e-31
4.1126047e-35
4.4130009e-40
1.6372613e-45
2.8556108e-51
0.00031466494
0.00035089971
0.00033360473
0.00029506693
0.00027743551
0.00029220373
0.00031325834
0.00033087657
0.00034158538
0.00032262443
0.00026996541
0.0002150429
0.00018777085
0.00017802213
0.00014931133
9.4261842e-05
4.5138465e-05
1.7278209e-05
5.4864865e-06
0.00026301251
0.00026120734
0.00030965276
0.00036337511
0.00038150692
0.00036164171
0.00032659002
0.00028019467
0.00019155083
7.2128053e-05
1.5264707e-05
1.6385055e-06
8.3738203e-08
1.9382542e-09
2.931931e-11
5.1134269e-12
2.1934106e-12
8.9295605e-13
3.3573825e-13
1.1585506e-13
3.654583e-14
1.0502256e-14
2.7406952e-15
6.4746427e-16
1.3801292e-16
2.6456885e-17
4.5432257e-18
6.9531752e-19
9.4257421e-20
1.1226736e-20
1.1614556e-21
1.0315304e-22
9.3532181e-26
2.6759557e-29
1.9491596e-33
3.0783522e-38
1.4207087e-43
3.8705422e-49
5.0807798e-55
0.00027944359
0.0003299126
0.00035707602
0.00033052185
0.00028463098
0.00026191122
0.00027599539
0.00030083785
0.00032152216
0.00032969812
0.00030356735
0.00024238957
0.00018223429
0.00015019386
0.00013120154
9.4832197e-05
4.9043227e-05
1.7826313e-05
5.0036395e-06
1.1675014e-06
0.00027357516
0.00031923098
0.0003731636
0.00039045455
0.00036708093
0.00033302057
0.00029869851
0.00023524408
0.00012014295
3.0662048e-05
4.7407529e-06
3.7789816e-07
1.4569508e-08
2.8178537e-10
1.801325e-11
7.6675274e-12
3.3379096e-12
1.3363384e-12
4.9079701e-13
1.6512005e-13
5.0775099e-14
1.4233704e-14
3.6275713e-15
8.3816208e-16
1.7503647e-16
3.2931371e-17
5.5599929e-18
8.3820255e-19
1.1215481e-19
1.3199215e-20
1.3519475e-21
1.6586378e-24
6.6696388e-28
7.0898365e-32
1.6357566e-36
9.5611299e-42
2.8997251e-47
6.6681997e-53
6.6225145e-59
0.0002842386
0.0002944857
0.00034257466
0.0003603888
0.00032526661
0.00027253218
0.00024462773
0.00025720248
0.00028509291
0.00030812318
0.0003132347
0.00027875002
0.00020845309
0.00014336739
0.00010707192
8.1883717e-05
4.9398618e-05
1.9628904e-05
5.1265598e-06
1.0261658e-06
1.7677485e-07
0.0003253207
0.00037824555
0.00039496584
0.00036753082
0.00033264888
0.00030720337
0.00026678053
0.00016959285
6.0842097e-05
1.0536752e-05
1.2157736e-06
7.3372011e-08
2.2282485e-09
7.7653992e-11
2.5415916e-11
1.1674441e-11
4.9402756e-12
1.9197102e-12
6.8498673e-13
2.2419173e-13
6.7158566e-14
1.8366774e-14
4.5740237e-15
1.0345635e-15
2.1191062e-16
3.9182064e-17
6.5141341e-18
9.6895581e-19
1.2816795e-19
1.4931478e-20
2.438734e-23
1.3509398e-26
2.0479219e-30
6.8183212e-35
5.2767813e-40
1.6956956e-45
4.5314386e-51
8.68396e-57
6.6568269e-63
0.00032811649
0.00029325447
0.00030830406
0.00035243237
0.00036090303
0.00031789138
0.00025850724
0.00022531032
0.0002355692
0.0002655362
0.0002902693
0.00029154357
0.00024597913
0.00016592714
9.9962446e-05
6.4387077e-05
4.1516117e-05
1.9932097e-05
5.7295886e-06
1.037188e-06
1.4830937e-07
1.9239077e-08
0.00037774551
0.00039346812
0.00036256395
0.0003263732
0.00030824499
0.00028668933
0.00021578891
9.9249817e-05
2.5181967e-05
2.9637058e-06
2.6109877e-07
1.2332072e-08
4.1981651e-10
8.1995868e-11
3.8527123e-11
1.7079866e-11
6.9648326e-12
2.6208363e-12
9.0812695e-13
2.891979e-13
8.4435338e-14
2.254481e-14
5.4917003e-15
1.2173926e-15
2.4491932e-16
4.4575541e-17
7.3102097e-18
1.0748837e-18
1.407789e-19
3.0200743e-22
2.268195e-25
4.8161935e-29
2.2831908e-33
2.3956767e-38
8.7012123e-44
2.2603006e-49
5.6760316e-55
8.8201911e-61
6.0645814e-67
0.0003715142
0.00032760528
0.00030125415
0.00032072285
0.0003594186
0.00035864445
0.00030806246
0.00024228062
0.00020376642
0.00021097747
0.00024175981
0.00026707843
0.00026176159
0.00020059006
0.00011668101
5.8464868e-05
3.1022641e-05
1.6317137e-05
5.8859758e-06
1.1775878e-06
1.4688446e-07
1.5436223e-08
1.5336369e-09
0.0003850596
0.0003517395
0.00031490821
0.00030348351
0.00029837291
0.00025317944
0.00014400184
4.7549198e-05
8.5965701e-06
6.9662208e-07
4.9163572e-08
2.3117047e-09
2.844834e-10
1.2231065e-10
5.602196e-11
2.3733412e-11
9.3037757e-12
3.3908512e-12
1.1419106e-12
3.5410623e-13
1.0085177e-13
2.6317138e-14
6.2779346e-15
1.365882e-15
2.7032609e-16
4.8513509e-17
7.8633031e-18
1.1453387e-18
3.1896882e-21
3.2051219e-24
9.3961463e-28
6.2666802e-32
8.9785144e-37
3.9465014e-42
9.8783723e-48
2.5557234e-53
5.7288152e-59
8.1537689e-65
5.3769701e-71
0.00036940914
0.00035992854
0.00032523931
0.000308615
0.00033123372
0.00036332108
0.00035347779
0.0002954792
0.00022348798
0.00017989955
0.00018348844
0.00021299318
0.00023788212
0.00021818466
0.00014499049
6.8529992e-05
2.6950138e-05
1.1431718e-05
4.7113134e-06
1.2249655e-06
1.6896934e-07
1.471212e-08
1.1847132e-09
9.1630176e-11
0.00033523253
0.00029906107
0.00029445226
0.00030430605
0.00028245632
0.00019071417
7.8264175e-05
1.8801876e-05
2.4713192e-06
1.5696003e-07
1.345239e-08
1.6636607e-09
4.4191559e-10
1.8030333e-10
7.7523713e-11
3.1248674e-11
1.1757682e-11
4.1546299e-12
1.3612288e-12
4.1142968e-13
1.1442158e-13
2.9215436e-14
6.8345623e-15
1.461735e-15
2.8509403e-16
5.0547601e-17
8.1145868e-18
2.9028208e-20
3.858087e-23
1.5429053e-26
1.4330827e-30
2.8044416e-35
1.549584e-40
4.0569943e-46
9.4644099e-52
2.4719759e-57
5.3411719e-63
7.3394841e-69
4.6391801e-75
0.0003135777
0.00034751331
0.00034513541
0.00032211105
0.00031493561
0.00033922084
0.00036401721
0.00034506435
0.00027981453
0.00020173799
0.00015397235
0.00015351622
0.00018307669
0.00019754551
0.00016093268
8.7692406e-05
3.1433113e-05
9.2780391e-06
3.0757918e-06
9.6317023e-07
1.7725041e-07
1.688624e-08
1.0773069e-09
6.8735479e-11
4.1543784e-12
0.00027979489
0.00028240106
0.00030653142
0.00030639228
0.00023607403
0.00011675449
3.5092226e-05
6.3005255e-06
7.1165064e-07
9.4006185e-08
2.0185204e-08
3.8462223e-09
8.1041987e-10
2.5893656e-10
1.0078642e-10
3.8589579e-11
1.4020878e-11
4.8200544e-12
1.5380709e-12
4.5356152e-13
1.2331502e-13
3.0850146e-14
7.0885538e-15
1.4929456e-15
2.8750912e-16
5.0467644e-17
2.2961915e-19
3.9950381e-22
2.1569259e-25
2.7663826e-29
7.3845544e-34
5.2124841e-39
1.5463741e-44
3.2668183e-50
8.2494934e-56
2.2875771e-61
4.872465e-67
6.4232866e-73
3.8980898e-79
0.00025824252
0.00028775643
0.00032243517
0.00032911454
0.00031837401
0.00031961934
0.00034403772
0.00036101709
0.00033337151
0.00026023441
0.00017708599
0.00012665982
0.00012452177
0.00014610097
0.00014546677
0.00010017085