/*--------------------------------*- C++ -*----------------------------------*\
| =========                 |                                                 |
| \\      /  F ield         | OpenFOAM: The Open Source CFD Toolbox           |
|  \\    /   O peration     | Version:  5.0                                   |
|   \\  /    A nd           | Web:      www.OpenFOAM.org                      |
|    \\/     M anipulation  |                                                 |
\*---------------------------------------------------------------------------*/
FoamFile
{
    version     2.0;
    format      ascii;
    class       volScalarField;
    location    "300";
    object      nuTilda_0;
}
// * * * * * * * * * * * * * * * * * * * * * * * * * * * * * * * * * * * * * //

dimensions      [0 2 -1 0 0 0 0];

internalField   nonuniform List<scalar> 
9520
(
4.8298779e-33
5.1270864e-31
4.675272e-33
2.6629842e-29
4.9646107e-31
4.5210324e-33
8.9883134e-28
2.5790401e-29
4.8017798e-31
4.3754865e-33
2.2193375e-26
8.7062463e-28
2.4947355e-29
4.6488124e-31
4.2487473e-33
4.2844941e-25
2.1499587e-26
8.4231259e-28
2.4160092e-29
4.5179158e-31
4.1459335e-33
6.7595016e-24
4.1508181e-25
2.080537e-26
8.1604808e-28
2.3497125e-29
4.4144361e-31
4.0639831e-33
8.9790255e-23
6.5490805e-24
4.0176871e-25
2.0166019e-26
7.9421626e-28
2.2983262e-29
4.3324382e-31
3.9912485e-33
1.023157e-21
8.7016809e-23
6.3406471e-24
3.896068e-25
1.963971e-26
7.7749624e-28
2.257284e-29
4.2555469e-31
3.9097733e-33
1.0146882e-20
9.9201929e-22
8.4284193e-23
6.1518665e-24
3.7966847e-25
1.9237951e-26
7.638616e-28
2.2162129e-29
4.1621942e-31
3.8022513e-33
8.8758655e-20
9.8450105e-21
9.6146885e-22
8.1829146e-23
5.9984544e-24
3.720462e-25
1.8899389e-26
7.4929435e-28
2.1630747e-29
4.0355756e-31
3.6614177e-33
7.0408177e-19
8.616243e-20
9.5496736e-21
9.3413995e-22
7.9842112e-23
5.879477e-24
3.6533937e-25
1.8515342e-26
7.2960143e-28
2.0905243e-29
3.8738218e-31
3.4980158e-33
5.9216376e-18
6.8078948e-19
8.3639592e-20
9.2842491e-21
9.1203622e-22
7.8278943e-23
5.7693891e-24
3.573213e-25
1.7983201e-26
7.028948e-28
2.0009448e-29
3.6961294e-31
3.341789e-33
9.4759761e-17
5.533011e-18
6.5902362e-19
8.1320454e-20
9.0684659e-21
8.9440293e-22
7.6755776e-23
5.6316452e-24
3.4610757e-25
1.7273568e-26
6.7114999e-28
1.9080793e-29
3.5398841e-31
3.2326013e-33
3.2075397e-15
8.2388696e-17
5.1977241e-18
6.3817646e-19
7.9410226e-20
8.8950559e-21
8.7642197e-22
7.4771104e-23
5.4390712e-24
3.3152393e-25
1.6463333e-26
6.4015847e-28
1.8335141e-29
3.4475781e-31
3.2037046e-33
1.1611812e-13
2.8293828e-15
7.0513724e-17
4.852014e-18
6.2091328e-19
7.7899318e-20
8.7127719e-21
8.521314e-22
7.2005223e-23
5.1961376e-24
3.1557809e-25
1.571949e-26
6.1765399e-28
1.7983386e-29
3.4476995e-31
3.2643727e-33
3.4707144e-12
1.079414e-13
2.3376017e-15
5.6119835e-17
4.5647024e-18
6.0822743e-19
7.6307758e-20
8.4575596e-21
8.1833742e-22
6.8623615e-23
4.9427263e-24
3.0185123e-25
1.5236749e-26
6.1009236e-28
1.8130108e-29
3.5382271e-31
3.3907836e-33
8.0812268e-11
3.3808726e-12
9.0400849e-14
1.6349336e-15
4.3782707e-17
4.3841588e-18
5.9584105e-19
7.3985797e-20
8.1005618e-21
7.7821018e-22
6.52665e-23
4.7394803e-24
2.9402131e-25
1.5151021e-26
6.1933546e-28
1.8701617e-29
3.6814953e-31
3.5303611e-33
1.4287651e-09
8.1540566e-11
2.8714413e-12
6.1613427e-14
1.028876e-15
3.6826308e-17
4.2624601e-18
5.7718218e-19
7.0675729e-20
7.687033e-21
7.40345e-22
6.2778942e-23
4.6407977e-24
2.9413175e-25
1.5464054e-26
6.4081897e-28
1.9444264e-29
3.8139372e-31
3.6181519e-33
1.8710412e-08
1.4766535e-09
7.0013674e-11
1.9448823e-12
3.722631e-14
7.2287086e-16
3.3906888e-17
4.1115943e-18
5.496428e-19
6.6906493e-20
7.3167119e-21
7.1466102e-22
6.1809556e-23
4.6678105e-24
3.0133521e-25
1.6015629e-26
6.643458e-28
2.0000823e-29
3.86691e-31
3.5984996e-33
1.7791543e-07
1.9583147e-08
1.2777753e-09
4.7402721e-11
1.1924773e-12
2.6913673e-14
6.4261677e-16
3.1988899e-17
3.8859302e-18
5.1854214e-19
6.370723e-20
7.0899306e-21
7.0743178e-22
6.247191e-23
4.7928183e-24
3.11728e-25
1.6523912e-26
6.7741726e-28
2.0033349e-29
3.7901232e-31
3.4438715e-33
1.199523e-06
1.8637386e-07
1.7145211e-08
8.7308806e-10
3.0027672e-11
9.5561852e-13
2.6813318e-14
6.1377771e-16
2.8859996e-17
3.6317106e-18
4.9354966e-19
6.1974721e-20
7.0552993e-21
7.1788023e-22
6.420638e-23
4.9430475e-24
3.1950807e-25
1.668248e-26
6.6972685e-28
1.9340995e-29
3.5691297e-31
3.1646967e-33
5.7132213e-06
1.2473913e-06
1.6468242e-07
1.2080898e-08
5.8227848e-10
2.6882458e-11
1.0798532e-12
2.7749256e-14
4.9021715e-16
2.508849e-17
3.4393367e-18
4.8191926e-19
6.1993881e-20
7.1827937e-21
7.3752088e-22
6.591905e-23
5.0245295e-24
3.1905928e-25
1.6274337e-26
6.3686051e-28
1.7931686e-29
3.2314674e-31
2.8077542e-33
1.9306768e-05
5.8903519e-06
1.1174456e-06
1.2061269e-07
8.7588067e-09
5.7456869e-10
3.3452678e-11
1.1867835e-12
2.1452149e-14
3.1021112e-16
2.2456766e-17
3.3642065e-18
4.8461589e-19
6.3288519e-20
7.3677997e-21
7.5276822e-22
6.6367146e-23
4.9571409e-24
3.0710241e-25
1.5252862e-26
5.8193978e-28
1.6029029e-29
2.8403547e-31
2.4445144e-33
4.7918721e-05
1.9733075e-05
5.3381215e-06
8.5773853e-07
9.4788582e-08
9.093047e-09
7.5676794e-10
3.8062063e-11
9.1817851e-13
1.1083129e-14
1.8952431e-16
2.1477011e-17
3.4005149e-18
4.9607284e-19
6.4761513e-20
7.467445e-21
7.4999209e-22
6.4638467e-23
4.7062207e-24
2.8397836e-25
1.3761948e-26
5.1498388e-28
1.4017785e-29
2.4788475e-31
2.1537245e-33
9.2299734e-05
4.8725576e-05
1.8107064e-05
4.285634e-06
7.1961897e-07
1.0194863e-07
1.2133863e-08
8.7274426e-10
2.9398654e-11
4.507109e-13
4.3114363e-15
1.4190555e-16
2.1665516e-17
3.4919456e-18
5.0617393e-19
6.5112132e-20
7.3564068e-21
7.2093487e-22
6.0523455e-23
4.2972255e-24
2.536303e-25
1.2100158e-26
4.504023e-28
1.2348477e-29
2.2298596e-31
2.0035422e-33
0.00014647077
9.3589314e-05
4.5311071e-05
1.5172218e-05
3.7917284e-06
7.9165968e-07
1.3477246e-07
1.3963557e-08
6.7213626e-10
1.4092251e-11
1.5446066e-13
1.7336975e-15
1.31229e-16
2.2298192e-17
3.5532627e-18
5.0443162e-19
6.337072e-20
6.9779889e-21
6.6620488e-22
5.4624117e-23
3.8089073e-24
2.2256617e-25
1.0645386e-26
4.0345939e-28
1.1430568e-29
2.1576897e-31
2.0375037e-33
0.00019862313
0.00014827803
8.8218056e-05
3.9285688e-05
1.3980319e-05
4.2328975e-06
1.0245548e-06
1.5321116e-07
1.0741255e-08
3.2065453e-10
4.6415114e-12
4.8059917e-14
1.0405597e-15
1.326883e-16
2.2630621e-17
3.5075221e-18
4.8456989e-19
5.9300581e-20
6.369079e-21
5.9545169e-22
4.8178059e-23
3.3521331e-24
1.9821887e-25
9.7627509e-27
3.8670818e-28
1.1541707e-29
2.29493e-31
2.2665177e-33
0.00024165001
0.00019950187
0.00014035485
7.8279559e-05
3.717644e-05
1.5702705e-05
5.3334128e-06
1.1445935e-06
1.1807707e-07
5.1992685e-09
1.0875258e-10
1.4368848e-12
2.2177993e-14
9.4414975e-16
1.3394643e-16
2.2112295e-17
3.3218577e-18
4.4711154e-19
5.3504529e-20
5.6503781e-21
5.2447608e-22
4.2723885e-23
3.0420876e-24
1.8714544e-25
9.719741e-27
4.0721128e-28
1.2770258e-29
2.6363271e-31
2.667163e-33
0.00027777793
0.00024171735
0.0001890154
0.00012615881
7.4967371e-05
4.1689915e-05
1.924116e-05
5.8285818e-06
8.8737323e-07
5.8904219e-08
1.9084166e-09
3.7975553e-11
8.1188824e-13
2.1489313e-14
9.6001393e-16
1.2904294e-16
2.061261e-17
3.0197385e-18
3.9904261e-19
4.7229218e-20
4.9901445e-21
4.7098972e-22
3.9718967e-23
2.9704278e-24
1.9349567e-25
1.0626141e-26
4.6500207e-28
1.4996638e-29
3.1394928e-31
3.1855459e-33
0.00030849481
0.00027677829
0.00022953484
0.00017247053
0.00012146129
8.3447737e-05
4.9695902e-05
2.0556214e-05
4.5612012e-06
4.6309966e-07
2.3760365e-08
7.7845612e-10
2.7131699e-11
1.0215091e-12
2.5132739e-14
8.7895951e-16
1.1751066e-16
1.8432726e-17
2.6672364e-18
3.5134291e-19
4.1995943e-20
4.5599302e-21
4.5026505e-22
4.0187599e-23
3.1834652e-24
2.1803909e-25
1.2407047e-26
5.5291161e-28
1.7911567e-29
3.7316181e-31
3.7458158e-33
0.00033436098
0.00030610484
0.00026324474
0.0002116924
0.00016785262
0.00013392141
9.709975e-05
5.2060126e-05
1.6314769e-05
2.5171719e-06
2.0659539e-07
1.14681e-08
6.712094e-10
3.9808633e-11
1.3223523e-12
2.1310417e-14
7.0307653e-16
1.027428e-16
1.6112532e-17
2.348313e-18
3.1584147e-19
3.921544e-20
4.4931199e-21
4.7142838e-22
4.4468898e-23
3.670303e-24
2.5787374e-25
1.4811034e-26
6.5770801e-28
2.1066522e-29
4.3212772e-31
4.2624068e-33
0.00035453202
0.00033026309
0.00029183056
0.00024466635
0.00020770244
0.00018371175
0.00015299625
0.000100316
4.212904e-05
9.5980356e-06
1.2506919e-06
1.1876932e-07
1.1570348e-08
1.0639463e-09
5.3492977e-11
1.1238933e-12
1.1365133e-14
5.4841428e-16
8.8709077e-17
1.4218288e-17
2.1425136e-18
3.024191e-19
3.9855542e-20
4.8520135e-21
5.3506316e-22
5.2108761e-23
4.3625594e-24
3.0684934e-25
1.7452048e-26
7.6236011e-28
2.3949586e-29
4.814026e-31
4.6544657e-33
0.0003693272
0.00034898788
0.00031518008
0.00027339238
0.00024098369
0.00022535393
0.00020639145
0.00015693177
8.3167282e-05
2.6525622e-05
5.3457764e-06
8.5470227e-07
1.3539855e-07
1.8893728e-08
1.4461536e-09
4.5943081e-11
5.3684036e-13
4.6357434e-15
4.5178577e-16
7.8590463e-17
1.3211865e-17
2.1084844e-18
3.1677593e-19
4.4193487e-20
5.6091883e-21
6.3257284e-22
6.1914569e-23
5.1459111e-24
3.5665013e-25
1.9878591e-26
8.4908514e-28
2.6077673e-29
5.1292413e-31
4.8599574e-33
0.0003794352
0.00036257234
0.00033356714
0.00029738644
0.00026997401
0.00025890575
0.00024854951
0.00020900565
0.0001325592
5.5930648e-05
1.6553042e-05
4.2788317e-06
1.0653178e-06
2.2083569e-07
2.5573403e-08
1.2515236e-09
2.2043461e-11
1.4630848e-13
2.4257911e-15
3.9988267e-16
7.4584221e-17
1.3380057e-17
2.2715533e-18
3.5886275e-19
5.1700136e-20
6.6476217e-21
7.4750121e-22
7.2169832e-23
5.8815514e-24
3.9837359e-25
2.1659346e-26
9.0270703e-28
2.7086969e-29
5.2147161e-31
4.8463794e-33
0.00038503965
0.00037176173
0.00034722946
0.00031684996
0.00029446398
0.00028706791
0.00028086987
0.00024914352
0.00017933626
9.4420322e-05
3.8606446e-05
1.5076079e-05
5.6492198e-06
1.6992887e-06
2.9429692e-07
2.2253806e-08
6.1346887e-10
5.9051824e-12
3.1398963e-14
1.9259234e-15
3.8806808e-16
7.7744871e-17
1.4782823e-17
2.6155083e-18
4.2237511e-19
6.1100191e-20
7.7810232e-21
8.5854815e-22
8.093367e-23
6.4312194e-24
4.2432848e-25
2.2468174e-26
9.1358558e-28
2.6799709e-29
5.0555791e-31
4.6153501e-33
0.00038680471
0.00037697906
0.0003569285
0.00033205977
0.00031457534
0.00031033568
0.00030669105
0.00027957608
0.00021744562
0.00013462152
7.0792817e-05
3.8456663e-05
2.0477012e-05
8.6870703e-06
2.2085538e-06
2.5717998e-07
1.1248342e-08
1.720402e-10
1.1287202e-12
1.1488549e-14
1.878681e-15
4.1592637e-16
8.7808227e-17
1.7217745e-17
3.0817277e-18
4.9569149e-19
7.0614618e-20
8.7859994e-21
9.4341678e-22
8.6458055e-23
6.6854925e-24
4.2940816e-25
2.2147786e-26
8.7935557e-28
2.5250448e-29
4.6748185e-31
4.1998646e-33
0.0003860597
0.00037914106
0.00036319628
0.00034370512
0.0003306182
0.00032914139
0.00032726102
0.00030365557
0.00024748688
0.00017087346
0.00010778733
7.4519105e-05
5.2417254e-05
3.0073178e-05
1.0928707e-05
1.9359995e-06
1.3513498e-07
3.394504e-09
3.6734753e-11
2.1489612e-13
8.8644117e-15
2.0615617e-15
4.7890484e-16
1.0303878e-16
2.0227044e-17
3.5791378e-18
5.6424131e-19
7.8272729e-20
9.4525047e-21
9.8448443e-22
8.7594571e-23
6.5903915e-24
4.1223965e-25
2.0734974e-26
8.0498887e-28
2.2663816e-29
4.1257428e-31
3.6552156e-33
0.00038344681
0.0003792308
0.00036707295
0.00035221919
0.00034332109
0.00034385095
0.00034328894
0.00032263856
0.00027323286
0.00020113498
0.00014372116
0.0001167872
0.00010028143
7.3239961e-05
3.6461005e-05
9.6086733e-06
1.0649222e-06
4.4487076e-08
8.1635658e-10
7.024075e-12
6.2613787e-14
9.5925408e-15
2.4156378e-15
5.6458764e-16
1.2031655e-16
2.3185026e-17
4.004308e-18
6.1328443e-19
8.2392515e-20
9.6336167e-21
9.7234154e-22
8.4013324e-23
6.1550514e-24
3.753233e-25
1.8439525e-26
7.0118231e-28
1.939314e-29
3.4787392e-31
3.0463542e-33
0.00037898486
0.00037793452
0.00036991998
0.00035851251
0.00035291583
0.00035530681
0.00035524315
0.00033722128
0.00029415527
0.00022942222
0.00017519317
0.00015741002
0.00015398148
0.00013339183
8.5627442e-05
3.2217001e-05
5.5663983e-06
3.8502796e-07
1.1941884e-08
1.7311289e-10
1.3141883e-12
4.5989922e-14
1.1406291e-14
2.8574541e-15
6.5376052e-16
1.3581553e-16
2.5450211e-17
4.2643275e-18
6.3130075e-19
8.1987931e-20
9.2765744e-21
9.076848e-22
7.6237612e-23
5.4456158e-24
3.2416411e-25
1.5585453e-26
5.8163467e-28
1.5837916e-29
2.8062264e-31
2.4352926e-33
0.00037613727
0.000376573
0.00037226042
0.00036371236
0.00035988505
0.00036354989
0.00036384812
0.0003477804
0.00031114717
0.00025399442
0.00020315754
0.00019237946
0.0002021527
0.00019597612
0.00015068777
7.6293611e-05
1.975486e-05
2.2158649e-06
1.1441408e-07
2.8169892e-09
3.442771e-11
4.3125508e-13
5.4036026e-14
1.3559301e-14
3.2766442e-15
7.2529462e-16
1.4603099e-16
2.6524966e-17
4.2909801e-18
6.132209e-19
7.69677e-20
8.431069e-21
8.0055173e-22
6.5461143e-23
4.5658543e-24
2.6579554e-25
1.2532419e-26
4.6005436e-28
1.2364907e-29
2.1700128e-31
1.8716678e-33
0.00037417764
0.00037752868
0.00037794897
0.00036784514
0.00036508305
0.0003690167
0.0003692234
0.00035494349
0.0003244566
0.00027506156
0.00022823732
0.00022061613
0.00023999408
0.00024818653
0.00021448456
0.00013543601
4.9683689e-05
8.6433732e-06
7.2426154e-07
2.9989234e-08
6.5590684e-10
1.1851132e-11
5.2728514e-13
6.7261511e-14
1.5401741e-14
3.5654889e-15
7.6234522e-16
1.4868244e-16
2.6082767e-17
4.0680169e-18
5.6117163e-19
6.8109883e-20
7.2304751e-21
6.6723037e-22
5.3217457e-23
3.6311212e-24
2.0716964e-25
9.6032259e-27
3.4772823e-28
9.252983e-30
1.6136934e-31
1.388032e-33
0.0003710285
0.00037860667
0.00037845368
0.00037847727
0.00036836072
0.00037233749
0.00037195434
0.00035911253
0.00033462661
0.00029296046
0.0002501857
0.00024419698
0.00026854058
0.00028535853
0.00026504739
0.00019379278
9.354892e-05
2.3805256e-05
3.0939348e-06
2.1241913e-07
8.6348294e-09
3.3859343e-10
1.9210221e-11
9.2317919e-13
7.769602e-14
1.6385655e-14
3.6540942e-15
7.5678988e-16
1.4282737e-16
2.4129984e-17
3.6287745e-18
4.8351007e-19
5.6808276e-20
5.853211e-21
5.2596912e-22
4.1015975e-23
2.7440188e-24
1.5388314e-25
7.0349613e-27
2.5218758e-28
6.670423e-30
1.1608143e-31
9.9990033e-34
0.00036956591
0.00037474505
0.00038102219
0.00037785639
0.00037779866
0.00037345308
0.00037245722
0.00036094412
0.00034215514
0.00030805038
0.0002692452
0.00026432477
0.00028939617
0.00031002868
0.00029800423
0.00023983445
0.00014084599
4.88161e-05
9.3382857e-06
1.0364631e-06
8.0714893e-08
6.8044377e-09
6.5699306e-10
4.0193658e-11
1.2495331e-12
7.8541308e-14
1.6283594e-14
3.5272748e-15
7.093995e-16
1.2891658e-16
2.0980414e-17
3.044421e-18
3.9227187e-19
4.4686771e-20
4.4781547e-21
3.9293827e-22
3.0057028e-23
1.9784032e-24
1.0953036e-25
4.9619678e-27
1.7706818e-28
4.6824307e-30
8.1780557e-32
7.09219e-34
0.00037227787
0.00036901569
0.00037770668
0.00038119384
0.0003757866
0.00037509015
0.00037098015
0.0003609995
0.00034772524
0.00032060162
0.00028569598
0.00028135091
0.00030627981
0.0003272487
0.00031860479
0.00027140521
0.00018205851
7.9745715e-05
2.1115067e-05
3.7014909e-06
5.5023569e-07
9.0507276e-08
1.4199089e-08
1.3663778e-09
5.7301706e-11
1.0891089e-12
7.1239051e-14
1.5205661e-14
3.2179894e-15
6.2453679e-16
1.0924787e-16
1.7141188e-17
2.4031836e-18
2.9999278e-19
3.3218501e-20
3.2486755e-21
2.7961119e-22
2.1092945e-23
1.3744676e-24
7.5687964e-26
3.4273425e-27
1.2288405e-28
3.2788118e-30
5.7954076e-32
5.0943175e-34
0.0003676915
0.00036833351
0.00036938331
0.00037916585
0.00037931571
0.00037167789
0.00036887854
0.00035982965
0.00035207491
0.000331117
0.00029979461
0.00029568631
0.00031967214
0.00034019751
0.00033321755
0.00029387047
0.00021439678
0.00011112994
3.8397736e-05
1.0254105e-05
2.7644676e-06
7.8841043e-07
1.9030133e-07
2.843347e-08
1.924062e-09
4.8683648e-11
6.1408405e-13
6.1843873e-14
1.3440574e-14
2.761275e-15
5.1576067e-16
8.693303e-17
1.3171165e-17
1.7883121e-18
2.1700441e-19
2.3467704e-20
2.2545917e-21
1.9203898e-22
1.4440387e-23
9.4357266e-25
5.244774e-26
2.4121333e-27
8.8259211e-29
2.4089237e-30
4.3546267e-32
3.9053805e-34
0.00035823662
0.00036267307
0.0003644358
0.000369554
0.00037862228
0.0003752278
0.00036404706
0.00035842094
0.00035549674
0.00034035181
0.00031188851
0.00030760467
0.00033028727
0.00034902331
0.00034292521
0.00031022511
0.00024415492
0.00013959759
5.9608299e-05
2.2963261e-05
1.0138925e-05
4.5289198e-06
1.6064087e-06
3.6226417e-07
3.9090053e-08
1.6521232e-09
2.3038883e-11
3.0291921e-13
5.2258815e-14
1.1216627e-14
2.2216194e-15
3.9980973e-16
6.5070867e-17
9.5510926e-18
1.2621032e-18
1.4997294e-19
1.6008739e-20
1.5333947e-21
1.3176063e-22
1.0099965e-23
6.7873689e-25
3.9075206e-26
1.8695284e-27
7.1173729e-29
2.0134847e-30
3.7471722e-32
3.4304414e-34
0.00035897985
0.00035560996
0.00035646783
0.00036032142
0.00036850055
0.00037576453
0.00036768186
0.00035243181
0.00034343686
0.00034837553
0.00032233429
0.00031738892
0.00033826147
0.00035506152
0.00034829609
0.00032140434
0.00026771825
0.00017338041
8.2562698e-05
4.2289823e-05
2.7215547e-05
1.7426505e-05
8.7312183e-06
2.8767643e-06
4.8326378e-07
3.3844435e-08
8.1664404e-10
6.0454895e-12
1.9756637e-13
4.2202398e-14
8.7858832e-15
1.6781054e-15
2.9185855e-16
4.6093945e-17
6.6060051e-18
8.5990031e-19
1.0186384e-19
1.1004056e-20
1.0853578e-21
9.7631959e-23
7.9190468e-24
5.6624512e-25
3.4667395e-26
1.7539525e-27
6.9921561e-29
2.0470157e-30
3.8949162e-32
3.6037315e-34
0.00035607661
0.00036018219
0.00035154885
0.00034967692
0.00035533435
0.00036551993
0.00036983112
0.00035620883
0.00033666002
0.00032318442
0.0003314593
0.0003253416
0.00034396825
0.00035820138
0.0003503368
0.00032797013
0.00028626963
0.0002036036
0.00011019313
6.6389135e-05
5.4852055e-05
4.6462677e-05
3.1360974e-05
1.4576287e-05
3.7039639e-06
4.2078199e-07
1.7678253e-08
2.2350625e-10
1.3076996e-12
1.4907442e-13
3.2114888e-14
6.4688189e-15
1.1968245e-15
2.0275226e-16
3.1474881e-17
4.4941096e-18
5.9363822e-19
7.29795e-20
8.3743013e-21
8.9412071e-22
8.7778773e-23
7.7406418e-24
5.9529845e-25
3.8626225e-26
2.0395132e-27
8.3648822e-29
2.4888764e-30
4.7645148e-32
4.3975341e-34
0.00033947071
0.0003614319
0.00035942456
0.00034596518
0.0003418213
0.00034890651
0.0003599467
0.0003601434
0.0003407496
0.00031601884
0.00029759655
0.00033151401
0.00034771985
0.00035911474
0.00034952376
0.00033086354
0.00030027528
0.0002305371
0.00013870678
9.0167527e-05
8.9061557e-05
9.0475209e-05
7.7490513e-05
4.845595e-05
1.80253e-05
3.2402716e-06
2.3201366e-07
5.4315125e-09
3.657602e-11
5.5945326e-13
1.0943076e-13
2.3051087e-14
4.5198121e-15
8.2045673e-16
1.3828542e-16
2.1805795e-17
3.2491517e-18
4.6125845e-19
6.2446315e-20
7.9822681e-21
9.4507596e-22
1.010819e-22
9.5016596e-24
7.6314416e-25
5.0878488e-26
2.7264799e-27
1.1247105e-28
3.3439089e-30
6.3653014e-32
5.8185986e-34
0.00033616098
0.00034611158
0.00036458761
0.00035663429
0.00033848729
0.00033241078
0.00034041326
0.00035110199
0.00034651151
0.00032053109
0.00029039957
0.00026678633
0.00034949283
0.00035788549
0.00034646829
0.00033098934
0.00031040513
0.00025409521
0.00016659801
0.00011498513
0.00011880951
0.00014010198
0.00014014766
0.0001105762
5.7433173e-05
1.5854462e-05
1.8887278e-06
7.9866979e-08
1.0373515e-09
5.9501269e-12
3.5632992e-13
7.649487e-14
1.5843118e-14
3.0865735e-15
5.6868467e-16
1.002707e-16
1.7127106e-17
2.847651e-18
4.5729415e-19
6.9553152e-20
9.7704131e-21
1.2367344e-21
1.37904e-22
1.3265486e-23
1.0758783e-24
7.1850271e-26
3.8371704e-27
1.5724553e-28
4.6349817e-30
8.7350551e-32
7.8958049e-34
0.00034936665
0.00033938783
0.00035136928
0.00036564172
0.00035173845
0.00032920741
0.00032095876
0.00032947213
0.00033856693
0.00032823623
0.0002953704
0.00025996984
0.00023152663
0.0003545968
0.0003414035
0.00032923006
0.00031754226
0.0002741971
0.00019314339
0.00013946479
0.00014509732
0.00018236392
0.00020237191
0.00018581909
0.00012601445
5.1013321e-05
9.8059552e-06
7.2734073e-07
1.8141633e-08
1.6613038e-10
1.5467549e-12
2.3890815e-13
5.2001538e-14
1.0925386e-14
2.2258503e-15
4.4586699e-16
8.8547747e-17
1.7324421e-17
3.2714048e-18
5.8080448e-19
9.4551007e-20
1.3821072e-20
1.7833598e-21
2.000238e-22
1.9194365e-23
1.5454872e-24
1.0224469e-25
5.4039604e-27
2.1910217e-28
6.390232e-30
1.1918323e-31
5.9433867e-36
0.00034915474
0.00034719217
0.00034122592
0.00035506122
0.00036457965
0.00034486585
0.00031774255
0.00030717034
0.00031555138
0.00032170695
0.00030499574
0.00026556866
0.00022526296
0.00018983602
0.00033458922
0.00032604172
0.00032270432
0.00029104869
0.00021800941
0.00016296222
0.0001689524
0.00021248907
0.00025248739
0.00025101215
0.00020452009
0.00011384553
3.3679359e-05
4.2311069e-06
1.9483646e-07
3.418809e-09
2.4718646e-11
7.5029244e-13
1.6148675e-13
3.6869555e-14
8.4287512e-15
1.9454085e-15
4.5124092e-16
1.0295349e-16
2.243413e-17
4.5446243e-18
8.3858464e-19
1.3876561e-19
2.0334778e-20
2.6094465e-21
2.898915e-22
2.7477346e-23
2.1841049e-24
1.4269076e-25
7.4526053e-27
2.9884637e-28
8.6278653e-30
9.780401e-34
2.1067583e-38
0.00032616618
0.0003413285
0.00034290892
0.00034204344
0.00035707716
0.00036139792
0.00033567774
0.00030368184
0.00029069589
0.00029786083
0.00030019443
0.00027678542
0.00023079272
0.0001840486
0.00014059164
0.00032178324
0.00032667634
0.0003054003
0.00024096542
0.00018532604
0.00019038805
0.00023773477
0.00028419124
0.00029767734
0.000267216
0.00018853335
8.0718721e-05
1.6305815e-05
1.3278717e-06
4.3218826e-08
5.5321221e-10
4.4684173e-12
4.8311069e-13
1.2019562e-13
3.1265554e-14
8.3651783e-15
2.2480864e-15
5.8713567e-16
1.4452023e-16
3.2764017e-17
6.7370273e-18
1.243252e-18
2.0406425e-19
2.9539778e-20
3.7380231e-21
4.0932427e-22
3.8225961e-23
2.9968579e-24
1.9334107e-25
9.9843503e-27
3.9635325e-28
7.8366173e-32
3.7256014e-36
3.4396349e-41
0.00031668513
0.00031615275
0.00033125759
0.00033724899
0.00034205062
0.0003571336
0.00035591175
0.00032381614
0.00028679027
0.00027100738
0.00027595557
0.00027366796
0.00024258488
0.00018888999
0.00013523432
8.8622997e-05
0.00032999622
0.00031822408
0.00026207294
0.0002065515
0.00020986119
0.00025878421
0.00030964521
0.00032808525
0.00030719717
0.00024999663
0.00014420689
4.3867151e-05
5.9528886e-06
3.4335429e-07
8.1147205e-09
7.9567072e-11
1.6167599e-12
3.8283782e-13
1.1417286e-13
3.5234987e-14
1.0788193e-14
3.1597017e-15
8.6230651e-16
2.1555516e-16
4.8805256e-17
9.9343485e-18
1.807032e-18
2.9184381e-19
4.1557173e-20
5.1757866e-21
5.5809583e-22
5.1365652e-23
3.9748552e-24
2.5350356e-25
1.2960595e-26
4.0130482e-30
3.3179211e-34
6.1251107e-39
2.6828927e-44
0.0003324372
0.00031040383
0.00030466255
0.00031973968
0.00033133602
0.00034084293
0.00035496462
0.00034762271
0.00030912295
0.00026653216
0.00024744007
0.00024925329
0.00024100475
0.0002003853
0.00013852655
8.5161619e-05
4.5794422e-05
0.00033065715
0.0002814466
0.00022665328
0.00022764662
0.00027691839
0.00032969471
0.00035105181
0.00033388284
0.00028805317
0.00020512967
8.7922297e-05
1.8460308e-05
1.776275e-06
7.4377281e-08
1.2995335e-09
1.2412584e-11
1.215575e-12
4.0917812e-13
1.4368535e-13
4.9165085e-14
1.5862021e-14
4.7314369e-15
1.2894761e-15
3.1861815e-16
7.0967809e-17
1.4185094e-17
2.5329312e-18
4.0179827e-19
5.6254649e-20
6.8984437e-21
7.3278539e-22
6.6547449e-23
5.0900294e-24
3.2139683e-25
1.4677498e-28
1.9182681e-32
5.8848973e-37
4.3644512e-42
1.129936e-47
0.00034201324
0.00033321371
0.00030273522
0.00029187746
0.00030769834
0.00032376135
0.00033766941
0.00034998417
0.00033655315
0.00029086185
0.00024245749
0.00021978804
0.00021763393
0.00020037254
0.00014824735
8.7526926e-05
4.3639844e-05
1.8443185e-05
0.00029966963
0.00024566383
0.00024382413
0.00029248347
0.0003465137
0.00036803288
0.00035195714
0.00031339291
0.00025125923
0.00013997186
4.2094553e-05
6.2981035e-06
4.396723e-07
1.3595126e-08
1.8360005e-10
4.5027934e-12
1.4282814e-12
5.605932e-13
2.1069282e-13
7.3837918e-14
2.3816395e-14
7.0162769e-15
1.8778882e-15
4.5470089e-16
9.9213353e-17
1.9438003e-17
3.4056649e-18
5.3079604e-19
7.3128167e-20
8.8376193e-21
9.2599745e-22
8.3106604e-23
6.2933613e-24
4.0782095e-27
7.976127e-31
3.8188482e-35
4.1356999e-40
1.6266835e-45
2.9645152e-51
0.00031663452
0.00035094041
0.00033183809
0.00029364887
0.00027777646
0.00029356759
0.00031432121
0.00033181356
0.0003419204
0.00032178527
0.00026852957
0.00021429108
0.0001882176
0.00017886489
0.00014961433
9.4107768e-05
4.5014636e-05
1.7264357e-05
5.4974961e-06
0.00026355898
0.00025842531
0.00030531933
0.00036030667
0.00038118081
0.00036314401
0.00032832325
0.00028234922
0.00019551784
7.5395766e-05
1.6227513e-05
1.7653824e-06
9.1111193e-08
2.1208476e-09
3.0703779e-11
4.8642985e-12
2.0743818e-12
8.4464002e-13
3.1813933e-13
1.1004334e-13
3.4801315e-14
1.0026537e-14
2.6230487e-15
6.2113516e-16
1.3269273e-16
2.548889e-17
4.3851408e-18
6.7222886e-19
9.1255191e-20
1.0880505e-20
1.1264429e-21
1.0008605e-22
8.9563649e-26
2.5272637e-29
1.8163694e-33
2.8569004e-38
1.3663566e-43
3.9592798e-49
5.3042795e-55
0.00028023864
0.00033177827
0.00035677422
0.0003284492
0.00028294581
0.00026213492
0.00027751914
0.00030220861
0.00032263784
0.00033002331
0.00030262466
0.00024091212
0.00018153532
0.0001506455
0.0001319215
9.5047442e-05
4.8942945e-05
1.7768101e-05
5.0003046e-06
1.1705504e-06
0.00027121191
0.00031521583
0.00037040692
0.00039069594
0.00036924333
0.00033493462
0.00030037795
0.00023861752
0.00012450693
3.2501974e-05
5.1001743e-06
4.1113947e-07
1.5967208e-08
3.0573411e-10
1.731759e-11
7.2499325e-12
3.162657e-12
1.269892e-12
4.6783284e-13
1.5786949e-13
4.8685895e-14
1.368551e-14
3.4968843e-15
8.0991709e-16
1.6951335e-16
3.1956591e-17
5.4051601e-18
8.1613787e-19
1.0934354e-19
1.2879472e-20
1.319938e-21
1.5981427e-24
6.3375449e-28
6.6413753e-32
1.5165917e-36
8.9758235e-42
2.8883818e-47
6.9255854e-53
6.9161232e-59
0.00028233129
0.00029553962
0.00034425276
0.00035976342
0.00032291163
0.00027059746
0.00024473504
0.00025886363
0.000286764
0.00030941871
0.00031354405
0.00027767983
0.00020696889
0.00014277475
0.00010747562
8.2403359e-05
4.9527656e-05
1.9574547e-05
5.1067842e-06
1.0258562e-06
1.7735826e-07
0.00032172177
0.00037587161
0.00039582854
0.00037035602
0.00033479981
0.00030848144
0.00026921074
0.00017434384
6.3922131e-05
1.1316597e-05
1.322124e-06
8.0483926e-08
2.4443581e-09
7.7764176e-11
2.4048926e-11
1.1080545e-11
4.7084221e-12
1.8364403e-12
6.5753378e-13
2.1589737e-13
6.4868203e-14
1.7790317e-14
4.4420896e-15
1.0071564e-15
2.0675064e-16
3.830312e-17
6.3789637e-18
9.5023663e-19
1.2583116e-19
1.4669604e-20
2.3646537e-23
1.2917911e-26
1.9298526e-30
6.3427368e-35
4.8996221e-40
1.6353207e-45
4.6413179e-51
9.0659179e-57
6.9385211e-63
0.00032503866
0.00029185292
0.00030954818
0.00035385845
0.00035996264
0.00031527875
0.00025634888
0.00022528088
0.00023732973
0.00026748264
0.00029173895
0.00029183521
0.00024479412
0.00016456894
9.9520424e-05
6.4683372e-05
4.1830465e-05
1.9985223e-05
5.7083574e-06
1.0325882e-06
1.4835857e-07
1.9310003e-08
0.00037583277
0.00039496509
0.0003660746
0.00032875385
0.00030912913
0.00028813298
0.00022011834
0.00010347496
2.6813039e-05
3.2208838e-06
2.8648015e-07
1.3567935e-08
4.3903879e-10
7.7822357e-11
3.6593711e-11
1.6312413e-11
6.6851158e-12
2.5256456e-12
8.7824273e-13
2.8059708e-13
8.2174175e-14
2.2003452e-14
5.3739385e-15
1.1941539e-15
2.4076231e-16
4.3901779e-17
7.2112839e-18
1.0617476e-18
1.3918302e-19
2.9471094e-22
2.1829286e-25
4.5673925e-29
2.1351046e-33
2.2207626e-38
8.1838144e-44
2.2566608e-49
5.8974141e-55
9.2097029e-61
6.3025175e-67
0.00037016202
0.00032514625
0.00030037978
0.00032206281
0.00036055108
0.00035740547
0.00030521643
0.00023992828
0.00020360454
0.00021279197
0.00024394284
0.00026872752
0.00026196497
0.00019938883
0.0001155653
5.8187347e-05
3.1205013e-05
1.6462069e-05
5.9002901e-06
1.1719617e-06
1.4609166e-07
1.5451156e-08
1.5394473e-09
0.00038713926
0.00035583239
0.00031743515
0.0003039262
0.00029882612
0.00025630155
0.00014904502
5.0254349e-05
9.2676299e-06
7.6331787e-07
5.3813788e-08
2.4181607e-09
2.6867864e-10
1.1587029e-10
5.3514844e-11
2.2810541e-11
8.9947517e-12
3.2927516e-12
1.1128327e-12
3.4622987e-13
9.8912052e-14
2.5884645e-14
6.1909495e-15
1.3501482e-15
2.6777131e-16
4.8141221e-17
7.8144441e-18
1.1395124e-18
3.132792e-21
3.1049844e-24
8.9695288e-28
5.89609e-32
8.3487241e-37
3.6677128e-42
9.5513515e-48
2.6207719e-53
5.9806437e-59
8.4959403e-65
5.5693117e-71
0.00037198295
0.00035921343
0.00032347479
0.00030825136
0.00033260387
0.00036413842
0.0003519455
0.00029242777
0.00022097749
0.0001796185
0.00018529622
0.00021539465
0.00023955551
0.00021822339
0.00014391014
6.7772668e-05
2.682192e-05
1.1520677e-05
4.7586469e-06
1.2274116e-06
1.6797934e-07
1.4624382e-08
1.1864956e-09
9.1955812e-11
0.00033971548
0.00030158873
0.00029437299
0.00030370844
0.00028434567
0.00019593434
8.2183021e-05
2.012868e-05
2.6864995e-06
1.6706544e-07
1.2994287e-08
1.4410762e-09
4.0164023e-10
1.7094135e-10
7.444753e-11
3.0251045e-11
1.1455091e-11
4.0660688e-12
1.336988e-12
4.0544867e-13
1.1310695e-13
2.8962088e-14
6.79286e-15
1.4561751e-15
2.8457927e-16
5.0540901e-17
8.1242657e-18
2.8696636e-20
3.7625983e-23
1.4828255e-26
1.3571756e-30
2.6213747e-35
1.4369809e-40
3.8229064e-46
9.4694591e-52
2.5692838e-57
5.5753596e-63
7.6245577e-69
4.7884886e-75
0.00031816844
0.00035047313
0.00034509857
0.00032106269
0.0003150335
0.00034059243
0.00036451994
0.00034325962
0.00027657457
0.00019911709
0.00015359124
0.0001552159
0.00018546613
0.00019906614
0.00016083626
8.6862958e-05
3.1031215e-05
9.2399303e-06
3.1069175e-06
9.7368069e-07
1.7749789e-07
1.6770472e-08
1.0710158e-09
6.8878791e-11
4.1672606e-12
0.00028219581
0.00028171251
0.00030481467
0.00030690214
0.00024084113
0.00012184886
3.7335223e-05
6.7924271e-06
7.4555072e-07
8.1872327e-08
1.6153798e-08
3.0823267e-09
7.0625177e-10
2.4471412e-10
9.7592793e-11
3.7688098e-11
1.3774017e-11
4.7549369e-12
1.5227613e-12
4.505512e-13
1.2287577e-13
3.0827279e-14
7.1013267e-15
1.4989761e-15
2.8921783e-16
5.0845491e-17
2.2848783e-19
3.9226266e-22
2.0872748e-25
2.6377366e-29
6.9453109e-34
4.8479546e-39
1.4385791e-44
3.1665305e-50
8.4686356e-56
2.3877479e-61
5.0750228e-67
6.6504951e-73
4.0094958e-79
0.00026036965
0.00029222238
0.00032569824
0.00032977086
0.00031802593
0.00032012971
0.00034536914
0.00036122017
0.00033129704
0.00025682889
0.00017441851
0.00012622393
0.00012620484
0.00014832879
0.00014665881
0.00010000957