/*--------------------------------*- C++ -*----------------------------------*\
| =========                 |                                                 |
| \\      /  F ield         | OpenFOAM: The Open Source CFD Toolbox           |
|  \\    /   O peration     | Version:  5.0                                   |
|   \\  /    A nd           | Web:      www.OpenFOAM.org                      |
|    \\/     M anipulation  |                                                 |
\*---------------------------------------------------------------------------*/
FoamFile
{
    version     2.0;
    format      ascii;
    class       volScalarField;
    location    "300";
    object      p;
}
// * * * * * * * * * * * * * * * * * * * * * * * * * * * * * * * * * * * * * //

dimensions      [0 2 -2 0 0 0 0];

internalField   nonuniform List<scalar> 
9520
(
3.8456009e-05
3.8945985e-05
-2.0831452e-05
3.9562685e-05
-1.8376184e-05
-3.8316463e-05
3.9926932e-05
-1.4202173e-05
-3.3853045e-05
-7.2492436e-05
3.9751494e-05
-9.0961343e-06
-2.6244513e-05
-6.5504801e-05
-0.00010024202
3.8767862e-05
-3.8746767e-06
-1.6974484e-05
-5.3463538e-05
-9.0459502e-05
-0.00013686316
3.6692156e-05
5.8163848e-07
-7.4369672e-06
-3.8559901e-05
-7.3570273e-05
-0.0001235579
-0.00017602656
3.3097974e-05
3.72367e-06
1.0208259e-06
-2.275588e-05
-5.2423133e-05
-0.00010055915
-0.00015911907
-0.00022334132
2.7619221e-05
5.0936361e-06
7.3411828e-06
-7.8341634e-06
-2.9635881e-05
-7.143962e-05
-0.00012943571
-0.00020261884
-0.00027779921
2.0538451e-05
4.5866041e-06
1.0763788e-05
4.5853315e-06
-7.6267993e-06
-3.9547645e-05
-9.1045809e-05
-0.00016573919
-0.0002527136
-0.00034181074
1.274496e-05
1.9859333e-06
1.1128511e-05
1.3231397e-05
1.1390883e-05
-7.8509596e-06
-4.785488e-05
-0.00011716598
-0.00020775503
-0.00031227479
-0.00041579109
3.5535027e-06
-3.8274063e-06
8.2362842e-06
1.7309503e-05
2.5588342e-05
2.0927217e-05
-3.6015665e-06
-6.0876238e-05
-0.00014787423
-0.00025893434
-0.0003818509
-0.00050043275
-8.7866894e-06
-8.8990763e-06
2.9340005e-06
1.6365174e-05
3.3693862e-05
4.4144789e-05
3.8494837e-05
-1.2273913e-06
-7.7500186e-05
-0.00018712786
-0.0003201296
-0.00046230087
-0.00059602532
-2.201453e-05
-7.0614681e-06
-3.5549304e-06
1.2464505e-05
3.459549e-05
5.8887275e-05
7.5294077e-05
5.7903419e-05
-1.1009063e-06
-0.00010180687
-0.00023618339
-0.00039250659
-0.00055407546
-0.00070259455
-3.1874079e-05
-6.6776187e-06
-6.8686197e-06
3.8254242e-06
2.4936339e-05
6.2413984e-05
0.00010379931
0.00011310475
7.7194408e-05
-7.5166428e-06
-0.00013497183
-0.00029667762
-0.00047682558
-0.00065735473
-0.00081983569
-4.5814116e-05
-1.1840656e-05
-7.5744398e-06
-1.8961514e-05
-1.530517e-06
5.1211594e-05
0.00012083851
0.00016157585
0.00015377633
9.1602716e-05
-2.1225142e-05
-0.00017972814
-0.00036987396
-0.00057357328
-0.00077199676
-0.00094714838
-4.1514584e-05
-1.6001692e-05
8.0338732e-06
-5.4741497e-05
-3.6862259e-05
2.3723195e-05
0.00012407541
0.00020163554
0.00022611389
0.00019186225
0.00010085209
-4.6264211e-05
-0.00023789241
-0.00045657276
-0.00068284636
-0.0008975738
-0.0010836551
-6.7167066e-05
-2.4354126e-05
4.0799668e-05
-7.9678769e-05
-8.0808537e-05
-1.9297854e-05
0.00011419006
0.0002336922
0.00029290084
0.00028994239
0.00022714371
9.9319172e-05
-8.5199291e-05
-0.00031048401
-0.00055698284
-0.00080452396
-0.0010333457
-0.0012282393
-5.6933401e-05
-4.1246976e-05
6.9774581e-05
-9.9453596e-05
-0.00015062993
-8.1195069e-05
8.8827002e-05
0.000257504
0.00035411689
0.00038297451
0.00035361711
0.00025229179
8.3524308e-05
-0.00013936176
-0.00039809781
-0.00067195118
-0.00093827966
-0.0011782666
-0.0013796044
-0.00011116079
-2.9938464e-05
0.00014878696
-8.3137446e-05
-0.00024609932
-0.00017341632
4.2562675e-05
0.00027289957
0.00041012638
0.0004694061
0.00047669994
0.00040809368
0.00026339186
5.2267677e-05
-0.00020993452
-0.00050259291
-0.00080156899
-0.0010831235
-0.0013310956
-0.0015363583
-8.9216512e-05
-2.9245112e-05
0.00021537043
-4.3171132e-05
-0.00035876481
-0.00030844572
-2.5505126e-05
0.00028177442
0.00046509617
0.0005484883
0.00059339111
0.00056197556
0.00044929425
0.00025970223
3.6119031e-06
-0.00029970645
-0.00062508749
-0.00094497187
-0.001237908
-0.0014904598
-0.0016970784
-0.00014730697
-4.0651738e-05
0.0004021407
1.1103865e-05
-0.00050531426
-0.00049717811
-0.00012182157
0.00028154872
0.00052615363
0.0006263018
0.00070170075
0.00070831853
0.00063561039
0.00047789496
0.00023832664
-6.6444571e-05
-0.00041103518
-0.00076481487
-0.0011010541
-0.0014013623
-0.0016549433
-0.0018602775
-0.00014303171
-7.0469909e-05
0.00057523764
9.6314697e-05
-0.00066671095
-0.0007639804
-0.00024959346
0.00027351058
0.00059470821
0.00069524972
0.0007958988
0.00084053929
0.00081591168
0.00070134889
0.00048964355
0.00019363642
-0.00016162551
-0.00054322364
-0.00092001245
-0.0012687988
-0.0015721309
-0.0018230886
-0.0020243998
-0.00017359583
-0.00012950652
0.00096448649
0.00013321421
-0.00087723204
-0.0011106871
-0.00041137156
0.00026235832
0.00067830324
0.0007716319
0.00085408716
0.0009492616
0.00098325494
0.00092416991
0.00075267484
0.00047659183
0.00012036446
-0.00028133083
-0.00069426567
-0.0010906744
-0.0014469344
-0.0017487559
-0.0019932951
-0.0021879746
-0.0001791785
-0.00015319314
0.0012601587
0.00067931128
-0.001073648
-0.0015623571
-0.0006115997
0.00024199164
0.0007902607
0.00086916034
0.0008853081
0.0010383641
0.0011299011
0.0011404205
0.0010226711
0.00077804543
0.00043131592
1.862689e-05
-0.00042383063
-0.00086503998
-0.0012756659
-0.0016339962
-0.0019295532
-0.0021639305
-0.0023496475
-0.00023826289
-0.0002679381
0.0016573625
0.00085970804
-0.0013225
-0.0020488618
-0.00089102883
0.000214793
0.00094143374
0.001001708
0.00090711428
0.0010942795
0.0012553731
0.00134475
0.0012952209
0.0010942224
0.00076725243
0.00035362533
-0.00010991557
-0.0005906071
-0.001054778
-0.0014734859
-0.0018283211
-0.0021128299
-0.0023335706
-0.0025080711
-0.00021306159
-0.0004590579
0.0019509443
0.0012202134
-0.0015668975
-0.0027709591
-0.0012871717
0.00017325923
0.0011626295
0.0011783675
0.0009309067
0.0010904126
0.0013468875
0.0015306659
0.0015666474
0.0014219763
0.0011253132
0.00072053879
0.00024518251
-0.00026749462
-0.00078142615
-0.0012620812
-0.0016825707
-0.0020282423
-0.0022970896
-0.0025008884
-0.0026620007
-6.7768715e-05
-0.00067545279
0.0025831853
0.0017904395
-0.0019013725
-0.0035553364
-0.0017992025
0.00011387343
0.0014735993
0.0014199973
0.00094862602
0.001021422
0.0013806468
0.0016891969
0.00183633
0.001761891
0.0015035195
0.0011158433
0.00063796078
0.00010265302
-0.00045438885
-0.0009951189
-0.0014854425
-0.0019013191
-0.0022319241
-0.002480618
-0.0026644786
-0.0028103532
2.9747307e-05
-0.00062757806
0.0032235642
0.0023155685
-0.0022282237
-0.0047326194
-0.0024665409
2.8085297e-05
0.0018899731
0.0017269664
0.00097532764
0.00086981461
0.0013364591
0.001806631
0.0021024292
0.0021157903
0.0019020232
0.0015360168
0.001063724
0.00051633351
-7.4310404e-05
-0.00066974581
-0.0012304547
-0.0017233718
-0.0021276193
-0.0024370171
-0.0026616576
-0.0028230938
-0.0029521593
0.00014193425
-0.00044887625
0.0035398127
0.0026997828
-0.002907422
-0.005955524
-0.0033194811
-6.0433853e-05
0.0024431337
0.0021326278
0.0010013594
0.00063221247
0.0011830692
0.0018702694
0.0023549222
0.002485879
0.0023207796
0.0019786748
0.0015174564
0.00096832142
0.00035579249
-0.00028533851
-0.00091281379
-0.0014862202
-0.0019738127
-0.0023591517
-0.0026421372
-0.0028390345
-0.0029756435
-0.0030866123
0.00014529211
-0.00019343697
0.003579499
0.0031014788
-0.0035280307
-0.0073551937
-0.0041056665
-0.00011066474
0.0031293522
0.0026332558
0.0010512616
0.00026611996
0.00089860615
0.0018592308
0.0025959356
0.002873765
0.002764171
0.0024421177
0.0019935156
0.0014515072
0.00083063927
0.00015624796
-0.00053014133
-0.0011827474
-0.0017604592
-0.0022344952
-0.0025942886
-0.0028460608
-0.0030116672
-0.003121267
-0.0032130396
9.2582207e-05
8.0346275e-05
0.003385598
0.0036449503
-0.00415
-0.0085278718
-0.0051527586
-0.00026372588
0.003948221
0.0032417773
0.0011209295
-0.00025015725
0.00042537248
0.0017507172
0.0028196689
0.003292144
0.0032388653
0.0029281291
0.0024859584
0.0019562514
0.0013428165
0.00065132051
-8.1915316e-05
-0.00080826842
-0.0014780099
-0.002050865
-0.0025031751
-0.0028306096
-0.0030466886
-0.0031781717
-0.0032591512
-0.0033307969
-7.6302711e-05
0.00034328797
0.0032237812
0.0042189388
-0.0050573458
-0.010120473
-0.0068370705
-0.00086371994
0.0048643849
0.0039273732
0.0012531865
-0.00098714579
-0.00026578565
0.0015158604
0.0030234005
0.0037478714
0.0037569594
0.0034390229
0.0029954397
0.0024747807
0.0018867523
0.0011948056
0.00042994799
-0.00036048101
-0.0011196327
-0.001796172
-0.0023545242
-0.0027771094
-0.0030657513
-0.0032423732
-0.0033374103
-0.0033883584
-0.0034393674
-0.00027601447
0.00063601808
0.0029750589
0.0047761167
-0.0062412503
-0.011345037
-0.0085703015
-0.0015497765
0.0062224872
0.0046262566
0.0014390101
-0.0019846007
-0.0012661519
0.0011184649
0.0031931076
0.0042592841
0.0043285589
0.003984972
0.003514154
0.0029991369
0.0024531158
0.0017776095
0.00099927015
0.00016014007
-0.00068106027
-0.0014620786
-0.0021342878
-0.002668566
-0.0030535637
-0.0032984478
-0.0034318205
-0.003488149
-0.0035082157
-0.0035386951
-0.00043810872
0.00083224674
0.0027594479
0.0051341783
-0.0073760333
-0.012298817
-0.010084821
-0.0017038877
0.0076984607
0.0053415963
0.0016423647
-0.0033654394
-0.0026068015
0.00052722999
0.0033102009
0.0048355592
0.0049763574
0.004570071
0.004045475
0.0035139741
0.0029973294
0.002384397
0.0016152834
0.00074807132
-0.00016064172
-0.0010420416
-0.0018328801
-0.0024902362
-0.0029904992
-0.0033305677
-0.0035265145
-0.0036143747
-0.00362982
-0.0036189868
-0.0036287882
-0.00054786408
0.00085776562
0.0024972404
0.0051182702
-0.0081982085
-0.013485054
-0.011486602
-0.0017903152
0.0085588838
0.0059902583
0.0018819113
-0.0050865269
-0.0043881012
-0.00030788651
0.003342545
0.0054954528
0.005710208
0.005215237
0.0045739095
0.0040128686
0.0035166245
0.0029878765
0.0022611429
0.0013952355
0.00043899502
-0.00053159312
-0.0014412951
-0.0022302189
-0.0028607176
-0.0033178208
-0.0036073441
-0.0037480182
-0.003789007
-0.0037626604
-0.0037204362
-0.0037095576
-0.00059510957
0.00069417967
0.0021131316
0.0047850841
-0.0089735086
-0.014511595
-0.012880455
-0.0017293955
0.0086475788
0.0066302227
0.0020412053
-0.0074137027
-0.0066291983
-0.0014588285
0.003220537
0.0062440231
0.0065529213
0.005915807
0.0051305269
0.0044754623
0.0040026131
0.0035705517
0.002934385
0.0020895802
0.0011132165
7.0040566e-05
-0.00095101521
-0.0018757858
-0.0026496061
-0.0032420848
-0.003647235
-0.0038805795
-0.0039616293
-0.0039533951
-0.0038858402
-0.0038122771
-0.0037810562
-0.00057614346
0.00035320632
0.001569743
0.0041584618
-0.0096404121
-0.015392864
-0.014345067
-0.0021981677
0.0087783356
0.0069756642
0.002059016
-0.0097686101
-0.009501323
-0.0029444765
0.002900949
0.0070790128
0.0075088171
0.0066972268
0.0056915717
0.0048990981
0.0044221096
0.0041042727
0.0036064837
0.0028307353
0.0018547428
0.00076051927
-0.00035920105
-0.0014169871
-0.0023423217
-0.0030875204
-0.0036312328
-0.00397667
-0.0041491728
-0.0041705247
-0.0041071026
-0.0039985637
-0.0038944228
-0.0038434196
-0.00049183617
-0.00015103177
0.00084838366
0.0032549174
-0.010064827
-0.016198448
-0.015552014
-0.0029808185
0.0081116706
0.0068904135
0.0016131194
-0.013517902
-0.012991636
-0.0047448551
0.0022484085
0.0080269658
0.008566299
0.0075376741
0.0062793801
0.0052501807
0.0047489032
0.0045561709
0.0042503994
0.0035967107
0.0026620656
0.001539195
0.00033504165
-0.00084791377
-0.0019265723
-0.0028369137
-0.0035404689
-0.004024955
-0.0043029255
-0.0044056758
-0.0043670021
-0.0042503163
-0.0041008967
-0.0039669274
-0.0038968556
-0.00036736141
-0.00080223692
-2.7334007e-05
0.0020955416
-0.010231536
-0.016529201
-0.016487932
-0.0038091204
0.0069007007
0.0065424162
0.00040995552
-0.016689348
-0.018007706
-0.0071954297
0.0011153955
0.0090118022
0.0096897927
0.0084272558
0.0068611041
0.0055298832
0.0049266884
0.0048988665
0.0048361131
0.0043687942
0.0035236978
0.0023998352
0.0011329085
-0.00016388605
-0.0013930722
-0.0024754834
-0.0033557131
-0.0040045298
-0.0044196385
-0.0046231121
-0.0046532498
-0.0045517134
-0.0043824264
-0.0041927518
-0.0040299434
-0.0039416587
-0.0015384234
-0.00023697806
-0.0010723288
0.00071556244
-0.010069048
-0.016431957
-0.017009237
-0.0047723816
0.005027685
0.005970682
-5.3808916e-05
-0.01999622
-0.022925038
-0.010985172
-0.00092434549
0.0099147685
0.010739234
0.0093114504
0.0074504851
0.0056838216
0.0049312196
0.0050651329
0.0053330366
0.0051265508
0.0044245352
0.0033407994
0.0020311497
0.00063487072
-0.00073573568
-0.0019911637
-0.0030597456
-0.0038942199
-0.004475392
-0.0048117124
-0.0049345414
-0.004888624
-0.0047241977
-0.0045032096
-0.0042742708
-0.0040837855
-0.0039781802
-0.0021952882
-0.0022619155
-0.00015377453
-0.00082516065
-0.0095831247
-0.015788755
-0.016950215
-0.0058925447
0.0025607613
0.0043621138
0.000139859
-0.023619933
-0.028361829
-0.015720747
-0.0038035151
0.010735889
0.011763779
0.010106931
0.0079811957
0.0057169646
0.0046796017
0.0050247321
0.005692154
0.0058481837
0.0053528478
0.004356204
0.0030259641
0.0015512326
4.9327034e-05
-0.0013752296
-0.0026377658
-0.0036744332
-0.0044473237
-0.0049485823
-0.0051975427
-0.0052346424
-0.0051112893
-0.0048840087
-0.0046124708
-0.0043456657
-0.004128756
-0.0040067952
-0.0024821652
-0.0033242698
-0.0028986404
-0.00012591293
-0.0087410484
-0.014570086
-0.016222926
-0.007157271
-0.00050004306
0.0018082201
7.2700406e-05
-0.026419746
-0.033542714
-0.02059202
-0.0064510773
0.01106722
0.01260037
0.010705531
0.0084478708
0.0055308054
0.0041468318
0.0046587089
0.0058724847
0.0065010825
0.0063024557
0.0054372318
0.0041172944
0.002581156
0.000961322
-0.00062199894
-0.0020779617
-0.0033274924
-0.0043135975
-0.0050096612
-0.0054195646
-0.0055737562
-0.0055215051
-0.0053205447
-0.0050308458
-0.0047102113
-0.0044070741
-0.0041652007
-0.0040279364
-0.007525734
-0.0042220362
-0.0043464739
-0.0033530988
-0.00015140351
-0.012794165
-0.014833325
-0.0085200736
-0.0040849007
-0.0013607917
-0.00046506169
-0.028730208
-0.039399438
-0.025654236
-0.0085904669
0.010416273
0.013293921
0.010885585
0.0087155239
0.0051369236
0.003168737
0.003957786
0.0057802393
0.0070525288
0.0072526562
0.0065809435
0.0053042682
0.0037166971
0.0020007971
0.00026866372
-0.0013738957
-0.0028390219
-0.0040538853
-0.0049711387
-0.0055757864
-0.0058840304
-0.0059374891
-0.0057937935
-0.0055156561
-0.0051644952
-0.0047965217
-0.0044588916
-0.0041936059
-0.0040420491
-0.010576607
-0.0060933655
-0.0058113164
-0.0051804614
-0.0036225564
-0.00023293459
-0.012828519
-0.010015487
-0.0081424171
-0.0050116967
-0.0015698743
-0.031320321
-0.044313064
-0.031530257
-0.012856501
0.0096166001
0.013001346
0.010531166
0.0087977276
0.0043632047
0.0017307454
0.0026212789
0.0053454937
0.0074485023
0.0081989858
0.0077800329
0.0065833369
0.0049553597
0.0031579791
0.0012923509
-0.0005221447
-0.0021987204
-0.0036504935
-0.0048098073
-0.0056407475
-0.006140374
-0.0063380822
-0.0062864773
-0.0060504198
-0.0056959558
-0.0052848837
-0.0048716673
-0.0045016012
-0.0042144063
-0.0040495829
-0.010166587
-0.0079405782
-0.0046314497
-0.0071783784
-0.0057872005
-0.0037035405
-0.00036908344
-0.011621662
-0.012545159
-0.0091335698
-0.0035266706
-0.033701079
-0.049065278
-0.036671118
-0.018463186
0.0058242025
0.013000267
0.0094374962
0.0083929218
0.0032952434
-0.00042455315
0.00067103257
0.0043852498
0.0076325493
0.0091062823
0.009044485
0.0079478262
0.00629843
0.0044183783
0.0024442671
0.00047175891
-0.0014034487
-0.0030898987
-0.0045049242
-0.0055886341
-0.0063161102
-0.0066984001
-0.0067783707
-0.0066188578
-0.0062903334
-0.0058609751
-0.0053922129
-0.0049361924
-0.0045356074
-0.004228055
-0.0040509587
-0.013017336
-0.0071081071
-0.0051937212
-0.0032175637
-0.0082651522
-0.0061657618
-0.0035758004
-0.00054869947
-0.016999539
-0.013416271
-0.0062958747
-0.035488316
-0.053138775
-0.041495707
-0.024491751
0.0011001578
0.01079301
0.0077031627
0.0076553198
0.0015195421
-0.0032759757
-0.0023507153
0.0027895711
0.0075216661
0.0099609497
0.010354851
0.0093981673
0.0077285949
0.0057797665
0.0037053328
0.001597515
-0.00045502726
-0.0023649792
-0.0040387735
-0.0053950907
-0.0063832727
-0.0069910625
-0.0072453162
-0.0072020384
-0.0069329106
-0.0065126594
-0.0060107073
-0.0054869892
-0.004990498
-0.0045612935
-0.0042348548
-0.0040466198
-0.02126476
-0.014162127
-0.0042046608
-0.0025489278
-0.0019880454
-0.0090525857
-0.0063090954
-0.0032703194
-0.00072462827
-0.017632643
-0.0096239156
-0.036556803
-0.056179142
-0.045767776
-0.030930157
-0.0047163477
0.0078685246
0.0046978645
0.0060178248
-0.00050718329
-0.0073469119
-0.0063612043
0.00034034149
0.0069689963
0.010673555
0.011708139
0.010905716
0.0092483731
0.0072165178
0.0050601413
0.0028377667
0.00063380547
-0.0014765778
-0.0033998737
-0.0050383828
-0.0063136318
-0.0071864036
-0.0076598039
-0.0077770447
-0.0076064579
-0.007227137
-0.0067171289
-0.0061455861
-0.0055694839
-0.0050345101
-0.0045786573
-0.004235231
-0.0040372135
-0.021400783
-0.02505482
-0.014953536
-0.0015374866
-0.000205796
-0.00097708959
-0.0095290488
-0.006286029
-0.0028440431
-0.00082273407
-0.013446093
-0.036863037
-0.057778366
-0.049401626
-0.036706301
-0.011038716
0.0025158581
0.0023742851
0.0040435989
-0.0038544096
-0.01206844
-0.012046509
-0.0030458565
0.0057937118
0.01115918
0.013042369
0.012469219
0.010808891
0.0087285642
0.0064780218
0.0041678752
0.0018433018
-0.00043476474
-0.0025849416
-0.0045015544
-0.006081636
-0.007253208
-0.0079911272
-0.0083169181
-0.0082897488
-0.0079892348
-0.0075007939
-0.0069040444
-0.0062656495
-0.0056390995
-0.005068003
-0.0045884281
-0.0042303694
-0.004023339
-0.017619971
-0.02448345
-0.027981079
-0.015199843
0.00084046055
0.0017762361
-0.00018116097
-0.0096967773
-0.0061309465
-0.0023816142
-0.00081322174
-0.036287271
-0.057653172
-0.051689378
-0.041306058
-0.017793949
-0.0047829154
-0.0014738106
0.0015421579
-0.0067400175
-0.018741863
-0.01876486
-0.0076595188
0.0036404428
0.011235541
0.014289688
0.014039547
0.012396181
0.010251184
0.0079426497
0.0055511397
0.0031445422
0.00073973178
-0.0016002362
-0.0037749781
-0.0056636987
-0.0071609184
-0.0082057398
-0.0087906171
-0.0089571185
-0.0087798788
-0.0083488772
-0.0077539453
-0.0070731364
-0.0063696407
-0.0056952954
-0.005092407
-0.0045928572
-0.0042213279
-0.0040047902
-0.034462647
-0.021940228
-0.026831652
-0.030021743
-0.014970827
0.002809265
0.0033664715
0.00036649946
-0.0095779214
-0.0058305338
-0.0019936551
-0.00075795391
-0.055484297
-0.052341745
-0.044370041
-0.024758665
-0.014098523
-0.0081455745
-0.0027576694
-0.0088199811
-0.024912394
-0.028214728
-0.014094461
0.00044849016
0.010638929
0.015360347
0.015514144
0.013938185
0.011766905
0.0093833888
0.0069594221
0.00449514
0.0020158218
-0.00046351807
-0.0028589379
-0.0050429138
-0.0068801697
-0.0082682313
-0.0091629207
-0.009578014
-0.0095753556
-0.009244949
-0.0086850036
-0.0079858916
-0.0072223032
-0.0064565441
-0.0057405215
-0.0051116147
-0.0045934003
-0.0042066034
-0.0039798056
-0.051355548
-0.031124862
-0.025206859
-0.02842402
-0.031089868
-0.014363294
0.004243984
0.0045332844
0.00069039634
-0.0091868555
-0.0058230435
-0.0015887981
-0.00058424629
-0.051340807
-0.045496757
-0.031726741
-0.024915547
-0.017182159
-0.0083530975
-0.011396311
-0.031040448
-0.037831409
-0.023638753
-0.0045155788
0.0090677414
0.016085626
0.016848899
0.015315025
0.013171876
0.010786328
0.0083170797
0.0058569276
0.0033478971
0.00079459842
-0.0017648921
-0.0042107846
-0.0063853423
-0.0081440096
-0.0093949715
-0.010116516
-0.010346506
-0.010167769
-0.0096838359
-0.008996445
-0.008193486
-0.0073498315
-0.0065300431
-0.0057808899
-0.0051271836
-0.0045857412
-0.0041816462
-0.0039490845
-0.048635917
-0.045219738
-0.026846986
-0.02663014
-0.029160216
-0.031252284
-0.013454246
0.0052035224
0.0053247012
0.00078709145
-0.0084867148
-0.0056455889
-0.001248435
-0.0004463508
-0.044032476
-0.038534763
-0.036707932
-0.028130343
-0.015386506
-0.015486094
-0.036464754
-0.050915931
-0.036667381
-0.012355012
0.0060042244
0.016028751
0.017780245
0.016512328
0.014379225
0.012028006
0.0096056319
0.0071489379
0.0046891961
0.0021289921
-0.00051870798
-0.003169543
-0.0056574643
-0.0077980937
-0.0094464848
-0.010531591
-0.011057855
-0.011090494
-0.01073223
-0.010094461
-0.0092786542
-0.0083740138
-0.0074608766
-0.0065991782
-0.0058177894
-0.0051300756
-0.0045605789
-0.004150733
-0.0039130137
-0.039334315
-0.043878346
-0.037751661
-0.022127256
-0.026689752
-0.028935351
-0.030588693
-0.012284832
0.0057899291
0.0058846326
0.00075899936
-0.007585938
-0.0055882276
-0.0010321756
-0.00023049622
-0.044584103
-0.048833182
-0.040504828
-0.024338073
-0.020699011
-0.043162889
-0.063093768
-0.055694372
-0.023068382
0.0021859896
0.014838231
0.018105298
0.017074649
0.015337001
0.013063632
0.010692621
0.0083458206
0.0059532318
0.003486379
0.00083917213
-0.0019355584
-0.0046867217
-0.0072002372
-0.0092744931
-0.010777148
-0.011667356
-0.011979228
-0.011806359
-0.011265571
-0.010470615
-0.009527405
-0.0085341514
-0.0075682191
-0.0066651877
-0.005835473
-0.0051046521
-0.004528678
-0.0041142326
-0.00387154
-0.049163739
-0.032457605
-0.03756086
-0.029525417
-0.017395205
-0.025708586
-0.02784688
-0.029255399
-0.011027998
0.0059338991
0.0061639547
0.00042483155
-0.006634597
-0.0051628241
-0.0009662456
-0.0001010464
-0.060723795
-0.054046184
-0.03550307
-0.026628445
-0.050751114
-0.076866228
-0.07386929
-0.038896871
-0.0066723304
0.01385926
0.017349628
0.017229577
0.015666457
0.013776764
0.01156247
0.0093026968
0.0071049187
0.0047781005
0.0022535714
-0.00053980858
-0.0034757966
-0.0063267375
-0.0088371827
-0.010804514
-0.012125449
-0.012792405
-0.012875071
-0.012489392
-0.011759302
-0.010806394
-0.0097510687
-0.0086912881
-0.0076729644
-0.0067030647
-0.005810088
-0.005071101
-0.0044908799
-0.0040721449
-0.0038246111
-0.07147408
-0.052287256
-0.025256946
-0.030194236
-0.021182388
-0.012885227
-0.023845816
-0.026171161
-0.027391414
-0.010003688
0.0056837354
0.0062071116
-0.00015347716
-0.0057535442
-0.0045770602
-0.0010773831
-3.6380397e-05
-0.068063592
-0.048217219
-0.032740751
-0.058910501
-0.090422263
-0.095100941
-0.056721433
-0.020223197
0.0073947827
0.016818405
0.01588611
0.015571397
0.013958433
0.012055765
0.010022875
0.0079820372
0.0059549747
0.0036391258
0.00096763722
-0.0020414047
-0.0051633895
-0.0080964435
-0.010561041
-0.012377645
-0.013479979
-0.013898772
-0.013738604
-0.013128483
-0.01220474
-0.011111594
-0.0099726072
-0.0088464099
-0.0077379886
-0.0066784737
-0.0057743623
-0.0050311763
-0.004447136
-0.004024291
-0.0037721067
-0.080647933
-0.080121968
-0.05316272
-0.018498339
-0.022471205
-0.013245359
-0.0084167665
-0.021284732
-0.024042312
-0.025343806
-0.0090487066
0.0055931275
0.0061719324
-0.00055233013
-0.0048626538
-0.0039670941
-0.0009979373
5.8441755e-06
-0.060600104
-0.038988995
-0.067104959
-0.10274058
-0.11484339
-0.07775827
-0.037542031
-0.00028503543
0.012553213
0.014810364
0.014266112
0.013650856
0.012095229
0.010302987
0.0085977155
0.0068386759
0.004931451
0.0025116681
-0.00042039252
-0.0037080582
-0.0070194386
-0.0099938533
-0.012363124
-0.013983225
-0.014828482
-0.014976851
-0.014555315
-0.013711514
-0.012613105
-0.011415427
-0.010192562
-0.0089475155
-0.007715682
-0.0066401973
-0.0057316841
-0.0049849475
-0.0043974866
-0.0039706229
-0.0037141027
-0.070566353
-0.090303824
-0.085317762
-0.051627313
-0.012735049
-0.014809713
-0.0060989023
-0.004095702
-0.018093655
-0.021689468
-0.022754636
-0.0076813241
0.0054673936
0.0060595014
-0.00072882967
-0.0037264909
-0.0032701193
-0.00095008201
-2.2969143e-05
-0.046138057
-0.074299006
-0.11266439
-0.13248429
-0.10172957
-0.055991234
-0.011882088
0.0080353652
0.01037733
0.012262509
0.012379661
0.011592315
0.010169086
0.0086960499
0.007440246
0.0059457184
0.0040177488
0.0013300513
-0.0019772062
-0.0055831878
-0.0090521624
-0.012017014
-0.014236947
-0.015605197
-0.016157641
-0.016008112
-0.015308663
-0.014250312
-0.013021621
-0.011718389
-0.010340642
-0.0089303766
-0.0076747396
-0.0065943266
-0.0056823411
-0.0049326462
-0.004341855
-0.0039113164
-0.0036504575
-0.054070199
-0.077489231
-0.095806826
-0.08698884
-0.048646889
-0.0081939303
-0.0076500997
4.593852e-05
-0.0001665631
-0.014593331
-0.018827367
-0.020044457
-0.0062854838
0.0050413438
0.0055516036
-0.00046843684
-0.0028852639
-0.0028370638
-0.00087691195
1.914864e-05
-0.079032764
-0.11878493
-0.14575706
-0.12417186
-0.073503279
-0.025733382
-0.0014400433
0.0071333492
0.0082090463
0.010476796
0.010345573
0.0093465619
0.0083584465
0.0074399439
0.0066768036
0.0053087527
0.0031355343
-3.8490701e-06
-0.0037772597
-0.0076990205
-0.011272109
-0.014171097
-0.016159658
-0.017223121
-0.01744488
-0.016970499
-0.016010741
-0.014790826
-0.013430873
-0.011928681
-0.010332862
-0.0088872252
-0.0076253825
-0.0065413611
-0.0056267045
-0.0048740873
-0.0042803181
-0.0038460404
-0.0035813241
-0.07983827
-0.061676004
-0.080546371
-0.097229777
-0.085184207
-0.044750524
-0.0050100259
-0.0014939965
0.0049606613
0.0032505621
-0.011015746
-0.016085246
-0.017476481
-0.0051444393
0.0044733179
0.0046522883
-0.00015066581
-0.0022485448
-0.0016765513
-0.00076739083
-1.0886462e-05
-0.11964393
-0.15227906
-0.14152295
-0.090580363
-0.041697255
-0.012996901
0.00013707962
0.0042040725
0.0068223194
0.0084337752
0.0079498514
0.0071180919
0.0069343333
0.0067352305
0.0063587844
0.0048380573
0.0021517815
-0.0016068337
-0.0058878431
-0.010067729
-0.013695072
-0.016409929
-0.018102131
-0.018811076
-0.0186612
-0.01787468
-0.016717336
-0.015334567
-0.013722577
-0.011936232
-0.010289185
-0.0088345709
-0.0075685905
-0.0064818142
-0.0055644606
-0.0048093739
-0.0042126865
-0.0037752364
-0.0035065398
-0.11476596
-0.076185036
-0.065812591
-0.080234072
-0.094658507
-0.080524242
-0.040279548
-0.0029026443
0.0031946311
0.0086343572
0.0059934408
-0.0081788548
-0.013391394
-0.014701046
-0.0038020737
0.0036702604
0.0037292405
-1.8200179e-05
-0.0016449387
-0.0021873922
-0.00058721286
1.0238465e-05
-0.15046964
-0.15154022
-0.10482401
-0.058215348
-0.027260642
-0.010592237
-0.0025146773
0.00287586
0.0054219864
0.0055548401
0.0054200043
0.0053491305
0.0062439751
0.0067405004
0.0063963205
0.0043605271
0.00089420126
-0.003595365
-0.0083409626
-0.012695776
-0.016261414
-0.018707251
-0.020037118
-0.020332148
-0.019813087
-0.018787181
-0.017430932
-0.015732113
-0.013753958
-0.011894132
-0.010234313
-0.0087740073
-0.0075048279
-0.0064153446
-0.0054958126
-0.004738483
-0.0041394276
-0.0036985594
-0.0034262394
-0.14054643
-0.10383939
-0.069231699
-0.064710325
-0.077282746
-0.088782594
-0.073559067
-0.035583533
-0.0013692182
0.0060714527
0.010825006
0.0079238713
-0.0065154891
-0.010425631
-0.011923502
-0.0027470871
0.0029370143
0.0031651649
3.795085e-05
-0.0011519942
-0.0014600123
-0.00040917946
-1.1680199e-05
-0.15268331
-0.11288021
-0.073572998
-0.043629904
-0.026283522
-0.012164006
-0.0042422661
0.0023604898
0.0027098722
0.0022288903
0.0032920353
0.004486805
0.0066012035
0.0074077418
0.0065372471
0.0036632703
-0.00082431215
-0.006040047
-0.01114227
-0.015595288
-0.018938847
-0.021036958
-0.021919453
-0.02178495
-0.020978769
-0.019713919
-0.017965101
-0.015799893
-0.013716859
-0.011838922
-0.010170514
-0.008705902
-0.0074337073
-0.0063420473
-0.0054208867
-0.0046618498
-0.0040601169
-0.0036160912
-0.0033404328
-0.14408424
-0.12346633
-0.088912089
-0.059473931
-0.058914681
-0.071539808
-0.080335823
-0.064973373
-0.03113793
-0.0005857043
0.0074941897
0.012506992
0.0084520767
-0.0052027596
-0.0072949024
-0.0092756305
-0.0019204747
0.0024031703
0.0026766018
0.00020933628
-0.00074793702
-0.0011546095
-0.00028477879
2.0530453e-05
-0.113943
-0.085710294
-0.060897352
-0.045148323
-0.026705997
-0.015300594
-0.0034992952
2.8484358e-05
-0.00090769864
-0.00086484425
0.0020588927
0.0050196972
0.0081107844
0.0082304621
0.0066573783
0.0024166113
-0.0031301845
-0.0089580997
-0.014329125
-0.018704646
-0.021715779
-0.023342678
-0.023734517
-0.023259163
-0.022171344
-0.020426168
-0.018086853
-0.015773018
-0.013664629
-0.011773241
-0.010098375
-0.0086298595
-0.0073552052
-0.0062623099
-0.0053400901
-0.0045789459
-0.0039744974
-0.0035280597
-0.0032492922
-0.10901784
-0.12618645
-0.10279198
-0.0713478
-0.047703761
-0.049775741
-0.062771603
-0.070531417
-0.055347712
-0.027339788
-4.7209285e-05
0.0089714245
0.01239188
0.0092552001
-0.0035414499
-0.0050497572
-0.0064606234
-0.0012628673
0.0019582359
0.0022486758
0.00035893916
-0.00045054409
-0.00063639181
-0.0001528557
3.7803545e-05
-0.090513885
-0.077046336
-0.066396562
-0.046972828
-0.030555775
-0.013524546
-0.004147024
-0.0045843779
-0.0044546828
-0.0030112911
0.0024814777
0.0072709371
0.010727912
0.0096505138
0.0060825743
0.00041672129
-0.0060699503
-0.012382714
-0.017873177
-0.021970664
-0.024509518
-0.025589426
-0.025581102
-0.024781615
-0.023114072
-0.020626753
-0.018077944
-0.015729299
-0.013599503
-0.011698025
-0.010017383
-0.0085457694
-0.0072699657
-0.0061766037
-0.005252704
-0.0044890067
-0.0038832234
-0.0034346802
-0.0031528421
-0.08659159
-0.098447606
-0.10372293
-0.080911388
-0.053433975
-0.034984091
-0.038892507
-0.051970506
-0.0592287
-0.046276918
-0.022782572
0.0014058139
0.0099854021
0.012710788
0.0092684763
-0.0014705749
-0.0036513466
-0.0044333513
-0.00062767865
0.0016748505
0.0018896239
0.00050244016
-0.00017740737
-0.00033310155
-2.8936222e-05
7.1409917e-05
-0.089735665
-0.088035916
-0.071845963
-0.051785849
-0.028222875
-0.011551333
-0.0088072567
-0.010015328
-0.0073549859
-0.0028812122
0.0052635277
0.011063767
0.01276244
0.010037948
0.0045562785
-0.0024238825
-0.0096773125
-0.016329278
-0.021671178
-0.025315149
-0.027263641
-0.027883379
-0.027510859
-0.026021824
-0.023427478
-0.020646879
-0.018051414
-0.015668632
-0.013523073
-0.011612563
-0.009927456
-0.0084544334
-0.0071785813
-0.0060837975
-0.0051572952
-0.004393291
-0.0037864998
-0.0033360633
-0.0030512269
-0.096630202
-0.07789267
-0.082622833
-0.080761439
-0.059859995
-0.036554293
-0.022351091
-0.027566211
-0.040434632
-0.046994663
-0.0371213