/*--------------------------------*- C++ -*----------------------------------*\
| =========                 |                                                 |
| \\      /  F ield         | OpenFOAM: The Open Source CFD Toolbox           |
|  \\    /   O peration     | Version:  5.0                                   |
|   \\  /    A nd           | Web:      www.OpenFOAM.org                      |
|    \\/     M anipulation  |                                                 |
\*---------------------------------------------------------------------------*/
FoamFile
{
    version     2.0;
    format      ascii;
    class       surfaceScalarField;
    location    "300";
    object      phi;
}
// * * * * * * * * * * * * * * * * * * * * * * * * * * * * * * * * * * * * * //

dimensions      [0 3 -1 0 0 0 0];

internalField   nonuniform List<scalar> 
18820
(
-0.00039656543
-1.3579984
-0.00076556301
-1.2699915
-0.00037804863
-1.3576204
-0.0011067181
-1.1877785
-0.00073127598
-1.2696382
-0.00036064388
-1.3572597
-0.0014193831
-1.1109522
-0.0010595989
-1.1874501
-0.00069771979
-1.2693012
-0.00035186835
-1.3569079
-0.0017029885
-1.0391459
-0.0013626711
-1.1106491
-0.0010117136
-1.1871361
-0.00068029716
-1.2689727
-0.00035142119
-1.3565564
-0.0019573392
-0.97201286
-0.0016398249
-1.0388688
-0.0013034406
-1.1103574
-0.00098678075
-1.1868297
-0.00067940624
-1.2686447
-0.00035182491
-1.3562046
-0.002181973
-0.90923753
-0.0018906111
-0.97176207
-0.0015729645
-1.0385993
-0.0012731851
-1.1100709
-0.00098626328
-1.1865228
-0.00068170545
-1.2683149
-0.0003438867
-1.3558607
-0.0023758157
-0.85052946
-0.0021150249
-0.90901311
-0.0018194038
-0.97151563
-0.001540681
-1.0383318
-0.0012738452
-1.1097834
-0.00099256903
-1.1862119
-0.00066882653
-1.2679899
-0.00032617471
-1.3555345
-0.0025370419
-0.79562067
-0.0023135986
-0.85033089
-0.0020423482
-0.90879017
-0.001788955
-0.97126736
-0.0015437091
-1.0380619
-0.0012858762
-1.1094901
-0.0009780761
-1.1859027
-0.00063660062
-1.2676795
-0.00030281432
-1.3552317
-0.0026633151
-0.7442607
-0.0024880492
-0.79544622
-0.0022425191
-0.85013072
-0.0020175984
-0.90856153
-0.0017966327
-0.97101443
-0.0015632763
-1.0377845
-0.0012728531
-1.1091953
-0.00093492005
-1.1856044
-0.0005920171
-1.2673903
-0.00028036596
-1.3549514
-0.0027534243
-0.69622163
-0.0026409166
-0.74410783
-0.0024232841
-0.79526545
-0.0022264893
-0.84992183
-0.0020327467
-0.90832541
-0.0018267444
-0.97075097
-0.0015544484
-1.0375029
-0.0012233231
-1.1089069
-0.00087140787
-1.185325
-0.00054813275
-1.2671225
-0.00026315475
-1.3546882
-0.0028063212
-0.6512903
-0.0027753606
-0.69608718
-0.0025921645
-0.74393895
-0.0024159974
-0.79507595
-0.0022514109
-0.84970316
-0.0020772431
-0.90807491
-0.0018251604
-0.97048025
-0.0015029578
-1.0372233
-0.0011445885
-1.1086337
-0.00080743638
-1.1850657
-0.00051381817
-1.2668719
-0.0002513526
-1.3544369
-0.002838309
-0.6092446
-0.0029140117
-0.65115165
-0.0027646929
-0.69591465
-0.0025877958
-0.74376715
-0.0024502231
-0.79487713
-0.0023139957
-0.84946641
-0.0020867567
-0.90781332
-0.0017756503
-0.97020756
-0.0014135244
-1.0369543
-0.0010623123
-1.1083788
-0.00075699922
-1.1848225
-0.00049005887
-1.2666332
-0.0002418023
-1.3541951
-0.002854396
-0.56989229
-0.0030811956
-0.60907741
-0.0029556624
-0.65096068
-0.0027441259
-0.69575832
-0.0026232117
-0.74359416
-0.002532936
-0.79465819
-0.0023405247
-0.84921264
-0.0020433881
-0.90754558
-0.0016787946
-0.96994229
-0.0013157192
-1.0367009
-0.00099679931
-1.108139
-0.00072175157
-1.1845908
-0.00047130399
-1.2664037
-0.00023043648
-1.3539646
-0.0028646465
-0.53307575
-0.0032627452
-0.56971075
-0.0031429992
-0.60889008
-0.0028648066
-0.65084
-0.00275376
-0.69562777
-0.0027256508
-0.74340145
-0.0025878385
-0.79441088
-0.0023088289
-0.8489472
-0.0019411484
-0.90728322
-0.0015681194
-0.96968989
-0.0012361806
-1.0364615
-0.00095068531
-1.1079101
-0.00069386035
-1.1843682
-0.00044973482
-1.2661844
-0.00021443963
-1.3537502
-0.0028758497
-0.4986346
-0.0034776534
-0.53286084
-0.0033040244
-0.56954972
-0.002926761
-0.60882812
-0.0028200997
-0.65077366
-0.0028821059
-0.69547132
-0.0028310464
-0.74315824
-0.0025769626
-0.79414275
-0.0022020583
-0.84868629
-0.0018192154
-0.90703213
-0.0014763734
-0.9694497
-0.0011798332
-1.0362324
-0.00091377213
-1.1076902
-0.00066231875
-1.1841557
-0.00041942166
-1.2659794
-0.00019328828
-1.3535569
-0.0029049834
-0.46641479
-0.0037350789
-0.49837718
-0.0034474038
-0.53271746
-0.0029454189
-0.56953106
-0.0028177126
-0.60883051
-0.0029985593
-0.6506572
-0.0030758285
-0.69522654
-0.0028565296
-0.74287867
-0.0024644861
-0.79388032
-0.0020682641
-0.84843724
-0.0017173975
-0.9067911
-0.0014114128
-0.96921812
-0.001134461
-1.0360117
-0.00087194083
-1.1074806
-0.00061873436
-1.1839563
-0.0003787126
-1.265794
-0.00016870567
-1.3533882
-0.0029315556
-0.43628095
-0.0040770089
-0.46607286
-0.0036024731
-0.49822211
-0.0028943651
-0.53276851
-0.0027589124
-0.56958986
-0.0030816647
-0.6087474
-0.0033349261
-0.6503981
-0.0031604842
-0.69492258
-0.0027333385
-0.74260982
-0.0023135437
-0.79363504
-0.0019578214
-0.84819682
-0.0016467104
-0.90655581
-0.0013590492
-0.96899353
-0.0010826135
-1.035801
-0.00081500705
-1.1072843
-0.00056006261
-1.183775
-0.00033065643
-1.265632
-0.00014374059
-1.3532444
-0.0030197147
-0.40807246
-0.0045189609
-0.435839
-0.00378377
-0.46589157
-0.002775661
-0.49834081
-0.0026045321
-0.53292289
-0.0031376409
-0.56953389
-0.0036211586
-0.60846117
-0.0035101423
-0.65004845
-0.0030167729
-0.69463915
-0.0025519515
-0.74237141
-0.0021939208
-0.79339894
-0.0018854978
-0.84795803
-0.0015902584
-0.9063246
-0.0012983463
-0.9687778
-0.0010122427
-1.0356038
-0.00073939073
-1.1071049
-0.0004892981
-1.1836164
-0.00028133059
-1.2654944
-0.00012137281
-1.3531231
-0.0030849361
-0.38168649
-0.0051271032
-0.40746432
-0.0040342877
-0.43558848
-0.0025396219
-0.4661276
-0.0023015082
-0.49864384
-0.0031776939
-0.53288284
-0.0039447959
-0.56921025
-0.0039255743
-0.60804574
-0.0033241942
-0.64974103
-0.0027798168
-0.69441128
-0.0024193814
-0.74214595
-0.002125344
-0.79315909
-0.0018298333
-0.84771845
-0.0015230461
-0.9060999
-0.0012151596
-0.96857488
-0.00091949509
-1.0354237
-0.00064741579
-1.1069468
-0.00041486796
-1.1834828
-0.00023674356
-1.265379
-0.00010339493
-1.3530197
-0.0032546952
-0.3569204
-0.0058634339
-0.38095016
-0.0043315606
-0.40716705
-0.0021696915
-0.43595841
-0.0017963509
-0.46663276
-0.0031674406
-0.49865409
-0.0043380883
-0.53248955
-0.0044274582
-0.56870836
-0.0036691607
-0.60770077
-0.0029899414
-0.6495309
-0.0026235132
-0.69420715
-0.0023608218
-0.74191047
-0.0020784651
-0.79291046
-0.0017604157
-0.84748108
-0.00142804
-0.90588702
-0.0011048772
-0.9683895
-0.00080681923
-1.0352643
-0.00054760077
-1.1068141
-0.0003466484
-1.1833729
-0.00020038368
-1.2652821
-9.011054e-05
-1.3529296
-0.0033410601
-0.33373677
-0.0068152124
-0.35596862
-0.0047656332
-0.38051609
-0.001602761
-0.40773398
-0.0010338342
-0.43672093
-0.0030980805
-0.46670212
-0.0048481262
-0.49814405
-0.0050446149
-0.53187239
-0.0040459544
-0.56833157
-0.0031756213
-0.60751509
-0.0027899178
-0.6493645
-0.0025812359
-0.69398674
-0.002335059
-0.74165388
-0.0020145955
-0.79265628
-0.0016555026
-0.84725362
-0.0012993777
-0.90569252
-0.000970155
-0.96822616
-0.0006818112
-1.0351301
-0.00045399449
-1.1067068
-0.00029074086
-1.1832826
-0.00017281495
-1.2651993
-8.0746947e-05
-1.3528488
-0.0036400745
-0.31179415
-0.0078367453
-0.33271524
-0.005279272
-0.35545498
-0.00086328317
-0.38125557
4.6522799e-05
-0.40881433
-0.0029286079
-0.4368904
-0.0055297724
-0.46602048
-0.0058435185
-0.49734515
-0.0044725215
-0.53144582
-0.0033047013
-0.56820249
-0.0028866979
-0.60741831
-0.0027683888
-0.64917734
-0.0025954183
-0.69372638
-0.0022903752
-0.7413781
-0.0019035281
-0.79240825
-0.0015071891
-0.84704581
-0.0011402457
-0.90552242
-0.00081872831
-0.96808924
-0.00056155679
-1.0350225
-0.00037637746
-1.1066211
-0.00024814467
-1.1832072
-0.00015275028
-1.2651273
-7.4107456e-05
-1.3527747
-0.0041395141
-0.29107665
-0.0092009107
-0.31042998
-0.0059916208
-0.33200289
0.0002052906
-0.35652355
0.0015104672
-0.38271951
-0.0026584721
-0.40908447
-0.0064396799
-0.4359805
-0.0068959531
-0.46496804
-0.0049658656
-0.4968518
-0.0033478866
-0.53140264
-0.0028798597
-0.56820933
-0.0028885163
-0.60729819
-0.0028514455
-0.64892132
-0.0025943593
-0.69342239
-0.0021805489
-0.74110108
-0.0017335716
-0.79218187
-0.0013199331
-0.84686612
-0.00095991437
-0.90538124
-0.000670142
-0.96798066
-0.00046022934
-1.0349387
-0.00031678358
-1.1065525
-0.0002165605
-1.1831434
-0.0001383469
-1.2650631
-6.9050991e-05
-1.3527057
-0.0046664422
-0.27223482
-0.010749305
-0.28952825
-0.0067356799
-0.30968592
0.0014072037
-0.3332048
0.0034447112
-0.35845779
-0.00220032
-0.38317766
-0.0076545488
-0.4078696
-0.0082921883
-0.43458426
-0.0055552315
-0.46437867
-0.0032678261
-0.49693186
-0.0027083945
-0.5315741
-0.0029324395
-0.56816541
-0.0030928792
-0.60705675
-0.0029359111
-0.64857976
-0.0024998697
-0.69310307
-0.001985927
-0.74084872
-0.0015119341
-0.79198987
-0.0011064657
-0.84671957
-0.00078094586
-0.90527043
-0.00054358253
-0.9678973
-0.00038104013
-1.0348744
-0.00027218191
-1.1064969
-0.00019294574
-1.1830888
-0.00012780222
-1.2650044
-6.4661084e-05
-1.352641
-0.0051420336
-0.25432981
-0.012527346
-0.27045678
-0.0074757528
-0.28878818
0.0031836798
-0.3114624
0.0058477967
-0.33560789
-0.0016334937
-0.35902462
-0.009250412
-0.3815818
-0.010114751
-0.40604704
-0.0062761201
-0.43386337
-0.0030271836
-0.46461932
-0.0023028882
-0.49733737
-0.0028811639
-0.53162538
-0.0033244095
-0.56793388
-0.0033332499
-0.60665941
-0.0028814352
-0.6481982
-0.0022756258
-0.69281337
-0.0017192018
-0.74064145
-0.0012582695
-0.79183807
-0.00089443042
-0.84660609
-0.00062767535
-0.90518634
-0.0004432344
-0.96783511
-0.0003206776
-1.0348259
-0.00023812372
-1.1064517
-0.00017495285
-1.1830417
-0.00011924294
-1.2649498
-6.0233649e-05
-1.3525808
-0.0064051545
-0.23572992
-0.014313052
-0.2525441
-0.0085737856
-0.26935875
0.0053189219
-0.29092342
0.0087459532
-0.31436055
-0.00074677174
-0.33649461
-0.011352785
-0.35692225
-0.01248551
-0.37921104
-0.007165041
-0.40515812
-0.0025784224
-0.43431213
-0.0015803025
-0.4653419
-0.0026613689
-0.49755717
-0.0035695219
-0.53138027
-0.0038060391
-0.56746109
-0.0033582393
-0.60618261
-0.0026195576
-0.64785427
-0.0019449579
-0.69258762
-0.0014136433
-0.74048608
-0.0010092376
-0.79172326
-0.00071322378
-0.84652054
-0.000505101
-0.90512448
-0.00036502383
-0.96779076
-0.000273933
-1.0347901
-0.0002109419
-1.1064157
-0.00016051822
-1.1830004
-0.00011071797
-1.2648993
-5.530294e-05
-1.3525255
-0.0081120846
-0.21716469
-0.016796567
-0.2332464
-0.0098857216
-0.25123217
0.0079141492
-0.27195397
0.012179034
-0.2943565
0.00013628756
-0.31524361
-0.013982186
-0.33386521
-0.015483556
-0.3539242
-0.0082798141
-0.37809627
-0.0018693714
-0.40586717
-0.00043513679
-0.4354573
-0.0021910449
-0.46581223
-0.0038265248
-0.49730016
-0.0043895853
-0.53079672
-0.0039605162
-0.56685881
-0.0030432333
-0.60575893
-0.0021939887
-0.64760524
-0.0015682083
-0.69243305
-0.0011210099
-0.74037431
-0.00079916848
-0.79163732
-0.00056822555
-0.84645741
-0.00040778275
-0.90508172
-0.00030292586
-0.96776177
-0.00023576695
-1.0347653
-0.00018797034
-1.1063882
-0.00014697328
-1.1829641
-0.00010086714
-1.2648537
-4.9798572e-05
-1.3524757
-0.0098875603
-0.20022981
-0.019277408
-0.21468385
-0.010559469
-0.23257265
0.010709762
-0.25402778
0.01629326
-0.2760682
0.0011056114
-0.29532583
-0.017239477
-0.31198632
-0.01928457
-0.33006419
-0.0096415544
-0.35256246
-0.00082994005
-0.3791357
0.0012459348
-0.40754824
-0.0013778225
-0.43627052
-0.0040803701
-0.46555838
-0.0051437543
-0.49654599
-0.0047278062
-0.53002943
-0.0035730235
-0.56632902
-0.0024715846
-0.60548134
-0.0017145691
-0.64745888
-0.0012209127
-0.69233315
-0.00088135292
-0.74029212
-0.00063302179
-0.79157252
-0.00045177157
-0.84641343
-0.00032849196
-0.90505615
-0.00025101243
-0.96774653
-0.00020225429
-1.034751
-0.00016676346
-1.1063684
-0.00013210884
-1.1829329
-8.9636215e-05
-1.2648139
-4.4139668e-05
-1.3524315
-0.011729398
-0.18434348
-0.021578654
-0.19792856
-0.010215652
-0.21502767
0.014824155
-0.23668705
0.020758836
-0.25849336
0.0023398375
-0.27730242
-0.021331197
-0.29123411
-0.023888373
-0.30738252
-0.011332951
-0.3283728
0.00062621987
-0.35401862
0.0036102158
-0.38149998
-0.0001184136
-0.40880765
-0.0043106099
-0.43604028
-0.0061359607
-0.46456618
-0.0057444889
-0.49552931
-0.0042357019
-0.52936675
-0.0027859581
-0.56601465
-0.0018388872
-0.60535702
-0.0012940396
-0.64738575
-0.00095096886
-0.69226353
-0.00069787156
-0.74022727
-0.000499536
-0.79152476
-0.00035465466
-0.84638726
-0.00026053083
-0.90504663
-0.00020479626
-0.96774398
-0.00017120298
-1.0347466
-0.00014547257
-1.1063551
-0.0001152577
-1.1829073
-7.826471e-05
-1.2647798
-3.8950718e-05
-1.3523926
-0.015475788
-0.19928692
-0.023697145
-0.18222499
-0.0093925538
-0.19875166
0.020037654
-0.22024117
0.025740575
-0.24166879
0.0045415455
-0.26069506
-0.026271376
-0.27236225
-0.029277132
-0.28584535
-0.013263153
-0.30545232
0.0026097535
-0.33035633
0.0067952194
-0.35720362
0.0017099637
-0.38332836
-0.0044959808
-0.40862228
-0.0074462011
-0.43473004
-0.0071117376
-0.46319893
-0.0050893894
-0.49467562
-0.0031397956
-0.52901291
-0.0019223847
-0.56593115
-0.0013166902
-0.60533437
-0.0009926317
-0.64734409
-0.00075779479
-0.69220361
-0.00055303197
-0.74017378
-0.00038612651
-0.79149328
-0.00026919875
-0.84637859
-0.00019926952
-0.90505216
-0.00016184822
-0.96775334
-0.00014075195
-1.0347513
-0.00012242114
-1.1063479
-9.761069e-05
-1.1828879
-6.7995896e-05
-1.2647507
-3.4727383e-05
-1.3523578
-0.018774775
-0.19583448
-0.027638787
-0.19534528
-0.0080245165
-0.18359303
0.025545526
-0.20425953
0.030825609
-0.2253262
0.0065686191
-0.24369586
-0.031079388
-0.25588705
-0.035685869
-0.26595351
-0.015440602
-0.2836679
0.0052850261
-0.30812759
0.010971081
-0.33453219
0.0042231621
-0.35971682
-0.0046056998
-0.38321864
-0.0091661452
-0.40690233
-0.0089568869
-0.43288489
-0.0062111983
-0.46207712
-0.0035343839
-0.49428104
-0.001940511
-0.52899479
-0.0012549396
-0.5659929
-0.00098207287
-0.60534493
-0.00080322245
-0.64729866
-0.0006133263
-0.69214332
-0.00042878685
-0.74013112
-0.00028354616
-0.79147894
-0.00019063361
-0.84638723
-0.00014143599
-0.90507257
-0.00011915695
-0.96777493
-0.0001089017
-1.0347648
-9.8262326e-05
-1.1063473
-8.1754134e-05
-1.1828742
-5.9634413e-05
-1.2647258
-3.1782336e-05
-1.3523261
-0.021595949
-0.192071
-0.031110288
-0.19236298
-0.0082008924
-0.1951689
0.031128659
-0.18917616
0.035437736
-0.20887166
0.0067443175
-0.2255019
-0.036642281
-0.23813297
-0.043791319
-0.2477816
-0.018205849
-0.26318826
0.0087462663
-0.28712914
0.016264346
-0.31342085
0.0075665874
-0.33787562
-0.0046249574
-0.35969757
-0.011407331
-0.38097745
-0.011422356
-0.40443686
-0.0076972147
-0.43139888
-0.0039800415
-0.46163146
-0.0018518426
-0.4943697
-0.0010611354
-0.52918859
-0.00089049898
-0.56608447
-0.00082001507
-0.60532813
-0.0006808399
-0.64723114
-0.00049055169
-0.69208155
-0.00031259672
-0.74010207
-0.00018598361
-0.79148359
-0.00011435148
-0.84641432
-8.3194053e-05
-0.90510853
-7.5616759e-05
-0.96780822
-7.7092592e-05
-1.034786
-7.6137061e-05
-1.1063529
-6.8809295e-05
-1.182865
-5.3793355e-05
-1.2647038
-3.0264698e-05
-1.3522958
-0.02392349
-0.1882533
-0.034081739
-0.18909955
-0.0076320443
-0.19293183
0.035284156
-0.1993244
0.039513958
-0.19325238
0.0057373176
-0.20786466
-0.044214915
-0.21792926
-0.052789231
-0.22913506
-0.022364735
-0.24362272
0.012981902
-0.2674239
0.022803664
-0.29366846
0.011814505
-0.31766877
-0.0045062896
-0.33799429
-0.014296795
-0.3568081
-0.014687253
-0.37771256
-0.0096561123
-0.40247796
-0.004490005
-0.43088891
-0.0016032572
-0.46188005
-0.00067232503
-0.49475851
-0.00066426719
-0.52941482
-0.00079014868
-0.56611434
-0.00075586916
-0.60525311
-0.00058088582
-0.64714081
-0.00036832215
-0.69202583
-0.000195459
-0.74009259
-8.7518629e-05
-0.79151042
-3.643058e-05
-0.84646108
-2.4662098e-05
-0.90515949
-3.3696398e-05
-0.96785161
-4.7975253e-05
-1.0348141
-5.8020524e-05
-1.1063637
-5.951355e-05
-1.1828593
-5.0744746e-05
-1.2646833
-3.0126808e-05
-1.3522657
-0.025716138
-0.18446925
-0.036554183
-0.18578086
-0.0064605714
-0.19027102
0.040130785
-0.19777846
0.042605776
-0.20241622
0.0041189201
-0.19163398
-0.05243773
-0.19964185
-0.060933557
-0.20978494
-0.026730045
-0.22476974
0.017982266
-0.24862308
0.030602566
-0.2752228
0.017050486
-0.29890444
-0.0042785432
-0.31789652
-0.017987616
-0.33430346
-0.018933487
-0.35256187
-0.012222247
-0.37514642
-0.0050811403
-0.40188683
-0.0011291997
-0.43136297
-6.2193047e-06
-0.46254615
-0.00023660897
-0.49518617
-0.00068127046
-0.5295237
-0.00082728721
-0.56604292
-0.00070969964
-0.60512429
-0.00046617978
-0.64704295
-0.00023260343
-0.69198868
-7.0709463e-05
-0.7401094
1.5457549e-05
-0.79156231
4.2150432e-05
-0.84652789
3.1093983e-05
-0.90522428
3.7310654e-06
-0.96790332
-2.4002933e-05
-1.0348481
-4.5085956e-05
-1.1063781
-5.4414246e-05
-1.1828556
-5.0026674e-05
-1.2646634
-3.1261842e-05
-1.3522344
-0.026937212
-0.18092988
-0.03846884
-0.1825546
-0.0048773549
-0.18736407
0.045392256
-0.19553249
0.046310799
-0.20148348
0.0024624338
-0.20075973
-0.060714954
-0.18335676
-0.068192187
-0.19238322
-0.029398685
-0.2071163
0.024107486
-0.23089497
0.039887521
-0.25790803
0.02330075
-0.28147306
-0.0039636905
-0.29921929
-0.022667993
-0.31321614
-0.024383955
-0.328853
-0.015526259
-0.34925786
-0.0057647188
-0.37446284
-0.00035633664
-0.40265969
0.0010408714
-0.43241006
0.00047593394
-0.46325869
-0.00044009544
-0.49542735
-0.00090121143
-0.52944978
-0.00088237122
-0.56587025
-0.00062607431
-0.6049644
-0.00031596885
-0.64695959
-7.6618533e-05
-0.69198277
6.4875203e-05
-0.74015882
0.00012065619
-0.79164081
0.00011683698
-0.84661363
8.1530256e-05
-0.90530208
3.5559453e-05
-0.96796288
-6.9220827e-06
-1.0348863
-3.7928435e-05
-1.1063946
-5.3291633e-05
-1.1828523
-5.2088792e-05
-1.2646426
-3.3535731e-05
-1.3522009
-0.027582623
-0.17784044
-0.039792234
-0.17960648
-0.0030161593
-0.18441579
0.050819519
-0.19279134
0.050385837
-0.19960753
0.0011983161
-0.20021936
-0.06906315
-0.19241154
-0.074973081
-0.17657587
-0.031024354
-0.19075755
0.031618914
-0.21462773
0.050925133
-0.24193258
0.030929567
-0.26553685
-0.0036514815
-0.28178527
-0.028573974
-0.29331331
-0.031230096
-0.30637
-0.019727909
-0.32465135
-0.0065498312
-0.34847274
0.00081081163
-0.37562999
0.0025873959
-0.40420622
0.0015747641
-0.43350889
-7.9872243e-06
-0.4636908
-0.00096514357
-0.49536342
-0.0011258506
-0.5292063
-0.00087285029
-0.56562347
-0.00047050099
-0.60480986
-0.00012343707
-0.64691277
0.00010022408
-0.69201812
0.00020481209
-0.74024297
0.00022046144
-0.79174444
0.00018367834
-0.84671578
0.00012310727
-0.90538963
5.8308879e-05
-0.96802811
2.3793281e-06
-1.0349266
-3.6401803e-05
-1.1064115
-5.6561857e-05
-1.1828479
-5.6555716e-05
-1.2646196
-3.6701784e-05
-1.3521642
-0.027708332
-0.17539512
-0.040487279
-0.17714539
-0.0010603117
-0.18156233
0.056130358
-0.18972663
0.054741228
-0.19714673
0.00024213037
-0.19865135
-0.077071133
-0.19221138
-0.083728179
-0.18365644
-0.031704329
-0.17589589
0.040179681
-0.19931831
0.063230206
-0.2269328
0.040362287
-0.2513653
-0.0027816431
-0.26640669
-0.035812026
-0.27454722
-0.039671056
-0.28487235
-0.024904446
-0.30119346
-0.00744068
-0.3237605
0.0024783345
-0.35014027
0.0047697732
-0.37781237
0.0031821358
-0.40581359
0.00068906295
-0.43420594
-0.00099468412
-0.46366126
-0.0014773432
-0.49501192
-0.0012373303
-0.52884182
-0.00073192793
-0.56536205
-0.00023454063
-0.60469876
0.00010732536
-0.64691987
0.00028734914
-0.69210066
0.00033924016
-0.74036175
0.00031015719
-0.79187092
0.00023906939
-0.84683174
0.00015336361
-0.90548468
7.1448394e-05
-0.96809718
4.710641e-06
-1.0349677
-4.0356416e-05
-1.1064277
-6.3351357e-05
-1.1828411
-6.2812149e-05
-1.2645935
-4.0478328e-05
-1.3521237
-0.027280213
-0.17370544
-0.040606087
-0.17527631
0.0009191657
-0.17912487
0.061028834
-0.1864608
0.059086879
-0.19407228
-0.00032309233
-0.19658151
-0.084599041
-0.19112344
-0.092183115
-0.18375645
-0.037141464
-0.1782193
0.049549173
-0.18526538
0.076028645
-0.21211675
0.050178251
-0.23674876
-0.00087897104
-0.25326797
-0.044104129
-0.25811459
-0.049743957
-0.26447432
-0.03111342
-0.27866338
-0.0083914726
-0.30024267
0.0047787967
-0.32606096
0.0077337357
-0.35310423
0.0054339012
-0.38006413
0.0017423904
-0.40686692
-0.0009627878
-0.43423784
-0.0019620103
-0.4631766
-0.0017815991
-0.49446766
-0.0011326064
-0.52844114
-0.00044490141
-0.56515169
6.8486916e-05
-0.60465992
0.00035978136
-0.6469923
0.00046985795
-0.69223127
0.00046043347
-0.74051203
0.00038467746
-0.79201652
0.0002799501
-0.84695833
0.00017139429
-0.90558463
7.5043651e-05
-0.96816752
3.8494999e-07
-1.0350085
-4.9301302e-05
-1.1064417
-7.2857558e-05
-1.182831
-7.0368615e-05
-1.2645636
-4.4596626e-05
-1.3520791
-0.17293051
-0.02639013
-0.04018292
-0.1741286
0.0028507467
-0.17720789
0.065302232
-0.18339826
0.063208869
-0.19058279
-0.00062805666
-0.19376732
-0.0915269
-0.18965365
-0.10009826
-0.18320829
-0.042253676
-0.17864423
0.054259944
-0.18293007
0.088683726
-0.19792046
0.059654244
-0.22159275
0.0020626961
-0.23969043
-0.053416367
-0.24395573
-0.06166368
-0.24619486
-0.03848049
-0.25710725
-0.0093098688
-0.27774498
0.0078584182
-0.30332229
0.011640505
-0.32996773
0.0084776803
-0.35614801
0.0032588882
-0.38158063
-0.00083805023
-0.40699166
-0.0026118328
-0.43358802
-0.0025752106
-0.46238299
-0.0017346676
-0.49386559
-0.00078907264
-0.52809697
-4.1037335e-05
-0.56504216
0.00041055742
-0.6047107
0.00060896796
-0.64713141
0.00063460455
-0.69240545
0.0005612222
-0.74068857
0.00044013552
-0.79217671
0.00030502758
-0.84709196
0.00017722332
-0.90568681
6.9781838e-05
-0.96823691
-1.0555616e-05
-1.0350472
-6.2161681e-05
-1.1064524
-8.4367601e-05
-1.182817
-7.8595597e-05
-1.2645296
-4.875722e-05
-1.3520303
-0.17372277
-0.039390659
-0.17328562
-0.025029606
0.0043852376
-0.1756631
0.068832945
-0.18073861
0.06682194
-0.18701134
-0.000653077
-0.19055777
-0.097673424
-0.1876208
-0.10741219
-0.18233972
-0.046998613
-0.17846335
0.059505744
-0.18389003
0.099527927
-0.19377427
0.068438229
-0.20670445
0.0040643725
-0.22359442
-0.063185292
-0.22992151
-0.075867117
-0.22975229
-0.047745243
-0.23693011
-0.010136553
-0.25628056
0.011883953
-0.28177052
0.016639066
-0.30832085
0.012468316
-0.33395837
0.0053637569
-0.35825288
-0.00057278067
-0.3818459
-0.0034665848
-0.4061369
-0.0037012746
-0.43246195
-0.0026265788
-0.46149107
-0.001310262
-0.49334441
-0.00025337097
-0.52788464
0.00042876884
-0.56506037
0.00075356188
-0.60485529
0.00083387753
-0.64733068
0.00077121572
-0.69261544
0.00063652931
-0.74088497
0.00047500034
-0.79234668
0.00031442091
-0.84722916
0.00017168587
-0.90578871
5.654799e-05
-0.96830402
-2.6900788e-05
-1.0350825
-7.7830476e-05
-1.106459
-9.7001971e-05
-1.1827986
-8.69952e-05
-1.2644913
-5.2797589e-05
-1.3519775
-0.17483958
0.0055020454
-0.1745509
-0.038125378
-0.17493244
-0.023221131
0.07128761
-0.17811776
0.069739316
-0.18365598
-0.000491126
-0.18717329
-0.10285991
-0.18537129
-0.11379992
-0.18123306
-0.051371665
-0.17796667
0.065161374
-0.18411898
0.11091765
-0.19527975
0.079527928
-0.20486397
0.0036005602
-0.20624064
-0.074225809
-0.2125539
-0.092495749
-0.21329287
-0.059306568
-0.21819097
-0.011381521
-0.23568514
0.017067067
-0.26146368
0.022889396
-0.28802085
0.017541765
-0.3133943
0.008192245
-0.33678685
-0.00012747609
-0.35869818
-0.0045677989
-0.38074469
-0.0052556446
-0.40458253
-0.0039100261
-0.4311785
-0.0020853438
-0.46071599
-0.0005934215
-0.49300435
0.00039427274
-0.52785014
0.00090231293
-0.56520912
0.0010626458
-0.60508406
0.001019452
-0.64757892
0.00087318969
-0.6928521
0.00068466254
-0.74109463
0.00048966367
-0.79252192
0.00030930561
-0.84736678
0.00015607474
-0.90588824
3.6561489e-05
-0.96836748
-4.7156897e-05
-1.0351131
-9.5288881e-05
-1.1064607
-0.00011004634
-1.1827756
-9.5280931e-05
-1.2644488
-5.6549218e-05
-1.351921
-0.1763432
0.07279123
-0.17527346
0.006224603
-0.17658212
-0.036475705
-0.17732005
-0.021005962
0.071950617
-0.18032906
-0.00020677641
-0.18394033
-0.10693669
-0.1830965
-0.11909425
-0.18007696
-0.055246386
-0.17735834
0.07096478
-0.18377007
0.12274701
-0.19594834
0.091197408
-0.20694923
0.0089735266
-0.21023694
-0.086469203
-0.19399724
-0.10905366
-0.195996
-0.072160151
-0.20043929
-0.013325505
-0.21624698
0.023485489
-0.24210357
0.030503641
-0.26907792
0.023842906
-0.29432199
0.0118709
-0.31707296
0.00058592055
-0.33750025
-0.0059644217
-0.35730156
-0.0073625991
-0.37863773
-0.0057050445
-0.40278751
-0.0032050778
-0.43005877
-0.0011006122
-0.4602088
0.00029179384
-0.49290188
0.0010547585
-0.52800259
0.0013264158
-0.56547289
0.0013137394
-0.60537835
0.0011564878
-0.64786222
0.00093860808
-0.69310604
0.00070651536
-0.74131148
0.00048582065
-0.79269844
0.000291443
-0.84750215
0.00013197135
-0.90598365
1.1278961e-05
-0.96842591
-6.995918e-05
-1.0351385
-0.00011354203
-1.1064572
-0.00012299075
-1.1827479
-0.00010299346
-1.2644024
-5.9882958e-05
-1.3518611
-0.17775458
0.073361999
-0.17561265
0.07313042
-0.17680261
0.0064450925
-0.17941639
-0.034379363
-0.18015988
-0.018556165
0.00045838823
-0.18099423
-0.10978937
-0.18108766
-0.12312741
-0.17906334
-0.058418282
-0.17690507
0.07659811
-0.18299167
0.13451154
-0.1955346
0.10331133
-0.20806227
0.015362088
-0.21333779
-0.093269753
-0.20343639
-0.12338607
-0.17966483
-0.083983398
-0.18417275
-0.015572825
-0.19819197
0.031126058
-0.22388755
0.039676088
-0.25127601
0.03143736
-0.27667238
0.016558759
-0.29900985
0.0016331641
-0.3181202
-0.007704357
-0.33576032
-0.010157714
-0.35450644
-0.0081641224
-0.37617866
-0.0047729643
-0.40121963
-0.0018326703
-0.42932671
0.00011792842
-0.46003494
0.0012113348
-0.49305845
0.0016401281
-0.5283163
0.001667262
-0.56582642
0.0014961994
-0.60571806
0.0012434178
-0.64816703
0.00096935467
-0.69336888
0.00070462794
-0.74153029
0.00046586176
-0.79287286
0.0002628941
-0.84763307
0.00010116366
-0.90607353
-1.7482482e-05
-0.96847839
-9.4065287e-05
-1.035158
-0.00013179836
-1.1064484
-0.00013523098
-1.1827156
-0.00010998083
-1.2643523
-6.2779531e-05
-1.3517983
-0.17865892
0.0013627315
-0.17604982
0.073799171
-0.17622082
0.072548631
-0.17923619
0.0062648916
-0.18259039
-0.031948849
-0.18363465
-0.015946551
-0.1111827
-0.17960089
-0.1258047
-0.17841036
-0.060858089
-0.17662353
0.081897205
-0.18220416
0.14576215
-0.19424228
0.11553922
-0.20776249
0.021501371
-0.21420155
-0.099491955
-0.20711559
-0.13730597
-0.18951649
-0.094210917
-0.16943731
-0.017850687
-0.18189489
0.039670429
-0.20673634
0.050453538
-0.234665
0.040444994
-0.26028365
0.022343917
-0.28245754
0.0031291998
-0.30050588
-0.0098507573
-0.3159738
-0.013822853
-0.33209518
-0.011454896
-0.35121567
-0.0069124652
-0.37403915
-0.0028529529
-0.40019934
-0.00013659018
-0.42907219
0.0013831285
-0.46020673
0.0020238742
-0.4934422
0.0021003166
-0.52874935
0.0019080378
-0.56623826
0.0016089164
-0.60608356
0.0012840063
-0.64848168
0.00096943894
-0.6936337
0.00068237014
-0.7417468
0.00043249878
-0.79304246
0.00022589037
-0.8477578
6.5601328e-05
-0.90615661
-4.8283096e-05
-0.96852417
-0.00011841169
-1.0351713
-0.00014936065
-1.1064342
-0.00014647618
-1.1826791
-0.00011613726
-1.2642989
-6.5173154e-05
-1.3517332
-0.17885393
-0.11098769
-0.17727031
0.0025832212
-0.17596765
0.07354601
-0.17753857
0.070851014
-0.1821568
0.0058312985
-0.18629818
-0.029285312
-0.18746885
-0.013341551
-0.12730158
-0.17810402
-0.062558645
-0.17670981
0.086615354
-0.18134168
0.15595877
-0.19240079
0.1273754
-0.20607846
0.028117544
-0.21437866
-0.10566767
-0.20802584
-0.15129176
-0.1931298
-0.1109526
-0.1727748
-0.020054425
-0.16723357
0.048624119
-0.19084858
0.06279124
-0.21907404
0.050853967
-0.24507398
0.029360339
-0.26730007
0.0051518069
-0.28448014
-0.012432602
-0.29792404
-0.018542613
-0.31125404
-0.015795518
-0.32775455
-0.0097567289
-0.34837141
-0.0042276184
-0.37266449
-0.00048919236
-0.39984674
0.0015951551
-0.42928422
0.0025030289
-0.46068588
0.0026417965
-0.49398368
0.0024137383
-0.52925505
0.0020493456
-0.56667869
0.0016584181
-0.60645797
0.0012845831
-0.64879682
0.00094379831
-0.69389512
0.00064342955
-0.74195773
0.00038856417
-0.79320514
0.00018274258
-0.84787494
2.7193455e-05
-0.90623209
-7.9692397e-05
-0.96856289
-0.00014215647
-1.0351785
-0.00016571368
-1.106415
-0.00015653244
-1.1826387
-0.00012129119
-1.2642428
-6.7093034e-05
-1.3516661
-0.17886147
-0.12729404
-0.17937318
-0.10888483
-0.17703577
0.0036513363
-0.17644875
0.072456186
-0.17949309
0.068187303
-0.18552906
0.0050621787
-0.19019445
-0.026559707
-0.19138044
-0.010933579
-0.063117509
-0.17754515
0.090486758
-0.18058121
0.16472695
-0.19010986
0.13825081
-0.20327621
0.034514446
-0.21247536
-0.11145733
-0.208589
-0.16427645
-0.19504115
-0.12739563
-0.17668677
-0.03396774
-0.15886149
0.05795892
-0.17656837
0.07622188
-0.20427922
0.062692315
-0.23091239
0.037524998
-0.25323864
0.0077806412
-0.2699289
-0.015549192
-0.28136355
-0.024557036
-0.29190961
-0.021391051
-0.30565851
-0.01345875
-0.32405253
-0.0060237458
-0.34657528
-0.00094605691
-0.37220762
0.0018761495
-0.40012774
0.0031157008
-0.42989689
0.0033323722
-0.46137646
0.0030448847
-0.49461482
0.0025855435
-0.52979125
0.0021039813
-0.56712425
0.0016554601
-0.60682885
0.0012527441
-0.64910577
0.00089763094
-0.69414933
0.00059150055
-0.74216066
0.00033686935
-0.79335926
0.00013569161
-0.84798344
-1.2395769e-05
-0.90629939
-0.00011070455
-0.96859434
-0.00016465118
-1.0351796
-0.00018063391
-1.1063909
-0.00016518743
-1.1825948
-0.00012556276
-1.2641844
-6.8553768e-05
-1.3515975
-0.17962614
-0.06235284
-0.18121883
-0.12544839
-0.18046112
-0.10545948
-0.1777714
0.0049739825
-0.17755186
0.070514956
-0.1819241
0.064582339
-0.18906935
0.0039370782
-0.19398443
-0.023955716
-0.19522035
-0.0089182647
0.093747257
-0.18080565
0.17184189
-0.18769615
0.14762797
-0.19948701
0.040649663
-0.20941142
-0.11678742
-0.20714526
-0.17683463
-0.19603082
-0.14317513
-0.17926165
-0.048215535
-0.16243898
0.057354273
-0.15825684
0.090714637
-0.19106113
0.075836337
-0.21742324
0.046923092