/*--------------------------------*- C++ -*----------------------------------*\
| =========                 |                                                 |
| \\      /  F ield         | OpenFOAM: The Open Source CFD Toolbox           |
|  \\    /   O peration     | Version:  5.0                                   |
|   \\  /    A nd           | Web:      www.OpenFOAM.org                      |
|    \\/     M anipulation  |                                                 |
\*---------------------------------------------------------------------------*/
FoamFile
{
    version     2.0;
    format      ascii;
    class       surfaceScalarField;
    location    "300";
    object      phi_0;
}
// * * * * * * * * * * * * * * * * * * * * * * * * * * * * * * * * * * * * * //

dimensions      [0 3 -1 0 0 0 0];

internalField   nonuniform List<scalar> 
18820
(
-0.00039661674
-1.358011
-0.00076563695
-1.2700032
-0.00037816832
-1.3576329
-0.0011067919
-1.1877892
-0.00073149643
-1.2696498
-0.00036051886
-1.3572723
-0.0014194355
-1.1109619
-0.001059895
-1.1874608
-0.00069750595
-1.2693129
-0.00035132411
-1.356921
-0.001703006
-1.0391547
-0.0013629901
-1.1106588
-0.001011429
-1.1871469
-0.00067927976
-1.2689849
-0.00035065658
-1.3565704
-0.0019573182
-0.97202067
-0.0016401016
-1.0388776
-0.001303073
-1.1103672
-0.00098534173
-1.1868408
-0.00067792253
-1.2686576
-0.00035113609
-1.3562192
-0.0021819039
-0.90924441
-0.0018907971
-0.97176998
-0.0015724741
-1.0386082
-0.0012713691
-1.1100812
-0.00098409745
-1.1865346
-0.0006803159
-1.2683284
-0.00034349967
-1.3558757
-0.0023756605
-0.85053544
-0.0021150752
-0.90902013
-0.0018187472
-0.9715237
-0.0015385106
-1.0383411
-0.0012710556
-1.1097942
-0.00099046398
-1.1862245
-0.00066800593
-1.2680039
-0.00032605737
-1.3555497
-0.002536686
-0.79562579
-0.0023134423
-0.85033707
-0.0020414844
-0.90879739
-0.0017864213
-0.97127579
-0.0015403549
-1.0380718
-0.0012830717
-1.1095016
-0.00097677219
-1.1859157
-0.00063633474
-1.2676937
-0.00030273521
-1.3552469
-0.0026624923
-0.74426501
-0.0024875259
-0.79545171
-0.0022414085
-0.85013715
-0.0020146797
-0.90856913
-0.0017927378
-0.97102341
-0.0015598053
-1.037795
-0.0012710133
-1.1092073
-0.00093447679
-1.1856176
-0.00059186908
-1.2674045
-0.00028008885
-1.3549668
-0.0027515959
-0.69622521
-0.0026396683
-0.74411287
-0.0024218984
-0.79527122
-0.0022231874
-0.84992864
-0.002028316
-0.90833355
-0.0018226188
-0.97076059
-0.0015520439
-1.037514
-0.0012226251
-1.1089192
-0.0008711988
-1.1853383
-0.00054763003
-1.267137
-0.00026257804
-1.3547043
-0.0028027158
-0.65129345
-0.0027725995
-0.69609228
-0.0025905029
-0.74394426
-0.0024124313
-0.79508197
-0.0022464621
-0.84971049
-0.0020724506
-0.90808372
-0.001822176
-0.97049046
-0.0015019285
-1.0372347
-0.0011442945
-1.1086461
-0.00080672635
-1.1850792
-0.00051273924
-1.2668868
-0.00025055132
-1.3544537
-0.0028317906
-0.60924834
-0.0029085663
-0.65115748
-0.0027629173
-0.69591986
-0.0025843049
-0.74377239
-0.002444827
-0.79488361
-0.00230849
-0.84947445
-0.002083169
-0.90782273
-0.0017742736
-0.97021812
-0.0014130901
-1.0369659
-0.0010614139
-1.1083914
-0.00075544545
-1.1848365
-0.00048851715
-1.2666489
-0.00024096462
-1.3542127
-0.0028441126
-0.5698964
-0.0030730896
-0.60908381
-0.0029546571
-0.65096574
-0.002741604
-0.69576256
-0.0026176469
-0.74359957
-0.0025266128
-0.79466548
-0.0023362586
-0.84922136
-0.0020416813
-0.90755532
-0.001678207
-0.969953
-0.0013146438
-1.0367127
-0.00099479168
-1.1081521
-0.00071950844
-1.1846055
-0.00046964577
-1.2664202
-0.00022976034
-1.353983
-0.002849346
-0.53308088
-0.003252491
-0.569717
-0.0031445897
-0.60889388
-0.0028648444
-0.6508425
-0.0027485798
-0.69563163
-0.0027182926
-0.74340789
-0.0025826714
-0.79441907
-0.0023068101
-0.84895623
-0.001940458
-0.90729307
-0.0015668668
-0.96970078
-0.001233749
-1.0364737
-0.00094776474
-1.1079238
-0.00069141381
-1.1843837
-0.00044835235
-1.2662016
-0.00021404966
-1.3537689
-0.002853863
-0.49864129
-0.0034660382
-0.53286733
-0.0033091567
-0.56955243
-0.0029304681
-0.60882826
-0.0028156053
-0.65077548
-0.002873027
-0.69547689
-0.0028243824
-0.74316618
-0.0025746051
-0.79415127
-0.002201395
-0.8486953
-0.0018178049
-0.90704213
-0.0014735123
-0.96946101
-0.0011762478
-1.0362452
-0.00091057054
-1.1077046
-0.00066021335
-1.1841718
-0.00041858657
-1.265997
-0.0001931953
-1.3535757
-0.0028747124
-0.46642367
-0.0037228509
-0.49838448
-0.0034576418
-0.53271884
-0.0029536808
-0.56952922
-0.0028132086
-0.60883065
-0.0029863498
-0.65066216
-0.0030665881
-0.69523469
-0.0028537648
-0.74288702
-0.002464125
-0.79388854
-0.0020667905
-0.84844631
-0.001714073
-0.90680157
-0.0014071444
-0.96923012
-0.0011305026
-1.0360253
-0.00086913276
-1.1074957
-0.00061736878
-1.1839731
-0.00037847269
-1.2658118
-0.00016881353
-1.3534069
-0.0028912503
-0.43629225
-0.0040648774
-0.46608165
-0.0036194859
-0.49822263
-0.002908862
-0.53276366
-0.0027534957
-0.56958893
-0.0030647544
-0.60875225
-0.0033214767
-0.65040727
-0.0031572275
-0.69493122
-0.0027338233
-0.74261732
-0.0023122491
-0.79364308
-0.0019539982
-0.84820638
-0.0016416995
-0.90656701
-0.0013543087
-0.96900631
-0.0010791013
-1.0358153
-0.00081306572
-1.1073
-0.00055957224
-1.183792
-0.00033083057
-1.2656498
-0.00014389916
-1.353263
-0.0029650214
-0.40808838
-0.0045070958
-0.43585003
-0.0038104994
-0.46589063
-0.0027996067
-0.49833189
-0.0025967563
-0.5329204
-0.0031147487
-0.56953894
-0.0036015746
-0.60847215
-0.0035064183
-0.65005808
-0.0030190146
-0.69464603
-0.0025512855
-0.74237828
-0.0021895736
-0.79340751
-0.0018796276
-0.84796846
-0.0015846638
-0.90633666
-0.0012940912
-0.96879132
-0.0010097137
-1.0356187
-0.00073851433
-1.1071211
-0.00048949848
-1.1836333
-0.00028161702
-1.265512
-0.00012145116
-1.3531416
-0.0030135074
-0.38170503
-0.0051158208
-0.40747966
-0.0040744054
-0.43558612
-0.0025769666
-0.46611327
-0.0022906632
-0.49863798
-0.0031461581
-0.53288899
-0.0039166503
-0.56922386
-0.0039214606
-0.60805711
-0.0033296674
-0.64974742
-0.0027805956
-0.69441672
-0.0024145146
-0.74215334
-0.0021184247
-0.79316871
-0.0018232428
-0.84772988
-0.0015179866
-0.90611276
-0.0012120128
-0.96858902
-0.000918174
-1.035439
-0.00064751252
-1.1069631
-0.00041528864
-1.1834996
-0.00023688643
-1.2653966
-0.00010332995
-1.3530382
-0.0031606261
-0.35694536
-0.0058516708
-0.38096918
-0.0043922883
-0.40716178
-0.0022261279
-0.43593696
-0.0017813842
-0.46662255
-0.003122124
-0.49866201
-0.0042988361
-0.53250681
-0.0044235614
-0.56872176
-0.0036798406
-0.60770693
-0.0029935206
-0.6495345
-0.0026182187
-0.69421302
-0.0023525893
-0.74191918
-0.0020706171
-0.79292134
-0.0017544412
-0.84749342
-0.0014242598
-0.90590051
-0.0011031128
-0.96840408
-0.00080667905
-1.0352799
-0.00054812573
-1.1068302
-0.00034685173
-1.1833896
-0.00020026805
-1.2652997
-8.9911729e-05
-1.3529483
-0.0032235421
-0.33376248
-0.0068039807
-0.35599305
-0.0048518485
-0.38050962
-0.0016850257
-0.40770288
-0.001013375
-0.43670497
-0.0030318862
-0.46671279
-0.0047933559
-0.49816749
-0.0050413742
-0.53188899
-0.0040650124
-0.56833659
-0.0031843134
-0.60751614
-0.0027844787
-0.64936824
-0.0025713733
-0.69399423
-0.0023254971
-0.7416643
-0.0020074925
-0.79266829
-0.0016510789
-0.8472666
-0.0012972133
-0.90570641
-0.00096975669
-0.968241
-0.00068235656
-1.0351456
-0.00045425695
-1.1067228
-0.00029052912
-1.1832994
-0.00017245865
-1.2652171
-8.0470392e-05
-1.3528679
-0.0034892574
-0.31183141
-0.0078237642
-0.33274269
-0.0053997183
-0.35544518
-0.00098107236
-0.38121357
7.5188315e-05
-0.40879144
-0.0028327637
-0.43690409
-0.0054533945
-0.46605275
-0.005842444
-0.49736642
-0.0045045962
-0.53144941
-0.0033213319
-0.56819957
-0.0028821283
-0.60741849
-0.0027565601
-0.64918305
-0.0025833334
-0.6937364
-0.0022817238
-0.74139006
-0.0018984417
-0.79242092
-0.001504729
-0.84705909
-0.0011396588
-0.90553651
-0.0008192533
-0.96810411
-0.000561826
-1.0350381
-0.00037605609
-1.1066373
-0.00024756131
-1.1832243
-0.00015223932
-1.2651453
-7.3823867e-05
-1.352794
-0.0039585082
-0.29112074
-0.0091910841
-0.31046409
-0.006151836
-0.33199058
3.8917181e-05
-0.35646517
0.0015500207
-0.38268841
-0.0025214823
-0.40910272
-0.0063325434
-0.43602495
-0.0068992126
-0.46499598
-0.0050176161
-0.4968534
-0.0033773135
-0.53139343
-0.0028768922
-0.56820481
-0.0028739021
-0.60730115
-0.0028353932
-0.64893099
-0.002583334
-0.69343479
-0.0021747287
-0.74111378
-0.001731025
-0.79219463
-0.001319328
-0.84687942
-0.00096042881
-0.90539534
-0.000670359
-0.96799557
-0.00045977056
-1.0349543
-0.00031592052
-1.1065689
-0.00021576685
-1.1831608
-0.00013778274
-1.2650814
-6.8826613e-05
-1.3527252
-0.0044449553
-0.27228488
-0.010750152
-0.28956168
-0.00695311
-0.30966281
0.0011850964
-0.33313675
0.0035023862
-0.35841754
-0.0020091138
-0.38320077
-0.0075054109
-0.40792986
-0.0083029166
-0.43462124
-0.0056356253
-0.46437797
-0.003316482
-0.49691424
-0.0027070697
-0.53156325
-0.0029128182
-0.56816589
-0.0030701797
-0.60706636
-0.002921001
-0.64859332
-0.0024931279
-0.69311639
-0.0019836591
-0.74086114
-0.0015116409
-0.79200231
-0.0011070762
-0.84673277
-0.00078107175
-0.90528462
-0.00054289393
-0.96791245
-0.00037988101
-1.0348904
-0.00027100986
-1.1065137
-0.00019209543
-1.1831064
-0.00012729861
-1.2650229
-6.4554111e-05
-1.3526607
-0.004880238
-0.2543818
-0.012533017
-0.27050201
-0.0077576334
-0.28875715
0.0028981174
-0.31137584
0.0059257535
-0.33556012
-0.0013684138
-0.35905824
-0.0090447909
-0.38166139
-0.010137845
-0.40609493
-0.0063970153
-0.43385985
-0.0031036218
-0.46459083
-0.002304148
-0.49731716
-0.0028519881
-0.53162408
-0.0032918684
-0.5679442
-0.0033118921
-0.60667547
-0.0028733949
-0.64821306
-0.0022742626
-0.69282578
-0.0017198366
-0.74065295
-0.0012592243
-0.79185017
-0.00089445256
-0.84661939
-0.00062665528
-0.90520086
-0.000441685
-0.96785065
-0.00031907812
-1.0348423
-0.00023689556
-1.1064689
-0.00017417237
-1.1830596
-0.00011894163
-1.2649685
-6.0293452e-05
-1.3526004
-0.0060942711
-0.23581316
-0.014318063
-0.25259675
-0.0089380142
-0.26932163
0.0049606326
-0.29081967
0.0088545168
-0.3143046
-0.0003942904
-0.33653425
-0.011078291
-0.35702474
-0.012526181
-0.37927306
-0.0073407583
-0.40515118
-0.0026939988
-0.43426947
-0.0015860355
-0.46530895
-0.0026165818
-0.49755256
-0.0035231665
-0.53139278
-0.0037750272
-0.56748107
-0.0033483475
-0.60620052
-0.0026201461
-0.64786717
-0.0019475809
-0.69259804
-0.0014153889
-0.74049678
-0.0010091988
-0.79173542
-0.00071175782
-0.84653429
-0.00050302466
-0.90513952
-0.00036292482
-0.9678068
-0.00027222618
-1.034807
-0.00020985919
-1.1064332
-0.00015998762
-1.1830185
-0.0001107622
-1.2649181
-5.5557464e-05
-1.3525448
-0.0077655196
-0.21725653
-0.016834911
-0.23329631
-0.010340213
-0.25119456
0.0074693127
-0.27183031
0.01232575
-0.2942909
0.00060257467
-0.31530146
-0.01362
-0.33399254
-0.015549045
-0.35400187
-0.0085285758
-0.37808524
-0.0020384135
-0.40580677
-0.00044800017
-0.43540751
-0.002123495
-0.46580203
-0.0037592213
-0.49731651
-0.0043453893
-0.53082242
-0.0039481177
-0.5668813
-0.0030475453
-0.60577312
-0.0022002535
-0.6476145
-0.0015715467
-0.69244188
-0.0011210669
-0.74038491
-0.00079712434
-0.79165005
-0.00056543846
-0.84647187
-0.00040504819
-0.9050974
-0.00030067845
-0.96777835
-0.00023427759
-1.0347826
-0.00018723497
-1.106406
-0.00014692008
-1.1829824
-0.00010132152
-1.2648723
-5.0236212e-05
-1.3524946
-0.0095151586
-0.20031711
-0.019378302
-0.21471314
-0.011141999
-0.23249453
0.010160001
-0.25388524
0.01647827
-0.27598283
0.0017134707
-0.2954018
-0.016777404
-0.31214406
-0.019379188
-0.33016239
-0.0099848103
-0.35254564
-0.0010709729
-0.37905268
0.0012224623
-0.40747723
-0.0012785816
-0.43625242
-0.0039810862
-0.46558017
-0.0050809396
-0.49658096
-0.0047123255
-0.53005821
-0.0035833528
-0.56634549
-0.0024841873
-0.60548919
-0.0017208899
-0.64746516
-0.0012213908
-0.69234156
-0.00087856597
-0.74030347
-0.00062926226
-0.79158623
-0.00044819833
-0.84642872
-0.00032557951
-0.9050725
-0.00024902299
-0.9677636
-0.00020123961
-1.0347686
-0.0001665761
-1.1063863
-0.00013263391
-1.1829511
-9.0456694e-05
-1.2648321
-4.4713719e-05
-1.3524499
-0.011341305
-0.18442643
-0.021745987
-0.19794943
-0.010946379
-0.21490876
0.014187786
-0.23652231
0.021000459
-0.25840743
0.003121072
-0.27739043
-0.020754167
-0.29142503
-0.024024294
-0.30749895
-0.011798048
-0.32834916
0.00029123727
-0.35390785
0.0035721306
-0.38140235
2.3398072e-05
-0.40877921
-0.0041643109
-0.4360692
-0.0060463926
-0.46461471
-0.0057252897
-0.49556799
-0.0042552577
-0.52938631
-0.0028088835
-0.56602079
-0.0018503606
-0.60535971
-0.0012955448
-0.647391
-0.00094722852
-0.6922729
-0.00069274305
-0.74023999
-0.0004948115
-0.79153962
-0.00035088855
-0.84640341
-0.00025791007
-0.90506361
-0.00020334798
-0.96776149
-0.00017081656
-1.0347643
-0.00014595576
-1.106373
-0.00011634316
-1.1829252
-7.93424e-05
-1.2647974
-3.9606998e-05
-1.3524102
-0.015073904
-0.19938157
-0.02393529
-0.18223713
-0.010279722
-0.19861608
0.01934365
-0.22006463
0.026059969
-0.24158182
0.0054863175
-0.26077268
-0.025554963
-0.27258963
-0.02946929
-0.28598004
-0.013880628
-0.30541637
0.0021536284
-0.33021155
0.0067385648
-0.35707428
0.0019075968
-0.38328655
-0.004283188
-0.40866033
-0.0073181542
-0.43479744
-0.0070879754
-0.46325203
-0.0051235353
-0.49469972
-0.0031782703
-0.52901692
-0.0019424192
-0.56592873
-0.001320195
-0.60533506
-0.00098765555
-0.64735058
-0.00075066845
-0.69221497
-0.0005466643
-0.74018814
-0.00038120305
-0.7915093
-0.00026576416
-0.84639556
-0.00019724706
-0.90506971
-0.00016115142
-0.96777116
-0.00014115749
-1.0347691
-0.00012363065
-1.1063657
-9.9122294e-05
-1.1829054
-6.9236329e-05
-1.2647678
-3.5418139e-05
-1.3523748
-0.018363145
-0.19593155
-0.027950546
-0.19536632
-0.0090728381
-0.18344401
0.024818893
-0.20409133
0.031245078
-0.22524973
0.0077046849
-0.24380019
-0.030185872
-0.25614177
-0.035943211
-0.26611571
-0.016243185
-0.28361748
0.0046793395
-0.30794209
0.010892049
-0.33436503
0.0044923675
-0.35965905
-0.0043017219
-0.38326801
-0.0089839501
-0.40699454
-0.0089273405
-0.43295807
-0.0062676278
-0.46210794
-0.0035961455
-0.49428184
-0.0019739654
-0.52898537
-0.0012615725
-0.56598736
-0.00097542318
-0.6053473
-0.00079305504
-0.64730819
-0.00060445058
-0.69215718
-0.00042216234
-0.74014718
-0.00027902173
-0.79149604
-0.00018790495
-0.8464049
-0.00014032692
-0.90509054
-0.00011941923
-0.9677929
-0.00011016531
-1.0347826
-0.00010007879
-1.1063647
-8.3516551e-05
-1.1828911
-6.0950422e-05
-1.2647423
-3.2467175e-05
-1.3523424
-0.021179546
-0.19216538
-0.03149769
-0.1923844
-0.0094332151
-0.19500594
0.030399691
-0.18902481
0.035981369
-0.20882762
0.0081478827
-0.22569293
-0.035543347
-0.23844272
-0.044078142
-0.24800684
-0.019228403
-0.2631305
0.0079589247
-0.28689706
0.016162622
-0.31321266
0.0079253676
-0.33779803
-0.0041997485
-0.35976103
-0.011150037
-0.38110193
-0.011385438
-0.40453644
-0.0077865212
-0.43143918
-0.0040762843
-0.4616278
-0.001905203
-0.4943506
-0.0010731226
-0.52917382
-0.0008809469
-0.56608183
-0.00080479748
-0.60533555
-0.00066793842
-0.6472447
-0.00048133691
-0.69209801
-0.00030657367
-0.74011963
-0.00018239355
-0.79150155
-0.00011275867
-0.84643247
-8.3228715e-05
-0.90512673
-7.6855483e-05
-0.96782621
-7.9087477e-05
-1.0348036
-7.8334253e-05
-1.1063699
-7.0705553e-05
-1.1828814
-5.5104405e-05
-1.2647197
-3.0914581e-05
-1.3523114
-0.023506343
-0.188342
-0.034542756
-0.18912032
-0.0090606252
-0.19275699
0.034557591
-0.19916384
0.040184814
-0.19322825
0.0074137087
-0.20809344
-0.042953341
-0.21828294
-0.053131565
-0.22938929
-0.023662641
-0.2435726
0.011972978
-0.26714455
0.022682411
-0.29341685
0.012283837
-0.31757113
-0.0039230485
-0.33807473
-0.013938142
-0.35697292
-0.014640921
-0.37784644
-0.0097920375
-0.40253092
-0.004636219
-0.43087924
-0.0016853932
-0.46184761
-0.00069266213
-0.49473107
-0.00065064129
-0.52940413
-0.00076778115
-0.56611885
-0.00073696801
-0.60526653
-0.00056783514
-0.6471582
-0.00036024939
-0.69204433
-0.0001908246
-0.7401112
-8.5396849e-05
-0.79152892
-3.6204932e-05
-0.84647949
-2.5805848e-05
-0.90517778
-3.5764414e-05
-0.96786953
-5.0485928e-05
-1.0348314
-6.0408653e-05
-1.1063802
-6.1424296e-05
-1.182875
-5.2003855e-05
-1.2646986
-3.0729228e-05
-1.3522807
-0.025301486
-0.18454836
-0.037083281
-0.18580148
-0.0080882449
-0.1900927
0.039418146
-0.19761755
0.043374368
-0.2023534
0.0060625341
-0.19187708
-0.051078476
-0.19996831
-0.061440988
-0.20997351
-0.028348821
-0.22470311
0.016687196
-0.24828682
0.030464106
-0.27492624
0.017651896
-0.29878491
-0.003494786
-0.31799939
-0.017494161
-0.33451871
-0.018875946
-0.3527379
-0.012422863
-0.37521562
-0.0052976572
-0.40186949
-0.0012518369
-0.4313128
-3.8683296e-05
-0.46250159
-0.00021768548
-0.49516402
-0.00064784132
-0.52952407
-0.00080032791
-0.56605549
-0.00069112584
-0.60514323
-0.00045526676
-0.64706319
-0.00022673221
-0.69200843
-6.8072546e-05
-0.74012852
1.593974e-05
-0.79158106
4.1102629e-05
-0.8465464
2.8991555e-05
-0.90524253
1.1584554e-06
-0.96792117
-2.679185e-05
-1.034865
-4.7514795e-05
-1.1063941
-5.6253136e-05
-1.1828708
-5.1232987e-05
-1.2646781
-3.1810568e-05
-1.3522489
-0.026526899
-0.18099641
-0.039058607
-0.18257303
-0.0066991038
-0.18719062
0.044702039
-0.19537659
0.047175915
-0.2014191
0.004676197
-0.20096706
-0.059292152
-0.1836634
-0.068881525
-0.19252777
-0.03132745
-0.20699489
0.022482444
-0.23049836
0.039734649
-0.25755736
0.02405837
-0.28133272
-0.0029258468
-0.29935385
-0.022000814
-0.31349274
-0.024313841
-0.32908082
-0.015813997
-0.34934676
-0.0060779307
-0.37443534
-0.00053490517
-0.40258642
0.0009912426
-0.43234273
0.00050194607
-0.46322122
-0.00039047676
-0.49542139
-0.00086137107
-0.52946303
-0.00085525264
-0.56589136
-0.00061102921
-0.60498747
-0.00030859925
-0.64698132
-7.3566148e-05
-0.69200293
6.5421926e-05
-0.740178
0.00011962022
-0.79165958
0.00011473112
-0.84663214
7.8748405e-05
-0.90532012
3.2494527e-05
-0.96798046
-9.8145301e-06
-1.0349027
-4.0274221e-05
-1.1064101
-5.5033587e-05
-1.182867
-5.3181268e-05
-1.2646567
-3.402917e-05
-1.3522149
-0.027178154
-0.17789204
-0.040432939
-0.17962208
-0.0050174986
-0.18425464
0.050153643
-0.19264222
0.051344869
-0.19954555
0.0036920846
-0.20043498
-0.067535427
-0.19272378
-0.075837945
-0.17670698
-0.033259957
-0.19059526
0.029667716
-0.21418016
0.050742493
-0.24150621
0.031853863
-0.26535285
-0.0023049389
-0.28195363
-0.027690525
-0.29366414
-0.031149591
-0.30665699
-0.020130786
-0.32476403
-0.0069926126
-0.34843208
0.00055716
-0.37552741
0.0025145979
-0.40410977
0.0016104009
-0.43345118
6.4556791e-05
-0.46367625
-0.00090474191
-0.49537801
-0.0010867297
-0.52923155
-0.00085133878
-0.56565105
-0.00046123779
-0.60483483
-0.00012024374
-0.64693464
0.00010046288
-0.69203797
0.0002035405
-0.74026192
0.0002182435
-0.79176309
0.00018079777
-0.84673419
0.00011990602
-0.90540753
5.5144238e-05
-0.96804542
-1.4220398e-07
-1.0349429
-3.8622008e-05
-1.1064265
-5.8153763e-05
-1.182862
-5.7537986e-05
-1.2646332
-3.7146587e-05
-1.3521777
-0.027310739
-0.17543238
-0.041169389
-0.17715559
-0.0032179006
-0.18142168
0.055489246
-0.18959024
0.055787989
-0.19708534
0.0030191228
-0.19887258
-0.075444759
-0.19252565
-0.084666645
-0.18389508
-0.034268907
-0.17569803
0.037919466
-0.19884701
0.063044884
-0.22648255
0.041460833
-0.25111318
-0.0010746206
-0.26658317
-0.034674683
-0.27496947
-0.039589948
-0.28522378
-0.025456697
-0.30133107
-0.0080538745
-0.32370277
0.0021266997
-0.35000162
0.0046667687
-0.37767958
0.0032304391
-0.40572981
0.00079337517
-0.43418
-0.0009040039
-0.46367699
-0.0014203149
-0.49504443
-0.0012068947
-0.52887599
-0.00072000205
-0.56539229
-0.00023174478
-0.60472333
0.00010653767
-0.64694072
0.00028530302
-0.69211974
0.00033665544
-0.74038033
0.00030712911
-0.79188942
0.0002357467
-0.84685003
0.00015000125
-0.90550239
6.8325838e-05
-0.96811388
2.0341715e-06
-1.0349835
-4.2420385e-05
-1.1064423
-6.4801256e-05
-1.1828548
-6.3698317e-05
-1.2646066
-4.0886067e-05
-1.3521368
-0.026887601
-0.17372689
-0.041321708
-0.17528006
-0.0013638782
-0.17900961
0.060410302
-0.18634274
0.060213614
-0.19401587
0.00273614
-0.19680236
-0.082890192
-0.19142715
-0.093188838
-0.18400346
-0.04000328
-0.17816071
0.046998866
-0.18477743
0.07587232
-0.21167445
0.051507318
-0.23652903
0.0012542822
-0.25344208
-0.042659448
-0.25859841
-0.049671509
-0.26488791
-0.031854959
-0.27882552
-0.0092226171
-0.30016233
0.0043024009
-0.32587847
0.0075923059
-0.35292716
0.0054984785
-0.37994762
0.0018897612
-0.4068262
-0.00082926387
-0.43425474
-0.0018779171
-0.46321939
-0.0017389357
-0.49451239
-0.0011171437
-0.52847885
-0.00044336254
-0.56518067
6.551251e-05
-0.60468231
0.00035600106
-0.64701141
0.00046636148
-0.69224944
0.00045707331
-0.74053028
0.00038125412
-0.79203493
0.00027647791
-0.84697651
0.00016804165
-0.9056021
7.2026332e-05
-0.96818388
-2.1340346e-06
-1.0350238
-5.1202713e-05
-1.1064559
-7.4177975e-05
-1.1828443
-7.1183014e-05
-1.2645763
-4.4983794e-05
-1.3520919
-0.17293701
-0.025996903
-0.040917329
-0.17413127
0.00047519268
-0.17711913
0.06470603
-0.18330534
0.064403167
-0.19053229
0.002699676
-0.1939794
-0.089749648
-0.1899429
-0.10116196
-0.18345403
-0.045420059
-0.17858668
0.051327639
-0.18248948
0.088595658
-0.19750077
0.061235068
-0.2214022
0.0046031177
-0.23987787
-0.051574815
-0.24452671
-0.061579834
-0.24669008
-0.039448011
-0.25729485
-0.010413014
-0.27763513
0.0072280208
-0.30308795
0.011452219
-0.32973838
0.0085624585
-0.35599114
0.0034629377
-0.3815208
-0.00064555829
-0.4070099
-0.002487921
-0.43364473
-0.0025148195
-0.4624435
-0.0017152856
-0.49391425
-0.0007896929
-0.52813252
-4.8224268e-05
-0.56506693
0.00040351112
-0.60472982
0.00060362191
-0.64714867
0.00063050342
-0.69242287
0.00055763405
-0.74070666
0.00043666031
-0.79219511
0.00030160377
-0.84711007
0.00017399025
-0.90570407
6.6927089e-05
-0.96825294
-1.2913006e-05
-1.0350621
-6.3916997e-05
-1.1064661
-8.5589711e-05
-1.1828299
-7.9370503e-05
-1.2645419
-4.9139128e-05
-1.3520427
-0.17372475
-0.040129596
-0.17327819
-0.024633051
0.001955292
-0.17561137
0.068257535
-0.18067063
0.068069689
-0.18697186
0.0029175742
-0.19075019
-0.095847345
-0.18788171
-0.10852697
-0.1825779
-0.050465191
-0.17840889
0.056176335
-0.18343537
0.099368842
-0.19326267
0.070287412
-0.20655312
0.0070771275
-0.22387621
-0.060873895
-0.23057879
-0.075745233
-0.23036131
-0.048962889
-0.2371752
-0.011576528
-0.25613134
0.011068494
-0.2814756
0.016396145
-0.30803188
0.012577383
-0.33375331
0.0056393069
-0.35816751
-0.00030139192
-0.38186496
-0.0032859496
-0.40621187
-0.0036151425
-0.43254441
-0.0026024962
-0.46155629
-0.0013151937
-0.49338874
-0.00026738153
-0.52791336
0.00041599431
-0.56507942
0.00074476995
-0.60487097
0.00082828562
-0.64734646
0.00076725631
-0.69263249
0.00063312588
-0.74090312
0.00047168347
-0.79236519
0.00031115299
-0.84724723
0.00016862342
-0.90580576
5.3871306e-05
-0.96831972
-2.9082097e-05
-1.0350969
-7.9471248e-05
-1.1064722
-9.8167565e-05
-1.1828111
-8.7753355e-05
-1.2645033
-5.3186166e-05
-1.3519895
-0.17482343
0.0030539798
-0.17454938
-0.038858409
-0.17491026
-0.022816998
0.070722081
-0.17807592
0.071027707
-0.18362865
0.0032849729
-0.18733926
-0.10100089
-0.18559665
-0.11495469
-0.18145399
-0.055122286
-0.1779208
0.061421754
-0.18365431
0.11069502
-0.19476155
0.08150455
-0.2044798
0.0071496883
-0.20662568
-0.071461728
-0.21328837
-0.0923051
-0.21401892
-0.060806315
-0.21851789
-0.013248081
-0.23550365
0.016036702
-0.26109955
0.02258547
-0.28766493
0.017679449
-0.31313394
0.0085568657
-0.33667087
0.00025103153
-0.35871993
-0.0043075606
-0.38084335
-0.0051327319
-0.40469428
-0.0038799315
-0.43126698
-0.0020983611
-0.46077312
-0.0006178185
-0.49303831
0.00037199166
-0.52786936
0.00088775657
-0.5652224
0.0010543246
-0.605097
0.0010146904
-0.64759389
0.00086987888
-0.69286925
0.00068165905
-0.7411131
0.00048659396
-0.79254063
0.00030622836
-0.84738484
0.0001531902
-0.90590508
3.4054958e-05
-0.96838286
-4.920838e-05
-1.0351272
-9.6858696e-05
-1.1064735
-0.00011118932
-1.1827876
-9.6049673e-05
-1.2644605
-5.6957027e-05
-1.3519326
-0.17633012
0.07222877
-0.1752949
0.0037995069
-0.17658116
-0.037187509
-0.17728145
-0.020592897
0.073259128
-0.18030734
0.0037293356
-0.18407301
-0.10506146
-0.18327868
-0.12027842
-0.18027291
-0.059251541
-0.17732473
0.066809613
-0.18330866
0.12246929
-0.19542859
0.093282064
-0.20653906
0.0129876
-0.21031772
-0.083343269
-0.19474414
-0.10889304
-0.19670044
-0.074021544
-0.20080369
-0.015725027
-0.21604094
0.022192988
-0.24165994
0.030137413
-0.26865149
0.024012876
-0.29399835
0.012343064
-0.31692014
0.0011018693
-0.3375217
-0.005597256
-0.35743024
-0.0071879379
-0.37878815
-0.0056671331
-0.40290708
-0.0032312289
-0.43013411
-0.0011417561
-0.46024919
0.00025527747
-0.49292159
0.0010306591
-0.52801226
0.0013133897
-0.56548147
0.0013074399
-0.60538975
0.0011532196
-0.64787723
0.00093616616
-0.69312375
0.00070396071
-0.74133047
0.00048299848
-0.7927174
0.00028854173
-0.84752019
0.00012923759
-0.90600026
8.8907469e-06
-0.96844096
-7.1936604e-05
-1.0351521
-0.00011508782
-1.1064696
-0.00012414883
-1.1827595
-0.00010379734
-1.2644136
-6.0316321e-05
-1.3518723
-0.177746
0.074675
-0.17563203
0.072565901
-0.17686122
0.0040795641
-0.17941218
-0.035056778
-0.18010607
-0.01813594
0.0044985099
-0.18107651
-0.1079105
-0.18122398
-0.12433222
-0.17922488
-0.062645769
-0.17687868
0.072037357
-0.18255248
0.13419088
-0.19503025
0.10553598
-0.2076825
0.019851118
-0.21340258
-0.089645502
-0.20401548
-0.12336396
-0.18027321
-0.086212967
-0.18450901
-0.018555562
-0.19797316
0.029514166
-0.22336212
0.039249133
-0.25077166
0.031643016
-0.27628163
0.017156846
-0.29881213
0.0023236933
-0.31814197
-0.007192662
-0.3359263
-0.009911969
-0.35470621
-0.0081161661
-0.37633911
-0.004819077
-0.40131924
-0.0018995748
-0.42937629
6.0798169e-05
-0.46005471
0.0011721842
-0.49306312
0.0016194456
-0.52831832
0.0016581609
-0.56583219
0.0014927975
-0.60572933
0.0012418459
-0.64818291
0.00096775281
-0.69338755
0.00070245591
-0.74154992
0.00046323103
-0.79289209
0.00026011828
-0.84765107
9.8524121e-05
-0.9060899
-1.9813078e-05
-0.96849308
-9.6027127e-05
-1.0351712
-0.00013336534
-1.1064604
-0.00013643738
-1.1827269
-0.00011082988
-1.2643631
-6.3242873e-05
-1.351809
-0.17868458
0.0054370932
-0.17605411
0.075097074
-0.17625874
0.071963427
-0.17932861
0.0039959924
-0.18257963
-0.032583221
-0.18356554
-0.0155209
-0.10929643
-0.17969058
-0.12702665
-0.17852955
-0.065266107
-0.17660454
0.076964467
-0.18180579
0.14540964
-0.19377124
0.11787808
-0.20737235
0.026453953
-0.21428534
-0.095318656
-0.20772943
-0.13710163
-0.19027782
-0.096736103
-0.16975007
-0.021387613
-0.18167696
0.037680492
-0.20613948
0.049969226
-0.23408221
0.040690391
-0.25981903
0.023085263
-0.28221005
0.0040360669
-0.30052451
-0.0091492879
-0.31618534
-0.01347989
-0.33235838
-0.011394547
-0.35142782
-0.0069881298
-0.37417006
-0.0029578469
-0.40026096
-0.00022463699
-0.42909085
0.0013220268
-0.46020455
0.0019912019
-0.49343487
0.0020867183
-0.52874688
0.0019042398
-0.56624363
0.0016086233
-0.60609611
0.001283964
-0.64849912
0.00096848916
-0.69365358
0.00068044594
-0.74176714
0.00042996651
-0.79306194
0.0002231627
-0.84777571
6.2979664e-05
-0.90617269
-5.0631735e-05
-0.96853847
-0.0001204105
-1.0351841
-0.0001509901
-1.1064459
-0.00014774867
-1.18269
-0.00011704561
-1.2643093
-6.5668556e-05
-1.3517434
-0.17889336
-0.10908764
-0.17723725
0.0066202352
-0.17598953
0.074827865
-0.17760613
0.070240943
-0.18227609
0.0036924485
-0.18628307
-0.029865692
-0.18738705
-0.012913221
-0.1285333
-0.17818393
-0.067096048
-0.17669961
0.081357721
-0.1809978
0.15558773
-0.19198389
0.12981692
-0.20571009
0.033528892
-0.21444729
-0.10098006
-0.20862393
-0.15092169
-0.19390936
-0.11347115
-0.17354277
-0.024115137
-0.16702255
0.046222143
-0.19021861
0.062242042
-0.2184123
0.051147706
-0.24453953
0.030262523
-0.26699629
0.0063233125
-0.28449729
-0.011482844
-0.29819095
-0.018070734
-0.3115945
-0.015720982
-0.32803194
-0.0098748628
-0.34854109
-0.0043867387
-0.37274117
-0.00062153599
-0.39986406
0.0015035397
-0.42927237
0.0024525291
-0.46066588
0.0026213594
-0.49396951
0.0024090376
-0.52925167
0.0020508447
-0.56668585
0.0016607955
-0.60647294
0.0012856749
-0.64881631
0.00094322713
-0.69391636
0.00064158141
-0.74197875
0.00038601516
-0.79322479
0.00017997021
-0.8478927
2.4509964e-05
-0.90624783
-8.2113951e-05
-0.96857677
-0.00014423587
-1.0351909
-0.00016742917
-1.1064262
-0.00015788946
-1.1826491
-0.00012226142
-1.2642527
-6.7618696e-05
-1.3516757
-0.17889248
-0.12853419
-0.17934494
-0.10697995
-0.17695891
0.0075896082
-0.17647986
0.0737016
-0.1795877
0.067552552
-0.1856723
0.0030816807
-0.19017649
-0.027076259
-0.19128902
-0.010507043
-0.067750256
-0.17752972
0.084971062
-0.18031295
0.16435067
-0.18976074
0.14076697
-0.20293393
0.040357928
-0.21253912
-0.10621833
-0.20920901
-0.16376042
-0.1957852
-0.12990398
-0.17747653
-0.038463465
-0.15919444
0.0550729
-0.17587331
0.075575395
-0.20355197
0.063043171
-0.23030776
0.038609539
-0.25288654
0.0092733894
-0.26994637
-0.01428242
-0.28169772
-0.0239166
-0.29234509
-0.02130231
-0.30601317
-0.013638129
-0.32426868
-0.006257928
-0.3466699
-0.0011402825
-0.37222242
0.0017423823
-0.40010291
0.003040382
-0.42986022
0.003301711
-0.46134623
0.0030385101
-0.49459899
0.0025894573
-0.52979029
0.0021099304
-0.56713499
0.0016597586
-0.60684702
0.0012544669
-0.64912755
0.00089713067
-0.69417191
0.00058954448
-0.74218228
0.00033418012
-0.793379
0.00013278143
-0.84800097
-1.5205507e-05
-0.90631474
-0.00011324115
-0.96860776
-0.00016683827
-1.0351915
-0.00018245253
-1.1064016
-0.00016663404
-1.1826048
-0.00012659302
-1.2641937
-6.910788e-05
-1.3516066
-0.17960584
-0.067036894
-0.18118464
-0.12669449
-0.18036923
-0.10356963
-0.17764534
0.0087550846
-0.17759149
0.071705397
-0.18204209
0.063922341
-0.18923151
0.0021367005
-0.19396403
-0.02440125
-0.19512356
-0.008498356
0.088069544
-0.1806282
0.17146432
-0.1874266
0.15019894
-0.19919271
0.046882786
-0.20945879
-0.11101952
-0.20773794
-0.1762184
-0.19675104
-0.14564278
-0.1800464
-0.053076365
-0.16286363
0.053688998
-0.15781054
0.089979384
-0.19027729
0.076241206
-0.21675
0.048200585
-0.23989881
0.012798034