/*--------------------------------*- C++ -*----------------------------------*\
| =========                 |                                                 |
| \\      /  F ield         | OpenFOAM: The Open Source CFD Toolbox           |
|  \\    /   O peration     | Version:  5.0                                   |
|   \\  /    A nd           | Web:      www.OpenFOAM.org                      |
|    \\/     M anipulation  |                                                 |
\*---------------------------------------------------------------------------*/
FoamFile
{
    version     2.0;
    format      ascii;
    class       volScalarField;
    location    "300";
    object      pMean;
}
// * * * * * * * * * * * * * * * * * * * * * * * * * * * * * * * * * * * * * //

dimensions      [0 2 -2 0 0 0 0];

internalField   nonuniform List<scalar> 
9520
(
9.0741501e-05
9.0710114e-05
0.0002273595
9.0490384e-05
0.00022765752
0.00037153572
8.9835967e-05
0.00022783876
0.00037227746
0.00050498548
8.8546542e-05
0.00022735589
0.00037312964
0.00050671833
0.00063640001
8.639215e-05
0.00022567925
0.00037317706
0.00050918153
0.00063951049
0.00075995323
8.3220996e-05
0.00022224245
0.00037152293
0.00051110315
0.00064437184
0.00076494478
0.0008774754
7.8841108e-05
0.00021660337
0.00036724927
0.00051121545
0.00064931075
0.00077317805
0.00088478699
0.00098657728
7.320714e-05
0.00020839216
0.00035961236
0.00050823872
0.00065267217
0.00078258523
0.00089723948
0.00099657088
0.0010872105
6.6312554e-05
0.00019746602
0.00034791605
0.00050109615
0.00065280336
0.00079115266
0.00091238216
0.0010139957
0.0011002236
0.001178081
5.8735034e-05
0.00018344517
0.00033180791
0.00048885894
0.00064829079
0.00079687235
0.00092786362
0.0010360752
0.0011232817
0.0011942692
0.0012588123
4.9449394e-05
0.00016617594
0.0003109791
0.00047088747
0.00063791507
0.00079797983
0.00094135018
0.0010601721
0.0011533005
0.0012233169
0.0012782562
0.0013288606
3.8303067e-05
0.00014445118
0.00028557664
0.00044640179
0.0006207906
0.00079287187
0.00095075128
0.0010836571
0.0011874004
0.0012619265
0.0013135181
0.0013514565
0.0013879809
2.3009655e-05
0.00012025677
0.000254743
0.00041511649
0.00059610503
0.0007802203
0.00095416456
0.001104095
0.0012226999
0.0013070742
0.0013611652
0.0013928042
0.0014135176
0.0014361158
8.9541271e-06
9.2161305e-05
0.00021898362
0.00037691815
0.0005634278
0.00075885997
0.00095002024
0.0011192171
0.0012565438
0.0013557157
0.0014181106
0.0014494385
0.0014606279
0.0014642196
0.001473399
-9.2905456e-06
6.4400708e-05
0.00017666414
0.0003333758
0.00052201413
0.00072873061
0.00093700805
0.0011271254
0.00128643
0.0014049923
0.0014812273
0.0015183332
0.001525941
0.0015164616
0.0015035722
0.0015002465
-2.3150541e-05
3.0551494e-05
0.00013244438
0.00028252648
0.00047342201
0.00068919399
0.00091419404
0.0011263424
0.0013101719
0.0014521486
0.0015475222
0.0015964027
0.0016066164
0.001589694
0.0015600881
0.0015318697
0.0015171765
-4.4822566e-05
5.9765509e-07
8.1368678e-05
0.00022771852
0.00041606142
0.00064110225
0.00088092188
0.0011158019
0.0013257982
0.0014947138
0.0016140519
0.0016806443
0.0016997347
0.0016813996
0.0016401747
0.0015915565
0.0015495557
0.0015250003
-5.9001535e-05
-3.8617723e-05
3.1949292e-05
0.00016409814
0.00035329283
0.0005825589
0.00083790173
0.0010943241
0.001331874
0.0015304492
0.0016780636
0.0017680207
0.0018023619
0.0017889667
0.0017417793
0.0016770559
0.0016111373
0.0015573525
0.0015245923
-8.2530254e-05
-6.5639047e-05
-2.6290353e-05
0.00010051176
0.00028067736
0.00051667198
0.00078303985
0.0010622608
0.0013270984
0.0015575362
0.0017369967
0.0018555749
0.001911424
0.0019096874
0.0018627401
0.001786931
0.001700337
0.0016193806
0.0015560578
0.0015170414
-9.7767931e-05
-0.00011051732
-7.6567577e-05
2.7898215e-05
0.00020636497
0.00043962732
0.00071896506
0.0010175207
0.0013115076
0.0015743699
0.0017887642
0.0019404512
0.002023821
0.0020405922
0.0020007058
0.0019196193
0.0018164782
0.0017103044
0.0016169787
0.001546721
0.0015033853
-0.00012056542
-0.0001380965
-0.00014306287
-4.0382243e-05
0.00012048858
0.0003586106
0.00064249269
0.00096192594
0.0012830181
0.0015805732
0.0018314487
0.0020202016
0.0021365145
0.0021785475
0.0021529189
0.0020732853
0.001958754
0.0018303364
0.0017074701
0.0016048883
0.0015303825
0.0014848126
-0.00013806752
-0.00018539056
-0.00019074743
-0.00012152692
3.7118766e-05
0.00026378096
0.00056011948
0.00089255081
0.0012427051
0.0015740951
0.0018641572
0.0020925308
0.0022467017
0.0023203137
0.0023163039
0.0022455423
0.0021259973
0.0019795612
0.001828741
0.0016926277
0.0015841229
0.0015082645
0.001462448
-0.00015131218
-0.00021787731
-0.00026422466
-0.0001910415
-5.9472556e-05
0.00016940006
0.00046174514
0.00081595161
0.0011876578
0.0015558086
0.0018846214
0.0021560417
0.0023517045
0.0024627334
0.0024875294
0.0024335063
0.0023163372
0.0021576341
0.0019818955
0.0018122437
0.0016667203
0.0015559061
0.0014815134
0.0014375008
-0.00017159299
-0.00027075284
-0.00031159403
-0.00028323764
-0.00014832544
5.9190258e-05
0.00036161741
0.00072165315
0.0011244642
0.0015222871
0.0018938727
0.0022083244
0.0024496122
0.0026028003
0.0026631775
0.0026338307
0.0025272184
0.0023633809
0.0021675658
0.0019659673
0.0017816389
0.0016309434
0.0015214325
0.0014513877
0.0014110664
-0.00018953791
-0.00030520367
-0.0003965875
-0.00035357425
-0.00025958202
-4.7041756e-05
0.00024273287
0.0006234116
0.001042528
0.0014798722
0.0018878724
0.0022498464
0.0025378191
0.0027380624
0.0028398851
0.0028429048
0.0027554172
0.0025947499
0.0023854363
0.0021555345
0.0019323261
0.0017380355
0.0015865446
0.0014820619
0.0014190661
0.0013842045
-0.00020302364
-0.00036457758
-0.00045678638
-0.00046306263
-0.00035526218
-0.00017852125
0.00012378696
0.00050348756
0.0009547985
0.0014182418
0.0018724652
0.0022763448
0.0026158621
0.0028655153
0.003014638
0.0030570234
0.0029972427
0.0028487893
0.0026341244
0.0023816597
0.0021217449
0.0018818954
0.0016826883
0.0015349658
0.0014390868
0.0013857152
0.0013578549
-0.00022224624
-0.00040610567
-0.00053964916
-0.00055303013
-0.00048556017
-0.00030127011
-2.4324894e-05
0.00037968938
0.00084301885
0.0013493254
0.0018375359
0.0022930535
0.0026793603
0.0029838372
0.0031840649
0.0032726539
0.0032487015
0.0031218504
0.002911135
0.0026438173
0.0023517762
0.002066796
0.001815847
0.0016170818
0.0014776058
0.0013938338
0.0013523347
0.0013328906
-0.00023834045
-0.00044137432
-0.00062097138
-0.00067293946
-0.00060960511
-0.00045831523
-0.0001719313
0.00022277058
0.00072476547
0.0012537983
0.0017947441
0.0022894131
0.0027327694
0.0030884993
0.003345903
0.0034860703
0.0035057655
0.0034097124
0.0032130292
0.0029401662
0.0026229379
0.0022959258
0.0019916665
0.0017356415
0.0015426965
0.0014159531
0.0013474297
0.0013198686
0.0013100864
-0.00025327909
-0.00048736867
-0.00069620877
-0.00080562175
-0.00077443554
-0.00062405973
-0.00035990342
5.7567315e-05
0.00057043433
0.0011492331
0.0017224564
0.0022777391
0.0027651694
0.0031830513
0.0034953552
0.0036941365
0.0037643787
0.0037079499
0.0035355041
0.003267641
0.0029342451
0.0025710386
0.002214761
0.001897687
0.0016428523
0.0014611941
0.00135138
0.0013010024
0.0012892065
0.0012901202
-0.00026446488
-0.0005272941
-0.00078094394
-0.00093646039
-0.00096085777
-0.00083956287
-0.0005651361
-0.00015760181
0.00039913439
0.0010051325
0.0016377274
0.002235107
0.002788246
0.0032562738
0.0036350507
0.0038915407
0.0040206171
0.0040121527
0.0038738503
0.0036220497
0.0032832346
0.0028922284
0.0024882846
0.002109356
0.0017864799
0.0015393193
0.0013743222
0.0012853977
0.0012556447
0.0012611535
0.0012735648
-0.00027156907
-0.00058034089
-0.00085976132
-0.0010733645
-0.001160677
-0.0010939715
-0.00083610991
-0.00039930752
0.00016879344
0.00083595669
0.0015088346
0.0021763437
0.0027785825
0.0033192276
0.0037536304
0.0040800352
0.0042684421
0.0043177083
0.004223183
0.0039985281
0.003666009
0.0032578546
0.0028136172
0.0023753132
0.0019812316
0.0016599876
0.0014270558
0.0012839738
0.0012193827
0.0012123943
0.0012364017
0.0012608763
-0.00028019229
-0.000627033
-0.00096016273
-0.0012038488
-0.0013635343
-0.0013793387
-0.0011666977
-0.00072961593
-9.6682041e-05
0.00060008181
0.0013469733
0.0020677164
0.0027511383
0.0033468633
0.003861126
0.0042481177
0.0045087463
0.0046177688
0.0045783338
0.0043917652
0.0040777354
0.0036645517
0.0031901892
0.0026984448
0.0022333218
0.0018322513
0.0015203719
0.0013082253
0.0011917625
0.0011545587
0.001172126
0.0012154998
0.0012523809
-0.00028326936
-0.00069241616
-0.0010565702
-0.0013640136
-0.0015657297
-0.0016702011
-0.001552218
-0.0011371063
-0.00048264192
0.00031165449
0.0011070473
0.001917138
0.0026678426
0.0033551813
0.0039315894
0.0044046234
0.0047297907
0.0049122001
0.0049317617
0.0047960254
0.0045128456
0.0041077303
0.003615484
0.0030794479
0.0025473448
0.002064002
0.0016646887
0.0013700356
0.0011847685
0.0010991937
0.0010919986
0.0011356014
0.0011988567
0.0012483001
-0.00028596621
-0.00076130562
-0.0011750446
-0.0015238826
-0.0018099016
-0.0019660036
-0.0019558407
-0.0016443651
-0.00096539083
-0.00011549316
0.0007938106
0.0016757166
0.0025350859
0.003302349
0.0039813291
0.0045230183
0.0049392006
0.0051889066
0.005281969
0.0052031773
0.0049649772
0.0045817182
0.0040853664
0.0035170566
0.0029256463
0.0023616469
0.0018694847
0.0014809836
0.0012112949
0.0010587097
0.0010076996
0.0010326794
0.001103469
0.0011867654
0.0012487785
-0.00028801033
-0.0008304645
-0.001301429
-0.0017103854
-0.0020560621
-0.0023262718
-0.0023633037
-0.0021833008
-0.0015974204
-0.00066621926
0.00033235192
0.0013396132
0.0022996794
0.0031945194
0.0039647415
0.0046200018
0.0051099437
0.0054543683
0.0056162992
0.005610165
0.0054253641
0.005079727
0.0045941697
0.004007853
0.0033683588
0.0027294154
0.0021432452
0.0016524961
0.0012839935
0.0010466174
0.00093190351
0.00091865141
0.0009775757
0.001076117
0.0011794612
0.0012538802
-0.00028635816
-0.00089911689
-0.0014264036
-0.0019147753
-0.0023333217
-0.0026895434
-0.0028719447
-0.0027187269
-0.0022832869
-0.0014279013
-0.0002897317
0.00084518419
0.0019506396
0.0029726571
0.0038882109
0.0046462881
0.0052585836
0.0056808645
0.005940472
0.0060040077
0.0058897407
0.0055922826
0.0051351164
0.0045464584
0.0038732371
0.0031691821
0.0024922117
0.0018947509
0.0014159803
0.0010766463
0.00087838894
0.00080617186
0.00083331901
0.00092760489
0.0010538461
0.0011770601
0.0012636003
-0.00028264731
-0.00095755996
-0.001549699
-0.0021164125
-0.0026398116
-0.0030874408
-0.0033856583
-0.0034056451
-0.0029665581
-0.0022845746
-0.0011856828
0.0001382295
0.0014203354
0.0026197084
0.0036865756
0.0046093572
0.0053331723
0.0058845714
0.0062257724
0.0063888938
0.0063443574
0.0061140302
0.0056982453
0.0051264954
0.0044354519
0.0036801435
0.0029201804
0.0022161391
0.0016190885
0.0011631113
0.00086176539
0.00070899231
0.00068318111
0.0007529692
0.00088320688
0.0010369589
0.0011796251
0.0012778685
-0.00027675055
-0.0010043526
-0.0016559281
-0.0023148762
-0.0029415474
-0.0035309513
-0.0039384892
-0.0041064513
-0.0038623129
-0.0031468576
-0.0022162312
-0.00089296641
0.00064267129
0.0020579636
0.003336689
0.004437118
0.0053424248
0.0060107731
0.0064876997
0.0067355668
0.0067916875
0.0066304731
0.0062767475
0.0057375193
0.0050495176
0.0042586395
0.0034281604
0.0026226952
0.0019039287
0.0013196146
0.00089724347
0.00064226635
0.00054064069
0.0005646288
0.00067859649
0.0008447593
0.0010256391
0.0011871112
0.0012965557
-0.00026834193
-0.0010355192
-0.0017411478
-0.002489606
-0.0032358718
-0.003967799
-0.004559006
-0.0048511842
-0.0047922123
-0.0042717301
-0.0032762833
-0.0021040862
-0.00051627325
0.0012292889
0.0027506537
0.0041031716
0.0052077335
0.0060696114
0.0066688975
0.0070584277
0.0072019642
0.0071419987
0.0068556912
0.0063714516
0.0057046649
0.0049001949
0.0040144096
0.003117681
0.0022789733
0.0015588965
0.0010000408
0.00062187181
0.00042100365
0.00037558446
0.00045195537
0.00061089675
0.00081262414
0.0010199311
0.0011994358
0.0013194812
-0.0010454704
-0.00026655705
-0.0018007026
-0.0026339997
-0.0034965971
-0.0043899363
-0.0051713299
-0.005692673
-0.0057711725
-0.0054645045
-0.0046501045
-0.0033814679
-0.0019257677
-3.9791396e-05
0.0018811687
0.0035081271
0.0049019725
0.0059766032
0.006781029
0.007297842
0.0075881596
0.0076181612
0.0074333721
0.0070132051
0.0063917344
0.0055942987
0.0046750567
0.0037015327
0.0027500385
0.0018919591
0.0011849127
0.00066436438
0.00034053309
0.0002008842
0.00021578623
0.00034638483
0.00055037501
0.00078702209
0.0010198253
0.0012164362
0.0013464266
-0.0018259559
-0.001041938
-0.00027164131
-0.002739906
-0.0037146393
-0.0047662589
-0.0057600097
-0.006527356
-0.0068803141
-0.0067186486
-0.0061304
-0.0050310322
-0.0034451518
-0.0016561937
0.00051381327
0.0026129052
0.0043156347
0.0057061308
0.0067332178
0.0074672406
0.0078886792
0.0080706595
0.0079784702
0.0076586687
0.0070956095
0.0063308927
0.0054013461
0.0043715159
0.0033200094
0.0023274128
0.001465384
0.00078631819
0.00031677344
5.6860207e-05
-1.5433393e-05
6.3070034e-05
0.00024883898
0.00049745755
0.00076806229
0.0010252226
0.0012379253
0.0013771553
-0.0027913581
-0.0018257277
-0.0010248573
-0.00027551135
-0.0038761392
-0.0050808219
-0.006288966
-0.0073293507
-0.0079910335
-0.0081412814
-0.0076951835
-0.0068278614
-0.0053975795
-0.0034264857
-0.0012902868
0.0011802209
0.0034037361
0.0051359061
0.0065021314
0.0074687946
0.0081183955
0.0084353822
0.0085008025
0.0082759664
0.0078100029
0.0070951763
0.0061823141
0.0051212278
0.0039879155
0.0028708385
0.0018529759
0.0010036616
0.00036784962
-3.8353676e-05
-0.00022566371
-0.00022542981
-8.1106636e-05
0.0001600756
0.00045245168
0.00075577338
0.0010359848
0.0012636621
0.001411404
-0.003955638
-0.0027969424
-0.0017996743
-0.00098625373
-0.00027778467
-0.0053102599
-0.0067315413
-0.0080578647
-0.0090644099
-0.0095800933
-0.0094719806
-0.0087377506
-0.0075418178
-0.0056893144
-0.0033060707
-0.00078068468
0.0019447611
0.0042107796
0.0059533303
0.0072833655
0.0081728494
0.0087285918
0.0089340961
0.0088728906
0.0085027102
0.0078786296
0.0070037387
0.0059395953
0.004750345
0.0035239676
0.002356308
0.0013308306
0.00051186869
-6.5440169e-05
-0.00039662104
-0.00050368932
-0.00042696112
-0.0002154854
8.0654515e-05
0.00041557565
0.00075009507
0.0010518811
0.001293371
0.0014488927
-0.0054233677
-0.0039634012
-0.0027566072
-0.0017390111
-0.00093252301
-0.00027824179
-0.0070534901
-0.0086718566
-0.010049633
-0.010981266
-0.011286786
-0.010912548
-0.0098345487
-0.0082009086
-0.0058803481
-0.0030314129
-0.00014097857
0.0027343472
0.005022575
0.0067657957
0.0080374877
0.0088397069
0.0092960893
0.0093810692
0.0091791156
0.0086491371
0.0078551176
0.006812995
0.0055970241
0.004286256
0.0029804501
0.0017797579
0.00076606135
-4.3995623e-06
-0.00050824508
-0.00075372191
-0.00077419439
-0.00061809166
-0.00033910746
1.1061002e-05
0.00038690194
0.00075082097
0.0010725966
0.0013267432
0.0014893447
-0.0072130252
-0.0054245878
-0.0038982309
-0.0026602678
-0.0016530246
-0.00086899666
-0.00027519358
-0.0091208799
-0.010886761
-0.012275522
-0.013067388
-0.013148104
-0.012451828
-0.010904952
-0.0087672303
-0.0059177959
-0.0026190631
0.00055027365
0.0035339578
0.0058444009
0.0075595042
0.008758841
0.0094703151
0.0098196286
0.0097690945
0.0094096568
0.0087047226
0.0077292179
0.006514766
0.0051494667
0.0037276813
0.0023592552
0.001145826
0.00016457202
-0.00053907243
-0.00095520815
-0.0011055935
-0.0010344228
-0.00079724022
-0.00045106069
-4.8433923e-05
0.00036627179
0.00075758681
0.0010978119
0.0013635347
0.001532506
-0.009344349
-0.0072056647
-0.0053131814
-0.0037498486
-0.002523123
-0.001546671
-0.00079673749
-0.00027121806
-0.011508031
-0.013384453
-0.014718723
-0.015353148
-0.015157037
-0.014003229
-0.011898176
-0.0091852826
-0.0058110394
-0.0021235127
0.0012841721
0.0043482446
0.0066609725
0.0083260185
0.0094514603
0.010066154
0.010293304
0.01008796
0.0095527729
0.0086575888
0.0074907121
0.0061014012
0.0045929849
0.003074602
0.0016637916
0.00046019371
-0.00046699991
-0.0010857465
-0.0014010961
-0.0014484532
-0.0012819931
-0.00096293914
-0.00055074864
-9.7858809e-05
0.00035328873
0.00077010672
0.001127398
0.0014035808
0.0015780935
-0.011827712
-0.0093289549
-0.007030709
-0.0050847663
-0.0035425943
-0.002353947
-0.0014236915
-0.00072548283
-0.00026662266
-0.014221491
-0.016143209
-0.01740397
-0.017834988
-0.017219717
-0.015505473
-0.012761249
-0.0094606311
-0.0056040905
-0.0015479212
0.0020741847
0.0051676016
0.0074588062
0.0090710142
0.010120273
0.010622911
0.010706522
0.010325501
0.0095951771
0.0084953162
0.0071291502
0.0055661768
0.0039250999
0.0023286757
0.00089898901
-0.00027028644
-0.0011214144
-0.0016379317
-0.0018409045
-0.0017788803
-0.0015146721
-0.0011140865
-0.00063802691
-0.00013763121
0.00034774504
0.00078848647
0.001161365
0.0014465619
0.0016256871
-0.014663367
-0.011820283
-0.009077627
-0.0066936861
-0.004770911
-0.0032902853
-0.0021591268
-0.0012989974
-0.00065611551
-0.00025637371
-0.017230276
-0.019180545
-0.020329329
-0.020414576
-0.019265342
-0.016899897
-0.013486292
-0.0096290655
-0.0052957641
-0.00087331277
0.0028925379
0.0059735983
0.0082485809
0.0098063051
0.010764277
0.011129633
0.011046083
0.01046743
0.0095223663
0.0082049032
0.0066346661
0.0049034839
0.0031451607
0.0014937756
7.1432285e-05
-0.0010377554
-0.0017909881
-0.0021892511
-0.0022699431
-0.0020936397
-0.0017306186
-0.0012501682
-0.0007132542
-0.00016783264
0.00035011104
0.00081296658
0.0011991558
0.0014916188
0.0016748744
-0.017812003
-0.014668469
-0.01148639
-0.0086036436
-0.0062385552
-0.004394971
-0.0030021135
-0.0019593767
-0.00117255
-0.00059126987
-0.00024799288
-0.020540395
-0.022492158
-0.023394978
-0.023011389
-0.021235576
-0.018175493
-0.014098084
-0.0096849232
-0.0048761401
-0.0001415645
0.0037117426
0.0067855072
0.0090490551
0.010532504
0.011372324
0.011572482
0.011297232
0.010497731
0.0093186959
0.0077731478
0.0059982412
0.0041094289
0.0022547387
0.00057568118
-0.00081080971
-0.0018335569
-0.0024678615
-0.0027335278
-0.0026836932
-0.0023898917
-0.0019287559
-0.001371467
-0.00077632378
-0.0001875022
0.00036091334
0.00084246108
0.0012389713
0.0015379475
0.0017258193
-0.021268436
-0.017830807
-0.01423635
-0.010852525
-0.0079693357
-0.0057003393
-0.0039736656
-0.0027039507
-0.0017548823
-0.001053997
-0.00054568655
-0.00023672412
-0.024147397
-0.025984018
-0.026513124
-0.025571432
-0.023117511
-0.019341864
-0.014586619
-0.0096157536
-0.0043543814
0.00061976342
0.0045453396
0.0076309321
0.0098648292
0.011238539
0.011929013
0.011936145
0.011443254
0.010398829
0.0089681811
0.0071872149
0.0052123947
0.0031824532
0.0012575433
-0.00041837342
-0.001738526
-0.0026485085
-0.0031442095
-0.0032646768
-0.0030780079
-0.0026657551
-0.0021090589
-0.0014776075
-0.00082563581
-0.00019568948
0.00037828293
0.00087373376
0.0012795777
0.0015868069
0.0017816567
-0.025028327
-0.021288128
-0.017283712
-0.013408379
-0.010005763
-0.0072260725
-0.005106232
-0.003537144
-0.0023983683
-0.0015668112
-0.00095675847
-0.0004945344
-0.00022208078
-0.027962662
-0.02956147
-0.029636901
-0.028082179
-0.024913656
-0.020383847
-0.014932866
-0.0094386626
-0.003749392
0.0014343922
0.0054269803
0.0085178974
0.01068182
0.011906858
0.012419106
0.012203578
0.011464602
0.010151623
0.0084545466
0.0064353989
0.0042715116
0.0021233539
0.00015922535
-0.0014793087
-0.0027014312
-0.0034730784
-0.0038121359
-0.0037769011
-0.0034498773
-0.0029207041
-0.0022708363
-0.0015661444
-0.00085961398
-0.0001952701
0.00039700971
0.000905258
0.0013247409
0.0016433397
0.001842593
-0.029011138
-0.025033596
-0.020596354
-0.016226529
-0.01230772
-0.0090144162
-0.006415911
-0.0044912115
-0.0030933102
-0.0021206027
-0.0014043761
-0.00085458738
-0.00045528107
-0.00020699518
-0.031889572
-0.033183735
-0.032755197
-0.030542724
-0.02660233
-0.021277431
-0.015159629
-0.0091446877
-0.0030494088
0.0023327746
0.006375358
0.0094349099
0.011473961
0.012520973
0.01282506
0.012354073
0.011339308
0.00973589
0.0077614301
0.0055075715
0.0031725231
0.0009355871
-0.0010316554
-0.00259631
-0.0036884511
-0.0042973423
-0.0044638447
-0.0042656815
-0.0037980009
-0.0031535043
-0.0024105172
-0.0016345889
-0.00088232286
-0.00019405535
0.00041538183
0.0009448006
0.0013833485
0.0017046095
0.0019072054
-0.033120157
-0.029000011
-0.024162801
-0.019266292
-0.014825846
-0.011019554
-0.0079392882
-0.0055784717
-0.0038710461
-0.0026952154
-0.0018716651
-0.0012399386
-0.00077350862
-0.00041143836
-0.00018942276
-0.03589226
-0.036842451
-0.035867267
-0.032925875
-0.028151028
-0.022042701
-0.015280876
-0.0087101153
-0.0022431486
0.0033395191
0.0073862347
0.010351586
0.012227186
0.013065134
0.013126008
0.012363984
0.011043359
0.0091309135
0.0068737957
0.0043959
0.0019154319
-0.00037421961
-0.0023039426
-0.003756943
-0.0046876327
-0.0051111804
-0.005092882
-0.0047286101
-0.0041203723
-0.0033591723
-0.0025243909
-0.0016883372
-0.00090492634
-0.00019397342
0.00044685961
0.0010066269
0.0014462785
0.0017700136
0.0019755085
-0.03732477
-0.033094039
-0.027930072
-0.022514084
-0.01751245
-0.013191527
-0.0096245116
-0.0068299462
-0.0047396305
-0.0033197419
-0.0023305534
-0.0016231622
-0.001105529
-0.00068682459
-0.00037922796
-0.00017720027
-0.039968701
-0.040532477
-0.038936351
-0.035190793
-0.029584946
-0.022696308
-0.015259088
-0.0081093049
-0.0012626821
0.0044517523
0.0084193964
0.011251047
0.012927742
0.013517915
0.013296243
0.012207121
0.010551628
0.0083168644
0.0057785038
0.0030957731
0.00050378203
-0.0017965061
-0.0036447565
-0.004947401
-0.0056863486
-0.005905803
-0.0056953333
-0.0051626032
-0.0044101763
-0.0035322485
-0.0026193235
-0.001742823
-0.00092969931
-0.00017381324
0.00051290233
0.0010723929
0.0015139429
0.0018394455
0.0020475149
-0.041632247
-0.037292224
-0.031814213
-0.0259305
-0.020353338
-0.015476344
-0.01142277
-0.0081914274
-0.0057248488
-0.0039991315
-0.0028082324
-0.0019696762
-0.0014177603
-0.00096426706
-0.00061036959
-0.00034021911
-0.00015985121
-0.044103764
-0.044209685
-0.041916053
-0.037367919
-0.03091816
-0.023209273
-0.015058992
-0.0073146259
-9.8450171e-05
0.0055962734
0.009457421
0.012117392
0.013555512
0.013851339
0.013307304
0.01185471
0.0098389784
0.0072745391
0.0044650763
0.0016062062
-0.0010556067
-0.0033190249
-0.0050391202
-0.006152518
-0.0066731171
-0.0066753651
-0.0062666733
-0.0055584519
-0.0046595903
-0.0036811582
-0.0027160666
-0.0018008444
-0.00092523614
-0.00010271183
0.00058261482
0.0011437212
0.0015858797
0.0019129233
0.0021232311
-0.046017031
-0.041613715
-0.035801395
-0.029441064
-0.023321363
-0.017858631
-0.013279676
-0.0096158726
-0.0067736935
-0.004750883
-0.0033052173
-0.0023044284
-0.0016759228
-0.0012096969
-0.00082957627
-0.0005293342
-0.00028581002
-0.00014075016
-0.048244811
-0.04781941
-0.044840907
-0.039474503
-0.032122167
-0.023534578
-0.014633905
-0.0062780684
0.0011559945
0.0067544712
0.010496047
0.012930791
0.014082683
0.014035437
0.013127446
0.011275965
0.0088804038
0.0059865345
0.0029267148
-7.005104e-05
-0.0027519347
-0.0049252795
-0.0064696206
-0.0073580309
-0.0076397213
-0.0074134642
-0.0067947046
-0.0059052382
-0.0048786439
-0.0038332778
-0.0028181216
-0.0018179477
-0.00084849226
-2.7911968e-05
0.00065894797
0.0012195691
0.0016621878
0.0019904201
0.0022026418
-0.050417087
-0.046020185
-0.039915982
-0.033042452
-0.02635283
-0.020324379
-0.015178944
-0.011048095
-0.0078411945
-0.0055221955
-0.0038268032
-0.0026262315
-0.0019034046
-0.0013865316
-0.001003367
-0.00069274589
-0.00044736335
-0.00025406994
-0.00012901867
-0.052328013
-0.051399467
-0.047733515
-0.041483902
-0.033141476
-0.023607778
-0.013951435
-0.005039483
0.0024454188
0.0079331824
0.011523676
0.013661787
0.014479096
0.014035887
0.012720799
0.01044027
0.0076513954
0.0044388692
0.0011612582
-0.0019249847
-0.0045695602
-0.0065957035
-0.0079190474
-0.0085530736
-0.0085774315
-0.0081041817
-0.0072643072
-0.006214462
-0.0051028062
-0.0039931062
-0.0028644721
-0.0017353215
-0.00076749343
5.4816037e-05
0.00074003838
0.0013001823
0.0017427837
0.0020719085
0.0022857174
-0.054759925
-0.050441411
-0.044114266
-0.036762884
-0.029455209
-0.022822562
-0.017119424
-0.012472192
-0.0088715175
-0.0062736033
-0.004328801
-0.0029353094
-0.0020985012
-0.0015061452
-0.0011005581
-0.00080885722
-0.00056783404
-0.00038716447
-0.0002050449
-0.0001123447
-0.056389862
-0.054978813
-0.050570154
-0.04332868
-0.033897775
-0.023408833
-0.013022495
-0.0037068963
0.0037770689
0.0091343113
0.012491081
0.01427624
0.014710195
0.013813751
0.012048863
0.0093163593
0.006130303
0.0026217364
-0.00082867962
-0.0039450888
-0.006488445
-0.0083110675
-0.0093739438
-0.0097259733
-0.0094657133
-0.0087269775
-0.0076883226
-0.0065314569
-0.0053378608
-0.0040788202
-0.0027762529
-0.0016470716
-0.00067697553
0.00014256618
0.00082634469
0.0013853841
0.0018276473
0.0021572852
0.0023724189
-0.059078002
-0.054804595
-0.048315231
-0.040549383
-0.032652344
-0.025362018
-0.019060515
-0.0138992
-0.0098505104
-0.0069537372
-0.0047826522
-0.0032011752
-0.0022532697
-0.0015681351
-0.0011278874
-0.00084377702
-0.00063598635
-0.00047519373
-0.00030343027
-0.00017432958
-9.083843e-05
-0.060465721
-0.058535325
-0.053282017
-0.044920302
-0.034367099
-0.022947418
-0.011890512
-0.0023177625
0.0051750418
0.010315234
0.013361607
0.014737432
0.014732774
0.013325687
0.011073211
0.0078738079
0.0042992986
0.00053102121
-0.0030336515
-0.0061110582
-0.0084873659
-0.010055614
-0.010819263
-0.010850731
-0.010277242
-0.0092955198
-0.0081238708
-0.0068638824
-0.0054761492
-0.003986109
-0.0026798794
-0.0015473881
-0.00058112806
0.00023603404
0.00091758718
0.0014751746
0.0019166077
0.0022464703
0.0024627228
-0.06340499
-0.059128353
-0.052451171
-0.044318363
-0.035886124
-0.027963717
-0.021014583
-0.01529715
-0.010797913
-0.0075499922
-0.0051412671
-0.0033990343
-0.0023311491
-0.001570237
-0.0010735403
-0.00080300201
-0.00062767639
-0.0005059722
-0.00036146551
-0.00025736517
-0.00012991341
-7.672564e-05
-0.064536831
-0.062009464
-0.055772348
-0.046223726
-0.034551272
-0.022252057
-0.010596669
-0.00080618782
0.0065808283
0.0114431
0.014101009
0.015001986
0.014499755
0.01252727
0.0097557833
0.0060855497
0.0021457004
-0.001828852
-0.0054362475
-0.0084014927
-0.010547689
-0.011810779
-0.01222273
-0.01189168
-0.011025772
-0.0098811193
-0.0085813381
-0.0070720809
-0.0053811252
-0.003881077
-0.0025697841
-0.0014419757
-0.00047896081
0.00033486154
0.001013781
0.0015692793
0.0020095305
0.002339429
0.002556605
-0.067730414
-0.063445607
-0.056529179
-0.048006406
-0.039070553
-0.030564716
-0.022996107
-0.016682177
-0.011693079
-0.0080926695
-0.0053962566
-0.0034803075
-0.0023255569
-0.001470369
-0.00094333685
-0.00067804953
-0.00053849695
-0.00046083257
-0.00036976515
-0.00028964183
-0.00018452451
-0.00010434393
-5.4661508e-05
-0.068553276
-0.065303444
-0.05799792
-0.047230552
-0.034478816
-0.021334988
-0.0091400694
0.00080921778
0.0079677948
0.012491849
0.014668658
0.01501928
0.013959296
0.011374046
0.0080576591
0.0039285927
-0.00033446113
-0.0044455875
-0.0080164294
-0.010797568
-0.0126482
-0.013537119
-0.013538477
-0.012861629
-0.011799232
-0.010497887
-0.008881766
-0.0069785837
-0.0052674184
-0.0037595625
-0.00245336
-0.0013295034
-0.00037091621
0.00043904575
0.0011145388
0.0016675066
0.0021064593
0.002436209
0.0026539205
-0.072009259
-0.067746982
-0.060574113
-0.05160677
-0.042143701
-0.033075672
-0.024938932
-0.018063147
-0.012555985
-0.0085716695
-0.0055876978
-0.0034416383
-0.0021938348
-0.0012809157
-0.00070110192
-0.00046520538
-0.00035829572
-0.00033756766
-0.00030271298
-0.00026992917
-0.0001943266
-0.00013761979
-6.0583559e-05
-4.1696504e-05
-0.072425872
-0.068370073
-0.059954105
-0.0479655
-0.034159066
-0.020190441
-0.0075169711
0.0024520207
0.0093168167
0.013411311
0.015015014
0.014730409
0.013056665
0.0098184128
0.0059440062
0.0013879368
-0.0031350192
-0.0073027865
-0.01075711
-0.013275265
-0.014741673
-0.015176795
-0.014777218
-0.013867829
-0.012617299
-0.010919076
-0.0087960381
-0.0068570416
-0.0051339685
-0.0036308186
-0.0023289549
-0.0012104996
-0.0002570076
0.00054808609
0.0012196084
0.0017700343
0.0022076429
0.0025364626
0.0027545862
-0.076166338
-0.071995221
-0.064578486
-0.055136792
-0.045087617
-0.035438591
-0.026757152
-0.019374392
-0.013388607
-0.0090011534
-0.005706523
-0.0033322095
-0.0019250887
-0.00097007063
-0.0003658799
-0.00014547255
-8.2373119e-05
-0.00012477416
-0.0001541686
-0.00017867472
-0.0001545254
-0.00012383307
-7.1565937e-05
-3.4267314e-05
-2.0632161e-05
-0.076104654
-0.071215527
-0.061662499
-0.048438913
-0.033586038
-0.018822733
-0.0057974724
0.0040894435
0.010573935
0.01413281
0.015078523
0.014071133
0.011733808
0.0078125369
0.003387197
-0.0015408243
-0.0062448515
-0.010386279
-0.013634298
-0.015777875
-0.01675659
-0.016737171
-0.016068375
-0.014937732
-0.013195382
-0.010850725
-0.0086688587
-0.0067119406
-0.0049919027
-0.0034929065
-0.002197148
-0.0010849718
-0.00013788777
0.00066167608
0.0013293824
0.0018774301
0.0023124167
0.0026400668
0.0028584944
-0.08015017
-0.076123234
-0.068508963
-0.058589885
-0.047915934
-0.037628209
-0.028398838
-0.020538897
-0.014136852
-0.00938293
-0.0057643701
-0.0031499153
-0.0015795851
-0.00051416365
7.7546027e-05
0.00027183801
0.00028920306
0.00018075534
8.3169762e-05
-9.7741261e-06
-4.6112122e-05
-6.3082208e-05
-4.0711997e-05
-2.2090432e-05
4.5111951e-06
-7.3319382e-06
-0.079616577
-0.073866097
-0.0631283
-0.048643974
-0.032758116
-0.017257341
-0.003989094
0.0056846969
0.011677609
0.014574302
0.014793077
0.012974582
0.0099304679
0.0053166733
0.0003718407
-0.0048562976
-0.009656848
-0.013673889
-0.016583374
-0.018219712
-0.018695931
-0.018372593
-0.017450124
-0.015718181
-0.013158597
-0.010722112
-0.0085136964
-0.0065560843
-0.0048390967
-0.0033464047
-0.0020579482
-0.00095376361
-1.3898141e-05
0.0007805383
0.0014448588
0.0019885611
0.0024206394
0.0027468253
0.0029655427
-0.083999562
-0.080085762
-0.072305575
-0.061934333
-0.050622286
-0.039658118
-0.029835193
-0.021512034
-0.01473698
-0.0096805944
-0.0057604891
-0.0028984124
-0.0011609808
2.4509384e-05
0.00064400776
0.00079889811
0.00074654552
0.00058205324
0.00040920103
0.00024256748
0.00013569327
6.0618738e-05
3.60086e-05
2.7814984e-05
3.5904683e-05
3.4057471e-05