/*--------------------------------*- C++ -*----------------------------------*\
| =========                 |                                                 |
| \\      /  F ield         | OpenFOAM: The Open Source CFD Toolbox           |
|  \\    /   O peration     | Version:  5.0                                   |
|   \\  /    A nd           | Web:      www.OpenFOAM.org                      |
|    \\/     M anipulation  |                                                 |
\*---------------------------------------------------------------------------*/
FoamFile
{
    version     2.0;
    format      ascii;
    class       volScalarField;
    location    "300";
    object      pPrime2Mean;
}
// * * * * * * * * * * * * * * * * * * * * * * * * * * * * * * * * * * * * * //

dimensions      [0 4 -4 0 0 0 0];

internalField   nonuniform List<scalar> 
9520
(
2.138451e-07
1.9894686e-07
1.4460314e-06
1.7381763e-07
1.34457e-06
3.912427e-06
1.4331801e-07
1.1732997e-06
3.6391731e-06
7.6774902e-06
1.1169952e-07
9.6517287e-07
3.1776829e-06
7.1424143e-06
1.2939901e-05
8.2247608e-08
7.4915334e-07
2.6164961e-06
6.2383095e-06
1.2042137e-05
1.9930107e-05
5.7204648e-08
5.4764428e-07
2.0334845e-06
5.1381e-06
1.0524195e-05
1.8554485e-05
2.8968654e-05
3.7871226e-08
3.7576389e-07
1.4889408e-06
3.9940772e-06
8.6750729e-06
1.6226821e-05
2.6982487e-05
4.0423698e-05
2.4817566e-08
2.4197662e-07
1.023757e-06
2.9243962e-06
6.7498197e-06
1.3387764e-05
2.3618007e-05
3.7674201e-05
5.4728011e-05
1.8084592e-08
1.4934742e-07
6.6097169e-07
2.0096029e-06
4.9470291e-06
1.0427175e-05
1.9507632e-05
3.3010598e-05
5.1040119e-05
7.2368271e-05
1.7448677e-08
9.7087455e-08
4.0884483e-07
1.2952885e-06
3.4028717e-06
7.6499978e-06
1.5212674e-05
2.7301947e-05
4.4775815e-05
6.7544308e-05
9.3885654e-05
2.2846065e-08
8.2097437e-08
2.6499988e-07
7.9818438e-07
2.195207e-06
5.266753e-06
1.117478e-05
2.1322411e-05
3.7090955e-05
5.9336936e-05
8.7705224e-05
0.00011986383
3.456424e-08
9.9745994e-08
2.1973287e-07
5.1311831e-07
1.353527e-06
3.3994659e-06
7.7013375e-06
1.5685206e-05
2.9018905e-05
4.9243527e-05
7.7171015e-05
0.00011208526
0.000150925
5.3671924e-08
1.4433391e-07
2.5830972e-07
4.1938676e-07
8.7088875e-07
2.0962154e-06
4.9731716e-06
1.0821192e-05
2.1383831e-05
3.8608016e-05
6.4180123e-05
9.8800602e-05
0.00014128769
0.00018771882
8.1959576e-08
2.1224094e-07
3.6544167e-07
4.8946356e-07
7.1561236e-07
1.3492247e-06
3.0643056e-06
6.9876794e-06
1.4771386e-05
2.8510452e-05
5.0442898e-05
8.2367543e-05
0.00012479281
0.00017594695
0.00023091267
1.2291512e-07
3.0174223e-07
5.2696676e-07
6.9470359e-07
8.4354405e-07
1.1143001e-06
1.9673185e-06
4.2940682e-06
9.5376227e-06
1.9727671e-05
3.7345395e-05
6.4921947e-05
0.00010432054
0.00015575141
0.00021672
0.00028117702
1.7963773e-07
4.1382087e-07
7.3076272e-07
1.0039656e-06
1.2025534e-06
1.3241902e-06
1.6190902e-06
2.7352464e-06
5.8404411e-06
1.2741536e-05
2.5898118e-05
4.8210557e-05
8.249287e-05
0.00013059559
0.00019231055
0.00026427319
0.00033917314
2.5835554e-07
5.4240148e-07
9.6697451e-07
1.3837117e-06
1.7407165e-06
1.8979483e-06
1.921316e-06
2.2244151e-06
3.6812149e-06
7.7760278e-06
1.6741928e-05
3.3525559e-05
6.1475634e-05
0.00010364834
0.00016178846
0.00023512404
0.00031927053
0.00040553664
3.6476611e-07
7.1482134e-07
1.2327406e-06
1.813667e-06
2.4071772e-06
2.7562857e-06
2.759293e-06
2.6249258e-06
2.9490594e-06
4.8492559e-06
1.0190206e-05
2.1705882e-05
4.2895479e-05
7.7554981e-05
0.00012892842
0.0001985261
0.00028485474
0.00038235826
0.00048086537
5.0685512e-07
8.8806067e-07
1.5300934e-06
2.2749344e-06
3.1603609e-06
3.8293134e-06
4.0143726e-06
3.7770202e-06
3.4622467e-06
3.827651e-06
6.2905032e-06
1.3183131e-05
2.78343e-05
5.4334203e-05
9.6915825e-05
0.00015891444
0.00024145839
0.00034216136
0.00045415179
0.00056570292
6.8176104e-07
1.185711e-06
1.8518223e-06
2.7555902e-06
3.9655877e-06
5.0531381e-06
5.586384e-06
5.5118696e-06
5.003067e-06
4.4805086e-06
4.8919987e-06
8.0523765e-06
1.6876695e-05
3.5362329e-05
6.8222057e-05
0.00012007352
0.00019422444
0.00029124789
0.00040768583
0.00053522079
0.00066052738
8.9484319e-07
1.418669e-06
2.2616392e-06
3.2629448e-06
4.8118582e-06
6.3809945e-06
7.3914073e-06
7.679114e-06
7.3453494e-06
6.5235863e-06
5.7133592e-06
6.1536475e-06
1.0188868e-05
2.1418779e-05
4.457492e-05
8.4990133e-05
0.00014759142
0.00023550618
0.00034855872
0.00048203732
0.00062607718
0.00076573582
1.1362462e-06
1.9485638e-06
2.6778107e-06
3.8161541e-06
5.687409e-06
7.7907854e-06
9.3571559e-06
1.0154908e-05
1.026901e-05
9.6626084e-06
8.3978369e-06
7.1528446e-06
7.6127098e-06
1.2770224e-05
2.6998191e-05
5.5806405e-05
0.00010512419
0.00018007721
0.00028342825
0.00041404085
0.00056578276
0.00072715939
0.00088163684
1.4115622e-06
2.2462336e-06
3.3807207e-06
4.4255052e-06
6.6300539e-06
9.2653854e-06
1.1438387e-05
1.2828784e-05
1.3582441e-05
1.3594857e-05
1.2567702e-05
1.0613428e-05
8.760933e-06
9.2762474e-06
1.5897545e-05
3.3848473e-05
6.944623e-05
0.00012916411
0.00021817722
0.00033866916
0.0004883205
0.00065942949
0.00083882372
0.0010084399
1.6624262e-06
3.1199982e-06
4.0080813e-06
5.2534347e-06
7.6381801e-06
1.0855468e-05
1.362e-05
1.5626227e-05
1.7123969e-05
1.8050015e-05
1.7830993e-05
1.6057359e-05
1.310706e-05
1.0498991e-05
1.1174235e-05
1.9709191e-05
4.2252278e-05
8.5941368e-05
0.00015770189
0.00026256967
0.00040190355
0.00057198491
0.00076341503
0.00096133218
0.0011462521
1.9394642e-06
3.7336111e-06
5.2333924e-06
6.152255e-06
8.9130546e-06
1.2555518e-05
1.5943586e-05
1.8515701e-05
2.0782288e-05
2.2799897e-05
2.3836925e-05
2.29974e-05
2.0053398e-05
1.5811706e-05
1.2349763e-05
1.3366267e-05
2.4381812e-05
5.2545841e-05
0.00010579753
0.00019138021
0.00031395628
0.0004737921
0.00066556993
0.00087809271
0.0010948481
0.0012950734
2.2457443e-06
4.9255474e-06
6.3731714e-06
7.6026659e-06
1.0332222e-05
1.4620677e-05
1.8439132e-05
2.1519028e-05
2.4486569e-05
2.7683852e-05
3.0279972e-05
3.098939e-05
2.9000505e-05
2.4479475e-05
1.8690407e-05
1.4320573e-05
1.5936999e-05
3.013431e-05
6.5122289e-05
0.00012958346
0.00023088773
0.00037304744
0.00055496853
0.0007695444
0.0010037258
0.0012394301
0.0014547973
2.7516296e-06
6.0985188e-06
8.3568354e-06
9.20601e-06
1.2423569e-05
1.6949461e-05
2.1356063e-05
2.4708007e-05
2.8238714e-05
3.2581523e-05
3.6938422e-05
3.9641569e-05
3.9388751e-05
3.5758888e-05
2.9310104e-05
2.1733782e-05
1.6429765e-05
1.8995102e-05
3.7231592e-05
8.0440935e-05
0.0001579308
0.00027695221
0.00044055547
0.00064602315
0.00088430106
0.0011404781
0.0013950311
0.0016252124
3.2792999e-06
7.3203969e-06
1.0386569e-05
1.1844052e-05
1.4859629e-05
2.0127387e-05
2.4688155e-05
2.8299488e-05
3.2120352e-05
3.7477094e-05
4.3633885e-05
4.8660745e-05
5.0719053e-05
4.8945546e-05
4.3285226e-05
3.4562279e-05
2.4933877e-05
1.8697481e-05
2.2675343e-05
4.5997035e-05
9.9032513e-05
0.00019153373
0.00033032795
0.00051717879
0.00074749132
0.0010101426
0.0012884113
0.0015614974
0.0018060073
3.8127934e-06
8.5124249e-06
1.2335647e-05
1.4765531e-05
1.8699328e-05
2.3880353e-05
2.9046785e-05
3.2421411e-05
3.6334491e-05
4.2427098e-05
5.0330852e-05
5.7802724e-05
6.2603875e-05
6.3398728e-05
5.9731701e-05
5.1672895e-05
4.0249252e-05
2.8259152e-05
2.1142345e-05
2.7151974e-05
5.6823211e-05
0.00012150588
0.00023114328
0.00039178859
0.0006035888
0.00085983563
0.0011472769
0.0014474782
0.0017385722
0.0019967775
4.335101e-06
9.228671e-06
1.4332022e-05
1.7805712e-05
2.3093738e-05
2.9526793e-05
3.417877e-05
3.7689636e-05
4.1126908e-05
4.7647933e-05
5.7047139e-05
6.6995788e-05
7.4722186e-05
7.8601381e-05
7.7826328e-05
7.1964505e-05
6.102092e-05
4.633254e-05
3.1640423e-05
2.3793202e-05
3.2654382e-05
7.0185248e-05
0.0001485481
0.00027755944
0.00046211408
0.00070041027
0.0009834363
0.0012958078
0.0016175252
0.0019259022
0.0021970338
4.6682821e-06
1.0262304e-05
1.5735696e-05
2.075516e-05
2.7922841e-05
3.6188651e-05
4.1792596e-05
4.395087e-05
4.7108112e-05
5.3438235e-05
6.402081e-05
7.6208272e-05
8.6945189e-05
9.4126395e-05
9.6879324e-05
9.4392525e-05
8.5893781e-05
7.1345241e-05
5.2695165e-05
3.497905e-05
2.6707638e-05
3.9486513e-05
8.6647739e-05
0.00018092538
0.00033162124
0.00054206986
0.00080820602
0.0011185791
0.0014557331
0.0017982979
0.0021230442
0.002406212
4.8388873e-06
1.0689787e-05
1.7583724e-05
2.3185393e-05
3.2378507e-05
4.3556308e-05
5.1077697e-05
5.3221726e-05
5.4316755e-05
6.044615e-05
7.1552201e-05
8.5685224e-05
9.9183672e-05
0.00010975681
0.00011631851
0.00011805285
0.00011356751
0.00010166147
8.2526714e-05
5.9143889e-05
3.8168279e-05
2.9997119e-05
4.804045e-05
0.0001068735
0.00021947401
0.0003941911
0.00063238912
0.00092746087
0.0012654495
0.0016269404
0.0019894449
0.002329474
0.0026236845
4.6768591e-06
1.0961321e-05
1.8677024e-05
2.6046973e-05
3.6382892e-05
5.0020714e-05
6.1521921e-05
6.4771751e-05
6.4950253e-05
6.8895144e-05
8.0337914e-05
9.5708581e-05
0.00011166349
0.0001253368
0.00013579399
0.00014218213
0.00014288733
0.00013569277
0.00011920831
9.4313185e-05
6.5433538e-05
4.1125596e-05
3.384698e-05
5.8812984e-05
0.00013162169
0.00026508974
0.00046614002
0.00073375896
0.0010585751
0.001424122
0.0018092122
0.0021905223
0.0025445978
0.0028487717
4.2048571e-06
1.0679235e-05
1.9359011e-05
2.8028299e-05
4.0739259e-05
5.6195828e-05
7.0591719e-05
7.8694703e-05
7.8473203e-05
8.0930837e-05
9.075492e-05
0.00010699628
0.00012463794
0.00014104442
0.00015505669
0.00016625995
0.00017285421
0.0001720002
0.00016083438
0.00013826899
0.00010635605
7.130714e-05
4.3817809e-05
3.853937e-05
7.241102e-05
0.00016174673
0.00031871902
0.00054833125
0.00084680553
0.0012018472
0.0015945601
0.0020022286
0.0024010027
0.0027677621
0.0030807526
3.4753625e-06
9.8308846e-06
1.9200013e-05
2.9327689e-05
4.3967792e-05
6.2570933e-05
7.9510754e-05
9.0987109e-05
9.5895596e-05
9.64012e-05
0.00010480542
0.00012004358
0.00013885619
0.0001570924
0.00017420434
0.00018989807
0.00020274599
0.00020930842
0.00020564714
0.00018876479
0.00015843126
0.00011825846
7.6526068e-05
4.6288456e-05
4.4464865e-05
8.9557331e-05
0.000198187
0.00038134549
0.00064159973
0.00097207024
0.0013574653
0.0017766146
0.0022055718
0.0026202865
0.0029982641
0.0033188767
2.6081862e-06
8.4478679e-06
1.8043032e-05
2.954288e-05
4.6028497e-05
6.7575969e-05
8.8614141e-05
0.00010317355
0.00011180849
0.00011745923
0.00012282037
0.00013664895
0.00015486092
0.00017424404
0.00019340867
0.00021308843
0.00023199007
0.0002466618
0.00025205316
0.00024368192
0.00021904649
0.00017920122
0.00012961375
8.0899423e-05
4.8672906e-05
5.2136187e-05
0.00011109271
0.0002419649
0.00045397051
0.00074672941
0.0011099975
0.0015254987
0.0019700254
0.002418732
0.0028477134
0.0032353649
0.0035623753
1.7770155e-06
6.6538039e-06
1.5934021e-05
2.8289902e-05
4.6600864e-05
7.0649861e-05
9.632997e-05
0.00011582694
0.00012797279
0.00013760667
0.0001480935
0.00015795426
0.0001743421
0.00019307681
0.00021340698
0.00023593386
0.00026044859
0.00028325808
0.00029882296
0.0003010639
0.00028567558
0.00025113563
0.00020005756
0.00014003308
8.429602e-05
5.1212931e-05
6.2196233e-05
0.00013797705
0.00029417278
0.00053759154
0.00086443538
0.0012609189
0.0017058971
0.0021744226
0.002641123
0.003082573
0.0034783002
0.0038104719
1.1232725e-06
4.7631963e-06
1.3088467e-05
2.5625422e-05
4.4970007e-05
7.1664885e-05
0.000101126
0.00012744448
0.00014482928
0.00015895401
0.00017306218
0.00018787145
0.00019891053
0.00021526597
0.00023482469
0.00025911016
0.00028809983
0.0003188086
0.00034487998
0.00035935237
0.00035594713
0.00033107564
0.00028445937
0.00022047855
0.00014915423
8.6660279e-05
5.4270085e-05
7.5432889e-05
0.0001712871
0.0003559542
0.00063317821
0.00099534049
0.0014250459
0.001898485
0.0023893367
0.0028720916
0.0033241159
0.0037262911
0.0040623915
7.5840467e-07
3.1487041e-06
1.0028116e-05
2.1832287e-05
4.1224026e-05
6.9441028e-05
0.0001032667
0.00013508238
0.00016151617
0.00018041018
0.00020049233
0.00021803011
0.00023309025
0.00024252868
0.00025938113
0.00028329579
0.00031556091
0.0003531015
0.00038975083
0.00041714667
0.00042789913
0.0004161709
0.0003793259
0.00031844797
0.00023993638
0.00015664229
8.8022103e-05
5.8350029e-05
9.2784271e-05
0.00021220913
0.00042848113
0.00074164655
0.0011399598
0.0016024562
0.0021029671
0.0026142091
0.0031109258
0.0035715668
0.0039785553
0.0043173701
2.2108558e-06
7.4905711e-07
7.379791e-06
1.7642592e-05
3.5778568e-05
6.4108334e-05
0.00010096415
0.00013961892
0.00017316446
0.00020306303
0.00022688393
0.00025249465
0.00026912871
0.00028011126
0.00028871978
0.00031021393
0.00034348523
0.00038669103
0.00043297388
0.0004737425
0.00049975103
0.00050396787
0.00048124932
0.00042990708
0.00035251117
0.00025787637
0.00016218555
8.8526045e-05
6.4123249e-05
0.00011534491
0.00026202281
0.00051292804
0.00086383572
0.0012986794
0.0017930934
0.0023189338
0.0028484018
0.0033568689
0.0038241351
0.0042343153
0.0045746615
5.8368324e-06
2.2156222e-06
1.0961158e-06
1.3981537e-05
2.9696698e-05
5.6269536e-05
9.4335195e-05
0.0001385194
0.00018147161
0.00021957013
0.00025632476
0.00028441941
0.00031187348
0.0003219927
0.0003288271
0.00034136089
0.00037358248
0.00042011207
0.00047502105
0.00052836359
0.0005704955
0.00059223006
0.00058718973
0.00055081735
0.0004822962
0.00038598335
0.0002736933
0.00016551349
8.8454037e-05
7.2446845e-05
0.00014436671
0.00032208026
0.00061044409
0.00100048
0.0014717472
0.0019967644
0.0025458705
0.0030912069
0.0036091313
0.0040810237
0.0044928076
0.0048335441
1.1845925e-05
5.8412215e-06
3.1599067e-06
1.7316668e-06
2.4390059e-05
4.7467361e-05
8.4131068e-05
0.00013173611
0.00018308228
0.00023275207
0.00027853142
0.00032169584
0.00035034502
0.00037308598
0.00037555128
0.00038307999
0.00040733109
0.00045507206
0.00051620592
0.00058138328
0.00063900278
0.00067955422
0.00069435724
0.00067744978
0.00062456509
0.00053586504
0.00041806234
0.00028672762
0.00016643789
8.8266899e-05
8.4375139e-05
0.00018124881
0.00039377924
0.00072212082
0.001152188
0.0016592614
0.0022131451
0.0027831654
0.0033418604
0.0038669021
0.0043414415
0.0047532893
0.0050933262
2.1276116e-05
1.1861239e-05
7.3910023e-06
4.7774955e-06
2.5474972e-06
3.9785879e-05
7.2480526e-05
0.00012005984
0.00017759757
0.00023832528
0.00029760788
0.00035064672
0.00039747547
0.0004186764
0.00043431673
0.00043326398
0.00045053527
0.00049293191
0.00055824002
0.00063277286
0.00070550003
0.00076441376
0.00080082956
0.00080634604
0.00077480688
0.00070208187
0.00058976753
0.00044777777
0.00029629564
0.00016490914
8.8648329e-05
0.00010117874
0.00022752028
0.00047853131
0.00084896056
0.0013194219
0.0018611688
0.0024417839
0.0030301219
0.0035995547
0.0041293603
0.0046046098
0.0050150449
0.0053533504
3.521879e-05
2.1297386e-05
1.4022885e-05
1.0045525e-05
6.6681796e-06
3.4061358e-06
6.2211629e-05
0.00010621507
0.00016571635
0.00023538158
0.00030831693
0.00037716911
0.00043532068
0.00047746042
0.00048717622
0.00049909803
0.00050355842
0.00053896621
0.00060221297
0.00068429944
0.00076955862
0.00084681191
0.00090462239
0.00093492329
0.00092877343
0.00087926488
0.00078267163
0.00064285956
0.00047399393
0.00030175188
0.00016106917
9.0538045e-05
0.00012434417
0.00028481574
0.00057772426
0.00099184568
0.0015024843
0.0020772606
0.002682113
0.0032859698
0.0038634509
0.0043956859
0.0048697712
0.0052773905
0.0056129973
5.6011691e-05
3.5176863e-05
2.4447422e-05
1.7703871e-05
1.3109416e-05
8.4590715e-06
4.1356699e-06
9.3700358e-05
0.00015071506
0.00022442091
0.00030916047
0.00039474795
0.00047193844
0.00052663203
0.00055862906
0.00055915617
0.00057667141
0.00059525309
0.00065328785
0.00073657418
0.00083302684
0.00092592049
0.001005398
0.0010606425
0.0010830725
0.0010622587
0.00099049858
0.00086520834
0.00069366499
0.00049546226
0.00030255444
0.00015531253
9.5158077e-05
0.00015556594
0.00035483995
0.00069268213
0.0011515127
0.0017015047
0.002307179
0.0029334554
0.0035498815
0.004132693
0.0046650694
0.0051361952
0.0055396785
0.0058716873
8.6006765e-05
5.5891706e-05
3.9661851e-05
2.9782331e-05
2.1908635e-05
1.5957232e-05
9.8385549e-06
4.6152443e-06
0.00013663685
0.00020911876
0.00030023268
0.00040127517
0.00049933333
0.00057666517
0.00062105952
0.00064401651
0.00064352308
0.00067551962
0.00071409102
0.00079497598
0.00089591968
0.0010036385
0.0011019208
0.0011826643
0.0012344816
0.0012467295
0.0012070845
0.0011076384
0.00094805691
0.00074040623
0.00051089694
0.00029835598
0.00014834672
0.00010403389
0.00019672288
0.00043932497
0.00082462764
0.0013285259
0.0019164353
0.002550419
0.0031950425
0.0038209846
0.0044064194
0.0049367194
0.0054031824
0.0058012995
0.0061288827
0.00012789938
8.5823068e-05
6.1869708e-05
4.7278037e-05
3.5883648e-05
2.57092e-05
1.8070363e-05
1.0681935e-05
4.7897869e-06
0.00019407098
0.00028546931
0.00039616315
0.00051453369
0.0006174921
0.00068788895
0.0007214327
0.00074169323
0.00074833325
0.00080151163
0.00086108573
0.00096399391
0.0010794873
0.001196043
0.0012993334
0.0013814831
0.0014286006
0.0014270248
0.0013628918
0.0012291248
0.0010290685
0.00078107771
0.00051908663
0.00028910428
0.00014124693
0.00011899562
0.0002498437
0.00053998241
0.00097464144
0.0015232591
0.0021470459
0.0028063445
0.0034660276
0.0040983793
0.0046837719
0.0052098672
0.0056700695
0.0060616867
0.0063840894
0.0001847271
0.0001278277
9.3169833e-05
7.1952445e-05
5.6042213e-05
4.1339478e-05
2.8375821e-05
1.9228878e-05
1.0961317e-05
4.632308e-06
0.00026996749
0.00038336165
0.00051576878
0.00064545943
0.00074614564
0.00080831992
0.00083479841
0.00085912388
0.00087982943
0.00095593789
0.0010374663
0.0011595296
0.0012870151
0.0014122806
0.0015219524
0.0016055343
0.0016452068
0.00162436
0.0015284643
0.0013526607
0.0011056288
0.00081355786
0.00051901492
0.00027515208
0.00013550624
0.00014216678
0.00031705934
0.0006584528
0.0011436269
0.0017358781
0.0023929326
0.0030741995
0.0037455041
0.0043811464
0.0049639018
0.005483775
0.0059362365
0.0063203195
0.0066368562
0.0002602784
0.00018494051
0.00013641425
0.00010539266
8.3484756e-05
6.3865145e-05
4.5090878e-05
2.9622714e-05
1.938695e-05
1.0693427e-05
4.3120465e-06
0.00036843789
0.00050689811
0.00065690218
0.00079146428
0.00088835315
0.00094443969
0.00096783332
0.0010023593
0.001040073
0.0011412515
0.0012428721
0.001380966
0.0015205958
0.001657013
0.0017747927
0.0018583091
0.0018857058
0.0018381458
0.0017016437
0.0014752325
0.0011747684
0.00083574634
0.00051000536
0.00025732075
0.00013305372
0.00017592987
0.00040054552
0.00079625126
0.0013322757
0.0019663378
0.002653526
0.0033531282
0.0040325141
0.0046683563
0.0052459817
0.0057577494
0.0062011136
0.0065767193
0.0068867724
0.00035894491
0.00026070161
0.00019464714
0.00015035701
0.00011905204
9.3640175e-05
6.9203408e-05
4.6717303e-05
2.9398325e-05
1.8702469e-05
1.0266339e-05
3.8010072e-06
0.00049379721
0.00065526226
0.00081781298
0.00095635647
0.0010500505
0.0011018578
0.0011265181
0.0011755267
0.0012307708
0.0013573888
0.0014763833
0.0016302715
0.0017856445
0.0019367844
0.002062788
0.0021424459
0.0021504041
0.0020666619
0.0018793017
0.0015931956
0.0012332997
0.00084573422
0.00049184395
0.00023695954
0.0001362431
0.00022287604
0.00050245577
0.00095471378
0.0015410473
0.0022143826
0.0029281071
0.0036421791
0.0043260602
0.0049590851
0.0055292285
0.0060311508
0.0064641692
0.0068304392
0.0071454407
0.00048495365
0.00035946357
0.00027110419
0.00020993162
0.0001652622
0.00013064793
0.00010028187
7.1443317e-05
4.613338e-05
2.8090538e-05
1.7606466e-05
9.2323126e-06
3.2770715e-06
0.00064634908
0.00082760424
0.0010030441
0.0011456015
0.0012359124
0.0012861359
0.0013150944
0.0013804016
0.0014526407
0.0016021474
0.0017396884
0.001913445
0.002090278
0.0022581888
0.0023899454
0.0024593856
0.0024383287
0.0023070098
0.0020574028
0.0017023931
0.0012779817
0.00084196599
0.00046490312
0.00021600583
0.00014783693
0.00028573375
0.00062484883
0.0011349546
0.0017701569
0.0024795536
0.0032158091
0.0039403208
0.0046251274
0.0052524498
0.005812916
0.0063033707
0.0067248875
0.0070918667
0.0074185349
0.00063925955
0.00048498535
0.00036985658
0.00028708609
0.0002253231
0.00017709225
0.00013745215
0.00010263863
7.0454173e-05
4.4060089e-05
2.6097915e-05
1.5757392e-05
8.5138342e-06
2.753972e-06
0.00082622472
0.0010291404
0.0012178544
0.0013630718
0.0014508849
0.0015020693
0.0015363096
0.0016179003
0.0017038509
0.0018771248
0.0020388055
0.0022402611
0.0024429075
0.0026267666
0.0027590464
0.0028092004
0.0027471828
0.0025551194
0.0022310793
0.0017983111
0.0013057185
0.00082342869
0.00043026542
0.00019702382
0.00017094948
0.00036728381
0.00076962143
0.0013378349
0.002019566
0.0027611806
0.0035156279
0.0042464716
0.0049287332
0.0055476247
0.006096336
0.0065737921
0.0069930586
0.0073669263
0.0076986649
0.00082288577
0.00063853751
0.00049389894
0.00038537893
0.00030206443
0.00023626448
0.00018258953
0.00013863738
0.00010058826
6.7407072e-05
4.082205e-05
2.3221804e-05
1.4347108e-05
7.3249334e-06
2.2509758e-06
0.0010389135
0.0012649205
0.0014654477
0.0016130296
0.0017005849
0.001753191
0.0017935998
0.0018835169
0.0019861222
0.0021879717
0.002385331
0.0026211091
0.0028505909
0.0030468062
0.0031714605
0.00319053
0.0030732873
0.0028057854
0.0023947532
0.001876268
0.0013137861
0.00078983545
0.00038980303
0.00018317663
0.00020896314
0.00047027304
0.00093845377
0.0015639303
0.0022889574
0.0030583876
0.003826465
0.0045595666
0.0052359475
0.005843782
0.0063787374
0.0068521665
0.0072747755
0.0076501574
0.0079857308
0.0010412984
0.00082177346
0.00064434345
0.00050692038
0.00039841096
0.00031094625
0.00023910614
0.00018101796
0.00013425194
9.5877424e-05
6.2433497e-05
3.6451911e-05
2.0779236e-05
1.234661e-05
6.1075212e-06
1.9470471e-06
0.0012893184
0.0015373847
0.0017491325
0.001901503
0.0019899375
0.002043619
0.0020833687
0.0021751205
0.0023015813
0.0025483029
0.0027916667
0.0030646115
0.0033191991
0.0035211835
0.0036271135
0.0036005378
0.0034115923
0.0030527457
0.002542295
0.0019316504
0.0013000699
0.00074178688
0.00034621607
0.00017815888
0.00026543417
0.00059733548
0.0011327458
0.0018134762
0.0025777285
0.0033701466
0.0041472135
0.0048785798
0.0055458057
0.0061400015
0.0066703864
0.0071446741
0.0075658575
0.007941418
0.0082796092
0.0012995871
0.0010399542
0.00082315177
0.00065221217
0.00051558024
0.00040341994
0.00030989299
0.00023339801
0.00017277841
0.00012674904
8.8261298e-05
5.6090371e-05
3.2434809e-05
1.7820872e-05
1.0398445e-05
4.9285402e-06
1.6734809e-06
0.0015790927
0.0018484394
0.0020752893
0.0022352166
0.0023247065
0.0023714999
0.0023980488
0.0024956776
0.0026648517
0.0029739608
0.0032677456
0.0035784321
0.003853224
0.0040514023
0.0041244263
0.0040348241
0.0037556532
0.0032887687
0.002667226
0.0019601813
0.0012633056
0.0006809034
0.00030304549
0.0001861389
0.00034399996
0.00075089418
0.0013535214
0.0020863396
0.0028850555
0.0036953853
0.0044767814
0.0052024008
0.0058571839
0.0064476606
0.0069774608
0.0074478394
0.0078661322
0.0082405294
0.0085801513
0.0015989724
0.0012988424
0.0010352975
0.00082300765
0.00065314615
0.00051407502
0.00039657477
0.00029890495
0.0002200832
0.00016120392
0.00011529003
7.9253285e-05
4.9943504e-05
2.7964151e-05
1.4780155e-05
8.3657612e-06
3.7334331e-06
1.422784e-06
0.0019083715
0.0022041362
0.0024523688
0.0026218403
0.0027048525
0.002727889
0.0027380826
0.0028562927
0.0030956302
0.0034760647
0.0038227889
0.0041687772
0.0044559693
0.0046375581
0.0046602281
0.0044873564
0.0040976478
0.0035057797
0.0027629772
0.001958216
0.0012033174
0.00060993214
0.00026466385
0.00021165839
0.00044824449
0.00093301023
0.0016013643
0.0023820941
0.003210025
0.0040330056
0.0048139185
0.0055296716
0.006183234
0.0067728371
0.0072966236
0.0077614704
0.0081753825
0.0085472684
0.0088871859
0.0019379015
0.0015999711
0.0012873115
0.0010238286
0.00081224845
0.00064138529
0.00049863065
0.00037858704
0.00027951353
0.0002034228
0.00014461336
0.00010277429
7.0395069e-05
4.3508952e-05
2.3123574e-05
1.1855849e-05
6.3752987e-06
3.121447e-06
1.146178e-06
0.0022820547
0.0026142983
0.0028899822
0.0030640586
0.0031206487
0.0031081971
0.003114211
0.0032781678
0.0036054859
0.0040656572
0.0044647217
0.0048410969
0.0051296211
0.0052781903
0.0052295613
0.0049503815
0.0044284171
0.0036950679
0.0028232186
0.0019230904
0.0011212375
0.00053279483
0.00023620212
0.00025947798
0.00058148818
0.0011452691
0.0018764991
0.0027001708
0.0035516393
0.004381646
0.0051570109
0.0058760493
0.006529826
0.0071117164
0.0076276762
0.0080853265
0.0084933301
0.0088613762
0.0092005155
0.0023196809
0.0019404874
0.0015818096
0.0012620917
0.000996699
0.00078558068
0.00061346716
0.00047111503
0.00035168633
0.00025704714
0.0001806618
0.00012780347
9.0676452e-05
6.1394347e-05
3.6147249e-05
1.8719294e-05
9.2134647e-06
5.2382157e-06
2.2494317e-06
9.0439698e-07
0.0027110872
0.0030900577
0.0033936282
0.0035520461
0.003563268
0.0035206334
0.0035460858
0.0037755036
0.0042079032
0.0047518265
0.005201387
0.005599909
0.0058749552
0.0059700098
0.0058255176
0.00541438
0.0047375596
0.0038475554
0.0028422148
0.0018534423
0.0010196922
0.0004546326
0.00022341064
0.00033430855
0.00074660965
0.0013888626
0.0021789647
0.0030398394
0.0039084969
0.0047394308
0.0055250394
0.0062470814
0.0068919749
0.0074641056
0.0079703691
0.0084190908
0.0088196482
0.0091825495
0.0095199216
0.002756332
0.0023232874
0.0019155908
0.0015414561
0.0012144505
0.00094971257
0.00074046211
0.00057298814
0.00043451005
0.00032246057
0.00022739752
0.00015908388
0.00011167429
7.8495872e-05
5.1002372e-05
2.9487767e-05
1.4869545e-05
7.6093454e-06
4.0134672e-06
1.9491006e-06
6.8894607e-07
0.0032068887
0.0036383157
0.0039552931
0.0040748865
0.0040394032
0.0039811905
0.0040447847
0.0043686391
0.0049113685
0.0055448722
0.0060398625
0.0064485843
0.006690967
0.006707714
0.0064391314
0.005867992
0.0050135701
0.0039541582
0.0028152769
0.0017495561
0.0009029692
0.00038172645
0.00023235852
0.0004405692
0.00094612713
0.0016647766
0.0025085402
0.0033997798
0.0042784815
0.0051295769
0.0059231452
0.0066358414
0.0072695074
0.0078297624
0.0083243632
0.0087623856
0.009153951
0.0095104515
0.0098451608
0.003258506
0.0027604095
0.0022916952
0.0018589093
0.0014699421
0.0011419481
0.00088200747
0.0006828267
0.00052357364
0.00039680485
0.00028485313
0.00020079369
0.00013771409
9.5819342e-05
6.4660747e-05
4.1725637e-05
2.3852269e-05
1.2432559e-05
6.1566321e-06
3.3850733e-06
1.4210993e-06
5.120238e-07
0.0037763967
0.0042543452
0.004563288
0.0046387927
0.0045629766
0.0045158957
0.0046318882
0.0050616805
0.0057286591
0.0064550935
0.0069864056
0.0073888672
0.007574692
0.0074837877
0.0070590951
0.0062979988
0.0052440874
0.0040062793
0.0027392788
0.0016137236
0.00077706093
0.00032118975
0.0002691198
0.00058246121
0.0011823871
0.0019736375
0.0028641824
0.0037777038
0.0046900086
0.0055568039
0.0063415811
0.0070421955
0.0076622082
0.0082083413
0.0086892466
0.0091147611
0.0094958051
0.0098447037
0.010175967
0.0038323451
0.0032623357
0.0027224387
0.0022179138
0.0017608085
0.001367355
0.001046458
0.00080273499
0.00061699818
0.00047518531
0.00034983195
0.00025277374
0.00017323515
0.00011746685
7.8430556e-05
5.3126126e-05
3.4131288e-05
2.010687e-05
1.0336134e-05
5.2576819e-06
2.6827273e-06
1.185699e-06
3.685509e-07
0.0044169717
0.0049277372
0.0052241999
0.0052584962
0.0051597319
0.0051316724
0.0053147409
0.0058683873
0.0066725197
0.0074925769
0.0080460409
0.0084207256
0.0085209804
0.008288115
0.0076715398
0.0066893534
0.0054163317
0.0039963736
0.002613179
0.0014504823
0.00064944824
0.00028063968
0.00033986053
0.00076414978
0.0014572918
0.0023149633
0.0032435658
0.004208189
0.00514748
0.0060075501
0.0067802735
0.0074659805
0.0080697454
0.0085994144
0.0090645228
0.0094757062
0.0098447215
0.010184912
0.010512103
0.0044759464
0.0038337397
0.0032174883
0.0026304239
0.00209061
0.0016240701
0.0012392063
0.00094120613
0.00071704471
0.00055563756
0.00041715678
0.00031151979
0.00021817108
0.00014815686
9.6407451e-05
6.4916696e-05
4.3888769e-05
2.9016982e-05
1.6936637e-05
8.9155294e-06
4.4288444e-06
2.2651274e-06
8.8914673e-07
2.6095617e-07
0.0051213781
0.005667443
0.005955739
0.0059523692
0.0058360491
0.0058369234
0.0061068683
0.006806035
0.0077560216
0.0086659556
0.0092223106
0.009542218
0.0095221493
0.009107503
0.0082597785
0.0070254139
0.005517702
0.0039186957
0.0024385404
0.0012665773
0.00052882977
0.00026830334
0.00045101106
0.00098933149
0.001771325
0.0026866235
0.0036882943
0.0046956416
0.0056324694
0.0064818182
0.0072391334
0.007906901
0.0084916946
0.0090024575
0.0094496205
0.0098446407
0.010200199
0.010530707
0.010853267
0.0051853409
0.0044732126
0.0037802293
0.0031050787
0.0024701939
0.0019159507
0.0014597753
0.0011042273
0.00083226864
0.00064087856
0.00048524417
0.0003721107
0.00026892059
0.0001878861
0.00012280325
8.0924607e-05
5.4293249e-05
3.7651091e-05
2.4666536e-05
1.4609017e-05
7.6384511e-06
3.8191769e-06
1.8549943e-06
7.1534347e-07
1.8143783e-07
0.0059003295
0.0064944928
0.0067748628
0.0067305272
0.0066060263
0.0066403708
0.0070308393
0.0078898113
0.0089911742
0.0099822679
0.010517088
0.010749159
0.010567277
0.0099250717
0.0088041796
0.007288389
0.0055365871
0.003770121
0.0022198062
0.0010708138
0.00042525512
0.00029320489
0.00060862682
0.0012599715
0.0021228969
0.0031378091
0.0042034339
0.0052157315
0.0061450612
0.0069796164
0.0077179272
0.0083645599
0.0089275238
0.0094168569
0.0098438848
0.010220975
0.010561754
0.010881646
0.011199146
0.0059721461
0.0051794974
0.0044096932
0.0036438285
0.0029063896
0.0022518845
0.0017121873
0.0012926602
0.0009695265
0.00073998161
0.00055721786
0.00043308887
0.00032147037
0.00023293974
0.00015790151
0.00010476672
6.8865396e-05
4.7088889e-05
3.2398031e-05
2.1340066e-05
1.2547671e-05
6.6298714e-06
3.2656135e-06
1.5327131e-06
5.4320957e-07
1.2421399e-07
0.0067779107
0.0074278265
0.007691054
0.0076013259
0.0074677226
0.0075652435
0.0081024259
0.00913436
0.010389163
0.011447298
0.011930759
0.01203448
0.011641236
0.010719743
0.0092823087
0.007460085
0.0054634288
0.0035507808
0.0019643817
0.00087435491
0.00035041426
0.00036429466
0.00081677672
0.0015755168
0.0025687566
0.00367541
0.0047578735
0.0057686139
0.0066853769
0.0075007963
0.00821631
0.0088384382
0.0093765973
0.0098419021
0.010246655
0.010604119
0.010928823
0.011237238
0.011549411
0.0068604953
0.0059648614
0.0051062449
0.004244797
0.0033993818
0.0026368308
0.0020031738
0.0015104678
0.0011310156
0.00086041411
0.0006424995