/*--------------------------------*- C++ -*----------------------------------*\
| =========                 |                                                 |
| \\      /  F ield         | OpenFOAM: The Open Source CFD Toolbox           |
|  \\    /   O peration     | Version:  5.0                                   |
|   \\  /    A nd           | Web:      www.OpenFOAM.org                      |
|    \\/     M anipulation  |                                                 |
\*---------------------------------------------------------------------------*/
FoamFile
{
    version     2.0;
    format      ascii;
    class       volVectorField;
    location    "300";
    object      U;
}
// * * * * * * * * * * * * * * * * * * * * * * * * * * * * * * * * * * * * * //

dimensions      [0 1 -1 0 0 0 0];

internalField   nonuniform List<vector> 
9520
(
(1.0143318 0.0001664361 0)
(1.0144302 0.00048768858 0)
(1.0138371 0.00016424947 0)
(1.0146036 0.00078589758 0)
(1.0139376 0.00048241091 0)
(1.013648 0.00016259207 0)
(1.0148358 0.0010605255 0)
(1.0141162 0.00077924454 0)
(1.013748 0.00047719101 0)
(1.0133407 0.00016481866 0)
(1.0151123 0.0013109375 0)
(1.0143576 0.0010540702 0)
(1.0139269 0.00077118597 0)
(1.0134411 0.00048264789 0)
(1.0131015 0.00017082499 0)
(1.0154205 0.001536807 0)
(1.014648 0.0013069689 0)
(1.0141697 0.001044203 0)
(1.0136208 0.00077978018 0)
(1.0132026 0.00049986438 0)
(1.012826 0.00017704318 0)
(1.0157492 0.0017380696 0)
(1.0149745 0.00153692 0)
(1.0144631 0.0012979374 0)
(1.0138642 0.0010566728 0)
(1.0133831 0.00080780552 0)
(1.0129271 0.00051934119 0)
(1.0125711 0.00017890515 0)
(1.016089 0.0019140995 0)
(1.015327 0.0017438592 0)
(1.0147948 0.0015310761 0)
(1.0141589 0.0013160989 0)
(1.0136269 0.0010959267 0)
(1.0131062 0.0008415326 0)
(1.0126711 0.00052713695 0)
(1.0123155 0.00017552101 0)
(1.0164325 0.0020640288 0)
(1.0156973 0.001928024 0)
(1.0151541 0.001743133 0)
(1.0144944 0.0015576708 0)
(1.0139221 0.0013663556 0)
(1.0133482 0.0011456173 0)
(1.0128476 0.00085773227 0)
(1.0124112 0.00051917662 0)
(1.0120814 0.00016888152 0)
(1.0167752 0.0021859712 0)
(1.0160802 0.002089671 0)
(1.015532 0.0019341188 0)
(1.0148601 0.0017811593 0)
(1.0142593 0.0016201147 0)
(1.0136407 0.0014323995 0)
(1.0130866 0.0011731839 0)
(1.0125812 0.00084813827 0)
(1.0121725 0.00050015016 0)
(1.011864 0.00016240933 0)
(1.0171174 0.0022741832 0)
(1.0164741 0.0022304175 0)
(1.0159198 0.0021048815 0)
(1.0152458 0.001986138 0)
(1.0146284 0.0018577635 0)
(1.0139745 0.0017043352 0)
(1.0133756 0.0014735562 0)
(1.0128127 0.0011654731 0)
(1.0123352 0.00081883058 0)
(1.0119502 0.00048021113 0)
(1.0116623 0.0001585517 0)
(1.0174631 0.0023361174 0)
(1.0168832 0.0023564236 0)
(1.0163103 0.0022610313 0)
(1.0156402 0.0021726645 0)
(1.0150198 0.0020789974 0)
(1.0143403 0.0019630244 0)
(1.0137046 0.0017613676 0)
(1.013093 0.0014727192 0)
(1.0125571 0.0011279953 0)
(1.0121049 0.00078660657 0)
(1.0117444 0.00046725937 0)
(1.0114709 0.00015744807 0)
(1.0178055 0.0023676083 0)
(1.0173107 0.0024713781 0)
(1.0166935 0.0024103472 0)
(1.01603 0.0023429045 0)
(1.0154229 0.0022827665 0)
(1.014731 0.0022087557 0)
(1.0140651 0.0020388675 0)
(1.0134106 0.0017712904 0)
(1.0128272 0.0014323524 0)
(1.0123149 0.0010846462 0)
(1.0118916 0.00076473419 0)
(1.0115498 0.0004627468 0)
(1.0112868 0.00015719267 0)
(1.0181148 0.002394901 0)
(1.0176777 0.002590303 0)
(1.0170142 0.0025721468 0)
(1.0163946 0.0024963059 0)
(1.0158257 0.0024654915 0)
(1.0151419 0.0024398073 0)
(1.0144511 0.0023076099 0)
(1.0137568 0.0020632932 0)
(1.0131331 0.0017322056 0)
(1.0125692 0.0013804223 0)
(1.0120905 0.0010552389 0)
(1.0116896 0.00075633202 0)
(1.0113631 0.00046183614 0)
(1.0111098 0.00015517834 0)
(1.0184283 0.0023841001 0)
(1.0179895 0.0027578641 0)
(1.0172682 0.0027525177 0)
(1.016724 0.0026311785 0)
(1.0162191 0.0026171874 0)
(1.015573 0.0026497147 0)
(1.01486 0.0025686017 0)
(1.0141247 0.0023510446 0)
(1.013465 0.0020282227 0)
(1.0128584 0.0016749945 0)
(1.0123304 0.001344212 0)
(1.011877 0.0010438586 0)
(1.0114958 0.0007545399 0)
(1.0111833 0.00045688246 0)
(1.0109427 0.00014944132 0)
(1.018748 0.0024324933 0)
(1.0182795 0.0029076488 0)
(1.0175384 0.002913618 0)
(1.0170493 0.0027254046 0)
(1.0166296 0.0027239897 0)
(1.0160359 0.0028275061 0)
(1.0152933 0.0028229496 0)
(1.0145093 0.0026380515 0)
(1.0138145 0.0023215764 0)
(1.0131731 0.0019684203 0)
(1.0126034 0.0016336606 0)
(1.0121021 0.0013301921 0)
(1.0116722 0.0010409158 0)
(1.0113095 0.00074731449 0)
(1.0110128 0.00044150052 0)
(1.0107895 0.00013942476 0)
(1.0190966 0.0023550996 0)
(1.0185498 0.0031420035 0)
(1.0177261 0.0030446061 0)
(1.017396 0.0027663613 0)
(1.0170673 0.002745239 0)
(1.0165388 0.0029699804 0)
(1.0157549 0.0030772693 0)
(1.0149073 0.0029318577 0)
(1.0141712 0.0026144764 0)
(1.0135045 0.0022601649 0)
(1.0129012 0.0019245285 0)
(1.0123573 0.001618158 0)
(1.0118826 0.0013263722 0)
(1.0114755 0.0010307692 0)
(1.0111327 0.00072366254 0)
(1.0108558 0.00041325791 0)
(1.0106539 0.00012611397 0)
(1.0194128 0.0025654967 0)
(1.0187855 0.0033258131 0)
(1.017854 0.0031697341 0)
(1.0176756 0.002740962 0)
(1.0174988 0.0027258493 0)
(1.0170766 0.0030601842 0)
(1.016259 0.0033337499 0)
(1.0153145 0.0032426972 0)
(1.0145236 0.0029116359 0)
(1.013843 0.0025489653 0)
(1.0132163 0.002216093 0)
(1.0126354 0.0019103789 0)
(1.0121195 0.0016145726 0)
(1.0116712 0.0013127669 0)
(1.0112891 0.00099966256 0)
(1.010969 0.00067836323 0)
(1.0107165 0.00037447226 0)
(1.0105373 0.00011158325 0)
(1.0198346 0.0022688581 0)
(1.0190653 0.0037858986 0)
(1.0177982 0.0033403356 0)
(1.0178277 0.0026908321 0)
(1.0180065 0.002634412 0)
(1.0176138 0.0031309026 0)
(1.0167892 0.0036147046 0)
(1.0157172 0.0035882304 0)
(1.0148605 0.0032185746 0)
(1.0141783 0.0028323343 0)
(1.0135414 0.0025056432 0)
(1.0129307 0.002207653 0)
(1.0123757 0.0019098346 0)
(1.0118884 0.0015987052 0)
(1.0114708 0.0012729243 0)
(1.0111168 0.00094004308 0)
(1.0108228 0.00061453644 0)
(1.010597 0.00033106624 0)
(1.010439 9.8121032e-05 0)
(1.0200503 0.002890529 0)
(1.0191443 0.0040148146 0)
(1.017563 0.0034689979 0)
(1.0178415 0.0025254318 0)
(1.0184832 0.0024385922 0)
(1.0182491 0.0031763255 0)
(1.0173168 0.0039279941 0)
(1.0160973 0.0039968227 0)
(1.0151582 0.0035482653 0)
(1.0144939 0.0031053163 0)
(1.0138697 0.0027872542 0)
(1.01324 0.0025086408 0)
(1.0126464 0.0022151218 0)
(1.0121192 0.0018940413 0)
(1.0116684 0.0015511588 0)
(1.0112855 0.0011988871 0)
(1.0109615 0.00085251758 0)
(1.0106979 0.00054218467 0)
(1.0104966 0.00028984463 0)
(1.0103559 8.7344424e-05 0)
(1.0203744 0.0021664606 0)
(1.0194134 0.0049149882 0)
(1.0170549 0.0038440663 0)
(1.0176918 0.0022336102 0)
(1.0190467 0.0020339338 0)
(1.0190371 0.0032100471 0)
(1.0178887 0.0042839747 0)
(1.0164163 0.004485484 0)
(1.0153876 0.0039101218 0)
(1.0147688 0.0033667739 0)
(1.0141925 0.0030513603 0)
(1.0135617 0.0028085933 0)
(1.0129301 0.0025319385 0)
(1.0123588 0.0022038944 0)
(1.011873 0.0018400521 0)
(1.011464 0.0014625631 0)
(1.0111192 0.0010906154 0)
(1.010828 0.00074868284 0)
(1.0105945 0.00047284543 0)
(1.0104125 0.00025573653 0)
(1.0102844 7.97526e-05 0)
(1.0200936 0.003389823 0)
(1.0191488 0.0052112999 0)
(1.0163579 0.0039207782 0)
(1.0173366 0.0018881487 0)
(1.0196033 0.0014867291 0)
(1.0200395 0.0031447495 0)
(1.0185732 0.0047448495 0)
(1.0166835 0.0050747477 0)
(1.0154953 0.0043168572 0)
(1.0149623 0.0035956075 0)
(1.0144986 0.0032830388 0)
(1.0138964 0.0030988797 0)
(1.0132294 0.0028604718 0)
(1.0126051 0.0025330624 0)
(1.0120782 0.0021458241 0)
(1.0116431 0.0017363724 0)
(1.0112813 0.0013323363 0)
(1.0109744 0.00095686621 0)
(1.0107188 0.00064671757 0)
(1.0105099 0.00041432808 0)
(1.0103415 0.00023061688 0)
(1.0102213 7.4885791e-05 0)
(1.0198792 0.0021362024 0)
(1.0193138 0.0066269673 0)
(1.0151291 0.0047493598 0)
(1.016708 0.0010871195 0)
(1.0203076 0.00054490139 0)
(1.0212781 0.0030920942 0)
(1.0193906 0.0053380499 0)
(1.0168648 0.0058201127 0)
(1.0154879 0.0047603599 0)
(1.0150936 0.0038019537 0)
(1.0147663 0.003445788 0)
(1.0142486 0.0033606709 0)
(1.0135538 0.0031979816 0)
(1.0128607 0.0028878265 0)
(1.0122792 0.0024751523 0)
(1.0118146 0.0020261837 0)
(1.0114386 0.0015818854 0)
(1.0111231 0.0011677239 0)
(1.0108564 0.00082085627 0)
(1.0106316 0.00056044013 0)
(1.01044 0.00036923652 0)
(1.0102804 0.00021376883 0)
(1.0101638 7.1841753e-05 0)
(1.018962 0.004021222 0)
(1.0177867 0.0069912809 0)
(1.0139416 0.0046470659 0)
(1.0157077 0.00068034384 0)
(1.020868 -0.00058561256 0)
(1.0228428 0.0027577947 0)
(1.0204039 0.0061647847 0)
(1.0169429 0.0067900234 0)
(1.0152447 0.0052772909 0)
(1.0150762 0.0039054971 0)
(1.0150613 0.0035390639 0)
(1.0146415 0.0035674481 0)
(1.0139217 0.0035354676 0)
(1.0131349 0.0032749844 0)
(1.0124737 0.0028380666 0)
(1.0119704 0.0023383244 0)
(1.0115818 0.0018437124 0)
(1.0112636 0.0013841245 0)
(1.0109948 0.00099527391 0)
(1.0107639 0.00070255356 0)
(1.0105622 0.00049439543 0)
(1.0103812 0.0003366089 0)
(1.0102265 0.00020307734 0)
(1.0101105 6.9698617e-05 0)
(1.0193671 0.0028123109 0)
(1.0154837 0.0088868013 0)
(1.0108666 0.0063295527 0)
(1.0143239 -0.0010360379 0)
(1.0219092 -0.0023103876 0)
(1.0247577 0.0026345931 0)
(1.0216074 0.0072098086 0)
(1.0168863 0.008088596 0)
(1.0146992 0.0058610582 0)
(1.0148679 0.0039123538 0)
(1.0153857 0.0034378965 0)
(1.0150995 0.003668081 0)
(1.0143737 0.0038672461 0)
(1.0134459 0.0037051631 0)
(1.0126624 0.0032480741 0)
(1.0121023 0.0026818663 0)
(1.011701 0.0021219721 0)
(1.0113862 0.0016081514 0)
(1.0111226 0.0011724355 0)
(1.0108957 0.00084249953 0)
(1.0106925 0.00060924152 0)
(1.0105062 0.00044575536 0)
(1.0103311 0.00031430452 0)
(1.0101777 0.00019607109 0)
(1.0100607 6.7681424e-05 0)
(1.0183495 0.0050428103 0)
(1.0156904 0.009728956 0)
(1.0076275 0.0056283258 0)
(1.01219 -0.0014878849 0)
(1.0222495 -0.0042750509 0)
(1.0271803 0.0017364597 0)
(1.02313 0.0087239522 0)
(1.016618 0.0097941227 0)
(1.013745 0.0066121496 0)
(1.0143768 0.003723763 0)
(1.0156676 0.0031297515 0)
(1.0157025 0.003678661 0)
(1.0149162 0.0041568356 0)
(1.013828 0.0041947187 0)
(1.01285 0.0037285366 0)
(1.0121999 0.0030689626 0)
(1.0117846 0.002421 0)
(1.011481 0.0018412694 0)
(1.0112309 0.0013538566 0)
(1.0110152 0.00098261106 0)
(1.0108206 0.00071884716 0)
(1.0106383 0.00053873799 0)
(1.0104605 0.00040926529 0)
(1.0102879 0.00029986715 0)
(1.0101326 0.00019043743 0)
(1.010014 6.5243612e-05 0)
(1.0128942 0.0037300022 0)
(1.0151206 0.012203471 0)
(1.0050853 0.0079599984 0)
(1.0096671 -0.0044370589 0)
(1.0235508 -0.0070112235 0)
(1.0296456 0.001698815 0)
(1.0248125 0.010445535 0)
(1.0161098 0.012009493 0)
(1.0122818 0.0074728744 0)
(1.0135047 0.0033697517 0)
(1.0158865 0.0024653674 0)
(1.0165166 0.003550383 0)
(1.0155852 0.0044616682 0)
(1.0142713 0.0047689657 0)
(1.0130422 0.0043124456 0)
(1.0122515 0.003520907 0)
(1.0118168 0.0027451226 0)
(1.0115372 0.0020819146 0)
(1.0113118 0.0015396556 0)
(1.011114 0.0011248158 0)
(1.0109347 0.00082614975 0)
(1.0107656 0.00062185986 0)
(1.0105976 0.00048490387 0)
(1.0104236 0.00038120787 0)
(1.0102504 0.00028962446 0)
(1.0100906 0.00018410006 0)
(1.0099707 6.210917e-05 0)
(1.0003625 0.0068339304 0)
(1.0029622 0.012782711 0)
(1.0024527 0.0074858869 0)
(1.0069676 -0.0054148153 0)
(1.0237349 -0.009828183 0)
(1.0320227 -0.00018161497 0)
(1.0269874 0.013165121 0)
(1.0151133 0.014891697 0)
(1.0101023 0.0086002252 0)
(1.0121548 0.0026824012 0)
(1.0160364 0.0014132641 0)
(1.0175665 0.0031271684 0)
(1.0165437 0.0047964665 0)
(1.0147759 0.0054599424 0)
(1.0132177 0.005054805 0)
(1.0122317 0.0040650478 0)
(1.0117763 0.003100797 0)
(1.0115411 0.0023263758 0)
(1.0113583 0.0017254637 0)
(1.0111866 0.0012696209 0)
(1.0110265 0.00093433126 0)
(1.0108769 0.00069938785 0)
(1.0107277 0.00054468182 0)
(1.0105683 0.00044115179 0)
(1.0103948 0.00035897205 0)
(1.0102175 0.00027838632 0)
(1.010052 0.00017534611 0)
(1.0099313 5.8240923e-05 0)
(0.98735098 0.0068269556 0)
(0.98571766 0.016084925 0)
(0.98941326 0.010387477 0)
(1.0041077 -0.0095122131 0)
(1.0255265 -0.013833558 0)
(1.0350426 4.9956934e-05 0)
(1.0285728 0.0158663 0)
(1.013722 0.018482464 0)
(1.007072 0.0099711 0)
(1.010146 0.0017448045 0)
(1.0160811 -0.00030248303 0)
(1.0189402 0.0023930798 0)
(1.0178912 0.0051163939 0)
(1.015482 0.0063350397 0)
(1.0133377 0.0059853426 0)
(1.0121133 0.004745905 0)
(1.0116262 0.0034941634 0)
(1.0114735 0.002565508 0)
(1.0113635 0.0019018661 0)
(1.011231 0.0014131702 0)
(1.0110922 0.0010456461 0)
(1.010963 0.0007764245 0)
(1.0108389 0.00059422136 0)
(1.0107049 0.0004791621 0)
(1.0105493 0.00040193663 0)
(1.0103734 0.00033781794 0)
(1.0101885 0.00026184332 0)
(1.0100177 0.00016358631 0)
(1.0098962 5.3899876e-05 0)
(0.97318478 0.0094810505 0)
(0.97105427 0.017609183 0)
(0.97487558 0.0084448362 0)
(0.99684607 -0.010439463 0)
(1.0262245 -0.017499542 0)
(1.0399855 -0.0022656124 0)
(1.0293037 0.020274515 0)
(1.0108977 0.023125006 0)
(1.0028012 0.011643557 0)
(1.0073855 0.00026243572 0)
(1.0159812 -0.0026092668 0)
(1.0207126 0.0010799827 0)
(1.0197675 0.005461199 0)
(1.0164678 0.0074736263 0)
(1.0134417 0.0071945785 0)
(1.0118313 0.0055930178 0)
(1.011324 0.0039363165 0)
(1.0113049 0.0027845717 0)
(1.0113181 0.002050087 0)
(1.0112486 0.0015455535 0)
(1.0111337 0.0011594972 0)
(1.0110209 0.00085791166 0)
(1.010921 0.00064070364 0)
(1.0108195 0.0005014321 0)
(1.010696 0.00041817489 0)
(1.0105403 0.00036324481 0)
(1.0103584 0.00031276138 0)
(1.0101639 0.00023947776 0)
(1.0099882 0.00015004722 0)
(1.0098653 4.9660772e-05 0)
(0.95710493 0.010407774 5.5585643e-25)
(0.95501697 0.01965044 0)
(0.96154306 0.009833082 0)
(0.9890432 -0.01686552 0)
(1.0259385 -0.02273987 0)
(1.0425471 -0.0021405323 0)
(1.0325668 0.023643971 0)
(1.0068169 0.028419571 0)
(0.99706205 0.013782994 0)
(1.0035588 -0.0016423215 0)
(1.0157755 -0.0059950898 0)
(1.0230171 -0.0007284105 0)
(1.0223013 0.0056841677 0)
(1.0178501 0.0089971699 0)
(1.0135325 0.0088074818 0)
(1.0113023 0.0066675198 0)
(1.0108071 0.0044383724 0)
(1.0109924 0.0029571313 0)
(1.0112105 0.0021407449 0)
(1.0112448 0.0016472462 0)
(1.0111598 0.0012708016 0)
(1.0110536 0.00094825536 0)
(1.0109698 0.00069204301 0)
(1.0109003 0.00051659307 0)
(1.0108178 0.00041355735 0)
(1.0106997 0.00035814156 0)
(1.0105405 0.00032247219 0)
(1.0103491 0.00028084094 0)
(1.0101447 0.0002151064 0)
(1.0099631 0.00013698344 0)
(1.009838 4.6210922e-05 0)
(0.93872499 0.012728451 -8.0783783e-26)
(0.93758261 0.021724082 -5.8032705e-25)
(0.94746833 0.0072141809 0)
(0.97967901 -0.020642504 0)
(1.0233676 -0.027292003 0)
(1.042751 -0.007348279 0)
(1.0407748 0.030686783 0)
(1.0042021 0.034381636 0)
(0.98964988 0.015897119 0)
(0.99869805 -0.0043318907 0)
(1.015323 -0.010239976 0)
(1.0259533 -0.0035089385 0)
(1.025716 0.005966336 0)
(1.0197252 0.01097058 0)
(1.0136185 0.010997855 0)
(1.0104515 0.0080555695 0)
(1.0099563 0.0050056571 0)
(1.0104847 0.0030492637 0)
(1.0110256 0.0021285361 0)
(1.0112306 0.0016873809 0)
(1.0111878 0.0013677959 0)
(1.0110735 0.001050184 0)
(1.010987 0.0007578837 0)
(1.01094 0.00053507862 0)
(1.0109005 0.00039650386 0)
(1.0108321 0.00032580617 0)
(1.0107155 0.00029424379 0)
(1.0105495 0.0002745234 0)
(1.0103453 0.00024249966 0)
(1.0101308 0.00019221746 0)
(1.0099418 0.00012634747 0)
(1.0098134 4.4122223e-05 0)
(0.91873917 0.014518359 8.110201e-26)
(0.91827174 0.023949884 5.0733678e-24)
(0.93027127 0.0070478894 0)
(0.96996912 -0.026707015 0)
(1.0160539 -0.032528372 0)
(1.0398972 -0.005598753 0)
(1.0401576 0.034613972 0)
(1.0061123 0.042742569 0)
(0.98173642 0.018733817 0)
(0.99236636 -0.0079346914 0)
(1.014862 -0.016084495 0)
(1.0296278 -0.0069817346 0)
(1.0301413 0.0059352079 0)
(1.0222721 0.013617046 0)
(1.0136763 0.013931173 0)
(1.0091657 0.0099125233 0)
(1.0086355 0.0056240121 0)
(1.0097008 0.0030233528 0)
(1.0107373 0.0019459951 0)
(1.0112183 0.0016164121 0)
(1.0112455 0.001430253 0)
(1.0111017 0.001165031 0)
(1.0109822 0.00085033544 0)
(1.0109363 0.00057157687 0)
(1.0109333 0.00037880265 0)
(1.0109211 0.00027342863 0)
(1.0108631 0.00023071291 0)
(1.0107446 0.00022229415 0)
(1.0105666 0.0002207513 0)
(1.0103477 0.00020574542 0)
(1.0101213 0.00017319819 0)
(1.0099233 0.00011960279 0)
(1.0097903 4.3767443e-05 0)
(0.89842327 0.016519628 0)
(0.89825021 0.02624703 -5.0815892e-24)
(0.9117379 0.0052623918 0)
(0.95552646 -0.032016878 0)
(1.0067691 -0.035710821 0)
(1.0299466 -0.0076910447 0)
(1.0216619 0.042232112 0)
(0.99724857 0.052335093 0)
(0.97188269 0.021969082 0)
(0.98492013 -0.012191762 0)
(1.0139366 -0.022979403 0)
(1.0341704 -0.011921843 0)
(1.0358674 0.0060684009 0)
(1.0255612 0.016960885 0)
(1.0137191 0.01785282 0)
(1.0073085 0.012339869 0)
(1.0066817 0.0063532882 0)
(1.0085225 0.0027794412 0)
(1.0103185 0.001514479 0)
(1.0112303 0.0013816696 0)
(1.0113483 0.0014213385 0)
(1.0111692 0.0012917793 0)
(1.0109747 0.00098682583 0)
(1.0108924 0.00064589218 0)
(1.010908 0.00037711962 0)
(1.010952 0.00021284189 0)
(1.0109644 0.00013877855 0)
(1.010912 0.0001266896 0)
(1.0107848 0.00014633503 0)
(1.0105909 0.00016772287 0)
(1.0103553 0.00017453504 0)
(1.0101149 0.00016050021 0)
(1.0099063 0.00011778463 0)
(1.0097681 4.5317062e-05 0)
(0.87806873 0.018386081 -5.5735315e-25)
(0.87872475 0.028441775 0)
(0.89254348 0.0039681686 -2.8444977e-23)
(0.9384069 -0.037487453 0)
(0.9935672 -0.040961796 0)
(1.0179851 -0.0039594267 0)
(1.0021937 0.04941119 0)
(0.97241329 0.061765709 0)
(0.95795621 0.027924613 0)
(0.97506558 -0.018071581 0)
(1.0129068 -0.031874861 0)
(1.0394133 -0.017558889 0)
(1.042807 0.0056047673 0)
(1.0298183 0.021385348 0)
(1.0136353 0.023004636 0)
(1.0046768 0.015572034 0)
(1.0039021 0.0071524311 0)
(1.0068121 0.0022665783 0)
(1.0097214 0.00069638912 0)
(1.011294 0.00086965264 0)
(1.0116039 0.0013318283 0)
(1.0113161 0.0014262712 0)
(1.0109955 0.0011838253 0)
(1.0108202 0.00078519726 0)
(1.0108202 0.00041503669 0)
(1.0109105 0.000160602 0)
(1.0110013 2.7901951e-05 0)
(1.0110328 -6.7963641e-06 0)
(1.0109768 1.9990697e-05 0)
(1.0108347 7.1926703e-05 0)
(1.0106215 0.00012178007 0)
(1.0103674 0.00015188792 0)
(1.0101109 0.00015586063 0)
(1.0098906 0.000121268 0)
(1.0097454 4.8847018e-05 0)
(0.85869125 0.019992704 -1.1528485e-23)
(0.86020446 0.030543123 1.6734479e-23)
(0.87374758 0.002294573 2.8443041e-23)
(0.91968565 -0.043266675 5.5509721e-23)
(0.97684076 -0.04563241 -1.0038751e-22)
(1.0035792 -0.0039106228 0)
(0.98552623 0.059431027 0)
(0.9513575 0.069900779 0)
(0.94106435 0.031481465 0)
(0.96327754 -0.023641724 0)
(1.0107281 -0.041763093 0)
(1.0453632 -0.025132301 0)
(1.0508553 0.0055346658 0)
(1.0348281 0.026813645 0)
(1.0134243 0.029649498 0)
(1.0010521 0.019738648 0)
(1.0000289 0.0081378707 0)
(1.0044021 0.0013065454 0)
(1.0088957 -0.00061953882 0)
(1.0114401 -4.7485508e-05 0)
(1.0120762 0.0010493292 0)
(1.0116327 0.0015543434 0)
(1.0111003 0.0014642599 0)
(1.010741 0.0010202909 0)
(1.0106698 0.00052414436 0)
(1.0107844 0.00014048514 0)
(1.0109538 -8.6610743e-05 0)
(1.0110847 -0.0001717274 0)
(1.0111243 -0.00015512678 0)
(1.0110569 -8.3518638e-05 0)
(1.0108933 6.4260923e-06 0)
(1.0106571 8.7654523e-05 0)
(1.0103824 0.00014086382 0)
(1.010109 0.00015837414 0)
(1.0098747 0.00013024357 0)
(1.0097214 5.4270622e-05 0)
(0.84141185 0.02125967 1.7190027e-23)
(0.84365892 0.032324628 -2.7576843e-23)
(0.85615796 0.00074360758 0)
(0.90003043 -0.048971233 1.9002142e-24)
(0.95724883 -0.050190014 9.9892079e-23)
(0.98685519 -0.0042495293 1.7006943e-22)
(0.96779787 0.067942538 8.6943722e-23)
(0.93308606 0.076784603 0)
(0.92469371 0.035178313 0)
(0.95225819 -0.032435516 0)
(1.008248 -0.054415275 0)
(1.0522381 -0.032894988 0)
(1.0599573 0.0046820869 0)
(1.0402871 0.034046184 0)
(1.0125247 0.038156318 0)
(0.99611836 0.025100391 0)
(0.99479305 0.0091995444 0)
(1.001105 -0.00011786175 0)
(1.0077555 -0.002680071 0)
(1.0117143 -0.0014990944 0)
(1.0128485 0.0004910404 0)
(1.012263 0.0016900812 0)
(1.0113244 0.0018246286 0)
(1.0107015 0.001404507 0)
(1.0104607 0.00074582037 0)
(1.0105599 0.00018328177 0)
(1.010802 -0.0001851309 0)
(1.0110446 -0.00035751481 0)
(1.0112013 -0.00037568893 0)
(1.0112369 -0.00029850454 0)
(1.0111501 -0.00017585277 0)
(1.0109588 -4.3922683e-05 0)
(1.0106962 6.8229381e-05 0)
(1.0103968 0.00014252253 0)
(1.0101056 0.00017161809 0)
(1.0098573 0.00014485047 0)
(1.0096953 6.1368302e-05 0)
(0.82742902 0.022251598 -5.2290733e-25)
(0.82987769 0.033752176 5.7583906e-24)
(0.84052623 -0.00082729859 -2.0103687e-23)
(0.8805626 -0.054288065 -3.4387725e-23)
(0.93612198 -0.055177521 -5.9346355e-23)
(0.96658422 -0.0030970703 1.8168982e-22)
(0.95068016 0.074690406 1.7076538e-22)
(0.91447112 0.086069812 -1.721877e-23)
(0.90803419 0.03339226 0)
(0.94044041 -0.04078288 0)
(1.006653 -0.068733147 0)
(1.0615076 -0.045108301 0)
(1.0723233 0.0048684203 0)
(1.0458092 0.04261708 0)
(1.0102679 0.048697595 0)
(0.9894257 0.031891376 0)
(0.98779115 0.010477933 0)
(0.99670923 -0.0023304176 0)
(1.0062388 -0.0055792582 0)
(1.0121453 -0.0037283831 0)
(1.0140509 -0.00044072374 0)
(1.0133185 0.0017782176 0)
(1.0118105 0.0023674466 0)
(1.0107093 0.0019657438 0)
(1.0102162 0.0011449511 0)
(1.010225 0.00033356305 0)
(1.0105223 -0.00024093872 0)
(1.0108867 -0.00054940868 0)
(1.0111835 -0.00063612165 0)
(1.0113491 -0.00057385951 0)
(1.0113682 -0.00042793784 0)
(1.0112527 -0.00024931152 0)
(1.0110298 -7.5713149e-05 0)
(1.0107363 6.5583264e-05 0)
(1.0104129 0.00015850192 0)
(1.010101 0.00019470487 0)
(1.0098379 0.00016453653 0)
(1.0096666 6.9808299e-05 0)
(0.8168439 0.02281821 -5.4136265e-24)
(0.81943522 0.034738548 2.2996322e-25)
(0.82793644 -0.0021884773 0)
(0.86179865 -0.059168248 2.7026777e-23)
(0.91384164 -0.059660338 -8.1556627e-23)
(0.9454614 -0.003111723 0)
(0.93055501 0.083280782 -3.8783761e-22)
(0.89780304 0.094277973 -3.8821982e-22)
(0.88968963 0.038373506 0)
(0.9310626 -0.052756821 0)
(1.0039706 -0.083849578 0)
(1.070182 -0.054799153 0)
(1.0899276 0.0021306775 0)
(1.0560216 0.053305036 0)
(1.007157 0.06168123 0)
(0.98017531 0.039974433 0)
(0.97875645 0.011873733 0)
(0.99093621 -0.0053043869 0)
(1.0042487 -0.009735539 0)
(1.0127884 -0.0068472123 0)
(1.0158219 -0.0019406691 0)
(1.0149716 0.0018017437 0)
(1.0127037 0.003128462 0)
(1.0108391 0.00281037 0)
(1.0099295 0.0017854744 0)
(1.0097669 0.00064341822 0)
(1.0100888 -0.00021776448 0)
(1.0105814 -0.0007285854 0)
(1.0110428 -0.00092814462 0)
(1.0113684 -0.00090755238 0)
(1.0115242 -0.00075384005 0)
(1.011514 -0.00053405116 0)
(1.0113624 -0.00029935636 0)
(1.0111032 -8.6412016e-05 0)
(1.0107761 8.0150637e-05 0)
(1.0104269 0.00018788242 0)
(1.0100941 0.00022618952 0)
(1.0098156 0.00018850903 0)
(1.0096349 7.9236869e-05 0)
(0.81100191 0.022931412 0)
(0.81319893 0.035281897 0)
(0.81873149 -0.0035299199 -2.3841111e-25)
(0.84557735 -0.063290447 0)
(0.89102454 -0.063880046 -2.8738905e-26)
(0.92251672 -0.0025426907 1.9823567e-22)
(0.91094653 0.090745448 6.6854457e-22)
(0.87995349 0.1032806 -8.0063363e-23)
(0.87304173 0.043155502 0)
(0.91492061 -0.062291703 0)
(1.0012449 -0.098653868 0)
(1.0723979 -0.07130771 0)
(1.0973374 0.00077670671 0)
(1.073041 0.064384259 0)
(1.0086368 0.076566051 0)
(0.96867525 0.04977302 0)
(0.96702413 0.013232031 0)
(0.98367045 -0.0094846649 0)
(1.0016858 -0.01512081 0)
(1.0136814 -0.011291072 0)
(1.0183285 -0.004074849 0)
(1.0174167 0.0016498765 0)
(1.0141698 0.0041754887 0)
(1.0112138 0.0040639776 0)
(1.0095859 0.0027483564 0)
(1.0091784 0.0012052462 0)
(1.0094638 -7.7770239e-05 0)
(1.0100928 -0.00087633374 0)
(1.0107472 -0.0012442559 0)
(1.0112673 -0.0012984452 0)
(1.0115937 -0.0011552287 0)
(1.011721 -0.00090396984 0)
(1.0116706 -0.00061055989 0)
(1.011476 -0.00032311121 0)
(1.0111765 -7.5277769e-05 0)
(1.0108154 0.00011287669 0)
(1.0104384 0.00022930247 0)
(1.0100839 0.00026508535 0)
(1.0097901 0.00021585222 0)
(1.0096 8.9268331e-05 0)
(0.81131921 0.035402311 -6.1158703e-25)
(0.81044699 0.022724233 0)
(0.81321719 -0.0045076206 -8.8427236e-24)
(0.83247302 -0.066582681 -3.0107146e-25)
(0.86952516 -0.06748475 -3.2484425e-23)
(0.89909566 -0.0021455673 9.5808804e-24)
(0.89006441 0.098270815 2.868415e-24)
(0.86314551 0.11185576 -2.4408895e-22)
(0.85624898 0.048421624 3.7631222e-23)
(0.89757094 -0.068476385 0)
(0.98990562 -0.11570797 -7.2670244e-22)
(1.0708735 -0.077298506 0)
(1.0976859 -0.0064914893 0)
(1.09088 0.079258146 0)
(1.0146408 0.094522811 0)
(0.95800509 0.061257623 0)
(0.95243156 0.014720724 0)
(0.97446292 -0.014953876 0)
(0.99855723 -0.022375168 0)
(1.0148625 -0.016996027 0)
(1.0217476 -0.0072439883 0)
(1.020919 0.0013779275 0)
(1.0164003 0.0055358938 0)
(1.0119445 0.0058739225 0)
(1.009242 0.0041961341 0)
(1.0083767 0.0020700782 0)
(1.0086147 0.00025185967 0)
(1.0093751 -0.00095784816 0)
(1.0102572 -0.0015765656 0)
(1.0110147 -0.0017481177 0)
(1.011551 -0.0016365386 0)
(1.0118507 -0.001363953 0)
(1.0119334 -0.0010163316 0)
(1.0118333 -0.00065377813 0)
(1.0115907 -0.00031945931 0)
(1.0112479 -4.2169113e-05 0)
(1.010852 0.00016220242 0)
(1.0104464 0.0002812382 0)
(1.0100701 0.00030926956 0)
(1.0097614 0.00024526716 0)
(1.0095621 9.9577514e-05 0)
(0.81138909 -0.0049860352 7.891156e-24)
(0.81505546 0.035278292 0)
(0.81608957 0.022036906 -1.4181534e-24)
(0.82076434 -0.068948704 3.0085214e-25)
(0.85054708 -0.07020309 1.6951735e-23)
(0.87633454 -0.0017986783 3.4753671e-22)
(0.87002101 0.10492497 -6.1802663e-22)
(0.84716929 0.11995331 -8.3226962e-23)
(0.84083509 0.053579101 -1.3933303e-23)
(0.87974733 -0.076111741 4.3647336e-23)
(0.9728567 -0.13056605 -7.911507e-22)
(1.0614821 -0.093582979 7.5788998e-22)
(1.0944914 -0.0033875207 0)
(1.0853872 0.091525683 0)
(1.0144161 0.11783166 0)
(0.94772146 0.076490006 0)
(0.93494173 0.015636963 0)
(0.96353961 -0.021973877 0)
(0.99461094 -0.031273205 0)
(1.0164151 -0.02470799 0)
(1.0262406 -0.011340012 0)
(1.0257234 0.00067601773 0)
(1.0196746 0.0073680093 0)
(1.0131528 0.0084039147 0)
(1.0089255 0.006321376 0)
(1.0073111 0.0033711035 0)
(1.0074606 0.00083666012 0)
(1.0083626 -0.00096211047 0)
(1.009525 -0.0019179914 0)
(1.0105741 -0.0022602584 0)
(1.0113689 -0.0022058214 0)
(1.0118806 -0.0019222684 0)
(1.0121302 -0.0015239312 0)
(1.0121553 -0.0010866775 0)
(1.0119984 -0.00066247177 0)
(1.0117036 -0.00028842233 0)
(1.0113166 1.2309281e-05 0)
(1.0108844 0.00022549287 0)
(1.0104503 0.00034158182 0)
(1.0100526 0.00035732489 0)
(1.0097291 0.00027609013 0)
(1.0095212 0.00010991364 0)
(0.81356362 -0.070122566 5.1227539e-24)
(0.8161343 -0.005164544 2.3311984e-23)
(0.82523696 0.034667242 0)
(0.82542229 0.02091569 1.2033493e-26)
(0.83237499 -0.072289184 -9.3924569e-24)
(0.85562608 -0.0014109565 -1.5380368e-22)
(0.85150929 0.11060112 0)
(0.83320046 0.1270531 8.2651634e-23)
(0.82769561 0.058635071 -3.8821886e-23)
(0.86221126 -0.083696481 -4.3088091e-23)
(0.95372232 -0.14593955 8.4762576e-22)
(1.0455515 -0.11118602 8.2337335e-22)
(1.0837116 -0.0061155554 0)
(1.0593825 0.10815821 0)
(0.99629881 0.14094094 0)
(0.93307456 0.0948012 0)
(0.91603477 0.018389114 0)
(0.94968818 -0.031261295 0)
(0.99025471 -0.042604858 0)
(1.0182431 -0.033942896 0)
(1.0319814 -0.017145708 0)
(1.032188 -0.00022165273 0)
(1.0242282 0.0096009889 0)
(1.0150316 0.011883362 0)
(1.0086559 0.0093324041 0)
(1.0059414 0.0052936628 0)
(1.0058599 0.0017178575 0)
(1.00698 -0.00080883336 0)
(1.0084804 -0.0022701175 0)
(1.0099029 -0.0028533852 0)
(1.0110192 -0.0028792806 0)
(1.0117896 -0.0025918753 0)
(1.0122423 -0.0021437903 0)
(1.0124235 -0.0016304898 0)
(1.0123812 -0.0011138746 0)
(1.0121621 -0.0006371308 0)
(1.0118128 -0.00023115237 0)
(1.0113806 8.5660312e-05 0)
(1.0109119 0.00030043317 0)
(1.0104496 0.00040794385 0)
(1.0100308 0.00040821022 0)
(1.0096935 0.00030735773 0)
(1.0094777 0.00012004343 0)
(0.8193902 -0.073447987 -1.0102894e-23)
(0.81304665 -0.070235977 -6.2075918e-24)
(0.82652861 -0.0048633445 -2.075079e-23)
(0.83922276 0.033587459 -1.1182974e-23)
(0.83770145 0.019415572 1.0140194e-23)
(0.83682272 -0.001186898 1.457614e-22)
(0.8359151 0.11513244 8.4212696e-23)
(0.82207133 0.13298157 0)
(0.81737263 0.063080977 3.9723807e-23)
(0.84578892 -0.090929022 -1.4565929e-23)
(0.93291348 -0.16167117 0)
(1.0268338 -0.12626794 -1.1068364e-21)
(1.0702552 -0.019813848 0)
(1.040785 0.12433779 0)
(0.97210644 0.16191384 0)
(0.91674106 0.11473186 0)
(0.89732084 0.020652406 0)
(0.93393691 -0.04168033 0)
(0.98476255 -0.055907917 0)
(1.0205964 -0.045925358 0)
(1.0390488 -0.024045745 0)
(1.0405167 -0.002021011 0)
(1.0304967 0.012598973 0)
(1.0177159 0.016521805 0)
(1.0084523 0.013522087 0)
(1.0041837 0.0080220169 0)
(1.0036932 0.0030247918 0)
(1.0050923 -0.00050745661 0)
(1.0070352 -0.0026320657 0)
(1.0089393 -0.0035338791 0)
(1.010466 -0.0036789233 0)
(1.0115571 -0.0033928258 0)
(1.012254 -0.0028904329 0)
(1.0126226 -0.002296109 0)
(1.0127228 -0.001682842 0)
(1.0126063 -0.0010988914 0)
(1.0123217 -0.00057952051 0)
(1.0119167 -0.00015002747 0)
(1.0114388 0.00017443327 0)
(1.0109339 0.00038429733 0)
(1.010444 0.0004784349 0)
(1.0100052 0.00045967893 0)
(1.009655 0.00033822095 0)
(1.0094318 0.00012984525 0)
(0.82215254 -0.0013298252 6.7513532e-24)
(0.81184435 -0.073451218 8.7307549e-24)
(0.81788818 -0.069454271 3.602612e-23)
(0.84158676 -0.0042223387 1.1583985e-23)
(0.85509288 0.032128251 -4.3235417e-23)
(0.85333001 0.017647755 -3.8795325e-24)
(0.82439716 0.11838341 -1.582609e-22)
(0.81479544 0.13767422 -6.7896274e-23)
(0.81052538 0.066956064 -1.4683834e-22)
(0.83227408 -0.097481254 -8.2096993e-24)
(0.91082442 -0.17671526 -1.0067067e-21)
(1.0041427 -0.14303854 7.0459362e-22)
(1.0522081 -0.026614674 0)
(1.031786 0.12743099 -1.3664881e-21)
(0.95214733 0.18361184 4.6941016e-22)
(0.90272538 0.126062 0)
(0.88136436 0.026953708 0)
(0.91680574 -0.05571272 0)
(0.97871952 -0.072287197 0)
(1.0231833 -0.059271208 0)
(1.0475992 -0.033584905 0)
(1.0511222 -0.0039142175 0)
(1.0386778 0.015989754 0)
(1.0215013 0.022699261 0)
(1.0082976 0.019176644 0)
(1.0019001 0.011823559 0)
(1.0008166 0.0048733682 0)
(1.0025247 -3.2979844e-05 0)
(1.0050846 -0.002999914 0)
(1.0076157 -0.0043678872 0)
(1.0096745 -0.0046504618 0)
(1.0111636 -0.0043560579 0)
(1.0121536 -0.0037847638 0)
(1.0127419 -0.0030974079 0)
(1.0130104 -0.0023795587 0)
(1.0130214 -0.0016828472 0)
(1.0128268 -0.0010441833 0)
(1.0124749 -0.00049255956 0)
(1.0120137 -4.8684371e-05 0)