/*--------------------------------*- C++ -*----------------------------------*\
| =========                 |                                                 |
| \\      /  F ield         | OpenFOAM: The Open Source CFD Toolbox           |
|  \\    /   O peration     | Version:  5.0                                   |
|   \\  /    A nd           | Web:      www.OpenFOAM.org                      |
|    \\/     M anipulation  |                                                 |
\*---------------------------------------------------------------------------*/
FoamFile
{
    version     2.0;
    format      ascii;
    class       volVectorField;
    location    "300";
    object      U_0;
}
// * * * * * * * * * * * * * * * * * * * * * * * * * * * * * * * * * * * * * //

dimensions      [0 1 -1 0 0 0 0];

internalField   nonuniform List<vector> 
9520
(
(1.0143413 0.00016646394 0)
(1.0144396 0.00048774634 0)
(1.0138465 0.00016430057 0)
(1.0146128 0.00078596277 0)
(1.013947 0.00048256108 0)
(1.0136573 0.00016252502 0)
(1.0148447 0.0010605821 0)
(1.0141254 0.00077947086 0)
(1.0137572 0.00047703189 0)
(1.0133503 0.0001645528 0)
(1.0151209 0.0013109659 0)
(1.0143665 0.001054351 0)
(1.013936 0.00077095663 0)
(1.0134506 0.00048190845 0)
(1.0131115 0.00017045465 0)
(1.0154286 0.0015368031 0)
(1.0146566 0.0013072364 0)
(1.0141785 0.0010439135 0)
(1.0136301 0.00077862496 0)
(1.0132126 0.00049877269 0)
(1.0128367 0.00017671179 0)
(1.0157569 0.0017380315 0)
(1.0149827 0.0015371267 0)
(1.0144717 0.0012975572 0)
(1.0138733 0.0010551404 0)
(1.0133928 0.0008060355 0)
(1.0129377 0.00051830779 0)
(1.0125823 0.0001787221 0)
(1.016096 0.0019140093 0)
(1.0153347 0.0017439685 0)
(1.0148031 0.0015305645 0)
(1.0141678 0.0013142336 0)
(1.0136364 0.0010935078 0)
(1.0131167 0.00083978768 0)
(1.0126822 0.00052652359 0)
(1.0123267 0.00017546645 0)
(1.0164388 0.0020638359 0)
(1.0157045 0.001927991 0)
(1.0151621 0.0017424497 0)
(1.014503 0.001555474 0)
(1.0139313 0.0013633698 0)
(1.0133584 0.0011431446 0)
(1.0128586 0.00085664251 0)
(1.0124225 0.00051897908 0)
(1.0120927 0.00016883083 0)
(1.0167805 0.002185549 0)
(1.0160869 0.002089417 0)
(1.0155395 0.0019332298 0)
(1.0148683 0.001778611 0)
(1.0142683 0.0016165993 0)
(1.0136507 0.0014292421 0)
(1.0130974 0.0011715631 0)
(1.0125925 0.00084776197 0)
(1.0121839 0.00050002341 0)
(1.0118753 0.00016223049 0)
(1.0171212 0.0022731722 0)
(1.0164805 0.0022297224 0)
(1.0159271 0.0021037547 0)
(1.0152537 0.0019832183 0)
(1.0146371 0.0018537292 0)
(1.0139842 0.0017005183 0)
(1.0133863 0.0014713502 0)
(1.0128239 0.0011648864 0)
(1.0123465 0.00081862402 0)
(1.0119616 0.00047975089 0)
(1.011674 0.00015818556 0)
(1.0174653 0.0023340026 0)
(1.0168896 0.0023548057 0)
(1.0163178 0.0022596328 0)
(1.0156477 0.0021693959 0)
(1.0150281 0.0020744421 0)
(1.0143498 0.0019585515 0)
(1.013715 0.0017585628 0)
(1.0131041 0.0014717979 0)
(1.0125684 0.0011277279 0)
(1.0121163 0.00078589972 0)
(1.0117561 0.00046625069 0)
(1.0114832 0.0001569398 0)
(1.0178069 0.0023636498 0)
(1.017318 0.002468198 0)
(1.016702 0.0024087238 0)
(1.0160372 0.0023394777 0)
(1.0154306 0.0022777309 0)
(1.0147402 0.0022036061 0)
(1.0140754 0.0020354515 0)
(1.0134215 0.0017699885 0)
(1.0128385 0.0014319559 0)
(1.0123262 0.0010837047 0)
(1.0119033 0.00076315144 0)
(1.011562 0.00046127645 0)
(1.0112997 0.00015665899 0)
(1.0181154 0.0023880075 0)
(1.0176882 0.002584234 0)
(1.0170249 0.0025704479 0)
(1.0164015 0.0024933045 0)
(1.0158326 0.002460127 0)
(1.0151506 0.0024339036 0)
(1.0144612 0.0023035482 0)
(1.0137675 0.0020616152 0)
(1.0131442 0.0017316277 0)
(1.0125805 0.0013792735 0)
(1.0121021 0.0010530828 0)
(1.0117018 0.000753965 0)
(1.0113759 0.00046022619 0)
(1.0111233 0.00015474653 0)
(1.0184285 0.0023738748 0)
(1.0180023 0.0027498616 0)
(1.017279 0.0027522943 0)
(1.0167295 0.002629607 0)
(1.016224 0.0026118344 0)
(1.0155808 0.0026429452 0)
(1.01487 0.002563779 0)
(1.0141354 0.0023490185 0)
(1.013476 0.0020274782 0)
(1.0128696 0.0016736386 0)
(1.012342 0.0013415304 0)
(1.0118892 0.0010406289 0)
(1.0115087 0.00075187247 0)
(1.0111968 0.00045552109 0)
(1.0109566 0.00014919654 0)
(1.018748 0.002416862 0)
(1.0182963 0.0028975066 0)
(1.0175484 0.0029161775 0)
(1.0170511 0.0027269405 0)
(1.0166313 0.002719118 0)
(1.016042 0.0028194566 0)
(1.0153033 0.0028169707 0)
(1.0145202 0.0026356797 0)
(1.0138253 0.0023207525 0)
(1.0131841 0.001966856 0)
(1.0126149 0.0016304753 0)
(1.0121142 0.0013261243 0)
(1.011685 0.0010372529 0)
(1.011323 0.00074497892 0)
(1.0110268 0.0004406732 0)
(1.0108036 0.00013937974 0)
(1.0190978 0.0023342911 0)
(1.0185732 0.003132495 0)
(1.0177359 0.0030510824 0)
(1.0173943 0.0027715178 0)
(1.0170655 0.0027412698 0)
(1.0165429 0.0029598792 0)
(1.0157653 0.0030693178 0)
(1.0149191 0.0029290691 0)
(1.0141821 0.0026137728 0)
(1.0135152 0.0022584455 0)
(1.0129126 0.0019208128 0)
(1.0123694 0.0016132623 0)
(1.0118955 0.0013217381 0)
(1.011489 0.0010274565 0)
(1.0111468 0.00072217296 0)
(1.0108701 0.00041303799 0)
(1.0106679 0.0001262068 0)
(1.0194157 0.0025359217 0)
(1.0188168 0.0033134414 0)
(1.017864 0.0031820919 0)
(1.017668 0.0027510455 0)
(1.0174943 0.0027217781 0)
(1.0170787 0.0030459073 0)
(1.0162707 0.0033225138 0)
(1.0153282 0.0032394508 0)
(1.0145345 0.0029114769 0)
(1.0138532 0.0025472577 0)
(1.0132273 0.0022117985 0)
(1.0126474 0.0019046082 0)
(1.0121324 0.0016089506 0)
(1.0116849 0.0013085356 0)
(1.0113033 0.00099735991 0)
(1.0109834 0.00067789555 0)
(1.0107308 0.00037469971 0)
(1.0105513 0.00011170673 0)
(1.0198381 0.0022301686 0)
(1.019107 0.0037770389 0)
(1.0178106 0.0033569756 0)
(1.0178149 0.0027069751 0)
(1.0179964 0.0026282917 0)
(1.0176139 0.0031114147 0)
(1.0168038 0.0035980514 0)
(1.0157344 0.0035843485 0)
(1.014872 0.0032197503 0)
(1.0141878 0.0028310193 0)
(1.0135519 0.0025007279 0)
(1.0129426 0.0022009022 0)
(1.0123886 0.0019031698 0)
(1.0119022 0.0015935003 0)
(1.0114851 0.0012698263 0)
(1.0111314 0.00093910319 0)
(1.0108374 0.00061483283 0)
(1.0106111 0.00033143054 0)
(1.0104528 9.8172608e-05 0)
(1.0200549 0.0028391224 0)
(1.0192092 0.0040023647 0)
(1.017581 0.0035017827 0)
(1.0178197 0.002554521 0)
(1.0184604 0.0024300054 0)
(1.0182482 0.0031503138 0)
(1.0173356 0.0039038194 0)
(1.0161199 0.0039924538 0)
(1.015171 0.0035519292 0)
(1.0145022 0.0031050587 0)
(1.0138791 0.0027817075 0)
(1.0132514 0.0025007336 0)
(1.0126594 0.0022072872 0)
(1.0121332 0.0018878063 0)
(1.0116828 0.0015472108 0)
(1.0113003 0.0011973101 0)
(1.0109764 0.00085282507 0)
(1.0107123 0.00054271215 0)
(1.0105106 0.00029004293 0)
(1.0103697 8.7269654e-05 0)
(1.0203808 0.0020961607 0)
(1.0194956 0.0049093673 0)
(1.0170776 0.0038795234 0)
(1.0176561 0.0022740969 0)
(1.019005 0.0020221181 0)
(1.019034 0.0031733225 0)
(1.0179145 0.0042495476 0)
(1.0164472 0.0044808901 0)
(1.0154029 0.0039184315 0)
(1.0147755 0.0033687213 0)
(1.0142004 0.0030451876 0)
(1.0135723 0.0027992508 0)
(1.0129432 0.002522701 0)
(1.012373 0.0021965242 0)
(1.0118877 0.0018352252 0)
(1.011479 0.0014603299 0)
(1.0111343 0.0010906141 0)
(1.0108428 0.00074946544 0)
(1.0106088 0.00047311056 0)
(1.0104266 0.00025559658 0)
(1.0102984 7.9559104e-05 0)
(1.0201007 0.0033052442 0)
(1.0192682 0.0051946688 0)
(1.0163929 0.003997149 0)
(1.0172804 0.0019540674 0)
(1.0195357 0.0014697916 0)
(1.0200342 0.0030912896 0)
(1.0186109 0.0046974712 0)
(1.0167251 0.0050704699 0)
(1.0155123 0.0043320765 0)
(1.0149669 0.0036021575 0)
(1.0145036 0.0032766262 0)
(1.0139055 0.0030877339 0)
(1.0132423 0.0028493928 0)
(1.0126199 0.0025243661 0)
(1.0120935 0.0021401023 0)
(1.0116585 0.0017335065 0)
(1.0112967 0.0013319311 0)
(1.0109896 0.00095772086 0)
(1.0107334 0.00064710894 0)
(1.0105242 0.00041408606 0)
(1.0103556 0.00023012905 0)
(1.0102354 7.4625472e-05 0)
(1.0198926 0.002022249 0)
(1.0194435 0.0066257663 0)
(1.0151726 0.0048212381 0)
(1.0166273 0.0011749843 0)
(1.0202026 0.00052376884 0)
(1.0212677 0.0030139174 0)
(1.0194467 0.0052711978 0)
(1.0169247 0.0058169178 0)
(1.0155103 0.0047872878 0)
(1.015093 0.003815082 0)
(1.0147658 0.0034393722 0)
(1.0142547 0.0033473184 0)
(1.0135664 0.0031843218 0)
(1.0128762 0.0028774203 0)
(1.0122952 0.0024685205 0)
(1.0118304 0.0020227826 0)
(1.0114542 0.0015811039 0)
(1.0111387 0.0011685723 0)
(1.0108716 0.00082131586 0)
(1.0106463 0.00055998054 0)
(1.0104545 0.00036849389 0)
(1.0102947 0.00021304621 0)
(1.0101782 7.1582554e-05 0)
(1.0190109 0.0038868152 0)
(1.0179906 0.0069674801 0)
(1.0140089 0.0047982333 0)
(1.0155906 0.00080219337 0)
(1.0207166 -0.00062086517 0)
(1.0228271 0.0026436588 0)
(1.0204861 0.0060727847 0)
(1.0170298 0.0067903957 0)
(1.0152729 0.0053214686 0)
(1.0150656 0.003930565 0)
(1.0150516 0.0035347035 0)
(1.0146418 0.0035509427 0)
(1.0139332 0.0035178478 0)
(1.0131517 0.0032621273 0)
(1.0124909 0.0028304782 0)
(1.0119868 0.0023345901 0)
(1.0115977 0.0018427357 0)
(1.0112795 0.0013849224 0)
(1.0110103 0.0009956913 0)
(1.0107791 0.00070194174 0)
(1.010577 0.00049312622 0)
(1.0103959 0.00033549978 0)
(1.010241 0.00020229229 0)
(1.0101251 6.9507275e-05 0)
(1.0194031 0.0026400321 0)
(1.0157146 0.0088971314 0)
(1.0109266 0.0064701521 0)
(1.0141681 -0.00089192714 0)
(1.0216856 -0.0023493424 0)
(1.0247341 0.0024738761 0)
(1.0217278 0.0070796941 0)
(1.0170129 0.0080944364 0)
(1.0147364 0.0059315877 0)
(1.0148439 0.0039552591 0)
(1.0153599 0.0034351166 0)
(1.0150929 0.003648459 0)
(1.0143834 0.003843335 0)
(1.0134648 0.0036883663 0)
(1.0126819 0.0032393772 0)
(1.0121198 0.0026781848 0)
(1.011717 0.0021211225 0)
(1.0114021 0.0016089636 0)
(1.0111383 0.0011727306 0)
(1.0109113 0.00084158502 0)
(1.010708 0.000607522 0)
(1.0105214 0.00044402008 0)
(1.010346 0.00031299437 0)
(1.0101925 0.00019540928 0)
(1.0100753 6.7616136e-05 0)
(1.0183972 0.0048402503 0)
(1.0159962 0.0097181967 0)
(1.007677 0.0058762221 0)
(1.0119598 -0.0012401303 0)
(1.0219672 -0.0043487519 0)
(1.0271609 0.0015191289 0)
(1.023297 0.0085468527 0)
(1.0167981 0.009810639 0)
(1.0137949 0.0067199784 0)
(1.014334 0.0037933069 0)
(1.0156163 0.0031293501 0)
(1.0156883 0.0036503061 0)
(1.0149241 0.0041221342 0)
(1.0138506 0.0041715636 0)
(1.0128737 0.0037183539 0)
(1.0122193 0.0030659933 0)
(1.011801 0.0024209171 0)
(1.0114967 0.0018423486 0)
(1.0112466 0.0013539798 0)
(1.0110311 0.00098123437 0)
(1.0108366 0.00071655088 0)
(1.010654 0.00053626584 0)
(1.0104761 0.00040740923 0)
(1.010303 0.00029859235 0)
(1.0101475 0.00019008582 0)
(1.0100287 6.5348304e-05 0)
(1.0130426 0.0034952567 0)
(1.0154518 0.01223185 0)
(1.0051664 0.0082007504 0)
(1.0093801 -0.0041594159 0)
(1.023186 -0.0070828458 0)
(1.0296237 0.0013765573 0)
(1.0250473 0.010192898 0)
(1.0163655 0.012041526 0)
(1.0123478 0.0076337924 0)
(1.0134352 0.0034770076 0)
(1.0157996 0.002469258 0)
(1.0164877 0.003506739 0)
(1.0155933 0.0044124412 0)
(1.0143006 0.0047348127 0)
(1.0130733 0.0043000794 0)
(1.0122743 0.0035197407 0)
(1.0118336 0.002747007 0)
(1.0115523 0.0020837929 0)
(1.0113271 0.0015396206 0)
(1.01113 0.0011227955 0)
(1.0109512 0.0008230787 0)
(1.0107821 0.00061858062 0)
(1.0106139 0.00048218584 0)
(1.0104395 0.00037946648 0)
(1.0102658 0.00028877555 0)
(1.0101056 0.00018424611 0)
(1.0099852 6.2411193e-05 0)
(1.0006218 0.0065584451 0)
(1.0034723 0.012748387 0)
(1.0026067 0.0079132458 0)
(1.0066031 -0.0050085396 0)
(1.0232613 -0.0099688568 0)
(1.0320148 -0.00059351652 0)
(1.0272816 0.01284981 0)
(1.0154631 0.014945787 0)
(1.0101897 0.0088305804 0)
(1.0120499 0.0028429666 0)
(1.0158989 0.0014236269 0)
(1.0175117 0.0030600864 0)
(1.0165529 0.0047263468 0)
(1.0148157 0.005410816 0)
(1.0132603 0.005039384 0)
(1.0122605 0.0040676707 0)
(1.0117938 0.0031066347 0)
(1.0115549 0.0023299043 0)
(1.0113726 0.0017254006 0)
(1.0112023 0.0012667608 0)
(1.0110433 0.00093021076 0)
(1.010894 0.00069511708 0)
(1.0107447 0.00054103551 0)
(1.010585 0.00043870626 0)
(1.010411 0.00035769873 0)
(1.010233 0.00027842698 0)
(1.010067 0.00017613166 0)
(1.0099456 5.8745315e-05 0)
(0.98765362 0.0065194574 0)
(0.98623491 0.01617777 0)
(0.98942142 0.01081181 0)
(1.0036424 -0.0090938936 0)
(1.0249102 -0.013958878 0)
(1.0350413 -0.00047526398 0)
(1.0289815 0.015430998 0)
(1.0142041 0.018566086 0)
(1.0071834 0.010294239 0)
(1.0099923 0.0019755304 0)
(1.0158743 -0.00028167893 0)
(1.0188462 0.0022928604 0)
(1.0179014 0.0050130637 0)
(1.0155392 0.0062655257 0)
(1.0133971 0.0059659889 0)
(1.0121514 0.0047553986 0)
(1.0116447 0.0035069313 0)
(1.011485 0.0025723188 0)
(1.0113755 0.0019021371 0)
(1.0112457 0.001409228 0)
(1.011109 0.0010401165 0)
(1.0109808 0.00077086287 0)
(1.0108568 0.00058947925 0)
(1.0107225 0.00047584847 0)
(1.0105663 0.00040026067 0)
(1.0103897 0.00033757423 0)
(1.0102041 0.00026302276 0)
(1.0100324 0.00016502149 0)
(1.0099101 5.4580062e-05 0)
(0.97353806 0.00916737 0)
(0.97154639 0.017702524 0)
(0.97471597 0.0090511791 0)
(0.99615304 -0.0098435882 0)
(1.0254738 -0.017747925 0)
(1.0399458 -0.0029553099 0)
(1.0298663 0.019748119 0)
(1.0115278 0.023242428 0)
(1.0029451 0.012086431 0)
(1.0071665 0.00059070685 0)
(1.0156798 -0.0025738411 0)
(1.0205636 0.00093432483 0)
(1.0197781 0.0053087567 0)
(1.0165521 0.0073744467 0)
(1.0135289 0.007170314 0)
(1.0118823 0.0056127664 0)
(1.0113446 0.0039609817 0)
(1.0113126 0.0027973275 0)
(1.0113261 0.0020513999 0)
(1.0112611 0.001540233 0)
(1.01115 0.0011520163 0)
(1.0110391 0.0008506239 0)
(1.0109398 0.00063457653 0)
(1.0108381 0.0004970417 0)
(1.0107141 0.00041578346 0)
(1.0105575 0.00036271658 0)
(1.0103748 0.00031386929 0)
(1.0101793 0.00024171678 0)
(1.0100026 0.00015200739 0)
(1.0098787 5.0466187e-05 0)
(0.95748706 0.010071568 1.5419211e-25)
(0.95548098 0.019842947 0)
(0.9613201 0.010540416 0)
(0.98811981 -0.016272158 0)
(1.0251209 -0.022963856 0)
(1.0425996 -0.0030102414 0)
(1.0332997 0.02296252 0)
(1.0076063 0.028602198 0)
(0.99722628 0.014379676 0)
(1.003252 -0.0011942716 0)
(1.0153491 -0.0059387857 0)
(1.0227914 -0.0009345972 0)
(1.0223109 0.0054594004 0)
(1.017974 0.0088561825 0)
(1.0136626 0.0087775832 0)
(1.0113739 0.0067034449 0)
(1.0108305 0.0044818281 0)
(1.0109939 0.0029798786 0)
(1.0112117 0.002144338 0)
(1.011253 0.0016401635 0)
(1.0111746 0.001260535 0)
(1.0110721 0.00093854449 0)
(1.0109896 0.00068410187 0)
(1.0109201 0.00051083389 0)
(1.0108371 0.00041013624 0)
(1.0107182 0.00035707227 0)
(1.0105579 0.00032346717 0)
(1.0103655 0.00028347534 0)
(1.0101599 0.00021814354 0)
(1.009977 0.0001393075 0)
(1.0098509 4.7085388e-05 0)
(0.93913627 0.012385114 8.9196356e-26)
(0.93806674 0.021953061 -1.6097056e-25)
(0.94716226 0.0080801273 0)
(0.97862366 -0.01993995 0)
(1.0225419 -0.027667349 0)
(1.0428338 -0.0083793529 0)
(1.0413921 0.029894813 0)
(1.0051929 0.034617839 0)
(0.98983917 0.016679761 0)
(0.99827261 -0.0037210413 0)
(1.0147341 -0.010160502 0)
(1.0256283 -0.003792688 0)
(1.0257228 0.0056428312 0)
(1.0199058 0.01076764 0)
(1.0138124 0.010960669 0)
(1.010555 0.0081171933 0)
(1.0099827 0.0050768875 0)
(1.0104766 0.0030885442 0)
(1.0110153 0.0021361702 0)
(1.0112314 0.001677911 0)
(1.0111997 0.0013533078 0)
(1.0110919 0.0010369697 0)
(1.0110078 0.0007474353 0)
(1.0109612 0.00052753443 0)
(1.0109213 0.00039180439 0)
(1.010852 0.00032397832 0)
(1.0107342 0.00029502008 0)
(1.0105669 0.0002773423 0)
(1.0103615 0.00024649294 0)
(1.0101455 0.0001958572 0)
(1.0099553 0.00012888747 0)
(1.0098258 4.5015021e-05 0)
(0.91915975 0.014158998 -8.954782e-26)
(0.91876297 0.024261553 3.3986925e-24)
(0.92990508 0.0080778687 0)
(0.96882149 -0.026032675 0)
(1.0152737 -0.032966946 0)
(1.0400409 -0.0068853136 0)
(1.0409969 0.033540247 0)
(1.0075337 0.043045861 0)
(0.98200341 0.019722895 0)
(0.99178948 -0.0071409684 0)
(1.0140686 -0.015974152 0)
(1.029171 -0.0073656657 0)
(1.0301429 0.0054758862 0)
(1.0225309 0.013331653 0)
(1.0139605 0.013884961 0)
(1.0093164 0.010012349 0)
(1.0086659 0.0057369856 0)
(1.0096776 0.0030877064 0)
(1.0107093 0.0019598911 0)
(1.011208 0.0016038145 0)
(1.0112529 0.0014095733 0)
(1.0111197 0.0011463841 0)
(1.0110044 0.000836091 0)
(1.0109593 0.00056159764 0)
(1.0109558 0.00037253504 0)
(1.0109425 0.00027064358 0)
(1.0108833 0.00023108461 0)
(1.0107633 0.0002251601 0)
(1.0105839 0.00022524823 0)
(1.0103635 0.00021060741 0)
(1.0101355 0.00017722038 0)
(1.0099362 0.0001222208 0)
(1.0098023 4.4638433e-05 0)
(0.89883564 0.016159903 0)
(0.89872753 0.02662543 -3.4041765e-24)
(0.91132992 0.0064683725 0)
(0.9543094 -0.031317859 0)
(1.0060713 -0.036331148 0)
(1.0303506 -0.0092103136 0)
(1.0232712 0.041025966 0)
(0.99906729 0.052633188 0)
(0.97234932 0.023277605 0)
(0.98417661 -0.011153583 0)
(1.0128956 -0.022844132 0)
(1.0335598 -0.012428003 0)
(1.0358607 0.0054315868 0)
(1.0259269 0.016555098 0)
(1.0141302 0.017794992 0)
(1.0075261 0.012495983 0)
(1.0067178 0.0065275095 0)
(1.0084759 0.0028805712 0)
(1.0102637 0.0015392579 0)
(1.011201 0.0013626926 0)
(1.0113503 0.001390186 0)
(1.0111866 0.0012642352 0)
(1.0109991 0.00096678938 0)
(1.0109181 0.00063257277 0)
(1.0109329 0.0003689454 0)
(1.0109754 0.0002089776 0)
(1.0109863 0.00013857111 0)
(1.0109324 0.00012941427 0)
(1.0108036 0.00015114251 0)
(1.0106079 0.00017350196 0)
(1.0103707 0.00017999474 0)
(1.0101287 0.00016466501 0)
(1.0099188 0.0001203717 0)
(1.0097795 4.6141227e-05 0)
(0.8784518 0.018027781 -3.5772848e-25)
(0.87917702 0.028883277 0)
(0.89211452 0.0053727991 -2.9357062e-23)
(0.93717294 -0.036802749 0)
(0.99289254 -0.041666654 0)
(1.0185407 -0.0057673062 0)
(1.0039971 0.047977134 0)
(0.97410282 0.062238263 0)
(0.95844029 0.029573388 0)
(0.9741138 -0.01677075 0)
(1.0115804 -0.031719183 0)
(1.0386201 -0.018222107 0)
(1.0427971 0.0047397394 0)
(1.0303264 0.020830843 0)
(1.014217 0.022932089 0)
(1.0049878 0.015805852 0)
(1.0039464 0.007414924 0)
(1.0067307 0.0024201292 0)
(1.0096264 0.00073759001 0)
(1.0112358 0.00084340901 0)
(1.0115927 0.0012854348 0)
(1.0113299 0.0013859189 0)
(1.0110226 0.0011553151 0)
(1.0108501 0.00076728521 0)
(1.0108484 0.00040456378 0)
(1.0109364 0.00015556819 0)
(1.0110252 2.7124244e-05 0)
(1.0110549 -4.3343776e-06 0)
(1.0109972 2.4866669e-05 0)
(1.0108534 7.8303956e-05 0)
(1.0106382 0.00012835147 0)
(1.0103823 0.00015761154 0)
(1.0101241 0.00016002289 0)
(1.0099025 0.0001237667 0)
(1.0097564 4.9611079e-05 0)
(0.85902405 0.019636202 -1.133283e-23)
(0.86060907 0.031041693 1.3620143e-23)
(0.87332811 0.003883309 2.9354483e-23)
(0.9184766 -0.042598328 5.6054343e-23)
(0.97616219 -0.046426719 -9.6299957e-23)
(1.0042414 -0.0060276218 0)
(0.98743501 0.058011731 0)
(0.95287066 0.070513221 0)
(0.94121233 0.033454745 0)
(0.96208895 -0.021942712 0)
(1.0090475 -0.041578375 0)
(1.0443574 -0.025960271 0)
(1.0508478 0.0043799528 0)
(1.0355263 0.026044503 0)
(1.0142357 0.029561206 0)
(1.0014871 0.020080942 0)
(1.0000826 0.0085223699 0)
(1.0042712 0.0015338057 0)
(1.0087424 -0.00055513579 0)
(1.0113393 -8.392585e-05 0)
(1.0120434 0.00098019936 0)
(1.0116456 0.0014979304 0)
(1.0111307 0.0014230784 0)
(1.010777 0.00099591585 0)
(1.0107031 0.00051097501 0)
(1.0108138 0.00013438572 0)
(1.0109801 -8.7818514e-05 0)
(1.0111087 -0.00016946313 0)
(1.0111465 -0.00015026478 0)
(1.0110772 -7.6870498e-05 0)
(1.0109118 1.3792484e-05 0)
(1.0106734 9.4681917e-05 0)
(1.0103968 0.00014655238 0)
(1.0101218 0.00016257173 0)
(1.0098861 0.00013261571 0)
(1.009732 5.4975759e-05 0)
(0.84168127 0.020906148 1.66528e-23)
(0.84399973 0.032875017 -2.3340531e-23)
(0.85576529 0.0025142316 0)
(0.89888252 -0.048321594 -3.7872009e-24)
(0.95659491 -0.051098207 9.5823727e-23)
(0.987545 -0.0066317046 1.6794589e-22)
(0.96977059 0.066404797 8.5323265e-23)
(0.9345647 0.077671529 0)
(0.92465953 0.037503794 0)
(0.95085292 -0.030346738 0)
(1.006138 -0.054235021 0)
(1.0509378 -0.033982134 0)
(1.0599675 0.0031635669 0)
(1.0412534 0.033026827 0)
(1.0136349 0.038045867 0)
(0.99671789 0.025584958 0)
(0.99485686 0.0097516469 0)
(1.0009047 0.00020928052 0)
(1.0075203 -0.0025840734 0)
(1.011552 -0.0015491333 0)
(1.0127844 0.00038898311 0)
(1.0122726 0.0016040194 0)
(1.0113614 0.0017649601 0)
(1.0107466 0.0013704695 0)
(1.0105019 0.00072924402 0)
(1.0105945 0.00017652398 0)
(1.0108315 -0.00018625174 0)
(1.0110707 -0.00035512147 0)
(1.0112252 -0.00037072711 0)
(1.011259 -0.00029167254 0)
(1.0111702 -0.00016799959 0)
(1.0109771 -3.5961912e-05 0)
(1.0107121 7.5411435e-05 0)
(1.0104107 0.00014803466 0)
(1.0101179 0.00017553889 0)
(1.0098684 0.00014706772 0)
(1.0097056 6.2026085e-05 0)
(0.82763554 0.021904687 -6.7495865e-25)
(0.83013705 0.03434421 4.7577544e-24)
(0.84018413 0.0011055544 -2.1416728e-23)
(0.87951813 -0.05365868 -3.1523465e-23)
(0.93548447 -0.056169103 -5.4004847e-23)
(0.96729717 -0.0057928014 1.8481705e-22)
(0.95265675 0.072998869 1.7498269e-22)
(0.91594037 0.087052936 -1.9758201e-23)
(0.90795658 0.036074885 0)
(0.93878483 -0.038309714 0)
(1.0040933 -0.068467465 0)
(1.0597484 -0.046280132 0)
(1.0722441 0.0029050567 0)
(1.0470804 0.041259099 0)
(1.0117509 0.048584049 0)
(0.99022331 0.032564717 0)
(0.98786414 0.011250543 0)
(0.99641429 -0.0018694203 0)
(1.0058919 -0.0054408654 0)
(1.0118969 -0.0037965277 0)
(1.0139417 -0.00058932012 0)
(1.0133204 0.0016478325 0)
(1.0118598 0.0022814661 0)
(1.0107684 0.0019165698 0)
(1.0102698 0.001124247 0)
(1.0102672 0.00032679559 0)
(1.0105561 -0.00024089542 0)
(1.0109152 -0.00054609669 0)
(1.0112092 -0.00063073952 0)
(1.0113728 -0.00056676382 0)
(1.0113901 -0.00041972743 0)
(1.0112726 -0.00024079495 0)
(1.0110475 -6.7487984e-05 0)
(1.0107519 7.2628996e-05 0)
(1.0104264 0.00016378813 0)
(1.0101129 0.00019835993 0)
(1.0098486 0.00016660981 0)
(1.0096766 7.0439242e-05 0)
(0.816967 0.022478213 -5.0118738e-24)
(0.81960897 0.035366314 2.6988945e-25)
(0.82765024 -0.00012056528 0)
(0.86090346 -0.058560202 2.813884e-23)
(0.91324506 -0.060743327 -8.0293826e-23)
(0.94615168 -0.006101712 0)
(0.93249781 0.081516997 -3.8445908e-22)
(0.899272 0.095341842 -3.8557403e-22)
(0.88959258 0.041460081 0)
(0.92899248 -0.049997596 0)
(1.0011166 -0.083644981 0)
(1.0683203 -0.056456127 0)
(1.0896521 -0.00035515211 0)
(1.0575376 0.051614985 0)
(1.0090325 0.06157129 0)
(0.98120205 0.040890786 0)
(0.9788298 0.012937711 0)
(0.99051312 -0.0046733515 0)
(1.0037538 -0.0095413267 0)
(1.0124228 -0.0069394909 0)
(1.0156491 -0.0021526146 0)
(1.0149605 0.0016073699 0)
(1.0127704 0.0030020437 0)
(1.0109219 0.0027416778 0)
(1.0100009 0.001758052 0)
(1.0098215 0.00063841116 0)
(1.0101287 -0.00021449657 0)
(1.0106128 -0.00072278444 0)
(1.01107 -0.00092149697 0)
(1.0113936 -0.00089999389 0)
(1.0115477 -0.00074537319 0)
(1.0115358 -0.00052508003 0)
(1.011382 -0.00029055867 0)
(1.0111205 -7.8240379e-05 0)
(1.0107913 8.6924219e-05 0)
(1.01044 0.00019292699 0)
(1.0101056 0.00022961313 0)
(1.009826 0.00019047511 0)
(1.0096445 7.9866656e-05 0)
(0.81102819 0.022593293 0)
(0.81328465 0.035931924 0)
(0.81850585 -0.001353547 -2.7977288e-25)
(0.84486495 -0.062703352 0)
(0.89048327 -0.065040225 -2.3813438e-25)
(0.92318265 -0.0058394129 1.9912723e-22)
(0.91284722 0.088869204 6.7258492e-22)
(0.88132864 0.10442242 -6.560837e-23)
(0.87296168 0.046561441 0)
(0.91263966 -0.059074857 0)
(0.99827869 -0.098568418 0)
(1.0705973 -0.072983009 0)
(1.0973453 -0.0021824172 0)
(1.0748335 0.062199227 0)
(1.0109575 0.076484384 0)
(0.96997663 0.050992889 0)
(0.9670815 0.014659086 0)
(0.98307739 -0.0086336654 0)
(1.000999 -0.014859623 0)
(1.0131593 -0.011413205 0)
(1.0180677 -0.0043724946 0)
(1.0173861 0.0013662613 0)
(1.0142608 0.0039891202 0)
(1.0113328 0.0039674404 0)
(1.0096861 0.0027134641 0)
(1.0092509 0.0012034808 0)
(1.0095128 -6.8372512e-05 0)
(1.0101277 -0.00086527693 0)
(1.0107756 -0.0012346616 0)
(1.0112932 -0.0012897581 0)
(1.0116184 -0.001146501 0)
(1.0117445 -0.0008948555 0)
(1.0116922 -0.0006012977 0)
(1.0114954 -0.00031427662 0)
(1.0111934 -6.7326235e-05 0)
(1.0108302 0.00011931244 0)
(1.0104511 0.00023409719 0)
(1.010095 0.00026835985 0)
(1.0098002 0.0002177818 0)
(1.0096094 8.9924282e-05 0)
(0.81133255 0.036061728 -6.0935658e-25)
(0.81039479 0.022384745 0)
(0.81311161 -0.0022554566 -8.7515459e-24)
(0.83194326 -0.066017375 4.5742654e-25)
(0.86907703 -0.068703379 -3.4919568e-23)
(0.8997024 -0.005718372 9.209437e-24)
(0.8918321 0.096334598 3.6107299e-24)
(0.86440247 0.11306321 -2.3945345e-22)
(0.85619214 0.052205535 1.6096916e-23)
(0.8953066 -0.064783137 0)
(0.98679519 -0.11555081 -6.6812323e-22)
(1.0691406 -0.079500741 0)
(1.0977873 -0.010137126 0)
(1.0926356 0.076490369 0)
(1.0176556 0.094329026 0)
(0.95977591 0.062819028 0)
(0.95244797 0.016594853 0)
(0.97364777 -0.013845237 0)
(0.99762935 -0.022028151 0)
(1.0141397 -0.017156462 0)
(1.0213656 -0.0076514072 0)
(1.0208582 0.00096714575 0)
(1.0165244 0.0052610047 0)
(1.0121169 0.0057367219 0)
(1.0093875 0.0041527884 0)
(1.0084751 0.0020738878 0)
(1.0086781 0.00027337272 0)
(1.0094146 -0.00093754346 0)
(1.0102861 -0.0015614064 0)
(1.0110403 -0.0017370131 0)
(1.011576 -0.0016272484 0)
(1.0118753 -0.0013549491 0)
(1.0119569 -0.0010070897 0)
(1.0118549 -0.00064453182 0)
(1.0116098 -0.00031076717 0)
(1.0112645 -3.4520939e-05 0)
(1.0108663 0.00016837033 0)
(1.0104588 0.00028585087 0)
(1.0100809 0.00031251008 0)
(1.0097711 0.00024723096 0)
(1.0095712 0.00010028291 0)
(0.81139658 -0.0027047334 7.8179527e-24)
(0.81498738 0.0359377 0)
(0.81594779 0.021690102 -4.5690423e-25)
(0.82045237 -0.068397115 -4.5709116e-25)
(0.85019808 -0.071475386 1.77667e-23)
(0.87686564 -0.005615474 3.465352e-22)
(0.87158912 0.1029413 -6.1963613e-22)
(0.84825738 0.12121286 -8.8363773e-23)
(0.84080868 0.057714977 -2.9105707e-23)
(0.87753561 -0.071946646 3.5284418e-23)
(0.96969235 -0.13031728 -7.2437595e-22)
(1.0597404 -0.096065551 6.9659197e-22)
(1.094772 -0.0075494885 0)
(1.0880696 0.08807818 0)
(1.0185619 0.11765605 0)
(0.95013331 0.078456225 0)
(0.93500057 0.018082554 0)
(0.96242975 -0.020542173 0)
(0.99338421 -0.030839218 0)
(1.015442 -0.024910271 0)
(1.0256996 -0.011886302 0)
(1.0256207 0.00010029846 0)
(1.0198428 0.0069704436 0)
(1.0134016 0.0082075716 0)
(1.009138 0.0062673123 0)
(1.0074507 0.0033872528 0)
(1.0075433 0.00087516389 0)
(1.0084091 -0.00092550779 0)
(1.0095537 -0.0018923634 0)
(1.0105976 -0.002244407 0)
(1.0113927 -0.0021952463 0)
(1.0119054 -0.0019135168 0)
(1.0121551 -0.0015152225 0)
(1.012179 -0.0010775989 0)
(1.0120199 -0.00065339117 0)
(1.0117225 -0.00027994777 0)
(1.0113328 1.9673183e-05 0)
(1.0108983 0.00023149209 0)
(1.0104623 0.00034614318 0)
(1.010063 0.00036060743 0)
(1.0097385 0.00027815085 0)
(1.00953 0.00011068893 0)
(0.81345621 -0.069579657 5.0230009e-24)
(0.81623021 -0.0028846332 2.3539034e-23)
(0.82509693 0.035317082 0)
(0.82519684 0.020561336 9.6357255e-26)
(0.83210822 -0.07359535 -1.0358065e-23)
(0.85606382 -0.0054232587 -1.533193e-22)
(0.85283323 0.10858812 0)
(0.83410244 0.1283546 8.7753009e-23)
(0.82769875 0.063099757 -4.5526161e-23)
(0.86012677 -0.079013505 -3.4834014e-23)
(0.95056727 -0.14561351 7.7429069e-22)
(1.0437611 -0.11371376 7.536422e-22)
(1.084351 -0.011138852 0)
(1.0631497 0.10416015 0)
(1.00076 0.1406191 0)
(0.93586168 0.097220248 0)
(0.91621153 0.021529909 0)
(0.94821257 -0.029484487 0)
(0.98867398 -0.042056394 0)
(1.0169638 -0.034201445 0)
(1.0312369 -0.017860576 0)
(1.0320215 -0.001012129 0)
(1.0244571 0.0090306773 0)
(1.0153879 0.011604237 0)
(1.0089645 0.0092648488 0)
(1.0061427 0.0053308451 0)
(1.0059695 0.0017840791 0)
(1.0070366 -0.00074611214 0)
(1.0085076 -0.0022283511 0)
(1.0099217 -0.0028291731 0)
(1.0110389 -0.0028659756 0)
(1.0118127 -0.0025833432 0)
(1.0122676 -0.0021362133 0)
(1.012449 -0.0016223245 0)
(1.0124052 -0.0011050533 0)
(1.0121836 -0.00062823983 0)
(1.0118315 -0.00022287036 0)
(1.0113965 9.2880834e-05 0)
(1.0109255 0.00030639272 0)
(1.0104612 0.00041259415 0)
(1.0100409 0.00041166666 0)
(1.0097026 0.0003095947 0)
(1.0094862 0.00012090358 0)
(0.81925457 -0.074754491 -9.9752752e-24)
(0.81316618 -0.069698707 -6.1811894e-24)
(0.82674742 -0.002625239 -2.0969463e-23)
(0.83899898 0.034212125 -1.1023692e-23)
(0.83741291 0.019054486 6.5869847e-24)
(0.83710508 -0.0053457348 1.4543581e-22)
(0.83695179 0.11310544 8.4720252e-23)
(0.82274282 0.13431269 0)
(0.81739707 0.06783425 4.5480251e-23)
(0.84392476 -0.085717363 5.7369399e-24)
(0.9298588 -0.16127274 0)
(1.0250037 -0.12901623 -1.0192573e-21)
(1.0706552 -0.025375509 0)
(1.0446407 0.11986906 0)
(0.97620914 0.16189318 0)
(0.91944368 0.11769393 0)
(0.89758749 0.024696514 0)
(0.93205352 -0.039419901 0)
(0.98274408 -0.055282282 0)
(1.0189625 -0.046233153 0)
(1.0380431 -0.024966555 0)
(1.0402656 -0.0030878569 0)
(1.0308008 0.011802723 0)
(1.0182208 0.016124508 0)
(1.0088979 0.013436136 0)
(1.0044732 0.0080924302 0)
(1.0038435 0.0031352514 0)
(1.0051603 -0.00040699015 0)
(1.0070595 -0.0025622374 0)
(1.0089494 -0.0034953316 0)
(1.0104779 -0.0036606929 0)
(1.0115754 -0.0033842929 0)
(1.0122778 -0.0028847283 0)
(1.0126491 -0.0022898788 0)
(1.0127491 -0.0016752108 0)
(1.0126307 -0.0010902753 0)
(1.0123432 -0.00057073477 0)
(1.0119352 -0.00014180569 0)
(1.0114544 0.00018170597 0)
(1.010947 0.00039038752 0)
(1.0104552 0.00048331394 0)
(1.010015 0.000463425 0)
(1.0096638 0.00034068148 0)
(1.0094399 0.00013079953 0)
(0.82228011 -0.0055708061 6.7038471e-24)
(0.81186626 -0.07475493 8.6787428e-24)
(0.81821249 -0.068900347 3.6325916e-23)
(0.8418974 -0.0020595 1.1422252e-23)
(0.85478537 0.03271488 -4.0566821e-23)
(0.85297791 0.017282035 -1.7621199e-24)
(0.82505779 0.11635196 -1.5887716e-22)
(0.8152331 0.13902719 -6.8055158e-23)
(0.8105726 0.071955144 -1.5114635e-22)
(0.83066463 -0.091788918 -2.796016e-23)
(0.90797013 -0.17628507 -9.318872e-22)
(1.0022998 -0.14596368 6.735105e-22)
(1.0529609 -0.032847503 0)
(1.035866 0.12204061 -1.4033124e-21)
(0.95621098 0.18349629 6.1178727e-22)
(0.9051863 0.12959155 0)
(0.88163174 0.031830708 0)
(0.91459325 -0.05297637 0)
(0.97619841 -0.071524508 0)
(1.0211311 -0.059655164 0)
(1.0462794 -0.034734522 0)
(1.0507464 -0.0053319763 0)
(1.0390777 0.014879376 0)
(1.0222089 0.022145831 0)
(1.0089319 0.019068531 0)
(1.0023128 0.011943335 0)
(1.0010249 0.0050507047 0)
(1.0026063 0.00012319423 0)
(1.0051034 -0.0028880155 0)
(1.0076108 -0.0043070003 0)
(1.0096722 -0.0046231715 0)
(1.0111724 -0.0043467933 0)
(1.012173 -0.0037818418 0)
(1.0127677 -0.0030945216 0)
(1.0130384 -0.0023744702 0)
(1.0130487 -0.0016755519 0)
(1.0128515 -0.0010355993 0)
(1.0124963 -0.00048369354 0)