/*--------------------------------*- C++ -*----------------------------------*\
| =========                 |                                                 |
| \\      /  F ield         | OpenFOAM: The Open Source CFD Toolbox           |
|  \\    /   O peration     | Version:  5.0                                   |
|   \\  /    A nd           | Web:      www.OpenFOAM.org                      |
|    \\/     M anipulation  |                                                 |
\*---------------------------------------------------------------------------*/
FoamFile
{
    version     2.0;
    format      ascii;
    class       volVectorField;
    location    "300";
    object      UMean;
}
// * * * * * * * * * * * * * * * * * * * * * * * * * * * * * * * * * * * * * //

dimensions      [0 1 -1 0 0 0 0];

internalField   nonuniform List<vector> 
9520
(
(1.0107595 5.2557097e-05 0)
(1.0108492 0.00015385064 0)
(1.0106031 5.3422618e-05 0)
(1.0110084 0.00024842899 0)
(1.0106932 0.00015666022 0)
(1.01054 5.3739383e-05 0)
(1.0112223 0.00033574459 0)
(1.0108534 0.00025346241 0)
(1.0106299 0.00015759708 0)
(1.0104387 5.3804052e-05 0)
(1.0114778 0.00041597178 0)
(1.0110694 0.0003434561 0)
(1.01079 0.00025548601 0)
(1.0105279 0.00015821531 0)
(1.0103604 5.3533733e-05 0)
(1.0117631 0.00048848049 0)
(1.0113285 0.00042692633 0)
(1.0110062 0.00034714518 0)
(1.010687 0.00025742841 0)
(1.0104489 0.00015760839 0)
(1.0102771 5.2496391e-05 0)
(1.012068 0.00055294518 0)
(1.0116196 0.00050330655 0)
(1.011266 0.00043301583 0)
(1.0109021 0.00035152855 0)
(1.0106066 0.00025730964 0)
(1.0103638 0.00015494224 0)
(1.0102016 5.0961153e-05 0)
(1.0123834 0.00060905055 0)
(1.0119328 0.00057229209 0)
(1.0115584 0.00051262025 0)
(1.0111612 0.00044118446 0)
(1.0108201 0.00035306048 0)
(1.0105185 0.00025408463 0)
(1.0102867 0.00015071104 0)
(1.0101313 4.839801e-05 0)
(1.0127015 0.00065599481 0)
(1.0122594 0.0006333667 0)
(1.0118737 0.00058575301 0)
(1.0114536 0.00052607845 0)
(1.0110775 0.00044580503 0)
(1.010728 0.00035074183 0)
(1.0104383 0.00024821907 0)
(1.010214 0.00014347621 0)
(1.0100663 4.5135304e-05 0)
(1.013016 0.00069457178 0)
(1.0125915 0.00068597754 0)
(1.0122032 0.00065214785 0)
(1.01177 0.00060606949 0)
(1.0113685 0.00053536567 0)
(1.0109808 0.000446194 0)
(1.0106436 0.00034469628 0)
(1.0103609 0.00023745944 0)
(1.0101464 0.00013411678 0)
(1.0100104 4.0796108e-05 0)
(1.0133213 0.0007216306 0)
(1.0129232 0.00073062837 0)
(1.0125396 0.00071086294 0)
(1.0121021 0.0006806962 0)
(1.0116841 0.00062171493 0)
(1.011267 0.00054056688 0)
(1.0108912 0.00044173553 0)
(1.0105596 0.00033195643 0)
(1.0102887 0.00022308749 0)
(1.0100877 0.00012151083 0)
(1.0099604 3.5733515e-05 0)
(1.0136133 0.00074439073 0)
(1.0132489 0.00076450418 0)
(1.0128768 0.00076214613 0)
(1.0124428 0.00074913834 0)
(1.0120161 0.00070447594 0)
(1.0115777 0.0006340125 0)
(1.0111717 0.00053971275 0)
(1.0107992 0.00042891615 0)
(1.0104809 0.00031399676 0)
(1.0102245 0.00020321899 0)
(1.0100348 0.000106689 0)
(1.0099211 2.9753303e-05 0)
(1.0138889 0.00075052002 0)
(1.013568 0.0007928365 0)
(1.0132088 0.00080440338 0)
(1.012786 0.00081180934 0)
(1.0123575 0.00078305864 0)
(1.0119053 0.00072622178 0)
(1.0114764 0.00063898089 0)
(1.0110703 0.00052906846 0)
(1.0107123 0.00040911311 0)
(1.0104087 0.00028815272 0)
(1.0101661 0.00017950721 0)
(1.0099927 8.9036185e-05 0)
(1.0098887 2.3206874e-05 0)
(1.0141453 0.00076243766 0)
(1.0138729 0.00080195622 0)
(1.0135307 0.00084125963 0)
(1.0131285 0.00086619377 0)
(1.0127027 0.00085748077 0)
(1.0122432 0.00081654709 0)
(1.0117979 0.00073940901 0)
(1.0113645 0.00063304993 0)
(1.0109736 0.00050948683 0)
(1.0106295 0.00037891457 0)
(1.0103424 0.00025661499 0)
(1.0101186 0.0001508318 0)
(1.0099577 6.960736e-05 0)
(1.0098671 1.6037485e-05 0)
(1.0143808 0.0007361676 0)
(1.0141568 0.00082097447 0)
(1.0138371 0.00086574237 0)
(1.013467 0.00091516255 0)
(1.0130449 0.00092632832 0)
(1.0125864 0.00090486697 0)
(1.0121295 0.00084064355 0)
(1.0116751 0.000740931 0)
(1.0112567 0.00061604442 0)
(1.0108781 0.00047692583 0)
(1.010553 0.00034089251 0)
(1.0102866 0.00021765443 0)
(1.0100784 0.00011895128 0)
(1.0099339 4.8201316e-05 0)
(1.0098529 8.5716297e-06 0)
(1.0145928 0.00074798507 0)
(1.0144237 0.00080457169 0)
(1.0141312 0.00089459256 0)
(1.0137894 0.00094978959 0)
(1.013382 0.00099192727 0)
(1.0129316 0.00098854555 0)
(1.0124656 0.00094230291 0)
(1.011996 0.00085232854 0)
(1.0115547 0.00072911639 0)
(1.0111464 0.00058345495 0)
(1.010789 0.00043408423 0)
(1.0104861 0.00029261019 0)
(1.0102386 0.00017372537 0)
(1.0100501 8.3432578e-05 0)
(1.0099179 2.5804965e-05 0)
(1.0098487 8.5267012e-07 0)
(1.0147794 0.00068122593 0)
(1.0146702 0.00082772039 0)
(1.0144102 0.00089067551 0)
(1.0140947 0.0009904841 0)
(1.0137066 0.0010468127 0)
(1.0132717 0.0010710273 0)
(1.0128019 0.0010432891 0)
(1.0123231 0.000966759 0)
(1.0118614 0.00084858457 0)
(1.0114281 0.00069912716 0)
(1.0110423 0.00053778633 0)
(1.0107079 0.00037780149 0)
(1.0104276 0.00023718701 0)
(1.0102033 0.0001240513 0)
(1.0100304 4.5944932e-05 0)
(1.0099126 2.5178712e-06 0)
(1.0098516 -6.8247798e-06 0)
(1.0149329 0.00071177451 0)
(1.0148892 0.00077217662 0)
(1.0146709 0.00092037636 0)
(1.0143858 0.0010032565 0)
(1.0140185 0.0011057059 0)
(1.0136002 0.0011437433 0)
(1.0131362 0.001144435 0)
(1.0126513 0.0010829973 0)
(1.0121723 0.00097424657 0)
(1.0117179 0.00082401575 0)
(1.0113065 0.00065295421 0)
(1.0109441 0.00047522185 0)
(1.0106358 0.0003117486 0)
(1.0103822 0.00017337923 0)
(1.0101775 7.0997259e-05 0)
(1.0100226 6.5726877e-06 0)
(1.009915 -2.0762995e-05 0)
(1.0098631 -1.4351223e-05 0)
(1.0150504 0.00059438159 0)
(1.0150752 0.00081607758 0)
(1.0149024 0.00087962729 0)
(1.0146588 0.0010468273 0)
(1.0143194 0.0011378625 0)
(1.0139157 0.0012220164 0)
(1.0134611 0.0012387128 0)
(1.012977 0.0012018794 0)
(1.0124843 0.0011050143 0)
(1.0120116 0.00095804257 0)
(1.011576 0.00078004053 0)
(1.0111886 0.00058625848 0)
(1.0108553 0.0003997691 0)
(1.0105769 0.00023411827 0)
(1.0103474 0.00010424937 0)
(1.0101651 1.4562217e-05 0)
(1.0100235 -3.315369e-05 0)
(1.0099268 -4.3734839e-05 0)
(1.0098805 -2.1474795e-05 0)
(1.0150982 0.00065340065 0)
(1.0152241 0.0007039824 0)
(1.0151057 0.00092639228 0)
(1.0149056 0.0010255722 0)
(1.0145997 0.0011965222 0)
(1.014223 0.0012765448 0)
(1.0137747 0.0013387367 0)
(1.0132943 0.0013173495 0)
(1.0127945 0.0012412207 0)
(1.0123051 0.0011001327 0)
(1.0118472 0.00091920919 0)
(1.0114364 0.00071172994 0)
(1.0110797 0.00050304873 0)
(1.0107794 0.00030902976 0)
(1.01053 0.00014862946 0)
(1.0103277 2.9619435e-05 0)
(1.0101629 -4.3050759e-05 0)
(1.0100354 -7.2776248e-05 0)
(1.0099453 -6.5610903e-05 0)
(1.0099043 -2.8059081e-05 0)
(1.0150814 0.00048302946 0)
(1.0153272 0.00079526504 0)
(1.0152734 0.00082982789 0)
(1.0151233 0.0010830155 0)
(1.0148596 0.0011953386 0)
(1.0145093 0.0013559776 0)
(1.0140811 0.0014188059 0)
(1.0136002 0.0014394537 0)
(1.0130975 0.001377743 0)
(1.0125955 0.0012507167 0)
(1.0121169 0.0010696592 0)
(1.0116837 0.00085203273 0)
(1.0113039 0.00062284939 0)
(1.0109831 0.00040043629 0)
(1.0107165 0.00020727279 0)
(1.0104995 5.4844118e-05 0)
(1.0103201 -4.7612902e-05 0)
(1.0101738 -0.00010129847 0)
(1.0100554 -0.00011092833 0)
(1.0099712 -8.5989086e-05 0)
(1.0099326 -3.3894116e-05 0)
(1.0148459 0.00057117989 0)
(1.0153259 0.00061855987 0)
(1.0153715 0.00091870498 0)
(1.0153093 0.0010138745 0)
(1.0150913 0.0012686893 0)
(1.0147798 0.0013778289 0)
(1.0143723 0.0015222765 0)
(1.013898 0.0015472203 0)
(1.0133895 0.0015222311 0)
(1.0128788 0.0014052676 0)
(1.0123829 0.0012314963 0)
(1.0119274 0.0010065867 0)
(1.0115245 0.00075995478 0)
(1.0111833 0.00051010965 0)
(1.0109004 0.00028299181 0)
(1.0106715 9.3732275e-05 0)
(1.0104833 -4.3668118e-05 0)
(1.0103279 -0.00012684295 0)
(1.0101947 -0.00015815607 0)
(1.0100845 -0.00014695253 0)
(1.0100024 -0.00010424005 0)
(1.009965 -3.8862989e-05 0)
(1.0142183 0.00036360833 0)
(1.0151841 0.00075033241 0)
(1.0154058 0.00074866278 0)
(1.0154262 0.0011078752 0)
(1.015288 0.001214808 0)
(1.015025 0.0014720363 0)
(1.014646 0.0015722656 0)
(1.0141855 0.0016779271 0)
(1.0136712 0.0016571552 0)
(1.0131511 0.0015697081 0)
(1.0126416 0.0014007388 0)
(1.0121655 0.0011754346 0)
(1.0117393 0.0009142993 0)
(1.0113765 0.00063928267 0)
(1.0110764 0.000378113 0)
(1.0108364 0.00014963191 0)
(1.0106428 -2.740674e-05 0)
(1.0104851 -0.00014625298 0)
(1.0103482 -0.00020536832 0)
(1.0102273 -0.00021273633 0)
(1.0101203 -0.00017972828 0)
(1.0100385 -0.00011996712 0)
(1.01 -4.2807965e-05 0)
(1.0132442 0.00042429791 0)
(1.0145738 0.00054142186 0)
(1.0152604 0.00089283894 0)
(1.015473 0.00096742088 0)
(1.0154185 0.0013213276 0)
(1.0152329 0.0014416717 0)
(1.0149 0.0016925051 0)
(1.0144559 0.0017608451 0)
(1.013946 0.0018149985 0)
(1.0134102 0.001729082 0)
(1.0128881 0.0015823124 0)
(1.0123955 0.0013551621 0)
(1.0119465 0.001085753 0)
(1.0115606 0.00078832478 0)
(1.0112414 0.000494452 0)
(1.0109892 0.00022549051 0)
(1.0107908 5.026874e-06 0)
(1.0106348 -0.00015550731 0)
(1.0105022 -0.00024956887 0)
(1.0103831 -0.00028206601 0)
(1.0102686 -0.00026332804 0)
(1.0101629 -0.00020859104 0)
(1.0100779 -0.00013272714 0)
(1.0100366 -4.5645042e-05 0)
(1.0126847 0.00029614778 0)
(1.0135974 0.00062691231 0)
(1.0147258 0.00068052675 0)
(1.0153554 0.0011170819 0)
(1.0154804 0.0011967554 0)
(1.0153846 0.0015656537 0)
(1.0151176 0.001692371 0)
(1.014709 0.001912579 0)
(1.014204 0.0019309339 0)
(1.0136643 0.0019113298 0)
(1.0131215 0.0017615952 0)
(1.0126116 0.0015493052 0)
(1.0121444 0.0012715397 0)
(1.0117346 0.00095723107 0)
(1.0113937 0.00063297267 0)
(1.0111264 0.00032378344 0)
(1.0109218 5.7207969e-05 0)
(1.0107684 -0.00015026277 0)
(1.0106451 -0.00028657755 0)
(1.0105373 -0.00035220713 0)
(1.0104295 -0.0003545722 0)
(1.0103193 -0.00030897484 0)
(1.0102103 -0.00023273495 0)
(1.0101199 -0.00014223959 0)
(1.0100738 -4.7301524e-05 0)
(1.0109231 0.00028753692 0)
(1.0131297 0.00044820931 0)
(1.0137316 0.000794085 0)
(1.0148515 0.00092658607 0)
(1.0153763 0.0013534297 0)
(1.0154623 0.0014636544 0)
(1.0152867 0.0018414598 0)
(1.014927 0.0019506205 0)
(1.0144457 0.0021145803 0)
(1.0139009 0.0020574333 0)
(1.0133498 0.0019640535 0)
(1.0128161 0.0017446891 0)
(1.0123275 0.0014735771 0)
(1.0118974 0.0011440145 0)
(1.0115326 0.00079410245 0)
(1.0112465 0.00044607428 0)
(1.0110323 0.00013232658 0)
(1.01088 -0.00012628276 0)
(1.0107676 -0.00031163047 0)
(1.0106771 -0.00041897833 0)
(1.0105874 -0.00045114623 0)
(1.0104887 -0.00042159129 0)
(1.0103768 -0.00034840551 0)
(1.0102618 -0.00025164138 0)
(1.0101631 -0.00014825667 0)
(1.0101107 -4.7741541e-05 0)
(1.0055419 0.00013989394 0)
(1.0115485 0.00058790658 0)
(1.0132676 0.00058952085 0)
(1.0138593 0.0010704438 0)
(1.0149035 0.0011755286 0)
(1.0153802 0.0016309558 0)
(1.0153809 0.0017735054 0)
(1.0151026 0.0021339418 0)
(1.0146523 0.0021917039 0)
(1.0141228 0.0022687473 0)
(1.0135596 0.0021351002 0)
(1.013014 0.0019634466 0)
(1.0124986 0.0016813045 0)
(1.0120441 0.0013495683 0)
(1.011658 0.00097647235 0)
(1.0113492 0.00059342606 0)
(1.0111207 0.00023270353 0)
(1.0109657 -7.9609381e-05 0)
(1.0108629 -0.00031984784 0)
(1.0107923 -0.00047726708 0)
(1.010728 -0.00054895908 0)
(1.010654 -0.00054466103 0)
(1.0105574 -0.00048128091 0)
(1.010441 -0.00038081887 0)
(1.0103158 -0.00026483393 0)
(1.0102066 -0.00015064318 0)
(1.0101463 -4.6952594e-05 0)
(0.99734902 0.00013997734 0)
(1.0060712 0.0002416735 0)
(1.0118921 0.00077449602 0)
(1.0133905 0.00083346764 0)
(1.013932 0.0013394607 0)
(1.0149439 0.0014641085 0)
(1.0153246 0.0019654009 0)
(1.0152017 0.002113331 0)
(1.0148194 0.0024105833 0)
(1.0143085 0.0023804681 0)
(1.0137568 0.0023682051 0)
(1.013194 0.0021553773 0)
(1.0126625 0.0019129222 0)
(1.0121775 0.0015649807 0)
(1.0117658 0.0011803644 0)
(1.011435 0.00076521058 0)
(1.0111872 0.00036006792 0)
(1.0110239 -7.1255164e-06 0)
(1.0109267 -0.00030650661 0)
(1.010875 -0.00052159139 0)
(1.01084 -0.00064266412 0)
(1.0107998 -0.00067436908 0)
(1.0107338 -0.00063028833 0)
(1.0106361 -0.0005324733 0)
(1.0105095 -0.00040541939 0)
(1.0103713 -0.00027202566 0)
(1.0102493 -0.00014935029 0)
(1.0101798 -4.4936063e-05 0)
(0.98814875 2.0811674e-05 0)
(0.99796599 0.00036563269 0)
(1.0064128 0.00044570286 0)
(1.0122084 0.0010781933 0)
(1.0134408 0.0010735292 0)
(1.0140057 0.0016459006 0)
(1.0149319 0.0018208717 0)
(1.015161 0.0023407269 0)
(1.0149098 0.0024363293 0)
(1.0144563 0.0026299134 0)
(1.0139178 0.0025072892 0)
(1.013362 0.0024071483 0)
(1.0128101 0.0021229186 0)
(1.0123031 0.0018059268 0)
(1.0118576 0.0013986783 0)
(1.0115012 0.00096145696 0)
(1.0112326 0.0005147493 0)
(1.0110547 9.3768219e-05 0)
(1.0109569 -0.00026761821 0)
(1.0109203 -0.00054641611 0)
(1.0109145 -0.00072625405 0)
(1.0109134 -0.00080526644 0)
(1.0108892 -0.00079201545 0)
(1.0108275 -0.00070637014 0)
(1.0107218 -0.00057392052 0)
(1.0105817 -0.0004216935 0)
(1.0104272 -0.00027308077 0)
(1.0102904 -0.00014435422 0)
(1.0102105 -4.1715062e-05 0)
(0.97809266 -4.8141124e-06 0)
(0.98877127 0.00016395347 0)
(0.99828018 0.00051627875 0)
(1.0068974 0.00074091667 0)
(1.0124972 0.0013625432 0)
(1.0135006 0.0013662992 0)
(1.0140274 0.0020394073 0)
(1.0148005 0.0022429686 0)
(1.0148647 0.002701887 0)
(1.0145282 0.0026909131 0)
(1.0140428 0.0027808247 0)
(1.0134984 0.0025667998 0)
(1.0129477 0.0023902496 0)
(1.0124137 0.0020313163 0)
(1.0119404 0.0016444472 0)
(1.0115478 0.0011767219 0)
(1.0112556 0.0006966276 0)
(1.0110595 0.00022418666 0)
(1.0109539 -0.00019963121 0)
(1.0109258 -0.00054670468 0)
(1.0109457 -0.00079344017 0)
(1.0109848 -0.00093093389 0)
(1.0110094 -0.00096108677 0)
(1.0109972 -0.00089971337 0)
(1.0109318 -0.00077113581 0)
(1.010814 -0.00060474836 0)
(1.0106557 -0.00042938364 0)
(1.0104824 -0.00026793501 0)
(1.010329 -0.00013571293 0)
(1.0102378 -3.7333036e-05 0)
(0.96602068 -0.00010869562 -2.1494245e-24)
(0.97878011 0.00017457344 0)
(0.98914969 0.00034546457 0)
(0.99869906 0.0007342085 0)
(1.0075631 0.0010026758 0)
(1.0128041 0.0016771568 0)
(1.0134954 0.001765144 0)
(1.0139189 0.0025098712 0)
(1.0145185 0.0026559684 0)
(1.0144688 0.002986794 0)
(1.0140945 0.0028654001 0)
(1.0136018 0.0028608578 0)
(1.013055 0.002571072 0)
(1.0125157 0.0023132507 0)
(1.0120085 0.0018815816 0)
(1.0115831 0.0014217817 0)
(1.0112547 0.00090174131 0)
(1.0110383 0.00038436028 0)
(1.0109193 -0.00010056148 0)
(1.0108916 -0.00051807698 0)
(1.0109306 -0.00083822768 0)
(1.0110069 -0.0010443612 0)
(1.011083 -0.0011308194 0)
(1.0111293 -0.0011073959 0)
(1.0111201 -0.00099504262 0)
(1.0110464 -0.00082326084 0)
(1.0109103 -0.00062430413 0)
(1.0107304 -0.00042792195 0)
(1.0105357 -0.00025649585 0)
(1.0103644 -0.00012353559 0)
(1.0102612 -3.1851912e-05 0)
(0.95182868 -0.00015643074 2.7670568e-24)
(0.96673886 3.9608058e-05 2.2433528e-24)
(0.97920851 0.00032860483 0)
(0.9895974 0.00056297859 0)
(0.99925869 0.00094025734 0)
(1.0083869 0.0013283921 0)
(1.0130208 0.002127865 0)
(1.0133117 0.0022716603 0)
(1.013645 0.0029684362 0)
(1.0141267 0.0029787133 0)
(1.0140227 0.0031795765 0)
(1.013636 0.0029646311 0)
(1.0131373 0.0028818947 0)
(1.0125909 0.0025158529 0)
(1.0120687 0.0021750336 0)
(1.0116025 0.0016650154 0)
(1.0112394 0.0011390653 0)
(1.0109887 0.00057153642 0)
(1.0108543 3.06858e-05 0)
(1.0108196 -0.00045743559 0)
(1.0108689 -0.0008549693 0)
(1.0109758 -0.0011384995 0)
(1.0111016 -0.0012936016 0)
(1.011211 -0.0013226502 0)
(1.0112695 -0.0012409942 0)
(1.0112581 -0.0010761083 0)
(1.0111682 -0.00086172036 0)
(1.0110095 -0.00063230393 0)
(1.0108044 -0.00041752777 0)
(1.0105862 -0.00023895712 0)
(1.010396 -0.00010801345 0)
(1.0102803 -2.5354572e-05 0)
(0.93654147 -0.00020552299 -2.7797492e-24)
(0.95264657 -3.4860564e-05 -7.0026452e-24)
(0.96717976 0.00021178094 0)
(0.97975536 0.00050986856 0)
(0.99018426 0.0007225592 0)
(1.0000426 0.001224187 0)
(1.0091832 0.001793749 0)
(1.0130142 0.0026962356 0)
(1.012934 0.0027765586 0)
(1.013259 0.003312392 0)
(1.0136887 0.0031894544 0)
(1.0135586 0.0032940879 0)
(1.0131559 0.0030051906 0)
(1.0126452 0.0028472056 0)
(1.0121037 0.0023989259 0)
(1.0116134 0.0019651084 0)
(1.0112056 0.0013805374 0)
(1.0109207 0.00079315379 0)
(1.0107562 0.00019184058 0)
(1.0107118 -0.00036278764 0)
(1.0107625 -0.00083959837 0)
(1.0108909 -0.0012066873 0)
(1.0110603 -0.0014414661 0)
(1.0112324 -0.0015373851 0)
(1.0113654 -0.0015023468 0)
(1.0114302 -0.0013593026 0)
(1.0114072 -0.0011413318 0)
(1.0112962 -0.00088569395 0)
(1.01111 -0.00062831961 0)
(1.0108768 -0.00039831368 0)
(1.0106333 -0.00021564467 0)
(1.0104233 -8.936328e-05 0)
(1.0102948 -1.7934155e-05 0)
(0.92092226 -0.00026416422 0)
(0.93736842 -6.9667782e-05 7.0134292e-24)
(0.9531788 8.8920383e-05 0)
(0.96775151 0.00038935667 0)
(0.98047621 0.00064599551 0)
(0.9909538 0.00092390753 0)
(1.0010047 0.0017446597 0)
(1.0098239 0.0024088587 0)
(1.012726 0.0032490831 0)
(1.0124316 0.0031760135 0)
(1.0128395 0.0035256564 0)
(1.0132426 0.0033159138 0)
(1.0130782 0.0033551666 0)
(1.0126413 0.0029942717 0)
(1.012122 0.0027510806 0)
(1.0115992 0.0022059931 0)
(1.0111613 0.0016793001 0)
(1.0108312 0.0010245157 0)
(1.0106352 0.00038952079 0)
(1.0105661 -0.0002355183 0)
(1.0106142 -0.00078891415 0)
(1.0107538 -0.0012433649 0)
(1.0109575 -0.0015664714 0)
(1.0111873 -0.0017427607 0)
(1.0113963 -0.0017707274 0)
(1.0115467 -0.0016665949 0)
(1.0116074 -0.0014599749 0)
(1.0115669 -0.0011891797 0)
(1.0114277 -0.0008945494 0)
(1.0112102 -0.00061227162 0)
(1.0109462 -0.00037055865 0)
(1.0106762 -0.00018690394 0)
(1.010446 -6.7817907e-05 0)
(1.0103045 -9.6434228e-06 0)
(0.90532 -0.00025175443 1.445796e-24)
(0.92168663 -0.0001895961 0)
(0.93789366 8.3445853e-05 1.3787174e-23)
(0.95385645 0.00018734841 0)
(0.96851806 0.00050739232 0)
(0.98139469 0.00085672819 0)
(0.99183387 0.0013091787 0)
(1.0020153 0.002471324 0)
(1.010233 0.0030391441 0)
(1.0122114 0.0036248175 0)
(1.0119198 0.0034270376 0)
(1.0124323 0.0036554081 0)
(1.012784 0.0033931232 0)
(1.012556 0.0033731472 0)
(1.0120855 0.002925233 0)
(1.0115695 0.0025746559 0)
(1.0110909 0.0019288308 0)
(1.0107282 0.0013125333 0)
(1.0104895 0.00060212327 0)
(1.0103925 -6.9736203e-05 0)
(1.0104227 -0.00070320803 0)
(1.0105679 -0.001244049 0)
(1.0107944 -0.0016617465 0)
(1.0110727 -0.0019298053 0)
(1.0113542 -0.0020367237 0)
(1.0115942 -0.0019896476 0)
(1.0117509 -0.001812189 0)
(1.0118006 -0.0015407886 0)
(1.0117336 -0.0012187285 0)
(1.0115615 -0.0008879038 0)
(1.0113086 -0.00058451659 0)
(1.0110119 -0.00033466949 0)
(1.0107144 -0.0001531403 0)
(1.0104637 -4.3636574e-05 0)
(1.0103093 -6.0449154e-07 0)
(0.89036138 -0.00028465334 -5.7866394e-24)
(0.90593527 -0.00018396243 -1.9982658e-23)
(0.92217152 -6.43965e-05 -1.3779785e-23)
(0.9385622 0.00019105462 -2.0993829e-23)
(0.95473817 0.00020946396 -2.6383545e-23)
(0.96948566 0.00069616341 0)
(0.98242295 0.0013070098 0)
(0.99269627 0.0018692868 0)
(1.0030105 0.0031847789 0)
(1.0104628 0.0035143994 0)
(1.01163 0.0038066156 0)
(1.0114437 0.0035765324 0)
(1.0120215 0.0037480447 0)
(1.0122819 0.0034357036 0)
(1.011979 0.0033382008 0)
(1.0114859 0.0027735311 0)
(1.0110045 0.0023038869 0)
(1.0105976 0.001560529 0)
(1.0103273 0.00087064378 0)
(1.0101908 0.00011614753 0)
(1.0101979 -0.00057694019 0)
(1.0103327 -0.0012077474 0)
(1.010575 -0.0017209427 0)
(1.0108891 -0.0020900011 0)
(1.0112349 -0.0022901985 0)
(1.0115629 -0.0023185799 0)
(1.0118223 -0.0021899301 0)
(1.0119774 -0.0019360618 0)
(1.0120054 -0.0016003191 0)
(1.0119061 -0.001229103 0)
(1.0116952 -0.00086594902 0)
(1.0114041 -0.00054537199 0)
(1.0110729 -0.00029116069 0)
(1.0107476 -0.00011472629 0)
(1.0104763 -1.708418e-05 0)
(1.0103092 9.1066914e-06 0)
(0.87677848 -0.00025784273 7.0454072e-24)
(0.89076124 -0.00023968687 3.5061142e-23)
(0.90632229 -5.203768e-05 0)
(0.92279604 -2.153262e-05 7.3603234e-23)
(0.93944312 0.00021685752 2.6250842e-23)
(0.95583615 0.00028524503 4.005336e-23)
(0.9705337 0.0011433412 2.0540249e-23)
(0.98343204 0.0019503397 0)
(0.99357712 0.0024607954 0)
(1.0040212 0.0037117482 0)
(1.0105638 0.0037791625 0)
(1.0110444 0.0039061279 0)
(1.0109874 0.0036810524 0)
(1.0115662 0.0038251587 0)
(1.0117073 0.0034333918 0)
(1.0113395 0.0032179301 0)
(1.0108634 0.0025178123 0)
(1.0104502 0.0019304856 0)
(1.0101359 0.0011072616 0)
(1.0099697 0.00035727162 0)
(1.0099412 -0.00042548262 0)
(1.0100581 -0.0011286089 0)
(1.0102992 -0.0017419868 0)
(1.0106406 -0.0022152109 0)
(1.0110376 -0.0025211894 0)
(1.0114467 -0.0026424707 0)
(1.0118098 -0.002583231 0)
(1.0120803 -0.0023677204 0)
(1.0122215 -0.0020361018 0)
(1.0122205 -0.001636935 0)
(1.012081 -0.0012203021 0)
(1.0118274 -0.00082880915 0)
(1.0114952 -0.00049545754 0)
(1.0111283 -0.0002406188 0)
(1.0107752 -7.1834216e-05 0)
(1.0104837 1.152862e-05 0)
(1.0103042 1.9395783e-05 0)
(0.86512353 -0.00023841738 -5.6081938e-26)
(0.87689184 -0.00022449035 -8.2795556e-24)
(0.89101073 -0.00010687303 1.477128e-23)
(0.90681842 -3.9584381e-05 -2.9189635e-23)
(0.92365385 -6.6538386e-05 -5.4575788e-23)
(0.94055159 0.0003078079 3.5854876e-23)
(0.95702652 0.00062050754 1.4340174e-22)
(0.97153633 0.0018140616 -2.5664024e-23)
(0.98441495 0.0025542862 0)
(0.99460143 0.0029284272 0)
(1.0050431 0.0040294084 0)
(1.0104587 0.0039287055 0)
(1.0104763 0.004018807 0)
(1.0105022 0.0037757122 0)
(1.0110289 0.0038726879 0)
(1.011046 0.0033443303 0)
(1.0106635 0.0029814261 0)
(1.0102476 0.0021463927 0)
(1.0099272 0.0014614575 0)
(1.0097181 0.0005743754 0)
(1.009662 -0.00021883704 0)
(1.0097473 -0.0010189901 0)
(1.0099764 -0.0017181218 0)
(1.0103278 -0.0023018161 0)
(1.0107657 -0.0027196607 0)
(1.0112433 -0.002949758 0)
(1.0117053 -0.002980414 0)
(1.0120952 -0.0028257987 0)
(1.0123633 -0.0025196856 0)
(1.012482 -0.0021097632 0)
(1.0124417 -0.0016502758 0)
(1.0122568 -0.0011919582 0)
(1.011956 -0.00077716803 0)
(1.0115809 -0.00043540695 0)
(1.0111783 -0.0001833108 0)
(1.010797 -2.5465593e-05 0)
(1.0104858 4.1949158e-05 0)
(1.0102943 3.0146084e-05 0)
(0.85534499 -0.0001758067 -2.8168453e-24)
(0.86491888 -0.00020161634 3.7111008e-24)
(0.8769936 -9.7132312e-05 0)
(0.89133667 -0.00013162763 -2.2327998e-23)
(0.90756048 -0.00012860005 -6.5048418e-24)
(0.92474682 -4.2891204e-05 0)
(0.9417602 0.00068569509 -1.0212617e-22)
(0.95818166 0.0011807506 -1.1711099e-22)
(0.97250342 0.0024786413 0)
(0.98549934 0.002919661 0)
(0.99590542 0.0031816123 0)
(1.006072 0.0042493783 0)
(1.0101912 0.0040176977 0)
(1.0098852 0.0041718602 0)
(1.0099311 0.0038563016 0)
(1.0103844 0.0038349507 0)
(1.010329 0.0031250281 0)
(1.0099897 0.0026129714 0)
(1.0096638 0.0016688118 0)
(1.0094495 0.00090482628 0)
(1.0093513 -2.7712153e-05 0)
(1.0094102 -0.00085332972 0)
(1.0096123 -0.0016579029 0)
(1.0099591 -0.0023416337 0)
(1.0104209 -0.0028801687 0)
(1.0109549 -0.0032289351 0)
(1.0115046 -0.0033687615 0)
(1.0120117 -0.0032983782 0)
(1.0124144 -0.0030417918 0)
(1.0126701 -0.00264243 0)
(1.0127538 -0.0021559601 0)
(1.0126675 -0.0016393488 0)
(1.0124305 -0.0011448475 0)
(1.0120799 -0.00071159981 0)
(1.0116605 -0.00036600097 0)
(1.0112217 -0.00012020935 0)
(1.010813 2.4402276e-05 0)
(1.0104827 7.3829974e-05 0)
(1.0102798 4.1249506e-05 0)
(0.84815085 -0.00011572374 0)
(0.85475452 -0.00012644101 0)
(0.86483476 -7.6136153e-05 -3.8283859e-24)
(0.87712417 -0.00016177894 0)
(0.89192158 -0.00027042884 -3.3025128e-24)
(0.90852365 -0.0001538973 5.1423493e-23)
(0.92596347 0.00029096493 2.4857636e-22)
(0.94294268 0.0012973857 2.2529374e-22)
(0.95932201 0.0017281392 0)
(0.97357969 0.0028942322 0)
(0.98687565 0.0030277266 0)
(0.99757992 0.0033321139 0)
(1.0071138 0.0044695088 0)
(1.009782 0.0041193274 0)
(1.0091681 0.0043247224 0)
(1.0092509 0.0038525605 0)
(1.0096681 0.0036522361 0)
(1.0096075 0.0027557177 0)
(1.0093499 0.0021252887 0)
(1.0091277 0.0010965331 0)
(1.0090243 0.00027281551 0)
(1.0090403 -0.00069381911 0)
(1.0092172 -0.0015401085 0)
(1.009542 -0.0023397703 0)
(1.0100094 -0.002993007 0)
(1.010584 -0.0034718241 0)
(1.011208 -0.0037354347 0)
(1.0118235 -0.0037718971 0)
(1.0123619 -0.0035905686 0)
(1.0127663 -0.0032266878 0)
(1.0129951 -0.0027338137 0)
(1.0130351 -0.0021729701 0)
(1.0128937 -0.001604774 0)
(1.0126008 -0.0010791638 0)
(1.0121975 -0.00063309992 0)
(1.0117332 -0.00028792666 0)
(1.0112586 -5.1783163e-05 0)
(1.0108232 7.6828944e-05 0)
(1.0104745 0.00010693903 0)
(1.0102608 5.2685151e-05 0)
(0.84704285 -3.4581615e-05 -4.8527844e-25)
(0.84811308 5.7945225e-05 0)
(0.85440415 6.9803641e-06 -1.0074942e-23)
(0.86468573 -0.0001668838 -1.5445452e-23)
(0.87752735 -0.00034796275 -9.2110122e-24)
(0.89271288 -0.00034835867 1.7540229e-23)
(0.90961598 0.0001445324 7.7352215e-24)
(0.92717335 0.00087757182 3.0855204e-23)
(0.94413131 0.0018850819 -2.9585263e-22)
(0.96058593 0.0020143652 0)
(0.97495873 0.0029922897 -3.0015447e-22)
(0.9886392 0.0030411726 0)
(0.99948002 0.003515217 0)
(1.0079723 0.0047614683 0)
(1.0091356 0.0042635128 0)
(1.008285 0.0043871183 0)
(1.0085038 0.0036856869 0)
(1.0089418 0.0032970806 0)
(1.0089209 0.002253429 0)
(1.0087615 0.0015346764 0)
(1.0086466 0.00044445993 0)
(1.0086548 -0.0004274383 0)
(1.0087869 -0.0014178463 0)
(1.009088 -0.0022776396 0)
(1.0095409 -0.0030592155 0)
(1.0101341 -0.0036674496 0)
(1.0108186 -0.0040690705 0)
(1.0115283 -0.0042320466 0)
(1.0121968 -0.0041519733 0)
(1.0127551 -0.0038512541 0)
(1.0131451 -0.0033770692 0)
(1.0133363 -0.0027912269 0)
(1.013321 -0.0021609314 0)
(1.0131188 -0.0015462528 0)
(1.0127652 -0.00099623674 0)
(1.0123078 -0.0005424759 0)
(1.0117984 -0.00020209504 0)
(1.0112887 2.0984799e-05 0)
(1.0108274 0.0001316857 0)
(1.0104615 0.00014098302 0)
(1.0102376 6.4321271e-05 0)
(0.84643942 0.00010451207 8.9644508e-24)
(0.84702209 0.0002020755 0)
(0.8552671 0.00011466266 -2.7667357e-24)
(0.85387248 -9.4165537e-05 1.5437164e-23)
(0.86477578 -0.00038667808 3.6406392e-24)
(0.87809908 -0.00046339207 1.0658017e-22)
(0.89364123 -8.3736351e-05 -1.9848642e-22)
(0.91070687 0.00069845772 -9.1312117e-23)
(0.92840493 0.0014439332 -2.7565678e-22)
(0.94545425 0.0021653805 -1.0774261e-22)
(0.96216792 0.0019691477 -3.9526284e-22)
(0.97671625 0.0029752804 3.1207852e-22)
(0.99069792 0.0031283665 0)
(1.0013657 0.0038895819 0)
(1.0082944 0.0050901062 0)
(1.0081749 0.0043525092 0)
(1.0073112 0.0042537332 0)
(1.0077685 0.0033166924 0)
(1.0082532 0.0027940546 0)
(1.0082883 0.0016407449 0)
(1.0082315 0.00085919375 0)
(1.0082218 -0.0002781581 0)
(1.0083409 -0.001189891 0)
(1.0085949 -0.0021995043 0)
(1.0090271 -0.0030625442 0)
(1.0096166 -0.0038129637 0)
(1.010337 -0.0043578059 0)
(1.011129 -0.0046644578 0)
(1.0119145 -0.0047107243 0)
(1.0126246 -0.0045021194 0)
(1.0131857 -0.0040754825 0)
(1.0135485 -0.0034891742 0)
(1.0136877 -0.0028139327 0)
(1.0136092 -0.0021189667 0)
(1.0133392 -0.0014652609 0)
(1.0129224 -0.00089665078 0)
(1.0124098 -0.0004408591 0)
(1.0118558 -0.00010944891 0)
(1.0113118 9.7572625e-05 0)
(1.010826 0.00018822668 0)
(1.0104437 0.00017572241 0)
(1.0102103 7.6097455e-05 0)
(0.84560338 -3.4655078e-06 4.0833176e-24)
(0.84642398 0.00032799249 1.1674691e-23)
(0.85470257 0.0002883469 0)
(0.86501244 0.0001773363 -4.4574562e-26)
(0.85353456 -0.0003291738 -4.7994195e-24)
(0.8649334 -0.00053799415 -5.8598151e-23)
(0.87878427 -0.00022094047 0)
(0.89460144 0.00045004429 9.070359e-23)
(0.91183668 0.0012258804 -1.3927694e-22)
(0.92977472 0.0016788037 1.0635465e-22)
(0.94708879 0.0020638059 4.9374773e-22)
(0.96416331 0.0017933346 4.1031733e-22)
(0.97876821 0.0030443466 0)
(0.99286982 0.0034438984 0)
(1.0028959 0.0044282095 0)
(1.0080214 0.0052866651 0)
(1.0070313 0.0042520472 0)
(1.006374 0.0038884219 0)
(1.0071014 0.0027822716 0)
(1.00762 0.0021749923 0)
(1.0077174 0.00094062112 0)
(1.0077595 0.00011146128 0)
(1.00785 -0.0010640638 0)
(1.0080833 -0.0020154529 0)
(1.0084683 -0.0030374719 0)
(1.0090429 -0.0038931667 0)
(1.0097748 -0.0045945939 0)
(1.0106242 -0.0050571918 0)
(1.0115156 -0.0052497005 0)
(1.0123675 -0.005163192 0)
(1.0131022 -0.0048156507 0)
(1.0136514 -0.0042581742 0)
(1.0139701 -0.0035610566 0)
(1.0140467 -0.0028003292 0)
(1.0138952 -0.0020483586 0)
(1.0135534 -0.0013620562 0)
(1.0130707 -0.00078204165 0)
(1.0125029 -0.00032933659 0)
(1.0119049 -1.1025483e-05 0)
(1.0113281 0.0001771658 0)
(1.010819 0.00024623946 0)
(1.0104215 0.00021090369 0)
(1.0101794 8.7921751e-05 0)
(0.84508878 -0.00027028603 -5.9670834e-24)
(0.84561117 0.00020258785 -4.0886601e-24)
(0.85441164 0.00042009065 -1.0063069e-23)
(0.86481846 0.00035204211 -3.6805484e-24)
(0.87662763 0.00019453149 1.0046663e-23)
(0.85326726 -0.00049333735 5.9709828e-23)
(0.86518461 -0.0003198942 4.3532336e-23)
(0.87946235 0.00029778288 0)
(0.89562241 0.00096443721 1.4306054e-22)
(0.91309091 0.0014023867 -4.7272183e-23)
(0.93144183 0.0014907558 0)
(0.94913238 0.0018196274 -5.8810878e-22)
(0.96649132 0.0017040696 0)
(0.98096698 0.003382336 0)
(0.99497962 0.0039464052 0)
(1.0039993 0.0049128654 0)
(1.0072157 0.0051555651 0)
(1.0058628 0.0038793236 0)
(1.0055588 0.0033412332 0)
(1.0065149 0.0021321722 0)
(1.0070476 0.0014637901 0)
(1.0072063 0.0001702895 0)
(1.0073381 -0.00069868233 0)
(1.0075284 -0.0019150911 0)
(1.0078858 -0.0029060279 0)
(1.008416 -0.003933355 0)
(1.0091433 -0.0047649999 0)
(1.0100238 -0.0053980337 0)
(1.0109986 -0.0057563994 0)
(1.0119813 -0.0058160741 0)
(1.0128837 -0.0055811749 0)
(1.0136271 -0.0050858906 0)
(1.0141453 -0.004395721 0)
(1.0144064 -0.0035901115 0)
(1.0144076 -0.0027510822 0)
(1.0141768 -0.0019490047 0)
(1.0137585 -0.0012386824 0)
(1.0132091 -0.00065333453 0)
(1.0125863 -0.0002092138 0)
(1.0119457 9.2267724e-05 0)
(1.0113375 0.00025918122 0)
(1.0108067 0.00030510853 0)
(1.0103951 0.00024631747 0)
(1.0101451 9.9743598e-05 0)
(0.84467014 -0.00048017388 3.5780095e-24)
(0.84508917 -9.3777873e-05 5.9751882e-24)
(0.85391735 0.00029119022 1.5529331e-23)
(0.86484851 0.00048910745 3.7970049e-24)
(0.87674019 0.00036402223 -1.1302516e-23)
(0.89015289 0.00022189335 -5.6484048e-24)
(0.85319865 -0.00028192727 -9.4446525e-23)
(0.86543954 0.00018593268 -5.7825531e-23)
(0.88016498 0.00079632652 -1.7301041e-22)
(0.89673778 0.0011157759 5.6861952e-23)
(0.914603 0.001125741 -5.8826527e-22)
(0.93349377 0.0011374878 2.5904702e-22)
(0.95151382 0.0016674092 0)
(0.96899846 0.0019031944 -4.9826073e-22)
(0.98313261 0.003943414 8.54565e-22)