/*--------------------------------*- C++ -*----------------------------------*\
| =========                 |                                                 |
| \\      /  F ield         | OpenFOAM: The Open Source CFD Toolbox           |
|  \\    /   O peration     | Version:  5.0                                   |
|   \\  /    A nd           | Web:      www.OpenFOAM.org                      |
|    \\/     M anipulation  |                                                 |
\*---------------------------------------------------------------------------*/
FoamFile
{
    version     2.0;
    format      ascii;
    class       volSymmTensorField;
    location    "300";
    object      UPrime2Mean;
}
// * * * * * * * * * * * * * * * * * * * * * * * * * * * * * * * * * * * * * //

dimensions      [0 2 -2 0 0 0 0];

internalField   nonuniform List<symmTensor> 
9520
(
(2.7262208e-05 6.5868684e-07 0 2.1417156e-08 0 0)
(2.7593966e-05 1.9348355e-06 0 1.8427257e-07 0 0)
(2.3496084e-05 6.1743115e-07 0 2.1946958e-08 0 0)
(2.8193772e-05 3.1312334e-06 0 4.7999794e-07 0 0)
(2.3838248e-05 1.8159067e-06 0 1.8886169e-07 0 0)
(2.2052489e-05 6.0574588e-07 0 2.2416548e-08 0 0)
(2.9021892e-05 4.2520346e-06 0 8.7947418e-07 0 0)
(2.4461968e-05 2.9454227e-06 0 4.9225001e-07 0 0)
(2.2395817e-05 1.7832124e-06 0 1.9302828e-07 0 0)
(1.9811969e-05 5.8547296e-07 0 2.338109e-08 0 0)
(3.0047107e-05 5.299975e-06 0 1.3572638e-06 0 0)
(2.5329956e-05 4.0123311e-06 0 9.0280322e-07 0 0)
(2.3021711e-05 2.8965046e-06 0 5.0351555e-07 0 0)
(2.0153363e-05 1.725672e-06 0 2.0147674e-07 0 0)
(1.8154348e-05 5.7048589e-07 0 2.4299304e-08 0 0)
(3.1241065e-05 6.2755153e-06 0 1.8914846e-06 0 0)
(2.6414297e-05 5.0207517e-06 0 1.3949906e-06 0 0)
(2.3894863e-05 3.9532752e-06 0 9.2439674e-07 0 0)
(2.0778743e-05 2.8095769e-06 0 5.263121e-07 0 0)
(1.849116e-05 1.6832504e-06 0 2.0957449e-07 0 0)
(1.636802e-05 5.5420282e-07 0 2.5535786e-08 0 0)
(3.2575564e-05 7.1784666e-06 0 2.4636612e-06 0 0)
(2.7689871e-05 5.9720818e-06 0 1.9468482e-06 0 0)
(2.4988986e-05 4.9584643e-06 0 1.430023e-06 0 0)
(2.1654966e-05 3.8467445e-06 0 9.6808805e-07 0 0)
(1.9109721e-05 2.7458009e-06 0 5.4824943e-07 0 0)
(1.6695179e-05 1.6370202e-06 0 2.2047726e-07 0 0)
(1.4827083e-05 5.3781783e-07 0 2.6682544e-08 0 0)
(3.4022621e-05 8.0077076e-06 0 3.0583991e-06 0 0)
(2.9131762e-05 6.8666428e-06 0 2.5399934e-06 0 0)
(2.6280508e-05 5.9139006e-06 0 1.9981928e-06 0 0)
(2.275828e-05 4.8438493e-06 0 1.5011584e-06 0 0)
(1.9978992e-05 3.7694162e-06 0 1.01033e-06 0 0)
(1.7297475e-05 2.6762312e-06 0 5.7787447e-07 0 0)
(1.5144242e-05 1.5902981e-06 0 2.3061445e-07 0 0)
(1.3301562e-05 5.2016867e-07 0 2.8012288e-08 0 0)
(3.5554039e-05 8.7617727e-06 0 3.6638438e-06 0 0)
(3.0715365e-05 7.7031989e-06 0 3.1592775e-06 0 0)
(2.7746042e-05 6.8201061e-06 0 2.6099932e-06 0 0)
(2.406767e-05 5.8038721e-06 0 2.1035111e-06 0 0)
(2.1077688e-05 4.762249e-06 0 1.5701404e-06 0 0)
(1.8146471e-05 3.685078e-06 0 1.0676544e-06 0 0)
(1.5729249e-05 2.6049891e-06 0 6.0553359e-07 0 0)
(1.3603678e-05 1.5398367e-06 0 2.4236694e-07 0 0)
(1.1940586e-05 5.0013416e-07 0 2.9227502e-08 0 0)
(3.7142859e-05 9.4400182e-06 0 4.2698413e-06 0 0)
(3.2414491e-05 8.4795255e-06 0 3.7916344e-06 0 0)
(2.9361808e-05 7.6761362e-06 0 3.2493277e-06 0 0)
(2.5562303e-05 6.7280638e-06 0 2.756435e-06 0 0)
(2.2387056e-05 5.7281477e-06 0 2.2056632e-06 0 0)
(1.9223311e-05 4.6731966e-06 0 1.6643771e-06 0 0)
(1.6555722e-05 3.5968574e-06 0 1.1214474e-06 0 0)
(1.4161516e-05 2.5273295e-06 0 6.3765004e-07 0 0)
(1.2227887e-05 1.4822034e-06 0 2.5311361e-07 0 0)
(1.0638716e-05 4.7770184e-07 0 3.0515769e-08 0 0)
(3.8762652e-05 1.0038433e-05 0 4.8709636e-06 0 0)
(3.4203901e-05 9.1927834e-06 0 4.4258571e-06 0 0)
(3.1104261e-05 8.4807092e-06 0 3.9046585e-06 0 0)
(2.7221075e-05 7.6156326e-06 0 3.4439695e-06 0 0)
(2.3887936e-05 6.6689129e-06 0 2.8981158e-06 0 0)
(2.0512102e-05 5.6456753e-06 0 2.346344e-06 0 0)
(1.7607027e-05 4.5767305e-06 0 1.7533244e-06 0 0)
(1.4951849e-05 3.4990815e-06 0 1.1840346e-06 0 0)
(1.2759323e-05 2.4373073e-06 0 6.6711133e-07 0 0)
(1.0907555e-05 1.4172356e-06 0 2.6454634e-07 0 0)
(9.4772121e-06 4.5268575e-07 0 3.1637731e-08 0 0)
(4.0390454e-05 1.0565008e-05 0 5.4615196e-06 0 0)
(3.6060027e-05 9.8391843e-06 0 5.0580996e-06 0 0)
(3.2949904e-05 9.2316791e-06 0 4.5652693e-06 0 0)
(2.9021203e-05 8.4642563e-06 0 4.1524271e-06 0 0)
(2.5560068e-05 7.5841093e-06 0 3.6314732e-06 0 0)
(2.1996328e-05 6.6052433e-06 0 3.0950383e-06 0 0)
(1.8869542e-05 5.5508203e-06 0 2.4797848e-06 0 0)
(1.5960435e-05 4.4669355e-06 0 1.8570954e-06 0 0)
(1.3514164e-05 3.3830521e-06 0 1.2417562e-06 0 0)
(1.1405662e-05 2.334575e-06 0 6.9860719e-07 0 0)
(9.7282405e-06 1.3442091e-06 0 2.7454221e-07 0 0)
(8.3931752e-06 4.2571384e-07 0 3.2709457e-08 0 0)
(4.2009166e-05 1.1012787e-05 0 6.0610448e-06 0 0)
(3.7989429e-05 1.0425957e-05 0 5.68136e-06 0 0)
(3.4873053e-05 9.9259973e-06 0 5.2250913e-06 0 0)
(3.0940218e-05 9.2727698e-06 0 4.8709932e-06 0 0)
(2.7381321e-05 8.472499e-06 0 4.392576e-06 0 0)
(2.3658225e-05 7.5519788e-06 0 3.8944727e-06 0 0)
(2.0328672e-05 6.5225877e-06 0 3.2825659e-06 0 0)
(1.7176065e-05 5.4383547e-06 0 2.6361471e-06 0 0)
(1.4480046e-05 4.3322046e-06 0 1.9534169e-06 0 0)
(1.2115179e-05 3.2479854e-06 0 1.3037418e-06 0 0)
(1.0194475e-05 2.2176635e-06 0 7.2630314e-07 0 0)
(8.6247914e-06 1.2649013e-06 0 2.8417026e-07 0 0)
(7.4351225e-06 3.9746036e-07 0 3.3533782e-08 0 0)
(4.3600879e-05 1.139024e-05 0 6.6243817e-06 0 0)
(3.9948758e-05 1.0926001e-05 0 6.2973183e-06 0 0)
(3.6847262e-05 1.0561043e-05 0 5.8754562e-06 0 0)
(3.2970504e-05 1.0040618e-05 0 5.5921397e-06 0 0)
(2.9330633e-05 9.3332768e-06 0 5.1709023e-06 0 0)
(2.5478541e-05 8.4846653e-06 0 4.7313772e-06 0 0)
(2.1968444e-05 7.4927674e-06 0 4.1460198e-06 0 0)
(1.858674e-05 6.4179208e-06 0 3.5034493e-06 0 0)
(1.56474e-05 5.2931754e-06 0 2.7821916e-06 0 0)
(1.302604e-05 4.1710391e-06 0 2.0572014e-06 0 0)
(1.0860407e-05 3.0917006e-06 0 1.3587347e-06 0 0)
(9.0560765e-06 2.0894065e-06 0 7.5326685e-07 0 0)
(7.6489474e-06 1.1813619e-06 0 2.916457e-07 0 0)
(6.5582972e-06 3.6833705e-07 0 3.4204402e-08 0 0)
(4.5144846e-05 1.1665035e-05 0 7.2382091e-06 0 0)
(4.1868199e-05 1.1374373e-05 0 6.907229e-06 0 0)
(3.883422e-05 1.1136505e-05 0 6.5355322e-06 0 0)
(3.5093801e-05 1.0768594e-05 0 6.3054395e-06 0 0)
(3.1374782e-05 1.0162669e-05 0 5.9596314e-06 0 0)
(2.743974e-05 9.4021951e-06 0 5.5945151e-06 0 0)
(2.3770851e-05 8.4604891e-06 0 5.0572079e-06 0 0)
(2.0179787e-05 7.4072643e-06 0 4.4435557e-06 0 0)
(1.7005504e-05 6.2712331e-06 0 3.7109947e-06 0 0)
(1.4129898e-05 5.1127664e-06 0 2.9401122e-06 0 0)
(1.171782e-05 3.9806524e-06 0 2.1502852e-06 0 0)
(9.6738536e-06 2.9177932e-06 0 1.4128309e-06 0 0)
(8.0479757e-06 1.9531192e-06 0 7.7449218e-07 0 0)
(6.7542882e-06 1.0948825e-06 0 2.9782538e-07 0 0)
(5.7914081e-06 3.389825e-07 0 3.4590911e-08 0 0)
(4.663571e-05 1.1903371e-05 0 7.7839023e-06 0 0)
(4.3820482e-05 1.1732094e-05 0 7.5591105e-06 0 0)
(4.0847799e-05 1.1663871e-05 0 7.1749432e-06 0 0)
(3.7233655e-05 1.1432475e-05 0 7.0185503e-06 0 0)
(3.3503177e-05 1.0961797e-05 0 6.7528696e-06 0 0)
(2.9531486e-05 1.030129e-05 0 6.4745955e-06 0 0)
(2.5714473e-05 9.4217478e-06 0 6.0057438e-06 0 0)
(2.194149e-05 8.4059657e-06 0 5.4432771e-06 0 0)
(1.8542308e-05 7.2686076e-06 0 4.7248318e-06 0 0)
(1.5418431e-05 6.0793994e-06 0 3.936297e-06 0 0)
(1.2760069e-05 4.8940803e-06 0 3.0833366e-06 0 0)
(1.0471995e-05 3.7648136e-06 0 2.2426365e-06 0 0)
(8.6207718e-06 2.7309394e-06 0 1.4561933e-06 0 0)
(7.1206575e-06 1.8109881e-06 0 7.9246377e-07 0 0)
(5.9718557e-06 1.0075636e-06 0 3.0149649e-07 0 0)
(5.1022811e-06 3.0924791e-07 0 3.4786083e-08 0 0)
(4.8052185e-05 1.1989262e-05 0 8.4845721e-06 0 0)
(4.5772115e-05 1.2071366e-05 0 8.1823846e-06 0 0)
(4.2912254e-05 1.2112281e-05 0 7.8565582e-06 0 0)
(3.9373719e-05 1.2047429e-05 0 7.7313587e-06 0 0)
(3.5679506e-05 1.1713206e-05 0 7.5620789e-06 0 0)
(3.171694e-05 1.1177772e-05 0 7.3718386e-06 0 0)
(2.7784404e-05 1.0373754e-05 0 6.9862362e-06 0 0)
(2.3860655e-05 9.4123864e-06 0 6.4910619e-06 0 0)
(2.0243579e-05 8.2851196e-06 0 5.8103959e-06 0 0)
(1.6882289e-05 7.0743599e-06 0 5.0313282e-06 0 0)
(1.3979612e-05 5.8384635e-06 0 4.1428132e-06 0 0)
(1.1445439e-05 4.6402597e-06 0 3.2265179e-06 0 0)
(9.3628633e-06 3.5296634e-06 0 2.3182728e-06 0 0)
(7.6480951e-06 2.5341549e-06 0 1.4937931e-06 0 0)
(6.3094386e-06 1.6667386e-06 0 8.0365634e-07 0 0)
(5.267811e-06 9.189545e-07 0 3.0351134e-07 0 0)
(4.507268e-06 2.7964387e-07 0 3.4716746e-08 0 0)
(4.9377995e-05 1.2137919e-05 0 9.1450568e-06 0 0)
(4.7772009e-05 1.2224582e-05 0 8.9661035e-06 0 0)
(4.5007822e-05 1.2524582e-05 0 8.5037656e-06 0 0)
(4.1575095e-05 1.2601731e-05 0 8.5060639e-06 0 0)
(3.7899002e-05 1.2418653e-05 0 8.3837854e-06 0 0)
(3.3969811e-05 1.2006615e-05 0 8.2933543e-06 0 0)
(2.9975444e-05 1.1313513e-05 0 7.9940798e-06 0 0)
(2.5919575e-05 1.0422447e-05 0 7.5793724e-06 0 0)
(2.2094685e-05 9.3191792e-06 0 6.9566492e-06 0 0)
(1.8510603e-05 8.0991794e-06 0 6.21203e-06 0 0)
(1.5366897e-05 6.8172742e-06 0 5.3152384e-06 0 0)
(1.2588464e-05 5.551087e-06 0 4.3508302e-06 0 0)
(1.0271069e-05 4.3592652e-06 0 3.3463824e-06 0 0)
(8.3337675e-06 3.278903e-06 0 2.3853028e-06 0 0)
(6.7962723e-06 2.3329664e-06 0 1.5184642e-06 0 0)
(5.5776373e-06 1.5195827e-06 0 8.1054467e-07 0 0)
(4.6602595e-06 8.3074151e-07 0 3.0317312e-07 0 0)
(3.9843213e-06 2.4994162e-07 0 3.4454651e-08 0 0)
(5.0601627e-05 1.1916108e-05 0 1.0031434e-05 0 0)
(4.9784779e-05 1.2481585e-05 0 9.7836714e-06 0 0)
(4.7172509e-05 1.2777854e-05 0 9.3602541e-06 0 0)
(4.3826744e-05 1.3111437e-05 0 9.2716304e-06 0 0)
(4.0215505e-05 1.3062644e-05 0 9.2779796e-06 0 0)
(3.6282085e-05 1.2791874e-05 0 9.2517293e-06 0 0)
(3.2263217e-05 1.2216841e-05 0 9.040327e-06 0 0)
(2.81076e-05 1.1430259e-05 0 8.7050766e-06 0 0)
(2.4088131e-05 1.0370281e-05 0 8.155049e-06 0 0)
(2.0290149e-05 9.1536035e-06 0 7.4662595e-06 0 0)
(1.6909387e-05 7.8317527e-06 0 6.5881757e-06 0 0)
(1.3893791e-05 6.5014827e-06 0 5.6033494e-06 0 0)
(1.13411e-05 5.2269235e-06 0 4.5284012e-06 0 0)
(9.176259e-06 4.0553661e-06 0 3.4545584e-06 0 0)
(7.4306818e-06 3.0200262e-06 0 2.431678e-06 0 0)
(6.0258063e-06 2.1262337e-06 0 1.535248e-06 0 0)
(4.9467411e-06 1.3727173e-06 0 8.1099247e-07 0 0)
(4.1256846e-06 7.4205486e-07 0 3.011612e-07 0 0)
(3.5410445e-06 2.2081538e-07 0 3.3959299e-08 0 0)
(5.1481629e-05 1.2026847e-05 0 1.1155789e-05 0 0)
(5.2119756e-05 1.2147487e-05 0 1.0930981e-05 0 0)
(4.9473564e-05 1.3089881e-05 0 1.0245392e-05 0 0)
(4.6216173e-05 1.3492989e-05 0 1.0311059e-05 0 0)
(4.2598764e-05 1.3643418e-05 0 1.020907e-05 0 0)
(3.873827e-05 1.3517173e-05 0 1.030601e-05 0 0)
(3.4637131e-05 1.3080673e-05 0 1.0140841e-05 0 0)
(3.0409838e-05 1.2416981e-05 0 9.8782061e-06 0 0)
(2.6216228e-05 1.1435061e-05 0 9.400406e-06 0 0)
(2.2206619e-05 1.0236346e-05 0 8.7850737e-06 0 0)
(1.859481e-05 8.8824365e-06 0 7.9504894e-06 0 0)
(1.5351606e-05 7.493524e-06 0 6.9726902e-06 0 0)
(1.2566568e-05 6.1367315e-06 0 5.8534128e-06 0 0)
(1.0172836e-05 4.8711118e-06 0 4.6911722e-06 0 0)
(8.2125487e-06 3.7380534e-06 0 3.5331317e-06 0 0)
(6.6117532e-06 2.7517114e-06 0 2.4657851e-06 0 0)
(5.3619508e-06 1.9189714e-06 0 1.5396023e-06 0 0)
(4.3906921e-06 1.2243822e-06 0 8.070316e-07 0 0)
(3.6730914e-06 6.5502908e-07 0 2.9707892e-07 0 0)
(3.1622631e-06 1.9234044e-07 0 3.3275079e-08 0 0)
(5.2254681e-05 1.111962e-05 0 1.2319723e-05 0 0)
(5.4455339e-05 1.2700714e-05 0 1.2645033e-05 0 0)
(5.2249092e-05 1.2846578e-05 0 1.166784e-05 0 0)
(4.8852747e-05 1.3852247e-05 0 1.1443994e-05 0 0)
(4.5246604e-05 1.4106678e-05 0 1.1504493e-05 0 0)
(4.1324187e-05 1.4165344e-05 0 1.1459026e-05 0 0)
(3.719421e-05 1.3890108e-05 0 1.1364747e-05 0 0)
(3.2810409e-05 1.3370753e-05 0 1.1117382e-05 0 0)
(2.8466945e-05 1.2500191e-05 0 1.0700791e-05 0 0)
(2.4248248e-05 1.1346254e-05 0 1.0162534e-05 0 0)
(2.0410342e-05 9.9699608e-06 0 9.3943158e-06 0 0)
(1.6949057e-05 8.5271294e-06 0 8.4487233e-06 0 0)
(1.393847e-05 7.0902534e-06 0 7.3110148e-06 0 0)
(1.1319117e-05 5.7308627e-06 0 6.0856102e-06 0 0)
(9.1403905e-06 4.4949862e-06 0 4.8143676e-06 0 0)
(7.3362931e-06 3.4061471e-06 0 3.5943982e-06 0 0)
(5.9059667e-06 2.4809934e-06 0 2.479703e-06 0 0)
(4.77608e-06 1.7082894e-06 0 1.535768e-06 0 0)
(3.9211897e-06 1.0785916e-06 0 7.9736518e-07 0 0)
(3.2862061e-06 5.696265e-07 0 2.9135476e-07 0 0)
(2.8487179e-06 1.6528847e-07 0 3.2388675e-08 0 0)
(5.1356439e-05 1.1227242e-05 0 1.4627719e-05 0 0)
(5.74573e-05 1.0929719e-05 0 1.4599608e-05 0 0)
(5.5191532e-05 1.3330459e-05 0 1.3752565e-05 0 0)
(5.2208293e-05 1.3770761e-05 0 1.3449473e-05 0 0)
(4.8326289e-05 1.4498126e-05 0 1.3048823e-05 0 0)
(4.4338081e-05 1.4679443e-05 0 1.3079295e-05 0 0)
(4.0011014e-05 1.4619597e-05 0 1.2747255e-05 0 0)
(3.5413571e-05 1.4282708e-05 0 1.2507649e-05 0 0)
(3.0825648e-05 1.3547728e-05 0 1.2076695e-05 0 0)
(2.6408894e-05 1.2474623e-05 0 1.1605966e-05 0 0)
(2.234437e-05 1.1094662e-05 0 1.0914365e-05 0 0)
(1.8671892e-05 9.6010693e-06 0 1.0025186e-05 0 0)
(1.5446715e-05 8.0870299e-06 0 8.892857e-06 0 0)
(1.2608823e-05 6.6366907e-06 0 7.6284947e-06 0 0)
(1.0211248e-05 5.296087e-06 0 6.267226e-06 0 0)
(8.1988406e-06 4.0978651e-06 0 4.9147914e-06 0 0)
(6.5798629e-06 3.0684814e-06 0 3.6262357e-06 0 0)
(5.2826488e-06 2.203916e-06 0 2.4807148e-06 0 0)
(4.2828832e-06 1.5005838e-06 0 1.5207829e-06 0 0)
(3.5197981e-06 9.347772e-07 0 7.8332323e-07 0 0)
(2.9668112e-06 4.8833317e-07 0 2.8382936e-07 0 0)
(2.5892621e-06 1.3990799e-07 0 3.133136e-08 0 0)
(4.8965372e-05 8.5829692e-06 0 1.5963905e-05 0 0)
(5.8888124e-05 1.2489249e-05 0 1.8676627e-05 0 0)
(5.9725071e-05 1.13894e-05 0 1.6706498e-05 0 0)
(5.6241873e-05 1.4124603e-05 0 1.6289725e-05 0 0)
(5.2415414e-05 1.4444366e-05 0 1.580623e-05 0 0)
(4.8063949e-05 1.5077127e-05 0 1.5156391e-05 0 0)
(4.339554e-05 1.5200267e-05 0 1.4715047e-05 0 0)
(3.838774e-05 1.5124421e-05 0 1.4105584e-05 0 0)
(3.3385537e-05 1.4566814e-05 0 1.3625156e-05 0 0)
(2.868122e-05 1.3602443e-05 0 1.3139254e-05 0 0)
(2.4391046e-05 1.2249505e-05 0 1.2521633e-05 0 0)
(2.0509153e-05 1.0714439e-05 0 1.1700232e-05 0 0)
(1.7080998e-05 9.1253457e-06 0 1.0593642e-05 0 0)
(1.4034289e-05 7.5879198e-06 0 9.3117792e-06 0 0)
(1.1420504e-05 6.1439871e-06 0 7.8828811e-06 0 0)
(9.1974078e-06 4.8329816e-06 0 6.4204417e-06 0 0)
(7.3836713e-06 3.6899236e-06 0 4.9754325e-06 0 0)
(5.9117619e-06 2.7203964e-06 0 3.6396672e-06 0 0)
(4.7592614e-06 1.9294772e-06 0 2.463375e-06 0 0)
(3.8616896e-06 1.2943565e-06 0 1.4974993e-06 0 0)
(3.1903705e-06 7.9768057e-07 0 7.6427193e-07 0 0)
(2.7029883e-06 4.1174491e-07 0 2.7479988e-07 0 0)
(2.3801104e-06 1.1675074e-07 0 3.011786e-08 0 0)
(4.5154084e-05 7.6205935e-06 0 2.0609822e-05 0 0)
(6.1371006e-05 7.0564182e-06 0 2.2004223e-05 0 0)
(6.3114132e-05 1.3086595e-05 0 2.2420466e-05 0 0)
(6.2708373e-05 1.2188828e-05 0 2.1054449e-05 0 0)
(5.7965105e-05 1.4617414e-05 0 1.9863861e-05 0 0)
(5.3217572e-05 1.5006029e-05 0 1.890025e-05 0 0)
(4.7826046e-05 1.5628479e-05 0 1.7371253e-05 0 0)
(4.2073571e-05 1.5827791e-05 0 1.6401284e-05 0 0)
(3.6386641e-05 1.554082e-05 0 1.5428834e-05 0 0)
(3.1146119e-05 1.4712939e-05 0 1.4872507e-05 0 0)
(2.6550947e-05 1.3413734e-05 0 1.4247919e-05 0 0)
(2.2458761e-05 1.1860084e-05 0 1.3491653e-05 0 0)
(1.8834101e-05 1.0201474e-05 0 1.2415916e-05 0 0)
(1.5588835e-05 8.5811819e-06 0 1.1130095e-05 0 0)
(1.276327e-05 7.0387178e-06 0 9.6532365e-06 0 0)
(1.0328731e-05 5.615419e-06 0 8.1034154e-06 0 0)
(8.3159766e-06 4.352205e-06 0 6.522809e-06 0 0)
(6.6635962e-06 3.2660648e-06 0 5.0117177e-06 0 0)
(5.3516417e-06 2.3732446e-06 0 3.6259737e-06 0 0)
(4.3135041e-06 1.6551042e-06 0 2.4326529e-06 0 0)
(3.5185518e-06 1.0972759e-06 0 1.4642706e-06 0 0)
(2.9192055e-06 6.6778698e-07 0 7.4111312e-07 0 0)
(2.4915442e-06 3.4173182e-07 0 2.6435577e-07 0 0)
(2.2126958e-06 9.5953491e-08 0 2.8781177e-08 0 0)
(4.6182565e-05 4.8756946e-06 0 2.2502653e-05 0 0)
(6.2240132e-05 7.8522326e-06 0 3.0332418e-05 0 0)
(6.9324822e-05 6.2045011e-06 0 2.9004005e-05 0 0)
(6.9595827e-05 1.3567117e-05 0 2.9303389e-05 0 0)
(6.7057243e-05 1.256886e-05 0 2.7073044e-05 0 0)
(6.0883623e-05 1.492294e-05 0 2.4548019e-05 0 0)
(5.4227369e-05 1.5581084e-05 0 2.2189832e-05 0 0)
(4.7125968e-05 1.6360879e-05 0 1.9629052e-05 0 0)
(4.0223176e-05 1.6399131e-05 0 1.8030641e-05 0 0)
(3.4090819e-05 1.5806969e-05 0 1.6920072e-05 0 0)
(2.8914275e-05 1.4565478e-05 0 1.6214857e-05 0 0)
(2.4531882e-05 1.3011385e-05 0 1.5440425e-05 0 0)
(2.0710608e-05 1.130634e-05 0 1.4382446e-05 0 0)
(1.7270565e-05 9.6104323e-06 0 1.3087601e-05 0 0)
(1.423684e-05 7.977673e-06 0 1.1571795e-05 0 0)
(1.1589276e-05 6.4469306e-06 0 9.954977e-06 0 0)
(9.3736152e-06 5.0605907e-06 0 8.2615894e-06 0 0)
(7.5366599e-06 3.8483368e-06 0 6.5950314e-06 0 0)
(6.0605038e-06 2.8397035e-06 0 5.010901e-06 0 0)
(4.8769321e-06 2.0236565e-06 0 3.5927566e-06 0 0)
(3.9532845e-06 1.3918226e-06 0 2.3852188e-06 0 0)
(3.2378513e-06 9.0923818e-07 0 1.4230341e-06 0 0)
(2.7044026e-06 5.4893503e-07 0 7.1392443e-07 0 0)
(2.3233279e-06 2.7868868e-07 0 2.5278598e-07 0 0)
(2.0814338e-06 7.7679535e-08 0 2.7351184e-08 0 0)
(4.6153542e-05 3.4500332e-06 0 3.0921343e-05 0 0)
(7.2887477e-05 -2.0916143e-07 0 3.6750554e-05 0 0)
(7.4605716e-05 6.6826483e-06 0 4.1453045e-05 0 0)
(8.0950223e-05 5.5464205e-06 0 4.1316519e-05 0 0)
(7.9109293e-05 1.3241127e-05 0 3.9065954e-05 0 0)
(7.3394338e-05 1.2641692e-05 0 3.4934979e-05 0 0)
(6.429656e-05 1.5301854e-05 0 2.9670377e-05 0 0)
(5.4722796e-05 1.6432361e-05 0 2.5540779e-05 0 0)
(4.5723934e-05 1.709105e-05 0 2.1812299e-05 0 0)
(3.7972637e-05 1.681363e-05 0 1.9880752e-05 0 0)
(3.1784616e-05 1.5716403e-05 0 1.8590042e-05 0 0)
(2.6844411e-05 1.4142898e-05 0 1.7688868e-05 0 0)
(2.273493e-05 1.2405718e-05 0 1.6545062e-05 0 0)
(1.9094472e-05 1.0665095e-05 0 1.5207446e-05 0 0)
(1.5844515e-05 8.9544656e-06 0 1.3640157e-05 0 0)
(1.2978041e-05 7.3265343e-06 0 1.1966322e-05 0 0)
(1.0553095e-05 5.8189379e-06 0 1.0183116e-05 0 0)
(8.5273871e-06 4.4737598e-06 0 8.3849902e-06 0 0)
(6.8843263e-06 3.336328e-06 0 6.6195344e-06 0 0)
(5.5524621e-06 2.4068195e-06 0 4.9836552e-06 0 0)
(4.4965496e-06 1.6860604e-06 0 3.5342785e-06 0 0)
(3.6616007e-06 1.1387268e-06 0 2.3244403e-06 0 0)
(3.0190807e-06 7.3692219e-07 0 1.3735883e-06 0 0)
(2.5354009e-06 4.4141876e-07 0 6.8354014e-07 0 0)
(2.1928787e-06 2.2328471e-07 0 2.403467e-07 0 0)
(1.9798744e-06 6.1856479e-08 0 2.5859158e-08 0 0)
(5.2361497e-05 -1.2074399e-05 0 3.3068047e-05 0 0)
(7.921929e-05 3.2187127e-06 0 5.379268e-05 0 0)
(9.3625795e-05 -4.9954012e-06 0 5.6454257e-05 0 0)
(9.366689e-05 4.7123355e-06 0 6.0423518e-05 0 0)
(9.7739724e-05 4.0855008e-06 0 5.8432873e-05 0 0)
(9.2269971e-05 1.2111308e-05 0 5.1761549e-05 0 0)
(8.0837855e-05 1.2917737e-05 0 4.3692369e-05 0 0)
(6.7160615e-05 1.6098126e-05 0 3.5004366e-05 0 0)
(5.4356645e-05 1.7338768e-05 0 2.8792641e-05 0 0)
(4.3806951e-05 1.7684123e-05 0 2.4287614e-05 0 0)
(3.5690069e-05 1.6794656e-05 0 2.2038515e-05 0 0)
(2.9709154e-05 1.526202e-05 0 2.0458233e-05 0 0)
(2.5045123e-05 1.3467659e-05 0 1.906456e-05 0 0)
(2.1096155e-05 1.1706256e-05 0 1.7549292e-05 0 0)
(1.7609842e-05 9.9589762e-06 0 1.5879706e-05 0 0)
(1.4501426e-05 8.250434e-06 0 1.4134367e-05 0 0)
(1.1852821e-05 6.6292739e-06 0 1.227681e-05 0 0)
(9.6310447e-06 5.1483413e-06 0 1.0373969e-05 0 0)
(7.8188776e-06 3.87048e-06 0 8.4502665e-06 0 0)
(6.3383803e-06 2.8117139e-06 0 6.6105759e-06 0 0)
(5.1493614e-06 1.9855252e-06 0 4.9209238e-06 0 0)
(4.1933464e-06 1.3590416e-06 0 3.4555748e-06 0 0)
(3.4388467e-06 9.0602507e-07 0 2.2494212e-06 0 0)
(2.8499806e-06 5.8002745e-07 0 1.3175891e-06 0 0)
(2.4071924e-06 3.4695189e-07 0 6.5057447e-07 0 0)
(2.0932661e-06 1.7532139e-07 0 2.2732258e-07 0 0)
(1.9027999e-06 4.8350511e-08 0 2.4333913e-08 0 0)
(8.4560597e-05 -2.90546e-05 0 4.6233804e-05 0 0)
(0.00011265158 -3.1053998e-05 0 6.1838327e-05 0 0)
(0.00010743792 1.7243234e-06 0 8.3249923e-05 0 0)
(0.00012505715 -9.5358713e-06 0 8.7590005e-05 0 0)
(0.00012196178 1.0194844e-06 0 8.795754e-05 0 0)
(0.00012074227 1.6545715e-06 0 8.0571218e-05 0 0)
(0.00010754039 1.1219666e-05 0 6.6296602e-05 0 0)
(8.7890654e-05 1.3792957e-05 0 5.2992002e-05 0 0)
(6.9008968e-05 1.7059566e-05 0 4.029049e-05 0 0)
(5.3363306e-05 1.8148829e-05 0 3.244133e-05 0 0)
(4.1818394e-05 1.7763476e-05 0 2.7274067e-05 0 0)
(3.3736884e-05 1.6289345e-05 0 2.44932e-05 0 0)
(2.7986964e-05 1.448904e-05 0 2.22094e-05 0 0)
(2.3432368e-05 1.2694739e-05 0 2.0278073e-05 0 0)
(1.9578117e-05 1.0953227e-05 0 1.8348388e-05 0 0)
(1.6187273e-05 9.2112751e-06 0 1.6474972e-05 0 0)
(1.3278763e-05 7.4919731e-06 0 1.4536287e-05 0 0)
(1.0843917e-05 5.8770809e-06 0 1.2551259e-05 0 0)
(8.8580613e-06 4.4494659e-06 0 1.0498148e-05 0 0)
(7.2300518e-06 3.2459093e-06 0 8.4759125e-06 0 0)
(5.9103145e-06 2.296359e-06 0 6.5545602e-06 0 0)
(4.834458e-06 1.5739377e-06 0 4.8296398e-06 0 0)
(3.9673894e-06 1.0566874e-06 0 3.3545391e-06 0 0)
(3.2714043e-06 6.9256991e-07 0 2.1629406e-06 0 0)
(2.7261793e-06 4.4232869e-07 0 1.2560281e-06 0 0)
(2.3118213e-06 2.6503358e-07 0 6.1582404e-07 0 0)
(2.0191601e-06 1.3450721e-07 0 2.1396971e-07 0 0)
(1.8454611e-06 3.6958118e-08 0 2.2801113e-08 0 0)
(0.00015662851 -4.5067218e-05 0 5.0533193e-05 0 0)
(0.00016515418 -5.6633399e-05 0 9.1875149e-05 0 0)
(0.00015828322 -5.0864133e-05 0 0.00010897899 0 0)
(0.00015435533 -7.1709042e-08 0 0.00013077024 0 0)
(0.00017015213 -1.5159531e-05 0 0.00013083091 0 0)
(0.00016068469 -4.6258554e-06 0 0.00012409002 0 0)
(0.0001481971 -2.8497606e-07 0 0.00010598557 0 0)
(0.00012263535 1.1156405e-05 0 8.2180391e-05 0 0)
(9.3991104e-05 1.4894544e-05 0 6.2304771e-05 0 0)
(7.0125185e-05 1.8069993e-05 0 4.6142481e-05 0 0)
(5.2253711e-05 1.8356145e-05 0 3.6907784e-05 0 0)
(4.0264587e-05 1.7187428e-05 0 3.0706851e-05 0 0)
(3.2257581e-05 1.5377328e-05 0 2.6794634e-05 0 0)
(2.6494093e-05 1.3617453e-05 0 2.370016e-05 0 0)
(2.1910165e-05 1.1893924e-05 0 2.120839e-05 0 0)
(1.8087563e-05 1.0178536e-05 0 1.9037788e-05 0 0)
(1.4857646e-05 8.4048058e-06 0 1.6969167e-05 0 0)
(1.2168813e-05 6.6650969e-06 0 1.4908654e-05 0 0)
(9.9952235e-06 5.0804292e-06 0 1.2754895e-05 0 0)
(8.2204016e-06 3.7173477e-06 0 1.0578757e-05 0 0)
(6.7748601e-06 2.6256622e-06 0 8.4422576e-06 0 0)
(5.5839294e-06 1.7883244e-06 0 6.4604968e-06 0 0)
(4.6069572e-06 1.1908427e-06 0 4.7056445e-06 0 0)
(3.8048569e-06 7.7728127e-07 0 3.2351798e-06 0 0)
(3.1550176e-06 5.0507495e-07 0 2.0662976e-06 0 0)
(2.6382884e-06 3.2250864e-07 0 1.1904394e-06 0 0)
(2.2438743e-06 1.9555057e-07 0 5.7997574e-07 0 0)
(1.9654944e-06 1.0024602e-07 0 2.0052602e-07 0 0)
(1.8038847e-06 2.7467517e-08 0 2.1282444e-08 0 0)
(0.0002856433 -6.2400749e-05 0 6.4430623e-05 0 0)
(0.00024741168 -9.0584663e-05 0 0.0001123885 0 0)
(0.00023064575 -9.1338099e-05 0 0.00015731321 0 0)
(0.0002255221 -6.9561937e-05 0 0.00018266338 0 0)
(0.00022726823 -3.0110875e-06 0 0.00020060296 0 0)
(0.00023130965 -2.3157475e-05 0 0.00018716896 0 0)
(0.00020730977 -9.6591957e-06 0 0.00016663803 0 0)
(0.00017681554 -1.1615732e-06 0 0.00013423575 0 0)
(0.00013693104 1.1502757e-05 0 9.8493088e-05 0 0)
(9.9411274e-05 1.6212102e-05 0 7.2370514e-05 0 0)
(7.1049294e-05 1.8440912e-05 0 5.328378e-05 0 0)
(5.1713062e-05 1.766839e-05 0 4.2036687e-05 0 0)
(3.9354928e-05 1.6082397e-05 0 3.3923969e-05 0 0)
(3.1056956e-05 1.4372453e-05 0 2.867462e-05 0 0)
(2.5042714e-05 1.2761933e-05 0 2.4784709e-05 0 0)
(2.035543e-05 1.1109601e-05 0 2.1977307e-05 0 0)
(1.664445e-05 9.3491288e-06 0 1.9618147e-05 0 0)
(1.362672e-05 7.516034e-06 0 1.7449658e-05 0 0)
(1.1229001e-05 5.7717401e-06 0 1.5214261e-05 0 0)
(9.3015768e-06 4.2345554e-06 0 1.2915064e-05 0 0)
(7.7360174e-06 2.9810461e-06 0 1.0588224e-05 0 0)
(6.4379175e-06 2.0084015e-06 0 8.3602898e-06 0 0)
(5.357524e-06 1.3115462e-06 0 6.3209435e-06 0 0)
(4.4534561e-06 8.337746e-07 0 4.5542557e-06 0 0)
(3.7000689e-06 5.3095976e-07 0 3.0989325e-06 0 0)
(3.0790468e-06 3.4104006e-07 0 1.9620382e-06 0 0)
(2.5806884e-06 2.2133375e-07 0 1.1221348e-06 0 0)
(2.1976295e-06 1.3743353e-07 0 5.4367586e-07 0 0)
(1.9280012e-06 7.1912739e-08 0 1.8718807e-07 0 0)
(1.7747154e-06 1.9666247e-08 0 1.9793938e-08 0 0)
(0.00049954288 -7.7407286e-05 -3.8146423e-26 7.3847383e-05 8.2420579e-26 1.6314398e-46)
(0.00038761873 -0.0001172592 0 0.00014843755 0 0)
(0.0003250205 -0.0001449128 0 0.00020598146 0 0)
(0.00032429568 -0.0001314852 0 0.00025622677 0 0)
(0.00032410646 -8.6704853e-05 0 0.00028787487 0 0)
(0.00033108701 -8.1199713e-06 0 0.00029350701 0 0)
(0.00030569187 -3.1092392e-05 0 0.00025475218 0 0)
(0.00025748229 -1.3504354e-05 0 0.00021455593 0 0)
(0.00020570814 -1.5393441e-06 0 0.00016363794 0 0)
(0.00015066894 1.2614205e-05 0 0.00011605376 0 0)
(0.00010453982 1.6823813e-05 0 8.4404695e-05 0 0)
(7.268499e-05 1.7592513e-05 0 6.1417873e-05 0 0)
(5.1997847e-05 1.6291562e-05 0 4.6815245e-05 0 0)
(3.8770743e-05 1.4899537e-05 0 3.647118e-05 0 0)
(2.981523e-05 1.345728e-05 0 2.9957e-05 0 0)
(2.345876e-05 1.1985226e-05 0 2.562156e-05 0 0)
(1.8781059e-05 1.0286798e-05 0 2.2628404e-05 0 0)
(1.5273231e-05 8.4232892e-06 0 2.0213178e-05 0 0)
(1.2573868e-05 6.5316473e-06 0 1.7881489e-05 0 0)
(1.0469129e-05 4.8064907e-06 0 1.5483895e-05 0 0)
(8.7859089e-06 3.3706086e-06 0 1.2994329e-05 0 0)
(7.3905838e-06 2.2410243e-06 0 1.0538895e-05 0 0)
(6.2164621e-06 1.4235849e-06 0 8.217759e-06 0 0)
(5.2180762e-06 8.6319226e-07 0 6.142607e-06 0 0)
(4.3657615e-06 5.1728986e-07 0 4.3766432e-06 0 0)
(3.6422956e-06 3.140948e-07 0 2.9493958e-06 0 0)
(3.0372941e-06 2.029646e-07 0 1.8525606e-06 0 0)
(2.5464684e-06 1.3688393e-07 0 1.0528403e-06 0 0)
(2.1682613e-06 8.977451e-08 0 5.0762906e-07 0 0)
(1.9030463e-06 4.8840271e-08 0 1.7410616e-07 0 0)
(1.7551487e-06 1.3359331e-08 0 1.8347509e-08 0 0)
(0.00080379337 -9.2362088e-05 6.0367016e-26 9.1421505e-05 -1.3385305e-25 4.9367063e-46)
(0.00060807613 -0.0001489993 1.0613908e-25 0.00018546924 8.9029045e-27 1.7815697e-46)
(0.00047144032 -0.00018165248 0 0.00026700817 0 0)
(0.00043348097 -0.00020961 0 0.00034467142 0 0)
(0.00045688832 -0.00018053071 0 0.00040314257 0 0)
(0.00046452615 -0.00010315828 0 0.00042869243 0 0)
(0.00046258511 -1.1653245e-05 0 0.00040521336 0 0)
(0.00038636516 -3.8996707e-05 0 0.00033431738 0 0)
(0.00031070411 -1.6950543e-05 0 0.00026482034 0 0)
(0.00023462437 -3.6604797e-07 0 0.00019484373 0 0)
(0.00016388854 1.3300043e-05 0 0.00013667655 0 0)
(0.00011050033 1.5733301e-05 0 9.7928913e-05 0 0)
(7.5377216e-05 1.5840961e-05 0 6.8992762e-05 0 0)
(5.2646637e-05 1.4876538e-05 0 5.0521353e-05 0 0)
(3.8000051e-05 1.3914611e-05 0 3.8127814e-05 0 0)
(2.8285497e-05 1.2714931e-05 0 3.0850784e-05 0 0)
(2.1742103e-05 1.1208823e-05 0 2.6328509e-05 0 0)
(1.7242049e-05 9.3555943e-06 0 2.3338526e-05 0 0)
(1.4083281e-05 7.3632413e-06 0 2.079805e-05 0 0)
(1.1732729e-05 5.4434409e-06 0 1.8296198e-05 0 0)
(9.9207018e-06 3.8031945e-06 0 1.5666535e-05 0 0)
(8.4359678e-06 2.4936601e-06 0 1.3004804e-05 0 0)
(7.1799118e-06 1.5327164e-06 0 1.0411834e-05 0 0)
(6.0975493e-06 8.6871509e-07 0 8.0227206e-06 0 0)
(5.1545436e-06 4.627531e-07 0 5.925591e-06 0 0)
(4.3342031e-06 2.3638196e-07 0 4.177509e-06 0 0)
(3.6234242e-06 1.316666e-07 0 2.7900837e-06 0 0)
(3.0218628e-06 8.7574159e-08 0 1.7394731e-06 0 0)
(2.530792e-06 6.836205e-08 0 9.8341655e-07 0 0)
(2.1518534e-06 5.1479968e-08 0 4.7217866e-07 0 0)
(1.8876485e-06 3.0402578e-08 0 1.6138178e-07 0 0)
(1.7428635e-06 8.3736155e-09 0 1.6952081e-08 0 0)
(0.0012220738 -0.0001001128 -4.6645631e-26 0.00010919842 1.4330138e-25 4.9767363e-46)
(0.00090632148 -0.00017518444 -2.4371133e-25 0.00023832846 -6.5676934e-27 1.1039631e-45)
(0.0006975597 -0.00023003612 0 0.00034288979 0 0)
(0.00058780298 -0.00025797659 0 0.00044169101 0 0)
(0.00058657966 -0.00029066587 0 0.00054754113 0 0)
(0.00063302352 -0.00023715601 0 0.00060506967 0 0)
(0.00064642483 -0.00011392214 0 0.00060260642 0 0)
(0.00060586758 -1.5787728e-05 0 0.00053312042 0 0)
(0.0004728736 -4.7255993e-05 0 0.00042121733 0 0)
(0.00036600249 -1.8154732e-05 0 0.00031781326 0 0)
(0.00026269924 6.8466102e-07 0 0.00023058342 0 0)
(0.00017799189 1.1811952e-05 0 0.00015947313 0 0)
(0.00011779826 1.34463e-05 0 0.00011053221 0 0)
(7.8390582e-05 1.4153505e-05 0 7.4866032e-05 0 0)
(5.284641e-05 1.3815466e-05 0 5.2893481e-05 0 0)
(3.6701616e-05 1.3232989e-05 0 3.917057e-05 0 0)
(2.6453493e-05 1.2039914e-05 0 3.1583508e-05 0 0)
(1.9992109e-05 1.0318976e-05 0 2.716431e-05 0 0)
(1.5889333e-05 8.239947e-06 0 2.4107674e-05 0 0)
(1.3143564e-05 6.1523107e-06 0 2.1406242e-05 0 0)
(1.1150271e-05 4.2868451e-06 0 1.8624995e-05 0 0)
(9.5728097e-06 2.7733077e-06 0 1.5771099e-05 0 0)
(8.2449579e-06 1.6452972e-06 0 1.2918141e-05 0 0)
(7.0899467e-06 8.5489431e-07 0 1.0216293e-05 0 0)
(6.0668097e-06 3.6851503e-07 0 7.7731398e-06 0 0)
(5.1584184e-06 1.0414909e-07 0 5.6760751e-06 0 0)
(4.3469352e-06 -5.5527898e-10 0 3.9617895e-06 0 0)
(3.6355555e-06 -2.1183963e-08 0 2.6235931e-06 0 0)
(3.027094e-06 -5.0321451e-09 0 1.6255624e-06 0 0)
(2.52891e-06 1.3807609e-08 0 9.1467907e-07 0 0)
(2.145128e-06 2.137159e-08 0 4.3758789e-07 0 0)
(1.8793148e-06 1.6043278e-08 0 1.4909969e-07 0 0)
(1.7359284e-06 4.563641e-09 0 1.5615471e-08 0 0)
(0.001746408 -0.00010542943 0 0.0001305429 0 0)
(0.0013036593 -0.00019556621 1.9940188e-25 0.00029860964 3.1621358e-26 1.107643e-45)
(0.00098743226 -0.00026478278 0 0.00043391994 0 0)
(0.00081869206 -0.00032498642 0 0.00057153275 0 0)
(0.00075337412 -0.00035662901 0 0.00069947632 0 0)
(0.00078963881 -0.0003888461 0 0.00082298228 0 0)
(0.00084874197 -0.00028384165 0 0.00086142753 0 0)
(0.00085944466 -0.0001185835 0 0.00081087903 0 0)
(0.00075385268 -2.3317099e-05 0 0.0006676902 0 0)
(0.00056421698 -5.1462617e-05 0 0.00051477067 0 0)
(0.00042055877 -1.9205268e-05 0 0.00037783281 0 0)
(0.00029158905 -1.2592495e-06 0 0.00026941843 0 0)
(0.00019377222 8.8286357e-06 0 0.00018074809 0 0)
(0.00012524958 1.1447793e-05 0 0.00012047463 0 0)
(8.0510948e-05 1.3025106e-05 0 7.8759601e-05 0 0)
(5.215317e-05 1.3234001e-05 0 5.4281759e-05 0 0)
(3.4852528e-05 1.2731022e-05 0 3.9980549e-05 0 0)
(2.446969e-05 1.1263096e-05 0 3.2550791e-05 0 0)
(1.8426714e-05 9.1786502e-06 0 2.8173036e-05 0 0)