/*--------------------------------*- C++ -*----------------------------------*\
| =========                 |                                                 |
| \\      /  F ield         | OpenFOAM: The Open Source CFD Toolbox           |
|  \\    /   O peration     | Version:  5.0                                   |
|   \\  /    A nd           | Web:      www.OpenFOAM.org                      |
|    \\/     M anipulation  |                                                 |
\*---------------------------------------------------------------------------*/
FoamFile
{
    version     2.0;
    format      ascii;
    class       volScalarField;
    location    "120";
    object      p;
}
// * * * * * * * * * * * * * * * * * * * * * * * * * * * * * * * * * * * * * //

dimensions      [0 2 -2 0 0 0 0];

internalField   nonuniform List<scalar> 
9200
(
0.001737092
0.0018261033
0.002094867
0.0018750784
0.0021811308
0.0035369333
0.0019666771
0.0022123788
0.0036282391
0.0044800871
0.0020288071
0.0023232623
0.0036648243
0.0045807655
0.0056525768
0.0020768548
0.0024227485
0.0038249802
0.004648863
0.0057506399
0.0066665372
0.0020563723
0.0025480187
0.0039703142
0.0048227765
0.0058220025
0.0067598224
0.0076257995
0.0019618776
0.0026699334
0.0041629351
0.0050035159
0.0059886079
0.0068320458
0.0077137044
0.0085096732
0.0018045627
0.0028041706
0.0043889022
0.0052417264
0.0061678985
0.0069881581
0.0077850698
0.0085927594
0.0093346598
0.0016342586
0.0029802195
0.0046571914
0.0055217839
0.0063944437
0.0071560771
0.0079293913
0.0086639399
0.0094142071
0.01010405
0.0014561693
0.0031956828
0.0049601468
0.0058524932
0.0066576198
0.0073599766
0.0080828067
0.0087991839
0.0094870883
0.010181279
0.01082281
0.001233934
0.0034266064
0.0052941511
0.006239077
0.0069616027
0.0075886794
0.0082587851
0.0089413267
0.0096177279
0.010257927
0.010898668
0.011494019
0.00095272888
0.0036598107
0.0056503082
0.0066826282
0.0073112179
0.0078399811
0.0084449127
0.0090955174
0.0097557996
0.010388745
0.010980609
0.011568979
0.01212068
0.00061922188
0.0038842448
0.0060075362
0.007181323
0.0077089224
0.0081141977
0.0086312798
0.0092486095
0.00990095
0.01053117
0.011115497
0.011656645
0.01219465
0.012705655
0.0002371926
0.0040756437
0.0063484971
0.0077419881
0.0081635957
0.0084084702
0.0088094574
0.0093796731
0.010037594
0.010680299
0.011268808
0.011797299
0.012287329
0.012777983
0.01325185
-0.00015998237
0.0042147356
0.0066513025
0.0083729445
0.0086978171
0.008726302
0.0089675803
0.0094736433
0.010137538
0.0108208
0.011433159
0.011964419
0.012433007
0.012874167
0.013321397
0.013762158
-0.00043721174
0.0043318373
0.0069300027
0.0090990411
0.0093022289
0.0090697884
0.0090931431
0.0095169508
0.010197278
0.010944357
0.011607116
0.012153417
0.012612861
0.013022739
0.013419191
0.013827516
0.014239515
-0.00056059117
0.004305419
0.0072022548
0.0098620596
0.0099555949
0.0094468092
0.0091714626
0.0094741067
0.010188813
0.011062008
0.011786133
0.012363895
0.012823075
0.013211826
0.013567861
0.013924837
0.014299209
0.014686904
-0.00065800843
0.0040180794
0.0073600092
0.010584687
0.010690616
0.0098523044
0.0091905605
0.0093215086
0.010065259
0.011076684
0.011946968
0.012583136
0.013061936
0.013434977
0.013761899
0.014070236
0.014393781
0.014739433
0.015107196
-0.00077914003
0.0035197467
0.0074046892
0.011330783
0.01150644
0.010269333
0.0091293491
0.0090047789
0.0097953478
0.010975594
0.012052127
0.012779828
0.013316035
0.013699617
0.013993128
0.014264602
0.014532447
0.014828902
0.015151188
0.015503223
-0.0007532005
0.0029273396
0.0075113396
0.012115619
0.012387216
0.0106988
0.008961129
0.0084787465
0.0093312775
0.01074913
0.012092191
0.012995684
0.013576937
0.013989641
0.014271786
0.014498766
0.01472259
0.014957662
0.015233503
0.015537608
0.015877967
-0.00083564636
0.0021868634
0.0075902261
0.012855596
0.013303653
0.01113893
0.0086768286
0.0076842179
0.0085671571
0.010340247
0.012036881
0.013204583
0.013876306
0.014317605
0.014588045
0.014784133
0.014953727
0.015139475
0.015348636
0.01561106
0.015901658
0.01623416
-0.0013171142
0.0013341955
0.0074411705
0.013482206
0.014209042
0.011561397
0.0082278943
0.0065451556
0.0074317804
0.0096716495
0.011863949
0.013380037
0.014228218
0.014687581
0.014955992
0.015114138
0.015238999
0.015360754
0.015517902
0.015708164
0.01596357
0.016246053
0.016574317
-0.00217452
0.00048215052
0.007094466
0.013924629
0.015015679
0.01191922
0.0075356409
0.00492045
0.0057750668
0.0086607717
0.01153298
0.013524308
0.014621094
0.01512716
0.015382421
0.015499407
0.015567922
0.015637922
0.015724505
0.015861298
0.016041023
0.016294458
0.016573167
0.016900404
-0.0030797301
-0.00053642569
0.0065296618
0.01455222
0.015526767
0.012148364
0.0065605685
0.002689912
0.0034337682
0.0071971687
0.010992542
0.013637808
0.015058126
0.015650789
0.015881709
0.015941928
0.015954692
0.015959572
0.015987797
0.016048837
0.016173167
0.01634952
0.016606026
0.016885408
0.0172157
-0.0036978328
-0.0017052327
0.0058130695
0.014378456
0.015470887
0.012183362
0.0052735815
-0.00027405627
0.00022925133
0.00518387
0.010158056
0.013700231
0.015551097
0.016274385
0.016461068
0.016457428
0.016394243
0.016335006
0.016295621
0.016293555
0.016337628
0.016456922
0.016636103
0.016901526
0.017184819
0.017521403
-0.0040570322
-0.00291718
0.0049466892
0.013847954
0.014788012
0.011903682
0.0036667492
-0.004190118
-0.0041540151
0.0024863417
0.0089188802
0.013677094
0.016117308
0.017004298
0.017147216
0.017050587
0.016892813
0.016756773
0.01665404
0.016583479
0.016559476
0.016594061
0.016715431
0.016903888
0.017183883
0.017475468
0.017819023
-0.0043686938
-0.0041149032
0.0038973678
0.012945082
0.013722467
0.011115037
0.0015502534
-0.0094219728
-0.010034265
-0.0010077189
0.0070997254
0.013498896
0.016768909
0.017858338
0.017963763
0.017733631
0.017451324
0.017222635
0.017052741
0.016922928
0.016828257
0.016788738
0.016821035
0.016951648
0.017156576
0.017455651
0.017758098
0.01810969
-0.004708254
-0.0052210216
0.0026415386
0.011610202
0.012351647
0.0098938338
-0.0013248421
-0.015891223
-0.017342009
-0.0052881491
0.0044306883
0.013044227
0.017490746
0.01885261
0.018914593
0.018517439
0.018070674
0.017724228
0.017482631
0.017300073
0.017148527
0.01703301
0.016983878
0.017021471
0.017169232
0.017396484
0.01771826
0.01803421
0.018394957
-0.0050099151
-0.0062378472
0.001206058
0.0098381206
0.010663419
0.0083432698
-0.004814982
-0.022680896
-0.025231494
-0.010249119
0.00069271141
0.012161418
0.018243969
0.019981319
0.019991896
0.01940194
0.018746935
0.018250376
0.017926482
0.01770125
0.017509027
0.017333581
0.017199263
0.017147251
0.017198722
0.017371478
0.017626715
0.017973841
0.0183052
0.018676252
-0.0052193407
-0.0072602325
-0.00037083058
0.0077419932
0.0085658276
0.0065198253
-0.008626291
-0.029574586
-0.034086289
-0.017189667
-0.0043500027
0.010676383
0.018987968
0.021209555
0.021186639
0.020378631
0.019470866
0.018784277
0.018361077
0.018102766
0.017894867
0.017682248
0.017477644
0.017327915
0.017281359
0.017356182
0.017561089
0.017848782
0.01822393
0.018572633
0.018954512
-0.0053646348
-0.0084323012
-0.0019776047
0.0053536637
0.006083883
0.0044586121
-0.01277438
-0.036777356
-0.043951482
-0.026759173
-0.011063393
0.0081548217
0.0196241
0.022464061
0.022454741
0.021426671
0.020225004
0.019302516
0.018755547
0.018471829
0.01827984
0.018066591
0.017816123
0.017578695
0.017419976
0.017389169
0.017496884
0.017740966
0.018065273
0.018470253
0.01883781
0.019230315
-0.0054728713
-0.0097813766
-0.003914094
0.0028268891
0.0033013806
0.0021087607
-0.017063118
-0.044010038
-0.054187615
-0.037608296
-0.019072523
0.0045973661
0.019861751
0.02360324
0.023708429
0.022502051
0.020978618
0.019773581
0.019070172
0.018764566
0.018626001
0.018462847
0.018208004
0.017903263
0.017634688
0.017477479
0.017474691
0.017624116
0.017914043
0.018278633
0.018714357
0.019101333
0.019503883
-0.0055639799
-0.011267553
-0.0061825982
-0.00040696522
0.00037481075
-0.00054384204
-0.02139874
-0.051052795
-0.06441893
-0.048854477
-0.027708626
0.00029220734
0.019613509
0.024449785
0.024814959
0.023533242
0.021684932
0.020156017
0.019257214
0.018925073
0.018881346
0.01883437
0.018637083
0.01830363
0.017936087
0.017645054
0.017504092
0.017541482
0.017741868
0.01808285
0.018490495
0.018957416
0.019363288
0.019775628
-0.0056493846
-0.012898072
-0.0087878323
-0.0042071263
-0.0031521167
-0.0034377305
-0.025675097
-0.057836284
-0.074354411
-0.06013369
-0.036552295
-0.0044496616
0.018634129
0.024843344
0.025777526
0.024424277
0.022272713
0.020386599
0.019249641
0.018881197
0.01897707
0.019128546
0.019074995
0.018774516
0.018336612
0.017909287
0.017612085
0.017502885
0.01759224
0.017853542
0.018249787
0.018702249
0.019200239
0.019624457
0.020045819
-0.005702407
-0.014599725
-0.011677954
-0.0086156772
-0.0070664378
-0.0066367011
-0.029973897
-0.064137559
-0.083558225
-0.071046422
-0.045329862
-0.0096751606
0.016078264
0.024787943
0.026202715
0.0250559
0.022652197
0.020392001
0.01896407
0.018535883
0.018820655
0.019271846
0.019477403
0.01930081
0.018842789
0.018292744
0.017820249
0.017539567
0.017474639
0.017632946
0.017963264
0.018417586
0.018915292
0.019443336
0.01988521
0.020314448
-0.0055896247
-0.016222392
-0.014856969
-0.013548258
-0.011649486
-0.0097481951
-0.033407101
-0.070092078
-0.091777032
-0.081217989
-0.053671262
-0.015095057
0.012542551
0.024151066
0.025764684
0.025275072
0.022721119
0.020081985
0.018315041
0.017786043
0.018296212
0.01916808
0.019778734
0.019855713
0.019454123
0.018813016
0.01816456
0.017674858
0.017427879
0.017432973
0.017670707
0.018074503
0.018588255
0.019130523
0.019687307
0.020145515
0.020581589
-0.00528544
-0.017739998
-0.018367419
-0.018973669
-0.016789769
-0.01301768
-0.036329452
-0.074027183
-0.099672252
-0.090954579
-0.061474894
-0.020633195
0.008695437
0.022760107
0.024929375
0.024884522
0.022398598
0.019359225
0.017206285
0.01651199
0.017260591
0.018693498
0.019889379
0.020395632
0.020164966
0.019483925
0.01866702
0.017952709
0.017478922
0.017287915
0.017385798
0.017709635
0.018189882
0.01876323
0.019348696
0.019932373
0.020405391
0.020847107
-0.0048627305
-0.019261687
-0.022218327
-0.024752519
-0.022263495
-0.016515755
-0.039127089
-0.07748553
-0.10549633
-0.10013692
-0.068640702
-0.026255515
0.0046175866
0.020291955
0.023444708
0.023794628
0.021620322
0.018127906
0.015535447
0.014574778
0.015534747
0.017672579
0.019693403
0.020856212
0.020959204
0.020320158
0.019356599
0.018401314
0.01766296
0.017231855
0.01713515
0.017335313
0.017753356
0.018311677
0.018943697
0.019570273
0.020178552
0.020664691
0.021110732
-0.0043765007
-0.020840853
-0.026238833
-0.030788083
-0.028000998
-0.02012629
-0.041842166
-0.080082333
-0.11145118
-0.10801101
-0.074501911
-0.031637229
0.0001689971
0.016888383
0.021226583
0.021975766
0.020247696
0.016325955
0.013190721
0.011824675
0.012900953
0.015879829
0.019017845
0.021139923
0.021804947
0.021328714
0.020263032
0.019059684
0.01801987
0.017300893
0.016951682
0.016974582
0.017287546
0.017804995
0.01844177
0.019130546
0.019795485
0.020425796
0.020923303
0.021372407
-0.022420133
-0.0038605262
-0.030247196
-0.037025823
-0.033965196
-0.023739462
-0.044505267
-0.081616682
-0.11505808
-0.11669077
-0.079712147
-0.036649388
-0.0043535404
0.012539816
0.018316726
0.019386921
0.018164288
0.013905843
0.010065282
0.008097893
0.0090972341
0.013023768
0.017636202
0.021112116
0.022647563
0.022506528
0.021410428
0.019967347
0.018595462
0.017530557
0.016877611
0.016657146
0.016812759
0.017248341
0.017867437
0.018581612
0.01932428
0.020024377
0.020674005
0.021180913
0.021631727
-0.034190026
-0.023754437
-0.0033642086
-0.043295948
-0.040072803
-0.027299642
-0.0470188
-0.082224463
-0.11664154
-0.12344892
-0.086386957
-0.043292465
-0.0089618834
0.0076750001
0.014763717
0.015996096
0.01531496
0.010826804
0.0060794292
0.0032604352
0.0038313091
0.0087065262
0.015246788
0.020584982
0.023400886
0.023836085
0.022816031
0.02116126
0.019433111
0.017976279
0.01695249
0.016421464
0.016356591
0.01665923
0.017222865
0.017943404
0.01873224
0.019525085
0.020256828
0.020922841
0.021437238
0.021888498
-0.049361047
-0.038178132
-0.024674573
-0.002888157
-0.046169589
-0.030921194
-0.049298443
-0.081902037
-0.1163846
-0.1280716
-0.092315267
-0.050809789
-0.016577115
0.0026099119
0.010448163
0.011906949
0.011641104
0.0070848782
0.001255652
-0.0027827227
-0.0031952
0.0024510414
0.011374483
0.019264288
0.023924426
0.025275192
0.024484461
0.022670077
0.02057834
0.018675354
0.017225131
0.016309409
0.015950504
0.016058983
0.016520679
0.017214954
0.01803483
0.018894292
0.019732991
0.020492563
0.021171999
0.021691979
0.022142426
-0.052102988
-0.055054272
-0.042213796
-0.02519217
-0.0024356416
-0.034695261
-0.051101011
-0.080600452
-0.1142072
-0.12952139
-0.096777412
-0.058350463
-0.024332722
-0.0058784487
0.0071389211
0.0070223017
0.007186306
0.0027083974
-0.0043374166
-0.010016503
-0.012448753
-0.0064297178
0.0054623588
0.016717679
0.023992066
0.026739892
0.026396391
0.024509416
0.022065937
0.019684889
0.017721792
0.016362977
0.015632719
0.015476651
0.015777242
0.016403619
0.017227593
0.018142918
0.019068044
0.019947776
0.020731232
0.021421133
0.021944757
0.022393194
-0.038496229
-0.057785191
-0.060261525
-0.046288461
-0.025301034
-0.0020836055
-0.052127539
-0.078307191
-0.11032372
-0.12784208
-0.09948103
-0.06540182
-0.032853169
-0.013959284
-0.00011783988
0.0019163227
0.0019254086
-0.0022113518
-0.010605619
-0.018463631
-0.024526555
-0.018935883
-0.0035228317
0.012437105
0.023326946
0.028085302
0.028496395
0.026669652
0.023915785
0.021038604
0.01852124
0.016622075
0.015440873
0.014943118
0.015014852
0.015520701
0.016313213
0.017262783
0.018268383
0.019253402
0.020169059
0.02097237
0.021669754
0.022195215
0.022640556
-0.052327975
-0.04212979
-0.063138814
-0.0652992
-0.050343008
-0.025011807
-0.0019120214
-0.075054041
-0.10498416
-0.12369808
-0.10072499
-0.071419629
-0.041444447
-0.023354168
-0.0070013534
-0.0049553679
-0.0037623314
-0.0076973166
-0.017419883
-0.028313413
-0.039660512
-0.034985114
-0.016152951
0.0054876421
0.021317041
0.029094446
0.030672404
0.029102558
0.026121547
0.022755726
0.019643674
0.017140124
0.015416817
0.014490725
0.014259425
0.01458038
0.015296228
0.016253673
0.017321748
0.018411627
0.019450057
0.020396264
0.021215359
0.021917413
0.022443022
0.022884252
-0.070916735
-0.051620732
-0.045212533
-0.068061361
-0.070672253
-0.054209504
-0.024337087
-0.0018983709
-0.098255291
-0.11763573
-0.10050199
-0.07597936
-0.050041525
-0.033282141
-0.01631979
-0.011090135
-0.010468557
-0.013385018
-0.024670837
-0.039738669
-0.056451519
-0.053827349
-0.031514278
-0.0043889523
0.016775487
0.029181922
0.03272054
0.031704984
0.028636706
0.024832654
0.021105884
0.017947905
0.015601801
0.014154946
0.013536585
0.01360281
0.014185064
0.015110621
0.016228248
0.017408356
0.018572402
0.019657325
0.02062858
0.021459567
0.022163716
0.022687915
0.023124031
-0.090302415
-0.065920511
-0.050063542
-0.048015501
-0.072254079
-0.077469811
-0.057705579
-0.023352778
-0.0019389631
-0.10998083
-0.098565306
-0.078919184
-0.058330359
-0.043862445
-0.027301663
-0.019202676
-0.016171073
-0.019419203
-0.032204441
-0.051600631
-0.074402005
-0.074622532
-0.0487401
-0.017318357
0.010228766
0.027806643
0.034210248
0.034290619
0.031361664
0.027224837
0.022907186
0.019055848
0.01602536
0.013969977
0.01287411
0.012605752
0.012990958
0.013837418
0.014967923
0.016235246
0.017520019
0.018749977
0.019874155
0.02086518
0.021704591
0.022408445
0.022929624
0.023359596
-0.10100221
-0.081238459
-0.060317794
-0.047724642
-0.050702539
-0.075595354
-0.086890553
-0.060766344
-0.022207683
-0.0019177265
-0.094664169
-0.079795439
-0.065967689
-0.054891334
-0.039866535
-0.029676638
-0.023287102
-0.024367879
-0.038442916
-0.064551812
-0.091890174
-0.095838123
-0.067756051
-0.033602381
0.0012859744
0.025196583
0.034804304
0.036522887
0.034123154
0.029836803
0.025007949
0.020461657
0.016700441
0.013960076
0.012297431
0.011609428
0.011724354
0.012437252
0.013544399
0.014870969
0.016277774
0.017656105
0.018943036
0.020099528
0.021105705
0.02195031
0.022651209
0.023167531
0.023590646
-0.089378934
-0.090991122
-0.071520476
-0.054085736
-0.044944033
-0.052603473
-0.078111052
-0.096870333
-0.062893289
-0.021054205
-0.0017770496
-0.079179532
-0.072859464
-0.066218571
-0.05383319
-0.042060658
-0.032587145
-0.030372746
-0.042859898
-0.073120055
-0.10988014
-0.11655575
-0.088213653
-0.051441537
-0.010656811
0.019987855
0.034317968
0.038050193
0.036646278
0.032509938
0.027319382
0.022132308
0.017618124
0.014139117
0.011825125
0.010630494
0.010396233
0.010911979
0.011952204
0.01331141
0.014822086
0.016354785
0.017815178
0.019150292
0.020333167
0.021350166
0.022196008
0.022890735
0.023400888
0.023817275
-0.077314252
-0.083146442
-0.080486283
-0.061517891
-0.047400237
-0.041866015
-0.053330118
-0.079373743
-0.096737352
-0.06387506
-0.019943884
-0.0016099187
-0.079222823
-0.077705705
-0.06885764
-0.056375149
-0.043810012
-0.037860822
-0.047978287
-0.07933228
-0.12040933
-0.13885823
-0.1101844
-0.069683714
-0.025099681
0.011366126
0.031515389
0.03862648
0.038646444
0.035013762
0.029704127
0.023987121
0.018747304
0.014495856
0.011465261
0.0096802933
0.0090152236
0.0092633763
0.010183635
0.01154345
0.013141361
0.014821782
0.016464907
0.01799587
0.019371612
0.020575241
0.02159726
0.022439189
0.023125691
0.023630285
0.024050741
-0.084689345
-0.074132357
-0.076016264
-0.06968188
-0.051587248
-0.040588748
-0.038227827
-0.053056349
-0.079018101
-0.09346458
-0.063984046
-0.018787971
-0.0015106387
-0.089058671
-0.084509242
-0.072509684
-0.056830058
-0.046652469
-0.054140767
-0.084747423
-0.13166413
-0.1552745
-0.13543118
-0.090175965
-0.041638811
0.00094326185
0.025208218
0.036991832
0.039716482
0.037079923
0.031956112
0.025904871
0.020018534
0.01499795
0.011207205
0.0087602155
0.0075839365
0.0074909545
0.0082322388
0.0095512857
0.011216379
0.013035821
0.014867861
0.016607078
0.018198292
0.01960741
0.020823617
0.021842727
0.022677646
0.02335794
0.023868844
0.024294893
-0.0998662
-0.088827942
-0.070229941
-0.068099128
-0.058912637
-0.041933453
-0.03378674
-0.034151422
-0.051975103
-0.077012148
-0.089412296
-0.063384595
-0.017432142
-0.0014115186
-0.10067281
-0.090272745
-0.07166221
-0.056486919
-0.061291633
-0.089989642
-0.13976712
-0.17855393
-0.15988009
-0.11239072
-0.0608553
-0.011213343
0.016810867
0.032342399
0.039027764
0.038287519
0.033820499
0.027711645
0.021324943
0.015585635
0.011019357
0.0078559094
0.006097232
0.0055885853
0.0060877478
0.0073194516
0.0090230873
0.010973572
0.012993316
0.014956897
0.016781078
0.018423226
0.019854506
0.021071652
0.022083323
0.02291567
0.023604678
0.024117233
0.024543231
-0.11713974
-0.10990734
-0.091800917
-0.065901484
-0.059783359
-0.048478226
-0.032604435
-0.026992287
-0.029913093
-0.050119471
-0.073720709
-0.085811915
-0.061705547
-0.015957207
-0.0012782153
-0.10934895
-0.088106091
-0.067288011
-0.068995389
-0.095762575
-0.14602742
-0.19371478
-0.20462242
-0.13555753
-0.079807146
-0.024315965
0.0071123291
0.026142105
0.036323183
0.038181936
0.03502307
0.029195878
0.022520384
0.016167409
0.010847579
0.0069368429
0.0045357019
0.0035428886
0.0037353008
0.0048293083
0.0065376937
0.0086035599
0.010813634
0.013010815
0.015090348
0.016988172
0.018666267
0.020103084
0.021314847
0.022326946
0.023178762
0.023858939
0.024371409
0.024795461
-0.12909152
-0.13350992
-0.11877164
-0.093570536
-0.061273023
-0.051360713
-0.0387075
-0.0237811
-0.02030756
-0.025487916
-0.047577073
-0.070685336
-0.081513739
-0.059340226
-0.014331605
-0.0010971712
-0.10575727
-0.078780777
-0.076878086
-0.10174887
-0.15144549
-0.20565912
-0.22820404
-0.17144767
-0.097930358
-0.037481488
-0.0028445432
0.01863481
0.03174298
0.03665565
0.035319162
0.030131212
0.023429373
0.016617095
0.010613045
0.0059525118
0.0028656826
0.0013294594
0.0011529647
0.0020568262
0.0037335899
0.0058943309
0.0082923564
0.010733767
0.013088003
0.015270555
0.017222522
0.018913484
0.020346927
0.021565963
0.022611185
0.02344733
0.024121188
0.024630501
0.025051575
-0.12371662
-0.14898695
-0.14864159
-0.12640138
-0.093941317
-0.056381994
-0.043088773
-0.0297584
-0.01562293
-0.013815843
-0.02101767
-0.045062763
-0.067137546
-0.076509557
-0.056237608
-0.01257188
-0.00086116213
-0.090307967
-0.084488088
-0.10743497
-0.1555186
-0.21414966
-0.25063736
-0.20558503
-0.12107661
-0.056439149
-0.013231022
0.0097765579
0.025331119
0.033388056
0.034310028
0.030230215
0.023839715
0.016785422
0.010206832
0.0048330987
0.0010384593
-0.0010908844
-0.0016916682
-0.001028772
0.00057799615
0.0028116038
0.0053900847
0.0080855946
0.010735576
0.013228201
0.015490063
0.017464827
0.019156257
0.020605335
0.021879572
0.022898657
0.023726549
0.024389022
0.024894614
0.025311298
-0.10126067
-0.14106379
-0.16782165
-0.16206032
-0.13249856
-0.093192777
-0.051313004
-0.035492593
-0.021788449
-0.0082948633
-0.0078884796
-0.016442206
-0.042762131
-0.062916592
-0.070779233
-0.052477281
-0.010758676
-0.00059218271
-0.091335301
-0.1124489
-0.15768823
-0.21862078
-0.2666258
-0.23729239
-0.14768554
-0.077573353
-0.030786963
-2.2556332e-05
0.017769696
0.028216956
0.031568457
0.029331247
0.023526433
0.016495003
0.0095041453
0.0034836465
-0.0010106079
-0.003768546
-0.0048426613
-0.0044682805
-0.0029682641
-0.0006850355
0.0020655152
0.005021247
0.0079853894
0.010824824
0.013425252
0.015722765
0.017703084
0.019422364
0.020956389
0.022194107
0.023199993
0.024011774
0.024662977
0.025163158
0.025574529
-0.097467208
-0.1112144
-0.15633657
-0.18451574
-0.17319261
-0.1368618
-0.091598359
-0.046470918
-0.02916167
-0.015168259
-0.0022347181
-0.0020039172
-0.012827796
-0.03997262
-0.058195052
-0.064363019
-0.048061978
-0.0090645118
-0.00027025111
-0.11653894
-0.15753082
-0.2179108
-0.2757853
-0.26461217
-0.17424837
-0.10212855
-0.046897064
-0.01744291
0.0098237376
0.021034823
0.027502791
0.026976736
0.022274726
0.015555847
0.0083553606
0.0018009188
-0.0033670457
-0.006767117
-0.0083553485
-0.008311969
-0.0069532314
-0.0046424024
-0.001727781
0.0014917582
0.0047906741
0.0080006315
0.010986788
0.013641966
0.015951899
0.017976098
0.019821515
0.021306235
0.022526508
0.023507602
0.024304324
0.024942181
0.02543607
0.025840983
-0.11870955
-0.10268198
-0.11927602
-0.16839469
-0.19805753
-0.18162456
-0.13948404
-0.08950519
-0.042316197
-0.024009693
-0.0097252146
0.003479902
0.0021000257
-0.0092696386
-0.03662512
-0.052886482
-0.057353264
-0.042991161
-0.0077105466
-0.000103901
-0.15457206
-0.21215628
-0.2760623
-0.28354504
-0.20029116
-0.12686718
-0.067606405
-0.03104556
-0.0074182263
0.014083763
0.020398588
0.023102179
0.019817955
0.013787925
0.0066067863
-0.00034398426
-0.0061182996
-0.010167917
-0.012296599
-0.0126217
-0.01143572
-0.0091168689
-0.0060457432
-0.0025543779
0.0010957753
0.0047100532
0.0081173119
0.011176924
0.013855281
0.016230586
0.018436099
0.020217252
0.021678767
0.02286517
0.023823774
0.024602966
0.025226483
0.025712796
0.026110491
-0.14899707
-0.11787272
-0.10637894
-0.12507228
-0.17634637
-0.20746019
-0.18713934
-0.14045051
-0.087171194
-0.039107667
-0.019345039
-0.0039694158
0.0074560471
0.0060839272
-0.0057781761
-0.032781692
-0.047002605
-0.049888824
-0.037404974
-0.0066172166
-0.00031007977
-0.20227939
-0.26651877
-0.28951696
-0.22376873
-0.14943597
-0.08831561
-0.049793885
-0.020912419
-0.0001928771
0.013645016
0.016997287
0.016099251
0.010950595
0.0041117257
-0.0030683329
-0.0093793926
-0.014050129
-0.016748566
-0.017470876
-0.016484208
-0.014173654
-0.010951293
-0.0071813998
-0.0031547643
0.00089320932
0.0047635374
0.0082720451
0.011364749
0.014137572
0.016767421
0.018890304
0.020641778
0.022057155
0.023213726
0.024146746
0.024907513
0.025515149
0.025993127
0.02638278
-0.18898822
-0.14064899
-0.11416401
-0.10776951
-0.12806459
-0.17976355
-0.21229239
-0.18890774
-0.13974211
-0.084343193
-0.036588646
-0.013975032
0.00062456344
0.011200386
0.0099947594
-0.002513686
-0.028465103
-0.040749049
-0.042128248
-0.031592432
-0.0055018419
-0.00068955515
-0.25049184
-0.28368674
-0.23835594
-0.16569111
-0.10835134
-0.068762537
-0.039134112
-0.01319942
0.00064389953
0.0099020117
0.010477557
0.0070189537
0.00069576907
-0.0064975415
-0.013235684
-0.018523627
-0.021790727
-0.022946592
-0.022179892
-0.019887741
-0.016512821
-0.01245471
-0.0080307512
-0.0035055767
0.00085970977
0.0048689299
0.0084231874
0.011647373
0.014771299
0.017295178
0.019381095
0.021071115
0.022446744
0.023569809
0.024476403
0.025217124
0.025807848
0.026276569
0.026657684
-0.22958502
-0.17224832
-0.1302751
-0.10800474
-0.10641821
-0.12760727
-0.17746324
-0.21096398
-0.18730269
-0.13679124
-0.080997485
-0.032916264
-0.0090874184
0.0049666486
0.014292031
0.013520722
0.00047521491
-0.023721517
-0.034034289
-0.034312573
-0.025616376
-0.0044507824
-0.0010174167
-0.26848554
-0.24136955
-0.17556602
-0.12516289
-0.087890469
-0.057938709
-0.032375266
-0.010190768
-0.0014563218
0.0040004899
0.0015151525
-0.0036695755
-0.010748843
-0.017804925
-0.023649734
-0.027536029
-0.02913647
-0.028617163
-0.026347571
-0.022811405
-0.018447081
-0.013600167
-0.0085636684
-0.0036389483
0.00088981026
0.0049676535
0.0087010525
0.012403088
0.015390665
0.017869712
0.019874934
0.021512946
0.022844495
0.023933429
0.024811737
0.025531314
0.026103969
0.026563043
0.026934825
-0.24550417
-0.20421764
-0.15357344
-0.11808338
-0.099866951
-0.10157202
-0.1243397
-0.16912715
-0.20297623
-0.18208697
-0.13168242
-0.076166739
-0.027772563
-0.004426097
0.0086866625
0.01664286
0.016404093
0.0031964282
-0.018882851
-0.026794993
-0.026926993
-0.019629006
-0.0034280468
-0.0017704717
-0.23403089
-0.1797443
-0.13732671
-0.10560152
-0.077705701
-0.052215232
-0.02767662
-0.012409711
-0.005636407
-0.0044704953
-0.0093621568
-0.015839977
-0.023148167
-0.029557926
-0.034033562
-0.036162623
-0.035897023
-0.033655118
-0.029940652
-0.025242985
-0.019939355
-0.014350011
-0.0088239305
-0.0036944014
0.00091517473
0.0052318719
0.0096104759
0.013135623
0.016070003
0.018444383
0.020382156
0.021963531
0.023250604
0.024303432
0.025152038
0.025849466
0.026403581
0.026851891
0.027213965
-0.21740576
-0.21684921
-0.17684571
-0.13365918
-0.10450884
-0.090129564
-0.093509937
-0.11860511
-0.15597252
-0.19049093
-0.17103004
-0.12633073
-0.067780521
-0.022494905
-0.00020723929
0.011823235
0.01837426
0.018585864
0.0056640484
-0.014263241
-0.019676993
-0.020514881
-0.014335838
-0.0025076312
-0.0018240045
-0.17712337
-0.14393317
-0.120668
-0.096891945
-0.073395111
-0.050675161
-0.028406741
-0.014975604
-0.012408175
-0.015449502
-0.022037382
-0.02931382
-0.036247083
-0.041443031
-0.044077083
-0.044153345
-0.041925988
-0.038008725
-0.032938467
-0.027133139
-0.020941566
-0.014762528
-0.0089913344
-0.0037503359
0.0011556368
0.0063332933
0.010481988
0.013945061
0.016745114
0.019033001
0.020898602
0.022423182
0.023663661
0.024678906
0.025496727
0.026171946
0.026705589
0.027142804
0.027494784
-0.16784222
-0.19413601
-0.18641227
-0.14888196
-0.11351447
-0.090022778
-0.078779747
-0.0834787
-0.10948389
-0.14135194
-0.17323802
-0.16099494
-0.11569062
-0.059193424
-0.017161323
0.0035344051
0.01434443
0.019639746
0.020042799
0.0078320841
-0.0097266248
-0.013807311
-0.015405372
-0.010129595
-0.0016706498
-0.0016738964
-0.14529032
-0.13096613
-0.11397415
-0.095080314
-0.076236026
-0.050732551
-0.031106097
-0.01864172
-0.022356698
-0.028644416
-0.036434049
-0.043849804
-0.049703955
-0.05308334
-0.053457234
-0.051304174
-0.047142161
-0.041644296
-0.035277231
-0.028422715
-0.021531629
-0.015066522
-0.0091656783
-0.0035045896
0.0025083896
0.0073742345
0.011452307
0.014743675
0.017434378
0.01963094
0.021424541
0.022890412
0.02408258
0.025059428
0.025846657
0.026497057
0.027009643
0.027435223
0.027777024
-0.14153872
-0.15300926
-0.16848567
-0.15608394
-0.12202225
-0.093729537
-0.075239611
-0.066377913
-0.071982338
-0.09710688
-0.12747353
-0.15911361
-0.14620117
-0.10440486
-0.050197474
-0.012044128
0.0067090095
0.016249603
0.020471952
0.020494668
0.0093730617
-0.005403004
-0.0094564681
-0.011100397
-0.0069606481
-0.0010167392
-0.0013850839
-0.13562569
-0.12766399
-0.11615392
-0.10226666
-0.07845811
-0.053522163
-0.031357567
-0.026241852
-0.034941648
-0.044039915
-0.052305694
-0.059084236
-0.063069695
-0.064059712
-0.061892006
-0.057490443
-0.051490268
-0.044479268
-0.03688466
-0.029212388
-0.021996719
-0.015384226
-0.0089616809
-0.0018803184
0.0037572123
0.0085434371
0.012401829
0.015556562
0.018132643
0.020238765
0.021958432
0.023363907
0.024507202
0.025446453
0.026199482
0.026824422
0.027315036
0.027728778
0.028060397
-0.13574036
-0.13330416
-0.13439411
-0.14213177
-0.12728757
-0.097394105
-0.074758345
-0.060604501
-0.053874649
-0.059139896
-0.083292797
-0.11792634
-0.14196391
-0.13074174
-0.092006312
-0.041188171
-0.0073351189
0.0092542511
0.017542465
0.020696755
0.019794069
0.010149651
-0.0017366501
-0.0059967129
-0.0075836021
-0.0046303726
-0.00053833977
-0.0010191447
-0.13746131
-0.13526361
-0.12872244
-0.11131473
-0.081425703
-0.052495951
-0.034606742
-0.037614229
-0.050074205
-0.06151637
-0.069240645
-0.074483483
-0.075819424
-0.073978222
-0.069191182
-0.062625655
-0.054863564
-0.046426717
-0.037889224
-0.029860365
-0.022485699
-0.015223373
-0.0069652295
-0.0004020542
0.0051716489
0.0096772589
0.013365573
0.016377428
0.018840974
0.020854824
0.022499153
0.023843867
0.024939832
0.025836633
0.026554824
0.027153102
0.027621346
0.028023007
0.028344646
-0.14274598
-0.1323072
-0.12184691
-0.11428189
-0.11608627
-0.10081395
-0.075162589
-0.056699575
-0.046463247
-0.04119823
-0.046840548
-0.070859364
-0.10654998
-0.12402007
-0.11337999
-0.079142051
-0.032349693
-0.0032193171
0.011154635
0.018224969
0.020239374
0.018500913
0.010293594
0.00074348842
-0.0031592079
-0.0047778893
-0.0028602513
-0.00021441661
-0.00063300654
-0.15155139
-0.15438389
-0.14594111
-0.11606725
-0.081991953
-0.050507265
-0.043513141
-0.051966972
-0.067833474
-0.080653549
-0.086650443
-0.08939253
-0.087431659
-0.082548309
-0.075216828
-0.066571747
-0.0571595
-0.047649188
-0.038734224
-0.030546775
-0.022374632
-0.012787522
-0.0051982721
0.0012991548
0.0065289639
0.010824625
0.014335314
0.017208121
0.019557453
0.021477877
0.023047186