/*--------------------------------*- C++ -*----------------------------------*\
| =========                 |                                                 |
| \\      /  F ield         | OpenFOAM: The Open Source CFD Toolbox           |
|  \\    /   O peration     | Version:  5.0                                   |
|   \\  /    A nd           | Web:      www.OpenFOAM.org                      |
|    \\/     M anipulation  |                                                 |
\*---------------------------------------------------------------------------*/
FoamFile
{
    version     2.0;
    format      ascii;
    class       surfaceScalarField;
    location    "120";
    object      phi;
}
// * * * * * * * * * * * * * * * * * * * * * * * * * * * * * * * * * * * * * //

dimensions      [0 3 -1 0 0 0 0];

internalField   nonuniform List<scalar> 
18180
(
-0.011459424
-1.4082096
-0.022389894
-1.3152522
-0.008648477
-1.3995611
-0.032659854
-1.2276234
-0.016651666
-1.307249
-0.0072317479
-1.3923294
-0.042466663
-1.1445648
-0.023947772
-1.2203273
-0.013835725
-1.300645
-0.0056035821
-1.3867258
-0.051632283
-1.0661795
-0.030499338
-1.1380132
-0.019806685
-1.2143563
-0.010654617
-1.295594
-0.0044485072
-1.3822773
-0.060034639
-0.99221767
-0.036154099
-1.0605247
-0.025034087
-1.1327858
-0.015105392
-1.2099055
-0.0084266816
-1.2916158
-0.0034810361
-1.3787962
-0.067432449
-0.92260568
-0.040823701
-0.98754807
-0.029446013
-1.0561128
-0.018830041
-1.1290612
-0.011851345
-1.2064809
-0.0065676576
-1.2885292
-0.0027286318
-1.3760676
-0.07360741
-0.85725117
-0.044418829
-0.91901055
-0.032975627
-0.98401845
-0.021786283
-1.0531565
-0.014609698
-1.1263028
-0.0091595177
-1.203889
-0.0051247301
-1.2861331
-0.0021414655
-1.3739261
-0.078399046
-0.79607853
-0.04693662
-0.85473338
-0.035607257
-0.91637892
-0.023907353
-0.98189738
-0.016644268
-1.051122
-0.011155404
-1.1243069
-0.0070943674
-1.2019194
-0.0040010899
-1.2842735
-0.0016852221
-1.3722409
-0.081669443
-0.73886774
-0.048501485
-0.79451367
-0.037347262
-0.85299338
-0.025169781
-0.91511649
-0.017894973
-0.98064668
-0.012498729
-1.0497786
-0.0085530046
-1.1228483
-0.0055070609
-1.2004134
-0.0031316016
-1.2828271
-0.0013295276
-1.3709114
-0.083246364
-0.6855303
-0.049168864
-0.73820036
-0.038187564
-0.79367337
-0.02557475
-0.85258841
-0.01832675
-0.91468472
-0.013133451
-0.98001196
-0.0094511746
-1.0488805
-0.0065934456
-1.1217619
-0.0042959423
-1.199249
-0.0024544753
-1.2817022
-0.0010503345
-1.369861
-0.083039162
-0.63604222
-0.048953314
-0.68574585
-0.038162806
-0.73822512
-0.025161354
-0.79408676
-0.017916217
-0.85299894
-0.013014649
-0.91480352
-0.0097434967
-0.97971963
-0.0072261639
-1.0482477
-0.0051301243
-1.1209277
-0.0033638404
-1.1983397
-0.0019203584
-1.2808321
-0.00082570274
-1.3690353
-0.080962338
-0.59026319
-0.048012897
-0.63698264
-0.037454919
-0.68645373
-0.024006683
-0.73937979
-0.016652532
-0.79535045
-0.012096619
-0.85391697
-0.0093894051
-0.91515761
-0.0073770139
-0.97956878
-0.0056199845
-1.0477579
-0.0040229484
-1.1202686
-0.002633282
-1.1976268
-0.0014908097
-1.280167
-0.00063688943
-1.3683985
-0.077035145
-0.54791783
-0.046575052
-0.59170104
-0.03631147
-0.63812609
-0.022236072
-0.68822434
-0.01454384
-0.74148848
-0.010324716
-0.79712235
-0.0083411681
-0.85496521
-0.0070241768
-0.91551045
-0.0057576627
-0.97943111
-0.0044380654
-1.0473428
-0.0031616788
-1.1197402
-0.002045843
-1.1970717
-0.0011387912
-1.2796651
-0.00047301577
-1.3679254
-0.071703407
-0.50884973
-0.044767563
-0.54972532
-0.034982974
-0.59302953
-0.020002672
-0.64035949
-0.01161921
-0.69114897
-0.007640251
-0.74417295
-0.0065403479
-0.79892317
-0.006138841
-0.85585055
-0.0055477664
-0.91572034
-0.0046203253
-0.97924885
-0.0035280163
-1.0469764
-0.0024656118
-1.1193204
-0.0015624038
-1.1966481
-0.00084799029
-1.2792902
-0.00033322609
-1.3675922
-0.065595688
-0.47273043
-0.042832823
-0.51078447
-0.033738244
-0.55097005
-0.017518735
-0.59551347
-0.007907751
-0.64407095
-0.0039683516
-0.69482087
-0.00391565
-0.74679765
-0.0047062754
-0.80035574
-0.0049981111
-0.8564002
-0.0046011995
-0.91573947
-0.0037568677
-0.97902
-0.002780761
-1.0466613
-0.0018830592
-1.1189998
-0.0011605233
-1.1963356
-0.00061006775
-1.2790133
-0.00022210612
-1.3673701
-0.059271447
-0.43903761
-0.041028913
-0.47453434
-0.032820678
-0.51170203
-0.0150079
-0.55348088
-0.0033935351
-0.60002769
0.00078499808
-0.6488243
-0.00035758646
-0.69837894
-0.0026750918
-0.74882883
-0.004164174
-0.80118967
-0.0044389001
-0.8565625
-0.0039056496
-0.91559069
-0.0030275314
-0.97877323
-0.002131051
-1.0464133
-0.0013880861
-1.1187722
-0.00082891963
-1.1961167
-0.00042040827
-1.278815
-0.00014175027
-1.3672284
-0.053172207
-0.4074164
-0.03946862
-0.4405979
-0.032362554
-0.47499247
-0.012583848
-0.51412609
0.0019494966
-0.55882392
0.0067040656
-0.60594676
0.0042602136
-0.6534421
5.3377558e-05
-0.70110741
-0.003041525
-0.74995148
-0.0042145186
-0.80141405
-0.0040701901
-0.85639796
-0.0032761214
-0.9153421
-0.0023445596
-0.97855972
-0.0015548867
-1.0462465
-0.00097169845
-1.1186294
-0.00056122183
-1.1959759
-0.00027448126
-1.2786823
-8.7854583e-05
-1.3671405
-0.04771567
-0.37730657
-0.038415915
-0.4084691
-0.032296778
-0.44066368
-0.010310014
-0.4772663
0.0080248607
-0.52020145
0.013835288
-0.56595514
0.010074912
-0.61176145
0.0035725134
-0.65696123
-0.0015988219
-0.70255011
-0.0040164525
-0.75014955
-0.0042921668
-0.80119208
-0.0036098932
-0.85606419
-0.0025847765
-0.91510188
-0.0016874957
-0.97842711
-0.0010541138
-1.0461641
-0.00063102843
-1.1185596
-0.00035193924
-1.1958985
-0.00016637219
-1.2786038
-5.2612292e-05
-1.3670879
-0.043377316
-0.34832969
-0.038289866
-0.37743262
-0.032598383
-0.4081675
-0.008318423
-0.44265527
0.01467388
-0.48391532
0.022236736
-0.5286029
0.01723716
-0.57311739
0.0080175078
-0.61620645
0.00017848754
-0.65873854
-0.003922091
-0.70264447
-0.0047484095
-0.7496933
-0.0040830809
-0.80071889
-0.0029136795
-0.85573528
-0.0018342549
-0.91495512
-0.0010875701
-0.97839365
-0.00063702255
-1.0461581
-0.00036303814
-1.1185485
-0.00019497313
-1.1958699
-8.9503538e-05
-1.2785669
-2.963956e-05
-1.3670583
-0.039928795
-0.32096746
-0.039797333
-0.34682223
-0.033373294
-0.3766577
-0.0065340433
-0.40995188
0.021785384
-0.44976677
0.031984304
-0.49366289
0.025925416
-0.53729116
0.013556788
-0.57865667
0.0023326125
-0.61836057
-0.00402123
-0.6586394
-0.0056581636
-0.70173472
-0.0048450999
-0.74893128
-0.003431449
-0.80020112
-0.0020356091
-0.85553393
-0.0010978109
-0.91494488
-0.0005788862
-0.97845179
-0.00030756121
-1.0462136
-0.00016277267
-1.1185807
-8.3416637e-05
-1.1958759
-3.792072e-05
-1.2785586
-1.5639724e-05
-1.3670426
-0.036780421
-0.29652732
-0.042796376
-0.31796842
-0.034709407
-0.34548611
-0.0045093743
-0.37868237
0.029425898
-0.41759239
0.043154105
-0.46093657
0.036325905
-0.50406338
0.020391275
-0.54412564
0.0049314342
-0.58125549
-0.00442025
-0.61796155
-0.0071864606
-0.65711111
-0.0061716568
-0.70040816
-0.0042051679
-0.74815756
-0.0023847289
-0.799852
-0.0011077815
-0.85552396
-0.0004589616
-0.9150648
-0.00017674438
-0.9785826
-6.4100957e-05
-1.0463122
-2.2969387e-05
-1.1186412
-1.0491612e-05
-1.1959034
-6.4312438e-06
-1.2785678
-9.2978912e-06
-1.3670333
-0.033651654
-0.27476281
-0.046776977
-0.29254672
-0.036758055
-0.31591977
-0.0015014488
-0.34849404
0.037985738
-0.38724221
0.055844132
-0.43028242
0.048591431
-0.4732021
0.02874549
-0.51241759
0.0080592225
-0.54725343
-0.0052402054
-0.58043553
-0.0095555212
-0.61559249
-0.0082772877
-0.65500547
-0.0054112749
-0.69920205
-0.0029222878
-0.74762001
-0.0011591494
-0.79980063
-0.00028018588
-0.85570273
3.9441171e-05
-0.91528099
0.00011467338
-0.97876138
0.00010029496
-1.0464355
6.5799769e-05
-1.1187175
3.2697982e-05
-1.1959425
9.4366016e-06
-1.2785865
-8.3614771e-06
-1.367025
-0.030723658
-0.25486855
-0.051406989
-0.2701328
-0.039625775
-0.289679
0.0023368575
-0.31975808
0.048139698
-0.358648
0.070162474
-0.40156056
0.062795691
-0.44448668
0.038835405
-0.48329201
0.011861009
-0.51621938
-0.006583309
-0.54591033
-0.013029563
-0.57696149
-0.011411694
-0.61245809
-0.00726755
-0.6531492
-0.003676786
-0.69844755
-0.0012915505
-0.7474876
-3.4310436e-05
-0.80004651
0.0003623326
-0.85602562
0.00039134731
-0.91555766
0.00030172715
-0.97896281
0.00019843689
-1.0465681
0.00011373122
-1.1187985
5.2428354e-05
-1.1959855
1.3406752e-05
-1.2786083
-8.574064e-06
-1.3670164
-0.028204573
-0.23628791
-0.056538656
-0.24973688
-0.04331346
-0.26644511
0.0060583703
-0.29340051
0.060098549
-0.33171693
0.08614359
-0.37462911
0.078950186
-0.41771505
0.050831282
-0.45648256
0.01653739
-0.48796839
-0.0085503742
-0.51425232
-0.017899808
-0.54104008
-0.015857337
-0.57251585
-0.009974639
-0.609751
-0.0047749593
-0.65205102
-0.0014685898
-0.69827051
0.0002808866
-0.7478028
0.00082233297
-0.80050651
0.00079650408
-0.85643078
0.00060011039
-0.91585605
0.00039916373
-0.97916354
0.00024265631
-1.0466971
0.00013072191
-1.1188768
5.4645565e-05
-1.1960267
1.0496354e-05
-1.2786274
-1.121131e-05
-1.3670052
-0.026271323
-0.21893507
-0.06207712
-0.23074945
-0.04758497
-0.24546537
0.0090411693
-0.26942791
0.073251784
-0.30655375
0.10374826
-0.3493216
0.09687578
-0.39255471
0.064789977
-0.43167375
0.022274018
-0.46221918
-0.011245686
-0.48527308
-0.024518873
-0.50763325
-0.021942631
-0.53495479
-0.013733863
-0.56875662
-0.0063351831
-0.60819077
-0.0016729688
-0.65184665
0.0007087358
-0.69869836
0.0014701185
-0.74845059
0.0013739584
-0.80108396
0.0010271257
-0.8568578
0.00068574478
-0.91614263
0.00042684606
-0.97934772
0.00024778708
-1.0468141
0.00012577632
-1.1189479
4.5039438e-05
-1.1960613
1.3544107e-06
-1.2786399
-1.5232997e-05
-1.3669899
-0.024871922
-0.20281775
-0.067982993
-0.2130292
-0.052303618
-0.2260308
0.011260695
-0.2476849
0.086933369
-0.2831095
0.12259248
-0.32539797
0.116302
-0.36874782
0.080417855
-0.40818259
0.028987292
-0.43838702
-0.014833314
-0.45863156
-0.033262375
-0.47652958
-0.030055473
-0.49952041
-0.018784207
-0.52990444
-0.0084504312
-0.56664138
-0.0019110466
-0.60795269
0.0013236643
-0.65246157
0.002367566
-0.69959581
0.0021906833
-0.74926731
0.0016299196
-0.80168675
0.0010839679
-0.85725602
0.00067772154
-0.9163935
0.0004059264
-0.97950586
0.00022710489
-1.0469155
0.00010664942
-1.1190095
2.7973907e-05
-1.1960879
-1.2298374e-05
-1.2786429
-2.1038401e-05
-1.3669689
-0.023880421
-0.18791107
-0.074196796
-0.19660395
-0.057350919
-0.2079819
0.013084264
-0.22785437
0.10051986
-0.26127139
0.14205432
-0.30257134
0.13647057
-0.34556654
0.09706098
-0.38539095
0.036298743
-0.41549404
-0.019823788
-0.43339655
-0.044594635
-0.4472993
-0.040610833
-0.46597422
-0.025376081
-0.49292853
-0.011196912
-0.52715796
-0.0021901691
-0.56636225
0.0022115861
-0.60884062
0.00360922
-0.65370323
0.0033343247
-0.70073945
0.0024742199
-0.75011161
0.0016334591
-0.80223624
0.0010112915
-0.85758959
0.00060820244
-0.91659578
0.00035585005
-0.97963461
0.00019147815
-1.0470003
7.9380719e-05
-1.119061
5.4580414e-06
-1.1961057
-2.8652625e-05
-1.2786353
-2.9259566e-05
-1.3669396
-0.023276911
-0.17413204
-0.080637938
-0.18146993
-0.062621111
-0.19133375
0.014703959
-0.20960159
0.1136812
-0.2410157
0.16150228
-0.28071936
0.15658314
-0.3226839
0.11391598
-0.36242155
0.043964022
-0.39305622
-0.02679684
-0.40852099
-0.059103008
-0.41888817
-0.053969645
-0.43394048
-0.033760417
-0.45758988
-0.014625721
-0.48949972
-0.0024750189
-0.52687311
0.0034599989
-0.56761067
0.0053156106
-0.61054701
0.0049124671
-0.65528137
0.0036492287
-0.70191446
0.0023887831
-0.75086693
0.0014523448
-0.8026773
0.00085848379
-0.85783987
0.00050675269
-0.91674668
0.00029241122
-0.97973554
0.00014886943
-1.0470698
4.7440498e-05
-1.1191029
-1.9606779e-05
-1.1961147
-4.7094231e-05
-1.2786174
-3.9452765e-05
-1.3669002
-0.023048485
-0.16140539
-0.087244031
-0.16752595
-0.068037965
-0.17605308
0.016164153
-0.19279395
0.12631825
-0.22223865
0.18043645
-0.25994987
0.17620883
-0.30034505
0.13040059
-0.33916851
0.052352271
-0.3708098
-0.035009238
-0.38484383
-0.076989491
-0.3906345
-0.070227376
-0.40263044
-0.044075704
-0.4236252
-0.01875113
-0.45346447
-0.0026797304
-0.48929501
0.005166886
-0.52858
0.0076234226
-0.56991848
0.0070570843
-0.61269162
0.0052660644
-0.65689821
0.0034236503
-0.70294933
0.0020362497
-0.75145084
0.001163753
-0.80298257
0.00067160802
-0.85800473
0.00039717319
-0.91685144
0.00022688112
-0.97981355
0.00010442276
-1.0471267
1.3123909e-05
-1.1191357
-4.5825087e-05
-1.196116
-6.6826286e-05
-1.2785901
-5.033408e-05
-1.3668499
-0.024194051
-0.17630402
-0.09394793
-0.15470149
-0.073482506
-0.1620814
0.017488369
-0.17737729
0.13837221
-0.20484791
0.19855754
-0.24035974
0.19511899
-0.27886002
0.14637372
-0.31631818
0.060883906
-0.34770014
-0.042287449
-0.36353158
-0.097287505
-0.36454581
-0.089174187
-0.37168769
-0.056080704
-0.39062544
-0.023490346
-0.41888598
-0.0026770196
-0.45346718
0.0074559551
-0.49158408
0.010673733
-0.53163031
0.0099201229
-0.57278152
0.0074571137
-0.61488267
0.0048331947
-0.65830775
0.0028111993
-0.70372428
0.001535262
-0.75182235
0.00083974058
-0.8031507
0.00048745964
-0.85809501
0.00029607209
-0.91692063
0.00016618165
-0.97987531
6.1053324e-05
-1.0471747
-2.1065426e-05
-1.1191604
-7.2788153e-05
-1.19611
-8.6528863e-05
-1.2785539
-6.0705884e-05
-1.3667891
-0.025279645
-0.17521627
-0.10259668
-0.16765526
-0.078902372
-0.14928162
0.018679379
-0.16327242
0.14980585
-0.18881093
0.2156802
-0.22197056
0.21301267
-0.25825343
0.16170066
-0.29418696
0.068945811
-0.32438009
-0.048279259
-0.34170833
-0.1182578
-0.34256129
-0.11048793
-0.34323207
-0.069411023
-0.35835737
-0.028501209
-0.38561458
-0.0022867949
-0.41927621
0.010475169
-0.4564864
0.014608646
-0.495519
0.013663407
-0.53537359
0.010374267
-0.57569867
0.0067335763
-0.61678305
0.0038410876
-0.65933764
0.0019895756
-0.70417859
0.00099801416
-0.75198062
0.00053762699
-0.80320087
0.00033091522
-0.85812986
0.00021291594
-0.91696737
0.00011371371
-0.97992797
2.0652955e-05
-1.0472164
-5.4735421e-05
-1.1191785
-9.9361547e-05
-1.1960972
-0.00010534122
-1.2785092
-7.0427324e-05
-1.3667187
-0.026421604
-0.17415567
-0.11131847
-0.16649448
-0.086941821
-0.15961581
0.019838341
-0.15044058
0.16057397
-0.17404053
0.23168953
-0.20482027
0.22963991
-0.23859779
0.1761301
-0.27268287
0.076118665
-0.30135981
-0.054428371
-0.31823097
-0.13830689
-0.32165924
-0.13350138
-0.31954783
-0.084606169
-0.32803693
-0.03332654
-0.35353204
-0.0012361528
-0.38666522
0.014382589
-0.42318363
0.019564181
-0.46144193
0.018445401
-0.50030099
0.01418376
-0.53918309
0.0092620119
-0.57822711
0.0052074573
-0.61814942
0.0025506708
-0.65989873
0.001130239
-0.70431082
0.00051377971
-0.75195678
0.00029532426
-0.80316528
0.00021504576
-0.85813199
0.00015084652
-0.9170045
7.0325453e-05
-0.97997765
-1.6315232e-05
-1.0472548
-8.7145065e-05
-1.1191907
-0.000125533
-1.196077
-0.000123665
-1.278456
-7.960972e-05
-1.3666391
-0.027663266
-0.17315084
-0.12007663
-0.1653975
-0.094927101
-0.1585092
0.016700192
-0.15647766
0.17074628
-0.1606129
0.24653298
-0.18888398
0.24488164
-0.220062
0.1894422
-0.2519099
0.082341536
-0.27890574
-0.061271405
-0.29451678
-0.15711233
-0.29942554
-0.15637852
-0.2987821
-0.10223041
-0.30192359
-0.03844561
-0.32291785
0.00085177279
-0.35561997
0.019329959
-0.39161259
0.025661517
-0.42928096
0.024412029
-0.46740856
0.019057505
-0.50517474
0.012574897
-0.54249597
0.0070120251
-0.58003167
0.0032518887
-0.61885064
0.0012181496
-0.65998664
0.00037118763
-0.70416822
0.00014084412
-0.7518023
0.00013113482
-0.80308137
0.00014265679
-0.8581238
0.00010890101
-0.91704308
3.4848208e-05
-0.98002881
-4.996052e-05
-1.047292
-0.0001186816
-1.1191976
-0.00015138198
-1.1960493
-0.0001413214
-1.2783943
-8.8729245e-05
-1.3665504
-0.02908551
-0.17220098
-0.12882683
-0.16440065
-0.10282809
-0.15749651
0.013875672
-0.15568468
0.17573792
-0.1614693
0.26016164
-0.17424155
0.25871837
-0.20272071
0.20145756
-0.23207736
0.087608167
-0.25717653
-0.068582221
-0.27159492
-0.17474798
-0.27688113
-0.17743334
-0.27837072
-0.12141143
-0.27960108
-0.045516157
-0.29485304
0.0040824201
-0.3261485
0.025456017
-0.36174602
0.032984531
-0.3989356
0.031681663
-0.4365506
0.025161025
-0.47351208
0.01684482
-0.50944466
0.0093784684
-0.54486241
0.0041398107
-0.58091959
0.001241568
-0.61887406
5.4441109e-05
-0.6596699
-0.0001977681
-0.70382961
-9.5233028e-05
-0.75157593
4.7319977e-05
-0.80298603
0.00010972388
-0.85812462
8.345955e-05
-0.91709169
5.3529279e-06
-0.98008412
-8.2143732e-05
-1.0473285
-0.00014949952
-1.1191994
-0.000176603
-1.196014
-0.00015879091
-1.2783242
-9.7406762e-05
-1.366453
-0.030749539
-0.17134783
-0.13749712
-0.16353069
-0.11057132
-0.15665741
0.011332916
-0.15495376
0.18118594
-0.1611327
0.26938671
-0.17069437
0.27105471
-0.18657789
0.21208869
-0.21335185
0.091872586
-0.23634177
-0.076225686
-0.24953307
-0.19142207
-0.25492083
-0.19655413
-0.25776034
-0.14065247
-0.25912968
-0.055374155
-0.26974308
0.007543854
-0.29831447
0.032912104
-0.33360459
0.041558677
-0.37032017
0.04032558
-0.40757952
0.032633936
-0.44402351
0.022250755
-0.47891802
0.012455265
-0.51252145
0.005278085
-0.54600069
0.0011809566
-0.58085898
-0.00050502802
-0.61831459
-0.00080168771
-0.65906598
-0.00053723673
-0.70338761
-0.00019255473
-0.75133605
3.4494291e-05
-0.8029108
0.00010797285
-0.85814913
6.9703257e-05
-0.91715604
-2.0145758e-05
-0.98014612
-0.00011383406
-1.0473642
-0.00018012738
-1.1191959
-0.00020149018
-1.1959713
-0.00017565691
-1.278246
-0.00010576935
-1.3663472
-0.032725397
-0.17063712
-0.14602028
-0.16282467
-0.11804668
-0.15605533
0.0090587233
-0.15438322
0.18698541
-0.16075322
0.27879249
-0.17053848
0.28085244
-0.18049211
0.2212639
-0.1957531
0.095099118
-0.21657838
-0.084007653
-0.22855981
-0.20723595
-0.23371919
-0.2140389
-0.23743606
-0.15880421
-0.2396086
-0.067396639
-0.2471072
0.010163727
-0.27236295
0.041668627
-0.307071
0.051326128
-0.34337204
0.050359141
-0.38035373
0.041582191
-0.41652777
0.028971027
-0.45074378
0.016413895
-0.48287664
0.0067530803
-0.51399645
0.0010202557
-0.54583999
-0.0013905734
-0.57997344
-0.0017749482
-0.61734133
-0.0012905203
-0.65831269
-0.00065069763
-0.70292946
-0.00016984409
-0.75113171
7.6050285e-05
-0.80287888
0.00012441782
-0.85820385
6.1531487e-05
-0.91723772
-4.5462223e-05
-0.98021449
-0.00014618248
-1.0473981
-0.00021084689
-1.1191866
-0.00022609675
-1.1959208
-0.00019208887
-1.2781596
-0.00011374245
-1.3662335
-0.035048355
-0.17015059
-0.1543589
-0.16229849
-0.12513731
-0.15573405
0.007083295
-0.15407991
0.19300456
-0.16040238
0.28822997
-0.17019071
0.29031392
-0.17999996
0.23177838
-0.19100659
0.097405308
-0.19805929
-0.091770001
-0.20881603
-0.22214808
-0.21364768
-0.22997905
-0.21777904
-0.1753012
-0.22093906
-0.080179284
-0.22682596
0.011416121
-0.24835959
0.051408184
-0.28210251
0.062267816
-0.31801269
0.061713235
-0.35472614
0.052068631
-0.39084017
0.037178434
-0.42473518
0.021454991
-0.45578488
0.0086826363
-0.4848062
0.00075255187
-0.51372875
-0.0026995721
-0.54453099
-0.0032458077
-0.57850258
-0.0024741249
-0.61615772
-0.001421305
-0.65754209
-0.00056984875
-0.70252946
-5.7260006e-05
-0.7509984
0.00014720573
-0.80290166
0.00015081796
-0.85829313
5.371654e-05
-0.91733689
-7.2823059e-05
-0.98028785
-0.00017969633
-1.0474293
-0.0002418918
-1.1191708
-0.00025031024
-1.1958626
-0.00020787874
-1.2780655
-0.00012133831
-1.3661121
-0.037697687
-0.17001926
-0.1623988
-0.1621107
-0.13175257
-0.15568322
0.0054381656
-0.15408892
0.19914629
-0.16022163
0.2975373
-0.1697097
0.29924311
-0.1791199
0.24163
-0.18985158
0.10703679
-0.20063808
-0.099159754
-0.19066954
-0.23604722
-0.19491689
-0.24443561
-0.19919111
-0.18999918
-0.20308107
-0.092660557
-0.20845779
0.011111794
-0.22652163
0.061701432
-0.25865284
0.074355253
-0.29418995
0.074277319
-0.33057677
0.064112812
-0.36677032
0.047025399
-0.40068714
0.027805876
-0.43108607
0.011224759
-0.458327
0.00038640568
-0.48444005
-0.0045436066
-0.51188471
-0.0053708975
-0.5424059
-0.0042352095
-0.57674149
-0.002621769
-0.61495726
-0.0012497834
-0.65686215
-0.00034604523
-0.70224067
0.0001062337
-0.75095743
0.00023281385
-0.80298366
0.000178951
-0.85841837
4.2064033e-05
-0.91745178
-0.00010348969
-0.98036406
-0.00021482504
-1.0474564
-0.00027316072
-1.1191479
-0.00027399808
-1.1957965
-0.00022314215
-1.2779637
-0.00012854426
-1.3659836
-0.17029289
-0.040666494
-0.16998897
-0.16242909
-0.13787502
-0.15598825
0.0042117846
-0.15445684
0.20531959
-0.16026222
0.30652004
-0.16920438
0.30748323
-0.17794981
0.25052287
-0.18801277
0.11593195
-0.19874674
-0.095500979
-0.20429685
-0.24897482
-0.17774194
-0.25738479
-0.18196771
-0.20295891
-0.18623138
-0.10415824
-0.19158338
0.0094738151
-0.20681981
0.071951715
-0.23677191
0.087522846
-0.27182043
0.087899053
-0.30781168
0.077669488
-0.34413344
0.058639494
-0.37838441
0.035714428
-0.40859569
0.014584465
-0.43444577
-4.493364e-05
-0.45789566
-0.0070426261
-0.48194103
-0.0083390913
-0.50891652
-0.0067525655
-0.53988854
-0.0043930354
-0.57497022
-0.0023108577
-0.61389619
-0.00085775606
-0.65635044
-3.8695847e-05
-0.70209574
0.00029088274
-0.7510155
0.00032167761
-0.80312639
0.00019954418
-0.85857585
2.3914209e-05
-0.91757919
-0.00013828152
-0.9804406
-0.00025165558
-1.0474779
-0.00030460392
-1.1191173
-0.00029726858
-1.1957224
-0.00023775954
-1.2778545
-0.00013530871
-1.3658483
-0.16332501
-0.17695684
-0.17102575
-0.043839216
-0.14352327
-0.15678085
0.0034598808
-0.15523635
0.21149308
-0.16063034
0.31499579
-0.16873797
0.31487594
-0.17659709
0.25821908
-0.18564602
0.12372054
-0.19580137
-0.091471894
-0.20277583
-0.25492387
-0.1983478
-0.26894831
-0.16617842
-0.21425981
-0.17066681
-0.11435833
-0.17603129
0.006907612
-0.18901718
0.08167885
-0.21654695
0.10156692
-0.25081599
0.10242123
-0.28634261
0.092608001
-0.32275019
0.072104839
-0.35759879
0.045440552
-0.38811053
0.019023359
-0.41303458
-0.00047294807
-0.43401776
-0.010329775
-0.45460851
-0.012377265
-0.47790286
-0.010241683
-0.5054274
-0.0069024735
-0.5373791
-0.0038711694
-0.57340991
-0.0016704508
-0.61308349
-0.00033633231
-0.6560528
0.00029940707
-0.70210427
0.00047520808
-0.75116903
0.00039974131
-0.80332658
0.00020772357
-0.85875966
-3.2042344e-06
-0.91771426
-0.00017745941
-0.9805148
-0.00029010243
-1.0474924
-0.00033613973
-1.1190784
-0.00031983534
-1.1956403
-0.00025160356
-1.2777382
-0.000141611
-1.3657067
-0.15832153
-0.14852675
-0.16490135
-0.18308125
-0.1721459
-0.047164935
0.0032332615
-0.15655423
0.21767109
-0.16141436
0.32277997
-0.16841452
0.32132184
-0.17518387
0.26458456
-0.18296257
0.13010388
-0.19202935
-0.087633406
-0.19963985
-0.25996854
-0.19773116
-0.2798825
-0.18741361
-0.22408714
-0.15635108
-0.12324019
-0.16178495
0.0038432681
-0.17296695
0.090663939
-0.19800227
0.11616094
-0.23114096
0.11770179
-0.26609655
0.10874066
-0.30247527
0.087458115
-0.33810347
0.057245908
-0.36940415
0.024859351
-0.39394653
-0.00078834526
-0.41271919
-0.014556114
-0.42979142
-0.017755192
-0.44923058
-0.014961073
-0.47318347
-0.010345695
-0.50198418
-0.0060652903
-0.53518498
-0.0028720568
-0.57220831
-0.00083919488
-0.61258063
0.00023072029
-0.65598412
0.00063338291
-0.70226244
0.00064404
-0.75141333
0.00045642216
-0.80357528
0.00020015598
-0.85896302
-3.9349197e-05
-0.91785237
-0.00022094475
-0.98058396
-0.000329847
-1.0474987
-0.00036736765
-1.1190309
-0.00034155019
-1.1955503
-0.00026466957
-1.2776151
-0.00014743835
-1.3655592
-0.15860231
0.0035140367
-0.16070732
-0.15272077
-0.16683576
-0.18839138
-0.17362579
-0.050646047
0.22381242
-0.16269556
0.32966727
-0.16830166
0.32673685
-0.17382953
0.26945606
-0.18005537
0.13490941
-0.18776811
-0.083993023
-0.19566973
-0.26412436
-0.19548404
-0.28966422
-0.18794944
-0.23892965
-0.17257109
-0.13095322
-0.14863805
0.00061372244
-0.15855541
0.098767787
-0.1810708
0.13095392
-0.21279525
0.13355603
-0.24699521
0.12583315
-0.28318904
0.10461398
-0.31963114
0.071322622
-0.35218018
0.032457205
-0.377002
-0.00081203442
-0.39392284
-0.01987382
-0.40740148
-0.024788266
-0.42275834
-0.021215849
-0.44297581
-0.014945144
-0.46858402
-0.0090421753
-0.49900729
-0.0045559777
-0.53350106
-0.0016029226
-0.57144458
5.7722163e-05
-0.61240763
0.0007863669
-0.6561371
0.00093701537
-0.70255542
0.00077916472
-0.75173607
0.00048550289
-0.80386063
0.00017595499
-0.85917832
-8.4287743e-05
-0.91798903
-0.00026820648
-0.9806456
-0.00037043881
-1.0474956
-0.00039808789
-1.1189744
-0.00036232464
-1.1954527
-0.00027684661
-1.2774857
-0.00015273948
-1.3654065
-0.16449775
0.22970787
-0.16120005
0.0040067638
-0.16357271
-0.15598382
-0.16916382
-0.19285335
-0.1755258
-0.054124313
0.33544374
-0.16847202
0.33106298
-0.17262779
0.27273959
-0.17711305
0.13807685
-0.18322281
-0.080849311
-0.19091182
-0.26737732
-0.19241677
-0.29818975
-0.1869585
-0.25234124
-0.17453786
-0.14934879
-0.15417553
-0.0024976492
-0.14552668
0.10591078
-0.1656984
0.14563578
-0.19575265
0.14973916
-0.22897838
0.14355682
-0.26471888
0.12316152
-0.30173658
0.087449061
-0.33575758
0.041925367
-0.36164835
-0.00034327463
-0.37747076
-0.026413635
-0.38738302
-0.033843872
-0.39834587
-0.029363659
-0.41461053
-0.020948538
-0.43697241
-0.01295802
-0.46466818
-0.0068168485
-0.49674642
-0.0026814987
-0.53242249
-0.00024624326
-0.57114061
0.00092875758
-0.61255002
0.0012885273
-0.65648861
0.0011902131
-0.70296647
0.00086958638
-0.75212016
0.00048617658
-0.80417085
0.0001354261
-0.85939804
-0.00013725519
-0.91811998
-0.00031852826
-0.98069751
-0.000411393
-1.0474823
-0.00042796718
-1.1189087
-0.00038192864
-1.1953476
-0.00028805256
-1.2773504
-0.00015752008
-1.365249
-0.16901791
0.3399639
-0.16628214
0.23478995
-0.1645076
0.0049416568
-0.16686528
-0.15828236
-0.17191383
-0.19646532
-0.17777321
-0.057386453
0.33420177
-0.17161082
0.27444953
-0.17433773
0.13954164
-0.17857784
-0.078555122
-0.18551699
-0.26985274
-0.1884364
-0.30555789
-0.18504863
-0.26432954
-0.1749702
-0.16617038
-0.15771626
-0.02058307
-0.13609011
0.11244424
-0.15206014
0.15985065
-0.17991327
0.16599553
-0.21200902
0.1614956
-0.24691716
0.14232801
-0.28388537
0.10442051
-0.31870802
0.052456675
-0.34628888
0.00021066131
-0.36220228
-0.034478011
-0.36940638
-0.045333392
-0.3758935
-0.039827303
-0.38788223
-0.028628585
-0.40693049
-0.017968632
-0.4319618
-0.0097437213
-0.46174131
-0.0041207036
-0.49530722
-0.00070169273
-0.53196704
0.0010590518
-0.57127091
0.0017107679
-0.61297226
0.0017104917
-0.65700889
0.0013748768
-0.70347176
0.00091334602
-0.75254733
0.00045886503
-0.80449429
8.0219567e-05
-0.85961551
-0.00019709514
-0.91824141
-0.00037098346
-0.98073792
-0.00045210801
-1.0474581
-0.00045665768
-1.118834
-0.00040022773
-1.1952354
-0.00029826316
-1.2772097
-0.00016174498
-1.3650872
-0.1709207
0.33610457
-0.16923237
0.34291413
-0.16892865
0.239211
-0.16821055
0.0062869246
-0.17053058
-0.15966562
-0.17505174
-0.19918679
-0.1802726
-0.060295343
0.27463045
-0.17179174
0.13925117
-0.17404727
-0.077259406
-0.17987356
-0.27144232
-0.18392742
-0.31168342
-0.18231087
-0.27490908
-0.17446909
-0.18140827
-0.15973232
-0.038355796
-0.13994354
0.10523168
-0.12887755
0.17357162
-0.16578111
0.18202193
-0.19593967
0.17920536
-0.22971878
0.1612868
-0.26587595
0.12076367
-0.30022853
0.062312765
-0.32856411
-0.00066511596
-0.34541311
-0.045515707
-0.35116459
-0.05987583
-0.35486395
-0.053103205
-0.3626176
-0.038280293
-0.37823052
-0.024215774
-0.40068335
-0.013408705
-0.42829682
-0.0059532684
-0.45990874
-0.001316894
-0.49469202
0.0011851993
-0.53209318
0.0022241804
-0.57178432
0.0023673153
-0.61362908
0.0020304307
-0.65766445
0.0014854905
-0.7040439
0.00091143058
-0.75299989
0.00040577715
-0.80481985
1.1915722e-05
-0.85982452
-0.00026233091
-0.91835007
-0.00042460877
-0.98076542
-0.00049201403
-1.0474228
-0.00048390322
-1.1187503
-0.00041711791
-1.1951166
-0.00030739847
-1.277064
-0.00016541771
-1.3649218
-0.16958369
0.27329343
-0.16978572
0.33665791
-0.17063368
0.34461917
-0.17172033
0.24272078
-0.17223423
0.0079905752
-0.17454407
-0.16017329
-0.17842355
-0.20103583
-0.1829973
-0.062813928
0.13721876
-0.16975933
-0.077033818
-0.17427286
-0.27215868
-0.1791572
-0.31655809
-0.17905275
-0.28401613
-0.17320381
-0.19509778
-0.16077958
-0.0551088
-0.14297931
0.096618487
-0.13133034
0.17837995
-0.13368588
0.1976212
-0.18138038
0.19623134
-0.21296565
0.17938481
-0.24781679
0.13588033
-0.28099261
0.07060787
-0.30852364
-0.004112251
-0.32511698
-0.062115739
-0.32881307
-0.078643774
-0.33239664
-0.069699735
-0.33826742
-0.050240768
-0.35065713
-0.031817412
-0.37062888
-0.01785317
-0.39623888
-0.0081909317
-0.42605916
-0.0020827239
-0.45914291
0.0013289459
-0.49483576
0.0028590106
-0.53272801
0.0031970365
-0.57261404
0.0028733212
-0.61447197
0.0022386307
-0.65841759
0.0015249927
-0.70465747
0.0008675763
-0.75346169
0.00033003742
-0.80513797
-6.7858764e-05
-0.86001899
-0.00033126763
-0.91844341
-0.00047841084
-0.98077902
-0.00053060613
-1.0473761
-0.00050942543
-1.118658
-0.00043245464
-1.1949915
-0.00031545374
-1.276914
-0.00016852809
-1.3647533
-0.16580902
0.1334441
-0.16724137
0.27074908
-0.1700074
0.33603163
-0.17217971
0.34507855
-0.17475489
0.24524145
-0.17654771
0.0099942159
-0.17880937
-0.15978748
-0.18193502
-0.20209811
-0.18578569
-0.064906322
-0.077940805
-0.16885234
-0.27209995
-0.17433158
-0.320196
-0.17551929
-0.29165983
-0.17140905
-0.20732251
-0.16097908
-0.070560243
-0.14532814
0.087298741
-0.13365956
0.18286297
-0.13581336
0.20710249
-0.14316716
0.21226189
-0.19741094
0.1963255
-0.22990633
0.14971964
-0.26165609
0.077037731
-0.28742247
-0.010981486
-0.3016544
-0.084688934
-0.30254378
-0.10293801
-0.30451884
-0.089599296
-0.31249708
-0.064646356
-0.32386183
-0.040865815
-0.34160872
-0.023071955
-0.3654101
-0.010814491
-0.39361532
-0.0029704655
-0.42517141
0.0015243495
-0.45933832
0.0036532259
-0.49562998
0.0042440391
-0.53377502
0.0039492993
-0.57369002
0.0032158334
-0.61544918
0.0023389585
-0.65923155
0.0014991983
-0.70528909
0.00078680052
-0.75391845
0.00023547612
-0.8054413
-0.00015495576
-0.86019531
-0.00040228717
-0.91851953
-0.00053148327
-0.98077814
-0.000567377
-1.0473181
-0.00053301297
-1.1185575
-0.00044620439
-1.1948608
-0.00032239969
-1.2767601
-0.00017107826
-1.3645822
-0.16386064
-0.079889185
-0.16242633
0.12862907
-0.16608802
0.2668297