/*--------------------------------*- C++ -*----------------------------------*\
| =========                 |                                                 |
| \\      /  F ield         | OpenFOAM: The Open Source CFD Toolbox           |
|  \\    /   O peration     | Version:  5.0                                   |
|   \\  /    A nd           | Web:      www.OpenFOAM.org                      |
|    \\/     M anipulation  |                                                 |
\*---------------------------------------------------------------------------*/
FoamFile
{
    version     2.0;
    format      ascii;
    class       surfaceScalarField;
    location    "120";
    object      phi_0;
}
// * * * * * * * * * * * * * * * * * * * * * * * * * * * * * * * * * * * * * //

dimensions      [0 3 -1 0 0 0 0];

internalField   nonuniform List<scalar> 
18180
(
-0.011533974
-1.4086097
-0.022544193
-1.3156247
-0.0087225499
-1.3998872
-0.032900557
-1.2279673
-0.016800506
-1.3075467
-0.0072984756
-1.3925887
-0.042803105
-1.144879
-0.024171951
-1.2205958
-0.013967722
-1.3008775
-0.005661867
-1.3869268
-0.052077762
-1.0664563
-0.030801649
-1.1382493
-0.02000354
-1.21456
-0.010767737
-1.2957716
-0.004497682
-1.3824292
-0.060600341
-0.99244986
-0.036536599
-1.0607213
-0.02529819
-1.1329546
-0.015272252
-1.2100555
-0.0085214282
-1.2917479
-0.003521312
-1.3789078
-0.06812426
-0.92278519
-0.041285701
-0.98770076
-0.029776602
-1.0562429
-0.01904975
-1.1291771
-0.011989786
-1.2065871
-0.0066451341
-1.2886241
-0.0027609617
-1.3761469
-0.074422847
-0.85737319
-0.044954886
-0.91911601
-0.033371042
-0.98410632
-0.022057716
-1.0532349
-0.014789703
-1.1263772
-0.00927158
-1.2039607
-0.0051869105
-1.2861981
-0.0021672225
-1.3739797
-0.079326998
-0.79614549
-0.047537187
-0.85479089
-0.036063892
-0.91642316
-0.024229147
-0.98193489
-0.016863752
-1.0511609
-0.011298802
-1.12435
-0.0071831733
-1.2019644
-0.004050469
-1.2843149
-0.0017056696
-1.372274
-0.082691674
-0.73888197
-0.049157917
-0.79452476
-0.037860545
-0.85299423
-0.025540887
-0.91511142
-0.018151682
-0.98064696
-0.012670041
-1.0497896
-0.0086643528
-1.1228688
-0.0055765136
-1.2004384
-0.003170695
-1.2828498
-0.0013457135
-1.3709283
-0.084338279
-0.68549242
-0.049873077
-0.73816681
-0.038752565
-0.79363274
-0.025994833
-0.85254029
-0.018619043
-0.91464406
-0.013328917
-0.97998808
-0.0095803977
-1.0488736
-0.0066784771
-1.1217668
-0.0043500575
-1.199259
-0.0024855938
-1.28171
-0.0010633177
-1.369865
-0.084168367
-0.6359571
-0.049692247
-0.68567325
-0.038771911
-0.73814746
-0.025631125
-0.79399644
-0.018243783
-0.85291555
-0.013230701
-0.91474228
-0.0098852261
-0.97968325
-0.0073213121
-1.0482308
-0.005194811
-1.1209221
-0.003406362
-1.1983383
-0.0019455145
-1.2808278
-0.00083663648
-1.3690283
-0.082086979
-0.59013943
-0.048767077
-0.63688227
-0.03809777
-0.68634739
-0.024528896
-0.73924969
-0.01701775
-0.79522248
-0.012330387
-0.85381586
-0.009537664
-0.91508984
-0.0074758568
-0.97952871
-0.0056896149
-1.047736
-0.0040728365
-1.1202556
-0.0026674013
-1.1976164
-0.0015116132
-1.2801528
-0.00064669126
-1.3683816
-0.078102167
-0.54776103
-0.047321085
-0.59158542
-0.036978844
-0.6380012
-0.022817827
-0.68805846
-0.014953065
-0.74131438
-0.010574742
-0.79697812
-0.008489639
-0.85486389
-0.0071190463
-0.91544665
-0.005825537
-0.97939279
-0.0044901089
-1.0473187
-0.0032013777
-1.1197216
-0.0020739985
-1.197054
-0.0011563141
-1.2796432
-0.00048193413
-1.3678997
-0.072662567
-0.5086722
-0.045472926
-0.54960919
-0.035667722
-0.59289654
-0.020657127
-0.6401619
-0.01208444
-0.69092709
-0.0079069208
-0.7439822
-0.0066816456
-0.79878612
-0.0062205994
-0.85576233
-0.005605592
-0.91566659
-0.0046684051
-0.97921449
-0.0035690709
-1.046951
-0.0024985825
-1.119297
-0.0015861473
-1.1966241
-0.0008627483
-1.2792624
-0.00034084134
-1.3675589
-0.066418155
-0.47254767
-0.043463174
-0.51068195
-0.034438522
-0.55083839
-0.018266114
-0.59528756
-0.0084471197
-0.64379922
-0.0042552061
-0.6945788
-0.0040422492
-0.74662159
-0.0047616211
-0.80024509
-0.005035061
-0.85633287
-0.0046376395
-0.91569736
-0.0037942795
-0.97898928
-0.0028156932
-1.0466339
-0.0019114138
-1.1189718
-0.0011805967
-1.1963063
-0.00062220279
-1.278981
-0.00022787582
-1.367331
-0.059941091
-0.4388656
-0.04155938
-0.47445147
-0.033540614
-0.51157986
-0.015873506
-0.553231
-0.0040297633
-0.59970491
0.00047070873
-0.64852513
-0.00046298018
-0.69815807
-0.0026898245
-0.74869339
-0.0041651216
-0.80111503
-0.004452319
-0.85651819
-0.0039326004
-0.91555904
-0.0030608333
-0.97874414
-0.0021625753
-1.0463827
-0.0014126172
-1.1187398
-0.00084557381
-1.1960829
-0.00042997018
-1.2787789
-0.0001455893
-1.3671854
-0.053664814
-0.40728031
-0.039889342
-0.44053563
-0.033107656
-0.47488442
-0.013593431
-0.51385994
0.0011893246
-0.55845009
0.0063506395
-0.60558484
0.0041821399
-0.65317025
9.5124534e-05
-0.70094302
-0.0029886222
-0.74986989
-0.0041950842
-0.80137227
-0.004079247
-0.85637154
-0.0033042693
-0.9153156
-0.0023779791
-0.97852874
-0.0015835019
-1.0462118
-0.00099241059
-1.1185929
-0.00057455496
-1.1959383
-0.00028163561
-1.2786429
-9.019236e-05
-1.3670952
-0.048007865
-0.37722679
-0.038733524
-0.40843613
-0.033069794
-0.4405735
-0.01148698
-0.47699088
0.0071064561
-0.51977707
0.013425628
-0.56552508
0.01002841
-0.61143112
0.0036897441
-0.65676487
-0.0014687154
-0.70246292
-0.0039471895
-0.75011778
-0.0042794646
-0.80117205
-0.0036309351
-0.85604487
-0.0026197142
-0.91507387
-0.0017208568
-0.97839139
-0.0010790367
-1.0461252
-0.00064774392
-1.1185197
-0.00036208291
-1.1958579
-0.00017142964
-1.2785616
-5.3991201e-05
-1.3670412
-0.043438255
-0.3483363
-0.038519233
-0.37744108
-0.0334101
-0.40809583
-0.0096832204
-0.44237725
0.013556969
-0.48344139
0.021746479
-0.52809792
0.017222638
-0.5727193
0.0082306941
-0.61597207
0.00041437655
-0.65864796
-0.0037784814
-0.70263163
-0.0047045534
-0.7496927
-0.004091828
-0.80071116
-0.0029511709
-0.85571342
-0.0018739571
-0.91492077
-0.0011178773
-0.97835254
-0.0006573655
-1.0461156
-0.00037567843
-1.1185061
-0.00020215773
-1.1958272
-9.2817801e-05
-1.2785228
-3.0391438e-05
-1.3670108
-0.039755017
-0.32104411
-0.039973638
-0.34688189
-0.034251557
-0.37659962
-0.0081104793
-0.40966857
0.020421017
-0.4492413
0.031380862
-0.49307577
0.025939072
-0.53681435
0.013888878
-0.57837749
0.0027113079
-0.618269
-0.0037722134
-0.65865423
-0.0055660324
-0.70177015
-0.0048408198
-0.7489437
-0.0034705766
-0.80019175
-0.0020846286
-0.85550275
-0.001136582
-0.91490206
-0.00060391353
-0.978406
-0.0003227729
-1.0461685
-0.00017144838
-1.1185368
-8.796944e-05
-1.195832
-3.9807334e-05
-1.2785134
-1.5883702e-05
-1.3669949
-0.036350669
-0.29664847
-0.042962568
-0.31805518
-0.035728637
-0.34540481
-0.0063380649
-0.37837204
0.027762267
-0.41700982
0.042400167
-0.46026061
0.036360067
-0.50349677
0.020867461
-0.54379293
0.0054980963
-0.58116428
-0.0040263088
-0.6180149
-0.0070253365
-0.65719493
-0.0061545528
-0.70045642
-0.0042494003
-0.74816488
-0.002447959
-0.79982842
-0.0011592639
-0.85548007
-0.00049117995
-0.9150148
-0.00019512114
-0.97853365
-7.4008808e-05
-1.0462659
-2.8034149e-05
-1.1185968
-1.2755692e-05
-1.1958591
-7.2063309e-06
-1.278522
-9.1291436e-06
-1.3669858
-0.032954036
-0.27491018
-0.046945386
-0.29266566
-0.037968341
-0.31581548
-0.00362784
-0.34811504
0.035980841
-0.38659061
0.054904646
-0.4295143
0.048636732
-0.47253727
0.02939122
-0.51202053
0.0088683372
-0.54716318
-0.0046497602
-0.58054083
-0.0092992622
-0.61574098
-0.0082449595
-0.65510452
-0.0054724414
-0.69923338
-0.0030056362
-0.7476072
-0.0012314639
-0.79975622
-0.00032370323
-0.85564754
1.6529376e-05
-0.91522645
0.00010344444
-0.9787111
9.5250349e-05
-1.0463892
6.3823348e-05
-1.1186734
3.2088072e-05
-1.1958984
9.5192255e-06
-1.2785407
-8.0407594e-06
-1.3669778
-0.029737749
-0.25503644
-0.051565301
-0.27029026
-0.041043472
-0.28959053
-0.00014475748
-0.31929856
0.045780269
-0.35791447
0.069013657
-0.40069962
0.062840784
-0.44371835
0.039672489
-0.48281854
0.012975215
-0.5161274
-0.0057318908
-0.54608104
-0.01264666
-0.57719343
-0.011362379
-0.61262356
-0.0073598013
-0.65321716
-0.0037942318
-0.69844479
-0.0013942684
-0.7474444
-9.6084587e-05
-0.79998384
0.00033156201
-0.85596258
0.00037826416
-0.91550127
0.00029745474
-0.97891331
0.00019772801
-1.0465231
0.00011416574
-1.1187554
5.3130722e-05
-1.195942
1.4016139e-05
-1.2785628
-8.4565703e-06
-1.3669693
-0.026922471
-0.23647495
-0.056667002
-0.24993474
-0.044921523
-0.26641221
0.0031715112
-0.29290679
0.057375917
-0.33089421
0.084780491
-0.3736813
0.078982462
-0.4168413
0.051876433
-0.45592229
0.018027373
-0.4878707
-0.0073547357
-0.51450456
-0.017351376
-0.54137633
-0.015791599
-0.57276421
-0.010116783
-0.60986657
-0.0049492162
-0.65206218
-0.0016131827
-0.69822587
0.00018952756
-0.74773001
0.00077936458
-0.80043165
0.00078060242
-0.85636491
0.00059713116
-0.91580095
0.00040091331
-0.97911649
0.00024525869
-1.0466542
0.00013287115
-1.1188352
5.6180968e-05
-1.1959841
1.134162e-05
-1.2785826
-1.1030411e-05
-1.3669583
-0.024688933
-0.21914422
-0.062165728
-0.23097622
-0.0493731
-0.24548316
0.0056939408
-0.26893464
0.070130192
-0.30566107
0.10217905
-0.34829277
0.096892717
-0.39159155
0.066067293
-0.43103216
0.024219987
-0.46211491
-0.00960023
-0.48562521
-0.023756168
-0.50809977
-0.021861819
-0.53530611
-0.013951233
-0.56892976
-0.0065951288
-0.60822066
-0.0018792675
-0.65179609
0.00057516515
-0.69861151
0.0014078199
-0.74835847
0.0013530924
-0.80100414
0.0010260809
-0.85679386
0.00069151968
-0.91609155
0.00043318854
-0.97930442
0.00025261689
-1.046774
0.0001289543
-1.118908
4.6984767e-05
-1.1960198
2.3233032e-06
-1.2785959
-1.5032107e-05
-1.3669432
-0.022991788
-0.20305179
-0.068029433
-0.21328052
-0.054272765
-0.22607656
0.007426303
-0.24721553
0.083372564
-0.28217701
0.12083725
-0.32431927
0.11630506
-0.36770511
0.081964426
-0.40748869
0.031486986
-0.43829916
-0.012600022
-0.45911511
-0.032225641
-0.47715573
-0.029964616
-0.49999697
-0.019111062
-0.53014628
-0.0088316855
-0.5666932
-0.0022071503
-0.60789278
0.0011332202
-0.65235415
0.0022760223
-0.69947971
0.0021618796
-0.74916725
0.0016313374
-0.80160939
0.0010958999
-0.85719824
0.00069008626
-0.91634845
0.00041521736
-0.97946702
0.00023311252
-1.0468781
0.00011024148
-1.1189712
3.0025741e-05
-1.1960475
-1.1158262e-05
-1.2785998
-2.0729836e-05
-1.3669225
-0.021717247
-0.18816417
-0.074212596
-0.19686862
-0.059507795
-0.20804549
0.008759185
-0.22740944
0.09649137
-0.26033433
0.14015695
-0.30149671
0.13651059
-0.3445248
0.098933096
-0.38467378
0.039451145
-0.41545285
-0.016826794
-0.43407239
-0.043219509
-0.44812125
-0.040520464
-0.46659988
-0.025858554
-0.49324948
-0.011745187
-0.52723278
-0.0026102745
-0.56629008
0.0019448153
-0.60870437
0.0034768247
-0.65355495
0.0032931754
-0.70061101
0.0024787788
-0.7500147
0.0016544626
-0.80216795
0.0010329436
-0.8575411
0.00062461112
-0.91655784
0.00036647476
-0.97960039
0.00019776493
-1.0469656
8.2928724e-05
-1.1190241
7.5324079e-06
-1.1960662
-2.7577779e-05
-1.2785929
-2.8793757e-05
-1.3668937
-0.020842827
-0.17439918
-0.080638262
-0.18173851
-0.064970121
-0.1914063
0.0098904038
-0.20917671
0.10918135
-0.24009943
0.15948849
-0.27966587
0.15670321
-0.32168933
0.11614005
-0.36173175
0.047835802
-0.39305844
-0.022860394
-0.40941925
-0.057351721
-0.41994017
-0.053904681
-0.43473703
-0.034459301
-0.45799914
-0.015398728
-0.48959594
-0.0030590077
-0.52678404
0.0030916099
-0.56743687
0.0051288155
-0.61035636
0.004853009
-0.65511478
0.0036577857
-0.70179001
0.0024227777
-0.75078301
0.0014879233
-0.80262293
0.00088588429
-0.85780237
0.00052467962
-0.91671605
0.00030297555
-0.9797056
0.000154749
-1.0470375
5.0663652e-05
-1.1190672
-1.7903669e-05
-1.1960758
-4.607268e-05
-1.2785757
-3.8903312e-05
-1.3668548
-0.020346811
-0.16168255
-0.087238596
-0.16779884
-0.070576221
-0.17613241
0.010873393
-0.19238929
0.12135839
-0.22135374
0.17832328
-0.25893422
0.17641953
-0.29938219
0.13295355
-0.33850284
0.056842845
-0.37073879
-0.030044392
-0.38587444
-0.074880504
-0.39189046
-0.070248285
-0.40359657
-0.045070376
-0.42412595
-0.0198208
-0.45357707
-0.003473684
-0.48918126
0.0046671417
-0.52835958
0.0073658158
-0.56967387
0.0069721331
-0.61247549
0.005279358
-0.65673636
0.0034758988
-0.70284313
0.0020921833
-0.75138727
0.0012077114
-0.80294476
0.00070076169
-0.85797846
0.00041441563
-0.91682749
0.00023631407
-0.97978716
0.0001094148
-1.0470962
1.5761973e-05
-1.1191009
-4.4382561e-05
-1.1960775
-6.5923905e-05
-1.2785486
-4.9839332e-05
-1.366805
-0.021187797
-0.17663227
-0.093938537
-0.15498261
-0.076207798
-0.16216727
0.011735831
-0.17699485
0.13297116
-0.20400206
0.19636777
-0.23939824
0.19541168
-0.27792637
0.14925344
-0.31568207
0.065904924
-0.34756491
-0.036275426
-0.36450776
-0.094861946
-0.365893
-0.089362327
-0.37277642
-0.057467553
-0.39119939
-0.024942008
-0.41900475
-0.0037324241
-0.45331832
0.0067930416
-0.49130716
0.010325986
-0.53131975
0.0098012709
-0.57250301
0.0074756945
-0.61467182
0.004910461
-0.65817092
0.0028962014
-0.70364715
0.0016036112
-0.75178317
0.00088580182
-0.8031298
0.0005148865
-0.85807893
0.00031093595
-0.91690211
0.00017374758
-0.9798515
6.4836997e-05
-1.0471453
-1.9097597e-05
-1.1191262
-7.1710714e-05
-1.1960718
-8.5844262e-05
-1.2785126
-6.0338119e-05
-1.3667446
-0.021953884
-0.17557515
-0.10256261
-0.16800819
-0.08182175
-0.14936865
0.012482543
-0.16291398
0.14398496
-0.18800864
0.2134404
-0.22107469
0.21340523
-0.25739179
0.16491598
-0.29358891
0.074536008
-0.32431316
-0.041219287
-0.34262105
-0.11541757
-0.34395214
-0.11086009
-0.34439523
-0.071278532
-0.35896544
-0.030423446
-0.38571796
-0.0036576438
-0.41907953
0.0096176523
-0.45614294
0.014149869
-0.49513104
0.013500674
-0.53501915
0.010398341
-0.57542566
0.0068440762
-0.61660544
0.0039666481
-0.65924136
0.0020930986
-0.70413664
0.0010690253
-0.75196639
0.00058030998
-0.80319522
0.00035397875
-0.85812197
0.00022428432
-0.91695265
0.0001190015
-0.97990566
2.3098768e-05
-1.0471875
-5.3552135e-05
-1.1191444
-9.8660446e-05
-1.1960589
-0.000104873
-1.2784681
-7.0164708e-05
-1.3666745
-0.02276516
-0.17454227
-0.11126127
-0.16687649
-0.09001121
-0.15981873
0.013218612
-0.15010472
0.15435635
-0.17328537
0.22942669
-0.20399494
0.23014809
-0.23781754
0.17965643
-0.27213224
0.082356983
-0.30140989
-0.046391748
-0.3191407
-0.13498591
-0.32305271
-0.13402982
-0.32078241
-0.086985644
-0.32868812
-0.035801932
-0.35358696
-0.0029700613
-0.38640554
0.013301995
-0.42276387
0.018973179
-0.46096625
0.018226838
-0.49985721
0.014212736
-0.53883354
0.0094151563
-0.57799674
0.005388224
-0.61802701
0.0027038272
-0.65985209
0.0012373917
-0.70430501
0.00057892038
-0.751965
0.00033052621
-0.80317177
0.00023205983
-0.85812974
0.00015825035
-0.9169919
7.3242724e-05
-0.9799558
-1.529885e-05
-1.0472257
-8.6645114e-05
-1.1191564
-0.00012514488
-1.1960387
-0.00012335615
-1.2784149
-7.9383729e-05
-1.3665951
-0.023667129
-0.17356269
-0.11999952
-0.16580402
-0.098155565
-0.15873214
0.0096956006
-0.15629572
0.16416363
-0.15991201
0.24426949
-0.18812817
0.24550923
-0.21935608
0.19326258
-0.25142369
0.089235697
-0.27901096
-0.052361132
-0.2954405
-0.15340768
-0.30071892
-0.15699466
-0.30008788
-0.10506922
-0.30269883
-0.04157239
-0.32291766
-0.001277699
-0.35527932
0.018005176
-0.39110872
0.024918056
-0.42870875
0.024123429
-0.46686284
0.019089128
-0.5047336
0.012780745
-0.54219913
0.0072659415
-0.57987445
0.0034736297
-0.61879682
0.0013766546
-0.65999135
0.00046880729
-0.70419489
0.00019378371
-0.75182826
0.00015635415
-0.80309607
0.00015292049
-0.85812441
0.00011227143
-0.91703093
3.5474239e-05
-0.98000658
-5.0116626e-05
-1.0472623
-0.00011876757
-1.1191627
-0.00015125167
-1.1960108
-0.00014109351
-1.2783532
-8.8517817e-05
-1.3665066
-0.024750831
-0.17263415
-0.12873768
-0.16482454
-0.1062262
-0.15773339
0.006473665
-0.1555102
0.16874359
-0.16087568
0.25791812
-0.17356064
0.2594743
-0.20209324
0.2055676
-0.2316611
0.095135772
-0.25732376
-0.058846626
-0.27252546
-0.1707834
-0.27806478
-0.17809177
-0.27962181
-0.12462277
-0.28053432
-0.049380618
-0.29489061
0.0015176282
-0.32571299
0.023878792
-0.36115294
0.032071221
-0.39826188
0.031308052
-0.43589337
0.025190843
-0.47296455
0.017113033
-0.50906589
0.0097266249
-0.54465982
0.0044543594
-0.58085518
0.0014717534
-0.61889192
0.00019820072
-0.65972075
-0.00011944489
-0.70388166
-5.8193927e-05
-0.75161371
6.1514801e-05
-0.80300466
0.00011318085
-0.85812532
8.2939128e-05
-0.91707839
3.8384077e-06
-0.98006053
-8.3301012e-05
-1.0472977
-0.00015003112
-1.119164
-0.00017664857
-1.1959752
-0.00015859977
-1.2782831
-9.7201984e-05
-1.3664094
-0.026084519
-0.17179965
-0.13740872
-0.16396311
-0.11414682
-0.15690391
0.0035316473
-0.15479137
0.1737793
-0.16054592
0.26707652
-0.17003408
0.27194402
-0.18603036
0.21647739
-0.21300304
0.10001053
-0.23653585
-0.065719776
-0.25045061
-0.1872758
-0.25603307
-0.19720543
-0.25895113
-0.14408859
-0.26015599
-0.060033546
-0.2698814
0.004428828
-0.29780181
0.03108705
-0.33292125
0.040463142
-0.36954486
0.039851251
-0.40680508
0.032654479
-0.44335701
0.022589605
-0.47844112
0.012921329
-0.51226059
0.0057156372
-0.54592109
0.0015095187
-0.58089295
-0.00029666009
-0.61839706
-0.00068766185
-0.65915253
-0.00048393178
-0.70345593
-0.00017312592
-0.75137907
3.7781093e-05
-0.80292926
0.00010528768
-0.85814767
6.5819502e-05
-0.91714037
-2.3292198e-05
-0.98012054
-0.00011570303
-1.0473321
-0.0001809426
-1.1191597
-0.00020160909
-1.1959322
-0.00017546942
-1.2782048
-0.00010554946
-1.3663038
-0.027745218
-0.17110124
-0.14594537
-0.163263
-0.12180359
-0.15630634
0.00086294886
-0.15423521
0.17917011
-0.16018218
0.27643926
-0.16990865
0.28173755
-0.17982761
0.22591345
-0.19546642
0.10381801
-0.21681051
-0.072806149
-0.22944948
-0.20295754
-0.23476887
-0.21469377
-0.23854472
-0.16241764
-0.24062208
-0.072768894
-0.24742064
0.0063631414
-0.27181571
0.039579583
-0.30629434
0.050044815
-0.34250292
0.049767509
-0.37946111
0.041581037
-0.41573164
0.029384131
-0.45015153
0.01702245
-0.48254224
0.007350439
-0.51389539
0.0014817837
-0.54589336
-0.0010927802
-0.58009683
-0.0016113915
-0.61747333
-0.0012147954
-0.65842167
-0.00062432366
-0.70300473
-0.00016732109
-0.75117397
6.9784318e-05
-0.80289376
0.00011702384
-0.85819888
5.5177236e-05
-0.91721884
-4.9722014e-05
-0.98018652
-0.00014849372
-1.0473645
-0.0002117893
-1.1191495
-0.00022621372
-1.1958815
-0.00019186545
-1.2781185
-0.00011349274
-1.3661903
-0.029772293
-0.17061427
-0.15430935
-0.16273727
-0.1290823
-0.15598429
-0.0014986709
-0.15394472
0.1847902
-0.1598553
0.28585765
-0.16960057
0.29122134
-0.17939244
0.23642852
-0.19034268
0.10665865
-0.19830706
-0.07995758
-0.20965908
-0.21777374
-0.21463328
-0.23066798
-0.21879467
-0.17907848
-0.22188388
-0.086149582
-0.22724139
0.0067684549
-0.24782596
0.049001214
-0.28123734
0.060808433
-0.31705796
0.060983858
-0.35371927
0.052026952
-0.38990703
0.037662274
-0.42400978
0.022229209
-0.45535829
0.0094828936
-0.4846747
0.0013911483
-0.51380476
-0.002279644
-0.5447065
-0.0030145905
-0.57869363
-0.0023682724
-0.61631985
-0.0013861748
-0.65765982
-0.00056908534
-0.70260296
-6.9155239e-05
-0.75103503
0.00013396743
-0.8029107
0.00013946187
-0.85828316
4.5596258e-05
-0.91731416
-7.7732307e-05
-0.98025728
-0.00018220602
-1.0473941
-0.00024282858
-1.1191329
-0.00025036537
-1.195823
-0.00020758277
-1.2780244
-0.00012104337
-1.3660693
-0.032150017
-0.17047064
-0.16238393
-0.16253968
-0.13589424
-0.15592533
-0.003517513
-0.15396545
0.19055121
-0.15970572
0.29517095
-0.16916861
0.30020243
-0.17858166
0.24629641
-0.18926034
0.1165232
-0.20020723
-0.086809892
-0.19145475
-0.23160022
-0.1958326
-0.24518979
-0.20011147
-0.19393761
-0.20393553
-0.099097915
-0.20893554
0.0055687488
-0.22604168
0.058886015
-0.25771076
0.072729531
-0.29315843
0.073390429
-0.32946453
0.064003939
-0.36569626
0.047566618
-0.39981137
0.028764575
-0.43054515
0.012277319
-0.45815272
0.0012578012
-0.48454135
-0.0039585136
-0.51212589
-0.0050482705
-0.54267281
-0.0040898088
-0.57697209
-0.0025763134
-0.61512971
-0.0012527516
-0.65697615
-0.00036696623
-0.70230515
8.3408681e-05
-0.75098447
0.00021383639
-0.80298507
0.00016486786
-0.85840243
3.2949911e-05
-0.91742484
-0.00010865806
-0.98033083
-0.00021730955
-1.0474196
-0.00027397899
-1.1191093
-0.00027391953
-1.1957566
-0.00022273982
-1.2779227
-0.00012819601
-1.3659411
-0.17072186
-0.03488143
-0.1700129
-0.16284167
-0.14221375
-0.15622017
-0.0051016083
-0.15434123
0.19636836
-0.1597826
0.304189
-0.16872378
0.30852024
-0.17748641
0.25522922
-0.18751447
0.12561776
-0.19835489
-0.082544356
-0.20447277
-0.24446627
-0.17858871
-0.25823393
-0.18278846
-0.20705994
-0.18698914
-0.11095518
-0.19207826
0.0030444985
-0.20641129
0.068623882
-0.23577955
0.085738775
-0.27072
0.086840805
-0.30660881
0.07745931
-0.3429199
0.059212942
-0.37734258
0.036867989
-0.40791479
0.015944053
-0.43421188
0.0011288841
-0.4580238
-0.0062358808
-0.48226398
-0.0078941177
-0.50928004
-0.006556263
-0.54020636
-0.004336346
-0.57521206
-0.002321047
-0.61406142
-0.00089253573
-0.65645058
-7.5552107e-05
-0.70214619
0.00026036418
-0.751031
0.00029853909
-0.80311875
0.00018401458
-0.8585535
1.4536071e-05
-0.91754804
-0.00014337529
-0.98040477
-0.00025392724
-1.0474397
-0.00030519606
-1.119078
-0.00029700632
-1.1956824
-0.0002372383
-1.2778137
-0.00013490196
-1.3658062
-0.16370531
-0.17702944
-0.17142153
-0.037855733
-0.14805344
-0.15700197
-0.0061929619
-0.15512882
0.20221915
-0.16019202
0.31273273
-0.16832633
0.31600904
-0.17621258
0.2629882
-0.18524539
0.13358349
-0.19548019
-0.077987814
-0.20291144
-0.24988823
-0.1990508
-0.2699169
-0.16690574
-0.21851659
-0.17133181
-0.12143375
-0.17651057
-0.00034676685
-0.188687
0.07774934
-0.21553675
0.099615066
-0.24965584
0.10118766
-0.28506686
0.092254343
-0.32140384
0.072670611
-0.35637757
0.046786726
-0.38726132
0.020747819
-0.41271855
0.001090161
-0.43417316
-0.0092274315
-0.45503225
-0.011769533
-0.47838857
-0.0099812012
-0.5058551
-0.0068350411
-0.53770766
-0.0038943354
-0.57363877
-0.0017264022
-0.61322755
-0.00039445867
-0.65613168
0.00025113596
-0.70213696
0.00043891006
-0.75117137
0.00037449833
-0.80330923
0.00019180302
-0.85873077
-1.2408261e-05
-0.917679
-0.00018219029
-0.9804765
-0.00029200988
-1.0474529
-0.00033643482
-1.1190386
-0.00031936517
-1.1956002
-0.0002509481
-1.2776976
-0.00014114095
-1.365665
-0.15852653
-0.15323223
-0.16524278
-0.18320819
-0.1725131
-0.041010066
-0.0067432302
-0.15645171
0.2081153
-0.16102496
0.32062268
-0.16808197
0.32256393
-0.17488122
0.26943369
-0.18265807
0.14010951
-0.19177141
-0.073742141
-0.19972586
-0.25439252
-0.19840715
-0.28060596
-0.18836174
-0.22848131
-0.15694102
-0.13054016
-0.16222541
-0.0041457148
-0.17271162
0.086066235
-0.1970039
0.1140145
-0.22993618
0.11629709
-0.26476527
0.10819562
-0.30100814
0.087959666
-0.3366929
0.058764505
-0.36835535
0.027006571
-0.39352007
0.0012718162
-0.41290021
-0.013061849
-0.43033874
-0.016932257
-0.44986952
-0.014621698
-0.47374807
-0.010270617
-0.50241952
-0.0061108612
-0.53549114
-0.0029593992
-0.57240578
-0.00092827534
-0.61269373
0.00015709381
-0.65603763
0.00057812016
-0.70227617
0.00060469674
-0.75140157
0.00043085981
-0.80354829
0.0001846705
-0.85892784
-4.7943298e-05
-0.91781325
-0.0002250833
-0.98054343
-0.00033127789
-1.047458
-0.00036731532
-1.1189906
-0.00034084382
-1.1955103
-0.00026387137
-1.2775749
-0.0001469059
-1.3655181
-0.15851115
-0.0067586137
-0.16090105
-0.15757396
-0.16713447
-0.18858682
-0.17395343
-0.044358088
0.21402697
-0.16236338
0.32765137
-0.16805366
0.32809164
-0.17360967
0.27440229
-0.17984982
0.14503158
-0.18758014
-0.069810718
-0.19570284
-0.25800764
-0.19611075
-0.29016981
-0.1888433
-0.24310691
-0.17373614
-0.1384536
-0.14902758
-0.0080047222
-0.1583664
0.093462837
-0.18010823
0.12857668
-0.21156608
0.13198899
-0.24562809
0.12505552
-0.28162517
0.10499673
-0.31804521
0.072990034
-0.35091843
0.035085841
-0.37643462
0.0018748873
-0.39412314
-0.017862936
-0.40809912
-0.023682525
-0.42358847
-0.020781942
-0.44370928
-0.014870146
-0.46914854
-0.0091247303
-0.49940565
-0.0046894675
-0.53376107
-0.0017356818
-0.57159837
-5.1594872e-05
-0.61248504
0.00070373871
-0.65616325
0.00087793629
-0.70254941
0.00073968639
-0.75171039
0.00046085402
-0.80382447
0.00016155139
-0.85913734
-9.1923523e-05
-0.91794641
-0.00027158387
-0.98060312
-0.00037131146
-1.047454
-0.00039765003
-1.1189338
-0.00036137189
-1.1954128
-0.00027590841
-1.2774459
-0.00015214585
-1.365366
-0.16423437
0.21975018
-0.16113991
-0.0065197495
-0.16372186
-0.16098657
-0.16941518
-0.19312507
-0.17580454
-0.047742857
0.33359827
-0.16831027
0.33252797
-0.17248998
0.27780713
-0.17701452
0.1482987
-0.18311694
-0.066463927
-0.19092693
-0.26071103
-0.19299944
-0.29850622
-0.18777434
-0.25631025
-0.17563995
-0.15672281
-0.15546693
-0.011648699
-0.1453836
0.099895295
-0.16479886
0.14298661
-0.19451816
0.14802312
-0.22760021
0.14252782
-0.26310039
0.12343338
-0.30006181
0.089299312
-0.33435448
0.045142439
-0.36097503
0.0031421563
-0.37770189
-0.023730773
-0.3882553
-0.032369982
-0.39941166
-0.028819691
-0.41555072
-0.020888825
-0.4376906
-0.013099343
-0.46517393
-0.0070172428
-0.49707788
-0.0028752587
-0.53262149
-0.00040609895
-0.57124386
0.000808001
-0.61258931
0.0012021548
-0.65648747
0.0011312249
-0.70294095
0.00083191491
-0.75208146
0.00046336332
-0.80412628
0.00012258594
-0.85935185
-0.0001436802
-0.91807431
-0.00032102859
-0.98065341
-0.00041166011
-1.04744
-0.00042713296
-1.118868
-0.00038073253
-1.195308
-0.00028697626
-1.2773111
-0.00015686868
-1.3652091
-0.16893919
0.33830309
-0.16610454
0.22471482
-0.16447599
-0.0057656132
-0.16696811
-0.16343364
-0.17211729
-0.19681231
-0.177995
-0.050947572
0.33577466
-0.17155697
0.27966174
-0.17434459
0.14984419
-0.17856
-0.064065155
-0.18551571
-0.26268567
-0.1889523
-0.30572321
-0.18578245
-0.26808391
-0.17600069
-0.17339437
-0.15896839
-0.030150101
-0.13696553
0.10571579
-0.15120409
0.15688461
-0.17869685
0.1641489
-0.21064393
0.16023846
-0.24531085
0.14255494
-0.28222195
0.1066078
-0.3173703
0.056479939
-0.34569199
0.0047884104
-0.36262128
-0.030898694
-0.37053397
-0.043379334
-0.37724595
-0.039159544
-0.38907181
-0.028611444
-0.4078281
-0.018200668
-0.43258927
-0.010039059
-0.46215211
-0.004398142
-0.495555
-0.00092966248
-0.53209793
0.00088660812
-0.57132247
0.0015870745
-0.61297422
0.0016250723
-0.65698132
0.0013191841
-0.70342822
0.00087877317
-0.75249687
0.00043857452
-0.80444227
6.9385985e-05
-0.85956491
-0.00020216779
-0.91819317
-0.00037254284
-0.98069252
-0.00045175352
-1.0474154
-0.00045542731
-1.1187933
-0.00039879206
-1.1951962
-0.00029705722
-1.2771709
-0.00016104111
-1.3650481
-0.17095307
0.33778854
-0.1692378
0.34143635
-0.16884106
0.22907988
-0.168212
-0.0045217177
-0.17059571
-0.16495522
-0.17520857
-0.19959875
-0.18043194
-0.053833653
0.28000363
-0.17189886
0.14961536
-0.17411576
-0.062768389
-0.17985677
-0.26384349
-0.18435788
-0.31172947
-0.18294604
-0.2784481
-0.17541826
-0.1884871
-0.16090795
-0.048191217
-0.14092728
0.09748569
-0.12873543
0.17028087
-0.16460035
0.18006802
-0.19461598
0.17776585
-0.22817133
0.16155708
-0.264313
0.12351015
-0.2991243
0.067258147
-0.32814851
0.0054454231
-0.346349
-0.040676133
-0.35284384
-0.057293029
-0.35662027
-0.052296727
-0.36410877
-0.038349439
-0.37933382
-0.024584214
-0.40144456
-0.013835932
-0.4287924
-0.0063433309
-0.46020692
-0.0016350755
-0.49484958
0.00094384495
-0.53215517
0.002050835
-0.57178623
0.0022467947
-0.61359595
0.0019504748
-0.65761261
0.0014349249
-0.70398437
0.00088086801
-0.75293916
0.00038846952
-0.80476135
2.8347824e-06
-0.85976992
-0.00026594789
-0.91829977
-0.00042520759
-0.98071907
-0.00049104048
-1.0473798
-0.00048228851
-1.1187099
-0.00041545818
-1.1950778
-0.00030607393
-1.2770259
-0.00016466691
-1.3648834
-0.16978996
0.27884051
-0.16989555
0.33844629
-0.17071204
0.34330733
-0.17172917
0.23259705
-0.17225947
-0.0028579573
-0.17458743
-0.16557635
-0.17853046
-0.20150023
-0.18309442
-0.056362528
0.14763142
-0.16991492
-0.062626283
-0.17425787
-0.26420734
-0.17949292
-0.31650367
-0.17958368
-0.28733082
-0.17406332
-0.20203397
-0.1618714
-0.065110743
-0.14398843
0.08784411
-0.1312857
0.174443
-0.13289756
0.1955867
-0.18011902
0.19466333
-0.21151346
0.17979271
-0.24640695
0.13926328
-0.28006613
0.076522002
-0.30838815
0.0039983895
-0.32670147
-0.055692513
-0.33133262
-0.075351045
-0.33478582
-0.068776936
-0.34014006
-0.050464738
-0.35199347
-0.032386183
-0.37153185
-0.018459636
-0.39682086
-0.0087292261
-0.42640651
-0.0025178345
-0.45932416
0.00099884624
-0.49490458
0.002621073
-0.5327254
0.0030309261
-0.57257036
0.0027616345
-0.61440711
0.0021668976
-0.65834458
0.0014806895
-0.7045842
0.00084161761
-0.75339231
0.00031595824
-0.80507448
-7.4439099e-05
-0.85996142
-0.00033342014
-0.91839156
-0.00047806291
-0.98073205
-0.00052903712
-1.047333
-0.00050745044
-1.1186179
-0.00043058877
-1.1949533
-0.00031402226
-1.2768765
-0.00016773654
-1.3647157
-0.16605106
0.14389253
-0.16751265
0.27645762
-0.17020019
0.33793444
-0.17232443
0.34390259
-0.17485232
0.2351899
-0.17658088
-0.00086451401
-0.17885056
-0.16525625
-0.18198496
-0.20260969
-0.18581579
-0.058501552
-0.063706678
-0.16883452
-0.26389486
-0.17457034
-0.32005654
-0.17594005
-0.29474344
-0.17217106
-0.21411746
-0.16197982
-0.080650173
-0.14633197
0.077569389
-0.13371371
0.17815888
-0.13500158
0.20489947
-0.14221033
0.21064945
-0.19610514
0.1969505
-0.22867125
0.15372862
-0.26087229
0.084090515
-0.28763465
-0.00077307045
-0.30361669
-0.07657014
-0.30582385
-0.099071119
-0.30761254
-0.088746676
-0.31481608
-0.065151615
-0.32545319
-0.041724091
-0.34265556
-0.023916911
-0.36607457
-0.011543342
-0.39400674
-0.0035539308
-0.42537041
0.0010822641
-0.45940758
0.0033329986
-0.49561651
0.0040198706
-0.53371435
0.0037972008
-0.57360593
0.0031168327
-0.61535704
0.0022768407
-0.65914073
0.0014618938
-0.70520447
0.0007657413
-0.75384209
0.00022473647
-0.80537365
-0.00015933796
-0.86013551
-0.00040300826
-0.91846661
-0.00053022906
-0.98073086
-0.00056524979
-1.0472752
-0.00053070589
-1.1185177
-0.00044415272
-1.1948231
-0.00032087523
-1.2767234
-0.00017025271
-1.3645454
-0.16383417
-0.065923571