/*--------------------------------*- C++ -*----------------------------------*\
| =========                 |                                                 |
| \\      /  F ield         | OpenFOAM: The Open Source CFD Toolbox           |
|  \\    /   O peration     | Version:  5.0                                   |
|   \\  /    A nd           | Web:      www.OpenFOAM.org                      |
|    \\/     M anipulation  |                                                 |
\*---------------------------------------------------------------------------*/
FoamFile
{
    version     2.0;
    format      ascii;
    class       volScalarField;
    location    "120";
    object      pMean;
}
// * * * * * * * * * * * * * * * * * * * * * * * * * * * * * * * * * * * * * //

dimensions      [0 2 -2 0 0 0 0];

internalField   nonuniform List<scalar> 
9200
(
8.4600294e-05
0.00011273554
0.00029074949
0.00015472448
0.00035160692
0.00039010096
0.00021853807
0.00043579396
0.00048028306
0.00041858541
0.00030719849
0.00055819797
0.00061574333
0.00053222824
0.00035625666
0.00041330657
0.00071958062
0.00080802269
0.00070702836
0.00048899647
0.00021428128
0.00054671426
0.0009010802
0.0010561361
0.00094962792
0.00069702011
0.00035899277
-1.4998865e-05
0.00069789591
0.0011114822
0.0013309106
0.0012602229
0.00098098977
0.00059280694
0.00013828157
-0.00031860999
0.00085882169
0.0013308809
0.0016365515
0.0016046978
0.0013433163
0.00090807215
0.00039255162
-0.00016197635
-0.00069372119
0.0010163683
0.0015498652
0.0019447646
0.0019852643
0.0017421551
0.0013118472
0.00073111258
0.00010639331
-0.00053762213
-0.0011304051
0.0011422015
0.0017420779
0.0022407896
0.0023679684
0.0021783601
0.001756404
0.0011669905
0.00046059462
-0.00026066917
-0.00097950586
-0.0016219644
0.0011321071
0.0018570721
0.002485404
0.0027297015
0.0026139713
0.0022439193
0.0016480838
0.00092159014
0.00010123618
-0.00070009153
-0.0014805621
-0.0021580064
0.00086339451
0.0018239165
0.0026205768
0.0030267691
0.0030258425
0.0027345783
0.0021791421
0.001433345
0.00057847541
-0.00033888018
-0.0012050379
-0.0020308871
-0.002730674
0.00033555093
0.0015886008
0.0025854806
0.0032068316
0.0033727899
0.003206247
0.0027190953
0.0020032228
0.0011115322
0.00014578147
-0.00085338463
-0.001766164
-0.0026223706
-0.0033285284
-0.00034602189
0.0011205129
0.0023363656
0.003208569
0.0036071627
0.0036169415
0.0032479369
0.0025906307
0.001712779
0.00069166765
-0.00037180751
-0.0014337909
-0.0023754281
-0.0032438522
-0.0039442179
-0.0010318321
0.00037275756
0.0017986125
0.0029684674
0.0036654571
0.0039212572
0.0037240846
0.0031767951
0.0023424534
0.0013158212
0.00017543221
-0.00096683884
-0.0020723116
-0.0030222111
-0.0038874379
-0.0045661223
-0.0016914926
-0.000596298
0.00088670222
0.0024158696
0.0034796098
0.0040581665
0.0041057335
0.003723041
0.0029833001
0.0019796464
0.00081124316
-0.00043043638
-0.00163235
-0.0027591181
-0.0036980577
-0.0045413759
-0.0051874529
-0.00233173
-0.0016673594
-0.00031372193
0.0014855428
0.0029785966
0.0039564857
0.0043343447
0.0041895674
0.0035993886
0.0026695569
0.0015002594
0.00020408655
-0.0011210962
-0.0023595229
-0.0034853407
-0.0043913289
-0.0051986344
-0.0057976286
-0.0028938122
-0.002701261
-0.0016067273
0.00023471609
0.0021065758
0.003544163
0.0043388819
0.0045200367
0.0041515867
0.0033519717
0.0022309901
0.0009039041
-0.00050348522
-0.0018889947
-0.0031394884
-0.0042395841
-0.0050942605
-0.005847948
-0.0063902634
-0.0033274782
-0.0035753959
-0.0028734571
-0.0011507389
0.00088885801
0.0027740522
0.0040437987
0.0046439082
0.0045895612
0.0039905116
0.0029723844
0.0016619914
0.00019138769
-0.0013058032
-0.0027260618
-0.0039613543
-0.0050127735
-0.0057949992
-0.0064824938
-0.0069571054
-0.0035804346
-0.0042428982
-0.0039868679
-0.0025384117
-0.00052613729
0.0016382629
0.003395587
0.0044868176
0.0048427387
0.0045379964
0.0036919945
0.0024512454
0.00096061763
-0.00063532438
-0.0021962701
-0.0036219465
-0.004815137
-0.005792587
-0.006486219
-0.0070932142
-0.0074926097
-0.0035658897
-0.0046421354
-0.0048648827
-0.003786229
-0.001975125
0.00024258855
0.002371979
0.003967168
0.0048349225
0.0049278137
0.004346224
0.0032425158
0.0017819941
0.00012476579
-0.0015713083
-0.0031658878
-0.0045661344
-0.005688108
-0.0065706694
-0.007157535
-0.0076740789
-0.0079911394
-0.0033293236
-0.0047151555
-0.0054544047
-0.0047929642
-0.0033182991
-0.0012334624
0.0010431244
0.0030715584
0.0044724379
0.0050785151
0.0048734053
0.0039960791
0.0026299238
0.00095676625
-0.0008433182
-0.002609593
-0.0042038718
-0.0055455357
-0.0065700066
-0.0073349333
-0.0078022103
-0.0082185833
-0.0084485625
-0.0029842487
-0.0045210345
-0.0057188297
-0.0055261477
-0.0044459325
-0.0026491814
-0.0004243721
0.0018483803
0.0037290123
0.0049057774
0.0051901153
0.0046553271
0.0034684479
0.0018408132
-2.5072591e-05
-0.0019399774
-0.0037402481
-0.0052972657
-0.0065482103
-0.0074474647
-0.0080776622
-0.0084123496
-0.0087221332
-0.0088614725
-0.0025906551
-0.0041681787
-0.0056552049
-0.0059655533
-0.0053066297
-0.0038856163
-0.0018914624
0.00041298582
0.0026264063
0.004335591
0.0052177173
0.0051431625
0.0042493571
0.0027456167
0.00086901799
-0.0011640312
-0.0031565781
-0.0049506046
-0.0064325163
-0.0075595333
-0.0083111328
-0.0087888085
-0.0089824704
-0.0091807666
-0.0092276381
-0.0021910456
-0.0037625897
-0.0053779745
-0.0060541742
-0.0058936939
-0.0048647088
-0.0032175719
-0.0010819048
0.0012485686
0.0033677711
0.0048486797
0.0053708527
0.0049010597
0.0036283959
0.0018137579
-0.00029047013
-0.0024536998
-0.0044814288
-0.0062260079
-0.0075936357
-0.0085675209
-0.009148493
-0.0094617421
-0.0095073189
-0.009591671
-0.0095457122
-0.0018092298
-0.0033253535
-0.0050084862
-0.0059010631
-0.0061681566
-0.0055935423
-0.0043187724
-0.0024950453
-0.0002516965
0.0020862899
0.0040595463
0.0052425629
0.0053299295
0.0044276693
0.0027714194
0.00066102451
-0.0016352441
-0.003885114
-0.0058995428
-0.0075491613
-0.0087659308
-0.009557499
-0.0099514136
-0.010089218
-0.0099831269
-0.009952941
-0.0098148864
-0.0014536151
-0.0029059858
-0.0045916083
-0.0056275389
-0.0061641461
-0.0060517024
-0.0051977753
-0.003723722
-0.0017361329
0.00061955118
0.0029210149
0.0046861492
0.0054551084
0.0050519842
0.0036901524
0.0016607567
-0.00071404829
-0.0031593436
-0.0054433998
-0.0073927461
-0.0089027594
-0.0099323938
-0.010518763
-0.010709842
-0.010666243
-0.010407041
-0.010263503
-0.010034752
-0.0011416329
-0.0025258365
-0.0041682901
-0.0052966159
-0.0059914082
-0.0062030617
-0.0058284637
-0.0047568317
-0.0030928485
-0.0008977032
0.0015315355
0.0037178894
0.0051617372
0.0054106782
0.0044908379
0.002663159
0.000286609
-0.002309996
-0.0048489205
-0.0071097506
-0.0089412147
-0.010267141
-0.011078928
-0.011438306
-0.011417361
-0.011188336
-0.010777247
-0.010522957
-0.010206341
-0.00088060262
-0.0022008489
-0.0037722702
-0.0049443189
-0.0057482396
-0.006148846
-0.0061545094
-0.0055621587
-0.0042852479
-0.0023540408
3.0511924e-05
0.0024467468
0.0044144729
0.005409274
0.0050689388
0.0036021168
0.0013297669
-0.0013537938
-0.004115466
-0.0066856705
-0.0088622124
-0.010522444
-0.011624428
-0.012189577
-0.01230759
-0.012067074
-0.01165253
-0.011092845
-0.010731768
-0.010332579
-0.00065651468
-0.001937287
-0.0034142669
-0.0046076272
-0.0054712912
-0.0060038093
-0.0062459616
-0.0061021368
-0.0052810899
-0.0036846845
-0.0014848921
0.0010077876
0.0033180513
0.0049468643
0.0053508552
0.0043796262
0.002360767
-0.00031911315
-0.003253273
-0.0061140591
-0.0086462546
-0.010675426
-0.012114496
-0.012955246
-0.013252416
-0.013116623
-0.012654725
-0.012056869
-0.01135384
-0.010891306
-0.010415944
-0.0004558634
-0.0017025205
-0.0031077356
-0.0043038207
-0.0051992652
-0.005816228
-0.0062191949
-0.0063868185
-0.0060498688
-0.0048564592
-0.0029221474
-0.00051673254
0.0019882151
0.0040678183
0.0052053624
0.0048990254
0.0032957805
0.00074833868
-0.0022827015
-0.005397775
-0.0082811148
-0.010702657
-0.012523513
-0.013693991
-0.014243443
-0.014254286
-0.013859522
-0.013176542
-0.012400465
-0.011561023
-0.011003337
-0.010455738
-0.00026994258
-0.0014977493
-0.0028318575
-0.0040532392
-0.0049568634
-0.0056283096
-0.0061432941
-0.0065116273
-0.0065507446
-0.0058336491
-0.0042376106
-0.0020215885
0.00051842975
0.0028747218
0.0045870962
0.0050767421
0.0040205233
0.0017808288
-0.0012397192
-0.0045499956
-0.0077633784
-0.010586764
-0.012824789
-0.014378402
-0.015240008
-0.015472271
-0.015186438
-0.014529791
-0.013630594
-0.012683366
-0.011715764
-0.011069495
-0.010451995
-9.2909523e-05
-0.0013307534
-0.0025976603
-0.0038404868
-0.0047625561
-0.0054643298
-0.0060542303
-0.0065742513
-0.0068696926
-0.0065757691
-0.0053979241
-0.0034419061
-0.0009938614
0.0015018299
0.0035778881
0.0047762863
0.0044703117
0.0026704241
-0.00018005496
-0.0035974408
-0.0070980162
-0.010318408
-0.012996727
-0.014979726
-0.01621388
-0.016731357
-0.016628987
-0.016039494
-0.015124339
-0.014015816
-0.012906481
-0.011819833
-0.011091931
-0.010407075
5.9341574e-05
-0.0012032743
-0.0024195521
-0.0036679133
-0.0046103018
-0.005342417
-0.0059783724
-0.0066070497
-0.0070997493
-0.0071161011
-0.0063709381
-0.0047436824
-0.0024708524
3.3036387e-05
0.0023226512
0.0040023525
0.0045145353
0.0033202
0.0008085457
-0.0025850998
-0.0063045739
-0.0098954974
-0.013024896
-0.015473105
-0.017135353
-0.018003418
-0.018150497
-0.017700993
-0.016808242
-0.015640111
-0.014332444
-0.013071452
-0.011875267
-0.011072719
-0.010326768
0.00017003103
-0.0011139299
-0.0022975704
-0.0035570276
-0.0045046138
-0.0052665096
-0.0059352989
-0.0066387769
-0.0072832864
-0.0075307236
-0.0071248237
-0.0058881008
-0.0038588776
-0.0014537104
0.00092833592
0.0028946109
0.0040303237
0.003673142
0.0016111135
-0.0015809782
-0.0054171904
-0.0093300219
-0.012901298
-0.015839856
-0.017977276
-0.019258933
-0.019723932
-0.019480672
-0.018679792
-0.017487332
-0.016076646
-0.014581503
-0.013180538
-0.011884762
-0.01101316
-0.010217267
0.00023333523
-0.0010556944
-0.0022265494
-0.0035065682
-0.0044696457
-0.0052357109
-0.0059331346
-0.0066881508
-0.0074434244
-0.0078864659
-0.0077275592
-0.0068324463
-0.0051243982
-0.0028899463
-0.00053675909
0.0015954249
0.0031212075
0.0035244469
0.0021613044
-0.00069102991
-0.0044892638
-0.0086464074
-0.012630197
-0.016066857
-0.018717684
-0.02046945
-0.021320846
-0.021353466
-0.020709285
-0.019557505
-0.018074985
-0.016433819
-0.01476493
-0.013236416
-0.011852075
-0.010917417
-0.010081718
0.00026623668
-0.0010288905
-0.0022014005
-0.0035105152
-0.0045070955
-0.0052794961
-0.0059710325
-0.0067665668
-0.0076041333
-0.0082015926
-0.0082490519
-0.0076094981
-0.0062298271
-0.0042359856
-0.0019947897
0.00017523959
0.0019349449
0.0028581598
0.0023387441
-3.2316776e-05
-0.0036093117
-0.0078884423
-0.012228319
-0.016152327
-0.019339983
-0.021611338
-0.022912755
-0.023292954
-0.022874399
-0.021825218
-0.02032998
-0.018569522
-0.016713347
-0.014885269
-0.013242019
-0.011780369
-0.010789848
-0.0099241427
0.00027850386
-0.0010390287
-0.0022158868
-0.0035661783
-0.0046071916
-0.0054031826
-0.0060788379
-0.0068744256
-0.0077732986
-0.0085003177
-0.0087163169
-0.0082766399
-0.00715479
-0.0054537787
-0.0033871096
-0.001285078
0.00057144986
0.0018239072
0.0019713418
0.0003563875
-0.0029030622
-0.0071244913
-0.011729106
-0.016105349
-0.019836664
-0.022664874
-0.024475266
-0.025271548
-0.025151559
-0.024271273
-0.022821197
-0.020993923
-0.018972099
-0.016917353
-0.014945883
-0.013200872
-0.011672834
-0.010633742
-0.0097469875
0.00026342393
-0.0010844948
-0.002270958
-0.0036654822
-0.0047630305
-0.0055923266
-0.0062723624
-0.0070455989
-0.0079696765
-0.0087816927
-0.0091506412
-0.0088786283
-0.0079458313
-0.0065215743
-0.0046793486
-0.0027115411
-0.0008723212
0.00053844407
0.0011316693
0.00029046564
-0.0024461526
-0.0064603984
-0.01118692
-0.015949861
-0.020209819
-0.023618274
-0.025986697
-0.027265196
-0.027514949
-0.026875697
-0.025532958
-0.023691622
-0.021549103
-0.019284109
-0.017049225
-0.014950281
-0.013116645
-0.011532781
-0.010452587
-0.0095505136
-0.0011685978
0.00020954707
-0.0023654979
-0.0038060101
-0.0049659479
-0.0058401791
-0.0065379247
-0.0072995401
-0.0082096859
-0.0091001832
-0.0095506854
-0.0094302384
-0.0086683902
-0.0074444745
-0.0058644215
-0.0040613055
-0.002320735
-0.00088195288
-5.5461239e-05
-0.0003250599
-0.002313207
-0.0060275702
-0.010686424
-0.015730727
-0.020476839
-0.024468629
-0.027432245
-0.029251336
-0.029941822
-0.029615358
-0.028449373
-0.026650725
-0.024434358
-0.021996227
-0.019509015
-0.01711244
-0.014902358
-0.012993003
-0.011363379
-0.010249461
-0.0093356852
-0.0024973402
-0.0012883805
0.00011426792
-0.0039866261
-0.0052135282
-0.0061403137
-0.0068674022
-0.0076293155
-0.0085208508
-0.0094342254
-0.0099963404
-0.0099437647
-0.0093335394
-0.0082697665
-0.0068969592
-0.0053136854
-0.0037149774
-0.002348778
-0.0014518659
-0.0013860834
-0.0026981528
-0.0058602086
-0.010358686
-0.015514913
-0.020671489
-0.025225857
-0.028804789
-0.031213582
-0.032409847
-0.032469564
-0.031550852
-0.029859893
-0.027619846
-0.025048759
-0.022338242
-0.01965018
-0.017111501
-0.014806262
-0.012833661
-0.011167701
-0.010026964
-0.0091047697
-0.0041968292
-0.0026564521
-0.0014326534
-1.0757288e-05
-0.0054993643
-0.0064850307
-0.0072512023
-0.008029326
-0.0089039888
-0.0098255944
-0.01043679
-0.010509754
-0.0099660135
-0.0090282485
-0.0078213126
-0.0064517994
-0.0050202171
-0.0037866027
-0.0029432781
-0.0027520154
-0.0036197403
-0.0060902585
-0.010301756
-0.015408825
-0.02085011
-0.025916094
-0.030108416
-0.033141243
-0.034901779
-0.035417146
-0.034819183
-0.033303343
-0.031099103
-0.028437793
-0.025536787
-0.022578308
-0.01971252
-0.017050865
-0.014666218
-0.012642262
-0.01094878
-0.0097872391
-0.0088600036
-0.0058074763
-0.0044235411
-0.0028262973
-0.0015890403
-0.00016436419
-0.0068659137
-0.0076761497
-0.0084810223
-0.0093516509
-0.010273032
-0.01091948
-0.01105052
-0.010650469
-0.0097755453
-0.0086651019
-0.0074793685
-0.0062425632
-0.0051464196
-0.0044386818
-0.0042741351
-0.004956425
-0.0068960981
-0.010553146
-0.015554312
-0.021095812
-0.026586079
-0.031363217
-0.03503438
-0.037404806
-0.038440826
-0.038235159
-0.036966198
-0.034860318
-0.032161874
-0.02910527
-0.025901828
-0.022721613
-0.019700923
-0.016935421
-0.01448633
-0.012422341
-0.010709698
-0.0095328727
-0.0086035143
-0.0072626105
-0.0061221141
-0.0046554181
-0.0030063835
-0.001748172
-0.00033868891
-0.0081309665
-0.0089646558
-0.0098436783
-0.010756456
-0.011437642
-0.011613753
-0.011303045
-0.010571496
-0.009500957
-0.0083921872
-0.0073613008
-0.0064215495
-0.0058648902
-0.0058479972
-0.0065391617
-0.0082201602
-0.011282321
-0.016004018
-0.02154115
-0.027302867
-0.032605929
-0.036907058
-0.039915892
-0.041527101
-0.041782639
-0.040831991
-0.03889281
-0.03621341
-0.03304708
-0.029625044
-0.026148754
-0.022773617
-0.019621039
-0.016769937
-0.014270709
-0.012177316
-0.010453189
-0.009266257
-0.0083375772
-0.0085931233
-0.0076536978
-0.0064268074
-0.004881726
-0.0031851971
-0.0019022313
-0.00052866212
-0.0094678596
-0.010357988
-0.011270051
-0.011973652
-0.012204738
-0.01195736
-0.01133032
-0.010380761
-0.0093020514
-0.0083439037
-0.0076229858
-0.0072057545
-0.0073747696
-0.0082318514
-0.0099084591
-0.012618018
-0.016821444
-0.022313349
-0.028174334
-0.033894347
-0.038788856
-0.042444071
-0.044669951
-0.045447784
-0.044885986
-0.043183024
-0.040586166
-0.037358946
-0.033756309
-0.030001752
-0.026283563
-0.022740684
-0.01947833
-0.016559353
-0.01402344
-0.011910536
-0.010181866
-0.0089895208
-0.0080641507
-0.0099624661
-0.0090354656
-0.008017852
-0.0067060804
-0.0050795864
-0.0033470185
-0.0020394572
-0.00071631953
-0.01087635
-0.011796536
-0.012524054
-0.012806399
-0.01263446
-0.012077368
-0.011240284
-0.010208448
-0.0092961982
-0.0086659394
-0.0084744985
-0.0088136802
-0.0099154255
-0.01179812
-0.014452656
-0.018208917
-0.023436153
-0.029348953
-0.03531459
-0.040727896
-0.045012078
-0.047874871
-0.04922292
-0.049114975
-0.047718401
-0.045269988
-0.042039273
-0.038296824
-0.034293803
-0.030241654
-0.02631331
-0.022629216
-0.019278593
-0.016308514
-0.01374866
-0.011625232
-0.0098979987
-0.0087044767
-0.0077849964
-0.011370057
-0.010417285
-0.0094286549
-0.0083335331
-0.0069337466
-0.005228637
-0.0034713051
-0.0021394687
-0.00087647451
-0.012306445
-0.013069727
-0.013403069
-0.013320163
-0.012837098
-0.01208111
-0.011129535
-0.010203133
-0.0096469938
-0.0095976342
-0.010175627
-0.011520106
-0.013723198
-0.016597749
-0.020195808
-0.0249953
-0.03091354
-0.037001208
-0.042797391
-0.047662224
-0.051158969
-0.053110305
-0.053510376
-0.052486974
-0.050255
-0.047081619
-0.043249633
-0.039030285
-0.034665808
-0.03035256
-0.026245376
-0.02244592
-0.019027699
-0.016022551
-0.013450172
-0.011323949
-0.0096034555
-0.0084129331
-0.0075017314
-0.01277158
-0.011801899
-0.010798534
-0.0097535074
-0.0085729468
-0.0070892582
-0.0053039571
-0.0035358123
-0.0021882674
-0.00096902465
-0.013574462
-0.013982972
-0.013983333
-0.013603377
-0.012916689
-0.012035909
-0.011133175
-0.010489918
-0.010593635
-0.011414966
-0.013037985
-0.015581426
-0.018859985
-0.022634959
-0.027180482
-0.032860567
-0.039097316
-0.045106776
-0.050455776
-0.054558091
-0.057122614
-0.058071917
-0.057479801
-0.055530925
-0.052479143
-0.048612233
-0.044218797
-0.03956549
-0.034880359
-0.03034272
-0.026087471
-0.022197834
-0.018731943
-0.01570605
-0.013130835
-0.01100861
-0.0093004395
-0.0081172106
-0.0072159454
-0.014011938
-0.013150693
-0.012138074
-0.011087205
-0.0099799322
-0.0087027768
-0.0071412047
-0.0052943694
-0.0035173041
-0.002150611
-0.00096846435
-0.014501286
-0.014622364
-0.014355687
-0.013749253
-0.012933406
-0.012068405
-0.011388191
-0.011310131
-0.012438948
-0.014441414
-0.017341389
-0.021086257
-0.025316118
-0.029933703
-0.035338157
-0.041622484
-0.047814357
-0.053485145
-0.058125607
-0.061289169
-0.062808233
-0.062694369
-0.061088983
-0.05822366
-0.05438102
-0.049861186
-0.044952498
-0.039910665
-0.03494681
-0.030221016
-0.025847949
-0.021892524
-0.018396842
-0.015362275
-0.012792683
-0.010682084
-0.0089924623
-0.0078195381
-0.0069285007
-0.014925743
-0.01433835
-0.01341046
-0.012357217
-0.011255264
-0.010069963
-0.0087100356
-0.0070787697
-0.005163866
-0.0033871992
-0.0020034537
-0.00091073643
-0.015185191
-0.015077963
-0.01458657
-0.013817564
-0.01298958
-0.012292576
-0.012109588
-0.013002018
-0.015523017
-0.018977717
-0.02320602
-0.028033422
-0.033082161
-0.03846972
-0.044577371
-0.051018937
-0.056889473
-0.061940412
-0.065655644
-0.067742654
-0.068136479
-0.066925369
-0.064307416
-0.06055054
-0.055957594
-0.050833082
-0.045459189
-0.040075624
-0.034875392
-0.029997239
-0.025535875
-0.021536782
-0.018026087
-0.014993401
-0.01243958
-0.010349865
-0.008682602
-0.0075194722
-0.006625257
-0.015630302
-0.015217555
-0.014519076
-0.013528286
-0.012432694
-0.011261415
-0.010011173
-0.0085667095
-0.0068428064
-0.0048900509
-0.003141276
-0.0017791154
-0.00082559146
-0.0157135
-0.015402871
-0.014721354
-0.013891699
-0.013188996
-0.012932891
-0.013647817
-0.015927692
-0.020136657
-0.025202741
-0.030659663
-0.036395543
-0.042101494
-0.048165016
-0.054670508
-0.060813154
-0.066117086
-0.070290638
-0.072912772
-0.073823259
-0.07304269
-0.070725386
-0.067114273
-0.062504927
-0.057211362
-0.051536185
-0.045749063
-0.040071891
-0.034677552
-0.029682354
-0.025159538
-0.021134755
-0.017622101
-0.014604681
-0.012079667
-0.01001631
-0.0083681665
-0.0071958593
-0.0063017952
-0.016210423
-0.01591216
-0.015335324
-0.014531465
-0.01347651
-0.01231954
-0.01109445
-0.0097447821
-0.008214368
-0.0064327714
-0.0044786738
-0.0028183227
-0.0015163448
-0.00071111683
-0.016131203
-0.015629652
-0.014825658
-0.014058417
-0.013742996
-0.014325802
-0.016393909
-0.020414917
-0.026493616
-0.033160803
-0.039671044
-0.0460647
-0.052341594
-0.058849832
-0.065273788
-0.070816752
-0.075291222
-0.078379639
-0.079785708
-0.079453522
-0.077478054
-0.074067053
-0.069498875
-0.064087213
-0.058149802
-0.051981237
-0.045834476
-0.039912882
-0.034366077
-0.02928611
-0.024723626
-0.020689301
-0.017192103
-0.014207678
-0.011718794
-0.009674695
-0.0080174171
-0.0068518376
-0.0059663986
-0.016707923
-0.016519127
-0.015990353
-0.015259036
-0.014351968
-0.013223583
-0.011991017
-0.010661595
-0.009239253
-0.0076684756
-0.0058756652
-0.0039983424
-0.0024397649
-0.0012038
-0.00056846255
-0.01646213
-0.015799946
-0.014966348
-0.014516131
-0.014996893
-0.016879299
-0.020729426
-0.026727355
-0.034704922
-0.0428372
-0.050102618
-0.056962996
-0.063660006
-0.070235535
-0.076118719
-0.080805801
-0.084223187
-0.086074775
-0.086181938
-0.084573247
-0.08140695
-0.076933984
-0.071458238
-0.065303406
-0.058783866
-0.052181186
-0.045730724
-0.039613554
-0.03395256
-0.028814014
-0.024231622
-0.020209982
-0.016751839
-0.013809708
-0.011344899
-0.0092742777
-0.0076477419
-0.0064939721
-0.0056195042
-0.017137695
-0.017069504
-0.016592201
-0.015853826
-0.014975681
-0.013957556
-0.012712655
-0.011374103
-0.0099663176
-0.0085278222
-0.0069570594
-0.0052497196
-0.0034423855
-0.0019875897
-0.00083959616
-0.00040087491
-0.01672508
-0.015959329
-0.015334434
-0.015626347
-0.017372946
-0.021023542
-0.026936792
-0.034948301
-0.044732738
-0.054102387
-0.061791244
-0.068989602
-0.075786552
-0.081957682
-0.086953359
-0.090575975
-0.092758947
-0.093269312
-0.092028926
-0.089138233
-0.084807267
-0.079319902
-0.072996745
-0.066164069
-0.059127589
-0.052152886
-0.045455239
-0.039187414
-0.03344337
-0.028270169
-0.023695889
-0.019717566
-0.01631027
-0.01339216
-0.010882151
-0.0088548388
-0.0072614745
-0.0061239652
-0.0052611113
-0.017493536
-0.017577506
-0.017175121
-0.016435056
-0.015499368
-0.014471577
-0.013277588
-0.011904504
-0.010479484
-0.0090772168
-0.0076534284
-0.0061869478
-0.004522515
-0.0027967315
-0.0014549956
-0.00042929408
-0.00021638649
-0.016937254
-0.016292388
-0.016314866
-0.017842738
-0.021324136
-0.027102812
-0.035152741
-0.045057426
-0.056516757
-0.066712528
-0.074588485
-0.08190941
-0.088358692
-0.093709387
-0.097569509
-0.09995007
-0.10077365
-0.099877561
-0.097272696
-0.093119512
-0.087668344
-0.081227041
-0.074124462
-0.066683848
-0.059198791
-0.051916314
-0.045023576
-0.038641679
-0.032843377
-0.027670386
-0.023143173
-0.019222862
-0.015840518
-0.012847148
-0.01039982
-0.0084155644
-0.0068633233
-0.0057415801
-0.0048917601
-0.017758944
-0.0180077
-0.017745045
-0.017035481
-0.016050542
-0.014909721
-0.013641204
-0.012278008
-0.010813572
-0.0094022223
-0.0080231188
-0.0067209735
-0.0052990669
-0.0036850611
-0.0020530402
-0.00084283067
1.095409e-05
-1.6555459e-05
-0.017264325
-0.017198007
-0.018371809
-0.021617654
-0.027253402
-0.035309522
-0.045355186
-0.057073821
-0.069798313
-0.080457795
-0.088302175
-0.0953575
-0.10102985
-0.10522985
-0.10777612
-0.10878874
-0.10816693
-0.1058356
-0.10187752
-0.096501556
-0.089989595
-0.082663824
-0.074856128
-0.066882382
-0.059019983
-0.051489411
-0.044444062
-0.037982071
-0.032172348
-0.02704839
-0.022586529
-0.018689059
-0.015193975
-0.012281517
-0.0098934502
-0.007965646
-0.0064519326
-0.0053477976
-0.0045117769
-0.018101487
-0.018303483
-0.018228167
-0.017657151
-0.016657791
-0.015402217
-0.013959703
-0.012476466
-0.011004121
-0.0095541384
-0.0081677557
-0.0069225477
-0.0056738438
-0.0042851487
-0.0027338995
-0.0012213027
-0.00016153866
0.0004711476
0.00020615403
-0.018138836
-0.019117544
-0.021964754
-0.027385399
-0.03542258
-0.045618232
-0.05757975
-0.070779313
-0.084251165
-0.095073407
-0.1026092
-0.10893089
-0.11346958
-0.11631192
-0.11743175
-0.11697667
-0.11486441
-0.11109934
-0.10582225
-0.099280698
-0.09177804
-0.083645052
-0.075212599
-0.066783878
-0.058611423
-0.050881228
-0.043723107
-0.037233148
-0.031472332
-0.026419775
-0.021977011
-0.01791812
-0.014524729
-0.011686315
-0.0093783297
-0.0075019542
-0.0060288525
-0.0049428171
-0.0041217531
-0.018965377
-0.01864233
-0.01853609
-0.01818893
-0.017319753
-0.015990362
-0.014369914
-0.012662603
-0.011059062
-0.0095773845
-0.0081508212
-0.0068900062
-0.0057109988
-0.0044912407
-0.003149252
-0.0016828019
-0.0003181193
0.00056467679
0.00094045999
0.00044638041
-0.019987866
-0.022498795
-0.027548932
-0.035489094
-0.045817445
-0.058038442
-0.071675783
-0.085797575
-0.099512663
-0.11023698
-0.11705947
-0.12229255
-0.12544908
-0.12680936
-0.1264094
-0.12442599
-0.12081363
-0.11564146
-0.10909917
-0.10146157
-0.093047659
-0.084192825
-0.075220322
-0.06641099
-0.057983056
-0.050099299
-0.042890631
-0.03644662
-0.030761772
-0.025721172
-0.021055753
-0.017122088
-0.013819388
-0.011085114
-0.0088493645
-0.0070268954
-0.0055943066
-0.0045275476
-0.0037221009
-0.020752808
-0.019467226
-0.018861083
-0.018509689
-0.01788966
-0.016674413
-0.014919046
-0.01297403
-0.01112328
-0.0094845269
-0.0080189665
-0.0067054912
-0.005520103
-0.0043632034
-0.0031798141
-0.0019077925
-0.0005614785
0.00061799786
0.0013021082
0.0013888156
0.00069749847
-0.023253407
-0.027886436
-0.035531607
-0.045923864
-0.058416967
-0.072474437
-0.087280491
-0.10167176
-0.11520716
-0.12552139
-0.13129043
-0.13518305
-0.13679807
-0.13658668
-0.13460723
-0.13107328
-0.12597952
-0.11945012
-0.11171052
-0.10305747
-0.093821427
-0.08433596
-0.074904189
-0.065774334
-0.057143
-0.049179434
-0.042009775
-0.035644039
-0.029959996
-0.024620619
-0.020106032
-0.016281672
-0.013111987
-0.010470538
-0.0083097437
-0.0065405256
-0.0051493965
-0.0041024208
-0.0033133712
-0.023912326
-0.021160185
-0.019618459
-0.018827949
-0.01821568
-0.01725908
-0.015597787
-0.013462983
-0.011347687
-0.0094377222
-0.0077960984
-0.0064213001
-0.0051910914
-0.0040090585
-0.0028866968
-0.0017662605
-0.00059088887
0.00060144885
0.0015553128
0.0020143283
0.001811817
0.00096218201
-0.028489427
-0.035672374
-0.04592323
-0.058649009
-0.073154043
-0.088598958
-0.10383852
-0.11794128
-0.13099947
-0.14058451
-0.14505155
-0.14742115
-0.14739728
-0.14553383
-0.1419522
-0.13687829
-0.13034595
-0.12252473
-0.11366842
-0.10409233
-0.094130878
-0.084100755
-0.074274828
-0.064882378
-0.0561342
-0.04819799
-0.041105758
-0.034724185
-0.028646937
-0.023487714
-0.019102146
-0.015444523
-0.01239227
-0.009846438
-0.0077595753
-0.0060440547
-0.0046947438
-0.003668316
-0.0028959461
-0.029003021
-0.024200912
-0.021205941
-0.019536986
-0.018536615
-0.017577319
-0.016165643
-0.014096121
-0.011764405
-0.0095723017
-0.0076452991
-0.0060625674
-0.0047715532
-0.0035303171
-0.0023766536
-0.0013115538
-0.00028205913
0.00076056008
0.0017556313
0.0024621308
0.0026672985
0.0022146867
0.001208198
-0.036096544
-0.045944843
-0.05868748
-0.073621819
-0.089704463
-0.10581896
-0.12076717
-0.13421724
-0.14662714
-0.15514194
-0.15814615
-0.15887119
-0.15711566
-0.15357393
-0.14839624
-0.14181842
-0.13390929
-0.12487575
-0.11499749
-0.10459984
-0.094003895
-0.083497976
-0.073340854
-0.063785724
-0.055047987
-0.047184166
-0.04005267
-0.033161732
-0.027296911
-0.022288577
-0.01810872
-0.01459654
-0.011664894
-0.009212787
-0.0072001364
-0.0055382972
-0.0042312546
-0.0032254413
-0.0024706942
-0.036421474
-0.029128128
-0.024132434
-0.021035765
-0.019212003
-0.01788953
-0.016447459
-0.014605414
-0.012308655
-0.0098986728
-0.0076737128
-0.0057898215
-0.0042873915
-0.0029685154
-0.0017495072
-0.00064987015
0.00032893809
0.0012276075
0.0021005485
0.002872441
0.0033016107
0.0032340238
0.0025478127
0.0013801602
-0.046210807
-0.058656319
-0.073801333
-0.090530673
-0.10752788
-0.12349637
-0.13763106
-0.15031849
-0.16178667
-0.16898303
-0.17039831
-0.16938618
-0.16588359
-0.16065568
-0.15391242
-0.14588711
-0.13667829
-0.12652814
-0.11573411
-0.10461021
-0.093450137
-0.08253548
-0.072160955
-0.062593332
-0.053917938
-0.045983057
-0.038199471
-0.031557243
-0.025866172
-0.021109242
-0.017106738
-0.01374343
-0.01092956
-0.0085710139
-0.0066323958
-0.0050240319
-0.0037587833
-0.0027748216
-0.0020381014
-0.046348354
-0.036317472
-0.028860828
-0.023813194
-0.020647782
-0.018532351
-0.016736366
-0.014847672
-0.012725274
-0.010350434
-0.0079090538
-0.0057168672
-0.0038870088
-0.0023592549
-0.0010492485
0.00011635021
0.001125724
0.0019765159
0.002711699
0.0033885462
0.0038909879
0.0040142653
0.0036629789
0.0027171775
0.001446446
-0.058804666
-0.073773877
-0.090975985
-0.10885137
-0.12594193
-0.14108588
-0.15421649
-0.16605233
-0.1762485
-0.1819781
-0.18167219
-0.17888554
-0.17363442
-0.16674289
-0.15848954
-0.14909055
-0.13867835
-0.12752158
-0.11591029
-0.10413041
-0.092476267
-0.081280855
-0.070864352
-0.061343664
-0.052554553
-0.043793734
-0.03629882
-0.029854356
-0.024467336
-0.019924357
-0.01610314
-0.012884463
-0.010187834
-0.0079221642
-0.0060568832
-0.004500566
-0.0032790836
-0.0023172185
-0.0015988252
-0.058806249
-0.04599746
-0.035783489
-0.028328743
-0.023320839
-0.019925672
-0.017355148
-0.015100544
-0.012916683
-0.010658955
-0.0082289613
-0.0058480875
-0.0036874886
-0.001825012
-0.00031572476
0.00094484527
0.0020098558
0.0028833478
0.0035749568
0.0041218958
0.0045475667
0.0047225385
0.0045381906
0.0038867865
0.0027257525
0.0013962546
-0.073845195
-0.09107043
-0.10968864
-0.1278932
-0.1443078
-0.15827761
-0.17037815
-0.18117146
-0.18986701
-0.19404048
-0.19189218
-0.18729787
-0.18030851
-0.17181749
-0.16212959
-0.15145369
-0.13995182
-0.12789094
-0.11553123
-0.1031654
-0.091159423
-0.079886218
-0.069495543
-0.059806354
-0.049979866
-0.041551334
-0.03427836
-0.028198718
-0.023066977
-0.01874242
-0.015096567
-0.012021316
-0.0094407779
-0.0072664237
-0.0054720632
-0.0039703715
-0.0027930217
-0.0018536552
-0.0011534176
-0.07376498
-0.058279449
-0.045214036
-0.035005872
-0.027678276
-0.022528918
-0.018726038
-0.015717284
-0.013158891
-0.010824004
-0.0084397798
-0.0060551035
-0.0036954646
-0.0015009606
0.00033237768
0.0017813022
0.002933549
0.0038536947
0.004557415
0.0050636559
0.0053499258
0.0054579129
0.0053054071
0.0048232891
0.0039187608
0.0026116963
0.0012603062
-0.091136902
-0.11002939
-0.12925667
-0.1469987
-0.16224096
-0.17496469
-0.18598833
-0.19552876
-0.20255774
-0.20505174
-0.20099994
-0.19456765
-0.18588164
-0.17587997
-0.16485739
-0.15302224
-0.14053762
-0.12763873
-0.1145972
-0.10180216
-0.08967768
-0.078403498
-0.067775616
-0.056793308
-0.047346219
-0.039163128
-0.032324443
-0.02654667
-0.021675462
-0.017561206