/*--------------------------------*- C++ -*----------------------------------*\
| =========                 |                                                 |
| \\      /  F ield         | OpenFOAM: The Open Source CFD Toolbox           |
|  \\    /   O peration     | Version:  5.0                                   |
|   \\  /    A nd           | Web:      www.OpenFOAM.org                      |
|    \\/     M anipulation  |                                                 |
\*---------------------------------------------------------------------------*/
FoamFile
{
    version     2.0;
    format      ascii;
    class       volScalarField;
    location    "120";
    object      pPrime2Mean;
}
// * * * * * * * * * * * * * * * * * * * * * * * * * * * * * * * * * * * * * //

dimensions      [0 4 -4 0 0 0 0];

internalField   nonuniform List<scalar> 
9200
(
2.1432222e-06
2.3096985e-06
1.3851872e-05
2.5480432e-06
1.4572083e-05
3.7670634e-05
3.0454415e-06
1.5477076e-05
3.9380111e-05
6.8300716e-05
3.8054014e-06
1.7182563e-05
4.1832699e-05
7.0983364e-05
0.00010544776
5.0855622e-06
1.9548779e-05
4.6230654e-05
7.4905259e-05
0.00010910118
0.00014625083
7.1577677e-06
2.2993715e-05
5.2304217e-05
8.1753729e-05
0.00011428537
0.00015050808
0.00018942735
1.0529724e-05
2.7740832e-05
6.0843009e-05
9.1079522e-05
0.00012320653
0.00015646025
0.00019405842
0.00023420658
1.5762479e-05
3.4222596e-05
7.2201401e-05
0.00010399113
0.0001351305
0.0001666634
0.00020029958
0.00023890275
0.00028002702
2.3703271e-05
4.2746964e-05
8.7230496e-05
0.00012085073
0.00015129807
0.00018006928
0.0002110214
0.00024494331
0.00028459112
0.00032676454
3.4678942e-05
5.3738225e-05
0.00010683103
0.00014263573
0.00017197903
0.00019799202
0.00022486008
0.00025551084
0.00029006273
0.0003310266
0.00037443311
4.5265739e-05
6.7139603e-05
0.00013205928
0.00017020858
0.00019820817
0.0002205
0.00024317898
0.0002689271
0.00029995164
0.00033564172
0.00037827941
0.00042316071
5.0654093e-05
8.4031639e-05
0.00016430036
0.00020493173
0.00023091305
0.00024854808
0.00026584793
0.00028659907
0.00031230464
0.00034447982
0.00038183084
0.00042651807
0.00047318158
5.604176e-05
0.00011111483
0.00020777685
0.00024937566
0.00027177918
0.00028294107
0.00029371905
0.00030819253
0.00032858925
0.00035534472
0.00038936874
0.00042886743
0.00047599773
0.00052467401
7.1739917e-05
0.00016069564
0.00027337835
0.00030945922
0.0003237916
0.00032533044
0.00032745144
0.00033446875
0.00034831874
0.00036980042
0.00039848857
0.00043496621
0.00047704437
0.0005269218
0.00057794664
0.00010126429
0.00025155145
0.00037815344
0.0003980053
0.00039342583
0.00037868759
0.0003685542
0.00036592886
0.00037218199
0.00038723015
0.00041089102
0.00044222957
0.00048162335
0.0005266088
0.00057959242
0.000633157
0.00014566108
0.00039706692
0.00054842562
0.0005359379
0.00049351287
0.00044924604
0.00041973591
0.00040389758
0.00040054871
0.00040828435
0.00042586343
0.00045253998
0.0004870075
0.00052964604
0.00057785702
0.00063416957
0.00069060782
0.00020263039
0.00059350196
0.00080613012
0.00075408461
0.00064751394
0.00054987737
0.00048664814
0.00045075555
0.00043457983
0.00043323902
0.0004440496
0.00046511495
0.00049530017
0.00053320355
0.00057933054
0.00063095731
0.00069095296
0.0007504367
0.00026156293
0.00082966507
0.0011444806
0.0010849709
0.00089110304
0.00070457031
0.00058124347
0.00051151794
0.00047639477
0.00046311087
0.00046563853
0.00048060967
0.00050568225
0.00053964816
0.00058112832
0.0006308618
0.00068619377
0.00075005467
0.00081287663
0.00031221196
0.00107365
0.0015403985
0.0015269015
0.0012617958
0.00094864894
0.00072614262
0.0005966795
0.000530328
0.00049975366
0.00049153403
0.00049913776
0.00051883194
0.00054816023
0.00058592197
0.00063098448
0.00068447172
0.00074365444
0.00081170581
0.00087807377
0.00034461236
0.0012947409
0.00194174
0.0020514487
0.0017643127
0.0013243918
0.0009560876
0.00072655032
0.00060519339
0.00054695135
0.00052336523
0.00052149387
0.00053479673
0.00055946003
0.00059294341
0.0006343503
0.00068295042
0.00074022608
0.00080356646
0.00087603015
0.000946205
0.0003435214
0.0014568815
0.0022987173
0.0025946105
0.0023677977
0.0018489074
0.0013168741
0.0009368866
0.00071885958
0.00061187376
0.00056437634
0.00054909388
0.00055426482
0.00057353531
0.00060297687
0.00064029799
0.00068506531
0.00073706518
0.00079832096
0.00086600648
0.00094319867
0.0010174092
0.00031082883
0.00152365
0.0025693044
0.0030816915
0.0030084079
0.0024941254
0.0018364139
0.0012717316
0.00090509259
0.00070971512
0.00062049521
0.00058469416
0.00057843526
0.00059096602
0.00061596607
0.00064971883
0.00069032665
0.00073806838
0.00079343904
0.00085875697
0.00093114014
0.001013339
0.0010918138
0.00026706547
0.0014979464
0.0027175492
0.003463886
0.0036031405
0.0032007144
0.0024955154
0.0017657542
0.0012056285
0.00086972693
0.00070397951
0.00063329003
0.00060964942
0.00061273119
0.00063238686
0.00066254033
0.00069978792
0.00074298533
0.00079335338
0.00085200305
0.00092168536
0.00099906728
0.0010865803
0.0011695257
0.00022204207
0.0014123828
0.0027117914
0.003707862
0.0040884435
0.0038828518
0.0032446942
0.0024176744
0.0016635032
0.0011338291
0.00083947864
0.00070426559
0.00065196564
0.00064071593
0.00065297787
0.00067915821
0.00071341685
0.00075310976
0.00079814985
0.00085076549
0.0009128467
0.0009871367
0.0010699182
0.0011630289
0.0012506364
0.00018064578
0.0013033282
0.0025943371
0.0037469542
0.0044182101
0.0044606287
0.0039932387
0.0031844541
0.0022931833
0.0015507059
0.0010683619
0.0008177374
0.00071290146
0.0006782797
0.00067921383
0.00070004522
0.00073153852
0.00076853512
0.00080945259
0.00085554701
0.00091025383
0.00097589069
0.001055229
0.0011438008
0.0012427852
0.0013352097
0.00014541125
0.0011778302
0.0024259093
0.003626875
0.004532806
0.0048781596
0.0046573733
0.0039861812
0.0030604503
0.0021452069
0.0014379541
0.0010104161
0.00080754424
0.00073140818
0.00071382735
0.00072633844
0.00075442281
0.00078955541
0.0008275642
0.00086839798
0.00091493852
0.00097161658
0.0010412326
0.0011260442
0.001220824
0.001325927
0.0014232598
0.00011641698
0.0010497642
0.0022201785
0.0034195374
0.004445642
0.0050927181
0.0051708051
0.0047275989
0.0038982244
0.0028952892
0.0019836027
0.0013278218
0.00096614
0.00081105937
0.00076161869
0.00076009509
0.00078283911
0.00081631223
0.00085285952
0.00088995001
0.00092948428
0.00097595825
0.0010348535
0.0011088649
0.0011997032
0.0013010831
0.0014124997
0.0015147496
9.3393896e-05
0.00092476609
0.001999718
0.0031629275
0.0042296584
0.0050717741
0.0054858963
0.0053322661
0.0047055963
0.0037495143
0.0027031342
0.0018181913
0.0012349815
0.00094135493
0.00083056329
0.00080515508
0.00081831884
0.00084923498
0.00088541856
0.00092078918
0.0009549936
0.00099211703
0.0010383992
0.0010998262
0.0011789109
0.0012763166
0.0013846601
0.0015025107
0.0016096537
7.5056804e-05
0.0008082585
0.0017802069
0.0028804305
0.0039521588
0.0048782557
0.0055543687
0.0057449565
0.0053968592
0.004610281
0.0035527272
0.0024953771
0.0016639257
0.0011638177
0.000938261
0.00086773893
0.00086375195
0.00088935831
0.00092542761
0.00096106176
0.00099240464
0.0010218017
0.0010558014
0.0011019567
0.0011666234
0.0012514583
0.001356
0.0014716157
0.0015959424
0.0017079887
5.855553e-05
0.00070325401
0.0015723542
0.0025932801
0.0036337627
0.0046000907
0.0054166181
0.005931245
0.0059182629
0.0053822072
0.0044490743
0.0033213031
0.0022820331
0.0015252496
0.0011188994
0.00095949333
0.00092394912
0.00093873256
0.00097348703
0.0010108431
0.0010421079
0.0010664846
0.0010895144
0.0011199776
0.0011665712
0.0012352422
0.0013266657
0.0014388639
0.0015619821
0.0016927566
0.0018096595
4.4331323e-05
0.00059877352
0.0013820376
0.0023163037
0.0033022605
0.0042681693
0.0051586955
0.0058776235
0.0062300372
0.006006042
0.005291858
0.0042313811
0.0030685604
0.0020716869
0.0014185641
0.0011069328
0.0010070525
0.0010010114
0.001030961
0.0010703866
0.0011042276
0.0011270059
0.0011417326
0.0011571989
0.0011843142
0.001232116
0.0013058744
0.0014046801
0.0015250076
0.0016557601
0.0017928672
0.0019143011
3.289786e-05
0.00049988761
0.0011891806
0.0020601905
0.0029771517
0.0039129184
0.0048333972
0.0056603414
0.0062814984
0.006431474
0.0060062557
0.0051283635
0.0039687675
0.0028083583
0.0018866165
0.0013527168
0.0011308315
0.0010823066
0.0011003724
0.0011404789
0.0011788609
0.0012037516
0.0012139499
0.0012167105
0.0012241275
0.0012484824
0.0012987334
0.0013786592
0.0014856775
0.001614506
0.001752917
0.0018961254
0.0020216015
2.4208983e-05
0.00041299782
0.0010033242
0.0017984804
0.0026732728
0.0035601024
0.0044716506
0.0053603631
0.006138983
0.0066155482
0.0065441704
0.0059231114
0.0049006974
0.0036800191
0.0025509871
0.0017413868
0.0013311208
0.0011934156
0.0011863172
0.0012227517
0.0012663485
0.0012968862
0.0013070875
0.0013008832
0.0012901454
0.0012896265
0.0013124498
0.0013665202
0.0014538685
0.0015698185
0.0017074033
0.0018533794
0.0020023782
0.0021314948
1.8127829e-05
0.00033967013
0.00083511719
0.0015449567
0.0023591843
0.0032254817
0.0041051079
0.0050107098
0.0058847746
0.0065761387
0.0068708267
0.0065654098
0.0057672464
0.0046226628
0.0033793754
0.002315924
0.0016520718
0.0013604532
0.0012957095
0.0013203485
0.0013676477
0.0014065814
0.0014216439
0.0014114538
0.0013858171
0.0013608287
0.0013533488
0.0013762229
0.0014358065
0.0015317292
0.0016572553
0.0018037134
0.0019570352
0.002111446
0.0022440179
1.4366254e-05
0.00028025682
0.0006885232
0.001311734
0.0020551464
0.0028740733
0.0037530743
0.0046471867
0.0055672157
0.0063855591
0.0069486715
0.0070165455
0.0064986152
0.0055416445
0.0043087385
0.0030809405
0.0021323611
0.0016271037
0.0014445241
0.0014385694
0.0014848245
0.0015333496
0.0015579779
0.0015496102
0.0015139706
0.001466792
0.0014279205
0.0014150861
0.0014400954
0.0015068745
0.0016125352
0.0017481068
0.0019034226
0.0020637436
0.0022230492
0.002359002
1.296367e-05
0.00023461128
0.0005660949
0.001105814
0.0017721043
0.0025361073
0.0033755985
0.004291611
0.0052214555
0.0061191647
0.0068427871
0.007227533
0.0070618039
0.0063559736
0.0052587565
0.0039770762
0.0028057553
0.0020245958
0.0016699527
0.0015862696
0.0016215104
0.0016784172
0.0017164595
0.0017162176
0.0016768267
0.001611684
0.0015422362
0.0014908078
0.001474986
0.0015043946
0.0015801666
0.0016965245
0.0018424603
0.0020064756
0.0021733803
0.002337008
0.002476057
1.4024771e-05
0.00020250214
0.00046963395
0.00093159991
0.0015200804
0.0022181433
0.0030151331
0.0038981959
0.0048760833
0.0058114722
0.0066381828
0.0072306304
0.0074169361
0.0070224527
0.0061429122
0.0049336259
0.003647707
0.0025956412
0.0020072517
0.0017863501
0.0017835827
0.0018442037
0.001897926
0.0019119844
0.0018761773
0.0017990913
0.0017020134
0.0016108969
0.0015493418
0.0015333493
0.0015696685
0.0016560558
0.0017839496
0.0019403621
0.0021127503
0.0022857384
0.0024531183
0.0025948969
1.7443458e-05
0.0001833005
0.00039967268
0.00079267296
0.0013059569
0.0019329976
0.0026726851
0.0035243285
0.0044746891
0.0054940067
0.0063791109
0.0071016093
0.0075427459
0.0075025833
0.0069002869
0.0058680682
0.0045877683
0.00335449
0.0024815597
0.0020810018
0.0019826747
0.002034911
0.0021039213
0.00213779
0.0021135499
0.0020321322
0.0019124592
0.0017827377
0.0016721107
0.0016036625
0.0015907796
0.0016364612
0.001734999
0.0018749976
0.0020418276
0.0022221041
0.0024005819
0.0025711102
0.0027151934
2.3279875e-05
0.00017650477
0.00035575098
0.00069069646
0.0011358458
0.0016899553
0.0023635725
0.0031645093
0.0040991243
0.0050974179
0.0061010752
0.0069053745
0.007503308
0.0077734862
0.0074946303
0.0067091056
0.005548287
0.0042470595
0.0031343299
0.0024908298
0.0022526578
0.0022566862
0.0023373879
0.00239489
0.0023903572
0.0023136099
0.0021783974
0.0020133644
0.0018523637
0.0017256471
0.001654335
0.0016479814
0.0017054414
0.0018173667
0.0019698334
0.0021468074
0.0023343681
0.0025176619
0.0026907166
0.0028365892
0.00018112937
3.1733757e-05
0.00033663289
0.00062615267
0.0010123528
0.0014977216
0.0020994265
0.0028372875
0.0037278364
0.0047343224
0.0057207975
0.0066764218
0.0073834086
0.007858884
0.0079176441
0.0074120699
0.0064569768
0.0052045613
0.0039518767
0.0030445823
0.0026287477
0.0025277137
0.0026027077
0.0026855776
0.0027083963
0.0026461739
0.0025043325
0.0023095719
0.002099085
0.0019100165
0.0017718789
0.0017021613
0.0017058413
0.0017772326
0.0019035446
0.0020685334
0.0022552056
0.0024493352
0.0026367055
0.0028116489
0.0029587748
0.00034058126
0.00019617697
4.2852675e-05
0.00059747904
0.00093546581
0.0013601917
0.0018916675
0.0025567326
0.0033861849
0.0043637784
0.0053806344
0.0063217971
0.0072214017
0.0078284813
0.0081410713
0.0079550303
0.007256561
0.0061570037
0.0048724368
0.0037642524
0.0031143965
0.0028894951
0.0029080898
0.0030134501
0.00306982
0.0030326613
0.0028947
0.0026779283
0.0024212113
0.0021677301
0.0019556629
0.0018116086
0.0017482468
0.0017652628
0.0018524834
0.0019937951
0.0021711443
0.0023668689
0.0025667642
0.002757427
0.0029336138
0.0030814849
0.00060172615
0.00036513809
0.00022041602
5.6803758e-05
0.00090316059
0.0012771186
0.0017458573
0.0023370965
0.0030903138
0.0040174076
0.0050219252
0.0060160733
0.006909606
0.0077465085
0.0082271836
0.0083346523
0.0079143862
0.007039458
0.0058344361
0.0046179999
0.003739288
0.0033564418
0.0032820577
0.0033828723
0.0034779351
0.0034760575
0.0033539793
0.0031251054
0.0028276165
0.0025099047
0.0022185282
0.0019899259
0.0018461012
0.0017938101
0.0018272137
0.001931716
0.0020883633
0.0022776277
0.0024816116
0.0026863904
0.0028795319
0.0030563145
0.0032044653
0.00091125993
0.00063492082
0.00040712803
0.00025228632
7.4127361e-05
0.0012463897
0.0016617225
0.002185229
0.002856778
0.0037126438
0.0046803799
0.0056769695
0.0066504204
0.0074909842
0.0082495576
0.0085684553
0.0084451834
0.007809434
0.0067741863
0.0055498725
0.0045118651
0.0039245581
0.0037610083
0.0038074266
0.0039370981
0.0039802524
0.0038869636
0.0036578375
0.00332752
0.0029479114
0.002573739
0.0022516635
0.0020141287
0.0018768917
0.001840207
0.0018926223
0.0020154517
0.0021873789
0.0023879008
0.0025992082
0.0028079301
0.003002725
0.0031794697
0.0033274407
0.001262355
0.00095427853
0.00069110737
0.00046259196
0.00028984294
9.4228165e-05
0.0016369828
0.002101606
0.0026956665
0.0034654624
0.0043747685
0.005349467
0.0063453277
0.0072982433
0.0080652616
0.0087142873
0.0088357361
0.0084660317
0.0076370991
0.0065074949
0.0053872087
0.0046220012
0.0043307658
0.0043238156
0.0044535474
0.004550318
0.0044991023
0.0042832911
0.0039303247
0.0034935453
0.0030351254
0.0026121307
0.0022683654
0.002030092
0.0019057737
0.0018888075
0.0019623423
0.0021040796
0.0022909132
0.0025018041
0.0027194007
0.0029310856
0.003126707
0.0033028006
0.0034501374
0.0016643787
0.0013179552
0.0010240807
0.00076393085
0.00052721337
0.00033058683
0.0001160836
0.0020843698
0.0026095163
0.0032915369
0.0041237005
0.0050530083
0.0060443493
0.007042642
0.0079557513
0.0086261796
0.0091265812
0.0090178561
0.0084135056
0.0074338684
0.0063240211
0.0054346673
0.0049907058
0.0049496358
0.0050483484
0.0051914924
0.0051968471
0.0050093434
0.0046460051
0.0041591868
0.0036171169
0.0030874543
0.0026259244
0.0022706168
0.0020400637
0.001934636
0.0019409353
0.0020371117
0.0021978931
0.0023989314
0.0026191357
0.0028419024
0.0030555529
0.0032511847
0.0034260356
0.0035722962
0.0021244375
0.0017347469
0.0014022759
0.0011122867
0.00084643688
0.00059631292
0.00037222329
0.00013741643
0.0025964275
0.0031994104
0.0039456223
0.0048084809
0.0057702545
0.0067840215
0.0077717833
0.0086199568
0.0091580969
0.0094692554
0.0091049128
0.0083067431
0.0072758267
0.0063340891
0.0057626629
0.0056462746
0.0057601994
0.0059147463
0.0059871107
0.0058446417
0.0054853823
0.0049578216
0.0043350309
0.0036945707
0.0031050169
0.0026171509
0.0022611505
0.002046526
0.00196538
0.0019978062
0.002117553
0.0022970603
0.002511334
0.0027396413
0.0029664111
0.0031810253
0.0033758684
0.0035489112
0.0036936891
0.0026465948
0.0022101039
0.0018345199
0.0015050174
0.0012090455
0.00093253685
0.00066421777
0.00041073119
0.00015580782
0.0031862613
0.0038526426
0.0046344781
0.0055446011
0.0065471815
0.0075739762
0.0085315677
0.0092797994
0.0096440558
0.0097340336
0.0091187258
0.0082148953
0.0072827916
0.0066252588
0.0064241453
0.006569544
0.0067497612
0.0068782272
0.0067991863
0.0064603827
0.0059036193
0.0052049772
0.0044516515
0.00372495
0.0030896934
0.0025889174
0.0022431139
0.0020520765
0.0019998471
0.0020604932
0.0022041344
0.0024016499
0.0026279417
0.0028630409
0.0030926079
0.0033071893
0.003500474
0.0036711812
0.0038141079
0.0032421194
0.002744902
0.0023244701
0.0019505049
0.0016137496
0.0013059215
0.0010132411
0.00072627567
0.00044316904
0.0001681164
0.0038425315
0.0045485246
0.0053860632
0.0063523839
0.0073918848
0.0084170366
0.0093126636
0.0099152397
0.010073815
0.0099206575
0.0091218373
0.0082562119
0.0075578003
0.007279629
0.0074326562
0.0077181925
0.0078888935
0.0078835156
0.0075839979
0.0070119611
0.0062445045
0.0053777452
0.0045063586
0.0037095843
0.0030448561
0.0025450537
0.0022198682
0.0020593164
0.002039735
0.0021298977
0.0022971917
0.002511621
0.0027485251
0.0029890163
0.0032201555
0.0034337281
0.003624737
0.0037926276
0.0039333564
0.0039056762
0.0033486733
0.0028710632
0.0024515803
0.0020678815
0.0017150836
0.0013915375
0.0010823745
0.00077600265
0.00046203431
0.00017156419
0.0045496478
0.005316631
0.006221329
0.0072449151
0.0083121828
0.0093131076
0.010103036
0.010509544
0.010446525
0.010075173
0.0092316041
0.008543371
0.008200377
0.0083487175
0.0087611858
0.0090517866
0.0091116532
0.0088703071
0.0082995917
0.0074724727
0.0064936196
0.0054710598
0.0044996557
0.0036520276
0.0029750189
0.0024898731
0.0021949494
0.002070738
0.0020865213
0.0022067403
0.002396916
0.0026268477
0.0028727915
0.0031172126
0.0033487007
0.00356035
0.0037484354
0.0039130549
0.0040512355
0.0046267162
0.0040214836
0.00348193
0.0030058777
0.0025732459
0.0021688028
0.0017984618
0.0014580517
0.0011252693
0.00080134766
0.00046270592
0.0001691685
0.0053370373
0.0061773326
0.0071519179
0.0082300553
0.0093082913
0.010246032
0.010875828
0.011066101
0.010776955
0.010289652
0.0095599499
0.0091886838
0.009303702
0.009840796
0.010346386
0.010508361
0.010334953
0.0097840011
0.0089094191
0.007821461
0.0066426398
0.005484208
0.0044351064
0.003557457
0.0028855319
0.0024279837
0.0021718195
0.0020886098
0.0021414627
0.0022915623
0.0025033553
0.0027471053
0.0030003805
0.0032472406
0.0034779237
0.0036868266
0.0038713655
0.0040322415
0.0041731994
0.0054342565
0.0047572139
0.0041611778
0.0036195799
0.0031285546
0.0026703861
0.00224419
0.001848692
0.0014806939
0.0011303172
0.00079756732
0.00045274728
0.00016123775
0.0062240396
0.0071417129
0.0081888118
0.0093125478
0.01037054
0.011194502
0.011621122
0.011597048
0.011125885
0.010692206
0.010227447
0.010309991
0.01092373
0.011693327
0.012083361
0.01199835
0.011484633
0.010576704
0.0093852831
0.0080463063
0.0066890559
0.0054203856
0.0043185239
0.0034323242
0.0027822337
0.0023640091
0.0021537482
0.0021149257
0.0022055936
0.0023846888
0.0026164035
0.0028720539
0.0031308793
0.0033787555
0.0036075888
0.0038129387
0.0039932403
0.004154938
0.0043019777
0.0063473356
0.0055829816
0.0049062418
0.0042990361
0.0037372324
0.0032190414
0.0027357403
0.0022658108
0.0018394858
0.0014553209
0.0010982362
0.00078060785
0.00043278215
0.00014986823
0.0072214161
0.008221422
0.0093413632
0.010486514
0.011480601
0.012137492
0.012356747
0.012139842
0.011604724
0.01140289
0.011365958
0.012009341
0.013026192
0.01377673
0.013875542
0.013422228
0.012497487
0.011210321
0.009709203
0.0081420122
0.0066356405
0.0052860599
0.0041575352
0.0032838332
0.0026711399
0.002302423
0.002143707
0.0021513902
0.0022796776
0.0024862356
0.0027358006
0.0030012841
0.0032639357
0.0035115179
0.0037374495
0.0039382926
0.0041183383
0.0042840879
0.0044340989
0.0073771277
0.0065190548
0.0057423218
0.0050439216
0.0044061429
0.0038169224
0.003258914
0.0027199339
0.0022152684
0.0017770482
0.001389754
0.001058011
0.00074412449
0.00040688885
0.00013583031
0.0083391569
0.0094239282
0.010603219
0.011739674
0.012616406
0.013076313
0.013117324
0.012773062
0.012332929
0.012571374
0.013109792
0.014308008
0.015471891
0.015935248
0.015613314
0.014696972
0.013323371
0.011659826
0.0098728463
0.0081105981
0.0064894837
0.0050902605
0.0039609575
0.0031196267
0.0025581743
0.002247436
0.0021443106
0.0021993709
0.0023641673
0.0025960812
0.0028611869
0.0031344528
0.0033993065
0.0036452299
0.0038669758
0.0040668549
0.0042499146
0.0044171466
0.004569539
0.0085310534
0.0075758144
0.0066905218
0.0058780669
0.0051373336
0.0044633179
0.003817554
0.0032015943
0.0026192214
0.002109136
0.0016692488
0.0013231773
0.00099358864
0.00069823134
0.00037539892
0.00012019685
0.0095807437
0.010743281
0.011964597
0.013049078
0.013771434
0.014049337
0.013939922
0.013566063
0.01345347
0.014350802
0.015526976
0.017091242
0.018066758
0.018036902
0.017195515
0.015753127
0.013928281
0.011912605
0.0098770898
0.0079599534
0.0062611335
0.0048435874
0.0037382431
0.0029473538
0.0024490054
0.0022028469
0.0021577492
0.0022598308
0.002459203
0.002713994
0.0029922614
0.0032713182
0.0035366213
0.0037792035
0.0040000303
0.0042022702
0.0043859743
0.0045540715
0.004708256
0.0098045854
0.0087611003
0.0077641269
0.0068250811
0.0059556275
0.0051740177
0.0044221434
0.00371023
0.0030467733
0.0024657275
0.0019549601
0.0015699478
0.0012251274
0.00091879268
0.00064223258
0.00033924202
0.00010440055
0.010935205
0.012172128
0.013410045
0.014400998
0.014969904
0.015088054
0.014862273
0.014648503
0.015147477
0.016844261
0.01856007
0.020132314
0.020618266
0.019969429
0.018526088
0.016545963
0.01429434
0.011968088
0.0097305522
0.0077023687
0.0059633218
0.0045576145
0.0034989852
0.0027744354
0.0023489234
0.0021719278
0.0021856988
0.0023333349
0.002564765
0.0028397723
0.003128794
0.0034114196
0.003675006
0.0039174366
0.0041406996
0.0043428034
0.0045265075
0.0046947812
0.0048501901
0.011178602
0.010060786
0.0089708511
0.0079008036
0.0068866337
0.0059623608
0.0050785972
0.0042544744
0.0034980469
0.002841285
0.0022599202
0.0018169806
0.0014318907
0.001115781
0.00083260478
0.00057863244
0.00030014137
8.9097019e-05
0.012398922
0.013697509
0.014918095
0.015811727
0.016241728
0.01620448
0.015976669
0.016238581
0.017536659
0.020038823
0.021988995
0.023179394
0.022962738
0.02162677
0.019545163
0.017051857
0.014419141
0.011835773
0.0094479006
0.0073531712
0.005610112
0.0042442314
0.0032526641
0.0026078718
0.0022625706
0.0021573046
0.0022293178
0.0024202211
0.0026808497
0.0029732205
0.0032702206
0.0035536758
0.0038188636
0.0040644974
0.004287185
0.004488509
0.0046713964
0.0048391894
0.0049952653
0.012649499
0.011440082
0.010282646
0.0091143511
0.0079485911
0.0068524877
0.0058080646
0.0048436493
0.0039806749
0.0032356529
0.002580335
0.0020796692
0.0016353219
0.0012842316
0.00099547852
0.00073955936
0.00050976011
0.0002591852
7.5558566e-05
0.013961067
0.015306792
0.01650065
0.017313284
0.017588639
0.017439615
0.017504401
0.018479613
0.020632483
0.023750348
0.02550856
0.026022444
0.024993394
0.02292544
0.02022213
0.017265977
0.014312868
0.011533127
0.0090475448
0.0069294011
0.0052160446
0.0039152041
0.0030083416
0.0024540074
0.0021938065
0.0021609908
0.0022895185
0.0025207855
0.0028073356
0.0031136546
0.003415234
0.0037032475
0.0039732898
0.0042181566
0.0044396454
0.0046392257
0.0048205332
0.004987176
0.0051433994
0.014209626
0.012893875
0.011648003
0.010420662
0.0091491819
0.0078736105
0.0066361639
0.0054996704
0.0045086545
0.0036568764
0.0029152989
0.0023547658
0.0018488927
0.0014444083
0.0011271973
0.00086979743
0.00064335106
0.00043975745
0.00021794989
6.4326396e-05
0.015609945
0.017006002
0.018187891
0.018903398
0.019004677
0.018978924
0.0196239
0.021402272
0.024312258
0.027661088
0.028855271
0.028504694
0.026616358
0.023818628
0.020549191
0.017198733
0.013996064
0.011082357
0.0085503125
0.0064487707
0.0047955762
0.0035819025
0.0027742781
0.0023182202
0.0021457638
0.0021846814
0.0023670888
0.0026350553
0.0029434103
0.0032595453
0.0035701553
0.0038657887
0.0041352252
0.0043787338
0.0045978825
0.0047948382
0.0049737648
0.0051386144
0.0052944954
0.015850181
0.014428926
0.013063873
0.011749825
0.010427463
0.0090379671
0.0075951803
0.0062505076
0.0050934966
0.004116696
0.0032735947
0.0026420765
0.0020735075
0.0016118798
0.0012453924
0.0009676854
0.00074511257
0.0005508142
0.00037288002
0.00017877054
5.5599466e-05
0.017345731
0.018808876
0.019982153
0.020539113
0.020641437
0.021033182
0.022384391
0.024917458
0.028325784
0.031454601
0.031834527
0.030518968
0.027774855
0.024296133
0.020536504
0.016874055
0.013495733
0.010508924
0.007977694
0.0059288286
0.0043626274
0.003254801
0.0025576311
0.0022050646
0.002121239
0.0022298943
0.0024622816
0.0027621006
0.0030873459
0.0034188734
0.0037412388
0.0040369117
0.0043052092
0.004546003
0.0047617737
0.004955165
0.0051309254
0.0052933482
0.0054484476
0.017565879
0.016027336
0.014544562
0.013103726
0.011695494
0.010257519
0.0086954207
0.0071315645
0.0057697979
0.004632951
0.0036686536
0.0029502908
0.0023080077
0.0017879348
0.001370264
0.0010484795
0.00081277384
0.00062736994
0.00046486039
0.00031142054
0.00014302201
4.8473563e-05
0.019180882
0.020727288
0.021829118
0.02234428
0.022716348
0.023679775
0.025685241
0.02882866
0.032349262
0.034893762
0.0343011
0.032001517
0.028445302
0.024362926
0.020212277
0.016325323
0.012843068
0.009839049
0.0073509255
0.0053863909
0.0039300584
0.0029430767
0.0023646968
0.0021187698
0.0021227192
0.002297251
0.0025740457
0.0029000477
0.0032493488
0.0035985314
0.0039222119
0.0042174583
0.0044829785
0.0047198328
0.0049311267
0.0051200066
0.0052918139
0.0054512118
0.0056051343
0.019364991
0.017678431
0.016070276
0.014499148
0.012968818
0.011433585
0.0098261857
0.0081454836
0.0065683238
0.0052364228
0.00411276
0.0032922505
0.0025603508
0.0019717321
0.0015012282
0.0011342959
0.00086234656
0.0006712393
0.00052160413
0.00038813306
0.00025538128
0.00011202863
4.2736725e-05
0.021136633
0.022738152
0.023835096
0.024535575
0.025318071
0.02680065
0.029342549
0.032885112
0.036104156
0.037818628
0.036172436
0.032920026
0.028636657
0.024051935
0.019617107
0.015590522
0.012070326
0.0090985225
0.0066901244
0.004836862
0.0035092564
0.0026549498
0.0022014739
0.0020631221
0.0021513668
0.0023856351
0.002700487
0.0030619782
0.003437017
0.0037897
0.0041143076
0.0044071111
0.0046684075
0.004900018
0.0051057129
0.0052891281
0.005456211
0.0056120174
0.0057644541
0.02128429
0.019386792
0.017620638
0.015919468
0.01425401
0.012596798
0.010885428
0.0091629155
0.0074777753
0.005949288
0.0046315465
0.0036780177
0.002840171
0.0021702647
0.0016366572
0.0012241725
0.00091443284
0.00069564497
0.00054727921
0.00043025869
0.00031990112
0.00020633485
8.6481447e-05
3.7444674e-05
0.023226734
0.024928901
0.026209481
0.027198645
0.028346205
0.03020603
0.033172333
0.0368359
0.039404013
0.040135317
0.037417455
0.033284724
0.028383149
0.023415892
0.018797494
0.01470943
0.011209087
0.0083115267
0.0060135668
0.0042939207
0.0031105263
0.0023985159
0.002073388
0.0020399954
0.0022061141
0.0024932607
0.0028582464
0.0032563049
0.0036382611
0.0039941126
0.0043171335
0.0046057658
0.0048612813
0.0050863146
0.0052852682
0.005462262
0.0056238746
0.0057756036
0.0059262687
0.023361643
0.02120375
0.019209032
0.01734761
0.015544751
0.013751291
0.01192065
0.010105557
0.0083753479
0.006754059
0.0052501324
0.0041363508
0.003157004
0.0023932097
0.0017852834
0.0013169044
0.00096983977
0.00072151699
0.00055356803
0.00044362508
0.00035255548
0.00026140906
0.00016645899
6.5901517e-05
3.1510228e-05
0.025536441
0.027490267
0.029029459
0.030233074
0.03157728
0.033708076
0.0370071
0.040450152
0.042137537
0.041793995
0.038028385
0.033130821
0.02773943
0.022508639
0.017801781
0.013720688
0.010288482
0.0074994124
0.0053371726
0.0037700767
0.0027442247
0.0021811742
0.0019832472
0.0020484891
0.0022856252
0.0026410102
0.003056761
0.0034668752
0.0038554309
0.0042112721
0.0045306207
0.0048132015
0.0050613466
0.0052784357
0.0054694807
0.0056391213
0.0057945926
0.0059417618
0.0060904354
0.025701284
0.023194529
0.020890868
0.018797763
0.016835707
0.014900389
0.01293577
0.011005047
0.0091957522
0.0075296398
0.005930981
0.0046833555
0.0035363763
0.0026454629
0.0019555218
0.0014214748
0.0010271904
0.00075015854
0.00056078853
0.00043905819
0.00035925068
0.00028928611
0.00021503093
0.00013405366
5.057785e-05
2.4285117e-05
0.028240211
0.03050267
0.03218356
0.033394043
0.034771703
0.037181383
0.040655258
0.043583055
0.044248171
0.042779301
0.038041441
0.032514394
0.026762588
0.021389803
0.016677065
0.012659604
0.009333745
0.0066804713
0.0046755338
0.0032779222
0.00241997
0.0020068496
0.0019304311
0.0020880777
0.0024152771
0.0028397218
0.0032750209
0.0036967904
0.0040878842
0.0044411606
0.0047545446
0.0050291625
0.0052682988
0.0054760361
0.0056580247
0.005819446
0.0059681
0.0061102686
0.0062568019
0.02847164
0.025475849
0.022746187
0.020331346
0.01814661
0.016046932
0.013939855
0.011894111
0.0099786544
0.0082378468
0.0065790435
0.0052756625
0.0039908141
0.0029505387
0.0021500279
0.0015448311
0.001095545
0.00078018086
0.00057053476
0.00043475146
0.00035065481
0.00029444573
0.00024106361
0.00017875237
0.0001086342
3.9471136e-05
1.7028554e-05
0.031413709
0.033850064
0.035419563
0.036412541
0.037817891
0.040547723
0.043948126
0.046161401
0.045702341
0.043097417
0.03751428
0.031500075
0.025526868
0.020118576
0.015466958
0.011556283
0.0083656115
0.0058711137
0.0040434445
0.0028293333
0.0021429139
0.0018753187
0.0019156909
0.0021887273
0.0026080929
0.0030628254
0.0035170183
0.0039452067
0.0043356647
0.0046835494
0.0049886516
0.0052533327
0.0054817679
0.0056787568
0.0058506053
0.0060029261
0.0061441008
0.0062808835
0.0064252108
0.031742672
0.028199606
0.024897804
0.022033603
0.019531742
0.017211121
0.014949223
0.012778627
0.010756766
0.0089205022
0.0071745364
0.0058385559
0.0044752729
0.0033198495
0.0023869139
0.0016873909
0.0011792972
0.00082069989
0.00058170121
0.00043248824
0.00034151368
0.00028637239
0.00024838521
0.00020507791
0.00014999443
8.786295e-05
3.1144891e-05
1.1358907e-05
0.034950156
0.037263876
0.038443223
0.039136288
0.040731131
0.043711299
0.046790934
0.04815573
0.046498484
0.042792682
0.03652803