/*--------------------------------*- C++ -*----------------------------------*\
| =========                 |                                                 |
| \\      /  F ield         | OpenFOAM: The Open Source CFD Toolbox           |
|  \\    /   O peration     | Version:  5.0                                   |
|   \\  /    A nd           | Web:      www.OpenFOAM.org                      |
|    \\/     M anipulation  |                                                 |
\*---------------------------------------------------------------------------*/
FoamFile
{
    version     2.0;
    format      ascii;
    class       volVectorField;
    location    "120";
    object      U;
}
// * * * * * * * * * * * * * * * * * * * * * * * * * * * * * * * * * * * * * //

dimensions      [0 1 -1 0 0 0 0];

internalField   nonuniform List<vector> 
9200
(
(1.0575093 0.0043848676 -3.1548491e-24)
(1.0562533 0.014362237 3.1208521e-22)
(1.0464617 0.0034771106 0)
(1.0541937 0.022805066 -1.5444056e-22)
(1.0451968 0.011214955 3.0158472e-22)
(1.0427125 0.0030315909 0)
(1.0510258 0.031441519 -1.537509e-23)
(1.0433198 0.017552988 -7.8765268e-24)
(1.0415787 0.0097162969 0)
(1.0371157 0.0024402381 0)
(1.0468481 0.039300709 3.5383675e-22)
(1.0402731 0.023767002 3.2300917e-22)
(1.0398456 0.015146491 2.9784559e-22)
(1.0361329 0.0077999687 1.7230005e-23)
(1.0337241 0.0020041523 3.0112436e-25)
(1.0415512 0.046777093 4.0043375e-22)
(1.0364451 0.029014497 4.9333602e-24)
(1.0371232 0.020362146 9.9880456e-22)
(1.0346381 0.012065722 4.0660163e-22)
(1.0328924 0.0064229579 1.6878916e-23)
(1.0307124 0.0016224965 -7.5657544e-22)
(1.0352285 0.053475142 5.1395652e-22)
(1.0318449 0.033569969 4.5914123e-22)
(1.0337862 0.024686085 -5.8986165e-22)
(1.0323175 0.016027742 -4.5344992e-23)
(1.0316426 0.0098779391 3.6803708e-22)
(1.0300194 0.0052132931 3.6730358e-22)
(1.0284503 0.0013210802 6.8143064e-23)
(1.0280683 0.059311561 2.3119698e-22)
(1.0266308 0.037189962 5.0691008e-22)
(1.0297101 0.028312004 7.3113453e-22)
(1.0294791 0.019136672 6.6376578e-23)
(1.0297217 0.012989215 -9.3767779e-22)
(1.0290258 0.0079683985 -4.1031405e-22)
(1.027887 0.0042337336 -4.2105944e-22)
(1.0266475 0.0010840377 6.9759814e-22)
(1.0204557 0.064055066 -1.3323434e-21)
(1.020869 0.039894443 4.7632056e-22)
(1.0250462 0.03109603 7.9612892e-23)
(1.0261046 0.021549573 2.9855503e-22)
(1.0274152 0.015314528 1.205317e-22)
(1.0275113 0.010365145 -1.338427e-21)
(1.0271395 0.0064373143 1.2614055e-22)
(1.0262033 0.0034358921 -7.1584621e-22)
(1.0252388 0.00089862073 -1.4858139e-21)
(1.0122 0.067406604 1.1729106e-21)
(1.0145579 0.041656532 -1.7124774e-23)
(1.019852 0.033082938 -5.2069357e-23)
(1.0222933 0.023147425 -2.6614075e-22)
(1.0247106 0.016938591 -1.3854277e-22)
(1.0257353 0.012055806 1.6374363e-22)
(1.0260009 0.0082926142 4.6795231e-22)
(1.0256731 0.0052070982 7.972088e-22)
(1.0249035 0.0027896866 4.5233021e-22)
(1.0241263 0.00075465302 1.194362e-22)
(1.0027771 0.069435775 -6.1806619e-22)
(1.0078078 0.042649535 3.6988462e-22)
(1.0142128 0.034260074 3.8667708e-22)
(1.0180889 0.023936731 -4.9586233e-22)
(1.0216976 0.017777946 2.6833583e-22)
(1.0237105 0.013074675 -1.1136446e-21)
(1.0247165 0.0095391197 4.3940835e-23)
(1.0248591 0.0066533899 1.192406e-21)
(1.0245541 0.0042276849 -6.0915729e-22)
(1.0238889 0.0022632017 1.3363274e-21)
(1.0232481 0.00064348102 -2.0609959e-22)
(0.99275119 0.070023061 9.920573e-23)
(1.001051 0.042851157 -7.9342693e-22)
(1.0082243 0.034603444 -6.4704432e-22)
(1.0135321 0.023927033 0)
(1.0184125 0.017804653 2.5807731e-23)
(1.02153 0.013363665 -2.1747849e-22)
(1.0233134 0.010175569 -2.2808445e-22)
(1.0239941 0.0076037979 -5.823016e-22)
(1.0240038 0.0053692752 -1.2606105e-22)
(1.0236806 0.0034420137 -7.7486668e-22)
(1.0231017 0.0018298118 -5.3036273e-22)
(1.0225543 0.00055099093 1.2293895e-22)
(0.98226537 0.06933143 4.1887904e-23)
(0.99455955 0.042305754 1.7991355e-22)
(1.0019987 0.034240081 0)
(1.0086514 0.023180053 0)
(1.0148777 0.017008146 -5.1670271e-23)
(1.0192473 0.012863625 -1.6494904e-22)
(1.0218981 0.010172623 -3.0924117e-22)
(1.0231142 0.0080317278 6.6478321e-22)
(1.0234686 0.0061346251 6.851855e-23)
(1.0233322 0.0043531761 1.4790316e-24)
(1.0229961 0.0028004566 8.8944456e-22)
(1.022496 0.0014663867 -9.7215905e-22)
(1.0220122 0.00045927474 1.9947735e-21)
(0.97173722 0.066971753 -3.1204944e-22)
(0.98847776 0.041194973 -1.0873124e-23)
(0.99559682 0.033352394 -2.9893936e-23)
(1.0034452 0.021793346 -1.4330651e-22)
(1.0110938 0.015383798 7.2776479e-23)
(1.0169095 0.011541744 -9.6508236e-23)
(1.0205499 0.009460863 1.6009567e-22)
(1.0223359 0.0079449972 6.8441948e-24)
(1.0229872 0.0064767273 7.3184399e-22)
(1.0230347 0.0050014721 7.0042867e-22)
(1.0227955 0.0035302806 2.422162e-22)
(1.0224599 0.0022625533 6.9944908e-22)
(1.0220367 0.0011547956 4.7751093e-22)
(1.0216008 0.00035800458 -5.508445e-22)
(0.96272976 0.062871946 -2.9018926e-22)
(0.98277346 0.039731034 -5.2952375e-22)
(0.98905421 0.032170154 -3.3009805e-22)
(0.997853 0.019910271 6.9590665e-23)
(1.0070149 0.012951447 -4.6770544e-23)
(1.014539 0.0093308866 1.5885555e-22)
(1.0193612 0.0080054822 1.3797025e-22)
(1.0217666 0.0072867102 -2.1265011e-22)
(1.0226765 0.0064491731 -3.5534484e-23)
(1.0228245 0.0053256797 -7.9289476e-23)
(1.0226538 0.0040932768 -1.4534645e-23)
(1.0223644 0.0028409098 -9.2278109e-23)
(1.0220458 0.0018003705 -9.1472906e-22)
(1.0216924 0.00088434106 4.6942002e-22)
(1.0213038 0.00025369272 -4.2739853e-22)
(0.95468771 0.058044418 4.2818426e-22)
(0.97736798 0.038129577 -4.2217197e-22)
(0.9824575 0.030973436 -2.4666898e-22)
(0.99180733 0.017620263 3.1183419e-22)
(1.0025559 0.0097058167 -2.4382888e-22)
(1.0121167 0.006173399 -9.7435379e-23)
(1.0183994 0.0057289845 7.3960752e-23)
(1.0215288 0.0060425936 6.3727098e-24)
(1.0226623 0.0060221366 -1.5599682e-22)
(1.0228061 0.0054279158 -1.1209863e-22)
(1.0226043 0.0044217956 -1.597693e-21)
(1.0223168 0.0033252229 3.6682125e-22)
(1.022027 0.0022446183 2.8629439e-22)
(1.0217347 0.0013988118 1.3656657e-22)
(1.0214363 0.00065215952 2.0267233e-23)
(1.0211016 0.00016466554 4.7851602e-22)
(0.94704107 0.052493965 0)
(0.97191716 0.036500573 6.6897368e-23)
(0.97577393 0.029938454 6.9141674e-22)
(0.98523072 0.015181277 0)
(0.99760798 0.0057665283 0)
(1.0096163 0.0019675605 0)
(1.0177253 0.0025521286 2.6229781e-23)
(1.021734 0.0041970677 2.9021909e-22)
(1.0230316 0.0052188205 2.798762e-23)
(1.0230832 0.0052985708 4.957037e-22)
(1.0227158 0.0046486791 5.3033724e-23)
(1.0223427 0.0036383153 3.4890022e-22)
(1.022037 0.0026408712 -3.8892028e-24)
(1.0217775 0.0017204049 -3.2693457e-22)
(1.0215107 0.0010521924 -8.9135024e-23)
(1.0212492 0.00045966095 -2.3219866e-22)
(1.020971 0.00010508844 0)
(0.93954785 0.047162632 4.5027462e-23)
(0.96579584 0.034964485 1.6207832e-21)
(0.96893863 0.029152172 7.9243694e-22)
(0.97811004 0.012894451 1.2577656e-21)
(0.99217577 0.0010108397 8.443082e-22)
(1.007013 -0.0033674118 0)
(1.0173958 -0.0016671109 5.5820811e-23)
(1.0225471 0.0016627836 1.5155206e-23)
(1.0239641 0.0041445778 6.2832892e-22)
(1.0236451 0.0050233846 9.3775458e-23)
(1.0230313 0.00478438 -3.0444619e-22)
(1.0224655 0.0039409944 8.001251e-23)
(1.0220879 0.0028962182 5.9824347e-22)
(1.0218318 0.00201605 -1.070254e-21)
(1.0216102 0.0012619286 -2.783692e-22)
(1.0213598 0.00075908474 -1.5655915e-21)
(1.0211188 0.00030714542 -6.1995248e-22)
(1.0208892 7.4401283e-05 -6.1517979e-22)
(0.93127191 0.042281205 -1.8383263e-23)
(0.95841019 0.033678571 9.4231416e-22)
(0.96164691 0.029198906 3.982774e-22)
(0.97048858 0.010692342 9.9990678e-22)
(0.98618079 -0.0046002805 -1.3761158e-22)
(1.0042409 -0.0099043786 1.655613e-22)
(1.0174247 -0.0070587189 1.9047692e-22)
(1.0240893 -0.0016845143 5.6550848e-22)
(1.0257135 0.0027062378 1.9415949e-22)
(1.0247885 0.0047782321 -5.4706417e-22)
(1.0235784 0.0050162727 -4.5007393e-23)
(1.0226891 0.0042532365 -6.7379423e-22)
(1.0221663 0.0031900381 1.3153668e-22)
(1.0218986 0.0021787086 8.2200827e-23)
(1.0217104 0.0014523607 1.2176629e-22)
(1.0215158 0.00086977301 2.3524846e-22)
(1.0212693 0.0005185646 -5.2261453e-22)
(1.0210365 0.0001908306 2.8985213e-23)
(1.0208392 6.1856858e-05 -5.9444634e-22)
(0.92155051 0.038098784 0)
(0.94839373 0.033121534 -1.874341e-21)
(0.95256222 0.029320272 1.9535743e-22)
(0.96224235 0.0086304635 -8.1552288e-22)
(0.97940357 -0.010770421 3.4254617e-22)
(1.0011288 -0.017685273 1.5082589e-22)
(1.0178106 -0.013772889 -5.2363104e-23)
(1.0264989 -0.0059497646 -1.7938419e-22)
(1.028413 0.00090778417 1.3288844e-22)
(1.0267589 0.0045607719 8.1867936e-22)
(1.0244708 0.0053278143 -9.8552339e-22)
(1.0231014 0.0047774445 2.125945e-22)
(1.0222498 0.0035152669 3.4373564e-22)
(1.0219303 0.002365957 -2.9934644e-23)
(1.0218108 0.0015033727 8.2173027e-23)
(1.02167 0.0009603882 7.4557169e-22)
(1.0214821 0.00054533337 -1.7950314e-22)
(1.0212269 0.00032851676 8.5586291e-22)
(1.0209929 0.00010428801 2.2773663e-22)
(1.0208103 5.7768133e-05 6.2890764e-22)
(0.90993101 0.034901465 6.4076398e-25)
(0.93447443 0.033672024 -3.2324207e-21)
(0.93987245 0.029616693 1.6785713e-21)
(0.95258758 0.0069357463 1.0488292e-21)
(0.97159302 -0.01748229 -1.965707e-22)
(0.9975136 -0.026786501 -3.6031465e-22)
(1.0185223 -0.021962197 -7.7626545e-22)
(1.0299094 -0.011294702 -2.6808521e-21)
(1.0323114 -0.0012925829 3.6993609e-22)
(1.0296415 0.0045288594 0)
(1.0259426 0.0060995911 7.4711153e-22)
(1.0235598 0.005423015 2.1790331e-22)
(1.0223852 0.0040573118 -5.1922792e-22)
(1.0219016 0.0025787168 9.1610137e-23)
(1.0218383 0.001538848 -3.2104309e-22)
(1.0218269 0.00089912731 5.7708784e-22)
(1.0216982 0.00054911067 9.3277461e-23)
(1.0214949 0.00028802938 -2.7238376e-22)
(1.0212201 0.00018534084 5.3179343e-22)
(1.0209773 4.1751571e-05 3.338309e-23)
(1.0207949 5.83875e-05 6.1412539e-22)
(0.89964727 0.032542897 1.6530104e-21)
(0.91906213 0.035785897 -3.6715244e-21)
(0.92126131 0.030582945 -5.9535403e-22)
(0.93980957 0.0053124701 -1.4763685e-21)
(0.96245502 -0.024580502 -1.8375441e-21)
(0.99327725 -0.037322157 4.0383575e-22)
(1.0195 -0.031876805 0)
(1.0344486 -0.017916517 6.2504151e-22)
(1.0376647 -0.0039479376 8.3116544e-22)
(1.0336865 0.0047786046 1.6399325e-21)
(1.0280505 0.0074913068 4.1082713e-22)
(1.024113 0.0066649673 4.218507e-23)
(1.0224159 0.0048415583 -6.1377519e-23)
(1.0217649 0.0029115121 2.7966372e-22)
(1.0217659 0.0015428509 -1.8090896e-22)
(1.0219061 0.00078729198 1.9799448e-22)
(1.021931 0.00039069288 -7.234579e-23)
(1.0217776 0.00022349141 4.5849197e-22)
(1.0215402 9.4625746e-05 7.8628433e-23)
(1.0212368 8.4445344e-05 8.7451963e-24)
(1.0209794 -3.3442147e-07 3.2377555e-22)
(1.0207868 6.3140306e-05 0)
(0.89178616 0.030164085 1.7046204e-21)
(0.90693029 0.038688165 2.3669377e-21)
(0.90048983 0.032045028 -3.4239302e-22)
(0.92232075 0.0029978212 -2.1263874e-21)
(0.95152809 -0.032420242 -1.3374218e-21)
(0.98839137 -0.049309448 3.6643169e-22)
(1.0206785 -0.043664005 -1.6153352e-21)
(1.0402008 -0.026101761 -2.9389473e-21)
(1.0447334 -0.0071606787 -6.8125196e-22)
(1.0391639 0.0054369245 -1.2769838e-22)
(1.0309181 0.0097479155 -4.0960857e-24)
(1.0248737 0.0087225098 -2.3528861e-22)
(1.0220946 0.006046563 -8.4672543e-23)
(1.0214388 0.003518016 9.9724546e-22)
(1.0214909 0.0015648233 6.5843444e-22)
(1.0218753 0.00056278191 4.6328807e-22)
(1.0221033 0.00015217094 -9.4327219e-23)
(1.0220996 -8.0255651e-06 -7.0423344e-22)
(1.02189 -1.6579818e-05 -3.0233043e-23)
(1.0216056 -4.0149177e-05 2.8116901e-22)
(1.021267 2.0498962e-05 0)
(1.0209918 -2.4088781e-05 -7.4266729e-22)
(1.0207811 7.0391205e-05 6.6994871e-26)
(0.88599839 0.02793352 -9.3185443e-21)
(0.89779618 0.042789083 8.3683874e-21)
(0.88337859 0.0343841 -3.4649076e-21)
(0.90187172 -0.00035226402 3.5447539e-22)
(0.93857863 -0.041469315 -2.4545989e-21)
(0.98295034 -0.062943942 0)
(1.0220419 -0.057445868 -5.2068487e-22)
(1.0471553 -0.035997212 -6.0637602e-22)
(1.0538081 -0.011015287 -3.055361e-21)
(1.0463643 0.0066358265 -1.7688473e-21)
(1.034665 0.013163986 1.0698816e-21)
(1.025774 0.011897728 2.2961716e-22)
(1.0214938 0.0079628757 -1.0497322e-22)
(1.0205921 0.0043455572 4.8445727e-22)
(1.0209325 0.0016907704 -5.2529769e-22)
(1.0216354 0.000269672 -1.036609e-21)
(1.0221918 -0.00025246291 -1.4797991e-22)
(1.0223891 -0.00033695158 -2.4199304e-22)
(1.0223047 -0.00029265224 7.2988642e-22)
(1.0220188 -0.00017739994 -2.4939806e-22)
(1.0216795 -0.00012338399 -6.1832591e-22)
(1.0213034 -1.2784515e-05 6.9510092e-22)
(1.0210092 -3.2506629e-05 -5.4187547e-22)
(1.0207747 7.4516811e-05 6.6331663e-25)
(0.88038261 0.02556442 -5.5070315e-22)
(0.88949399 0.047301316 7.4452517e-21)
(0.87014504 0.037472753 -1.5394254e-21)
(0.88291698 -0.0040354816 -1.0747497e-21)
(0.9238762 -0.052106328 0)
(0.97707519 -0.078238425 -9.2185676e-22)
(1.0234262 -0.073282155 -6.704641e-22)
(1.0551813 -0.047904029 7.2393378e-21)
(1.0650612 -0.015718458 -7.6498393e-22)
(1.055677 0.0085294355 -1.3809088e-21)
(1.0394732 0.018065946 1.2684468e-21)
(1.0267398 0.01651896 1.4851031e-22)
(1.0204639 0.010844592 4.7514682e-22)
(1.0190799 0.0055470374 -7.3727019e-23)
(1.019874 0.0019319225 -8.1193834e-22)
(1.0210801 -0.00014505021 -1.3790476e-23)
(1.0221158 -0.0008139069 -3.5172049e-23)
(1.0226453 -0.00085985114 -3.4059473e-22)
(1.0227207 -0.00067000621 0)
(1.0225198 -0.00047031937 -7.3779615e-23)
(1.0221492 -0.00026977805 -2.2129813e-23)
(1.0217534 -0.00016361163 4.7447338e-23)
(1.0213407 -2.1639482e-05 -4.5598636e-23)
(1.0210268 -3.3690336e-05 7.675018e-22)
(1.0207678 7.3999981e-05 4.4865461e-22)
(0.87449336 0.023203075 8.0203391e-22)
(0.88079389 0.051922504 -3.9307247e-21)
(0.85856553 0.041191506 -1.3442368e-21)
(0.86591103 -0.0072382329 -1.0724971e-22)
(0.90880612 -0.06380674 -2.7623918e-22)
(0.97067411 -0.095096943 -1.1689499e-21)
(1.0245893 -0.091135694 -9.4244309e-22)
(1.0642165 -0.061971396 -6.0763605e-22)
(1.0785387 -0.02158825 -7.6895376e-21)
(1.0674093 0.01118189 6.766018e-22)
(1.0455475 0.024842648 -1.3414142e-21)
(1.0277521 0.02295257 -1.0138572e-22)
(1.0187972 0.014955027 -4.6274966e-22)
(1.016732 0.0072912602 -2.7284464e-22)
(1.0180603 0.0021932546 -3.1318352e-22)
(1.0200736 -0.00064989472 1.02312e-21)
(1.0217926 -0.0016242253 1.5118963e-21)
(1.0228083 -0.0015970063 4.2860079e-22)
(1.0231591 -0.0012459262 6.2014354e-22)
(1.0230557 -0.00085573825 1.3183249e-23)
(1.0227243 -0.00055641805 -7.3810616e-22)
(1.0222708 -0.00030622053 -2.1031456e-22)
(1.0218227 -0.00016954119 5.7339599e-22)
(1.0213741 -1.1888622e-05 -6.8038382e-22)
(1.02104 -2.0513915e-05 5.919238e-22)
(1.0207581 7.3269526e-05 -3.1804262e-23)
(0.86799532 0.021538275 -1.6676342e-23)
(0.87141639 0.05671724 -4.8677084e-21)
(0.84646003 0.04526965 9.2569071e-21)
(0.8511689 -0.0091921216 -2.0119254e-21)
(0.89355508 -0.077313859 5.1790675e-21)
(0.96345347 -0.1129974 -3.0942614e-21)
(1.025286 -0.11072834 -8.9708969e-21)
(1.0735168 -0.078134358 -7.93561e-21)
(1.0939101 -0.02868058 1.6430962e-20)
(1.0816138 0.014730184 3.5886581e-21)
(1.0530151 0.033914696 -4.7579952e-22)
(1.0286579 0.031663962 1.4554272e-21)
(1.016226 0.020562355 -2.4261968e-22)
(1.0133236 0.0097392302 -6.9065445e-22)
(1.0152624 0.0025023665 -1.970808e-22)
(1.0184236 -0.0013699394 2.3375999e-22)
(1.0211175 -0.00275096 -4.7098204e-23)
(1.0228441 -0.0026489301 7.2403856e-24)
(1.02359 -0.00204941 1.5027134e-22)
(1.0236653 -0.0014213035 3.4632468e-23)
(1.0233613 -0.00091662008 0)
(1.022905 -0.0005705508 -2.7431409e-22)
(1.0223781 -0.0003000729 -1.7770425e-23)
(1.0218841 -0.00014981681 0)
(1.0214003 1.1321052e-05 8.3776345e-22)
(1.0210468 -6.129499e-07 -4.0451171e-24)
(1.0207451 7.6053982e-05 -4.5465312e-22)
(0.86130859 0.020595761 -3.5456504e-22)
(0.86189774 0.061961422 -3.1395128e-22)
(0.83377662 0.049723662 1.0209527e-20)
(0.83746486 -0.01147827 -6.5957442e-22)
(0.87890692 -0.090767455 2.635852e-21)
(0.95509932 -0.13201778 5.7475568e-21)
(1.0248074 -0.13160209 6.6236121e-22)
(1.0825229 -0.095728891 1.461686e-20)
(1.1093926 -0.036609309 -3.071794e-21)
(1.0970474 0.019466585 -7.9440216e-21)
(1.0614731 0.045804562 3.191436e-21)
(1.0292627 0.043141423 -1.1610114e-21)
(1.0123681 0.028002858 -8.4423903e-22)
(1.0084931 0.012972258 -3.0690461e-22)
(1.0112466 0.002860695 -8.8270999e-22)
(1.0159071 -0.0024181605 -1.6345453e-22)
(1.0199752 -0.0043096924 -1.0360641e-21)
(1.0226919 -0.0041336514 -6.9608681e-22)
(1.0240226 -0.0031858205 -3.0088274e-22)
(1.024348 -0.0021911504 -4.6962964e-22)
(1.024111 -0.0014207636 -2.5916781e-22)
(1.0236168 -0.0008834 6.0406428e-23)
(1.0230553 -0.0005334688 2.2075618e-23)
(1.0224694 -0.00026385373 0)
(1.0219353 -0.00011193506 0)
(1.0214191 4.5630894e-05 -5.9960006e-23)
(1.0210449 2.4895626e-05 7.9601807e-22)
(1.0207269 8.4511998e-05 8.8396685e-22)
(0.85505036 0.019911722 0)
(0.85283887 0.067406027 -3.0527817e-21)
(0.82092723 0.054400136 -1.217138e-20)
(0.82365221 -0.013013924 -6.476651e-21)
(0.86511143 -0.10391416 -1.2395043e-20)
(0.94515727 -0.15164937 -2.2326817e-21)
(1.0217504 -0.15270126 9.0325684e-21)
(1.0879975 -0.11397707 3.0500139e-20)
(1.1223839 -0.044788928 -2.742551e-20)
(1.1110407 0.026248913 3.3942793e-21)
(1.0686607 0.061184496 -4.9584007e-22)
(1.0288146 0.057920458 -1.6196067e-21)
(1.0067875 0.037593738 -2.2426016e-21)
(1.0018012 0.017101352 -6.479075e-22)
(1.0057309 0.0032814011 -1.0655362e-22)
(1.0122955 -0.0039394966 -8.3321523e-22)
(1.0182186 -0.0064675869 -6.7555862e-23)
(1.0222977 -0.006200188 -2.1536074e-22)
(1.0244559 -0.0047717759 -8.6835898e-23)
(1.0251503 -0.0032577781 -2.2384996e-22)
(1.0249945 -0.0020782437 -1.7281211e-22)
(1.0244633 -0.0012936966 -1.2846523e-22)
(1.0238141 -0.00078874021 1.4644448e-23)
(1.0231748 -0.00046406024 6.1570882e-22)
(1.0225444 -0.00020791859 1.6980008e-22)
(1.021978 -5.9496586e-05 6.1727965e-24)
(1.0214305 8.9739573e-05 -8.3810965e-22)
(1.0210346 5.757507e-05 5.3537554e-22)
(1.0207016 9.8175017e-05 -1.34868e-21)
(0.84895391 0.0194794 2.2116167e-21)
(0.84393608 0.072893727 0)
(0.80827407 0.059195 0)
(0.81001085 -0.014425617 0)
(0.85158589 -0.11648957 4.4514377e-21)
(0.93415926 -0.17090021 -7.3292602e-21)
(1.0158452 -0.17349262 -2.2271794e-21)
(1.0885507 -0.13211563 -3.7607351e-21)
(1.1301051 -0.053864909 -4.7847183e-20)
(1.1234061 0.035401977 2.9624368e-20)
(1.072149 0.080774222 -9.8911392e-21)
(1.0249036 0.076471536 1.6326418e-21)
(0.99876051 0.049677773 1.771144e-21)
(0.99277066 0.022164506 1.0390247e-21)
(0.99835969 0.0036530048 2.2109425e-21)
(1.0073709 -0.0060247047 -5.9144863e-24)
(1.015686 -0.0094206103 -7.8526458e-22)
(1.0216003 -0.0090377113 1.0109936e-22)
(1.0249014 -0.0069735314 4.2243657e-22)
(1.0261242 -0.0047198553 3.1189369e-22)
(1.0260872 -0.0029518877 1.660515e-22)
(1.0254764 -0.0017891227 -1.0187451e-22)
(1.0247104 -0.0010928616 -2.3403216e-22)
(1.0239551 -0.00066246514 1.8491027e-22)
(1.0232669 -0.00037724479 -1.4942426e-23)
(1.0226052 -0.0001394582 1.5837383e-22)
(1.0220123 4.5482029e-06 -6.4533867e-22)
(1.021435 0.00014191066 3.0707914e-23)
(1.0210166 9.7037695e-05 -2.097423e-21)
(1.020668 0.00011466436 -8.2514917e-22)
(0.84280591 0.019148107 -4.5674478e-22)
(0.83531095 0.078620349 -5.6944681e-21)
(0.79606321 0.064198384 0)
(0.79682644 -0.015701817 0)
(0.83815256 -0.12841308 0)
(0.92249793 -0.18941785 0)
(1.0076334 -0.19367153 0)
(1.0850609 -0.14978419 1.0936159e-21)
(1.1317547 -0.063384738 2.2857211e-20)
(1.135067 0.045274445 -4.9007317e-20)
(1.0760455 0.10389121 8.7239188e-22)
(1.0159646 0.09842661 -7.868763e-21)
(0.98672228 0.064294435 -3.9794916e-22)
(0.98087311 0.028161635 3.0643795e-21)
(0.98877615 0.0038355303 -2.5204261e-22)
(1.0009074 -0.0088630237 6.4119856e-22)
(1.0122174 -0.013384551 -4.0798718e-22)
(1.0205293 -0.012867211 3.0096099e-22)
(1.0253783 -0.0099860838 -2.9736513e-22)
(1.0273487 -0.0067216605 -1.4035829e-22)
(1.0274808 -0.004108859 -1.8680387e-23)
(1.0267478 -0.0023950854 -2.6761988e-22)
(1.0257766 -0.0014094766 -1.4828894e-23)
(1.0248588 -0.00086628754 7.5659827e-23)
(1.0240492 -0.00052842693 -5.1850853e-23)
(1.0233381 -0.00028355668 -4.5566576e-22)
(1.022656 -6.242299e-05 -1.5963801e-22)
(1.0220382 7.541278e-05 2.7906986e-22)
(1.0214329 0.00020012838 4.1512891e-24)
(1.0209912 0.00014052784 1.5349261e-21)
(1.0206265 0.00013158238 5.401195e-22)
(0.83681473 0.019073417 -1.7381197e-21)
(0.82646345 0.084992247 -5.2786852e-22)
(0.78444577 0.068670081 -1.7790978e-20)
(0.78444051 -0.016752805 -2.9768114e-20)
(0.82506732 -0.13987471 0)
(0.91045585 -0.20700514 0)
(0.99752173 -0.21293017 -2.6530535e-21)
(1.07869 -0.16674555 -3.6792724e-20)
(1.1296652 -0.073025121 6.2081697e-20)
(1.1395755 0.053059068 -6.3136515e-20)
(1.0867538 0.12978311 -2.7369321e-21)
(1.0082833 0.12375253 8.8679034e-21)
(0.96956702 0.080599577 1.7558272e-21)
(0.96540648 0.034878096 -3.9022991e-22)
(0.97666325 0.0036169149 -1.8955442e-21)
(0.99268889 -0.01265484 9.2480359e-24)
(1.007667 -0.018571832 1.7042302e-21)
(1.0190082 -0.017942504 -4.727856e-23)
(1.0259085 -0.014042291 -6.0605681e-22)
(1.0289208 -0.0094390991 -2.4088808e-22)
(1.0293077 -0.0056466712 -4.3123394e-22)
(1.0283915 -0.0031329838 1.3090392e-22)
(1.0271054 -0.0017245328 -8.5435084e-23)
(1.0259085 -0.0010173298 -1.845423e-22)
(1.0249277 -0.0006519482 -2.7794305e-23)
(1.0241106 -0.00040298909 -1.4358344e-22)
(1.0233963 -0.00019016932 -1.1626282e-22)
(1.0226992 1.8424167e-05 -1.6383776e-22)
(1.0220576 0.00015128872 3.9515385e-22)
(1.021425 0.00026173621 -4.2335163e-23)
(1.0209589 0.00018490488 7.6274947e-22)
(1.0205773 0.00014804782 5.7821281e-23)
(0.83144291 0.019546844 4.7086002e-22)
(0.81808922 0.092113384 6.9261544e-21)
(0.77286453 0.074165249 2.8774549e-20)
(0.77265923 -0.018632791 4.5326669e-20)
(0.81239325 -0.15043361 0)
(0.89836608 -0.22356455 0)
(0.98581516 -0.23098485 0)
(1.0690175 -0.18287137 2.4257898e-21)
(1.1242987 -0.081538158 -7.4073967e-20)
(1.1367591 0.059581982 -6.1207214e-20)
(1.0937249 0.15528695 -3.8739555e-21)
(1.0082848 0.15218154 2.6015335e-21)
(0.9520253 0.098992469 -9.2529686e-22)
(0.94560895 0.041529543 -6.129298e-22)
(0.96179903 0.0027126219 -1.7350948e-22)
(0.98254717 -0.017619535 0)
(1.0019048 -0.025199838 4.7427157e-22)
(1.0169579 -0.024516556 -2.381047e-22)
(1.0265118 -0.019400445 -1.3504158e-23)
(1.0309536 -0.013085654 6.1878716e-23)
(1.0317318 -0.0076909632 2.2650707e-22)
(1.030571 -0.0040392573 2.1713287e-22)
(1.0288127 -0.0020084275 1.9940152e-22)
(1.027184 -0.0010651253 1.1597098e-22)
(1.0259072 -0.00067321742 3.5759688e-23)
(1.0249436 -0.00047524871 -2.3362775e-23)
(1.0241543 -0.00029516572 5.6760751e-25)
(1.0234487 -0.00010097329 -9.5975426e-24)
(1.0227376 0.00010105636 4.1730447e-22)
(1.0220712 0.00023062189 2.8675056e-22)
(1.0214111 0.00032582827 2.9729542e-23)
(1.0209196 0.00023022989 -2.1706497e-21)
(1.0205215 0.00016399721 8.3197027e-22)
(0.8265673 0.02016694 1.2346726e-22)
(0.81039918 0.099989299 1.4766561e-22)
(0.76195872 0.081189475 5.8260828e-20)
(0.76042682 -0.018127492 1.0071201e-19)
(0.80142823 -0.16149264 -1.6755583e-20)
(0.8862751 -0.23882123 -1.5627205e-21)
(0.97305736 -0.24759627 -5.9510267e-20)
(1.0561754 -0.19807423 3.9861743e-20)
(1.1149073 -0.088961579 9.321826e-21)
(1.1278804 0.067144259 1.4710536e-19)
(1.0874718 0.17854982 -4.1132002e-20)
(1.0100459 0.18175927 -2.3732711e-20)
(0.94276483 0.12011237 1.4873874e-21)
(0.92276137 0.047886266 -1.9207362e-21)
(0.94399141 0.00063504692 -2.0413734e-21)
(0.97041329 -0.02398335 -2.2045188e-22)
(0.99483002 -0.033462616 1.9242136e-22)
(1.0143022 -0.03283437 7.4905425e-22)
(1.0271958 -0.026342072 -2.840414e-23)
(1.0335684 -0.01790803 -2.1889903e-24)
(1.0349494 -0.010399787 1.2938528e-22)
(1.0334926 -0.0051649698 3.3428887e-22)
(1.0310671 -0.0022293032 -1.3335224e-22)
(1.0287832 -0.00093314837 2.6634795e-22)
(1.0270441 -0.00051349844 6.1906275e-23)
(1.0258199 -0.00041591634 -4.0521126e-24)
(1.0249335 -0.00034873259 9.5358598e-24)
(1.0241938 -0.00020781893 -1.4379959e-23)
(1.0235004 -1.6520172e-05 1.2540103e-22)
(1.0227744 0.00018699726 -5.1713909e-23)
(1.0220799 0.00031480626 2.1271206e-22)
(1.0213905 0.00039420456 1.5265657e-23)
(1.0208741 0.00027712566 8.8919579e-22)
(1.0204585 0.00018008732 -1.571681e-21)
(0.82227245 0.021367042 -6.4427269e-22)
(0.80335013 0.10821767 -3.6782819e-22)
(0.75226321 0.088276661 -7.7107439e-20)
(0.74899187 -0.015859537 -5.9928596e-20)
(0.78872189 -0.1695551 7.1338641e-20)
(0.87502427 -0.25339923 2.9933492e-20)
(0.95959369 -0.26285657 8.7964643e-21)
(1.0411733 -0.21163921 0)
(1.1016255 -0.095446445 5.6318824e-20)
(1.1146308 0.075455586 1.8809816e-19)
(1.0735868 0.20070779 -4.8419124e-21)
(1.0062288 0.20945483 1.067337e-20)
(0.94026923 0.1446221 0)
(0.90247452 0.055398578 1.0310911e-21)
(0.92304075 -0.0032280631 2.5854089e-21)
(0.95635085 -0.031969016 4.9311558e-22)
(0.98639383 -0.043530365 -1.2027048e-21)
(1.010983 -0.043106887 0)
(1.0279617 -0.035145507 -4.9612277e-22)
(1.0368824 -0.024188295 -3.8916026e-22)
(1.0391816 -0.01396983 2.1573996e-22)
(1.0374108 -0.006580247 1.831632e-22)
(1.0340831 -0.002351812 0)
(1.0308533 -0.0005251585 1.3870939e-22)
(1.0284017 -5.9992805e-05 1.7746394e-22)
(1.0267647 -0.00013021233 -1.4890702e-23)
(1.0256948 -0.00026313519 -1.514652e-23)
(1.0249238 -0.00027056005 1.7108685e-23)
(1.0242409 -0.00013896758 4.148798e-24)
(1.0235553 6.4842892e-05 4.4422963e-22)
(1.0228104 0.00027618106 -9.0925983e-22)
(1.0220839 0.00040318976 -5.3895225e-22)
(1.0213637 0.00046531648 0)
(1.0208212 0.00032745067 -3.4911595e-23)
(1.020389 0.0001963419 -4.728089e-22)
(0.81876898 0.023123213 5.0815196e-22)
(0.79695755 0.11670951 5.2931869e-21)
(0.74408865 0.09568113 -8.4909686e-20)
(0.7391286 -0.01403798 -2.4240495e-20)
(0.77557009 -0.17629271 2.2341162e-20)
(0.86119033 -0.2663889 5.5935729e-21)
(0.94625966 -0.27627317 6.4163416e-20)
(1.0247789 -0.22438222 4.8920827e-21)
(1.0851678 -0.10011973 0)
(1.0974297 0.084456813 -6.627407e-20)
(1.0564544 0.22137175 4.4684641e-20)
(0.99608974 0.23466327 -7.6275676e-21)
(0.93686263 0.17027612 6.5950645e-21)
(0.88674326 0.066856785 -5.4435033e-22)
(0.89983064 -0.0083450387 0)
(0.94069475 -0.041882086 1.5443731e-21)
(0.97660891 -0.055491598 -2.8335616e-22)
(1.0069374 -0.055493856 1.3751552e-21)
(1.0287828 -0.046062376 6.2799427e-22)
(1.0409962 -0.032218517 9.5813602e-22)
(1.0446647 -0.018636826 -3.8627871e-22)
(1.0426247 -0.008383299 1.6082289e-22)
(1.0381329 -0.0023373442 0)
(1.0335812 0.00027779909 6.1003748e-23)
(1.0300851 0.00083401641 4.8209014e-23)
(1.0277993 0.00051736379 8.1763558e-23)
(1.026429 6.031225e-05 -7.4210064e-23)
(1.0255758 -0.00021462617 -1.4015169e-23)
(1.0249375 -0.00023815658 3.1366015e-23)
(1.0243032 -8.445279e-05 0)
(1.0236163 0.00014604202 -3.3500481e-22)
(1.0228458 0.00036988912 -9.9206065e-22)
(1.0220833 0.00049616017 1.6107686e-21)
(1.0213304 0.00054011058 -5.3723268e-22)
(1.0207622 0.0003792119 6.6140543e-23)
(1.0203132 0.00021270039 1.6953401e-21)
(0.81634466 0.025169229 -9.548618e-22)
(0.79105478 0.12472085 -1.3291434e-22)
(0.7377063 0.10308954 3.128673e-20)
(0.73108152 -0.012060584 7.7038957e-22)
(0.76343618 -0.18317363 -1.1540612e-19)
(0.8466898 -0.27847798 -2.6320412e-20)
(0.92979771 -0.28953688 -2.6181229e-21)
(1.0067005 -0.23388287 4.6342392e-20)
(1.06607 -0.10436745 1.7517199e-21)
(1.0768095 0.093092561 6.0823952e-20)
(1.0356383 0.24091899 1.8003147e-21)
(0.98065985 0.25748058 -1.3234017e-20)
(0.92809602 0.19486788 2.0586427e-21)
(0.87337855 0.082417236 -1.3499762e-21)
(0.87667687 -0.012448704 6.039928e-21)
(0.92295099 -0.05361466 1.0337888e-21)
(0.965659 -0.069317234 -1.4051022e-21)
(1.0020865 -0.070057305 -1.1430244e-21)
(1.0295693 -0.059297896 1.9638226e-21)
(1.0459446 -0.042305833 5.9277783e-22)
(1.0516205 -0.02467658 -5.7750363e-23)
(1.0494733 -0.010707176 8.4510326e-22)
(1.0435451 -0.0021516008 -2.4503178e-22)
(1.0372072 0.0016229218 0)
(1.0322238 0.0023518032 -5.5596836e-22)
(1.0289735 0.0017033859 6.1877545e-23)
(1.0271132 0.00076498106 -2.2285225e-22)
(1.0261112 6.3080061e-05 3.1804314e-22)
(1.025503 -0.00025506052 -1.9801859e-25)
(1.0249826 -0.0002404883 -5.0166339e-23)
(1.0243841 -3.7007472e-05 1.6930834e-22)
(1.0236845 0.00023188917 -4.3053504e-22)
(1.02288 0.00047068763 3.7636688e-24)
(1.0220776 0.00059465929 1.6527133e-21)
(1.0212908 0.00061841454 -2.9270956e-23)
(1.0206963 0.00043318634 -4.9868102e-23)
(1.0202311 0.00022927323 6.1659234e-22)
(0.81522902 0.027572121 -3.3091274e-22)
(0.78591012 0.13235943 -7.0422557e-21)
(0.73329349 0.11058659 5.0429001e-20)
(0.7251879 -0.0100622 2.6134203e-20)
(0.75268944 -0.19026956 -4.8645497e-22)
(0.83208647 -0.29036099 6.3171922e-22)
(0.911636 -0.30259068 2.4931642e-20)
(0.98563327 -0.24648664 -5.158994e-21)
(1.0452038 -0.10391098 0)
(1.053552 0.10191918 -1.3110657e-20)
(1.0123925 0.25933697 0)
(0.96118498 0.27845467 0)
(0.9148378 0.21731424 -9.6220786e-21)
(0.86196084 0.10034799 2.3643638e-22)
(0.85420579 -0.015672237 1.8314407e-21)
(0.90304628 -0.066715609 1.9284686e-21)
(0.95353313 -0.084895397 -1.3956626e-21)
(0.9963174 -0.086775609 -5.6729975e-21)
(1.0301993 -0.074988329 -3.2799539e-21)
(1.0517094 -0.054748327 -1.199847e-21)
(1.060244 -0.032413654 8.7210319e-22)
(1.058315 -0.013733796 -1.2304317e-21)
(1.0507119 -0.0017689049 -1.8246229e-22)
(1.042025 0.0036828278 -6.7699723e-22)
(1.0349827 0.0047246465 -1.5381963e-22)
(1.0303407 0.0036453421 7.0114753e-23)
(1.0277379 0.0020339845 1.721973e-22)
(1.0264637 0.00069588191 -2.3942836e-22)
(1.0258686 -9.2692448e-05 -1.3353857e-23)
(1.0254977 -0.00034726941 -3.7952696e-22)
(1.0250671 -0.00025924553 -8.7793998e-23)
(1.0244851 1.2863462e-05 -7.3907307e-23)
(1.023759 0.00032678483 2.2904388e-22)
(1.022912 0.00057979641 1.0072595e-21)
(1.0220662 0.00069959373 -3.2992413e-21)
(1.0212443 0.00070050396 -6.5500001e-22)
(1.0206244 0.0004888666 -5.9928624e-22)
(1.0201433 0.0002459728 0)
(0.81572331 0.030191026 3.3974012e-21)
(0.78270524 0.14031434 -3.0039259e-22)
(0.73082473 0.11792498 1.7070947e-20)
(0.72161634 -0.008215378 2.6804242e-20)
(0.74386247 -0.19709403 7.6682576e-20)
(0.8179185 -0.30221296 1.7022228e-20)
(0.89315442 -0.31452154 -6.7128412e-21)
(0.96197332 -0.26069445 -7.1843026e-20)
(1.0217337 -0.11274231 -2.1470725e-21)
(1.0287799 0.1131773 -1.3598189e-19)
(0.9875372 0.27746965 4.2572654e-21)
(0.93933015 0.2976923 0)
(0.89801451 0.23774884 0)
(0.85107207 0.11715141 5.9196002e-21)