/*--------------------------------*- C++ -*----------------------------------*\
| =========                 |                                                 |
| \\      /  F ield         | OpenFOAM: The Open Source CFD Toolbox           |
|  \\    /   O peration     | Version:  5.0                                   |
|   \\  /    A nd           | Web:      www.OpenFOAM.org                      |
|    \\/     M anipulation  |                                                 |
\*---------------------------------------------------------------------------*/
FoamFile
{
    version     2.0;
    format      ascii;
    class       volVectorField;
    location    "120";
    object      U_0;
}
// * * * * * * * * * * * * * * * * * * * * * * * * * * * * * * * * * * * * * //

dimensions      [0 1 -1 0 0 0 0];

internalField   nonuniform List<vector> 
9200
(
(1.0578541 0.0044108884 -3.0478198e-24)
(1.0566016 0.014457034 2.9841748e-22)
(1.0467193 0.0035046472 0)
(1.0545436 0.022964333 -1.4565364e-22)
(1.0454481 0.011312711 2.8848322e-22)
(1.0429344 0.0030581224 0)
(1.0513717 0.031676757 -1.4284604e-23)
(1.0435613 0.017711325 -7.0434815e-24)
(1.0417939 0.0098069859 0)
(1.0372847 0.002465087 0)
(1.047187 0.039619557 3.2534339e-22)
(1.040502 0.02399325 2.9929825e-22)
(1.0400519 0.01529263 2.9493773e-22)
(1.0362932 0.0078813512 1.7093276e-23)
(1.0338548 0.0020260902 2.9141458e-25)
(1.0418676 0.04719144 3.6568939e-22)
(1.0366461 0.029308112 3.6893877e-24)
(1.0373117 0.020569281 9.8707032e-22)
(1.0347848 0.012195267 4.0025029e-22)
(1.033015 0.006493955 1.5663914e-23)
(1.0308093 0.0016408764 -7.5482778e-22)
(1.0355016 0.053993148 4.7087419e-22)
(1.0320101 0.033933456 4.22578e-22)
(1.0339505 0.024953144 -5.8317535e-22)
(1.0324426 0.01620836 -4.4345733e-23)
(1.0317508 0.0099902244 3.6651872e-22)
(1.0301086 0.0052737972 3.6505077e-22)
(1.0285205 0.0013359615 6.7515744e-23)
(1.0282778 0.05993828 2.0640689e-22)
(1.026751 0.037620632 4.8050053e-22)
(1.0298414 0.028639063 7.1888199e-22)
(1.0295752 0.019365734 6.1820553e-23)
(1.0298071 0.013143904 -9.2898907e-22)
(1.0291001 0.0080634387 -4.0624671e-22)
(1.0279497 0.0042844518 -4.2281669e-22)
(1.0266962 0.0010959925 6.9946573e-22)
(1.0205979 0.064789815 -1.2559962e-21)
(1.0209454 0.040387648 4.702039e-22)
(1.0251364 0.031480214 7.3264971e-23)
(1.0261637 0.021826669 2.9557283e-22)
(1.0274706 0.015508144 1.1099624e-22)
(1.0275628 0.010494304 -1.3309484e-21)
(1.0271881 0.0065161533 1.370128e-22)
(1.0262448 0.0034780828 -7.1977717e-22)
(1.0252704 0.00090812624 -1.4926485e-21)
(1.0122859 0.068228967 1.1480639e-21)
(1.0145854 0.042203919 -3.3568666e-23)
(1.0198943 0.03352083 -4.9451792e-23)
(1.0223083 0.023470858 -2.4661718e-22)
(1.0247279 0.017169658 -1.3583319e-22)
(1.025757 0.012214604 1.4888705e-22)
(1.0260284 0.008398112 4.6618196e-22)
(1.0257019 0.0052716837 7.9786708e-22)
(1.0249284 0.0028247092 4.5190425e-22)
(1.0241444 0.00076200925 1.1956674e-22)
(1.0027855 0.070324785 -6.087297e-22)
(1.0077773 0.043241615 3.4274706e-22)
(1.0142026 0.034746405 3.9175084e-22)
(1.0180541 0.024305967 -4.8677031e-22)
(1.0216691 0.018044011 2.8609007e-22)
(1.0236948 0.01325994 -1.1205774e-21)
(1.0247165 0.0096656953 3.9430562e-23)
(1.0248695 0.0067383804 1.2013488e-21)
(1.0245682 0.0042803881 -6.1412686e-22)
(1.0239006 0.0022923444 1.343344e-21)
(1.0232555 0.00064930491 -2.0844731e-22)
(0.99264759 0.070957902 1.0748744e-22)
(1.0009577 0.043482014 -7.4057866e-22)
(1.0081604 0.035133644 -6.2986353e-22)
(1.0134432 0.024341866 0)
(1.0183301 0.018104745 2.4507647e-23)
(1.0214687 0.013571336 -1.9912631e-22)
(1.0232794 0.01031841 -2.3040189e-22)
(1.023981 0.0077027377 -5.8806621e-22)
(1.0240027 0.0054374729 -1.1443525e-22)
(1.0236837 0.0034853234 -7.8159008e-22)
(1.0231027 0.0018543138 -5.3542125e-22)
(1.0225529 0.00055648916 1.2391958e-22)
(0.98203271 0.070289316 4.2804874e-23)
(0.99441111 0.042959251 1.5919317e-22)
(1.0018875 0.034806935 0)
(1.0085071 0.023641798 0)
(1.0147333 0.017342615 -6.0367342e-23)
(1.0191312 0.013090448 -1.3335105e-22)
(1.0218226 0.010325644 -3.3007203e-22)
(1.0230725 0.0081387248 6.6886146e-22)
(1.0234488 0.0062116104 6.7962963e-23)
(1.0233233 0.0044083936 1.3567922e-24)
(1.0229908 0.0028367056 9.028778e-22)
(1.0224882 0.0014874051 -9.8874713e-22)
(1.0220032 0.00046564609 2.0209878e-21)
(0.9713496 0.067908793 -3.0977088e-22)
(0.98828729 0.041851593 -7.9551605e-24)
(0.99545245 0.033944469 -5.9573558e-23)
(1.0032479 0.022306068 -1.178722e-22)
(1.0108793 0.015756714 5.5380905e-23)
(1.0167275 0.011785187 -8.499099e-23)
(1.0204243 0.0096176612 1.6056008e-22)
(1.0222602 0.00805241 5.7657916e-24)
(1.0229454 0.0065562314 7.2860473e-22)
(1.0230119 0.0050624208 6.9697472e-22)
(1.0227809 0.0035760215 2.4540019e-22)
(1.0224477 0.0022936365 7.0700204e-22)
(1.0220219 0.0011731843 4.8285638e-22)
(1.0215848 0.00036539662 -5.5872681e-22)
(0.96220979 0.063722064 -3.0415544e-22)
(0.98255338 0.040366149 -4.0284803e-22)
(0.98889557 0.032780944 -3.1332919e-22)
(0.99760793 0.020484367 6.469333e-23)
(1.0067225 0.013370773 -4.371858e-23)
(1.0142781 0.0095904939 1.4240753e-22)
(1.0191745 0.0081592271 1.3876421e-22)
(1.0216501 0.0073854425 -2.1360205e-22)
(1.0226098 0.0065226186 -2.9171586e-23)
(1.0227863 0.0053861034 -7.8165668e-23)
(1.0226297 0.0041433863 -1.4758451e-23)
(1.0223452 0.0028799962 -8.8573045e-23)
(1.0220278 0.0018274988 -9.2954796e-22)
(1.0216722 0.00090042569 4.7728972e-22)
(1.0212814 0.00026089311 -4.3423971e-22)
(0.95406749 0.058786791 6.4727905e-22)
(0.97715166 0.038718066 -4.8359905e-22)
(0.98230711 0.031596518 -1.8891778e-22)
(0.99152036 0.018267176 2.7194167e-22)
(1.0021765 0.010186454 -2.1729333e-22)
(1.0117611 0.006450591 -1.165286e-22)
(1.0181383 0.0058713534 1.0845128e-22)
(1.0213647 0.0061218294 3.7945454e-24)
(1.0225674 0.0060790772 -1.5905001e-22)
(1.0227525 0.0054794217 -9.4737741e-23)
(1.0225707 0.0044707245 -1.6259523e-21)
(1.0222913 0.0033685828 3.8349307e-22)
(1.0220035 0.0022788638 2.9201363e-22)
(1.0217118 0.001422494 1.3751949e-22)
(1.0214122 0.00066578986 1.9378086e-23)
(1.0210742 0.00017007296 4.864114e-22)
(0.94636937 0.053111608 0)
(0.97172467 0.037024031 -9.9220896e-23)
(0.9756453 0.030577919 6.6584013e-22)
(0.98490816 0.015927369 0)
(0.99713243 0.0063294181 0)
(1.0091469 0.0022669155 0)
(1.0173718 0.0026755931 2.1667828e-23)
(1.0215129 0.0042398458 2.9614649e-22)
(1.0229115 0.0052462376 -3.9756744e-24)
(1.0230176 0.00533217 5.0427849e-22)
(1.0226759 0.004690178 4.7809142e-23)
(1.0223124 0.0036824236 3.5511076e-22)
(1.022009 0.0026801267 -5.868027e-24)
(1.0217499 0.001750547 -3.3329189e-22)
(1.0214836 0.0010724866 -8.9615916e-23)
(1.0212218 0.00047057623 -2.3631965e-22)
(1.02094 0.00010803525 0)
(0.93886227 0.047654858 6.9824876e-23)
(0.96563844 0.03538207 1.9923431e-21)
(0.96884396 0.029808802 4.724083e-22)
(0.97777846 0.013769656 1.186869e-21)
(0.99159763 0.0016784013 7.7553541e-22)
(1.006409 -0.0030353565 0)
(1.0169278 -0.0015687669 1.7469724e-23)
(1.0222533 0.0016543826 2.921797e-23)
(1.0238136 0.0041216569 6.6881882e-22)
(1.0235774 0.0050237379 5.5501205e-23)
(1.0229922 0.0048091086 -3.1093551e-22)
(1.0224347 0.003980603 7.5095294e-23)
(1.0220574 0.0029388521 6.1902679e-22)
(1.0218001 0.0020518868 -1.0928336e-21)
(1.0215786 0.0012879602 -2.8038981e-22)
(1.0213292 0.00077590625 -1.5971626e-21)
(1.0210886 0.00031536741 -6.3095022e-22)
(1.020856 7.5448728e-05 -6.2581013e-22)
(0.93062563 0.042615864 -3.9547462e-23)
(0.95833941 0.033992734 1.2419781e-21)
(0.96158901 0.02988517 4.3464309e-22)
(0.97016056 0.011712278 9.1539531e-22)
(0.98549542 -0.0037980887 -1.273771e-22)
(1.003481 -0.0095257024 1.5514535e-22)
(1.0168157 -0.0069917804 2.3895459e-22)
(1.0237053 -0.0017634403 6.4122446e-22)
(1.0255252 0.0026130882 2.1943463e-22)
(1.024719 0.0047335682 -5.5271848e-22)
(1.023539 0.005013646 -3.7622387e-23)
(1.0226642 0.004284774 -6.9443705e-22)
(1.0221375 0.0032342985 1.4674243e-22)
(1.0218642 0.0022197831 8.1376863e-23)
(1.0216745 0.0014841018 1.2165569e-22)
(1.0214807 0.00089142635 2.4077573e-22)
(1.0212358 0.00053187985 -5.3344607e-22)
(1.0210038 0.00019673845 2.9598639e-23)
(1.0208048 6.1958394e-05 -6.0466832e-22)
(0.92102006 0.038248956 -9.6695934e-23)
(0.9484644 0.03335385 -2.1103355e-21)
(0.95254043 0.030035254 1.2406487e-21)
(0.96193733 0.0098244638 -7.8718623e-22)
(0.97861062 -0.0097966089 3.0783668e-22)
(1.0001871 -0.017240061 1.3658179e-22)
(1.0170279 -0.013740096 -5.9092718e-23)
(1.0259992 -0.0061199062 -1.918813e-22)
(1.0281811 0.00071313304 1.4581491e-22)
(1.0266946 0.0044459292 8.8343465e-22)
(1.0244536 0.0052998572 -1.0156548e-21)
(1.0230874 0.0047972516 2.1186187e-22)
(1.022228 0.0035614105 3.5034354e-22)
(1.0218966 0.002414646 -3.0344245e-23)
(1.0217706 0.0015411591 8.0962268e-23)
(1.02163 0.00098709372 7.6678309e-22)
(1.0214443 0.00056239155 -1.853391e-22)
(1.0211912 0.00033842144 8.7352443e-22)
(1.0209583 0.00010836507 2.3201518e-22)
(1.0207751 5.7470636e-05 6.3955586e-22)
(0.90956992 0.034880177 -1.6570938e-23)
(0.93483373 0.03386267 -3.4588686e-21)
(0.93992241 0.030379033 1.5414792e-21)
(0.95230845 0.0083195628 9.6883628e-22)
(0.9706899 -0.016294703 -1.9939414e-22)
(0.99636406 -0.026247139 -3.2799465e-22)
(1.0175251 -0.021962273 -8.1625073e-22)
(1.0292619 -0.011580119 -2.7775639e-21)
(1.0320263 -0.0016240076 3.673371e-22)
(1.0295929 0.0043127436 0)
(1.0259708 0.0060233569 7.6983919e-22)
(1.0235735 0.0054253452 1.9793822e-22)
(1.0223797 0.0041080778 -5.4686808e-22)
(1.0218716 0.0026363062 1.1298803e-22)
(1.0217952 0.0015854382 -3.2937292e-22)
(1.0217812 0.00093132435 5.96047e-22)
(1.0216551 0.00057000889 9.3707476e-23)
(1.0214552 0.0003004641 -2.7939733e-22)
(1.021183 0.00019206235 5.4278116e-22)
(1.0209415 4.4336657e-05 3.416399e-23)
(1.0207593 5.7789198e-05 6.2413941e-22)
(0.89937557 0.032337832 1.991538e-21)
(0.91958725 0.035927426 -4.0655756e-21)
(0.92133669 0.031418792 -1.4750588e-21)
(0.93950138 0.0069073526 -1.2637026e-21)
(0.96141787 -0.023127312 -1.7010194e-21)
(0.9918795 -0.036653945 3.8358126e-22)
(1.0182422 -0.031901505 0)
(1.033612 -0.018341747 6.3043899e-22)
(1.0373125 -0.0044606882 8.7239829e-22)
(1.0336678 0.004421352 1.7152865e-21)
(1.0281471 0.0073462373 4.1112106e-22)
(1.0241864 0.0066521395 2.881651e-23)
(1.0224355 0.0048915107 -5.9074958e-23)
(1.0217474 0.0029857733 2.8868767e-22)
(1.0217214 0.0016041135 -1.9363215e-22)
(1.0218538 0.00082741099 2.1072092e-22)
(1.0218811 0.00041550113 -7.4676948e-23)
(1.0217326 0.00023814289 4.7159041e-22)
(1.0214997 0.00010263091 8.0566844e-23)
(1.021199 8.8321947e-05 9.089172e-24)
(1.020943 9.3964544e-07 3.2951575e-22)
(1.0207512 6.2281582e-05 0)
(0.89159556 0.029744466 1.6484155e-21)
(0.90758734 0.038831535 2.5696911e-21)
(0.90060914 0.033048387 -3.3628768e-22)
(0.92185368 0.0048379229 -1.915108e-21)
(0.95028453 -0.030657966 -1.2343556e-21)
(0.98670676 -0.04847289 3.3826662e-22)
(1.0191166 -0.043707087 -1.5847703e-21)
(1.0391245 -0.026696341 -2.9530964e-21)
(1.0442948 -0.0079097678 -6.9401112e-22)
(1.0391935 0.0048862162 -1.3705199e-22)
(1.0311169 0.0095059129 -2.4585087e-24)
(1.0250373 0.0086918084 -2.0386197e-22)
(1.0221615 0.0061103365 -8.8109283e-23)
(1.0214404 0.0036132443 1.0030918e-21)
(1.0214477 0.001646777 6.8010478e-22)
(1.0218153 0.00061575524 4.8021984e-22)
(1.0220441 0.00018269739 -9.4714255e-23)
(1.0220472 8.3583251e-06 -7.2755578e-22)
(1.0218445 -8.1447766e-06 -3.1200605e-23)
(1.021565 -3.6167544e-05 2.8804768e-22)
(1.0212291 2.1974431e-05 0)
(1.0209551 -2.3924668e-05 -7.5521363e-22)
(1.0207458 6.963441e-05 -8.1697684e-26)
(0.88583521 0.027285432 -6.9072499e-21)
(0.89857363 0.042936259 7.2528132e-21)
(0.8836203 0.035579916 -3.9470702e-21)
(0.90121425 0.0017605251 -1.9358261e-22)
(0.93701049 -0.039368188 -2.0694551e-21)
(0.98094337 -0.061910987 0)
(1.020134 -0.057496807 -5.1104969e-22)
(1.0457821 -0.036789957 -5.9204354e-22)
(1.0532536 -0.01207117 -3.1227218e-21)
(1.0464643 0.0058232659 -1.9018685e-21)
(1.0350138 0.012790382 1.1114479e-21)
(1.0260699 0.011846174 2.6279011e-22)
(1.0216398 0.0080563482 -1.3576236e-22)
(1.0206172 0.0044730788 5.1002167e-22)
(1.0208963 0.0018100508 -5.5940887e-22)
(1.0215654 0.00034250527 -1.0771464e-21)
(1.0221198 -0.00021347784 -1.385708e-22)
(1.0223263 -0.00031828779 -2.5048219e-22)
(1.0222521 -0.00028494182 7.5594484e-22)
(1.021974 -0.00017462084 -2.5628243e-22)
(1.0216396 -0.00012281223 -6.3264486e-22)
(1.0212659 -1.3170391e-05 7.0761877e-22)
(1.0209726 -3.3045859e-05 -5.4982464e-22)
(1.0207395 7.4829626e-05 5.3631021e-25)
(0.88022134 0.024597334 -3.9945616e-22)
(0.8904717 0.047412837 7.537049e-21)
(0.87060672 0.038865773 -1.3805e-21)
(0.88224617 -0.0015664917 3.3297e-22)
(0.92185612 -0.049618333 0)
(0.97472465 -0.076992758 -8.0941892e-22)
(1.021134 -0.073326921 -6.5788708e-22)
(1.0534551 -0.048909853 7.1612068e-21)
(1.0643515 -0.017148977 -7.4858437e-22)
(1.0558701 0.0073740813 -1.4437716e-21)
(1.0400277 0.017519926 1.2982173e-21)
(1.0272192 0.016445719 9.0434507e-23)
(1.0207216 0.010988127 4.9995186e-22)
(1.019146 0.0057335033 -7.3073518e-23)
(1.0198423 0.0020984887 -8.3860305e-22)
(1.0209982 -3.9290481e-05 -1.7268567e-23)
(1.0220258 -0.00076060328 -3.4529498e-23)
(1.0225668 -0.00083794948 -3.5913568e-22)
(1.0226576 -0.00066378739 0)
(1.022469 -0.00047059723 -7.6331647e-23)
(1.0221061 -0.00027173565 -2.2832309e-23)
(1.0217146 -0.00016570951 4.8717351e-23)
(1.0213038 -2.3332101e-05 -4.5646144e-23)
(1.0209907 -3.4491743e-05 7.7907151e-22)
(1.0207327 7.4665796e-05 4.5406412e-22)
(0.87434081 0.021960956 6.2794397e-22)
(0.88200263 0.051982657 -4.9081037e-21)
(0.85921718 0.042750886 -1.6337979e-21)
(0.86534757 -0.0043601928 -1.9500669e-22)
(0.9064402 -0.061012694 -2.1283171e-21)
(0.96795814 -0.093629342 -1.1222082e-21)
(1.0218967 -0.091162996 -9.2367843e-22)
(1.0620805 -0.063208295 -5.9538764e-22)
(1.0776231 -0.023479579 -7.7754231e-21)
(1.0677208 0.0095757269 6.601087e-22)
(1.0463853 0.02407166 -1.3956702e-21)
(1.0284835 0.022858439 -9.4902129e-23)
(1.0192054 0.015176207 -4.4660575e-22)
(1.0168601 0.0075711231 -2.8321544e-22)
(1.0180306 0.0024286783 -3.1441076e-22)
(1.0199746 -0.00049223534 1.0612077e-21)
(1.0216762 -0.0015489275 1.5578735e-21)
(1.0227072 -0.0015692821 4.5368972e-22)
(1.0230802 -0.0012423179 6.5285161e-22)
(1.0229957 -0.00086111928 1.3573638e-23)
(1.0226769 -0.00056331266 -7.6508831e-22)
(1.0222301 -0.00031174939 -2.1514852e-22)
(1.0217854 -0.00017348863 5.8477451e-22)
(1.0213382 -1.4348727e-05 -6.9053882e-22)
(1.0210045 -2.194008e-05 5.9968884e-22)
(1.0207231 7.3897734e-05 -3.2234179e-23)
(0.86793154 0.020046794 -4.6209555e-23)
(0.87285768 0.056708438 -7.0119152e-21)
(0.84723852 0.047001188 1.0262527e-20)
(0.85069944 -0.0058866803 -2.458019e-21)
(0.89093807 -0.074105294 7.7123423e-21)
(0.96037923 -0.11127307 -3.0710509e-21)
(1.0221886 -0.11072893 -8.6812648e-21)
(1.0709692 -0.079629193 -7.672951e-21)
(1.0927915 -0.031133258 1.6608296e-20)
(1.0820973 0.012529292 3.7714689e-21)
(1.0542357 0.032853358 -4.8490433e-22)
(1.02973 0.031552629 1.5779054e-21)
(1.016837 0.02089936 -3.1991783e-22)
(1.0135336 0.010155035 -6.8648328e-22)
(1.0152351 0.0028400028 -2.0814163e-22)
(1.0182961 -0.0011425535 2.3704361e-22)
(1.0209633 -0.0026398016 -3.6886137e-23)
(1.022709 -0.0026115394 -2.3985256e-24)
(1.0234872 -0.0020493168 1.6222843e-22)
(1.0235914 -0.0014349287 3.4694794e-23)
(1.0233071 -0.00093151967 0)
(1.022862 -0.00058222431 -2.8444179e-22)
(1.0223402 -0.00030788955 -1.9480285e-23)
(1.0218484 -0.00015476918 0)
(1.0213653 8.5137637e-06 8.5006312e-22)
(1.021012 -2.0974988e-06 -3.5393972e-24)
(1.0207103 7.6252078e-05 -4.5887694e-22)
(0.86142044 0.018865371 -6.6203886e-22)
(0.86353042 0.061921348 -4.9605611e-22)
(0.83466664 0.051618538 1.1006089e-20)
(0.83702673 -0.0077048574 -7.2051159e-22)
(0.87612304 -0.087083091 2.8535707e-21)
(0.95168252 -0.13012023 5.6719866e-21)
(1.0213925 -0.13159173 6.2159909e-22)
(1.0794983 -0.097573663 1.4080397e-20)
(1.1081445 -0.039758979 -3.1724664e-21)
(1.0978425 0.016487785 -8.3830168e-21)
(1.0632226 0.044377972 3.2238073e-21)
(1.0307866 0.043021592 -1.1450888e-21)
(1.0132434 0.028506291 -8.1944912e-22)
(1.0088052 0.013577229 -3.2539757e-22)
(1.0112229 0.0033466411 -8.9072218e-22)
(1.0157364 -0.0020963928 -1.7619834e-22)
(1.0197674 -0.0041467213 -1.0601349e-21)
(1.0225071 -0.0040812293 -7.5150258e-22)
(1.0238844 -0.0031900279 -3.1850075e-22)
(1.024253 -0.0022170266 -4.8476679e-22)
(1.0240467 -0.0014484355 -2.7383043e-22)
(1.0235703 -0.00090495417 6.3352823e-23)
(1.0230171 -0.00054790815 2.3047489e-23)
(1.0224343 -0.00027272456 0)
(1.0219011 -0.00011722974 0)
(1.0213851 4.269862e-05 -6.1000807e-23)
(1.0210108 2.3354003e-05 8.0385304e-22)
(1.0206924 8.4174439e-05 8.9106597e-22)
(0.85532955 0.017958245 0)
(0.85460453 0.067370954 -4.3891057e-21)
(0.82189406 0.056469973 -1.3104168e-20)
(0.82321367 -0.008755565 -7.029481e-21)
(0.86222397 -0.099783636 -1.3340368e-20)
(0.94145802 -0.14964582 -2.0495017e-21)
(1.0181919 -0.15277984 8.3770293e-21)
(1.0847772 -0.11622399 2.9601713e-20)
(1.1212026 -0.048749105 -2.7255027e-20)
(1.1122934 0.022266064 3.5742913e-21)
(1.0711607 0.059310178 -4.9289533e-22)
(1.030926 0.05780573 -1.6598403e-21)
(1.0079992 0.038331411 -2.1411551e-21)
(1.0022347 0.01796481 -6.890096e-22)
(1.0057069 0.0039647324 -1.2321965e-22)
(1.0120642 -0.003492307 -8.4993425e-22)
(1.0179347 -0.0062338903 -7.7071443e-23)
(1.0220426 -0.0061242995 -2.1501291e-22)
(1.0242655 -0.0047816837 -1.0795874e-22)
(1.0250236 -0.0033015706 -2.2724149e-22)
(1.0249148 -0.0021252608 -1.8445957e-22)
(1.0244115 -0.0013308841 -1.3615021e-22)
(1.0237758 -0.00081377169 1.5559945e-23)
(1.0231413 -0.00047937219 6.3851994e-22)
(1.0225119 -0.0002167958 1.7684587e-22)
(1.0219449 -6.4744492e-05 4.7709666e-24)
(1.0213971 8.6827224e-05 -8.4854227e-22)
(1.0210011 5.5811078e-05 5.3980575e-22)
(1.0206675 9.7474937e-05 -1.3572907e-21)
(0.84932097 0.017314468 2.766735e-21)
(0.84585111 0.072880756 0)
(0.80930892 0.061434798 0)
(0.80958007 -0.0096720779 0)
(0.84860107 -0.11189252 4.6730039e-21)
(0.93026631 -0.16880114 -7.3952416e-21)
(1.0121334 -0.17365438 -2.1527299e-21)
(1.0852849 -0.13468538 -3.8269147e-21)
(1.1290901 -0.058537771 -4.7044954e-20)
(1.1249841 0.030334386 3.1566511e-20)
(1.0755101 0.078448738 -9.8681664e-21)
(1.0277136 0.076415062 1.6796054e-21)
(1.0003775 0.050737502 1.7461455e-21)
(0.99334061 0.023372433 1.1093695e-21)
(0.99832286 0.0045947131 2.2413888e-21)
(1.007058 -0.0054093695 -2.2006016e-23)
(1.0152973 -0.0090944575 -8.0985649e-22)
(1.0212477 -0.0089282773 1.2056937e-22)
(1.0246362 -0.0069904189 4.3866297e-22)
(1.0259509 -0.004789002 3.2734479e-22)
(1.0259843 -0.0030276967 1.7865039e-22)
(1.0254169 -0.0018501416 -1.059264e-22)
(1.0246724 -0.0011344825 -2.5031185e-22)
(1.0239248 -0.00068789848 1.9423662e-22)
(1.0232377 -0.0003918336 -1.3522375e-23)
(1.0225747 -0.00014756693 1.6188634e-22)
(1.0219802 -1.944745e-07 -6.5389402e-22)
(1.021402 0.00013919886 2.833809e-23)
(1.0209834 9.5167024e-05 -2.1123796e-21)
(1.0206344 0.00011389412 -8.2929331e-22)
(0.84326477 0.016743952 -6.7473524e-22)
(0.83744514 0.078613653 -5.5667998e-21)
(0.79715671 0.066600206 0)
(0.79642933 -0.010511775 0)
(0.83509789 -0.12338999 0)
(0.9184727 -0.18724441 0)
(1.0038027 -0.19392018 0)
(1.0817286 -0.15270745 1.1125661e-21)
(1.1307369 -0.068727729 2.2192293e-20)
(1.1360869 0.038867768 -5.0362689e-20)
(1.0799992 0.10114106 9.1259843e-22)
(1.0194297 0.098536492 -8.0032685e-21)
(0.98875425 0.065798746 -1.5672389e-22)
(0.98158104 0.029821783 3.1015595e-21)
(0.98870328 0.0051041186 -2.5874951e-22)
(1.0004839 -0.0080348698 6.4046441e-22)
(1.0116898 -0.012938425 -3.9340492e-22)
(1.0200447 -0.012711915 3.1502316e-22)
(1.0250089 -0.010011056 -3.2514587e-22)
(1.027108 -0.0068262458 -1.5011678e-22)
(1.0273435 -0.0042262942 -2.0162891e-23)
(1.0266767 -0.002491704 -2.8162499e-22)
(1.0257392 -0.0014763515 -1.5489191e-23)
(1.0248339 -0.00090740342 8.1855195e-23)
(1.0240259 -0.00055161058 -5.7478974e-23)
(1.0233122 -0.00029611077 -4.7266708e-22)
(1.0226269 -6.9123223e-05 -1.642175e-22)
(1.0220068 7.1575609e-05 2.8275542e-22)
(1.0214002 0.00019785232 3.8985138e-24)
(1.0209582 0.00013890729 1.5438871e-21)
(1.0205931 0.00013094178 5.4247971e-22)
(0.83736116 0.016397331 -1.900501e-21)
(0.82881737 0.084971043 -7.1922045e-22)
(0.78560347 0.071238952 -1.9320388e-20)
(0.7840926 -0.011160838 -3.1752306e-20)
(0.82196188 -0.1344302 0)
(0.90633358 -0.20478936 0)
(0.9936356 -0.21326814 -2.5426426e-21)
(1.0752576 -0.17005423 -3.5349045e-20)
(1.128621 -0.078966091 6.152832e-20)
(1.1401059 0.045435479 -6.3239571e-20)
(1.0911956 0.12662789 -2.8670133e-21)
(1.0122306 0.12407476 9.2255168e-21)
(0.97194459 0.082670583 1.7383436e-21)
(0.96620977 0.037115056 -3.9231214e-22)
(0.97651743 0.0052876737 -1.9386788e-21)
(0.9921181 -0.011567372 3.3669952e-24)
(1.0069617 -0.017975195 1.7784765e-21)
(1.0183503 -0.01772748 -4.8696606e-23)
(1.025398 -0.014076026 -6.4828709e-22)
(1.0285853 -0.0095916268 -2.7021977e-22)
(1.0291204 -0.0058230515 -4.4957578e-22)
(1.028303 -0.0032815999 1.4048419e-22)
(1.027069 -0.0018291518 -1.0278372e-22)
(1.0258922 -0.0010821601 -1.9834837e-22)
(1.024914 -0.00068829958 -2.9061352e-23)
(1.0240925 -0.0004218973 -1.5241754e-22)
(1.0233724 -0.00019970047 -1.2116031e-22)
(1.0226709 1.3643378e-05 -1.6502085e-22)
(1.0220265 0.00014854458 3.9897586e-22)
(1.0213923 0.00026006279 -4.1529073e-23)
(1.020926 0.00018372201 7.6556039e-22)
(1.0205442 0.00014757798 5.8017747e-23)
(0.83202943 0.016580561 6.6629126e-22)
(0.82066176 0.092068835 7.5538349e-21)
(0.7741084 0.076879464 2.9482133e-20)
(0.77230491 -0.012617287 4.8051407e-20)
(0.80925405 -0.1445924 0)
(0.89417738 -0.22136917 0)
(0.98195279 -0.23142211 0)
(1.0657723 -0.18652053 2.2593233e-21)
(1.1233091 -0.088155626 -7.4635115e-20)
(1.137707 0.050774843 -6.0508179e-20)
(1.0986195 0.1515653 -4.0083158e-21)
(1.0126632 0.15276778 2.7050325e-21)
(0.95477281 0.10174163 -1.8064889e-21)
(0.946421 0.044452667 -4.4882527e-22)
(0.96152288 0.0048611255 -2.2111039e-22)
(0.98178453 -0.01622835 0)
(1.0009788 -0.024420654 4.9679135e-22)
(1.0160796 -0.024224717 -2.6357028e-22)
(1.0258154 -0.019443006 -4.4108904e-23)
(1.0304878 -0.013301105 6.7998926e-23)
(1.0314731 -0.0079487885 2.4049888e-22)
(1.0304568 -0.0042622089 2.2499513e-22)
(1.028778 -0.0021683319 2.1429756e-22)
(1.0271809 -0.0011652711 1.3370213e-22)
(1.0259088 -0.00072931728 3.2471694e-23)
(1.0249382 -0.00050357658 -2.6310447e-23)
(1.0241395 -0.00030846746 2.2365824e-24)
(1.0234259 -0.00010697114 -9.6439829e-24)
(1.0227094 9.8311669e-05 4.2077457e-22)
(1.02204 0.00022894388 2.9068079e-22)
(1.0213784 0.00032465004 2.8529454e-23)
(1.0208868 0.00022936702 -2.1762449e-21)
(1.0204885 0.0001636286 8.3332161e-22)
(0.82719934 0.016892279 3.6906278e-22)
(0.81318893 0.099955964 2.4916008e-22)
(0.76327895 0.084046325 5.7803436e-20)
(0.7601309 -0.011739492 1.0607339e-19)
(0.79830976 -0.15529552 -1.7723329e-20)
(0.88205231 -0.23665077 -1.2268438e-21)
(0.96928593 -0.24815839 -5.8318267e-20)
(1.0531692 -0.20204984 3.9213902e-20)
(1.1137851 -0.096332676 9.6025372e-21)
(1.1295989 0.057257362 1.4450452e-19)
(1.0923736 0.1742769 -4.2950374e-20)
(1.0146728 0.18251202 -2.5217247e-20)
(0.94598234 0.12354364 1.5336155e-21)
(0.92362352 0.051619759 -2.034466e-21)
(0.94349529 0.0033023789 -2.0501054e-21)
(0.96940883 -0.022249447 -1.9412071e-22)
(0.99363681 -0.032468961 2.0528707e-22)
(1.0131523 -0.032445248 7.2025697e-22)
(1.0262608 -0.026391104 -3.471587e-23)
(1.0329281 -0.018202765 1.3173063e-24)
(1.0345908 -0.010767313 1.4283883e-22)
(1.0333413 -0.0054919069 3.4930677e-22)
(1.0310347 -0.0024686613 -1.3719846e-22)
(1.0288002 -0.001084892 2.684143e-22)
(1.0270692 -0.00059863705 8.6208699e-23)
(1.0258346 -0.00045834156 2.8256141e-24)
(1.0249336 -0.00036685069 1.7123019e-23)
(1.0241805 -0.00021486591 -1.0371718e-23)
(1.0234776 -1.8765996e-05 1.285251e-22)
(1.0227458 0.00018624407 -5.1583643e-23)
(1.0220484 0.00031408964 2.1366377e-22)
(1.0213578 0.00039343449 1.5696275e-23)
(1.0208413 0.00027631755 8.9055506e-22)
(1.0204258 0.00017975817 -1.5726844e-21)
(0.82297734 0.017778731 -8.7335728e-22)
(0.80631831 0.10817174 -4.395522e-22)
(0.75362991 0.091305317 -7.6478716e-20)
(0.74880746 -0.0090621123 -6.2976385e-20)
(0.78563631 -0.16294479 7.5135318e-20)
(0.87083513 -0.25131791 2.5006831e-20)
(0.95595127 -0.26351211 8.6129443e-21)
(1.0383291 -0.21593043 0)
(1.100494 -0.10354096 5.5852829e-20)
(1.1169321 0.064591455 1.857212e-19)
(1.0783318 0.1960538 -4.6360044e-21)
(1.0108399 0.210271 1.1377262e-20)
(0.94419281 0.1486206 0)
(0.9038034 0.060071359 1.3202971e-21)
(0.92221989 -2.5436561e-06 2.821171e-21)
(0.95505028 -0.029869676 4.5253551e-22)
(0.98488713 -0.042293585 -1.3275598e-21)
(1.0095059 -0.04259748 0)
(1.026727 -0.035196481 -4.4564914e-22)
(1.0360129 -0.024579453 -3.4097659e-22)
(1.0386859 -0.014480854 2.2039811e-22)
(1.0372062 -0.0070496166 1.9406441e-22)
(1.0340534 -0.0027032134 0)
(1.0308995 -0.00075099943 1.5600134e-22)
(1.028462 -0.00018722484 1.7495666e-22)
(1.0268103 -0.00019274941 -1.4777178e-23)
(1.0257175 -0.00028876422 -5.502532e-24)
(1.0249255 -0.00027859282 1.0856027e-23)
(1.024227 -0.0001396259 3.6042421e-24)
(1.0235316 6.6304705e-05 4.4862473e-22)
(1.022781 0.00027728356 -9.1479362e-22)
(1.0220519 0.00040332839 -5.4221785e-22)
(1.0213307 0.00046485562 0)
(1.0207884 0.00032665283 -3.4953947e-23)
(1.0203563 0.00019603266 -4.7260389e-22)
(0.81957308 0.019244351 4.7687401e-22)
(0.79999507 0.11656864 4.2629304e-21)
(0.74547366 0.098888981 -8.5044089e-20)
(0.73903255 -0.0068286759 -2.5473177e-20)
(0.77255774 -0.16923279 2.3617194e-20)
(0.85706018 -0.26432073 5.5092873e-21)
(0.94283374 -0.27712121 6.3005685e-20)
(1.022148 -0.22898024 4.961995e-21)
(1.0842586 -0.10881777 0)
(1.100142 0.072659292 -6.5785602e-20)
(1.0612227 0.21646347 4.6148642e-20)
(1.0006811 0.23549447 -7.768781e-21)
(0.94091892 0.1745995 6.8347647e-21)
(0.88870728 0.072556885 -7.9010163e-22)
(0.89880657 -0.0044426515 0)
(0.93903088 -0.039418444 1.3332897e-21)
(0.97474667 -0.053988916 -6.0962917e-22)
(1.0050823 -0.054840257 1.2213453e-21)
(1.0271881 -0.046106171 6.6126989e-22)
(1.0398347 -0.032722284 8.7189408e-22)
(1.0439838 -0.019331064 -3.6560468e-22)
(1.0423442 -0.0090438901 1.4439425e-22)
(1.0381058 -0.0028440276 0)
(1.0336693 -5.2718714e-05 6.5284329e-23)
(1.0301969 0.0006468379 4.7506353e-23)
(1.0278904 0.0004261008 7.2277984e-23)
(1.0264862 2.4767152e-05 -8.0237366e-23)
(1.0256009 -0.00022205894 -1.7156846e-23)
(1.024937 -0.00023524617 2.8019091e-23)
(1.0242873 -7.8792742e-05 0)
(1.0235908 0.00015070104 -3.3886902e-22)
(1.0228151 0.00037245776 -9.9761486e-22)
(1.0220506 0.00049690856 1.6094407e-21)
(1.0212972 0.00053978425 -5.3585454e-22)
(1.0207294 0.00037840265 6.6376426e-23)
(1.0202807 0.00021238579 1.693789e-21)
(0.81724352 0.021020705 -9.5227828e-22)
(0.79415235 0.12459392 -1.8163637e-22)
(0.73907961 0.106485 3.1789688e-20)
(0.73107571 -0.0044312165 8.0880237e-22)
(0.76058804 -0.17568133 -1.2033441e-19)
(0.84265891 -0.27634925 -2.9918366e-20)
(0.92661197 -0.29043133 -2.5227203e-21)
(1.004303 -0.23881932 4.5966871e-20)
(1.0654008 -0.11363193 1.9242588e-21)
(1.0798352 0.08049045 6.0297461e-20)
(1.0404773 0.23582816 1.7727976e-21)
(0.98527035 0.25829971 -1.3922497e-20)
(0.93223064 0.19944813 2.1648871e-21)
(0.87636253 0.089179643 -2.3071733e-21)
(0.87569401 -0.007666357 5.3527106e-21)
(0.92086974 -0.050794231 9.6888864e-22)
(0.96342366 -0.067535539 -1.2584053e-21)
(0.99981182 -0.069234662 -9.9846133e-22)
(1.0275533 -0.059319208 1.8247933e-21)
(1.0444194 -0.04293306 5.621191e-22)
(1.0506945 -0.025596168 -4.5099689e-23)
(1.0490858 -0.011618971 8.2713605e-22)
(1.0435193 -0.002870227 -2.4320921e-22)
(1.0373543 0.001146862 0)
(1.0324099 0.0020809303 -5.7744216e-22)
(1.0291313 0.0015722934 3.8667822e-23)
(1.0272211 0.00071602624 -2.1669901e-22)
(1.0261715 5.6076873e-05 3.0540648e-22)
(1.0255248 -0.00024560291 -9.6175073e-25)
(1.0249795 -0.00022762194 -4.7566963e-23)
(1.0243651 -2.6093574e-05 1.6904632e-22)
(1.0236567 0.00023898226 -4.25372e-22)
(1.0228479 0.000474271 4.3064823e-24)
(1.0220441 0.00059569267 1.6499642e-21)
(1.0212573 0.00061807167 -2.7530853e-23)
(1.0206635 0.00043226018 -4.9670698e-23)
(1.0201988 0.0002289296 6.1559415e-22)
(0.81618091 0.023153536 -3.6046725e-22)
(0.78909562 0.13231351 -6.333073e-21)
(0.73464107 0.11417346 5.2045684e-20)
(0.72527015 -0.0020280896 2.734161e-20)
(0.75004832 -0.18233434 -4.4368992e-22)
(0.82822257 -0.28820827 6.4050828e-22)
(0.90873144 -0.30347102 2.4759227e-20)
(0.98343696 -0.25157252 -4.9187134e-21)
(1.0445541 -0.11424753 0)
(1.0568098 0.088385802 -1.3119304e-20)
(1.0172836 0.25406131 0)
(0.96578305 0.27928303 0)
(0.91884737 0.2221216 -9.8160868e-21)
(0.86535804 0.10794345 2.4224294e-22)
(0.85350709 -0.0097915201 1.7112896e-21)
(0.90048787 -0.063470824 2.0632896e-21)
(0.95089295 -0.082838725 -1.240453e-21)
(0.99359593 -0.085756641 -5.442379e-21)
(1.0277033 -0.07496246 -3.1245031e-21)
(1.04974 -0.055500449 -1.1519268e-21)
(1.0589962 -0.033601385 8.2104085e-22)
(1.057777 -0.014968444 -1.2196254e-21)
(1.0506833 -0.0027722648 -1.8124362e-22)
(1.0422533 0.0030068812 -6.7212776e-22)
(1.0352745 0.0043385366 -1.549021e-22)
(1.0305944 0.0034603715 6.6001893e-23)
(1.0279198 0.0019680587 1.7869807e-22)
(1.0265753 0.00069106929 -2.301472e-22)
(1.0259241 -7.3178189e-05 -1.2220625e-23)
(1.0255138 -0.00032451093 -3.7101818e-22)
(1.0250586 -0.0002385412 -8.1055808e-23)
(1.024462 2.7680615e-05 -7.0850401e-23)
(1.0237285 0.00033559144 2.3396355e-22)
(1.0228784 0.00058396003 1.0023861e-21)
(1.022032 0.00070065607 -3.292933e-21)
(1.0212106 0.00070001439 -6.5521097e-22)
(1.0205915 0.00048774633 -5.9845001e-22)
(1.0201112 0.00024557693 0)
(0.81669952 0.025517376 3.7965991e-21)
(0.78581885 0.1402698 -3.3580074e-22)
(0.73213691 0.12172265 1.7876884e-20)
(0.7217816 0.0002062873 2.8295588e-20)
(0.74145197 -0.18873518 7.9998023e-20)
(0.81429546 -0.30005704 2.0973568e-20)
(0.89057575 -0.31541915 -6.4328014e-21)
(0.96005454 -0.26577958 -7.0978225e-20)
(1.0210342 -0.12371299 -2.0000255e-21)
(1.0321504 0.09916625 -1.390165e-19)
(0.9924371 0.2721279 4.1567098e-21)
(0.94388306 0.29858351 0)
(0.90182025 0.24276741 0)