/*--------------------------------*- C++ -*----------------------------------*\
| =========                 |                                                 |
| \\      /  F ield         | OpenFOAM: The Open Source CFD Toolbox           |
|  \\    /   O peration     | Version:  5.0                                   |
|   \\  /    A nd           | Web:      www.OpenFOAM.org                      |
|    \\/     M anipulation  |                                                 |
\*---------------------------------------------------------------------------*/
FoamFile
{
    version     2.0;
    format      ascii;
    class       volVectorField;
    location    "120";
    object      UMean;
}
// * * * * * * * * * * * * * * * * * * * * * * * * * * * * * * * * * * * * * //

dimensions      [0 1 -1 0 0 0 0];

internalField   nonuniform List<vector> 
9200
(
(1.0181902 -0.00023318341 -3.5399802e-24)
(1.0184861 -0.00074715589 1.4630997e-23)
(1.0189424 -0.00020798121 0)
(1.018929 -0.0010356771 -2.0082751e-23)
(1.0191571 -0.00066016978 2.0307469e-23)
(1.0191412 -0.00020465573 0)
(1.019489 -0.0013402184 2.8430527e-25)
(1.0194908 -0.00090201511 -3.8429994e-23)
(1.0193409 -0.00067942134 0)
(1.0196298 -0.00022550128 0)
(1.0201502 -0.0013821364 1.017996e-22)
(1.019896 -0.0011943395 2.118095e-22)
(1.0196283 -0.00093270945 9.7695924e-24)
(1.0197798 -0.00075473195 -1.5902716e-24)
(1.0199449 -0.00024126758 4.4549331e-25)
(1.0208469 -0.0013603438 8.8200256e-23)
(1.0203517 -0.001240278 5.5595847e-23)
(1.0199656 -0.0012568778 8.465991e-23)
(1.0200097 -0.0010467319 7.0264764e-23)
(1.0200825 -0.00083818177 4.147402e-23)
(1.0204435 -0.00027147259 2.2946702e-22)
(1.0215203 -0.0011256939 2.7906279e-22)
(1.0208211 -0.001266759 6.5754036e-23)
(1.0203409 -0.001339705 -3.0291651e-23)
(1.0202752 -0.0014400786 -1.6754229e-23)
(1.020275 -0.0011801483 -6.6662498e-23)
(1.0205596 -0.00096511169 -5.643402e-23)
(1.0208748 -0.00029975504 5.6566592e-24)
(1.0221075 -0.00077647688 3.3788462e-22)
(1.0212643 -0.00112014 2.0155824e-22)
(1.0207165 -0.0014255665 1.4259925e-22)
(1.0205652 -0.0015931698 1.1278959e-22)
(1.0204866 -0.001647577 1.0785518e-23)
(1.0207187 -0.0013748995 9.9100629e-24)
(1.0209815 -0.0010923031 2.4864518e-22)
(1.0214369 -0.0003335247 -3.8971928e-22)
(1.0225885 -0.00027001526 -3.8231009e-22)
(1.0216523 -0.00091031323 2.1203885e-23)
(1.0210607 -0.001361613 1.068694e-22)
(1.0208559 -0.0017676208 -6.4184462e-24)
(1.020707 -0.0018736845 2.4742778e-22)
(1.020892 -0.0019359337 2.259941e-22)
(1.021116 -0.0015726532 -4.5084677e-22)
(1.0215382 -0.0012421829 4.8201857e-22)
(1.0219748 -0.00036478804 9.7486734e-22)
(1.0228868 0.00031510053 3.7818552e-22)
(1.0219455 -0.00060188226 1.9409504e-22)
(1.0213467 -0.0012608469 -3.5431813e-23)
(1.0211143 -0.0017955361 -3.6241316e-22)
(1.0209196 -0.0021341935 -3.7801046e-23)
(1.0210661 -0.002249926 4.1137369e-22)
(1.0212572 -0.0022278103 -1.1131583e-22)
(1.0216574 -0.0018049997 -3.5475236e-22)
(1.0220744 -0.0013855613 -1.7511706e-22)
(1.0226116 -0.00039687973 -5.1737019e-23)
(1.0229096 0.00094697608 -1.7337765e-22)
(1.0220925 -0.00025979047 2.2130059e-22)
(1.0215529 -0.001090147 8.3779358e-24)
(1.0213235 -0.0017872959 -1.173223e-22)
(1.0210965 -0.0022571085 -4.3809659e-22)
(1.0212303 -0.002609664 5.0794355e-22)
(1.0213886 -0.0026321747 1.3549309e-22)
(1.0217824 -0.0025675546 -8.0131613e-22)
(1.0221827 -0.002027881 4.640657e-22)
(1.0227171 -0.0015369666 -9.1507178e-22)
(1.0232356 -0.00042511209 2.1708877e-22)
(1.0228657 0.0016702455 6.9795854e-23)
(1.0220343 9.3944507e-05 -2.2106164e-22)
(1.0216561 -0.00089635775 -2.2525811e-22)
(1.0214682 -0.001702718 0)
(1.0212272 -0.0023551871 2.1041157e-23)
(1.0213546 -0.002832694 -4.0746324e-22)
(1.0215052 -0.0030918111 1.3634177e-22)
(1.0218896 -0.0030738551 4.0445997e-22)
(1.0222965 -0.0028929169 -4.3994227e-22)
(1.0228245 -0.0022642711 6.2360435e-22)
(1.0233494 -0.0016761058 4.8695462e-22)
(1.0239317 -0.00045121864 -1.0127928e-22)
(1.022701 0.0024443797 4.3961207e-23)
(1.0218164 0.00047910236 -1.0581736e-22)
(1.0215711 -0.00069216844 0)
(1.0215341 -0.0015853139 0)
(1.0212971 -0.0023841223 1.0734137e-22)
(1.0214292 -0.0030285759 -6.3544226e-22)
(1.021577 -0.0034183337 6.3722397e-22)
(1.0219804 -0.0036423379 -3.2602606e-22)
(1.0223843 -0.0034985368 -1.8721725e-25)
(1.0229414 -0.0032390772 5.113455e-24)
(1.0234598 -0.0024821327 -1.0205117e-21)
(1.0240616 -0.0018120421 1.3553249e-21)
(1.0246148 -0.00047237721 -2.3594818e-21)
(1.0211722 0.0028574916 -7.4923572e-22)
(1.0215825 0.00098813594 4.3453059e-23)
(1.0212292 -0.00049432453 -1.958986e-22)
(1.0214591 -0.0014498145 -3.4467059e-25)
(1.0213002 -0.0023783019 1.3071795e-22)
(1.0214414 -0.0031522119 -1.8666435e-22)
(1.0216033 -0.0037206414 -3.3163765e-23)
(1.0220196 -0.0040781277 3.1457874e-23)
(1.0224526 -0.0041752303 -6.8440848e-23)
(1.0230256 -0.003952448 -4.4624575e-23)
(1.0235857 -0.0035590563 -2.3470071e-22)
(1.0241852 -0.00269647 -6.5090403e-22)
(1.024763 -0.0019308875 -4.8708802e-22)
(1.0253423 -0.00048946227 7.0573791e-22)
(1.0175274 0.0026101876 2.1689145e-22)
(1.0208902 0.0014732239 1.9893324e-21)
(1.0207706 -0.0002912611 -4.6450559e-23)
(1.0211213 -0.0013283049 -4.0191952e-24)
(1.0211982 -0.0023362814 -1.7554801e-23)
(1.0213896 -0.00323474 2.0316794e-22)
(1.0215681 -0.0039505066 -1.8838258e-23)
(1.0220046 -0.0044906972 5.3629693e-23)
(1.0224632 -0.0047235198 -2.1020475e-22)
(1.0230886 -0.0047440874 -3.0098304e-23)
(1.0236732 -0.0043749749 1.4060721e-23)
(1.0243338 -0.0038765998 -1.9712362e-22)
(1.0249038 -0.0028848425 1.1737014e-21)
(1.0255168 -0.0020376461 -6.8176121e-22)
(1.0260532 -0.0005009992 6.1488392e-22)
(1.0121167 0.0018435407 1.3720889e-21)
(1.0186178 0.0015945834 -1.6822927e-21)
(1.0202067 6.1951683e-05 6.3332138e-22)
(1.0205382 -0.0012218287 -3.5814349e-22)
(1.0208502 -0.0022901566 8.2783914e-23)
(1.0212559 -0.0032746666 1.7314344e-23)
(1.0214695 -0.0041369696 -5.2321877e-22)
(1.0219222 -0.0048297386 6.1370061e-23)
(1.0224199 -0.005247778 1.1609811e-22)
(1.0230856 -0.005410282 -6.1838123e-22)
(1.023738 -0.0052786452 1.5172968e-21)
(1.0244402 -0.0047989603 -9.7365652e-22)
(1.025082 -0.0041581157 -4.0782317e-22)
(1.0256853 -0.0030558083 -8.023993e-23)
(1.0262555 -0.0021236174 8.6783098e-23)
(1.0267806 -0.00050720881 -7.2062411e-22)
(1.005369 0.00068419983 0)
(1.0148973 0.0013202507 -2.568395e-21)
(1.018434 0.00029337111 1.1629412e-22)
(1.0198823 -0.00099514229 0)
(1.0201541 -0.0022625038 0)
(1.0209241 -0.0033015614 0)
(1.0213012 -0.0042747787 5.7485432e-23)
(1.0217718 -0.0051207625 -1.0166243e-22)
(1.0223072 -0.0056977958 8.5864341e-22)
(1.0230195 -0.0060556488 -3.2760965e-22)
(1.0237297 -0.0060645644 2.2387238e-22)
(1.0245229 -0.0058198724 -3.2648668e-22)
(1.025216 -0.0051797524 1.3060334e-22)
(1.0259073 -0.0044175642 4.6752237e-22)
(1.0264548 -0.0031947666 2.8044018e-23)
(1.0270179 -0.0021909135 3.718218e-22)
(1.0274863 -0.00050732686 0)
(0.99783873 -0.00066670666 1.4239845e-21)
(1.0097072 0.00071642459 4.1059996e-21)
(1.0151172 0.00019614985 -4.3731824e-21)
(1.0184725 -0.0006778444 -1.5189396e-21)
(1.0193013 -0.0021384106 -8.1882349e-22)
(1.020192 -0.0033564169 0)
(1.0209866 -0.0043820804 2.0595674e-22)
(1.0215542 -0.0053592244 -2.1658994e-22)
(1.022123 -0.0060969091 -9.7854568e-22)
(1.0228744 -0.0066277888 1.169396e-21)
(1.0236539 -0.0068315957 2.1059603e-22)
(1.0245249 -0.0067308815 2.7891059e-22)
(1.0253272 -0.006312386 -1.1793652e-21)
(1.0260853 -0.0055372349 1.4523541e-21)
(1.0267272 -0.004632477 8.1781134e-23)
(1.0272591 -0.003305506 2.7228283e-21)
(1.0277597 -0.0022349994 9.9972646e-22)
(1.0281837 -0.00050116743 1.0103302e-21)
(0.99007741 -0.0021172226 -1.1689099e-22)
(1.0030141 -0.00025786371 2.1503725e-21)
(1.0104111 -3.8547492e-05 6.6569427e-22)
(1.0155941 -0.00067253932 -2.0997089e-21)
(1.0179832 -0.0018478613 1.7265157e-22)
(1.0191356 -0.0033795642 -2.0302829e-22)
(1.0202884 -0.0045103144 -2.2084441e-23)
(1.0212374 -0.0055553666 -7.0279569e-22)
(1.0218688 -0.0064397197 -4.8893019e-22)
(1.0226508 -0.0071435512 9.1167586e-23)
(1.0234914 -0.0075266908 -2.8752634e-22)
(1.024449 -0.007629629 7.5317275e-22)
(1.0253511 -0.0073475673 -8.9107211e-22)
(1.0262428 -0.0067826484 1.0537151e-22)
(1.0269587 -0.005840424 9.168957e-23)
(1.0275965 -0.0048093527 -4.5371493e-22)
(1.0280449 -0.0033800312 9.7621603e-22)
(1.0284983 -0.002256447 -7.4076104e-23)
(1.0288523 -0.00048852396 9.957774e-22)
(0.98227827 -0.003524045 -5.4990886e-22)
(0.99559481 -0.0013199793 -2.0877434e-21)
(1.0043342 -0.00050399736 9.4033023e-21)
(1.0114096 -0.00081955913 1.1238877e-21)
(1.015432 -0.001725582 -6.4226442e-22)
(1.0177602 -0.0032202432 -1.1256599e-22)
(1.0190933 -0.0046678119 -1.0410268e-22)
(1.0206136 -0.0057504538 -7.362622e-23)
(1.0215402 -0.0067319906 -1.5358054e-22)
(1.0223506 -0.0075973449 -1.3621352e-21)
(1.0232426 -0.00816337 5.974465e-22)
(1.0242739 -0.0084607052 1.4434008e-22)
(1.0252904 -0.0083794104 -1.9344153e-22)
(1.026307 -0.0079460549 9.5534013e-24)
(1.0271751 -0.007190278 1.8458021e-22)
(1.0278986 -0.0060988416 -1.6558245e-21)
(1.0284516 -0.0049351625 6.1986649e-22)
(1.028837 -0.0034195014 -1.6247748e-21)
(1.0292091 -0.0022536279 -4.1056617e-22)
(1.0294937 -0.00046958818 -1.0624023e-21)
(0.97478956 -0.0049255813 -1.8203209e-22)
(0.9879006 -0.0023157225 -2.3521483e-21)
(0.9971948 -0.001114523 -6.0443433e-22)
(1.0057967 -0.0011446348 -2.2261426e-21)
(1.0116082 -0.0017612224 1.992421e-22)
(1.0154268 -0.0031032731 1.0362786e-21)
(1.0175834 -0.0046782 -1.6089614e-21)
(1.0194006 -0.0060266564 -9.3528537e-22)
(1.0209993 -0.0069958742 1.0371344e-22)
(1.021983 -0.0079915143 0)
(1.0229077 -0.0087333182 -3.3443475e-22)
(1.0239992 -0.0092342567 9.2828951e-22)
(1.02512 -0.0093505077 1.2168914e-21)
(1.0262781 -0.009118365 -1.4263014e-21)
(1.0272949 -0.0084770441 3.8615648e-22)
(1.0281935 -0.0075482704 -1.3121395e-21)
(1.0288328 -0.0062934146 1.6863713e-22)
(1.0293274 -0.0050118558 7.063038e-22)
(1.029603 -0.0034207757 -1.1080235e-21)
(1.0298958 -0.0022269225 -6.5686846e-23)
(1.0300982 -0.00044453296 -1.0211738e-21)
(0.96756977 -0.0064029911 -7.7874393e-22)
(0.9802526 -0.0032156189 -7.7088904e-22)
(0.98941402 -0.0017016466 -2.9701236e-21)
(0.99898753 -0.0016465006 3.9902452e-21)
(1.0064397 -0.0019495328 2.7910609e-21)
(1.0119065 -0.0031372662 -2.9619052e-22)
(1.0153895 -0.0046180712 0)
(1.0177304 -0.0062220164 -2.1323431e-22)
(1.019891 -0.0073394385 2.8035479e-23)
(1.0214854 -0.008331205 -5.6657994e-22)
(1.0224968 -0.0092357797 1.4495335e-22)
(1.0236245 -0.0099362379 4.8421729e-22)
(1.0248356 -0.010268905 -1.7822919e-22)
(1.0261255 -0.010242907 -2.9841628e-22)
(1.0273167 -0.0097891668 9.0643053e-22)
(1.0283905 -0.0089570073 -8.870451e-22)
(1.0292186 -0.0078302393 1.7425426e-22)
(1.0298046 -0.0064269285 -1.1899135e-21)
(1.0301794 -0.0050338932 -7.8499616e-23)
(1.0303512 -0.0033843084 -1.6226013e-23)
(1.0305461 -0.0021765475 -6.0312071e-22)
(1.0306631 -0.00041367365 0)
(0.96089552 -0.0075811493 -7.8899261e-22)
(0.97289178 -0.0041730059 -2.5949542e-23)
(0.98156628 -0.0022712961 3.0947108e-23)
(0.99131762 -0.0021550346 3.4460847e-21)
(0.99999911 -0.0023292252 1.9776525e-21)
(1.0071431 -0.0033271008 -1.3484411e-21)
(1.0121207 -0.0046754652 4.1302828e-22)
(1.0155407 -0.0062960578 -2.1316334e-21)
(1.0180987 -0.0077123266 -2.820995e-22)
(1.0205404 -0.0087017049 1.895971e-23)
(1.0220011 -0.0096672493 -2.7477631e-23)
(1.0231573 -0.010561302 -1.0355178e-21)
(1.0244338 -0.01111654 7.6787045e-23)
(1.0258429 -0.011322741 9.9225085e-22)
(1.0272038 -0.011070499 -7.2335553e-22)
(1.0284853 -0.010411074 -1.1476427e-21)
(1.0295097 -0.0093510033 -5.1318155e-23)
(1.0303006 -0.0080399831 2.1269653e-21)
(1.0307577 -0.0064904527 1.3727359e-22)
(1.0310241 -0.0050017552 -7.1606304e-22)
(1.0310643 -0.0033100797 0)
(1.031158 -0.0021034015 1.3559632e-21)
(1.0311838 -0.00037739479 1.8688103e-23)
(0.95507465 -0.0085075098 3.0207165e-21)
(0.96585872 -0.0049774593 -1.9215958e-21)
(0.97414711 -0.0027617807 -1.5447326e-22)
(0.9832865 -0.0026575565 -9.8463061e-22)
(0.992567 -0.0027671845 3.5540152e-21)
(1.0010862 -0.003698336 0)
(1.0077668 -0.0048900987 9.4048456e-23)
(1.0124962 -0.0064235124 -1.0538009e-21)
(1.0158395 -0.0079550626 -1.2409334e-21)
(1.0187783 -0.0092024437 -4.8169555e-22)
(1.0212053 -0.010065208 -1.5417704e-22)
(1.0226137 -0.011102577 -6.0863327e-22)
(1.0239188 -0.011882389 1.0106635e-21)
(1.0254216 -0.012337442 -8.1412153e-22)
(1.0269468 -0.012320554 1.6431201e-21)
(1.0284348 -0.011856274 1.8812367e-21)
(1.0296994 -0.010940019 -1.2901679e-21)
(1.0307081 -0.0096638315 8.452819e-22)
(1.0313739 -0.0081638853 -2.8721546e-21)
(1.0317185 -0.0064838468 9.862503e-22)
(1.0318349 -0.0049147993 1.6307554e-21)
(1.0317417 -0.0031992632 -1.4309731e-21)
(1.0317257 -0.0020087422 8.8744017e-22)
(1.0316577 -0.00033607714 1.6635912e-23)
(0.95003745 -0.0092569721 1.4419633e-21)
(0.9594573 -0.0055168719 -2.613454e-21)
(0.96718634 -0.003381713 1.3350499e-22)
(0.97560574 -0.0030728163 1.8362285e-21)
(0.98455781 -0.0032201991 -1.6494577e-21)
(0.99394187 -0.0041904323 4.1184666e-21)
(1.0021639 -0.005273352 8.3219357e-23)
(1.00851 -0.0066783226 3.8941245e-21)
(1.0129767 -0.008157457 -5.2223679e-22)
(1.0163796 -0.0096171255 -5.4158505e-22)
(1.0196276 -0.010606796 7.2679938e-23)
(1.0218897 -0.011561388 8.1832532e-22)
(1.0233079 -0.012558491 -3.5212018e-22)
(1.0248637 -0.013271817 -1.3143816e-22)
(1.0265307 -0.013518196 2.9904503e-22)
(1.0282257 -0.01328964 3.1409309e-22)
(1.0297381 -0.012546211 -2.5248024e-22)
(1.0310175 -0.011381318 1.3653031e-21)
(1.0319129 -0.0098755443 0)
(1.0324723 -0.0082009226 2.2453864e-22)
(1.0326474 -0.0064056652 6.9664319e-23)
(1.0326155 -0.0047742255 -1.3611669e-22)
(1.032375 -0.0030536934 3.4514916e-23)
(1.0322462 -0.0018941346 -1.2779587e-21)
(1.0320829 -0.00029001764 -5.7691672e-22)
(0.94547679 -0.0097933222 -3.1692358e-21)
(0.95371532 -0.0060303561 1.7524147e-21)
(0.96076107 -0.0036375336 5.7963542e-22)
(0.96845045 -0.0036339131 -3.3599641e-24)
(0.97673565 -0.0036404025 -2.8917516e-21)
(0.98603698 -0.004728045 -3.4267606e-22)
(0.99542182 -0.0058346413 7.6270982e-23)
(1.0033765 -0.0071019891 -2.7094791e-22)
(1.0092851 -0.0084494571 -2.7435882e-21)
(1.0135521 -0.0099067398 7.8436534e-23)
(1.0171374 -0.01117238 -4.5806616e-22)
(1.0205473 -0.012081523 -3.7208281e-23)
(1.0225787 -0.013128475 -5.823624e-22)
(1.0241789 -0.014113876 7.1067093e-23)
(1.0259537 -0.014644729 -5.3488849e-22)
(1.0278381 -0.014689145 -4.8274997e-22)
(1.0296078 -0.014165217 2.0326754e-22)
(1.0311731 -0.013145736 -1.9737758e-21)
(1.0323634 -0.011707269 -3.0186324e-21)
(1.0331628 -0.0099843619 -1.2320185e-24)
(1.0335437 -0.0081480656 3.0542702e-21)
(1.0335559 -0.0062561132 7.282385e-22)
(1.0333517 -0.0045823391 -1.4628702e-21)
(1.032961 -0.0028756497 1.2923252e-21)
(1.032717 -0.0017613813 -9.0080448e-22)
(1.0324582 -0.00024063618 4.9453602e-23)
(0.94106537 -0.010179614 1.559915e-22)
(0.94838548 -0.0063980317 2.5406097e-21)
(0.9549904 -0.003939159 -3.4358381e-21)
(0.96180218 -0.0038580694 1.8966248e-21)
(0.96943558 -0.0041039122 7.1698471e-22)
(0.97813466 -0.0052179224 -2.0068555e-21)
(0.98777097 -0.0064933648 -2.0609826e-21)
(0.99710729 -0.0077270501 -2.8931211e-21)
(1.00462 -0.0088817667 4.4179366e-21)
(1.0100625 -0.010218442 1.4972052e-21)
(1.0141472 -0.011590781 1.0178889e-23)
(1.0180932 -0.012762242 5.4642406e-22)
(1.0214331 -0.013653213 7.36499e-22)
(1.0233828 -0.014843957 -7.3819554e-22)
(1.0252178 -0.015685292 1.9631538e-22)
(1.0272663 -0.016033023 4.0394291e-22)
(1.0292836 -0.01577499 -1.3452756e-21)
(1.0311527 -0.014951812 1.5800629e-21)
(1.0326633 -0.013617639 -1.4271623e-21)
(1.0337773 -0.01191511 2.5399391e-22)
(1.0343964 -0.0099839125 0)
(1.0346084 -0.0080033802 1.2831179e-21)
(1.0344197 -0.0060381808 1.2069235e-22)
(1.0340416 -0.0043419235 0)
(1.0334958 -0.0026680326 -1.5761258e-21)
(1.0331366 -0.0016124774 -6.3557747e-23)
(1.0327832 -0.00018822878 4.4059234e-22)
(0.93651604 -0.010441969 1.1440212e-21)
(0.94323629 -0.0066996625 1.448678e-22)
(0.94968195 -0.0041408938 -3.6196393e-21)
(0.95576278 -0.0040481689 3.0479955e-22)
(0.9626492 -0.004488034 -1.4803058e-22)
(0.97070668 -0.0057468246 9.9543811e-22)
(0.97992079 -0.0070836689 1.3418859e-22)
(0.98982114 -0.0084949478 2.6042696e-21)
(0.99887936 -0.0095309835 -4.8600651e-22)
(1.0057997 -0.010614652 -2.7651288e-21)
(1.0107503 -0.011889727 2.3013074e-21)
(1.0148326 -0.013352327 5.4571407e-22)
(1.0192396 -0.014370546 -3.2571745e-23)
(1.0223287 -0.015463271 1.3309765e-22)
(1.0243421 -0.01661858 -1.0001062e-21)
(1.0265057 -0.017304197 3.4836959e-22)
(1.0287548 -0.017352747 -1.9018502e-21)
(1.0309263 -0.016778794 4.1690989e-21)
(1.0327865 -0.015601492 1.3579168e-21)
(1.0342486 -0.013957615 -1.6994371e-22)
(1.035192 -0.011993042 1.8192849e-21)
(1.0356387 -0.0098703053 -1.2025862e-22)
(1.0356282 -0.0077712977 -1.1180406e-22)
(1.0352408 -0.0057543023 0)
(1.0346781 -0.0040569984 0)
(1.0339771 -0.0024339671 1.2598127e-22)
(1.033504 -0.0014495397 -9.4206339e-22)
(1.0330579 -0.00013382942 -7.2646223e-22)
(0.93187841 -0.01057173 0)
(0.9379724 -0.00691667 1.4001335e-21)
(0.94465544 -0.0043157728 3.8024619e-21)
(0.95022105 -0.0041843441 1.7705844e-21)
(0.95641041 -0.0046893106 1.7085541e-21)
(0.96379606 -0.0063560178 -2.9499184e-23)
(0.97244974 -0.0077509836 9.1969364e-22)
(0.98210147 -0.0092160499 3.385173e-21)
(0.99206874 -0.010329565 -4.4819663e-21)
(1.0005485 -0.011205282 8.4268919e-22)
(1.0067414 -0.012209408 -2.2876149e-22)
(1.0113132 -0.013674716 -3.3282899e-22)
(1.015788 -0.015151501 1.2894832e-21)
(1.0204608 -0.016171157 1.4994976e-22)
(1.0232896 -0.017422238 2.9611481e-22)
(1.0255666 -0.018481555 -1.1158281e-21)
(1.028012 -0.018879026 4.7389972e-22)
(1.0304782 -0.018603182 -1.3738142e-21)
(1.0326976 -0.017640731 3.5109781e-21)
(1.0345476 -0.016107598 -1.2124209e-21)
(1.0358585 -0.014146603 1.5291885e-21)
(1.0366332 -0.011935598 1.0145757e-21)
(1.0368407 -0.0096479032 -5.1227508e-23)
(1.036613 -0.007451685 -3.3603888e-21)
(1.0360059 -0.0054097657 -8.7628039e-22)
(1.0352583 -0.0037317363 1.4631462e-22)
(1.0344033 -0.0021768675 1.2803934e-21)
(1.0338192 -0.0012747401 -5.1916956e-22)
(1.0332834 -7.8525398e-05 8.3729739e-22)
(0.92741979 -0.010562377 -3.8839509e-21)
(0.93253154 -0.0070914024 0)
(0.93956607 -0.0044707904 0)
(0.94501799 -0.0042619547 0)
(0.95070244 -0.0048758978 -6.4670868e-22)
(0.95735424 -0.0066703355 7.3707571e-22)
(0.96548254 -0.0085126031 3.4371601e-23)
(0.97462637 -0.010039552 4.8508503e-23)
(0.98458504 -0.011154377 -5.539311e-21)
(0.99422554 -0.011924742 6.4353674e-21)
(1.0018684 -0.012644662 -2.4016965e-21)
(1.0073524 -0.013933192 6.6897292e-22)
(1.0118472 -0.015656905 -9.4525215e-22)
(1.0170768 -0.017110657 -4.3139101e-23)
(1.0216881 -0.018183833 1.1043806e-21)
(1.0244608 -0.019538318 4.9148776e-22)
(1.027055 -0.020331439 -1.329281e-21)
(1.029795 -0.020404451 -1.4657484e-21)
(1.0323758 -0.019711947 9.2893969e-22)
(1.034634 -0.018350449 -6.4145226e-22)
(1.0363634 -0.016442085 -1.7987001e-21)
(1.0375167 -0.014177422 8.5199597e-23)
(1.0380444 -0.01174469 2.5052513e-21)
(1.038017 -0.0093138192 -1.6127658e-21)
(1.0375376 -0.0070530957 -5.5526091e-23)
(1.036713 -0.0050092487 -5.6071658e-22)
(1.0357792 -0.0033709489 1.3266492e-21)
(1.0347737 -0.0019002033 2.9180139e-22)
(1.0340827 -0.0010900984 1.7539411e-21)
(1.0334627 -2.2708168e-05 3.6929995e-22)
(0.92301872 -0.010424008 -5.2445521e-22)
(0.9270519 -0.007187381 1.3340692e-21)
(0.93423747 -0.0046381713 0)
(0.93982902 -0.0043061153 0)
(0.94538653 -0.0049824378 0)
(0.95144993 -0.0069749423 0)
(0.95891506 -0.0090591473 0)
(0.96760781 -0.010848239 -2.8416771e-24)
(0.97715288 -0.012034836 1.8850045e-21)
(0.98704018 -0.012740539 -6.6475779e-21)
(0.99596638 -0.013160437 8.2777583e-23)
(1.0026777 -0.014184912 -2.3169871e-21)
(1.0077231 -0.01591637 3.4585806e-21)
(1.0126445 -0.017949965 -1.0247176e-21)
(1.0187418 -0.01920755 -2.4635611e-23)
(1.0230069 -0.020482079 8.4091288e-22)
(1.0259014 -0.021686641 -1.6905528e-21)
(1.0288696 -0.022159091 6.8425198e-22)
(1.0318037 -0.021794916 1.5264812e-21)
(1.0344823 -0.020663405 8.7715167e-22)
(1.0366625 -0.018869004 2.3829935e-22)
(1.0382546 -0.016595164 1.2491485e-21)
(1.0391613 -0.014047411 2.6536784e-23)
(1.0394406 -0.011415888 -9.938107e-22)
(1.0391312 -0.0088796604 5.2217981e-22)
(1.0384053 -0.0065783506 2.8246429e-21)
(1.0373557 -0.0045592018 7.0602579e-22)
(1.036239 -0.0029795486 -5.8303651e-22)
(1.0350885 -0.0016074955 3.3117799e-23)
(1.0342959 -0.00089768297 -1.0394409e-21)
(1.0335976 3.3642498e-05 -2.0020898e-22)
(0.91849305 -0.010249645 3.2855431e-21)
(0.92154572 -0.0072037682 -1.0961898e-22)
(0.92864188 -0.0047764336 3.2002437e-21)
(0.93442962 -0.0043576305 3.6079296e-21)
(0.94017307 -0.0050517609 0)
(0.94596755 -0.0072062373 0)
(0.95283145 -0.0094992172 -2.0480639e-23)
(0.96095984 -0.011650339 -9.5993341e-22)
(0.97009667 -0.012872702 3.044512e-21)
(0.97966931 -0.013572383 -5.6248322e-21)
(0.98913876 -0.013805746 -1.9511345e-22)
(0.99703242 -0.014470687 4.1038097e-21)
(1.0030736 -0.016065911 -6.9712724e-22)
(1.0081069 -0.01839341 2.4867554e-22)
(1.0140722 -0.02039734 3.96592e-22)
(1.0205648 -0.021547425 7.2682837e-23)
(1.0245004 -0.022921308 2.2075683e-21)
(1.0277087 -0.023844886 -1.7098002e-22)
(1.0309692 -0.023865019 -1.9559863e-21)
(1.0340709 -0.023027242 5.5571533e-21)
(1.0367259 -0.021406294 -5.5277869e-22)
(1.0387998 -0.019182896 -1.5919468e-21)
(1.0401547 -0.016557978 3.6531151e-21)
(1.0408043 -0.013751053 1.62379e-21)
(1.0407773 -0.0109613 -4.5465389e-22)
(1.0401914 -0.0083450995 1.6463042e-21)
(1.0392014 -0.0060376186 8.2846553e-22)
(1.0379319 -0.0040656507 3.0786588e-22)
(1.0366372 -0.0025626023 -6.521856e-22)
(1.0353486 -0.0013021475 -1.1184307e-22)
(1.0344607 -0.00069971597 -2.6888925e-22)
(1.0336884 8.8297494e-05 -1.1299156e-23)
(0.91370958 -0.01002735 -8.91125e-22)
(0.91594592 -0.0071000779 -8.7902374e-22)
(0.92274207 -0.0048581333 -3.9134891e-21)
(0.92864354 -0.0044177107 -4.1048865e-21)
(0.9348099 -0.0051292322 0)
(0.94067912 -0.0073785057 0)
(0.94718349 -0.0098809292 0)
(0.95470043 -0.012202895 1.7399582e-23)
(0.96340671 -0.013828831 -2.7551414e-21)
(0.97257419 -0.014401766 -3.9099844e-21)
(0.98189865 -0.01444689 -1.8410803e-22)
(0.99046634 -0.014868626 7.8576272e-22)
(0.99752386 -0.016191557 -7.5252523e-21)
(1.0032936 -0.018567834 2.988468e-21)
(1.008838 -0.021291429 -5.237206e-23)
(1.01619 -0.022995281 0)
(1.0224516 -0.024121363 5.010113e-22)
(1.0263164 -0.025434799 -5.6507086e-22)
(1.0298683 -0.025900512 1.1314268e-21)
(1.0333841 -0.025417588 2.7995785e-22)
(1.0365279 -0.024036722 -2.6463971e-21)
(1.0391186 -0.021921806 1.0001884e-22)
(1.0409751 -0.019275253 -2.508248e-21)
(1.0420714 -0.016323401 -3.0772399e-21)
(1.0423954 -0.013298617 1.048282e-21)
(1.0420628 -0.010379194 2.6025483e-22)
(1.0411726 -0.0077256323 -1.7209288e-22)
(1.0399263 -0.0054363666 2.6582591e-23)
(1.0384394 -0.0035354495 -8.318072e-22)
(1.0369739 -0.0021251109 -6.4731288e-22)
(1.0355554 -0.00098746411 1.7423395e-22)
(1.0345787 -0.00049820378 3.6720498e-22)
(1.0337353 0.00013575971 6.3691243e-23)
(0.90802573 -0.0095965659 -8.0693538e-22)
(0.91013791 -0.006892973 1.3613009e-22)
(0.91652991 -0.0048723092 -5.5981438e-21)
(0.92234352 -0.0044235951 -6.0890641e-21)
(0.92902942 -0.0052389065 1.1534633e-21)
(0.93533311 -0.007534673 1.4481841e-23)
(0.94178708 -0.010180545 1.8056052e-21)
(0.94887956 -0.012726296 7.2338437e-23)
(0.95700225 -0.014493278 2.5986296e-22)
(0.9658351 -0.015248827 7.3632954e-21)
(0.97475148 -0.015094302 -4.0350811e-21)
(0.98333568 -0.015256693 -6.4569651e-21)
(0.99110022 -0.016372839 1.3754737e-22)
(0.99771228 -0.018682862 2.811562e-21)
(1.0036596 -0.021667457 1.9865065e-21)
(1.0103611 -0.024469098 -8.293638e-23)
(1.0188446 -0.025683188 1.1726712e-22)
(1.0245163 -0.026921449 1.7037473e-21)
(1.0285088 -0.027875968 -2.9813488e-22)
(1.0324111 -0.027812241 -3.6063405e-22)
(1.0360486 -0.02673674 6.0945148e-22)
(1.0391816 -0.024797619 -4.5154713e-21)
(1.0415857 -0.02218353 4.9932068e-23)
(1.0431905 -0.01913674 1.0809481e-21)
(1.0439484 -0.015898478 -4.1150494e-21)
(1.0439395 -0.012688436 -1.3655185e-21)
(1.0432647 -0.0096880433 -1.2026831e-21)
(1.0420793 -0.0070236153 -4.4838748e-22)
(1.040573 -0.0047848743 -7.0822747e-22)
(1.0388775 -0.0029750669 2.3177356e-23)
(1.0372501 -0.0016719322 -1.9873931e-22)
(1.0357108 -0.00066650132 -6.4222696e-23)
(1.0346522 -0.00029469798 -1.171145e-23)
(1.0337459 0.00018077793 -3.6547202e-22)
(0.90086767 -0.0090736624 6.7879468e-22)
(0.90365679 -0.0065620761 -1.6896029e-22)
(0.91019467 -0.0047350253 5.0542216e-21)
(0.91555991 -0.0043612753 2.4411196e-21)
(0.92251867 -0.0052758534 -3.2047067e-21)
(0.92959415 -0.0077159925 -3.125279e-21)
(0.93643315 -0.010458143 -2.1136517e-22)
(0.94333524 -0.013159663 0)
(0.95099547 -0.015087015 1.0771983e-21)
(0.95932856 -0.015987997 7.7997454e-21)
(0.96788253 -0.015697051 2.9641772e-22)
(0.97613973 -0.015635506 2.2794856e-21)
(0.98405436 -0.016539703 0)
(0.9912763 -0.018755145 -1.5057901e-22)
(0.99794007 -0.021934054 -4.5115675e-21)
(1.0045151 -0.025335493 -2.5940987e-24)
(1.0129467 -0.027651349 2.5234654e-22)
(1.0216421 -0.02856907 0)
(1.0268541 -0.029757519 2.5138559e-24)
(1.0311478 -0.030187203 4.7204675e-22)
(1.0352738 -0.02948441 -4.0345884e-21)
(1.0389651 -0.027787976 4.4971756e-22)
(1.041954 -0.025271999 0)
(1.0441231 -0.022178632 -3.898978e-21)
(1.0453838 -0.018769697 1.3645665e-21)
(1.0457858 -0.015281494 -8.4883122e-23)
(1.0453988 -0.011939379 -1.7073978e-21)
(1.0443879 -0.0088890959 1.3475656e-21)
(1.0428962 -0.0062558523 6.4505457e-23)
(1.0411415 -0.0040901821 -1.6428351e-21)
(1.0392464 -0.0023911284 1.6380238e-21)
(1.0374676 -0.0012076741 6.5874988e-22)
(1.035817 -0.00034220682 0)
(1.0346832 -9.0263879e-05 -1.0176673e-24)
(1.0337223 0.00022157173 -1.7971418e-22)
(0.89173029 -0.0084283362 5.3309556e-22)
(0.8959137 -0.0060751931 -6.5773241e-22)
(0.90322718 -0.0044929012 3.7475548e-21)
(0.90862399 -0.0041442391 4.6749875e-22)
(0.91526487 -0.0052505129 -6.7763549e-22)
(0.92295966 -0.0078117887 -7.2255015e-23)
(0.93075353 -0.010739566 -1.0930522e-21)
(0.93791182 -0.013534801 9.2552918e-23)
(0.94528767 -0.01558912 0)
(0.95311818 -0.016517759 -2.2607693e-21)
(0.96124288 -0.016348853 3.2255844e-21)
(0.96913009 -0.015981725 -3.96381e-22)
(0.97680384 -0.016667157 2.4902835e-21)
(0.98420694 -0.018799239 -3.4893731e-21)
(0.99137045 -0.02207584 -1.9775461e-21)
(0.99850118 -0.025892517 -2.5489059e-21)
(1.006231 -0.029284767 3.5108276e-21)
(1.0165157 -0.030810231 2.0925686e-22)
(1.0245229 -0.031637619 2.6098855e-21)
(1.0296056 -0.032512034 -4.1071415e-21)
(1.0341894 -0.032256645 4.1621234e-21)
(1.0384524 -0.030871656 -2.6264384e-21)
(1.042053 -0.028520142 0)
(1.0448335 -0.025442045 -1.0584747e-21)
(1.0466618 -0.021903659 3.1367754e-22)
(1.0475491 -0.018172102 1.9574464e-21)
(1.0475399 -0.014490692 6.5435487e-22)
(1.0467749 -0.011053794 3.3387626e-22)
(1.0454109 -0.0080037032 9.360299e-22)
(1.0436268 -0.0054265607 0)
(1.0416297 -0.0033618351 1.4366652e-21)
(1.0395475 -0.0017898413 1.8039353e-21)
(1.0376286 -0.0007366627 -1.7348887e-22)
(1.0358768 -1.7020848e-05 -2.6536038e-22)
(1.0346739 0.00011380306 -2.6135995e-23)
(1.0336724 0.00026308157 7.6588505e-22)
(0.88088176 -0.0077076204 -3.9723669e-22)
(0.88623272 -0.0055258437 -5.8318681e-23)
(0.8950188 -0.0041403504 -7.4013192e-22)
(0.90109181 -0.0038304684 2.9307045e-23)
(0.90769277 -0.005070125 6.8926929e-22)
(0.91528351 -0.0078496309 6.6796423e-22)
(0.92409061 -0.010914109 -4.3514189e-23)
(0.93224891 -0.013912512 1.0899494e-22)
(0.93973399 -0.016015341 9.2221053e-23)
(0.94720638 -0.0169854 1.8447333e-21)
(0.95480171 -0.01672212 -4.9706663e-24)
(0.96234556 -0.016363263 -1.914568e-21)
(0.96965144 -0.016766175 -1.7276788e-22)
(0.97684274 -0.018760283 -2.8881423e-21)
(0.98414033 -0.022146087 1.2077165e-20)
(0.99175531 -0.026257897 2.3835114e-22)
(0.99965724 -0.030366765 -2.1489482e-21)
(1.009305 -0.033216097 -5.610465e-22)
(1.0205395 -0.033964568 -1.1704465e-21)
(1.027636 -0.034780404 -7.6563351e-22)
(1.0328038 -0.035028262 2.3650261e-21)
(1.0376243 -0.034026383 -4.513457e-21)
(1.0418628 -0.031908214 3.5119241e-21)
(1.0452925 -0.028908881 0)
(1.0477445 -0.025297229 3.2971592e-21)
(1.0491889 -0.021355447 4.2610312e-21)
(1.0496361 -0.01736063 -1.5768029e-21)
(1.0492081 -0.013529876 3.303822e-21)
(1.0480417 -0.010055064 8.8941381e-23)
(1.0463373 -0.0070354669 -1.0456556e-21)
(1.0442631 -0.0045521786 -1.2612495e-21)
(1.0420389 -0.0026072038 -6.7676178e-23)
(1.0397826 -0.0011771754 -1.0353229e-22)
(1.0377358 -0.00026284164 5.8496932e-23)
(1.0358934 0.00030688686 -3.0458765e-22)
(1.0346273 0.00031680408 -4.8632112e-23)
(1.0335933 0.00031307182 3.5340573e-22)
(0.86954727 -0.0069472283 1.4188547e-24)
(0.87461752 -0.0048965382 2.3755505e-22)
(0.88493518 -0.0036862814 -4.2349285e-22)
(0.892359 -0.0033676997 1.4385305e-22)
(0.89953781 -0.0047607374 -4.9548722e-23)
(0.90703147 -0.0077473834 6.1066236e-23)
(0.91610296 -0.01104999 1.9055457e-22)
(0.92556471 -0.014129617 1.0715575e-23)
(0.93402376 -0.016429828 0)
(0.94146545 -0.017354464 -3.791685e-22)
(0.94863524 -0.017023686 0)
(0.95569953 -0.01660859 0)
(0.96269489 -0.016832633 -2.0972523e-21)
(0.96950472 -0.01864091 3.1141113e-22)
(0.97655184 -0.022106241 1.948224e-21)
(0.98430115 -0.026507645 3.3174552e-21)
(0.99267407 -0.03108106 -4.6171581e-21)
(1.0017943 -0.035155225 -2.5465568e-21)
(1.013773 -0.036888523 -1.6985566e-22)
(1.0246032 -0.037218926 6.0394048e-22)
(1.031101 -0.037766415 -3.800199e-21)
(1.0364762 -0.037229165 1.3102934e-21)
(1.0413626 -0.035413918 8.9656577e-22)
(1.0454769 -0.03256102 1.0225834e-22)
(1.0486006 -0.028934939 1.4241814e-22)
(1.050666 -0.024832243 8.4579505e-22)
(1.0516472 -0.0205482 -6.642482e-22)
(1.0516367 -0.016340485 -2.0571967e-21)
(1.0507592 -0.012423719 -1.9508872e-22)
(1.0492007 -0.0089486548 -3.0720298e-21)
(1.0471548 -0.0060058678 -9.0086041e-22)
(1.0448086 -0.003637702 -3.502255e-22)
(1.0423701 -0.0018348145 -1.6361402e-21)
(1.0399543 -0.00055841319 2.7332222e-23)
(1.0377924 0.00021047021 -2.3806963e-22)
(1.0358703 0.00062792455 6.1876083e-24)
(1.0345479 0.00051670362 -2.9035837e-22)
(1.0334904 0.00036278381 0)