/*--------------------------------*- C++ -*----------------------------------*\
| =========                 |                                                 |
| \\      /  F ield         | OpenFOAM: The Open Source CFD Toolbox           |
|  \\    /   O peration     | Version:  5.0                                   |
|   \\  /    A nd           | Web:      www.OpenFOAM.org                      |
|    \\/     M anipulation  |                                                 |
\*---------------------------------------------------------------------------*/
FoamFile
{
    version     2.0;
    format      ascii;
    class       volSymmTensorField;
    location    "120";
    object      UPrime2Mean;
}
// * * * * * * * * * * * * * * * * * * * * * * * * * * * * * * * * * * * * * //

dimensions      [0 2 -2 0 0 0 0];

internalField   nonuniform List<symmTensor> 
9200
(
(0.0009574786 3.2680068e-05 -1.6487313e-25 2.9451651e-06 -1.1970648e-26 8.8729161e-47)
(0.00099131965 0.00010855313 3.5088147e-23 3.4302496e-05 4.2022267e-24 1.5026105e-42)
(0.000784125 2.9201605e-05 0 3.0633292e-06 0 0)
(0.0010426051 0.00017877955 -1.9461141e-23 9.0537408e-05 -3.7354052e-24 4.3928801e-43)
(0.00080799378 9.6989743e-05 2.7578087e-23 3.6141707e-05 4.002986e-24 1.1241196e-42)
(0.00069461452 2.7181864e-05 0 2.9613977e-06 0 0)
(0.0011237531 0.00025853456 -1.9172839e-24 0.00018639639 -4.7572007e-25 3.9229137e-45)
(0.0008462932 0.00015673232 -2.8702556e-25 9.4299138e-05 -3.612847e-25 3.4819798e-45)
(0.00071686237 8.8671261e-05 0 3.4729843e-05 0 0)
(0.00060077346 2.3311593e-05 0 2.7852629e-06 0 0)
(0.0012280589 0.00034174234 4.5800446e-23 0.00032099702 1.566978e-23 2.0808268e-42)
(0.00090786144 0.00021999543 3.0753001e-23 0.00019186634 1.1961064e-23 1.3766069e-42)
(0.00074906201 0.00014211297 1.4540593e-23 9.007599e-05 4.2619769e-24 3.5804569e-43)
(0.00061851873 7.6000078e-05 7.4729566e-25 3.3034843e-05 1.5475316e-25 1.2104455e-45)
(0.00052529664 2.0493939e-05 7.580822e-27 2.6209068e-06 1.1662462e-27 7.5493989e-49)
(0.0013620402 0.00043316068 4.4662196e-23 0.00051449481 1.7067516e-23 1.7400014e-42)
(0.00098861957 0.00028038051 -1.4359991e-25 0.00032501722 1.1540604e-24 1.0830374e-44)
(0.00080105779 0.00019696582 5.0305623e-23 0.00018190557 2.0973859e-23 4.1221093e-42)
(0.00064707415 0.00012075577 1.7618612e-23 8.5114054e-05 6.6295094e-24 7.2468217e-43)
(0.00054279295 6.590747e-05 5.8175008e-25 3.0926117e-05 3.3024938e-25 5.459777e-45)
(0.00046284333 1.7597473e-05 -2.3373691e-23 2.4246142e-06 -1.8052153e-24 1.9055404e-42)
(0.0015246674 0.00052745909 6.1635473e-23 0.00077832747 3.4816484e-23 3.4018072e-42)
(0.0010960809 0.0003400011 4.3087369e-23 0.00051148113 1.8743196e-23 1.9804362e-42)
(0.00086974045 0.00024683742 -3.0742211e-23 0.00030513573 -1.5523159e-23 1.4125225e-42)
(0.00069495831 0.00016481662 -1.9523876e-24 0.00017068226 -1.1553771e-24 1.0022961e-44)
(0.00056949422 0.0001038774 1.3118543e-23 7.9053356e-05 4.8201716e-24 4.5138037e-43)
(0.00047892066 5.6180871e-05 1.1465895e-23 2.8735952e-05 3.1803258e-24 4.7156402e-43)
(0.00041087597 1.5175359e-05 1.6929246e-24 2.2455788e-06 1.8164679e-25 1.6327694e-44)
(0.0017224331 0.00061988332 4.9037599e-23 0.0011367272 4.6100954e-23 3.2399572e-42)
(0.0012360912 0.00039352929 4.0151429e-23 0.00075930888 2.6524309e-23 1.7632074e-42)
(0.00096211316 0.00029263791 3.8729482e-23 0.00047453663 2.6508606e-23 2.2915926e-42)
(0.00076019524 0.00020275305 1.9664829e-24 0.00028374342 3.6725063e-24 6.6485397e-44)
(0.00061426375 0.00014011176 -3.4120891e-23 0.00015747622 -1.9139929e-23 3.1687566e-42)
(0.00050424582 8.8236401e-05 -1.2835154e-23 7.3155392e-05 -6.0125397e-24 6.1879822e-43)
(0.00042670903 4.7994435e-05 -1.1634367e-23 2.660683e-05 -3.0315892e-24 5.8115945e-43)
(0.00036796082 1.3018157e-05 1.6347208e-23 2.0786395e-06 1.5305789e-24 1.5680006e-42)
(0.0019633355 0.00070333113 -8.9283431e-23 0.001614592 -6.7576056e-23 5.9338789e-42)
(0.0014220335 0.00043722397 4.1367609e-23 0.0010898133 1.2912324e-23 1.3757449e-42)
(0.0010842533 0.00032900385 1.9567057e-24 0.00069453604 7.4484753e-24 1.0913408e-43)
(0.00085119849 0.00023527098 1.5197498e-23 0.00043733945 9.9751538e-24 3.9224002e-43)
(0.00067568669 0.0001700057 2.2210308e-24 0.00025970263 6.9977259e-24 2.8113351e-43)
(0.00054752718 0.00011819283 -4.3691303e-23 0.00014520815 -2.5866861e-23 6.340151e-42)
(0.00045136389 7.5307246e-05 4.7060935e-24 6.7412474e-05 -7.181744e-25 3.2539127e-43)
(0.00038324805 4.0803918e-05 -1.725134e-23 2.4703078e-05 -5.1123838e-24 1.6853314e-42)
(0.00033297505 1.1185424e-05 -2.9871781e-23 1.9297712e-06 -3.1611161e-24 7.0611479e-42)
(0.0022528378 0.00076077608 7.5681531e-23 0.0022366967 8.3907097e-23 5.171397e-42)
(0.0016707431 0.00046363815 -2.2200507e-23 0.0015235516 2.9163868e-23 1.558148e-42)
(0.0012485906 0.00035257088 -1.5214467e-24 0.00098088983 -4.2546757e-24 2.1897412e-44)
(0.00097491758 0.00025844793 -9.8552114e-25 0.00063492775 -2.1862737e-23 1.098209e-42)
(0.00076221785 0.0001940807 -4.8257449e-24 0.00039718136 -5.3434431e-24 8.3713753e-44)
(0.00060783708 0.00014255967 1.2795082e-24 0.00023814614 9.7708733e-24 6.5378078e-43)
(0.00049337471 0.00010048167 1.3115146e-23 0.00013338017 8.6921876e-24 7.436991e-43)
(0.00040720943 6.4125192e-05 1.9061356e-23 6.2409283e-05 9.7296089e-24 2.0646961e-42)
(0.00034789588 3.4721402e-05 8.9409557e-24 2.2997708e-05 3.5490475e-24 6.6610317e-43)
(0.00030388361 9.5626967e-06 1.9092764e-24 1.7994913e-06 2.6691454e-25 4.5185155e-44)
(0.0025957416 0.00077675604 -3.8764274e-23 0.0030324471 -3.9074794e-23 9.9255009e-43)
(0.0020017703 0.00045911409 -8.426677e-24 0.002087031 5.6060444e-23 2.0457335e-42)
(0.0014722242 0.00035769672 3.6304056e-23 0.001348436 1.2122754e-23 1.0302661e-42)
(0.0011453529 0.00027019373 -2.5056751e-23 0.00089101418 -2.8278355e-23 1.1963308e-42)
(0.00088108613 0.00020926565 2.6966015e-23 0.00057200815 -8.9679687e-25 1.4848199e-42)
(0.00069353973 0.00016184571 -4.7122647e-23 0.00036233889 -2.8729817e-23 5.1074956e-42)
(0.00055185334 0.00012092764 -1.0735344e-25 0.00021778589 2.6612783e-24 5.9478775e-44)
(0.00044805232 8.5480131e-05 3.1324752e-23 0.00012336821 1.8573594e-23 4.8198568e-42)
(0.00037116581 5.4788643e-05 -1.3018641e-23 5.7954966e-05 -6.6847413e-24 1.2194168e-42)
(0.0003183749 2.9330952e-05 2.2988138e-23 2.1549581e-05 9.682959e-24 5.7782868e-42)
(0.00028046835 8.1647209e-06 -3.0512276e-24 1.682666e-06 -3.9973996e-25 1.446153e-43)
(0.0030149326 0.00080866291 1.5646576e-23 0.0040729439 -6.2321064e-24 1.7027154e-43)
(0.0024293388 0.00040685757 4.7701611e-23 0.0028160809 -1.1740771e-22 7.7353632e-42)
(0.0017776193 0.00033716544 -2.8907917e-23 0.0018224988 -5.3405512e-23 1.8693088e-42)
(0.0013813187 0.00026672963 0 0.0012198187 0 0)
(0.0010457288 0.00021427163 -5.9289199e-27 0.00079710736 1.9690844e-24 6.1283333e-45)
(0.00081164086 0.00017414922 4.2857115e-24 0.0005193518 -1.783343e-23 1.0314936e-42)
(0.00063465571 0.00013715107 -8.6305722e-24 0.00033024588 -5.4851163e-24 2.0880467e-43)
(0.00050491418 0.00010320523 -1.6808845e-23 0.0002009792 -1.1229245e-23 1.2047519e-42)
(0.00041064011 7.3121568e-05 3.0761802e-25 0.0001145234 -4.739643e-24 4.2178767e-43)
(0.00034087257 4.6536826e-05 -1.3991053e-23 5.4220714e-05 -8.5430049e-24 1.9745885e-42)
(0.00029453678 2.4664829e-05 -7.8205039e-24 2.0261617e-05 -3.6755055e-24 9.4204788e-43)
(0.00026123345 6.9062956e-06 1.3735613e-24 1.5791336e-06 2.5175363e-25 4.9282636e-44)
(0.003435221 0.00086250222 9.1241176e-24 0.005382984 3.478684e-24 2.6698558e-44)
(0.0029703425 0.00031769761 -7.5818894e-23 0.0037725914 4.4311132e-23 3.1334269e-42)
(0.0021792622 0.00027326951 0 0.002432013 0 0)
(0.0017091271 0.00024390902 0 0.0016446555 0 0)
(0.0012736485 0.00020680963 -1.9159828e-23 0.0010853846 9.2277446e-25 4.0686257e-43)
(0.00097493577 0.00017918519 2.7350747e-23 0.00072116339 -2.53693e-23 3.1012066e-42)
(0.00074823627 0.00014798563 -2.6210775e-23 0.00047192196 -4.7753971e-25 1.7720164e-42)
(0.00058538163 0.00011782794 2.0186454e-23 0.00030421004 1.7250576e-23 1.5908258e-42)
(0.0004652521 8.8786798e-05 1.2580993e-24 0.00018630338 1.6848185e-24 1.6505634e-44)
(0.00037890192 6.2182089e-05 -7.3838996e-27 0.0001072333 4.7906516e-26 5.0243148e-47)
(0.00031619426 3.941154e-05 1.4326191e-23 5.0924133e-05 9.2342075e-24 2.8600781e-42)
(0.00027488471 2.0416543e-05 -1.2625019e-23 1.9149451e-05 -6.2897552e-24 3.6541342e-42)
(0.00024603577 5.8103986e-06 1.869372e-23 1.4834024e-06 3.8042097e-24 1.381676e-41)
(0.0034829483 0.00064558285 -1.5280188e-22 0.0067546806 -3.4848173e-23 7.5576037e-42)
(0.0036296638 0.00025708348 1.8960512e-23 0.0050462268 -4.6823517e-24 1.2211903e-43)
(0.0026775649 0.00015591794 -1.0372644e-22 0.0032212681 1.6341851e-23 4.7855814e-42)
(0.0021511696 0.00018959032 6.835703e-23 0.0021961303 -1.5949208e-23 2.8917521e-42)
(0.001590157 0.0001855007 -3.8889732e-23 0.0014594642 9.9341757e-24 1.4008353e-42)
(0.0011996737 0.00017563181 1.3132057e-23 0.0009801305 -1.2042728e-23 4.6282677e-43)
(0.00090476112 0.00015346372 7.4447094e-24 0.00065402245 7.3903792e-24 1.322982e-43)
(0.000695099 0.00012884629 -5.1974521e-25 0.00043405242 7.7181215e-25 3.5697798e-45)
(0.00054195152 0.00010214383 1.4646666e-23 0.00028181457 2.1675313e-23 1.8507767e-42)
(0.00043118057 7.6022492e-05 1.0590327e-23 0.00017441928 1.6298694e-23 1.6333544e-42)
(0.00035262702 5.2711794e-05 4.0248904e-24 0.00010084044 3.6755838e-24 2.0526044e-43)
(0.0002957024 3.2874853e-05 8.5363296e-24 4.8102985e-05 7.7184081e-24 1.657304e-42)
(0.00025930122 1.6668852e-05 4.4158529e-24 1.812331e-05 3.3158653e-24 7.8600182e-43)
(0.00023392527 4.8229897e-06 -3.8220601e-24 1.3943901e-06 -1.0328056e-24 1.078934e-42)
(0.0030006786 -4.2268379e-05 1.466426e-22 0.0079802452 -3.8877787e-22 3.077235e-41)
(0.0041888028 0.00015849835 8.0223444e-22 0.0066562945 -1.6971515e-22 1.7790478e-40)
(0.0032942739 2.9877282e-05 1.8320758e-23 0.0042527157 -5.5700351e-23 9.2031263e-43)
(0.0027058375 8.2319449e-05 -1.3544834e-23 0.0029141251 8.0004664e-24 1.0386034e-43)
(0.0020236189 0.00014420053 6.5448997e-24 0.0019501005 -5.2667196e-24 4.4075877e-44)
(0.0015100961 0.0001633184 -2.7612531e-23 0.0013180028 2.0218967e-23 1.1361674e-42)
(0.001118792 0.0001530736 8.6835159e-24 0.00088817314 8.9413909e-24 1.479022e-43)
(0.00084473901 0.0001364961 -8.3599209e-24 0.0006010547 -9.4086084e-24 2.1396818e-43)
(0.00064565434 0.00011309118 3.2449205e-24 0.00040186615 -4.0755914e-24 1.2680764e-43)
(0.00050427118 8.834494e-05 -8.2898343e-25 0.00026389728 -2.526724e-24 2.5590034e-44)
(0.00040228963 6.489429e-05 -2.6785815e-25 0.00016409518 -2.7766381e-25 7.5769254e-46)
(0.00033057872 4.3881386e-05 1.7043724e-25 9.5430087e-05 -2.0228887e-24 8.3723815e-44)
(0.0002792988 2.7079925e-05 -9.5281239e-24 4.5514977e-05 -9.7744783e-24 3.160964e-42)
(0.000246867 1.3226303e-05 3.5153966e-24 1.7182777e-05 3.1003452e-24 8.5195197e-43)
(0.00022469852 3.9693626e-06 -2.0643264e-24 1.3087539e-06 -7.6753094e-25 6.6729497e-43)
(0.0023370839 -0.0010302594 1.7815233e-22 0.0089602661 1.7417465e-22 2.7442547e-41)
(0.0041425885 -0.00023893677 -5.2764997e-22 0.0083448904 -6.972442e-23 7.5444445e-41)
(0.003989835 -2.6245707e-05 2.6485225e-22 0.0056474248 -4.797948e-23 1.9211903e-41)
(0.0033612734 -6.3764463e-05 -1.8607615e-22 0.0038547255 6.8857921e-24 1.1274018e-41)
(0.0025779511 5.9346201e-05 1.0709736e-22 0.0025968184 -7.1306443e-24 5.0693376e-42)
(0.0019360991 0.00013946174 -8.6332472e-23 0.001765586 -3.1600248e-23 4.9421377e-42)
(0.0014123464 0.00014696995 8.0229443e-23 0.0011949904 -1.1422549e-23 6.3463019e-42)
(0.0010475761 0.00014064105 -3.1085774e-24 0.00081608112 2.264032e-24 2.5560137e-44)
(0.00078645627 0.00012210594 -6.9663771e-24 0.00055627627 -5.0620489e-24 1.2258153e-43)
(0.00060231594 9.9429312e-05 8.5756798e-24 0.00037633202 -9.6915747e-24 8.9609038e-43)
(0.00047119329 7.6032114e-05 -3.3867286e-23 0.00024846987 -3.7046843e-23 9.453365e-42)
(0.00037772812 5.4283269e-05 9.4970659e-24 0.00015547463 5.8202355e-24 1.2051782e-42)
(0.00031266298 3.5956279e-05 3.4549468e-24 9.0476765e-05 4.3561538e-24 3.4417467e-43)
(0.00026615081 2.1685905e-05 7.5908782e-25 4.3158395e-05 1.6163091e-24 6.5968651e-44)
(0.00023737851 1.0193314e-05 -1.4103175e-25 1.62702e-05 2.7134771e-25 1.2991887e-44)
(0.00021769289 3.2213938e-06 1.2505107e-24 1.2258362e-06 8.3967956e-25 8.4707509e-43)
(0.0018387299 -0.0021054855 0 0.0096550557 0 0)
(0.0037088197 -0.00094390986 -7.4364964e-22 0.0099499208 7.3890577e-23 1.663443e-40)
(0.0042336646 -0.00020627789 -1.168084e-23 0.0072969714 1.7599211e-22 4.9860393e-42)
(0.0040942303 -0.00014893154 0 0.0051367381 0 0)
(0.0032243277 -8.5516641e-05 0 0.0034533492 0 0)
(0.0024920199 8.4163008e-05 0 0.0023641735 0 0)
(0.0018152318 0.00013491191 -1.1571472e-23 0.0016042654 7.6924412e-24 1.3723331e-43)
(0.0013234538 0.00014145351 2.8097011e-23 0.0010984162 2.2705386e-23 1.1035709e-42)
(0.00097623586 0.00012929039 -3.6173161e-23 0.00075514557 2.382878e-23 3.6553163e-42)
(0.00073408432 0.00010962397 1.66003e-23 0.00052091003 1.6147211e-23 9.6489326e-43)
(0.00056280468 8.6559108e-05 -2.7059237e-24 0.00035450143 2.9511172e-24 9.8842635e-44)
(0.00044269812 6.3942846e-05 5.8577524e-24 0.00023572907 8.43133e-24 4.4443272e-43)
(0.00035735772 4.457172e-05 -7.826768e-25 0.00014762689 8.6967058e-26 1.5990747e-44)
(0.00029821152 2.8417668e-05 -2.8605918e-24 8.598901e-05 -5.1468318e-24 4.5391598e-43)
(0.0002560429 1.6904152e-05 -1.9511834e-25 4.0877132e-05 -1.122524e-24 3.3091828e-44)
(0.00023021115 7.4668731e-06 -6.2929534e-25 1.538246e-05 -1.5145816e-24 2.1640034e-43)
(0.00021269636 2.5946753e-06 0 1.1446564e-06 0 0)
(0.0018183848 -0.0030746722 1.213424e-22 0.010109415 -1.4887932e-22 4.1654987e-41)
(0.0030766449 -0.001845962 8.9985941e-22 0.011355777 1.5550507e-22 3.5820239e-40)
(0.0039583825 -0.00069389815 -1.3913739e-21 0.0089630249 6.9119339e-23 5.3060578e-40)
(0.0045295753 -0.00023185427 -6.5035856e-22 0.0067916621 1.2174255e-22 9.9963505e-41)
(0.0039545217 -0.00020740622 -4.2828147e-22 0.0046245882 3.3684287e-23 4.8538571e-41)
(0.0031429298 -4.332382e-05 0 0.00316158 0 0)
(0.0023525874 0.00010428921 -1.7345612e-22 0.0021584352 4.0355787e-23 1.53525e-41)
(0.0017003283 0.00013912936 3.406332e-23 0.0014756697 -1.82539e-23 1.1648811e-42)
(0.0012325824 0.00013462963 9.1059146e-23 0.0010162733 6.338877e-24 9.3708328e-42)
(0.00091028037 0.00011914729 -4.0602941e-23 0.00070680647 2.5062206e-23 5.1304319e-42)
(0.0006852378 9.6983915e-05 -8.3521245e-24 0.00049072371 -9.9336241e-24 3.379592e-43)
(0.00052840297 7.3567555e-05 -2.9173599e-24 0.0003366072 3.267874e-24 1.3530887e-43)
(0.00041847146 5.2548112e-05 1.265778e-23 0.00022418788 1.4446559e-23 2.3164477e-42)
(0.00034076438 3.5070836e-05 -1.0427704e-23 0.00014057686 -2.2217242e-23 5.0251446e-42)
(0.00028698285 2.1644747e-05 -4.5546899e-25 8.162706e-05 -4.922384e-24 3.1870623e-43)
(0.0002484367 1.2542721e-05 -4.8594468e-24 3.866441e-05 -1.664807e-23 1.0866567e-41)
(0.00022513735 5.1252094e-06 -1.9268424e-25 1.4494747e-05 -4.0835083e-24 1.5758256e-42)
(0.00020917904 2.0769125e-06 7.25623e-25 1.0653362e-06 -9.8722237e-25 1.4032989e-42)
(0.0024687326 -0.0037612583 4.6568402e-24 0.010299397 -4.6969835e-24 2.364735e-43)
(0.0025012712 -0.0028818717 3.9202953e-22 0.012442346 -1.1214229e-22 1.0645541e-40)
(0.0033936025 -0.0013845506 1.4031166e-22 0.010579846 1.5787262e-22 1.1392791e-41)
(0.0044092054 -0.00058798941 -7.5042522e-22 0.0085429146 -2.5464067e-23 1.3805369e-40)
(0.0044988145 -0.00026676734 7.8581066e-23 0.0062163766 -6.6882797e-24 1.4374036e-42)
(0.0038577434 -0.00020864076 -4.502903e-23 0.0042434614 -1.3229532e-22 5.6497456e-42)
(0.0030000967 6.6474986e-06 3.475706e-22 0.0029027833 -1.7537015e-22 5.4786032e-41)
(0.0022112808 0.00012773048 3.1114532e-22 0.0019896712 -6.6263618e-23 5.3250578e-41)
(0.0015808652 0.0001384288 6.4383338e-23 0.0013650206 -1.8200356e-23 3.8052844e-42)
(0.001146803 0.00012811753 -1.9557192e-23 0.00095031689 -3.086106e-23 1.3462731e-42)
(0.00084799151 0.00010759573 8.175618e-24 0.00066547387 -4.9618045e-24 2.4355103e-43)
(0.00064189383 8.3532854e-05 -1.9908706e-23 0.00046607401 -2.232903e-23 2.191022e-42)
(0.00049834575 6.0679698e-05 1.0478476e-23 0.00032048779 3.396294e-24 9.605684e-43)
(0.00039852089 4.1013408e-05 -5.0703551e-25 0.00021389881 2.1785636e-24 3.7288684e-44)
(0.00032766853 2.6361206e-05 -3.7082791e-25 0.00013371662 2.772875e-24 7.7091345e-44)
(0.00027857861 1.5330594e-05 9.117417e-25 7.738895e-05 3.7845113e-24 2.8823091e-43)
(0.00024305124 8.7805412e-06 -4.1306513e-25 3.6449255e-05 -5.4764804e-24 1.2557439e-42)
(0.00022163145 3.1306338e-06 9.2701803e-26 1.3606832e-05 7.6973695e-26 4.9252908e-45)
(0.00020693804 1.6711486e-06 1.5085027e-24 9.8811605e-07 -8.7115785e-25 1.2532659e-42)
(0.0038562522 -0.0041652526 6.2383847e-23 0.010277126 -5.0426017e-24 6.5968999e-42)
(0.0023620072 -0.0037855313 -2.1152337e-22 0.01322629 6.1537834e-23 9.8503187e-41)
(0.0027544396 -0.002251514 1.8797835e-21 0.011981197 2.0171485e-22 2.0590498e-39)
(0.0039403289 -0.0011500574 3.8329481e-22 0.010295805 -1.3620546e-22 4.2535088e-41)
(0.0045325524 -0.00050866142 -2.140641e-22 0.0080236292 -1.525969e-22 1.4829464e-41)
(0.0044650489 -0.00030457238 -2.1298065e-23 0.0057600798 -9.6021813e-23 2.0550323e-42)
(0.0036993353 -0.00018485154 -8.4702242e-23 0.0039035832 1.1658291e-23 2.041918e-42)
(0.0028524471 6.5046412e-05 -1.2330886e-22 0.002687938 -6.7313549e-23 7.5576149e-42)
(0.0020565224 0.0001390797 4.1896032e-23 0.0018403086 -8.6827161e-24 1.0735456e-42)
(0.0014664013 0.00013647967 1.4747598e-22 0.0012741819 -4.5203144e-24 2.0052047e-41)
(0.0010653299 0.00011855875 -4.572465e-23 0.0008935556 -4.4295425e-23 4.659566e-42)
(0.00079159038 9.4199389e-05 -1.416605e-24 0.00063164412 9.9466585e-24 2.0246673e-43)
(0.0006034053 6.9322813e-05 5.033565e-24 0.00044396848 1.2513025e-23 4.2511069e-43)
(0.00047330944 4.7143795e-05 -1.637573e-25 0.00030623329 -9.4044869e-25 3.1098186e-45)
(0.00038249432 3.0159806e-05 -1.0830711e-24 0.00020387868 2.1434732e-24 6.3248406e-44)
(0.00031786677 1.8027218e-05 4.162814e-24 0.00012705815 1.6474141e-23 3.5853653e-42)
(0.00027260866 9.8333791e-06 -1.0758064e-24 7.3111623e-05 -2.3022851e-24 3.0630093e-43)
(0.0002394122 5.5344138e-06 -1.5457525e-24 3.4232986e-05 9.0672782e-24 3.4643696e-42)
(0.00021948827 1.5169143e-06 -8.3905364e-25 1.2715437e-05 1.4308902e-24 2.2366034e-43)
(0.00020557525 1.3702645e-06 -2.4556208e-24 9.1284544e-07 8.6129637e-25 1.3685175e-42)
(0.0058886066 -0.0042753475 -2.9769068e-24 0.010010584 9.5777182e-23 1.8766962e-42)
(0.0028550241 -0.0044553741 -1.2637994e-22 0.013732654 3.2356779e-22 1.5898541e-40)
(0.002413886 -0.0031594914 -2.4354748e-22 0.013082114 6.5201719e-22 5.5285982e-41)
(0.003244935 -0.0019170143 -5.5837929e-22 0.011923699 -3.0240349e-23 1.324562e-40)
(0.0041695258 -0.00096692003 1.3139666e-22 0.0098779683 -2.9698794e-22 1.4297124e-41)
(0.0046256203 -0.00049384694 4.3008856e-22 0.0076019683 4.1878782e-23 4.3196999e-41)
(0.0043557145 -0.00035334334 -9.1728108e-22 0.0053196836 6.6582963e-23 2.0161553e-40)
(0.0035540091 -0.00012511868 -1.1131056e-21 0.0036154094 1.3924764e-22 3.703473e-40)
(0.0026777227 0.00010808896 5.323808e-23 0.0024932439 1.2006007e-22 7.7753856e-42)
(0.0019032944 0.00014438029 0 0.0017134833 0 0)
(0.0013573504 0.00012965056 4.0960912e-23 0.0011953524 3.9714888e-23 2.7914025e-42)
(0.00099036226 0.00010582631 -3.2882624e-23 0.00084662959 1.5535156e-23 2.8064386e-42)
(0.00074101446 7.8953717e-05 -2.973006e-23 0.00060143029 -2.1688941e-23 3.4515831e-42)
(0.00057083779 5.3792011e-05 1.8180962e-23 0.00042456187 5.967858e-24 2.4824328e-42)
(0.00045279572 3.3968142e-05 -2.7189022e-24 0.00029237609 -1.0915406e-23 5.1707413e-43)
(0.00037043982 1.9472131e-05 4.1869843e-24 0.00019416587 1.7149327e-23 2.4668905e-42)
(0.00031084993 1.0657339e-05 -1.2524018e-24 0.00012029339 2.5764031e-24 1.1425442e-43)
(0.00026874087 4.9913777e-06 2.4825394e-27 6.8804397e-05 -4.0243808e-24 4.6886585e-43)
(0.00023727629 2.9009681e-06 -1.6497536e-24 3.2003116e-05 5.0816015e-24 1.3214654e-42)
(0.00021828002 2.7098879e-07 -3.6634232e-25 1.1825495e-05 3.1263675e-25 9.7260152e-45)
(0.00020487539 1.1711175e-06 -2.9317721e-24 8.4024213e-07 7.5510407e-25 1.2213928e-42)
(0.0085212344 -0.0041488111 5.3064517e-23 0.0095287611 2.4841237e-22 2.2191306e-41)
(0.0040410881 -0.0048883153 -2.2414248e-23 0.013929718 3.1880573e-22 3.6300326e-41)
(0.0026614606 -0.0039953965 -1.4055858e-22 0.013880362 -4.7613107e-23 2.2053219e-40)
(0.0026622967 -0.0027750638 6.277439e-22 0.013287884 3.866177e-22 4.0303748e-40)
(0.0035284313 -0.0016307806 7.9498583e-22 0.011680963 -2.100638e-23 2.3109625e-40)
(0.0043720048 -0.00088432007 -6.4066275e-23 0.0095487038 -2.0944042e-22 6.8833861e-42)
(0.0046358746 -0.00053776437 0 0.0071515707 0 0)
(0.0042529767 -0.00037596032 -2.1083685e-23 0.0049145575 -2.7925822e-22 1.9344793e-41)
(0.0033866359 -4.7393912e-05 2.5319533e-22 0.0033591278 -1.0692399e-22 2.4576247e-41)
(0.0024915058 0.0001374326 3.1474279e-22 0.0023198125 7.1270882e-23 4.5393202e-41)
(0.001754919 0.00014114593 -6.3302107e-24 0.0016019394 3.764437e-23 1.1599389e-42)
(0.0012560943 0.00011820025 -2.7885012e-23 0.0011292287 5.8378297e-24 1.1135728e-42)
(0.00092256182 8.9872957e-05 5.095308e-24 0.00080486535 -2.6352952e-24 8.4821121e-44)
(0.00069741991 6.1391973e-05 6.1301277e-24 0.00057503332 1.2603645e-23 4.0797492e-43)
(0.00054369736 3.8011281e-05 -9.096307e-24 0.00040579106 -9.8110689e-24 1.0073315e-42)
(0.00043719582 2.0596031e-05 4.5847994e-24 0.00027899506 8.5908492e-24 8.0119482e-43)
(0.00036170714 9.8287163e-06 -1.7822889e-25 0.00018423717 -2.2682525e-24 4.1891123e-44)
(0.00030646377 4.0063203e-06 -7.0252874e-25 0.00011344498 1.0672859e-23 1.57661e-42)
(0.00026657767 1.0427125e-06 -1.2206972e-24 6.4434621e-05 2.102981e-24 8.61169e-44)
(0.00023619113 8.5115182e-07 -2.5233809e-25 2.9773201e-05 2.5442705e-25 3.002978e-45)
(0.00021779265 -6.0627771e-07 -1.7850668e-24 1.0944111e-05 1.6247729e-24 3.9434706e-43)
(0.00020456829 1.0659143e-06 0 7.7088497e-07 0 0)
(0.011497587 -0.0038516288 1.241322e-22 0.00901767 2.3793825e-22 1.92701e-41)
(0.0058439811 -0.00510857 2.6482145e-23 0.013782675 -1.6023935e-22 5.8325506e-42)
(0.0035777022 -0.0046434184 3.2947827e-23 0.014347149 -1.252282e-22 1.3849597e-42)
(0.002571829 -0.0036174972 3.5902816e-22 0.014354527 -1.5729427e-22 3.2793165e-40)
(0.0028815114 -0.0024559408 4.929369e-22 0.013271473 -3.6992786e-22 1.3823215e-40)
(0.003810242 -0.0014755232 -4.0442727e-22 0.011497906 -7.5692008e-23 5.6076789e-41)
(0.0044808502 -0.00089151538 2.3745555e-23 0.0091757452 5.9887683e-22 4.6830892e-41)
(0.0046427317 -0.0006179953 -1.0694441e-21 0.0066851025 -1.1572971e-22 2.6921683e-40)
(0.0041047884 -0.00035840189 -1.9250793e-22 0.0045335403 -8.3944154e-23 1.1629332e-41)
(0.0032050908 3.6692534e-05 -4.655773e-23 0.00313508 7.9173727e-24 7.7130234e-43)
(0.002299088 0.00014832393 6.7029294e-24 0.0021609195 -2.4514202e-24 2.8820229e-44)
(0.001615837 0.0001313194 9.5972964e-23 0.0015069423 -2.5716736e-23 9.273171e-42)
(0.0011640168 0.00010195699 -4.4019676e-24 0.001070497 -4.9555487e-24 4.7298332e-44)
(0.0008632252 7.0358764e-05 -2.1204448e-23 0.00076848057 4.147035e-23 4.808329e-42)
(0.00066066228 4.2761655e-05 9.7388867e-24 0.00054971313 3.2071196e-23 2.4591041e-42)
(0.00052268896 2.1527555e-05 7.0905817e-24 0.00038778326 2.2840169e-23 2.2554165e-42)
(0.0004257135 8.2232007e-06 1.0434841e-24 0.00026526227 -3.1965993e-24 5.5260982e-44)
(0.00035634926 9.0631305e-07 6.2592822e-25 0.00017413742 -2.3245104e-23 4.9795403e-42)
(0.00030407534 -1.4749951e-06 -1.3339455e-25 0.00010643936 -5.0012174e-25 1.3571148e-44)
(0.00026571963 -2.0841398e-06 -1.8125437e-24 6.0031292e-05 4.3266793e-24 4.9712453e-43)
(0.00023593723 -5.9194186e-07 0 2.7560797e-05 0 0)
(0.00021772355 -1.1332627e-06 4.6255969e-24 1.0080351e-05 -3.3651897e-24 1.9428927e-42)
(0.00020446156 1.0471921e-06 1.4481827e-25 7.0551233e-07 -1.4922321e-26 5.2104167e-46)
(0.014434959 -0.0034224097 -7.5574465e-22 0.0085107423 -3.4233831e-22 1.6481089e-40)
(0.0081779129 -0.0051893064 2.136351e-22 0.013463117 2.3491586e-22 1.2631334e-40)
(0.0050865266 -0.0050879879 1.2572503e-22 0.01449554 -1.1348629e-22 2.3989592e-41)
(0.0031585036 -0.0043549056 9.3797167e-23 0.015081748 -3.6156686e-22 3.3321462e-41)
(0.0026098533 -0.0033233414 3.6695407e-22 0.014584649 3.1874263e-22 3.3522646e-40)
(0.0031414684 -0.002264887 0 0.013295288 0 0)
(0.0040297126 -0.0014288484 -8.6723883e-24 0.011246124 1.8284887e-22 3.4922434e-42)
(0.0045980319 -0.00097191095 -3.6370905e-22 0.008758285 -3.6046662e-22 5.3525636e-41)
(0.004629486 -0.00069877489 -7.3731447e-22 0.0061876717 8.0140215e-24 1.2701203e-40)
(0.0039524857 -0.00027568156 -7.4225566e-22 0.0041958281 1.9287219e-22 1.5914624e-40)
(0.0029986192 9.9663537e-05 1.6911186e-22 0.0029267745 8.5889367e-23 1.259801e-41)
(0.0021104992 0.00014500708 1.1262442e-22 0.0020215264 1.230313e-23 7.4166891e-42)
(0.0014889809 0.00011509661 -7.6406519e-23 0.0014227115 -1.544393e-23 5.9598678e-42)
(0.0010823941 8.0767044e-05 3.2222497e-23 0.0010193296 3.4511993e-23 2.8705815e-42)
(0.00081265346 4.8682905e-05 -3.2232407e-23 0.00073401742 -4.0275493e-23 5.8785225e-42)
(0.00063157623 2.2720583e-05 -1.5274027e-23 0.00052565272 -5.9417939e-23 9.5654465e-42)
(0.00050694735 5.8287946e-06 9.4430673e-24 0.00036930472 8.2355729e-26 1.5300994e-42)
(0.00041861787 -3.5135709e-06 -1.8356348e-25 0.00025125894 -1.1078035e-23 8.0195889e-43)
(0.00035346877 -6.5621099e-06 -2.2815725e-24 0.0001637184 2.4498114e-23 7.0269837e-42)
(0.00030346125 -5.9274071e-06 1.5575228e-26 9.9320837e-05 -4.0878441e-24 6.9834059e-43)
(0.00026586236 -4.2931464e-06 4.6266031e-24 5.5630697e-05 -8.5477073e-24 2.3197089e-42)
(0.00023615675 -1.4570211e-06 -4.3632334e-24 2.5389595e-05 4.9943875e-24 1.9280865e-42)
(0.00021787194 -1.330281e-06 2.9278991e-24 9.2443995e-06 -1.9309702e-24 8.5180219e-43)
(0.00020438205 1.1061046e-06 1.2742497e-25 6.4481076e-07 -1.0613508e-26 3.2407169e-46)
(0.017099522 -0.0029330669 -3.9313242e-22 0.0080186121 -3.9425957e-22 5.6340373e-41)
(0.010779867 -0.0051669755 5.5120618e-22 0.01302692 6.6525402e-23 1.9510754e-40)
(0.0070850044 -0.0053497658 1.3168057e-22 0.014376401 -6.391808e-22 3.6131534e-41)
(0.0043664556 -0.0049134982 -3.3234097e-22 0.015483727 -1.0141503e-22 2.3410493e-40)
(0.0029553605 -0.0041385111 6.5030008e-23 0.015582743 -4.4615126e-22 7.8858473e-41)
(0.0027331326 -0.0031382768 5.3828033e-22 0.014835865 4.3875772e-22 4.709748e-40)
(0.003403606 -0.002183601 -2.6345712e-23 0.013234534 2.1714298e-22 4.1357746e-42)
(0.0042677426 -0.001487056 1.3529749e-21 0.010932554 2.9661719e-22 5.5925226e-40)
(0.0047359239 -0.001083581 -1.5595244e-22 0.0082611331 -3.2488808e-22 2.2595508e-41)
(0.0046153509 -0.0007238977 -3.6774086e-22 0.0056905241 -4.6641534e-23 3.2951782e-41)
(0.0037750327 -0.00015427939 9.1838689e-23 0.0039069746 1.6141036e-22 1.0225195e-41)
(0.0027738682 0.00013395292 -3.3027116e-22 0.0027333273 1.1899047e-23 4.6432647e-41)
(0.0019339092 0.00012968883 4.9346431e-23 0.0018974657 4.1237059e-23 2.4028445e-42)
(0.0013756772 9.2374491e-05 7.1428352e-24 0.001349088 -2.2451583e-24 7.7630372e-44)
(0.0010120763 5.5946749e-05 -8.0305799e-24 0.00097153157 -5.0025115e-23 3.0734452e-42)
(0.00077168582 2.4647988e-05 -4.67531e-24 0.00070164611 -4.0988359e-24 1.3704406e-43)
(0.00060937351 3.0230522e-06 2.4305512e-24 0.00050111246 2.7354664e-25 6.4481347e-44)
(0.00049693497 -9.4162748e-06 -1.4366031e-24 0.00035047952 -2.1460156e-23 2.2049794e-42)
(0.00041476079 -1.3552644e-05 0 0.0002367013 0 0)
(0.00035305291 -1.2785339e-05 1.0889507e-24 0.00015304304 -2.763543e-24 6.5013364e-44)
(0.00030405046 -9.1038831e-06 3.3740511e-25 9.2157e-05 -5.8516263e-25 5.0934097e-45)
(0.00026659388 -5.6328643e-06 -6.4286724e-25 5.1281398e-05 7.8297228e-25 1.7457756e-44)
(0.00023663717 -1.7689281e-06 -3.3390245e-25 2.3286365e-05 6.4707565e-26 8.3629891e-45)
(0.00021804258 -1.2268271e-06 -5.0899155e-24 8.4457488e-06 2.6912097e-24 1.745485e-42)
(0.00020419834 1.2346479e-06 -2.3219709e-24 5.9028659e-07 3.0172434e-25 4.3683967e-43)
(0.01938827 -0.0024578858 1.0202789e-21 0.0075580126 3.5421663e-22 1.6510741e-40)
(0.013407363 -0.0050345937 -4.8619335e-22 0.012503451 1.8802941e-23 8.3287211e-41)
(0.0094129281 -0.0055224869 -9.9783045e-23 0.014175894 8.7182844e-23 1.1778539e-41)
(0.006088592 -0.0052842487 3.9081219e-23 0.015562931 1.1347017e-23 1.9724005e-42)
(0.0039259349 -0.004811314 3.549988e-22 0.016245092 -9.8797846e-23 2.8343335e-40)
(0.0028694012 -0.0040045855 -1.2292703e-22 0.016087198 4.4874966e-22 2.1889505e-41)
(0.0029310195 -0.0030692141 -4.8808577e-23 0.015000783 2.7221373e-22 5.6965159e-42)
(0.0037265261 -0.0022189836 -7.0358181e-23 0.013088848 -3.7566138e-23 2.3800605e-42)
(0.0045265473 -0.0016079624 -1.0335232e-21 0.010513065 -2.1330811e-22 3.1140067e-40)
(0.004900086 -0.0011866487 -6.7008116e-23 0.0076950891 3.405323e-22 1.7786312e-41)
(0.004550665 -0.00066314271 -3.9381637e-22 0.005227746 -1.1688121e-22 4.1706346e-41)
(0.0035636194 -2.9000376e-05 6.5888655e-23 0.0036628535 -8.1256895e-24 1.4081895e-42)
(0.0025445946 0.00013800794 1.4244578e-22 0.0025516482 -7.7969497e-24 1.0104769e-41)
(0.0017743002 0.00010517186 -7.3051029e-24 0.0017889534 -2.2312453e-23 3.5959307e-43)
(0.0012771153 6.4501013e-05 2.3236105e-23 0.0012813328 -8.876049e-24 1.03973e-42)
(0.0009538746 2.7538939e-05 3.7260458e-24 0.00092722353 7.0297435e-23 6.3436297e-42)
(0.00073978267 2.5366899e-07 -1.9841838e-23 0.00066902203 8.2319495e-23 1.3545701e-41)
(0.0005946309 -1.6556005e-05 4.6285905e-24 0.0004762433 3.7392344e-23 5.0236428e-42)
(0.00049130066 -2.2795227e-05 -2.5483875e-24 0.00033080084 4.3190354e-23 9.3707549e-42)
(0.0004143012 -2.2135171e-05 -4.0228739e-25 0.00022168299 6.3539787e-25 2.8131259e-45)
(0.00035414399 -1.7292891e-05 1.1642253e-23 0.00014221685 -2.659537e-23 7.808388e-42)
(0.00030550585 -1.1101629e-05 1.1345345e-24 8.5019248e-05 -3.160937e-24 3.7739744e-43)
(0.00026767169 -6.1108015e-06 -4.7526675e-24 4.704253e-05 6.1107705e-24 1.7257698e-42)
(0.00023713973 -1.5750254e-06 4.7526791e-24 2.1276242e-05 -3.8670814e-24 1.5910494e-42)