/*--------------------------------*- C++ -*----------------------------------*\
| =========                 |                                                 |
| \\      /  F ield         | OpenFOAM: The Open Source CFD Toolbox           |
|  \\    /   O peration     | Version:  5.0                                   |
|   \\  /    A nd           | Web:      www.OpenFOAM.org                      |
|    \\/     M anipulation  |                                                 |
\*---------------------------------------------------------------------------*/
FoamFile
{
    version     2.0;
    format      ascii;
    class       volScalarField;
    location    "240";
    object      p;
}
// * * * * * * * * * * * * * * * * * * * * * * * * * * * * * * * * * * * * * //

dimensions      [0 2 -2 0 0 0 0];

internalField   nonuniform List<scalar> 
9200
(
0.0010283615
0.0010437418
0.0026740544
0.0010557248
0.0027104156
0.0044457582
0.0010823571
0.0027500565
0.0045007938
0.0060499468
0.0011072942
0.002823371
0.004567809
0.0061191188
0.0076224001
0.0011348125
0.0029092312
0.0046819044
0.0062082061
0.0077039764
0.009085712
0.0011557757
0.0030161911
0.0048189459
0.0063542782
0.0078118911
0.00917682
0.010460245
0.001168495
0.0031351171
0.0049863755
0.0065330005
0.0079849712
0.0092990349
0.010558172
0.01174165
0.0011746482
0.0032601671
0.0051774545
0.006753228
0.0081984101
0.0094913953
0.01069029
0.011844683
0.012936134
0.0011653062
0.0033674193
0.0053924641
0.0070138261
0.0084613649
0.0097272697
0.010894242
0.011984246
0.013043171
0.014047465
0.0011063492
0.0034454955
0.0056186436
0.0073189128
0.0087751217
0.010012608
0.011140967
0.012196161
0.013188899
0.014157587
0.015080465
0.00093908779
0.0035493602
0.0058455828
0.0076721278
0.0091454809
0.010347217
0.011432615
0.012450589
0.01340773
0.014308548
0.015192866
0.016039682
0.00063445758
0.0036472715
0.0060814827
0.0080988039
0.0095834228
0.010734672
0.011764306
0.012746018
0.013669803
0.014533183
0.015348428
0.01615355
0.016929668
0.00019000917
0.0036703497
0.0063232771
0.0085992304
0.010105838
0.011186182
0.0121336
0.013073862
0.013968665
0.014801753
0.015578106
0.01631335
0.017044045
0.017754931
-0.000402807
0.0035672562
0.0065372081
0.0091648585
0.010723316
0.011719911
0.012551374
0.013429061
0.014291969
0.015102852
0.015853415
0.016548366
0.017207485
0.017868642
0.01852004
-0.0011656537
0.0033074003
0.0066748881
0.0097903683
0.011458192
0.012345379
0.013002352
0.013802341
0.014623534
0.015422645
0.016161669
0.016831927
0.017447391
0.018034507
0.018631695
0.019229609
-0.0021133133
0.0028242181
0.0066698343
0.010468037
0.012336937
0.013085053
0.013517896
0.014124288
0.014936872
0.015740229
0.016489739
0.017153381
0.017740789
0.018277591
0.018798248
0.019337665
0.019888202
-0.0032263602
0.002089573
0.0064537242
0.011184344
0.01338928
0.013965635
0.014112325
0.014433207
0.015223205
0.016027791
0.016816533
0.017501068
0.018077397
0.018579624
0.019041821
0.01950284
0.019991086
0.02050029
-0.0050921523
0.0010551404
0.0059454621
0.011947378
0.014651143
0.015018845
0.014789479
0.014765607
0.015434566
0.016289218
0.017117377
0.017855388
0.018450934
0.018930896
0.019348838
0.019743506
0.02015264
0.020596463
0.021070283
-0.0071541906
-0.00034032482
0.0050369676
0.012756257
0.016127996
0.016274721
0.015572241
0.015094903
0.015523811
0.01647506
0.01739224
0.018207091
0.018847161
0.019329829
0.019710867
0.020050913
0.020386717
0.020752088
0.02115825
0.021602441
-0.0092569254
-0.0024093145
0.0036067948
0.013517818
0.01779757
0.01775017
0.016481613
0.015400297
0.015488506
0.016513773
0.017601404
0.018552482
0.019269015
0.019768567
0.020128276
0.020416942
0.020689492
0.020975886
0.021305708
0.021680831
0.022100673
-0.012263165
-0.005422737
0.0014374649
0.014060016
0.019659516
0.01944986
0.017531359
0.015669703
0.015292117
0.016359636
0.017698421
0.018856015
0.019704666
0.020250116
0.020597846
0.020844479
0.021052446
0.021269061
0.02151577
0.021818095
0.022168317
0.022568603
-0.015612108
-0.0096276157
-0.0020286555
0.014217115
0.021825722
0.02136003
0.018732271
0.015886772
0.014874897
0.015951668
0.017627704
0.019092987
0.020141207
0.020768988
0.021122895
0.021331402
0.021480175
0.021622292
0.021794752
0.022011321
0.022293451
0.022624396
0.02300983
-0.018572188
-0.014372708
-0.0060158526
0.013920137
0.024436889
0.023455869
0.020082247
0.016038526
0.014157359
0.015202071
0.017321373
0.019229237
0.020568599
0.021329952
0.02170637
0.021882046
0.021970526
0.022041329
0.022132291
0.02227194
0.02246682
0.022735416
0.023052905
0.023427794
-0.020979374
-0.019036484
-0.0096042743
0.013482728
0.027567365
0.025698359
0.021556478
0.016109261
0.013040884
0.013984145
0.016700502
0.019228547
0.020976281
0.021935519
0.022356317
0.022501154
0.022527278
0.022523086
0.022535154
0.022588503
0.022705111
0.022885887
0.023148147
0.023458075
0.023825366
-0.022891574
-0.023684411
-0.013147042
0.012824569
0.030913625
0.027903723
0.023091959
0.016065878
0.011412908
0.012135423
0.015681165
0.019040611
0.021359226
0.022595233
0.02308443
0.023197248
0.023153631
0.023069643
0.022999138
0.022969052
0.022996096
0.02309833
0.023273607
0.023536407
0.02384265
0.024204996
-0.024397294
-0.028193373
-0.016733615
0.01202192
0.033376879
0.029870078
0.024594608
0.015823908
0.0090948043
0.009449874
0.014170355
0.01859324
0.021697865
0.023314681
0.02390456
0.023981997
0.023855323
0.023681168
0.023524335
0.023408764
0.023350194
0.023360387
0.023458
0.023635963
0.02390281
0.02420824
0.024569081
-0.025528992
-0.03234324
-0.020225
0.011103985
0.034780495
0.031610823
0.025883685
0.015267184
0.0058948206
0.0057936247
0.01203535
0.017776099
0.021956529
0.024096563
0.024827819
0.02486783
0.024639829
0.024358638
0.024107451
0.023906315
0.02376128
0.023683478
0.023689508
0.023789907
0.023974451
0.024248824
0.024557389
0.024919566
-0.026283138
-0.035970375
-0.02351254
0.009985346
0.03541962
0.032996801
0.026706932
0.014354148
0.001775787
0.00097803807
0.0091437356
0.01644743
0.022070638
0.02493858
0.025867706
0.025867329
0.025514028
0.025102834
0.024743243
0.024455229
0.024228168
0.02406297
0.02397425
0.02398438
0.024092962
0.024289009
0.024577427
0.024892987
0.025258137
-0.026696452
-0.039014715
-0.026393006
0.0086770521
0.034988925
0.034031795
0.026912974
0.013107665
-0.003230228
-0.0050106634
0.0053021764
0.01443801
0.021953141
0.025822938
0.027029369
0.026990531
0.026484824
0.025908885
0.025423703
0.025044072
0.024742543
0.024498281
0.024317914
0.024230398
0.024244882
0.024367906
0.024584576
0.02489234
0.025217318
0.025586563
-0.026708456
-0.041459419
-0.028704018
0.0071161542
0.033645556
0.034171774
0.026482348
0.011173813
-0.0093966691
-0.012625878
6.89828e-05
0.011455237
0.021479291
0.026721693
0.028304178
0.028238066
0.027553275
0.026778551
0.026136772
0.025657681
0.02528908
0.024980986
0.024721286
0.024535344
0.024451896
0.024476159
0.024624717
0.02486753
0.025196282
0.02553206
0.025906335
-0.026489694
-0.043533579
-0.030425168
0.0052740581
0.031624162
0.033420279
0.025393811
0.0085181043
-0.016754142
-0.022672243
-0.007084547
0.0072958318
0.020337432
0.02757756
0.029661596
0.029594503
0.028712329
0.027699184
0.02686748
0.026273927
0.025846767
0.0254958
0.025176605
0.024903057
0.024715144
0.024637414
0.024687363
0.024868839
0.025139801
0.025490447
0.025838597
0.026218575
-0.025882624
-0.045319723
-0.03190929
0.0032272379
0.028889659
0.032061702
0.023631068
0.0052166234
-0.024521016
-0.034413717
-0.016660881
0.0014938499
0.018430977
0.028235145
0.03103148
0.031017884
0.0299393
0.028652671
0.027592472
0.026864749
0.026385269
0.026017914
0.025669815
0.025331262
0.02504362
0.024854981
0.024796166
0.024881809
0.025098299
0.025400889
0.025776437
0.026138202
0.026524143
-0.024705175
-0.045798098
-0.033261017
0.00048746831
0.025582036
0.029987911
0.021234083
0.0013269202
-0.032609547
-0.047187104
-0.029147817
-0.0068409502
0.015595048
0.028538798
0.032322595
0.032429579
0.031187498
0.029607217
0.028279736
0.027391884
0.026865571
0.026512592
0.026179535
0.025810116
0.025441288
0.025138481
0.024958832
0.024933499
0.025060796
0.025317139
0.025655008
0.026056529
0.026431963
0.026823821
-0.023111871
-0.044828289
-0.033978787
-0.0025390601
0.020805851
0.027532044
0.018248743
-0.00299678
-0.040902791
-0.060358254
-0.043243177
-0.017274095
0.011223754
0.028640939
0.033378924
0.033728453
0.032388225
0.030514074
0.028886652
0.027808161
0.0272352
0.026933182
0.026669077
0.026323464
0.025906297
0.025499761
0.025189925
0.025034586
0.025051598
0.025227362
0.025529724
0.025904647
0.02633163
0.02672062
0.027118164
-0.02119037
-0.04278704
-0.03393612
-0.005698897
0.015489872
0.023873436
0.01473002
-0.0074317109
-0.049062026
-0.073228666
-0.057475318
-0.0283073
0.0057661111
0.028315222
0.034314329
0.034762302
0.033441727
0.031306943
0.029355719
0.028053817
0.027428498
0.027220838
0.027089815
0.026841474
0.026432616
0.0259468
0.025506063
0.025202825
0.025084735
0.025154638
0.025385872
0.025737107
0.026149547
0.026602348
0.027004842
0.027407515
-0.018930901
-0.039836082
-0.033146009
-0.0089292824
0.009467468
0.019235296
0.010749572
-0.012022005
-0.056861068
-0.085434545
-0.071575486
-0.039578448
-0.00051820187
0.02635277
0.034645615
0.035669462
0.034225804
0.031885104
0.029603162
0.028041468
0.027350072
0.027286335
0.027386676
0.027317232
0.027003206
0.026483421
0.025922606
0.025460125
0.025180248
0.025114103
0.02524704
0.025539341
0.025941559
0.026392171
0.026870043
0.027285141
0.02769229
-0.016364931
-0.036078809
-0.03177266
-0.012265876
0.0029162106
0.0130933
0.0070001753
-0.015523804
-0.06450807
-0.096723167
-0.085022517
-0.050699321
-0.0072470721
0.022726351
0.033958813
0.035504111
0.034562455
0.032141212
0.029531793
0.027672727
0.02688917
0.027012953
0.027468171
0.02771224
0.027593297
0.027107368
0.026454752
0.025828358
0.025364151
0.025127705
0.025128663
0.025333255
0.025690678
0.026145112
0.026633811
0.027135089
0.027561785
0.027972587
-0.013560475
-0.03160152
-0.029830354
-0.01566204
-0.0041739366
0.005746208
0.0024050882
-0.018275205
-0.069512763
-0.10754436
-0.09812722
-0.061233319
-0.014333853
0.018407914
0.032463705
0.03383827
0.034150515
0.031959635
0.029028554
0.026843028
0.025930763
0.026269785
0.027205113
0.027962885
0.028166117
0.027811446
0.027114001
0.026332437
0.025663876
0.025224969
0.025053368
0.025133872
0.025417699
0.025842364
0.026349355
0.026874459
0.027397743
0.027835
0.028248505
-0.010611508
-0.026478559
-0.027231965
-0.018984052
-0.011693257
-0.0025465768
-0.0033602404
-0.02102841
-0.073682214
-0.11536795
-0.11083221
-0.071133656
-0.021720904
0.01372223
0.029862104
0.032277848
0.032840447
0.031218595
0.027985221
0.025441575
0.024332953
0.02488485
0.026441578
0.027900606
0.028661583
0.028576876
0.027909353
0.026995684
0.02611177
0.025436016
0.025050785
0.024962167
0.025133175
0.025501701
0.025996975
0.026555588
0.027115153
0.027658512
0.028104887
0.028520178
-0.020859289
-0.0075885946
-0.024127004
-0.022144749
-0.019541796
-0.011706473
-0.0099987405
-0.024062184
-0.076964049
-0.12325783
-0.12204376
-0.079558366
-0.02899246
0.0084062137
0.026112964
0.029936475
0.03072556
0.029752879
0.026318048
0.023334072
0.021940175
0.022643159
0.024960044
0.027402014
0.028973826
0.029369673
0.028842087
0.027841015
0.026740013
0.025797996
0.025152183
0.024846803
0.024859005
0.02513335
0.025590567
0.026156607
0.026764583
0.027356321
0.027917377
0.02837145
0.028787442
-0.020562804
-0.014907459
-0.0045835421
-0.025016313
-0.027642828
-0.021620477
-0.017336848
-0.027885402
-0.079236613
-0.12826023
-0.13397467
-0.087115274
-0.03594581
0.0028731012
0.021073027
0.026674468
0.027736095
0.027416975
0.023952243
0.020400866
0.018575722
0.019292412
0.022469288
0.02623858
0.028978819
0.030128831
0.029903024
0.02888622
0.027582517
0.026349397
0.025398288
0.024820169
0.02462226
0.024754846
0.025140838
0.025688391
0.026322367
0.026976776
0.027597819
0.028174366
0.028634645
0.029050369
-0.027423837
-0.016671153
-0.0088260977
-0.001642221
-0.035725046
-0.032104146
-0.02520304
-0.032482618
-0.080650191
-0.13067941
-0.14301027
-0.096743454
-0.045031909
-0.0029150375
0.015298665
0.022480075
0.023778192
0.024135967
0.020810617
0.016543092
0.014086631
0.01453642
0.018607349
0.024088951
0.028484369
0.030763651
0.031064888
0.030141069
0.028669192
0.027131508
0.025831255
0.024923867
0.024453425
0.024390775
0.024658259
0.025158531
0.025795505
0.026494618
0.027192358
0.027839923
0.028429461
0.028894376
0.029308811
-0.04361746
-0.029268689
-0.01266679
-0.0027451501
0.0011827036
-0.042948005
-0.033337116
-0.037313062
-0.081146174
-0.13105827
-0.1494312
-0.10564457
-0.055406485
-0.012557945
0.0091067663
0.017377836
0.018941304
0.019823638
0.016844849
0.011741292
0.008337221
0.0080808576
0.012892772
0.020551274
0.027218352
0.031133222
0.032276003
0.031600923
0.03002277
0.028182133
0.026496402
0.025200957
0.024392439
0.024068535
0.024164626
0.024573686
0.025189166
0.025913713
0.026674231
0.027411609
0.028082465
0.028682479
0.029150502
0.029562655
-0.053840339
-0.051238343
-0.030528492
-0.0085609059
0.0031704812
0.0038565904
-0.041584646
-0.041963586
-0.080682469
-0.12897182
-0.15239759
-0.11332243
-0.065786133
-0.022454235
-0.0012211361
0.012470126
0.013052405
0.014528961
0.012042354
0.0060296917
0.0012941731
-0.00046008245
0.0046786873
0.014985511
0.024797062
0.03101475
0.033444365
0.033238296
0.031652445
0.029533686
0.027437097
0.02569825
0.024482672
0.023825146
0.023683043
0.023951144
0.024505306
0.025235751
0.026044327
0.026861815
0.027634581
0.028325263
0.028933251
0.029402865
0.029811858
-0.049346027
-0.064268928
-0.058203541
-0.031281905
-0.0045211322
0.008687749
0.0063790576
-0.046153057
-0.079141118
-0.12443405
-0.15097445
-0.11875208
-0.075024193
-0.033376606
-0.010833981
0.0037066224
0.0067317132
0.0082301119
0.0064638768
-0.00046875389
-0.007112382
-0.01151496
-0.0069513927
0.0064751289
0.020725813
0.03010997
0.034414321
0.034989511
0.033543767
0.031203131
0.0286899
0.026459833
0.02476802
0.02370304
0.02324573
0.023309356
0.023756556
0.024458005
0.025300183
0.026188109
0.027057471
0.027860939
0.028568063
0.02918153
0.029651297
0.030056239
-0.049614591
-0.056138386
-0.073601955
-0.064348216
-0.031612588
-0.00071111597
0.013646326
0.0087049542
-0.0763309
-0.11801057
-0.14599258
-0.12131375
-0.08218933
-0.044304098
-0.022401103
-0.0050893781
-0.0018966954
0.0014179475
9.3594379e-05
-0.007713132
-0.016761271
-0.025689359
-0.02219244
-0.0053572647
0.014293254
0.027911781
0.034964206
0.03673642
0.035645161
0.033183418
0.030276677
0.027527127
0.025287842
0.023742046
0.022889781
0.022673253
0.022956164
0.023587714
0.024434957
0.025384043
0.026345393
0.02726093
0.028090381
0.02881047
0.029427085
0.029895678
0.030295769
-0.07226566
-0.052249992
-0.061962466
-0.081604392
-0.069476801
-0.031536135
0.0028163322
0.017984455
0.010785424
-0.10969552
-0.13831074
-0.12090676
-0.086995803
-0.054985071
-0.034736003
-0.016933008
-0.0098698793
-0.0068126582
-0.0066209194
-0.015602711
-0.027899297
-0.042171705
-0.041002675
-0.020889971
0.0046829066
0.023199344
0.034567658
0.038282032
0.037853238
0.035429892
0.032196012
0.028921454
0.026094643
0.023965771
0.022648706
0.022072349
0.022120721
0.02263368
0.02345012
0.024438449
0.02548821
0.026515982
0.027471588
0.028322366
0.029052198
0.029669796
0.030135861
0.030530223
-0.099815771
-0.066975701
-0.053823929
-0.066834801
-0.088152554
-0.073379755
-0.031045341
0.0061053146
0.021694632
0.01258281
-0.12794108
-0.11770784
-0.0891528
-0.06483483
-0.047886383
-0.030878485
-0.02041929
-0.0140847
-0.013915273
-0.023728294
-0.039988707
-0.060264101
-0.061991175
-0.039058674
-0.0078676364
0.016027972
0.032567278
0.039217519
0.039990944
0.037848149
0.034409227
0.030645965
0.027200941
0.024448502
0.022555444
0.02153692
0.021272223
0.021601816
0.022350943
0.023347625
0.024470272
0.02561286
0.026699129
0.027688765
0.028556529
0.029293156
0.02990944
0.030371461
0.030759462
-0.11544822
-0.08855877
-0.060600201
-0.054155841
-0.070576283
-0.092941739
-0.076076528
-0.030173183
0.0090938457
0.024731039
0.014075814
-0.111744
-0.088057362
-0.073337157
-0.061449177
-0.04671535
-0.03398312
-0.023303483
-0.020202137
-0.030834731
-0.053686936
-0.077913791
-0.084884879
-0.060553809
-0.024156348
0.0066349584
0.0292253
0.039192003
0.041727632
0.040274324
0.036829549
0.032668603
0.028613573
0.025188123
0.022655399
0.021095997
0.020434988
0.020508122
0.021130023
0.02211392
0.023281371
0.024531324
0.025757288
0.026894002
0.027912238
0.028792971
0.029532978
0.030145229
0.030602015
0.030983649
-0.10309507
-0.10117569
-0.076589546
-0.05333219
-0.053279926
-0.073036674
-0.095885188
-0.077427983
-0.0290115
0.01170195
0.026992871
0.015213627
-0.084851137
-0.080408249
-0.075120096
-0.064002467
-0.04997183
-0.035417411
-0.027812632
-0.036219083
-0.0631345
-0.096852794
-0.10782479
-0.084986938
-0.044442889
-0.0067536716
0.023308824
0.038084961
0.042724351
0.042427976
0.039306446
0.034911513
0.030307012
0.026191249
0.022963441
0.020780332
0.019630998
0.019368604
0.019798719
0.020715196
0.021929047
0.023251922
0.024621913
0.025920431
0.02710054
0.028142166
0.029030899
0.02977002
0.030376256
0.030828053
0.031213899
-0.080526861
-0.092340966
-0.086025923
-0.064147459
-0.045617127
-0.051089017
-0.074210143
-0.09654771
-0.077454222
-0.027569394
0.014003289
0.028432449
0.015961075
-0.086356539
-0.08850639
-0.082161459
-0.068168045
-0.050082184
-0.037345867
-0.04255456
-0.069983495
-0.10868648
-0.13236768
-0.11144996
-0.066295794
-0.023503297
0.01402879
0.034664835
0.042833449
0.044036522
0.041619664
0.037244055
0.032212683
0.027437572
0.023478683
0.020607633
0.018880638
0.018196928
0.018363845
0.019159007
0.020364606
0.021800858
0.023274383
0.024740297
0.026102293
0.027319116
0.028377074
0.029267245
0.030002586
0.030603907
0.031061685
0.031454143
-0.090495079
-0.074631302
-0.080415813
-0.070673139
-0.051638709
-0.037685991
-0.047537213
-0.073885541
-0.09459642
-0.076309854
-0.025813362
0.016186051
0.029276003
0.016496829
-0.1011818
-0.10095531
-0.08832058
-0.067035583
-0.04862257
-0.050210954
-0.076168551
-0.12078733
-0.14931254
-0.14598415
-0.092071974
-0.042885597
0.0026086855
0.028174788
0.040926583
0.044911348
0.043546159
0.039485913
0.034218956
0.028867542
0.024181911
0.020574399
0.018195608
0.017004427
0.016829311
0.017442193
0.01859953
0.020083135
0.021714168
0.023333455
0.024886403
0.026303601
0.027547339
0.028611914
0.029499382
0.030233748
0.030843101
0.031304372
0.031697922
-0.11239501
-0.092616379
-0.06802474
-0.06790836
-0.055715566
-0.039288687
-0.029541785
-0.043043631
-0.071830889
-0.090847903
-0.073935901
-0.023590966
0.018062183
0.029957543
0.016766467
-0.12008393
-0.1100322
-0.086011339
-0.061395362
-0.059083748
-0.082454264
-0.12972965
-0.17357364
-0.16452645
-0.12210483
-0.064907714
-0.011221867
0.019919455
0.036247713
0.044165544
0.044701399
0.0414003
0.036168596
0.03038508
0.025021985
0.02066022
0.017571939
0.015793669
0.015197539
0.015558927
0.016619586
0.018128305
0.01987211
0.021682663
0.023430199
0.025061631
0.026521052
0.027777517
0.02884305
0.029733167
0.030484903
0.031089481
0.031552311
0.031944993
-0.13862721
-0.12196673
-0.0927257
-0.06124713
-0.055516376
-0.041580853
-0.027196746
-0.021327808
-0.038090899
-0.068358119
-0.08556372
-0.070857314
-0.020557912
0.019498235
0.030111417
0.016718769
-0.1326766
-0.10656841
-0.075424508
-0.068683709
-0.08945804
-0.13692497
-0.18986462
-0.20539415
-0.15054853
-0.085767001
-0.026789645
0.0099818547
0.030247454
0.041524904
0.04456014
0.042667607
0.037845222
0.031850423
0.025914957
0.020819839
0.016987289
0.014557242
0.013462269
0.013501705
0.014408709
0.015907956
0.017749553
0.019731564
0.021705782
0.023567827
0.025261934
0.026743428
0.028004596
0.029080375
0.030000124
0.030741792
0.031343314
0.031804587
0.032195333
-0.15544459
-0.15580476
-0.12940111
-0.090825208
-0.054335234
-0.043742356
-0.028733588
-0.015736442
-0.013331553
-0.032785829
-0.064050444
-0.079952192
-0.066287196
-0.017333627
0.020413885
0.0284566
0.016426662
-0.12813313
-0.090552683
-0.07850009
-0.096612641
-0.14366123
-0.20232695
-0.23358222
-0.19128692
-0.10688782
-0.042737984
-0.00096923992
0.02279672
0.037077603
0.043137026
0.043027586
0.039017973
0.033076749
0.026735488
0.020979157
0.016399318
0.013270326
0.011608742
0.011255385
0.011950005
0.01339636
0.015314502
0.017463212
0.019662829
0.021786745
0.023742096
0.025471474
0.026963403
0.028244087
0.029369821
0.030271424
0.031008793
0.031602278
0.03206133
0.032448718
-0.14956932
-0.17722805
-0.17031968
-0.13460051
-0.087578486
-0.047133309
-0.032656557
-0.017309169
-0.0053166488
-0.0056815572
-0.027437207
-0.060292072
-0.073468487
-0.060760207
-0.013979721
0.020636864
0.022510403
0.016052934
-0.10561921
-0.087706747
-0.10341759
-0.14928401
-0.21133185
-0.25813681
-0.23080709
-0.13853955
-0.064982454
-0.012873948
0.013666846
0.030801042
0.04014252
0.042006169
0.039410636
0.033851945
0.027324703
0.021027447
0.015741473
0.011890821
0.0096079584
0.0087965475
0.0092184495
0.010567252
0.012532717
0.01484079
0.01727141
0.019672669
0.021921175
0.023931579
0.025679288
0.027203906
0.028562514
0.029662306
0.030555836
0.031281542
0.031866899
0.032321958
0.032705063
-0.11888625
-0.16955753
-0.1953031
-0.18188979
-0.13746159
-0.083513437
-0.039494124
-0.022474989
-0.0072829266
0.0039199728
0.0012010621
-0.022670186
-0.055970001
-0.066473432
-0.054216215
-0.010652074
0.020144976
0.020391878
0.0155942
-0.096013922
-0.10956937
-0.15271204
-0.21597406
-0.27609282
-0.26925516
-0.1741388
-0.092852701
-0.03256932
0.0033933777
0.023209752
0.034947797
0.039445873
0.038761175
0.033894817
0.027490087
0.020829848
0.014916332
0.010356922
0.0074157047
0.0060898
0.0061809176
0.007385175
0.00936786
0.011820815
0.014490542
0.017183498
0.019755874
0.022080188
0.024120124
0.025917961
0.027559786
0.028883235
0.029971518
0.030846511
0.031561263
0.032136233
0.032586456
0.032964107
-0.10350478
-0.12977652
-0.18556774
-0.20888353
-0.19073596
-0.13800433
-0.078996165
-0.032010723
-0.013999785
0.00092755744
0.011429784
0.0076498908
-0.019022021
-0.05061409
-0.058938856
-0.046835488
-0.0075363574
0.019250188
0.01788806
0.015118169
-0.11471166
-0.15354992
-0.21557314
-0.28644061
-0.30208906
-0.21274708
-0.12491667
-0.052802969
-0.014798918
0.014335493
0.028103819
0.035237747
0.036309974
0.03298618
0.026998426
0.020217161
0.013809369
0.0085813724
0.0049714741
0.0030863358
0.0027943295
0.0038071518
0.005774159
0.0083565893
0.011267045
0.014276489
0.01719442
0.019872458
0.022239296
0.024352729
0.026321318
0.027917759
0.029224863
0.030287397
0.031145461
0.031846711
0.032410238
0.032854268
0.033225711
-0.1178695
-0.10964538
-0.13797415
-0.19678937
-0.23099117
-0.1948281
-0.1364467
-0.074475195
-0.025609515
-0.0074687977
0.0073415984
0.01833559
0.011676544
-0.015183663
-0.044508332
-0.050865366
-0.038850864
-0.0048426923
0.017974253
0.015313995
0.014422712
-0.15131209
-0.21028933
-0.28674273
-0.32625801
-0.25140091
-0.15471996
-0.07808834
-0.030237977
-0.0035417428
0.021411427
0.028767501
0.032200117
0.030706704
0.025625665
0.018996023
0.012272099
0.006466043
0.0021940282
-0.00027663167
-0.00099664284
-0.00021830436
0.0017010481
0.0043958396
0.0075478177
0.010890331
0.014191664
0.017252029
0.019988562
0.022459536
0.024815898
0.026727432
0.028301823
0.029573331
0.030613012
0.031451085
0.032137763
0.032688139
0.033125242
0.033489631
-0.14595332
-0.11742706
-0.11354596
-0.14249464
-0.20292204
-0.23382433
-0.19383922
-0.13298909
-0.07017741
-0.020822685
-0.0019468786
0.013716143
0.02267196
0.015326965
-0.011213671
-0.037684554
-0.042594157
-0.030790486
-0.0026582578
0.016105774
0.013202762
0.013170618
-0.20030611
-0.27577414
-0.33604501
-0.28191543
-0.18061203
-0.10335389
-0.051486092
-0.017484596
0.0051875582
0.022578344
0.02534686
0.026934473
0.023041436
0.016979793
0.010150888
0.0038801098
-0.0010038475
-0.0040789227
-0.0052601842
-0.0047542646
-0.0029123108
-0.00012037483
0.0032740073
0.0069685919
0.010682132
0.014167158
0.017307158
0.020187342
0.022998458
0.02528313
0.027165995
0.028692493
0.02993294
0.030946252
0.031763192
0.032433496
0.032969679
0.033398892
0.033755722
-0.18649344
-0.1373986
-0.11314761
-0.11482697
-0.14281615
-0.20170366
-0.22706196
-0.18859193
-0.12797384
-0.0655643
-0.017320896
0.004188437
0.018319435
0.026570706
0.018638636
-0.0073145551
-0.03013731
-0.034177235
-0.023307077
-0.00078903057
0.013807714
0.011525152
0.011212103
-0.2576746
-0.31505961
-0.29731762
-0.20184863
-0.12795519
-0.073056791
-0.037369961
-0.0084590799
0.0091721587
0.017379048
0.020763085
0.019214901
0.013900963
0.0072837968
0.0007054714
-0.0047415801
-0.0084038441
-0.010078946
-0.0098764613
-0.0081375496
-0.005262071
-0.0016221083
0.0024443563
0.0066041835
0.010549981
0.014147678
0.017468386
0.020822535
0.023542565
0.025790947
0.027610295
0.02909577
0.0303011
0.031286971
0.032080686
0.032733555
0.033254238
0.033675164
0.034023656
-0.2342744
-0.16885597
-0.1261498
-0.10589746
-0.1112888
-0.1388818
-0.1918528
-0.2143392
-0.17984919
-0.12102024
-0.060544877
-0.012945341
0.0093239594
0.022434728
0.029710425
0.021446253
-0.0035714118
-0.022281519
-0.025352372
-0.016502558
0.00065722843
0.011666537
0.0099472835
0.008952476
-0.29393836
-0.29535858
-0.21542898
-0.14871575
-0.094708471
-0.058131291
-0.0277897
-0.002274659
0.0033617182
0.013552282
0.013418928
0.0097095846
0.0034814408
-0.0032021105
-0.009106993
-0.013366863
-0.015539521
-0.015673621
-0.014058848
-0.011109281
-0.007217846
-0.0027557327
0.0018854832
0.0063338374
0.010420035
0.014287605
0.018229954
0.021462513
0.024137926
0.026302636
0.028068688
0.029508488
0.030677735
0.031634025
0.032403051
0.033037261
0.033541916
0.033953444
0.034293213
-0.26526084
-0.20607128
-0.14903748
-0.11250181
-0.096268711
-0.10285162
-0.13112502
-0.17433317
-0.19738509
-0.1681704
-0.11229622
-0.054241423
-0.0074061923
0.013952857
0.025576465
0.031954834
0.02380503
0.00010358442
-0.014485777
-0.016804915
-0.010830354
0.0017246854
0.0099222825
0.0084645876
0.0069837227
-0.28058796
-0.22095429
-0.16206429
-0.11429304
-0.079716553
-0.048316857
-0.023003653
-0.00010244678
0.0018225652
0.0069241017
0.0038482241
-0.0013009952
-0.0079697551
-0.014240924
-0.019035031
-0.021759709
-0.022241376
-0.020772831
-0.017754218
-0.01360031
-0.0087144855
-0.0035517312
0.0014401467
0.0060637629
0.010495751
0.01519389
0.018990586
0.022167585
0.02473406
0.026829862
0.02853728
0.029930741
0.031061583
0.031986624
0.032729574
0.033345015
0.033831674
0.034233446
0.034564114
-0.25486218
-0.23004337
-0.17589542
-0.1279968
-0.097411791
-0.084282685
-0.091838615
-0.12055125
-0.1541315
-0.17817364
-0.15189973
-0.10400937
-0.044536478
-0.0020482383
0.01781332
0.027856427
0.033202417
0.025627065
0.0035755106
-0.0077419821
-0.0097214119
-0.0064046291
0.0026802539
0.0084625346
0.0070761035
0.0053886513
-0.2171608
-0.16705097
-0.13013828
-0.1002643
-0.070504852
-0.045356666
-0.020278586
-0.0081555064
-0.0027638601
-0.0024745708
-0.0074958496
-0.013647822
-0.020204458
-0.025563903
-0.028799061
-0.029703689
-0.028387632
-0.025301849
-0.020868185
-0.015523714
-0.0097938374
-0.0042132032
0.00099136909
0.0060625119
0.011603537
0.016092901
0.019833225
0.022869066
0.025346659
0.027368043
0.029016519
0.030361088
0.031451586
0.032344212
0.03306117
0.033655144
0.034123206
0.034514662
0.034836116
-0.20265638
-0.22142059
-0.19335895
-0.14530531
-0.10648809
-0.081463657
-0.070768205
-0.078670053
-0.10692932
-0.13425124
-0.15531389
-0.13789746
-0.090734851
-0.035176987
0.0029932606
0.020904187
0.02927775
0.033004813
0.02607591
0.0070368924
-0.0025974025
-0.0047702202
-0.0029106589
0.0034420708
0.0072581201
0.0058393688
0.0041268029
-0.16486553
-0.14059034
-0.117868
-0.092696399
-0.069547756
-0.045970722
-0.024377398
-0.011334152
-0.01068608
-0.014139928
-0.020511921
-0.027091632
-0.032944673
-0.036844035
-0.038127472
-0.037035063
-0.033873347
-0.029134113
-0.023286238
-0.016935255
-0.010716427
-0.004884993
0.0008924289
0.007414538
0.012681316
0.017099784
0.020665289
0.023587382
0.02597072
0.027917913
0.029504603
0.030798281
0.031847433
0.032708282
0.033395499
0.033967343
0.034415847
0.034796729
0.035108969
-0.15734551
-0.18029282
-0.18602608
-0.157559
-0.11658654
-0.085293145
-0.065240146
-0.05661908
-0.06412931
-0.090231343
-0.11522065
-0.13604767
-0.11960869
-0.077564243
-0.026036604
0.0074454397
0.023182669
0.029928352
0.031707433
0.024943662
0.0098727212
0.0011211648
-0.0012343374
-0.00016300154
0.0039892533
0.0062842088
0.0048049505
0.0031524266
-0.14471969
-0.13032326
-0.1131583
-0.094773696
-0.075189877
-0.04821464
-0.02743462
-0.016408965
-0.021459638
-0.027871961
-0.035011923
-0.041368074
-0.045821411
-0.0477374
-0.046803705
-0.043608531
-0.038528484
-0.032119549
-0.025080435
-0.018166485
-0.011660636
-0.0051062151
0.0025500371
0.0087034781
0.013897914
0.018087499
0.021514463
0.02431739
0.026607395
0.028477399
0.030000211
0.031242356
0.032251445
0.033075462
0.033732295
0.0342807
0.034709192
0.035079245
0.035382433
-0.14206365
-0.14507582
-0.15473737
-0.15173906
-0.12483828
-0.090313842
-0.065334279
-0.04947039
-0.042685724
-0.048823065
-0.072588292
-0.10119967
-0.11459346
-0.10136994
-0.063788427
-0.017486471
0.011180865
0.024658558
0.02991089
0.02987675
0.023279729
0.011481133
0.0038019758
0.001366995
0.0019694726
0.0043470973
0.0055130545
0.0039788489
0.0024296313
-0.13710832
-0.13038651
-0.11994037
-0.10536711
-0.078708641
-0.051686905
-0.02887677
-0.025264348
-0.034654354
-0.043581216
-0.050718384
-0.056081258
-0.058411783
-0.057950705
-0.054628491
-0.049196695
-0.04215505
-0.034344471
-0.026667311
-0.019436304
-0.012030832
-0.0030692758
0.0040905766
0.010175755
0.015078984
0.019094095
0.022374525
0.025060379
0.027254645
0.029045123
0.030503866
0.031696641
0.032659132
0.033445554
0.034070407
0.034594736
0.035002818
0.03536187
0.035656112
-0.13921053
-0.13418317
-0.12867061
-0.12797212
-0.12034386
-0.095926453
-0.066830208
-0.047111561
-0.034919965
-0.029003171
-0.034882232
-0.057476048
-0.085797817
-0.093572064
-0.082243314
-0.049943349
-0.009626563
0.014066336
0.025333575
0.029158111
0.027922728
0.021722165
0.012260556
0.0058033074
0.0033473677
0.0035213587
0.004571454