/*--------------------------------*- C++ -*----------------------------------*\
| =========                 |                                                 |
| \\      /  F ield         | OpenFOAM: The Open Source CFD Toolbox           |
|  \\    /   O peration     | Version:  5.0                                   |
|   \\  /    A nd           | Web:      www.OpenFOAM.org                      |
|    \\/     M anipulation  |                                                 |
\*---------------------------------------------------------------------------*/
FoamFile
{
    version     2.0;
    format      ascii;
    class       surfaceScalarField;
    location    "240";
    object      phi;
}
// * * * * * * * * * * * * * * * * * * * * * * * * * * * * * * * * * * * * * //

dimensions      [0 3 -1 0 0 0 0];

internalField   nonuniform List<scalar> 
18180
(
-0.0019032193
-1.3897146
-0.003705429
-1.2997345
-0.001850878
-1.3878637
-0.005397206
-1.2157123
-0.0036057261
-1.2979797
-0.0017601852
-1.3861035
-0.0070014143
-1.137227
-0.0052687437
-1.2140493
-0.0034308033
-1.2963091
-0.0016324151
-1.3844711
-0.0085007295
-1.0638924
-0.0068589377
-1.1356368
-0.0050214548
-1.2124586
-0.0031827989
-1.2947587
-0.0014953069
-1.3829758
-0.0098792254
-0.99536809
-0.0083823312
-1.0623691
-0.0065530699
-1.1341051
-0.0046598127
-1.2109816
-0.0029112914
-1.2933427
-0.0013615752
-1.3816142
-0.011102475
-0.93133493
-0.0098431128
-0.99390731
-0.0080441245
-1.060878
-0.0060850799
-1.1326799
-0.0042556023
-1.2096373
-0.0026439745
-1.2920603
-0.0012475146
-1.3803667
-0.012138443
-0.87151682
-0.011240847
-0.9299372
-0.0095188333
-0.9924326
-0.0074806199
-1.0594825
-0.0055420697
-1.1313934
-0.0038540131
-1.2084273
-0.0024148914
-1.2908929
-0.0011560485
-1.3792107
-0.012964709
-0.81564892
-0.012576569
-0.87018109
-0.011016306
-0.92843972
-0.0088807349
-0.99103248
-0.0067844929
-1.05824
-0.0049964017
-1.130251
-0.003511029
-1.2073311
-0.0022332009
-1.2898158
-0.0010833423
-1.3781273
-0.013478361
-0.76353216
-0.01382971
-0.81439578
-0.012596875
-0.86860053
-0.010341506
-0.92697895
-0.0080042714
-0.9898127
-0.0060735369
-1.0571629
-0.0045341665
-1.1292279
-0.0032444576
-1.2063199
-0.0020935292
-1.2888056
-0.0010213698
-1.377106
-0.013582119
-0.7149048
-0.01507565
-0.76228622
-0.014372942
-0.81261971
-0.011929445
-0.86701259
-0.0092312759
-0.92575195
-0.0070855778
-0.98880066
-0.005480767
-1.0562163
-0.0041867458
-1.1282856
-0.0030466055
-1.2053668
-0.0019790725
-1.2878479
-0.00096286221
-1.3761431
-0.013197738
-0.66965719
-0.016482078
-0.71349837
-0.016499482
-0.76015968
-0.013747216
-0.81080194
-0.010496636
-0.86574723
-0.0080283775
-0.92480915
-0.0063348299
-0.9879466
-0.0050574077
-1.0553456
-0.003942458
-1.1273897
-0.0028886721
-1.2044572
-0.0018720586
-1.2869387
-0.00090236906
-1.3752407
-0.012222005
-0.62761942
-0.018176811
-0.66796246
-0.018990896
-0.71100696
-0.015845727
-0.75806117
-0.01183018
-0.8094684
-0.0088935934
-0.86488201
-0.0070697199
-0.92407426
-0.0058367316
-0.98716727
-0.0047822481
-1.0545058
-0.0037548181
-1.1265236
-0.0027402101
-1.2035891
-0.0017585368
-1.2860825
-0.00083616017
-1.3744046
-0.010583527
-0.58854479
-0.020203937
-0.6255923
-0.021969014
-0.66498434
-0.018309941
-0.70854275
-0.01325139
-0.75663996
-0.009648028
-0.80871397
-0.0076467263
-0.864305
-0.0064923463
-0.92341864
-0.0055518902
-0.98639763
-0.0045829072
-1.0536778
-0.0035773918
-1.1256864
-0.0025785997
-1.202769
-0.0016302316
-1.2852884
-0.00076273689
-1.3736418
-0.0082306088
-0.55221408
-0.022581688
-0.58616703
-0.025703677
-0.62185763
-0.021320685
-0.66197359
-0.014823034
-0.7069711
-0.010224929
-0.75606305
-0.0079992959
-0.8083614
-0.0069758874
-0.86382146
-0.0062246601
-0.92274587
-0.0053701474
-0.98561039
-0.004394811
-1.0528603
-0.0033765395
-1.1248885
-0.002391121
-1.2020081
-0.0014852713
-1.2845659
-0.00068362671
-1.3729582
-0.0051879094
-0.51832501
-0.025367684
-0.54942808
-0.03045085
-0.58141986
-0.025070907
-0.61810741
-0.016606476
-0.66019015
-0.010599311
-0.70659672
-0.0079983943
-0.75606396
-0.0071929296
-0.80814435
-0.0067505794
-0.86329554
-0.0061037038
-0.92201231
-0.0052038955
-0.98480131
-0.0041707564
-1.0520661
-0.0031333971
-1.1241462
-0.0021751083
-1.2013183
-0.0013279488
-1.2839216
-0.00060291309
-1.3723553
-0.001395134
-0.48664387
-0.028627696
-0.51506499
-0.036448553
-0.54343038
-0.029762654
-0.57672811
-0.018670818
-0.61604307
-0.010713921
-0.66007554
-0.0075269628
-0.70706815
-0.0070455374
-0.75621135
-0.0070476453
-0.80784729
-0.0067519134
-0.86264733
-0.0060179008
-0.92119831
-0.0049835597
-0.9839885
-0.0038791891
-1.0513203
-0.0028449369
-1.1234764
-0.0019380163
-1.2007082
-0.0011668412
-1.2833576
-0.000525475
-1.3718298
0.0033457935
-0.45733479
-0.032458092
-0.48281347
-0.043923915
-0.50758963
-0.035587981
-0.53760505
-0.02110173
-0.5742972
-0.010495592
-0.6162614
-0.0064583771
-0.66114413
-0.0063641886
-0.7077495
-0.0071328409
-0.75612615
-0.0073197112
-0.80727949
-0.0068569009
-0.86180833
-0.0058538315
-0.92032804
-0.0046562046
-0.98321149
-0.0035134667
-1.0506518
-0.0025224217
-1.122892
-0.0016940004
-1.200181
-0.0010118997
-1.2828712
-0.00045536189
-1.3713744
0.0096242258
-0.43103185
-0.036637904
-0.45315498
-0.052974161
-0.47376323
-0.042672655
-0.50050496
-0.02397777
-0.53472901
-0.0098655518
-0.57492724
-0.0046240677
-0.61809571
-0.0049903193
-0.66251799
-0.0068770514
-0.70800529
-0.0078450421
-0.75560082
-0.0077924798
-0.80634391
-0.0068425135
-0.86081965
-0.005509921
-0.91947432
-0.0042074673
-0.98251749
-0.0030928181
-1.0500814
-0.0021871257
-1.1223988
-0.0014590188
-1.1997339
-0.00087169309
-1.2824549
-0.0003952709
-1.3709792
0.017477739
-0.40733546
-0.040566363
-0.42710339
-0.063645907
-0.44248323
-0.051138392
-0.46529749
-0.02732302
-0.49715971
-0.0087338091
-0.53586075
-0.0018309249
-0.57772038
-0.0027268706
-0.62035916
-0.0060921303
-0.66330292
-0.0083096352
-0.7075407
-0.0088477578
-0.75454554
-0.0080298699
-0.80515655
-0.0065084217
-0.85982115
-0.0049636358
-0.91871815
-0.0036670929
-0.98194321
-0.0026502967
-1.0496182
-0.0018630711
-1.1219948
-0.0012465836
-1.199359
-0.00075186357
-1.2820983
-0.00034672457
-1.3706325
0.025766748
-0.38336091
-0.043210562
-0.40469126
-0.076075292
-0.41467401
-0.061378886
-0.43224274
-0.031199215
-0.46142129
-0.0070155618
-0.49887795
0.0021355854
-0.53982726
0.00065752528
-0.58110478
-0.0046101397
-0.62184115
-0.0086482335
-0.66296432
-0.010085698
-0.70630275
-0.0094687387
-0.75310667
-0.0077203132
-0.80394466
-0.0058346286
-0.85895016
-0.0042696281
-0.91811562
-0.0030897604
-0.98150375
-0.0022217069
-1.0492596
-0.0015706288
-1.1216707
-0.0010654767
-1.1990454
-0.00065489828
-1.2817901
-0.00031010029
-1.3703224
0.034408233
-0.35827099
-0.044159601
-0.38241187
-0.090718162
-0.39004839
-0.074198602
-0.40185429
-0.036022116
-0.42741983
-0.0046119562
-0.4638249
0.0074895022
-0.50423187
0.0054243874
-0.54459412
-0.0022352925
-0.58347963
-0.0087788489
-0.62171053
-0.011602661
-0.66144735
-0.011296302
-0.70447519
-0.0092352357
-0.75159175
-0.0068764307
-0.80290286
-0.0049295467
-0.85829024
-0.003515594
-0.91768978
-0.0025311926
-0.98119426
-0.0018372818
-1.0489929
-0.0013233485
-1.1214129
-0.00091943256
-1.1987809
-0.00058059729
-1.2815196
-0.00028434375
-1.370038
0.042967076
-0.33308511
-0.044895701
-0.35753489
-0.10649598
-0.36663405
-0.090468557
-0.37377844
-0.042748658
-0.39512775
-0.0015110181
-0.43052077
0.014427697
-0.47076309
0.01182875
-0.51063623
0.0012549595
-0.54808437
-0.0086146743
-0.5836438
-0.013486461
-0.61982673
-0.013686591
-0.65905706
-0.011203718
-0.70250671
-0.0081724933
-0.75029569
-0.0056812391
-0.80215117
-0.0039332774
-0.85787255
-0.0027868546
-0.91743412
-0.0020358235
-0.98099572
-0.0015170537
-1.0487992
-0.0011271885
-1.1212051
-0.00080809341
-1.1985534
-0.00052679022
-1.2812772
-0.0002669546
-1.3697711
0.050793352
-0.30752429
-0.047259491
-0.33072132
-0.12272737
-0.3413035
-0.11020707
-0.34689555
-0.052125379
-0.36440172
0.0021080223
-0.39874679
0.023163734
-0.43925681
0.020128244
-0.47906259
0.0061158726
-0.51549715
-0.0080571597
-0.54864189
-0.015841573
-0.58128869
-0.016849836
-0.61666349
-0.013807689
-0.65645309
-0.0098304441
-0.70084876
-0.0065695458
-0.74940738
-0.004347674
-0.80173677
-0.0029742563
-0.85768515
-0.0021496291
-0.91732031
-0.0016317714
-0.980881
-0.0012694961
-1.0486569
-0.00098112316
-1.1210321
-0.0007283674
-1.1983518
-0.00049005654
-1.2810541
-0.00025490518
-1.3695161
0.057975189
-0.28249137
-0.05069819
-0.30408559
-0.1391965
-0.31425219
-0.13071539
-0.32079518
-0.063794203
-0.33522672
0.0061079275
-0.36840162
0.033955261
-0.40953832
0.030556827
-0.44968539
0.012621229
-0.48556794
-0.0069766077
-0.5165777
-0.018794777
-0.54568868
-0.021041655
-0.57709687
-0.017273817
-0.61319736
-0.011985176
-0.65429836
-0.007644928
-0.69977338
-0.0047618565
-0.7489932
-0.0030714678
-0.80163956
-0.0021503001
-0.85768448
-0.001644581
-0.9173075
-0.001329501
-0.980821
-0.0010923345
-1.0485457
-0.00087911514
-1.1208813
-0.00067533891
-1.1981665
-0.00046637475
-1.2808426
-0.00024591725
-1.3692702
0.064390643
-0.25833934
-0.054156057
-0.2790335
-0.1548154
-0.28846668
-0.14923581
-0.29573177
-0.076495648
-0.30809373
0.010507847
-0.33962664
0.046966339
-0.3814127
0.043289744
-0.42227124
0.020971528
-0.45803569
-0.0052567689
-0.48728778
-0.022497273
-0.5128752
-0.026562397
-0.54016794
-0.021858951
-0.57251174
-0.014795811
-0.61038672
-0.0089691655
-0.65297412
-0.0051739073
-0.69936133
-0.0030467741
-0.74901789
-0.0019977111
-0.80179215
-0.0015202426
-0.85780882
-0.0012842047
-0.9173528
-0.0011243275
-0.980789
-0.00097512641
-1.0484497
-0.00081293718
-1.1207437
-0.00064283128
-1.1979901
-0.00045195599
-1.2806366
-0.00023928365
-1.3690309
0.070079715
-0.23562559
-0.057581814
-0.25491359
-0.16975999
-0.26408891
-0.16578774
-0.27191475
-0.089012434
-0.28321498
0.014873952
-0.31245984
0.062037671
-0.35469797
0.058320943
-0.3964439
0.031171867
-0.43247157
-0.0028348049
-0.46045766
-0.027133975
-0.48265108
-0.033758853
-0.50567875
-0.027852612
-0.53417428
-0.018432293
-0.56887526
-0.010607122
-0.60874877
-0.005575991
-0.65257204
-0.0028559951
-0.69955211
-0.0016364308
-0.74937917
-0.0012098804
-0.80210251
-0.0010987983
-0.85799423
-0.0010581047
-0.91741902
-0.0010008025
-0.98076333
-0.00090342884
-1.0483592
-0.00077407199
-1.1206125
-0.00062454629
-1.1978175
-0.00044408064
-1.2804318
-0.00023528059
-1.3687957
0.075115286
-0.21455149
-0.060873097
-0.2323343
-0.18387592
-0.24079765
-0.18122737
-0.24864928
-0.10096867
-0.25995851
0.018646083
-0.28698712
0.078793226
-0.32921539
0.07546495
-0.37184198
0.043111788
-0.40838382
0.00013222023
-0.4354386
-0.033052525
-0.45453911
-0.043027155
-0.47338278
-0.035573261
-0.4979581
-0.023078306
-0.52952827
-0.012624917
-0.56685746
-0.005951898
-0.60837286
-0.0024403333
-0.6529877
-0.00099368973
-0.70019485
-0.00064697348
-0.74994208
-0.00072483186
-0.80247648
-0.00086599783
-0.85818633
-0.00094201416
-0.91747781
-0.00093689781
-0.98072986
-0.00086287493
-1.0482704
-0.00075431844
-1.1204827
-0.00061566001
-1.1976459
-0.00044084924
-1.2802262
-0.00023369483
-1.368562
0.079573862
-0.1951678
-0.063944575
-0.21148001
-0.19704173
-0.2191685
-0.19528053
-0.22674449
-0.11171234
-0.23790561
0.021875904
-0.26318834
0.096758061
-0.30495195
0.094656656
-0.3484071
0.05701402
-0.38574421
0.0037263415
-0.41197794
-0.04069473
-0.42779639
-0.054811231
-0.44275503
-0.045346683
-0.46360936
-0.028921205
-0.4921152
-0.015079974
-0.52707321
-0.006277364
-0.566532
-0.0017261307
-0.60908706
2.1263355e-05
-0.65400266
0.00025447538
-0.7010963
-9.645218e-05
-0.75057046
-0.00050784098
-0.80283463
-0.00078247969
-0.85834587
-0.00090496576
-0.91750974
-0.00090838192
-0.98068435
-0.00084281041
-1.0481819
-0.00074724481
-1.1203511
-0.0006130546
-1.1974737
-0.00044015941
-1.2800197
-0.0002333872
-1.3683286
0.083527753
-0.17746331
-0.066706357
-0.19240601
-0.20922939
-0.19929235
-0.20800889
-0.20644013
-0.12099901
-0.21745782
0.025160515
-0.24119022
0.1154183
-0.28184857
0.11579269
-0.32608799
0.073429032
-0.36482211
0.0089103612
-0.39092823
-0.049746243
-0.40292643
-0.069387114
-0.41322051
-0.057382106
-0.43071961
-0.036121755
-0.45640881
-0.018008851
-0.48918632
-0.006512288
-0.52683829
-0.00062716868
-0.56763096
0.0015182386
-0.61058404
0.0016018721
-0.65535005
0.00087150576
-0.70206425
7.1295531e-05
-0.7511496
-0.00049630381
-0.80312081
-0.00080137832
-0.85844946
-0.00091179538
-0.91750633
-0.00090073331
-0.98062643
-0.00084248804
-1.0480867
-0.00074926248
-1.1202149
-0.00061343127
-1.1973004
-0.00043994946
-1.2798132
-0.00023312081
-1.3680955
0.086087056
-0.18919836
-0.069072206
-0.17509746
-0.22043724
-0.18119817
-0.21949325
-0.18780798
-0.12893711
-0.19850203
0.028755602
-0.22105291
0.13416297
-0.25993489
0.13795818
-0.30401405
0.092146181
-0.34480514
0.016967583
-0.37287933
-0.05863862
-0.38203586
-0.086332903
-0.38598064
-0.071677526
-0.39892509
-0.044687746
-0.42215362
-0.021408951
-0.45300871
-0.0065930412
-0.48910557
0.00095567584
-0.52842113
0.0036214659
-0.56973418
0.0035210293
-0.6125032
0.0022848237
-0.65676337
0.00094257962
-0.70293554
-4.7449123e-05
-0.75159845
-0.0006187141
-0.80330348
-0.00087456978
-0.85848668
-0.00093754345
-0.91746952
-0.00091311989
-0.9805558
-0.00085316642
-1.0479828
-0.0007519893
-1.1200764
-0.00061311664
-1.1971273
-0.00043900209
-1.2796073
-0.00023222786
-1.3678632
0.088864997
-0.18335548
-0.07088719
-0.18738337
-0.23069533
-0.16483937
-0.22978239
-0.17090904
-0.13565439
-0.18109071
0.032783743
-0.20253017
0.15240635
-0.23929629
0.16016993
-0.28214665
0.11123883
-0.3231067
0.027573831
-0.35541139
-0.066020891
-0.36549706
-0.10467588
-0.36369288
-0.088411566
-0.3692466
-0.054502218
-0.38911062
-0.025179273
-0.41838329
-0.0064238207
-0.45317793
0.0031360679
-0.49128596
0.0064645248
-0.53126419
0.0061550578
-0.57236821
0.0042704555
-0.61448883
0.0021963219
-0.65801711
0.00061157939
-0.70359457
-0.00034400655
-0.75187316
-0.00080514912
-0.8033729
-0.00096327905
-0.85846095
-0.00097417448
-0.91740847
-0.00093386974
-0.98047509
-0.00085895785
-1.0478758
-0.00075077977
-1.1199387
-0.00061126376
-1.196955
-0.00043696396
-1.2794026
-0.00023052896
-1.3676327
0.091744649
-0.17727345
-0.07178375
-0.18245892
-0.24021571
-0.17786299
-0.23895236
-0.1556694
-0.14132959
-0.16523384
0.037108219
-0.18541518
0.16981853
-0.21994235
0.18175684
-0.2608832
0.13020471
-0.30111253
0.038431083
-0.33396396
-0.071526608
-0.34990567
-0.12414696
-0.34602598
-0.10816388
-0.34394057
-0.066150724
-0.35759809
-0.029115214
-0.38517468
-0.005870766
-0.41893635
0.0060345767
-0.45607644
0.010182046
-0.49500348
0.0096576849
-0.53476682
0.0069745557
-0.57507231
0.0039431364
-0.61623564
0.0015434182
-0.65894895
4.139059e-05
-0.70397996
-0.00071405542
-0.75196425
-0.0009986024
-0.80333757
-0.0010477486
-0.85838737
-0.0010109817
-0.91733136
-0.0009456123
-0.98038844
-0.00085762181
-1.047769
-0.00074886007
-1.1198011
-0.0006084434
-1.1967835
-0.00043359236
-1.2791995
-0.0002280806
-1.3674046
0.094692507
-0.17108482
-0.072014754
-0.17704244
-0.24878701
-0.17388761
-0.24904417
-0.16777118
-0.14606623
-0.15093276
0.041544245
-0.16966986
0.18627418
-0.20187084
0.20221192
-0.24039743
0.14873241
-0.2794109
0.048867715
-0.31154916
-0.075067669
-0.33042289
-0.1448322
-0.32922043
-0.13121513
-0.32297472
-0.081325588
-0.32876571
-0.033411257
-0.35330205
-0.0047417615
-0.38630368
0.0097766836
-0.42267846
0.014904507
-0.4607989
0.014183172
-0.49952897
0.01055745
-0.53834971
0.0063147251
-0.5774439
0.002826663
-0.61751889
0.00056365282
-0.65947121
-0.00061207089
-0.70408195
-0.0010718941
-0.75189096
-0.0011619435
-0.80322338
-0.0011114814
-0.85828687
-0.0010297831
-0.91724718
-0.00094424853
-0.98030181
-0.00085379415
-1.047664
-0.00074449275
-1.1196651
-0.00060315627
-1.1966139
-0.00042881651
-1.2789988
-0.00022502504
-1.3671796
0.097694753
-0.16513254
-0.071658074
-0.1714415
-0.25616408
-0.16966538
-0.25800941
-0.16492238
-0.1552532
-0.15858421
0.045943667
-0.15533218
0.20162197
-0.18501765
0.22121599
-0.2208749
0.16626501
-0.25793003
0.058411185
-0.28895437
-0.079543416
-0.30707342
-0.16520793
-0.31004716
-0.15688596
-0.3035496
-0.10090531
-0.303395
-0.039248836
-0.32292813
-0.0028515016
-0.35519231
0.014480406
-0.3910074
0.020745382
-0.42851933
0.019876729
-0.46649245
0.015186972
-0.50415849
0.0094617334
-0.54149672
0.0045595691
-0.57917681
0.00125729
-0.61821252
-0.00051118069
-0.6595721
-0.0012201376
-0.7039337
-0.0013576012
-0.7516953
-0.0012702651
-0.80306459
-0.0011390337
-0.85817762
-0.0010260613
-0.91716537
-0.00093424066
-0.98022137
-0.00084507369
-1.0475634
-0.00073607381
-1.1195321
-0.00059583498
-1.1964469
-0.00042296692
-1.2788008
-0.00022153605
-1.3669581
0.10072173
-0.15961116
-0.070792248
-0.16599836
-0.2621353
-0.16547027
-0.26569045
-0.16198433
-0.1634467
-0.15672888
0.042448129
-0.15508867
0.21589586
-0.16960607
0.2387379
-0.20253956
0.18253756
-0.23714745
0.067058222
-0.26657707
-0.085527788
-0.28296999
-0.1848674
-0.28741395
-0.18294754
-0.28398559
-0.12348397
-0.28097094
-0.048057722
-0.29458611
-0.00023713613
-0.32554249
0.02030154
-0.36101344
0.027792634
-0.39805466
0.026864166
-0.43550677
0.02102965
-0.47233513
0.013551541
-0.5082483
0.0068602283
-0.54379738
0.0021722269
-0.58009174
-0.00042298991
-0.61830071
-0.0014916607
-0.65930058
-0.0016921993
-0.70359911
-0.0015378117
-0.75142776
-0.0013125177
-0.80289111
-0.0011295459
-0.85807414
-0.0010053682
-0.91709424
-0.0009169354
-0.9801495
-0.00083160106
-1.0474679
-0.00072556605
-1.1194024
-0.00058730036
-1.1962826
-0.00041637332
-1.278606
-0.00021776709
-1.3667403
0.10372255
-0.15459965
-0.069456049
-0.16094735
-0.26665391
-0.16147975
-0.27203494
-0.15912578
-0.17061143
-0.1548196
0.039381182
-0.15366193
0.22340379
-0.1625966
0.254606
-0.18547417
0.19737557
-0.21737756
0.074815487
-0.24490472
-0.091942165
-0.26016269
-0.20354429
-0.26429311
-0.20630613
-0.26405535
-0.14634563
-0.26112393
-0.059896181
-0.26913248
0.0024249251
-0.29724817
0.027452217
-0.33269317
0.036097491
-0.3693183
0.035234932
-0.40642542
0.02823493
-0.44271205
0.018762398
-0.47754599
0.0098720844
-0.51126015
0.0033689213
-0.54499408
-0.00036859774
-0.58014614
-0.0019461581
-0.61784622
-0.0022396397
-0.65875314
-0.0019818369
-0.70315508
-0.001603443
-0.75113683
-0.0012921524
-0.8027285
-0.0010899589
-0.85798955
-0.00097194288
-0.91703924
-0.00089350577
-0.9800876
-0.00081541349
-1.0473781
-0.00071351586
-1.1192762
-0.00057771498
-1.1961213
-0.00040926028
-1.2784145
-0.0002138874
-1.3665264
0.10665959
-0.15023327
-0.067640296
-0.1564154
-0.26973111
-0.15787016
-0.27704279
-0.15647191
-0.17669362
-0.15304359
0.036720508
-0.15215893
0.23092339
-0.16118153
0.26742831
-0.17541891
0.2106082
-0.1987068
0.081523855
-0.22408593
-0.098533807
-0.23831308
-0.22131137
-0.24239561
-0.2268859
-0.24371335
-0.16779713
-0.24260385
-0.074087427
-0.24693268
0.0041990213
-0.27090658
0.036052395
-0.30584835
0.045647242
-0.34224292
0.045020938
-0.37910431
0.036918489
-0.41510898
0.025271405
-0.44922105
0.013761296
-0.4814352
0.0049341296
-0.51282536
-0.00034820612
-0.54501447
-0.0026514218
-0.57944087
-0.0030924087
-0.61699345
-0.0026892034
-0.65804577
-0.0020811353
-0.70267739
-0.0015639623
-0.75086502
-0.0012202446
-0.80259822
-0.0010281075
-0.85793338
-0.00092944121
-0.9170033
-0.00086652413
-0.98003649
-0.00079749902
-1.0472941
-0.00070025662
-1.1191537
-0.00056753203
-1.195963
-0.00040203278
-1.2782263
-0.00021005321
-1.3663164
0.1095575
-0.14671282
-0.06526065
-0.15261291
-0.2713975
-0.15474901
-0.28073634
-0.15417661
-0.18164722
-0.15151831
0.034548944
-0.15087202
0.23822333
-0.15945887
0.27988812
-0.17364134
0.22602457
-0.19083529
0.087289974
-0.20447292
-0.10510454
-0.2175152
-0.23816392
-0.22146052
-0.24578989
-0.22349162
-0.18732001
-0.22419047
-0.089509891
-0.22718138
0.0041368337
-0.24687049
0.045690476
-0.28054466
0.056544142
-0.31674525
0.056168703
-0.35339069
0.047153011
-0.38933883
0.033248693
-0.42308627
0.018718403
-0.45417816
0.006980275
-0.48348135
-0.00036509399
-0.51280847
-0.0036937425
-0.54397215
-0.0043640486
-0.57816923
-0.0037695441
-0.61591311
-0.0028345424
-0.65729237
-0.0020099136
-0.70223144
-0.0014394895
-0.75064578
-0.0011111544
-0.80251517
-0.00095250881
-0.85791032
-0.00088276848
-0.91698706
-0.00083831953
-0.97999567
-0.00077895519
-1.0472154
-0.0006868375
-1.1190343
-0.00055750294
-1.1958075
-0.00039497424
-1.2780414
-0.00020638801
-1.36611
-0.14418546
0.11243087
-0.062307895
-0.14966558
-0.27169275
-0.15231767
-0.28315223
-0.15233312
-0.18549815
-0.15032568
0.033030485
-0.14999985
0.24514781
-0.15779651
0.29173888
-0.17130963
0.24082914
-0.18844591
0.10236523
-0.20591055
-0.11116652
-0.19841094
-0.25386296
-0.20181616
-0.26311905
-0.20413136
-0.20492505
-0.20588658
-0.10471268
-0.20898768
0.0019542792
-0.22499883
0.055621273
-0.25680129
0.068770131
-0.29277065
0.068604381
-0.32918093
0.058971826
-0.3652095
0.042849605
-0.39893974
0.024960537
-0.4293284
0.009658356
-0.45685624
-0.00040446305
-0.48344198
-0.0051666347
-0.51133558
-0.0061948409
-0.54214135
-0.0053580251
-0.57658075
-0.0039747177
-0.61477293
-0.0027121195
-0.65659016
-0.0018034982
-0.70186743
-0.0012558674
-0.75050106
-0.00098157894
-0.8024861
-0.00087259141
-0.85792049
-0.00083625455
-0.91698912
-0.00081061197
-0.97996401
-0.00076106897
-1.0471412
-0.00067399136
-1.1189179
-0.00054785991
-1.1956546
-0.00038829064
-1.2778595
-0.00020297095
-1.365907
-0.14761275
-0.058880602
-0.14267128
0.11528465
-0.27069668
-0.15066164
-0.28443066
-0.15103924
-0.18832424
-0.14950703
0.032122877
-0.14941807
0.25173959
-0.15659164
0.30260252
-0.16866014
0.25475541
-0.18523591
0.11690702
-0.20298769
-0.10374124
-0.21333583
-0.26847046
-0.18380344
-0.27879786
-0.18613735
-0.22064603
-0.18841039
-0.11868434
-0.19191492
-0.001808422
-0.20522498
0.065267864
-0.23464542
0.082188573
-0.27021973
0.082207634
-0.3063739
0.07233154
-0.34254065
0.054209492
-0.37656939
0.032726767
-0.40670597
0.013164049
-0.4328341
-0.00042697885
-0.45683373
-0.007172032
-0.48143658
-0.0087536134
-0.50877681
-0.007620014
-0.53987937
-0.0056365428
-0.57491893
-0.0037709731
-0.61371408
-0.0023813447
-0.65601231
-0.0015055162
-0.70161778
-0.0010410575
-0.75044159
-0.00084680007
-0.80251189
-0.00079456911
-0.85796218
-0.00079195141
-0.91700778
-0.00078483716
-0.97994024
-0.0007445753
-1.0470706
-0.00066209197
-1.1188036
-0.00053897642
-1.1955039
-0.00038216821
-1.2776803
-0.00019986057
-1.3657071
-0.14966841
-0.26864103
-0.14659427
-0.054957614
-0.14242859
0.11799826
-0.28479859
-0.15029371
-0.19021504
-0.14914843
0.031751728
-0.14913588
0.25800078
-0.15567925
0.31211049
-0.16609961
0.2674164
-0.18132113
0.13050469
-0.19883358
-0.095341454
-0.21138747
-0.27442489
-0.2073814
-0.29298226
-0.16961904
-0.23456733
-0.17221605
-0.13105957
-0.17603515
-0.0063508728
-0.18737247
0.07423327
-0.21419038
0.096571704
-0.24902855
0.09685971
-0.28487181
0.08711011
-0.32115247
0.067413337
-0.35574449
0.042264956
-0.38610758
0.017745636
-0.41128756
-0.0003605071
-0.43290057
-0.0098219739
-0.45418379
-0.012242145
-0.47794805
-0.010754283
-0.50564254
-0.0079811537
-0.53753475
-0.0053051964
-0.5733847
-0.0032551802
-0.61284024
-0.0019122398
-0.65560559
-0.0011602468
-0.70149859
-0.00081886789
-0.75046952
-0.00071644338
-0.80259002
-0.00072121698
-0.85803291
-0.00075199753
-0.91704062
-0.00076222068
-0.9799226
-0.00073007202
-1.0470026
-0.00065163395
-1.118691
-0.00053111039
-1.195355
-0.00037668991
-1.2775035
-0.00019707207
-1.3655101
-0.15019952
-0.28426748
-0.14986546
-0.26536984
-0.14642975
-0.050956447
-0.14302727
0.1206386
-0.19121472
-0.14929404
0.032017381
-0.14941409
0.26384597
-0.15498107
0.32023204
-0.1638008
0.27835764
-0.17704085
0.1426323
-0.19344874
-0.086865073
-0.20730996
-0.27899464
-0.20681772
-0.30604571
-0.19431795
-0.24686101
-0.15732535
-0.14187935
-0.16139627
-0.011113277
-0.17127275
0.082364652
-0.19550386
0.11155381
-0.22917249
0.11243434
-0.26460318
0.1031363
-0.300898
0.082501844
-0.33624098
0.0538251
-0.36730463
0.023703712
-0.39206565
-9.0056172e-05
-0.41155801
-0.01323621
-0.42948633
-0.016898107
-0.44952782
-0.014999263
-0.47370307
-0.011197302
-0.50242639
-0.0074515596
-0.53538839
-0.0045189068
-0.57212098
-0.0025362104
-0.61221627
-0.001373368
-0.65539247
-0.00080473769
-0.70151272
-0.00060573724
-0.75058022
-0.00059569259
-0.80271554
-0.00065661385
-0.8581283
-0.00071869893
-0.91708414
-0.00074371071
-0.97990896
-0.0007182284
-1.046936
-0.00064294488
-1.1185791
-0.00052432967
-1.1952074
-0.00037188586
-1.2773287
-0.00019459672
-1.3653155
-0.15036793
-0.19104631
-0.15158756
-0.28254537
-0.15060839
-0.26119121
-0.14709343
-0.046890285
-0.14448532
0.12298199
0.03314193
-0.15041859
0.26921169
-0.15477981
0.32709985
-0.16184889
0.28721844
-0.1726616
0.15316441
-0.18757297
-0.078269327
-0.20204448
-0.28213471
-0.2041699
-0.31773346
-0.19512997
-0.26465131
-0.17652765
-0.15135458
-0.14785012
-0.015711424
-0.15679812
0.089599094
-0.17850719
0.12673048
-0.21068052
0.12874691
-0.24548506
0.1201932
-0.28166008
0.099413699
-0.31780985
0.067630956
-0.35004684
0.031389554
-0.37499048
0.0005585781
-0.39271429
-0.017541983
-0.40725224
-0.023005776
-0.42337867
-0.020639798
-0.44388729
-0.015502182
-0.46939819
-0.010363406
-0.49951455
-0.0062752797
-0.53363202
-0.0034434393
-0.57121375
-0.0017181432
-0.6118715
-0.00082151712
-0.65537569
-0.00046597405
-0.70165248
-0.00041107143
-0.75076485
-0.00049060964
-0.80288155
-0.00060447931
-0.85824252
-0.00069322335
-0.91713463
-0.00073008417
-0.9798971
-0.00070941822
-1.0468695
-0.00063605479
-1.1184674
-0.00051868289
-1.1950606
-0.00036774073
-1.2771555
-0.00019241259
-1.3651231
-0.15240267
0.03517667
-0.15291277
-0.18972109
-0.15347692
-0.27967684
-0.15202917
-0.25625547
-0.14837598
-0.042999623
-0.14664571
0.1248105
0.27406576
-0.15527266
0.33262032
-0.16030028
0.29393193
-0.16856238
0.16165919
-0.18115637
-0.069962637
-0.19587966
-0.28374412
-0.20043507
-0.32786083
-0.19404253
-0.28090899
-0.17887229
-0.17269191
-0.15519033
-0.019870143
-0.14369141
0.095952325
-0.16315136
0.14175486
-0.19353157
0.14553363
-0.22746724
0.13799789
-0.26328976
0.11785751
-0.30010389
0.083620225
-0.33379912
0.041002636
-0.35965992
0.0018063392
-0.37623824
-0.022848864
-0.3874074
-0.030903714
-0.3993543
-0.028012588
-0.41600588
-0.021141454
-0.43824802
-0.014206183
-0.46555541
-0.0086324097
-0.49715742
-0.0047018564
-0.5323736
-0.0022326781
-0.57069921
-0.00088623698
-0.61180678
-0.0002986567
-0.65554301
-0.00016024284
-0.70190331
-0.00024298006
-0.75101248
-0.00040692195
-0.8030791
-0.0005663086
-0.85836943
-0.0006761658
-0.91718855
-0.00072155616
-0.97988497
-0.00070357578
-1.046802
-0.00063095717
-1.1183551
-0.00051410409
-1.1949142
-0.00036418952
-1.2769838
-0.0001904726
-1.3649326
-0.15654471
0.2782078
-0.15518544
0.037449336
-0.15622476
-0.18697325
-0.15611223
-0.27559378
-0.15407676
-0.25055469
-0.15018571
-0.039459625
-0.14936888
0.12610285
0.33662418
-0.15927651
0.29857913
-0.16494748
0.16806778
-0.17497097
-0.062447077
-0.18867193
-0.28420536
-0.19541841
-0.33650279
-0.19179311
-0.29551822
-0.1794333
-0.1925333
-0.1590309
-0.040568566
-0.1344919
0.1018408
-0.14957988
0.1562397
-0.1776362
0.16251078
-0.21050872
0.15618631
-0.24565566
0.13723377
-0.28266601
0.10108898
-0.31757265
0.052056716
-0.3448532
0.0034581803
-0.36131176
-0.029344441
-0.36974266
-0.040953351
-0.37735777
-0.037508843
-0.38985805
-0.028386511
-0.40876082
-0.019149207
-0.43330499
-0.011697526
-0.4624903
-0.0063754212
-0.49548385
-0.0029527398
-0.53165354
-0.0010116085
-0.57057384
-0.00010343134
-0.612002
0.00016667922
-0.65586993
0.00010183531
-0.70224813
-0.00010947836
-0.75130992
-0.00034680635
-0.80329861
-0.00054233414
-0.85850326
-0.00066753102
-0.91724258
-0.00071792723
-0.97987061
-0.00070061547
-1.0467323
-0.00062756448
-1.1182417
-0.00051048392
-1.1947679
-0.00036114696
-1.2768131
-0.00018873313
-1.3647438
-0.15893816
0.33901762
-0.15790992
0.28093228
-0.15915831
0.040382884
-0.16035161
-0.18273387
-0.1594957
-0.27017484
-0.1567977
-0.24394269
-0.1526375
-0.036190997
-0.15255109
0.12681457
0.30123782
-0.16193521
0.17210784
-0.16898754
-0.056334423
-0.18108363
-0.2833031
-0.18957419
-0.3435107
-0.18841051
-0.30837898
-0.17893235
-0.21078629
-0.16118031
-0.06098103
-0.13861843
0.092296927
-0.12494803
0.17024014
-0.16358032
0.17934309
-0.1944685
0.17431745
-0.22863986
0.15677915
-0.26520105
0.11868914
-0.30026617
0.063402327
-0.32891826
0.0042720101
-0.34566703
-0.03816183
-0.35249437
-0.053719245
-0.35697677
-0.049594754
-0.36527186
-0.037536098
-0.38070846
-0.025354605
-0.40255542
-0.015566109
-0.42943641
-0.0085187595
-0.46034696
-0.0039057988
-0.49453079
-0.0012053317
-0.53145982
0.00012806861
-0.57080534
0.00059059626
-0.61242592
0.00056562864
-0.65633372
0.0003099252
-0.70266753
-1.4251462e-05
-0.75164247
-0.0003100761
-0.80353087
-0.00053215244
-0.85863864
-0.00066683964
-0.91729366
-0.0007188486
-0.97985238
-0.00070028101
-1.0466596
-0.0006256176
-1.1181265
-0.00050766044
-1.1946214
-0.00035850787
-1.2766433
-0.00018713769
-1.3645567
-0.15962831
0.30192798
-0.15854117
0.33964887
-0.16072214
0.28249611
-0.16385696
0.043888235
-0.16515543
-0.17707415
-0.16362549
-0.26334706
-0.1601544
-0.2364258
-0.15562012
-0.033121969
-0.15615866
0.12686731
0.17380314
-0.1636305
-0.051550949
-0.17377102
-0.28102312
-0.18336361
-0.34876185
-0.18432304
-0.31925153
-0.17753796
-0.22732389
-0.16239475
-0.080372658
-0.14178868
0.081302992
-0.1276245
0.17407568
-0.12878357
0.19580459
-0.18004182
0.19194793
-0.21209898
0.17574373
-0.24760445
0.13554232
-0.28205422
0.073684861
-0.3105487
0.0031388019
-0.32778505
-0.051555026
-0.33227384
-0.070346507
-0.33586711
-0.064796214
-0.34177531
-0.04893164
-0.35387631
-0.032967277
-0.37309579
-0.020308225
-0.39781331
-0.011170303
-0.42678486
-0.0051045652
-0.45914819
-0.0014659032
-0.49427022
0.00041156099
-0.53174331
0.0011321894
-0.57134694
0.0011755962
-0.61303589
0.00087975972
-0.65690356
0.00045820551
-0.70313999
4.3631328e-05
-0.75199618
-0.00029554011
-0.80376748
-0.00053473464
-0.85877075
-0.00067332135
-0.91733919
-0.00072378757
-0.97982887
-0.00070213445
-1.0465831