/*--------------------------------*- C++ -*----------------------------------*\
| =========                 |                                                 |
| \\      /  F ield         | OpenFOAM: The Open Source CFD Toolbox           |
|  \\    /   O peration     | Version:  5.0                                   |
|   \\  /    A nd           | Web:      www.OpenFOAM.org                      |
|    \\/     M anipulation  |                                                 |
\*---------------------------------------------------------------------------*/
FoamFile
{
    version     2.0;
    format      ascii;
    class       surfaceScalarField;
    location    "240";
    object      phi_0;
}
// * * * * * * * * * * * * * * * * * * * * * * * * * * * * * * * * * * * * * //

dimensions      [0 3 -1 0 0 0 0];

internalField   nonuniform List<scalar> 
18180
(
-0.0019017214
-1.3896902
-0.0037022771
-1.2997114
-0.0018499888
-1.3878402
-0.005392276
-1.21569
-0.003603591
-1.2979578
-0.00176056
-1.3860797
-0.0069943669
-1.137205
-0.0052649549
-1.2140287
-0.0034312943
-1.2962871
-0.0016339687
-1.3844457
-0.008490978
-1.0638701
-0.0068526004
-1.1356174
-0.0050217073
-1.2124382
-0.0031858087
-1.2947352
-0.0014971205
-1.3829486
-0.0098657196
-0.9953445
-0.008371862
-1.0623509
-0.0065524521
-1.1340866
-0.0046641452
-1.2109599
-0.002915041
-1.2933173
-0.0013627857
-1.3815858
-0.011083519
-0.93130888
-0.0098257191
-0.99389064
-0.0080415286
-1.0608618
-0.0060906865
-1.1326601
-0.0042613962
-1.2096135
-0.0026466894
-1.2920334
-0.0012476531
-1.3803381
-0.012111128
-0.87148733
-0.01121188
-0.92992272
-0.0095122167
-0.99241996
-0.0074875089
-1.059465
-0.0055503564
-1.1313711
-0.0038583774
-1.2084019
-0.0024154714
-1.2908656
-0.0011551061
-1.379183
-0.012924193
-0.8156149
-0.012528882
-0.87017033
-0.011002122
-0.92843281
-0.0088889966
-0.99101847
-0.0067961412
-1.0582192
-0.0050029034
-1.1302266
-0.0035120651
-1.2073053
-0.0022314059
-1.2897893
-0.0010816889
-1.3781013
-0.013416253
-0.76349352
-0.013751895
-0.81439188
-0.01257011
-0.86860234
-0.010351508
-0.9269703
-0.0080209924
-0.98979362
-0.0060830701
-1.057139
-0.0045358247
-1.1292028
-0.0032416041
-1.2062951
-0.0020900067
-1.288781
-0.0010194826
-1.3770819
-0.013487093
-0.71486464
-0.014951475
-0.76229394
-0.014326547
-0.81263545
-0.011942174
-0.86701167
-0.0092562927
-0.925735
-0.0071
-0.98877669
-0.0054832766
-1.0561916
-0.0041825022
-1.1282619
-0.0030409035
-1.2053442
-0.0019749071
-1.2878256
-0.00096117449
-1.3761207
-0.013053575
-0.6696181
-0.016296071
-0.71352005
-0.016426694
-0.76019379
-0.013765855
-0.81081177
-0.010535012
-0.86573295
-0.0080509674
-0.92478403
-0.0063388902
-0.98792107
-0.0050512726
-1.0553228
-0.0039339906
-1.1273688
-0.0028819799
-1.2044371
-0.0018683472
-1.2869184
-0.00090125457
-1.3752194
-0.01200761
-0.62758028
-0.017907948
-0.66800622
-0.018883724
-0.71106302
-0.015875509
-0.75808414
-0.011890555
-0.80945622
-0.0089294437
-0.86485448
-0.0070767721
-0.92404615
-0.0058281336
-0.98714421
-0.0047702477
-1.0544866
-0.0037450138
-1.1265058
-0.0027343429
-1.2035711
-0.0017561611
-1.2860635
-0.00083590557
-1.3743835
-0.010273914
-0.58850458
-0.01981915
-0.62566908
-0.021819005
-0.66507094
-0.018355257
-0.70858327
-0.013345929
-0.75662876
-0.0097042989
-0.80868137
-0.0076593748
-0.86427187
-0.0064806934
-0.92339359
-0.0055351744
-0.98637929
-0.004569196
-1.0536624
-0.0035688805
-1.1256713
-0.0025749264
-1.2027523
-0.0016297369
-1.2852696
-0.00076344277
-1.3736201
-0.0077982881
-0.55217419
-0.02203703
-0.5862867
-0.025502157
-0.62198593
-0.021389606
-0.66203659
-0.014967127
-0.70696207
-0.010313815
-0.75601925
-0.0080216829
-0.80831906
-0.0069607834
-0.86379178
-0.0062017158
-0.92272705
-0.0053510113
-0.98559747
-0.0043827894
-1.0528485
-0.0033713152
-1.1248749
-0.0023904627
-1.2019916
-0.001486765
-1.2845463
-0.00068514854
-1.3729349
-0.0046026057
-0.51828838
-0.024610513
-0.5496007
-0.03018795
-0.58160091
-0.025176596
-0.61819894
-0.016821161
-0.66018256
-0.010738124
-0.70653776
-0.0080358908
-0.75600504
-0.0071750374
-0.80810481
-0.0067200881
-0.86327341
-0.006076588
-0.92200147
-0.005186752
-0.98479351
-0.0041633188
-1.0520565
-0.0031326231
-1.1241327
-0.002177593
-1.2013008
-0.0013310973
-1.2839004
-0.00060493093
-1.37233
-0.00062140391
-0.48661459
-0.027596598
-0.5153023
-0.036113716
-0.54367494
-0.029922805
-0.5768547
-0.018983861
-0.61603624
-0.010924065
-0.65999662
-0.0075901287
-0.70698352
-0.0070216792
-0.7561584
-0.0070058906
-0.807819
-0.0067121704
-0.86263783
-0.0059923399
-0.92119588
-0.0049727704
-0.98398405
-0.0038782843
-1.0513108
-0.0028487447
-1.1234616
-0.0019430739
-1.2006888
-0.0011709999
-1.2833343
-0.00052763008
-1.3718024
0.0043490325
-0.45729932
-0.031092621
-0.48311856
-0.043510707
-0.50790531
-0.035825391
-0.53777235
-0.021547717
-0.57429084
-0.010804733
-0.61615557
-0.0065595522
-0.66102719
-0.0063315393
-0.70767366
-0.0070694537
-0.75609483
-0.007257568
-0.80727361
-0.0068164432
-0.86181372
-0.0058373891
-0.92033127
-0.0046549578
-0.98320738
-0.0035193017
-1.0506402
-0.002529964
-1.1228747
-0.0017005926
-1.2001592
-0.0010163232
-1.2828456
-0.00045734505
-1.371345
0.010887427
-0.43095007
-0.034873241
-0.4535187
-0.052479901
-0.47414937
-0.043014549
-0.50071615
-0.024597563
-0.5347225
-0.010309014
-0.57478656
-0.0047790025
-0.61793612
-0.004948812
-0.66240992
-0.0067757737
-0.70796734
-0.0077516023
-0.7556008
-0.007728317
-0.80636173
-0.0068164941
-0.86083462
-0.0055082389
-0.91947798
-0.0042162691
-0.98251041
-0.0031039424
-1.0500663
-0.0021968612
-1.1223784
-0.0014659719
-1.1997096
-0.0008757233
-1.2824272
-0.00039683701
-1.3709482
0.0190179
-0.40718333
-0.038306617
-0.42751669
-0.06305836
-0.44294024
-0.051608256
-0.46555566
-0.028163109
-0.4971506
-0.0093553237
-0.53567619
-0.002059312
-0.57750625
-0.0026760408
-0.62020889
-0.0059374768
-0.66324822
-0.0081706658
-0.70754828
-0.0087507157
-0.7545784
-0.0079904313
-0.80518779
-0.0065064862
-0.85983637
-0.0049770189
-0.91871723
-0.0036836493
-0.98193071
-0.0026644087
-1.0495987
-0.0018732608
-1.1219711
-0.0012528749
-1.1993324
-0.00075503094
-1.282069
-0.00034769394
-1.3706005
0.027504648
-0.38316177
-0.040321269
-0.40516868
-0.075351175
-0.41522388
-0.061983826
-0.43256467
-0.032311686
-0.46140708
-0.00786568
-0.49864024
0.0018097273
-0.53954523
0.000717804
-0.58090009
-0.004384478
-0.62176189
-0.0084384368
-0.66298044
-0.0099419784
-0.70635701
-0.0094096246
-0.75315921
-0.0077187842
-0.80397549
-0.0058555416
-0.85895785
-0.0042943314
-0.91810655
-0.0031102839
-0.98148483
-0.0022362419
-1.0492357
-0.00157973
-1.1216443
-0.0010703911
-1.1990171
-0.00065694502
-1.2817598
-0.00031040054
-1.3702901
0.036338833
-0.35806347
-0.040554706
-0.38292833
-0.08977835
-0.3907415
-0.074920825
-0.40228688
-0.037467664
-0.42740869
-0.0057473698
-0.46352539
0.00703882
-0.50386934
0.0054938921
-0.54432132
-0.0019171226
-0.58336745
-0.0084652086
-0.62173512
-0.011390697
-0.66153173
-0.011207926
-0.70455871
-0.0092337608
-0.75164423
-0.0069089028
-0.80292213
-0.0049667588
-0.85828542
-0.0035456735
-0.91767116
-0.0025518385
-0.98116923
-0.0018499626
-1.0489655
-0.0013302484
-1.1213844
-0.00092258945
-1.1987514
-0.00058146459
-1.2814887
-0.00028406589
-1.370006
0.045168586
-0.33296942
-0.040504506
-0.35811367
-0.10518347
-0.36752321
-0.091287228
-0.3743751
-0.044603768
-0.39515077
-0.0030048174
-0.43015124
0.013820939
-0.47030751
0.011905562
-0.51028101
0.0016911982
-0.54792964
-0.0081554734
-0.58367718
-0.013174792
-0.61995102
-0.013556147
-0.65918351
-0.011202862
-0.70258961
-0.0082222755
-0.75033086
-0.0057372307
-0.80215166
-0.0039777181
-0.85785338
-0.0028165096
-0.91740649
-0.0020533094
-0.98096589
-0.0015262535
-1.0487695
-0.0011313226
-1.1211757
-0.00080939274
-1.1985235
-0.00052658532
-1.2812462
-0.00026633093
-1.3697397
0.053281483
-0.30749367
-0.042100212
-0.33137371
-0.12098566
-0.34231148
-0.11115465
-0.34765579
-0.054494909
-0.36448396
0.0001439011
-0.39829949
0.022365489
-0.43869579
0.020208392
-0.47861034
0.0066988618
-0.51528867
-0.0074002162
-0.5486849
-0.01538659
-0.58146539
-0.016659354
-0.61684781
-0.013808999
-0.65657737
-0.0099066494
-0.70090524
-0.0066535346
-0.74941455
-0.0044135087
-0.80171587
-0.0030172384
-0.85765265
-0.0021739908
-0.91728581
-0.0016438707
-0.98084827
-0.0012744304
-1.0486264
-0.00098247337
-1.1210026
-0.00072793298
-1.1983221
-0.00048900533
-1.2810235
-0.0002541767
-1.3694855
0.060720831
-0.28249841
-0.044843769
-0.30475011
-0.13719003
-0.31516934
-0.13185142
-0.32161471
-0.066800891
-0.33534981
0.0035296015
-0.36786966
0.032924931
-0.40885893
0.030636876
-0.44912428
0.013383818
-0.4852953
-0.0060586418
-0.51663024
-0.018138637
-0.54593285
-0.020767987
-0.57735675
-0.017280428
-0.61337638
-0.01210103
-0.65438299
-0.0077700508
-0.69978872
-0.0048590222
-0.74896904
-0.0031339727
-0.80159914
-0.0021845924
-0.85764205
-0.0016605157
-0.91726916
-0.0013352362
-0.98078746
-0.0010930879
-1.0485158
-0.00087803466
-1.1208525
-0.0006734954
-1.1981376
-0.00046475702
-1.280813
-0.00024519709
-1.3692403
0.067363502
-0.25838293
-0.047641144
-0.27970104
-0.15265553
-0.28928462
-0.15052066
-0.2965001
-0.080162647
-0.30825295
0.0071930994
-0.33901331
0.045666445
-0.38061117
0.043377067
-0.42159912
0.021952642
-0.4576931
-0.0040039125
-0.48735003
-0.021563959
-0.51320492
-0.026177171
-0.54052367
-0.021877265
-0.57275992
-0.014970178
-0.61050724
-0.0091536451
-0.65299939
-0.0053159437
-0.6993318
-0.0031374374
-0.74896558
-0.002046275
-0.80173745
-0.0015413792
-0.85776118
-0.0012905776
-0.91731382
-0.0011238577
-0.98075669
-0.00097246973
-1.0484213
-0.00080993915
-1.120716
-0.00064004365
-1.1979624
-0.00045002034
-1.2806081
-0.00023853583
-1.3690018
0.073253694
-0.23569842
-0.050455697
-0.25556838
-0.16748372
-0.26487284
-0.16717695
-0.27262833
-0.093214853
-0.28344789
0.010735241
-0.3117951
0.060440889
-0.35378775
0.058437247
-0.39567135
0.032419974
-0.43206646
-0.0011531432
-0.46054387
-0.025822633
-0.48309136
-0.033228485
-0.50615361
-0.027893145
-0.53450779
-0.01869029
-0.5690398
-0.010875393
-0.60878549
-0.0057809936
-0.65253434
-0.0029864148
-0.69948282
-0.0017052825
-0.74930657
-0.0012381853
-0.80204065
-0.0011054589
-0.8579463
-0.0010554352
-0.91738224
-0.00099525398
-0.98073391
-0.00089842214
-1.0483329
-0.00076974684
-1.1205863
-0.00062127452
-1.1977911
-0.00044200284
-1.2804047
-0.0002344499
-1.3687673
0.078468044
-0.21464362
-0.053191052
-0.23296306
-0.1815231
-0.24152899
-0.18274724
-0.24930255
-0.10561983
-0.26022335
0.013589705
-0.28630235
0.076856085
-0.32821029
0.075622678
-0.37097318
0.04466909
-0.40792047
0.0023571823
-0.43557678
-0.031237942
-0.45512856
-0.042315353
-0.47400449
-0.035652265
-0.49839449
-0.02345288
-0.5297452
-0.013008204
-0.56690699
-0.0062430977
-0.60832338
-0.0026255435
-0.65289522
-0.0010908502
-0.70009726
-0.00068518972
-0.74985957
-0.00073130404
-0.8024148
-0.00085933805
-0.8581424
-0.00093195136
-0.91744555
-0.00092807188
-0.98070426
-0.00085652042
-1.0482461
-0.0007492845
-1.1204583
-0.00061223486
-1.1976209
-0.00043880184
-1.2802003
-0.00023283465
-1.3685345
0.083084037
-0.19526845
-0.055765377
-0.2120693
-0.19464185
-0.21984431
-0.19694781
-0.22732843
-0.1167808
-0.23814158
0.01587008
-0.26250373
0.094414615
-0.30386088
0.094839206
-0.34742682
0.058871482
-0.38517557
0.0065787918
-0.41214208
-0.038253224
-0.4285615
-0.053892673
-0.44355124
-0.045490406
-0.46416635
-0.029455216
-0.49239215
-0.015617356
-0.52713605
-0.0066836636
-0.56646643
-0.0019848627
-0.60896407
-0.00011454318
-0.65387152
0.00020264905
-0.7009851
-0.00010210057
-0.75048877
-0.00049458746
-0.80277956
-0.00076522255
-0.85830913
-0.00088998723
-0.91748363
-0.00089844907
-0.98066233
-0.00083552422
-1.0481598
-0.00074197358
-1.1203286
-0.00060978652
-1.1974499
-0.0004383443
-1.2799948
-0.00023262726
-1.3683019
0.08717266
-0.17756184
-0.058087243
-0.19294658
-0.20679905
-0.19991209
-0.20982923
-0.20696289
-0.12646052
-0.2176487
0.018249145
-0.24052065
0.11262433
-0.28071344
0.11596723
-0.32498891
0.075528306
-0.36408364
0.012413361
-0.39101014
-0.04659366
-0.40380164
-0.068264699
-0.41418947
-0.057635038
-0.43140661
-0.036870414
-0.45675115
-0.0187483
-0.48926121
-0.0070683075
-0.5267514
-0.00098223798
-0.56746905
0.0013307556
-0.61040936
0.0015315957
-0.65520047
0.00086749971
-0.7019547
9.4801744e-05
-0.75107816
-0.00046768791
-0.80307709
-0.00077718513
-0.85842193
-0.00089533641
-0.91748675
-0.0008899883
-0.98060787
-0.00083467676
-1.0480671
-0.00074440337
-1.120194
-0.0006106895
-1.1972775
-0.00043852522
-1.2797889
-0.000232567
-1.3680693
0.089822077
-0.18926667
-0.060059358
-0.17558973
-0.21798256
-0.18176308
-0.22146464
-0.18827669
-0.13478005
-0.19864337
0.021010375
-0.22040993
0.13091382
-0.25881014
0.13815393
-0.30290014
0.094493636
-0.34395424
0.021109513
-0.37277979
-0.054703362
-0.38290044
-0.085005913
-0.38706043
-0.072096016
-0.3997285
-0.045718292
-0.42255873
-0.022407731
-0.45309172
-0.0073384404
-0.48899108
0.00047780493
-0.52821145
0.0033667873
-0.56950508
0.0034261817
-0.61230395
0.0022834032
-0.65661637
0.00098126236
-0.70284116
-1.5284416e-06
-0.75154432
-0.00058030044
-0.80327398
-0.00084782013
-0.85846945
-0.00092095999
-0.91745577
-0.00090201708
-0.98054053
-0.00084622312
-1.0479653
-0.00074828751
-1.1200564
-0.00061108875
-1.197105
-0.00043803926
-1.2795834
-0.00023192193
-1.3678374
0.092673925
-0.18341736
-0.061496853
-0.18782917
-0.22822072
-0.16535157
-0.23189746
-0.17133026
-0.14186988
-0.18118686
0.024283788
-0.20191678
0.14871842
-0.23821453
0.16038701
-0.28104322
0.11390619
-0.32231269
0.032361122
-0.35520585
-0.061164338
-0.36631882
-0.1030689
-0.36483745
-0.088997107
-0.37015934
-0.055882542
-0.38956425
-0.026500256
-0.41846621
-0.0074025447
-0.45302761
0.0025058256
-0.4910191
0.006124434
-0.53096909
0.0060277983
-0.5721067
0.0042725136
-0.61429306
0.0022564923
-0.6578916
0.00068295891
-0.70352564
-0.00028410461
-0.75184051
-0.00076304365
-0.80335875
-0.00093712228
-0.85845328
-0.00095814807
-0.91739964
-0.00092405926
-0.98046269
-0.00085398242
-1.0478596
-0.00074810836
-1.1199194
-0.00060993252
-1.1969331
-0.00043648672
-1.2793789
-0.00023046714
-1.3676069
0.095616627
-0.17734046
-0.062033254
-0.18288096
-0.23765567
-0.17839423
-0.24120801
-0.15604102
-0.1479058
-0.16529434
0.027930221
-0.18483329
0.16572526
-0.21892361
0.18196818
-0.2597957
0.13320581
-0.30034284
0.043717912
-0.33366948
-0.065608755
-0.35076143
-0.12210622
-0.34728149
-0.10881121
-0.34502335
-0.067928059
-0.35811382
-0.030821381
-0.38524312
-0.0071278594
-0.41874089
0.0052217221
-0.45574351
0.0097363629
-0.49463103
0.0094883947
-0.53442969
0.0069805843
-0.57481477
0.0040325722
-0.61606914
0.0016508984
-0.65885954
0.0001327125
-0.70394246
-0.00064920033
-0.75195436
-0.00095791603
-0.80333796
-0.0010239136
-0.85838752
-0.0009973124
-0.91732639
-0.00093873262
-0.98037794
-0.00085425351
-1.0477535
-0.00074721233
-1.1197821
-0.0006079038
-1.1967617
-0.00043360111
-1.2791757
-0.00022823767
-1.3673787
0.098616774
-0.17116462
-0.061937887
-0.17743583
-0.24614308
-0.17439355
-0.25133716
-0.16826507
-0.15298632
-0.1509605
0.031760518
-0.16912463
0.18181645
-0.20092449
0.20241909
-0.23937452
0.15207718
-0.27866707
0.054740539
-0.31136547
-0.067982462
-0.33129578
-0.14220291
-0.33066475
-0.13179051
-0.3243022
-0.083511475
-0.32943993
-0.035585696
-0.35334951
-0.0063185775
-0.3860524
0.008751839
-0.42227101
0.014331651
-0.4603388
0.013960191
-0.49910282
0.010567074
-0.53801618
0.0064423626
-0.57722456
0.0029838805
-0.61740212
0.00069986204
-0.65942669
-0.00051418815
-0.70407747
-0.0010100749
-0.7519022
-0.0011264494
-0.80323542
-0.0010924174
-0.85829241
-0.0010204886
-0.91724463
-0.00094018005
-0.98029201
-0.0008520699
-1.0476486
-0.00074413714
-1.1196458
-0.00060340873
-1.1965919
-0.00042926439
-1.2789747
-0.00022536635
-1.3671533
0.10165984
-0.16522022
-0.061307762
-0.17179474
-0.2534494
-0.17012951
-0.26034003
-0.16539069
-0.16237055
-0.15888084
0.035625286
-0.15482527
0.19683215
-0.18414033
0.22144546
-0.21995085
0.1699499
-0.25724724
0.065026046
-0.28895258
-0.071318504
-0.30802943
-0.16183128
-0.31166741
-0.15734091
-0.30511435
-0.10347902
-0.30433466
-0.04204122
-0.32298441
-0.0047965543
-0.35487153
0.013217673
-0.39051824
0.020023509
-0.42796287
0.019586081
-0.46596469
0.015198189
-0.50373394
0.0096373055
-0.54121112
0.0047832541
-0.57902394
0.0014560652
-0.61815833
-0.00036631938
-0.65957456
-0.0011278946
-0.70395965
-0.0013050914
-0.75172356
-0.0012431539
-0.80308469
-0.0011264957
-0.85818641
-0.0010211696
-0.91716365
-0.00093278544
-0.9802113
-0.00084520241
-1.0475476
-0.00073684887
-1.1195124
-0.0005967538
-1.1964244
-0.00042378348
-1.2787763
-0.00022202437
-1.3669313
0.10471508
-0.15969703
-0.060229156
-0.16629883
-0.25936216
-0.16588198
-0.26805516
-0.16241438
-0.17074795
-0.15701328
0.031627399
-0.15488296
0.21081096
-0.16880408
0.23900639
-0.20170126
0.18653206
-0.23653301
0.074424604
-0.2666458
-0.07628647
-0.28398461
-0.18090369
-0.28895702
-0.18343998
-0.28556833
-0.12646566
-0.28212771
-0.051650332
-0.29472554
-0.0026445987
-0.32513636
0.018782416
-0.36043627
0.026900623
-0.39739535
0.026489418
-0.4348662
0.021037837
-0.47180433
0.013784546
-0.50788118
0.0071702618
-0.54359813
0.0024558376
-0.58002371
-0.00021295245
-0.61831169
-0.0013560786
-0.65934638
-0.0016151026
-0.70364964
-0.0014987845
-0.75146793
-0.0012953665
-0.80291582
-0.0011236704
-0.85808391
-0.0010045397
-0.91709189
-0.00091804733
-0.98013845
-0.00083332483
-1.0474511
-0.00072729143
-1.1193819
-0.00058879359
-1.1962594
-0.0004174897
-1.2785808
-0.00021836139
-1.3667129
0.10772936
-0.15467397
-0.058738262
-0.16118793
-0.26382628
-0.16183471
-0.27442501
-0.15951212
-0.17807497
-0.15508736
0.028084632
-0.15347051
0.21782407
-0.16189607
0.25493182
-0.18472951
0.20166807
-0.21683728
0.082896232
-0.24500464
-0.081760555
-0.26117172
-0.19921873
-0.26566957
-0.20685417
-0.26554283
-0.14966422
-0.26236977
-0.06439139
-0.26938666
-0.00060113951
-0.296769
0.025668122
-0.33202207
0.03501845
-0.3685541
0.034758922
-0.40566485
0.028232912
-0.44206128
0.01906099
-0.47708078
0.010290526
-0.51100144
0.0037654955
-0.54490779
-6.8131784e-05
-0.58016853
-0.0017495098
-0.61791826
-0.0021277534
-0.65883373
-0.0019258554
-0.70322257
-0.0015798245
-0.75118347
-0.0012851647
-0.80275432
-0.0010903391
-0.85799811
-0.00097488058
-0.91703506
-0.00089690184
-0.98007488
-0.00081850088
-1.0473599
-0.00071609039
-1.1192546
-0.00057967744
-1.1960972
-0.00041058924
-1.2783886
-0.00021454411
-1.3664984
0.11066416
-0.15028943
-0.056822428
-0.1565898
-0.26684955
-0.15816466
-0.27945036
-0.15680936
-0.1842972
-0.15328989
0.02498374
-0.15198647
0.22486101
-0.16050745
0.26758942
-0.17455366
0.21517539
-0.19823683
0.090285328
-0.22422638
-0.087462027
-0.23930317
-0.21670078
-0.24368966
-0.22743396
-0.24508979
-0.17135511
-0.24385194
-0.07936898
-0.24739218
0.00041220571
-0.2704
0.033967985
-0.30506887
0.044375789
-0.34137941
0.044426014
-0.37822119
0.036895226
-0.41432717
0.025640546
-0.44864084
0.014311888
-0.48110214
0.0054773674
-0.51271331
7.401397e-05
-0.54504993
-0.0023705916
-0.57954745
-0.0029320373
-0.61711398
-0.0026097005
-0.65814988
-0.0020487451
-0.70275365
-0.0015558389
-0.75091279
-0.0012228199
-0.80262184
-0.0010341457
-0.85793884
-0.00093568173
-0.91699628
-0.00087178423
-0.98002159
-0.00080173334
-1.0472742
-0.000703477
-1.1191308
-0.00056980588
-1.1959379
-0.00040348351
-1.2781997
-0.00021073065
-1.3662876
0.11354532
-0.14674614
-0.054395278
-0.15271658
-0.2684602
-0.15497915
-0.28315272
-0.15446229
-0.18937114
-0.15173542
0.022416374
-0.15072253
0.23169451
-0.15881997
0.2799181
-0.17283614
0.23052404
-0.18990231
0.096673221
-0.20462472
-0.093239851
-0.21844855
-0.23331829
-0.22268565
-0.24635004
-0.22477358
-0.19106332
-0.22538158
-0.09543217
-0.22778875
-0.00058408663
-0.24639589
0.04323226
-0.27966428
0.055092069
-0.31578515
0.055434606
-0.352388
0.047091632
-0.3884176
0.033686827
-0.42237345
0.019423762
-0.45375271
0.0077104508
-0.48333522
0.0002210657
-0.51286037
-0.0032975277
-0.544123
-0.0041373222
-0.57834216
-0.0036580962
-0.61606558
-0.00279063
-0.657408
-0.0020008492
-0.70230864
-0.0014457193
-0.75068989
-0.0011220067
-0.80253398
-0.00096310564
-0.85791142
-0.0008914843
-0.91697658
-0.00084510041
-0.97997823
-0.00078402442
-1.0471937
-0.0006904739
-1.1190101
-0.00055995503
-1.1957815
-0.00039646574
-1.2780139
-0.00020704947
-1.3660806
-0.14419504
0.11639103
-0.051444699
-0.14969672
-0.26869647
-0.15248031
-0.28556876
-0.15256312
-0.19331932
-0.15051411
0.020540556
-0.1498596
0.23818562
-0.15721364
0.29166931
-0.17057117
0.24527385
-0.18758594
0.11201738
-0.20524647
-0.098588229
-0.19927634
-0.24880949
-0.20295735
-0.26372578
-0.20530991
-0.2088575
-0.2069794
-0.11114159
-0.20967216
-0.003762855
-0.22460998
0.052678914
-0.25584254
0.067147212
-0.29171942
0.067715608
-0.32806615
0.058847178
-0.36414355
0.043346208
-0.39807698
0.025839491
-0.42878918
0.010621147
-0.45666341
0.00039704156
-0.4835112
-0.0046150421
-0.51154285
-0.0058782528
-0.54238207
-0.0052041192
-0.57679614
-0.0039162515
-0.61493996
-0.0027027942
-0.65670605
-0.0018155694
-0.70193879
-0.0012739832
-0.75053792
-0.000998711
-0.80249837
-0.00088646014
-0.85791644
-0.00084688759
-0.91697479
-0.00081847284
-0.97994378
-0.00076666756
-1.0471175
-0.00067786435
-1.1188922
-0.0005503669
-1.1956276
-0.00038974685
-1.2778312
-0.00020358464
-1.365877
-0.14758245
-0.048057294
-0.14265385
0.1192055
-0.26762644
-0.15076675
-0.2868326
-0.15121647
-0.1962134
-0.14966904
0.019302905
-0.14927646
0.24440492
-0.1560789
0.30246322
-0.16800755
0.25915959
-0.18445691
0.12677971
-0.20234828
-0.090386877
-0.21344782
-0.2632158
-0.18487003
-0.2794814
-0.18720174
-0.22477567
-0.18939175
-0.12551579
-0.19260519
-0.0085026863
-0.20493233
0.061706515
-0.23363758
0.080388319
-0.26908365
0.08115652
-0.30516033
0.072111678
-0.34133065
0.05474325
-0.37554059
0.033790802
-0.40602829
0.014409727
-0.43257776
0.0006546059
-0.45692097
-0.0064120383
-0.4817142
-0.0083168173
-0.50910429
-0.0074107525
-0.54017543
-0.0055605316
-0.57515186
-0.0037630194
-0.61387973
-0.0024026896
-0.65611893
-0.0015346503
-0.70167812
-0.0010680817
-0.75046855
-0.00086845416
-0.80251638
-0.0008109973
-0.85795233
-0.0008039547
-0.91698931
-0.00079338214
-0.97991706
-0.0007504657
-1.0470449
-0.00066601794
-1.1187765
-0.00054141515
-1.1954759
-0.00038352416
-1.2776513
-0.00020040111
-1.3656766
-0.14972407
-0.26548482
-0.14650705
-0.044204091
-0.14239539
0.12187567
-0.28716611
-0.15043324
-0.19815062
-0.14927925
0.018637068
-0.14900321
0.25035286
-0.1552244
0.31194611
-0.1655618
0.27178068
-0.18062864
0.14058168
-0.19825888
-0.081308074
-0.21142708
-0.26841665
-0.20824697
-0.29378014
-0.17057129
-0.2388867
-0.17309071
-0.1382196
-0.17668794
-0.013944354
-0.18716353
0.069944224
-0.21317003
0.094567218
-0.24781648
0.095647836
-0.28357496
0.086755897
-0.31980455
0.067949112
-0.35453651
0.043514484
-0.38526427
0.019327575
-0.41094614
0.0010815394
-0.43300469
-0.0087847399
-0.45454827
-0.011645458
-0.47838556
-0.010474253
-0.50604079
-0.0078851973
-0.53785077
-0.0053019065
-0.57361297
-0.0032910331
-0.61299139
-0.001957885
-0.6556957
-0.001201974
-0.70154423
-0.00085215161
-0.75048485
-0.0007414863
-0.80258589
-0.00073947434
-0.85801681
-0.00076484229
-0.91701785
-0.00077107532
-0.97989645
-0.00073600362
-1.0469749
-0.00065543739
-1.1186625
-0.00053338339
-1.195326
-0.00037789453
-1.2774738
-0.00019752092
-1.3654791
-0.15028735
-0.28660282
-0.14986314
-0.26212873
-0.14630088
-0.040298603
-0.14298003
0.12447269
-0.19920521
-0.14937865
0.018650662
-0.14929284
0.255931
-0.15458135
0.3200979
-0.16337619
0.2826705
-0.17645162
0.1528607
-0.19290765
-0.072280125
-0.20728683
-0.27220488
-0.20763885
-0.30652986
-0.19549724
-0.25134866
-0.15810933
-0.14931837
-0.16199194
-0.019497878
-0.17113442
0.077283273
-0.19450258
0.10929866
-0.22790147
0.11107053
-0.26323917
0.10260471
-0.29942377
0.082987016
-0.33484246
0.055244117
-0.36626614
0.025674786
-0.39161148
0.0018107278
-0.41167533
-0.011831735
-0.4299577
-0.016089623
-0.45010411
-0.014630539
-0.47422928
-0.011080475
-0.50284551
-0.0074589015
-0.53569377
-0.004577082
-0.57232692
-0.0026061568
-0.61234312
-0.0014365346
-0.65546114
-0.00085498878
-0.70154139
-0.00064331387
-0.75058302
-0.00062302714
-0.80270234
-0.00067574987
-0.85810591
-0.00073179193
-0.91705713
-0.00075250541
-0.97987995
-0.00072395141
-1.0469064
-0.00064648751
-1.1185494
-0.00052635767
-1.1951776
-0.00037289962
-1.2772984
-0.00019494079
-1.3652841
-0.15039898
-0.19909358
-0.15161337
-0.28485259
-0.15055097
-0.25787864
-0.14693016
-0.036348467
-0.14442952
0.12676996
0.019565566
-0.15029355
0.2610938
-0.15445565
0.32703955
-0.161523
0.29149936
-0.17220504
0.16349068
-0.1870816
-0.063249618
-0.20193816
-0.27456418
-0.20492753
-0.31792792
-0.19624079
-0.2688866
-0.17795931
-0.15905379
-0.14837391
-0.024774184
-0.15671563
0.083696972
-0.17754812
0.12417114
-0.20937506
0.1272411
-0.24407205
0.11944654
-0.28008101
0.099788259
-0.31622502
0.069194405
-0.34879274
0.033800824
-0.37439218
0.0030360454
-0.3928368
-0.015652252
-0.40785481
-0.021918332
-0.42412899
-0.020162348
-0.4445723
-0.015366606
-0.46994315
-0.010391331
-0.49991308
-0.0063672575
-0.5339036
-0.0035485311
-0.57138455
-0.0018119165
-0.61196774
-0.00089599923
-0.65542012
-0.00052151016
-0.7016632
-0.00045130841
-0.75075474
-0.00051880236
-0.80285929
-0.00062364527
-0.85821405
-0.00070605409
-0.91710358
-0.00073849113
-0.97986541
-0.00071473741
-1.0468381
-0.0006392272
-1.1184365
-0.00052040428
-1.1950301
-0.0003685368
-1.2771248
-0.00019264464
-1.3650915
-0.15228446
0.021451046
-0.15291707
-0.19778989
-0.15343567
-0.28196789
-0.15191229
-0.25289651
-0.14818231
-0.032595674
-0.14658872
0.12855619
0.26584889
-0.15504864
0.33265663
-0.16007272
0.29823084
-0.16825448
0.17203698
-0.18075134
-0.0546
-0.19573122
-0.27537859
-0.20112375
-0.32780622
-0.19504924
-0.28488173
-0.18024566
-0.18028117
-0.15673193
-0.029514492
-0.1436336
0.089236074
-0.16225474
0.13883758
-0.19221456
0.14389442
-0.22602838
0.13701654
-0.26164204
0.11808945
-0.2983822
0.085336979
-0.33236759
0.043938931
-0.35893085
0.0050064059
-0.37636254
-0.020324855
-0.3881642
-0.029453089
-0.40032006
-0.027405157
-0.41688618
-0.020994952
-0.43894395
-0.014270532
-0.46606395
-0.0087748072
-0.49750553
-0.004856624
-0.53259551
-0.0023694354
-0.57082703
-0.00099458818
-0.61186915
-0.00037940587
-0.65556223
-0.00021856209
-0.70189594
-0.00028392295
-0.75098962
-0.00043471375
-0.80304822
-0.000584844
-0.85833526
-0.00068831739
-0.91715376
-0.00072932529
-0.97985082
-0.00070833872
-1.046769
-0.00063366921
-1.1183233
-0.00051547768
-1.1948831
-0.00036475224
-1.2769527
-0.00019058987
-1.3649009
-0.15644509
0.27000952
-0.15510459
0.023638561
-0.15617917
-0.19504639
-0.15599473
-0.27788544
-0.15389084
-0.24718799
-0.14995971
-0.02922469
-0.14930612
0.12979349
0.33676266
-0.15915467
0.30294257
-0.16478445
0.17848466
-0.17470217
-0.046850698
-0.18850064
-0.27510234
-0.19600746
-0.33623278
-0.19269719
-0.29921188
-0.18071909
-0.19998547
-0.16054136
-0.050637465
-0.13560895
0.094329607
-0.14872713
0.1529189
-0.17633605
0.16075075
-0.20907089
0.15497566
-0.2439875
0.13735986
-0.28091244
0.10303781
-0.31608303
0.05572311
-0.34415177
0.0076214558
-0.3615459
-0.025970452
-0.37071694
-0.03903104
-0.37858625
-0.036749783
-0.39097543
-0.028246347
-0.40963479
-0.019274397
-0.43394009
-0.011913422
-0.46292533
-0.0065993993
-0.49576276
-0.0031484089
-0.53181653
-0.001166553
-0.57065506
-0.00021866027
-0.61202989
8.3715831e-05
-0.65586451
4.330018e-05
-0.70222317
-0.00014926235
-0.75127507
-0.00037330864
-0.80325975
-0.00055970693
-0.85846387
-0.00067868294
-0.9172044
-0.00072486561
-0.9798343
-0.00070470185
-1.046698
-0.00062975826
-1.118209
-0.00051148536
-1.1947364
-0.0003614701
-1.2767818
-0.00018873658
-1.3647122
-0.15893217
0.33924974
-0.1579317
0.27283664
-0.15909841
0.0265578
-0.16025354
-0.19078758
-0.15929327
-0.27248301
-0.1565321
-0.24061559
-0.1523642
-0.026166617
-0.152481
0.13044287
0.30569546
-0.16190757
0.18252945
-0.16882924
-0.040675592
-0.18087728
-0.27357101
-0.19003197
-0.34305677
-0.18918347
-0.3117951
-0.18011398
-0.21809344
-0.16261112
-0.071333195
-0.13984563
0.083678139
-0.12495748
0.16650866
-0.1623169
0.17747738
-0.19306268
0.17291316
-0.22700838
0.15687108
-0.26349872
0.12104061
-0.29891525
0.067971375
-0.3283313
0.0097659226
-0.34629624
-0.033580889
-0.35393547
-0.051177771
-0.35857021
-0.048660229
-0.3666758
-0.037433386
-0.38178839
-0.02557721
-0.40333198
-0.01588664
-0.42996687
-0.0088375443
-0.46068719
-0.00418051
-0.49473066
-0.0014225192
-0.53156057
-3.3321486e-05
-0.5708404
0.00047372439
-0.6124199
0.00048320005
-0.65630441
0.00025372053
-0.70262615
-5.1612842e-05
-0.75159677
-0.00033462019
-0.80348484
-0.00054795709
-0.8585946
-0.00067675395
-0.91725251
-0.00072481143
-0.97981419
-0.00070361838
-1.0466241
-0.00062726256
-1.1180932
-0.00050828076
-1.1945896
-0.00035859339
-1.276612
-0.00018703159
-1.3645251
-0.15972912
0.30649241
-0.15864011
0.33995815
-0.16084586
0.27458409
-0.16383244
0.030136702
-0.16500935
-0.1850715
-0.16334091
-0.26567421
-0.1598147
-0.23316508
-0.15530638
-0.023341236
-0.15608415
0.13042452
0.18420889
-0.16358701
-0.035947311
-0.17355752
-0.27077164
-0.18367664
-0.34813827
-0.18495048
-0.32238599
-0.17859258
-0.23447923
-0.16372818
-0.090909717
-0.1430346
0.071583985
-0.12775148
0.16953622
-0.12798505
0.19384732
-0.17868684
0.19041834
-0.21056787
0.17588621
-0.24602352
0.13841474
-0.28087285
0.079178016
-0.31012189
0.010372233
-0.32893761
-0.045433091
-0.33444403
-0.067070069
-0.33804317
-0.063685647
-0.3435448
-0.048917436
-0.35519175
-0.033340259
-0.37402534
-0.020774287
-0.39844433
-0.011615896
-0.42718852
-0.0054832355
-0.45938446
-0.0017647261
-0.49438845
0.00018856536
-0.53178245
0.00097086059
-0.57133754
0.0010619219
-0.61299862
0.00080178066
-0.65685247
0.00040615963
-0.70308392
9.474681e-06
-0.75194086
-0.00031761275
-0.80371518
-0.00054867563
-0.85872268
-0.00068182566
-0.9172955
-0.00072868163
-0.97978912
-0.00070468314
-1.0465467
-0.00062594585
-1.1179756