/*--------------------------------*- C++ -*----------------------------------*\
| =========                 |                                                 |
| \\      /  F ield         | OpenFOAM: The Open Source CFD Toolbox           |
|  \\    /   O peration     | Version:  5.0                                   |
|   \\  /    A nd           | Web:      www.OpenFOAM.org                      |
|    \\/     M anipulation  |                                                 |
\*---------------------------------------------------------------------------*/
FoamFile
{
    version     2.0;
    format      ascii;
    class       volScalarField;
    location    "240";
    object      pMean;
}
// * * * * * * * * * * * * * * * * * * * * * * * * * * * * * * * * * * * * * //

dimensions      [0 2 -2 0 0 0 0];

internalField   nonuniform List<scalar> 
9200
(
0.00046000208
0.00048137871
0.0011612416
0.00050601678
0.0012078525
0.0018950876
0.00054889568
0.0012641348
0.0019645689
0.0025178407
0.00060370887
0.001354679
0.0020579031
0.0026060494
0.0030882921
0.0006711892
0.0014672819
0.0021999048
0.0027297324
0.0031921128
0.0035717261
0.00075505342
0.0015974594
0.0023757671
0.0029115336
0.0033419193
0.0036868752
0.0039774091
0.00085212334
0.0017468505
0.002575365
0.0031375148
0.0035574437
0.0038582211
0.004101577
0.0043058054
0.0009583146
0.0019061908
0.0027976509
0.0033937364
0.0038251586
0.004101046
0.0042909802
0.0044357752
0.0045608285
0.0010642132
0.0020708484
0.0030295747
0.0036785765
0.0041261406
0.0044038294
0.0045559219
0.0046392803
0.0046940846
0.004748321
0.0011526559
0.0022273326
0.0032654653
0.0039743862
0.0044575859
0.004743397
0.0048878313
0.0049213436
0.0049082666
0.0048819264
0.0048733671
0.0011778332
0.0023554008
0.0034851743
0.0042680415
0.004798517
0.005117095
0.0052601174
0.0052774816
0.0052026188
0.0051029894
0.0050045401
0.0049429224
0.0010842973
0.0024224812
0.0036585183
0.0045358777
0.0051347285
0.0055022608
0.0056708974
0.0056780699
0.0055777622
0.0054043634
0.0052285453
0.0050685896
0.0049628691
0.00087449977
0.0023972288
0.0037512252
0.0047513574
0.0054428844
0.0058848742
0.0060958382
0.0061225549
0.0060012938
0.0057930043
0.0055314614
0.0052912409
0.0050800333
0.0049409771
0.00060130356
0.0022599228
0.0037398731
0.0048819038
0.0056995585
0.0062404553
0.0065214502
0.0065859922
0.0064750759
0.0062342467
0.0059273137
0.0055896574
0.0052969187
0.005046452
0.0048830559
0.00033742892
0.0019855483
0.0035843342
0.0048917946
0.0058698958
0.0065462577
0.0069241642
0.0070553193
0.0069740991
0.0067324963
0.0063796015
0.0059856964
0.0055845645
0.0052527928
0.0049738843
0.0047970985
7.3755683e-05
0.0015946079
0.0032354767
0.004741537
0.0059146078
0.0067674146
0.0072821615
0.0075087287
0.0074861817
0.0072630112
0.0068960026
0.0064417492
0.0059732236
0.0055228493
0.0051650867
0.0048703569
0.004688707
-0.0001884806
0.0011399053
0.0027284964
0.0043910613
0.0057928806
0.0068627454
0.0075607955
0.0079241295
0.007990738
0.0078154113
0.0074530878
0.006968852
0.0064245294
0.0058958523
0.0054108015
0.0050416839
0.0047415757
0.0045653747
-0.00044324793
0.00068327545
0.0021517883
0.0038560648
0.005468222
0.0067898254
0.0077189909
0.0082675711
0.0084649091
0.0083699241
0.0080414552
0.0075446064
0.0069533178
0.0063329973
0.0057596782
0.0052560521
0.0048885848
0.004595378
0.0044324676
-0.00068773955
0.00026708446
0.0015456984
0.0032134235
0.0049385751
0.0065160002
0.0077122102
0.0084985337
0.0088775856
0.0089043017
0.0086423391
0.0081619319
0.007538913
0.0068531703
0.0061726064
0.0055718736
0.0050651482
0.0047138714
0.004437371
0.0042962342
-0.00099270618
-0.00014065081
0.00095042599
0.0025057765
0.004258062
0.0060214422
0.0075037596
0.0085729595
0.0091885754
0.0093890408
0.0092350279
0.0088036489
0.0081764713
0.0074375675
0.006672813
0.0059499833
0.0053392557
0.0048463216
0.004523378
0.0042742411
0.0041614982
-0.0012866438
-0.00052668257
0.00036636901
0.0017747561
0.003480162
0.0053380763
0.0070664006
0.0084389894
0.0093526693
0.0097858858
0.009791756
0.0094502981
0.0088509167
0.0080842382
0.0072437419
0.0064178835
0.0056719488
0.0050701051
0.004605866
0.0043244561
0.0041110965
0.0040330293
-0.0014808807
-0.00087858486
-0.00024331612
0.001033465
0.0026442828
0.0045243994
0.0064126987
0.0080745401
0.0093115541
0.010046491
0.010276316
0.010076152
0.0095441868
0.0087801093
0.0078866046
0.0069617265
0.0060950077
0.0053467238
0.004771555
0.0043519775
0.0041225965
0.0039532037
0.0039147268
-0.0015900008
-0.0011736193
-0.00091202706
0.00022020098
0.0017720766
0.0036158074
0.0055923772
0.0074797009
0.0090359923
0.010116758
0.010638775
0.010646842
0.010232451
0.009509605
0.0085906755
0.0075857721
0.006597322
0.0057119984
0.0049821129
0.0044523876
0.00409069
0.0039238356
0.0038047941
0.0038100293
-0.0016901051
-0.0014639402
-0.001610056
-0.00072656822
0.00080459384
0.0026359249
0.0046330956
0.0066761996
0.0085116658
0.0099430052
0.010827682
0.011115014
0.01088495
0.010251217
0.0093428407
0.0082821916
0.0071864183
0.0061577428
0.0052771432
0.0045873925
0.0041194377
0.0038291933
0.003732947
0.0036696472
0.003721633
-0.0018064877
-0.0018384099
-0.0023388523
-0.0017523669
-0.00034535016
0.0015408464
0.0035660329
0.0056926524
0.0077434512
0.0094984314
0.010771498
0.011424086
0.011456728
0.010976379
0.010124581
0.0090407097
0.0078577651
0.0066948534
0.0056514399
0.0048002051
0.0041706399
0.0037811829
0.0035729471
0.0035544747
0.0035508205
0.0036516254
-0.0019568565
-0.0022791553
-0.0031110262
-0.0028087421
-0.0016540564
0.0002254607
0.0023513441
0.0045556871
0.0067549334
0.0087862864
0.010430196
0.0115073
0.011887837
0.011644826
0.010909327
0.0098454689
0.0086038547
0.0073218645
0.0061192872
0.0050885075
0.0042904831
0.0037413744
0.0034439466
0.0033276575
0.0033920772
0.0034507779
0.0036016616
-0.0021562275
-0.0028189123
-0.003972986
-0.0039016336
-0.0030205729
-0.0013285751
0.00088079229
0.0032437657
0.0055647716
0.007812473
0.0097983658
0.011298641
0.012118337
0.012197166
0.011661481
0.01067364
0.0094121555
0.0080346667
0.0066820895
0.0054697111
0.0044792665
0.0037584727
0.0033072461
0.0031149941
0.0030978143
0.0032488256
0.0033714283
0.0035730499
-0.0023908585
-0.0034438234
-0.0049344853
-0.0051087574
-0.0044311834
-0.0029769836
-0.00088949247
0.0016420141
0.0041628448
0.0065846161
0.0088653026
0.010764263
0.012060114
0.012567712
0.012327208
0.011492247
0.010262819
0.008824172
0.0073395886
0.0059482209
0.0047571943
0.0038353604
0.0032134327
0.0028770521
0.0027996498
0.0028875096
0.0031271813
0.0033141937
0.0035662361
-0.0026415859
-0.0041275365
-0.0059606572
-0.0063958087
-0.0059688437
-0.00470034
-0.0028213886
-0.00031686805
0.0024369514
0.0050942142
0.0076302153
0.009897819
0.011651119
0.012677648
0.012833297
0.012253649
0.011126898
0.0096739012
0.008086143
0.0065274886
0.0051318646
0.0039945021
0.0031678157
0.0026658567
0.002457267
0.0025033214
0.0026998955
0.0030289896
0.0032799062
0.00358055
-0.0029282927
-0.0048297067
-0.0069932931
-0.0077119039
-0.0075863493
-0.0065627885
-0.0048651302
-0.0025331399
0.00029743428
0.003252476
0.0060740624
0.0086869793
0.010882665
0.012431628
0.013111143
0.012887336
0.01196199
0.010558817
0.0089087337
0.0072052692
0.0056099482
0.0042466038
0.0031944613
0.0024886991
0.0021242534
0.0020554305
0.0022301167
0.0025376045
0.0029554533
0.0032687903
0.0036153663
-0.0032196361
-0.00555596
-0.0080223892
-0.0090289591
-0.0092216512
-0.0085139462
-0.0070525424
-0.0049080416
-0.0021983758
0.00094874176
0.0041434614
0.0070977894
0.0097222824
0.011787082
0.0130484
0.013312754
0.012703964
0.011440539
0.0097859244
0.0079723875
0.0061929442
0.0046012741
0.0033066935
0.0023708241
0.0018086798
0.0015977072
0.0016769503
0.0019841601
0.0024026648
0.0029072399
0.0032807526
0.0036716367
-0.0034403859
-0.0062998454
-0.0090768403
-0.010336372
-0.010852143
-0.010485726
-0.0093359382
-0.0074222545
-0.004904872
-0.0018084016
0.0017091249
0.0051132053
0.0081355991
0.010704596
0.01255722
0.013441274
0.013263903
0.012263022
0.010684165
0.0088112011
0.0068751438
0.0050636118
0.0035172249
0.0023279908
0.0015364395
0.0011387054
0.0010932242
0.0013272493
0.0017683553
0.0022963395
0.0028846174
0.0033156371
0.0037500269
-0.0035528413
-0.0069489629
-0.010170415
-0.011663691
-0.012471342
-0.012445764
-0.011643118
-0.010033916
-0.00775877
-0.0048486443
-0.0012789892
0.0025863502
0.0061232122
0.0091565314
0.011590989
0.013137932
0.013561997
0.012939668
0.011553192
0.0096925572
0.0076434857
0.0056314602
0.003834301
0.0023753988
0.0013256674
0.00070467602
0.00048798242
0.00061811052
0.0010100776
0.0015847174
0.0022193423
0.0028875082
0.003372917
0.0038496817
-0.0036014181
-0.0074676479
-0.011158739
-0.013044079
-0.014103399
-0.014387182
-0.013928991
-0.012677752
-0.01070412
-0.0080484719
-0.0046455596
-0.00058839135
0.0035177281
0.0071415477
0.010109251
0.01232019
0.013465228
0.013375039
0.012316714
0.010571595
0.0084723217
0.006295875
0.0042592865
0.002524233
0.0011934011
0.00031553003
-0.0001126977
-0.00013423351
0.00017755053
0.00072902201
0.001434581
0.002171919
0.0029155453
0.0034519517
0.003967693
-0.0036107667
-0.0078993106
-0.011977745
-0.014363184
-0.015804422
-0.016341455
-0.016189815
-0.015298017
-0.01369119
-0.011337076
-0.0081817543
-0.0042309834
0.00020962892
0.0044986717
0.0081131455
0.010929895
0.012827378
0.013472463
0.012869633
0.011382134
0.0093223928
0.0070352905
0.0047868193
0.0027792841
0.0011536495
-1.0168219e-05
-0.00068785147
-0.0009041283
-0.00072065826
-0.00022328522
0.00048619125
0.001318798
0.0021537695
0.0029678755
0.0035523511
0.0041010262
-0.0036009384
-0.0082828802
-0.012655344
-0.015536073
-0.017464138
-0.018372272
-0.018461154
-0.017881692
-0.016655939
-0.014683637
-0.011827839
-0.0080937803
-0.0036410213
0.0011191739
0.0054743909
0.0089701787
0.01156744
0.013044551
0.013112357
0.012023741
0.010134779
0.0078155422
0.005399921
0.0031388177
0.0012142179
-0.00025603232
-0.0012177745
-0.0016701712
-0.0016599648
-0.0012643452
-0.00058110016
0.0002833725
0.0012376088
0.0021642334
0.0030430041
0.0036722008
0.0042481367
-0.0035960578
-0.0086055355
-0.013269828
-0.016527457
-0.018985223
-0.0203712
-0.020823531
-0.020476381
-0.019580751
-0.018015548
-0.015543524
-0.012089234
-0.0077862555
-0.0028720394
0.0020747477
0.0063562544
0.0096708383
0.011952554
0.012896786
0.012372306
0.010819038
0.0085828169
0.0060686104
0.00358965
0.0013765344
-0.00041170622
-0.0016841508
-0.0024120941
-0.0026190092
-0.0023711601
-0.0017602777
-0.00089279132
0.00012125184
0.0011906867
0.0022023932
0.0031396246
0.0038094091
0.0044071105
-0.0036025672
-0.0088689652
-0.013798249
-0.017412497
-0.020303854
-0.022260136
-0.023159672
-0.023177702
-0.022513513
-0.021300978
-0.01925366
-0.016165433
-0.012095219
-0.0072493176
-0.0020122917
0.0029664532
0.0070877654
0.010160457
0.012012147
0.012320047
0.01124761
0.0092578775
0.0067449504
0.004106159
0.0016316045
-0.00047252505
-0.00207429
-0.0031099597
-0.0035775318
-0.0035227973
-0.0030305419
-0.002203895
-0.0011569156
1.0913532e-07
0.0011769952
0.0022668729
0.0032563153
0.0039623566
0.0045768607
-0.0036257572
-0.0090801162
-0.014232975
-0.01818422
-0.02144765
-0.023930161
-0.025422066
-0.02586011
-0.025568617
-0.024591447
-0.022916661
-0.020250448
-0.01650813
-0.011847042
-0.0065823474
-0.0011844195
0.0037238339
0.0076229664
0.010368929
0.011651842
0.011293353
0.0097237617
0.0073575077
0.0046460822
0.0019581003
-0.00044374677
-0.0023806258
-0.0037491556
-0.0045144302
-0.0046994568
-0.004371896
-0.0036317554
-0.0025924902
-0.0013723407
-8.0616059e-05
0.0011953755
0.0023561175
0.0033915089
0.0041292823
0.0047571893
-0.0092407747
-0.0036737894
-0.01456358
-0.018822035
-0.022463886
-0.025362813
-0.027455368
-0.02848768
-0.028603181
-0.028015249
-0.026582855
-0.024289678
-0.020950383
-0.016580926
-0.011442719
-0.0059057897
-0.00045643634
0.0042937106
0.0079000922
0.01019739
0.010798641
0.0098266396
0.0078011862
0.0051439097
0.0023178375
-0.00034257484
-0.0026048185
-0.0043193845
-0.0054135575
-0.0058795746
-0.005765389
-0.0051577374
-0.0041704331
-0.0029239913
-0.0015391842
-0.00012173679
0.0012443775
0.0024684526
0.0035436294
0.0043085858
0.0049474895
-0.014782243
-0.0093298599
-0.0037521697
-0.019304957
-0.023308271
-0.026637107
-0.029206312
-0.030885571
-0.031588598
-0.031414706
-0.030403458
-0.028327838
-0.025348081
-0.021359093
-0.016472485
-0.010979023
-0.0052889434
0.00011311442
0.0046139282
0.0078356447
0.0095536517
0.0094314452
0.0079242449
0.0055046369
0.002652153
-0.00020247403
-0.0027600703
-0.0048192203
-0.0062620849
-0.0070456753
-0.0071896334
-0.006764254
-0.0058737853
-0.0046431097
-0.0031976456
-0.0016577981
-0.00012485127
0.0013222393
0.0026020913
0.0037110871
0.0044988632
0.005146495
-0.019601803
-0.01486392
-0.0093409814
-0.0038488935
-0.023941141
-0.027693436
-0.0307358
-0.03297126
-0.034358639
-0.034771595
-0.034186485
-0.032546395
-0.029755142
-0.02610069
-0.021573085
-0.016279216
-0.010546284
-0.0047982166
0.00045201572
0.0046038797
0.0073346304
0.008363137
0.0075623445
0.005590875
0.0028733515
-7.722613e-05
-0.0028751022
-0.0052575688
-0.0070556357
-0.0081828832
-0.0086261304
-0.0084303075
-0.0076869851
-0.0065148192
-0.0050477857
-0.0034131475
-0.0017295598
-9.1696205e-05
0.0014270354
0.002755194
0.0038922623
0.0046989072
0.0053529357
-0.02432815
-0.019686194
-0.014799755
-0.0092862516
-0.003960409
-0.028501245
-0.03201571
-0.03476098
-0.03677334
-0.037915034
-0.03793802
-0.036729715
-0.034359287
-0.030868348
-0.026648639
-0.0216845
-0.016089625
-0.010217454
-0.0045204304
0.00047553559
0.0041652562
0.0063021323
0.0065795739
0.0052197817
0.0028580967
-4.7146228e-05
-0.002999278
-0.0056588364
-0.0077991182
-0.0092838789
-0.010058385
-0.010137203
-0.0095897413
-0.0085260344
-0.0070773632
-0.0053834559
-0.0035714849
-0.0017560776
-2.4381796e-05
0.0015567712
0.0029259124
0.0040854695
0.0049072622
0.005565588
-0.029011817
-0.024447348
-0.019551911
-0.014604244
-0.0091628609
-0.0040689256
-0.033004411
-0.036258234
-0.038806742
-0.040647807
-0.04147111
-0.040887762
-0.038941197
-0.035861168
-0.03177129
-0.027074845
-0.021777403
-0.015975644
-0.010075015
-0.0045456932
7.0890184e-05
0.0032084415
0.004680009
0.0042367068
0.002431703
-0.00022455289
-0.0032057516
-0.0060670358
-0.0085124763
-0.010349904
-0.011476313
-0.011867118
-0.011563793
-0.010657861
-0.0092760205
-0.0075592329
-0.0056502442
-0.0036740716
-0.0017395776
7.4921033e-05
0.0017093611
0.0031123869
0.004289154
0.0051225476
0.0057831482
-0.033644146
-0.029193182
-0.024294082
-0.019213205
-0.014287407
-0.0089548716
-0.0041503358
-0.037422717
-0.040510946
-0.042920162
-0.044525623
-0.044825282
-0.043494608
-0.040837527
-0.037144821
-0.032543566
-0.02746976
-0.021927178
-0.016026636
-0.010222121
-0.0049831428
-0.00086589129
0.0016760876
0.0024239533
0.0013910505
-0.00076990972
-0.0035987094
-0.0065496864
-0.0092342964
-0.011395952
-0.01287754
-0.013607478
-0.01359042
-0.012892856
-0.011626865
-0.009933121
-0.0079594477
-0.0058492658
-0.0037230686
-0.0016823748
0.00020380998
0.0018826229
0.0033127231
0.0045017903
0.0053435152
0.0060044788
-0.038180391
-0.033887206
-0.029036525
-0.023872071
-0.018684544
-0.013847094
-0.0086584825
-0.0041680883
-0.041831832
-0.044815984
-0.047030813
-0.048220822
-0.047833446
-0.045791623
-0.042510582
-0.038284872
-0.033266694
-0.027903298
-0.022215153
-0.016351789
-0.010772668
-0.0059577663
-0.00240332
-0.00048974139
-0.00043831939
-0.0018994563
-0.0043259618
-0.0072031109
-0.010025338
-0.012455193
-0.014272313
-0.015352346
-0.015654907
-0.015211895
-0.014113865
-0.012490802
-0.010495128
-0.00827828
-0.0059824366
-0.0037209103
-0.001587142
0.00035977137
0.0020742297
0.003525037
0.0047220414
0.0055690997
0.0062285307
-0.042682538
-0.038470622
-0.033720459
-0.028551437
-0.023198406
-0.017985095
-0.013283098
-0.0082754726
-0.0040997529
-0.046267564
-0.049107929
-0.050979368
-0.05158569
-0.050530455
-0.04786557
-0.044033289
-0.039351098
-0.034015011
-0.028476955
-0.02276989
-0.017081842
-0.01187313
-0.0075572937
-0.0045775965
-0.0032956397
-0.0038090519
-0.0055894195
-0.0081633136
-0.01097665
-0.013581752
-0.015687676
-0.017107205
-0.017748029
-0.017598682
-0.016717967
-0.015218307
-0.013245683
-0.010961168
-0.0085172451
-0.0060521603
-0.0036704306
-0.0014568271
0.00053995567
0.0022819704
0.0037478498
0.0049488283
0.005798216
0.0064542917
-0.047181997
-0.042988671
-0.038274058
-0.033162073
-0.027758586
-0.022298453
-0.01712165
-0.012601213
-0.0077694498
-0.0038802592
-0.050672963
-0.053245951
-0.054625141
-0.054653468
-0.052999384
-0.049784751
-0.045463323
-0.040420365
-0.034886203
-0.02931062
-0.023735324
-0.018381502
-0.013630536
-0.0098053577
-0.0073817325
-0.0066991783
-0.0076171233
-0.0096130496
-0.012211199
-0.014859759
-0.017171305
-0.018892931
-0.019870359
-0.020041013
-0.01942189
-0.018097338
-0.016199807
-0.013889298
-0.011331652
-0.0086784558
-0.0060612704
-0.0035749817
-0.0012948568
0.00074174575
0.0025042397
0.0039800955
0.0051808247
0.0060293775
0.0066807713
-0.051628915
-0.047473787
-0.042730351
-0.037618209
-0.032244778
-0.026678825
-0.021201994
-0.01609292
-0.011730963
-0.0070685179
-0.003511779
-0.05492872
-0.057093171
-0.058010559
-0.057504095
-0.05531391
-0.051602793
-0.046876675
-0.041576296
-0.036011298
-0.030564041
-0.025290442
-0.020381379
-0.016055072
-0.012680105
-0.010798414
-0.010621799
-0.011795396
-0.013900153
-0.016403546
-0.018798757
-0.02075002
-0.022036505
-0.022534604
-0.022210905
-0.021110142
-0.019340977
-0.01705437
-0.014420871
-0.011608222
-0.008764795
-0.0060134478
-0.0034385583
-0.0011043008
0.00096341682
0.0027399911
0.0042200192
0.005415707
0.0062611145
0.0069075398
-0.05592091
-0.051881215
-0.04711988
-0.041943054
-0.036551215
-0.030982923
-0.025353458
-0.019874783
-0.014823498
-0.010615247
-0.0061764238
-0.003082007
-0.058905617
-0.060698395
-0.061194738
-0.06020789
-0.057520105
-0.053381315
-0.048343073
-0.042964848
-0.037562436
-0.03242479
-0.02758419
-0.023093575
-0.019111617
-0.016196188
-0.014788657
-0.014954537
-0.016277509
-0.018371186
-0.020676582
-0.0227452
-0.02427948
-0.025087891
-0.0250764
-0.024240156
-0.022651683
-0.020442433
-0.017779717
-0.014840804
-0.01179351
-0.0087801416
-0.0059132836
-0.0032648116
-0.00088693511
0.0012039642
0.0029867948
0.0044638642
0.0056513612
0.0064938756
0.0071458998
-0.059949474
-0.056128156
-0.051408597
-0.046165203
-0.040684241
-0.03508519
-0.029401643
-0.023713455
-0.01825321
-0.013316233
-0.0092937635
-0.0052207005
-0.0026361173
-0.062659665
-0.064125343
-0.064236249
-0.062809395
-0.059676081
-0.05519819
-0.050012594
-0.044759978
-0.039724824
-0.035074651
-0.030643922
-0.026470753
-0.022801374
-0.020298659
-0.019261107
-0.01960104
-0.020977105
-0.022949965
-0.024975035
-0.026656402
-0.027725724
-0.028020398
-0.027474993
-0.026114036
-0.024037252
-0.021397359
-0.018374866
-0.015150971
-0.011891431
-0.0087296569
-0.0057650434
-0.0030555073
-0.00064371205
0.0014599833
0.0032388966
0.0047085325
0.0058898853
0.0067435944
0.0073994234
-0.063770624
-0.060125249
-0.055529937
-0.050261787
-0.044674673
-0.038973264
-0.033200309
-0.027413516
-0.021728974
-0.016379076
-0.011639711
-0.007930495
-0.0042442027
-0.0021548505
-0.066261597
-0.067416714
-0.067171955
-0.065362918
-0.061852336
-0.057190027
-0.052074267
-0.047159569
-0.04267858
-0.038551434
-0.034427954
-0.030474908
-0.027076369
-0.024899526
-0.024076299
-0.024486787
-0.025811264
-0.027574229
-0.029253135
-0.030495649
-0.031059747
-0.030810672
-0.029712831
-0.02782045
-0.025259838
-0.02220299
-0.018840397
-0.015355189
-0.011907518
-0.008617987
-0.0055704107
-0.0028115489
-0.00037940134
0.0017231044
0.0034920117
0.004959066
0.0061547227
0.0070084853
0.0076616295
-0.067462797
-0.063928665
-0.059412596
-0.054183047
-0.048513859
-0.042688337
-0.036745011
-0.030834381
-0.025040634
-0.019492403
-0.014351678
-0.0099558751
-0.006548668
-0.0032165969
-0.0016607982
-0.069747019
-0.07060429
-0.07004776
-0.067921056
-0.064193077
-0.059555936
-0.054750288
-0.050367037
-0.046506663
-0.04282885
-0.038870128
-0.035038844
-0.031864365
-0.02988586
-0.029144359
-0.029532341
-0.030718952
-0.032193387
-0.03347205
-0.034231569
-0.034255809
-0.033438372
-0.031774682
-0.02934952
-0.026314308
-0.022858245
-0.019179305
-0.015459252
-0.011847043
-0.008446768
-0.0053301787
-0.0025393239
-0.00010568522
0.0019878351
0.0037553064
0.0052526481
0.0064336391
0.0072837425
0.0079322055
-0.071058324
-0.06762243
-0.063114771
-0.057877927
-0.052168098
-0.046212704
-0.040077767
-0.03397011
-0.028053424
-0.022427557
-0.017096216
-0.012327992
-0.0082426968
-0.0050987629
-0.0021761244
-0.0011776147
-0.073143787
-0.073719979
-0.072912416
-0.070630471
-0.066897013
-0.062534514
-0.058245837
-0.054490519
-0.051209908
-0.047827992
-0.043858854
-0.040113261
-0.037076893
-0.03513329
-0.034373224
-0.034663271
-0.035638456
-0.036765178
-0.0375984
-0.037837243
-0.037291655
-0.035885759
-0.033647754
-0.030693115
-0.027197502
-0.023365022
-0.019397318
-0.015468587
-0.011711371
-0.0082164986
-0.0050525791
-0.0022545608
0.00017053504
0.002268542
0.004084838
0.0055604629
0.00672534
0.007568075
0.0082111843
-0.074585231
-0.071240151
-0.06672651
-0.061404108
-0.055610317
-0.049548992
-0.043209733
-0.036863561
-0.030769914
-0.025051791
-0.019653381
-0.014715197
-0.010252243
-0.0064488887
-0.0035870988
-0.0011670499
-0.00070897517
-0.076466448
-0.076811014
-0.075924332
-0.073701349
-0.070218276
-0.06635873
-0.062709245
-0.059551887
-0.056677122
-0.053380195
-0.049309887
-0.045628164
-0.0425671
-0.040527866
-0.039682158
-0.039815243
-0.040522853
-0.041256404
-0.04160468
-0.041289136
-0.040147614
-0.038137262
-0.035320903
-0.031845276
-0.027909398
-0.023728257
-0.019499868
-0.015383971
-0.011500371
-0.0079375006
-0.0047582537
-0.0019658359
0.00047041402
0.0026459399
0.0044294074
0.0058840116
0.0070262099
0.0078617565
0.0084982171
-0.078036896
-0.074804976
-0.070278327
-0.064854119
-0.058897347
-0.052667111
-0.046140024
-0.039537335
-0.033220436
-0.027358623
-0.021892247
-0.016909395
-0.012259483
-0.008082096
-0.0045896561
-0.0020772001
-0.00022472481
-0.00025600638
-0.07974175
-0.080027042
-0.079299914
-0.077372709
-0.074401874
-0.071210966
-0.068176259
-0.065436783
-0.062753923
-0.059369572
-0.0551756
-0.051414192
-0.048164021
-0.04598907
-0.045006024
-0.044949695
-0.045337288
-0.045639828
-0.045467763
-0.044566503
-0.04280569
-0.04017833
-0.036784868
-0.032803871
-0.028454176
-0.023952807
-0.019486884
-0.015204552
-0.011226477
-0.0076362222
-0.0044579797
-0.0016436308
0.00090693674
0.0030398538
0.0047933531
0.0062162595
0.0073373673
0.0081640593
0.0087931344
-0.081425888
-0.078296372
-0.073789642
-0.068258943
-0.062119405
-0.055621347
-0.048857488
-0.042004857
-0.035446599
-0.029387681
-0.023794494
-0.018784667
-0.014079872
-0.0097004681
-0.005837215
-0.0027065522
-0.00063045847
0.00064914367
0.00019276013
-0.083114297
-0.083609084
-0.083282107
-0.081903356
-0.079674367
-0.077166548
-0.074545015
-0.072002012
-0.069252413
-0.065725938
-0.061308477
-0.057285829
-0.053756885
-0.051451559
-0.050305615
-0.050026471
-0.050056744
-0.04989369
-0.049166823
-0.047650014
-0.04524834
-0.041996157
-0.038034496
-0.03357116
-0.028835397
-0.024037084
-0.019356073
-0.01494537
-0.010923148
-0.0073262207
-0.0041117747
-0.0011346679
0.0013628436
0.0034578607
0.0051651091
0.006559672
0.0076576175
0.0084749148
0.009095546
-0.084887129
-0.081703646
-0.077228175
-0.071636236
-0.065308717
-0.058515236
-0.051416392
-0.044275823
-0.037470458
-0.031182326
-0.025410763
-0.020303452
-0.015585942
-0.011132078
-0.0070515987
-0.0035592317
-0.00087965512
0.00072403533
0.0014173464
0.00066959147
-0.086840224
-0.087805191
-0.088134413
-0.087567258
-0.086143974
-0.0841028
-0.081679002
-0.079044357
-0.076038056
-0.072313517
-0.06752241
-0.063134925
-0.059306059
-0.056883459
-0.055560229
-0.055023417
-0.054663417
-0.053998834
-0.052682381
-0.05051975
-0.047459205
-0.043582456
-0.039069848
-0.034149333
-0.029048821
-0.023976945
-0.019124801
-0.014647813
-0.010607427
-0.0069547829
-0.0035154153
-0.00060238657
0.0018483556
0.0038822933
0.0055486836
0.0069123855
0.0079868763
0.0087936586
0.0094052047
-0.088686703
-0.08516439
-0.080566975
-0.074937209
-0.068495265
-0.061391464
-0.053919438
-0.046405951
-0.039303761
-0.032781176
-0.026794816
-0.021526702
-0.016737057
-0.012264383
-0.0080852565
-0.0043689598
-0.0013409082
0.0008196185
0.0019925032
0.002090195
0.0011421526
-0.091186282
-0.092914462
-0.094161842
-0.094505413
-0.093699858
-0.091865292
-0.089373632
-0.086347457
-0.082964808
-0.07893562
-0.073659034
-0.068851563
-0.06479915
-0.062254177
-0.060751524
-0.059923042
-0.059140673
-0.05793737
-0.055993548
-0.053156313
-0.049426471
-0.04493459
-0.039890453
-0.034530282
-0.029087297
-0.023792331
-0.01884418
-0.014333062
-0.010211061
-0.0062546226
-0.0028899118
-3.3542231e-05
0.002338195
0.0043189937
0.005941533
0.0072744388
0.0083242991
0.0091200284
0.0097217422
-0.093104422
-0.08894129
-0.08393404
-0.078123835
-0.071603228
-0.064270832
-0.056408484
-0.048502429
-0.041025502
-0.034211243
-0.027999482
-0.022522246
-0.01758966
-0.013043467
-0.0088395974
-0.0050142236
-0.0017517887
0.00073632083
0.0024101079
0.00310674
0.0026709209
0.0015126317
-0.096447848
-0.099210668
-0.10152296
-0.10264367
-0.10215061
-0.10028202
-0.09737037
-0.093728856
-0.089890537
-0.085432022
-0.079585249
-0.074381925
-0.07023972
-0.067538957
-0.065861676
-0.06471801
-0.063474264
-0.06168885
-0.059078641
-0.055544788
-0.051144691
-0.046047958
-0.040483211
-0.034702075
-0.028973534
-0.02354538
-0.018540857
-0.013913996
-0.0093885199
-0.0055175274
-0.0022195852
0.00053672401
0.0028403979
0.0047648029
0.0063436803
0.0076448531
0.0086694775
0.0094533979
0.010044927
-0.098435839
-0.093323146
-0.087595729
-0.081330753
-0.074580864
-0.067067051
-0.058896522
-0.050600946
-0.042726227
-0.035545906
-0.029046842
-0.023343314
-0.018222378
-0.013529564
-0.0092598279
-0.0053998015
-0.00201627
0.00070214091
0.0026699283
0.0038280657
0.0040018785
0.0031121434
0.0017140747
-0.10289158
-0.10686942
-0.11017145
-0.11176783
-0.11132878
-0.10905877
-0.10541568
-0.10101195
-0.096698634
-0.091655716
-0.085251553
-0.079793648
-0.075583524
-0.072756378
-0.070892973
-0.069397838
-0.067646378
-0.065230917
-0.061920282
-0.057676652
-0.052604645
-0.046902942
-0.040830473
-0.034690051
-0.028782418
-0.023267983
-0.018104512
-0.012948876
-0.0085186738
-0.0047253626
-0.0015518518
0.0011192974
0.0033511571
0.0052198306
0.0067540447
0.0080230813
0.0090217355
0.0097936711
0.010374168
-0.10492175
-0.098597751
-0.091841059
-0.084803388
-0.07755542
-0.069703452
-0.061277265
-0.052684881
-0.044427488
-0.036860156
-0.030002191
-0.02401997
-0.018682019
-0.013800799
-0.0093927399
-0.0054758836
-0.0020410237
0.00080328615
0.0029639442
0.0043848532
0.0049710302
0.0046327762
0.0033917978
0.0017909972
-0.11069559
-0.11587375
-0.119914
-0.12169992
-0.12096223
-0.11791752
-0.11331238
-0.108128
-0.10325195
-0.097564366
-0.090673245
-0.085090554
-0.080826204
-0.077916494
-0.0758435
-0.073949293
-0.071636237
-0.06854502
-0.064507767
-0.059538101
-0.053777814
-0.047474327
-0.04095912
-0.03458409
-0.028552281
-0.022821649
-0.016974696
-0.011923112
-0.0075813153
-0.0039410577
-0.00087224537
0.0017095987
0.0038707582
0.0056828638
0.0071719303
0.008408519
0.009381245
0.010140077
0.01070914
-0.11274952
-0.10498765
-0.096922375
-0.088806208
-0.080749538
-0.072318711
-0.063481035
-0.054649381
-0.046102224
-0.038176657
-0.030939895
-0.024620956
-0.019008325
-0.013908686
-0.0093239139
-0.0052806625
-0.0017864915
0.0011154135
0.0033760088
0.0049534171
0.0057470829
0.0057757288
0.0050067179
0.0034837879
0.0017644389
-0.11986824
-0.12604637
-0.13055527
-0.13217772
-0.13074154
-0.12660086
-0.12096259
-0.11500195
-0.10945315
-0.10313054
-0.095834075
-0.090297344
-0.086009005
-0.083034767
-0.080703952
-0.078354986
-0.075426015
-0.071619792
-0.066822551
-0.061089196
-0.054628745
-0.047790953
-0.040975896
-0.034429819
-0.028110367
-0.021504041
-0.015767225
-0.010814538
-0.0066586771
-0.0031455626
-0.00018620108
0.0023081884
0.0043978535
0.0061531073
0.007596881
0.0088017688
0.0097466949
0.01049209
0.011049384
-0.12196789
-0.11268517
-0.10307771
-0.093594016
-0.084414749
-0.075127675
-0.065659692
-0.05643443
-0.047646963
-0.039454296
-0.031866926
-0.025203024
-0.019256214
-0.013887927
-0.0091008598
-0.0049011211
-0.0012960457
0.001669679
0.0039643256
0.0055976746
0.0065067582
0.0067009355
0.0062629039
0.005155156
0.0034419238
0.001663734
-0.13026711
-0.13719779
-0.14184321
-0.14288743
-0.1403614
-0.13497021
-0.12831025
-0.12155169
-0.11525737
-0.1083651
-0.10085538
-0.09545923
-0.091179782
-0.088109027
-0.085464321
-0.082600744
-0.079005538
-0.074433347
-0.068812773
-0.062281223
-0.055188257
-0.047977613
-0.040935339
-0.03401313
-0.026580505
-0.020087309
-0.014458234
-0.0097293734
-0.0057258873
-0.0023453628
0.0005072494
0.0029135964
0.0049315809
0.0066303476
0.00803021
0.009200892
0.010117468
0.010848959
0.011394522
-0.13246986
-0.12178531
-0.11051883
-0.099418706
-0.088813095
-0.078381098
-0.068016867
-0.058201962
-0.049038183
-0.040612772
-0.032744441
-0.0257791
-0.019495621
-0.013801453
-0.0087683686
-0.0043879974
-0.00065150964
0.0024212511
0.0047516258
0.0063720608
0.0072980038
0.0075823649
0.0072894772
0.0064876369
0.0051322824
0.0033060299
0.0015039957
-0.14170437
-0.14909435
-0.15346829
-0.15350721
-0.14964202
-0.14298787
-0.13531495
-0.12770702
-0.12063919
-0.11326555
-0.1058921
-0.1006014
-0.096350357
-0.093136312
-0.090117482
-0.086680725
-0.08235201
-0.076921011
-0.070412034
-0.063145672
-0.055602375
-0.048099321
-0.040572937
-0.032246752
-0.024924534
-0.018545986
-0.013183517
-0.0086353289
-0.0047906764
-0.0015389233
0.0012065648
0.003524936
0.0054719923
0.0071168083
0.008469205
0.0096050543
0.010492688
0.011210169
0.011744117
-0.14406257
-0.13219837
-0.11933475
-0.10648401
-0.094187471
-0.082317545
-0.070821661
-0.060153516
-0.050430649
-0.041661468
-0.033528416
-0.026316597
-0.019744491
-0.013731118
-0.0083944415
-0.0037981991
9.8263106e-05
0.0032859807
0.0056802426
0.0072801593
0.0081725705
0.008462392
0.0082467922
0.0075809938
0.0064970298
0.004977896