/*--------------------------------*- C++ -*----------------------------------*\
| =========                 |                                                 |
| \\      /  F ield         | OpenFOAM: The Open Source CFD Toolbox           |
|  \\    /   O peration     | Version:  5.0                                   |
|   \\  /    A nd           | Web:      www.OpenFOAM.org                      |
|    \\/     M anipulation  |                                                 |
\*---------------------------------------------------------------------------*/
FoamFile
{
    version     2.0;
    format      ascii;
    class       volScalarField;
    location    "240";
    object      pPrime2Mean;
}
// * * * * * * * * * * * * * * * * * * * * * * * * * * * * * * * * * * * * * //

dimensions      [0 4 -4 0 0 0 0];

internalField   nonuniform List<scalar> 
9200
(
1.2311683e-06
1.3102931e-06
7.8073887e-06
1.417604e-06
8.1456181e-06
2.1425619e-05
1.6533826e-06
8.5571148e-06
2.2225067e-05
3.9166309e-05
2.0138776e-06
9.366691e-06
2.3342087e-05
4.0410394e-05
6.1141831e-05
2.6352091e-06
1.0489168e-05
2.5420978e-05
4.21819e-05
6.2822208e-05
8.5752068e-05
3.6523411e-06
1.2159616e-05
2.8298061e-05
4.5396728e-05
6.512642e-05
8.7693492e-05
0.00011244871
5.3280192e-06
1.4485422e-05
3.2429272e-05
4.9786948e-05
6.9267824e-05
9.0280042e-05
0.00011453918
0.00014076578
7.9524613e-06
1.7704887e-05
3.7992146e-05
5.5998997e-05
7.4810221e-05
9.4949403e-05
0.00011716487
0.00014286874
0.00017041851
1.1962641e-05
2.1985844e-05
4.546341e-05
6.4216325e-05
8.2505601e-05
0.00010107018
0.00012198037
0.00014530101
0.00017245478
0.00020128797
1.7551627e-05
2.7571225e-05
5.532718e-05
7.5002465e-05
9.2486024e-05
0.00010946813
0.00012814778
0.00014994211
0.00017452905
0.0002032022
0.00023333633
2.3059832e-05
3.4501522e-05
6.8188795e-05
8.8851929e-05
0.00010536463
0.00012015918
0.00013655254
0.0001557331
0.00017876635
0.00020480678
0.00023510532
0.00026654961
2.6201792e-05
4.3405188e-05
8.4873006e-05
0.0001065654
0.00012167591
0.00013373277
0.00014708688
0.00016361857
0.00018389118
0.000208502
0.00023617967
0.00026817876
0.00030097349
2.986818e-05
5.7804771e-05
0.00010770054
0.00012956915
0.0001423653
0.00015064789
0.00016030001
0.00017336412
0.00019091767
0.00021279429
0.00023927272
0.00026870909
0.00030248164
0.00033658928
3.9599876e-05
8.4184387e-05
0.00014243307
0.00016107796
0.00016906516
0.00017181518
0.00017655437
0.00018547777
0.00019949807
0.00021878646
0.00024267628
0.00027121239
0.00030248162
0.00033801386
0.00037346551
5.7444637e-05
0.00013249648
0.0001981642
0.00020791337
0.00020527796
0.00019886041
0.00019668678
0.00020022958
0.00021011238
0.00022602974
0.00024760166
0.00027376464
0.00030445006
0.00033753042
0.00037483962
0.00041155107
8.4384444e-05
0.00021010589
0.00028901518
0.0002811972
0.00025780271
0.00023513462
0.00022218825
0.00021837903
0.00022296712
0.00023499733
0.00025350712
0.00027770322
0.00030625341
0.00033906437
0.00037391857
0.00041291003
0.00045090243
0.00011964207
0.00031573487
0.00042694698
0.00039735863
0.00033898619
0.00028740896
0.00025607441
0.0002412413
0.00023876734
0.00024585047
0.00026086635
0.00028240311
0.00030937151
0.00034027995
0.00037512458
0.00041160735
0.00045227955
0.00049145215
0.00015819967
0.00044414752
0.0006092697
0.00057369919
0.00046757272
0.00036821969
0.00030462039
0.0002714808
0.00025868502
0.00025924794
0.00026980883
0.00028834986
0.00031310188
0.00034281636
0.00037593414
0.00041261069
0.00045064056
0.00049286194
0.00053321672
0.00019344081
0.00057983749
0.00082517292
0.0008100059
0.00066331863
0.00049598942
0.00037962205
0.00031463666
0.00028502373
0.00027622112
0.00028095385
0.00029562837
0.00031793478
0.00034590187
0.00037816536
0.00041322196
0.00045153492
0.00049091632
0.00053466819
0.00057614723
0.0002196534
0.0007085494
0.0010492419
0.0010925701
0.00092920569
0.00069279881
0.00049912904
0.00038130427
0.00032249495
0.00029881838
0.00029522647
0.00030479811
0.00032390627
0.00035003359
0.00038099167
0.00041546056
0.00045213225
0.00049178357
0.00053243946
0.00057762849
0.00062023742
0.00022926804
0.00081297217
0.0012577824
0.0013897767
0.0012500525
0.0009679142
0.00068693184
0.00049007233
0.00038046116
0.00033093291
0.00031443455
0.00031670056
0.00033149992
0.00035517796
0.00038491533
0.00041847005
0.00045468092
0.00049254297
0.00053333736
0.00057510144
0.00062172677
0.0006654612
0.00022348195
0.0008760616
0.001432396
0.0016654047
0.0015943278
0.0013074926
0.00095777259
0.00066374672
0.00047651973
0.00038061665
0.00034186033
0.00033292635
0.00034146725
0.00036173867
0.00038982369
0.00042276538
0.00045832715
0.00049569765
0.00053437784
0.00057603018
0.00061887333
0.00066691967
0.00071180575
0.00021269415
0.00089941115
0.0015585139
0.0018980106
0.0019216091
0.0016822478
0.001302332
0.00092043804
0.00063227489
0.00046312664
0.00038412052
0.00035630628
0.00035520932
0.0003703411
0.00039603134
0.0004281597
0.00046362291
0.00050043937
0.00053837098
0.00057742327
0.0006198123
0.00066367851
0.00071318782
0.00075925945
0.00020197275
0.00089802529
0.0016179886
0.0020744588
0.0022029649
0.0020501609
0.0016962684
0.0012600494
0.00087004409
0.00060030078
0.00045412364
0.00039201939
0.0003750783
0.00038215594
0.00040400481
0.00043486945
0.0004703227
0.00050739377
0.000544612
0.00058243693
0.00062157819
0.00066454187
0.00070948412
0.00076050944
0.00080781933
0.00019362873
0.00088858024
0.0016289322
0.0021596609
0.0024198829
0.0023738652
0.0020949299
0.0016613769
0.001197728
0.00081730152
0.00057353929
0.00045076481
0.00040532423
0.00039918078
0.00041467759
0.00044316565
0.00047853378
0.00051629863
0.00055385478
0.00059052189
0.00062769446
0.0006666107
0.0007101601
0.00075624954
0.00080887608
0.00085748187
0.00018796702
0.00087115008
0.0016200336
0.002173285
0.0025422937
0.0026312499
0.0024587614
0.0020851789
0.0015984535
0.0011271279
0.00076686554
0.00055175603
0.00045417175
0.0004248636
0.00042971183
0.00045376389
0.00048835094
0.00052716811
0.00056587398
0.00060262452
0.0006378496
0.00067381647
0.00071242563
0.00075658201
0.00080395468
0.000858283
0.00090822935
0.00018318525
0.00084686095
0.0015899395
0.0021494557
0.0025738285
0.0028028959
0.0027609283
0.002485801
0.0020393201
0.0015190695
0.0010523091
0.00071873616
0.0005374519
0.0004653712
0.00045191668
0.00046792197
0.00050022131
0.00053993758
0.00058064028
0.00061863838
0.00065325844
0.00068614935
0.00072061415
0.00075884562
0.00080377103
0.00085258748
0.00090872354
0.00096002655
0.00017814843
0.00081640849
0.0015433328
0.002098662
0.0025498795
0.0028701111
0.0029815869
0.0028309921
0.002471477
0.0019679748
0.0014292363
0.00097657753
0.00067944091
0.00053349483
0.00048589452
0.00048792711
0.00051506259
0.00055477445
0.0005979547
0.00063855952
0.00067402845
0.00070516853
0.00073507085
0.00076778782
0.00080580188
0.00085169237
0.00090214693
0.00096018479
0.0010128665
0.00017156372
0.00078059826
0.0014861374
0.0020273208
0.002495471
0.002862168
0.0030962185
0.0030991091
0.0028572004
0.0024264138
0.0018761354
0.0013325274
0.00090599334
0.00065088032
0.00054126636
0.00051741394
0.00053460549
0.00057225407
0.00061774434
0.00066212499
0.00070027719
0.00073128513
0.0007578006
0.00078417985
0.000815205
0.00085320238
0.00090033889
0.00095263887
0.0010126563
0.0010667918
0.00015958533
0.00074317436
0.0014227891
0.0019452982
0.0024161044
0.0028162346
0.0031214502
0.0032750256
0.0031772925
0.0028512296
0.0023527346
0.0017677868
0.0012318567
0.00084210944
0.00063576484
0.00056298569
0.00056167863
0.00059357013
0.00064025422
0.00068909487
0.0007317824
0.00076486513
0.00078961209
0.00081051603
0.00083320739
0.0008626803
0.00090103984
0.00094972732
0.001004072
0.0010661327
0.0011217851
0.00014471078
0.00069470243
0.0013573443
0.0018566869
0.0023246815
0.0027429016
0.0030952336
0.003347419
0.0034158515
0.0032213414
0.0028131327
0.0022514624
0.0016468701
0.0011306324
0.00079366958
0.00063866463
0.00060101773
0.00062087
0.00066619287
0.00071939587
0.00076822886
0.00080586864
0.00083125896
0.00084809913
0.00086281602
0.00088182255
0.00091018889
0.00094932404
0.00099988986
0.0010564523
0.001120593
0.0011776523
0.00012667501
0.0006407753
0.001269523
0.0017694024
0.0022261063
0.002655065
0.003040224
0.0033507566
0.003543567
0.0035161719
0.0032283179
0.002739251
0.0021249191
0.0015192959
0.0010405366
0.00076651034
0.00066242848
0.0006577218
0.00069700336
0.00075330455
0.00080933019
0.00085403732
0.00088303593
0.00089820775
0.00090593407
0.00091417555
0.00092990325
0.0009576682
0.00099810237
0.001050856
0.0011097812
0.001175984
0.001234238
0.00010548079
0.00057527448
0.0011752977
0.001655967
0.0021309486
0.002559945
0.0029671021
0.0033228213
0.0035916563
0.0037135496
0.0035794698
0.0031937647
0.0026296222
0.0019812639
0.0013906526
0.00097019644
0.00076427982
0.00071039238
0.00073534045
0.00079164146
0.00085497115
0.00090900151
0.00094491821
0.00096163594
0.00096449454
0.00096230121
0.00096428307
0.00097730171
0.0010051869
0.0010474255
0.0011026589
0.0011640475
0.0012322588
0.0012915397
8.4711552e-05
0.00049829299
0.0010615398
0.0015411282
0.0020044969
0.0024696848
0.0028854154
0.0032735378
0.0035985971
0.0038217299
0.003853621
0.0035970562
0.0031179216
0.0024890551
0.001828245
0.0012719585
0.00092984473
0.00079263881
0.00078531762
0.00083615372
0.00090545989
0.00097040676
0.0010166315
0.0010387937
0.0010399496
0.0010288807
0.0010165987
0.0010128579
0.0010240654
0.0010527991
0.0010973719
0.0011553341
0.0012192254
0.0012893564
0.0013496545
6.6052924e-05
0.00041782548
0.00092833229
0.0014091186
0.0018824647
0.0023403432
0.002809554
0.0032137433
0.0035811723
0.0038742863
0.0040325367
0.0039389354
0.0035649673
0.0030000452
0.002325821
0.0016741457
0.0011801084
0.0009266599
0.00085578591
0.00088987337
0.00096177771
0.0010381506
0.0010977931
0.0011297425
0.0011333555
0.0011161784
0.0010903474
0.0010683104
0.0010598474
0.0010702276
0.0011006421
0.0011480234
0.0012089107
0.001275284
0.0013471546
0.0014085842
5.0278422e-05
0.00034227189
0.00078731644
0.0012574363
0.0017427865
0.0022229646
0.0026855611
0.0031590051
0.0035496916
0.0039001588
0.0041445593
0.0041963819
0.003966419
0.0034854138
0.0028476642
0.0021502944
0.0015318724
0.0011303624
0.00096564157
0.00095795216
0.0010258325
0.0011125506
0.001188049
0.0012342912
0.0012453501
0.0012260914
0.0011887165
0.0011480018
0.0011171889
0.0011052425
0.001115976
0.0011488406
0.0011994647
0.0012634054
0.0013322183
0.001405623
0.0014681776
3.8266502e-05
0.0002754948
0.00065541024
0.0010914576
0.0015824637
0.0020845377
0.0025825389
0.0030449664
0.0035228045
0.0039091319
0.0042232977
0.0043807514
0.0043051175
0.0039379284
0.0033628894
0.0026697835
0.0019756042
0.0014257034
0.001133737
0.0010526141
0.0011009931
0.0011946393
0.0012872975
0.001352128
0.0013762392
0.0013601021
0.0013146287
0.0012561203
0.001201278
0.0011631149
0.0011492294
0.0011614785
0.001197563
0.0012517701
0.0013188076
0.001389973
0.0014647221
0.0015283491
3.0903307e-05
0.00022190265
0.00053823596
0.00093305334
0.0014044013
0.0019264836
0.0024541026
0.0029621157
0.0034214824
0.0039211259
0.0042828114
0.0045204163
0.0045656954
0.0043445176
0.003857144
0.0032036958
0.0024805279
0.0018219498
0.0013746677
0.0011948852
0.0011938585
0.0012865195
0.0013958323
0.0014829613
0.0015260718
0.0015192972
0.001470629
0.0013967393
0.0013173351
0.0012498251
0.0012062204
0.001192033
0.0012070037
0.0012469568
0.0013050056
0.0013751038
0.0014484786
0.0015243638
0.0015889696
2.883897e-05
0.00018559078
0.00044367338
0.00079272527
0.0012275779
0.0017460384
0.0023070038
0.0028487216
0.0033646204
0.0038394984
0.0043460818
0.0046402362
0.0047713994
0.0046894528
0.0043225015
0.0037341592
0.0030198687
0.0022960836
0.0017112259
0.0013970929
0.0013213224
0.0013915877
0.0015147173
0.0016266553
0.0016946689
0.0017044238
0.0016588848
0.0015736582
0.0014706438
0.0013716097
0.0012936337
0.001246754
0.0012340083
0.0012527896
0.0012971819
0.0013592108
0.0014322697
0.00150766
0.0015844641
0.0016498619
0.00016945957
3.2331139e-05
0.00037878649
0.00067981757
0.0010720775
0.0015586571
0.0021310833
0.0027156576
0.0032694713
0.0038155506
0.0042962036
0.0047635884
0.0049575953
0.0049759011
0.0047521154
0.0042522846
0.0035761941
0.0028252342
0.0021397633
0.0016769787
0.0015012274
0.0015193798
0.0016458768
0.0017836005
0.0018819557
0.0019159169
0.0018811913
0.0017903755
0.0016663929
0.0015349674
0.0014186501
0.0013329054
0.0012851461
0.0012755213
0.0012991244
0.0013483554
0.0014144105
0.0014902608
0.0015674273
0.0016449215
0.0017108823
0.00034930689
0.00017488768
4.1486618e-05
0.00060293658
0.00094719557
0.0013941788
0.0019400377
0.0025484117
0.0031519945
0.0037452486
0.0043203833
0.0047535251
0.0051502006
0.0052333836
0.0051234365
0.0047473742
0.0041369628
0.0033931727
0.0026402934
0.0020473691
0.0017397399
0.0016895572
0.001793569
0.0019547242
0.002087881
0.0021540585
0.0021389986
0.0020500564
0.0019096124
0.0017465493
0.0015889474
0.0014585114
0.0013681227
0.0013218886
0.0013170042
0.0013462325
0.0014005914
0.0014706024
0.001549015
0.001627682
0.0017056251
0.0017719279
0.00056811789
0.00035740047
0.00020163034
5.6245211e-05
0.00086237275
0.0012625098
0.0017691457
0.0023595072
0.0029984675
0.0036485529
0.0042866619
0.0048393305
0.0051907096
0.0055025476
0.0054639598
0.0052099511
0.0046909107
0.0039856661
0.0032004766
0.002502663
0.0020527566
0.0019124105
0.001971298
0.0021415502
0.002312768
0.0024189506
0.002433424
0.0023555529
0.0022050822
0.0020130114
0.0018126117
0.0016323198
0.0014916523
0.0013999065
0.0013575812
0.0013588312
0.0013943563
0.0014539588
0.0015277669
0.0016084561
0.0016883197
0.0017664546
0.0018329004
0.00082402098
0.00057781467
0.0004022335
0.00024756161
7.6434857e-05
0.0011752311
0.0016345517
0.0021846841
0.0028153878
0.0035124357
0.0042214237
0.0048543977
0.0053473178
0.005601958
0.0058210557
0.0056466955
0.0052392864
0.0045919736
0.0038083721
0.0030323963
0.0024542113
0.0021875549
0.0021974255
0.0023503945
0.0025572695
0.0027108334
0.002765363
0.002709325
0.0025573944
0.0023409688
0.0020979591
0.0018637616
0.0016653993
0.0015187974
0.0014290503
0.0013928429
0.0014014153
0.0014436764
0.0015085105
0.0015858602
0.0016684953
0.0017492355
0.0018273036
0.0018936896
0.0011381671
0.00083470863
0.00062986678
0.00047920314
0.00030871266
0.00010086173
0.0015473976
0.0020478198
0.0026364329
0.0033358241
0.0041119983
0.0048344571
0.0054224238
0.0058450399
0.0059898902
0.0061010511
0.0057743466
0.0052091964
0.0044514437
0.0036315994
0.0029380077
0.0025375665
0.0024657564
0.0025981359
0.0028233165
0.0030300118
0.0031355174
0.0031135378
0.0029707695
0.002736946
0.0024535359
0.0021627954
0.0019000113
0.0016889513
0.0015409457
0.0014564233
0.0014282862
0.0014451066
0.0014943527
0.0015642565
0.0016448202
0.0017290335
0.0018103166
0.0018880637
0.001954188
0.0015140696
0.0011538142
0.00089165216
0.00071823672
0.00058085067
0.0003796828
0.00012834201
0.0019615278
0.002497913
0.0031516849
0.0039454857
0.0047648682
0.0054583239
0.0059926249
0.0063326548
0.0063532065
0.0063348438
0.0058401045
0.0051270996
0.0042895854
0.003504322
0.0029707574
0.0027841727
0.0028921757
0.0031196499
0.0033766771
0.0035444304
0.0035700096
0.0034490956
0.0032072656
0.0028879405
0.0025398436
0.0022069337
0.0019220178
0.0017041612
0.0015592493
0.0014829268
0.0014644843
0.0014902178
0.0015464846
0.001621185
0.0017045667
0.0017899651
0.0018714499
0.0019486261
0.0020142907
0.0019325596
0.0015363933
0.0012181908
0.00098717707
0.00083308727
0.0006971632
0.00045495055
0.00015689504
0.0024127007
0.0030088891
0.0037543809
0.0046188285
0.0054401234
0.0060989945
0.0065688721
0.0068103376
0.0066829332
0.0065102812
0.0058361009
0.0050027921
0.0041500745
0.0034921482
0.0031784053
0.0032193681
0.0034626117
0.0037536506
0.0039919289
0.0040800391
0.0039958428
0.0037579211
0.003409781
0.0030056296
0.0025983767
0.0022307646
0.0019311137
0.0017124951
0.001574957
0.0015094429
0.0015019705
0.0015369926
0.0016001391
0.0016792505
0.001765009
0.0018511799
0.0019325201
0.0020088821
0.0020739056
0.0023884944
0.0019620562
0.0016094111
0.0013225937
0.0011100676
0.00096282619
0.00081741433
0.0005284291
0.00018380616
0.0029216568
0.0036040923
0.0044277568
0.0053274148
0.0061450359
0.0067607493
0.0071527414
0.0072716668
0.0069647741
0.0066188956
0.0057711527
0.0048743611
0.0041042512
0.0036557587
0.0035999647
0.0038428863
0.004173037
0.0044784428
0.0046443911
0.0046139296
0.0043945395
0.0040274663
0.0035711586
0.0030871562
0.0026289935
0.002235626
0.0019290891
0.0017156122
0.0015893499
0.0015368081
0.001541198
0.0015856227
0.0016553361
0.0017383932
0.0018260405
0.0019125558
0.0019934101
0.0020687312
0.0021329472
0.0028997275
0.0024254886
0.0020434614
0.0017224943
0.0014538595
0.0012461139
0.0010937008
0.00093357695
0.00059132934
0.00020410735
0.0035106482
0.0042728352
0.0051487449
0.0060790118
0.0068846595
0.0074483134
0.0077385779
0.0077008001
0.0071855395
0.0066527011
0.0056754079
0.0048126082
0.0042260289
0.0040505041
0.0042528936
0.0046403968
0.0050100788
0.0052633016
0.0053054087
0.0051220902
0.0047491092
0.0042473733
0.0036865862
0.003131425
0.0026328525
0.0022235792
0.001918045
0.0017152804
0.0016036784
0.0015657715
0.0015825519
0.0016362366
0.0017120677
0.0017985228
0.0018875349
0.0019739625
0.0020540152
0.0021280896
0.0021913355
0.0034868507
0.0029427556
0.0025155794
0.002164376
0.0018606664
0.0015949269
0.0013801145
0.0012130078
0.0010287101
0.00063089431
0.0002154905
0.0041745566
0.0049954855
0.0059256888
0.0068821463
0.0076680171
0.0081609027
0.0083143248
0.0080760021
0.0073331734
0.0066303445
0.005618302
0.0049021666
0.0045830809
0.0047127074
0.0051340149
0.0055954622
0.005938544
0.0060711811
0.0059445923
0.0055821379
0.0050450936
0.0044101905
0.0037535796
0.0031391829
0.0026121931
0.0021972423
0.0019003458
0.001713276
0.0016190962
0.0015969861
0.0016263339
0.0016889139
0.001770278
0.0018595165
0.0019493498
0.0020352899
0.0021142602
0.002186882
0.0022489844
0.0041490995
0.0035328771
0.0030406265
0.0026444508
0.0023072857
0.0020034528
0.0017290715
0.0014918574
0.0012956577
0.0010844517
0.00064310447
0.00021967403
0.0048972937
0.0057789734
0.0067643201
0.0077464265
0.0084959278
0.0088846527
0.0088504858
0.0083806329
0.0074060103
0.0066057345
0.0056886607
0.0052216647
0.0052335771
0.0056594418
0.0062219065
0.0066751052
0.0069111961
0.0068641474
0.0065328696
0.005974484
0.0052715885
0.0045115285
0.0037721275
0.0031127039
0.0025701638
0.0021596623
0.0018784281
0.0017112991
0.0016366441
0.0016310086
0.0016727613
0.0017436659
0.0018298588
0.0019212222
0.0020113719
0.0020964762
0.0021740714
0.0022449988
0.0023085614
0.0048739778
0.0041984177
0.0036369065
0.0031769688
0.0027916111
0.0024503699
0.0021318093
0.0018238273
0.0015528502
0.0013289807
0.0010962633
0.00063990428
0.00021491281
0.0056837099
0.0066291219
0.0076766551
0.0086775287
0.0093577353
0.009592116
0.0093198434
0.0086041781
0.0074383021
0.0066797829
0.005974273
0.005843406
0.0062193178
0.0068726955
0.0074688198
0.0078285045
0.0078812138
0.007605622
0.0070445189
0.0062838418
0.0054215322
0.0045500579
0.0037442883
0.0030555851
0.0025105436
0.0021140738
0.0018546846
0.0017109265
0.0016572428
0.001668276
0.0017219508
0.0018004176
0.0018906599
0.0019835292
0.0020735561
0.0021574479
0.0022332891
0.0023046816
0.0023714167
0.005663796
0.0049300275
0.0043089217
0.0037794422
0.0033275954
0.0029340688
0.0025672346
0.0022001246
0.0018523305
0.0015567613
0.0013147961
0.0010885191
0.00061842944
0.00020423469
0.0065392777
0.007557644
0.0086718251
0.0096687621
0.010228568
0.010245348
0.0097064492
0.008758394
0.0075180664
0.0069455397
0.0065577761
0.0068339988
0.0075380819
0.0082991429
0.0088199704
0.0089972508
0.0088026481
0.0082622561
0.0074589522
0.006499682
0.0054918449
0.0045273445
0.0036740092
0.0029723998
0.0024375206
0.0020637414
0.0018313987
0.0017135824
0.001681652
0.0017090821
0.0017739007
0.0018590436
0.0019525903
0.0020464169
0.0021358246
0.0022179606
0.0022938224
0.002367453
0.002435854
0.0065233625
0.0057268189
0.0050492483
0.0044569715
0.0039314437
0.0034699053
0.0030316815
0.0026038309
0.002187872
0.0018198257
0.0015113752
0.0012887226
0.0010472136
0.00058522271
0.00018838119
0.0074759811
0.0085752208
0.0097447236
0.010696863
0.011068591
0.010815415
0.010012349
0.0089101071
0.007742581
0.0074972206
0.0075242369
0.0082209189
0.0091365602
0.0098629357
0.010207963
0.01012337
0.0096316161
0.0088066715
0.0077611178
0.0066164377
0.0054831245
0.0044475027
0.0035666694
0.0028684093
0.002355432
0.0020118494
0.0018106897
0.0017204799
0.0017104139
0.0017535435
0.0018285478
0.0019194883
0.0020156577
0.0021097896
0.0021978283
0.0022795987
0.0023574589
0.0024320858
0.0025018653
0.0074650757
0.0065926951
0.0058540891
0.0052029583
0.0046071547
0.004066355
0.0035405321
0.0030321885
0.0025464277
0.0021132652
0.0017326005
0.0014626127
0.001224994
0.00098815659
0.00053777658
0.00016880322
0.0085050417
0.0096777727
0.010873417
0.011718749
0.011836396
0.011294743
0.010271443
0.0091451002
0.0082123026
0.0084314044
0.00892663
0.0099669661
0.010926143
0.011487375
0.011564531
0.01115281
0.010333503
0.0092186384
0.0079421778
0.0066332961
0.0053993895
0.0043166715
0.003428707
0.0027492366
0.0022686001
0.0019614176
0.0017944045
0.0017325498
0.0017438495
0.001801712
0.0018859014
0.0019817952
0.0020797361
0.002173178
0.0022608891
0.0023445172
0.002423238
0.0024985717
0.0025694311
0.0085005285
0.007541963
0.0067267126
0.0060110793
0.0053503489
0.00473381
0.0041079857
0.003498106
0.0029283558
0.0024263643
0.0019778795
0.0016519388
0.0013690036
0.0011440742
0.00090888802
0.00047800095
0.00014790254
0.009621562
0.010844465
0.012019443
0.012679929
0.012511035
0.011701592
0.01055897
0.0095638866
0.0090255708
0.009820961
0.010759811
0.011972081
0.01280579
0.013097828
0.012822046
0.012041649
0.010881762
0.0094851194
0.0079992057
0.0065537714
0.0052473968
0.0041425544
0.0032672086
0.0026206062
0.0021811921
0.0019151575
0.0017840111
0.0017504314
0.0017822016
0.0018537125
0.0019460505
0.0020457952
0.0021442166
0.002237707
0.0023276023
0.0024118934
0.0024911888
0.002566871
0.0026385271
0.0096222334
0.0085869145
0.0076831039
0.0068837732
0.0061521293
0.0054595517
0.0047353058
0.0040137345
0.0033441239
0.0027597953
0.002239603
0.0018597689
0.0015177786
0.0012593273
0.0010421953
0.00081165206
0.00040902584
0.00012721124
0.010803644
0.012035835
0.013121513
0.013543959
0.013094069
0.012095054
0.010963692
0.010265133
0.010275306
0.011689738
0.012932244
0.014109165
0.014680097
0.014614792
0.013926144
0.01275518
0.01125848
0.0096004715
0.0079348925
0.0063850623
0.0050361374
0.0039338818
0.003089578
0.0024881198
0.0020970228
0.0018752871
0.0017806037
0.0017746515
0.0018257921
0.0019096962
0.0020087683
0.0021107251
0.0022101052
0.0023064894
0.0023971163
0.0024818216
0.0025612445
0.0026369481
0.0027091204
0.010802752
0.0097153972
0.0087371
0.0078394259
0.0070140712
0.0062297045
0.0054132823
0.0045793536
0.0038049591
0.0031230351
0.0025180774
0.0020826994
0.0016802448
0.001370736
0.0011292505
0.00092446188
0.00069897555
0.00033718304
0.00010779626
0.012009177
0.01320582
0.014136608
0.014304629
0.013631419
0.012557337
0.011580648
0.011353858
0.012001814
0.013968195
0.015296333
0.016262959
0.016471297
0.015968649
0.014836832
0.013270168
0.01145428
0.0095658864
0.0077565196
0.0061373905
0.004776174
0.0036999983
0.002903199
0.0023569915
0.0020193213
0.0018435493
0.0017851598
0.0018058008
0.0018748571
0.0019693539
0.0020731232
0.0021776005
0.0022811181
0.0023784561
0.0024696274
0.0025541999
0.0026333623
0.0027087472
0.0027811759
0.011999126
0.010890082
0.0098702344
0.0088929465
0.0079548087
0.0070505509
0.0061249157
0.005186864
0.0043086588
0.0035251734
0.0028235867
0.0023211723
0.0018544182
0.0014904053
0.001205469
0.00098591245
0.00079347105
0.00057943782
0.000267765
8.9898971e-05
0.013194755
0.01431117
0.01504851
0.014992409
0.014195147
0.01315352
0.012523326
0.012892443
0.014169011
0.016504904
0.017710953
0.01833599
0.018100359
0.017107557
0.015521878
0.013572032
0.011467986
0.0093882383
0.0074754055
0.0058232149
0.0044790493
0.0034503963
0.0027150071
0.0022317389
0.0019507441
0.0018215568
0.0017987005
0.001844259
0.0019289763
0.0020315881
0.0021402881
0.0022508234
0.0023557675
0.0024539554
0.0025450001
0.0026289879
0.0027074697
0.0027822118
0.00285465
0.013175315
0.012076462
0.011036708
0.010017252
0.0089950887
0.0079444625
0.0068748504
0.0058176346
0.0048405317
0.0039613897
0.0031599463
0.0025841616
0.0020418789
0.0016191548
0.0012843427
0.001030662
0.00083378848
0.0006581417
0.00046446536
0.00020478772
7.3891448e-05
0.014318558
0.015316004
0.015874682
0.015673762
0.014834994
0.013995811
0.013868734
0.014864527
0.016661858
0.019134161
0.020060393
0.020247107
0.019500768
0.01799659
0.01595995
0.013656757
0.011305462
0.0090796451
0.0071058872
0.0054565339
0.0041567055
0.0031941532
0.0025311764
0.0021162673
0.0018937975
0.0018109172
0.0018217751
0.0018894762
0.0019869029
0.0020979468
0.0022154476
0.0023282209
0.002434607
0.0025328219
0.0026231945
0.0027060969
0.0027834909
0.0028572688
0.0029294953
0.014289566
0.013238916
0.0122083
0.011159659
0.010095256
0.0089271794
0.0076840359
0.0064781611
0.0053867713
0.0044189753
0.003523658
0.002874215
0.0022508449
0.0017588479
0.0013715119
0.0010730874
0.00085253657
0.00068142272
0.00052931473
0.00035938817
0.00015132472
5.9753622e-05
0.01534217
0.016228547
0.016677434
0.016397463
0.015642091
0.015184866
0.015612255
0.017187826
0.019318485
0.021722559
0.022249419
0.021934465
0.020624754
0.018609158
0.016143937
0.013528491
0.010979177
0.0086562358
0.0066645998
0.0050521104
0.003820771
0.0029394932
0.0023572136
0.0020143155
0.0018508935
0.0018124462
0.0018536451
0.0019400992
0.0020508249
0.0021744836
0.0022954556
0.0024106262
0.0025174282
0.0026150123
0.0027041173
0.0027854337
0.0028613316
0.0029338424
0.0030056553
0.015301515
0.014332434
0.013351505
0.012297827
0.011199
0.0099518482
0.0085647612
0.0071886257
0.0059526706
0.0048824334
0.003898543
0.0031864444
0.0024817127
0.0019174997
0.0014677647
0.0011232215
0.00086635931
0.00068132538
0.00054065712
0.00041250264
0.00026942886
0.00010915524
4.7291878e-05
0.016271057
0.017104684
0.017504279
0.017231921
0.016728141
0.016716595
0.017680057
0.019736557
0.021992349
0.02416197
0.024214637
0.023338932
0.021445447
0.018928455
0.01607501
0.013199292
0.010506792
0.008137318
0.0061694298
0.0046245155
0.0034819844
0.0026939449
0.0021984583
0.0019293578
0.0018231984
0.001825276
0.0018929491
0.0019992959
0.0021277568
0.0022567248
0.0023815036
0.002497767
0.0026041943
0.0027004253
0.0027876591
0.0028668882
0.0029408882
0.0030118423
0.0030830874
0.016218164
0.01531755
0.014415801
0.013402887
0.012281575
0.010958781
0.0094634099
0.0079495619
0.0065550306
0.0053549125
0.0042681985
0.0035045723
0.0027285372
0.0020942636
0.00158017
0.0011814789
0.00088688144
0.00067430684
0.00052739968
0.00041703425
0.00031360984
0.00019950105
7.7685019e-05
3.6022457e-05
0.017159293
0.018000256
0.018416661
0.018284227
0.018106318
0.018525986
0.019984824
0.022385685
0.024566487
0.026382735
0.02590638
0.024417876
0.021951056
0.018954511
0.015764172
0.012687984
0.0099102093
0.0075441935
0.0056383892
0.0041875164
0.0031503808
0.0024648861
0.0020598064
0.0018630336
0.0018097127
0.0018481647
0.0019442706
0.0020751241
0.0022115166
0.0023463165
0.0024732294
0.0025896235
0.0026947943
0.002788943
0.0028736948
0.0029503308
0.0030220406
0.0030911943
0.0031617269
0.017088319
0.01620588
0.015371531
0.014428246
0.013316777
0.011929639
0.010325143
0.0087142414
0.0071915475
0.0058526657
0.0046390823
0.0038144944
0.0029771018
0.0022836857
0.001708217
0.0012538141
0.00091502713
0.00067333572
0.00050643477
0.00039786823
0.00031603542
0.00023696803
0.00014806973
5.5024553e-05
2.6648894e-05
0.018066677
0.018971569
0.019508151
0.019574885
0.019703238
0.020528976
0.022437348
0.025010394
0.026959993
0.028337327
0.027281186
0.025145491
0.022128967
0.018692002
0.015230621
0.012018558
0.0092142462
0.0068986629
0.0050887213
0.003754238
0.0028359102
0.0022590222
0.0019435557
0.0018142405
0.0018095586
0.0018873622
0.0020167886
0.0021592666
0.0023043089
0.0024427729
0.0025706398
0.0026860739
0.0027891041
0.0028804272
0.0029620693
0.0030356153
0.0031046939
0.0031718011
0.0032415082
0.01798092
0.017044473
0.016229998
0.015346155
0.014264486
0.012842389
0.011138897
0.0094271988
0.0078146543
0.0063699261
0.0050226903
0.0041189633
0.0032128071
0.0024711465
0.0018466958
0.0013397691
0.00095582552
0.00068025443
0.00049168103
0.00037160612
0.00029713517
0.00024048037
0.00018079756
0.00011022094
3.9224604e-05
1.8654948e-05
0.019056883
0.020104121
0.020798386
0.02102775
0.021417059
0.022657163
0.0249361
0.027518534
0.029122108
0.029998854
0.028298086
0.025504634
0.021966308
0.018159537
0.014499039
0.011218944
0.0084448191
0.0062220444
0.0045373051
0.0033378257
0.0025475234
0.0020795665
0.0018485337
0.001782746
0.0018310403
0.0019534195
0.0020996194
0.0022546099
0.0024054788
0.0025461372
0.0026735985
0.0027869897
0.0028869733
0.0029747028
0.003052612
0.0031226246
0.0031887232
0.0032535583
0.0033223598
0.018972381
0.017903474
0.01703117
0.016168576
0.01510968
0.013667464
0.011888488
0.010090649
0.0083854017
0.0068622662
0.0054094408
0.004427846
0.0034396327
0.0026447123
0.0019823834
0.0014349604
0.0010086321
0.00069951082
0.00048592516
0.00035133143
0.00027230565
0.00022561587
0.00018648465
0.0001397641
8.2801262e-05
2.8433443e-05
1.2306495e-05
0.020207039
0.02141893
0.022214748
0.022532648
0.023189721
0.024862871
0.027383157
0.029851116
0.031020963
0.031346117
0.028907214
0.025489242
0.021478259
0.017383245
0.013600018
0.010319277
0.0076277692
0.0055355825
0.004001223
0.0029499956
0.002289597
0.0019253298
0.0017755274
0.0017791767
0.0018862777
0.0020325077
0.0021964577
0.0023602736
0.0025151121
0.0026562527
0.0027819717
0.0028922094
0.0029882104
0.003071575
0.0031451932
0.0032112141
0.0032739877
0.003336351
0.0034042082
0.020135688
0.018865164
0.017847526
0.016931517
0.015856885
0.014392591
0.012563916
0.010691264
0.0089059086
0.0073071755
0.0057667109
0.0047329771
0.0036646025
0.0028077498
0.0021041969
0.0015275187
0.0010696286
0.00073011039
0.00049272979