/*--------------------------------*- C++ -*----------------------------------*\
| =========                 |                                                 |
| \\      /  F ield         | OpenFOAM: The Open Source CFD Toolbox           |
|  \\    /   O peration     | Version:  5.0                                   |
|   \\  /    A nd           | Web:      www.OpenFOAM.org                      |
|    \\/     M anipulation  |                                                 |
\*---------------------------------------------------------------------------*/
FoamFile
{
    version     2.0;
    format      ascii;
    class       volVectorField;
    location    "240";
    object      U;
}
// * * * * * * * * * * * * * * * * * * * * * * * * * * * * * * * * * * * * * //

dimensions      [0 1 -1 0 0 0 0];

internalField   nonuniform List<vector> 
9200
(
(1.0390227 0.00074621514 -1.8046202e-24)
(1.0392064 0.0023817209 8.3801696e-22)
(1.0367751 0.00074592339 0)
(1.039494 0.0037931278 -4.4360934e-22)
(1.0369314 0.0024033988 7.3244272e-22)
(1.0357866 0.00073182069 0)
(1.0398914 0.0052027921 -4.4465101e-23)
(1.0372019 0.0038342221 9.5554779e-24)
(1.0359279 0.0023710469 0)
(1.0343466 0.0007008468 0)
(1.0403525 0.0064965674 9.2030038e-22)
(1.0375636 0.0052732097 6.9067467e-22)
(1.0361792 0.0037870443 4.1503721e-22)
(1.0344643 0.0022814181 2.5288511e-23)
(1.0332444 0.00066495889 2.4457627e-25)
(1.0408792 0.0077118646 8.8113589e-22)
(1.0380093 0.0066165324 -2.8761477e-23)
(1.0365112 0.0052155159 1.385723e-21)
(1.0346874 0.0036459454 5.6951494e-22)
(1.0333462 0.0021661731 1.8459119e-23)
(1.0321578 0.0006293241 -1.0621774e-21)
(1.0414532 0.0088137594 9.3092121e-22)
(1.0385506 0.0079141443 9.9489075e-22)
(1.0369139 0.0065658321 -8.316599e-22)
(1.0349686 0.0050205889 -6.1570771e-23)
(1.0335498 0.0034594851 5.1069351e-22)
(1.0322478 0.0020427205 5.1887662e-22)
(1.0311954 0.00060146691 9.1212876e-23)
(1.042095 0.0097700762 4.9891101e-22)
(1.0392013 0.0091583705 8.3986508e-22)
(1.037395 0.0078976311 9.994457e-22)
(1.0352958 0.0063283499 6.158984e-23)
(1.0337987 0.0047515331 -1.314387e-21)
(1.0324373 0.0032581917 -5.8389691e-22)
(1.0312821 0.0019365625 -5.9815918e-22)
(1.0302995 0.0005818704 9.8776816e-22)
(1.0428223 0.010543611 -1.2616069e-21)
(1.0399998 0.010336191 8.4932446e-22)
(1.0379547 0.009229643 6.3775341e-23)
(1.035657 0.0076271069 4.7051455e-22)
(1.034076 0.0059721622 1.3803451e-22)
(1.0326665 0.0044560497 -1.9527503e-21)
(1.0314668 0.0030861513 1.7135609e-22)
(1.0303883 0.0018568624 -1.0177723e-21)
(1.0294665 0.00056747048 -2.0972488e-21)
(1.0436094 0.011122542 1.0195307e-21)
(1.0410057 0.011485436 -2.8454936e-22)
(1.0385993 0.010591801 -5.518618e-23)
(1.0360192 0.0089503074 -2.4061255e-22)
(1.0343557 0.0071610514 -2.0107382e-22)
(1.0329193 0.0055736481 2.2406919e-22)
(1.0316953 0.0042038459 6.8286525e-22)
(1.0305706 0.0029609257 1.146058e-21)
(1.0295592 0.0018025524 6.5020259e-22)
(1.0286814 0.00055436064 1.6778932e-22)
(1.044428 0.011468116 -4.9461703e-22)
(1.0423896 0.01256129 2.6930453e-22)
(1.0393511 0.012069466 6.268676e-22)
(1.0363597 0.010352221 -7.8872177e-22)
(1.0345769 0.0083418936 5.327012e-22)
(1.0331633 0.0066250779 -1.7527829e-21)
(1.0319552 0.0052372661 7.0182762e-23)
(1.030804 0.0040266007 1.7229168e-21)
(1.0297369 0.0028816445 -8.623874e-22)
(1.0287749 0.0017630535 1.8999158e-21)
(1.0279405 0.00054063764 -2.8794475e-22)
(1.0456284 0.011393882 7.946876e-23)
(1.0438866 0.013591273 -6.6332008e-22)
(1.0400136 0.013801533 -8.4834068e-22)
(1.0366042 0.011929219 0)
(1.0346939 0.0095442347 3.6888902e-23)
(1.033337 0.0076158605 -3.2564798e-22)
(1.0322254 0.0061817472 -3.4774564e-22)
(1.031078 0.0050147371 -8.4914235e-22)
(1.029971 0.0039243453 -2.2116567e-22)
(1.0289427 0.0028292665 -1.0936324e-21)
(1.028029 0.0017253105 -7.456805e-22)
(1.0272429 0.0005254238 1.7190226e-22)
(1.0472669 0.010851184 3.617276e-23)
(1.0457139 0.014948811 4.4568175e-23)
(1.0406166 0.01586616 0)
(1.0366791 0.013738061 0)
(1.0345831 0.010804581 -1.6669807e-22)
(1.0333958 0.0085309429 -2.3100134e-22)
(1.0324572 0.0070262216 -4.5717083e-22)
(1.0313887 0.005913335 9.9950575e-22)
(1.0302498 0.0049046252 1.0357259e-22)
(1.0291675 0.0038644361 2.6143679e-24)
(1.0281828 0.0027796607 1.2304975e-21)
(1.0273223 0.001677423 -1.3350671e-21)
(1.0265922 0.00050700693 2.756544e-21)
(1.0493485 0.0096973126 -6.0514957e-22)
(1.0482777 0.016543436 1.826416e-23)
(1.0413727 0.018262052 -2.1920407e-22)
(1.0365493 0.015829374 2.3726718e-23)
(1.0341745 0.012127573 -1.8719982e-23)
(1.0332581 0.0093669213 -1.6121541e-22)
(1.0326223 0.0077272952 2.7332997e-22)
(1.0317061 0.0067076662 1.6185689e-23)
(1.03059 0.005811406 1.1150849e-21)
(1.0294375 0.0048550134 1.0411149e-21)
(1.0283889 0.0038069081 3.3824349e-22)
(1.0274594 0.0027113297 9.8034977e-22)
(1.026661 0.0016106601 6.6803997e-22)
(1.0259935 0.00048321424 -7.5674034e-22)
(1.0517785 0.0081074512 -1.0046743e-22)
(1.0516128 0.018465417 5.899775e-22)
(1.0422801 0.021213051 -4.1376401e-22)
(1.0361068 0.018334507 8.072883e-23)
(1.0333587 0.013563565 -7.2032472e-23)
(1.0328444 0.010054314 2.9762119e-22)
(1.0326656 0.0082391967 2.5890883e-22)
(1.0320265 0.007342019 -3.4937116e-22)
(1.0309805 0.0066356865 -9.7098285e-23)
(1.0297823 0.0057941333 -1.2287777e-22)
(1.028633 0.0048080268 -2.0093824e-23)
(1.0276378 0.0037182845 -1.473972e-22)
(1.0267813 0.0026090338 -1.2606108e-21)
(1.0260533 0.0015210049 6.4245012e-22)
(1.0254523 0.00045355952 -5.8128021e-22)
(1.0545296 0.0057263919 2.1789466e-21)
(1.0557016 0.020621089 -1.3525082e-21)
(1.0433457 0.024951989 -5.102721e-23)
(1.035231 0.021435046 1.0255939e-22)
(1.0319479 0.015177406 -1.852248e-22)
(1.0319894 0.010548685 -4.3601378e-22)
(1.0326173 0.0084790791 -2.8079255e-23)
(1.0323596 0.0077430965 3.2135161e-23)
(1.0314501 0.0073233838 -2.1559344e-22)
(1.0302082 0.0066874025 -2.6519873e-22)
(1.0289476 0.0057827475 -2.170148e-21)
(1.0278405 0.0047155203 4.6574512e-22)
(1.0269301 0.0035763352 3.9256806e-22)
(1.026159 0.0024664438 1.9552529e-22)
(1.0255062 0.0014103211 3.7539929e-23)
(1.0249716 0.00042004551 6.4720074e-22)
(1.0576421 0.0030032346 0)
(1.0603377 0.023307694 -1.5132931e-21)
(1.0444717 0.029726241 9.4319804e-22)
(1.0338102 0.025313182 0)
(1.029754 0.017021304 0)
(1.0305614 0.010822642 0)
(1.0322922 0.008261705 1.1189368e-22)
(1.032883 0.0078600748 4.9480013e-22)
(1.0321001 0.0078124033 3.4964825e-22)
(1.0307829 0.0075013518 6.426867e-22)
(1.0293449 0.0067588282 9.5940895e-23)
(1.0280907 0.0057091547 4.7422949e-22)
(1.0270798 0.0045422245 1.1183719e-24)
(1.0262811 0.0033715453 -4.4971145e-22)
(1.0256021 0.0022874266 -1.303509e-22)
(1.0250234 0.0012857618 -3.1518564e-22)
(1.024551 0.00038574995 0)
(1.0612866 -0.00060031815 4.2238428e-21)
(1.0652526 0.026278242 4.3896785e-21)
(1.0453633 0.03570968 -1.1701031e-21)
(1.0316311 0.030171921 1.7006267e-21)
(1.0265754 0.019177312 1.3736721e-21)
(1.0283701 0.010799674 0)
(1.0316328 0.0075163699 7.4422335e-22)
(1.0334331 0.0074379767 -2.0570515e-22)
(1.0329881 0.0080146965 4.5835602e-22)
(1.0316151 0.0082043537 3.9932761e-22)
(1.0299022 0.0077453092 -3.8766148e-22)
(1.0283869 0.006746868 1.2750525e-22)
(1.0272475 0.005516083 7.9429002e-22)
(1.0263821 0.0042750596 -1.473231e-21)
(1.0257056 0.0031100777 -4.0289577e-22)
(1.0251161 0.0020842347 -2.1198024e-21)
(1.0246046 0.0011573201 -8.4352666e-22)
(1.0241861 0.00035340537 -8.1979591e-22)
(1.0674709 -0.0040869645 -5.7999706e-22)
(1.071685 0.029805157 2.7448457e-21)
(1.0458877 0.043140656 1.0129226e-21)
(1.0283251 0.036158609 1.1634715e-21)
(1.0221544 0.021720364 -2.6358225e-22)
(1.0251977 0.010405736 -4.0784073e-22)
(1.0305463 0.0060674851 -1.7132208e-21)
(1.0339735 0.0063907553 -7.5995075e-22)
(1.034258 0.0080042013 -8.0819592e-23)
(1.0326548 0.0088110894 -6.786492e-22)
(1.0306507 0.0087923302 -9.614049e-23)
(1.0287761 0.0078866997 -8.7049245e-22)
(1.0273979 0.0065561438 1.4524484e-22)
(1.0264657 0.0051771752 1.201739e-22)
(1.0257729 0.0039236998 1.803869e-22)
(1.0252126 0.0028116648 3.1956214e-22)
(1.0247008 0.0018737298 -7.035244e-22)
(1.0242456 0.0010348394 3.3629184e-23)
(1.0238702 0.00032543785 -7.8223849e-22)
(1.0746839 -0.010376053 -3.2814055e-21)
(1.0825899 0.03323326 -5.2292757e-21)
(1.0476436 0.051975622 1.0300984e-20)
(1.023853 0.043331179 -1.3362262e-21)
(1.0162469 0.024734623 1.8936995e-22)
(1.0207942 0.0095484957 -1.5248998e-22)
(1.0289055 0.0037227941 2.3059572e-22)
(1.0345807 0.0045013147 -4.4276839e-23)
(1.0359563 0.0074596756 -7.9151909e-24)
(1.0341579 0.0094168425 3.7423006e-22)
(1.031571 0.0099799763 -1.1361797e-21)
(1.0292212 0.0092244676 2.9778838e-22)
(1.0275366 0.0077359455 4.6958206e-22)
(1.026477 0.0061417074 -4.169898e-23)
(1.0257959 0.004710113 1.2302528e-22)
(1.0252668 0.0035160741 1.0106135e-21)
(1.0248038 0.0025024465 -2.2349845e-22)
(1.0243515 0.0016729381 1.1563984e-21)
(1.023939 0.00092610117 3.0694405e-22)
(1.0235951 0.00030435712 8.2174092e-22)
(1.0807438 -0.016448375 -3.1648632e-22)
(1.0985844 0.03731526 -1.2034112e-20)
(1.0538248 0.062272416 1.4667553e-21)
(1.0195434 0.051892163 1.0214329e-21)
(1.0085738 0.028175085 -1.2516862e-21)
(1.0149305 0.0081375817 -1.2903594e-21)
(1.0265656 0.00026595359 2.010259e-21)
(1.0352769 0.0015239928 1.0163904e-21)
(1.0381979 0.0062476715 4.4119346e-22)
(1.0363642 0.0098997277 0)
(1.0329279 0.011325813 7.804665e-22)
(1.0297616 0.010833626 3.2387966e-22)
(1.0276066 0.0091428336 -6.4792881e-22)
(1.0263846 0.0072183316 9.0678599e-23)
(1.0257066 0.0055275722 -4.4368583e-22)
(1.0252649 0.0041616314 7.8692512e-22)
(1.0248669 0.0030902624 1.4738904e-22)
(1.0244736 0.0022076871 -3.5791615e-22)
(1.0240597 0.0014955862 7.0199235e-22)
(1.0236755 0.00083640857 4.9612157e-23)
(1.0233519 0.00029211912 7.9275622e-22)
(1.0802085 -0.022718781 7.0114687e-21)
(1.107156 0.037935985 -1.6191904e-20)
(1.0657247 0.074159058 -1.1811348e-20)
(1.0179932 0.062335015 4.9929294e-22)
(0.99922556 0.032234593 -4.3262872e-21)
(1.0073644 0.0060931281 1.4120081e-22)
(1.0233727 -0.0045248118 0)
(1.0360779 -0.0027946021 4.4901962e-22)
(1.0411515 0.0041473016 2.2962296e-22)
(1.0394565 0.010192438 1.111301e-21)
(1.0349119 0.012953353 4.4193835e-22)
(1.0305363 0.012815679 6.8935719e-23)
(1.027624 0.010866523 -7.9804458e-23)
(1.0261199 0.0084802605 3.7011843e-22)
(1.0254543 0.0063979069 -2.3808551e-22)
(1.0251296 0.0047907578 2.6218767e-22)
(1.0248765 0.0035893855 -9.9320351e-23)
(1.024565 0.0026843532 6.2224288e-22)
(1.0242111 0.001947106 1.2458506e-22)
(1.0238152 0.0013503443 1.6585065e-23)
(1.0234462 0.00076865508 4.211402e-22)
(1.0231317 0.00028866104 0)
(1.073821 -0.030269306 1.7669026e-21)
(1.1075891 0.038781796 1.2266705e-20)
(1.0793533 0.088700546 -4.4739778e-22)
(1.018749 0.075515629 -5.2748716e-22)
(0.98868362 0.037498537 -5.0196594e-21)
(0.99771761 0.003356856 1.8590089e-21)
(1.0191791 -0.010863565 -8.8384312e-22)
(1.036937 -0.0087409778 3.7454079e-22)
(1.0450064 0.00093683718 -1.9490623e-22)
(1.0436887 0.010184954 -8.6733207e-23)
(1.0377383 0.014959928 -5.6228775e-24)
(1.0316337 0.015383718 -2.6359532e-22)
(1.0275641 0.013065895 -1.064421e-22)
(1.0256198 0.010019755 1.2943965e-21)
(1.0249467 0.0073694527 8.8978707e-22)
(1.0248072 0.0054013468 6.3449483e-22)
(1.0247535 0.0040228114 -1.3589329e-22)
(1.0246169 0.0030488672 -9.6353139e-22)
(1.024345 0.0023295358 -3.6558518e-23)
(1.0240018 0.0017332345 3.7717011e-22)
(1.0236072 0.0012407339 0)
(1.0232431 0.00072305838 -9.5550141e-22)
(1.0229271 0.00029088724 -2.4516283e-24)
(1.0602532 -0.037378417 -6.786352e-21)
(1.1024175 0.039337534 4.137629e-20)
(1.0789078 0.1035611 -1.3525598e-20)
(1.0167268 0.093231044 -2.9743433e-21)
(0.97653357 0.045043927 -9.8771831e-21)
(0.98545634 -0.00014234546 0)
(1.0137685 -0.018963949 -3.0662063e-22)
(1.0378126 -0.016605952 8.4679993e-22)
(1.0498864 -0.003663489 -1.5207386e-21)
(1.0493685 0.0097922651 -1.6966457e-21)
(1.0416674 0.017460489 9.1348552e-22)
(1.0331808 0.018766455 2.8740907e-22)
(1.0274147 0.015955429 -2.0684502e-22)
(1.0247797 0.011962081 6.4081274e-22)
(1.0240832 0.0084989276 -7.1594168e-22)
(1.0241962 0.0060040755 -1.4246884e-21)
(1.0244536 0.0043650787 -2.2211788e-22)
(1.0245566 0.0033062641 -3.3298173e-22)
(1.0244605 0.0025839246 9.8428405e-22)
(1.0241858 0.0020459295 -3.0966494e-22)
(1.0238308 0.0015721823 -8.1466685e-22)
(1.0234263 0.0011663387 8.8800047e-22)
(1.023059 0.00069723904 -6.7940567e-22)
(1.0227328 0.00029381202 -1.3085986e-24)
(1.0402906 -0.044226272 -1.8151018e-22)
(1.0885919 0.042606597 3.738306e-20)
(1.0613428 0.11847697 -7.933268e-22)
(1.0079349 0.11281519 6.3448743e-21)
(0.96196047 0.055033016 6.8405259e-21)
(0.97038209 -0.0040093548 -8.3456987e-21)
(1.0067853 -0.0290872 -4.0391797e-22)
(1.0386517 -0.026660434 1.1190956e-23)
(1.0559546 -0.0099626875 2.2672234e-22)
(1.0568074 0.0089013019 -1.1811719e-21)
(1.0470028 0.020603612 9.4810918e-22)
(1.0352879 0.023258666 -1.6901308e-22)
(1.0271413 0.019800372 5.881574e-22)
(1.0234863 0.014473353 -7.9124875e-23)
(1.0227209 0.0098492127 -1.0723532e-21)
(1.023188 0.0066070782 -2.2603382e-23)
(1.0238836 0.0045918999 -4.9508349e-23)
(1.0243569 0.0034119169 -4.7021691e-22)
(1.0244975 0.0027035409 0)
(1.0243762 0.0022214142 -1.0497451e-22)
(1.0240663 0.0018400527 -3.1186779e-23)
(1.0236857 0.0014649182 6.5297064e-23)
(1.0232632 0.0011241496 -4.7803409e-23)
(1.0228866 0.00068728359 9.6894842e-22)
(1.0225462 0.0002941063 5.4847905e-22)
(1.0165273 -0.05035179 5.8278244e-21)
(1.0704777 0.04569213 -2.2647112e-20)
(1.0392943 0.1332142 -4.9246243e-21)
(0.99287491 0.13146713 -8.9702006e-22)
(0.94651466 0.066215538 1.5633848e-20)
(0.9531656 -0.0081845467 8.3250093e-22)
(0.99805815 -0.041585521 -5.6581235e-22)
(1.0393768 -0.039162303 2.3364857e-23)
(1.0632262 -0.018271026 -3.9731528e-21)
(1.0663109 0.0073000959 -1.6343062e-22)
(1.0540663 0.024538929 -1.3616642e-21)
(1.0380663 0.02920072 -1.4252452e-23)
(1.0266638 0.024913528 -3.0491337e-22)
(1.0215763 0.017748583 -3.4592408e-22)
(1.0206833 0.011501209 -3.7335609e-22)
(1.0216315 0.0072094417 1.4049805e-21)
(1.0229464 0.0046655108 2.1035565e-21)
(1.0239446 0.0033157608 5.9680282e-22)
(1.0244496 0.0026338846 8.5993581e-22)
(1.0245268 0.0022499576 1.9740205e-23)
(1.0243345 0.0019702577 -1.0286636e-21)
(1.0239689 0.001706389 -2.6657259e-22)
(1.0235562 0.0014074312 7.3974344e-22)
(1.0231096 0.0011091219 -8.5693832e-22)
(1.0227207 0.00068929857 7.3499779e-22)
(1.0223656 0.0002929427 -3.9794996e-23)
(0.9910354 -0.05576625 -2.2684378e-22)
(1.0477324 0.048686931 -2.6567748e-20)
(1.0172763 0.14745232 2.5185061e-20)
(0.97616875 0.14737552 -1.115924e-20)
(0.93241316 0.079481521 -3.7298429e-21)
(0.93472482 -0.012983848 7.598726e-21)
(0.98759856 -0.056494685 8.5050413e-22)
(1.0395785 -0.05423536 1.2671798e-21)
(1.0714809 -0.028724994 9.2106133e-21)
(1.0779261 0.0048511551 3.6329356e-21)
(1.0631276 0.029459777 -2.2692406e-22)
(1.0416134 0.036993741 2.3974634e-21)
(1.0258968 0.031648133 -9.1491502e-22)
(1.0188674 0.022014957 -6.3712059e-22)
(1.0177538 0.013542349 -2.8336587e-22)
(1.0193421 0.0078067098 2.9855216e-22)
(1.0215102 0.0045277309 -4.2737676e-23)
(1.0232511 0.0029463933 1.1174407e-23)
(1.0242704 0.0023093789 2.0566467e-22)
(1.0246524 0.0020776768 5.252815e-23)
(1.0245979 0.0019534847 0)
(1.0243099 0.0018224237 -3.8453814e-22)
(1.0238795 0.001634127 -3.8968626e-23)
(1.0234336 0.0013906949 0)
(1.022961 0.0011151003 1.0520136e-21)
(1.0225576 0.00070067541 2.8612124e-24)
(1.0221888 0.00029432693 -5.3952682e-22)
(0.96470421 -0.060512961 -1.9430724e-21)
(1.0226826 0.051674464 -1.9460837e-21)
(0.99155101 0.16094155 2.3289782e-20)
(0.95477578 0.16241816 -3.1366917e-21)
(0.91679386 0.091693788 -3.8575226e-22)
(0.91593148 -0.017019792 -7.7672731e-21)
(0.97454174 -0.073012274 -1.6584269e-22)
(1.0385258 -0.071718782 1.9801555e-21)
(1.0799183 -0.041128461 -2.816285e-21)
(1.0909256 0.0016365064 -7.8460896e-21)
(1.0739312 0.035677789 4.2378752e-21)
(1.0458982 0.047101534 -2.3738761e-22)
(1.0246845 0.040397088 -2.8653629e-22)
(1.0151094 0.027507059 -4.4779505e-22)
(1.0136842 0.016068863 -9.5564691e-22)
(1.0160983 0.0083798282 -2.6145119e-22)
(1.019418 0.0041036399 -1.4254216e-21)
(1.0221827 0.00220199 -1.0219707e-21)
(1.0239292 0.0016406831 -4.2270026e-22)
(1.0247354 0.0016354165 -6.6931817e-22)
(1.0248918 0.0017474582 -3.6862064e-22)
(1.0246743 0.0018005297 9.4251573e-23)
(1.0242808 0.001756083 3.3127015e-23)
(1.0237902 0.0016125767 0)
(1.0233147 0.0014035157 0)
(1.0228149 0.0011369265 -7.6509419e-23)
(1.022394 0.00072001376 9.5302172e-22)
(1.022014 0.00030060374 1.0359762e-21)
(0.93813894 -0.064712823 0)
(0.99664686 0.054420653 -1.3407486e-20)
(0.96465697 0.17336544 -2.2143692e-20)
(0.93033254 0.17628834 -3.332283e-21)
(0.8967079 0.10331084 0)
(0.89669 -0.020797304 1.6996345e-22)
(0.95943025 -0.091195235 -1.3694555e-21)
(1.0356626 -0.091317956 6.2467809e-21)
(1.0877236 -0.055442144 -1.3896689e-20)
(1.1044038 -0.0020863443 2.3808349e-21)
(1.0851454 0.043685148 -5.3605405e-22)
(1.0500918 0.060083904 -1.575314e-21)
(1.0227134 0.051595564 8.7517362e-23)
(1.0099774 0.034478668 -9.9867306e-22)
(1.0081724 0.01916584 -2.5825895e-22)
(1.0116508 0.0089017058 -1.0349972e-21)
(1.0164836 0.0032916827 -1.3328622e-22)
(1.0206311 0.00095723263 -3.0552251e-22)
(1.0233817 0.00050147659 -1.0090779e-22)
(1.024786 0.00083225604 -3.2697529e-22)
(1.0252248 0.001290989 -2.434882e-22)
(1.0251109 0.0016171199 -1.8834441e-22)
(1.0247307 0.0017620828 2.3700233e-23)
(1.0242381 0.0017451238 8.8456892e-22)
(1.0237048 0.0016313246 2.5700007e-22)
(1.0231978 0.0014376135 -8.9628013e-24)
(1.0226688 0.0011707957 -1.0168048e-21)
(1.0222293 0.00074534959 6.2975752e-22)
(1.0218398 0.00031065339 -1.551989e-21)
(0.9118581 -0.068230156 1.7797682e-21)
(0.97048106 0.056611385 0)
(0.93759387 0.18481876 0)
(0.90504582 0.18876983 0)
(0.87540293 0.11370177 1.5476027e-22)
(0.87781016 -0.024486741 2.141949e-21)
(0.94281678 -0.11056115 -1.5073166e-21)
(1.0309704 -0.11326911 -4.149056e-21)
(1.0950493 -0.072353596 -3.0295678e-20)
(1.1193328 -0.006845254 3.3042357e-20)
(1.0969795 0.05387336 -8.6243593e-21)
(1.0527066 0.0764598 1.9956463e-21)
(1.019012 0.065657989 6.2897934e-22)
(1.0030394 0.043184749 1.7170791e-21)
(1.0008588 0.022906421 2.3112945e-21)
(1.0057202 0.0093257904 -1.5428702e-22)
(1.0124996 0.0019717353 -1.1188378e-21)
(1.0184706 -0.00094577806 2.1167566e-22)
(1.0225815 -0.0012604865 6.5712793e-22)
(1.0248131 -0.00046111653 4.419473e-22)
(1.0256446 0.00050786373 2.232186e-22)
(1.0256504 0.0012288168 -1.4053513e-22)
(1.0252744 0.0016411718 -3.6738578e-22)
(1.024746 0.0017928434 2.8649339e-22)
(1.0241875 0.0017713558 -3.608536e-24)
(1.0236207 0.0016808172 2.0867921e-22)
(1.0230768 0.0014880631 -7.9723504e-22)
(1.022521 0.0012119109 4.2818922e-24)
(1.0220642 0.00077361218 -2.4409875e-21)
(1.0216655 0.00032186843 -9.3434801e-22)
(0.88399771 -0.072035293 -3.539126e-21)
(0.94507776 0.059251355 -1.1434042e-20)
(0.91121807 0.19519299 0)
(0.87979539 0.2001176 0)
(0.85316594 0.12228523 0)
(0.85941099 -0.025757298 0)
(0.92576 -0.13018833 0)
(1.0235663 -0.13700476 1.2209365e-21)
(1.1017465 -0.092434835 1.2162112e-20)
(1.1376663 -0.014407507 -5.1286228e-20)
(1.1141427 0.065176019 5.6767738e-22)
(1.0564672 0.0964359 -8.68133e-21)
(1.0124764 0.082642594 4.3811666e-21)
(0.99357511 0.053802292 2.8109566e-21)
(0.9913349 0.027318953 -2.9183109e-22)
(0.99800207 0.0095818677 6.2038101e-22)
(1.0072421 5.3371147e-07 -3.3157637e-22)
(1.0155587 -0.0036902235 5.021386e-22)
(1.0214747 -0.0038359213 -4.9756862e-22)
(1.0248355 -0.0024006317 -1.9047332e-22)
(1.0262084 -0.00071501993 -2.2551282e-23)
(1.0263689 0.00058817106 -3.6011829e-22)
(1.0259575 0.0013767008 -2.0120066e-23)
(1.0253598 0.0017604808 1.3231433e-22)
(1.0247218 0.0018646737 -1.0148392e-22)
(1.0241193 0.0018464147 -6.7144436e-22)
(1.0235208 0.0017547899 -2.2575695e-22)
(1.0229481 0.001547261 3.4868749e-22)
(1.0223723 0.0012550187 1.3224528e-24)
(1.0218993 0.00080202115 1.7615534e-21)
(1.0214916 0.00033241417 6.0755021e-22)
(0.85465245 -0.075559819 5.0239711e-21)
(0.91830643 0.060803173 -1.3123483e-21)
(0.88627598 0.20447286 -1.4484344e-20)
(0.85537331 0.21027659 -2.2205025e-20)
(0.83113329 0.12983862 0)
(0.84051637 -0.03061193 0)
(0.90875674 -0.14948841 -1.5123862e-21)
(1.0128157 -0.16119404 -1.4991681e-20)
(1.1030344 -0.11385326 4.1532029e-20)
(1.1555136 -0.025287795 -6.2886132e-20)
(1.1404154 0.075270583 -1.7261652e-21)
(1.0693988 0.11867494 1.4241379e-20)
(1.0066076 0.10278594 8.4708968e-22)
(0.98075952 0.066102917 -3.1525358e-22)
(0.97914673 0.032366912 -1.9984792e-21)
(0.98818299 0.0095489849 -6.2023478e-23)
(1.0004849 -0.0027778614 2.6574619e-21)
(1.0117424 -0.0074815335 -7.49256e-23)
(1.0199989 -0.0074442576 -1.2252883e-21)
(1.0248766 -0.005184764 -1.8674368e-22)
(1.0269964 -0.0025136005 -6.3339181e-22)
(1.0273597 -0.00038519765 1.5863058e-22)
(1.0268733 0.00095825621 -1.6434657e-22)
(1.0261193 0.0016494679 -2.8456763e-22)
(1.0253631 0.0019225168 -2.1793338e-23)
(1.0246662 0.0019747635 -2.5019298e-22)
(1.0240397 0.0019481068 -1.8297279e-22)
(1.0234141 0.0018270584 -1.9669968e-22)
(1.0228215 0.001604371 4.7844429e-22)
(1.0222252 0.0012970331 -3.5386029e-23)
(1.0217353 0.00082915056 8.5182587e-22)
(1.0213186 0.00034169252 6.4291543e-23)
(0.82508235 -0.079243769 -3.8493632e-21)
(0.89051157 0.063083987 1.9429298e-21)
(0.86086596 0.21339974 1.7813365e-20)
(0.83239124 0.21937092 4.083314e-20)
(0.81007407 0.13615951 0)
(0.82153214 -0.034944548 0)
(0.89166025 -0.16808977 0)
(0.99926366 -0.18498988 -5.252426e-22)
(1.0981908 -0.13538557 -6.4842226e-20)
(1.1598407 -0.038064619 -6.7107989e-20)
(1.1667499 0.083784354 -2.2126607e-21)
(1.0933416 0.14202765 4.1926883e-21)
(1.0096271 0.12601914 -1.3690071e-20)
(0.96614576 0.080186757 2.4899306e-21)
(0.96376157 0.037797125 -7.9312589e-22)
(0.97597721 0.0090712891 0)
(0.99200936 -0.0065459926 7.6484598e-22)
(1.0068681 -0.012533469 -5.9294415e-22)
(1.0180836 -0.012330759 -3.0581994e-22)
(1.0249632 -0.0090419051 1.5159758e-22)
(1.0281084 -0.005065194 1.9713421e-22)
(1.0287546 -0.0017861226 2.8112517e-22)
(1.0281371 0.00035036167 2.5027923e-22)
(1.0271223 0.001489663 2.219099e-22)
(1.0261358 0.0019680076 -4.2333382e-24)
(1.0252997 0.0021045186 -4.4182185e-23)
(1.0245868 0.0021045853 1.430744e-23)
(1.0239503 0.0020390963 -1.1906644e-23)
(1.0233121 0.0018896609 5.0681343e-22)
(1.0226985 0.0016591488 3.6175444e-22)
(1.0220785 0.0013376091 1.6484721e-23)
(1.0215723 0.00085448903 -2.3898734e-21)
(1.0211473 0.00034975626 9.0262055e-22)
(0.79533912 -0.082380975 -7.3578243e-21)
(0.85994718 0.060159843 0)
(0.83441737 0.2216126 2.2008211e-20)
(0.8097927 0.22841295 7.4242865e-20)
(0.79064371 0.14122962 -1.1836319e-20)
(0.80281871 -0.039111945 -1.1773351e-21)
(0.87420208 -0.18590262 -3.714051e-20)
(0.98341133 -0.20777964 2.3290211e-20)
(1.088521 -0.15649212 1.38172e-20)
(1.1576026 -0.050964365 1.632164e-19)
(1.1739127 0.08892696 -5.8263588e-20)
(1.1195184 0.16769773 -4.820418e-20)
(1.022123 0.1533074 1.9673706e-21)
(0.95526637 0.09749973 -2.153633e-21)
(0.94493175 0.043271589 -2.2476945e-21)
(0.96114615 0.0079291707 1.9063048e-22)
(0.9816346 -0.01148515 3.5833203e-22)
(1.0007869 -0.019059041 4.515368e-22)
(1.015649 -0.018748357 -1.3173027e-22)
(1.0251174 -0.014233653 1.2438554e-23)
(1.0296611 -0.0085784872 3.1304296e-22)
(1.0307164 -0.0037432627 2.067449e-22)
(1.0299123 -0.00048557419 -1.4990058e-22)
(1.02849 0.0012938368 2.6740491e-22)
(1.0271247 0.0020623198 2.241324e-22)
(1.0260313 0.0022815255 6.4765274e-23)
(1.02519 0.0022847347 8.2862746e-23)
(1.0244939 0.0022165771 1.8545778e-23)
(1.0238583 0.0021129899 1.8610577e-22)
(1.0232074 0.0019552904 -5.6723612e-23)
(1.0225709 0.0017137844 2.4526526e-22)
(1.021932 0.0013754772 2.2254452e-23)
(1.0214109 0.00087783537 9.6766319e-22)
(1.0209779 0.00035682573 -1.6832494e-21)
(0.76686522 -0.085110849 7.0573667e-21)
(0.82669055 0.059416555 -2.4213982e-22)
(0.80720639 0.22889464 -8.5323241e-21)
(0.78772499 0.23802013 -4.3123251e-20)
(0.77182702 0.14722175 8.0169113e-20)
(0.78545254 -0.045056121 6.3011335e-20)
(0.85622931 -0.20220533 6.5946783e-21)
(0.96595202 -0.22917863 0)
(1.0742747 -0.17692153 4.878017e-20)
(1.150499 -0.062396051 2.1792436e-19)
(1.1711931 0.092957539 3.674541e-21)
(1.1343015 0.19459548 2.238016e-20)
(1.0334001 0.18627435 0)
(0.95095908 0.12059938 3.2044668e-21)
(0.92373921 0.049996311 3.3857941e-21)
(0.94331925 0.0057241128 -2.3070696e-22)
(0.96924399 -0.017789608 -2.8443377e-21)
(0.99337473 -0.027246887 0)
(1.0126093 -0.026945442 2.1059431e-22)
(1.0253492 -0.021037891 3.0643663e-22)
(1.0317767 -0.013301448 -7.6957571e-23)
(1.0334432 -0.0064134302 2.929361e-22)
(1.0324021 -0.0016068506 0)
(1.0303936 0.0010874948 1.6799134e-22)
(1.0284396 0.0022586015 1.3615779e-22)
(1.026926 0.0025784833 -1.1174154e-23)
(1.0258472 0.0025401593 7.9102095e-23)
(1.0250602 0.0024200716 -7.1403151e-23)
(1.0243988 0.0022945978 -4.0958814e-25)
(1.0237703 0.0021767402 5.9672014e-22)
(1.0231063 0.0020126826 -1.1066508e-21)
(1.0224482 0.0017609091 -6.3564126e-22)
(1.0217885 0.0014094679 0)
(1.0212517 0.00089931389 -3.7872453e-23)
(1.020811 0.00036308782 -4.9850051e-22)
(0.74053725 -0.087785014 1.0430055e-20)
(0.79466138 0.060235061 -1.1136907e-20)
(0.7810463 0.23528971 9.2757595e-21)
(0.76660065 0.24648314 -1.3849786e-20)
(0.75370323 0.15583185 3.1785804e-20)
(0.76649277 -0.046165976 1.1421836e-20)
(0.83945777 -0.21875248 5.9562564e-20)
(0.9471922 -0.24897267 5.5254099e-21)
(1.0560762 -0.1957445 0)
(1.136655 -0.072850128 -7.6982968e-20)
(1.1599579 0.099437921 6.9688403e-20)
(1.1227019 0.21930583 -8.4868814e-21)
(1.03441 0.22131148 1.2222569e-20)
(0.94922127 0.15007834 -3.0614809e-21)
(0.90329513 0.059155391 2.0140604e-21)
(0.92199954 0.0025361363 2.0124312e-21)
(0.95477513 -0.025671438 -4.8497426e-21)
(0.98453726 -0.037274187 -8.5968707e-22)
(1.0088788 -0.037146189 1.2347552e-21)
(1.02565 -0.029743834 -6.414302e-22)
(1.0345717 -0.019514234 2.7770637e-22)
(1.0371519 -0.0099936024 -2.1307214e-22)
(1.0358635 -0.0030906086 0)
(1.0330477 0.00089883671 5.2846908e-23)
(1.0302332 0.0026492562 3.7606912e-23)
(1.0280624 0.003092365 3.6636917e-24)
(1.0265935 0.0029691029 -1.0349284e-22)
(1.0256267 0.0027083699 -3.3096729e-23)
(1.0249292 0.0024970697 -3.4733351e-23)
(1.0243115 0.0023465036 0)
(1.0236903 0.0022287756 -4.6862783e-22)
(1.0230106 0.0020603743 -1.2107219e-21)
(1.022329 0.0018034372 1.7483128e-21)
(1.0216472 0.0014407532 -5.5989318e-22)
(1.0210947 0.00091944144 7.4158184e-23)
(1.0206471 0.00036872243 1.777943e-21)
(0.71679262 -0.090219617 -1.1154921e-20)
(0.76546209 0.059853084 -2.6687465e-22)
(0.75691848 0.24070759 -9.8749735e-21)
(0.74720497 0.25402376 -2.4132305e-22)
(0.73684939 0.16290607 -1.4610608e-19)
(0.74764675 -0.042632032 -1.0698316e-19)
(0.81912808 -0.23127659 -1.5246966e-21)
(0.92862482 -0.26701652 3.554007e-20)
(1.0358084 -0.2139365 5.8109006e-21)
(1.1185801 -0.08166787 6.9831462e-20)
(1.1433429 0.10739985 8.1551739e-22)
(1.1007184 0.24380164 -2.6351589e-20)
(1.0266048 0.25358171 2.9734246e-21)
(0.94829397 0.18177493 -1.0518399e-20)
(0.88640157 0.074204279 9.3572607e-22)
(0.8970596 -0.0024036158 0)
(0.93836806 -0.035346195 5.5973723e-22)
(0.97426472 -0.049228737 9.4812604e-22)
(1.0043883 -0.049538311 -1.9334596e-22)
(1.0260044 -0.040620714 5.2046083e-23)
(1.0381543 -0.027519552 3.2070012e-22)
(1.0420791 -0.014716595 1.559805e-22)
(1.0405826 -0.0050393629 -1.0174909e-23)
(1.0367211 0.0007466912 0)
(1.0326994 0.0033383499 -5.1789677e-22)
(1.0295536 0.003964191 -7.9498459e-23)
(1.0274668 0.0036926189 -1.3561512e-22)
(1.026197 0.0031962337 1.3018894e-22)
(1.0254047 0.0027786104 -5.096586e-24)
(1.0248135 0.0025236641 2.3893677e-23)
(1.0242399 0.0023759055 2.7764274e-22)
(1.0236199 0.0022681611 -4.5387033e-22)
(1.0229199 0.0021031236 1.2510825e-23)
(1.0222114 0.0018432297 1.7788348e-21)
(1.0215076 0.0014699945 -5.3976249e-24)
(1.0209404 0.0009386271 -5.014054e-23)
(1.0204857 0.00037395156 6.3967001e-22)
(0.69623109 -0.092451529 -8.3121917e-22)
(0.73931152 0.05918749 1.8988878e-20)
(0.7358302 0.24535633 -2.2468285e-20)
(0.73009809 0.26047329 1.2550388e-20)
(0.7217701 0.16970701 -9.2435343e-23)
(0.73072259 -0.040737667 3.858237e-22)
(0.79699094 -0.24121167 3.7048162e-20)
(0.90535933 -0.2842807 -1.6459622e-21)
(1.013313 -0.22811672 0)
(1.0967816 -0.090028421 -1.5269747e-20)
(1.1222208 0.11483418 0)
(1.079374 0.26618646 0)
(1.0118782 0.28183244 -1.6184636e-20)
(0.94458006 0.2122097 7.1499678e-22)
(0.87537016 0.093172004 6.7405322e-22)
(0.87262142 -0.0046481219 8.7067235e-22)
(0.91914736 -0.047372737 2.2813696e-22)
(0.96272885 -0.063195598 -2.3066426e-21)
(0.99906969 -0.064214118 -9.7242911e-22)
(1.0263448 -0.053899054 -4.0529604e-22)
(1.0425807 -0.037628679 -2.6306128e-22)
(1.0484556 -0.020862105 -8.3200238e-22)
(1.0469002 -0.0075854335 -6.0488238e-23)
(1.0417423 0.00065630749 -4.2288903e-22)
(1.0360768 0.0044545829 -1.1559979e-22)
(1.0315441 0.0053615534 3.2427462e-23)
(1.0285299 0.0048804919 1.7261759e-22)
(1.0267685 0.0040100339 -1.211992e-22)
(1.0258002 0.0032525149 -2.0567034e-24)
(1.025212 0.0027580981 -1.6154865e-22)
(1.024727 0.0025082738 -3.0705827e-23)
(1.0241885 0.0023859566 -5.2955336e-23)
(1.0235608 0.0022985405 3.7430625e-22)
(1.022835 0.0021411046 1.0813243e-21)
(1.0220976 0.0018797211 -3.5445416e-21)
(1.0213713 0.0014975549 -7.1176472e-22)
(1.0207888 0.00095751265 -6.2721893e-22)
(1.0203275 0.0003789971 0)
(0.67953838 -0.094506879 2.5579212e-20)
(0.71667382 0.057876363 -1.4541603e-22)
(0.71829103 0.24920961 -9.5744908e-21)
(0.71577922 0.26601183 1.0720381e-20)
(0.70906289 0.17581094 9.7176544e-20)
(0.71616013 -0.038710304 6.9769704e-20)
(0.77522874 -0.25055167 -2.6658989e-21)
(0.87970101 -0.30089435 -6.3429525e-20)
(0.98605018 -0.24627234 -8.5955674e-21)
(1.0721272 -0.09316763 -9.7084208e-20)
(1.096902 0.12248801 1.8955738e-21)
(1.0549146 0.28775319 0)
(0.99198439 0.30737594 0)
(0.93362858 0.23946031 1.0609346e-20)
(0.86782214 0.11541616 -7.7829903e-21)
(0.85084058 -0.0070273212 -7.0779639e-21)
(0.89746712 -0.060773102 1.5894951e-21)
(0.9497334 -0.07909917 5.3160949e-22)
(0.99280024 -0.081188452 -7.499752e-22)
(1.0265357 -0.06973572 -1.7751561e-21)
(1.0478316 -0.05015216 -1.4051594e-22)