/*--------------------------------*- C++ -*----------------------------------*\
| =========                 |                                                 |
| \\      /  F ield         | OpenFOAM: The Open Source CFD Toolbox           |
|  \\    /   O peration     | Version:  5.0                                   |
|   \\  /    A nd           | Web:      www.OpenFOAM.org                      |
|    \\/     M anipulation  |                                                 |
\*---------------------------------------------------------------------------*/
FoamFile
{
    version     2.0;
    format      ascii;
    class       volVectorField;
    location    "240";
    object      U_0;
}
// * * * * * * * * * * * * * * * * * * * * * * * * * * * * * * * * * * * * * //

dimensions      [0 1 -1 0 0 0 0];

internalField   nonuniform List<vector> 
9200
(
(1.0390036 0.00074570366 -1.7631846e-24)
(1.0391867 0.0023797779 8.3399322e-22)
(1.0367576 0.00074570713 0)
(1.0394736 0.0037898096 -4.4125383e-22)
(1.0369138 0.0024021174 7.2919456e-22)
(1.0357693 0.00073210475 0)
(1.0398696 0.0051978648 -4.4247951e-23)
(1.0371839 0.0038317593 1.0160974e-23)
(1.0359108 0.0023714588 0)
(1.0343283 0.00070160063 0)
(1.0403282 0.0064897091 9.1416125e-22)
(1.0375451 0.0052690222 6.8425236e-22)
(1.0361622 0.0037874106 4.1313414e-22)
(1.0344462 0.0022835514 2.5198118e-23)
(1.0332249 0.00066576253 2.3886944e-25)
(1.0408508 0.0077024186 8.7517651e-22)
(1.03799 0.0066096442 -2.974599e-23)
(1.0364946 0.0052154462 1.3786567e-21)
(1.0346694 0.0036492915 5.6600279e-22)
(1.0333269 0.0021688543 1.7877298e-23)
(1.0321368 0.00062976146 -1.0600235e-21)
(1.0414179 0.0088005714 9.2031803e-22)
(1.0385299 0.0079027539 9.9010411e-22)
(1.0368983 0.0065645969 -8.2798191e-22)
(1.0349512 0.0050251378 -6.1050714e-23)
(1.0335307 0.0034639292 5.0934932e-22)
(1.0322267 0.002044695 5.1724796e-22)
(1.0311739 0.00060135048 9.0794978e-23)
(1.0420496 0.009751544 4.865116e-22)
(1.039179 0.0091394597 8.3211905e-22)
(1.0373815 0.0078939286 9.9305475e-22)
(1.0352796 0.0063340044 5.9309816e-23)
(1.0337799 0.0047581193 -1.3090092e-21)
(1.032416 0.0032615726 -5.8147143e-22)
(1.0312602 0.0019369689 -5.9818268e-22)
(1.0302783 0.00058129977 9.8733558e-22)
(1.0427616 0.010516233 -1.2426124e-21)
(1.039976 0.010304935 8.4863978e-22)
(1.0379457 0.0092212003 6.0528685e-23)
(1.0356438 0.0076339439 4.6913322e-22)
(1.034058 0.0059813568 1.3355056e-22)
(1.0326447 0.0044613057 -1.9475774e-21)
(1.0314446 0.0030869221 1.7563518e-22)
(1.0303666 0.0018554314 -1.0182049e-21)
(1.0294464 0.00056669712 -2.0975116e-21)
(1.0435262 0.01108101 9.965742e-22)
(1.0409811 0.011434147 -2.9692709e-22)
(1.0385984 0.010574672 -5.3840331e-23)
(1.0360124 0.0089584652 -2.3071466e-22)
(1.0343397 0.0071740495 -1.9977847e-22)
(1.0328968 0.0055812969 2.1779059e-22)
(1.0316722 0.0042051978 6.8142221e-22)
(1.0305486 0.0029585039 1.1450198e-21)
(1.0295387 0.0017996843 6.4927816e-22)
(1.0286627 0.00055356556 1.676234e-22)
(1.0443212 0.011408941 -4.8365646e-22)
(1.0423673 0.012477745 2.5219238e-22)
(1.0393664 0.012038085 6.3019424e-22)
(1.0363643 0.010361892 -7.8493591e-22)
(1.0345645 0.0083607531 5.4103804e-22)
(1.0331397 0.0066363785 -1.7548493e-21)
(1.0319307 0.0052393363 6.8338763e-23)
(1.0307813 0.0040228795 1.7246472e-21)
(1.0297164 0.0028766766 -8.6344711e-22)
(1.0287561 0.0017595367 1.90062e-21)
(1.0279231 0.0005398993 -2.885522e-22)
(1.0454991 0.011298863 8.3541845e-23)
(1.0438696 0.013459599 -6.2903256e-22)
(1.0400573 0.013749323 -8.4036619e-22)
(1.0366293 0.011942215 0)
(1.0346876 0.0095730077 3.633893e-23)
(1.0333116 0.0076332445 -3.185782e-22)
(1.0321983 0.0061849036 -3.4826911e-22)
(1.0310542 0.0050093382 -8.5048063e-22)
(1.0299504 0.0039166041 -2.1615897e-22)
(1.0289244 0.0028231789 -1.0951526e-21)
(1.0280121 0.0017220383 -7.4688458e-22)
(1.0272267 0.00052485688 1.7209178e-22)
(1.0471087 0.010697797 3.5025609e-23)
(1.0457153 0.01475743 2.5822041e-23)
(1.0406971 0.015786121 0)
(1.036731 0.013758849 0)
(1.0345838 0.010849259 -1.7136751e-22)
(1.0333677 0.0085585015 -2.1905448e-22)
(1.0324254 0.0070315433 -4.6404693e-22)
(1.0313626 0.005905595 9.9994103e-22)
(1.030229 0.0048935207 1.032474e-22)
(1.0291498 0.0038550696 2.5623182e-24)
(1.0281666 0.0027740637 1.2345469e-21)
(1.0273068 0.0016752195 -1.3401427e-21)
(1.0265765 0.00050682145 2.7635945e-21)
(1.0491124 0.0094781709 -7.2389871e-22)
(1.0483155 0.016269308 2.1525919e-23)
(1.0415089 0.018148143 -2.3868859e-22)
(1.0366384 0.015862339 3.907396e-23)
(1.0341852 0.012198461 -2.776382e-23)
(1.0332252 0.0094107102 -1.5712019e-22)
(1.0325829 0.0077365188 2.7319082e-22)
(1.0316755 0.0066969654 1.5761862e-23)
(1.0305679 0.0057958262 1.1127659e-21)
(1.0294204 0.0048417576 1.0386733e-21)
(1.028374 0.0037984571 3.3916024e-22)
(1.0274448 0.0027076501 9.8236126e-22)
(1.0266461 0.001610148 6.6948413e-22)
(1.0259777 0.00048357818 -7.5890097e-22)
(1.0514667 0.0078081638 -1.6876415e-23)
(1.0517038 0.018073593 7.1524752e-22)
(1.0424994 0.021056778 -4.0525108e-22)
(1.0362506 0.018383984 7.7906468e-23)
(1.0333866 0.013673555 -7.0809121e-23)
(1.0328019 0.010122729 2.9222587e-22)
(1.0326132 0.0082569822 2.5902337e-22)
(1.0319878 0.0073280424 -3.4928816e-22)
(1.0309551 0.0066141967 -9.4672339e-23)
(1.0297657 0.0057757235 -1.2228518e-22)
(1.0286199 0.0047960644 -2.016025e-23)
(1.027625 0.0037128505 -1.4570135e-22)
(1.0267674 0.0026082927 -1.2652914e-21)
(1.0260382 0.0015224496 6.4479501e-22)
(1.0254356 0.00045445107 -5.8313491e-22)
(1.0541415 0.0053060355 2.2070496e-21)
(1.0558632 0.020069927 -1.4249054e-21)
(1.0436809 0.024745849 -8.6054686e-24)
(1.0354535 0.021511456 7.3921364e-23)
(1.0319985 0.015343556 -1.7098656e-22)
(1.0319336 0.010657638 -4.4812024e-22)
(1.0325374 0.0085072071 -2.1429275e-23)
(1.0323055 0.0077261393 3.132509e-23)
(1.0314171 0.0072941291 -2.165011e-22)
(1.030191 0.0066616698 -2.584028e-22)
(1.0289371 0.0057658824 -2.1784644e-21)
(1.0278305 0.0047079067 4.7216464e-22)
(1.0269181 0.0035753828 3.9454787e-22)
(1.0261447 0.0024690203 1.957947e-22)
(1.0254901 0.0014135399 3.7359216e-23)
(1.0249536 0.00042128507 6.4928737e-22)
(1.057189 0.0024458093 0)
(1.060597 0.022547855 -1.658572e-21)
(1.0449638 0.029459951 9.3387679e-22)
(1.0341398 0.02543044 0)
(1.0298349 0.017266972 0)
(1.0304847 0.010990762 0)
(1.0321731 0.0083115482 1.114117e-22)
(1.0328015 0.0078388255 4.9504121e-22)
(1.0320516 0.0077728401 3.389644e-22)
(1.0307623 0.0074645846 6.4453521e-22)
(1.0293378 0.0067345889 9.3560979e-23)
(1.028085 0.0056982593 4.7605513e-22)
(1.0270711 0.0045411558 2.3642058e-25)
(1.0262685 0.0033756215 -4.5197794e-22)
(1.0255866 0.002292976 -1.3056659e-22)
(1.0250057 0.0012901938 -3.1638137e-22)
(1.0245313 0.00038712804 0)
(1.0607294 -0.0012894651 4.3949377e-21)
(1.0656277 0.025254533 4.6239344e-21)
(1.0460579 0.035374844 -1.4102097e-21)
(1.032099 0.030347844 1.6235322e-21)
(1.0266966 0.019532483 1.3454866e-21)
(1.0282625 0.011051263 0)
(1.0314604 0.0075982299 7.4201533e-22)
(1.0333007 0.0074076951 -2.0564371e-22)
(1.0329263 0.0079630072 4.7117192e-22)
(1.0315907 0.0081486859 3.8556683e-22)
(1.0299001 0.0077082798 -3.8880236e-22)
(1.0283887 0.0067308821 1.2468791e-22)
(1.0272439 0.0055147541 8.0247488e-22)
(1.0263723 0.0042811697 -1.4817616e-21)
(1.0256912 0.0031185866 -4.037187e-22)
(1.0250985 0.0020918143 -2.1301181e-21)
(1.0245851 0.0011622293 -8.4681543e-22)
(1.0241648 0.00035472235 -8.2225133e-22)
(1.0667304 -0.0049453897 -5.2679562e-22)
(1.0721591 0.028457969 2.9249913e-21)
(1.0468145 0.042735274 1.0462773e-21)
(1.0289608 0.036418671 1.0551955e-21)
(1.0223268 0.02222318 -2.6006629e-22)
(1.025047 0.010772146 -4.2429757e-22)
(1.0302979 0.0061960519 -1.7304082e-21)
(1.0337739 0.006352049 -7.6980779e-22)
(1.0341728 0.0079169685 -7.3962082e-23)
(1.0326291 0.0087236676 -6.7691797e-22)
(1.03066 0.0087322833 -9.2368209e-23)
(1.028791 0.0078615019 -8.763219e-22)
(1.0274035 0.0065541368 1.5285785e-22)
(1.0264608 0.005186631 1.1952596e-22)
(1.0257602 0.0039361412 1.8028232e-22)
(1.0251955 0.0028231018 3.216278e-22)
(1.0246811 0.0018820797 -7.0695235e-22)
(1.0242243 0.0010395196 3.3582106e-23)
(1.0238476 0.00032646016 -7.841858e-22)
(1.0735623 -0.011563093 -3.3180454e-21)
(1.0831012 0.031513171 -5.5678315e-21)
(1.0488148 0.05149734 1.0981743e-20)
(1.024681 0.043703733 -1.2777162e-21)
(1.0164766 0.025426408 1.6334803e-22)
(1.0205848 0.010069221 -1.6296946e-22)
(1.0285516 0.0039165202 2.3354281e-22)
(1.0342878 0.0044526558 -3.9099118e-23)
(1.0358206 0.0073220426 -6.6126931e-24)
(1.0341306 0.009289296 3.9611351e-22)
(1.031596 0.009886045 -1.1377442e-21)
(1.0292576 0.0091849139 2.9500319e-22)
(1.0275578 0.007733295 4.7098952e-22)
(1.0264798 0.0061556905 -4.1801325e-23)
(1.0257862 0.0047285813 1.2228877e-22)
(1.02525 0.0035327195 1.0194977e-21)
(1.0247836 0.0025149127 -2.2507996e-22)
(1.0243296 0.0016808017 1.1621371e-21)
(1.0239161 0.00092997459 3.0814846e-22)
(1.0235715 0.00030482571 8.2346756e-22)
(1.0796851 -0.017682198 -3.3312283e-22)
(1.0990969 0.035168297 -1.2967284e-20)
(1.0552727 0.061704414 1.3984585e-21)
(1.0206148 0.052394227 8.7297872e-22)
(1.0088716 0.02910097 -1.2798754e-21)
(1.014644 0.0088603412 -1.2921233e-21)
(1.0260693 0.00054706519 2.0481506e-21)
(1.0348554 0.0014649789 1.0775334e-21)
(1.0379875 0.0060420598 4.2632264e-22)
(1.0363299 0.0097070625 0)
(1.0329756 0.011186629 7.8016426e-22)
(1.0298273 0.010774717 3.0888647e-22)
(1.0276506 0.0091404622 -6.6172037e-22)
(1.0264001 0.0072400805 1.0358617e-22)
(1.0257018 0.0055550083 -4.4740676e-22)
(1.0252486 0.0041856919 7.9560813e-22)
(1.0248456 0.0031083116 1.4808052e-22)
(1.0244506 0.0022193705 -3.6002097e-22)
(1.0240361 0.0015019591 7.0479968e-22)
(1.0236516 0.00083904648 5.0074306e-23)
(1.0233278 0.00029187439 7.9388222e-22)
(1.0790771 -0.024169845 6.3866108e-21)
(1.1073451 0.035127683 -1.7331811e-20)
(1.0675916 0.073409744 -1.1615609e-20)
(1.0194502 0.062957138 8.5708284e-22)
(0.99964706 0.033444499 -4.2797544e-21)
(1.0069778 0.0070718132 1.247805e-22)
(1.0226912 -0.0041295283 0)
(1.0354834 -0.0028638986 4.4681232e-22)
(1.0408363 0.0038519785 2.3203148e-22)
(1.0394059 0.009901138 1.1206327e-21)
(1.0349939 0.01274776 4.3340089e-22)
(1.0306485 0.012726835 5.964769e-23)
(1.0277026 0.010864263 -7.7208392e-23)
(1.0261546 0.0085142744 3.7399653e-22)
(1.0254571 0.0064390608 -2.4584714e-22)
(1.0251143 0.0048258522 2.6799798e-22)
(1.0248534 0.0036148683 -1.0045298e-22)
(1.0245397 0.0027009727 6.2784334e-22)
(1.0241858 0.0019565837 1.2624736e-22)
(1.0237903 0.0013546024 1.6941658e-23)
(1.0234217 0.00076982873 4.2197965e-22)
(1.0231076 0.00028782569 0)
(1.0724702 -0.03206395 1.4393191e-21)
(1.1077169 0.035298162 1.2652711e-20)
(1.0818837 0.087546083 -4.1665905e-22)
(1.0208435 0.076213109 -4.1688782e-23)
(0.98937687 0.039063529 -5.0182859e-21)
(0.99720903 0.0046552752 1.875122e-21)
(1.0182654 -0.010323019 -8.4319411e-22)
(1.0361195 -0.0088195649 4.577638e-22)
(1.0445479 0.0005254609 -1.7749355e-22)
(1.0436091 0.0097521441 -9.0474201e-23)
(1.0378687 0.014656878 -4.2319618e-24)
(1.0318162 0.015251753 -2.3569657e-22)
(1.0276971 0.013063616 -1.0764538e-22)
(1.0256845 0.010072081 1.2845944e-21)
(1.0249612 0.0074314514 9.001833e-22)
(1.024793 0.00545296 6.4541732e-22)
(1.0247273 0.0040591389 -1.3677487e-22)
(1.0245878 0.0030716886 -9.7535128e-22)
(1.0243167 0.0023423622 -3.6690367e-23)
(1.0239751 0.0017395553 3.7932162e-22)
(1.0235817 0.0012426332 0)
(1.0232183 0.0007228063 -9.5658859e-22)
(1.0229034 0.00028991706 -2.5863254e-24)
(1.0587101 -0.039538773 -5.7614825e-21)
(1.1031604 0.035166736 4.0745952e-20)
(1.0821568 0.10203482 -1.6608856e-20)
(1.0196918 0.094049855 -3.4207772e-21)
(0.97763123 0.047037303 -9.6990008e-21)
(0.98481717 0.00155592 0)
(1.0125669 -0.018243194 -2.9439683e-22)
(1.0367132 -0.016690855 8.7997003e-22)
(1.0492351 -0.0042216776 -1.4792584e-21)
(1.0492435 0.0091652102 -1.7672194e-21)
(1.0418651 0.017014942 9.1899232e-22)
(1.033466 0.018572276 3.0820217e-22)
(1.027629 0.015954307 -2.2991492e-22)
(1.0248891 0.012042374 6.552037e-22)
(1.0241148 0.0085922011 -7.376689e-22)
(1.0241834 0.0060804953 -1.4490451e-21)
(1.0244221 0.0044175152 -2.1804385e-22)
(1.0245211 0.0033378229 -3.3846377e-22)
(1.0244272 0.0026008283 9.9589374e-22)
(1.024156 0.0020535371 -3.1025689e-22)
(1.0238037 0.0015748292 -8.1804351e-22)
(1.0234007 0.0011659298 8.8884124e-22)
(1.0230344 0.00069583071 -6.7872433e-22)
(1.0227097 0.00029321895 -1.4144775e-24)
(1.0386341 -0.046627745 -1.3469664e-22)
(1.089868 0.037832217 3.6458562e-20)
(1.0647662 0.11661241 -7.7688451e-22)
(1.0114092 0.11380727 9.3411284e-21)
(0.96335489 0.057600213 5.8776868e-21)
(0.96960049 -0.0017698734 -8.4886876e-21)
(1.0052229 -0.028147424 -3.8431878e-22)
(1.0372051 -0.026745862 -1.9098605e-22)
(1.0550514 -0.010701527 2.7605887e-22)
(1.0566141 0.0080152215 -1.1962719e-21)
(1.0472935 0.019955873 9.3412224e-22)
(1.0357218 0.022976919 -2.2714116e-22)
(1.0274744 0.019803041 5.9780388e-22)
(1.0236608 0.014596035 -7.6686132e-23)
(1.0227769 0.0099888197 -1.0830761e-21)
(1.0231764 0.0067203431 -2.568094e-23)
(1.0238433 0.0046680846 -4.8528466e-23)
(1.0243109 0.0034560985 -4.804637e-22)
(1.0244559 0.0027257522 0)
(1.0243411 0.0022304147 -1.0647082e-22)
(1.0240364 0.0018422178 -3.1527185e-23)
(1.0236589 0.0014638202 6.5746621e-23)
(1.0232381 0.001121717 -4.70394e-23)
(1.0228625 0.00068507369 9.6815457e-22)
(1.0225235 0.00029401073 5.4733304e-22)
(1.0149985 -0.052904884 6.6639484e-21)
(1.0720005 0.040312436 -2.2496353e-20)
(1.0426085 0.13121504 -5.8665778e-21)
(0.9959996 0.1326225 -1.1981883e-21)
(0.94817009 0.06957699 1.2739321e-20)
(0.95223666 -0.0052577851 9.4355647e-22)
(0.99606945 -0.040385922 -5.4497244e-22)
(1.0375138 -0.039245892 4.0507463e-23)
(1.0620093 -0.019228059 -3.7719827e-21)
(1.0660227 0.0060740196 -2.1948413e-22)
(1.0544824 0.023609616 -1.393359e-21)
(1.0387092 0.028799148 -4.1492807e-24)
(1.0271615 0.02492573 -2.7326675e-22)
(1.0218427 0.017935037 -3.4903361e-22)
(1.0207738 0.011708757 -3.6717438e-22)
(1.0216209 0.0073761628 1.4253477e-21)
(1.0228923 0.0047763583 2.128398e-21)
(1.0238819 0.00337817 6.1391712e-22)
(1.0243943 0.0026631786 8.7944656e-22)
(1.0244828 0.0022602954 2.0147898e-23)
(1.0242995 0.0019708353 -1.0407736e-21)
(1.0239402 0.0017037213 -2.6637861e-22)
(1.0235303 0.0014030581 7.3997831e-22)
(1.0230854 0.001105143 -8.5607705e-22)
(1.0226974 0.00068658273 7.3368829e-22)
(1.0223435 0.00029296676 -3.9741537e-23)
(0.98969393 -0.058455283 -2.5098659e-22)
(1.0494545 0.042750428 -2.6651823e-20)
(1.0206857 0.14539811 2.7522591e-20)
(0.97910067 0.14863294 -1.2687405e-20)
(0.93455938 0.083485216 -2.4866524e-21)
(0.93375434 -0.0093018557 8.2328203e-21)
(0.98516505 -0.055006812 9.5601458e-22)
(1.0372531 -0.054337135 1.4807915e-21)
(1.0699135 -0.029952072 8.8027423e-21)
(1.0775302 0.0031742458 3.5226515e-21)
(1.0637158 0.028145042 -2.1252444e-22)
(1.0425429 0.036433683 2.4817851e-21)
(1.0266175 0.031680313 -9.8971387e-22)
(1.0192582 0.022293917 -6.1163461e-22)
(1.0178904 0.01384694 -2.9030899e-22)
(1.0193315 0.0080494336 2.9665794e-22)
(1.021435 0.0046882063 -3.1035919e-23)
(1.0231626 0.0030349208 2.3664913e-24)
(1.0241936 0.002348403 2.1360519e-22)
(1.0245939 0.002088866 5.3531242e-23)
(1.0245549 0.001951498 0)
(1.0242772 0.0018157063 -3.879935e-22)
(1.0238528 0.0016273967 -4.060292e-23)
(1.023409 0.0013839856 0)
(1.0229379 0.0011101144 1.0508059e-21)
(1.0225353 0.00069763002 3.3589023e-24)
(1.0221673 0.00029402541 -5.3737715e-22)
(0.96355695 -0.063322806 -2.1519455e-21)
(1.0245513 0.045231205 -1.9974578e-21)
(0.99500687 0.15886069 2.4514965e-20)
(0.95771133 0.16377539 -3.25126e-21)
(0.91923694 0.096124851 -2.0379703e-22)
(0.91503161 -0.012425527 -8.0386596e-21)
(0.9716514 -0.071188031 -1.7198861e-22)
(1.0357284 -0.071873916 1.655404e-21)
(1.0779984 -0.042691127 -2.7809562e-21)
(1.0904541 -0.00061109167 -7.7256704e-21)
(1.0747919 0.033840566 4.3662309e-21)
(1.0472213 0.046336816 -1.7405748e-22)
(1.0257022 0.040465862 -2.2690423e-22)
(1.0156649 0.027917047 -4.5798047e-22)
(1.0138816 0.016509144 -9.3565921e-22)
(1.0160854 0.0087281768 -2.7183916e-22)
(1.0193115 0.0043335615 -1.429576e-21)
(1.0220559 0.0023274627 -1.071979e-21)
(1.0238195 0.0016931578 -4.3700612e-22)
(1.0246542 0.0016468098 -6.841147e-22)
(1.0248358 0.0017404432 -3.7689899e-22)
(1.024635 0.0017875098 9.7350329e-23)
(1.0242522 0.0017444244 3.3624827e-23)
(1.0237656 0.0016026443 0)
(1.0232915 0.0013954803 0)
(1.022793 0.0011313964 -7.6494713e-23)
(1.0223729 0.00071680296 9.4909833e-22)
(1.0219932 0.00029990002 1.0310199e-21)
(0.93717572 -0.067627969 0)
(0.99861921 0.047521475 -1.3727538e-20)
(0.96811789 0.17127151 -2.3162566e-20)
(0.93316208 0.17777936 -3.9016186e-21)
(0.8991457 0.10805544 4.4239529e-24)
(0.89583873 -0.015268376 2.8022266e-22)
(0.95610173 -0.088985413 -1.5791634e-21)
(1.0323533 -0.091516557 5.6188892e-21)
(1.0853884 -0.057363517 -1.3133998e-20)
(1.103839 -0.005016751 2.334744e-21)
(1.0864091 0.041167086 -5.4716835e-22)
(1.0519499 0.059070681 -1.5788875e-21)
(1.0241198 0.051725423 2.9173928e-22)
(1.010745 0.035069598 -1.0216511e-21)
(1.0084458 0.01979037 -2.7404011e-22)
(1.0116321 0.0093932887 -1.0255016e-21)
(1.0163323 0.0036162202 -1.4331894e-22)
(1.0204492 0.001133922 -3.0031088e-22)
(1.0232236 0.00057251179 -1.2225376e-22)
(1.0246703 0.00084293251 -3.3202317e-22)
(1.0251484 0.0012752842 -2.5095296e-22)
(1.0250619 0.0015942253 -1.9254809e-22)
(1.0246976 0.0017409218 2.4672215e-23)
(1.0242132 0.0017305977 8.9123161e-22)
(1.0236818 0.0016192368 2.601948e-22)
(1.0231762 0.0014289758 -1.023481e-23)
(1.022648 0.001165228 -1.0125923e-21)
(1.0222091 0.0007422632 6.2636519e-22)
(1.0218196 0.00030980152 -1.5429817e-21)
(0.91105009 -0.071241241 2.1366846e-21)
(0.97250353 0.049269299 0)
(0.94097886 0.18273408 0)
(0.90775129 0.19041076 0)
(0.87767593 0.11865562 3.2132211e-22)
(0.87687024 -0.01797709 1.1252514e-22)
(0.93912787 -0.10790224 -1.4702178e-21)
(1.0271071 -0.11345567 -4.0396752e-21)
(1.092146 -0.07457138 -2.8660182e-20)
(1.1184379 -0.010515986 3.3272317e-20)
(1.0985748 0.050531964 -8.6168391e-21)
(1.0551965 0.075183978 2.0181292e-21)
(1.0208999 0.06589279 5.2939006e-22)
(1.00407 0.044021212 1.7569795e-21)
(1.0012223 0.023775457 2.2539009e-21)
(1.0056893 0.010006653 -1.7558035e-22)
(1.0122858 0.0024220612 -1.1251729e-21)
(1.0182117 -0.00069995198 2.3528664e-22)
(1.0223539 -0.0011641113 6.7016327e-22)
(1.0246464 -0.00045235781 4.5730931e-22)
(1.0255371 0.00047810591 2.3253156e-22)
(1.025586 0.0011900209 -1.4514097e-22)
(1.0252353 0.0016067133 -3.7384068e-22)
(1.0247209 0.0017691384 2.883848e-22)
(1.0241662 0.0017542239 -1.500993e-24)
(1.0236002 0.0016675956 2.0821759e-22)
(1.0230571 0.0014795843 -7.9304472e-22)
(1.0225011 0.0012069041 2.2230875e-24)
(1.0220446 0.00077099791 -2.426093e-21)
(1.0216458 0.00032115686 -9.2811751e-22)
(0.88336951 -0.075129972 -3.7945106e-21)
(0.94712019 0.051598826 -1.1673841e-20)
(0.91446558 0.19311486 0)
(0.88240117 0.20189476 0)
(0.85522866 0.12755446 0)
(0.85838499 -0.018325906 0)
(0.9218636 -0.12704473 0)
(1.0192712 -0.13719626 1.1928764e-21)
(1.098141 -0.094924727 1.1437597e-20)
(1.1360949 -0.018843194 -5.0889911e-20)
(1.1156962 0.06093037 5.5129894e-22)
(1.0594319 0.094904847 -8.7331766e-21)
(1.0148756 0.083056374 4.6906485e-21)
(0.99490289 0.054968641 2.716884e-21)
(0.99179809 0.028506094 -2.8757803e-22)
(0.99794782 0.010506023 5.9118366e-22)
(1.0069438 0.00061424968 -2.891606e-22)
(1.0151952 -0.0033531804 5.0785069e-22)
(1.0211506 -0.0037053573 -5.3016889e-22)
(1.0245957 -0.0023953018 -2.0164293e-22)
(1.0260548 -0.00076612597 -2.377848e-23)
(1.026281 0.00052451779 -3.7277676e-22)
(1.0259098 0.0013212735 -2.0870275e-23)
(1.0253331 0.0017207522 1.3468331e-22)
(1.0247032 0.0018389559 -1.0650673e-22)
(1.0241015 0.0018271927 -6.7254358e-22)
(1.0235032 0.0017424491 -2.2591957e-22)
(1.0229297 0.0015400628 3.4681698e-22)
(1.022353 0.0012510399 1.1052987e-24)
(1.0218802 0.00080013567 1.7494626e-21)
(1.0214722 0.00033199525 6.032097e-22)
(0.85420248 -0.078756419 5.0860951e-21)
(0.9203141 0.052751832 -1.4650082e-21)
(0.88941112 0.20236769 -1.5164515e-20)
(0.85788475 0.21218682 -2.1069501e-20)
(0.83299903 0.13541948 0)
(0.8394147 -0.022545149 0)
(0.90477991 -0.14585393 -1.4424436e-21)
(1.0082636 -0.16142119 -1.3186308e-20)
(1.0991805 -0.11667349 4.0321779e-20)
(1.1535793 -0.030536792 -6.1618407e-20)
(1.1416197 0.070047277 -1.6765972e-21)
(1.0726228 0.11689262 1.4448908e-20)
(1.0094882 0.10344405 7.7118773e-22)
(0.98238391 0.067692936 -2.9657427e-22)
(0.97970548 0.033959085 -1.9383696e-21)
(0.98808665 0.010777586 -6.8645505e-23)
(1.0000747 -0.0019585404 2.6373562e-21)
(1.0112412 -0.0070266973 -7.405557e-23)
(1.0195446 -0.0072683429 -1.2561685e-21)
(1.0245349 -0.005184443 -2.3319547e-22)
(1.0267766 -0.0025957224 -6.5939652e-22)
(1.0272371 -0.00048613731 1.6580668e-22)
(1.0268129 0.00087077271 -1.7023762e-22)
(1.0260914 0.0015859744 -2.949628e-22)
(1.0253485 0.0018818696 -2.6823261e-23)
(1.0246536 0.001947885 -2.5145894e-22)
(1.0240255 0.0019304948 -1.8320614e-22)
(1.0233977 0.0018177958 -1.9418167e-22)
(1.0228035 0.001599021 4.7480581e-22)
(1.0222063 0.0012942849 -3.4371377e-23)
(1.0217164 0.00082811384 8.4482638e-22)
(1.0212994 0.00034159566 6.3792604e-23)
(0.82480668 -0.082501917 -3.860686e-21)
(0.89243977 0.054647477 1.5869282e-21)
(0.863933 0.21122189 1.8781336e-20)
(0.8347671 0.22141825 3.9462603e-20)
(0.81174343 0.14208719 0)
(0.82038831 -0.026184152 0)
(0.88766623 -0.16400991 0)
(0.99455093 -0.18521905 -6.193996e-22)
(1.0941098 -0.13854848 -6.2938603e-20)
(1.1581978 -0.043920407 -6.5638959e-20)
(1.1676841 0.077372187 -2.2192657e-21)
(1.0969271 0.13980069 4.0643535e-21)
(1.0130483 0.12687221 -1.424994e-20)
(0.96815884 0.08229391 2.786071e-21)
(0.96438812 0.039880536 -8.35105e-22)
(0.97581095 0.010670576 0)
(0.99145424 -0.0054758293 7.6524738e-22)
(1.0061907 -0.011930661 -6.0516566e-22)
(1.0174583 -0.012095493 -3.4900105e-22)
(1.0244832 -0.0090479111 1.5843779e-22)
(1.0277955 -0.005190585 2.1806325e-22)
(1.0285817 -0.0019409818 2.9459192e-22)
(1.0280576 0.00021502677 2.6028548e-22)
(1.0270931 0.0013905854 2.3061903e-22)
(1.0261274 0.0019038844 -2.8277332e-24)
(1.0252956 0.0020648839 -4.7162401e-23)
(1.0245796 0.0020799277 1.5951654e-23)
(1.0239387 0.0020261056 -1.1637426e-23)
(1.0232966 0.0018826362 5.0046483e-22)
(1.0226811 0.0016555525 3.5953978e-22)
(1.0220599 0.0013362356 1.5484383e-23)
(1.0215535 0.00085433584 -2.368549e-21)
(1.021128 0.00034995689 8.9481481e-22)
(0.79523507 -0.085706122 -7.201787e-21)
(0.86176606 0.051402837 0)
(0.83736756 0.21931324 2.2728872e-20)
(0.81199527 0.23056783 7.1839847e-20)
(0.79213843 0.14751312 -1.0733652e-20)
(0.80167938 -0.029669203 -1.4569305e-21)
(0.87020869 -0.18142298 -3.6109826e-20)
(0.97863857 -0.20798397 2.2176028e-20)
(1.084179 -0.16005357 1.3679593e-20)
(1.1559747 -0.057411145 1.5994264e-19)
(1.1738792 0.081031487 -5.9379127e-20)
(1.1238211 0.16479982 -4.6715573e-20)
(1.0263487 0.15410133 1.9598247e-21)
(0.95805166 0.10014683 -1.8642499e-21)
(0.94564122 0.045935772 -2.1332014e-21)
(0.96086819 0.0099633732 2.273732e-22)
(0.98089566 -0.010117697 3.5825931e-22)
(0.99989087 -0.018275571 3.8297974e-22)
(1.0148059 -0.018436799 -1.3455599e-22)
(1.0244545 -0.014246446 2.0129651e-23)
(1.0292203 -0.0087617809 3.3528793e-22)
(1.0304722 -0.0039738384 2.1894275e-22)
(1.0298051 -0.00069012024 -1.5651886e-22)
(1.0284593 0.0011424944 2.7465076e-22)
(1.0271264 0.0019634265 2.3570286e-22)
(1.0260402 0.0022220275 6.7133479e-23)
(1.025194 0.0022504411 8.3188462e-23)
(1.0244901 0.0021988165 2.2407669e-23)
(1.0238479 0.0021044378 1.8411302e-22)
(1.0231927 0.0019510007 -5.5604524e-23)
(1.0225536 0.0017125381 2.4253294e-22)
(1.0219134 0.0013756419 2.2266099e-23)
(1.0213918 0.00087855003 9.5850763e-22)
(1.0209584 0.00035729077 -1.6678795e-21)
(0.76687966 -0.088496877 6.8517819e-21)
(0.82836021 0.050437837 -2.4741981e-22)
(0.80994311 0.22643737 -8.0466861e-21)
(0.78975378 0.24020183 -4.1913094e-20)
(0.77309351 0.15398555 7.4470572e-20)
(0.78428353 -0.034866248 6.9029734e-20)
(0.85224368 -0.19732838 6.4037785e-21)
(0.96121293 -0.22939916 0)
(1.0699666 -0.18087314 4.6949117e-20)
(1.1488847 -0.069654134 2.1709156e-19)
(1.1718273 0.083725795 3.9182126e-21)
(1.1399773 0.19085119 2.305059e-20)
(1.0387565 0.1869206 0)
(0.95488374 0.12380506 3.18872e-21)
(0.92476791 0.053398267 3.3321598e-21)
(0.94287104 0.0082449106 -2.9591984e-22)
(0.96827819 -0.016081077 -2.8382164e-21)
(0.99221458 -0.026248271 0)
(1.0114969 -0.02653688 2.6577831e-22)
(1.0244509 -0.021055773 3.7065091e-22)
(1.0311641 -0.013559111 -4.2116015e-23)
(1.0330992 -0.0067469288 3.2152211e-22)
(1.0322552 -0.00190962 0)
(1.0303607 0.00086094275 1.7718877e-22)
(1.0284566 0.0021096724 1.3905217e-22)
(1.0269544 0.002490313 -1.1609908e-23)
(1.0258688 0.0024921759 8.3744941e-23)
(1.0250694 0.0023962494 -7.0973107e-23)
(1.0243969 0.0022842748 -9.1368609e-25)
(1.0237602 0.0021727497 5.8519921e-22)
(1.0230911 0.0020121983 -1.0910477e-21)
(1.0224304 0.001762117 -6.2905385e-22)
(1.0217694 0.0014111147 0)
(1.0212323 0.00090082158 -3.7507274e-23)
(1.0207913 0.00036378388 -4.9372207e-22)
(0.74062905 -0.091213321 1.0238778e-20)
(0.79615486 0.050973892 -9.9235375e-21)
(0.78347608 0.23269589 1.1120882e-20)
(0.76838935 0.24871031 -1.326363e-20)
(0.75482781 0.16296861 3.045628e-20)
(0.7653716 -0.035496833 1.1720993e-20)
(0.83553893 -0.21365467 5.7970943e-20)
(0.94251672 -0.24917861 5.3762995e-21)
(1.0520519 -0.20004827 0)
(1.1350917 -0.080963175 -7.6751982e-20)
(1.1619685 0.088861821 6.8640366e-20)
(1.1287879 0.21464511 -8.7148662e-21)
(1.0404538 0.22193884 1.2996166e-20)
(0.95416166 0.15386091 -3.6238803e-21)
(0.90504858 0.06357942 1.9970847e-21)
(0.92131099 0.0056249923 1.6790622e-21)
(0.95352791 -0.023592315 -4.8640266e-21)
(0.98306596 -0.036026277 -9.5983854e-22)
(1.0074421 -0.036615726 1.1994653e-21)
(1.0244565 -0.029761304 -6.9974768e-22)
(1.0337337 -0.019862999 2.7646177e-22)
(1.0366716 -0.010462667 -2.5078733e-22)
(1.0356596 -0.0035282131 0)
(1.0330113 0.00056488115 5.5151548e-23)
(1.030273 0.0024283154 3.8136978e-23)
(1.0281205 0.002962043 4.4359446e-26)
(1.0266419 0.0029000499 -1.0976683e-22)
(1.0256564 0.0026760596 -3.6272768e-23)
(1.0249409 0.002484684 -3.2890488e-23)
(1.0243096 0.0023435141 0)
(1.0236794 0.0022299139 -4.5959392e-22)
(1.0229947 0.0020632147 -1.1928259e-21)
(1.0223106 0.0018067705 1.7234935e-21)
(1.0216277 0.0014437293 -5.5275829e-22)
(1.0210749 0.00092163837 7.3501017e-23)
(1.0206269 0.00036960798 1.7604629e-21)
(0.71692511 -0.093674118 -1.0916963e-20)
(0.76672489 0.050331277 -2.9566302e-22)
(0.7589946 0.23801235 -1.0961818e-20)
(0.7487427 0.25628875 -2.7474878e-22)
(0.73789769 0.17023241 -1.4448246e-19)
(0.74667899 -0.03137073 -1.0851477e-19)
(0.81530499 -0.22570983 -1.3942946e-21)
(0.92410053 -0.26735981 3.3887079e-20)
(1.0319795 -0.21858678 5.9226155e-21)
(1.1169884 -0.090547332 6.9391505e-20)
(1.1459277 0.095674115 7.3388887e-22)
(1.1064649 0.23858173 -2.7695617e-20)
(1.0325298 0.25425378 2.8237195e-21)
(0.95329215 0.18604763 -1.0932675e-20)
(0.88886829 0.079781464 7.8276277e-22)
(0.89620208 0.0014556096 0)
(0.93673934 -0.032844636 4.575337e-22)
(0.97243684 -0.04770116 9.9381823e-22)
(1.0025692 -0.04885894 -2.7963143e-22)
(1.024448 -0.040628808 2.5522607e-23)
(1.0370252 -0.027976565 3.0216312e-22)
(1.0414141 -0.015360328 1.2649255e-22)
(1.0402994 -0.0056585839 -5.0050749e-24)
(1.0366797 0.00026408961 0)
(1.032772 0.0030152365 -5.6519332e-22)
(1.0296559 0.0037735881 -9.2402558e-23)
(1.0275557 0.0035930966 -1.3706934e-22)
(1.0262581 0.0031516924 1.2865382e-22)
(1.025438 0.0027636976 -5.8606368e-24)
(1.024825 0.0025226462 2.1065273e-23)
(1.0242366 0.002380349 2.6501864e-22)
(1.0236077 0.0022742697 -4.3965555e-22)
(1.0229029 0.0021091065 1.2561493e-23)
(1.0221923 0.0018486283 1.752757e-21)
(1.0214874 0.0014741716 -4.573148e-24)
(1.02092 0.00094137781 -4.9550043e-23)
(1.020465 0.00037497683 6.3322585e-22)
(0.69637847 -0.095915347 -8.4413068e-22)
(0.7402908 0.049520964 1.9372757e-20)
(0.73754068 0.24258397 -2.4461489e-20)
(0.73137474 0.26275904 1.1691631e-20)
(0.72273667 0.17717605 -6.3546083e-23)
(0.72991542 -0.028984169 3.2323681e-22)
(0.79327017 -0.23504473 3.939591e-20)
(0.90106085 -0.28453697 -1.2724951e-21)
(1.0097602 -0.2331657 0)
(1.095386 -0.099651957 -1.4515118e-20)
(1.1251968 0.10205544 0)
(1.0851294 0.26058702 0)
(1.0176156 0.28256828 -1.7018561e-20)
(0.94962117 0.21684562 7.2369708e-22)
(0.87886351 0.10001952 4.6563436e-22)
(0.871867 0.00023132931 1.2930985e-21)
(0.91708092 -0.044507744 1.1170277e-22)
(0.96051486 -0.061366569 -2.0992424e-21)
(0.99681924 -0.063356432 -8.6241126e-22)
(1.0243627 -0.053883094 -3.6426367e-22)
(1.0410906 -0.038205718 -2.7387743e-22)
(1.0475474 -0.021721546 -7.6205166e-22)
(1.046505 -0.008443923 -6.4101699e-23)
(1.041692 -3.0202592e-05 -4.1636899e-22)
(1.036197 0.003989131 -1.2272986e-22)
(1.0317107 0.0050862 3.2239452e-23)
(1.0286785 0.0047381121 1.8022988e-22)
(1.0268763 0.0039486475 -1.1948867e-22)
(1.0258663 0.003234873 -1.4674818e-24)
(1.0252445 0.0027608887 -1.676983e-22)
(1.0247359 0.0025184746 -2.4539105e-23)
(1.0241826 0.0023974762 -4.9317009e-23)
(1.0235465 0.0023091454 3.6646585e-22)
(1.0228165 0.0021500878 1.0596606e-21)
(1.0220773 0.0018869374 -3.4922498e-21)
(1.0213504 0.0015026798 -7.0354332e-22)
(1.0207678 0.00096064737 -6.2041445e-22)
(1.0203063 0.00038010594 0)
(0.67967469 -0.097966174 2.5039025e-20)
(0.71735027 0.048130131 -1.6004839e-22)
(0.71961979 0.24648742 -1.0233402e-20)
(0.71687571 0.26820266 1.0554146e-20)
(0.70992848 0.18342707 9.5080059e-20)
(0.71549725 -0.026457182 6.9039368e-20)
(0.77173097 -0.2438722 -2.2068478e-21)
(0.87569189 -0.30095212 -6.0714274e-20)
(0.98267365 -0.2514248 -8.7314371e-21)
(1.070472 -0.1042874 -8.4086523e-20)
(1.1001193 0.10846837 1.6707578e-21)
(1.0607729 0.28176232 0)
(0.99775616 0.30808174 0)
(0.93865232 0.24439297 1.0861884e-20)
(0.8719292 0.12329725 -7.3719941e-21)
(0.85056664 -0.00083360019 -6.1003381e-21)
(0.89492054 -0.057356271 1.5572128e-21)
(0.94706962 -0.076979587 5.1402934e-22)
(0.99008905 -0.080125681 -6.703784e-22)
(1.0240661 -0.06967311 -1.7066648e-21)