/*--------------------------------*- C++ -*----------------------------------*\
| =========                 |                                                 |
| \\      /  F ield         | OpenFOAM: The Open Source CFD Toolbox           |
|  \\    /   O peration     | Version:  5.0                                   |
|   \\  /    A nd           | Web:      www.OpenFOAM.org                      |
|    \\/     M anipulation  |                                                 |
\*---------------------------------------------------------------------------*/
FoamFile
{
    version     2.0;
    format      ascii;
    class       volVectorField;
    location    "240";
    object      UMean;
}
// * * * * * * * * * * * * * * * * * * * * * * * * * * * * * * * * * * * * * //

dimensions      [0 1 -1 0 0 0 0];

internalField   nonuniform List<vector> 
9200
(
(1.0286253 0.00030366251 -2.5866585e-24)
(1.0288325 0.00097018794 3.2957353e-22)
(1.0277967 0.00028334763 0)
(1.0291514 0.0016148601 -1.8087374e-22)
(1.0279564 0.00091395865 2.8687146e-22)
(1.0274069 0.00027113979 0)
(1.0295596 0.0022449719 -1.7053267e-23)
(1.0282222 0.0015230763 -1.5806201e-23)
(1.0275577 0.00086275943 0)
(1.026921 0.00024015947 0)
(1.0300353 0.0029371436 4.0892375e-22)
(1.0285428 0.0020991703 3.6828666e-22)
(1.0277981 0.0014421535 1.6546725e-22)
(1.0270454 0.00076255529 8.9230157e-24)
(1.0265318 0.00021633856 3.3584927e-25)
(1.0305433 0.0036227851 3.8516826e-22)
(1.0289127 0.0027368106 1.6674876e-23)
(1.0280876 0.0019780593 5.7978038e-22)
(1.0272558 0.0012879706 2.5613099e-22)
(1.0266484 0.00067071385 2.899117e-23)
(1.0262273 0.00018496053 -2.8998297e-22)
(1.0310424 0.0043702488 5.1573219e-22)
(1.0293047 0.0033453264 4.093433e-22)
(1.0284173 0.0025747685 -3.387921e-22)
(1.0275064 0.0017532753 -3.2392189e-23)
(1.0268376 0.0011435325 1.6350743e-22)
(1.0263312 0.00055486501 1.719407e-22)
(1.0259528 0.00015548821 3.913831e-23)
(1.031499 0.0051334142 4.0853141e-22)
(1.029692 0.0039995632 4.1597821e-22)
(1.0287638 0.003131573 4.6014956e-22)
(1.0277913 0.0022879479 8.0429652e-23)
(1.0270592 0.0015429125 -5.0615231e-22)
(1.0265006 0.00096526056 -2.2268818e-22)
(1.0260502 0.00044056373 -1.0006725e-22)
(1.0257785 0.00012366417 1.7460052e-22)
(1.0318946 0.0059374411 -7.1492342e-22)
(1.0300615 0.0046427197 3.1495557e-22)
(1.0290984 0.0037249939 7.6760814e-23)
(1.0280935 0.0027766719 1.8050245e-22)
(1.0273065 0.0020170853 1.7854143e-22)
(1.0266992 0.0012879016 -6.4792403e-22)
(1.026204 0.00078819597 -1.7570535e-22)
(1.0258714 0.00031513984 -1.3717724e-22)
(1.0256326 9.3521673e-05 -2.895666e-22)
(1.0321777 0.0067459237 6.4064452e-22)
(1.0303828 0.0053003107 2.8472474e-23)
(1.0294014 0.0042964649 -3.8841327e-23)
(1.0283864 0.0033057046 -2.6636704e-22)
(1.0275685 0.0024396077 -9.754015e-23)
(1.0269177 0.0016940147 3.0005525e-22)
(1.0263829 0.0010346739 2.1175863e-22)
(1.0260138 0.00059422864 2.6135903e-22)
(1.0257229 0.00019347416 1.6231718e-22)
(1.0255719 6.3339951e-05 3.8675567e-23)
(1.0322813 0.0075421251 -2.8851222e-22)
(1.030626 0.0059364695 2.4144634e-22)
(1.0296565 0.0048716682 2.3413642e-22)
(1.0286617 0.0038158963 -3.6203698e-22)
(1.0278197 0.0029007248 7.1590944e-24)
(1.0271486 0.0020442109 -4.4711757e-22)
(1.0265754 0.0013719959 9.9984725e-23)
(1.0261795 0.00075774607 2.5303848e-22)
(1.025856 0.00040574909 -8.7668141e-23)
(1.0256635 6.8281161e-05 2.4941536e-22)
(1.025539 3.5469107e-05 7.9936465e-24)
(1.0323038 0.008333517 2.4558625e-23)
(1.0307152 0.0065420643 -4.1002319e-22)
(1.0298448 0.0054261588 -4.1794825e-22)
(1.0289089 0.0043304516 0)
(1.0280548 0.0033391412 2.3789866e-23)
(1.027367 0.0024369245 -3.2790225e-22)
(1.0267785 0.001650393 -7.0684955e-23)
(1.0263527 0.0010199367 -1.2475751e-22)
(1.0260115 0.00048882963 -3.3576697e-22)
(1.0257923 0.00021111486 -9.1737946e-23)
(1.0256334 -5.0130292e-05 -2.5316107e-23)
(1.0255737 9.0776483e-06 1.2424434e-23)
(1.0322026 0.0091076429 2.6289437e-23)
(1.0307057 0.0071398207 1.6347012e-23)
(1.029924 0.0059588404 0)
(1.0291147 0.0048265849 0)
(1.0282547 0.0037841266 -3.0848645e-23)
(1.0275694 0.0028129181 -3.7757246e-22)
(1.0269644 0.0019729659 1.3320547e-22)
(1.0265344 0.0012212081 2.3641379e-22)
(1.0261683 0.0006769163 4.2520306e-23)
(1.0259445 0.00020994883 3.983439e-24)
(1.02576 2.6559815e-05 -7.9509905e-23)
(1.0256752 -0.00016610402 2.3667511e-22)
(1.0256314 -1.4335248e-05 -2.3826828e-22)
(1.0313556 0.009666391 -3.5773814e-22)
(1.0306796 0.0077776195 1.5486869e-23)
(1.0298638 0.0064484483 -1.3872061e-22)
(1.0292223 0.0052925026 3.9845631e-23)
(1.0284138 0.0042186703 1.351389e-23)
(1.0277421 0.0032024546 -1.3928761e-22)
(1.0271346 0.0022803187 1.013596e-22)
(1.0266946 0.0014701525 2.3581237e-23)
(1.0263311 0.00080098094 4.295018e-22)
(1.0260921 0.00031899723 4.098543e-22)
(1.0259123 -5.5100693e-05 6.2966708e-24)
(1.0258052 -0.00015518459 3.1933022e-23)
(1.0257415 -0.00027244972 -4.848888e-24)
(1.0257387 -3.5078858e-05 9.9519169e-23)
(1.0293906 0.0098881016 -2.9853725e-22)
(1.0303797 0.0083780435 6.7853433e-22)
(1.029713 0.0069038467 -1.5199058e-22)
(1.0291808 0.0057246227 1.8133884e-23)
(1.0285011 0.0046434964 -2.7677176e-23)
(1.0278766 0.0035861797 1.8335721e-22)
(1.0272733 0.0026051147 1.0860536e-22)
(1.0268343 0.0017070288 -1.2443763e-22)
(1.026467 0.00097353245 -1.5853986e-22)
(1.0262433 0.00036151705 -6.9548496e-23)
(1.0260546 -2.3122429e-05 -4.2224698e-25)
(1.0259649 -0.00031793923 -1.7786101e-22)
(1.0258775 -0.00032254888 1.5534868e-22)
(1.0258617 -0.00037138482 -1.3198404e-22)
(1.0258628 -5.2289104e-05 1.2148774e-22)
(1.0263693 0.0098118208 8.1464031e-22)
(1.0291966 0.00875677 -8.6035604e-22)
(1.0294711 0.0074009936 2.2331656e-22)
(1.028997 0.0061178505 -1.8819016e-22)
(1.0284582 0.0050449612 6.8728595e-23)
(1.0279501 0.0039663962 -2.8639157e-22)
(1.0273696 0.0029293934 -1.9417069e-22)
(1.0269384 0.0019655619 4.7368413e-23)
(1.0265804 0.0011372091 -3.1947051e-23)
(1.0263614 0.00045357007 -4.7088387e-22)
(1.0261983 -6.1627562e-05 -5.8962527e-23)
(1.0261102 -0.00036565394 -3.6692302e-22)
(1.026049 -0.00056129369 -7.0988163e-23)
(1.0260099 -0.00047940921 3.7767306e-23)
(1.0260002 -0.00045824837 7.1098932e-23)
(1.0260181 -6.5991788e-05 -1.5727403e-22)
(1.0224975 0.0095678533 0)
(1.027122 0.0089101252 -1.0778083e-21)
(1.0285522 0.0078038244 2.7888325e-22)
(1.0287459 0.0065393305 0)
(1.0282219 0.0054082338 0)
(1.0279161 0.0043313871 0)
(1.0274166 0.0032604439 7.1308835e-23)
(1.0269962 0.0022282132 2.0091077e-22)
(1.0266546 0.0013252753 6.5820061e-22)
(1.0264503 0.00053755706 1.0134514e-22)
(1.0263028 -5.2591417e-05 1.7276191e-22)
(1.0262549 -0.00048881858 1.5566743e-23)
(1.0262027 -0.00068567857 7.7101044e-23)
(1.0262014 -0.00079160311 8.0407464e-23)
(1.0261629 -0.00061800374 -4.2189104e-23)
(1.0261743 -0.00053376997 8.7325522e-23)
(1.0261834 -7.5768738e-05 0)
(1.0182502 0.0092207662 6.900583e-22)
(1.0240443 0.0088385114 2.0335038e-21)
(1.026705 0.0079971641 -1.8859027e-21)
(1.0280548 0.006974334 -4.8091842e-22)
(1.0278819 0.0057919886 -2.6817786e-22)
(1.0276641 0.0046601344 0)
(1.0273808 0.003587901 2.899422e-22)
(1.027006 0.0025040845 -2.2686994e-22)
(1.0266786 0.0015218375 -3.557185e-22)
(1.0264936 0.00064727358 8.9445792e-22)
(1.0263739 -5.0673338e-05 -4.9725926e-23)
(1.0263539 -0.00056704241 2.193195e-22)
(1.0263545 -0.00089163171 -3.422396e-22)
(1.0263727 -0.00099248663 2.0648626e-22)
(1.026379 -0.00099699554 -1.342716e-22)
(1.0263582 -0.00073971721 7.0588426e-22)
(1.0263597 -0.0005953459 2.3376117e-22)
(1.0263634 -8.150915e-05 2.6319418e-22)
(1.0142516 0.0088615152 -7.944035e-23)
(1.0201112 0.0085667132 9.9466104e-22)
(1.0239225 0.0080801335 4.2068077e-22)
(1.0264882 0.007219099 -9.4956475e-22)
(1.0272561 0.0062296324 6.1396581e-23)
(1.0272266 0.0049824639 -3.6625315e-22)
(1.0271353 0.0038882596 -7.0369407e-22)
(1.0269538 0.0027853943 -7.5183945e-22)
(1.0266541 0.0017364965 -3.8353087e-22)
(1.0264817 0.00077059016 -2.8227215e-22)
(1.0263936 -2.2356034e-05 -2.2037282e-22)
(1.0264124 -0.00065403284 6.1979167e-23)
(1.0264548 -0.0010580915 -4.5642191e-22)
(1.0265419 -0.0012825773 1.1476655e-22)
(1.0265744 -0.0012697818 1.3646698e-22)
(1.0266076 -0.0011800034 -1.2847517e-22)
(1.0265669 -0.00084000151 2.7908672e-22)
(1.0265633 -0.00064291701 -3.4057153e-23)
(1.0265457 -8.3076291e-05 2.77961e-22)
(1.0101095 0.008492732 -6.5774435e-22)
(1.0161988 0.0082232957 -1.2092245e-21)
(1.0203394 0.0080091697 4.9137331e-21)
(1.0240266 0.0073428483 4.5695369e-22)
(1.0258972 0.0065525924 -4.1284271e-22)
(1.0265803 0.0053751409 -1.758818e-22)
(1.0266161 0.0041563324 6.6815617e-25)
(1.0267294 0.0030543929 -2.4306763e-22)
(1.0265774 0.0019630664 -1.4282769e-22)
(1.0264166 0.00091604084 -7.8296666e-22)
(1.0263527 2.2916377e-05 -1.4663026e-22)
(1.0264109 -0.00071585169 2.1710252e-22)
(1.0265092 -0.0012363905 8.9877015e-23)
(1.0266538 -0.0015405955 -1.2727928e-23)
(1.0267688 -0.0016405377 1.6391255e-22)
(1.0268372 -0.0015214313 -5.2440671e-22)
(1.0268535 -0.0013333182 2.8147231e-22)
(1.0267998 -0.00091885743 -4.6660309e-22)
(1.0267706 -0.00067532386 -1.139586e-22)
(1.0267294 -8.0509772e-05 -3.0633826e-22)
(1.0044257 0.0080526258 -4.8238432e-23)
(1.0126254 0.0079993982 -1.812967e-21)
(1.0165687 0.0078284437 -8.0337087e-23)
(1.0206907 0.0073422084 -1.2213859e-21)
(1.0236672 0.0067579 -7.0406384e-23)
(1.0253511 0.005724377 4.8595589e-22)
(1.0258931 0.0044825834 -4.6751158e-22)
(1.0261817 0.0032695441 3.0983377e-22)
(1.0263735 0.0021928072 5.1046687e-22)
(1.0263014 0.0010803412 0)
(1.0262524 9.3633737e-05 1.3516537e-22)
(1.026341 -0.0007579685 7.1608437e-22)
(1.0264949 -0.0013922405 4.4087348e-22)
(1.0267133 -0.0018156054 -7.8149112e-22)
(1.0269016 -0.0019888691 2.5696886e-23)
(1.0270685 -0.0019709734 -4.0915754e-22)
(1.0271237 -0.001736882 1.7715113e-22)
(1.0271324 -0.0014570651 2.6980038e-22)
(1.0270385 -0.00097413184 -3.6866104e-22)
(1.0269815 -0.00069242817 -1.3657989e-23)
(1.0269075 -7.3827989e-05 -3.0156743e-22)
(0.9964252 0.0072125407 1.014935e-21)
(1.0079777 0.0075117634 -1.5727381e-21)
(1.013062 0.0076403986 -2.5981756e-21)
(1.0171076 0.0072428682 2.7427665e-21)
(1.0205451 0.0068515848 1.5738339e-21)
(1.0233062 0.0059683302 -2.6424723e-22)
(1.0247342 0.0048282621 0)
(1.0253608 0.0035135192 -5.1212555e-22)
(1.025856 0.0023713359 -3.9193942e-22)
(1.0260986 0.0012614481 -1.9895809e-22)
(1.0260968 0.00018858611 3.2420552e-22)
(1.0262042 -0.00077205268 3.4535758e-22)
(1.0264047 -0.001528153 -1.3830465e-22)
(1.0266937 -0.0020741452 -1.5876764e-23)
(1.0269769 -0.0023620412 4.122964e-22)
(1.0272348 -0.002410075 -3.9315953e-22)
(1.0274001 -0.0022594813 5.5765779e-23)
(1.0274537 -0.0019164076 -4.1997303e-22)
(1.0274202 -0.0015476058 2.5611103e-23)
(1.0272852 -0.0010054934 1.9250734e-24)
(1.027188 -0.00069404575 -1.9333597e-22)
(1.0270771 -6.3129502e-05 0)
(0.98669244 0.0064452505 1.8106482e-22)
(1.0003471 0.0068272469 1.0088037e-21)
(1.0090613 0.0074054733 -1.9526084e-23)
(1.0137735 0.0071120921 3.1664168e-21)
(1.0170333 0.0068516909 1.262574e-21)
(1.0203697 0.0061045507 -8.0958546e-22)
(1.0228282 0.0050901192 5.488358e-22)
(1.0241934 0.0038057379 -9.6746373e-22)
(1.024952 0.0025250045 -2.0383466e-22)
(1.0256414 0.0014165993 6.063223e-23)
(1.0258759 0.00030908572 -3.146751e-23)
(1.0260028 -0.00075562321 -8.3499958e-22)
(1.0262379 -0.0016353375 5.5437039e-24)
(1.0265891 -0.0023148099 1.0834343e-21)
(1.0269643 -0.0027270051 -2.9294871e-23)
(1.0273389 -0.0028841905 -3.6579011e-22)
(1.0276107 -0.0027854312 -9.5024973e-23)
(1.0277875 -0.00250658 7.938502e-22)
(1.0277975 -0.0020543652 6.883173e-23)
(1.0277231 -0.0016043348 -2.6324281e-22)
(1.0275293 -0.001012431 0)
(1.0273872 -0.00068038639 4.4204102e-22)
(1.027234 -4.8515135e-05 7.8361831e-24)
(0.97530622 0.0056922282 -8.6971659e-22)
(0.99054253 0.0059588492 3.1555e-21)
(1.0023794 0.0069175017 -3.9255642e-21)
(1.0101763 0.006991551 -1.7461231e-21)
(1.0137723 0.0068277884 3.4151499e-21)
(1.0169156 0.0061621135 0)
(1.0200672 0.0052429118 1.2389579e-22)
(1.0224073 0.0040497985 -7.3171516e-22)
(1.0237334 0.0027318036 -4.4523572e-22)
(1.0247321 0.0014960075 4.3283154e-22)
(1.0254753 0.0004361814 6.0242085e-23)
(1.0257408 -0.00070628074 -3.8309899e-22)
(1.0259953 -0.0017075574 5.5819063e-22)
(1.026396 -0.0025278049 -2.2161377e-22)
(1.0268577 -0.0030792906 6.1740416e-22)
(1.0273461 -0.0033610656 4.2214899e-22)
(1.0277567 -0.0033586592 -8.366845e-22)
(1.0280562 -0.0031157441 3.2878468e-22)
(1.0281963 -0.0027039496 -1.2360473e-21)
(1.0281664 -0.0021495091 4.7723151e-22)
(1.0280259 -0.0016261543 6.3589568e-22)
(1.0277688 -0.00099511373 -5.1891628e-22)
(1.0275743 -0.00065193626 2.8822705e-22)
(1.0273754 -3.0317759e-05 7.4903465e-24)
(0.96255362 0.0049288631 1.9454069e-22)
(0.97970507 0.005371587 3.1206342e-21)
(0.99332629 0.0060523573 6.9277586e-22)
(1.0042275 0.0067398109 1.1050083e-20)
(1.0105212 0.0068655964 -2.6839107e-21)
(1.0136383 0.0061760372 3.9910686e-21)
(1.0166786 0.0053244216 1.1160789e-22)
(1.0198124 0.0041974362 2.3911078e-21)
(1.0220417 0.0029394806 -4.5730778e-22)
(1.0234291 0.0016046692 -2.2009042e-22)
(1.0246426 0.00047970093 3.0146764e-22)
(1.0253609 -0.00062497165 7.6494495e-22)
(1.0256827 -0.0017418634 -4.493601e-23)
(1.026114 -0.0027039853 -1.0169898e-22)
(1.0266501 -0.0034087726 -2.4672719e-22)
(1.02725 -0.0038342572 1.6075264e-22)
(1.0277993 -0.0039482525 -1.6238908e-22)
(1.0282591 -0.0037864351 5.4647227e-22)
(1.0285336 -0.0033892191 0)
(1.0286417 -0.0028495134 7.7659631e-23)
(1.0285386 -0.0021999944 2.5894133e-23)
(1.0283285 -0.0016129895 -5.1321748e-23)
(1.0279973 -0.00095414114 1.3713387e-23)
(1.0277463 -0.00060933546 -4.1611552e-22)
(1.0274989 -8.6582198e-06 -1.5838224e-22)
(0.94891883 0.0041924726 4.5511646e-22)
(0.96741765 0.0047214197 -2.1508317e-21)
(0.98248269 0.0054396255 -1.6749485e-21)
(0.9954605 0.0060432769 -1.5907929e-21)
(1.0054455 0.0067652724 -1.0576893e-20)
(1.0105585 0.0062625631 -5.1862873e-22)
(1.0133808 0.0053491455 1.0726341e-22)
(1.0165018 0.0042679418 -2.0386553e-22)
(1.019592 0.0030655926 -1.6793649e-21)
(1.0217628 0.0017560353 2.71243e-22)
(1.0232853 0.00049470206 -2.367338e-22)
(1.024634 -0.00058615655 -7.9014446e-23)
(1.025285 -0.0017304352 -4.8905767e-22)
(1.0257463 -0.0028381816 -6.5388358e-23)
(1.0263398 -0.0037032147 -4.1608212e-22)
(1.0270399 -0.0042926473 3.0879581e-22)
(1.0277306 -0.0045464272 1.0495105e-21)
(1.0283535 -0.0044896257 -8.0409266e-22)
(1.0288071 -0.0041516041 -1.2855553e-21)
(1.029061 -0.0036030051 1.1400598e-23)
(1.0290959 -0.0029402545 1.301123e-21)
(1.0289178 -0.0022049103 3.4173306e-22)
(1.0286218 -0.0015654474 -6.0008803e-22)
(1.0282117 -0.00089043494 4.7003812e-22)
(1.0279004 -0.000553451 -2.8607461e-22)
(1.0276025 1.5739261e-05 1.5353216e-23)
(0.93486902 0.0034895606 -1.842496e-23)
(0.95402573 0.0041105377 -2.6520978e-21)
(0.97034247 0.0047100288 7.0912353e-21)
(0.98497155 0.0054575737 -9.3843041e-21)
(0.9973509 0.0063074393 1.0344265e-20)
(1.0062107 0.0063001021 -6.0189264e-21)
(1.0103749 0.0054221347 -2.9661204e-21)
(1.0131864 0.0042823028 -2.8157352e-21)
(1.0163824 0.0031156237 3.216793e-21)
(1.0194359 0.0018542398 9.2295524e-22)
(1.0215525 0.00056144882 -8.2710557e-23)
(1.0232909 -0.00064442568 2.5733907e-22)
(1.0246446 -0.0017063874 3.9177898e-22)
(1.0252977 -0.0029203593 -5.8564874e-22)
(1.0259265 -0.0039555553 1.0701628e-23)
(1.0267125 -0.0047212872 3.1955739e-22)
(1.0275362 -0.0051411464 -7.1931689e-22)
(1.0283298 -0.0052165211 8.57317e-22)
(1.0289702 -0.0049642515 -6.9202494e-22)
(1.0294199 -0.004450383 1.8114674e-22)
(1.029606 -0.003751966 0)
(1.029567 -0.0029737937 5.7947399e-22)
(1.02929 -0.0021649005 3.5533841e-23)
(1.0289029 -0.0014845308 0)
(1.0284082 -0.00080534905 -5.7464624e-22)
(1.0280342 -0.00048534367 -2.9997206e-23)
(1.0276848 4.2693797e-05 9.4589545e-23)
(0.92067827 0.002871281 -2.0337062e-22)
(0.94013599 0.0035428713 -2.7656832e-22)
(0.95718721 0.004091157 6.8997122e-21)
(0.97327633 0.0047799326 -8.7232763e-22)
(0.98714954 0.0056679206 2.7137546e-21)
(0.9987656 0.0060483682 8.3192017e-21)
(1.0066255 0.0055212442 3.4621025e-22)
(1.0102087 0.0043122957 3.5231219e-21)
(1.0130537 0.0031022036 -4.0831303e-22)
(1.0163433 0.0018839574 -2.127563e-21)
(1.0193205 0.00064519997 1.2910687e-21)
(1.0214417 -0.00067915504 7.7334509e-23)
(1.0234277 -0.0017928612 -1.7048899e-22)
(1.0246881 -0.0029539113 -2.6124973e-23)
(1.0254181 -0.004154676 -7.7126629e-22)
(1.0262649 -0.0051114001 7.8110375e-23)
(1.0272108 -0.0057161511 -1.5516412e-21)
(1.02817 -0.0059547315 1.6819578e-21)
(1.0290112 -0.0058182269 5.1488586e-22)
(1.0296692 -0.0053674124 -4.8916211e-22)
(1.0300627 -0.0046742504 8.5029641e-22)
(1.0301793 -0.0038323196 5.3385158e-25)
(1.030034 -0.002951055 -4.8211338e-23)
(1.0296539 -0.0020805212 0)
(1.0291664 -0.0013720289 0)
(1.0285842 -0.00070048138 4.7420955e-23)
(1.0281461 -0.00040605661 -2.6387797e-22)
(1.0277448 7.1630198e-05 -1.2176933e-22)
(0.90663266 0.0023065292 0)
(0.92604971 0.0030018149 -1.7595135e-21)
(0.94358207 0.0034864495 -7.1008493e-21)
(0.96043003 0.0043036558 -5.9272545e-21)
(0.97567225 0.0051094766 -1.1523091e-20)
(0.9890068 0.0053860681 -1.3191664e-21)
(0.99997924 0.0053675831 5.0819649e-21)
(1.0069101 0.0044218619 7.5663932e-21)
(1.0101069 0.0031042521 -5.7301407e-21)
(1.0129805 0.0018483826 8.3680447e-22)
(1.016335 0.00066743831 -1.712285e-22)
(1.0192123 -0.00061955658 -3.3574985e-22)
(1.0214973 -0.001930719 5.7395443e-22)
(1.0236254 -0.0030423486 -1.0426926e-22)
(1.0247895 -0.0042914619 7.3481784e-23)
(1.0257013 -0.0054511209 -8.5389171e-22)
(1.026749 -0.0062606695 1.7129379e-22)
(1.0278662 -0.0066867794 -8.3169445e-22)
(1.0289083 -0.006701311 1.7929348e-21)
(1.0297944 -0.0063452889 -8.6241091e-22)
(1.0304143 -0.0056866835 7.2803063e-22)
(1.0307469 -0.0048181854 4.8196664e-22)
(1.0307541 -0.0038445062 -9.9057826e-24)
(1.0304995 -0.0028709712 -1.6104459e-21)
(1.030001 -0.0019539035 -3.8808054e-22)
(1.0294091 -0.0012298828 6.6748075e-23)
(1.0287373 -0.00057756637 4.453715e-22)
(1.0282349 -0.00031708626 -1.2302653e-22)
(1.0277822 0.00010191433 5.3550708e-23)
(0.89302103 0.0017709657 5.2283803e-22)
(0.91198601 0.002324134 0)
(0.9297001 0.0027857353 0)
(0.94696231 0.0036560786 0)
(0.96306903 0.0046746379 3.4074496e-21)
(0.9778115 0.0049396194 -1.0689076e-20)
(0.99077006 0.0046858176 2.9459456e-22)
(1.0012197 0.0042930201 8.4438096e-23)
(1.0071549 0.0031808602 -1.078478e-20)
(1.0100309 0.0018488646 7.9799905e-21)
(1.0129245 0.00064168608 -2.351208e-21)
(1.0162897 -0.00059480507 5.7477242e-22)
(1.0191191 -0.0019638144 -5.3096851e-22)
(1.0217335 -0.0032611245 2.421209e-22)
(1.0238445 -0.0044126472 8.8320251e-22)
(1.025023 -0.0057290743 1.6226087e-22)
(1.0261509 -0.0067613758 -1.026692e-21)
(1.0274114 -0.0074007038 -5.8980553e-22)
(1.028651 -0.0075952387 8.3041653e-22)
(1.0297707 -0.0073726661 -7.6620713e-23)
(1.0306431 -0.0067803972 -8.6524766e-22)
(1.0312162 -0.0059154605 -5.2368059e-23)
(1.0314423 -0.0048808483 1.2607914e-21)
(1.0313356 -0.0037852039 -8.3454822e-22)
(1.0309488 -0.0027371178 -6.2046218e-24)
(1.0303283 -0.0017871845 -2.6186603e-22)
(1.0296279 -0.0010606336 5.4851818e-22)
(1.0288661 -0.00043858569 1.4750735e-22)
(1.0282999 -0.00021950864 3.4675762e-22)
(1.0277977 0.00013324346 -3.7969954e-23)
(0.87896025 0.0012034481 -2.3496168e-22)
(0.89820105 0.001704365 -2.315837e-21)
(0.91569582 0.0020792107 0)
(0.93312247 0.0030695456 0)
(0.94976333 0.0040461299 0)
(0.96551222 0.0045079868 0)
(0.97991184 0.0042029061 0)
(0.99264816 0.0036713656 -3.0105403e-24)
(1.002422 0.0031090796 5.6581138e-21)
(1.0073195 0.0018907676 -1.1864019e-20)
(1.009902 0.00068460471 9.0319396e-23)
(1.0128068 -0.00057791865 -2.3184066e-21)
(1.0161906 -0.0019449812 2.9318818e-21)
(1.0191578 -0.0034551612 -5.8049083e-22)
(1.0221646 -0.0046745227 -3.6705341e-23)
(1.0241298 -0.0059507065 4.4959455e-22)
(1.0254216 -0.0072078392 -7.9692088e-22)
(1.0268022 -0.0080817694 5.4275778e-22)
(1.0282299 -0.0084875166 4.4003783e-22)
(1.0295846 -0.0084307721 3.3118036e-22)
(1.0307214 -0.0079456947 1.1508939e-22)
(1.031567 -0.0071151286 4.5282289e-22)
(1.0320423 -0.0060494293 -6.3200052e-25)
(1.0321542 -0.0048579225 -5.0860701e-22)
(1.0319033 -0.0036591326 2.0785354e-22)
(1.0313806 -0.0025499251 1.4118778e-21)
(1.0306305 -0.0015835002 3.3335179e-22)
(1.0298203 -0.00086686454 -2.4335253e-22)
(1.0289692 -0.00028555863 1.7286657e-23)
(1.0283409 -0.00011459835 -1.3422724e-22)
(1.0277916 0.00016550674 4.5358769e-23)
(0.86425434 0.00049793955 -8.1972276e-22)
(0.88387191 0.001030864 -6.5688198e-22)
(0.90183271 0.0014201356 -7.9392467e-21)
(0.9191133 0.0024594333 -1.3364814e-20)
(0.93607653 0.0035115258 0)
(0.95236279 0.0038896454 0)
(0.96795842 0.0036834377 -5.91179e-23)
(0.9822105 0.0030724617 -1.2155436e-20)
(0.99464572 0.0025984938 1.5636799e-20)
(1.0033734 0.0018947301 -1.4704022e-20)
(1.0073146 0.00072379573 -2.1053709e-22)
(1.009612 -0.00046731025 5.0421557e-21)
(1.0126147 -0.0019039687 -6.8316168e-22)
(1.016116 -0.0035116611 2.0850923e-22)
(1.0194984 -0.0050352647 3.3381051e-22)
(1.0226849 -0.0062369057 4.8743131e-24)
(1.0245283 -0.0075894681 1.6265266e-21)
(1.02604 -0.0087187408 -1.0314275e-22)
(1.0276395 -0.0093618071 -1.6277315e-21)
(1.0292244 -0.0095065311 2.5980077e-21)
(1.030633 -0.0091637191 -7.5719437e-22)
(1.031769 -0.0084095807 -7.7051647e-22)
(1.0325317 -0.0073414383 1.9869442e-21)
(1.0328967 -0.0060829667 7.2177644e-22)
(1.0328579 -0.0047535629 -3.447321e-22)
(1.0324587 -0.0034652085 8.7079805e-22)
(1.0317861 -0.0023141854 4.1925671e-22)
(1.0309043 -0.0013454227 1.447515e-22)
(1.0299844 -0.00065132227 -2.6148273e-22)
(1.0290462 -0.00012057674 -6.5895854e-23)
(1.028358 -3.7090211e-06 5.8217121e-23)
(1.0277635 0.00019747544 1.0023034e-23)
(0.8495301 -0.00031764747 3.3357417e-22)
(0.86891669 0.00041974053 2.5930122e-21)
(0.88724725 0.00072643318 1.1695055e-20)
(0.90521001 0.001904813 1.6654354e-20)
(0.92218191 0.0029365421 0)
(0.93878271 0.003340461 0)
(0.95500221 0.0030268704 0)
(0.97060806 0.0024529301 1.7379123e-21)
(0.98472051 0.0018957472 -1.8828989e-20)
(0.99653467 0.0015366784 -1.5443669e-20)
(1.0040164 0.00085090713 -1.6701859e-22)
(1.0070233 -0.00038156082 1.2709977e-21)
(1.009138 -0.0017508995 -9.4680039e-21)
(1.0124097 -0.003495128 3.2895045e-21)
(1.0162007 -0.0052914988 -1.8790866e-22)
(1.0201738 -0.0067231408 0)
(1.0232559 -0.0079528408 3.2185281e-22)
(1.0251207 -0.0092992865 -4.7632359e-22)
(1.0268773 -0.010206121 2.0328637e-22)
(1.0286827 -0.010583188 2.5228673e-22)
(1.0303637 -0.010421573 -1.1953181e-21)
(1.0318034 -0.0097802745 2.8440733e-22)
(1.0328777 -0.0087516577 -1.2221908e-21)
(1.0335395 -0.0074521659 -1.6067176e-21)
(1.033752 -0.0060186147 6.3729105e-22)
(1.0335549 -0.0045652757 9.9433278e-23)
(1.0329868 -0.00321031 -7.5654652e-23)
(1.0321629 -0.0020327265 1.4901739e-23)
(1.0311475 -0.001077028 -3.914084e-22)
(1.0301193 -0.00041719232 -2.801222e-22)
(1.0290969 5.4384862e-05 9.6183437e-23)
(1.0283515 0.00011182274 -3.705098e-22)
(1.0277128 0.00022627576 2.6170856e-22)
(0.83477619 -0.00098795703 2.0018852e-22)
(0.85385885 -0.00044461158 2.9526571e-22)
(0.87194512 9.0864281e-05 1.9925707e-20)
(0.89049026 0.0012744929 3.3419824e-20)
(0.90834373 0.0024130051 -7.2898269e-21)
(0.92496796 0.0027644855 -8.029616e-22)
(0.94151957 0.0024022609 -2.99759e-20)
(0.95788616 0.001718055 1.4462094e-20)
(0.97348023 0.0011521565 2.1450509e-21)
(0.98728088 0.00082412079 3.8342792e-20)
(0.99822198 0.00069615648 -1.3250129e-20)
(1.0041831 -7.7362463e-05 -1.4691834e-20)
(1.0063923 -0.0016011287 1.3770775e-22)
(1.0085716 -0.0033649502 3.7380049e-21)
(1.0123169 -0.0053783902 2.2857911e-21)
(1.0166572 -0.0072494489 9.4039968e-23)
(1.0211197 -0.0084997683 4.9024267e-23)
(1.0239434 -0.009822609 5.7063776e-22)
(1.0259416 -0.011007691 -1.987045e-22)
(1.0279547 -0.011646973 -1.2345771e-22)
(1.0299036 -0.011702054 6.2964841e-22)
(1.0316534 -0.011214973 -2.2482708e-21)
(1.0330588 -0.010262366 -1.0285058e-22)
(1.0340475 -0.0089629324 8.5000479e-22)
(1.0345603 -0.0074475094 -2.1963712e-21)
(1.0346079 -0.0058532171 -7.5395217e-22)
(1.0342261 -0.0043009525 -6.7584578e-22)
(1.0334873 -0.0028951922 -2.0905154e-22)
(1.0325055 -0.0017107942 -3.7782499e-22)
(1.0313579 -0.00078215911 7.5819308e-24)
(1.030224 -0.00016708548 -6.4780147e-23)
(1.0291215 0.00023730736 -2.9926197e-23)
(1.0283219 0.00023094806 2.2413731e-22)
(1.0276434 0.00025418827 -6.2212247e-22)
(0.82019065 -0.0016045871 -4.7149511e-22)
(0.83874703 -0.0011152522 -4.4314173e-22)
(0.85656563 -0.00073839269 -2.3196291e-20)
(0.87501998 0.0006830096 -1.6737937e-20)
(0.89352795 0.0017878259 2.8511089e-20)
(0.91117919 0.0022662132 3.5949266e-20)
(0.92777025 0.0017545136 4.2341279e-21)
(0.94449944 0.00098570901 0)
(0.96102547 0.00034262968 1.6509206e-20)
(0.97641995 -2.6060054e-05 5.3027488e-20)
(0.9896841 4.0131126e-05 2.0123696e-21)
(0.99946923 2.4283138e-05 7.0033035e-21)
(1.003825 -0.0010894485 0)
(1.0054693 -0.003154947 -4.3593147e-22)
(1.0080726 -0.0053439412 -6.3090365e-21)
(1.0125026 -0.0075752816 -2.1554647e-22)
(1.017626 -0.009263181 8.0716663e-22)
(1.0221528 -0.010423489 0)
(1.0248039 -0.011752798 3.253217e-22)
(1.0270342 -0.012685759 8.087656e-22)
(1.0292468 -0.012990098 -1.8561432e-21)
(1.031307 -0.012695881 6.0920948e-22)
(1.0330561 -0.011862218 0)
(1.0343972 -0.010598615 -2.0787994e-21)
(1.0352458 -0.0090404904 9.0281708e-22)
(1.0355913 -0.0073235105 -6.0105269e-23)
(1.0354423 -0.0055941815 -9.1841776e-22)
(1.0348713 -0.0039602928 7.737743e-22)
(1.03395 -0.0025281263 3.1494882e-23)
(1.0328121 -0.0013523427 -9.0286873e-22)
(1.0315342 -0.0004646253 7.724912e-22)
(1.0302987 9.5860614e-05 2.4783573e-22)
(1.0291204 0.00042625966 0)
(1.0282701 0.00035283274 -9.5449455e-24)
(1.0275563 0.00028057922 -2.2464262e-22)
(0.8056912 -0.0021955977 -3.022754e-22)
(0.82383461 -0.0015455345 1.3249593e-21)
(0.84121328 -0.0015577448 -2.1838992e-20)
(0.85942617 0.00010791536 -5.8795575e-21)
(0.87788034 0.0012119678 7.6454359e-21)
(0.89629123 0.0016436075 4.9157376e-21)
(0.91404148 0.0012081873 3.1963549e-20)
(0.93079866 0.00024153556 1.7337675e-22)
(0.94776845 -0.00046884938 0)
(0.96426286 -0.00085700715 -2.0020605e-20)
(0.97922988 -0.0008164177 1.7094361e-20)
(0.99166527 -0.00043441935 -1.1630628e-21)
(0.99993333 -0.0007579697 7.3155937e-21)
(1.0029137 -0.0025146191 -7.6086235e-21)
(1.0044529 -0.0051458115 -3.5719888e-21)
(1.0078411 -0.0077128233 -3.9793107e-21)
(1.0131457 -0.009954173 5.1300597e-21)
(1.0190768 -0.011324039 4.2309474e-22)
(1.0232557 -0.012489202 1.0918288e-21)
(1.0259176 -0.013685105 -2.4599043e-21)
(1.0283835 -0.014273322 2.1996914e-21)
(1.0307571 -0.014207716 -1.9530853e-21)
(1.0328556 -0.013533272 0)
(1.0345671 -0.012348911 -5.613069e-22)
(1.0357828 -0.010782065 2.1259099e-22)
(1.0364669 -0.0089789151 1.1162451e-21)
(1.0366077 -0.007086204 2.6745949e-22)
(1.0362529 -0.0052411639 1.4423999e-22)
(1.0354765 -0.0035535174 5.6234277e-22)
(1.0343743 -0.0021114483 0)
(1.0330796 -0.00096274388 7.9514855e-22)
(1.0316759 -0.00012827667 8.6103467e-22)
(1.0303437 0.0003688729 2.0680452e-22)
(1.0290947 0.00061950911 -2.6644958e-22)
(1.0281966 0.00047653297 2.8144498e-24)
(1.0274551 0.00030785148 8.7052715e-22)
(0.79151217 -0.0026793619 4.5073763e-22)
(0.80920152 -0.0020068426 -1.5776136e-22)
(0.82604157 -0.0020221194 6.6327295e-21)
(0.84391066 -0.00069280608 2.5669634e-22)
(0.86193411 0.00073787978 -3.3976281e-20)
(0.88047247 0.0011094116 -3.6444857e-20)
(0.89909857 0.00055782665 -1.3238097e-22)
(0.91712503 -0.00039194293 2.487587e-20)
(0.93412543 -0.0012957442 1.6369015e-22)
(0.95117237 -0.0017180314 1.94985e-20)
(0.96739722 -0.0016038556 -3.2636883e-23)
(0.98160481 -0.0011389025 -9.2798787e-21)
(0.99288181 -0.0008955152 -1.0766574e-21)
(0.99956839 -0.0019787051 -7.7404624e-21)
(1.0016559 -0.0044950157 2.6518341e-20)
(1.0035782 -0.0076550052 3.9575849e-22)
(1.0080499 -0.010390683 -3.2570985e-21)
(1.0144747 -0.012378062 -1.570746e-21)
(1.0207583 -0.013445434 -1.9142421e-22)
(1.0245161 -0.014644395 -4.3023766e-22)
(1.0273104 -0.015538733 1.0711906e-21)
(1.0299924 -0.015736644 -2.6714365e-21)
(1.0324479 -0.015260565 2.2546398e-21)
(1.0345412 -0.014196041 0)
(1.0361478 -0.012663417 1.447073e-21)
(1.0372072 -0.01080578 2.3532019e-21)
(1.037683 -0.0087827447 -1.0025043e-21)
(1.0376047 -0.0067351987 1.9774759e-21)
(1.0370232 -0.0048047383 4.0838542e-23)
(1.0360407 -0.003082178 -6.4206154e-22)
(1.0347537 -0.0016538101 -8.02347e-22)
(1.0333071 -0.00054638813 -2.0723582e-23)
(1.0317827 0.00022310058 -5.598875e-23)
(1.0303596 0.00064916788 3.3902977e-22)
(1.0290455 0.00081547829 -1.7200191e-22)
(1.0281031 0.00060136837 -3.9113261e-23)
(1.0273384 0.00033974795 3.5750546e-22)
(0.77860228 -0.0031415846 -1.5815535e-22)
(0.79505672 -0.0024594445 -1.1833583e-21)
(0.81117595 -0.0024237568 8.6518868e-21)
(0.82847148 -0.0010602454 4.8104442e-21)
(0.84608319 8.3905753e-05 -2.823797e-22)
(0.86413423 0.00067716591 2.4275272e-22)
(0.88312822 9.7073218e-06 2.0177204e-20)
(0.90212886 -0.0010788728 -9.4717765e-21)
(0.92051211 -0.0020139151 0)
(0.93760847 -0.002577642 -4.4203888e-21)
(0.95453278 -0.0024385702 0)
(0.97010873 -0.0018303399 0)
(0.98332962 -0.0013811421 -9.8495639e-21)
(0.99331572 -0.0017713369 1.1995811e-21)
(0.99854895 -0.0038231497 5.4774169e-21)
(1.0003283 -0.0071158974 7.4563954e-21)
(1.0030964 -0.01057639 -9.0513197e-21)
(1.0088895 -0.013270869 -3.2401569e-21)
(1.016494 -0.014742452 -1.054476e-21)
(1.0224809 -0.015680562 2.022426e-22)
(1.0260061 -0.016771532 -1.8130647e-21)
(1.0290048 -0.017270313 1.1998666e-21)
(1.0318221 -0.017027922 3.8081774e-22)
(1.0343082 -0.016124905 -6.1057459e-22)
(1.0363229 -0.014667084 -2.6996718e-23)
(1.0377866 -0.012796755 5.1282535e-22)
(1.0386392 -0.010672113 -2.3408905e-22)
(1.0388864 -0.0084512749 -1.2367787e-21)
(1.038563 -0.0062808718 -1.0795985e-22)
(1.0377506 -0.0042866993 -1.9375161e-21)
(1.0365548 -0.0025572415 -4.6243959e-22)
(1.035088 -0.0011584446 -1.7915595e-22)
(1.0334936 -0.00010844588 -9.2952905e-22)
(1.0318552 0.00058596898 1.2772589e-22)
(1.0303476 0.00093440105 -7.386607e-22)
(1.0289743 0.0010128572 -1.4502087e-22)
(1.0279916 0.00072599989 -3.0923907e-22)
(1.0272085 0.00037181978 0)
(0.76870811 -0.0035810145 -9.2301925e-22)