/*--------------------------------*- C++ -*----------------------------------*\
| =========                 |                                                 |
| \\      /  F ield         | OpenFOAM: The Open Source CFD Toolbox           |
|  \\    /   O peration     | Version:  5.0                                   |
|   \\  /    A nd           | Web:      www.OpenFOAM.org                      |
|    \\/     M anipulation  |                                                 |
\*---------------------------------------------------------------------------*/
FoamFile
{
    version     2.0;
    format      ascii;
    class       volSymmTensorField;
    location    "240";
    object      UPrime2Mean;
}
// * * * * * * * * * * * * * * * * * * * * * * * * * * * * * * * * * * * * * //

dimensions      [0 2 -2 0 0 0 0];

internalField   nonuniform List<symmTensor> 
9200
(
(0.00059101035 2.2367413e-05 -7.2888969e-26 1.9056926e-06 -5.455468e-27 4.5420477e-47)
(0.00060582711 7.3220337e-05 2.0775782e-23 2.1586747e-05 2.5865189e-24 8.6303398e-43)
(0.00047243581 1.9075871e-05 0 1.8403633e-06 0 0)
(0.00062864752 0.00011781179 -1.1367581e-23 5.5918554e-05 -2.2507773e-24 2.4894876e-43)
(0.00048337454 6.2647901e-05 1.6143305e-23 2.1219685e-05 2.3955269e-24 6.4334834e-43)
(0.00041733271 1.7589325e-05 0 1.752028e-06 0 0)
(0.00066607531 0.00016616048 -1.1330062e-24 0.00011264927 -2.957447e-25 2.2929908e-45)
(0.00050138409 9.9752548e-05 5.5307871e-26 5.4617745e-05 -1.2750342e-25 2.2621751e-45)
(0.00042767277 5.7153816e-05 0 2.0188222e-05 0 0)
(0.00035509108 1.5070885e-05 0 1.6333454e-06 0 0)
(0.00071496302 0.00021302538 2.5963874e-23 0.0001889093 9.0724953e-24 1.1486252e-42)
(0.00053101599 0.0001382441 1.6750752e-23 0.00010955299 6.4630627e-24 7.2263883e-43)
(0.0004431052 9.0511377e-05 8.5513404e-24 5.1715245e-05 2.4945081e-24 2.0600982e-43)
(0.00036365499 4.9061908e-05 4.5060671e-25 1.9055692e-05 9.307639e-26 7.2607907e-46)
(0.00030749254 1.3275331e-05 3.0749145e-27 1.5340641e-06 5.3297685e-28 3.9007836e-49)
(0.00077957956 0.00026223943 2.5244728e-23 0.00029508337 9.9666285e-24 9.7077837e-43)
(0.00057060776 0.00017326954 -4.0919984e-25 0.00018220882 4.2848923e-25 6.9693979e-45)
(0.00046862936 0.00012450396 2.9214715e-23 0.00010319814 1.2064908e-23 2.3367374e-42)
(0.00037778969 7.72718e-05 1.0170585e-23 4.8549075e-05 3.7412178e-24 4.0209707e-43)
(0.00031603045 4.2898769e-05 2.0954633e-25 1.7880146e-05 1.4614832e-25 2.8912343e-45)
(0.00026625921 1.1457359e-05 -1.4719047e-23 1.4293216e-06 -1.1372855e-24 1.2411735e-42)
(0.00086010875 0.00031067349 3.3190212e-23 0.0004352752 1.8664546e-23 1.7765966e-42)
(0.00062427636 0.0002072035 2.4537669e-23 0.00028186538 1.089844e-23 1.1254842e-42)
(0.00050282918 0.00015432496 -1.7893621e-23 0.00017032794 -8.9552336e-24 8.1181012e-43)
(0.00040182774 0.00010532697 -1.0910519e-24 9.6446913e-05 -6.2670616e-25 5.3192146e-45)
(0.00032946453 6.7210196e-05 8.0825796e-24 4.5245491e-05 2.9391001e-24 2.8262933e-43)
(0.00027421392 3.6927055e-05 7.0655283e-24 1.6763937e-05 1.9337135e-24 2.9206889e-43)
(0.00023251809 9.9262825e-06 1.0192259e-24 1.3359238e-06 1.0595823e-25 9.3897553e-45)
(0.00096072014 0.00035695462 2.5416026e-23 0.0006216309 2.3423827e-23 1.6511963e-42)
(0.00069529503 0.0002369765 2.1953986e-23 0.00041140812 1.4346509e-23 9.4263351e-43)
(0.00054954914 0.00018173568 2.1965918e-23 0.00026101255 1.4693e-23 1.2626597e-42)
(0.00043485846 0.00012905478 7.5035526e-25 0.00015814295 1.7104763e-24 3.4480862e-44)
(0.00035223306 9.1003286e-05 -2.0496049e-23 8.9450662e-05 -1.1199513e-23 1.8764154e-42)
(0.00028709419 5.773969e-05 -7.7802491e-24 4.2250445e-05 -3.5443396e-24 3.6839684e-43)
(0.00024038021 3.1863604e-05 -7.6020412e-24 1.5711145e-05 -2.0473894e-24 4.1854754e-43)
(0.00020401481 8.5279785e-06 1.065304e-23 1.2528216e-06 1.0229916e-24 1.120279e-42)
(0.001085712 0.00039785046 -4.8021906e-23 0.00086605457 -3.5991662e-23 3.1318081e-42)
(0.00079077754 0.00026149316 2.3270164e-23 0.00058176881 8.0515979e-24 7.8718246e-43)
(0.00061193519 0.00020360934 7.3289652e-25 0.00037647005 3.5789208e-24 5.6144043e-44)
(0.00048125682 0.00014998561 8.9712115e-24 0.00024075329 5.829211e-24 2.3390976e-43)
(0.00038365818 0.00011061598 6.6110117e-25 0.00014570034 3.2275047e-24 1.4583483e-43)
(0.0003092122 7.793856e-05 -2.6984813e-23 8.3332415e-05 -1.5723039e-23 3.9868122e-42)
(0.00025296934 4.9820716e-05 3.7553654e-24 3.9416597e-05 2.8848552e-25 2.3989973e-43)
(0.00021160677 2.7273283e-05 -1.1339672e-23 1.4821249e-05 -3.5186831e-24 1.2455757e-42)
(0.00018092922 7.3075105e-06 -1.9621795e-23 1.1787224e-06 -2.1620158e-24 5.2140893e-42)
(0.0012385772 0.00042582145 4.0703434e-23 0.0011814875 4.3892885e-23 2.7283255e-42)
(0.00091951508 0.0002772286 -1.2618174e-23 0.00080310356 1.3711106e-23 8.241863e-43)
(0.00069642662 0.00021890281 -7.8821059e-25 0.00052488427 -2.1509072e-24 1.1130666e-44)
(0.0005446017 0.00016571491 2.1093903e-25 0.00034505283 -1.0441557e-23 5.6359588e-43)
(0.00042807257 0.00012739954 -2.8170828e-24 0.00022037028 -2.941047e-24 4.5969807e-44)
(0.0003401242 9.4527015e-05 4.4753542e-28 0.00013509344 4.4419322e-24 3.3999692e-43)
(0.00027448035 6.7192307e-05 8.2377621e-24 7.7578489e-05 5.3935086e-24 4.8248588e-43)
(0.00022382419 4.2715286e-05 1.2252501e-23 3.7069359e-05 6.3401872e-24 1.4325615e-42)
(0.00018832573 2.326056e-05 5.7218957e-24 1.4030301e-05 2.3088082e-24 4.5341989e-43)
(0.00016164186 6.183746e-06 1.2269189e-24 1.1150142e-06 1.7537512e-25 3.1195085e-44)
(0.001422602 0.00043386975 -2.063734e-23 0.0015833074 -2.0443451e-23 5.2224097e-43)
(0.0010919512 0.00027790608 -4.1203884e-24 0.0010892772 2.8362417e-23 1.0517972e-42)
(0.00081178364 0.0002249274 2.0080775e-23 0.0007135623 7.4150226e-24 5.7265197e-43)
(0.0006320628 0.00017573743 -1.4361626e-23 0.00047859164 -1.5517502e-23 6.6613766e-43)
(0.00048912134 0.00013937704 1.6500421e-23 0.00031359628 1.8495379e-24 9.4280989e-43)
(0.00038406728 0.00010874072 -2.927713e-23 0.00020343699 -1.8778134e-23 3.4981819e-42)
(0.0003044945 8.1552822e-05 -2.3365791e-25 0.00012529003 1.1881542e-24 3.1033525e-44)
(0.00024466873 5.7658305e-05 2.0358899e-23 7.2945614e-05 1.2786695e-23 3.5702402e-42)
(0.00020015336 3.6558774e-05 -8.5628437e-24 3.4995503e-05 -4.6881729e-24 9.2826734e-43)
(0.00016879598 1.9538706e-05 1.4978227e-23 1.3387e-05 6.7220679e-24 4.3125938e-42)
(0.00014635582 5.1826003e-06 -2.0135065e-24 1.056802e-06 -2.9702726e-25 1.1820396e-43)
(0.0016477773 0.00044993728 7.2946021e-24 0.0021078136 -3.6141469e-24 9.4324242e-44)
(0.0013152218 0.00025526592 2.2414569e-23 0.001458961 -6.0557572e-23 4.0271727e-42)
(0.00096951421 0.00021838391 -1.6089121e-23 0.00095564467 -2.8050281e-23 9.8865983e-43)
(0.00075325741 0.00017819645 0 0.00064829696 0 0)
(0.00057362264 0.00014636521 1.6283491e-26 0.00043216077 9.9914848e-25 3.104148e-45)
(0.00044459857 0.00011921715 2.6040899e-24 0.0002882296 -8.4860406e-24 5.2385403e-43)
(0.0003469734 9.4039536e-05 -5.4205054e-24 0.00018813205 -3.719167e-24 1.4860003e-43)
(0.00027375492 7.0274842e-05 -1.0799135e-23 0.00011756971 -7.7773968e-24 8.9307858e-43)
(0.00022022387 4.9451396e-05 5.3058105e-25 6.8883801e-05 -2.0197471e-24 2.2213151e-43)
(0.00018016484 3.084508e-05 -9.1495212e-24 3.3327845e-05 -6.0532278e-24 1.5224137e-42)
(0.00015328129 1.6184975e-05 -5.0975409e-24 1.2809148e-05 -2.67756e-24 7.4581198e-43)
(0.00013401979 4.2461905e-06 8.7668974e-25 1.0047343e-06 1.7871295e-25 3.8165099e-44)
(0.0018778612 0.00047745156 4.3868214e-24 0.002769624 1.5422011e-24 1.419418e-44)
(0.0015991633 0.00021477105 -3.7175712e-23 0.0019445334 2.3413912e-23 1.6209389e-42)
(0.00117812 0.00019080994 0 0.001266316 0 0)
(0.00092159229 0.00017123737 0 0.00086625056 0 0)
(0.00069037428 0.00014716384 -1.0565943e-23 0.0005823545 -4.1079737e-25 2.2356606e-43)
(0.00052821688 0.00012621182 1.5249969e-23 0.00039578722 -1.1153694e-23 1.6204532e-42)
(0.00040516846 0.0001036764 -1.5832823e-23 0.00026576343 -2.947126e-24 1.1421807e-42)
(0.00031488881 8.1598732e-05 1.2698837e-23 0.00017624626 1.1356905e-23 1.1228487e-42)
(0.00024806641 6.0623819e-05 7.9480315e-25 0.000110888 1.021709e-24 1.0173712e-44)
(0.00019938495 4.1777746e-05 -6.9776745e-27 6.5690654e-05 2.0076188e-26 2.6471015e-47)
(0.0001641666 2.5696262e-05 9.3548458e-24 3.184384e-05 6.9977123e-24 2.3544661e-42)
(0.00014072655 1.2991725e-05 -8.1383809e-24 1.2318377e-05 -5.0025672e-24 3.1378914e-42)
(0.00012466298 3.405142e-06 1.1536374e-23 9.5479539e-07 2.8821485e-24 1.162889e-41)
(0.0019397136 0.00037632168 -7.2361598e-23 0.0034704902 -1.2497005e-23 4.1283535e-42)
(0.001947617 0.00018800248 9.3460752e-24 0.0025924623 -2.6274081e-24 6.3229787e-44)
(0.0014398029 0.00013741097 -5.1967211e-23 0.0016687205 8.6925993e-24 2.4519061e-42)
(0.001148748 0.00014883309 3.4762571e-23 0.0011482981 -7.6669604e-24 1.4727986e-42)
(0.00085224616 0.00014121255 -2.0351467e-23 0.00077589772 4.1387629e-24 7.2054736e-43)
(0.00064314578 0.00012901652 6.8674497e-24 0.0005321279 -5.7056619e-24 2.3462631e-43)
(0.00048522492 0.00011080003 4.4784414e-24 0.00036412028 4.4993113e-24 8.4606295e-44)
(0.00037095115 9.1050575e-05 -2.9572484e-25 0.00024852938 3.4260673e-25 1.8484396e-45)
(0.00028715921 7.0923088e-05 9.3042534e-24 0.00016613927 1.3330194e-23 1.1835306e-42)
(0.00022589298 5.1531502e-05 6.7252142e-24 0.0001057476 1.0110101e-23 1.0326413e-42)
(0.00018248009 3.4816798e-05 2.5812032e-24 6.287387e-05 2.6899405e-24 1.6306648e-43)
(0.00015113239 2.0753714e-05 5.3915811e-24 3.0597927e-05 5.6116052e-24 1.3149451e-42)
(0.00013119075 1.0069649e-05 2.6883263e-24 1.1846793e-05 2.4647062e-24 6.3590381e-43)
(0.00011765056 2.622469e-06 -2.1568226e-24 9.0693623e-07 -7.9370654e-25 9.2516658e-43)
(0.0017676668 5.1309977e-05 6.58541e-23 0.0041132336 -2.0365998e-22 1.6361694e-41)
(0.0022586453 0.00014296237 3.9573452e-22 0.0034172051 -9.8773929e-23 9.2728144e-41)
(0.0017661404 7.9776717e-05 8.4086453e-24 0.0021960268 -2.8997592e-23 4.8438214e-43)
(0.0014363728 0.00010104599 -6.6702408e-24 0.001515912 4.1759195e-24 5.355389e-44)
(0.0010739546 0.00012546111 3.2195047e-24 0.0010287249 -2.7026652e-24 2.2439939e-44)
(0.00080163366 0.00012753289 -1.3961364e-23 0.0007084484 9.9497151e-24 5.7173619e-43)
(0.00059455393 0.00011508591 5.0791935e-24 0.00048882944 5.3084956e-24 9.0369011e-44)
(0.00044736672 9.9042304e-05 -5.0591235e-24 0.00034003784 -5.8084957e-24 1.3929636e-43)
(0.00034002351 8.0028859e-05 1.8256949e-24 0.00023408977 -1.746944e-24 6.62264e-44)
(0.00026296582 6.0802297e-05 -5.436043e-25 0.00015847362 -1.4677638e-24 1.4427464e-44)
(0.00020753191 4.3197344e-05 -1.6891995e-25 0.00010127607 -2.0248851e-25 5.9634777e-46)
(0.00016857084 2.8019348e-05 1.1169033e-25 6.0555423e-05 -9.4315759e-25 4.2382395e-44)
(0.00014115451 1.6207977e-05 -5.7672395e-24 2.9411591e-05 -7.5204328e-24 2.6626936e-42)
(0.0001240558 7.2842071e-06 1.9503722e-24 1.140239e-05 2.4726628e-24 7.4294575e-43)
(0.00011284949 1.9265057e-06 -9.3982925e-25 8.5891981e-07 -6.0603004e-25 5.9004994e-43)
(0.0015406994 -0.00041482178 8.4724957e-23 0.0046544674 7.4921448e-23 1.4899916e-41)
(0.0022969631 -4.6576488e-05 -2.6314931e-22 0.004297982 -2.64828e-23 3.9473418e-41)
(0.0021409004 5.6093073e-05 1.312208e-22 0.0029113329 -2.7706681e-23 1.0016966e-41)
(0.0017808732 3.4831265e-05 -9.2837023e-23 0.0019993194 4.4642355e-24 5.779352e-42)
(0.0013600739 8.8908873e-05 5.3839024e-23 0.0013620495 -3.4275913e-24 2.5699976e-42)
(0.0010190412 0.00012029538 -4.5287825e-23 0.00094071805 -1.8246442e-23 2.5805947e-42)
(0.000744283 0.0001165374 4.2106472e-23 0.00065049955 -3.3425073e-24 3.2870773e-42)
(0.00055090731 0.0001054256 -1.6250698e-24 0.00045598089 1.0390027e-24 1.300379e-44)
(0.00041177946 8.8415957e-05 -4.1136368e-24 0.00031997484 -3.4809975e-24 8.3701305e-44)
(0.00031275193 6.9541135e-05 4.7660708e-24 0.00022323371 -3.9859896e-24 4.7181624e-43)
(0.00024232114 5.1318568e-05 -2.087173e-23 0.00015190624 -2.6839269e-23 7.295272e-42)
(0.00019222653 3.4880302e-05 5.7630676e-24 9.7682459e-05 5.6271495e-24 9.8547345e-43)
(0.00015778436 2.1688633e-05 2.0552892e-24 5.8352634e-05 3.4009537e-24 2.9008469e-43)
(0.00013365907 1.1824503e-05 4.2006387e-25 2.8305386e-05 1.1144227e-24 4.7343421e-44)
(0.00011919458 4.7524225e-06 -6.4651891e-26 1.0942318e-05 1.0952538e-25 6.8833435e-45)
(0.00010983715 1.2980616e-06 1.9614096e-25 8.1062515e-07 6.6863702e-25 7.5819635e-43)
(0.0014406384 -0.00091525663 0 0.0050810331 0 0)
(0.0021804766 -0.00038610185 -3.7232048e-22 0.0051634805 5.5662589e-23 8.8567311e-41)
(0.0023151206 -2.6125413e-05 -4.4535087e-24 0.0037684492 9.1338814e-23 2.6008192e-42)
(0.0021731595 -1.481787e-06 0 0.0026609239 0 0)
(0.0016993962 2.3642926e-05 0 0.0018053303 0 0)
(0.0013049043 9.7907294e-05 0 0.0012510666 0 0)
(0.00094990557 0.00011498993 -5.7244917e-24 0.00086458306 3.9591876e-24 6.9227101e-44)
(0.00069164875 0.00011019002 1.566408e-23 0.00060624837 1.3619851e-23 6.445904e-43)
(0.00050851996 9.606761e-05 -1.8994276e-23 0.00042859709 1.0540324e-23 1.8770551e-42)
(0.00037972356 7.8144551e-05 9.8103668e-24 0.00030496547 1.0936755e-23 6.7158165e-43)
(0.00028865785 5.9286266e-05 -1.4829138e-24 0.00021407342 1.1671574e-24 5.2330977e-44)
(0.00022486701 4.1596213e-05 3.5275856e-24 0.00014674184 6.0617929e-24 3.4306186e-43)
(0.00018012173 2.6994612e-05 -4.422977e-25 9.4303062e-05 -1.9925994e-25 1.101958e-44)
(0.00014963333 1.546446e-05 -1.5436879e-24 5.631816e-05 -3.9873848e-24 3.8256349e-43)
(0.00012852449 7.8196778e-06 -7.8685978e-26 2.7164536e-05 -7.4317563e-25 2.1565047e-44)
(0.00011620752 2.4033016e-06 -7.409309e-26 1.0469506e-05 -1.2294525e-24 1.9325454e-43)
(0.00010840993 7.5587987e-07 0 7.6135384e-07 0 0)
(0.0016438343 -0.0013486311 5.8481617e-23 0.0054236375 -1.0390005e-22 2.4305234e-41)
(0.0020144816 -0.0008229612 4.6949588e-22 0.0059668919 5.1435249e-23 1.954787e-40)
(0.0022680563 -0.00025811991 -6.9933854e-22 0.004659073 5.812975e-23 2.8119129e-40)
(0.0024381626 -3.5377712e-05 -3.2340672e-22 0.0035234442 7.0126373e-23 5.2203173e-41)
(0.0020908043 -3.0294464e-05 -2.126291e-22 0.002414633 2.0656276e-23 2.4944683e-41)
(0.0016457642 4.0745788e-05 0 0.0016663306 0 0)
(0.0012260357 0.00010436773 -8.6732983e-23 0.0011536546 2.0827695e-23 7.7402307e-42)
(0.00088426433 0.00011339704 1.7067614e-23 0.00080520649 -9.2533809e-24 5.8682001e-43)
(0.00063926066 0.00010290776 4.8552599e-23 0.00056909707 7.9494427e-24 5.1033326e-42)
(0.00046939706 8.6679318e-05 -2.1366235e-23 0.00040798347 1.0543297e-23 2.6613777e-42)
(0.000350682 6.7542461e-05 -4.89918e-24 0.00029238237 -6.762847e-24 2.3889962e-43)
(0.00026802103 4.849294e-05 -1.5641144e-24 0.00020698604 1.2622398e-24 7.1639083e-44)
(0.00021070767 3.2150372e-05 7.1784699e-24 0.00014194108 1.181185e-23 1.8834767e-42)
(0.00017086392 1.9056141e-05 -5.5626588e-24 9.1234822e-05 -1.6814343e-23 4.1160627e-42)
(0.00014399898 9.7072507e-06 -1.5660095e-25 5.4201681e-05 -3.2507165e-24 2.0676049e-43)
(0.00012540158 4.0583234e-06 -6.0156685e-25 2.599757e-05 -1.3505579e-23 9.6934156e-42)
(0.00011487844 3.2520075e-07 9.7705756e-25 9.9656596e-06 -3.2962238e-24 1.4031532e-42)
(0.00010822929 2.9306766e-07 1.7223117e-24 7.1127265e-07 -8.0589771e-25 1.2941095e-42)
(0.0022977708 -0.0016114926 6.5209813e-25 0.0056836595 3.9492167e-25 1.5676452e-43)
(0.0019565007 -0.0013149545 2.2030147e-22 0.0066653941 -7.6262615e-23 6.0453518e-41)
(0.0021245655 -0.00059065091 7.3762344e-23 0.0055627817 8.0054513e-23 6.0945093e-42)
(0.0024636654 -0.00020172726 -3.7761033e-22 0.0044625145 -4.6258854e-24 7.2336576e-41)
(0.0024092508 -5.3044523e-05 3.9120446e-23 0.0032499457 -4.2275098e-24 7.4339086e-43)
(0.0020305956 -3.4877229e-05 -2.3633361e-23 0.0022336172 -6.9393896e-23 2.9471416e-42)
(0.0015648371 6.13729e-05 1.7140942e-22 0.0015434464 -9.4660337e-23 2.8279452e-41)
(0.0011470811 0.0001120868 1.5656338e-22 0.0010750697 -3.3706167e-23 2.6872718e-41)
(0.00081748872 0.00010908702 3.2927356e-23 0.00075470863 -8.2739427e-24 1.9326449e-42)
(0.00058999192 9.5149921e-05 -1.1241684e-23 0.00054065029 -1.849333e-23 8.1828616e-43)
(0.00043332076 7.6227609e-05 4.2980449e-24 0.00039072309 -1.9694022e-24 1.2741542e-43)
(0.00032530301 5.5937731e-05 -1.1319865e-23 0.00028276722 -1.6077625e-23 1.5897243e-42)
(0.00025077158 3.7604117e-05 5.70268e-24 0.00020050778 4.4696787e-24 6.7688821e-43)
(0.00019970851 2.2375831e-05 -2.474584e-25 0.00013766271 1.1413209e-24 1.8780929e-44)
(0.00016433718 1.1584929e-05 -1.9889171e-25 8.8032963e-05 1.5926721e-24 4.0630554e-44)
(0.00014061465 4.1959179e-06 1.3065858e-25 5.2029088e-05 3.0738264e-24 2.5425449e-43)
(0.00012404481 7.1952861e-07 8.275697e-25 2.4752396e-05 -4.5055608e-24 1.1381182e-42)
(0.00011487593 -1.5055049e-06 -3.1610656e-26 9.4339032e-06 1.0247956e-25 4.3266489e-45)
(0.00010908223 -8.2721533e-08 2.4081668e-24 6.6064897e-07 -7.2501103e-25 1.1781063e-42)
(0.0034362257 -0.0017209429 -2.6762037e-24 0.0059154784 1.4997291e-23 5.7684034e-42)
(0.0022621022 -0.0017127483 -1.7501655e-22 0.0072859609 4.9314598e-23 6.4344188e-41)
(0.0020153906 -0.0010020578 1.0476408e-21 0.0064150766 6.9581871e-23 1.1547409e-39)
(0.0023643562 -0.00047051164 1.9631926e-22 0.0054453135 -7.6333356e-23 2.257197e-41)
(0.002510854 -0.00016448642 -1.0806448e-22 0.004223815 -7.7962031e-23 7.6731766e-42)
(0.0023817123 -7.6923823e-05 -1.0997889e-23 0.003034946 -5.029191e-23 1.072439e-42)
(0.0019434129 -2.7229647e-05 -4.2231503e-23 0.0020721204 6.8523585e-24 1.0453522e-42)
(0.001482357 8.5979308e-05 -6.3000146e-23 0.0014426649 -3.5913843e-23 3.8478239e-42)
(0.0010625736 0.00011370611 2.1234941e-23 0.0010061968 -4.2682634e-24 5.4395601e-43)
(0.00075372908 0.00010354328 7.669903e-23 0.00071489126 2.8732424e-24 1.048881e-41)
(0.00054402547 8.5395366e-05 -2.5248022e-23 0.00051672448 -2.8483485e-23 2.9137243e-42)
(0.00040110911 6.4143029e-05 -5.6016497e-25 0.00037756056 5.5514572e-24 1.0717345e-43)
(0.00030361033 4.369132e-05 2.8541685e-24 0.00027412423 8.3142483e-24 2.9532535e-43)
(0.00023711931 2.6002705e-05 -8.9241631e-26 0.00019486104 -6.1430092e-25 2.0628792e-45)
(0.00019174622 1.2975834e-05 -5.2764833e-25 0.0001331897 9.5747921e-25 3.2286262e-44)
(0.00016038878 4.2749655e-06 8.5809093e-25 8.4749813e-05 1.3418602e-23 3.1191324e-42)
(0.00013917645 -7.4117753e-07 9.4389731e-27 4.967859e-05 -2.3643728e-24 2.7667603e-43)
(0.00012416057 -2.2536716e-06 -3.1349185e-24 2.3438315e-05 7.417719e-24 3.1377425e-42)
(0.0001159762 -3.0428171e-06 -1.1422569e-24 8.8727602e-06 1.1812214e-24 2.0443959e-43)
(0.00011069215 -3.7469264e-07 -3.3138921e-24 6.0974814e-07 7.2316354e-25 1.2989787e-42)
(0.0048046301 -0.0017416348 1.0508187e-24 0.0060997439 5.7417692e-23 1.0440646e-42)
(0.0031082113 -0.0019578917 -2.709967e-22 0.0078849182 1.8795843e-22 1.3558867e-40)
(0.0021882709 -0.0014031532 -1.3421996e-22 0.0071983734 3.5777733e-22 3.0153248e-41)
(0.0022224418 -0.00083478109 -3.0341193e-22 0.0064303197 -1.1380489e-23 7.1940944e-41)
(0.0024671472 -0.00038488732 6.6879557e-23 0.0052702126 -1.5909102e-22 7.5757604e-42)
(0.0025477683 -0.00016527376 2.1664923e-22 0.0040308872 1.695693e-23 2.230751e-41)
(0.002322308 -0.00010523939 -4.5977829e-22 0.0028261582 4.512806e-23 1.0369112e-40)
(0.0018627164 -1.7507283e-06 -5.5837678e-22 0.0019363604 8.2936414e-23 1.8953245e-40)
(0.0013874086 0.00010303562 2.8430614e-23 0.001352111 6.5052671e-23 4.1433184e-42)
(0.00097934913 0.00011182178 0 0.00094961038 0 0)
(0.00069372008 9.497191e-05 2.2109774e-23 0.00068113637 2.4304183e-23 1.6368663e-42)
(0.00050222724 7.3242625e-05 -1.7032196e-23 0.00049828971 5.8850616e-24 1.4619232e-42)
(0.00037309824 5.071479e-05 -1.589306e-23 0.00036591827 -1.7179692e-23 2.3514974e-42)
(0.00028602965 3.0242518e-05 9.3157655e-24 0.00026675961 7.7570249e-24 1.6710438e-42)
(0.00022690388 1.4541872e-05 -1.2025791e-24 0.00018898571 -7.8092606e-24 3.9133017e-43)
(0.00018681498 3.5583364e-06 1.0495439e-24 0.00012861352 1.3612061e-23 2.0721373e-42)
(0.00015865738 -2.3659577e-06 -6.365651e-25 8.1153622e-05 1.3321384e-24 5.802017e-44)
(0.00013948181 -5.2210289e-06 9.6269238e-25 4.7172574e-05 -3.5542898e-24 4.3634529e-43)
(0.00012549129 -4.7556104e-06 -2.7207223e-24 2.2048236e-05 4.3374762e-24 1.2412403e-42)
(0.00011789071 -4.2911173e-06 -3.3449223e-25 8.2884799e-06 2.3605098e-25 7.6002293e-45)
(0.00011285329 -5.825018e-07 -3.7561185e-24 5.592644e-07 6.4305136e-25 1.1728138e-42)
(0.0062517594 -0.0017382773 1.7329576e-22 0.0062310162 1.5052279e-22 2.5503492e-41)
(0.0043449286 -0.002136229 -3.244872e-22 0.0084766762 1.6149126e-22 8.2634937e-41)
(0.0028931499 -0.0017241983 -3.0139833e-22 0.0079524581 -4.737509e-23 1.7747769e-40)
(0.0022612882 -0.0012090968 4.1404094e-22 0.0073795239 2.1762584e-22 2.3302705e-40)
(0.0023559696 -0.00070616882 4.2748485e-22 0.0063650461 -1.7997108e-23 1.2323143e-40)
(0.0025637961 -0.00035685645 -3.2444992e-23 0.0051322213 -1.1059388e-22 3.5973819e-42)
(0.0025520222 -0.00019226179 0 0.0038206561 0 0)
(0.002266014 -0.00011928937 -1.1085444e-23 0.0026349671 -1.4781246e-22 1.0135027e-41)
(0.0017709528 3.2433567e-05 1.274486e-22 0.0018164958 -5.9025323e-23 1.2777691e-41)
(0.0012873437 0.00011295477 1.6124076e-22 0.0012735461 4.0530024e-23 2.3179617e-41)
(0.00089951831 0.00010501654 -2.7549698e-24 0.0009009129 2.0756661e-23 6.2464696e-43)
(0.00063850166 8.319013e-05 -1.4423549e-23 0.0006545719 1.5453846e-24 5.831555e-43)
(0.00046531069 5.8878616e-05 2.6189747e-24 0.00048220803 -9.5279063e-25 4.4258286e-44)
(0.00034978973 3.5418004e-05 3.1949148e-24 0.00035619979 8.6536074e-24 2.8630984e-43)
(0.00027244338 1.6511923e-05 -4.3336982e-24 0.00025919776 -8.5980261e-24 7.5418105e-43)
(0.00022031548 2.7704928e-06 1.6924149e-24 0.00018302098 7.52474e-24 6.5193782e-43)
(0.00018449192 -5.1508887e-06 1.2904178e-25 0.00012353682 -1.7920967e-24 3.5349639e-44)
(0.00015905363 -8.5200153e-06 -2.1673473e-24 7.7284216e-05 8.789872e-24 1.402809e-42)
(0.00014117168 -9.017067e-06 -8.9690278e-25 4.4488648e-05 1.4164261e-24 5.3988758e-44)
(0.00012774562 -6.8015463e-06 -1.8171363e-25 2.0598158e-05 1.7072596e-25 1.8400877e-45)
(0.00012040426 -5.2374775e-06 -2.2652341e-24 7.6882641e-06 1.415968e-24 3.7830136e-43)
(0.00011535319 -7.1036308e-07 0 5.0986509e-07 0 0)
(0.0076920698 -0.0017248261 1.2140176e-22 0.0063857587 1.5691464e-22 1.257706e-41)
(0.0055951102 -0.0023670349 2.5355544e-22 0.0090309377 -7.3960768e-23 3.1059132e-41)
(0.0041103759 -0.0019527517 1.5711119e-23 0.0087355665 -7.4686429e-23 7.9506098e-43)
(0.0027804221 -0.0015154058 3.992618e-22 0.0083160495 -5.4032861e-23 2.2077637e-40)
(0.0023599295 -0.0010762468 2.9650926e-22 0.0074638509 -2.0410297e-22 7.6296735e-41)
(0.002501309 -0.00065212444 -2.1762714e-22 0.0063161637 -3.5784118e-23 2.9653293e-41)
(0.0026257335 -0.00036720384 9.9331004e-24 0.0049672367 3.1840074e-22 2.4583691e-41)
(0.0025550895 -0.00023344381 -5.4453424e-22 0.0036028926 -4.7234756e-23 1.3854858e-40)
(0.002185495 -0.00011335663 -9.779562e-23 0.0024562895 -4.2769384e-23 5.9085291e-42)
(0.0016722456 6.9031684e-05 -2.3672926e-23 0.0017141093 4.4364982e-24 3.9596465e-43)
(0.001185291 0.00011308349 3.4164765e-24 0.0012028288 -1.2691394e-24 1.4749227e-44)
(0.00082519504 9.3943731e-05 4.9282447e-23 0.00086162372 -1.0588741e-23 4.7482316e-42)
(0.00058914777 6.8211923e-05 -2.3197983e-24 0.00063162494 -3.1992677e-24 2.911892e-44)
(0.00043388312 4.1830264e-05 -1.061791e-23 0.00046895398 2.1588856e-23 2.4203292e-42)
(0.00033128056 1.9263677e-05 4.6153736e-24 0.00034643671 2.1894886e-23 1.7226184e-42)
(0.00026322562 2.0668061e-06 2.5878579e-24 0.00025162715 1.7308591e-23 1.7505252e-42)
(0.00021687865 -8.3546254e-06 6.0413024e-25 0.00017633519 -1.8901955e-24 2.9623841e-44)
(0.00018481953 -1.3398161e-05 3.6790187e-24 0.00011802431 -1.8951459e-23 4.3185413e-42)
(0.00016107581 -1.3790065e-05 1.358065e-25 7.3085819e-05 -5.497087e-25 1.1935629e-44)
(0.00014400031 -1.2175881e-05 -2.3978645e-24 4.1659132e-05 3.6905159e-24 4.643981e-43)
(0.00013068733 -8.352263e-06 0 1.910535e-05 0 0)
(0.00012328639 -5.8897798e-06 5.7483659e-24 7.0812819e-06 -2.9764883e-24 1.881456e-42)
(0.00011801749 -7.6280859e-07 1.1525964e-25 4.6232368e-07 -1.1035178e-26 3.7872815e-46)
(0.0089397113 -0.00169898 -6.6124454e-22 0.0065585143 -2.3667829e-22 1.484374e-40)
(0.0068510783 -0.0026761322 8.99315e-22 0.0095936733 2.0662878e-22 3.3969778e-40)
(0.0053231388 -0.0022092595 -5.7201934e-22 0.0095362909 -1.7089498e-22 1.8778125e-40)
(0.0038958202 -0.0017376019 -1.3413808e-22 0.0093023792 -2.5520275e-22 3.6670341e-41)
(0.0027784052 -0.0014001219 3.8151734e-22 0.0085770938 2.1168208e-22 2.1156043e-40)
(0.002500091 -0.001021858 0 0.0075453835 0 0)
(0.0026328477 -0.00064100945 -5.4534261e-24 0.0062241444 9.882143e-23 1.8526399e-42)
(0.0026917605 -0.00040683106 -1.877855e-22 0.0047807187 -1.8671774e-22 2.756181e-41)
(0.0025452328 -0.00027404021 -3.7794775e-22 0.0033713843 1.3610686e-23 6.559147e-41)
(0.002101261 -7.6829183e-05 -3.7908208e-22 0.0023007217 1.0987676e-22 8.2544101e-41)
(0.0015624112 9.4366428e-05 8.6794651e-23 0.0016203189 4.7149649e-23 6.4716533e-42)
(0.0010861339 0.00010524259 5.7943128e-23 0.0011433616 9.2305244e-24 3.825256e-42)
(0.00075819963 7.8660346e-05 -3.9414928e-23 0.00082786619 -1.2894206e-23 3.2222112e-42)
(0.00054629795 4.9643516e-05 1.6561829e-23 0.00061278577 2.3375977e-23 1.8043193e-42)
(0.00040830402 2.3161135e-05 -1.5836967e-23 0.00045604214 -2.9782265e-23 4.0135233e-42)
(0.00031803848 1.8523337e-06 -5.8748892e-24 0.00033688058 -4.2152259e-23 6.9448056e-42)
(0.00025789988 -1.1927486e-05 3.8089867e-24 0.0002431086 3.4201205e-24 9.8210344e-43)
(0.0002167772 -1.912381e-05 1.2872726e-24 0.00016902563 -8.8952338e-24 6.7363905e-43)
(0.00018714707 -2.0569252e-05 -6.3334797e-24 0.00011195702 2.1097263e-23 6.2957738e-42)
(0.00016459802 -1.8275126e-05 1.8073591e-24 6.8606034e-05 -4.2220318e-24 6.3436645e-43)
(0.00014765571 -1.458988e-05 6.0889725e-24 3.8717313e-05 -7.5217213e-24 2.2152986e-42)
(0.00013405948 -9.4206014e-06 -5.791875e-24 1.7592957e-05 4.4957039e-24 1.8750348e-42)
(0.00012635068 -6.2567683e-06 3.9422977e-24 6.4774755e-06 -1.7761501e-24 8.2930607e-43)
(0.00012069346 -7.4504254e-07 1.0286191e-25 4.1718824e-07 -8.1058923e-27 2.4588588e-46)
(0.010010743 -0.0016839478 -2.1736552e-22 0.0067370025 -3.0166623e-22 3.4228948e-41)
(0.008145463 -0.002920498 9.8674821e-22 0.010165739 7.6789196e-23 3.1158197e-40)
(0.0064493386 -0.0025007872 1.7587082e-22 0.010346323 -4.2628437e-22 2.7077136e-41)
(0.005125647 -0.0019658508 1.2957759e-21 0.010356655 2.6709188e-22 9.3371894e-40)
(0.0038161431 -0.0016470058 -2.0698592e-22 0.0097737148 -3.1735733e-22 7.1865371e-41)
(0.00284499 -0.0013630341 4.8522607e-22 0.008813888 2.6796861e-22 2.8327035e-40)
(0.0026671608 -0.0010065073 -1.4999777e-23 0.00757103 1.201907e-22 2.2280946e-42)
(0.002773827 -0.00066991155 7.3474645e-22 0.0061018294 1.3998139e-22 2.9361459e-40)
(0.0027626166 -0.00046026412 -8.0354538e-23 0.0045574608 -1.7146213e-22 1.1664234e-41)
(0.0025323065 -0.00028904403 -1.8942196e-22 0.0031422508 -2.0763412e-23 1.6941201e-41)
(0.0020049529 -2.3123902e-05 4.7029524e-23 0.0021694474 8.7164537e-23 5.3342437e-42)
(0.0014448362 0.0001047871 -1.6969016e-22 0.0015359464 4.1318289e-24 2.3677817e-41)
(0.00099415213 9.0287721e-05 2.5433859e-23 0.0010920462 2.4756572e-23 1.3224035e-42)
(0.00069923711 5.8772613e-05 3.6494323e-24 0.00079999685 -7.8901818e-25 3.9934202e-44)
(0.00051063126 2.8452105e-05 -3.8456604e-24 0.00059502487 -3.077292e-23 1.8532042e-42)
(0.00038907036 2.5345022e-06 -2.1651596e-24 0.00044375139 -3.5001706e-24 9.2249446e-44)
(0.00030967281 -1.5474082e-05 1.0345786e-24 0.0003262056 8.9596839e-25 4.0629278e-44)
(0.00025678358 -2.5763775e-05 1.562807e-24 0.00023377247 -1.6894193e-23 1.7834759e-42)
(0.00021923026 -2.8674589e-05 0 0.00016085992 0 0)
(0.00019148672 -2.6813054e-05 1.1056269e-24 0.0001053994 -2.1635731e-24 5.4419139e-44)
(0.00016912579 -2.1739524e-05 3.4792308e-25 6.3901117e-05 -4.7574261e-25 4.513553e-45)
(0.00015186261 -1.6284311e-05 -6.837104e-25 3.570931e-05 6.5850229e-25 1.6226219e-44)
(0.00013765425 -1.0012985e-05 -7.7087267e-26 1.6086608e-05 -1.0806002e-26 5.2164898e-45)
(0.00012942907 -6.3568903e-06 -6.4098971e-24 5.8865464e-06 2.454094e-24 1.7042459e-42)
(0.00012325805 -6.6277932e-07 -3.0740632e-24 3.7550438e-07 2.6979495e-25 4.2096601e-43)
(0.010965426 -0.0016904269 6.3493525e-22 0.006912489 2.7590999e-22 1.2214852e-40)
(0.0093617123 -0.0031363635 -6.4243575e-22 0.010740876 1.3391809e-23 1.1499643e-40)
(0.0075684426 -0.002799863 -3.0425172e-22 0.011209715 3.0849892e-23 3.0790838e-41)
(0.0062211911 -0.0022701276 -1.8698366e-22 0.011436145 -3.6390865e-23 1.5370429e-41)
(0.0051077968 -0.0018970009 -1.0387465e-21 0.011086814 -3.1373466e-22 6.5184254e-40)
(0.0038068301 -0.0016275206 -1.1799145e-22 0.010195398 2.6364446e-22 1.35553e-41)
(0.0029822147 -0.0013637018 -2.6593902e-23 0.0089892529 1.5583989e-22 3.1382396e-42)
(0.0028668313 -0.0010329732 -4.2147103e-23 0.0075551608 -1.9990515e-23 1.2786958e-42)
(0.002916815 -0.00072641287 -5.6321549e-22 0.0059313123 -1.0026902e-22 1.6313174e-40)
(0.0028432404 -0.00051188542 -3.6272394e-23 0.004302737 1.8385536e-22 9.3859133e-42)
(0.002493743 -0.00026428364 -2.0356816e-22 0.0029296616 -5.9440165e-23 2.1341599e-41)
(0.0018930054 3.1386707e-05 3.3990453e-23 0.002061867 -4.5602825e-24 7.2169972e-43)
(0.0013263533 9.9180064e-05 7.3350585e-23 0.0014585692 -2.2766046e-24 5.14511e-42)
(0.00091184633 6.9142018e-05 -3.6979935e-24 0.0010493785 -1.3020353e-23 2.0342854e-43)
(0.0006492055 3.5187894e-05 1.1795134e-23 0.00077451387 -3.1402576e-24 5.358e-43)
(0.00048265558 4.4240589e-06 9.0271308e-25 0.00057862222 4.3652926e-23 3.8268022e-42)
(0.00037597329 -1.8573047e-05 -1.173535e-23 0.00043030148 4.9530896e-23 7.5220518e-42)
(0.00030659949 -3.2971616e-05 -1.0289346e-24 0.00031456486 2.8723522e-23 3.8933903e-42)
(0.00025901093 -3.8322617e-05 -7.4242849e-24 0.00022320531 3.4551017e-23 7.7377665e-42)
(0.00022437158 -3.7183386e-05 -2.5392797e-25 0.00015192549 3.996755e-25 1.579284e-45)
(0.00019710034 -3.1711235e-05 1.3570378e-23 9.8431293e-05 -2.2366185e-23 7.0793608e-42)
(0.00017444658 -2.4241283e-05 2.3457178e-24 5.9037976e-05 -3.135055e-24 3.5464275e-43)