/*--------------------------------*- C++ -*----------------------------------*\
| =========                 |                                                 |
| \\      /  F ield         | OpenFOAM: The Open Source CFD Toolbox           |
|  \\    /   O peration     | Version:  5.0                                   |
|   \\  /    A nd           | Web:      www.OpenFOAM.org                      |
|    \\/     M anipulation  |                                                 |
\*---------------------------------------------------------------------------*/
FoamFile
{
    version     2.0;
    format      ascii;
    class       volScalarField;
    location    "240";
    object      ddt0(nuTilda);
}
// * * * * * * * * * * * * * * * * * * * * * * * * * * * * * * * * * * * * * //

dimensions      [0 2 -2 0 0 0 0];

internalField   nonuniform List<scalar> 
9520
(
-1.667173e-36
-2.4687121e-34
-1.0921176e-35
-1.637469e-32
-1.2420753e-33
-1.1176001e-35
-6.6170733e-31
-6.6974003e-32
-1.1809062e-33
1.0945273e-36
-1.88849e-29
-2.2641009e-30
-5.8205556e-32
3.2853266e-34
2.060353e-35
-4.1557293e-28
-5.4347292e-29
-1.7612134e-30
2.9668398e-32
2.5838668e-33
3.6707263e-35
-7.3899652e-27
-1.0039644e-27
-3.6440507e-29
1.4486978e-30
1.5260686e-31
4.2155029e-33
3.7535752e-35
-1.0720075e-25
-1.4954857e-26
-5.4534656e-28
4.6996859e-29
5.649051e-30
2.2885796e-31
3.8237368e-33
1.591671e-35
-1.2609822e-24
-1.8249446e-25
-5.8912825e-27
1.1249633e-27
1.4854501e-28
7.8120489e-30
1.8161868e-31
7.9712713e-34
-2.5881363e-35
-1.1592839e-23
-1.8156025e-24
-3.9809481e-26
2.1148099e-26
2.9954496e-27
1.8920567e-28
5.3150116e-30
-1.021393e-32
-4.1796361e-33
-7.3723397e-35
-7.0680106e-23
-1.3936425e-23
-3.0067174e-26
3.2394919e-25
4.8677951e-26
3.4932906e-27
1.0613668e-28
-2.141528e-30
-2.8720312e-31
-9.10594e-33
-1.0423926e-34
2.5373912e-22
-6.1713473e-23
3.417329e-24
4.0703751e-24
6.5893839e-25
5.1500368e-26
1.4888846e-27
-9.6666624e-29
-1.1793575e-29
-5.2243469e-31
-1.1265009e-32
-9.3620008e-35
5.0353564e-20
6.4091802e-22
5.0946793e-23
4.1958356e-23
7.5502969e-24
6.2771558e-25
1.3684059e-26
-2.6924835e-27
-3.3408107e-28
-1.8699436e-29
-5.6967379e-31
-8.3742905e-33
-2.9966298e-35
4.0874456e-18
5.8785934e-20
3.1457323e-22
3.4314331e-22
7.3957142e-23
6.5077797e-24
4.624828e-26
-5.5302542e-26
-7.1050883e-27
-4.7220306e-28
-1.7936681e-29
-3.3051111e-31
1.0413421e-34
7.6306765e-35
2.4814384e-16
3.6387814e-18
-8.2499563e-21
1.7623241e-21
6.2258453e-22
5.9232579e-23
-9.0627414e-25
-9.0023315e-25
-1.2014932e-25
-9.0219208e-27
-3.9433794e-28
-7.0641877e-30
1.8246578e-31
1.2127879e-32
1.9073057e-34
1.1062182e-14
1.6451676e-16
-1.5761903e-18
-3.5736533e-20
4.4187908e-21
4.9957423e-22
-2.046509e-23
-1.1972099e-23
-1.6812826e-24
-1.3666507e-25
-6.387639e-27
-6.5152037e-29
1.2066745e-29
8.1844003e-31
2.3326974e-32
2.6515732e-34
3.6294585e-13
5.1593015e-15
-1.5425712e-16
-4.0127923e-18
5.9715288e-21
4.2275437e-21
-2.3458477e-22
-1.3373512e-22
-1.9903845e-23
-1.7019057e-24
-7.717547e-26
9.429086e-28
4.3475372e-28
3.3029309e-29
1.3228648e-30
2.850225e-32
2.5676326e-34
8.6185898e-12
1.017305e-13
-9.5090584e-15
-2.6597975e-16
-1.7682945e-18
4.1922573e-20
-1.5866091e-21
-1.2806157e-21
-2.0391706e-22
-1.7819988e-23
-6.7485418e-25
5.1124239e-26
1.0775238e-26
9.191282e-28
4.6668942e-29
1.4324791e-30
2.3785493e-32
1.4677563e-34
1.4822188e-10
9.6453587e-13
-4.0038279e-13
-1.2881428e-14
-9.7927219e-17
1.2924584e-18
1.6044249e-20
-1.0613558e-20
-1.8502632e-21
-1.6026881e-22
-3.5240633e-24
1.166554e-24
2.0402475e-25
1.9112203e-26
1.1574119e-27
4.47238e-29
9.9160375e-31
8.4278661e-33
-4.9677439e-35
1.7597446e-09
-8.0989735e-12
-1.1652302e-11
-4.5494998e-13
-3.2006977e-15
1.0894523e-16
2.5617787e-18
-6.2148161e-20
-1.5231357e-20
-1.273321e-21
6.7159146e-24
1.8635447e-23
3.1144044e-24
3.1408739e-25
2.1596036e-26
9.704883e-28
2.368842e-29
3.1607007e-32
-1.4598174e-32
-2.8609272e-34
1.400506e-08
-3.4031778e-10
-2.3510634e-10
-1.1615889e-11
-5.2369316e-14
7.5663791e-15
2.0698125e-16
1.2643894e-18
-1.1391835e-19
-9.3279021e-21
4.1197413e-22
2.3538005e-22
3.9336891e-23
4.2377002e-24
3.1673743e-25
1.5406519e-26
3.1940165e-28
-1.3020873e-29
-1.2253929e-30
-3.934004e-32
-4.9755487e-34
7.1731599e-08
-5.2376412e-09
-3.1486539e-09
-2.1044234e-10
3.311066e-13
3.6522083e-13
1.2237694e-14
1.2509981e-16
-7.7565055e-19
-6.9724706e-20
5.7193841e-21
2.4797641e-21
4.2167073e-22
4.7858597e-23
3.7633678e-24
1.7986509e-25
7.706926e-28
-6.5751144e-28
-5.5843192e-29
-2.4308317e-30
-5.8569295e-32
-6.1907502e-34
2.522551e-07
-4.1100122e-08
-2.862077e-08
-2.5530328e-09
3.7234484e-11
1.216445e-11
5.2304126e-13
6.4077895e-15
-2.6450418e-17
-1.0216692e-18
5.2221995e-20
2.2488889e-20
3.921541e-21
4.6055697e-22
3.6661688e-23
1.4522437e-24
-7.6705043e-26
-1.8695799e-26
-1.6832959e-27
-9.2120539e-29
-3.2104802e-30
-6.5831278e-32
-6.0339044e-34
6.1113268e-07
-2.089345e-07
-1.7147001e-07
-1.9744729e-08
8.8848325e-10
2.7588159e-10
1.5867808e-11
2.2039337e-13
-2.9790576e-15
-6.3299077e-17
9.6656044e-20
1.7912862e-19
3.2316019e-20
3.8431732e-21
2.925569e-22
5.3371388e-24
-2.2126423e-24
-3.8240977e-25
-3.7088993e-26
-2.4356391e-27
-1.0976701e-28
-3.2685934e-30
-5.7209148e-32
-4.3318573e-34
1.1254948e-06
-7.0493085e-07
-7.0366576e-07
-1.0148007e-07
1.1939942e-08
4.1149881e-09
3.3322459e-10
4.9403609e-12
-2.029397e-13
-4.5135681e-15
-2.7448811e-17
1.200132e-18
2.4124945e-19
2.838236e-20
1.8774008e-21
-6.1512278e-23
-3.8179594e-23
-6.1348628e-24
-6.386924e-25
-4.8260869e-26
-2.640169e-27
-1.0055754e-28
-2.4676044e-30
-3.2333172e-32
-1.2513326e-34
1.8645763e-06
-1.5823187e-06
-1.9858523e-06
-3.4902266e-07
9.7211103e-08
4.1137416e-08
4.7338304e-09
6.5231338e-11
-8.5485492e-12
-2.3270231e-13
-1.9763553e-15
4.0959149e-19
1.6537296e-18
1.9052299e-19
9.1148819e-21
-1.5540426e-21
-4.9931036e-22
-7.9934865e-23
-8.9739837e-24
-7.5358319e-25
-4.7589702e-26
-2.1433246e-27
-6.2309994e-29
-8.652259e-31
5.5222104e-33
2.7379685e-34
2.9325723e-06
-2.3630938e-06
-4.0763021e-06
-8.2281844e-07
5.1733366e-07
2.7354999e-07
4.4782919e-08
3.4379532e-10
-2.3073999e-10
-8.3267502e-12
-9.2912971e-14
-3.9872246e-16
1.0852677e-17
1.2085983e-18
2.5867676e-20
-2.0068442e-20
-5.3460177e-21
-8.7156757e-22
-1.0482607e-22
-9.6173654e-24
-6.678822e-25
-3.3165722e-26
-9.5359032e-28
4.3494448e-31
1.2948216e-30
5.0095922e-32
6.9531753e-34
2.8519334e-06
-3.4530605e-06
-6.6869574e-06
-1.5037491e-06
1.8187747e-06
1.2287898e-06
2.7933367e-07
-2.9709947e-09
-4.0647647e-09
-2.0233821e-10
-3.0567156e-12
-1.5367785e-14
1.9297964e-16
1.0009342e-17
-4.684843e-20
-1.9657856e-19
-4.8770023e-20
-8.130204e-21
-1.0357706e-21
-1.0186831e-22
-7.4880472e-24
-3.6970233e-25
-6.3372703e-27
7.5517432e-28
7.7189746e-29
3.6289365e-30
9.3271793e-32
1.0615687e-33
2.6813037e-06
-5.043667e-06
-9.562779e-06
-2.5758455e-06
4.3807885e-06
3.7779523e-06
1.1348072e-06
-6.3612956e-08
-4.6785441e-08
-3.3087207e-09
-6.883527e-11
-2.6927545e-13
1.5420073e-14
3.9397379e-16
1.1645277e-18
-1.6026499e-18
-3.8906855e-19
-6.6081294e-20
-8.7782126e-21
-9.0418346e-22
-6.7066244e-23
-2.6777803e-24
1.0097269e-25
2.8456051e-26
2.6741838e-27
1.5340751e-28
5.6822522e-30
1.2646518e-31
1.2980503e-33
2.6028491e-06
-5.9144154e-06
-1.1349492e-05
-3.9453411e-06
7.6675192e-06
8.2604272e-06
3.0371907e-06
-4.9570703e-07
-3.5463914e-07
-3.5325008e-08
-1.0851211e-09
-1.5282335e-12
9.6433682e-13
2.939497e-14
2.9569663e-16
-1.0560255e-17
-2.770738e-18
-4.7524928e-19
-6.4580856e-20
-6.7476356e-21
-4.6427855e-22
-4.2514928e-24
4.0453803e-24
6.5845033e-25
6.4464536e-26
4.4146437e-27
2.1308741e-28
7.0091443e-30
1.4213334e-31
1.3468815e-33
2.1143705e-06
-6.3601149e-06
-1.2215803e-05
-3.9626537e-06
1.0769465e-05
1.3659747e-05
5.6519535e-06
-2.1772107e-06
-1.7849575e-06
-2.5950122e-07
-1.153514e-08
8.7256879e-11
3.7668871e-11
1.6192888e-12
2.3845814e-14
1.2649968e-17
-1.8003682e-17
-3.0721916e-18
-4.1665921e-19
-4.2110765e-20
-2.1748467e-21
2.1953121e-22
7.5375567e-23
1.1361411e-23
1.1868367e-24
9.3852784e-26
5.5795149e-27
2.4181377e-28
7.2595233e-30
1.3528263e-31
1.1790825e-33
1.4329535e-06
-6.437768e-06
-1.2423025e-05
-3.4495218e-06
1.368004e-05
1.9034949e-05
7.7907322e-06
-6.0103617e-06
-6.053603e-06
-1.2879583e-06
-7.9393317e-08
3.303331e-09
9.5270681e-10
5.942728e-11
1.240214e-12
4.2810908e-15
-1.3444176e-16
-1.823085e-17
-2.3807085e-18
-2.1489714e-19
-1.6911723e-21
4.1635005e-21
1.0150132e-21
1.5509315e-22
1.7641379e-23
1.5623181e-24
1.0925042e-25
5.845957e-27
2.2989866e-28
6.2582302e-30
1.0474154e-31
8.0312563e-34
6.148615e-07
-6.6686552e-06
-1.1751597e-05
-2.8929163e-06
1.5348104e-05
2.2833718e-05
1.0156839e-05
-1.1161655e-05
-1.4296722e-05
-4.3432212e-06
-3.3530942e-07
5.0442827e-08
1.5630201e-08
1.4290449e-09
4.2281873e-11
1.1968285e-13
-4.3770017e-15
-1.174381e-16
-1.221908e-17
-8.3274659e-19
9.5450757e-20
4.9133836e-20
1.0958233e-20
1.7441727e-21
2.1583696e-22
2.1278677e-23
1.6799433e-24
1.0545221e-25
5.0442253e-27
1.7492767e-28
4.0602467e-30
5.3765437e-32
2.6628934e-34
-2.3617573e-07
-6.8093311e-06
-1.0955324e-05
-1.9978857e-06
1.6007369e-05
2.4311643e-05
9.6118361e-06
-1.6584331e-05
-2.5007544e-05
-1.0236147e-05
-7.885112e-07
4.410011e-07
1.659739e-07
2.2230172e-08
9.3073025e-10
-7.7681164e-13
-3.0323081e-13
-2.4460973e-15
-6.043562e-17
-1.7602819e-18
1.2694468e-18
4.5250569e-19
9.9255309e-20
1.6588329e-20
2.2190989e-21
2.4038937e-22
2.1068209e-23
1.4798827e-24
8.0888999e-26
3.2117452e-27
8.2978386e-29
9.5963894e-31
-1.0361186e-32
-3.5318982e-34
-1.1494022e-06
-6.8843701e-06
-9.8842776e-06
-9.4269834e-07
1.5927742e-05
2.3912827e-05
7.5773765e-06
-2.1428761e-05
-3.5055019e-05
-1.7918681e-05
-6.7412778e-07
2.3858108e-06
1.1428681e-06
2.2195563e-07
1.2995465e-08
-1.478299e-10
-1.4604471e-11
-1.3665695e-13
-5.9904966e-16
5.7168739e-18
1.1009168e-17
3.4918594e-18
7.7436469e-19
1.3591443e-19
1.9474458e-20
2.2866858e-21
2.1786308e-22
1.6542724e-23
9.6571696e-25
3.8400035e-26
6.0314569e-28
-3.2109062e-29
-2.5643057e-30
-7.7762449e-32
-9.6227634e-34
-1.9511524e-06
-6.8776487e-06
-8.6827049e-06
1.9330991e-07
1.5643522e-05
2.2619023e-05
6.0062479e-06
-2.3513898e-05
-4.1335537e-05
-2.4793323e-05
1.2973317e-06
8.3222263e-06
5.1385101e-06
1.4166126e-06
1.131578e-07
-4.383203e-09
-4.4180715e-10
-5.9602234e-12
-2.4943274e-14
5.4606668e-17
7.6527773e-17
2.3437748e-17
5.3052399e-18
9.7302442e-19
1.4771656e-19
1.8491425e-20
1.8721495e-21
1.4713364e-22
8.1144296e-24
2.028813e-25
-1.5738758e-26
-2.3536192e-27
-1.5164954e-28
-5.9525089e-30
-1.3815869e-31
-1.473665e-33
-2.3955902e-06
-6.6881809e-06
-7.4518435e-06
1.3624245e-06
1.5181799e-05
2.0964116e-05
4.127219e-06
-2.3715516e-05
-4.3103942e-05
-2.8560759e-05
5.4873166e-06
1.9696667e-05
1.5334016e-05
5.7913741e-06
5.9989361e-07
-6.6025929e-08
-8.4474129e-09
-1.6980892e-10
-1.1656313e-12
-2.7739491e-15
4.5138228e-16
1.4038308e-16
3.2445566e-17
6.1669902e-18
9.776111e-19
1.2796209e-19
1.3322485e-20
1.0062766e-21
3.7115832e-23
-2.8904174e-24
-6.7967543e-25
-7.2485007e-26
-5.1701421e-27
-2.5648805e-28
-8.6945792e-30
-1.832264e-31
-1.8242099e-33
-2.6209441e-06
-6.1735589e-06
-6.2286526e-06
2.5279531e-06
1.4468013e-05
1.9088679e-05
2.5682456e-06
-2.2464817e-05
-4.2638396e-05
-2.9235051e-05
1.0396976e-05
3.3996383e-05
3.1623951e-05
1.537558e-05
1.8653099e-06
-5.8146729e-07
-1.0288098e-07
-3.274083e-09
-3.838304e-11
-1.9543051e-13
2.0031666e-15
7.6692067e-16
1.802022e-16
3.5019334e-17
5.6959293e-18
7.5868291e-19
7.7100816e-20
4.607848e-21
-1.7928134e-22
-9.3089091e-23
-1.4515905e-23
-1.5269456e-24
-1.2211344e-25
-7.4070986e-27
-3.3148267e-28
-1.0442441e-29
-2.0819314e-31
-1.9857072e-33
-2.6679179e-06
-5.005309e-06
-5.162249e-06
3.4818511e-06
1.3674607e-05
1.7054473e-05
9.0286044e-07
-2.0995999e-05
-3.980678e-05
-2.8377894e-05
1.4403927e-05
4.6943814e-05
4.8319911e-05
2.7778858e-05
3.1378782e-06
-3.1581238e-06
-8.0432836e-07
-4.1901718e-08
-8.423381e-10
-7.485741e-12
-1.5118961e-14
3.936073e-15
9.2731957e-16
1.8061458e-16
2.9423972e-17
3.8304393e-18
3.4142302e-19
2.8714109e-21
-6.1829893e-21
-1.4671432e-21
-2.1953194e-22
-2.4689962e-23
-2.1966911e-24
-1.5694873e-25
-8.7630747e-27
-3.6862068e-28
-1.1068663e-29
-2.1241982e-31
-1.9655396e-33
-1.9542294e-06
-3.3967816e-06
-3.5017693e-06
3.7341126e-06
1.2574314e-05
1.4814551e-05
-7.6136337e-07
-1.9104639e-05
-3.5802077e-05
-2.8647403e-05
1.7822013e-05
5.4923767e-05
5.9809138e-05
3.6536858e-05
1.9687477e-06
-1.0979277e-05
-4.0957811e-06
-3.5420737e-07
-1.2134954e-08
-1.8293846e-10
-9.8502618e-13
2.5158248e-14
4.6807755e-15
8.6290846e-16
1.3543808e-16
1.6132592e-17
8.693657e-19
-2.037259e-19
-8.1406478e-20
-1.6996454e-20
-2.6164254e-21
-3.1973944e-22
-3.1761835e-23
-2.5937254e-24
-1.7303718e-25
-9.1423969e-27
-3.6786702e-28
-1.0660471e-29
-1.9880252e-31
-1.7982246e-33
-8.2338182e-07
1.1275811e-06
-1.6716637e-06
3.3565415e-06
1.1143494e-05
1.2323478e-05
-2.6545493e-06
-1.7102909e-05
-3.1416385e-05
-2.7815645e-05
1.7677851e-05
5.8079064e-05
6.4026038e-05
3.8122624e-05
-3.2703129e-06
-2.5678991e-05
-1.3938844e-05
-1.9897519e-06
-1.1416704e-07
-2.8428876e-09
-2.1108164e-11
7.5837316e-13
4.5111406e-14
4.1651516e-15
5.6085047e-16
5.2336515e-17
-2.2441411e-18
-2.610344e-18
-7.7516101e-19
-1.593295e-19
-2.5806258e-20
-3.4277811e-21
-3.7849722e-22
-3.48832e-23
-2.6880765e-24
-1.7055309e-25
-8.6356595e-27
-3.3570108e-28
-9.4564821e-30
-1.7237425e-31
-1.531894e-33
-1.5647529e-07
2.441527e-06
2.4816336e-06
2.2537194e-06
9.3897392e-06
9.7456545e-06
-4.499469e-06
-1.5014923e-05
-2.6424802e-05
-2.6408916e-05
1.6160152e-05
5.86395e-05
6.2977336e-05
3.5408109e-05
-1.0436794e-05
-4.3324265e-05
-3.3025375e-05
-7.5532221e-06
-7.0346051e-07
-2.7536463e-08
-1.3252826e-10
3.9385911e-11
2.1654442e-12
5.5313334e-14
2.3148761e-15
9.066102e-17
-4.9650657e-17
-2.1895088e-17
-6.0043855e-18
-1.2606481e-18
-2.165035e-19
-3.116039e-20
-3.7927158e-21
-3.9095838e-22
-3.4105659e-23
-2.5115474e-24
-1.5297055e-25
-7.475025e-27
-2.8214143e-28
-7.7562451e-30
-1.386568e-31
-1.2143891e-33
-1.74482e-07
1.6397894e-08
4.4795378e-06
2.4794686e-06
7.2772834e-06
6.9543875e-06
-6.1976124e-06
-1.2736141e-05
-2.1072617e-05
-2.4611436e-05
1.4270809e-05
5.5868016e-05
5.8600675e-05
2.8065895e-05
-1.898238e-05
-5.7715982e-05
-5.7618745e-05
-2.0047523e-05
-2.8600518e-06
-1.5994352e-07
3.3571776e-09
1.2999659e-09
1.0577819e-10
3.277541e-12
3.8142903e-14
-3.0863958e-16
-4.2439036e-16
-1.4788728e-16
-3.9671926e-17
-8.6290979e-18
-1.5735216e-18
-2.4433554e-19
-3.25089e-20
-3.7094763e-21
-3.6213777e-22
-3.0189368e-23
-2.1364638e-24
-1.2540545e-25
-5.9277641e-27
-2.1743349e-28
-5.8340762e-30
-1.0226851e-31
-8.8284707e-34
4.7000838e-06
-4.5464215e-06
1.4258725e-06
5.6938016e-06
2.1618644e-06
4.1957398e-06
-7.6691588e-06
-1.0212057e-05
-1.560006e-05
-2.2400109e-05
1.215867e-05
5.2210865e-05
5.4267233e-05
2.1146127e-05
-2.361176e-05
-6.5268495e-05
-7.8728211e-05
-3.8879205e-05
-7.8435203e-06
-4.9527885e-07
8.4341464e-08
2.564335e-08
3.1763081e-09
1.5610469e-10
2.5454424e-12
3.3990082e-15
-2.7771822e-15
-8.6329038e-16
-2.2951478e-16
-5.1969091e-17
-1.0044399e-17
-1.6741783e-18
-2.4160329e-19
-3.0202145e-20
-3.2626653e-21
-3.0339569e-22
-2.4231108e-23
-1.6464783e-24
-9.288191e-26
-4.2236284e-27
-1.4944935e-28
-3.8800814e-30
-6.6114441e-32
-5.5855334e-34
1.6054831e-06
3.5220472e-07
-5.6519539e-06
3.1639299e-06
6.4019217e-06
1.6330981e-06
-8.5055614e-06
-7.1632545e-06
-1.0160517e-05
-1.988803e-05
9.9097623e-06
4.8050093e-05
4.9745584e-05
1.7539802e-05
-2.3718146e-05
-6.5217589e-05
-9.0882829e-05
-5.8333525e-05
-1.4909063e-05
-3.6852278e-07
8.6286127e-07
3.0742616e-07
5.7316101e-08
4.4398022e-09
1.1719961e-10
5.9995507e-13
-1.7053424e-14
-4.5310061e-15
-1.1846843e-15
-2.7892982e-16
-5.693914e-17
-1.0129347e-17
-1.5735695e-18
-2.1337464e-19
-2.5195299e-20
-2.5787458e-21
-2.2761363e-22
-1.7269067e-23
-1.1103682e-24
-5.8920401e-26
-2.5048995e-27
-8.2350679e-29
-1.977559e-30
-3.1195258e-32
-2.4674984e-34
-8.1629584e-06
-8.344706e-07
-3.5193157e-06
-5.5500814e-06
4.7435085e-06
6.8088054e-06
8.1104149e-07
-3.1440784e-06
-4.7605128e-06
-1.7433404e-05
7.5807403e-06
4.3777659e-05
4.4637354e-05
1.3040176e-05
-2.3049253e-05
-5.7917025e-05
-9.5337239e-05
-7.2527908e-05
-2.0651741e-05
2.9424842e-06
4.9814902e-06
2.2875262e-06
6.2861946e-07
7.4973251e-08
3.1354517e-09
2.4782334e-11
-2.6730005e-13
-2.2664283e-14
-5.5558142e-15
-1.3484491e-15
-2.8927928e-16
-5.4583902e-17
-9.0569027e-18
-1.3190118e-18
-1.6800708e-19
-1.8609909e-20
-1.7771661e-21
-1.4494577e-22
-9.9958431e-24
-5.6640806e-25
-2.51183e-26
-8.12149e-28
-1.6540693e-29
-1.1220105e-31
3.0935595e-33
5.9958648e-35
2.0977823e-06
-7.2251393e-06
-2.8696579e-06
-6.5462921e-06
-4.9181683e-06
6.1143257e-06
6.9338718e-06
-6.2480132e-08
-3.5401126e-07
-1.5102198e-05
5.1236211e-06
3.9263491e-05
3.965164e-05
8.3803475e-06
-2.2563331e-05
-4.937097e-05
-8.590063e-05
-8.0194687e-05
-2.2584984e-05
1.2688656e-05
1.7828772e-05
1.0881612e-05
4.2438978e-06
7.6006545e-07
4.8862133e-08
4.9239698e-10
-1.4117644e-11
-1.9853615e-13
-2.4173262e-14
-5.931906e-15
-1.3278368e-15
-2.6384406e-16
-4.6359088e-17
-7.1709488e-18
-9.7015744e-19
-1.1363756e-19
-1.1333715e-20
-9.3461497e-22
-6.040472e-23
-2.6418459e-24
-1.9047803e-26
8.9146564e-27
8.996491e-28
5.0425261e-29
1.7976648e-30
3.8370703e-32
3.7635493e-34
5.1983864e-06
6.1936911e-06
-4.3594142e-06
-5.9299247e-06
-8.6476373e-06
-4.1580263e-06
7.5293943e-06
6.8660869e-06
-8.9378733e-07
-1.2721846e-05
2.7350493e-06
3.4557928e-05
3.4216524e-05
3.2920974e-06
-2.2178192e-05
-4.0867719e-05
-7.6225442e-05
-8.7815913e-05
-2.0504656e-05
2.7935747e-05
4.238666e-05
3.361112e-05
1.79045e-05
4.670303e-06
4.4653992e-07
3.8816336e-09
-5.5882831e-10
-7.6434796e-12
-1.0798708e-13
-2.4042266e-14
-5.547332e-15
-1.1507762e-15
-2.1192355e-16
-3.4329236e-17
-4.827048e-18
-5.7569518e-19
-5.5514667e-20
-3.7882495e-21
-7.1254111e-23
2.63911e-23
4.9771335e-24
5.5433603e-25
4.4882351e-26
2.7258177e-27
1.2240935e-28
3.8611373e-30
7.6576224e-32
7.1890303e-34
-1.1680192e-05
9.8187045e-06
9.8882781e-06
-2.509391e-06
-8.9071091e-06
-1.0480069e-05
-3.1446397e-06
8.7982643e-06
6.7466249e-06
-1.647018e-06
-3.3687017e-07
2.9769956e-05
2.8885016e-05
-1.7670197e-06
-2.202995e-05
-3.242153e-05
-6.4458974e-05
-8.8735024e-05
-2.7489365e-05
4.4650399e-05
7.2391672e-05
6.9917355e-05
4.8043173e-05
1.756484e-05
2.3897054e-06
-1.4663979e-08
-1.2893659e-08
-2.9786059e-10
-1.2991115e-12
-9.1816842e-14
-2.1258077e-14
-4.5505802e-15
-8.6655498e-16
-1.4403522e-16
-2.0279622e-17
-2.2635374e-18
-1.5909369e-19
5.0721926e-21
4.0945027e-21
8.4151469e-22
1.1970876e-22
1.3294177e-23
1.1875629e-24
8.4917879e-26
4.7687117e-27
2.0311331e-28
6.1739891e-30
1.1930276e-31
1.1004773e-33
-3.9482649e-06
-9.3182077e-06
1.3900191e-05
1.2802638e-05
-2.0590886e-06
-1.2038746e-05
-1.2214395e-05
-1.9335187e-06
9.8989063e-06
6.5147498e-06
-2.2800085e-06
2.4665493e-05
2.3364957e-05
-6.8174188e-06
-2.1572869e-05
-2.383717e-05
-5.1418766e-05
-8.5923433e-05
-3.3849021e-05
5.2425008e-05
9.8334903e-05
0.00010549778
8.5433274e-05
4.1069493e-05
7.3952021e-06
-4.94914e-07
-1.7574625e-07
-7.0461631e-09
-4.9453426e-11
-4.2225478e-13
-7.5522819e-14
-1.6375139e-14
-3.1624674e-15
-5.2118156e-16
-6.7703644e-17
-5.1291146e-18
4.5544852e-19
2.8335525e-19
7.0221083e-20
1.271911e-20
1.8579339e-21
2.2513314e-22
2.2769815e-23
1.9111253e-24
1.3063847e-25
7.0950802e-27
2.9461749e-28
8.7828151e-30
1.6723034e-31
1.5260744e-33
1.9084212e-05
-7.9405384e-06
-6.2201722e-06
1.771066e-05
1.5359802e-05
-1.8842303e-06
-1.5178053e-05
-1.348586e-05
-7.618729e-07
1.0882037e-05
6.1904776e-06
-2.661571e-06
1.7686063e-05
-1.1879533e-05
-2.0973308e-05
-1.5212826e-05
-3.817487e-05
-8.0177223e-05
-3.9566324e-05
5.3589215e-05
0.00011722713
0.00012703529
0.00010917353
6.2695227e-05
1.299205e-05
-3.7920847e-06
-1.4509794e-06
-1.0008613e-07
-1.4131537e-09
-7.5098575e-12
-2.5968887e-13
-5.381207e-14
-1.0210063e-14
-1.5557704e-15
-1.4061676e-16
1.4639738e-17
1.1191187e-17
3.417423e-18
7.7359982e-19
1.436359e-19
2.2565156e-20
3.0271811e-21
3.4661616e-22
3.3662037e-23
2.7358888e-24
1.8230142e-25
9.700356e-27
3.9622759e-28
1.1658132e-29
2.1972502e-31
1.9898918e-33
1.1599544e-05
1.2840502e-05
-1.1154569e-05
-2.7022006e-06
2.1384295e-05
1.7681741e-05
-1.9355819e-06
-1.7885725e-05
-1.4291698e-05
4.5299468e-07
1.1671869e-05
5.995048e-06
-2.6598425e-06
-1.6773309e-05
-2.0189035e-05
-6.5462397e-06
-2.5341672e-05
-7.1881517e-05
-4.5228607e-05
5.1191753e-05
0.00012217613
0.0001398002
0.00011049975
6.6962525e-05
1.2697696e-05
-1.4754031e-05
-7.4465686e-06
-8.7528458e-07
-2.4193947e-08
-2.3594191e-10
-1.5167178e-12
-1.6276024e-13
-2.851693e-14
-3.2994034e-15
2.0184905e-16
2.7398787e-16
1.0518298e-16
2.941751e-17
6.7773088e-18
1.3359393e-18
2.2823421e-19
3.3888925e-20
4.3621724e-21
4.8372303e-22
4.5794471e-23
3.6406789e-24
2.3819805e-25
1.2485378e-26
5.0379505e-28
1.4680363e-29
2.7465097e-31
1.6301865e-35
-2.1239711e-05
4.8914866e-06
5.9054642e-06
-1.260385e-05
1.0557738e-06
2.4856894e-05
1.9750918e-05
-2.4593299e-06
-1.974053e-05
-1.4909951e-05
1.6294676e-06
1.2031919e-05
5.4650248e-06
-2.7138838e-06
-1.8565348e-05
2.6029717e-06
-1.3067758e-05
-6.1990893e-05
-4.9320454e-05
4.6375322e-05
0.00012289019
0.00013822425
0.00010048042
5.4012503e-05
4.0275849e-06
-3.4159152e-05
-2.4566787e-05
-4.7977291e-06
-2.5333504e-07
-4.842826e-09
-3.4866476e-11
-5.1953623e-13
-6.5051753e-14
-7.9047106e-16
4.2697058e-15
2.143897e-15
7.3880795e-16
2.081453e-16
5.0336402e-17
1.0640842e-17
1.9787666e-18
3.2373874e-19
4.64544e-20
5.8142868e-21
6.2974517e-22
5.8446212e-23
4.5658812e-24
2.944179e-25
1.5250747e-26
6.096763e-28
1.7641866e-29
2.5557395e-33
5.8681959e-38
-1.4821162e-05
-2.4697232e-05
-2.5990837e-06
-1.4235743e-06
-1.3272307e-05
4.7501097e-06
2.8217422e-05
2.1604624e-05
-3.2567861e-06
-2.1440661e-05
-1.5284823e-05
2.7465314e-06
1.1617008e-05
4.5785019e-06
-2.6962e-06
1.2389949e-05
-1.0088939e-06
-5.1506116e-05
-5.1878445e-05
4.0229982e-05
0.00012034994
0.00013577018
9.3540631e-05
3.5392078e-05
-7.6907724e-06
-5.2382777e-05
-5.458698e-05
-1.7261072e-05
-1.6784551e-06
-6.0473406e-08
-8.1935171e-10
-5.000235e-12
-1.0336147e-13
3.9514987e-14
2.9733974e-14
1.2746338e-14
4.3502449e-15
1.271182e-15
3.2601787e-16
7.4061394e-17
1.4947265e-17
2.6784927e-18
4.2482879e-19
5.9358441e-20
7.2602121e-21
7.7117364e-22
7.0344758e-23
5.4154421e-24
3.4509156e-25
1.7712858e-26
7.0342806e-28
1.8620422e-31
1.0764827e-35
7.8683976e-41
2.2093134e-05
-1.0037904e-05
-2.7109857e-05
-1.033514e-05
-8.194565e-06
-1.3642225e-05
8.4090854e-06
3.1353842e-05
2.3333527e-05
-4.2976564e-06
-2.3048138e-05
-1.5687442e-05
3.5491354e-06
1.0732444e-05
3.0936765e-06
-1.7722616e-06
1.1408197e-05
-4.2270008e-05
-5.308108e-05
3.3276458e-05
0.00011606241
0.00013166514
8.6473991e-05
2.5027652e-05
-1.9733576e-05
-5.8993989e-05
-8.616459e-05
-4.3049043e-05
-7.2930249e-06
-4.7410425e-07
-1.2017975e-08
-1.1786159e-10
-3.2705197e-13
2.7431157e-13
1.5512903e-13
6.4222283e-14
2.2414095e-14
6.8629318e-15
1.870105e-15
4.5574856e-16
9.940422e-17
1.938347e-17
3.3702457e-18
5.2043268e-19
7.1014504e-20
8.5069758e-21
8.8830559e-22
7.9797916e-23
6.0684844e-24
3.8315361e-25
1.9541941e-26
8.4386928e-30
9.0897019e-34
1.7730262e-38
3.0993471e-44
2.3406872e-05
3.1454258e-05
-5.4900806e-06
-2.9294216e-05
-1.7307364e-05
-1.522813e-05
-1.3959979e-05
1.1889178e-05
3.4484952e-05
2.4688174e-05
-5.4098022e-06
-2.4493494e-05
-1.5200366e-05
4.3759773e-06
8.5828907e-06
2.2978257e-06
-1.177422e-06
-3.3728285e-05
-5.3263848e-05
2.5637444e-05
0.00011007182
0.00012704464
7.8017014e-05
1.2604417e-05
-2.8179615e-05
-5.2873835e-05
-0.00010221201
-7.9446929e-05
-2.180478e-05
-2.4191031e-06
-1.0971801e-07
-1.9989258e-09
-1.2516858e-11
1.2837908e-12
6.8691212e-13
2.8596394e-13
1.0327865e-13
3.3215755e-14
9.5995862e-15
2.4993503e-15
5.8604353e-16
1.2354628e-16
2.3361538e-17
3.9496719e-18
5.946587e-19
7.9341996e-20
9.3212568e-21
9.5843187e-22
8.4972077e-23
6.3997408e-24
4.0153787e-25
2.675171e-28
4.7650199e-32
1.7797361e-36
9.7710688e-42
7.3997927e-49
-2.5556459e-05
3.4097609e-05
3.9996804e-05
-9.0613405e-07
-3.3172556e-05
-2.5380111e-05
-2.2031079e-05
-1.4136161e-05
1.5048573e-05
3.7390704e-05
2.5716326e-05
-6.5115347e-06
-2.4615843e-05
-1.3916071e-05
4.8669812e-06
5.9245282e-06
1.4362024e-06
-6.2114309e-07
-5.3857128e-05
1.7367348e-05
0.00010239444
0.00012154679
6.9124246e-05
-7.461468e-07
-3.8412403e-05
-4.8988777e-05
-8.7278414e-05
-0.00011477392
-4.7667424e-05
-8.433864e-06
-6.4587225e-07
-2.1036993e-08
-2.715551e-10
3.896222e-12
2.7014466e-12
1.1502524e-12
4.3140453e-13
1.45511e-13
4.4428754e-14
1.2293398e-14
3.0793456e-15
6.9693549e-16
1.4219628e-16
2.6084726e-17
4.2884667e-18
6.2954468e-19
8.2156363e-20
9.4792003e-21
9.6081011e-22
8.4268984e-23
6.3049046e-24
6.3093992e-27
1.7498927e-30
1.0980501e-34
1.2066411e-39
1.716602e-45
-1.7012246e-51
-5.4787856e-05
-1.6798756e-05
4.3603628e-05
4.7960541e-05
3.4015993e-06
-3.610276e-05
-3.3613389e-05
-2.8654134e-05
-1.4618237e-05
1.8024605e-05
3.9872808e-05
2.5834559e-05
-7.5853235e-06
-2.3478183e-05
-1.0955703e-05
3.2084549e-06
3.5811975e-06
6.295358e-07
-2.5590134e-07
8.1713766e-06
9.3269438e-05
0.00011448672
5.9620059e-05
-1.6533505e-05
-5.0046827e-05
-4.8535667e-05
-6.9763577e-05
-0.0001260147
-8.112762e-05
-2.1274301e-05
-2.5793025e-06
-1.4131292e-07
-3.3428382e-09
-1.3675946e-11
9.6042665e-12
4.2409144e-12
1.6501351e-12
5.8146343e-13
1.865491e-13
5.4516036e-14
1.44874e-14
3.4931439e-15
7.6246409e-16
1.5033129e-16
2.6706417e-17
4.2624503e-18
6.0923163e-19
7.7683052e-20
8.8133219e-21
8.8154026e-22
7.6707752e-23
1.1472083e-25
4.7973986e-29
4.7383315e-33
8.8475456e-38
2.9340124e-43
3.0646378e-51
-4.5416357e-55
-5.534614e-07
-5.4780781e-05
-7.7023751e-06
5.2215903e-05
5.5419719e-05
8.189489e-06
-3.8751496e-05
-4.1898688e-05
-3.5178683e-05
-1.5278125e-05
2.0778696e-05
4.1414839e-05
2.4472198e-05
-8.3127265e-06
-2.0223421e-05
-7.7961253e-06
2.1106473e-06
1.6926562e-06
1.8386127e-07
-7.2695805e-08
8.2024967e-05
0.00010516679
4.9513359e-05
-3.4741062e-05
-6.3899554e-05
-4.968365e-05
-5.0966401e-05
-0.0001094706
-0.00011565564
-4.1581828e-05
-7.3892379e-06
-6.3847635e-07
-2.5572804e-08
-3.8968249e-10
2.9531502e-11
1.4598441e-11
5.8399411e-12
2.1345085e-12
7.1475041e-13
2.1898821e-13
6.1258631e-14
1.5602585e-14
3.6090051e-15
7.5648898e-16
1.4343823e-16
2.455338e-17
3.7858661e-18
5.2452146e-19
6.5095932e-20
7.2598078e-21
7.1765334e-22
1.6397185e-24
1.0192908e-27
1.5295258e-31
4.4975214e-36
2.5806994e-41
2.7810297e-47
-4.1359338e-53
-6.571455e-59
6.874941e-05
-9.7159244e-06
-5.236825e-05
1.3334327e-06
6.0233563e-05
6.24996e-05
1.2709838e-05
-4.0703476e-05
-5.0281082e-05
-4.1389971e-05
-1.5681248e-05
2.4146333e-05
4.2001876e-05
2.1245605e-05
-7.8873927e-06
-1.4647894e-05
-4.7305676e-06
1.2174474e-06
5.8499904e-07
3.3311117e-08
-1.4299933e-08
9.3228805e-05
3.7036244e-05
-5.4291178e-05
-8.1052657e-05
-5.0193684e-05
-3.3542625e-05
-8.4414993e-05
-0.0001356668
-7.3829185e-05
-1.6237016e-05
-2.050572e-06
-1.2951022e-07
-3.6637452e-09
5.7080541e-11
4.7997363e-11
1.9647684e-11
7.3002418e-12
2.5137266e-12
8.0053823e-13
2.3357557e-13
6.221951e-14
1.5079378e-14
3.316238e-15
6.6042133e-16
1.1894268e-16
1.935101e-17
2.8414719e-18
3.7634237e-19
4.498319e-20
4.8988002e-21
1.8525449e-23
1.7162825e-26
3.8416227e-30
1.7109519e-34
1.517771e-39
3.357362e-45
-2.0906686e-52
-7.8246829e-57
-6.6424393e-63
7.8283195e-05
5.338195e-05
-1.8885562e-05
-4.7511815e-05
1.0417069e-05
6.7602246e-05
6.8952914e-05
1.7057249e-05
-4.169902e-05
-5.7638973e-05
-4.7280534e-05
-1.6034744e-05
2.7615022e-05
3.8984522e-05
1.6258258e-05
-5.9215723e-06
-8.8758838e-06
-2.0437996e-06
5.0174183e-07
1.4651229e-07
3.4003127e-09
-1.7843847e-09
2.3150543e-05
-7.2988561e-05
-9.7978581e-05
-4.9944563e-05
-1.6007951e-05
-5.3798925e-05
-0.00013675518
-0.00010709996
-3.5831392e-05
-4.9660721e-06
-4.5527072e-07
-1.982601e-08
2.5140101e-11
1.6333186e-10
6.5226318e-11
2.4353514e-11
8.4033504e-12
2.6762055e-12
8.0547578e-13
2.2161342e-13
5.5446873e-14
1.2557769e-14
2.5643332e-15
4.7047701e-16
7.7345537e-17
1.1372001e-17
1.4956844e-18
1.7666539e-19
1.9089716e-20
1.6314838e-22
2.315957e-25
7.6914991e-29
5.0864418e-33
6.6321717e-38
2.304164e-43
1.9786374e-49
-3.6503659e-55
-8.751878e-61
-5.8216702e-67
7.5094355e-06
6.072404e-05
3.728127e-05
-2.5986268e-05
-4.1222222e-05
1.9230388e-05
7.4397206e-05
7.4590042e-05
2.1006191e-05
-4.1789739e-05
-6.3593203e-05
-5.2627092e-05
-1.432528e-05
2.9165837e-05
3.2576363e-05
1.0473638e-05
-3.8052441e-06
-4.1218592e-06
-5.9876604e-07
1.3853527e-07
2.5336805e-08
1.2178779e-10
-1.4940172e-10
-8.8815048e-05
-0.00010953955
-4.7229428e-05
2.8485116e-06
-2.1496935e-05
-0.00011790243
-0.00013686799
-6.2396808e-05
-1.3571288e-05
-1.1249971e-06
-5.1367101e-08
4.3685714e-09
1.2006985e-09
2.6486153e-10
8.4458512e-11
2.7996149e-11
8.6401716e-12
2.5185742e-12
7.0381279e-13
1.7788503e-13
4.0230005e-14
8.0372734e-15
1.3913005e-15
2.0162303e-16
2.2600644e-17
1.4447372e-18
-1.0736857e-19
-5.3325835e-20
1.0547195e-21
2.5032296e-24
1.2450335e-27
1.2130639e-31
2.2728639e-36
1.1266904e-41
1.8728985e-47
-2.4701338e-54
-5.1998559e-59
-8.09592e-65
-4.8532577e-71
-9.9981688e-05
-9.8320673e-06
4.0995046e-05
2.1351691e-05
-3.0890768e-05
-3.4009292e-05
2.8012921e-05
8.0583706e-05
7.9420074e-05
2.4340335e-05
-4.050814e-05
-6.6915193e-05
-5.3674326e-05
-9.5843515e-06
2.6575622e-05
2.2411942e-05
5.0961068e-06
-1.9520846e-06
-1.3615466e-06
-1.1616208e-07
2.5120771e-08
2.8410501e-09
-7.0392308e-12
-8.6380133e-12
-0.00011503886
-4.0966982e-05
2.3773735e-05
1.2008988e-05
-8.2111885e-05
-0.00015429918
-9.4459988e-05
-2.7793601e-05
-3.6506865e-06
1.3316372e-07
1.0555121e-07
2.3609296e-08
3.4042749e-09
4.7633393e-10
9.661501e-11
2.6899423e-11
7.4648348e-12
1.9823195e-12
4.8777668e-13
1.0322884e-13
1.7605697e-14
1.9504874e-15
-7.1784951e-17
-1.1376794e-16
-3.8498423e-17
-9.1972944e-18
-1.7724629e-18
3.808076e-21
2.1251179e-23
1.6384168e-26
2.3581042e-30
6.3009149e-35
4.2764004e-40
1.0518648e-45
7.5337524e-52
-1.6427491e-57
-5.2874653e-63
-6.9960213e-69
-3.8772298e-75
-0.00011428177
-0.00010632831
-2.7768086e-05
2.0598958e-05
6.2944171e-06
-3.4063262e-05
-2.6574838e-05
3.6209409e-05
8.6524576e-05
8.2901719e-05
2.676485e-05