/*--------------------------------*- C++ -*----------------------------------*\
| =========                 |                                                 |
| \\      /  F ield         | OpenFOAM: The Open Source CFD Toolbox           |
|  \\    /   O peration     | Version:  5.0                                   |
|   \\  /    A nd           | Web:      www.OpenFOAM.org                      |
|    \\/     M anipulation  |                                                 |
\*---------------------------------------------------------------------------*/
FoamFile
{
    version     2.0;
    format      ascii;
    class       surfaceScalarField;
    location    "240";
    object      ddtCorrDdt0(phi);
}
// * * * * * * * * * * * * * * * * * * * * * * * * * * * * * * * * * * * * * //

dimensions      [0 3 -2 0 0 0 0];

internalField   nonuniform List<scalar> 
18820
(
1.8685961e-06
0.00033795535
2.8947128e-06
0.00031379339
2.9163511e-06
0.00033504006
3.1714224e-06
0.00028864118
5.4814243e-06
0.00031123641
-4.7570791e-06
0.00033980172
2.6280528e-06
0.00026287066
7.4265632e-06
0.00028670311
-8.3263789e-06
0.00031481947
-1.6267442e-05
0.00035607681
1.3843644e-06
0.00023683068
7.8479755e-06
0.00026245629
-1.1265778e-05
0.00028965456
-3.0576792e-05
0.000329147
-2.0913922e-05
0.00037700078
-3.0779825e-07
0.00021113968
6.2294907e-06
0.00023845622
-1.440765e-05
0.00026561005
-4.3457236e-05
0.00030255091
-4.0811076e-05
0.00034906569
-1.7094212e-05
0.00039410692
-2.6840624e-06
0.0001861475
2.9150276e-06
0.00021446119
-1.8620983e-05
0.00024268122
-5.4979252e-05
0.00027714739
-5.9888782e-05
0.00032164725
-3.4783299e-05
0.0003667787
-8.0040753e-06
0.00040212423
-6.7156927e-06
0.00016204639
-2.0783516e-06
0.00019114795
-2.4231645e-05
0.00022008326
-6.5711293e-05
0.0002534279
-7.7446572e-05
0.0002947227
-5.3112683e-05
0.00033999705
-1.7337716e-05
0.00037613789
-1.2065961e-06
0.00040334498
-1.4863921e-05
0.00013923989
-9.4920124e-06
0.00016946721
-3.1375547e-05
0.00019830303
-7.6686783e-05
0.00023107258
-9.3350809e-05
0.00026934827
-7.127032e-05
0.00031289896
-2.8003732e-05
0.00035068451
-3.0825453e-06
0.00037804041
-1.6008977e-06
0.00040496059
-3.1843899e-05
0.00011826524
-2.1797494e-05
0.00015155266
-4.0095721e-05
0.0001781984
-8.8443265e-05
0.00021007252
-0.00010859852
0.00024633484
-8.863118e-05
0.00028672556
-4.0319461e-05
0.00032523375
-5.4688573e-06
0.00035309288
-2.6225909e-06
0.00037908936
-8.3155245e-06
0.00041329124
-6.562503e-05
0.00010018769
-4.461695e-05
0.00014109207
-4.974183e-05
0.00016120967
-0.00010049392
0.00019026132
-0.00012376542
0.00022525243
-0.00010565464
0.0002633723
-5.3557012e-05
0.00029997932
-9.6512842e-06
0.00032943539
-3.2113538e-06
0.00035370417
-1.4925228e-05
0.00038572683
-1.6934548e-05
0.00043024117
-0.00012581961
9.3894654e-05
-9.0127934e-05
0.00014570601
-5.8488909e-05
0.00014984985
-0.00010979104
0.00017051832
-0.00013861586
0.00020512334
-0.00012291939
0.00024252878
-6.7086893e-05
0.00027691537
-1.5929417e-05
0.00030627343
-3.9295006e-06
0.00033017315
-2.0862751e-05
0.00035966481
-3.1712392e-05
0.00040053294
-2.2499607e-05
0.00045275643
-0.00021863471
0.00011318428
-0.00016426376
0.00016803761
-5.9167726e-05
0.00014639512
-0.0001098274
0.00014989697
-0.00015195667
0.00018386939
-0.00014148816
0.00022370153
-8.0896083e-05
0.00025634832
-2.2285103e-05
0.00028328367
-5.6795766e-06
0.00030803992
-2.6093441e-05
0.00033542425
-4.5529431e-05
0.00037350576
-4.3466163e-05
0.00042152834
-2.2321489e-05
0.00047509381
-0.00033665427
0.00012436473
-0.00023136045
0.00018028783
-2.8133667e-05
0.00013701306
-8.5053941e-05
0.00012163171
-0.00015910159
0.00015705083
-0.00016359146
0.00020598025
-9.6249152e-05
0.00023906246
-2.7527157e-05
0.00026159989
-7.3634056e-06
0.00028498073
-3.0500781e-05
0.00031246481
-5.8605967e-05
0.00034852253
-6.3217853e-05
0.00039328246
-4.445951e-05
0.00044369585
-1.6732687e-05
0.00049184265
-0.00049031878
0.000154286
-0.00028040613
0.00017341709
5.5578419e-05
9.6583977e-05
-2.0332789e-05
7.2301556e-05
-0.00015522598
0.00011776364
-0.00019424294
0.00018770852
-0.00011697555
0.0002267125
-3.1067707e-05
0.00024260992
-7.3092386e-06
0.0002615561
-3.4727029e-05
0.00028922166
-7.0747687e-05
0.00032462599
-8.2092274e-05
0.00036742043
-6.5872554e-05
0.00041472172
-3.4542927e-05
0.00046153621
-8.2677183e-06
0.00050012677
-0.00067647098
0.00019289429
-0.00029780458
0.00017169129
0.00016225189
6.6750076e-05
6.8169043e-05
8.0920141e-06
-0.00015151311
6.8594811e-05
-0.00024735755
0.00017088381
-0.00015276406
0.00022350138
-3.3090254e-05
0.00022874
-2.9037424e-06
0.0002382124
-3.8241505e-05
0.00026508256
-8.289898e-05
0.00030138995
-0.000100545
0.0003431005
-8.6254794e-05
0.00038782806
-5.3305032e-05
0.00043351132
-1.8137512e-05
0.00047143672
-3.3613754e-07
0.00050047949
-0.00091428697
0.00025133178
-0.00028853101
0.00018362802
0.00030736047
2.6587018e-05
0.00017915606
-4.4226147e-05
-0.00017440507
3.0988822e-05
-0.0003437683
0.00016501135
-0.0002161934
0.00023431674
-3.2429435e-05
0.00022284426
1.031212e-05
0.00021553029
-3.9344747e-05
0.00023932509
-9.5865217e-05
0.00027806311
-0.0001192971
0.00032016151
-0.00010649659
0.00036336632
-7.1739759e-05
0.00040629002
-3.0718795e-05
0.00044612116
-2.1145923e-06
0.00047324628
4.2163961e-06
0.00049627972
-0.0012167183
0.00032164936
-0.00025948149
0.00022229014
0.00048746741
3.5231321e-06
0.00033545163
-0.0001296964
-0.00022690389
8.2767438e-06
-0.00048826495
0.00017549213
-0.00031937263
0.00026819436
-2.7833308e-05
0.00022972376
4.0467388e-05
0.000192694
-3.4231956e-05
0.00021042461
-0.00011016004
0.00025363119
-0.00013971414
0.00029849639
-0.0001274884
0.00034117473
-9.0144967e-05
0.00038179745
-4.5277405e-05
0.0004208773
-6.4334163e-06
0.00045046936
7.3519329e-06
0.00047014204
4.3709947e-06
0.00049192526
-0.0016214938
0.00046075889
-0.00023014081
0.00029231697
0.0007636064
-5.3848719e-05
0.00059386756
-0.00025487942
-0.00034407448
-1.2521669e-05
-0.00067765208
0.00019767162
-0.00046954584
0.00032567037
-1.2651404e-05
0.00025301548
9.8582202e-05
0.00017161363
-1.7883793e-05
0.00017635082
-0.00012599041
0.00022626298
-0.00016343721
0.00027736625
-0.00015047739
0.00032150241
-0.00010963229
0.00036068459
-6.0318152e-05
0.00039686519
-1.4920612e-05
0.00042939407
9.8611061e-06
0.00044798991
8.0132744e-06
0.00046653091
1.1782579e-06
0.00049076328
-0.0020807885
0.00054753863
-0.00015227783
0.00038290416
0.0011804527
-0.00012453048
0.00094967006
-0.00040963724
-0.00052290282
-7.604585e-05
-0.00094014465
0.00024997939
-0.00067612757
0.00040426058
1.6512572e-05
0.00029650929
0.00020109771
0.00015050505
2.0015298e-05
0.0001337176
-0.00014309068
0.00019345588
-0.00019283251
0.00025566534
-0.00017740913
0.00030430897
-0.00013065953
0.00034254617
-7.6064599e-05
0.00037645344
-2.5776797e-05
0.00040774857
9.6199462e-06
0.00042966504
1.1911892e-05
0.00044412088
2.2309134e-06
0.00046550908
-3.2175409e-06
0.00049399667
-0.0026961178
0.00073793511
-7.6638396e-05
0.00047190692
0.0018113397
-0.00024798463
0.0014484276
-0.00062327417
-0.00076999924
-0.00016253367
-0.001348436
0.00033225421
-0.00095352231
0.00052738404
7.9582782e-05
0.00034119292
0.0003656769
0.00013193579
9.3283025e-05
7.723871e-05
-0.00015948526
0.00015011407
-0.00023068437
0.00023130991
-0.00021186423
0.00029012453
-0.0001544102
0.00032806811
-9.1852355e-05
0.00035834843
-3.6444954e-05
0.0003871427
5.5800476e-06
0.0004118149
1.5344273e-05
0.000426262
2.8837988e-06
0.00044349702
-5.6925596e-06
0.00046801431
-6.8402912e-06
0.00050085231
-0.0033466442
0.00078500474
5.9414838e-05
0.00060188876
0.0026246179
-0.00034137319
0.0021008899
-0.00090043352
-0.0011096658
-0.00028359822
-0.0019705309
0.00045957015
-0.0013144296
0.00069317375
0.00019617683
0.00041079211
0.00062314374
8.3731919e-05
0.00023153861
-6.3197954e-06
-0.00017087128
8.862413e-05
-0.00028020817
0.00019963608
-0.00025995956
0.00027940299
-0.0001835417
0.000319256
-0.00010720842
0.00034342877
-4.5591999e-05
0.00036750674
5.727662e-07
0.00039216882
1.6824856e-05
0.00041035915
3.5371621e-06
0.00042563696
-9.7058422e-06
0.00044753837
-1.2333605e-05
0.00047353724
-8.6037756e-06
0.00050947081
-0.0042227201
0.001104811
0.0001569431
0.0006874825
0.0037596565
-0.00053315154
0.0029787122
-0.0012191825
-0.0015804466
-0.00042964137
-0.0028759114
0.00062179185
-0.0018017384
0.00094689262
0.00037424711
0.00051510556
0.0010331889
7.518789e-07
0.00044355568
-0.00012828598
-0.00016356211
-1.3631843e-05
-0.00034523389
0.00015364579
-0.00033308596
0.00027275568
-0.0002234777
0.00031933234
-0.00012180921
0.00033385198
-5.117104e-05
0.00034900783
-2.9604425e-06
0.00037104741
1.7191991e-05
0.00039181753
3.0240617e-06
0.00041089486
-1.4351832e-05
0.00043030983
-1.9653931e-05
0.00045488558
-1.6218449e-05
0.00048118083
-8.2846947e-06
0.00051776965
-0.005014219
0.0012897225
0.00044136018
0.00082039918
0.0050291045
-0.00058196724
0.0041000725
-0.0016544987
-0.0021785291
-0.00062108736
-0.0041579364
0.00085239459
-0.0024669005
0.0012869675
0.00066016228
0.00066098023
0.0016292702
-8.0972854e-05
0.00076284255
-0.0003185359
-0.00015397802
-0.00013787496
-0.00044641155
8.7541532e-05
-0.00045129501
0.0002718462
-0.00028495021
0.00033421849
-0.00013585918
0.00033337145
-4.9786533e-05
0.00033245811
-1.7801268e-06
0.00034782311
1.7608358e-05
0.00037063442
5.189706e-07
0.00039433515
-1.9545291e-05
0.00041610841
-2.8865104e-05
0.00043954626
-2.473834e-05
0.00046343102
-1.698187e-05
0.00048990645
-6.0650607e-06
0.00052384822
-0.0060817942
0.0014843159
0.00091943791
0.0008116495
0.0068448269
-0.00099532498
0.0055553734
-0.0020372549
-0.0030121647
-0.00082085014
-0.0058936728
0.0011146618
-0.0033330525
0.0017185592
0.001090824
0.00085630975
0.0024873025
-0.00019705194
0.0012551887
-0.00057331947
-0.00017384431
-0.00029867588
-0.00061353275
2.9243548e-05
-0.00064993915
0.00028617806
-0.0003858713
0.0003727589
-0.00015028583
0.0003486334
-3.5966611e-05
0.00031953793
9.1284952e-06
0.00032153659
1.990123e-05
0.00034552194
-3.634387e-06
0.0003747873
-2.7432553e-05
0.00040223168
-3.8685009e-05
0.00042594579
-3.6020602e-05
0.00045085216
-2.557782e-05
0.0004720512
-1.4049176e-05
0.00049791863
-2.1830027e-06
0.0005260442
-0.0072028325
0.0016429868
0.001330463
0.001073295
0.0089655702
-0.0013090953
0.00703286
-0.0024727981
-0.0039481469
-0.0011012596
-0.0082334735
0.001518965
-0.0044779917
0.0022596122
0.0017151971
0.0010941907
0.0036821634
-0.00033855321
0.0019653683
-0.00090723171
-0.00020118458
-0.00054598546
-0.0009113869
-8.218512e-07
-0.00094641917
0.00032571969
-0.0005521931
0.00045249623
-0.00016663118
0.0003890969
-1.1251975e-07
0.00031276771
3.7392562e-05
0.00029125896
2.7299367e-05
0.00031412321
-8.9424574e-06
0.00035081851
-3.8576176e-05
0.00038592711
-5.094934e-05
0.00041450235
-4.9130143e-05
0.00043907041
-3.6124973e-05
0.00046142151
-2.2155556e-05
0.00048018055
-6.7441265e-06
0.00050250778
2.9790461e-06
0.00052307757
-0.0083976021
0.0023914247
0.0017407015
0.0012327518
0.01160963
-0.0015707654
0.0086608189
-0.0029370412
-0.0051737015
-0.0012472303
-0.011210728
0.0018760105
-0.0058721157
0.0029130993
0.0025634393
0.0014113742
0.0052894332
-0.00051308206
0.0029681437
-0.0013413299
-0.00021937154
-0.00088904901
-0.0014029837
-5.4386516e-05
-0.001356364
0.00040912497
-0.00080040757
0.00057393672
-0.00018373256
0.00046959814
7.254786e-05
0.00031643168
9.4625408e-05
0.00025552442
4.5579799e-05
0.00027296342
-1.4379963e-05
0.00031954392
-5.364477e-05
0.00036587331
-6.7127658e-05
0.00040209905
-6.4055372e-05
0.00042943151
-4.9572473e-05
0.00045253089
-3.0253861e-05
0.00046954085
-1.2623026e-05
0.00048608127
4.1052036e-06
0.00050140977
8.5750315e-06
0.00051451449
-0.0089739577
0.0023766556
0.003042341
0.0010897877
0.014593115
-0.0017507327
0.010522664
-0.0034325982
-0.0066627644
-0.0014479649
-0.014949332
0.0024913885
-0.0076819472
0.0036858522
0.0037151894
0.0017613518
0.0074281716
-0.00072736604
0.0043379285
-0.0018828707
-0.00021755468
-0.0013431472
-0.0021400012
-0.00015202848
-0.0019634261
0.00055268435
-0.0011396661
0.00074839142
-0.00020028084
0.000590494
0.00020570632
0.00033644275
0.00019839295
0.00021266162
8.4110988e-05
0.00021698364
-1.793196e-05
0.00027650019
-7.3676137e-05
0.0003395575
-8.8838442e-05
0.00038756885
-8.2684104e-05
0.00042071951
-6.4929696e-05
0.00044479088
-4.0825641e-05
0.00046311396
-1.8093389e-05
0.00047503142
2.3368554e-06
0.00048787037
1.569883e-05
0.00049431458
1.3407035e-05
0.00050111891
-0.0092703267
0.0021877434
0.004999306
0.00041969207
0.018625259
-0.0029423545
0.012517693
-0.00374575
-0.0082668818
-0.0018284669
-0.019582544
0.0031852631
-0.0097076668
0.004517119
0.0051777703
0.0022232719
0.010182189
-0.00099266494
0.006181534
-0.0025709788
-0.00018212757
-0.0019182938
-0.0031845529
-0.0002985928
-0.0028769258
0.00076148591
-0.0016158255
0.001028855
-0.00020875396
0.00075687959
0.00041813617
0.0003780724
0.00037890136
0.00015593831
0.00015774736
0.00013902188
-1.6080722e-05
0.00021512246
-0.00010057907
0.00030338717
-0.00011869497
0.00036939584
-0.00010704479
0.00041191336
-8.3735736e-05
0.00043951618
-5.4548166e-05
0.00045851435
-2.5716225e-05
0.00047074673
-1.3118884e-06
0.00047869979
1.897534e-05
0.0004846136
2.516458e-05
0.00048258629
1.6705595e-05
0.00048442434
-0.0092864473
0.0020265821
0.0069928384
0.00019421107
0.023037282
-0.0039923276
0.013846643
-0.0042712937
-0.0098913437
-0.0021212742
-0.025100721
0.0036897265
-0.01186723
0.005344838
0.0070946552
0.002600233
0.013737817
-0.0013323534
0.0086085959
-0.003419737
-0.00011172515
-0.0026413741
-0.0046075463
-0.00049529756
-0.0042194856
0.0010439847
-0.0022926676
0.0014383406
-0.00019663638
0.0010167538
0.00074038176
0.00043464277
0.00067526562
8.171285e-05
0.00028620999
2.7474079e-05
-3.3374051e-06
0.00012627187
-0.00013723705
0.00025176773
-0.00016110126
0.00034577675
-0.00014039814
0.00040273042
-0.00010777905
0.00043594022
-7.2174999e-05
0.00045713305
-3.7474058e-05
0.00047027239
-6.4597887e-06
0.00047590349
1.8579837e-05
0.00047911457
3.4188553e-05
0.00047560837
3.1427043e-05
0.00046789502
1.8449156e-05
0.00046598572
-0.0091599622
0.0022728287
0.0092140273
-0.00019460772
0.027778473
-0.0045469769
0.01436556
-0.0045112338
-0.011927616
-0.0022350082
-0.030594476
0.0033724982
-0.014438722
0.0062612317
0.0094800693
0.0029594222
0.018162399
-0.0018243445
0.011709099
-0.0044328675
-2.3697077e-05
-0.0035077579
-0.0064945094
-0.00075440674
-0.006126974
0.0014122073
-0.0032557066
0.0020070374
-0.00015382258
0.0013955392
0.0012412649
0.00051587585
0.0011251948
-1.5288029e-05
0.00049851775
-0.00013060182
2.632552e-05
-2.1989719e-06
-0.00018890513
0.00017792622
-0.00022381102
0.0003144618
-0.00018878962
0.00039414988
-0.00014066617
0.0004355986
-9.4888015e-05
0.00045863685
-5.2637502e-05
0.00047228629
-1.4042752e-05
0.00047785518
1.7231292e-05
0.00047725989
3.9016023e-05
0.00047430618
4.4425711e-05
0.00046262745
3.4992572e-05
0.00045138286
1.886484e-05
0.00044713092
-0.0089044518
0.0023056801
0.011527297
-4.0443207e-05
0.032232239
-0.0046483692
0.013926055
-0.0041074602
-0.014987752
-0.0014510855
-0.037386642
0.0045571766
-0.018475337
0.0074091263
0.012083669
0.0036576294
0.023539321
-0.002417496
0.01551024
-0.0056254956
8.8467721e-05
-0.0045450287
-0.0089412477
-0.0010610114
-0.0087602837
0.0018789142
-0.0045981297
0.0027546459
-6.9670133e-05
0.0019228902
0.0019997526
0.00063705175
0.0017957949
-0.00015473672
0.00083532151
-0.00035210924
6.9924912e-05
-0.00017422194
-0.0002676737
7.6548046e-05
-0.00032229676
0.00027639199
-0.00026461339
0.00039026607
-0.0001889487
0.00044241274
-0.00012456245
0.00046525417
-7.0931331e-05
0.00047691443
-2.386168e-05
0.00048209504
1.4255624e-05
0.00048083038
4.1191576e-05
0.00047509116
5.4262568e-05
0.00046448836
5.0075551e-05
0.00044756113
3.6023706e-05
0.00043425649
1.8221585e-05
0.00042891882
-0.0085552062
0.0022513151
0.013926387
-9.3414066e-05
0.037096363
-0.0049045609
0.012878956
-0.0036012593
-0.018798691
-0.00029650914
-0.046080086
0.0072423761
-0.022740304
0.0088221576
0.014143427
0.0053493656
0.030092801
-0.0028958501
0.020007975
-0.00691524
0.00013374048
-0.0056707708
-0.012042805
-0.0014434591
-0.012290631
0.0024693407
-0.0064450169
0.0037258189
6.8448797e-05
0.0026165256
0.0031126531
0.00080998532
0.0027833176
-0.00035049334
0.0013379384
-0.00065738217
0.0001518485
-0.00043406631
-0.00038825843
-5.3670972e-05
-0.00048148434
0.00023570606
-0.00038283246
0.00039458575
-0.00025989155
0.00046118667
-0.00016360793
0.00048143811
-9.2501812e-05
0.00048680576
-3.523143e-05
0.00048826835
9.7699884e-06
0.00048657051
4.1144803e-05
0.00048087633
5.9961128e-05
0.00046939836
6.2720883e-05
0.00045186213
5.2317326e-05
0.00043128295
3.5044153e-05
0.00041746772
1.6894756e-05
0.00041203296
-0.0081579335
0.0021438427
0.016310359
-0.00013266136
0.042124383
-0.0051214285
0.012020474
-0.0040460672
-0.022591569
0.00019163108
-0.054471416
0.0080948399
-0.024584374
0.0090864599
0.017351393
0.0056141867
0.038565435
-0.0031232705
0.025360127
-0.0082480095
9.5695776e-05
-0.0068772036
-0.015899808
-0.0018137522
-0.016926652
0.0031925635
-0.0089083073
0.0049326488
0.00027502757
0.0035192371
0.0046866717
0.0010424989
0.0042080422
-0.00061476484
0.0020624524
-0.0010750429
0.00029135132
-0.00079692586
-0.00056904125
-0.00025332701
-0.00070483787
0.00016964341
-0.00055144346
0.00040428373
-0.00036234515
0.00049701146
-0.00021491341
0.00051246964
-0.00011703561
0.00050595149
-4.6970368e-05
0.00049852626
4.4447914e-06
0.00049357818
4.0256312e-05
0.00048744855
6.2314036e-05
0.00047852218
7.1551122e-05
0.00046057281
6.6307897e-05
0.00043789075
5.1384011e-05
0.00041495711
3.3210161e-05
0.00040118751
1.5406176e-05
0.00039663503
-0.0077371409
0.0019320659
0.018565984
-0.00011178695
0.047161981
-0.0051702531
0.011044054
-0.0041449932
-0.025675263
-0.00096236063
-0.062549395
0.0082696257
-0.024503038
0.0080135181
0.022290099
0.0041477489
0.048021123
-0.0038415088
0.032050653
-0.0098138034
-6.310709e-05
-0.0080892181
-0.020604304
-0.0021726938
-0.022881852
0.0041414509
-0.012142848
0.006427119
0.00058513164
0.0046225469
0.0068673479
0.0013385494
0.0062060066
-0.00095548586
0.0030822697
-0.001634618
0.00050137492
-0.0012851043
-0.00081788446
-0.00054812687
-0.0010508646
9.2658758e-05
-0.00078990238
0.00040806528
-0.0005132506
0.00055515694
-0.00028467559
0.00056674792
-0.00014388177
0.00053929376
-5.6465212e-05
0.0005154267
4.1800634e-07
0.00050253536
3.9390425e-05
0.00049442885
6.5433451e-05
0.00048431806
7.9382902e-05
0.00047068888
7.5577689e-05
0.00045130656
6.6063919e-05
0.00042323005
4.8479856e-05
0.00039969981
3.1326972e-05
0.00038530332
1.3801719e-05
0.00038284085
-0.0073395193
0.0016394326
0.020605245
-0.00010720028
0.052090387
-0.0050401868
0.0099367563
-0.0040629391
-0.028902397
-0.0009178441
-0.070907122
0.0073953842
-0.023711471
0.0074780712
0.027047791
0.0032558228
0.057511041
-0.0053421797
0.039427535
-0.011218398
-0.00017646146
-0.0097004598
-0.026155276
-0.0025382342
-0.030431305
0.0053767695
-0.016234851
0.0082334626
0.0010327277
0.0059795342
0.0097953392
0.0016945414
0.0089442889
-0.0013997431
0.0044823044
-0.002355551
0.00079332772
-0.0019265965
-0.0011605598
-0.00094246273
-0.0015734655
-2.5557029e-05
-0.0011553571
0.0004580831
-0.00074852151
0.00064330702
-0.00038545886
0.00065591528
-0.00017330677
0.00059615039
-6.010508e-05
0.00054291384
2.9412045e-06
0.00051288542
4.1133298e-05
0.00050077541
6.6737223e-05
0.00049310958
8.2141744e-05
0.00048154759
8.4758869e-05
0.0004615061
7.9288443e-05
0.00043808421
6.2696604e-05
0.00040903242
4.5199223e-05
0.00038583816
2.75333e-05
0.00037160978
1.2226019e-05
0.0003706216
-0.0069792767
0.0012777225
0.022323947
-7.9273254e-05
0.056695536
-0.004712343
0.0088211212
-0.003924536
-0.03215872
-0.00080659985
-0.079290506
0.0074655561
-0.024492701
0.0081766245
0.032087741
0.0024381174
0.067323737
-0.0065568886
0.046954595
-0.012869247
0.00054852847
-0.011943394
-0.032271518
-0.003584211
-0.039592143
0.0066226217
-0.021225406
0.010367329
0.0017752806
0.007490928
0.013655126
0.0021197326
0.012604518
-0.0019656907
0.0063478189
-0.0032652786
0.0011935031
-0.0027557385
-0.0016252322
-0.00146194
-0.0023184248
-0.0001975167
-0.0017351004
0.00055417332
-0.0010782877
0.00078783331
-0.00054094424
0.00079877655
-0.00020511285
0.00068770335
-5.105315e-05
0.00058708082
1.8288395e-05
0.00052754998
5.071246e-05
0.00050328987
7.1123974e-05
0.00049637159
8.5136102e-05
0.00049009933
9.0217165e-05
0.00047607741
8.6337858e-05
0.00045445502
7.4775858e-05
0.00042600544
5.7965333e-05
0.00039628526
4.0353235e-05
0.00037302688
2.4413725e-05
0.00035946151
1.0942773e-05
0.00035968478
-0.006657867
0.00092412586
0.023702585
-0.00010091759
0.060772586
-0.0041563164
0.0077218583
-0.0036130648
-0.035285995
-0.00079724416
-0.087491886
0.0073947965
-0.025373955
0.0083468164
0.034651408
0.005612955
0.077297983
-0.0075361427
0.05415278
-0.013755084
-0.00025481846
-0.012065901
-0.03900857
-0.0052063377
-0.050383698
0.0072073646
-0.026962088
0.012359308
0.0030194254
0.0091232026
0.018613037
0.002533007
0.017408668
-0.0026844207
0.0087619745
-0.0043798565
0.0017161392
-0.00378792
-0.0022433776
-0.0021375905
-0.0033485528
-0.00043180852
-0.002606125
0.00067351562
-0.0015565382
0.0010324263
-0.00075486932
0.0010017585
-0.00024355473
0.00083721147
-1.9260769e-05
0.00065589976
5.770422e-05
0.00054765218
7.6654758e-05
0.00050159399
8.2627784e-05
0.0004917708
8.9493106e-05
0.00049199693
9.3715719e-05
0.00048658512
9.1934214e-05
0.00047046918
8.394567e-05
0.00044528326
7.0058827e-05
0.00041391048
5.2762165e-05
0.00038389513
3.6276374e-05
0.00036117089
2.1877526e-05
0.0003485675
1.007794e-05
0.0003496119
-0.0064488144
0.00053691784
0.024783233
-0.00015652335
0.06410355
-0.0034318739
0.0067269687
-0.003161412
-0.038216944
-0.0006820978
-0.095426389
0.0071372769
-0.02613717
0.0081580157
0.037159328
0.0058388897
0.086996334
-0.0040854061
0.060750351
-0.014133727
-0.0025409132
-0.011468987
-0.045951051
-0.005123418
-0.063225178
0.0076351611
-0.033995553
0.014240834
0.0046057355
0.010773008
0.024863865
0.00287237
0.023540689
-0.0035990253
0.01179988
-0.0057223275
0.0023796101
-0.0050433344
-0.003040624
-0.0029906586
-0.0047539243
-0.00073220785
-0.0038588763
0.00082096445
-0.0022704209
0.0013874145
-0.0010410532
0.0013186252
-0.00029060081
0.0010488104
5.1051922e-05
0.0007668969
0.00013522886
0.00057836853
0.00013120237
0.00049309503
0.00010917796
0.00047503253
9.8325256e-05
0.00048292298
9.5898655e-05
0.0004897963
9.4511021e-05
0.00048399359
8.9491627e-05
0.00046491108
7.9183501e-05
0.00043615609
6.4602031e-05
0.00040206711
4.7814406e-05
0.00037237581
3.2784675e-05
0.00035026832
2.0206649e-05
0.00033848075
9.7309428e-06
0.00033988507
0.00016292534
-0.0064384842
0.025383681
-6.3530691e-05
0.066622281
-0.0026752449
0.0058212321
-0.0025261228
-0.040791944
-0.00058639374
-0.10279133
0.0066828681
-0.026858675
0.0078587858
0.039437086
0.0058802531
0.096969469
-0.0041342548
0.07026895
-0.013604019
-0.0061184412
-0.0105562
-0.053234797
-0.0041852374
-0.076862324
0.0085137405
-0.043402432
0.017042046
0.005666512
0.013180057
0.032446772
0.0031901008
0.03113917
-0.0047261298
0.015492768
-0.0072919089
0.0031853177
-0.0065280462
-0.004042959
-0.004040981
-0.0066060522
-0.0011385201
-0.0055995388
0.0010084775
-0.0033212192
0.001871781
-0.001446507
0.0017928869
-0.00032290617
0.0013509427
0.00016327807
0.00093658818
0.00027718443
0.00062494032
0.00023187133
0.00047769354
0.00016157676
0.00044068964
0.00011717858
0.00045616752
9.8726011e-05
0.00048007963
9.3492225e-05
0.0004907986
9.0750471e-05
0.00048272092
8.4534062e-05
0.00045954764
7.3502464e-05
0.00042725251
5.7976866e-05
0.00039189919
4.3823229e-05
0.00036135598
3.0451031e-05
0.00034002645
1.9490005e-05
0.00032876466
9.8113364e-06
0.00033007688
1.8344297e-05
0.025528263
-0.00016622052
-0.0065499437
0.068188881
-0.00163012
0.0050238376
-0.001877836
-0.042933521
-0.00038452915
-0.1093561
0.0059783892
-0.027345801
0.0071699978
0.041461926
0.0058339374
0.10698305
-0.0041333325
0.07976613
-0.013631449
-0.0057222373
-0.014000225
-0.062739919
-0.0010510725
-0.092496558
0.011449005
-0.055456573
0.020567888
0.0062300672
0.016478485
0.041258287
0.0043685423
0.040486275
-0.0061570245
0.019872598
-0.0091059562
0.0041133915
-0.0082199927
-0.0052564081
-0.0053145825
-0.0090038257
-0.0016431989
-0.0079733334
0.0012352879
-0.0048257278
0.0025129963
-0.002028995
0.0024542772
-0.00033438007
0.0018043671
0.00035654802
0.0011576728
0.00051048672
0.00070328399
0.00040498368
0.00045182175
0.00025816985
0.00038109576
0.00015499104
0.00040286982
0.00010549484
0.00044938545
8.9054897e-05
0.00048450247
8.6446302e-05
0.00049508764
8.4810823e-05
0.00048243055
7.8804306e-05
0.00045423185
6.7814354e-05
0.0004174114
5.4275822e-05
0.00038143943
4.1041304e-05
0.00035078453
2.939266e-05
0.00033012421
1.9450489e-05
0.00031916935
1.0233175e-05
0.00031984583
-0.00061919433
0.068826432
4.9503679e-05
0.025312541
-0.00052064658
-0.0068438895
0.004573522
-0.0011797894
-0.04464826
-0.0001630806
-0.11480967
0.0050690663
-0.027614683
0.006247277
0.043096416
0.0055354961
0.11675072
-0.0039337402
0.089146013
-0.013513233
-0.0049612216
-0.014392465
-0.068817751
-0.0079223871
-0.10730458
0.013756954
-0.066694047
0.022686493
0.0077117954
0.019086156
0.051630039
0.0061067314
0.052421167
-0.0075663642
0.024833938
-0.011118363
0.0051255132
-0.01011808
-0.0066932408
-0.0067831518
-0.012023579
-0.0022948182
-0.011123143
0.0015066111
-0.0069343281
0.0033438893
-0.0028543297
0.0033383213
-0.00032221784
0.0024421065
0.00069080698
0.0014700946
0.00085840743
0.00080974083
0.00069073811
0.00041751639
0.0004192576
0.00029072603
0.00022413294
0.00031194777
0.0001209651
0.00038738879
8.1473822e-05
0.00045695452
7.5030754e-05
0.00049590578
7.8113992e-05
0.0005017699
7.8700173e-05
0.0004825208
7.3487563e-05
0.00044854366
6.336222e-05
0.00040832123
5.143428e-05
0.00037103778
3.9707953e-05
0.00034048821
2.9359029e-05
0.00032021405
2.023073e-05
0.00030921626
1.097862e-05
0.00030886836
-0.00036450275
0.0043188465
0.00055333421
0.068322615
0.00017428579
0.024617611
-0.00092365263
-0.0072380067
-0.045605783
-0.00022225042
-0.11897243
0.0039996992
-0.027621521
0.0050759113
0.044392239
0.0049514409
0.12583494
-0.0035487354
0.098287445
-0.01307519
-0.0042560379
-0.014218425
-0.07428197
-0.0089282336
-0.12109022
0.005863266
-0.073463977
0.020526892
0.012593624
0.017804666
0.063844344
0.0068718506
0.067413551
-0.0088856604
0.030699075
-0.013431495
0.006123965
-0.012116808
-0.0083185038
-0.0084928143
-0.015751268
-0.0030554474
-0.015213507
0.0017955356
-0.0098252811
0.0043975606
-0.0040152906
0.0045048253
-0.00027718519
0.0032932665
0.0012202643
0.001912621
0.0013984113
0.00093006675
0.0011243641
0.0003760913
0.00068498515
0.00015177236
0.0003448191
0.00017003169
0.00015112509
0.00028177659
7.0784193e-05
0.00039806841
5.4186331e-05
0.0004777899
6.1445645e-05
0.00051256328
7.0757768e-05
0.00050969753
7.3696791e-05
0.00048229718
6.9517851e-05
0.00044237232
6.0681729e-05
0.0003990702
5.0267237e-05
0.00036046857
3.9814177e-05
0.00033005219
3.0442987e-05
0.00030999819
2.1602415e-05
0.00029863738
1.1853675e-05
0.00029701484
-7.6275741e-05
-0.045893994
0.00053334121
0.0043388569
0.0016517313
0.066845184
0.00020017899
0.023493781
-0.0012984037
-0.0076500024
-0.12166287
0.0024682005
-0.027336549
0.0037147344
0.045356039
0.0041120971
0.13388954
-0.0031031663
0.10711308
-0.012374388
-0.0033980844
-0.013933152
-0.079954221
-0.0085461635
-0.13584552
0.0058270718
-0.085219336
0.01761863
0.017670153
0.015450362
0.075013177
0.0066358331
0.084049174
-0.00976378
0.037614345
-0.01580092
0.0069990192
-0.014306538
-0.01009462
-0.010340693
-0.020243793
-0.0040002748
-0.020398035
0.0021290624
-0.013760692
0.0057309397
-0.0056120947
0.0059943328
-0.00018201013
0.004409622
0.0020097434
0.0025037541
0.0022238848
0.0010871167
0.0017503709
0.00030403067
0.0011055122
-4.4459396e-05
0.00053590727
-3.9327167e-05
0.00020545764
0.00011568675
5.8104564e-05
0.00029444587
2.0610396e-05
0.0004316388
3.0507327e-05
0.0005087215
5.1028371e-05
0.00053228248
6.578023e-05
0.00051759877
7.0709547e-05
0.00048109087
6.7641857e-05
0.00043539612
6.0008622e-05
0.00038932569
5.0791999e-05
0.00034947973
4.1226274e-05
0.0003192882
3.2360903e-05
0.00029923427
2.3215213e-05
0.00028732095
1.282463e-05
0.00028418947
0.00083128175
-0.12257041
-4.6982523e-05
-0.045313653
0.00099079409
0.0049998128
0.0026249606
0.064420416
0.00012791939
0.02206746
-0.0016643516
-0.008092585
-0.02734823
0.0024798893
0.046050864
0.0030198943
0.14055084
-0.0025492127
0.11529476
-0.01128485
-0.0027486205
-0.013023861
-0.085063825
-0.0088235368
-0.15061915
0.0062274643
-0.097967197
0.018574931
0.013453445
0.02183533
0.084429439
0.0060341026
0.10083392
-0.010148927
0.045892676
-0.018042097
0.0076738447
-0.016475731
-0.01204494
-0.012356223
-0.025206559
-0.0053779176
-0.026811903
0.0024135645
-0.019006649
0.0073750037
-0.0077801908
0.0078990026
3.3114023e-07
0.0058119605
0.0031556025
0.0032637361
0.0034334292
0.0012941828
0.0026542509
0.00018321339
0.0017169706
-0.0003074496
0.00082808407
-0.00033664557
0.00029451377
-0.00012839353
4.3399969e-05
0.0001303816
-3.0528436e-05
0.00034558172
-2.0798785e-05
0.00048294316
1.3861692e-05
0.00054588325
4.5381149e-05
0.00055267176
6.4058503e-05
0.00052423416
7.0365942e-05
0.00047835224
6.8213549e-05
0.00042717508
6.1501691e-05
0.00037861343
5.2748931e-05
0.00033794516
4.369079e-05
0.00030797774
3.4718535e-05
0.00028772381
2.5163328e-05
0.00027502741
1.3802184e-05
0.00027038568
0.0010286816
-0.027545622
-0.0010110883
-0.12160629
0.00026228125
-0.044585122
0.0018231327
0.0058016606
0.0034175955
0.061130754
0.00012414488
0.020278965
-0.0019565486
-0.0085367611
0.046571365
0.0019593731
0.14529778
-0.0017270677
0.12263483
-0.009889287
-0.0025420138
-0.011491467
-0.089740495
-0.0083471792
-0.16554318
0.0061005006
-0.10933613
0.017596401
0.0098410618
0.022187303
0.086022078
0.020242694
0.11694214
-0.010074116
0.055282531
-0.019538775
0.0082718993
-0.01864013
-0.014322303
-0.014198382
-0.031022585
-0.0065401932
-0.035333988
0.0031441352
-0.025997148
0.0094040325
-0.010605365
0.010200147