/*--------------------------------*- C++ -*----------------------------------*\
| =========                 |                                                 |
| \\      /  F ield         | OpenFOAM: The Open Source CFD Toolbox           |
|  \\    /   O peration     | Version:  5.0                                   |
|   \\  /    A nd           | Web:      www.OpenFOAM.org                      |
|    \\/     M anipulation  |                                                 |
\*---------------------------------------------------------------------------*/
FoamFile
{
    version     2.0;
    format      ascii;
    class       volVectorField;
    location    "240";
    object      ddtCorrDdt0(U);
}
// * * * * * * * * * * * * * * * * * * * * * * * * * * * * * * * * * * * * * //

dimensions      [0 1 -2 0 0 0 0];

internalField   nonuniform List<vector> 
9520
(
(-0.00025368318 -9.5267174e-07 0)
(-0.00025132889 -2.1559159e-06 0)
(-0.0002513242 -1.1966769e-06 0)
(-0.00024666247 -2.6541607e-06 0)
(-0.00024985872 -3.6905156e-06 0)
(-0.00024910652 2.4625165e-06 0)
(-0.00023951022 -2.5953519e-06 0)
(-0.00024616071 -5.6539692e-06 0)
(-0.00024740493 6.0949686e-06 0)
(-0.00025895408 7.8826866e-06 0)
(-0.00023003362 -1.7155501e-06 0)
(-0.00024044395 -7.0306592e-06 0)
(-0.00024383573 8.968265e-06 0)
(-0.00025604126 2.2136235e-05 0)
(-0.00027255372 1.0053675e-05 0)
(-0.00021872321 -4.4439265e-07 0)
(-0.00023256795 -6.4075414e-06 0)
(-0.00023934747 1.1487869e-05 0)
(-0.0002515656 3.4774594e-05 0)
(-0.00026927647 2.9903835e-05 0)
(-0.00028912317 8.1292315e-06 0)
(-0.00020527233 1.1946716e-06 0)
(-0.00022259359 -4.1955443e-06 0)
(-0.00023364655 1.470345e-05 0)
(-0.00024645809 4.6359244e-05 0)
(-0.00026465095 4.8769416e-05 0)
(-0.00028696637 2.57094e-05 0)
(-0.00029970157 3.6701917e-06 0)
(-0.00018884436 3.7208257e-06 0)
(-0.00021094518 -6.0570652e-07 0)
(-0.00022585974 1.9132004e-05 0)
(-0.00024097491 5.6486357e-05 0)
(-0.00025900183 6.7007134e-05 0)
(-0.00028362451 4.3791941e-05 0)
(-0.00029897618 1.276417e-05 0)
(-0.00030113638 4.8165229e-07 0)
(-0.00016772475 8.2283047e-06 0)
(-0.00019823398 4.6224826e-06 0)
(-0.00021663819 2.4951178e-05 0)
(-0.00023436897 6.6506604e-05 0)
(-0.00025303307 8.2984949e-05 0)
(-0.00027846734 6.2541538e-05 0)
(-0.00029716011 2.3162835e-05 0)
(-0.0003018855 2.0907499e-06 0)
(-0.00030098539 1.1558551e-06 0)
(-0.00013891632 1.7130731e-05 0)
(-0.00018636374 1.2517969e-05 0)
(-0.00020759269 3.2145956e-05 0)
(-0.00022677509 7.7152091e-05 0)
(-0.00024696367 9.7914367e-05 0)
(-0.00027231623 8.0411191e-05 0)
(-0.00029314455 3.4988853e-05 0)
(-0.00030164633 4.5105986e-06 0)
(-0.00030170869 2.3943793e-06 0)
(-0.00030373826 5.3645513e-06 0)
(-9.7945761e-05 3.7921488e-05 0)
(-0.00017902938 2.7004244e-05 0)
(-0.00020261963 4.0656781e-05 0)
(-0.00021857905 8.8631836e-05 0)
(-0.00024056482 0.00011255892 0)
(-0.00026668702 9.7592318e-05 0)
(-0.0002880785 4.8708188e-05 0)
(-0.0003002477 7.3328105e-06 0)
(-0.00030134055 3.4470736e-06 0)
(-0.00030368014 1.3738877e-05 0)
(-0.00031330434 1.0682854e-05 0)
(-5.4171002e-05 7.5042228e-05 0)
(-0.00018556922 5.4585371e-05 0)
(-0.00020904675 4.9960974e-05 0)
(-0.00021008645 9.9894972e-05 0)
(-0.00023284384 0.0001273207 0)
(-0.00026140472 0.00011461106 0)
(-0.00028396984 6.2785376e-05 0)
(-0.00029670217 1.3482478e-05 0)
(-0.00030146863 3.7539515e-06 0)
(-0.00030277643 2.0807182e-05 0)
(-0.0003121868 2.9613876e-05 0)
(-0.0003289482 1.4169376e-05 0)
(-3.6842663e-05 0.00013693262 0)
(-0.00022780438 0.00010153767 0)
(-0.00024173236 5.6803869e-05 0)
(-0.00020279024 0.00010613187 0)
(-0.00022041772 0.00014135141 0)
(-0.00025557116 0.00013211312 0)
(-0.0002811736 7.693323e-05 0)
(-0.00029324984 2.0732301e-05 0)
(-0.00030142838 5.0978009e-06 0)
(-0.00030181621 2.752344e-05 0)
(-0.00031128846 4.6454872e-05 0)
(-0.00032722328 4.1319845e-05 0)
(-0.00034687034 1.4101049e-05 0)
(-1.6257596e-05 0.00022780495 0)
(-0.00032082043 0.00017926013 0)
(-0.00029432635 5.2972868e-05 0)
(-0.00019292873 9.6305132e-05 0)
(-0.00019826846 0.00015183363 0)
(-0.00024694099 0.00015170588 0)
(-0.00028020122 9.1551537e-05 0)
(-0.00029036073 2.735583e-05 0)
(-0.00029817141 7.4395065e-06 0)
(-0.00030076869 3.2973117e-05 0)
(-0.00031047021 6.2983785e-05 0)
(-0.00032636368 6.6768768e-05 0)
(-0.00034563545 4.2953483e-05 0)
(-0.00036235205 1.0549271e-05 0)
(-8.2088302e-06 0.00033498737 0)
(-0.00038327171 0.00022459957 0)
(-0.00028053706 1.5928613e-06 0)
(-0.00014341248 6.0954497e-05 0)
(-0.00014681116 0.0001552375 0)
(-0.000227071 0.00017613949 0)
(-0.00028177208 0.00010867414 0)
(-0.0002899578 3.2308497e-05 0)
(-0.00029319905 9.0004502e-06 0)
(-0.00029749673 3.7945501e-05 0)
(-0.00030906697 7.810436e-05 0)
(-0.00032586482 9.0856577e-05 0)
(-0.00034495197 7.1636971e-05 0)
(-0.00036266848 3.3768593e-05 0)
(-0.00037199031 5.0067948e-06 0)
(-2.2789343e-05 0.00048536689 0)
(-0.00049217955 0.00027079695 0)
(-0.00024860012 -8.1351295e-05 0)
(-3.988801e-05 -2.0264083e-05 0)
(-5.9115117e-05 0.0001502534 0)
(-0.00019235798 0.00021486795 0)
(-0.00028938829 0.0001358297 0)
(-0.00029681372 3.5628073e-05 0)
(-0.00028804463 7.5860212e-06 0)
(-0.00029149593 4.2698518e-05 0)
(-0.00030635043 9.2385345e-05 0)
(-0.00032478293 0.00011412995 0)
(-0.0003446724 9.8720243e-05 0)
(-0.00036301339 5.8547244e-05 0)
(-0.00037422843 1.7674116e-05 0)
(-0.0003748471 -3.2321558e-07 0)
(-3.9444316e-05 0.0006401705 0)
(-0.00062715706 0.00025651502 0)
(-0.00022482789 -0.00020858652 0)
(4.3018584e-05 -0.00011279239 0)
(3.0028688e-05 0.00014753201 0)
(-0.00015120894 0.00027877749 0)
(-0.00031336286 0.00018331561 0)
(-0.00032260565 3.7217932e-05 0)
(-0.00028519325 -4.1634325e-07 0)
(-0.00028170259 4.6004871e-05 0)
(-0.00030075347 0.00010727372 0)
(-0.00032291197 0.00013700497 0)
(-0.00034464264 0.00012465654 0)
(-0.00036337348 8.4312929e-05 0)
(-0.00037719465 3.2579886e-05 0)
(-0.00037859194 1.2268705e-06 0)
(-0.00037261555 -3.4121547e-06 0)
(-5.5304724e-05 0.00088936557 0)
(-0.00088106249 0.00025161427 0)
(-0.00024350181 -0.00037007755 0)
(0.00022606312 -0.00021183974 0)
(0.00010543529 0.00017626502 0)
(-0.00012020842 0.00040666671 0)
(-0.00037383481 0.00026463471 0)
(-0.0003756127 3.4471083e-05 0)
(-0.00028293137 -2.1806197e-05 0)
(-0.00026606544 4.5026086e-05 0)
(-0.00029061895 0.00012350901 0)
(-0.00031974953 0.00016099993 0)
(-0.00034490801 0.00015117149 0)
(-0.00036480016 0.00010829405 0)
(-0.00037876343 5.2618634e-05 0)
(-0.00038463001 4.7315698e-06 0)
(-0.00037721975 -9.1355602e-06 0)
(-0.0003686278 -3.3040761e-06 0)
(-0.00015361484 0.0011613726 0)
(-0.0012477737 0.00015558639 0)
(-0.0002289231 -0.00045666936 0)
(0.0004156655 -0.00039450533 0)
(0.00022051163 0.00025649106 0)
(-9.4866288e-05 0.00057150512 0)
(-0.00048202416 0.00039707893 0)
(-0.00047243956 2.8128414e-05 0)
(-0.00029060762 -6.7498338e-05 0)
(-0.00024234892 3.4297372e-05 0)
(-0.00027296884 0.00014154471 0)
(-0.00031394477 0.00018793262 0)
(-0.00034581248 0.00017918449 0)
(-0.00036754473 0.00013383966 0)
(-0.00038145415 7.3131475e-05 0)
(-0.0003896831 1.3539919e-05 0)
(-0.00038459781 -1.2979449e-05 0)
(-0.00037370898 -1.0170549e-05 0)
(-0.00036611723 -5.2969967e-07 0)
(-0.0002541204 0.0014994473 0)
(-0.0018536872 0.00031408739 0)
(-0.00028881306 -0.00093014518 0)
(0.00067940276 -0.00071873924 0)
(0.00053638245 0.00039772753 0)
(-0.00010705189 0.00077830802 0)
(-0.00063741295 0.00057895077 0)
(-0.00062121299 5.2116509e-06 0)
(-0.00031076128 -0.00014804133 0)
(-0.00020609942 6.9383999e-06 0)
(-0.00024326981 0.0001611696 0)
(-0.00030263442 0.00021996675 0)
(-0.00034706065 0.0002107223 0)
(-0.00037233343 0.00016086565 0)
(-0.00038641269 9.4892903e-05 0)
(-0.00039317129 2.9156268e-05 0)
(-0.00039411401 -1.6678565e-05 0)
(-0.00038063359 -1.4808055e-05 0)
(-0.00037146113 -3.2551573e-06 0)
(-0.00036683911 3.3060559e-06 0)
(-0.00037242594 0.0020523134 0)
(-0.0023409903 -0.00012429734 0)
(-0.00031227836 -0.0011419389 0)
(0.0011314272 -0.0010237629 0)
(0.0010230087 0.00059829411 0)
(-0.00012718806 0.0010960893 0)
(-0.00088077785 0.00083289531 0)
(-0.00083891429 -3.7458739e-05 0)
(-0.00036132399 -0.00029650353 0)
(-0.00014915665 -5.1825051e-05 0)
(-0.00019257846 0.0001824 0)
(-0.00028076935 0.00026062696 0)
(-0.0003483828 0.00024882702 0)
(-0.0003801801 0.00019049276 0)
(-0.00039350663 0.00011716983 0)
(-0.00039949442 4.5050612e-05 0)
(-0.00040242739 -1.2448399e-05 0)
(-0.00039084324 -2.2262547e-05 0)
(-0.00037800328 -4.0561637e-06 0)
(-0.00037204852 7.3013733e-06 0)
(-0.0003708516 6.4771574e-06 0)
(-0.00043992808 0.0023744467 0)
(-0.0034037941 0.00035710007 0)
(-0.00050970968 -0.0021622063 0)
(0.001834682 -0.001703499 0)
(0.0017095796 0.00088567944 0)
(-0.0001839674 0.0015992379 0)
(-0.0012855909 0.0011446859 0)
(-0.001187307 -0.00012994832 0)
(-0.00037527537 -0.00051004112 0)
(-6.1877384e-05 -0.00017153673 0)
(-0.00010723801 0.00019607898 0)
(-0.0002376599 0.00031362553 0)
(-0.00034835723 0.00029974069 0)
(-0.00039369168 0.0002248655 0)
(-0.00040446294 0.00013919096 0)
(-0.00040682138 6.0162407e-05 0)
(-0.00040819271 -4.7921569e-06 0)
(-0.00040206605 -2.5683307e-05 0)
(-0.00038787178 -5.3276349e-06 0)
(-0.00037950577 1.1568875e-05 0)
(-0.00037537064 1.6938838e-05 0)
(-0.00037705863 7.9337298e-06 0)
(-0.00078122835 0.0033224955 0)
(-0.0038434193 -0.00056172412 0)
(-0.0005161153 -0.0024490142 0)
(0.002676835 -0.0021990133 0)
(0.002654423 0.0012299985 0)
(-0.00023003489 0.0023323159 0)
(-0.001906824 0.001588037 0)
(-0.001612485 -0.0002721655 0)
(-0.00039218579 -0.00087678543 0)
(0.00011968017 -0.00035598572 0)
(6.6226466e-05 0.00021250254 0)
(-0.00015377951 0.0003825036 0)
(-0.00034262967 0.00037305283 0)
(-0.00041702768 0.00026899141 0)
(-0.00042335889 0.00016040867 0)
(-0.00041601799 7.1872752e-05 0)
(-0.00041264502 2.7767617e-06 0)
(-0.00041052906 -2.6832986e-05 0)
(-0.00039989469 -6.2487336e-06 0)
(-0.00038956572 2.0625712e-05 0)
(-0.00038477434 2.5655302e-05 0)
(-0.00038079392 2.261453e-05 0)
(-0.0003837811 7.3924125e-06 0)
(-0.0017833015 0.0036349619 0)
(-0.0057923128 0.00044385362 0)
(-0.0010378259 -0.0043771774 0)
(0.0039744321 -0.0036648377 0)
(0.0038933447 0.0018479292 0)
(-0.00032841345 0.003414964 0)
(-0.002787151 0.0021459302 0)
(-0.0023192249 -0.00052050653 0)
(-0.00052157522 -0.0014097988 0)
(0.00046381463 -0.0006592076 0)
(0.00031824123 0.00016913262 0)
(1.5211413e-06 0.00048521396 0)
(-0.00032503764 0.00048927845 0)
(-0.00045808942 0.00033235181 0)
(-0.00045766275 0.00018053499 0)
(-0.0004296965 7.6841211e-05 0)
(-0.00041557102 6.0955277e-06 0)
(-0.00041553401 -2.6873541e-05 0)
(-0.00040893543 -3.7245586e-06 0)
(-0.00040255429 2.7235464e-05 0)
(-0.00039628726 4.2150381e-05 0)
(-0.0003919862 3.5497211e-05 0)
(-0.00038765628 2.3069436e-05 0)
(-0.00038941633 4.964965e-06 0)
(-0.001606679 0.0048523735 0)
(-0.0065607779 -0.0014127863 0)
(-0.00046121104 -0.0048033483 0)
(0.0052212771 -0.0039544736 0)
(0.0055958293 0.002308289 0)
(-0.00037362083 0.0048993682 0)
(-0.004058404 0.0029874473 0)
(-0.0033434078 -0.00086924814 0)
(-0.00062887924 -0.0022027167 0)
(0.00093903265 -0.0011106837 0)
(0.00075579732 0.00019173671 0)
(0.00018688708 0.00062121381 0)
(-0.00029837577 0.00067612579 0)
(-0.00053055898 0.00043452875 0)
(-0.00052178214 0.00020025513 0)
(-0.00045309963 6.8743041e-05 0)
(-0.00041673169 -2.0967668e-07 0)
(-0.00041491039 -2.8070546e-05 0)
(-0.00041393789 1.7298086e-06 0)
(-0.0004144571 3.792562e-05 0)
(-0.00041009593 5.7760362e-05 0)
(-0.00040638968 5.31932e-05 0)
(-0.00039953108 3.9953129e-05 0)
(-0.00039478185 1.8046523e-05 0)
(-0.00039282673 9.5672415e-07 0)
(-0.0021445658 0.0053493718 0)
(-0.008644863 -5.7175823e-05 0)
(-5.6774319e-07 -0.0072602707 0)
(0.0075626467 -0.0064649671 0)
(0.0073947142 0.0035282393 0)
(-0.00065557927 0.0069063611 0)
(-0.0057191264 0.0039024385 0)
(-0.0047158261 -0.0014456424 0)
(-0.00077774422 -0.0033259673 0)
(0.0015982157 -0.00179422 0)
(0.001467978 0.00022206505 0)
(0.0003630644 0.00088833238 0)
(-0.00028589073 0.0010038557 0)
(-0.00066517088 0.00060062511 0)
(-0.00063846205 0.00022208519 0)
(-0.00049617678 3.8243225e-05 0)
(-0.00041652645 -2.5746447e-05 0)
(-0.0004050682 -3.3891429e-05 0)
(-0.00041228147 9.5976767e-06 0)
(-0.00042274934 5.352963e-05 0)
(-0.0004254773 7.628516e-05 0)
(-0.00042182406 7.6079284e-05 0)
(-0.00041701005 5.5297362e-05 0)
(-0.00040665322 3.5949737e-05 0)
(-0.00040030328 7.4883625e-06 0)
(-0.00039283027 -4.1712265e-06 0)
(-0.0051615354 0.0066222441 0)
(-0.0099416196 -0.0022191178 0)
(-0.00035709694 -0.0086771751 0)
(0.0095577613 -0.0065333979 0)
(0.0090713963 0.0038815103 0)
(-0.00048299356 0.0095582168 0)
(-0.0081189681 0.005397526 0)
(-0.0066468671 -0.0022089478 0)
(-0.0009463233 -0.0048701252 0)
(0.0025135522 -0.0027554541 0)
(0.0025001318 0.00024507714 0)
(0.00069740853 0.0013587607 0)
(-0.00033696395 0.0014410337 0)
(-0.00088920863 0.00088277764 0)
(-0.00085087631 0.00024776708 0)
(-0.00057603527 -3.1879591e-05 0)
(-0.00041485408 -8.3653954e-05 0)
(-0.00038070121 -5.0923313e-05 0)
(-0.00039898186 1.8689351e-05 0)
(-0.00042499959 7.510114e-05 0)
(-0.00043892747 0.00010027927 0)
(-0.00044025216 0.00010054528 0)
(-0.00043554176 7.9250031e-05 0)
(-0.00042542799 4.9643056e-05 0)
(-0.00041313346 1.9367863e-05 0)
(-0.00040213428 -8.2132669e-06 0)
(-0.00038849333 -9.8725026e-06 0)
(-0.008251243 0.0071732471 0)
(-0.013942651 -0.0005467392 0)
(-0.0012741755 -0.012711474 0)
(0.012055865 -0.0098940461 0)
(0.011955547 0.006163814 0)
(-0.00088588911 0.012565268 0)
(-0.010911172 0.0066597209 0)
(-0.0090241722 -0.003267731 0)
(-0.0011848379 -0.0069081326 0)
(0.0037324461 -0.004126374 0)
(0.0039646005 0.00026108128 0)
(0.001295053 0.0021087093 0)
(-0.0004476902 0.0020551039 0)
(-0.0012388126 0.0012684292 0)
(-0.0011712439 0.00027272658 0)
(-0.00072047021 -0.0001705469 0)
(-0.00041232403 -0.0001965525 0)
(-0.00033377082 -9.0317092e-05 0)
(-0.00036569927 2.7007068e-05 0)
(-0.00041633337 0.00010371584 0)
(-0.00044848394 0.00013231882 0)
(-0.00045912911 0.00012985646 0)
(-0.00045647867 0.00010554493 0)
(-0.00044777117 6.733512e-05 0)
(-0.0004319837 3.0979334e-05 0)
(-0.00041702651 -8.938904e-06 0)
(-0.00039882032 -2.67883e-05 0)
(-0.00038009439 -1.537616e-05 0)
(-0.0092416401 0.0078929229 0)
(-0.012157677 -0.0045820449 0)
(0.0029284402 -0.014129436 0)
(0.015223566 -0.0095044429 0)
(0.015490294 0.0065682254 0)
(-0.0020621841 0.017401333 0)
(-0.01495885 0.0095807006 0)
(-0.012396417 -0.0046659928 0)
(-0.0014466651 -0.0096275628 0)
(0.0053963534 -0.0059702358 0)
(0.0059747208 0.00024190899 0)
(0.0022225474 0.0031912201 0)
(-0.00061720231 0.0030099162 0)
(-0.0018164149 0.0017950752 0)
(-0.0016460702 0.00029525574 0)
(-0.00094536944 -0.00041305481 0)
(-0.00040387417 -0.00039362568 0)
(-0.00025304678 -0.00017041988 0)
(-0.0002995256 2.9841179e-05 0)
(-0.00038860907 0.00014175084 0)
(-0.00045049232 0.00017541606 0)
(-0.00047709188 0.00016752826 0)
(-0.0004802947 0.00013675037 0)
(-0.00047194224 9.0475539e-05 0)
(-0.000456894 4.1503414e-05 0)
(-0.00043613842 -1.3921214e-06 0)
(-0.00041664581 -4.1082489e-05 0)
(-0.00039089526 -4.4091041e-05 0)
(-0.00036857407 -1.9793102e-05 0)
(-0.010471755 0.0076466701 0)
(-0.011221251 -0.0043797308 0)
(0.007153708 -0.018820447 0)
(0.021851671 -0.013648817 0)
(0.01743818 0.0096349539 0)
(-0.002559421 0.021849897 0)
(-0.019469957 0.010487009 0)
(-0.015940958 -0.0064104686 0)
(-0.0017366031 -0.013107164 0)
(0.0076229378 -0.0084781034 0)
(0.0087224685 0.0001798456 0)
(0.0035469741 0.0047019422 0)
(-0.00084713128 0.0044079612 0)
(-0.0027101092 0.0025494138 0)
(-0.0024332687 0.00030389493 0)
(-0.0012550612 -0.00077689947 0)
(-0.00040239529 -0.00073300832 0)
(-0.00011686183 -0.00031846298 0)
(-0.00017924122 2.0267821e-05 0)
(-0.00032779328 0.0001929026 0)
(-0.00043925039 0.00023561456 0)
(-0.00049249586 0.00021763608 0)
(-0.00050632581 0.00017587086 0)
(-0.00050082936 0.00012061794 0)
(-0.00048584705 6.1400157e-05 0)
(-0.00046288915 6.5422684e-06 0)
(-0.00043806614 -4.1305002e-05 0)
(-0.00041107734 -6.8554785e-05 0)
(-0.00038010826 -5.7082882e-05 0)
(-0.00035517005 -2.2615046e-05 0)
(-0.011258318 0.0080434833 2.5609019e-23)
(-0.010273735 -0.0075800352 0)
(0.0090277933 -0.022185446 0)
(0.027722649 -0.012962662 0)
(0.018792137 0.0090292843 0)
(-0.0019167678 0.029907394 0)
(-0.023910279 0.014212057 0)
(-0.01985762 -0.009036471 0)
(-0.0016560781 -0.017675644 0)
(0.010567267 -0.011498762 0)
(0.012354182 6.0265465e-05 0)
(0.0054066604 0.0067416817 0)
(-0.0011408703 0.0064850218 0)
(-0.0040329742 0.0036050802 0)
(-0.003644949 0.00026851573 0)
(-0.0017385538 -0.0013383413 0)
(-0.00039697379 -0.0012755687 0)
(0.00011014161 -0.00056749676 0)
(3.0110012e-05 -1.1068019e-05 0)
(-0.00021189944 0.00026382235 0)
(-0.0004053438 0.00032317161 0)
(-0.00050429025 0.00028802579 0)
(-0.00053590818 0.00022672438 0)
(-0.00053461324 0.00015880249 0)
(-0.00052012636 8.8779749e-05 0)
(-0.00049656098 1.9856523e-05 0)
(-0.00046630222 -3.9596772e-05 0)
(-0.00043691358 -8.4697321e-05 0)
(-0.00040128962 -8.8687127e-05 0)
(-0.00036737352 -6.5402456e-05 0)
(-0.00034098316 -2.3821984e-05 0)
(-0.012037166 0.0075999818 -1.7975761e-23)
(-0.010457387 -0.0089120003 -2.67508e-23)
(0.012640322 -0.027294234 0)
(0.032504405 -0.014286057 0)
(0.019551717 0.014458453 0)
(-0.0028288232 0.034942154 0)
(-0.023568315 0.015430387 0)
(-0.025392994 -0.011286089 0)
(-0.001366939 -0.022864558 0)
(0.014464804 -0.015600601 0)
(0.017054357 -2.9514146e-05 0)
(0.0078282069 0.0093939133 0)
(-0.0015253296 0.0093222921 0)
(-0.0059260163 0.0051436258 0)
(-0.0054437218 0.00019425538 0)
(-0.0024843097 -0.0022157198 0)
(-0.00035273066 -0.0020794363 0)
(0.00045486292 -0.0009776703 0)
(0.00036773577 -7.3597855e-05 0)
(-1.374062e-05 0.00036583517 0)
(-0.00034347404 0.00045379176 0)
(-0.0005145421 0.00039110995 0)
(-0.00057309261 0.00029845954 0)
(-0.00057662587 0.00020859992 0)
(-0.00056041939 0.00012243127 0)
(-0.00053471155 3.8059699e-05 0)
(-0.00050138288 -3.5497029e-05 0)
(-0.00046622739 -9.1260981e-05 0)
(-0.00042960612 -0.00011773433 0)
(-0.00038905866 -0.00010292953 0)
(-0.00035369292 -6.9471954e-05 0)
(-0.00032706409 -2.3652992e-05 0)
(-0.01223919 0.0074911447 1.8046609e-23)
(-0.010489297 -0.011285941 8.5035887e-23)
(0.014171376 -0.031579245 0)
(0.032434231 -0.011735027 0)
(0.015701575 0.015046431 0)
(-0.010802446 0.040550439 0)
(-0.032716944 0.022708541 0)
(-0.038335783 -0.014369706 0)
(-0.0024508076 -0.029260742 0)
(0.019191963 -0.020393923 0)
(0.022935737 -0.00025327892 0)
(0.011056502 0.012831114 0)
(-0.0020128786 0.013286548 0)
(-0.0085419909 0.0071883223 0)
(-0.0079834237 4.1445379e-05 0)
(-0.0035926071 -0.0035150716 0)
(-0.00026835218 -0.0032799079 0)
(0.00098755039 -0.0016104698 0)
(0.00090078 -0.00015769129 0)
(0.00026703082 0.00051798145 0)
(-0.00025598109 0.00065808948 0)
(-0.00052471089 0.00055759384 0)
(-0.00062586727 0.00040543663 0)
(-0.00063435814 0.00027371841 0)
(-0.00061067682 0.00016259688 0)
(-0.00057869302 6.1058283e-05 0)
(-0.00054196445 -2.733561e-05 0)
(-0.00050287135 -9.407329e-05 0)
(-0.00046205461 -0.00013551384 0)
(-0.00041902151 -0.00013846833 0)
(-0.00037570671 -0.0001103588 0)
(-0.00034021772 -6.9827473e-05 0)
(-0.00031391345 -2.2491794e-05 0)
(-0.011969303 0.0072077253 0)
(-0.010193518 -0.013327692 -8.5180433e-23)
(0.015268151 -0.03589846 0)
(0.033738569 -0.011832422 0)
(0.014312341 0.020866517 0)
(-0.019292081 0.050308473 0)
(-0.0502163 0.025257816 0)
(-0.046868826 -0.016230733 0)
(-0.0054581011 -0.038430395 0)
(0.024909115 -0.026125659 0)
(0.029959005 -6.9155951e-05 0)
(0.014765966 0.017093897 0)
(-0.0026554334 0.018407679 0)
(-0.012138405 0.010124767 0)
(-0.011569806 -0.00017810505 0)
(-0.0051657791 -0.0054162511 0)
(-0.00013764485 -0.0050304991 0)
(0.0018026005 -0.0025395799 0)
(0.00170684 -0.00033664286 0)
(0.00078004523 0.00077344592 0)
(-0.0001069984 0.00099426174 0)
(-0.0005287323 0.00081418039 0)
(-0.00070339198 0.00056244897 0)
(-0.00071853753 0.0003594678 0)
(-0.00067926594 0.00020928484 0)
(-0.00063246802 8.5939691e-05 0)
(-0.00058754211 -1.5235912e-05 0)
(-0.00054502327 -9.27857e-05 0)
(-0.00050225525 -0.0001445546 0)
(-0.00045438677 -0.00016465443 0)
(-0.00040665451 -0.00015104765 0)
(-0.00036168431 -0.00011165352 0)
(-0.00032712266 -6.7552622e-05 0)
(-0.00030167701 -2.0827263e-05 0)
(-0.011088234 0.0068468993 -1.0399264e-23)
(-0.0097695857 -0.015523282 0)
(0.015794014 -0.040865122 -3.5360068e-23)
(0.034114858 -0.011015986 0)
(0.013821661 0.023620695 0)
(-0.023762373 0.059173604 0)
(-0.05269276 0.027184641 0)
(-0.039503412 -0.02198954 0)
(-0.0022219348 -0.048447599 0)
(0.031614882 -0.032558277 0)
(0.037863836 -0.00039063433 0)
(0.019200275 0.022494384 0)
(-0.0035884405 0.025296049 0)
(-0.016901332 0.013760233 0)
(-0.016350761 -0.00052518955 0)
(-0.0073515389 -0.0080440595 0)
(5.0655783e-05 -0.0075455209 0)
(0.0030096655 -0.0038622188 0)
(0.002905466 -0.0006053409 0)
(0.0015796546 0.0011167138 0)
(0.00015833763 0.0014438549 0)
(-0.0004814888 0.0011729574 0)
(-0.00081205652 0.00078820028 0)
(-0.0008455227 0.00047305436 0)
(-0.00077660434 0.00026208404 0)
(-0.00070253065 0.00011066857 0)
(-0.00064131931 -4.1997235e-06 0)
(-0.00059092918 -8.9433785e-05 0)
(-0.00054380614 -0.0001493542 0)
(-0.00049607714 -0.00018217801 0)
(-0.000445864 -0.0001808732 0)
(-0.00039316186 -0.00015456875 0)
(-0.00034677381 -0.00011031689 0)
(-0.00031359992 -6.4248593e-05 0)
(-0.00029083768 -1.8967723e-05 0)
(-0.0096025605 0.006526649 2.9603035e-23)
(-0.0088383382 -0.017463748 1.2829712e-22)
(0.015420709 -0.045701932 3.5145712e-23)
(0.033413288 -0.010165037 -1.1347381e-22)
(0.013993784 0.026549192 -4.2180885e-23)
(-0.026726605 0.067691223 0)
(-0.054740802 0.023928333 0)
(-0.034378622 -0.025620974 0)
(0.0016041216 -0.059038871 0)
(0.036586515 -0.041674166 0)
(0.048054003 0.00068751077 0)
(0.024308439 0.028759754 0)
(-0.0051169929 0.033878729 0)
(-0.023485435 0.018853887 0)
(-0.022790067 -0.0010339006 0)
(-0.010241902 -0.011690034 0)
(0.00036360324 -0.011011082 0)
(0.0047107162 -0.0057106053 0)
(0.0046382856 -0.0010056975 0)
(0.0027451279 0.0015998654 0)
(0.00064615493 0.0021838877 0)
(-0.00050793731 0.0016603149 0)
(-0.00096200431 0.0011339892 0)
(-0.0010405642 0.00063129792 0)
(-0.00092388389 0.00031815208 0)
(-0.00079875773 0.00012759431 0)
(-0.00070542267 3.6048638e-07 0)
(-0.00064198909 -8.7845873e-05 0)
(-0.00059080824 -0.00015298883 0)
(-0.00053925221 -0.00019328838 0)
(-0.00048761215 -0.0002031069 0)
(-0.00043485427 -0.00018738457 0)
(-0.00037999128 -0.00015054252 0)
(-0.00033579279 -0.0001094852 0)
(-0.00030197729 -5.9920012e-05 0)
(-0.00028112299 -1.7318421e-05 0)
(-0.0077211088 0.0062223786 -3.2710122e-23)
(-0.0075677417 -0.019212963 -1.7537571e-22)
(0.014441568 -0.050286207 0)
(0.031886505 -0.0090152429 2.61302e-22)
(0.013460882 0.030390412 4.2014467e-23)
(-0.027475485 0.076277948 -1.9598848e-22)
(-0.055973155 0.024603319 -8.9159509e-23)
(-0.033333118 -0.033572828 0)
(0.0038596289 -0.069785095 0)
(0.047957134 -0.050249474 0)
(0.060711694 -0.00095142126 0)
(0.032051326 0.036835201 0)
(-0.0071351837 0.044886039 0)
(-0.032333985 0.024577292 0)
(-0.030911806 -0.0017191805 0)
(-0.014053752 -0.016487069 0)
(0.00085549425 -0.015753734 0)
(0.0070778428 -0.0082038902 0)
(0.0070701555 -0.0015590484 0)
(0.0044125822 0.0022575028 0)
(0.0013844837 0.0032463241 0)
(-0.00056096816 0.0024791268 0)
(-0.0012198403 0.0016544865 0)
(-0.0013388275 0.0008640141 0)
(-0.001150604 0.00038257623 0)
(-0.00093832642 0.00012598074 0)
(-0.00078748717 -1.366412e-05 0)
(-0.00069552393 -9.7072863e-05 0)
(-0.00063748624 -0.00015859956 0)
(-0.00058755607 -0.00020206242 0)
(-0.00053514381 -0.0002195505 0)
(-0.00047842553 -0.00021338714 0)
(-0.00042185502 -0.00018624566 0)
(-0.00036775357 -0.00014314138 0)
(-0.00032400193 -9.8748643e-05 0)
(-0.00029172928 -5.5082606e-05 0)
(-0.00027254224 -1.6135871e-05 0)
(-0.0058680908 0.0058985246 7.0084783e-24)
(-0.0058543171 -0.020612527 3.9320436e-23)
(0.012608951 -0.054547709 7.5898714e-23)
(0.029207848 -0.0080837313 -6.9527642e-23)
(0.013283607 0.033349103 -1.5409937e-22)
(-0.027914458 0.085299372 -2.3473862e-22)
(-0.055658315 0.027088693 -4.7338997e-22)
(-0.03296758 -0.035868997 1.1107196e-22)
(0.009889085 -0.080617917 0)
(0.059419131 -0.059717569 0)
(0.072263821 0.0011898254 0)
(0.044464119 0.043505718 0)
(-0.0064272432 0.056851012 0)
(-0.041829019 0.032469504 0)
(-0.040985723 -0.0031753165 0)
(-0.01855723 -0.022841084 0)
(0.0016335118 -0.021972882 0)
(0.0102726 -0.011522418 0)
(0.010371422 -0.002290097 0)
(0.0067734955 0.0031439257 0)
(0.0024606498 0.0047650417 0)
(-0.00056375292 0.0037397522 0)
(-0.0016740162 0.0023645495 0)
(-0.0017899332 0.0012308021 0)
(-0.0015155483 0.00044313233 0)
(-0.0011454008 9.2799111e-05 0)
(-0.00089589869 -6.3821672e-05 0)
(-0.00075362028 -0.00013054304 0)
(-0.00067979276 -0.00017330099 0)
(-0.00063084822 -0.00021022922 0)
(-0.00058283447 -0.0002322617 0)
(-0.00052889269 -0.00023301313 0)
(-0.00046977538 -0.00021494912 0)
(-0.00041027902 -0.00017985581 0)
(-0.00035614771 -0.00013468107 0)
(-0.00031326791 -9.0905283e-05 0)
(-0.00028255227 -5.1058264e-05 0)
(-0.00026479228 -1.5653174e-05 0)
(-0.0035069317 0.0056187679 2.3532458e-24)
(-0.0039767419 -0.021786174 3.6177887e-25)
(0.010461338 -0.058131023 0)
(0.025345717 -0.0070526933 -6.533641e-23)
(0.012486931 0.036611127 5.8608049e-23)
(-0.027004222 0.093979283 0)
(-0.05350729 0.027176433 4.07924e-22)
(-0.033230103 -0.039535052 5.0798786e-22)
(0.011524607 -0.09337714 0)
(0.067322904 -0.065285909 0)
(0.078950274 -0.0015411121 0)
(0.04174224 0.054030111 0)
(-0.0036461865 0.073910428 0)
(-0.049871052 0.039926273 0)
(-0.051913285 -0.0052910033 0)
(-0.023565775 -0.030815285 0)
(0.0029434523 -0.030167272 0)
(0.014544062 -0.015673773 0)
(0.014741038 -0.0032632251 0)
(0.0099852031 0.0043187007 0)
(0.0039736417 0.0068291821 0)
(-0.00050324089 0.0055893749 0)
(-0.0023525045 0.0034366493 0)
(-0.0025349492 0.0016951152 0)
(-0.0020383038 0.00054407512 0)
(-0.0014743756 -9.4901399e-06 0)
(-0.0010477869 -0.00018280305 0)
(-0.00081572267 -0.00021181076 0)
(-0.0007123604 -0.00021163886 0)
(-0.00066412268 -0.00022325604 0)
(-0.00062602392 -0.00023863073 0)
(-0.00057952069 -0.00024524973 0)
(-0.00052222037 -0.00023603912 0)
(-0.00046033906 -0.00021003982 0)
(-0.00039864796 -0.00017065564 0)
(-0.0003453871 -0.00012652757 0)
(-0.00030376639 -8.4633075e-05 0)
(-0.00027437045 -4.8564128e-05 0)
(-0.00025750113 -1.5964356e-05 0)
(-0.00079909351 0.0055310682 0)
(-0.0020391699 -0.022516302 0)
(0.0081660259 -0.060893 -3.7530004e-25)
(0.020435434 -0.0059733798 0)
(0.011455968 0.039510348 2.6940437e-23)
(-0.025823742 0.10233333 -1.8858805e-22)
(-0.050920693 0.028579259 -8.1783354e-22)
(-0.031979417 -0.042118511 -3.5642542e-22)
(0.010734458 -0.10397333 0)
(0.07327599 -0.077010483 0)
(0.085063138 0.0077137972 0)
(0.037571128 0.061217059 0)
(-0.00013169359 0.089607915 0)
(-0.059878016 0.051162103 0)
(-0.065679304 -0.0076050441 0)
(-0.029720613 -0.040720171 0)
(0.0050055208 -0.04037557 0)
(0.020117247 -0.021032622 0)
(0.020375534 -0.0044031463 0)
(0.014263931 0.0057998673 0)
(0.0061088735 0.00960914 0)
(-0.00037380518 0.0082178451 0)
(-0.0033216992 0.0050195632 0)
(-0.0036852927 0.0023416843 0)
(-0.0028600168 0.0006321014 0)
(-0.0019660898 -0.00019311809 0)
(-0.0012657829 -0.0003965657 0)
(-0.00088588148 -0.00037404302 0)
(-0.00072621975 -0.00029622924 0)
(-0.00067637936 -0.00025261975 0)
(-0.00065515496 -0.00024350513 0)
(-0.00062509841 -0.00024757926 0)
(-0.00057681878 -0.00024697111 0)
(-0.00051620274 -0.00023178923 0)
(-0.00045112377 -0.00020167064 0)
(-0.00038751315 -0.00016086174 0)
(-0.0003350023 -0.00011916503 0)
(-0.00029474141 -8.138686e-05 0)
(-0.00026640906 -4.8400153e-05 0)
(-0.00025024292 -1.7053684e-05 0)
(-0.00038835927 -0.022817805 -5.011027e-25)
(0.0013352405 0.0055661543 0)
(0.0041617671 -0.06297531 -1.1290214e-23)
(0.015506828 -0.0052091923 -3.9116257e-23)
(0.0095461631 0.041675262 8.43824e-23)
(-0.023484657 0.10989156 1.0920356e-24)
(-0.046494193 0.029157632 9.7301508e-24)
(-0.030341066 -0.044768722 1.1967178e-22)
(0.009789793 -0.11635365 5.9935415e-22)
(0.072927944 -0.088752671 0)
(0.091424447 0.0083207332 -2.0887598e-21)
(0.030858443 0.072457071 0)
(-0.0021302185 0.11174724 0)
(-0.074501676 0.066003351 0)
(-0.087377806 -0.0074188484 0)
(-0.041521979 -0.052626821 0)
(0.0082615583 -0.052965445 0)
(0.027266967 -0.027140586 0)
(0.027442573 -0.005906569 0)
(0.019803669 0.0076804341 0)
(0.0089931791 0.013242574 0)
(-0.00010406856 0.011833707 0)
(-0.0046831107 0.0073578713 0)
(-0.0053836693 0.0032660389 0)
(-0.0041596692 0.00067903428 0)
(-0.002650516 -0.000470616 0)
(-0.0016143828 -0.0008049598 0)
(-0.00096870566 -0.00066071484 0)
(-0.00071110658 -0.00045302622 0)
(-0.00065193358 -0.00031373569 0)
(-0.00065626194 -0.00025295613 0)
(-0.00065614425 -0.00024042696 0)
(-0.00062860233 -0.00024400349 0)
(-0.00057616966 -0.0002414952 0)
(-0.0005104666 -0.00022401723 0)
(-0.00044119281 -0.00019219717 0)
(-0.00037769736 -0.0001538448 0)
(-0.00032519036 -0.00011492579 0)
(-0.00028609332 -8.1525539e-05 0)
(-0.00025877307 -5.0293121e-05 0)
(-0.00024286272 -1.8772351e-05 0)
(0.00025580768 -0.064121213 1.1711871e-23)
(0.0014386678 -0.022816451 0)
(0.003873519 0.0058031 -3.0596036e-23)
(0.0096120754 -0.0048037488 3.9089519e-23)
(0.0074254764 0.043812745 -3.6892426e-23)
(-0.020485325 0.11644687 -2.8017649e-22)
(-0.040804694 0.029624258 5.6171287e-22)
(-0.026853214 -0.046872689 1.7898483e-22)
(0.0081081518 -0.12821928 4.2285771e-22)
(0.0714596 -0.09996867 5.9092945e-23)
(0.09095883 0.0052360833 -2.1914915e-21)
(0.027693494 0.08443962 2.1906618e-21)
(-0.026154236 0.12743886 0)
(-0.10635688 0.083765302 0)
(-0.11576605 -0.0098026946 0)
(-0.057031598 -0.066388863 0)
(0.010321374 -0.068612096 0)
(0.036445458 -0.034817476 0)
(0.036156314 -0.0073015013 0)
(0.026713403 0.0098364178 0)
(0.012911479 0.017930558 0)
(0.00032361239 0.016702623 0)
(-0.0065426823 0.010604133 0)
(-0.0078235381 0.0045984632 0)
(-0.0060892269 0.00068783638 0)
(-0.0037184039 -0.00099395532 0)
(-0.0020825938 -0.0013909677 0)
(-0.0010769684 -0.0011433531 0)
(-0.00065201238 -0.0007460043 0)
(-0.00056599389 -0.0004349678 0)