/*--------------------------------*- C++ -*----------------------------------*\
| =========                 |                                                 |
| \\      /  F ield         | OpenFOAM: The Open Source CFD Toolbox           |
|  \\    /   O peration     | Version:  5.0                                   |
|   \\  /    A nd           | Web:      www.OpenFOAM.org                      |
|    \\/     M anipulation  |                                                 |
\*---------------------------------------------------------------------------*/
FoamFile
{
    version     2.0;
    format      ascii;
    class       volScalarField;
    location    "240";
    object      nut;
}
// * * * * * * * * * * * * * * * * * * * * * * * * * * * * * * * * * * * * * //

dimensions      [0 2 -1 0 0 0 0];

internalField   nonuniform List<scalar> 
9520
(
1.5309879e-117
1.9441073e-109
1.3430219e-117
1.4149321e-102
1.7076021e-109
1.1743968e-117
1.8365642e-96
1.2436935e-102
1.4945229e-109
1.032261e-117
6.8267479e-91
1.615411e-96
1.0891457e-102
1.3158633e-109
9.206324e-118
9.4829254e-86
6.0087352e-91
1.4159005e-96
9.6038739e-103
1.1778279e-109
8.3681561e-118
5.8751585e-81
8.3506426e-86
5.2726513e-91
1.2506995e-96
8.6232059e-103
1.0761282e-109
7.7225231e-118
1.8295707e-76
5.1765409e-81
7.3358514e-86
4.6667488e-91
1.1261783e-96
7.9095588e-103
9.9704841e-110
7.1481972e-118
3.0855174e-72
1.6141441e-76
4.5532028e-81
6.5057578e-86
4.2128411e-91
1.0359495e-96
7.3425432e-103
9.2215209e-110
6.5195441e-118
2.9860088e-68
2.728337e-72
1.422606e-76
4.0465118e-81
5.8857491e-86
3.8824303e-91
9.6197515e-97
6.7696324e-103
8.3485813e-110
5.7639932e-118
1.7496082e-64
2.6489673e-68
2.4110891e-72
1.2676869e-76
3.6682063e-81
5.4287125e-86
3.6006985e-91
8.8273441e-97
6.0725613e-103
7.2931455e-110
4.9119902e-118
6.9446673e-61
1.5562457e-64
2.3488404e-68
2.1546344e-72
1.1518046e-76
3.3839694e-81
5.0209749e-86
3.2841686e-91
7.8395809e-97
5.2395599e-103
6.1490385e-110
4.0907844e-118
3.5385289e-57
6.0886688e-61
1.3837325e-64
2.103995e-68
1.9618629e-72
1.0627665e-76
3.1177346e-81
4.5457195e-86
2.886769e-91
6.6847574e-97
4.3773186e-103
5.1142177e-110
3.4526623e-118
2.4859461e-52
2.7260206e-57
5.3477432e-61
1.2391642e-64
1.918337e-68
1.8105832e-72
9.7523097e-77
2.7985914e-81
3.9528954e-86
2.435479e-91
5.5458054e-97
3.64675e-103
4.379235e-110
3.1033486e-118
3.4536586e-46
1.4695993e-52
2.107008e-57
4.7051893e-61
1.1283937e-64
1.7708651e-68
1.6555212e-72
8.6780575e-77
2.4064658e-81
3.3031685e-86
2.0115343e-91
4.6425593e-97
3.1766282e-103
4.0540579e-110
3.0862527e-118
6.0671065e-40
2.1543095e-46
7.5962528e-53
1.5842795e-57
4.2215491e-61
1.041818e-64
1.6153178e-68
1.4611427e-72
7.3803762e-77
1.9936115e-81
2.7226202e-86
1.6969531e-91
4.122955e-97
3.0278688e-103
4.1700973e-110
3.3947971e-118
4.8783194e-34
4.5471482e-40
9.3335893e-47
2.9003455e-53
1.2393196e-57
3.8764606e-61
9.4989879e-65
1.4155376e-68
1.229711e-72
6.0686764e-77
1.6437137e-81
2.3203403e-86
1.5381767e-91
4.0409367e-97
3.2052707e-103
4.688188e-110
3.9477277e-118
1.429145e-28
4.2877345e-34
2.0229796e-40
2.0626702e-47
1.0700756e-53
1.0537145e-57
3.5331797e-61
8.2775961e-65
1.1793085e-68
1.0046641e-72
5.0163591e-77
1.4187337e-81
2.1472293e-86
1.5459147e-91
4.376989e-97
3.6512701e-103
5.4423468e-110
4.5254965e-118
1.3813199e-23
1.413636e-28
1.9764196e-34
3.9933011e-41
3.3130814e-48
5.5095041e-54
9.3194276e-58
3.0627116e-61
6.8245572e-65
9.5752974e-69
8.3398806e-73
4.3946961e-77
1.340856e-81
2.2046343e-86
1.7018843e-91
5.0104898e-97
4.1921018e-103
6.070817e-110
4.7794443e-118
3.9885855e-19
1.4773404e-23
6.7119173e-29
3.8084215e-35
5.6728913e-42
9.2760994e-49
3.9961127e-54
7.9112479e-58
2.4919846e-61
5.5001206e-65
7.9896053e-69
7.4248963e-73
4.2424777e-77
1.4017104e-81
2.4492547e-86
1.9418102e-91
5.6455297e-97
4.5164674e-103
6.1129175e-110
4.4271926e-118
3.1841818e-15
4.4526025e-19
7.1873651e-24
1.2998078e-29
6.0111844e-36
1.936541e-42
6.2856192e-49
3.037435e-54
6.2147032e-58
1.9847521e-61
4.6109876e-65
7.2337087e-69
7.3133985e-73
4.5018867e-77
1.5613626e-81
2.7634347e-86
2.1328891e-91
5.8431207e-97
4.3172968e-103
5.3338097e-110
3.5077381e-118
6.402089e-12
3.5603662e-15
2.2808947e-19
1.4602775e-24
2.4534755e-30
3.2334532e-36
2.0728944e-42
4.6733611e-49
1.8903063e-54
4.7661719e-58
1.6670618e-61
4.2465799e-65
7.2621927e-69
7.8471431e-73
5.0013961e-77
1.7293739e-81
2.94104e-86
2.1132258e-91
5.2901308e-97
3.5466123e-103
3.9723617e-110
2.3826436e-118
3.2141727e-09
7.0023657e-12
1.9175951e-15
5.3523533e-20
3.5036722e-25
2.0900692e-30
5.4967702e-36
1.9773548e-42
1.5193781e-49
1.0613913e-54
3.9395771e-58
1.5609224e-61
4.3429568e-65
7.8529848e-69
8.6492068e-73
5.4076266e-77
1.7725843e-81
2.7815841e-86
1.8121793e-91
4.0969048e-97
2.4935033e-103
2.5647755e-110
1.4408477e-118
4.0267257e-07
3.4224295e-09
4.0592638e-12
5.4002573e-16
1.8170393e-20
4.3830339e-25
4.9961619e-30
6.3648849e-36
5.1371752e-43
2.1025031e-50
7.0709854e-55
3.7256614e-58
1.6267585e-61
4.7229056e-65
8.5488836e-69
9.0863104e-73
5.3145983e-77
1.5948039e-81
2.2619425e-86
1.3285419e-91
2.7365918e-97
1.5475372e-103
1.520775e-110
8.4679209e-119
1.1672868e-05
4.1707598e-07
2.1188425e-09
1.413235e-12
2.5139058e-16
2.6750812e-20
1.2742789e-24
6.4452514e-30
1.6020494e-36
2.7831613e-44
3.0775587e-51
6.1918068e-55
3.9582638e-58
1.7786534e-61
5.0608704e-65
8.6897708e-69
8.5390687e-73
4.538418e-77
1.2300323e-81
1.5792656e-86
8.512644e-92
1.6557028e-97
9.1859478e-104
9.282202e-111
5.5910943e-119
6.4521387e-05
1.1893532e-05
2.7803576e-07
8.9796106e-10
8.3632009e-13
4.0672039e-16
8.12857e-20
1.708722e-24
1.5839474e-30
6.8140117e-38
5.8933579e-46
1.1131355e-51
6.5493361e-55
4.3599611e-58
1.8726339e-61
4.9589103e-65
7.7893628e-69
6.9221874e-73
3.323333e-77
8.2237998e-82
9.8293293e-87
5.1085331e-92
1.0075337e-97
5.9960566e-104
6.8678702e-111
4.8911676e-119
0.00013287577
6.5099194e-05
8.9336496e-06
1.419159e-07
6.4356054e-10
1.416888e-12
1.188393e-15
1.0786149e-19
4.1365759e-25
6.0411452e-32
8.2677911e-40
1.9050981e-47
8.808382e-52
7.2502695e-55
4.5099151e-58
1.7629116e-61
4.2281151e-65
5.9967483e-69
4.8324996e-73
2.1406176e-77
5.037796e-82
5.9713862e-87
3.2669549e-92
7.2350065e-98
5.0949177e-104
7.1119754e-111
6.1717725e-119
0.00019125848
0.00013338865
5.6566493e-05
5.5713254e-06
1.1731806e-07
1.1143271e-09
3.8066531e-12
1.5128762e-15
2.6211479e-20
1.5580025e-26
6.3071934e-34
9.8268709e-42
3.5976451e-48
9.2281854e-52
7.3682262e-55
4.066088e-58
1.4248795e-61
3.0913886e-65
4.0109331e-69
3.0280229e-73
1.307912e-77
3.1666742e-82
4.1127133e-87
2.6385975e-92
7.1610595e-98
6.2313165e-104
1.0499769e-110
1.0527997e-118
0.00023693125
0.00019030963
0.00012225326
4.4264112e-05
5.0802649e-06
2.0179925e-07
2.6776714e-09
4.5875004e-12
3.7762677e-16
1.0696959e-21
1.9725006e-28
8.6736741e-36
1.0127263e-42
3.0013223e-48
9.1252398e-52
6.3361742e-55
3.1011024e-58
9.8850505e-62
1.9909742e-65
2.4723196e-69
1.8754852e-73
8.6776512e-78
2.4053178e-82
3.7872094e-87
3.041723e-92
1.0179321e-97
1.0430741e-103
1.9574117e-110
2.0745503e-118
0.00027447307
0.00023497189
0.00017714963
0.00010615435
4.2591387e-05
8.0458266e-06
4.2686629e-07
3.0163595e-09
1.2053172e-12
1.8282088e-17
2.0138743e-23
4.8167447e-30
2.5469935e-36
1.5007762e-42
3.0571847e-48
7.3009751e-52
4.5272742e-55
2.0367046e-58
6.1581481e-62
1.221603e-65
1.5792892e-69
1.3381256e-73
7.3921336e-78
2.5459156e-82
5.0178547e-87
4.8885549e-92
1.8642182e-97
2.0445634e-103
3.9085401e-110
4.0730026e-118
0.00030592899
0.00027132751
0.00022044817
0.00016033507
0.00010414988
5.5566387e-05
1.3731586e-05
4.4943323e-07
8.5108614e-10
7.3450942e-14
5.2887952e-19
9.9456487e-25
3.6829424e-30
8.9202623e-36
2.3370663e-42
1.7396366e-48
4.705975e-52
2.8001672e-55
1.2322677e-58
3.8060936e-62
8.1860442e-66
1.2314957e-69
1.2882816e-73
8.9763244e-78
3.808612e-82
8.8160509e-87
9.4464127e-92
3.7164261e-97
4.0188541e-103
7.3655645e-110
7.239121e-118
0.00033219564
0.00030145533
0.00025566952
0.00020325147
0.00015947504
0.00012169687
7.2243484e-05
1.3709989e-05
1.4114239e-07
6.7847082e-11
3.3535944e-15
5.4775408e-20
1.4361441e-24
1.9836468e-29
1.8168235e-35
7.4710701e-43
5.9183105e-49
2.6733308e-52
1.6489113e-55
7.7628301e-59
2.7183773e-62
7.0634151e-66
1.3409275e-69
1.7687969e-73
1.4844632e-77
7.0925357e-82
1.7384266e-86
1.8628814e-91
7.0372101e-97
7.1456004e-103
1.2167285e-109
1.1070075e-117
0.00035252807
0.00032607436
0.00028534542
0.00023824658
0.00020348071
0.00017947194
0.00014200978
7.1128815e-05
5.5973509e-06
1.527299e-08
5.0530717e-12
7.1374426e-16
1.2387021e-19
9.3752076e-24
4.4542413e-29
5.4797585e-36
3.6465856e-44
2.1031102e-49
1.5241871e-52
1.0703108e-55
5.9926534e-59
2.6164309e-62
8.6524015e-66
2.0406911e-69
3.1434505e-73
2.8594222e-77
1.389495e-81
3.3157647e-86
3.3432547e-91
1.166651e-96
1.0870582e-102
1.6982186e-109
1.4223599e-117
0.00036734149
0.00034508306
0.00030946276
0.00026833597
0.00023885951
0.00022453282
0.00020113893
0.00013972693
4.4192711e-05
9.1958568e-07
1.8936726e-09
2.0902281e-12
2.1844837e-15
8.4954275e-19
2.1617914e-23
1.3882589e-29
1.5706014e-37
8.211639e-46
1.0261732e-49
1.027742e-52
9.0340133e-56
6.45467e-59
3.5697086e-62
1.4281205e-65
3.7926853e-69
6.1066749e-73
5.4714679e-77
2.5200605e-81
5.5715179e-86
5.1249655e-91
1.6247425e-96
1.378124e-102
1.9702403e-109
1.5208872e-117
0.00037736311
0.00035883777
0.00032844883
0.00029331819
0.00026901667
0.00025959303
0.00024528496
0.00019636257
0.00010537867
1.449686e-05
1.9041634e-07
1.3782574e-09
7.6971477e-12
1.431012e-14
1.9229976e-18
7.0031427e-24
4.0323935e-31
5.4675563e-40
7.664372e-47
7.0888493e-50
9.5646704e-53
1.0878696e-55
9.6773736e-59
6.2532115e-62
2.7103176e-65
7.2758272e-69
1.1235841e-72
9.3441416e-77
3.9295651e-81
7.8566759e-86
6.5074938e-91
1.8653455e-96
1.4398909e-102
1.8886197e-109
1.3498327e-117
0.00038282993
0.00036812668
0.00034260509
0.00031353454
0.00029420696
0.00028843462
0.00027843782
0.00023837617
0.00015847155
5.8474544e-05
5.2830774e-06
2.1210361e-07
5.5295574e-09
4.4994914e-11
3.0749146e-14
6.4991309e-19
2.2547197e-25
1.2870177e-33
1.258646e-42
3.8534772e-47
7.2932791e-50
1.2827468e-52
1.7663956e-55
1.7629193e-58
1.1876371e-61
5.0480856e-65
1.2717803e-68
1.7922313e-72
1.3410065e-76
5.067011e-81
9.087295e-86
6.7533322e-91
1.7523055e-96
1.2353841e-102
1.4944147e-109
9.9527282e-118
0.00038449517
0.00037342691
0.00035272966
0.00032933836
0.00031472521
0.00031194809
0.00030454746
0.00026995498
0.00019970059
0.00010899565
3.5955672e-05
7.3861114e-06
8.3452292e-07
2.7393258e-08
8.9168196e-11
1.0897528e-14
2.4393665e-20
9.4220933e-28
1.6323409e-36
3.8306974e-44
4.1419761e-47
1.0827796e-49
2.224691e-52
3.2886546e-55
3.2946556e-58
2.1190153e-61
8.3010368e-65
1.8816429e-68
2.3590759e-72
1.5692884e-76
5.3026614e-81
8.5241681e-86
5.6994849e-91
1.3441978e-96
8.7045512e-103
9.7766371e-110
6.1137979e-118
0.00038367059
0.00037571336
0.00035935934
0.00034147694
0.00033095102
0.00033074251
0.00032519761
0.00029500619
0.00023167793
0.00015136385
8.5842496e-05
4.9046317e-05
2.1567885e-05
3.1978739e-06
4.8895275e-08
3.3277572e-11
4.9689943e-16
1.4688887e-22
1.812196e-30
2.4180181e-39
2.027837e-44
6.720789e-47
1.9851565e-49
4.1742146e-52
5.9679171e-55
5.5693424e-58
3.2526855e-61
1.1344374e-64
2.2673183e-68
2.5063635e-72
1.4783833e-76
4.4716615e-81
6.4596937e-86
3.9067969e-91
8.4267445e-97
5.047241e-103
5.3051666e-110
3.1422421e-118
0.00038096487
0.00037605356
0.00036353286
0.00035037042
0.0003437204
0.00034526078
0.00034113491
0.00031475042
0.00025920724
0.00018506984
0.00013114198
0.00010795744
8.8050255e-05
4.685782e-05
4.9044348e-06
1.9391935e-08
1.9070932e-12
4.4485125e-18
4.4842919e-25
2.3219698e-33
3.305114e-41
3.2396576e-44
1.2961624e-46
3.7179117e-49
7.2797597e-52
9.4725314e-55
7.9273777e-58
4.0927692e-61
1.2490502e-64
2.1866912e-68
2.1281709e-72
1.1154921e-76
3.0317961e-81
3.953936e-86
2.1778888e-91
4.3280606e-97
2.4172015e-103
2.39923e-110
1.3591578e-118
0.00037652987
0.00037510211
0.00036686387
0.00035683829
0.00035324469
0.0003564027
0.0003528811
0.00033003272
0.00028179676
0.00021538585
0.00016788896
0.00015794968
0.00015622518
0.00012701071
5.6601736e-05
2.2213005e-06
1.4374104e-09
2.5577727e-14
2.0845738e-20
8.5966599e-28
3.7123493e-36
1.8058576e-41
6.5704551e-44
2.4134963e-46
6.1799701e-49
1.0767892e-51
1.24247e-54
9.1620712e-58
4.1115257e-61
1.0928524e-64
1.6750295e-68
1.4387424e-72
6.7335438e-77
1.65336e-81
1.9586902e-86
9.9060816e-92
1.8290685e-97
9.6155885e-104
9.1064314e-111
4.9892765e-119
0.00037389537
0.00037491634
0.00036970792
0.00036204594
0.00035999331
0.00036421102
0.00036114502
0.0003412078
0.00030032023
0.0002415251
0.00019831654
0.00019731924
0.00021020461
0.00019799133
0.00013741179
3.6494537e-05
2.301015e-07
2.8735123e-11
1.7830839e-16
6.2686866e-23
1.889994e-30
2.2984275e-37
4.1906937e-41
1.2287539e-43
3.8010499e-46
8.4501932e-49
1.2938517e-51
1.314292e-54
8.3886962e-58
3.2615721e-61
7.55266e-65
1.016223e-68
7.7403738e-73
3.2560968e-77
7.2707893e-82
7.8860572e-87
3.6974104e-92
6.4071741e-98
3.2070193e-104
2.9341782e-111
1.5753483e-119
0.00037208265
0.00037617781
0.00037664377
0.00036598735
0.00036486889
0.00036917019
0.00036613164
0.00034892886
0.00031515154
0.00026386357
0.00022466053
0.00022755112
0.00024989929
0.00025268071
0.00020641028
0.00010830744
7.8698461e-06
6.8133266e-09
2.9260369e-13
8.7038209e-19
3.454982e-25
2.6285161e-31
1.6611913e-36
1.0147399e-40
1.8286614e-43
4.7600013e-46
9.2248052e-49
1.2441628e-51
1.0956945e-54
6.0309108e-58
2.0333834e-61
4.1146184e-65
4.8836866e-69
3.3210449e-73
1.2664125e-77
2.5933207e-82
2.6022477e-87
1.1446286e-92
1.8869462e-98
9.1285857e-105
8.1992462e-112
4.3854422e-120
0.00036867247
0.00037675727
0.00037759895
0.0003771549
0.00036769255
0.00037190977
0.0003684664
0.00035364791
0.00032681934
0.0002828738
0.00024725901
0.00025158427
0.00027864081
0.00028937282
0.00025745312
0.00017199605
4.9311462e-05
3.9688763e-07
1.0137227e-10
2.5302405e-15
1.630811e-20
2.3345373e-25
5.0404894e-30
1.4074667e-35
1.5070915e-40
2.0527732e-43
4.667083e-46
8.0052995e-49
9.4342315e-52
7.1362149e-55
3.3920324e-58
9.9514088e-62
1.7689154e-65
1.8653444e-69
1.1434291e-73
3.9987494e-78
7.6014481e-83
7.1680408e-88
3.0104786e-93
4.8187718e-99
2.3037538e-105
2.0783606e-112
1.1322261e-120
0.00036832408
0.00037154207
0.00037954827
0.00037725396
0.00037637122
0.00037240015
0.00036858816
0.00035605045
0.00033580437
0.00029900742
0.00026659752
0.0002715974
0.00029907795
0.00031294567
0.00029014603
0.0002195079
0.00010447493
6.3032512e-06
9.0691473e-09
1.8217654e-12
1.9919289e-16
4.0101022e-20
5.7180922e-24
6.0617121e-29
2.6623172e-35
1.159686e-40
1.7588818e-43
3.6133261e-46
5.5022827e-49
5.5633215e-52
3.6216061e-55
1.4924413e-58
3.8328138e-62
6.0351733e-66
5.7190224e-70
3.2091509e-74
1.0487249e-78
1.8910403e-83
1.7226329e-88
7.1248925e-94
1.1469404e-99
5.6194194e-106
5.2727043e-113
3.0159205e-121
0.00037061387
0.00036676089
0.0003743491
0.00038011833
0.00037530653
0.00037345385
0.00036683232
0.00035677177
0.00034277839
0.00031255568
0.00028310953
0.0002881725
0.00031527644
0.00032957563
0.00031101303
0.00025246157
0.00014975726
3.053365e-05
2.6460998e-07
4.0868234e-10
6.1884401e-13
1.1549377e-15
9.6111087e-19
6.4088967e-23
1.2263205e-28
6.9604706e-36
6.1409382e-41
1.188432e-43
2.233235e-46
2.9350327e-49
2.5479229e-52
1.4343197e-55
5.1625877e-59
1.1732418e-62
1.6618412e-66
1.4460755e-70
7.6512483e-75
2.4236284e-79
4.3339326e-84
4.0239235e-89
1.739609e-94
2.9958394e-100
1.5940738e-106
1.6331942e-113
1.0157829e-121
0.00036350983
0.00036600396
0.00036630119
0.00037589221
0.00037858404
0.00037119544
0.00036688987
0.00035646354
0.00034849916
0.00032396733
0.00029714127
0.00030188278
0.00032770702
0.00034162251
0.00032589389
0.0002772218
0.00018449205
6.6796234e-05
3.1158806e-06
3.3048644e-08
4.7378762e-10
5.6718477e-12
2.3699962e-14
9.3274011e-18
1.2630272e-22
2.7868277e-29
3.1975693e-37
3.0568016e-41
6.5039369e-44
1.0750743e-46
1.2131619e-49
9.0997108e-53
4.474313e-56
1.4283849e-59
2.9394181e-63
3.873576e-67
3.2470124e-71
1.7273851e-75
5.7336696e-80
1.1140455e-84
1.163888e-89
5.8025412e-95
1.1652878e-100
7.1921765e-107
8.3846535e-114
5.76489e-122
0.00035605822
0.00035859633
0.00036151224
0.00036582954
0.00037552512
0.00037474974
0.0003634158
0.00035599296
0.00035303195
0.00033401625
0.0003090701
0.00031302908
0.00033731396
0.00034939906
0.00033569663
0.00029579681
0.00021866718
0.00010089323
1.6166057e-05
1.0000209e-06
8.6942337e-08
5.0506468e-09
9.1784857e-11
1.9194034e-13
1.7381869e-17
3.1484904e-23
5.6980231e-31
1.360135e-38
1.415077e-41
2.8064311e-44
4.0099413e-47
3.9177955e-50
2.5766204e-53
1.132888e-56
3.327702e-60
6.554407e-64
8.704262e-68
7.8304263e-72
4.7782181e-76
1.9160531e-80
4.6595445e-85
6.1833468e-90
3.8838197e-95
9.5544332e-101
6.9331194e-107
9.0736449e-114
6.6866607e-122
0.00035789509
0.0003543286
0.00035262876
0.00035658202
0.0003642733
0.00037284198
0.00036739278
0.00035153593
0.0003404857
0.00034282878
0.00031922182
0.00032192734
0.00034415778
0.0003542539
0.00034104627
0.00030898423
0.00024577233
0.00013934811
4.2624712e-05
1.0382805e-05
3.7540276e-06
8.5930515e-07
6.0837207e-08
5.9962968e-10
3.3192704e-13
4.7534023e-18
8.1794629e-25
1.1628733e-33
2.6455832e-39
5.383546e-42
9.4349288e-45
1.1756384e-47
1.01734e-50
6.0913404e-54
2.5435389e-57
7.535072e-61
1.6185195e-64
2.5638085e-68
2.9976656e-72
2.5161988e-76
1.4034886e-80
4.6512366e-85
8.0212938e-90
6.1850582e-95
1.7618904e-100
1.4043664e-106
1.9305888e-113
1.4394228e-121
0.00035097456
0.00036020297
0.0003510564
0.00034604712
0.00035077046
0.00036082744
0.00036709644
0.00035600448
0.00033538944
0.00031957764
0.0003278243
0.00032892038
0.00034870007
0.00035616635
0.00034290991
0.00031744023
0.00026782363
0.00017329404
7.6743232e-05
3.9463791e-05
3.2813512e-05
2.2852923e-05
6.5862265e-06
3.0712951e-07
9.4756678e-10
9.9028101e-14
1.6639841e-19
1.9642643e-27
2.975149e-36
7.9632788e-40
1.6228819e-42
2.5259536e-45
2.8444432e-48
2.3175274e-51
1.3936273e-54
6.3980424e-58
2.327139e-61
6.8509848e-65
1.608997e-68
2.8516098e-72
3.4863218e-76
2.626729e-80
1.0859758e-84
2.170819e-89
1.8314326e-94
5.4637401e-100
4.4171952e-106
6.015676e-113
4.3625473e-121
0.00033517087
0.00035706086
0.00036037891
0.00034603792
0.0003381377
0.00034345588
0.00035480403
0.00035757532
0.00034050456
0.00031419899
0.00029315356
0.00033401819
0.00035119908
0.00035583134
0.00034190512
0.00032216207
0.00028530837
0.0002034006
0.00011089693
7.2852841e-05
8.5627231e-05
9.0294419e-05
6.8125731e-05
2.0036038e-05
4.3637258e-07
3.0930894e-10
4.6559223e-15
6.9732492e-22
1.107453e-30
1.3404012e-37
2.1088538e-40
3.9973971e-43
5.832327e-46
6.5470483e-49
5.8574378e-52
4.3891631e-55
2.8660889e-58
1.6341431e-61
7.7386336e-65
2.7829377e-68
6.8617795e-72
1.0496375e-75
9.0685535e-80
4.0297844e-84
8.2868196e-89
6.9950662e-94
2.0513989e-99
1.6122687e-105
2.1190429e-112
1.4748493e-120
0.00033744637
0.00034105952
0.00036105638
0.00035841684
0.00033899539
0.00032856117
0.00033403469
0.0003455571
0.0003440158
0.00032007396
0.00028778505
0.00026119866
0.00035164646
0.0003533076
0.00033865382
0.00032413033
0.00029877549
0.00023001624
0.00014233229
0.00010502307
0.0001280484
0.00015671425
0.00015325084
0.00010657696
2.4058692e-05
1.5925053e-07
1.9669699e-11
3.3697656e-17
7.0418047e-25
8.671031e-34
2.2496447e-38
4.8114471e-41
9.1175742e-44
1.4501452e-46
2.0299259e-49
2.6360891e-52
3.2249641e-55
3.5536764e-58
3.2221139e-61
2.1629806e-64
9.7585455e-68
2.7304826e-71
4.4172299e-75
3.865063e-79
1.6887923e-83
3.3675874e-88
2.7370497e-93
7.7054219e-99
5.8094055e-105
7.3269624e-112
4.8953928e-120
0.00035005874
0.0003392742
0.00034584081
0.00036298527
0.00035427734
0.00033004946
0.00031684875
0.00032220417
0.00033263976
0.00032570845
0.00029443227
0.00025624039
0.0002243072
0.00034872269
0.00033346473
0.00032424
0.00030905083
0.00025324642
0.00017096636
0.00013385631
0.0001599567
0.00020694677
0.00022237049
0.00019480284
0.00011281369
1.2108721e-05
1.4041578e-08
2.4248224e-13
6.8854912e-20
4.1323823e-28
5.7338402e-36
4.5967945e-39
1.1349243e-41
2.6685084e-44
6.1923935e-47
1.4549032e-49
3.3304914e-52
6.7418328e-55
1.0770063e-57
1.2309826e-60
9.316661e-64
4.3941954e-67
1.2272208e-70
1.9312785e-74
1.6213029e-78
6.7428073e-83
1.2790827e-87
9.9064192e-93
2.6652317e-98
1.9267954e-104
2.3379355e-111
1.6960294e-128
0.00034200473
0.00034622055
0.00033953622
0.00034937946
0.00036281185
0.00034808061
0.0003187966
0.00030260911
0.00030753518
0.00031532828
0.00030225751
0.00026376994
0.00021972413
0.00017954955
0.0003266697
0.00032301292
0.00031717272
0.00027325746
0.00019723031
0.00015951219
0.00018662355
0.00023881632
0.00027291281
0.00026072662
0.00019979813
8.4238955e-05
1.8487256e-06
2.9535451e-10
9.6682967e-16
7.4252786e-23
1.9898626e-31
4.2847592e-37
1.179354e-39
4.3047076e-42
1.7340316e-44
7.4005773e-47
3.020417e-49
1.0383522e-51
2.6903323e-54
4.8490501e-57
5.7540603e-60
4.3040623e-63
1.9536681e-66
5.1839281e-70
7.7156005e-74
6.1102991e-78
2.4007838e-82
4.3214377e-87
3.1914403e-92
8.2284347e-98
5.7283685e-104
1.2049935e-119
2.6046524e-138
0.00031860825
0.00033304368
0.00034002605
0.00033866457
0.00035138111
0.00036046466
0.00033948846
0.00030480721
0.00028548919
0.00028900202
0.00029324405
0.000273533
0.00022735843
0.00017511716
0.00012352037
0.00032085333
0.00032404841
0.00029062811
0.00022132406
0.00018268681
0.00020914871
0.00026475591
0.00030397058
0.0003044745
0.00026259811
0.00016810533
3.416375e-05
6.986938e-08
2.2134662e-12
1.949325e-18
4.4328542e-26
3.0515491e-34
1.0893933e-37
6.3257437e-40
4.4905404e-42
3.3500176e-44
2.2638324e-46
1.2198594e-48
4.7851676e-51
1.2861112e-53
2.2768546e-56
2.5786228e-59
1.8161626e-62
7.7257416e-66
1.9215615e-69
2.6895082e-73
2.003951e-77
7.4516463e-82
1.2772109e-86
9.0359281e-92
2.244701e-97
4.5266748e-112
2.7922206e-129
1.3502471e-149
0.00031783645
0.00030933846
0.00032204026
0.00033236994
0.00033709911
0.00035149627
0.00035576919
0.00032810839
0.00028782614
0.00026488755
0.00026605558
0.00026585965
0.00023818013
0.00018228584
0.00011880729
5.7618773e-05
0.00033034465
0.00030610617
0.00024348447
0.00020389036
0.00022876677
0.00028562205
0.00032845012
0.00033297855
0.00030046855
0.00023206882
0.00010720461
3.5984224e-06
9.5198126e-10
8.0161101e-15
2.0438482e-21
1.8014258e-29
1.3170942e-35
8.597562e-38
1.0506377e-39
1.2840577e-41
1.331455e-43
1.051887e-45
5.9209743e-48
2.2759488e-50
5.8007697e-53
9.595024e-56
1.0099483e-58
6.6110625e-62
2.6218135e-65
6.1085701e-69
8.0466051e-73
5.6632697e-77
2.0031172e-81
3.2880664e-86
2.2422423e-91
2.7621331e-105
1.6889405e-121
1.9379515e-140
2.4772776e-162
0.00033564218
0.00031352213
0.00029853573
0.00030962331
0.00032467426
0.00033426426
0.00034937508
0.00034817566
0.00031380288
0.00026719182
0.00024008193
0.00023798415
0.00023197916
0.00019357835
0.00012457602
5.4386328e-05
9.3639925e-06
0.00032099797
0.00026387504
0.00022341108
0.00024601476
0.00030320806
0.0003471635
0.0003534811
0.00032541927
0.00027230627
0.00017338725
3.5227998e-05
9.3832035e-08
5.9411069e-12
1.4530001e-17
1.1645129e-24
1.8465724e-32
1.0999522e-35
2.1376039e-37
3.988407e-39
5.9455678e-41
6.5398356e-43
5.0731982e-45
2.696426e-47
9.6146529e-50
2.2591924e-52
3.44466e-55
3.3516896e-58
2.0377293e-61
7.5499257e-65
1.6542698e-68
2.0583836e-72
1.3766272e-76
4.6615041e-81
7.3774855e-86
4.3319341e-99
1.7092734e-114
1.8344091e-132
3.3721521e-153
3.6336147e-176
0.00033467752
0.00033891515
0.00030764088
0.000286408
0.00029619152
0.00031499837
0.00032955985
0.00034439679
0.00033767607
0.00029573639
0.00024234146
0.00021066994
0.0002045782
0.0001890942
0.00013545642
5.8927248e-05
8.3496491e-06
3.0065703e-07
0.00028278695
0.00024143116
0.00026102092
0.00031786503
0.00036239428
0.00036761748
0.00034115142
0.00029869788
0.00022622396
9.2909034e-05
2.5277534e-06
9.7817145e-10
1.7888709e-14
1.3641716e-20
4.7177336e-28
1.7619118e-33
3.6492703e-35
9.7515141e-37
1.9854941e-38
2.9221873e-40
3.0260564e-42
2.1636372e-44
1.0516577e-46
3.4262858e-49
7.3778642e-52
1.0358418e-54
9.3337444e-58
5.2894934e-61
1.8397837e-64
3.8130135e-68
4.5040116e-72
2.8823139e-76
9.411113e-81
2.2483828e-93
4.5083997e-108
3.1389821e-125
4.028573e-145
3.1327455e-167
1.0480255e-190
0.00030022156
0.00034590402
0.00033970483
0.00030019699
0.00027280212
0.0002807849
0.00030334975
0.00032219494
0.00033617265
0.00032332426
0.00027328228
0.00021263538
0.00017634114
0.00016270139
0.00013301623
6.7267559e-05
9.7119483e-06
2.483976e-07
2.3546457e-09
0.00025805648
0.00027385479
0.00032931736
0.00037430481
0.00037735701
0.00034945222
0.00031346164
0.00026233819
0.00015701195
1.9835168e-05
4.5133244e-08
4.7210335e-12
2.7139736e-17
7.2100344e-24
1.183159e-30
5.1971373e-33
1.8509688e-34
4.9489374e-36
9.4425941e-38
1.2707371e-39
1.1931309e-41
7.7252898e-44
3.4087243e-46
1.0128646e-48
2.0013344e-51
2.5956181e-54
2.1756225e-57
1.1554287e-60
3.795614e-64
7.4812736e-68
8.4498875e-72
5.2135417e-76
4.5362743e-88
3.961684e-102
1.4528549e-118
1.0448524e-137
3.0671454e-159
5.2496492e-182
8.6467413e-206
0.00027342127
0.00031595176
0.00035396422
0.00033823786
0.00029096229
0.000257555
0.00026338275
0.00028889553
0.0003114435
0.0003239585
0.00030437187
0.00024490701
0.00017692848
0.0001338312
0.00010897941
6.5485975e-05
1.2635188e-05
2.9785258e-07
1.7571921e-09
4.6968126e-12
0.00028432342
0.00033721372
0.00038219005
0.00038290458
0.00035177287
0.00031958303
0.00028480826
0.0002076442
7.2021971e-05
7.4670045e-07
3.3734394e-10
1.1165489e-14
2.1940461e-20
4.3906158e-27
6.9934504e-31
2.7407982e-32
9.27761e-34
2.233619e-35
3.8132845e-37
4.5968086e-39
3.8796815e-41
2.2686786e-43
9.0925086e-46
2.4704029e-48
4.4967507e-51
5.4140984e-54
4.245736e-57
2.126569e-60
6.6438762e-64
1.2529445e-67
1.3639347e-71
3.9771735e-83
1.3569707e-96
2.2826062e-112
8.0936022e-131
8.7053502e-152
2.9320806e-174
3.0688193e-197
2.3720702e-221
0.00029268025
0.00028717897
0.00032947846
0.00035907017
0.00033443366
0.00027991014
0.00024038808
0.00024331955
0.00027101708
0.00029656892
0.00030708303
0.00027953445
0.00020918639
0.00013222853
8.0895531e-05
4.6447774e-05
1.2006013e-05
4.3227987e-07
2.0921961e-09
3.0603569e-12
2.3893242e-15
0.0003410313
0.0003849262
0.00038366004
0.00034855505
0.00031866594
0.00029662732
0.00024595057
0.00012883411
1.078925e-05
8.4236257e-09
1.1968063e-12
1.37462e-17
1.2769613e-23
1.3595369e-28
3.276065e-30
1.3446071e-31
3.94166e-33
8.3217954e-35
1.2597863e-36
1.3566675e-38
1.0294996e-40
5.4475883e-43
1.9895487e-45
4.9637729e-48
8.3662973e-51
9.4070104e-54
6.9481236e-57
3.3058397e-60
9.8977953e-64
1.7980969e-67
1.6449741e-78
2.0204442e-91
1.411694e-106
2.2446572e-124
9.0000228e-145
5.9624395e-167
9.5390828e-190
7.3552211e-213
2.4629515e-237
0.00034089202
0.00029890744
0.00029973396
0.00034058428
0.00036132852
0.00032833267
0.00026668581
0.00022092451
0.00022029071
0.00024923802
0.00027710295
0.00028479264
0.00024621014
0.00016213744
7.7167342e-05
2.6253911e-05
6.1466904e-06
4.1369469e-07
3.269678e-09
3.54891e-12
1.3033302e-15
3.2529089e-19
0.00038169028
0.00037841376
0.0003399908
0.00031183031
0.00030078363
0.00027261451
0.00018104313
4.6410328e-05
3.1670017e-07
4.2607915e-11
2.2089867e-15
1.1625411e-20
6.1665514e-26
3.5705818e-28
1.5886197e-29
5.4646903e-31
1.3606308e-32
2.5039687e-34
3.3667803e-36
3.246507e-38
2.2213585e-40
1.067465e-42
3.5681939e-45
8.2174711e-48
1.2901549e-50
1.3638823e-53
9.5591786e-57
4.3551765e-60
1.2584712e-63
3.4188141e-74
1.4166173e-86
3.8145576e-101
2.5292428e-118
3.7452557e-138
5.8251254e-160
1.0330454e-182
1.5885163e-205
7.4773554e-229
1.78008e-253
0.00037220136
0.00033685178
0.00030395111
0.00031132496
0.00034902464
0.00036070991
0.00031959418
0.00025093832
0.00019875563
0.00019398959
0.00022303587
0.00025202598
0.00025437467
0.000198418
0.00010264786
2.2714788e-05
2.2011961e-06
1.6769469e-07
3.2322924e-09
5.9637014e-12
1.4466709e-15
1.4780359e-19
1.2824938e-23
0.00036664459
0.00032631167
0.00030016519
0.00029926341
0.00029084138
0.00022592655
9.7349089e-05
4.1384907e-06
3.4907441e-09
1.220012e-13
4.2147595e-18
1.0643261e-22
9.1287352e-26
1.8562685e-27
6.4441279e-29
1.8094944e-30
3.7725359e-32
6.0494583e-34
7.254244e-36
6.285918e-38
3.8926037e-40
1.7062172e-42
5.2470559e-45
1.1221055e-47
1.6521171e-50
1.6543104e-53
1.1092426e-56
4.8831187e-60
3.7548764e-70
4.9728578e-82
4.8631198e-96
1.2713417e-112
6.8041614e-132
2.7856526e-153
6.5841993e-176
9.3558607e-199
1.3891986e-221
5.5768624e-245
1.1683697e-269
0.00034829469
0.00035692906
0.00033050316
0.00030838848
0.00032126807
0.00035448409
0.00035711342
0.00030789441
0.00023219693
0.0001734777
0.00016415301
0.00019155346
0.00022127917
0.00020952562
0.00013586385
3.7207621e-05
1.5603075e-06
4.2279191e-08
1.1548343e-09
6.1270399e-12
2.5787511e-15
1.4558432e-19
4.9598262e-24
1.6101343e-28
0.00030794643
0.00028472096
0.00029379311
0.00030341777
0.000263719
0.00014922186
2.3400105e-05
9.0648852e-08
2.2887755e-11
1.3704989e-15
9.0948657e-19
8.8151962e-22
1.3043428e-24
9.8378678e-27
2.1076742e-28
4.6452e-30
8.2262964e-32
1.1720305e-33
1.258879e-35
9.8398609e-38
5.5385586e-40
2.2255512e-42
6.3337785e-45
1.2662919e-47
1.7614853e-50
1.6843287e-53
1.089935e-56
2.2713671e-66
9.1749872e-78
3.1021358e-91
3.0597075e-107
5.8007048e-126
6.5256967e-147
2.6819158e-169
3.0372759e-192
5.6401729e-215
1.0098302e-237
3.8458535e-261
6.9097857e-286
0.00028561671
0.00032440235
0.00033828903
0.00032325537
0.00031196454
0.00032893649
0.00035669886
0.00035011494
0.00029294146
0.00020981613
0.00014485393
0.00013077373
0.00015889643
0.00017894697
0.00014772523
6.2475257e-05
3.1586011e-06
2.3040467e-08
2.1385586e-10
1.9887753e-12
2.7185312e-15
2.6146681e-19
4.1127048e-24
5.4234253e-29
6.7603678e-34
0.00026650323
0.00028571351
0.00031255965
0.00029605019
0.00019939266
6.3734856e-05
1.1911092e-06
1.182068e-09
8.0724249e-13
6.8798873e-15
3.8982368e-17
5.7118118e-20
3.6646163e-23
4.6563921e-26
5.0648848e-28
9.0615879e-30
1.4130346e-31
1.8208157e-33
1.75873e-35
1.2451515e-37
6.4015277e-40
2.3716568e-42
6.2878983e-45
1.1840661e-47
1.5689998e-50
1.4453978e-53
7.8371125e-63
9.255262e-74
1.0368633e-86
3.7225368e-102
2.4650602e-120
7.7002735e-141
6.4805604e-163
7.556021e-186
9.8626306e-209
3.5306875e-231
7.1591522e-254
2.3972302e-277
3.6817034e-302
0.00024646844