/*--------------------------------*- C++ -*----------------------------------*\
| =========                 |                                                 |
| \\      /  F ield         | OpenFOAM: The Open Source CFD Toolbox           |
|  \\    /   O peration     | Version:  5.0                                   |
|   \\  /    A nd           | Web:      www.OpenFOAM.org                      |
|    \\/     M anipulation  |                                                 |
\*---------------------------------------------------------------------------*/
FoamFile
{
    version     2.0;
    format      ascii;
    class       volScalarField;
    location    "240";
    object      nuTilda_0;
}
// * * * * * * * * * * * * * * * * * * * * * * * * * * * * * * * * * * * * * //

dimensions      [0 2 -1 0 0 0 0];

internalField   nonuniform List<scalar> 
9520
(
4.8382483e-33
5.136009e-31
4.682452e-33
2.6676578e-29
4.9722144e-31
4.5280011e-33
9.0042634e-28
2.5830443e-29
4.8092613e-31
4.3841936e-33
2.2233127e-26
8.7201562e-28
2.4987553e-29
4.6584699e-31
4.2603634e-33
4.292231e-25
2.1535203e-26
8.4374162e-28
2.4213091e-29
4.5309816e-31
4.1597558e-33
6.7717801e-24
4.1579833e-25
2.0842858e-26
8.1794633e-28
2.3568728e-29
4.4296956e-31
4.0770809e-33
8.9957132e-23
6.5608808e-24
4.0254194e-25
2.0215668e-26
7.9674341e-28
2.3064525e-29
4.3460055e-31
3.9992532e-33
1.0251335e-21
8.7184058e-23
6.3536915e-24
3.9062218e-25
1.9704201e-26
7.8026272e-28
2.2639972e-29
4.2622455e-31
3.9086269e-33
1.0167655e-20
9.9408834e-22
8.4472688e-23
6.1687985e-24
3.8094681e-25
1.9305587e-26
7.6596586e-28
2.2186457e-29
4.1580142e-31
3.7905189e-33
8.8957361e-20
9.8677481e-21
9.6382193e-22
8.2069438e-23
6.0190308e-24
3.7332156e-25
1.8946119e-26
7.4974443e-28
2.1594239e-29
4.0202985e-31
3.6422145e-33
7.0608193e-19
8.6390466e-20
9.5753668e-21
9.3706645e-22
8.0123033e-23
5.8988577e-24
3.661225e-25
1.8517015e-26
7.2791211e-28
2.0814319e-29
3.8526078e-31
3.4793215e-33
5.9650889e-18
6.8323591e-19
8.3888839e-20
9.3151017e-21
9.1533446e-22
7.8527837e-23
5.7795714e-24
3.5716917e-25
1.7931545e-26
6.995451e-28
1.9899962e-29
3.6789304e-31
3.3343583e-33
9.708592e-17
5.58839e-18
6.6143079e-19
8.1603689e-20
9.1021584e-21
8.9716359e-22
7.6863366e-23
5.6262203e-24
3.449457e-25
1.7186714e-26
6.6762757e-28
1.901002e-29
3.5382466e-31
3.2457013e-33
3.3322055e-15
8.5130523e-17
5.2404292e-18
6.4058585e-19
7.9713067e-20
8.9220724e-21
8.773692e-22
7.466134e-23
5.4184182e-24
3.2982125e-25
1.6383777e-26
6.3851526e-28
1.8360891e-29
3.4696102e-31
3.2402408e-33
1.2129582e-13
2.9618817e-15
7.2223771e-17
4.880103e-18
6.2342605e-19
7.8139075e-20
8.7200335e-21
8.5049313e-22
7.1705382e-23
5.1695443e-24
3.1424218e-25
1.5699041e-26
6.1968146e-28
1.8136552e-29
3.4932303e-31
3.3177757e-33
3.6319246e-12
1.1290542e-13
2.4054978e-15
5.6796539e-17
4.5891681e-18
6.1027709e-19
7.6361726e-20
8.4379043e-21
8.1467867e-22
6.8282524e-23
4.925569e-24
3.0186732e-25
1.5313858e-26
6.1639606e-28
1.8392408e-29
3.5966542e-31
3.4455187e-33
8.4495192e-11
3.518858e-12
9.2328903e-14
1.6506547e-15
4.4252934e-17
4.406447e-18
5.9634326e-19
7.3788032e-20
8.062049e-21
7.7452195e-22
6.5099371e-23
4.7465126e-24
2.9598718e-25
1.5328955e-26
6.287221e-28
1.9000901e-29
3.7338444e-31
3.5662608e-33
1.4898657e-09
8.4332689e-11
2.903627e-12
6.1597046e-14
1.0443295e-15
3.7461533e-17
4.2734418e-18
5.7549363e-19
7.0317079e-20
7.6525904e-21
7.3917678e-22
6.2965487e-23
4.6786682e-24
2.9787589e-25
1.5700025e-26
6.5036816e-28
1.967291e-29
3.8386739e-31
3.6170057e-33
1.9422817e-08
1.5165101e-09
7.0111416e-11
1.9253603e-12
3.7773513e-14
7.5809329e-16
3.4559867e-17
4.1026367e-18
5.4661837e-19
6.6620247e-20
7.3125379e-21
7.1781939e-22
6.2396253e-23
4.7299687e-24
3.0580106e-25
1.6228395e-26
6.7026145e-28
2.0051471e-29
3.8473177e-31
3.5504914e-33
1.8361615e-07
1.9983532e-08
1.2685009e-09
4.6541672e-11
1.2114716e-12
2.8786257e-14
6.868994e-16
3.227949e-17
3.8628625e-18
5.1633966e-19
6.3732987e-20
7.1311012e-21
7.1493226e-22
6.3320059e-23
4.8593462e-24
3.1523037e-25
1.6619628e-26
6.7637299e-28
1.983756e-29
3.720571e-31
3.3517095e-33
1.2297288e-06
1.8898685e-07
1.6930729e-08
8.520561e-10
3.0606295e-11
1.0339696e-12
2.9242666e-14
6.3845694e-16
2.868678e-17
3.6145623e-18
4.9417903e-19
6.2416755e-20
7.1365358e-21
7.2757168e-22
6.5013422e-23
4.9863959e-24
3.2030817e-25
1.6589685e-26
6.6014175e-28
1.8896817e-29
3.458188e-31
3.0442189e-33
5.8225257e-06
1.2585974e-06
1.6210673e-07
1.1786368e-08
5.9470255e-10
2.9302405e-11
1.1798128e-12
2.8950822e-14
4.8315556e-16
2.4835064e-17
3.4454429e-18
4.8597321e-19
6.2755933e-20
7.277242e-21
7.4560332e-22
6.6316258e-23
5.0195079e-24
3.1604422e-25
1.5973434e-26
6.1961666e-28
1.7311993e-29
3.1010135e-31
2.6849545e-33
1.9580382e-05
5.9187503e-06
1.0993722e-06
1.180746e-07
8.9718451e-09
6.2692843e-10
3.643175e-11
1.2267305e-12
2.0734647e-14
2.9508021e-16
2.2428115e-17
3.3965944e-18
4.9093874e-19
6.4087563e-20
7.4349616e-21
7.5512939e-22
6.6061051e-23
4.8912813e-24
3.0028629e-25
1.4788067e-26
5.6038118e-28
1.5369124e-29
2.7210657e-31
2.3499651e-33
4.8425364e-05
1.9767674e-05
5.2543265e-06
8.4417487e-07
9.72845e-08
9.8558901e-09
8.1893323e-10
3.8932543e-11
8.720116e-13
1.0029607e-14
1.824115e-16
2.1686382e-17
3.4479242e-18
5.0206274e-19
6.5222589e-20
7.4685167e-21
7.4387051e-22
6.3538984e-23
4.5861904e-24
2.746128e-25
1.3234501e-26
4.9424857e-28
1.3486394e-29
2.4034599e-31
2.1159586e-33
9.3087478e-05
4.8732296e-05
1.7848372e-05
4.2371712e-06
7.3879099e-07
1.0948251e-07
1.301969e-08
8.8383548e-10
2.7515814e-11
3.9720166e-13
3.8279117e-15
1.4127378e-16
2.1989303e-17
3.5327784e-18
5.0874064e-19
6.4921424e-20
7.2708478e-21
7.0621439e-22
5.8805084e-23
4.1485351e-24
2.4395085e-25
1.1646523e-26
4.3628832e-28
1.2110127e-29
2.225975e-31
2.0429404e-33
0.00014757444
9.3598849e-05
4.4751345e-05
1.505478e-05
3.8912854e-06
8.4148664e-07
1.4322848e-07
1.4015388e-08
6.2234697e-10
1.2198379e-11
1.3195268e-13
1.6192398e-15
1.3315546e-16
2.2559856e-17
3.5642327e-18
5.013716e-19
6.2417961e-20
6.8141051e-21
6.4580129e-22
5.2694066e-23
3.6701045e-24
2.1529001e-25
1.0406331e-26
4.0111276e-28
1.1608425e-29
2.2416515e-31
2.1617739e-33
0.00019975217
0.00014818494
8.726432e-05
3.906571e-05
1.4327948e-05
4.4584284e-06
1.0780196e-06
1.5258194e-07
9.8774798e-09
2.7501782e-10
3.9022555e-12
4.3430659e-14
1.0634605e-15
1.3472455e-16
2.2662117e-17
3.4750306e-18
4.7564207e-19
5.7745122e-20
6.164339e-21
5.7463736e-22
4.657782e-23
3.2658657e-24
1.959152e-25
9.8506619e-27
3.9941951e-28
1.2188295e-29
2.4677431e-31
2.4683389e-33
0.00024276939
0.00019911779
0.00013890899
7.788244e-05
3.8017067e-05
1.6411099e-05
5.5550349e-06
1.1326145e-06
1.0823384e-07
4.4518687e-09
9.2249768e-11
1.3293346e-12
2.4396428e-14
1.0145757e-15
1.3442506e-16
2.1836585e-17
3.249217e-18
4.342729e-19
5.1742232e-20
5.4617624e-21
5.0956493e-22
4.2000917e-23
3.0449607e-24
1.9161691e-25
1.0190846e-26
4.355427e-28
1.3850685e-29
2.8821377e-31
2.9242437e-33
0.00027891517
0.00024117739
0.00018720552
0.00012550224
7.6444104e-05
4.3279828e-05
1.9852175e-05
5.7375449e-06
8.1354741e-07
5.0880301e-08
1.6477173e-09
3.6236281e-11
9.6850732e-13
2.6814698e-14
1.0202078e-15
1.2723605e-16
2.0087529e-17
2.9260833e-18
3.8586015e-19
4.5784395e-20
4.879733e-21
4.6781569e-22
4.0292926e-23
3.0837181e-24
2.052922e-25
1.1462526e-26
5.0638979e-28
1.6386756e-29
3.4269025e-31
3.4632106e-33
0.00030955166
0.00027616376
0.00022756473
0.00017178154
0.00012353895
8.6172642e-05
5.0872454e-05
2.0160409e-05
4.1935374e-06
4.0489261e-07
2.0955502e-08
7.7143838e-10
3.3549898e-11
1.322615e-12
3.0037681e-14
8.8823509e-16
1.1407859e-16
1.7819116e-17
2.5805866e-18
3.4198759e-19
4.1389134e-20
4.5797704e-21
4.6270735e-22
4.2236227e-23
3.406532e-24
2.3619191e-25
1.3511814e-26
6.0183488e-28
1.9412506e-29
4.0179236e-31
4.002053e-33
0.00033530458
0.00030546811
0.00026123086
0.0002110919
0.00017050597
0.0001377179
9.8798187e-05
5.097459e-05
1.5080627e-05
2.230923e-06
1.8679161e-07
1.1801103e-08
8.3832252e-10
5.1103419e-11
1.586316e-12
2.2706527e-14
6.7959376e-16
9.9059203e-17
1.5606474e-17
2.297635e-18
3.1406252e-19
3.9836133e-20
4.6714781e-21
5.0024375e-22
4.7856834e-23
3.9780528e-24
2.7991512e-25
1.601899e-26
7.0646725e-28
2.2435182e-29
4.5593801e-31
4.4548464e-33
0.00035532347
0.00032956938
0.00028993986
0.00024419089
0.00021072271
0.00018829983
0.00015525758
9.8317688e-05
3.9242982e-05
8.6395489e-06
1.1623887e-06
1.2595835e-07
1.4373208e-08
1.3410775e-09
6.2830396e-11
1.1825964e-12
1.0727566e-14
5.2480065e-16
8.6044286e-17
1.3996604e-17
2.1510746e-18
3.106355e-19
4.1852779e-20
5.1833797e-21
5.7728411e-22
5.6377087e-23
4.7079447e-24
3.2915872e-25
1.8556163e-26
8.0239111e-28
2.4941559e-29
4.9609496e-31
4.7480628e-33
0.00036995034
0.0003482462
0.00031343519
0.00027310837
0.00024416877
0.00023027718
0.00020874364
0.00015401149
7.8171943e-05
2.4275053e-05
5.1088733e-06
9.2603233e-07
1.6576242e-07
2.3290507e-08
1.6599847e-09
4.7228793e-11
4.896155e-13
4.1615399e-15
4.3827648e-16
7.7888781e-17
1.3397738e-17
2.1883284e-18
3.3533196e-19
4.7404007e-20
6.0507141e-21
6.8168188e-22
6.6342835e-23
5.4676564e-24
3.7510416e-25
2.0668561e-26
8.7259335e-28
2.6494779e-29
5.1544291e-31
4.8336446e-33
0.00037987043
0.00036179026
0.00033199835
0.00029733379
0.00027317961
0.00026383022
0.00025062371
0.0002052545
0.00012562063
5.2001245e-05
1.6208782e-05
4.691809e-06
1.2783391e-06
2.6560996e-07
2.8694623e-08
1.2597647e-09
1.9619875e-11
1.1945453e-13
2.2935622e-15
3.9903093e-16
7.6391292e-17
1.4016273e-17
2.4191933e-18
3.8560725e-19
5.5640657e-20
7.1239932e-21
7.9448351e-22
7.5907267e-23
6.115933e-24
4.0919369e-25
2.1964626e-26
9.0426942e-28
2.6817418e-29
5.1060387e-31
4.6969485e-33
0.00038529615
0.00037094723
0.00034586561
0.00031703932
0.00029765118
0.00029181283
0.00028266331
0.00024501104
0.0001712064
8.8999155e-05
3.8459361e-05
1.6577856e-05
6.6264246e-06
1.9911138e-06
3.2295912e-07
2.2003081e-08
5.368685e-10
4.6838043e-12
2.6118944e-14
1.9265041e-15
4.0126628e-16
8.2108996e-17
1.5810653e-17
2.8099932e-18
4.5279442e-19
6.5039179e-20
8.1980535e-21
8.9371428e-22
8.3169097e-23
6.5244438e-24
4.2483607e-25
2.2194848e-26
8.9128531e-28
2.5839926e-29
4.8213623e-31
4.357441e-33
0.00038695589
0.00037616972
0.00035578633
0.00033248917
0.00031770619
0.0003148085
0.00030814893
0.00027541975
0.000209021
0.00012838961
7.1276219e-05
4.2104597e-05
2.3452429e-05
9.9080113e-06
2.3719671e-06
2.5051742e-07
9.7403615e-09
1.3696865e-10
8.8423742e-13
1.0843418e-14
1.9581865e-15
4.4246029e-16
9.4181553e-17
1.8469368e-17
3.2869558e-18
5.2369592e-19
7.3717611e-20
9.0507853e-21
9.5832188e-22
8.6601157e-23
6.6066826e-24
4.1858883e-25
2.1298309e-26
8.3511095e-28
2.3702224e-29
4.3411736e-31
3.8621227e-33
0.00038614819
0.00037840864
0.00036227511
0.00034437414
0.00033363492
0.00033328742
0.0003284119
0.00029972196
0.00023921354
0.00016451315
0.00010910279
8.0945866e-05
5.8676405e-05
3.339734e-05
1.149913e-05
1.8630373e-06
1.1638062e-07
2.7208097e-09
2.8707413e-11
1.7317568e-13
9.2120178e-15
2.2079235e-15
5.1473047e-16
1.1025687e-16
2.1449607e-17
3.751081e-18
5.8348846e-19
7.9789998e-20
9.4933785e-21
9.7407566e-22
8.5419756e-23
6.3386343e-24
3.910207e-25
1.940272e-26
7.43981e-28
2.0707634e-29
3.7302965e-31
3.2738573e-33
0.00038347623
0.00037870439
0.00036635274
0.00035309175
0.00034620817
0.00034762095
0.00034411488
0.00031896265
0.00026554076
0.00019495975
0.0001457582
0.00012574275
0.00011003069
7.9407291e-05
3.7664518e-05
9.1608375e-06
9.1596709e-07
3.5881831e-08
6.4015985e-10
5.433017e-12
5.8763383e-14
1.0342549e-14
2.6018094e-15
6.0243006e-16
1.2680049e-16
2.4098287e-17
4.1014608e-18
6.186678e-19
8.1827749e-20
9.4189926e-21
9.3617116e-22
7.9708179e-23
5.7587794e-24
3.462837e-25
1.6785772e-26
6.3057952e-28
1.7246805e-29
3.0626119e-31
2.6580474e-33
0.00037907161
0.0003777105
0.00036958382
0.00035945303
0.00035561581
0.00035866421
0.00035572725
0.00033387902
0.00028729183
0.00022327406
0.00017790144
0.00016795541
0.00016631394
0.00014173981
8.7160592e-05
3.0535695e-05
4.7986466e-06
3.1236551e-07
9.3978233e-09
1.3400014e-10
1.0816307e-12
5.0193371e-14
1.234305e-14
3.0412819e-15
6.8465053e-16
1.3998056e-16
2.5817523e-17
4.2574441e-18
6.2010542e-19
7.9235205e-20
8.8225003e-21
8.4992501e-22
7.0344167e-23
4.9548284e-24
2.9086764e-25
1.3801672e-26
5.0902456e-28
1.3712893e-29
2.4065963e-31
2.0712476e-33
0.000376432
0.00037737328
0.00037232894
0.00036459817
0.00036231158
0.00036644386
0.00036393264
0.00034478777
0.00030519232
0.00024812115
0.0002058024
0.00020365025
0.00021551665
0.00020494391
0.00015166779
7.2163654e-05
1.7121056e-05
1.807926e-06
9.0356516e-08
2.2004977e-09
2.8840662e-11
5.2836461e-13
6.1828211e-14
1.4445842e-14
3.4105611e-15
7.4117476e-16
1.4672317e-16
2.6213064e-17
4.1695891e-18
5.8593521e-19
7.2332965e-20
7.7959555e-21
7.2880399e-22
5.8731826e-23
4.0398154e-24
2.3197512e-25
1.0800412e-26
3.9205133e-28
1.0432475e-29
1.8150684e-31
1.5541671e-33
0.00037462181
0.00037857569
0.0003790317
0.00036852196
0.00036717764
0.00037142214
0.00036891154
0.00035231004
0.00031952816
0.0002695763
0.0002306123
0.00023202422
0.0002532451
0.00025684181
0.00021433026
0.00012822723
4.3419977e-05
7.0940001e-06
5.748835e-07
2.3856125e-08
5.936117e-10
1.7149002e-11
8.5868207e-13
7.714005e-14
1.5975624e-14
3.6122533e-15
7.5850004e-16
1.4546392e-16
2.5077979e-17
3.8441309e-18
5.2129655e-19
6.2220358e-20
6.4989997e-21
5.9056926e-22
4.6437167e-23
3.1256667e-24
1.760185e-25
8.064924e-27
2.891036e-28
7.6271666e-30
1.32076e-31
1.1297249e-33
0.00037125245
0.00037923396
0.00037990973
0.00037953579
0.00037003433
0.00037421998
0.00037126955
0.00035687636
0.00033078579
0.0002879483
0.00025223604
0.00025505854
0.00028112539
0.00029259334
0.00026321885
0.00018392681
8.2610418e-05
1.9689109e-05
2.4786617e-06
1.7478753e-07
8.7033096e-09
5.2581429e-10
3.5711233e-11
1.4693005e-12
8.5370079e-14
1.6467535e-14
3.5989445e-15
7.3294672e-16
1.3590745e-16
2.2556595e-17
3.3331651e-18
4.3655656e-19
5.0444339e-20
5.1153552e-21
4.5291239e-22
3.4848901e-23
2.3022805e-24
1.2763858e-25
5.7802153e-27
2.056501e-28
5.4084619e-30
9.3741189e-32
8.05366e-34
0.00037074488
0.00037423382
0.00038194294
0.00037952746
0.0003787724
0.00037479743
0.00037143675
0.00035915488
0.00033942397
0.00030359372
0.00027093302
0.00027447305
0.00030114363
0.00031582253
0.00029505536
0.00022839985
0.00012592412
4.0812168e-05
7.6167285e-06
9.0242755e-07
9.1082417e-08
1.0714537e-08
1.1680605e-09
6.6886439e-11
1.7350779e-12
8.0244404e-14
1.586494e-14
3.3799111e-15
6.6818287e-16
1.1924467e-16
1.906213e-17
2.7180202e-18
3.4433149e-19
3.8598393e-20
3.8106462e-21
3.2998625e-22
2.4960158e-23
1.6270456e-24
8.9404441e-26
4.0319994e-27
1.4360389e-28
3.7984973e-30
6.6462738e-32
5.7783424e-34
0.00037312219
0.00036935006
0.00037704411
0.00038244708
0.00037758036
0.00037591005
0.00036972975
0.00035975976
0.00034609664
0.00031675468
0.00028701263
0.00029069052
0.00031711839
0.00033222936
0.00031542179
0.00025990405
0.00016486827
6.7714146e-05
1.7735186e-05
3.4790501e-06
6.7812927e-07
1.3984066e-07
2.3714772e-08
2.1499156e-09
8.0395928e-11
1.2515487e-12
6.8623516e-14
1.4401003e-14
3.0004412e-15
5.7174538e-16
9.8217506e-17
1.5140361e-17
2.0869235e-18
2.564036e-19
2.7987986e-20
2.7043348e-21
2.3070334e-22
1.7308466e-23
1.1253706e-24
6.2096303e-26
2.8297303e-27
1.0242943e-28
2.7641448e-30
4.9414388e-32
4.3855e-34
0.00036643834
0.00036865505
0.00036902558
0.00037856627
0.0003808783
0.00037350872
0.00036946154
0.00035931746
0.00035154308
0.00032785597
0.00030075071
0.00030418893
0.0003294707
0.00034421056
0.00032997155
0.00028360237
0.00019650651
9.615341e-05
3.3486756e-05
1.040625e-05
3.5640947e-06
1.1733268e-06
2.9798604e-07
4.2096931e-08
2.5664334e-09
5.6005837e-11
5.8410872e-13
5.7710555e-14
1.2400637e-14
2.5023551e-15
4.5899627e-16
7.6017196e-17
1.1327561e-17
1.5150394e-18
1.8153927e-19
1.9454986e-20
1.8614039e-21
1.5889974e-22
1.2051286e-23
7.9919733e-25
4.5371268e-26
2.1405051e-27
8.0452314e-29
2.2518567e-30
4.1564113e-32
3.7820129e-34
0.00035874021
0.00036155824
0.00036429172
0.00036867294
0.00037818404
0.00037704632
0.00036583089
0.00035875044
0.00035585745
0.00033764385
0.00031248264
0.00031523007
0.00033906923
0.00035201374
0.00033957195
0.00030139337
0.00022826278
0.00012301518
5.3878381e-05
2.458991e-05
1.3144834e-05
6.4261411e-06
2.3571643e-06
5.0542299e-07
4.953188e-08
1.8286198e-09
2.1381182e-11
2.6585076e-13
4.765027e-14
1.0062732e-14
1.957901e-15
3.4639695e-16
5.5506406e-17
8.0412896e-18
1.0529443e-18
1.2471942e-19
1.3379888e-20
1.3014639e-21
1.1482299e-22
9.117585e-24
6.3878119e-25
3.8465353e-26
1.9216937e-27
7.597818e-29
2.2147297e-30
4.2088696e-32
3.8978452e-34
0.00036046101
0.0003568972
0.00035556871
0.00035953543
0.00036721046
0.00037551136
0.00036973908
0.00035412887
0.00034351848
0.00034622872
0.00032250529
0.00032409976
0.00034597459
0.00035696242
0.00034480976
0.00031398399
0.00025382131
0.00015558725
7.6856689e-05
4.6444147e-05
3.4620268e-05
2.346717e-05
1.2007107e-05
3.787696e-06
5.8337498e-07
3.6094682e-08
7.4066455e-10
4.5831424e-12
1.7635451e-13
3.7466028e-14
7.67106e-15
1.4421524e-15
2.4746558e-16
3.8718526e-17
5.5336867e-18
7.2541574e-19
8.768731e-20
9.8150563e-21
1.0177321e-21
9.7121369e-23
8.36979e-24
6.335262e-25
4.0747814e-26
2.1441945e-27
8.8002114e-29
2.6277803e-30
5.0580513e-32
4.6995052e-34
0.0003542118
0.00036257921
0.00035355017
0.00034902865
0.000353911
0.00036387617
0.00036981
0.00035847081
0.00033825423
0.0003230237
0.00033104358
0.00033111787
0.00035062294
0.0003590138
0.00034662991
0.00032196652
0.00027471287
0.00018597863
0.00010284743
7.3463049e-05
6.7848303e-05
5.9406277e-05
4.0469929e-05
1.81346e-05
4.2719819e-06
4.3415759e-07
1.5738071e-08
1.6542853e-10
1.0268839e-12
1.3072744e-13
2.7790323e-14
5.5225156e-15
1.0118844e-15
1.7092465e-16
2.6743775e-17
3.9081162e-18
5.3831442e-19
7.0281755e-20
8.6701031e-21
9.9718341e-22
1.0459122e-22
9.7265046e-24
7.789278e-25
5.2038083e-26
2.8029923e-27
1.1645267e-28
3.491252e-30
6.7062568e-32
6.1886649e-34
0.00033837896
0.00036013028
0.00036261418
0.00034851262
0.00034123605
0.00034681769
0.00035799788
0.00036038473
0.00034318136
0.00031748347
0.00029722421
0.00033629385
0.0003532692
0.00035885168
0.00034561904
0.00032629948
0.00029125669
0.00021380841
0.00013002418
9.834902e-05
0.00010710465
0.0001105364
9.4269704e-05
5.7118674e-05
1.9929122e-05
3.2489646e-06
2.0361566e-07
4.0358828e-09
2.5512065e-11
4.7163283e-13
9.3858701e-14
1.9588719e-14
3.8278545e-15
7.0009158e-16
1.2087038e-16
1.9942953e-17
3.1766426e-18
4.8901375e-19
7.1894518e-20
9.8747683e-21
1.2352102e-21
1.3721899e-22
1.3220854e-23
1.0790268e-24
7.2647599e-26
3.9154362e-27
1.620233e-28
4.8241342e-30
9.1853523e-32
8.3898171e-34
0.00033984982
0.00034430611
0.00036396627
0.00036055126
0.00034150098
0.00033182794
0.00033766225
0.00034893965
0.00034699831
0.00032309722
0.00029171516
0.00026624006
0.0003539018
0.00035653425
0.00034239053
0.00032793393
0.00030394024
0.00023883523
0.00015681264
0.00012317437
0.00014046357
0.00016482656
0.00016232439
0.00012431682
6.1207236e-05
1.5527938e-05
1.6417981e-06
5.9794732e-08
7.2057865e-10
4.2609693e-12
3.0177829e-13
6.4876515e-14
1.3525902e-14
2.6966453e-15
5.2014838e-16
9.8373507e-17
1.8324296e-17
3.3268262e-18
5.7577647e-19
9.2521588e-20
1.3471092e-20
1.741431e-21
1.9635976e-22
1.8990679e-23
1.5440362e-24
1.0318566e-25
5.5098277e-27
2.2570339e-28
6.6509404e-30
1.2533719e-31
1.1331376e-33
0.00035254457
0.00034185749
0.00034912202
0.00036575081
0.00035634903
0.00033263642
0.00032034936
0.00032614232
0.00033627136
0.00032897716
0.00029801272
0.00026117493
0.0002309156
0.00035218225
0.0003372544
0.00032774519
0.00031355074
0.00026085649
0.0001824983
0.00014704048
0.00016778922
0.00021010331
0.00022554219
0.00020113916
0.00013058523
4.915162e-05
8.4892085e-06
5.50272e-07
1.2735711e-08
1.1228502e-10
1.2097523e-12
2.0277145e-13
4.5127238e-14
9.9100904e-15
2.1668355e-15
4.7505499e-16
1.0352451e-16
2.1899332e-17
4.3707938e-18
8.029367e-19
1.3312843e-19
1.9617591e-20
2.5362875e-21
2.8412142e-22
2.7201151e-23
2.1847451e-24
1.4420274e-25
7.6080026e-27
3.0814097e-28
8.9852247e-30
1.6769198e-31
8.6837278e-36
0.00034571817
0.00034899342
0.00034235048
0.00035265899
0.00036545434
0.00035013151
0.00032153348
0.00030644059
0.00031184315
0.00031931784
0.00030598803
0.00026824409
0.00022631385
0.0001891379
0.00033052022
0.00032623075
0.00032108761
0.00027989125
0.00020683144
0.00016951164
0.00019178302
0.00024022402
0.00027425377
0.00026402431
0.00020772977
0.00010885585
2.9222178e-05
3.2477858e-06
1.3855428e-07
2.3117175e-09
1.6631579e-11
6.3011201e-13
1.4384404e-13
3.5220568e-14
8.8340146e-15
2.2489182e-15
5.6677446e-16
1.3699977e-16
3.0882237e-17
6.3611882e-18
1.1806601e-18
1.9529139e-19
2.8513008e-20
3.6401777e-21
4.0218302e-22
3.7948793e-23
3.0050485e-24
1.9576291e-25
1.0206047e-26
4.0898183e-28
1.1813322e-29
1.4187795e-33
3.0553516e-38
0.00032247843
0.0003370218
0.00034315227
0.00034174251
0.00035465902
0.00036301734
0.00034156869
0.00030778747
0.00028978192
0.00029381745
0.00029775726
0.00027800586
0.00023335952
0.00018487286
0.00013979382
0.00032378222
0.00032742154
0.00029643972
0.00022959373
0.00019061658
0.00021270587
0.00026517409
0.00030467085
0.00030711176
0.00026783989
0.00018026601
7.0687604e-05
1.2742214e-05
9.5780479e-07
2.9416364e-08
3.6186262e-10
3.2744725e-12
4.4505199e-13
1.2225785e-13
3.5330428e-14
1.0349625e-14
2.9616729e-15
8.0169068e-16
2.0057806e-16
4.5673361e-17
9.3711003e-18
1.7197085e-18
2.802599e-19
4.0264266e-20
5.058239e-21
5.503463e-22
5.114337e-23
3.9944469e-24
2.5704561e-25
1.3257531e-26
5.2632916e-28
1.112022e-31
5.5280545e-36
4.6176844e-41
0.00032049846
0.00031323994
0.00032629949
0.00033588875
0.00034043348
0.00035479383
0.0003582691
0.00033028938
0.00029117632
0.00026984085
0.00027160168
0.00027118365
0.0002439426
0.0001912427
0.00013570921
8.7970022e-05
0.00033318132
0.00031124718
0.00025079005
0.00021044916
0.00023131069
0.00028549916
0.00032885857
0.00033538233
0.0003050081
0.00024017903
0.00012836182
3.5029232e-05
4.3591818e-06
2.354823e-07
5.3027378e-09
5.1385766e-11
1.4754405e-12
4.1623745e-13
1.3785222e-13
4.5730846e-14
1.4577782e-14
4.3448658e-15
1.1902413e-15
2.9646221e-16
6.6639559e-17
1.3445232e-17
2.4228608e-18
3.877126e-19
5.4735071e-20
6.764778e-21
7.2492966e-22
6.6412683e-23
5.122424e-24
3.2607771e-25
1.6663468e-26
5.5342545e-30
4.8791167e-34
8.9688916e-39
3.0391068e-44
0.00033797921
0.00031595948
0.0003025319
0.0003142075
0.00032856963
0.00033788707
0.00035272133
0.00035067733
0.00031616909
0.00027111922
0.00024601796
0.00024463876
0.00023862596
0.00020186179
0.000140392
8.5474878e-05
4.5346312e-05
0.00032554863
0.00027045105
0.00022905893
0.00024792739
0.00030276625
0.00034752832
0.00035594964
0.00032969697
0.00027868548
0.00018654345
7.1888448e-05
1.3749319e-05
1.22823e-06
4.8686924e-08
8.2041899e-10
9.1176096e-12
1.3968005e-12
5.1980414e-13
1.9185779e-13
6.7015488e-14
2.170618e-14
6.444375e-15
1.7408908e-15
4.2563515e-16
9.3760918e-17
1.8537099e-17
3.2755233e-18
5.145696e-19
7.141915e-20
8.6921669e-21
9.1826554e-22
8.3055788e-23
6.3364702e-24
3.9968088e-25
1.9612664e-28
2.7552802e-32
8.845262e-37
5.8057377e-42
1.0663225e-47
0.00033870811
0.00034083477
0.00030992136
0.00029056182
0.00030120838
0.00031935733
0.00033349991
0.0003478335
0.00034024881
0.00029843012
0.00024717654
0.00021813645
0.00021300309
0.0001982698
0.00014973737
8.8820964e-05
4.3818391e-05
1.8192752e-05
0.00028882132
0.00024648395
0.00026257611
0.00031726932
0.00036283361
0.00037033571
0.00034548095
0.00030421367
0.00023551132
0.00011741252
3.193051e-05
4.3980156e-06
2.883667e-07
8.5374402e-09
1.1626888e-10
4.9745167e-12
1.8771756e-12
7.585428e-13
2.8658268e-13
9.9864129e-14
3.1875139e-14
9.274601e-15
2.4503827e-15
5.8577256e-16
1.2625539e-16
2.4452253e-17
4.2385775e-18
6.5425826e-19
8.9382408e-20
1.0727871e-20
1.1186406e-21
1.0006681e-22
7.5648106e-24
5.271981e-27
1.1119131e-30
5.6935882e-35
6.0550604e-40
1.8134244e-45
2.4879422e-51
0.00030585256
0.00034945666
0.00034129037
0.00030238707
0.00027720173
0.00028629794
0.00030823725
0.0003265015
0.00033976908
0.00032606559
0.00027653216
0.00021897053
0.00018633542
0.00017447504
0.00014807058
9.5128976e-05
4.5790969e-05
1.732428e-05
5.3907327e-06
0.00026275147
0.00027526501
0.00032872408
0.00037491352
0.00038048615
0.00035403155
0.00031860227
0.00026959472
0.00017240962
5.8341295e-05
1.1467878e-05
1.1620938e-06
5.702538e-08
1.2956404e-09
2.560358e-11
6.4826646e-12
2.8159242e-12
1.1393053e-12
4.2372669e-13
1.4442433e-13
4.4989076e-14
1.2770598e-14
3.2935473e-15
7.6943284e-16
1.6231576e-16
3.0819018e-17
5.2463948e-18
7.9677041e-19
1.0730572e-19
1.2717876e-20
1.3113312e-21
1.1623305e-22
1.119015e-25
3.4093828e-29
2.6441276e-33
4.3197459e-38
1.7936076e-43
3.6988919e-49
4.2320077e-55
0.00027790027
0.00032124862
0.00035708685
0.00033955872
0.00029314104
0.00026230946
0.00026951188
0.00029442153
0.00031619302
0.0003278064
0.00030743003
0.00024914427
0.00018591551
0.00014867375
0.00012819286
9.3990665e-05
4.9608166e-05
1.8129597e-05
5.0065938e-06
1.1392823e-06
0.00028578479
0.00033678645
0.00038305761
0.00038658979
0.00035677268
0.00032462609
0.00029074857
0.00021861417
0.00010100157
2.3291889e-05
3.3779179e-06
2.5684375e-07
9.6295696e-09
2.0228764e-10
2.2104856e-11
9.8247961e-12
4.2181217e-12
1.6630592e-12
6.0165645e-13
1.9951941e-13
6.0519776e-14
1.6747497e-14
4.2166459e-15
9.6329131e-16
1.9908461e-16
3.7103795e-17
6.2118932e-18
9.2966721e-19
1.2363912e-19
1.44921e-20
1.4804996e-21
1.9285042e-24
8.2605982e-28
9.3746727e-32
2.280646e-36
1.3056534e-41
3.1737419e-47
5.7891434e-53
5.4536578e-59
0.00029435226
0.00029157145
0.00033444634
0.00036181189
0.00033555232
0.00028216867
0.0002456781
0.00025024952
0.0002773194
0.0003018717
0.00031130124
0.00028313606
0.00021524154
0.00014651869
0.00010568123
7.9740655e-05
4.8907283e-05
1.9931551e-05
5.2265423e-06
1.0227185e-06
1.7112882e-07
0.00034093908
0.00038618558
0.00038800728
0.00035414599
0.00032371655
0.00030165881
0.0002543066
0.00014780558
4.8063967e-05
7.5507954e-06
8.2640146e-07
4.818969e-08
1.4925329e-09
8.2963345e-11
3.2487269e-11
1.4640737e-11
6.0655941e-12
2.3145528e-12
8.1259338e-13
2.6198427e-13
7.7383366e-14
2.0885993e-14
5.1378847e-15
1.1489938e-15
2.3293894e-16
4.2676512e-17
7.0385236e-18
1.0399044e-18
1.3683072e-19
1.588838e-20
2.7544912e-23
1.6252103e-26
2.6329763e-30
9.3185337e-35
7.4001263e-40
2.1187611e-45
4.2967147e-51
7.228088e-57
5.5057505e-63
0.00034130728
0.00030093346
0.00030412985
0.00034520923
0.00036372962
0.00032931747
0.00026915683
0.00022701845
0.00022831748
0.00025652416
0.00028313237
0.00028958155
0.00025086475
0.00017215899
0.00010234825
6.3370511e-05
4.0233311e-05
1.9739005e-05
5.8454612e-06
1.0603396e-06
1.4692945e-07
1.8487222e-08
0.00038346592
0.00038345982
0.00034625919
0.0003169831
0.00030510312
0.0002790464
0.00019461782
8.1145748e-05
1.8739456e-05
2.018247e-06
1.7150651e-07
8.1923955e-09
3.8440971e-10
1.048647e-10
4.8262453e-11
2.0818097e-11
8.2813423e-12
3.0540057e-12
1.0408954e-12
3.2645201e-13
9.3963217e-14
2.47575e-14
5.9569248e-15
1.3057526e-15
2.6006108e-16
4.6915632e-17
7.6366803e-18
1.1160733e-18
1.4554757e-19
3.3124731e-22
2.6488214e-25
6.0125889e-29
3.0404682e-33
3.3446392e-38
1.1811265e-43
2.446575e-49
4.9117542e-55
7.2668098e-61
5.0741335e-67
0.00037463821
0.000337931
0.00030639657
0.00031571231
0.00035331235
0.00036282033
0.00032052558
0.00025381244
0.00020608148
0.00020361395
0.00023165904
0.00025906088
0.00026008537
0.00020559873
0.00012183296
5.9992462e-05
3.0391656e-05
1.5730275e-05
5.8382715e-06
1.207547e-06
1.5062592e-07
1.5164275e-08
1.4650045e-09
0.00037237028
0.00033320104
0.00030545804
0.00030296399
0.0002956773
0.00023624299
0.00012148234
3.6556623e-05
6.061575e-06
4.6635649e-07
3.5391533e-08
2.4340867e-09
4.1355111e-10
1.5814066e-10
6.8562888e-11
2.8127957e-11
1.0706034e-11
3.814719e-12
1.263496e-12
3.8581825e-13
1.0831559e-13
2.7890432e-14
6.5722695e-15
1.4141859e-15
2.7716544e-16
4.9326528e-17
7.9404396e-18
1.1504985e-18
3.3964098e-21
3.6315638e-24
1.137984e-27
8.1084716e-32
1.2294341e-36
5.520051e-42
1.2219063e-47
2.4056989e-53
4.7654496e-59
6.7534097e-65
4.5639811e-71
0.00035464604
0.00036015971
0.00033236334
0.00031127056
0.00032562874
0.00035845375
0.00035897764
0.00030887512
0.00023575395
0.00018273577
0.00017623517
0.000202161
0.00022969751
0.0002172143
0.00014951388
7.204287e-05
2.7687567e-05
1.1117988e-05
4.5210574e-06
1.2179664e-06
1.7408709e-07
1.5083749e-08
1.1543031e-09
8.720291e-11
0.00031535743
0.00029016973
0.00029690832
0.00030680986
0.00027146488
0.00016620577
6.1902399e-05
1.3681408e-05
1.7214658e-06
1.47035e-07
2.2857302e-08
3.9905468e-09
7.9401543e-10
2.3913303e-10
9.2356584e-11
3.5680354e-11
1.3036674e-11
4.5092439e-12
1.4529785e-12
4.323923e-13
1.1852813e-13
2.9863892e-14
6.9022201e-15
1.4603647e-15
2.821749e-16
4.9640867e-17
7.9200478e-18
3.0000964e-20
4.239413e-23
1.8115263e-26
1.7988826e-30
3.7412835e-35
2.1609715e-40
5.4724554e-46
1.0136652e-51
2.1326652e-57
4.4051138e-63
6.1512555e-69
3.999169e-75
0.00029350975
0.00033135022
0.00034239817
0.00032594054
0.00031528651
0.00033327151
0.00036039164
0.00035180856
0.00029409503
0.00021451776
0.0001572003
0.00014678633
0.00017230155
0.00019001749
0.00016066285
9.1215497e-05
3.3313823e-05
9.5198137e-06
2.9638841e-06
9.2119003e-07
1.7675074e-07
1.7464632e-08
1.0996522e-09
6.6388793e-11
3.9470928e-12
0.00027212911
0.00028825014
0.00031455228
0.00030159712
0.0002123304
9.4848948e-05
2.6280732e-05
4.5999203e-06
7.2189867e-07
2.1225231e-07
5.7774828e-08
1.1267766e-08
1.8101377e-09
3.5212636e-10
1.1526117e-10
4.226411e-11
1.4955888e-11
5.0441077e-12
1.582759e-12
4.5950467e-13
1.2313933e-13
3.0401919e-14
6.9031101e-15
1.4388255e-15
2.7464909e-16
4.786713e-17
2.3030207e-19
4.2557105e-22
2.4535505e-25
3.3652939e-29
9.5675266e-34
7.1310488e-39
2.1560665e-44
4.0010423e-50
7.7120486e-56
1.9028451e-61
4.0421251e-67
5.4618069e-73
3.4139347e-79
0.00025234345
0.00026851665
0.00030533728
0.00032336554
0.00031895046
0.00031782292
0.00033794281
0.00035860479
0.00034134489
0.00027530618
0.00019009407
0.00012994749
0.00011778106
0.00013604523
0.00013947941
0.00010035553
4.3683249e-05
1.1324097e-05