/*--------------------------------*- C++ -*----------------------------------*\
| =========                 |                                                 |
| \\      /  F ield         | OpenFOAM: The Open Source CFD Toolbox           |
|  \\    /   O peration     | Version:  5.0                                   |
|   \\  /    A nd           | Web:      www.OpenFOAM.org                      |
|    \\/     M anipulation  |                                                 |
\*---------------------------------------------------------------------------*/
FoamFile
{
    version     2.0;
    format      ascii;
    class       volScalarField;
    location    "240";
    object      nuTilda;
}
// * * * * * * * * * * * * * * * * * * * * * * * * * * * * * * * * * * * * * //

dimensions      [0 2 -1 0 0 0 0];

internalField   nonuniform List<scalar> 
9520
(
4.8381838e-33
5.1359163e-31
4.6820724e-33
2.6675975e-29
4.9717833e-31
4.5276237e-33
9.0040228e-28
2.5828123e-29
4.8088641e-31
4.3842507e-33
2.2232448e-26
8.7193736e-28
2.4985605e-29
4.6586055e-31
4.2610964e-33
4.292083e-25
2.153333e-26
8.436831e-28
2.4214236e-29
4.5318966e-31
4.1610344e-33
6.7715189e-24
4.1576383e-25
2.084166e-26
8.1800052e-28
2.3574113e-29
4.4311597e-31
4.0783667e-33
8.995337e-23
6.5603688e-24
4.0252437e-25
2.0217394e-26
7.9694211e-28
2.3072453e-29
4.3473087e-31
3.9997687e-33
1.0250895e-21
8.7177839e-23
6.3535092e-24
3.9066297e-25
1.9709411e-26
7.8053262e-28
2.2646124e-29
4.2624785e-31
3.9076857e-33
1.0167254e-20
9.9402684e-22
8.4471607e-23
6.1695587e-24
3.810516e-25
1.9312107e-26
7.6614444e-28
2.2185861e-29
4.1565197e-31
3.787935e-33
8.8954961e-20
9.8672807e-21
9.6382432e-22
8.2081007e-23
6.0207294e-24
3.7344158e-25
1.8949643e-26
7.4966176e-28
2.1584064e-29
4.0171219e-31
3.6386141e-33
7.0609186e-19
8.6388466e-20
9.5755182e-21
9.3721117e-22
8.0145972e-23
5.900621e-24
3.661709e-25
1.8513457e-26
7.2749676e-28
2.0796164e-29
3.8487338e-31
3.4761456e-33
5.9668761e-18
6.8325898e-19
8.3890858e-20
9.3165895e-21
9.1559677e-22
7.8549245e-23
5.7799926e-24
3.5707198e-25
1.7919832e-26
6.9889759e-28
1.9880463e-29
3.6761189e-31
3.3334377e-33
9.7229491e-17
5.5904152e-18
6.614429e-19
8.1615854e-20
9.104724e-21
8.973846e-22
7.686424e-23
5.6242465e-24
3.4469752e-25
1.7170418e-26
6.6701696e-28
1.8999114e-29
3.5384168e-31
3.2484783e-33
3.3408665e-15
8.5254652e-17
5.2401131e-18
6.4064895e-19
7.9734659e-20
8.9240765e-21
8.7732931e-22
7.4629446e-23
5.4142358e-24
3.2951098e-25
1.6370443e-26
6.3829092e-28
1.8367929e-29
3.473945e-31
3.2469431e-33
1.2167998e-13
2.9674267e-15
7.2166223e-17
4.878877e-18
6.2357982e-19
7.8155958e-20
8.7192389e-21
8.5007108e-22
7.1647044e-23
5.1648628e-24
3.1402823e-25
1.569732e-26
6.2012341e-28
1.8165523e-29
3.5013827e-31
3.3269619e-33
3.6444736e-12
1.1307584e-13
2.3999867e-15
5.665773e-17
4.5894058e-18
6.1042065e-19
7.6352836e-20
8.4332054e-21
8.1399003e-22
6.8224495e-23
4.9230247e-24
3.0191064e-25
1.5329481e-26
6.1755768e-28
1.8438432e-29
3.6064839e-31
3.454287e-33
8.4792091e-11
3.5220678e-12
9.1992731e-14
1.6414821e-15
4.4193999e-17
4.4079061e-18
5.9628218e-19
7.3743119e-20
8.0550117e-21
7.7391766e-22
6.5077863e-23
4.7484515e-24
2.9637037e-25
1.5361123e-26
6.3033921e-28
1.9050064e-29
3.7419037e-31
3.5710997e-33
1.4949545e-09
8.4357714e-11
2.8895601e-12
6.1154365e-14
1.0411051e-15
3.7508604e-17
4.2739645e-18
5.7512147e-19
7.0253354e-20
7.6471906e-21
7.3907741e-22
6.3008073e-23
4.685872e-24
2.9854208e-25
1.5739975e-26
6.5189466e-28
1.9706117e-29
3.8413027e-31
3.6149715e-33
1.9483067e-08
1.5160716e-09
6.9703636e-11
1.9097828e-12
3.7671887e-14
7.6203073e-16
3.464947e-17
4.1004436e-18
5.460944e-19
6.6577662e-20
7.3130069e-21
7.184886e-22
6.2505621e-23
4.7408753e-24
3.0654345e-25
1.6261294e-26
6.7103785e-28
2.0050963e-29
3.8419297e-31
3.5402838e-33
1.8409427e-07
1.996973e-08
1.2602955e-09
4.6145381e-11
1.2100278e-12
2.905669e-14
6.941346e-16
3.2322285e-17
3.8589369e-18
5.1602988e-19
6.3749412e-20
7.1394747e-21
7.1630767e-22
6.3466664e-23
4.8701831e-24
3.1574762e-25
1.6629507e-26
6.7586683e-28
1.9793481e-29
3.7066688e-31
3.3342879e-33
1.2321709e-06
1.8878825e-07
1.6821059e-08
8.449011e-10
3.0628413e-11
1.0469317e-12
2.9668892e-14
6.4270184e-16
2.8659052e-17
3.6122484e-18
4.9439469e-19
6.250443e-20
7.1512256e-21
7.2922117e-22
6.5141421e-23
4.9923346e-24
3.2031105e-25
1.6565575e-26
6.5815754e-28
1.8811473e-29
3.4377797e-31
3.0227797e-33
5.8310862e-06
1.2570768e-06
1.6111235e-07
1.1699837e-08
5.9620981e-10
2.9732123e-11
1.1979627e-12
2.9166005e-14
4.8214755e-16
2.4800173e-17
3.4473827e-18
4.8676503e-19
6.2892114e-20
7.2930527e-21
7.4684045e-22
6.6362343e-23
5.0164732e-24
3.1537241e-25
1.5914073e-26
6.1639863e-28
1.7200607e-29
3.0783177e-31
2.6642952e-33
1.960101e-05
5.9111371e-06
1.0934266e-06
1.1741403e-07
9.0052145e-09
6.3664302e-10
3.6980386e-11
1.2340083e-12
2.0625738e-14
2.9288117e-16
2.2432449e-17
3.4028857e-18
4.9205792e-19
6.4218926e-20
7.444718e-21
7.5526351e-22
6.5979504e-23
4.8776926e-24
2.9898547e-25
1.4703341e-26
5.5658876e-28
1.5256987e-29
2.7016118e-31
2.3354341e-33
4.8463219e-05
1.9742255e-05
5.2299621e-06
8.4080036e-07
9.772217e-08
1.0000563e-08
8.3041286e-10
3.9090983e-11
8.6473721e-13
9.8732862e-15
1.8147833e-16
2.1728571e-17
3.4562619e-18
5.0302825e-19
6.528391e-20
7.465868e-21
7.42495e-22
6.33226e-23
4.5638916e-24
2.7294045e-25
1.3143675e-26
4.9081877e-28
1.3403294e-29
2.3928498e-31
2.1122745e-33
9.3150306e-05
4.8675526e-05
1.7779722e-05
4.2256821e-06
7.4230657e-07
1.1092688e-07
1.3182179e-08
8.8579284e-10
2.7212517e-11
3.8917484e-13
3.7605566e-15
1.4129878e-16
2.2046411e-17
3.5392273e-18
5.0902443e-19
6.4863024e-20
7.2530691e-21
7.0341028e-22
5.8493052e-23
4.1225248e-24
2.4232148e-25
1.1573972e-26
4.3422407e-28
1.2083554e-29
2.2286212e-31
2.053149e-33
0.00014767324
9.3513635e-05
4.4610433e-05
1.5028083e-05
3.9098195e-06
8.510785e-07
1.4475947e-07
1.4022522e-08
6.14212e-10
1.1912091e-11
1.2879824e-13
1.6060492e-15
1.3353473e-16
2.2600613e-17
3.5648829e-18
5.0064098e-19
6.2229041e-20
6.783665e-21
6.4217019e-22
5.236354e-23
3.6473742e-24
2.1417983e-25
1.0375887e-26
4.0124953e-28
1.1657148e-29
2.2597531e-31
2.1865235e-33
0.00019984705
0.00014806039
8.7033106e-05
3.9017496e-05
1.4392707e-05
4.5014235e-06
1.0875267e-06
1.5242951e-07
9.7348243e-09
2.680777e-10
3.7989546e-12
4.293397e-14
1.0706049e-15
1.3506759e-16
2.2658782e-17
3.4679748e-18
4.7392804e-19
5.7462265e-20
6.1285951e-21
5.7115323e-22
4.6325072e-23
3.2537445e-24
1.9574879e-25
9.8798865e-27
4.0222077e-28
1.2317596e-29
2.5006616e-31
2.5055694e-33
0.00024285799
0.00019893754
0.00013857794
7.7799873e-05
3.817246e-05
1.654291e-05
5.5934517e-06
1.1300732e-06
1.065979e-07
4.3391866e-09
8.9928289e-11
1.3215244e-12
2.4962518e-14
1.028571e-15
1.3445552e-16
2.1779504e-17
3.2356013e-18
4.3198211e-19
5.1440502e-20
5.431018e-21
5.0732948e-22
4.1918034e-23
3.049316e-24
1.9266059e-25
1.0286414e-26
4.4096246e-28
1.4050002e-29
2.926261e-31
2.969329e-33
0.00027900057
0.00024096678
0.00018681368
0.00012537457
7.6715773e-05
4.356715e-05
1.9954185e-05
5.7188536e-06
8.0117696e-07
4.9676596e-08
1.6112364e-09
3.6232459e-11
1.0034464e-12
2.7859432e-14
1.0304591e-15
1.2686021e-16
1.9990896e-17
2.9096652e-18
3.8365018e-19
4.5556746e-20
4.8646155e-21
4.6778637e-22
4.0444405e-23
3.1073849e-24
2.0757535e-25
1.1617549e-26
5.1382708e-28
1.6630168e-29
3.4760369e-31
3.5095627e-33
0.00030962044
0.00027593823
0.00022714342
0.00017165579
0.00012392059
8.6646242e-05
5.1060701e-05
2.0080424e-05
4.1313927e-06
3.9605268e-07
2.0570155e-08
7.7536187e-10
3.4905702e-11
1.379915e-12
3.0863621e-14
8.8848439e-16
1.1345201e-16
1.7713345e-17
2.5664025e-18
3.405834e-19
4.1322835e-20
4.5885642e-21
4.6544316e-22
4.2640101e-23
3.4482946e-24
2.3947163e-25
1.3705693e-26
6.1019478e-28
1.9662218e-29
4.0642092e-31
4.0421495e-33
0.00033534956
0.00030524063
0.00026080263
0.00021098529
0.00017098964
0.00013837253
9.9055335e-05
5.0756811e-05
1.4870177e-05
2.1870864e-06
1.8416772e-07
1.1928693e-08
8.7244822e-10
5.3197292e-11
1.6289911e-12
2.2840507e-14
6.7487702e-16
9.8433573e-17
1.5525942e-17
2.2906146e-18
3.1407724e-19
3.999063e-20
4.7077935e-21
5.0571752e-22
4.8474414e-23
4.0324124e-24
2.8369542e-25
1.622015e-26
7.1433093e-28
2.2647747e-29
4.5946383e-31
4.4815416e-33
0.0003553406
0.00032933461
0.0002895355
0.00024410274
0.00021126402
0.00018909297
0.00015559088
9.7915911e-05
3.8746438e-05
8.4919553e-06
1.151538e-06
1.2783119e-07
1.493072e-08
1.3912153e-09
6.4274602e-11
1.1858419e-12
1.0572018e-14
5.2077962e-16
8.5634193e-17
1.3970661e-17
2.1549033e-18
3.1241441e-19
4.2241448e-20
5.2446104e-21
5.848074e-22
5.7114376e-23
4.7658239e-24
3.3276883e-25
1.8727508e-26
8.082723e-28
2.5075928e-29
4.9782213e-31
4.755927e-33
0.00036993814
0.00034800748
0.00031305976
0.00027305061
0.00024473234
0.00023111398
0.00020905357
0.00015341669
7.7303763e-05
2.3927999e-05
5.0847113e-06
9.4208752e-07
1.7165862e-07
2.4067083e-08
1.691518e-09
4.7165555e-11
4.7893387e-13
4.0779576e-15
4.3626586e-16
7.7845662e-17
1.3445017e-17
2.2045075e-18
3.3883087e-19
4.7983812e-20
6.1277629e-21
6.8997698e-22
6.7065139e-23
5.5180086e-24
3.7782696e-25
2.0774726e-26
8.752334e-28
2.6520546e-29
5.1493515e-31
4.8200096e-33
0.00037982704
0.00036154985
0.00033166127
0.00029731195
0.00027373957
0.00026465238
0.00025086169
0.00020449004
0.00012440456
5.139528e-05
1.61944e-05
4.7775991e-06
1.3187704e-06
2.7332874e-07
2.9130788e-08
1.2537177e-09
1.9109496e-11
1.1480491e-13
2.2736314e-15
3.9932924e-16
7.679156e-17
1.4140158e-17
2.4463625e-18
3.9033958e-19
5.6314274e-20
7.2025607e-21
8.0191061e-22
7.64653e-23
6.1479649e-24
4.1041867e-25
2.1979477e-26
9.0290238e-28
2.6721065e-29
5.0777027e-31
4.6623791e-33
0.00038522543
0.00037070796
0.00034556887
0.00031705599
0.00029820002
0.00029258903
0.00028285042
0.00024417687
0.00016977384
8.8162769e-05
3.8522681e-05
1.6874521e-05
6.8073887e-06
2.0401392e-06
3.2671231e-07
2.183634e-08
5.2151142e-10
4.4829446e-12
2.5282022e-14
1.928937e-15
4.0401722e-16
8.2936128e-17
1.5996081e-17
2.8437517e-18
4.5788414e-19
6.567145e-20
8.2614235e-21
8.9861366e-22
8.3429565e-23
6.5297478e-24
4.2417545e-25
2.2107348e-26
8.8579785e-28
2.5627323e-29
4.7724005e-31
4.3054907e-33
0.00038687027
0.00037593781
0.00035553282
0.00033254526
0.00031823781
0.00031552673
0.00030827265
0.00027457965
0.0002075274
0.00012742858
7.149494e-05
4.2802344e-05
2.3989792e-05
1.0107364e-05
2.3915266e-06
2.4807858e-07
9.4477168e-09
1.3123779e-10
8.4504382e-13
1.0753611e-14
1.9743334e-15
4.4739611e-16
9.5311919e-17
1.8682594e-17
3.3204999e-18
5.2804579e-19
7.4164084e-20
9.0835051e-21
9.5936251e-22
8.6478216e-23
6.5814051e-24
4.1597204e-25
2.1114231e-26
8.260488e-28
2.3396675e-29
4.2770378e-31
3.7984632e-33
0.0003860555
0.00037819506
0.00036206447
0.00034446951
0.00033414053
0.00033394
0.0003284836
0.00029892767
0.00023773556
0.00016353118
0.00010950005
8.2143988e-05
5.9779212e-05
3.3923501e-05
1.1558146e-05
1.8419162e-06
1.1282402e-07
2.6101738e-09
2.7415617e-11
1.6663795e-13
9.2841849e-15
2.2348235e-15
5.2099092e-16
1.1146353e-16
2.1644114e-17
3.7766752e-18
5.8603062e-19
7.9930072e-20
9.4847339e-21
9.7060167e-22
8.4895976e-23
6.2842995e-24
3.8671208e-25
1.9142912e-26
7.324017e-28
2.0344061e-29
3.6580028e-31
3.2050548e-33
0.0003833828
0.00037853168
0.00036617905
0.00035321908
0.00034668502
0.00034820252
0.00034413125
0.00031822195
0.00026416206
0.00019400857
0.00014629914
0.00012739219
0.0001117075
8.035251e-05
3.7756811e-05
9.0473734e-06
8.8819495e-07
3.4464031e-08
6.1179176e-10
5.1821314e-12
5.8296316e-14
1.0480727e-14
2.6339532e-15
6.0863122e-16
1.2779954e-16
2.4226048e-17
4.1123389e-18
6.1861402e-19
8.1593043e-20
9.3658917e-21
9.2835861e-22
7.8837505e-23
5.681771e-24
3.4080702e-25
1.6481123e-26
6.1780126e-28
1.6864053e-29
2.9893106e-31
2.59034e-33
0.00037900393
0.00037759353
0.00036946488
0.00035958821
0.00035605599
0.00035916742
0.00035568687
0.00033320641
0.00028605021
0.00022231177
0.00017856128
0.00016988164
0.00016837977
0.00014297464
8.7196301e-05
3.0144097e-05
4.6572931e-06
3.0036394e-07
8.9889816e-09
1.2787601e-10
1.0499941e-12
5.1111598e-14
1.2505555e-14
3.0708008e-15
6.8921476e-16
1.4050848e-16
2.5841472e-17
4.2493436e-18
6.1713686e-19
7.8628862e-20
8.7301655e-21
8.3871855e-22
6.9236397e-23
4.8647064e-24
2.8487516e-25
1.3485958e-26
4.963509e-28
1.3346385e-29
2.3383715e-31
2.0096321e-33
0.00037640416
0.00037741322
0.00037227154
0.00036471953
0.0003627024
0.00036686016
0.00036382662
0.00034418726
0.00030410151
0.00024718419
0.00020645951
0.00020568085
0.0002177204
0.00020622353
0.00015150854
7.1251944e-05
1.6639884e-05
1.7404171e-06
8.6510415e-08
2.1056628e-09
2.8198095e-11
5.577052e-13
6.3460125e-14
1.4588525e-14
3.4292655e-15
7.4281354e-16
1.4660995e-16
2.6116414e-17
4.141806e-18
5.803009e-19
7.142762e-20
7.6763724e-21
7.1565672e-22
5.7524364e-23
3.9470447e-24
2.261053e-25
1.0503928e-26
3.8055093e-28
1.0109149e-29
1.7562347e-31
1.5019605e-33
0.00037461565
0.00037865928
0.00037911936
0.00036860463
0.00036750694
0.00037174887
0.00036874167
0.00035178472
0.00031860908
0.00026868426
0.00023121676
0.00023407122
0.00025540631
0.00025801836
0.00021391364
0.00012669366
4.2278883e-05
6.8374421e-06
5.5120805e-07
2.2944855e-08
5.9117149e-10
1.8653877e-11
9.3906902e-13
7.9120683e-14
1.6052212e-14
3.6144941e-15
7.5659843e-16
1.4467264e-16
2.4864911e-17
3.7998237e-18
5.1373573e-19
6.1137416e-20
6.3677101e-21
5.7708166e-22
4.5264014e-23
3.039508e-24
1.7078461e-25
7.8097799e-27
2.7949502e-28
7.3635771e-30
1.2737297e-31
1.0886051e-33
0.00037125121
0.00037922965
0.00038006365
0.00037962399
0.00037028992
0.00037444976
0.00037104335
0.0003564327
0.00033005112
0.00028711437
0.00025277351
0.00025701101
0.0002831295
0.00029350748
0.00026250581
0.00018188974
8.0616805e-05
1.9007662e-05
2.3826535e-06
1.6959205e-07
8.8537118e-09
5.7474966e-10
3.9612586e-11
1.5881126e-12
8.669571e-14
1.6452436e-14
3.5833987e-15
7.2767159e-16
1.3450914e-16
2.2254731e-17
3.2784198e-18
4.2809292e-19
4.9322469e-20
4.9877732e-21
4.4049573e-22
3.3816759e-23
2.2294447e-24
1.2337569e-25
5.5792849e-27
1.9830086e-28
5.2118246e-30
9.0303497e-32
7.7576168e-34
0.00037091098
0.00037407927
0.00038198634
0.00037972386
0.00037885011
0.00037493175
0.00037116248
0.00035880113
0.00033887788
0.00030283196
0.00027139536
0.00027629852
0.00030299752
0.00031650129
0.00029418882
0.00022610173
0.0001232016
3.9490455e-05
7.354818e-06
8.8722006e-07
9.4350722e-08
1.1668371e-08
1.2841925e-09
7.2503026e-11
1.8242229e-12
8.0328781e-14
1.5765089e-14
3.3493949e-15
6.6013374e-16
1.1743359e-16
1.8713799e-17
2.6601998e-18
3.3601801e-19
3.7562728e-20
3.6991416e-21
3.1965217e-22
2.413763e-23
1.5713636e-24
8.62761e-26
3.8903795e-27
1.3861725e-28
3.669704e-30
6.4279689e-32
5.5948073e-34
0.00037316741
0.0003693661
0.00037684873
0.00038255042
0.00037780189
0.00037597014
0.00036943002
0.00035951415
0.00034573774
0.0003160756
0.00028739528
0.0002923714
0.0003188148
0.00033279237
0.00031456017
0.0002576083
0.00016171783
6.5731453e-05
1.7242121e-05
3.4740013e-06
7.1026294e-07
1.5115872e-07
2.5792395e-08
2.3083098e-09
8.4465018e-11
1.2707801e-12
6.8012836e-14
1.4242006e-14
2.9590624e-15
5.6205652e-16
9.6248642e-17
1.4791504e-17
2.0329322e-18
2.4910945e-19
2.7129989e-20
2.6168851e-21
2.2302096e-22
1.6728821e-23
1.0883547e-24
6.0148877e-26
2.7478408e-27
9.9774437e-29
2.7014761e-30
4.8445406e-32
4.3104101e-34
0.000366154
0.00036861853
0.00036891001
0.00037837199
0.00038103637
0.00037374506
0.00036949364
0.00035921369
0.00035137021
0.00032725757
0.00030105074
0.00030572147
0.00033098654
0.00034462063
0.00032914044
0.00028157164
0.00019319411
9.3688843e-05
3.2814526e-05
1.0529583e-05
3.7459844e-06
1.2567377e-06
3.2057891e-07
4.4749108e-08
2.6742237e-09
5.677868e-11
5.7426712e-13
5.6921526e-14
1.2207294e-14
2.4556514e-15
4.4902068e-16
7.4142479e-17
1.1017731e-17
1.4701056e-18
1.7584282e-19
1.8827574e-20
1.8019269e-21
1.5409717e-22
1.1724856e-23
7.811167e-25
4.4600884e-26
2.1176026e-27
8.0092645e-29
2.2543073e-30
4.1793101e-32
3.8141437e-34
0.00035881852
0.00036131181
0.00036418864
0.00036844248
0.00037801
0.000377252
0.00036607247
0.00035875251
0.00035583584
0.000337122
0.00031269549
0.00031660574
0.00034041098
0.000352266
0.00033876513
0.00029966375
0.0002252476
0.00012029141
5.3160418e-05
2.5072084e-05
1.3787587e-05
6.8169979e-06
2.5083747e-06
5.3207944e-07
5.1193766e-08
1.8429229e-09
2.0864315e-11
2.5908564e-13
4.6812196e-14
9.8578391e-15
1.9122332e-15
3.3736082e-16
5.3925746e-17
7.7980302e-18
1.0202423e-18
1.2092224e-19
1.3006174e-20
1.271347e-21
1.1296775e-22
9.047803e-24
6.3982639e-25
3.8885662e-26
1.9587619e-27
7.7967447e-29
2.284239e-30
4.3557246e-32
4.041202e-34
0.00036063008
0.00035711826
0.00035543627
0.00035932807
0.00036690634
0.00037536216
0.00036999425
0.00035436902
0.00034349194
0.00034578518
0.00032262792
0.00032531185
0.00034713218
0.00035704145
0.00034402376
0.00031255686
0.0002511516
0.00015259013
7.6228752e-05
4.7476216e-05
3.6134356e-05
2.4657298e-05
1.2639346e-05
3.9500152e-06
5.983765e-07
3.617845e-08
7.2050194e-10
4.3233202e-12
1.7263814e-13
3.6637895e-14
7.480791e-15
1.4028634e-15
2.4026846e-16
3.7560509e-17
5.3724173e-18
7.064827e-19
8.5917722e-20
9.7047028e-21
1.017789e-21
9.8304999e-23
8.5672267e-24
6.5471116e-25
4.2433273e-26
2.2455686e-27
9.2528307e-29
2.7700543e-30
5.339679e-32
4.9637172e-34
0.00035380115
0.00036290764
0.00035389955
0.00034896003
0.0003536026
0.00036350792
0.00036969432
0.00035877059
0.00033849111
0.00032297115
0.00033105846
0.00033216316
0.00035159546
0.00035892118
0.00034585675
0.00032084436
0.0002724473
0.0001829361
0.00010199169
7.5089786e-05
7.0415497e-05
6.1866861e-05
4.2150537e-05
1.8739137e-05
4.3510218e-06
4.331032e-07
1.5278112e-08
1.5529009e-10
9.8337641e-13
1.2757533e-13
2.7063327e-14
5.3677165e-15
9.8260647e-16
1.661062e-16
2.6076757e-17
3.8363636e-18
5.3393616e-19
7.0631797e-20
8.8360366e-21
1.0292953e-21
1.0905783e-22
1.0216918e-23
8.2243881e-25
5.5135941e-26
2.9764615e-27
1.2382741e-28
3.7151644e-30
7.1386969e-32
6.5875557e-34
0.00033826709
0.000359797
0.00036308412
0.00034896371
0.00034118352
0.00034640262
0.00035757175
0.00036030961
0.00034351984
0.00031771311
0.00029714949
0.00033716151
0.00035405017
0.00035858731
0.00034486919
0.00032548102
0.00028944134
0.00021084882
0.00012895296
0.00010026299
0.00011057099
0.00011422317
9.7230878e-05
5.8517586e-05
2.0168232e-05
3.2283024e-06
1.9740005e-07
3.7965979e-09
2.3870609e-11
4.5729641e-13
9.1284681e-14
1.9034182e-14
3.7217795e-15
6.828983e-16
1.1871978e-16
1.9805617e-17
3.2000713e-18
5.0015188e-19
7.4533585e-20
1.0344221e-20
1.3031344e-21
1.4540247e-22
1.4045414e-23
1.1480484e-24
7.7356914e-26
4.1708677e-27
1.7262065e-28
5.1398958e-30
9.7864989e-32
8.9385119e-34
0.00034052331
0.00034405021
0.00036373658
0.00036115376
0.00034204184
0.00033177967
0.0003371401
0.00034846811
0.00034696274
0.00032347041
0.00029193427
0.00026615231
0.0003544859
0.00035609773
0.00034167353
0.00032741988
0.000302584
0.00023605904
0.00015554328
0.00012513708
0.00014458545
0.00016923995
0.00016607493
0.00012643099
6.1611181e-05
1.5382752e-05
1.5908122e-06
5.6413879e-08
6.7361982e-10
4.0116272e-12
2.9297126e-13
6.3064974e-14
1.3187293e-14
2.6467629e-15
5.1626593e-16
9.9106163e-17
1.8759361e-17
3.45432e-18
6.0416311e-19
9.7745874e-20
1.4287351e-20
1.8505279e-21
2.0881783e-22
2.0198084e-23
1.6420214e-24
1.097074e-25
5.8565744e-27
2.3985968e-28
7.0673659e-30
1.3318618e-31
1.2042445e-33
0.00035291813
0.00034231362
0.00034874965
0.00036564054
0.00035707949
0.00033325902
0.00032029824
0.00032552836
0.00033577074
0.00032898266
0.00029841385
0.00026138826
0.00023082737
0.00035157997
0.00033657611
0.00032753634
0.00031263907
0.00025835281
0.00018103357
0.00014892596
0.00017207622
0.00021493288
0.00022930744
0.00020337086
0.00013094606
4.8605944e-05
8.228697e-06
5.2086233e-07
1.1929998e-08
1.0447444e-10
1.1591276e-12
1.9733755e-13
4.4200346e-14
9.8132025e-15
2.1784909e-15
4.8571049e-16
1.0743697e-16
2.2975258e-17
4.6164945e-18
8.5110477e-19
1.4132627e-19
2.0831347e-20
2.6921688e-21
3.0137557e-22
2.8832173e-23
2.3142671e-24
1.526698e-25
8.0515555e-27
3.2603309e-28
9.5065695e-30
1.7744784e-31
9.2702154e-36
0.0003449671
0.0003491358
0.00034256486
0.00035223053
0.00036547231
0.00035098303
0.0003222291
0.00030637284
0.0003111648
0.00031879459
0.00030603357
0.00026866108
0.00022650865
0.00018904736
0.0003299078
0.00032634274
0.00032060198
0.00027771791
0.0002052084
0.00017123334
0.0001960927
0.00024498213
0.00027764804
0.00026579686
0.0002077757
0.00010761294
2.8364832e-05
3.0860155e-06
1.3009637e-07
2.1512135e-09
1.5480953e-11
6.1298268e-13
1.4182199e-13
3.5263843e-14
9.0023875e-15
2.3287328e-15
5.9376026e-16
1.4453074e-16
3.2692995e-17
6.7424383e-18
1.2513385e-18
2.068256e-19
3.016454e-20
3.8465045e-21
4.2449597e-22
4.0016916e-23
3.1664574e-24
2.0616364e-25
1.0744571e-26
4.3050702e-28
1.2436263e-29
1.5101325e-33
3.2684456e-38
0.00032200865
0.00033615756
0.00034303786
0.00034170159
0.00035420028
0.0003631615
0.00034253752
0.00030854873
0.00028968824
0.00029307999
0.00029721978
0.00027808941
0.00023376181
0.00018503654
0.00013970302
0.00032423649
0.00032735258
0.00029462115
0.00022786927
0.00019212743
0.00021692714
0.00026983782
0.0003078175
0.00030823665
0.0002674896
0.00017837638
6.8782452e-05
1.2157111e-05
9.0160848e-07
2.7408945e-08
3.3483229e-10
3.1107947e-12
4.4231077e-13
1.2389574e-13
3.6444078e-14
1.0815544e-14
3.1189473e-15
8.4735288e-16
2.1223741e-16
4.8313071e-17
9.902357e-18
1.814673e-18
2.9528874e-19
4.235999e-20
5.3141193e-21
5.7748376e-22
5.3615966e-23
4.1846325e-24
2.6915788e-25
1.3879054e-26
5.5101224e-28
1.1781868e-31
5.915723e-36
4.9081246e-41
0.00032129187
0.00031294074
0.00032535795
0.00033550908
0.0003401571
0.00035431314
0.00035853815
0.00033136757
0.00029199903
0.00026971273
0.00027080838
0.00027063095
0.00024405256
0.00019161351
0.00013582065
8.7911262e-05
0.00033354134
0.00030973972
0.00024900925
0.00021171979
0.00023538254
0.00029001496
0.00033175547
0.00033613771
0.00030425855
0.00023806379
0.00012534644
3.3562116e-05
4.114234e-06
2.1971714e-07
4.9059511e-09
4.7518523e-11
1.4676645e-12
4.2670418e-13
1.4354456e-13
4.8054259e-14
1.5382508e-14
4.5900247e-15
1.2567912e-15
3.1262918e-16
7.0155921e-17
1.4129156e-17
2.5414924e-18
4.0599114e-19
5.7224207e-20
7.0624269e-21
7.5596229e-22
6.919731e-23
5.3340225e-24
3.3943162e-25
1.7344486e-26
5.8323325e-30
5.2043416e-34
9.6139449e-39
3.158725e-44
0.00033875376
0.00031707967
0.00030239458
0.0003131957
0.00032795023
0.0003373656
0.0003522246
0.00035106534
0.00031735652
0.00027199045
0.0002458527
0.0002438018
0.00023808957
0.0002020014
0.00014068925
8.5557226e-05
4.5306651e-05
0.00032432785
0.00026864931
0.00023006439
0.00025179256
0.00030711821
0.00035012382
0.00035628637
0.0003286692
0.00027680914
0.00018294712
6.9165954e-05
1.301443e-05
1.1476397e-06
4.5061296e-08
7.5476587e-10
8.7196369e-12
1.4445935e-12
5.4473222e-13
2.0213251e-13
7.0703813e-14
2.288715e-14
6.7844473e-15
1.8291486e-15
4.4626847e-16
9.8098579e-17
1.9355131e-17
3.4134751e-18
5.3529003e-19
7.4177756e-20
9.0156534e-21
9.5147309e-22
8.5996681e-23
6.5578115e-24
4.1356455e-25
2.0551671e-28
2.9247534e-32
9.4872236e-37
6.1675115e-42
1.0726256e-47
0.00033776017
0.00034197876
0.00031133971
0.00029058673
0.00030007076
0.00031845978
0.00033273981
0.00034732579
0.00034074428
0.00029971885
0.00024808502
0.00021793422
0.00021215484
0.00019777748
0.00014989698
8.9025742e-05
4.3869733e-05
1.8171754e-05
0.00028698789
0.00024720151
0.00026618133
0.00032142736
0.00036510968
0.00037020798
0.0003441125
0.00030249514
0.00023242234
0.00011345326
3.0317988e-05
4.1164508e-06
2.6700461e-07
7.8462298e-09
1.0742812e-10
5.1227899e-12
1.974542e-12
7.9966268e-13
3.0192136e-13
1.0501577e-13
3.3442275e-14
9.7067485e-15
2.5582778e-15
6.1011481e-16
1.3120668e-16
2.5357817e-17
4.3870297e-18
6.7599189e-19
9.2211625e-20
1.1053576e-20
1.151603e-21
1.029547e-22
7.7807571e-24
5.491915e-27
1.1737752e-30
6.087034e-35
6.4948757e-40
1.8801904e-45
2.4357127e-51
0.00030397717
0.00034880504
0.0003427633
0.00030408289
0.00027738602
0.00028506737
0.0003070571
0.00032550807
0.00033924015
0.00032666235
0.00027790768
0.00021988397
0.00018609648
0.00017366532
0.00014768093
9.5234325e-05
4.5914728e-05
1.7346853e-05
5.3820443e-06
0.00026314808
0.00027855419
0.00033263551
0.000376847
0.00037980896
0.00035227084
0.00031693071
0.00026713004
0.00016797732
5.5585717e-05
1.0755945e-05
1.0766895e-06
5.2381282e-08
1.186476e-09
2.5229933e-11
6.8277651e-12
2.966957e-12
1.1977514e-12
4.4423104e-13
1.509766e-13
4.689666e-14
1.327566e-14
3.4148782e-15
7.9581898e-16
1.6749916e-16
3.173653e-17
5.3923204e-18
8.1755808e-19
1.0994828e-19
1.3016877e-20
1.3411855e-21
1.1882804e-22
1.1586882e-25
3.577895e-29
2.8128728e-33
4.6393312e-38
1.9025105e-43
3.7127048e-49
4.0830826e-55
0.00027798101
0.00031936269
0.00035674658
0.00034132996
0.0002950964
0.00026266244
0.00026819811
0.00029294695
0.00031496963
0.00032725014
0.00030812108
0.00025057493
0.00018678278
0.00014840691
0.0001274946
9.3713265e-05
4.9677427e-05
1.818792e-05
5.0132513e-06
1.1368053e-06
0.00028868326
0.00034037321
0.00038462372
0.00038527658
0.00035454532
0.00032292658
0.00028895565
0.00021475731
9.7040146e-05
2.1896552e-05
3.1329066e-06
2.3585539e-07
8.7942774e-09
1.8984206e-10
2.3174133e-11
1.0343832e-11
4.4243946e-12
1.738045e-12
6.2665502e-13
2.0714575e-13
6.2643958e-14
1.7286151e-14
4.3406762e-15
9.8916768e-16
2.0396741e-16
3.7935535e-17
6.3395157e-18
9.4726607e-19
1.2581396e-19
1.4733736e-20
1.5043321e-21
1.9846678e-24
8.6161057e-28
9.9160269e-32
2.4419867e-36
1.3998374e-41
3.2827373e-47
5.661134e-53
5.234063e-59
0.00029678764
0.00029132558
0.00033263073
0.00036178352
0.0003376018
0.00028436945
0.00024619022
0.00024887645
0.00027556519
0.00030042755
0.00031072628
0.00028394228
0.00021669449
0.00014727453
0.00010542601
7.9234689e-05
4.8738748e-05
1.9971928e-05
5.2469537e-06
1.0239531e-06
1.7063993e-07
0.00034411122
0.00038731822
0.00038601076
0.00035136371
0.00032202809
0.00030049489
0.00025130299
0.00014311428
4.556748e-05
7.0116151e-06
7.5897309e-07
4.3963808e-08
1.3746148e-09
8.5213282e-11
3.4196995e-11
1.5334923e-11
6.3217043e-12
2.4020985e-12
8.4033432e-13
2.7003673e-13
7.9516706e-14
2.1400009e-14
5.2502085e-15
1.1712075e-15
2.3690928e-16
4.3317154e-17
7.1317788e-18
1.0521473e-18
1.3828105e-19
1.6045352e-20
2.8171497e-23
1.6845862e-26
2.7680555e-30
9.92847e-35
7.9487942e-40
2.2436394e-45
4.3039986e-51
6.9710868e-57
5.2817923e-63
0.00034396072
0.00030283299
0.00030354755
0.00034354742
0.00036401597
0.00033162304
0.00027158088
0.00022768278
0.00022691522
0.00025452253
0.00028147261
0.00028899014
0.00025179179
0.00017351029
0.00010292861
6.3177799e-05
3.9926645e-05
1.9665843e-05
5.8622722e-06
1.0654586e-06
1.4706283e-07
1.8426037e-08
0.00038411301
0.00038081582
0.00034292195
0.00031533447
0.00030457406
0.00027710502
0.00018983354
7.74983e-05
1.7541428e-05
1.8550361e-06
1.5672068e-07
7.5674684e-09
3.8853877e-10
1.1082202e-10
5.0578602e-11
2.1677914e-11
8.5745857e-12
3.1462586e-12
1.0684853e-12
3.3398991e-13
9.58341e-14
2.5177252e-14
6.0416718e-15
1.3210842e-15
2.6253718e-16
4.7271482e-17
7.6821324e-18
1.1212506e-18
1.4608427e-19
3.3666149e-22
2.7281582e-25
6.2810853e-29
3.2206548e-33
3.5826854e-38
1.2652931e-43
2.5247529e-49
4.7979626e-55
6.9741565e-61
4.8767319e-67
0.00037473483
0.00033997591
0.00030773316
0.00031486587
0.00035185704
0.00036341299
0.00032306783
0.00025643124
0.00020688352
0.00020221449
0.00022945686
0.00025721416
0.00025954956
0.00020658937
0.0001229635
6.0367277e-05
3.026656e-05
1.5587731e-05
5.8166674e-06
1.2122186e-06
1.5151151e-07
1.5170332e-08
1.4598677e-09
0.00036918612
0.00032946877
0.00030393466
0.00030311514
0.00029486834
0.00023205945
0.00011678333
3.4457765e-05
5.6131516e-06
4.3051196e-07
3.4029043e-08
2.6414454e-09
4.6195332e-10
1.6799068e-10
7.1560257e-11
2.9101659e-11
1.1003291e-11
3.9003526e-12
1.2871987e-12
3.9173777e-13
1.0963325e-13
2.8147748e-14
6.6152253e-15
1.4200029e-15
2.7771455e-16
4.9334462e-17
7.9299044e-18
1.1476625e-18
3.430129e-21
3.7162084e-24
1.1810859e-27
8.5353306e-32
1.3104906e-36
5.9275158e-42
1.2917079e-47
2.4051101e-53
4.5943888e-59
6.4803085e-65
4.3986947e-71
0.00035108939
0.00035966352
0.00033372505
0.0003120483
0.0003245983
0.00035723877
0.00035987641
0.00031163404
0.00023853934
0.00018365302
0.00017488663
0.00019985145
0.00022781418
0.00021684285
0.00015041289
7.2822701e-05
2.7870912e-05
1.1053186e-05
4.4739053e-06
1.2137298e-06
1.7493826e-07
1.5183146e-08
1.1542023e-09
8.6904889e-11
0.00031146075
0.00028889194
0.00029781055
0.00030717794
0.00026843719
0.00016085426
5.8707885e-05
1.2759726e-05
1.6057917e-06
1.5430911e-07
2.7258152e-08
4.9648919e-09
9.325668e-10
2.574882e-10
9.5757973e-11
3.6600919e-11
1.3288591e-11
4.575123e-12
1.4688637e-12
4.3564241e-13
1.19044e-13
2.9907039e-14
6.8940037e-15
1.4552072e-15
2.8060728e-16
4.9281487e-17
7.8522158e-18
3.0106257e-20
4.3098617e-23
1.8676776e-26
1.8812498e-30
3.9645504e-35
2.3144874e-40
5.8569765e-46
1.0437e-51
2.081131e-57
4.2281658e-63
5.9139342e-69
3.8666098e-75
0.0002896596
0.00032759386
0.00034130529
0.0003265966
0.00031552711
0.00033211697
0.00035942629
0.00035299277
0.00029706332
0.00021742332
0.00015819975
0.00014557294
0.0001700143
0.00018828207
0.00016047444
9.1938274e-05
3.3735708e-05
9.5813475e-06
2.9399785e-06
9.1057145e-07
1.7620801e-07
1.7567636e-08
1.1069718e-09
6.6338308e-11
3.9347157e-12
0.0002712364
0.00028998321
0.00031615408
0.0002999126
0.00020684766
9.0468274e-05
2.4677391e-05
4.3479512e-06
7.6798157e-07
2.5751296e-07
7.2348125e-08
1.4290105e-08
2.2114072e-09
3.8170599e-10
1.1838469e-10
4.2959991e-11
1.5117891e-11
5.0779448e-12
1.5875588e-12
4.5933281e-13
1.2270672e-13
3.0208134e-14
6.8414184e-15
1.4227434e-15
2.7105877e-16
4.7168304e-17
2.2963474e-19
4.2978133e-22
2.5125316e-25
3.4957877e-29
1.0074037e-33
7.6001291e-39
2.3142013e-44
4.2222968e-50
7.6958844e-56
1.8341042e-61
3.8797826e-67
5.2659383e-73
3.3117551e-79
0.00025195829
0.00026490328
0.00030147495
0.00032168684
0.00031890947
0.00031755554
0.00033670759
0.00035788904
0.00034280412
0.00027846712
0.00019306799
0.00013093473
0.00011654198
0.0001339205
0.00013809433
0.00010030233
4.4132558e-05
1.149005e-05