/*--------------------------------*- C++ -*----------------------------------*\
| =========                 |                                                 |
| \\      /  F ield         | OpenFOAM: The Open Source CFD Toolbox           |
|  \\    /   O peration     | Version:  5.0                                   |
|   \\  /    A nd           | Web:      www.OpenFOAM.org                      |
|    \\/     M anipulation  |                                                 |
\*---------------------------------------------------------------------------*/
FoamFile
{
    version     2.0;
    format      ascii;
    class       volScalarField;
    location    "240";
    object      p;
}
// * * * * * * * * * * * * * * * * * * * * * * * * * * * * * * * * * * * * * //

dimensions      [0 2 -2 0 0 0 0];

internalField   nonuniform List<scalar> 
9520
(
5.1589303e-05
5.1918361e-05
1.8725975e-05
5.2246026e-05
2.0586031e-05
2.6788126e-05
5.2239502e-05
2.3739881e-05
3.0281346e-05
1.7845137e-05
5.1671144e-05
2.752623e-05
3.6175003e-05
2.3476406e-05
1.5255411e-05
5.0350946e-05
3.1288462e-05
4.3168507e-05
3.3055593e-05
2.3323817e-05
3.7771607e-06
4.8120289e-05
3.4339535e-05
5.007369e-05
4.4601288e-05
3.7076053e-05
1.5063609e-05
-9.6032006e-06
4.4720818e-05
3.6329361e-05
5.5797422e-05
5.637425e-05
5.3872754e-05
3.4369844e-05
5.0146993e-06
-3.0758293e-05
4.0038778e-05
3.7035271e-05
5.9566343e-05
6.6833074e-05
7.1282567e-05
5.8343322e-05
3.0478926e-05
-1.2520261e-05
-5.8956651e-05
3.4626226e-05
3.6672277e-05
6.0977977e-05
7.4632311e-05
8.7062668e-05
8.3751966e-05
6.2910458e-05
1.974406e-05
-3.6440991e-05
-9.6453011e-05
2.9424104e-05
3.552647e-05
6.0259521e-05
7.8845425e-05
9.917125e-05
0.00010765804
9.8574933e-05
6.171651e-05
3.7299015e-06
-6.9488985e-05
-0.00014377546
2.4452144e-05
3.3577731e-05
5.7570652e-05
7.908035e-05
0.00010592568
0.00012746642
0.00013369361
0.00010943771
5.6741648e-05
-2.0943908e-05
-0.00011233334
-0.00020176369
2.0616552e-05
3.550888e-05
5.4183331e-05
7.5398327e-05
0.00010611529
0.00014062822
0.00016513954
0.00015880119
0.00011817566
4.4003789e-05
-5.5256661e-05
-0.0001659728
-0.00027083154
2.0581866e-05
4.6578169e-05
5.2267028e-05
6.983876e-05
9.8860676e-05
0.00014429635
0.00018984561
0.00020583472
0.00018369368
0.00012052999
2.204525e-05
-0.00010053635
-0.00023099281
-0.00035110657
2.7971465e-05
5.9033417e-05
5.5679151e-05
5.9785588e-05
8.1101388e-05
0.00013552702
0.00020487569
0.00024707525
0.00024899853
0.00020394602
0.00011468519
-1.0962046e-05
-0.00015770045
-0.00030770613
-0.00044241597
3.6108726e-05
7.1351605e-05
6.4010996e-05
3.8040483e-05
4.7286983e-05
0.00011100994
0.00020695055
0.00027967375
0.00031045505
0.00029027423
0.00021800675
9.7913755e-05
-5.6453945e-05
-0.00022737117
-0.00039611112
-0.00054426803
6.1032589e-05
9.0248593e-05
9.6471407e-05
5.8161152e-06
5.6303464e-06
6.9445687e-05
0.0001939301
0.00030216856
0.00036530821
0.00037555174
0.00032775664
0.00022152573
6.8202132e-05
-0.00011526512
-0.0003098183
-0.00049589749
-0.00065588024
5.9828298e-05
0.00012765038
0.00015007195
-2.5223264e-05
-4.2160855e-05
1.0343085e-05
0.00016636814
0.00031474706
0.00041203637
0.00045628782
0.00043960005
0.00035529484
0.00021188681
2.4455e-05
-0.00018806489
-0.00040511597
-0.00060641335
-0.0007762259
0.00010010533
0.00017081551
0.0001940135
-5.3837529e-05
-0.00010979717
-7.048561e-05
0.00012097017
0.00031734142
0.00045026334
0.00052924567
0.00054947607
0.00049458387
0.00036997472
0.0001877283
-3.4454266e-05
-0.00027586094
-0.00051297109
-0.00072670843
-0.0009040968
8.5372686e-05
0.00020347888
0.00028815129
-5.1493662e-05
-0.00019702952
-0.00017995743
5.2276806e-05
0.00031021128
0.00048013578
0.0005925023
0.00065362396
0.00063471908
0.0005376777
0.00037018361
0.00014709156
-0.00011099949
-0.00037875309
-0.00063247556
-0.00085563714
-0.001038183
0.00012343304
0.00025251329
0.00039138963
-2.1860561e-05
-0.0003000781
-0.00032963725
-4.3705728e-05
0.00029655376
0.00050751216
0.00064455363
0.00074855734
0.00077079981
0.00070995852
0.00056728071
0.00035294961
8.6481988e-05
-0.00020570747
-0.00049578708
-0.00076261925
-0.00099191423
-0.0011771181
0.00010760936
0.00026283631
0.00059053729
4.771454e-05
-0.00043477379
-0.00052936056
-0.00016789505
0.0002748123
0.00053867693
0.00069010881
0.00083120258
0.00089701996
0.00088136044
0.00077420712
0.00057906838
0.00031349126
4.2864599e-06
-0.00031762375
-0.000626214
-0.00090223102
-0.0011341917
-0.0013194464
0.00012824302
0.00029338753
0.00076903096
0.00016635829
-0.000580123
-0.00079685326
-0.00033392876
0.00023725463
0.00057727513
0.00071668166
0.00089403156
0.0010069263
0.0010457579
0.00098586014
0.00082114516
0.00056649825
0.00024875786
-9.8854114e-05
-0.00044599824
-0.00076908368
-0.0010500274
-0.0012810378
-0.0014636583
0.00015757581
0.00025447241
0.0011111662
0.00028096319
-0.00076786563
-0.0011265373
-0.00055179922
0.00019985788
0.00062651953
0.00074333564
0.00092089135
0.001090987
0.0011967394
0.0011968969
0.0010747684
0.00084171923
0.00052491738
0.00015941741
-0.00022166227
-0.00059058241
-0.00092318439
-0.0012045696
-0.00143088
-0.0016083183
0.00020796008
0.0003012885
0.0014018135
0.00049272802
-0.00096298676
-0.0015728931
-0.00084015221
0.00015829653
0.00070953489
0.00079041429
0.00091327292
0.0011529148
0.0013273664
0.0014022387
0.0013357871
0.0011352787
0.00082945496
0.00045516382
4.6743783e-05
-0.00036498994
-0.00075025695
-0.0010870859
-0.0013642183
-0.0015821515
-0.0017520595
0.00023617681
0.00019946619
0.001781174
0.00077900185
-0.0012400277
-0.002072268
-0.0012075013
0.00012899903
0.00084392346
0.00086280764
0.00087687017
0.0011788711
0.001434821
0.0015974183
0.0016006001
0.0014438769
0.0011589958
0.00078555707
0.00035799544
-9.1140064e-05
-0.00052799039
-0.00092362419
-0.0012592099
-0.0015273714
-0.0017334455
-0.0018935368
0.00032653717
6.0928098e-05
0.0021408475
0.0011596338
-0.001533187
-0.0027597914
-0.001685402
0.00011881035
0.0010583693
0.00096731508
0.00082388864
0.0011451291
0.001508679
0.0017773681
0.0018670527
0.0017654596
0.0015109124
0.001147273
0.00070967483
0.00023073955
-0.00025372031
-0.00070937982
-0.0011092292
-0.001437931
-0.001692448
-0.0018833832
-0.0020315177
0.00048923437
4.1987792e-05
0.0027836388
0.0017291579
-0.0020196042
-0.0034963765
-0.0022837478
0.00012886865
0.0013729117
0.0011235217
0.00074515063
0.0010386985
0.0015293537
0.0019349698
0.0021364693
0.0021017596
0.0018836297
0.0015366813
0.001098149
0.00059890192
7.3612934e-05
-0.00043996084
-0.00090777417
-0.0013053971
-0.0016211672
-0.0018576974
-0.0020305835
-0.0021648981
0.00054613905
0.00032133914
0.0032602888
0.0022787305
-0.0025736891
-0.0045416044
-0.0030640482
0.00015937777
0.0018134643
0.0013300028
0.00064856912
0.00083544965
0.0014768221
0.0020585386
0.0024093103
0.0024552271
0.0022769571
0.0019503709
0.001518693
0.0010097339
0.00045323715
-0.0001127482
-0.00064874851
-0.0011215585
-0.0015098222
-0.0018068601
-0.0020215433
-0.0021738037
-0.0022926905
0.00057171027
0.00071675219
0.0034661401
0.0028359066
-0.0034154098
-0.0055384191
-0.0038967132
0.00022662461
0.0024152015
0.0016193144
0.00051734267
0.00052655297
0.00132074
0.0021399166
0.0026789222
0.0028293798
0.0026908888
0.0023856335
0.0019658163
0.0014577618
0.0008820273
0.00027277931
-0.00032764454
-0.0008786655
-0.0013485414
-0.0017206385
-0.0019938825
-0.002182843
-0.0023119365
-0.002414078
0.00048384931
0.0011722427
0.0035633108
0.0034209514
-0.0042270917
-0.0068780056
-0.0047988892
0.00036467348
0.0031712377
0.0019873307
0.00036127067
6.4726797e-05
0.001037818
0.002162605
0.0029514977
0.0032282278
0.0031299141
0.002840018
0.0024328549
0.0019354816
0.0013547608
0.00071504451
5.8013485e-05
-0.00057000587
-0.0011278317
-0.0015868764
-0.0019361385
-0.0021806446
-0.0023403179
-0.0024441055
-0.0025283539
0.00038128742
0.0016521516
0.0035588416
0.0037337296
-0.0054236264
-0.0064097223
-0.0059981597
0.00043919018
0.0039936949
0.0024407935
0.00015931912
-0.00056134871
0.0005796281
0.0021072357
0.0032258251
0.003666189
0.0036007055
0.0033150766
0.0029138823
0.0024339057
0.0018657277
0.0012111877
0.00050876045
-0.00019105206
-0.00083865995
-0.0013941051
-0.0018342247
-0.0021537118
-0.0023651459
-0.0024926067
-0.0025694388
-0.0026348119
0.00025511579
0.0020194083
0.0037160515
0.0037398478
-0.0067099446
-0.0081702659
-0.007723968
0.00026126563
0.0048745801
0.0030536643
-6.834511e-05
-0.0014446714
-8.5317473e-05
0.0019475168
0.0035067276
0.0041519086
0.0041164272
0.0038109946
0.0034080574
0.0029455542
0.0024090661
0.0017552845
0.0010224823
0.00026031351
-0.0004744586
-0.0011311071
-0.001674494
-0.0020876431
-0.0023715118
-0.0025456852
-0.0026384886
-0.0026869368
-0.0027329308
0.0001122899
0.0022672592
0.0036232321
0.0036634106
-0.0079208149
-0.0090644799
-0.0097353578
0.00017345574
0.0061942117
0.0037950777
-0.00035981654
-0.0026018301
-0.0010308916
0.0016493701
0.0037873527
0.004708262
0.0046856291
0.0043382266
0.0039057141
0.0034537731
0.0029705534
0.0023363152
0.0015919929
0.00078340505
-3.1030756e-05
-0.00078970001
-0.0014444155
-0.0019659685
-0.0023445457
-0.002588096
-0.0027209974
-0.0027768491
-0.0027959636
-0.002822688
-3.9120329e-05
0.0023293287
0.0034225958
0.0035464462
-0.0091211169
-0.010064824
-0.011294849
0.00053701543
0.0076116945
0.0045818389
-0.00068710961
-0.0041727083
-0.0022955038
0.0011785151
0.0040620281
0.0053488373
0.0053307353
0.0048990516
0.004407034
0.0039473828
0.0035112989
0.0029386523
0.0022071733
0.0013727894
0.00049283745
-0.00036341402
-0.0011340486
-0.0017763798
-0.0022662261
-0.0026034024
-0.0028010281
-0.0028903522
-0.0029073662
-0.0028968683
-0.002904017
-0.00018231636
0.0021900034
0.0030273555
0.0032977887
-0.010004444
-0.011476963
-0.012347111
0.00078825554
0.0086446144
0.0053470805
-0.0011903679
-0.0061595807
-0.0039656661
0.00047016974
0.0043083979
0.0060964692
0.0060582168
0.0055104188
0.0049030991
0.004417043
0.0040217022
0.0035433939
0.0028538455
0.0020217054
0.0010951006
0.00015161994
-0.00073482189
-0.0015055381
-0.0021234237
-0.0025727181
-0.0028614883
-0.0030091002
-0.0030525033
-0.0030295767
-0.0029892197
-0.0029767669
-0.00030309471
0.0018228535
0.0024575155
0.00290285
-0.010801684
-0.012753466
-0.013212072
0.0011752891
0.0090104016
0.0061534305
-0.0016606227
-0.0087476643
-0.006034944
-0.00053677865
0.0044803838
0.0069665381
0.0068862301
0.0061664351
0.0054026483
0.0048383031
0.0044874871
0.0041291069
0.0035287225
0.0027196389
0.0017719245
0.00075662753
-0.00023862398
-0.0011419419
-0.001899738
-0.0024822837
-0.0028832446
-0.0031164863
-0.0032108733
-0.003204954
-0.003142608
-0.0030726977
-0.0030409604
-0.00039186599
0.0012409742
0.001720503
0.0023168551
-0.011431811
-0.013799684
-0.014108703
0.00086695827
0.0093785852
0.006755494
-0.0027117301
-0.011652861
-0.0086451096
-0.0019405311
0.0045639336
0.0079624732
0.007811397
0.0068932082
0.0058869697
0.0052018934
0.0048744833
0.0046686994
0.0042076831
0.0034655639
0.0025173098
0.0014495446
0.00035722086
-0.00067589629
-0.0015814747
-0.0023132645
-0.0028501986
-0.0031940899
-0.0033673784
-0.0034045343
-0.0033476243
-0.0032461748
-0.003147183
-0.0030966888
-0.0004424684
0.00046779917
0.00084537501
0.0015272147
-0.011714842
-0.014708195
-0.014906935
7.4176952e-05
0.0090368419
0.0068484963
-0.0037024785
-0.015665152
-0.01212648
-0.0037182219
0.0044360948
0.009088383
0.0088158706
0.0076672664
0.0063748301
0.0054676899
0.005167875
0.0051282011
0.0048676273
0.0042410872
0.003328535
0.0022305725
0.0010540702
-0.00010186191
-0.0011568676
-0.0020496417
-0.0027427065
-0.0032234809
-0.0035028642
-0.0036115892
-0.0035877988
-0.0034805935
-0.0033401475
-0.0032127116
-0.0031441304
-0.0004709961
-0.00047147042
-0.00013585723
0.00058809711
-0.011629482
-0.015186137
-0.015452881
-0.0008515925
0.0082040829
0.0068298154
-0.0053396428
-0.019722951
-0.016621368
-0.0061156448
0.0038972806
0.010246172
0.0098618112
0.0084879716
0.0068292813
0.0056293552
0.0052911477
0.0054790215
0.0054810168
0.0050310624
0.004198542
0.0030919529
0.0018530942
0.00058446021
-0.00061717351
-0.0016773958
-0.0025426711
-0.0031840589
-0.0035985744
-0.0038069139
-0.0038464625
-0.003760094
-0.0036033375
-0.0034244108
-0.0032694301
-0.0031835482
-0.0015082946
-0.00049829737
-0.0011688738
-0.00038306048
-0.011171939
-0.015203645
-0.015701836
-0.002069228
0.0066852198
0.0068349925
-0.0069169237
-0.024328629
-0.021840944
-0.0099345553
0.0025956439
0.011451891
0.010815199
0.0092964805
0.0072635403
0.005621066
0.0052234394
0.0056588321
0.0060187718
0.0058186989
0.0051159356
0.004034366
0.0027459853
0.0013824054
4.2845472e-05
-0.0011852197
-0.0022336836
-0.0030559701
-0.0036329614
-0.0039720907
-0.0041031326
-0.0040702885
-0.00392196
-0.0037156061
-0.0034990791
-0.0033176132
-0.0032152544
-0.0021730895
-0.0025310509
-0.00056103773
-0.001392284
-0.010457039
-0.014674261
-0.015531188
-0.0035480324
0.0045332594
0.0059827514
-0.0075113218
-0.028636458
-0.026929881
-0.014454863
0.00051477056
0.012703967
0.011649034
0.010037456
0.0076070814
0.0054402027
0.0048582218
0.0056274952
0.006437217
0.0065892474
0.0060703808
0.0050549133
0.0037385386
0.0022918762
0.00082649173
-0.00056527335
-0.0018017988
-0.002820561
-0.0035843839
-0.0040850277
-0.0043402755
-0.0043889102
-0.00428148
-0.004072126
-0.003817154
-0.0035642795
-0.0033575119
-0.0032395912
-0.0025506801
-0.0031451562
-0.0034576829
-0.00065031938
-0.0094462233
-0.013577639
-0.014851932
-0.0052552412
0.0016791986
0.0043124589
-0.0079505962
-0.032485371
-0.032107666
-0.01854993
-0.0014537014
0.013899564
0.012136841
0.010592298
0.0078695189
0.0049808438
0.0041690656
0.0052631034
0.0066935663
0.0073150363
0.0070607379
0.0061480908
0.0048224589
0.0033134041
0.0017304015
0.0001862873
-0.0012362223
-0.0024610529
-0.0034320186
-0.0041227275
-0.0045357372
-0.0046997618
-0.00466237
-0.0044800682
-0.0042102138
-0.0039079408
-0.0036201336
-0.0033894569
-0.0032569565
-0.008055375
-0.0038867455
-0.0040561424
-0.0041901379
-0.00075901823
-0.011939963
-0.013656568
-0.0071392871
-0.0018541891
0.0018831074
-0.0088423133
-0.035887955
-0.038260876
-0.023125957
-0.0029395018
0.013938699
0.01278484
0.010810807
0.0079089875
0.0042528985
0.0029701216
0.0045233524
0.006710952
0.0079728386
0.0080713374
0.0073132041
0.0059993946
0.0044348346
0.0027537495
0.0010695303
-0.00053125546
-0.0019639356
-0.0031564443
-0.0040622539
-0.0046656411
-0.0049808509
-0.0050477525
-0.0049222418
-0.004665347
-0.0043359525
-0.0039880026
-0.0036670233
-0.0034138878
-0.0032677591
-0.0098703283
-0.0063310424
-0.0051221113
-0.0048674215
-0.0047164878
-0.00088785234
-0.011943463
-0.0092179807
-0.0060164513
-0.0014342401
-0.0099262552
-0.039294775
-0.04320563
-0.028831934
-0.0065097101
0.013475342
0.011037724
0.010522453
0.0077797568
0.0030718396
0.0012353928
0.0031506472
0.0064149115
0.0085224493
0.0091110283
0.008545068
0.0072687312
0.0056500088
0.0038884021
0.002078033
0.00031402289
-0.0013199271
-0.0027406786
-0.0038813935
-0.0047053569
-0.0052079092
-0.0054165557
-0.005382048
-0.005167398
-0.0048366395
-0.0044492131
-0.0040575843
-0.0037053505
-0.0034311996
-0.0032724171
-0.0095674937
-0.0074392288
-0.0045078729
-0.0060870466
-0.0055409683
-0.0050212735
-0.0010270508
-0.011471592
-0.010676708
-0.0056854681
-0.011168482
-0.042176483
-0.048513329
-0.034366478
-0.011231612
0.0097604369
0.013972844
0.0096158817
0.0071426819
0.0015022182
-0.0013347597
0.0011212253
0.0056929799
0.0089189519
0.010154608
0.0098545978
0.0086209513
0.0069593121
0.0051178257
0.0032031955
0.0012939029
-0.00052685798
-0.0021722209
-0.0035601345
-0.0046298388
-0.0053550442
-0.0057446297
-0.0058395938
-0.0057008048
-0.0053967509
-0.0049934534
-0.0045501536
-0.004117176
-0.0037355077
-0.0034418193
-0.0032713167
-0.013645114
-0.0068097933
-0.0049512496
-0.0027943784
-0.0067853275
-0.0060424864
-0.0050800552
-0.0011600312
-0.015476498
-0.010300876
-0.01255211
-0.044111699
-0.052713035
-0.039724011
-0.016528194
0.0055084996
0.0087893795
0.0080515192
0.0062657393
-0.00090219447
-0.0047006494
-0.0020911235
0.0044351347
0.0090733437
0.011197576
0.011222879
0.010056028
0.0083374818
0.0064348179
0.0044264255
0.0023954407
0.00041131192
-0.0014448713
-0.0030813777
-0.0044155458
-0.0053949291
-0.0060053363
-0.0062713746
-0.0062471598
-0.0060022616
-0.0056094169
-0.0051357633
-0.0046392318
-0.0041671066
-0.0037578323
-0.0034460036
-0.0032648745
-0.020136586
-0.015666525
-0.004178886
-0.002583034
-0.0013046981
-0.0073805633
-0.0063371061
-0.0049313542
-0.0012856089
-0.014813623
-0.014232099
-0.04489968
-0.055688251
-0.044133025
-0.022289104
-1.6512671e-05
0.0061844587
0.0052668903
0.0044975995
-0.0036238102
-0.0094621946
-0.0056354671
0.0025300248
0.0088414057
0.012156456
0.012652003
0.01154042
0.0097963565
0.0078114151
0.005728719
0.0035989933
0.0014809516
-0.00056060689
-0.0024343775
-0.0040411938
-0.0053000749
-0.0061695785
-0.0066505904
-0.00678415
-0.006636616
-0.0062848694
-0.0058050504
-0.0052639667
-0.0047166472
-0.0042072683
-0.0037722882
-0.0034441685
-0.0032537067
-0.018887133
-0.024272823
-0.01719261
-0.0017985439
-0.00047592177
5.5187946e-05
-0.0078026862
-0.0064505087
-0.0045904872
-0.0013913436
-0.016581182
-0.044403904
-0.057129584
-0.047268535
-0.02808998
-0.0064606943
0.0010112292
0.0022220376
0.0027091814
-0.007747545
-0.014978592
-0.011634697
-0.00018949632
0.0080196877
0.0129594
0.014098036
0.013070398
0.011268833
0.0092384302
0.007076877
0.004877913
0.0026601806
0.0004695803
-0.0016162179
-0.0034899557
-0.0050451566
-0.0062066707
-0.0069470224
-0.0072854985
-0.0072791496
-0.007005541
-0.0065479113
-0.0059839626
-0.0053780435
-0.0047817712
-0.0042374559
-0.0037796215
-0.0034374465
-0.0032383728
-0.019225863
-0.022255482
-0.027535583
-0.018008241
0.00035621138
0.0012819257
0.0011937077
-0.0079737545
-0.0063767307
-0.0040826712
-0.0014759092
-0.04242872
-0.056811851
-0.048615287
-0.033576821
-0.013714654
-0.0059458543
-0.0029049951
0.0014471328
-0.011171349
-0.022904757
-0.018347189
-0.0040072894
0.0063144185
0.013453476
0.015481975
0.014606822
0.012727756
0.010647784
0.0084504322
0.0061931154
0.0039183199
0.0016239672
-0.00063363619
-0.0027523276
-0.0046065323
-0.0060862236
-0.0071275227
-0.0077206028
-0.0079048257
-0.0077528261
-0.0073523882
-0.0067913775
-0.0061458377
-0.0054767155
-0.0048341007
-0.0042590817
-0.0037819608
-0.0034268358
-0.0032186548
-0.038948847
-0.021756909
-0.024879587
-0.029874684
-0.018236867
0.0022498744
0.0026589366
0.0019684961
-0.0079751531
-0.006134962
-0.0035168678
-0.0015293056
-0.054486851
-0.048401979
-0.038085107
-0.021431468
-0.014790805
-0.0095799595
-0.00071979565
-0.013728501
-0.03098524
-0.028492227
-0.0095736826
0.0035608229
0.013362973
0.016739636
0.016045076
0.01407967
0.012028558
0.0097775694
0.0075136946
0.0052111031
0.0028701247
0.00049551578
-0.0018281956
-0.0039668941
-0.0057788382
-0.0071567765
-0.0080546075
-0.0084835439
-0.0085035358
-0.0082026727
-0.007676671
-0.0070145452
-0.0062885782
-0.0055590141
-0.0048760664
-0.0042758717
-0.0037807049
-0.0034108823
-0.0031927805
-0.050238121
-0.034090316
-0.023308676
-0.026832022
-0.031187901
-0.017989086
0.0037645248
0.0037137176
0.0024243305
-0.0078601363
-0.0058480891
-0.0028691642
-0.0014403565
-0.046949255
-0.040907915
-0.029678418
-0.02527076
-0.017595392
-0.0055678113
-0.016446424
-0.039502419
-0.039506621
-0.01823004
-0.0011303368
0.012384095
0.017666658
0.017421765
0.01512569
0.013278034
0.011047343
0.0087632993
0.0064980413
0.0041615327
0.0017403925
-0.00072831724
-0.0031168021
-0.0052579801
-0.0070002475
-0.0082487107
-0.0089797761
-0.0092290304
-0.009077743
-0.0086275143
-0.0079772734
-0.0072143315
-0.0064105473
-0.0056285988
-0.0049135496
-0.004289277
-0.0037716737
-0.0033851081
-0.0031613946
-0.044031289
-0.043967599
-0.028457544
-0.023243189
-0.028120463
-0.031515032
-0.01734092
0.0048360279
0.0045187264
0.0025757533
-0.00768858
-0.0052381918
-0.0023090162
-0.0013233692
-0.041246741
-0.038305083
-0.037053695
-0.02798181
-0.012729125
-0.020947509
-0.046677628
-0.05475444
-0.031310507
-0.0083795508
0.010000389
0.017904539
0.018169894
0.016920661
0.014337572
0.01213938
0.0099240115
0.007696616
0.0054493087
0.0030561638
0.00052264942
-0.0020569031
-0.0045034508
-0.0066220961
-0.0082622443
-0.0093526786
-0.0098942811
-0.0099513874
-0.0096252466
-0.0090251698
-0.0082498707
-0.0073881006
-0.0065168157
-0.0056942249
-0.0049477985
-0.0042905691
-0.0037457996
-0.0033536594
-0.0031248963
-0.038474179
-0.039377342
-0.036213988
-0.022309086
-0.021950817
-0.028531736
-0.030930824
-0.016325152
0.0054493962
0.0050750961
0.0025606694
-0.0075578052
-0.0054555649
-0.0018076697
-0.0010959913
-0.046560455
-0.049497404
-0.040275493
-0.021023095
-0.026583992
-0.054683654
-0.06823711
-0.051187776
-0.0177344
0.0074618194
0.017213936
0.018446352
0.016961553
0.015203454
0.01302388
0.010862893
0.0087802524
0.0066457484
0.0043884113
0.0018860303
-0.00080105143
-0.0035032763
-0.0059905556
-0.0080522866
-0.0095558596
-0.010457765
-0.010790221
-0.010646883
-0.010142922
-0.0093894073
-0.0084904081
-0.0075423502
-0.006619763
-0.0057569515
-0.0049635346
-0.0042645921
-0.0037135902
-0.00331686
-0.0030832648
-0.053413444
-0.033608796
-0.033176801
-0.027690221
-0.016087725
-0.019824501
-0.027870797
-0.02959896
-0.015036469
0.0056824804
0.0052934148
0.0022163933
-0.007282641
-0.0051241275
-0.0016052585
-0.00090563677
-0.062043531
-0.053844009
-0.030445484
-0.03297913
-0.063459803
-0.083720486
-0.070536897
-0.032065636
0.00037907384
0.017141917
0.017548663
0.016970916
0.015371274
0.013574261
0.011573738
0.00959982
0.0077124206
0.0056486873
0.0033075071
0.00062298494
-0.0022563973
-0.005079721
-0.0075751128
-0.0095402966
-0.010870606
-0.011553455
-0.011661825
-0.011310923
-0.01062258
-0.009714563
-0.0087067879
-0.0076939435
-0.0067202859
-0.0057923934
-0.0049377525
-0.0042310304
-0.0036756755
-0.0032746767
-0.0030364172
-0.07363219
-0.058408232
-0.028384978
-0.025697708
-0.019187208
-0.010150376
-0.017147826
-0.02627561
-0.027638377
-0.01381636
0.0056439252
0.004637333
0.0016429263
-0.0065478179
-0.0045854965
-0.001675662
-0.00073544252
-0.067863077
-0.040725858
-0.039825627
-0.072385819
-0.09900516
-0.091015014
-0.050288075
-0.01005506
0.011317996
0.016692308
0.015253718
0.015052019
0.013617016
0.011883809
0.010162837
0.0084808832
0.0067835181
0.0047042887
0.0021685516
-0.00077486523
-0.0038708758
-0.0067904337
-0.0092524009
-0.011078242
-0.012192257
-0.01263131
-0.012502476
-0.011932823
-0.011055534
-0.010010472
-0.0089212222
-0.007843586
-0.0067822235
-0.0057675636
-0.0049023943
-0.0041912581
-0.003632046
-0.0032269915
-0.0029842667
-0.080396584
-0.083001045
-0.060741027
-0.023444352
-0.017802754
-0.011251853
-0.0045929048
-0.014209478
-0.023922479
-0.025457841
-0.012524544
0.0055034757
0.0047003151
0.0010342644
-0.005433634
-0.0038836614
-0.0014376762
-0.00059623398
-0.051507193
-0.0464857
-0.080592732
-0.11274989
-0.11050203
-0.069618559
-0.024218912
0.0047610591
0.012815362
0.012970504
0.013595217
0.013142625
0.011760846
0.010249165
0.0089636076
0.0076098748
0.0060092517
0.0037662479
0.00090908026
-0.0023561432
-0.005663942
-0.0086395378
-0.011022151
-0.012649055
-0.013507297
-0.013682182
-0.013298342
-0.012500511
-0.011452096
-0.010305384
-0.0091340119
-0.0079406091
-0.0067599565
-0.0057301236
-0.0048602146
-0.0041454438
-0.0035827649
-0.0031738147
-0.0029268638
-0.06115096
-0.089523606
-0.08872077
-0.060597187
-0.019481226
-0.010410425
-0.0043160577
0.00039977738
-0.011215487
-0.021174854
-0.022704927
-0.010607982
0.0053505625
0.0046680563
0.00029656765
-0.0041808159
-0.003151871
-0.0013310797
-0.0005404367
-0.05227791
-0.087036697
-0.12349985
-0.1284774
-0.088610733
-0.041344266
-0.0056353942
0.0094242622
0.0088789405
0.011467549
0.01181024
0.011036253
0.0099107202
0.0088801753
0.0081336317
0.0070369248
0.0053433856
0.0027460792
-0.00054697224
-0.0041659155
-0.0076473967
-0.010637603
-0.012858431
-0.014231544
-0.014804345
-0.01468859
-0.014033068
-0.013024776
-0.01184862
-0.010599391
-0.0092772288
-0.0079238253
-0.0067203701
-0.0056851492
-0.0048116425
-0.0040937652
-0.0035277669
-0.0031151671
-0.0028640856
-0.057105529
-0.068508444
-0.09416178
-0.090819108
-0.058514684
-0.016109572
-0.0044322022
0.0014565329
0.004645664
-0.0083594692
-0.017984954
-0.019886195
-0.0086962462
0.0050465621
0.0043950218
9.4275374e-06
-0.0033096015
-0.0034540748
-0.0012152454
-0.00041371603
-0.090147724
-0.12932094
-0.14491786
-0.10692849
-0.060634646
-0.018313909
0.00025868345
0.007005277
0.007363394
0.009865101
0.0096611483
0.0087766525
0.0083075159
0.0079983407
0.0077761487
0.0067270233
0.0046698614
0.0015294504
-0.0022782462
-0.0062275614
-0.0098309971
-0.012739797
-0.014732867
-0.01581163
-0.016062361
-0.015628589
-0.014717312
-0.013550457
-0.012246515
-0.01080367
-0.0092700373
-0.0078827488
-0.006672412
-0.0056333478
-0.0047569308
-0.0040360551
-0.0034670501
-0.0030508455
-0.0027960756
-0.088683005
-0.060905771
-0.072831918
-0.094748458
-0.089206705
-0.055082659
-0.012919531
0.00012537666
0.0060294994
0.0081257696
-0.0056680072
-0.015153233
-0.017186821
-0.0072167238
0.0044691886
0.0037121464
-1.2210262e-05
-0.0026651384
-0.0025232683
-0.0011247293
-0.00035923879
-0.1289691
-0.15242312
-0.12410812
-0.078452688
-0.033594912
-0.011476976
-5.1917651e-05
0.0032978074
0.00641639
0.0075039089
0.0071367944
0.0067322697
0.007301827
0.0078126165
0.0078862591
0.0065395715
0.0038110306
1.7384754e-06
-0.004343892
-0.0085498983
-0.012204736
-0.014925846
-0.016632659
-0.017366023
-0.017252161
-0.016510679
-0.01540554
-0.014079733
-0.012530641
-0.010811759
-0.0092289857
-0.0078320014
-0.0066172322
-0.0055750987
-0.0046958248
-0.0039724076
-0.0034005369
-0.0029812572
-0.002722672
-0.12235081
-0.082258209
-0.061059749
-0.073533335
-0.091434227
-0.084417217
-0.050607099
-0.010156986
0.0033259558
0.0094748106
0.01073487
-0.0037476773
-0.012480629
-0.014067482
-0.0053960191
0.0036981681
0.0029339509
-9.9953695e-05
-0.0020770067
-0.0022731956
-0.00091099287
-0.00026791653
-0.15129385
-0.13573846
-0.0908723
-0.04958452
-0.026285545
-0.010381152
-0.003396975
0.002697839
0.0045891026
0.0042784696
0.0047124883
0.0054271185
0.0072785209
0.00837719
0.0083626637
0.0061572634
0.0026503792
-0.0019552833
-0.0067597738
-0.011167341
-0.014728098
-0.017183474
-0.018531457
-0.018856441
-0.018377297
-0.017400002
-0.016101718
-0.014467777
-0.012562387
-0.010772633
-0.0091765048
-0.0077735297
-0.0065551408
-0.0055100754
-0.004628552
-0.0039028434
-0.0033286417
-0.0029060258
-0.0026440147
-0.14186728
-0.10930495
-0.072359071
-0.056828714
-0.070307405
-0.084575499
-0.076996403
-0.045448888
-0.0079932881
0.0050873833
0.010933936
0.012597265
-0.0028580132
-0.0095318225
-0.011082358
-0.0037745854
0.0030085107
0.0025010989
-0.00017823849
-0.0015358113
-0.0015863997
-0.00075963493
-0.00023517985
-0.13812555
-0.097556421
-0.064513937
-0.043401893
-0.025937501
-0.013858559
-0.0040118616
0.0017598285
0.0012334552
0.00090293479
0.0029628911
0.0053921401
0.0083534448
0.0095551633
0.0090576969
0.0056445059
0.00094125801
-0.00438608
-0.0095585489
-0.014040552
-0.017378629
-0.019478623
-0.020379799
-0.020277547
-0.019514427
-0.018305726
-0.016624872
-0.01453566
-0.012528325
-0.010720301
-0.0091152576
-0.0077075814
-0.0064857983
-0.0054384769
-0.0045552104
-0.0038277716
-0.0032509163
-0.0028252928
-0.0025601001
-0.1309353
-0.1229075
-0.092299955
-0.059944638
-0.04985117
-0.063931286
-0.074718808
-0.067705784
-0.039841799
-0.0067486529
0.006155036
0.011681128
0.012736159
-0.0017641613
-0.0065387912
-0.0085937798
-0.0025858071
0.0025062513
0.0020851527
-9.7359786e-05
-0.0011084316
-0.0012932879
-0.0005674523
-0.00016269182
-0.098537358
-0.07656567
-0.061494359
-0.045717509
-0.028471941
-0.014787546
-0.0032941297
-0.0018290848
-0.0025905789
-0.0019380841
0.0026705008
0.0069590897
0.010199944
0.011263098
0.0090095097
0.0043571002
-0.0013952819
-0.0073221474
-0.012753502
-0.01711475
-0.020122577
-0.021747506
-0.022158231
-0.021717634
-0.020682284
-0.019005273
-0.016745543
-0.014511633
-0.012479557
-0.010657582
-0.009045726
-0.0076336921
-0.0064093245
-0.0053606556
-0.004476229
-0.0037466385
-0.0031671778
-0.0027392348
-0.0024711116
-0.093759675
-0.11538959
-0.10176632
-0.073136301
-0.04656439
-0.041026294
-0.05533666
-0.062668672
-0.057345629
-0.034566449
-0.005443399
0.0079917204
0.011480253
0.012529119
-0.00017554154
-0.0043023764
-0.0058310965
-0.0016653375
0.0021222446
0.0017820082
3.9633207e-05
-0.0007393106
-0.0008236428
-0.00040158028
-0.00011111135
-0.083810173
-0.078964385
-0.068285264
-0.048774375
-0.030165253
-0.01219111
-0.0058466401
-0.0071879634
-0.0061351655
-0.0030267508
0.0048908356
0.0092547241
0.013285949
0.012373912
0.0082448184
0.0022468083
-0.0043951855
-0.010791079
-0.016276227
-0.020351203
-0.02287377
-0.023952362
-0.023965995
-0.023211839
-0.021610404
-0.019203319
-0.016738561
-0.014471987
-0.012417705
-0.010585367
-0.0089673159
-0.0075519174
-0.0063263664
-0.005277061
-0.0043908428
-0.0036587669
-0.0030780222
-0.0026480842
-0.0023770517
-0.084738961
-0.083604899
-0.095228378
-0.080349298
-0.054024252
-0.033219354
-0.031246152
-0.046111247
-0.049097494
-0.047200712
-0.028693705
-0.0030171818
0.0094782254
0.011527146
0.011375743
0.0014932131
-0.0027902499
-0.0040498103
-0.00083208439
0.0017981449
0.0015415865
0.0002052676
-0.00039570762
-0.00053523273
-0.00022786941
-4.7001197e-05
-0.094032263
-0.092259109
-0.07496121
-0.05154393
-0.025443924
-0.012496855
-0.012019299
-0.013158297
-0.0085812424
-0.00056868095
0.010841104
0.014684781
0.015828515
0.012451752
0.0064919921
-0.00072679218
-0.0080863621
-0.014753107
-0.020045053
-0.023653825
-0.025580422
-0.026204352
-0.025864133
-0.02443491
-0.021918213
-0.019223944
-0.016716318
-0.014414832
-0.012344594
-0.01050288
-0.0088800189
-0.0074632168
-0.0062374319
-0.0051865068
-0.0042977326
-0.0035653522
-0.0029836582
-0.0025519401
-0.002278081
-0.10465399
-0.080254215
-0.070616973
-0.073910514
-0.05964881
-0.036394626
-0.020565262
-0.02130456
-0.037068344
-0.036425438
-0.036341931
-0.02271571
-0.00018512375
0.01007841
0.010757195
0.010074914
0.0024326912
-0.0014163531
-0.0023456003
-0.00017013141
0.0016100047
0.001419538
0.00037801028