/*--------------------------------*- C++ -*----------------------------------*\
| =========                 |                                                 |
| \\      /  F ield         | OpenFOAM: The Open Source CFD Toolbox           |
|  \\    /   O peration     | Version:  5.0                                   |
|   \\  /    A nd           | Web:      www.OpenFOAM.org                      |
|    \\/     M anipulation  |                                                 |
\*---------------------------------------------------------------------------*/
FoamFile
{
    version     2.0;
    format      ascii;
    class       surfaceScalarField;
    location    "240";
    object      phi;
}
// * * * * * * * * * * * * * * * * * * * * * * * * * * * * * * * * * * * * * //

dimensions      [0 3 -1 0 0 0 0];

internalField   nonuniform List<scalar> 
18820
(
-0.00039665625
-1.3579378
-0.00076592533
-1.2699354
-0.0003780763
-1.3575597
-0.0011075474
-1.1877274
-0.00073144447
-1.2695821
-0.00036213157
-1.3571976
-0.0014209057
-1.1109063
-0.0010601285
-1.1873987
-0.00070050667
-1.2692437
-0.00035562859
-1.356842
-0.0017054223
-1.0391055
-0.0013639945
-1.1106024
-0.0010157754
-1.1870834
-0.00068746296
-1.2689119
-0.00035613687
-1.3564858
-0.0019608619
-0.97197779
-0.0016425069
-1.038827
-0.0013089653
-1.1103092
-0.00099715479
-1.1867737
-0.0006886478
-1.2685794
-0.00035581241
-1.35613
-0.0021867923
-0.90920782
-0.0018951828
-0.97172512
-0.0015803538
-1.0385556
-0.0012866417
-1.1100198
-0.00099992667
-1.1864625
-0.00068979506
-1.2682454
-0.00034602837
-1.355784
-0.0023822847
-0.85050506
-0.0021220271
-0.90898098
-0.0018291592
-0.97147631
-0.0015572617
-1.0382849
-0.0012917403
-1.1097279
-0.0010049218
-1.1861473
-0.00067336833
-1.267918
-0.00032683071
-1.3554572
-0.0025459107
-0.79560144
-0.002323739
-0.85030335
-0.0020550319
-0.9087551
-0.0018089445
-0.97122463
-0.0015656743
-1.038011
-0.0013025208
-1.1094303
-0.00098530685
-1.1858354
-0.00063804196
-1.2676068
-0.00030337013
-1.3551538
-0.0026761502
-0.74424656
-0.0025025234
-0.79542266
-0.0022587664
-0.85009961
-0.0020414414
-0.90852261
-0.0018227522
-0.97096755
-0.0015841551
-1.0377294
-0.0012831305
-1.1091325
-0.00093725027
-1.1855362
-0.00059301261
-1.2673172
-0.00028210255
-1.3548717
-0.0027733309
-0.69621223
-0.0026620607
-0.74408702
-0.0024436888
-0.79523773
-0.0022546198
-0.84988643
-0.0020632796
-0.90828208
-0.0018519325
-0.97069977
-0.0015679967
-1.0374445
-0.0012269102
-1.1088429
-0.00087272989
-1.1852565
-0.00055126133
-1.267048
-0.00026652488
-1.3546052
-0.0028381726
-0.65128382
-0.0028079593
-0.69606633
-0.0026172475
-0.74391346
-0.0024483062
-0.79504405
-0.0022866307
-0.84966308
-0.0021069911
-0.90802702
-0.0018421031
-0.97042567
-0.001508206
-1.0371632
-0.0011462388
-1.1085693
-0.00081178201
-1.184996
-0.00052010765
-1.2667944
-0.00025582976
-1.3543493
-0.0028886473
-0.60923527
-0.0029647975
-0.65112698
-0.0027938997
-0.69588968
-0.0026230629
-0.7437387
-0.0024902701
-0.79484041
-0.0023488144
-0.84942126
-0.0021072364
-0.90776189
-0.0017825569
-0.97015132
-0.0014156758
-1.0368938
-0.0010676672
-1.1083135
-0.00076597016
-1.1847501
-0.00049866711
-1.2665516
-0.00024629581
-1.354103
-0.0029279216
-0.56988136
-0.0031504765
-0.60904959
-0.002984213
-0.65093667
-0.0027781494
-0.6957346
-0.0026673291
-0.74356165
-0.0025738333
-0.79461539
-0.0023649343
-0.84916356
-0.0020516994
-0.90749274
-0.0016813657
-0.96988563
-0.0013218463
-1.0366396
-0.0010082309
-1.1080712
-0.00073419555
-1.1845146
-0.0004802033
-1.2663177
-0.00023388069
-1.3538692
-0.0029680617
-0.53306045
-0.0033479209
-0.56968392
-0.0031620639
-0.60887174
-0.0028905101
-0.65082431
-0.0028002833
-0.69560164
-0.0027745333
-0.74336095
-0.002617332
-0.79436299
-0.0023181582
-0.8488971
-0.0019436748
-0.90723044
-0.001574861
-0.96963261
-0.0012497799
-1.036398
-0.00096672219
-1.1078387
-0.00070695047
-1.1842878
-0.00045679149
-1.2660948
-0.00021623754
-1.3536529
-0.00301668
-0.49861191
-0.0035735687
-0.5328348
-0.0033099217
-0.56953606
-0.0029389298
-0.60882332
-0.0028691975
-0.65075539
-0.002943489
-0.69543269
-0.0028686416
-0.74310964
-0.0025869389
-0.79409421
-0.0022035124
-0.84863727
-0.0018262687
-0.90697903
-0.0014920119
-0.96939038
-0.001199273
-1.0361655
-0.00093077846
-1.1076148
-0.00067309161
-1.1840715
-0.0004233044
-1.2658877
-0.00019350087
-1.3534594
-0.0030928959
-0.4663819
-0.0038373546
-0.49834813
-0.0034327757
-0.53271195
-0.0029394069
-0.56953558
-0.002873233
-0.60881928
-0.0030802674
-0.65061862
-0.0031268616
-0.69517447
-0.0028665573
-0.74283002
-0.0024628933
-0.79383483
-0.0020749117
-0.84838862
-0.0017350673
-0.90673597
-0.0014341985
-0.96915546
-0.0011552657
-1.035941
-0.00088627896
-1.1074017
-0.0006251736
-1.1838696
-0.00037940516
-1.2657018
-0.00016796393
-1.3532914
-0.0031803917
-0.43623481
-0.0041816225
-0.46603763
-0.0035591586
-0.49822175
-0.002863356
-0.532788
-0.0028263564
-0.56958246
-0.0031926156
-0.60870693
-0.0034070906
-0.65033839
-0.0031697315
-0.69487129
-0.0027250715
-0.74256784
-0.0023182544
-0.79359149
-0.0019775635
-0.84814613
-0.001673009
-0.90649716
-0.0013836784
-0.96892704
-0.0011004239
-1.0357269
-0.00082428549
-1.1072025
-0.00056172398
-1.1836873
-0.00032937416
-1.2655404
-0.00014290636
-1.3531485
-0.0033482207
-0.40800158
-0.0046271644
-0.43578927
-0.0036954486
-0.46590134
-0.0027009902
-0.49838411
-0.0026962841
-0.53291807
-0.0032859944
-0.56948908
-0.003724385
-0.60838964
-0.0035167735
-0.64999134
-0.0029961054
-0.69460026
-0.0025521186
-0.74233398
-0.002215751
-0.7933533
-0.0019157867
-0.84790335
-0.0016189728
-0.90626187
-0.0013197398
-0.96870773
-0.0010243669
-1.0355268
-0.00074277002
-1.1070215
-0.00048759692
-1.1835291
-0.00027980149
-1.2654035
-0.00012113101
-1.3530274
-0.0035069499
-0.38160058
-0.0052318957
-0.40739685
-0.0038740142
-0.4356107
-0.0024030624
-0.46619927
-0.0024282866
-0.49865211
-0.0033776278
-0.53282644
-0.0040911657
-0.5691223
-0.0039276502
-0.60797876
-0.0032822504
-0.6497052
-0.002770806
-0.69438157
-0.0024432221
-0.74210651
-0.0021605162
-0.79310857
-0.0018632719
-0.84765905
-0.0015482274
-0.90603338
-0.0012301916
-0.9685019
-0.0009249503
-1.0353446
-0.00064585435
-1.1068632
-0.00041256841
-1.1833963
-0.00023629243
-1.2652883
-0.00010402058
-1.3529234
-0.0037990548
-0.35679865
-0.0059684792
-0.38086399
-0.0040591581
-0.40721171
-0.0019429565
-0.43607081
-0.0019695584
-0.46665799
-0.0034487269
-0.49858101
-0.004540817
-0.53237679
-0.0044190283
-0.56863092
-0.0035940361
-0.60766698
-0.0029643808
-0.64951163
-0.0026488388
-0.69417596
-0.0024022762
-0.74186475
-0.002117937
-0.79285391
-0.001789837
-0.84741744
-0.0014459227
-0.90581765
-0.001112308
-0.96831454
-0.00080609731
-1.0351844
-0.0005446081
-1.1067312
-0.00034602543
-1.1832866
-0.00020150254
-1.2651909
-9.148254e-05
-1.3528319
-0.004014915
-0.33360945
-0.0069096383
-0.35585749
-0.0043483884
-0.38057476
-0.001255758
-0.40789891
-0.001269781
-0.43677058
-0.003501322
-0.4666054
-0.005126578
-0.49799525
-0.0050174317
-0.53177838
-0.0039187279
-0.56830623
-0.0031203058
-0.60751105
-0.0028153131
-0.64934515
-0.0026308301
-0.6939474
-0.00238305
-0.74159963
-0.0020492448
-0.7925945
-0.0016761104
-0.84718725
-0.0013084273
-0.90562153
-0.00097038674
-0.96815025
-0.00067849665
-1.0350505
-0.00045317098
-1.1066241
-0.00029262554
-1.1831955
-0.00017529706
-1.265107
-8.2514197e-05
-1.3527494
-0.0044846827
-0.31160413
-0.0079322069
-0.33258688
-0.0046592073
-0.35554667
-0.00035148088
-0.38147904
-0.00027571483
-0.40889297
-0.0035070557
-0.43676485
-0.0059126291
-0.46581935
-0.0057853277
-0.49722735
-0.0042641955
-0.53143292
-0.0032042041
-0.56822233
-0.0029071916
-0.60741917
-0.0028284256
-0.64914756
-0.0026565242
-0.69367393
-0.0023323674
-0.74131651
-0.0019267232
-0.79234389
-0.0015171208
-0.84697856
-0.0011410597
-0.90545086
-0.00081525181
-0.9680135
-0.00056075222
-1.0349429
-0.00037911423
-1.1065376
-0.00025209842
-1.1831187
-0.00015606945
-1.2650335
-7.5862619e-05
-1.3526735
-0.0051437093
-0.29085036
-0.0092604719
-0.31027587
-0.0051476033
-0.33209848
0.00093525189
-0.3568334
0.0010826064
-0.38283736
-0.0034827131
-0.40891732
-0.0069680187
-0.43570946
-0.0067872215
-0.46481745
-0.0046383433
-0.49685321
-0.0031781445
-0.53145898
-0.0028938556
-0.56823567
-0.0029649875
-0.60728261
-0.0029341151
-0.64886996
-0.0026479798
-0.69335831
-0.0022063502
-0.74103688
-0.0017430314
-0.79211798
-0.0013203189
-0.8467993
-0.00095620474
-0.9053099
-0.00066969274
-0.96790456
-0.00046391745
-1.0348581
-0.00032254523
-1.1064671
-0.00022163323
-1.1830531
-0.00014190191
-1.2649674
-7.0419273e-05
-1.3526031
-0.0058772496
-0.2719775
-0.0107318
-0.28937903
-0.0055662776
-0.30985719
0.0024232596
-0.33358649
0.0028680578
-0.35861886
-0.0033568675
-0.38296321
-0.0083744988
-0.40751084
-0.0081063653
-0.43439032
-0.0050562329
-0.46439956
-0.0029939544
-0.4970374
-0.0027190016
-0.53163383
-0.0030385696
-0.56816209
-0.0032126733
-0.60700405
-0.0030091836
-0.64850876
-0.0025286742
-0.69303599
-0.0019925716
-0.74078734
-0.0015099327
-0.79192836
-0.0011020297
-0.84665347
-0.00078110226
-0.9051985
-0.00054872402
-0.96781975
-0.00038870328
-1.0347919
-0.00027955224
-1.1064092
-0.00019828968
-1.1829967
-0.00013089257
-1.264907
-6.5313413e-05
-1.3525378
-0.0065785465
-0.25403164
-0.012453079
-0.27025622
-0.0059271583
-0.28901815
0.004498712
-0.31193265
0.0051007459
-0.33581918
-0.0032425317
-0.35873319
-0.010222542
-0.38111516
-0.0098162898
-0.40580091
-0.0055386708
-0.43390788
-0.0026043894
-0.46478913
-0.0023090326
-0.49744736
-0.0030422184
-0.53163018
-0.0035003341
-0.56787443
-0.0034396257
-0.60657361
-0.0029142722
-0.64812316
-0.0022754164
-0.69275315
-0.0017113227
-0.74058595
-0.001251959
-0.79177843
-0.0008953168
-0.84653926
-0.00063485889
-0.90511236
-0.0004532827
-0.96775517
-0.00033067242
-1.0347408
-0.00024569331
-1.1063618
-0.00017977351
-1.1829479
-0.00012102353
-1.2648513
-5.9906467e-05
-1.3524779
-0.0080941505
-0.23525536
-0.014195084
-0.25228964
-0.0065477102
-0.26963567
0.0069618638
-0.2914813
0.0077634836
-0.31459538
-0.0029190553
-0.33614265
-0.012631063
-0.35632467
-0.012034975
-0.37889648
-0.0061074386
-0.40523214
-0.0019464049
-0.43456586
-0.0015772022
-0.46552096
-0.0029134319
-0.49757615
-0.0038239968
-0.53130652
-0.0039620979
-0.56735195
-0.0033963624
-0.60609152
-0.0026057538
-0.64779282
-0.0019254244
-0.69253904
-0.0014031256
-0.74043479
-0.0010107424
-0.79166301
-0.00072314031
-0.84645098
-0.00051828566
-0.90504736
-0.00037801333
-0.96770783
-0.00028430713
-1.0347022
-0.00021754543
-1.106324
-0.00016367016
-1.1829052
-0.00011044565
-1.2648007
-5.3883212e-05
-1.352424
-0.0099420397
-0.21666822
-0.016447618
-0.23300282
-0.0073085525
-0.25152879
0.0099378166
-0.27261162
0.010920112
-0.29463793
-0.0027296245
-0.31478481
-0.01565573
-0.33311799
-0.014825524
-0.35353412
-0.0067976887
-0.37820623
-0.00095287504
-0.40622567
-0.00041531615
-0.43572775
-0.0025791472
-0.46585524
-0.0041984751
-0.49720167
-0.0046142283
-0.53065439
-0.0040049236
-0.56674339
-0.0030046897
-0.60569259
-0.0021536334
-0.64756462
-0.001549287
-0.69239288
-0.0011225249
-0.740323
-0.00081267236
-0.79157347
-0.00058559595
-0.84638367
-0.00042449904
-0.90500087
-0.00031647927
-0.96767566
-0.00024468849
-1.0346751
-0.00019239631
-1.1062953
-0.00014729726
-1.1828684
-9.8319924e-05
-1.2647563
-4.7404641e-05
-1.3523766
-0.011801696
-0.19976118
-0.018548499
-0.21456734
-0.0072198808
-0.23309149
0.013173164
-0.25476414
0.014747694
-0.27643921
-0.0026264387
-0.29474112
-0.019368748
-0.3110718
-0.018368083
-0.32957543
-0.0076126602
-0.35271915
0.00046865495
-0.37962776
0.0012924784
-0.40793347
-0.0019582285
-0.43634867
-0.0046303232
-0.4654234
-0.0054654618
-0.49635044
-0.004778942
-0.52988037
-0.003495071
-0.56625301
-0.0023953354
-0.60545088
-0.0016799803
-0.64743392
-0.0012210507
-0.69229436
-0.0008995874
-0.74023609
-0.00065610102
-0.79150297
-0.00047334466
-0.84633482
-0.00034591353
-0.90497144
-0.00026286271
-0.96765749
-0.00020839367
-1.0346591
-0.00016801052
-1.1062746
-0.00012919201
-1.1828375
-8.5168803e-05
-1.2647185
-4.1056859e-05
-1.3523355
-0.013672704
-0.18389783
-0.020457117
-0.19785256
-0.0060244677
-0.21576276
0.017614151
-0.23753248
0.01888207
-0.25889852
-0.0024554184
-0.27661023
-0.023963821
-0.29014604
-0.022629847
-0.30681003
-0.0086003979
-0.32858769
0.0024233017
-0.3546738
0.0036953348
-0.38203062
-0.00095973297
-0.40893196
-0.0051227082
-0.43585628
-0.0065966026
-0.46429226
-0.0058014625
-0.49532792
-0.0040981766
-0.52927727
-0.0026512707
-0.56599708
-0.0017772756
-0.60535359
-0.0012901334
-0.64736484
-0.00097552626
-0.69221842
-0.00072899831
-0.74016319
-0.00052771793
-0.7914486
-0.00037699516
-0.84630374
-0.00027607927
-0.90495822
-0.00021351346
-0.96765237
-0.00017371219
-1.0346534
-0.00014289192
-1.1062609
-0.0001093039
-1.1828133
-7.2493854e-05
-1.2646871
-3.54809e-05
-1.3523001
-0.017423929
-0.19877815
-0.022145928
-0.18220902
-0.0042864185
-0.19959061
0.022990863
-0.22113947
0.023447174
-0.24209758
-0.0012710254
-0.26008291
-0.029486638
-0.27108741
-0.027584054
-0.28519184
-0.0096559364
-0.30575449
0.005045672
-0.33121006
0.0069271325
-0.35790559
0.00052355418
-0.3835139
-0.0056802129
-0.40837446
-0.0081054877
-0.4343474
-0.007172825
-0.46292089
-0.0048593781
-0.49456672
-0.0029167013
-0.52901183
-0.0018164167
-0.56595794
-0.001304517
-0.60533921
-0.001025863
-0.6473145
-0.00080071268
-0.6921467
-0.00059069581
-0.74010021
-0.00041510923
-0.79141048
-0.00028949415
-0.84629033
-0.00021130348
-0.90496043
-0.00016617855
-0.9676599
-0.00013872437
-1.0346575
-0.00011581402
-1.1062544
-8.9514689e-05
-1.1827963
-6.1444432e-05
-1.2646611
-3.113133e-05
-1.3522689
-0.020704051
-0.1953067
-0.025637855
-0.19528622
-0.0020113766
-0.18448406
0.028492316
-0.20509206
0.027947275
-0.22563957
-0.00047735106
-0.24289126
-0.0351533
-0.25441625
-0.03351451
-0.26515695
-0.010770617
-0.28407716
0.0085046017
-0.30921342
0.01115645
-0.33543938
0.0025919733
-0.35997401
-0.0063050061
-0.38288911
-0.01010323
-0.40637672
-0.0090197914
-0.43250043
-0.0058411923
-0.46193908
-0.0031797326
-0.49430369
-0.0017645306
-0.52906372
-0.0012304871
-0.56603197
-0.0010282312
-0.60533684
-0.00086446633
-0.64725075
-0.0006656309
-0.69207177
-0.00046748445
-0.74004784
-0.0003100461
-0.79138993
-0.00020668991
-0.84629494
-0.00014811425
-0.9049785
-0.00011804783
-0.96768058
-0.0001021476
-1.0346712
-8.8519952e-05
-1.1062554
-7.2442363e-05
-1.1827853
-5.2792146e-05
-1.2646395
-2.8272901e-05
-1.3522407
-0.023484979
-0.19154794
-0.028645446
-0.19229911
-0.0011864504
-0.19611115
0.033918965
-0.18991071
0.031846707
-0.2089915
-0.0019234652
-0.22419345
-0.041655522
-0.23638904
-0.041277991
-0.24665277
-0.012256397
-0.26367117
0.012898647
-0.2884712
0.016493937
-0.31455091
0.0053773944
-0.3382248
-0.0070107867
-0.35926823
-0.012727351
-0.38026499
-0.011484321
-0.40391219
-0.0071218499
-0.43121978
-0.003431526
-0.46168729
-0.0015720032
-0.49449621
-0.0010148386
-0.52927937
-0.00095708915
-0.56610311
-0.00091128928
-0.60529002
-0.0007561296
-0.64716025
-0.00054360536
-0.69199565
-0.00034732912
-0.74001056
-0.000206829
-0.79138979
-0.00012376369
-0.84631929
-8.3411497e-05
-0.90501313
-6.9194263e-05
-0.96771353
-6.6497911e-05
-1.0346932
-6.4567592e-05
-1.1062632
-5.8930093e-05
-1.1827792
-4.707237e-05
-1.2646207
-2.698489e-05
-1.3522137
-0.025761781
-0.18774668
-0.03116038
-0.189033
0.00043005827
-0.19391562
0.037943841
-0.20013602
0.035198421
-0.19326242
-0.004543732
-0.20637123
-0.049763611
-0.21608536
-0.049740644
-0.22792639
-0.014785382
-0.24412378
0.018260926
-0.26903345
0.023058913
-0.29503618
0.0089326991
-0.31810622
-0.0077998829
-0.3374357
-0.016131208
-0.35586438
-0.014744438
-0.37700487
-0.0087904818
-0.40224355
-0.0036618945
-0.43098941
-0.0011734608
-0.46208583
-0.0005909565
-0.4949201
-0.0007609456
-0.52947551
-0.00092337797
-0.56609102
-0.00086415189
-0.60518199
-0.00065467126
-0.64704919
-0.00041394688
-0.69192903
-0.0002218961
-0.73999549
-9.9859053e-05
-0.7914137
-3.8192876e-05
-0.84636451
-1.8845166e-05
-0.90506348
-2.2966014e-05
-0.96775706
-3.4862922e-05
-1.0347229
-4.5608214e-05
-1.1062766
-4.970269e-05
-1.1827766
-4.4344518e-05
-1.2646033
-2.7121513e-05
-1.3521866
-0.02749672
-0.18400249
-0.033202277
-0.18570479
0.0026551803
-0.19125813
0.042632797
-0.19860457
0.037719878
-0.20265748
-0.0077175039
-0.19008865
-0.058145386
-0.19798945
-0.056913357
-0.20891265
-0.017313352
-0.22539841
0.02467674
-0.2505396
0.03086437
-0.27683891
0.013332898
-0.29943638
-0.0087310016
-0.3171751
-0.020496806
-0.33307011
-0.018978595
-0.35163022
-0.010954156
-0.3748412
-0.0038605359
-0.40204491
-0.00048938032
-0.43167349
0.00012687911
-0.46280366
-0.00037414906
-0.49530689
-0.00087942872
-0.52951946
-0.00098136571
-0.56597381
-0.00081366106
-0.605023
-0.00052663321
-0.6469365
-0.00026536148
-0.69188557
-8.5766059e-05
-0.74000958
1.2200847e-05
-0.79146409
4.727238e-05
-0.84643063
4.1981245e-05
-0.90512843
1.7772142e-05
-0.9678097
-9.782192e-06
-1.0347587
-3.261566e-05
-1.1062937
-4.5085913e-05
-1.1827758
-4.3953604e-05
-1.2645865
-2.855711e-05
-1.352158
-0.028661854
-0.18052248
-0.034727929
-0.18247684
0.0052693636
-0.18831897
0.047713919
-0.19633925
0.040841698
-0.20172639
-0.010969917
-0.19940507
-0.066416387
-0.18181765
-0.063206454
-0.19169636
-0.018186647
-0.20803936
0.032385311
-0.23310699
0.040166063
-0.25984129
0.018574848
-0.28208086
-0.0098905922
-0.29827679
-0.026038531
-0.31163337
-0.024401887
-0.32764681
-0.013717117
-0.34886726
-0.0040060205
-0.37469571
0.00057229252
-0.40310659
0.0012471637
-0.43279377
0.00028273608
-0.46346055
-0.00073535342
-0.49545097
-0.0011268259
-0.529374
-0.0010331135
-0.56575435
-0.00070787993
-0.60484176
-0.00035594553
-0.64684592
-9.3500477e-05
-0.69187783
6.1310309e-05
-0.74005869
0.00012552741
-0.79154235
0.00012752778
-0.84651617
9.5931752e-05
-0.90520659
5.1166915e-05
-0.96787065
7.1155476e-06
-1.0347985
-2.5925673e-05
-1.1063128
-4.4543223e-05
-1.1827752
-4.6702328e-05
-1.2645683
-3.1130635e-05
-1.3521269
-0.029257832
-0.1775094
-0.035723049
-0.17952736
0.0080953865
-0.18530286
0.052963989
-0.19356904
0.044336517
-0.19983407
-0.013860977
-0.19883533
-0.07505269
-0.19076877
-0.069011314
-0.17601279
-0.017966397
-0.19191661
0.041466408
-0.21712045
0.051367491
-0.24430841
0.025107842
-0.26637428
-0.011341666
-0.28062978
-0.033004549
-0.29131077
-0.03118095
-0.30485431
-0.017204736
-0.32415919
-0.0040710695
-0.34880221
0.0021261668
-0.37624959
0.002892951
-0.40475237
0.0013056987
-0.43381673
-0.00044184449
-0.46375406
-0.0013039415
-0.49527385
-0.0013425332
-0.52906458
-0.00098747401
-0.56547476
-0.00051889357
-0.60467881
-0.00014015852
-0.64679926
9.8558746e-05
-0.69191508
0.00021080359
-0.74014397
0.00023146863
-0.79164629
0.0001982724
-0.84661852
0.0001394012
-0.90529482
7.4336655e-05
-0.96793787
1.6861155e-05
-1.0348413
-2.5216981e-05
-1.1063321
-4.8696205e-05
-1.1827732
-5.1764668e-05
-1.2645477
-3.4546267e-05
-1.3520923
-0.029338976
-0.17514093
-0.036155392
-0.17707706
0.010907498
-0.18233947
0.058103407
-0.19044228
0.048139214
-0.19737174
-0.016426419
-0.19726862
-0.083336082
-0.19055194
-0.077314201
-0.18246588
-0.016726796
-0.17725239
0.051523562
-0.20197376
0.063614343
-0.22936731
0.033336355
-0.25253693
-0.012549547
-0.2651664
-0.041475896
-0.27215844
-0.039472573
-0.28301914
-0.021462103
-0.30059694
-0.004017257
-0.32421301
0.0042948495
-0.35097089
0.0052039668
-0.3785606
0.002812677
-0.40625935
6.3306499e-05
-0.43432188
-0.0015020558
-0.46355594
-0.0017898309
-0.49482655
-0.0013972114
-0.52865484
-0.00079116057
-0.56520249
-0.0002472084
-0.60457176
0.00011190948
-0.64681261
0.00029747955
-0.69200176
0.0003518667
-0.74026437
0.00032514239
-0.79177316
0.00025569029
-0.8467348
0.00017026667
-0.90539075
8.7243622e-05
-0.96800825
1.8354352e-05
-1.0348848
-3.0127039e-05
-1.1063507
-5.6256082e-05
-1.1827687
-5.8514624e-05
-1.2645237
-3.8496679e-05
-1.3520538
-0.028881847
-0.17353839
-0.036066232
-0.17523009
0.013591017
-0.17976057
0.06285191
-0.18708797
0.051973893
-0.19427696
-0.01855109
-0.19524706
-0.091092009
-0.1895127
-0.085335309
-0.18253083
-0.02033802
-0.17885466
0.062284872
-0.1880137
0.076107752
-0.21446717
0.041778707
-0.23780966
-0.013109795
-0.25197668
-0.051264457
-0.25537784
-0.04934006
-0.26229095
-0.026508841
-0.27797241
-0.0037627214
-0.30085148
0.0072283938
-0.32714655
0.0083313084
-0.35409823
0.004934627
-0.38068255
0.0008567304
-0.40705277
-0.0017115711
-0.43411237
-0.0024188048
-0.46292697
-0.0020026028
-0.49422116
-0.0012054152
-0.52824059
-0.00044718736
-0.56500251
8.6299391e-05
-0.60454615
0.00037943911
-0.64689457
0.0004869624
-0.69213685
0.00047664205
-0.74041587
0.00040134285
-0.79191881
0.0002970592
-0.8468616
0.00018806162
-0.90549157
9.0094856e-05
-0.96807999
1.2716112e-05
-1.0349277
-3.9991191e-05
-1.106367
-6.6434833e-05
-1.1827608
-6.6406798e-05
-1.2644958
-4.2690848e-05
-1.3520111
-0.17285236
-0.028005331
-0.035525565
-0.17407905
0.016059589
-0.17769867
0.066987423
-0.18389609
0.055656824
-0.1907709
-0.020309206
-0.19251885
-0.098228854
-0.18811022
-0.09286834
-0.18197967
-0.023583847
-0.179285
0.068940867
-0.18551065
0.088205859
-0.20011181
0.049801111
-0.22248958
-0.012662927
-0.23825653
-0.062534913
-0.24070622
-0.061168323
-0.24354958
-0.032475403
-0.25632439
-0.003180258
-0.27855487
0.011086067
-0.30470915
0.012437028
-0.33125227
0.0078157046
-0.35697931
0.0020311963
-0.38185702
-0.0019246005
-0.40683975
-0.0032804178
-0.43325076
-0.002883675
-0.4620459
-0.0018205186
-0.49360606
-0.00077383295
-0.52791394
1.9542379e-06
-0.56491817
0.00044841633
-0.60461513
0.00063553788
-0.64704314
0.0006540022
-0.69231421
0.00057804843
-0.74059257
0.00045671927
-0.79207847
0.00032167144
-0.84699521
0.00019311173
-0.90559459
8.3832549e-05
-0.96815111
7.3203112e-07
-1.0349684
-5.3612386e-05
-1.1063798
-7.8407577e-05
-1.1827488
-7.4785861e-05
-1.2644637
-4.6843696e-05
-1.3519643
-0.17366518
-0.034712747
-0.17329912
-0.02668009
0.017928884
-0.17594835
0.070395618
-0.18110686
0.05891811
-0.18715737
-0.021632691
-0.18944742
-0.1045263
-0.1862214
-0.099847322
-0.18113124
-0.026463489
-0.17910003
0.076140204
-0.18648434
0.099253494
-0.19655829
0.056803504
-0.2071142
-0.013611542
-0.22154096
-0.074767596
-0.22602384
-0.075418622
-0.22645592
-0.040138768
-0.23588621
-0.0021578245
-0.25734682
0.016033737
-0.28350254
0.017664975
-0.3099371
0.01160967
-0.33504624
0.0036920039
-0.35864012
-0.0021175663
-0.38166405
-0.0044359986
-0.40568416
-0.0041343716
-0.43200006
-0.0027241808
-0.46114223
-0.0012633843
-0.49311651
-0.00016862875
-0.52774336
0.00049865823
-0.56496841
0.00079816685
-0.60477776
0.000860201
-0.64724934
0.00078899652
-0.69252516
0.00065192266
-0.74078778
0.00049052209
-0.79224732
0.00033012367
-0.84713222
0.00018660057
-0.90569736
6.9609407e-05
-0.96821998
-1.6353235e-05
-1.0350057
-6.9821165e-05
-1.1063884
-9.1261694e-05
-1.1827323
-8.3208033e-05
-1.2644274
-5.0810008e-05
-1.3519135
-0.17491804
0.019181747
-0.17451989
-0.03349197
-0.17503578
-0.024937515
0.072787232
-0.17833996
0.061568109
-0.18375686
-0.022553732
-0.18623633
-0.10981254
-0.18416118
-0.10597083
-0.18009789
-0.029030871
-0.17856386
0.083767085
-0.18672691
0.11088143
-0.19811228
0.066846595
-0.20660138
-0.017047873
-0.20367787
-0.088122835
-0.20818572
-0.092027774
-0.20941469
-0.049829901
-0.21676479
-0.0010515124
-0.23699252
0.022273094
-0.26358618
0.02417052
-0.29000808
0.016451638
-0.31477907
0.0059662993
-0.33732053
-0.0022738773
-0.35848381
-0.0059594789
-0.38014057
-0.0058670344
-0.4039515
-0.0040193226
-0.43070492
-0.0019816565
-0.46042396
-0.00044556544
-0.49283957
0.00051774592
-0.52776245
0.0009775148
-0.56514776
0.0011021328
-0.60501969
0.0010400279
-0.64750038
0.00088687238
-0.69276011
0.00069768433
-0.74099494
0.00050379813
-0.792421
0.00032398098
-0.8472696
0.00017006127
-0.90579781
4.8746536e-05
-0.96828508
-3.7161583e-05
-1.0350383
-8.7552884e-05
-1.1063921
-0.00010433076
-1.1827112
-9.1359243e-05
-1.2643868
-5.4422456e-05
-1.3518591
-0.17642689
0.074296083
-0.17515037
0.019812226
-0.17654834
-0.03197941
-0.17750802
-0.022806703
0.063646536
-0.18041839
-0.023099937
-0.18321065
-0.11392585
-0.18212301
-0.11105949
-0.17907252
-0.031249869
-0.17787889
0.091510886
-0.18630766
0.12289753
-0.19874301
0.077601419
-0.2088671
-0.014372922
-0.20927633
-0.10192233
-0.18987838
-0.10787541
-0.19233808
-0.060413979
-0.19883061
-4.6185539e-05
-0.21777012
0.029950732
-0.24467016
0.03203995
-0.27145561
0.022490138
-0.29604658
0.0089705604
-0.31778333
-0.0023474676
-0.33724694
-0.0079356387
-0.35650765
-0.0082226309
-0.37778498
-0.0058257447
-0.40214508
-0.0030105832
-0.42967599
-0.00085324455
-0.46001628
0.0004969293
-0.49281875
0.0011810089
-0.52796594
0.0013893664
-0.56543499
0.0013402936
-0.60531995
0.001168049
-0.64778155
0.00094736917
-0.6930098
0.00071713823
-0.74120828
0.00049869685
-0.79259571
0.00030526146
-0.8474048
0.0001452461
-0.90589431
2.2984494e-05
-0.96834523
-6.020411e-05
-1.0350657
-0.00010580467
-1.1063906
-0.00011708474
-1.1826855
-9.8815059e-05
-1.2643424
-5.758893e-05
-1.3518015
-0.17782095
0.06504059
-0.17551949
0.074665201
-0.17647456
0.019738444
-0.17938762
-0.030099808
-0.18043291
-0.020440731
-0.022960781
-0.18055755
-0.116759
-0.18037751
-0.11494349
-0.17823902
-0.032972581
-0.17734981
0.099031073
-0.18539908
0.13484632
-0.19825644
0.0886985
-0.20984009
-0.010829685
-0.21241034
-0.11118213
-0.20001652
-0.12126276
-0.17649103
-0.070110983
-0.18264108
0.0009769358
-0.19985374
0.039093964
-0.22691335
0.04145211
-0.25408232
0.029795208
-0.27876068
0.012857525
-0.29993355
-0.0023101695
-0.31782062
-0.010457829
-0.33472475
-0.011361881
-0.3533684
-0.0082939764
-0.37531674
-0.0044408372
-0.40071483
-0.0014317562
-0.42909748
0.000441959
-0.45996131
0.0014189016
-0.49305665
0.001741086
-0.52831766
0.0017051351
-0.56579983
0.0015055798
-0.60565748
0.0012455879
-0.64807977
0.00097372734
-0.69326639
0.00071339265
-0.74142297
0.00047789288
-0.79276834
0.00027621055
-0.84753576
0.00011410137
-0.90598542
-5.8946292e-06
-0.96839954
-8.4220804e-05
-1.0350872
-0.00012380794
-1.1063839
-0.00012896523
-1.1826553
-0.00010549705
-1.2642945
-6.029798e-05
-1.3517412
-0.17854467
-0.022237055
-0.17606805
0.065589155
-0.17603673
0.07422737
-0.17871783
0.019068653
-0.18258975
-0.027942968
-0.18399606
-0.017915509
-0.11817941
-0.17913714
-0.11751146
-0.17780953
-0.034223994
-0.1769876
0.10607031
-0.18438904
0.14622354
-0.1967763
0.10004496
-0.20960291
-0.00747751
-0.21319226
-0.12009356
-0.20349892
-0.13605291
-0.18522638
-0.078554562
-0.16804745
0.0019376307
-0.18360177
0.049437075
-0.21019685
0.052440198
-0.23790144
0.038485569
-0.26277268
0.017730372
-0.28363353
-0.0020701943
-0.30017352
-0.013637927
-0.31464053
-0.015493057
-0.33059358
-0.011587798
-0.35007458
-0.0063797247
-0.37337786
-0.0022268812
-0.3999197
0.00035989119
-0.42901541
0.0017094335
-0.46025184
0.002183851
-0.49349941
0.0021570252
-0.52876955
0.001915341
-0.56620959
0.0016013602
-0.60601326
0.0012782772
-0.64838432
0.00097070366
-0.6935237
0.00069014685
-0.74163523
0.00044427735
-0.79293641
0.00023918747
-0.84766085
7.8666434e-05
-0.90606999
-3.6413307e-05
-0.96844735
-0.00010819909
-1.0351029
-0.0001409035
-1.106372
-0.00013976245
-1.1826211
-0.00011127842
-1.2642435
-6.2499837e-05
-1.3516787
-0.17867391
-0.11805017
-0.17750188
-0.020803231
-0.17591498
0.065467403
-0.17719476
0.072704299
-0.18148512
0.01796403
-0.18631871
-0.025620311
-0.18789848
-0.015389329
-0.11893329
-0.17771531
-0.035082422
-0.17695111
0.11232862
-0.18324592
0.1564624
-0.1946279
0.11107798
-0.20780932
-0.0036848509
-0.21339557
-0.12869708
-0.20458875
-0.1507988
-0.18875303
-0.09510111
-0.16867983
0.0028034148
-0.16891324
0.06040383
-0.19456853
0.064984895
-0.22274154
0.04851984
-0.24793571
0.023696396
-0.26873871
-0.0016242709
-0.28407945
-0.017586939
-0.29622451
-0.02082473
-0.30930885
-0.015915825
-0.32626555
-0.0089368507
-0.34751745
-0.0032816481
-0.37232309
0.00025519873
-0.39981501
0.0020871477
-0.42939313
0.0027514126
-0.46081941
0.00272804
-0.49407043
0.0024199157
-0.52927413
0.0020279738
-0.56663621
0.001637125
-0.6063721
0.0012734817
-0.6486871
0.00094362824
-0.69377718
0.00065124833
-0.7418422
0.00040077829
-0.793098
0.00019656124
-0.84777875
4.0822244e-05
-0.90614722
-6.724533e-05
-0.9684883
-0.00013135545
-1.0351124
-0.00015667911
-1.106355
-0.00014928135
-1.1825831
-0.00011606078
-1.26419
-6.4243058e-05
-1.3516144
-0.17875618
-0.11885102
-0.17954304
-0.116009
-0.17750249
-0.019215717
-0.17636934
0.064641981
-0.179002
0.070221177
-0.1847243
0.016369614
-0.19022647
-0.023292325
-0.1918607
-0.013044669
-0.035052334
-0.1777454
0.1174518
-0.18207429
0.16516307
-0.19194658
0.12133113
-0.20488105
5.3831667e-05
-0.211548
-0.13697806
-0.20511458
-0.16457858
-0.19080896
-0.11136823
-0.17248591
-0.0081768273
-0.15769959
0.072077641
-0.18058705
0.078730964
-0.2083146
0.059930129
-0.23415183
0.030665342
-0.25490465
-0.00091530078
-0.26944768
-0.022449534
-0.27921685
-0.027626983
-0.28942226
-0.021465654
-0.30375902
-0.01223154
-0.32297086
-0.0046365222
-0.34616258
0.00014409865
-0.37221199
0.0025946739
-0.40032254
0.0034891182
-0.43013083
0.003463359
-0.46155473
0.0030515532
-0.49470206
0.0025450446
-0.5297912
0.0020596524
-0.56705873
0.0016250281
-0.60672365
0.0012392499
-0.64898272
0.00089781133
-0.69402374
0.00060041719
-0.74204184
0.00035022099
-0.79325166
0.00015054546
-0.84788847
2.1365145e-06
-0.9062166
-9.7467865e-05
-0.96852219
-0.00015312971
-1.035116
-0.00017093349
-1.1063334
-0.00015739144
-1.1825417
-0.00011997913
-1.2641342
-6.5543321e-05
-1.3515489
-0.17977667
-0.034031851
-0.18140678
-0.11698729
-0.18098284
-0.11252866
-0.17853021
-0.017054841
-0.17744394
0.063083922
-0.18130914
0.066806019
-0.18815869
0.014301836
-0.19403006
-0.021122959
-0.19572937
-0.011072747
0.12148127
-0.18177487
0.17216355
-0.18907476
0.13024082
-0.20085628
0.00378208
-0.2086093
-0.14466882
-0.20385724
-0.17773254
-0.19196061
-0.12715408
-0.17502311
-0.019870056
-0.16079268
0.075564867
-0.16118681
0.093576996
-0.19543308
0.072668145
-0.22105261
0.038795159
-0.24228165
-6.6896754e-05
-0.25575306