/*--------------------------------*- C++ -*----------------------------------*\
| =========                 |                                                 |
| \\      /  F ield         | OpenFOAM: The Open Source CFD Toolbox           |
|  \\    /   O peration     | Version:  5.0                                   |
|   \\  /    A nd           | Web:      www.OpenFOAM.org                      |
|    \\/     M anipulation  |                                                 |
\*---------------------------------------------------------------------------*/
FoamFile
{
    version     2.0;
    format      ascii;
    class       surfaceScalarField;
    location    "240";
    object      phi_0;
}
// * * * * * * * * * * * * * * * * * * * * * * * * * * * * * * * * * * * * * //

dimensions      [0 3 -1 0 0 0 0];

internalField   nonuniform List<scalar> 
18820
(
-0.00039672329
-1.3579493
-0.00076603
-1.2699461
-0.00037817458
-1.3575711
-0.0011076635
-1.1877372
-0.00073162939
-1.2695927
-0.00036196038
-1.3572092
-0.0014210039
-1.1109153
-0.0010603792
-1.1874085
-0.00070020563
-1.2692544
-0.00035506034
-1.3568541
-0.0017054768
-1.0391135
-0.0013642582
-1.1106114
-0.0010153671
-1.1870933
-0.00068639334
-1.2689231
-0.00035541474
-1.3564987
-0.0019608556
-0.97198498
-0.0016427123
-1.0388351
-0.0013084435
-1.1103183
-0.00099563338
-1.1867841
-0.00068723683
-1.2685913
-0.0003552296
-1.3561435
-0.0021866993
-0.90921415
-0.0018952695
-0.97173242
-0.001579682
-1.0385638
-0.0012847162
-1.1100292
-0.00099785455
-1.1864735
-0.00068860706
-1.2682579
-0.00034576191
-1.3557977
-0.0023820443
-0.85051057
-0.002121935
-0.90898749
-0.0018282882
-0.97148382
-0.0015549603
-1.0382936
-0.0012890593
-1.109738
-0.0010031059
-1.186159
-0.00067278874
-1.2679309
-0.00032679488
-1.3554709
-0.0025453755
-0.79560617
-0.0023233821
-0.85030912
-0.002053907
-0.90876187
-0.0018062593
-0.97123252
-0.0015624419
-1.0380202
-0.001300082
-1.109441
-0.00098436886
-1.1858474
-0.00063794757
-1.2676197
-0.00030331331
-1.3551676
-0.0026750072
-0.74425057
-0.0025017305
-0.79542782
-0.0022573308
-0.8501057
-0.0020383449
-0.90852978
-0.0018189915
-0.97097597
-0.0015811206
-1.0377392
-0.0012817768
-1.1091436
-0.00093708146
-1.1855482
-0.00059291985
-1.2673301
-0.00028180791
-1.3548858
-0.00277099
-0.69621564
-0.0026604665
-0.74409183
-0.0024419095
-0.79524324
-0.0022511007
-0.84989294
-0.0020589937
-0.90828978
-0.0018483145
-0.97070877
-0.0015661952
-1.0374548
-0.0012266069
-1.1088541
-0.00087261757
-1.1852685
-0.00055073173
-1.2670612
-0.00026593128
-1.3546199
-0.002833696
-0.65128703
-0.0028047782
-0.69607132
-0.0026151585
-0.74391858
-0.0024444579
-0.79504988
-0.0022818306
-0.8496701
-0.0021027822
-0.90803531
-0.0018398447
-0.97043513
-0.0015076968
-1.0371737
-0.0011461051
-1.1085806
-0.00081104193
-1.1850082
-0.00051899456
-1.2668081
-0.00025504706
-1.3543648
-0.0028809042
-0.60923916
-0.0029590642
-0.65113275
-0.002791793
-0.69589469
-0.0026192052
-0.74374384
-0.0024850064
-0.79484671
-0.0023439701
-0.84942891
-0.0021045136
-0.90777064
-0.0017818409
-0.97016098
-0.0014154877
-1.0369043
-0.0010667423
-1.1083249
-0.00076437227
-1.1847629
-0.00049715321
-1.266566
-0.00024552456
-1.3541193
-0.0029160349
-0.56988565
-0.0031424696
-0.60905576
-0.0029832104
-0.65094133
-0.0027751414
-0.69573875
-0.0026618096
-0.74356703
-0.0025682294
-0.79462245
-0.0023616966
-0.84917173
-0.0020508182
-0.90750167
-0.0016811278
-0.96989534
-0.0013207674
-1.0366503
-0.001006175
-1.1080831
-0.00073199341
-1.184528
-0.00047866533
-1.2663329
-0.00023330731
-1.353886
-0.0029508404
-0.53306577
-0.0033382819
-0.56968984
-0.0031639712
-0.60887499
-0.0028897149
-0.65082676
-0.0027948679
-0.69560569
-0.0027678644
-0.7433674
-0.0026133981
-0.79437075
-0.0023171764
-0.84890537
-0.0019434487
-0.90723935
-0.0015736353
-0.96964247
-0.001247299
-1.0364091
-0.00096386351
-1.1078512
-0.00070467019
-1.184302
-0.00045560602
-1.2661106
-0.00021595848
-1.35367
-0.0029930622
-0.49861851
-0.0035633938
-0.53284066
-0.0033155125
-0.5695383
-0.0029411457
-0.60882356
-0.0028638367
-0.65075779
-0.0029349622
-0.6954386
-0.0028634991
-0.7431173
-0.0025859192
-0.794102
-0.0022034516
-0.84864537
-0.0018249221
-0.90698806
-0.0014891071
-0.96940066
-0.0011957732
-1.0361772
-0.00092779219
-1.1076281
-0.00067125915
-1.1840864
-0.0004226902
-1.2659038
-0.00019349374
-1.3534765
-0.0030610846
-0.46639056
-0.0038274961
-0.49835441
-0.0034434619
-0.53271271
-0.0029453967
-0.56953405
-0.0028669703
-0.60882043
-0.0030683716
-0.65062438
-0.0031195713
-0.69518252
-0.0028656131
-0.7428376
-0.0024633073
-0.79384215
-0.0020735262
-0.84839676
-0.0017317113
-0.90674545
-0.0014300486
-0.96916639
-0.0011515796
-1.0359534
-0.00088380967
-1.1074156
-0.00062412967
-1.1838849
-0.00037934089
-1.265718
-0.0001681089
-1.3533084
-0.0031381334
-0.43624591
-0.0041727671
-0.46604528
-0.0035762218
-0.49822165
-0.0028745593
-0.53278355
-0.0028181568
-0.56958286
-0.0031756771
-0.60871312
-0.00339631
-0.65034764
-0.0031690294
-0.69487911
-0.0027265533
-0.74257436
-0.0023170414
-0.79359863
-0.0019737095
-0.84815477
-0.0016681517
-0.90650735
-0.0013792665
-0.9689387
-0.0010973193
-1.0357399
-0.00082274019
-1.107217
-0.00056151698
-1.1837027
-0.00032962665
-1.2655565
-0.00014305079
-1.3531654
-0.0032919873
-0.40801752
-0.00461931
-0.43579937
-0.0037223442
-0.46589916
-0.002720864
-0.49837535
-0.0026838432
-0.53291786
-0.0032624213
-0.56949612
-0.0037085303
-0.6084009
-0.0035167223
-0.64999995
-0.0029996329
-0.69460603
-0.0025514582
-0.74233994
-0.0022113431
-0.793361
-0.0019101084
-0.84791281
-0.001613767
-0.90627285
-0.0013159631
-0.96872006
-0.001022303
-1.0355404
-0.00074227504
-1.1070362
-0.00048793752
-1.1835444
-0.0002800654
-1.2654195
-0.00012116092
-1.3530442
-0.0034349415
-0.38161953
-0.0052268023
-0.40741003
-0.0039157203
-0.43560599
-0.0024349805
-0.46618505
-0.0024093488
-0.49864984
-0.0033448862
-0.5328354
-0.0040683525
-0.56913629
-0.0039287846
-0.60798884
-0.0032893728
-0.64971021
-0.0027714304
-0.69438606
-0.0024382114
-0.74211307
-0.0021538199
-0.79311729
-0.001857137
-0.84766944
-0.0015437272
-0.90604508
-0.001227586
-0.96851477
-0.0009240824
-1.0353586
-0.00064619241
-1.1068779
-0.00041296082
-1.1834115
-0.00023634879
-1.2653043
-0.00010389709
-1.3529403
-0.0037058517
-0.35682426
-0.0059665102
-0.38087982
-0.0041231272
-0.40720262
-0.0019918503
-0.43604912
-0.0019415088
-0.46665289
-0.0034017638
-0.49859296
-0.0045086643
-0.53239508
-0.004422602
-0.56864248
-0.0036069007
-0.60767131
-0.0029674929
-0.64951414
-0.0026432434
-0.69418102
-0.0023942652
-0.74187263
-0.0021106131
-0.79286381
-0.001784522
-0.84742864
-0.0014427763
-0.90582989
-0.0011110749
-0.96832778
-0.00080630176
-1.0351984
-0.00054511428
-1.1067458
-0.0003460931
-1.1833018
-0.00020128235
-1.2652069
-9.1234686e-05
-1.3528491
-0.0038994246
-0.33363677
-0.0069129109
-0.35587786
-0.0044406215
-0.38056233
-0.001326922
-0.40786755
-0.0012291749
-0.43676145
-0.0034326416
-0.46662201
-0.0050823817
-0.49801925
-0.0050254481
-0.53179224
-0.0039406179
-0.56830876
-0.00312817
-0.60751064
-0.0028093054
-0.64934808
-0.0026210885
-0.6939542
-0.0023740629
-0.74160918
-0.0020429335
-0.7926054
-0.0016724428
-0.84719898
-0.0013068833
-0.90563409
-0.00097042345
-0.96816366
-0.00067905097
-1.0350645
-0.0004532498
-1.1066386
-0.00029225457
-1.1832108
-0.00017484811
-1.2651233
-8.2207546e-05
-1.3527669
-0.0043390392
-0.31164256
-0.0079396535
-0.33261003
-0.0047912247
-0.35552725
-0.00045234147
-0.38143691
-0.00021770451
-0.40887902
-0.0034066694
-0.43678743
-0.0058523037
-0.46585209
-0.0058000083
-0.49724469
-0.0043003802
-0.53143248
-0.0032192956
-0.56821763
-0.0029014104
-0.60741853
-0.0028163828
-0.64915279
-0.0026449991
-0.69368326
-0.0023246931
-0.74132742
-0.0019225684
-0.79235527
-0.0015153928
-0.84699047
-0.0011409793
-0.90546353
-0.00081581506
-0.96802689
-0.00056080331
-1.034957
-0.00037856905
-1.1065523
-0.0002513862
-1.1831343
-0.0001554887
-1.26505
-7.5569691e-05
-1.3526913
-0.0049710144
-0.29089502
-0.0092784404
-0.31030378
-0.0053243554
-0.3320769
0.00079658608
-0.35677618
0.0011623787
-0.38281699
-0.0033373401
-0.40894835
-0.0068858253
-0.43575391
-0.0068124662
-0.46483963
-0.0046952788
-0.49684979
-0.0032041269
-0.53144764
-0.0028881891
-0.56823085
-0.0029493027
-0.60728561
-0.0029184732
-0.64887931
-0.0026382082
-0.69336975
-0.0022017412
-0.74104824
-0.0017413664
-0.7921293
-0.0013202838
-0.84681116
-0.00095677705
-0.90532257
-0.00066964614
-0.96791805
-0.00046317999
-1.0348723
-0.00032150239
-1.1064822
-0.0002207492
-1.183069
-0.00014129902
-1.2649843
-7.0206086e-05
-1.3526211
-0.0056678932
-0.27202915
-0.010767219
-0.28940625
-0.0058070558
-0.30982108
0.0022359244
-0.33351624
0.0029781381
-0.35859194
-0.0031504506
-0.38300388
-0.0082641249
-0.40757005
-0.0081474099
-0.43441896
-0.0051429871
-0.46439192
-0.0030367306
-0.49701718
-0.0027123337
-0.5316235
-0.003017007
-0.56816315
-0.0031901091
-0.60701398
-0.0029959689
-0.64852155
-0.0025236232
-0.69304787
-0.0019914111
-0.7407982
-0.0015102787
-0.79193931
-0.0011026729
-0.84666527
-0.00078089882
-0.90521132
-0.00054770108
-0.96783353
-0.00038730768
-1.0348065
-0.0002782695
-1.1064247
-0.00019738126
-1.1830129
-0.000130398
-1.2649241
-6.5237576e-05
-1.3525559
-0.0063309325
-0.25408871
-0.012503672
-0.27029269
-0.0062419802
-0.28897132
0.0042620273
-0.31184718
0.0052446145
-0.33578271
-0.0029538069
-0.35878858
-0.010075048
-0.38119296
-0.0098800192
-0.40583744
-0.0056668527
-0.4338951
-0.0026713994
-0.46475725
-0.0023009416
-0.49742858
-0.0030102193
-0.53163029
-0.0034674451
-0.56788581
-0.0034207433
-0.6065892
-0.0029087545
-0.64813642
-0.0022755439
-0.69276373
-0.0017126486
-0.74059583
-0.0012528441
-0.79178913
-0.00089491279
-0.84655125
-0.0006334363
-0.90512558
-0.00045145084
-0.96776939
-0.00032892583
-1.0347559
-0.00024441491
-1.1063776
-0.00017899252
-1.1829643
-0.00012078979
-1.2648685
-6.001154e-05
-1.3524959
-0.0078069906
-0.23533744
-0.014261817
-0.25233056
-0.0069552117
-0.26957946
0.0066705923
-0.29137989
0.0079518506
-0.31455442
-0.0025255796
-0.33621094
-0.012439
-0.35642463
-0.012129416
-0.37894356
-0.0062912484
-0.40521304
-0.0020476818
-0.43451881
-0.0015677903
-0.4654904
-0.0028642067
-0.49757459
-0.0037768347
-0.5313209
-0.003934763
-0.56737179
-0.0033904244
-0.60610753
-0.0026084761
-0.64780349
-0.0019287274
-0.69254766
-0.0014046205
-0.74044405
-0.0010101267
-0.79167392
-0.00072117898
-0.84646351
-0.00051588187
-0.90506115
-0.00037574061
-0.96772257
-0.00028255863
-1.0347177
-0.00021648057
-1.1063402
-0.00016323156
-1.1829219
-0.00011059201
-1.2648179
-5.4182403e-05
-1.3524417
-0.0096370516
-0.21674887
-0.016560621
-0.23303863
-0.0078194405
-0.25146633
0.0095837122
-0.27249258
0.011163621
-0.29459166
-0.0022060021
-0.31487399
-0.01540521
-0.33324473
-0.014961231
-0.35359281
-0.0070554113
-0.3781794
-0.0011010479
-0.40615968
-0.00040500115
-0.4356816
-0.002504016
-0.46585059
-0.0041302363
-0.49722119
-0.0045753368
-0.53068032
-0.0039986767
-0.56676354
-0.0030121451
-0.60570386
-0.0021605261
-0.64757169
-0.0015520803
-0.6924002
-0.0011217513
-0.74033243
-0.00080999439
-0.79158511
-0.00058242704
-0.84639697
-0.00042157226
-0.90501532
-0.00031419303
-0.96769094
-0.00024325579
-1.034691
-0.00019176427
-1.1063116
-0.00014738253
-1.1828851
-9.8867693e-05
-1.2647733
-4.7869572e-05
-1.3523938
-0.011488625
-0.19983499
-0.018729699
-0.21457979
-0.0078706136
-0.23298746
0.012753123
-0.25463574
0.015051036
-0.27638
-0.0019436802
-0.29485398
-0.019051595
-0.31122761
-0.018556453
-0.32964951
-0.0079657049
-0.35268252
0.0002572359
-0.37953769
0.0013028739
-0.40786755
-0.0018462951
-0.43633932
-0.0045304261
-0.4654504
-0.0054103611
-0.49638616
-0.0047727849
-0.52990622
-0.0035100744
-0.56626561
-0.0024084756
-0.60545591
-0.0016852655
-0.64743851
-0.0012202879
-0.69230166
-0.00089594425
-0.74024648
-0.00065188118
-0.79151565
-0.000469565
-0.84634897
-0.00034297035
-0.90498654
-0.00026095071
-0.96767324
-0.00020749341
-1.0346752
-0.000167966
-1.106291
-0.0001298553
-1.1828541
-8.6040354e-05
-1.2647351
-4.1633642e-05
-1.3523522
-0.013361169
-0.18396591
-0.020708416
-0.19785628
-0.0068276262
-0.21562278
0.017152016
-0.23738635
0.019242887
-0.25882759
-0.0015819395
-0.27674174
-0.023575985
-0.29032959
-0.022887566
-0.30689649
-0.0090763082
-0.32853891
0.0021290635
-0.35455435
0.0037050355
-0.38193985
-0.00079757179
-0.40891628
-0.004976286
-0.43589346
-0.0065184984
-0.46434227
-0.0057962937
-0.49536266
-0.0041246188
-0.52929167
-0.0026746789
-0.56599941
-0.0017869195
-0.60535426
-0.001289727
-0.64736907
-0.00097056204
-0.69222704
-0.00072328609
-0.74017507
-0.00052277275
-0.79146244
-0.00037321269
-0.84631873
-0.00027355101
-0.90497394
-0.00021220298
-0.96766853
-0.0001734876
-1.0346697
-0.00014354166
-1.1062774
-0.00011049094
-1.1828297
-7.3577988e-05
-1.2647031
-3.6115632e-05
-1.352316
-0.01711889
-0.19885456
-0.022474973
-0.18219935
-0.0052526254
-0.19943128
0.022514629
-0.22098539
0.023874309
-0.24201777
-0.00020556853
-0.26020396
-0.029015685
-0.27130204
-0.027927737
-0.28528942
-0.010284473
-0.30568833
0.0046453989
-0.33105524
0.006935697
-0.35778501
0.00075240856
-0.38348983
-0.0054676628
-0.4084249
-0.0079947136
-0.43441725
-0.0071699753
-0.46296859
-0.0049035676
-0.49458371
-0.0029557174
-0.52901063
-0.001833259
-0.56595307
-0.0013049995
-0.60533899
-0.001019023
-0.6473206
-0.00079278926
-0.69215754
-0.00058405691
-0.74011379
-0.0004101784
-0.79142548
-0.00028617456
-0.84630611
-0.0002094671
-0.90497668
-0.00016569184
-0.96767633
-0.00013932751
-1.0346739
-0.00011717081
-1.1062707
-9.1048214e-05
-1.1828122
-6.2647474e-05
-1.2646766
-3.1778196e-05
-1.3522843
-0.020409806
-0.19538436
-0.026047995
-0.19528154
-0.0031274286
-0.18432455
0.028035876
-0.20495253
0.028481966
-0.22559305
0.00083636242
-0.2430597
-0.034547149
-0.2546725
-0.033951085
-0.26527869
-0.011584295
-0.28398959
0.0079741312
-0.30901706
0.011163516
-0.33528306
0.0029074528
-0.35994005
-0.0060010797
-0.38295641
-0.0099469685
-0.40647265
-0.0090210692
-0.43256616
-0.0059122253
-0.46195993
-0.0032420034
-0.49429742
-0.0017928172
-0.52905108
-0.001232263
-0.56602581
-0.0010185147
-0.6053395
-0.00085306551
-0.64726033
-0.00065633876
-0.69208526
-0.00046087547
-0.74006309
-0.00030569894
-0.79140595
-0.00020422162
-0.84631135
-0.00014728974
-0.90499508
-0.00011854818
-0.96769711
-0.00010357969
-1.0346875
-9.0395733e-05
-1.1062713
-7.4165321e-05
-1.1828007
-5.4026296e-05
-1.2646544
-2.8895712e-05
-1.3522554
-0.023204609
-0.19162386
-0.02913982
-0.19229254
-0.0024675306
-0.19594144
0.033499214
-0.18978789
0.032516728
-0.20898729
-0.00030544902
-0.22445124
-0.040912956
-0.2366939
-0.041790971
-0.24683261
-0.013297979
-0.26356501
0.012214953
-0.28823042
0.016502242
-0.31435579
0.0058028299
-0.33817844
-0.0065842649
-0.35935687
-0.012508585
-0.38039479
-0.011492074
-0.40400164
-0.0072322342
-0.43124615
-0.0035280129
-0.46167392
-0.0016173925
-0.49447284
-0.0010191145
-0.52926422
-0.00094301342
-0.56610131
-0.00089430421
-0.60529826
-0.00074272448
-0.64717394
-0.00053454615
-0.69201159
-0.00034163905
-0.74002715
-0.00020362018
-0.79140655
-0.00012254948
-0.84633609
-8.375826e-05
-0.90502987
-7.0624368e-05
-0.96773006
-6.857312e-05
-1.0347093
-6.6725954e-05
-1.1062788
-6.0724154e-05
-1.182794
-4.8269702e-05
-1.264635
-2.7560631e-05
-1.3522278
-0.025496738
-0.18781906
-0.031738649
-0.18902503
-0.0010218397
-0.19373823
0.037555236
-0.19999746
0.036001424
-0.19327258
-0.002636929
-0.20665581
-0.048969172
-0.21639502
-0.050367335
-0.22811753
-0.016123241
-0.24400735
0.01739532
-0.26874537
0.023071433
-0.29479961
0.0094951045
-0.31804806
-0.0072121455
-0.33755056
-0.015829205
-0.35603625
-0.014761673
-0.37712519
-0.0089565055
-0.40227737
-0.0038077046
-0.43096645
-0.0012435084
-0.4620478
-0.00059958711
-0.49489237
-0.00074031036
-0.52946693
-0.0008985606
-0.56609705
-0.00084489245
-0.60519609
-0.00064208344
-0.64706641
-0.00040650352
-0.69194672
-0.00021785351
-0.74001292
-9.8246327e-05
-0.79143086
-3.8357925e-05
-0.84638149
-2.0243462e-05
-0.90508025
-2.512215e-05
-0.96777352
-3.7325858e-05
-1.0347387
-4.7882281e-05
-1.1062916
-5.1459126e-05
-1.1827908
-4.5477446e-05
-1.2646171
-2.7645522e-05
-1.3522002
-0.027247575
-0.18406774
-0.033860009
-0.1856977
0.0010322736
-0.19107914
0.042279466
-0.19846246
0.038631935
-0.20262797
-0.0055309382
-0.19037858
-0.05736268
-0.1982623
-0.057709108
-0.20905325
-0.018984699
-0.22525608
0.023587744
-0.25019978
0.030887138
-0.27656108
0.014063117
-0.29936762
-0.0079359281
-0.31732428
-0.020085726
-0.33329404
-0.019009666
-0.35178826
-0.011197227
-0.37488447
-0.0040754728
-0.4020096
-0.00059412493
-0.43161584
0.00011163444
-0.46275902
-0.00034442574
-0.49528826
-0.00084247953
-0.52952301
-0.00095378091
-0.56598816
-0.00079586703
-0.60504231
-0.00051681556
-0.64695609
-0.0002604188
-0.69190416
-8.3840795e-05
-0.74002733
1.2166628e-05
-0.79148138
4.5901491e-05
-0.84644764
3.9719425e-05
-0.90514509
1.5042021e-05
-0.96782588
-1.2374655e-05
-1.0347742
-3.4873929e-05
-1.1063082
-4.673907e-05
-1.1827895
-4.5019239e-05
-1.2645997
-2.9025501e-05
-1.3521711
-0.028427543
-0.18057782
-0.035457555
-0.18247019
0.0034791228
-0.18814455
0.047400001
-0.19619968
0.041868471
-0.20169899
-0.0084923687
-0.19966654
-0.065669105
-0.18207215
-0.064167142
-0.19180427
-0.020192702
-0.20784525
0.031046269
-0.2327146
0.040194639
-0.25950728
0.019503973
-0.28200193
-0.0088329718
-0.29847058
-0.025489947
-0.31192006
-0.024452512
-0.32785119
-0.014063595
-0.34892189
-0.0043156541
-0.37464429
0.00041993353
-0.40302366
0.0012226993
-0.4327269
0.00032500785
-0.46342846
-0.00068003191
-0.49545071
-0.0010865537
-0.52939024
-0.0010072019
-0.56577683
-0.00069464478
-0.60486448
-0.00035003726
-0.64686648
-9.1478723e-05
-0.69189652
6.117694e-05
-0.74007634
0.0001240932
-0.79155957
0.0001252205
-0.84653314
9.310398e-05
-0.90522315
4.8258831e-05
-0.96788652
4.406367e-06
-1.0348135
-2.8063012e-05
-1.1063269
-4.6080796e-05
-1.1827885
-4.7634855e-05
-1.2645811
-3.1544789e-05
-1.3521396
-0.029036808
-0.17755244
-0.036513318
-0.17952205
0.0061489052
-0.18513997
0.052689258
-0.19343381
0.045479113
-0.19981032
-0.011092218
-0.19909914
-0.074285951
-0.19104969
-0.070148458
-0.17609083
-0.02031679
-0.19168018
0.039872495
-0.21667147
0.051377507
-0.24389747
0.026254946
-0.26625825
-0.0099666082
-0.2808683
-0.032289224
-0.2916713
-0.03126239
-0.30511018
-0.017687431
-0.32422735
-0.0045072106
-0.34873033
0.0019104621
-0.37613482
0.0028558204
-0.40465678
0.0013650034
-0.4337669
-0.00036031116
-0.46374818
-0.0012435943
-0.49529367
-0.0013052458
-0.52909219
-0.0009689832
-0.56550249
-0.00051197984
-0.60470253
-0.00013850164
-0.64681945
9.7872096e-05
-0.69193321
0.00020903167
-0.74016127
0.00022901002
-0.79166336
0.00019534268
-0.84663538
0.00013630671
-0.9053112
7.1382963e-05
-0.96795349
1.4306969e-05
-1.0348559
-2.718857e-05
-1.1063458
-5.0064737e-05
-1.182786
-5.2590095e-05
-1.26456
-3.4916821e-05
-1.3521047
-0.029129656
-0.17517193
-0.036994303
-0.17707145
0.0088229708
-0.18219612
0.057866495
-0.19031721
0.049393853
-0.19734855
-0.013372631
-0.19752991
-0.082546336
-0.19083876
-0.078543615
-0.18265454
-0.019425357
-0.17698227
0.049686568
-0.20149425
0.063661467
-0.22895543
0.034722398
-0.25236492
-0.01079792
-0.26542694
-0.040569777
-0.27258774
-0.039603173
-0.28333052
-0.022119595
-0.30067802
-0.0046193629
-0.3241152
0.0039972526
-0.35081712
0.0051502591
-0.37842926
0.0028945737
-0.40618635
0.00018110952
-0.43430832
-0.001411492
-0.46358028
-0.0017360967
-0.49486281
-0.001371492
-0.52868968
-0.00078308537
-0.56523139
-0.00024674109
-0.60459429
0.00010982076
-0.6468314
0.00029479982
-0.69201898
0.00034901191
-0.74028128
0.00032206651
-0.79179009
0.00025247849
-0.84675155
0.00016712313
-0.90540694
8.4379245e-05
-0.96802356
1.5966774e-05
-1.0348991
-3.1917445e-05
-1.1063639
-5.7484635e-05
-1.1827812
-5.9253771e-05
-1.2645357
-3.8838515e-05
-1.3520658
-0.028680037
-0.17355625
-0.036943249
-0.17522298
0.011394003
-0.17964248
0.062648013
-0.18697764
0.05333449
-0.19425785
-0.015222614
-0.19549856
-0.090282653
-0.18979359
-0.086655383
-0.18272699
-0.023377579
-0.17870232
0.060226855
-0.18752255
0.076245013
-0.2140778
0.04340238
-0.23763542
-0.010907899
-0.25225494
-0.050121961
-0.25587475
-0.049532141
-0.26265878
-0.0273865
-0.27806361
-0.0045765802
-0.3007208
0.0068279104
-0.32694586
0.0082565514
-0.35392341
0.0050456563
-0.38058034
0.0010241557
-0.4070294
-0.0015774527
-0.43414236
-0.0023405663
-0.46297581
-0.0019672561
-0.49426705
-0.0011959496
-0.52827682
-0.00044932049
-0.56502881
8.1471732e-05
-0.60456595
0.0003748563
-0.64691146
0.00048319362
-0.69215316
0.00047327007
-0.74043248
0.00039806403
-0.79193567
0.00029383315
-0.84687826
0.00018501001
-0.90550757
8.7399407e-05
-0.968095
1.0517576e-05
-1.0349415
-4.1610384e-05
-1.1063798
-6.7544621e-05
-1.1827729
-6.7090345e-05
-1.2645075
-4.3022064e-05
-1.3520228
-0.1728574
-0.027803999
-0.03642386
-0.17407564
0.013777421
-0.1776064
0.066813025
-0.1838075
0.057111963
-0.19075511
-0.0167268
-0.19275366
-0.097399906
-0.18838131
-0.094271885
-0.18217709
-0.026973602
-0.17913097
0.066559402
-0.18503486
0.088478306
-0.19975585
0.051674074
-0.22234949
-0.0099746665
-0.23856865
-0.061076868
-0.24130004
-0.061406513
-0.24400038
-0.033620551
-0.25642473
-0.0042563989
-0.27838379
0.010560783
-0.30445367
0.012336746
-0.33102605
0.0079633388
-0.3568411
0.0022640278
-0.38182021
-0.0017298914
-0.40687696
-0.0031661286
-0.4333168
-0.0028347427
-0.46210833
-0.0018102948
-0.49365271
-0.00078006876
-0.52794607
-7.8418051e-06
-0.56493949
0.00044032016
-0.60463141
0.00062996523
-0.64705823
0.00064999483
-0.69232989
0.00057468646
-0.7406091
0.00045353827
-0.79209538
0.00031858287
-0.84701183
0.00019023586
-0.90561041
8.1335532e-05
-0.96816582
-1.2136619e-06
-1.0349819
-5.5096658e-05
-1.1063922
-7.9439789e-05
-1.1827605
-7.5446943e-05
-1.264475
-4.7179021e-05
-1.3519756
-0.1736651
-0.035616167
-0.17329303
-0.026474812
0.015592879
-0.1758911
0.070248354
-0.18104173
0.060452429
-0.18714796
-0.017825043
-0.18965687
-0.10368436
-0.18646921
-0.10132603
-0.18132716
-0.030204572
-0.17894612
0.073437641
-0.18600921
0.099522204
-0.19607876
0.059009038
-0.20709081
-0.010368589
-0.22195557
-0.072899568
-0.22674595
-0.075685986
-0.22702056
-0.041597319
-0.23602361
-0.0035563587
-0.25712477
0.015360874
-0.28318388
0.017535433
-0.30965236
0.011801594
-0.33486431
0.0040094963
-0.35858657
-0.0018400265
-0.38171008
-0.0042700969
-0.40577299
-0.0040659765
-0.43208556
-0.0027141243
-0.4612045
-0.0012766317
-0.49315614
-0.00018671809
-0.5277672
0.00048451457
-0.56498369
0.00078926436
-0.60479071
0.00085490873
-0.64726314
0.00078542508
-0.69254063
0.00064891196
-0.74080448
0.00048759221
-0.79226439
0.000327244
-0.84714884
0.00018392412
-0.905713
6.7309182e-05
-0.96823434
-1.8198197e-05
-1.0350188
-7.1212979e-05
-1.1064005
-9.2260724e-05
-1.1827437
-8.3870227e-05
-1.2644383
-5.1161242e-05
-1.3519245
-0.17489611
0.016823892
-0.17452162
-0.034387578
-0.17501768
-0.024721745
0.072657122
-0.17829986
0.063164678
-0.18375397
-0.018559697
-0.18641331
-0.10896377
-0.18437745
-0.1075113
-0.18028395
-0.033114796
-0.17841694
0.080749828
-0.1862583
0.11113017
-0.19761717
0.069267476
-0.2063372
-0.013291163
-0.20416824
-0.085877378
-0.20897776
-0.09236577
-0.21006616
-0.051656652
-0.21696123
-0.0028604854
-0.23671949
0.021433757
-0.26319765
0.024009254
-0.28965771
0.016696021
-0.31454679
0.006390294
-0.33724511
-0.0018860761
-0.35854052
-0.0057212101
-0.38025897
-0.0057711209
-0.40406785
-0.0040105437
-0.43078914
-0.0020069509
-0.46047418
-0.00047595852
-0.4928669
0.0004936613
-0.52777634
0.0009630505
-0.56515747
0.0010944935
-0.60503029
0.001035969
-0.64751369
0.0008841557
-0.69277587
0.00069516692
-0.74101205
0.00050115869
-0.7924383
0.0003213126
-0.84728623
0.00016756707
-0.90581325
4.6596141e-05
-0.96829913
-3.8911276e-05
-1.0350511
-8.8902966e-05
-1.1064038
-0.00010533227
-1.1827222
-9.2051019e-05
-1.2643974
-5.4800597e-05
-1.3518697
-0.17641498
0.074175987
-0.17516974
0.017472012
-0.17655486
-0.032850397
-0.17747619
-0.022576746
0.065277615
-0.1804128
-0.018963634
-0.18335004
-0.11307814
-0.18229894
-0.11264969
-0.17923906
-0.035653371
-0.17774537
0.088185559
-0.18585267
0.12312584
-0.19825398
0.080219993
-0.20856969
-0.010134266
-0.2094941
-0.09946069
-0.19058492
-0.10839848
-0.19294505
-0.062673491
-0.19904932
-0.0023729943
-0.21744872
0.028915649
-0.24420138
0.031847748
-0.27103614
0.022794059
-0.29575574
0.0095255462
-0.31768204
-0.0018157094
-0.33731547
-0.0075981686
-0.35666356
-0.0080880767
-0.37794201
-0.0058197847
-0.40225861
-0.0030549088
-0.42974119
-0.00090264627
-0.46004749
0.00045770302
-0.49283094
0.0011573809
-0.52797067
0.0013776285
-0.56544061
0.0013352694
-0.60532959
0.0011657549
-0.64779529
0.00094560269
-0.69302631
0.00071508998
-0.74122598
0.00049630954
-0.7926133
0.00030276294
-0.84742143
0.00014288493
-0.90590954
2.0920995e-05
-0.96835896
-6.1917713e-05
-1.0350781
-0.00010716306
-1.106402
-0.00011812748
-1.1826962
-9.9556331e-05
-1.2643527
-5.7998215e-05
-1.3518117
-0.17781957
0.066682214
-0.17553799
0.074544235
-0.17653204
0.017449192
-0.17939547
-0.030931123
-0.1803883
-0.020195747
-0.018732946
-0.18064349
-0.11592253
-0.18050564
-0.11656895
-0.17837968
-0.037660453
-0.17723198
0.095410199
-0.18497001
0.13505014
-0.19777697
0.091522198
-0.20955618
-0.006075176
-0.21262878
-0.10832044
-0.20063435
-0.12196553
-0.17701788
-0.072760022
-0.18285852
-0.0019210993
-0.19950122
0.037829316
-0.22636239
0.041233554
-0.25358719
0.030164855
-0.27840694
0.013569279
-0.29979948
-0.0015945591
-0.31790319
-0.0099853861
-0.33492826
-0.011174281
-0.35357735
-0.0082931395
-0.37546866
-0.0045134903
-0.40080002
-0.0015101364
-0.4291337
0.0003808812
-0.45997067
0.0013807768
-0.49305434
0.0017228767
-0.52831592
0.0016983536
-0.56580369
0.0015038075
-0.60566765
0.0012450316
-0.64809472
0.00097277362
-0.69328399
0.00071169812
-0.74144137
0.00047567174
-0.79278621
0.00027380945
-0.84755235
0.00011179884
-0.90600042
-7.9412799e-06
-0.96841294
-8.595736e-05
-1.0350993
-0.00012521969
-1.1063949
-0.00013007743
-1.1826656
-0.00010629596
-1.2643044
-6.0741562e-05
-1.3517509
-0.17857364
-0.017978882
-0.17606589
0.067210106
-0.17607079
0.074082987
-0.1788093
0.016863024
-0.18259539
-0.028724036
-0.18393903
-0.017654185
-0.11734317
-0.17922285
-0.11916181
-0.17791279
-0.039150645
-0.17688949
0.102179
-0.18400077
0.14640737
-0.19632724
0.10305654
-0.20931131
-0.0022100976
-0.21342126
-0.11680077
-0.20414845
-0.13661484
-0.18598503
-0.081547145
-0.16823076
-0.0015505132
-0.1832291
0.047896083
-0.20956799
0.052202605
-0.23733144
0.038927334
-0.26234967
0.018622407
-0.28346007
-0.0011244497
-0.30026959
-0.012986012
-0.31490257
-0.015233701
-0.33086884
-0.011595832
-0.35027466
-0.0064934579
-0.37348869
-0.0023476029
-0.39996256
0.00026729579
-0.42902011
0.0016502209
-0.46024011
0.00215576
-0.49348722
0.0021473437
-0.52876491
0.0019142066
-0.56621409
0.0016026512
-0.60602527
0.0012791392
-0.64840108
0.00097031207
-0.6935426
0.00068863655
-0.74165433
0.00044210692
-0.7929545
0.00023679036
-0.84767734
7.6336987e-05
-0.9060847
-3.8517645e-05
-0.96846038
-0.00011000806
-1.0351145
-0.00014240435
-1.1063826
-0.00014095898
-1.182631
-0.00011214616
-1.264253
-6.2977668e-05
-1.351688
-0.17870901
-0.11720779
-0.17746628
-0.016578487
-0.17592299
0.067062313
-0.17725817
0.072531862
-0.18160347
0.015871112
-0.18632448
-0.026338583
-0.18783158
-0.015111383
-0.12060247
-0.17778218
-0.040178722
-0.17688471
0.10819474
-0.18290523
0.15663647
-0.19422987
0.11426288
-0.20753358
0.0020994438
-0.21362086
-0.12501645
-0.20520558
-0.15124023
-0.18952307
-0.098151914
-0.16938026
-0.0012245028
-0.16855677
0.058554052
-0.19388707
0.064731612
-0.22209699
0.04904516
-0.24744927
0.024798896
-0.26852615
-0.00038812908
-0.28419639
-0.016696889
-0.29655871
-0.020472165
-0.3096641
-0.01593919
-0.32652548
-0.009108673
-0.34765945
-0.003462188
-0.3723741
0.00011794571
-0.39981321
0.0019987456
-0.42936864
0.0027085355
-0.46079289
0.0027138207
-0.4940537
0.0024194558
-0.52927016
0.0020319609
-0.5666434
0.0016408314
-0.60638696
0.0012752773
-0.64870605
0.00094348262
-0.69379745
0.00064972877
-0.74186196
0.00039852882
-0.79311624
0.00019406709
-0.84779507
3.8387701e-05
-0.9061616
-6.9457497e-05
-0.96850093
-0.00013327464
-1.0351236
-0.00015828739
-1.1063652
-0.00015057645
-1.1825925
-0.00011699486
-1.264199
-6.4751937e-05
-1.3516232
-0.1787727
-0.12053879
-0.17951753
-0.11515654
-0.1774226
-0.015078877
-0.17637926
0.066183404
-0.17909173
0.070020115
-0.18486702
0.014413653
-0.19023284
-0.023937319
-0.19178676
-0.012751494
-0.04026634
-0.17769457
0.11311664
-0.18180661
0.16534822
-0.19161699
0.12465553
-0.20462252
0.0063276343
-0.21176177
-0.13291054
-0.20572676
-0.16488818
-0.19155763
-0.11447789
-0.1731971
-0.012795814
-0.15780895
0.069850809
-0.17985352
0.078448402
-0.20760386
0.060546783
-0.23359862
0.032003987
-0.25465436
0.00067557989
-0.26958986
-0.021252614
-0.27964066
-0.027155411
-0.28987546
-0.021514262
-0.30408903
-0.012484811
-0.32314934
-0.0048990204
-0.34622262
-5.532935e-05
-0.37220083
0.0024665922
-0.40028105
0.00342533
-0.43008543
0.0034423244
-0.46152139
0.0030517758
-0.49468602
0.0025528677
-0.52979107
0.0020676332
-0.5670702
0.0016302853
-0.60674197
0.0012414272
-0.64900399
0.00089758385
-0.69404531
0.00059869476
-0.74206212
0.00034776357
-0.79326994
0.00014786308
-0.84790455
-4.6488183e-07
-0.9062306
-9.9824523e-05
-0.96853438
-0.00015518101
-1.0351267
-0.00017266422
-1.1063431
-0.00015878427
-1.1825508
-0.00012097543
-1.2641427
-6.6079713e-05
-1.3515571
-0.1797444
-0.039294638
-0.1813762
-0.11868012
-0.18089469
-0.11168445
-0.17839514
-0.013062997
-0.17745602
0.064547694
-0.1814197
0.066572793
-0.18832038
0.01250119
-0.19403608
-0.021687993
-0.19565178
-0.010766627
0.11702511
-0.18160303
0.17236481
-0.18882319
0.13367126
-0.20063272
0.010504301
-0.20879919
-0.14024678
-0.20442553
-0.17793405
-0.19268088
-0.13030074
-0.17573478
-0.025015336
-0.16097757
0.072648796
-0.16060694
0.093256466
-0.19466159
0.07337219
-0.22042927
0.040386147
-0.24198078