/*--------------------------------*- C++ -*----------------------------------*\
| =========                 |                                                 |
| \\      /  F ield         | OpenFOAM: The Open Source CFD Toolbox           |
|  \\    /   O peration     | Version:  5.0                                   |
|   \\  /    A nd           | Web:      www.OpenFOAM.org                      |
|    \\/     M anipulation  |                                                 |
\*---------------------------------------------------------------------------*/
FoamFile
{
    version     2.0;
    format      ascii;
    class       volScalarField;
    location    "240";
    object      pMean;
}
// * * * * * * * * * * * * * * * * * * * * * * * * * * * * * * * * * * * * * //

dimensions      [0 2 -2 0 0 0 0];

internalField   nonuniform List<scalar> 
9520
(
6.4084575e-05
6.4321466e-05
0.00017041338
6.460564e-05
0.00017133713
0.00027822319
6.4663168e-05
0.00017268699
0.00027993319
0.00037843462
6.4282418e-05
0.00017386288
0.00028261324
0.00038141701
0.0004750407
6.322447e-05
0.00017430197
0.00028526734
0.00038622413
0.00047962639
0.0005646051
6.1330704e-05
0.0001734092
0.00028694947
0.00039148753
0.00048725683
0.00057121989
0.00064792406
5.8393635e-05
0.00017071847
0.00028670296
0.00039587622
0.00049615015
0.00058250154
0.00065694763
0.00072323202
5.4357286e-05
0.00016584379
0.00028375459
0.00039806404
0.00050458569
0.00059627071
0.00067261925
0.00073495307
0.00079031543
4.9179606e-05
0.00015863103
0.00027736639
0.00039693835
0.00051086695
0.0006104489
0.0006923765
0.00075563307
0.00080500139
0.00084808547
4.339909e-05
0.00014862722
0.0002671514
0.00039153265
0.00051354403
0.0006229839
0.00071380493
0.00078239097
0.00083122159
0.00086582871
0.00089620509
3.5986324e-05
0.00013575161
0.00025272524
0.00038117506
0.00051135
0.00063207192
0.00073452706
0.00081253159
0.00086580451
0.00089783237
0.00091702842
0.0009342432
2.7244106e-05
0.00011890393
0.00023419618
0.00036505691
0.00050334502
0.00063606476
0.00075241558
0.00084338638
0.00090582682
0.00094073469
0.00095492927
0.00095799032
0.00096204231
1.459731e-05
9.9948462e-05
0.00021065977
0.00034294136
0.00048865388
0.00063361616
0.00076552307
0.00087249086
0.00094838527
0.00099148634
0.0010064395
0.0010015644
0.00098845604
0.00097965496
3.5575717e-06
7.7089753e-05
0.00018285507
0.00031452765
0.00046683483
0.00062351616
0.00077223437
0.00089754402
0.0009907969
0.0010470364
0.0010684738
0.0010615043
0.0010372945
0.0010083179
0.00098729754
-1.2184522e-05
5.4979016e-05
0.00014890504
0.00028123443
0.00043707624
0.000605575
0.00077116463
0.00091661122
0.0010305224
0.0011045098
0.0011379222
0.0011348194
0.0011052347
0.0010617121
0.0010176765
0.00098547786
-2.2964161e-05
2.6615953e-05
0.00011365673
0.00024100563
0.00040080026
0.00057901643
0.00076134823
0.00092812284
0.0010653256
0.0011611228
0.001211796
0.0012184688
0.0011895093
0.0011367886
0.001074705
0.0010169219
0.00097477118
-4.1738757e-05
3.0052757e-06
7.1483224e-05
0.0001976521
0.0003562562
0.00054462604
0.00074196411
0.00093092248
0.0010931767
0.0012143626
0.0012871369
0.0013094709
0.0012872745
0.001231146
0.0011557636
0.0010764227
0.0010065661
0.00095606424
-5.2779668e-05
-3.0581591e-05
3.1777893e-05
0.00014569486
0.00030710671
0.00050043768
0.00071361998
0.0009237276
0.0011125682
0.0012619147
0.0013611538
0.0014047855
0.0013956464
0.0013422856
0.0012589596
0.0011619392
0.0010672178
0.00098740917
0.00093027418
-7.3083117e-05
-5.1873716e-05
-1.7291317e-05
9.4582069e-05
0.00024820369
0.00044976904
0.00067416018
0.00090680171
0.0011220721
0.0013019076
0.0014312164
0.0015014259
0.0015115732
0.0014675809
0.0013822846
0.0012722455
0.0011554124
0.0010477237
0.00096029128
0.00089854568
-8.497503e-05
-9.0583909e-05
-5.795299e-05
3.3879642e-05
0.0001884517
0.00038801149
0.0006264151
0.00087794463
0.0011216332
0.0013326075
0.001495182
0.0015964757
0.0016319405
0.0016041074
0.0015235067
0.0014059769
0.0012707369
0.0011365605
0.0010186868
0.00092632082
0.00086192857
-0.00010409938
-0.00011321258
-0.00011460304
-2.177232e-05
0.00011683493
0.0003232385
0.00056634407
0.00083925364
0.0011090214
0.0013535436
0.0015509919
0.0016874279
0.0017536564
0.0017487354
0.0016799483
0.0015614594
0.0014126321
0.0012544513
0.0011059658
0.00098112742
0.00088655726
0.00082163954
-0.00011830723
-0.00015446482
-0.00015387447
-9.0534965e-05
4.8636414e-05
0.00024439829
0.00050144335
0.0007869797
0.001085614
0.0013624803
0.001597654
0.0017718443
0.0018738505
0.001898191
0.0018485669
0.0017364232
0.0015801391
0.0014017799
0.0012237114
0.001064493
0.00093608889
0.0008422608
0.00077879933
-0.00012936465
-0.00018219797
-0.00021651566
-0.00014789721
-3.3330977e-05
0.00016709394
0.00042042794
0.00072852433
0.0010478019
0.0013605226
0.001632712
0.0018482223
0.0019897034
0.002049254
0.0020260181
0.001928051
0.0017715475
0.0015784604
0.0013733783
0.0011791491
0.0010131295
0.00088483916
0.00079457702
0.00073462232
-0.00014596911
-0.00022821043
-0.00025659414
-0.00022630387
-0.00010700023
7.3400512e-05
0.00033887347
0.00065235215
0.0010028821
0.0013437499
0.0016572776
0.001913964
0.0020991919
0.002198789
0.0022088266
0.002133013
0.0019844114
0.001783528
0.00155591
0.0013277261
0.0011216161
0.00095312277
0.00082857996
0.00074477473
0.00069017969
-0.00015900531
-0.00025877091
-0.00032861275
-0.00028560465
-0.00020194631
-1.5399571e-05
0.00023810704
0.00057361647
0.00093923585
0.0013191125
0.0016669708
0.0019695702
0.0021994857
0.0023442226
0.0023935158
0.0023476621
0.0022155592
0.0020150888
0.0017712522
0.0015123218
0.0012654423
0.0010522824
0.00088573943
0.00076869289
0.00069401078
0.00064651754
-0.00016977343
-0.00030971709
-0.00038148235
-0.00037826748
-0.00028321703
-0.00012879928
0.00013845206
0.00047285006
0.00087141602
0.0012752044
0.0016681984
0.0020104453
0.0022901971
0.00248231
0.0025769604
0.0025682025
0.0024612912
0.002270288
0.0020182336
0.0017339677
0.0014479826
0.0011875205
0.00097243647
0.00081245272
0.00070645381
0.00064343712
0.00060454889
-0.00018392147
-0.0003475524
-0.00045198989
-0.00045665981
-0.00039468598
-0.00023398146
1.0594131e-05
0.00036993114
0.00077946706
0.0012258264
0.0016497123
0.0020423102
0.0023666083
0.0026118131
0.0027555416
0.0027910139
0.0027175605
0.0025455082
0.0022945083
0.0019924081
0.0016714891
0.0013635659
0.0010951832
0.00088360884
0.00073466035
0.0006431853
0.00059403294
0.00056511574
-0.00019647442
-0.00037828966
-0.00052303327
-0.00055888603
-0.00050299848
-0.00037066017
-0.00011662406
0.00023492045
0.00068314437
0.0011500108
0.0016250984
0.0020535489
0.0024335767
0.0027278749
0.0029270874
0.0030121154
0.002980261
0.0028365104
0.0025967197
0.0022860099
0.0019368107
0.0015840304
0.0012601204
0.00098995152
0.00078730391
0.00065387183
0.0005800038
0.00054672341
0.00052895544
-0.00020643013
-0.00041960821
-0.00058773807
-0.00067355405
-0.00064473931
-0.00051614223
-0.00028080999
9.3108099e-05
0.00055195524
0.0010674549
0.001571225
0.0020582233
0.0024792139
0.0028343873
0.0030864944
0.0032284582
0.0032450902
0.0031388045
0.0029205912
0.0026118471
0.0022432318
0.00185106
0.0014723278
0.0011390446
0.00087344108
0.00068522257
0.00057145391
0.00051802981
0.00050236039
0.00049670149
-0.00021316762
-0.00045428304
-0.00066194949
-0.00078555495
-0.00080724717
-0.00070468323
-0.00046119951
-9.4876958e-05
0.00040664154
0.00094689481
0.0015078659
0.0020318719
0.0025169171
0.0029192721
0.0032366627
0.003434459
0.0035082049
0.0034477664
0.0032613756
0.0029658111
0.0025884966
0.002165085
0.0017354082
0.0013375271
0.0010020187
0.00074753965
0.00057909382
0.00048889637
0.00045831727
0.00046170207
0.00046887729
-0.00021533064
-0.00050155754
-0.00073068043
-0.00090471592
-0.00097962883
-0.00092773351
-0.0006995704
-0.00030726207
0.00020693854
0.00080507627
0.0014019061
0.0019925437
0.0025214948
0.0029952363
0.0033654787
0.0036320915
0.00376334
0.0037588328
0.0036140024
0.0033430374
0.0029688591
0.0025247438
0.0020511476
0.0015905685
0.0011812227
0.00085104336
0.00061425968
0.00047079275
0.0004075303
0.00040185402
0.00042539076
0.00044588775
-0.00021819994
-0.00054284219
-0.00081823538
-0.0010181596
-0.001157193
-0.0011758659
-0.0009921061
-0.00059766482
-2.4721634e-05
0.00060192041
0.0012680395
0.0019050337
0.0025113267
0.0030353655
0.0034845435
0.0038091766
0.0040115478
0.0040649746
0.0039733186
0.003738075
0.0033795432
0.0029269025
0.002419337
0.0019015241
0.0014178319
0.0010053617
0.00068831645
0.00047577253
0.00036191218
0.00032856295
0.00034947042
0.00039392509
0.0004280086
-0.0002160852
-0.0006001761
-0.00090311576
-0.0011578352
-0.0013344721
-0.0014317459
-0.0013293
-0.00095806103
-0.00036134584
0.00035078966
0.0010620054
0.0017814111
0.0024469693
0.0030593102
0.0035661334
0.0039760773
0.0042404895
0.0043661862
0.0043316511
0.0041451652
0.0038149054
0.0033670881
0.0028377678
0.0022715395
0.0017169497
0.0012189697
0.00081226606
0.00051626767
0.00033402196
0.00025397415
0.00025303935
0.00030188105
0.00036766628
0.00041541259
-0.00021314416
-0.00066118374
-0.0010061722
-0.0012974534
-0.0015480271
-0.0016914842
-0.0016848073
-0.0014005571
-0.00078616524
-2.0546479e-05
0.00079145639
0.0015736769
0.0023396886
0.0030238486
0.0036303335
0.004104582
0.0044592576
0.0046498138
0.0046876063
0.0045561068
0.0042685162
0.003839648
0.003302497
0.0026997281
0.0020814534
0.00149884
0.00099621294
0.00060446404
0.00033724354
0.00019104755
0.00014838633
0.00018191188
0.0002596767
0.00034686075
0.00040819036
-0.00020988137
-0.00072196092
-0.0011161764
-0.0014599378
-0.0017633483
-0.0020068097
-0.0020425365
-0.0018729984
-0.0013355241
-0.00050377508
0.00038861004
0.0012819799
0.0021370268
0.0029401284
0.0036298493
0.0042152421
0.0046392
0.0049237125
0.0050280253
0.0049679229
0.0047315985
0.0043377401
0.0038080061
0.003182965
0.0025119302
0.0018497954
0.0012492105
0.00075235647
0.00038483665
0.00015374731
4.8688159e-05
4.6502089e-05
0.00011609429
0.00022320547
0.00033168702
0.0004063525
-0.00020348635
-0.00078204155
-0.0012245829
-0.0016388108
-0.0020052528
-0.0023249719
-0.0024879981
-0.0023414677
-0.0019350642
-0.0011669451
-0.00015674459
0.00084667032
0.0018323822
0.0027503156
0.0035768387
0.0042569057
0.004800925
0.0051586896
0.0053598287
0.0053671429
0.0051999786
0.004851902
0.0043474799
0.0037161269
0.0030065433
0.0022742327
0.0015781284
0.00097074413
0.00049042007
0.00015635138
-3.183773e-05
-9.1227959e-05
-5.04548e-05
5.6415698e-05
0.0001927292
0.00032220943
0.00040984107
-0.00019536699
-0.00083326627
-0.0013317142
-0.0018152833
-0.0022725241
-0.0026721038
-0.0029379008
-0.0029411754
-0.0025314035
-0.0019126811
-0.00093553421
0.00022473131
0.0013631525
0.0024430608
0.0034073324
0.0042438327
0.004890357
0.0053749018
0.0056529727
0.0057590056
0.0056594135
0.0053769022
0.0049110384
0.0042928833
0.0035608386
0.0027718798
0.0019873964
0.0012686788
0.000666492
0.0002136678
-7.8120013e-05
-0.00021710834
-0.00022706888
-0.00014128964
3.2899433e-06
0.00016848943
0.00031843141
0.00041853645
-0.00018590305
-0.00087393493
-0.0014241754
-0.0019895848
-0.0025354565
-0.0030586696
-0.0034201206
-0.0035543762
-0.0033130764
-0.0026646041
-0.0018348024
-0.00067645875
0.00067606721
0.0019466934
0.0031050833
0.0041044775
0.0049234008
0.0055154995
0.0059269088
0.0061130356
0.0061132733
0.0058977658
0.0054920102
0.0049029472
0.0041694295
0.0033395794
0.0024786526
0.0016528972
0.00092433416
0.00033993803
-7.4468412e-05
-0.00031561215
-0.00039987236
-0.00035718412
-0.00022508149
-4.2944276e-05
0.00015060742
0.00032026075
0.00043225983
-0.0001753258
-0.00090065098
-0.001498272
-0.0021440184
-0.002792211
-0.0034385865
-0.0039603809
-0.0042041088
-0.0041261345
-0.0036458723
-0.0027578911
-0.0017374934
-0.00034401115
0.0012121717
0.0025890348
0.0038204979
0.004821896
0.0055980902
0.0061219016
0.0064475118
0.0065307316
0.0064156909
0.0060750599
0.0055384043
0.0048218984
0.0039730037
0.0030507256
0.0021273704
0.00127316
0.00054857352
-5.0815846e-06
-0.00037041479
-0.00055326013
-0.00057790319
-0.00048020643
-0.00030117377
-8.1986943e-05
0.00013907645
0.00032756202
0.00045078202
-0.00090848139
-0.00017309436
-0.0015502004
-0.0022722178
-0.0030200593
-0.0038055148
-0.0044919712
-0.0049369029
-0.004980628
-0.0046864178
-0.0039570795
-0.0028527673
-0.0015829059
9.2757937e-05
0.001816851
0.0033001786
0.0045678653
0.0055384349
0.0062579992
0.0067003237
0.0069284388
0.006899262
0.0066592585
0.0061839088
0.0055092396
0.004662222
0.0037001116
0.0026931842
0.0017195557
0.0008513308
0.00014544508
-0.0003644477
-0.00067058347
-0.00078816029
-0.00074929683
-0.00059496199
-0.00036910537
-0.00011367826
0.00013382863
0.00034012534
0.00047383756
-0.001572001
-0.00090472935
-0.00017952894
-0.0023670791
-0.0032105638
-0.0041324033
-0.0050021775
-0.0056618661
-0.0059476039
-0.0057804719
-0.0052470334
-0.0042958465
-0.0029145529
-0.0013307883
0.00060864065
0.0025074331
0.0040592391
0.0053211406
0.0062436486
0.0068936302
0.0072422647
0.0073635715
0.007212322
0.0068360675
0.0062162805
0.0053974046
0.0044186796
0.0033482089
0.0022671555
0.0012576304
0.00039137746
-0.00028053617
-0.00073386849
-0.00097131304
-0.0010176925
-0.00091226937
-0.00070058557
-0.00042850488
-0.00013796747
0.00013471773
0.00035771433
0.00050114769
-0.002414409
-0.0015725394
-0.00088940498
-0.00018648477
-0.0033521529
-0.0044050177
-0.0054594991
-0.0063575839
-0.0069148252
-0.0070214312
-0.006610284
-0.0058657377
-0.0046273067
-0.0028843246
-0.00098134172
0.0012436376
0.0032551118
0.004831331
0.0060669741
0.0069284188
0.0074961311
0.0077421616
0.007747475
0.0074621229
0.0069374269
0.0061638234
0.0051959344
0.0040866725
0.0029158008
0.0017739011
0.00074505953
-0.00010204772
-0.00072446463
-0.001108888
-0.0012691255
-0.0012393636
-0.0010654331
-0.00079637035
-0.00047912913
-0.00015488442
0.00014155276
0.00038004346
0.00053240866
-0.0034219319
-0.0024227196
-0.001551225
-0.00085451543
-0.00019295029
-0.0046030335
-0.0058401181
-0.0069884432
-0.0078495993
-0.0082751327
-0.0081582464
-0.0075312965
-0.0065062241
-0.0048735945
-0.002748363
-0.00048310487
0.0019695038
0.00401961
0.0056010504
0.0067978221
0.0075834353
0.0080601937
0.0081958039
0.008073182
0.0076395999
0.0069536594
0.0060177986
0.0048982066
0.0036626769
0.002402796
0.0012160234
0.00018625983
-0.00062362453
-0.0011811413
-0.0014850718
-0.001560678
-0.0014510891
-0.0012075742
-0.0008818223
-0.00052082297
-0.00016454248
0.00015405268
0.00040679119
0.00056730287
-0.0046991383
-0.0034303352
-0.0023914376
-0.001499415
-0.00080601421
-0.00019797774
-0.0061143956
-0.0075187078
-0.0087068907
-0.0094966593
-0.0097381427
-0.0094282165
-0.0085089647
-0.0070793222
-0.0050126452
-0.0024539137
0.0001318935
0.0027180982
0.0047896631
0.0063639462
0.0075032534
0.0082045508
0.0085843426
0.0085982248
0.0083315415
0.0077340853
0.0068745487
0.0057695564
0.0044984714
0.0031444249
0.0018103126
0.00059724714
-0.00041335599
-0.0011675302
-0.001645156
-0.0018580854
-0.0018429878
-0.0016509825
-0.0013378044
-0.00095651591
-0.00055357491
-0.00016720666
0.00017185169
0.0004376102
0.00060551914
-0.0062468003
-0.0046984722
-0.0033759829
-0.0023105979
-0.0014256473
-0.00074895733
-0.00020019322
-0.0079047895
-0.0094348178
-0.010625638
-0.01128879
-0.011374888
-0.010794741
-0.0094454542
-0.0075525402
-0.0049962192
-0.0020374667
0.00079289719
0.0034787144
0.0055659447
0.0071084873
0.0081801267
0.0087934496
0.0090657156
0.0089405131
0.0085113603
0.0077339904
0.0066891789
0.0054106258
0.0039917232
0.0025310157
0.0011407179
-7.7370005e-05
-0.0010475642
-0.0017274931
-0.002111074
-0.0022238728
-0.0021133392
-0.0018375378
-0.0014552679
-0.0010202553
-0.00057760811
-0.00016329913
0.00019458889
0.0004722243
0.00064677163
-0.0080935045
-0.0062352271
-0.0046005541
-0.0032486856
-0.0021932225
-0.0013339763
-0.00068443915
-0.00020177324
-0.0099749876
-0.011593466
-0.012728559
-0.013294113
-0.013152819
-0.012155292
-0.010296561
-0.0078697455
-0.0048455423
-0.001548093
0.0014962535
0.0042513889
0.0063345415
0.0078304233
0.0088330316
0.0093493664
0.0094965323
0.0092106624
0.0085994855
0.0076264969
0.0063870339
0.0049333981
0.0033743862
0.0018229453
0.00039796497
-0.00080170097
-0.0017094153
-0.0022969566
-0.0025736188
-0.0025786731
-0.0023694171
-0.0020093422
-0.0015594517
-0.0010731336
-0.00059338991
-0.00015315346
0.00022210943
0.00051044153
0.00069074582
-0.01025183
-0.0080753948
-0.0060790891
-0.0044004592
-0.0030699786
-0.0020470482
-0.0012278696
-0.00062084971
-0.00020219789
-0.012324343
-0.013971252
-0.015079485
-0.015484377
-0.014961767
-0.013454285
-0.011006799
-0.0080587298
-0.0046112707
-0.00098545019
0.0022429122
0.0050227159
0.0070886707
0.0085372631
0.0094653239
0.0098659896
0.009863977
0.0093947645
0.0085812713
0.0073984231
0.0059573777
0.0043313859
0.0026444901
0.001022509
-0.00041244642
-0.0015684522
-0.0023913997
-0.0028693185
-0.0030277725
-0.0029191144
-0.0026090446
-0.002165381
-0.0016502956
-0.0011156581
-0.00060118243
-0.00013668445
0.00025439806
0.00055189866
0.00073698815
-0.01271126
-0.010245315
-0.0078543609
-0.0057823176
-0.0041259983
-0.002851334
-0.00187815
-0.0011201508
-0.00055877035
-0.00019754039
-0.014921538
-0.016626197
-0.017654829
-0.017744756
-0.016738805
-0.014633758
-0.011591516
-0.0081524704
-0.0042819918
-0.00034182004
0.0030103256
0.0057868957
0.0078436684
0.0092387248
0.010072949
0.010329872
0.010152637
0.0094768626
0.0084413176
0.0070364566
0.0053904724
0.0035994716
0.0018020709
0.0001342054
-0.0012833469
-0.0023693604
-0.0030856153
-0.0034381297
-0.0034688621
-0.003242011
-0.0028304704
-0.0023052332
-0.0017282609
-0.0011479707
-0.00060053405
-0.00011367235
0.00029083279
0.00059567601
0.000785055
-0.015433849
-0.012719857
-0.0099567769
-0.0074393055
-0.0053830758
-0.0037975541
-0.0026013633
-0.001704501
-0.0010101325
-0.00050141963
-0.00019385162
-0.017810567
-0.019533918
-0.020338299
-0.020005449
-0.018425257
-0.015705158
-0.01207858
-0.0081450828
-0.0038664224
0.00034245802
0.003782368
0.0065680577
0.0086138278
0.0099316544
0.01064262
0.010724695
0.010345614
0.0094396724
0.0081632449
0.0065272561
0.0046776856
0.0027344901
0.0008494728
-0.00083546414
-0.0022061096
-0.0031954066
-0.0037840501
-0.0039971805
-0.0038923989
-0.003544609
-0.0030327299
-0.0024293134
-0.0017933051
-0.0011691262
-0.00059092797
-8.5291671e-05
0.00032950537
0.00064093202
0.000835094
-0.018445435
-0.015459479
-0.012349979
-0.0094068701
-0.0068849759
-0.0049120782
-0.0034301234
-0.0023424568
-0.0015257512
-0.00090687794
-0.00046077849
-0.00018711443
-0.020971532
-0.022586795
-0.023053941
-0.022210672
-0.020033928
-0.016682179
-0.012450463
-0.0080351164
-0.0033719776
0.0010575782
0.0045847133
0.00738795
0.0093993427
0.010602083
0.011155286
0.011032392
0.010424876
0.0092647432
0.0077307537
0.0058581813
0.0038121949
0.0017357539
-0.00020868382
-0.0018784729
-0.0031709751
-0.0040371205
-0.0044787683
-0.0045403766
-0.0042943105
-0.0038251571
-0.0032159466
-0.0025373081
-0.0018438354
-0.0011781718
-0.00057435022
-5.4952358e-05
0.00036914114
0.0006889796
0.00089021213
-0.021734289
-0.018466267
-0.014994702
-0.011635426
-0.0086717104
-0.0062366708
-0.0043934779
-0.0030498446
-0.0020764046
-0.0013612055
-0.00082116209
-0.00041499372
-0.00017732896
-0.024301809
-0.02570113
-0.025756102
-0.024375599
-0.021567597
-0.017541197
-0.012706486
-0.0078508877
-0.0028040232
0.0018396673
0.005441269
0.0082481591
0.010185006
0.011229614
0.011593157
0.011234443
0.0103693
0.0089321465
0.0071275407
0.0050180934
0.0027893469
0.00060513893
-0.0013657146
-0.002984954
-0.0041672007
-0.0048847474
-0.0051617987
-0.0050619688
-0.0046717308
-0.0040833029
-0.0033795061
-0.0026267638
-0.0018782645
-0.0011781437
-0.0005562707
-2.4237525e-05
0.0004136873
0.00074504466
0.00095057437
-0.025205602
-0.021734711
-0.017869384
-0.014084513
-0.010682511
-0.0078100141
-0.0055310851
-0.003857641
-0.0026630379
-0.0018343644
-0.0012180159
-0.00073054148
-0.00038054128
-0.0001658692
-0.027716651
-0.028843992
-0.028460181
-0.026495998
-0.022996688
-0.018278303
-0.012880033
-0.0075650966
-0.0021339965
0.0027117416
0.0063661456
0.0091361249
0.010939082
0.011793612
0.011936006
0.011307998
0.010155875
0.0084214146
0.0063376055
0.003997796
0.0016072926
-0.00065266572
-0.0026120553
-0.0041433949
-0.0051833162
-0.0057281911
-0.005825342
-0.0055575873
-0.0050235565
-0.0043178929
-0.0035197958
-0.0026951788
-0.0019008816
-0.0011772192
-0.00053848635
1.4978985e-05
0.00047229424
0.00080598514
0.0010147849
-0.028772678
-0.025186712
-0.020973999
-0.016716086
-0.01287287
-0.0095646908
-0.0068751334
-0.0048024515
-0.0033176273
-0.0023159626
-0.0016163061
-0.0010726143
-0.00065926037
-0.00034128083
-0.00015349026
-0.031196857
-0.032027823
-0.031156375
-0.028535806
-0.024306995
-0.018926318
-0.012972948
-0.0071506912
-0.0013480822
0.0036965197
0.0073532822
0.010018808
0.011647709
0.01227664
0.01216168
0.011228044
0.0097601229
0.0077118738
0.0053467251
0.0027907302
0.00026744702
-0.0020297406
-0.0039356562
-0.0053407706
-0.0062070485
-0.0065572477
-0.0064630821
-0.0060250489
-0.0053478614
-0.0045238654
-0.0036330921
-0.0027482654
-0.0019233469
-0.0011774359
-0.00050694297
7.7473695e-05
0.00053536482
0.0008712242
0.0010828535
-0.032434173
-0.028733805
-0.024247395
-0.019535444
-0.015193074
-0.011454937
-0.0083530188
-0.0059104875
-0.0040723609
-0.0028378218
-0.0019967464
-0.001398329
-0.00095348583
-0.00058216511
-0.00031448003
-0.00014390467
-0.034754348
-0.035236767
-0.033799226
-0.030471576
-0.025545976
-0.019497402
-0.012928551
-0.0065539971
-0.00039230086
0.0047837111
0.0083568697
0.010875881
0.01229168
0.012654798
0.012242213
0.010967598
0.0091564549
0.0067842623
0.0041430487
0.0013938639
-0.0012250912
-0.003515259
-0.0053227661
-0.0065627453
-0.0072255543
-0.0073632212
-0.0070713508
-0.0064613438
-0.0056377133
-0.0046957513
-0.0037266957
-0.0028021126
-0.0019480582
-0.0011566979
-0.00043934242
0.00014405999
0.00060331664
0.00094064733
0.0011547921
-0.036203799
-0.032394329
-0.027605113
-0.022497586
-0.01765168
-0.013422518
-0.0099181347
-0.0071067764
-0.0049486105
-0.0034274855
-0.002391673
-0.0016820054
-0.0012183981
-0.00082760456
-0.00051535229
-0.00027998407
-0.00013146289
-0.038363168
-0.038416431
-0.03635906
-0.032362622
-0.026720419
-0.019938546
-0.012696665
-0.0057656411
0.00073906927
0.0058986716
0.0093533795
0.011685229
0.012847647
0.012897324
0.012147178
0.010496849
0.0083200704
0.0056206446
0.0027177749
-0.00019195157
-0.0028618471
-0.0050956867
-0.0067575393
-0.0077937412
-0.0082273607
-0.0081405169
-0.0076456926
-0.0068570752
-0.0058852761
-0.0048425679
-0.0038222143
-0.0028596336
-0.0019423578
-0.0010828949
-0.00036791215
0.00021634042
0.00067568189
0.0010142737
0.0012306021
-0.040037549
-0.036185168
-0.031085879
-0.025525592
-0.020217814
-0.015475958
-0.011511145
-0.0083458261
-0.0058715955
-0.004099642
-0.0028223599
-0.0019530287
-0.0014256853
-0.001035677
-0.00070921131
-0.00044390827
-0.00023532709
-0.00011615517
-0.041953266
-0.041525929
-0.038905579
-0.034219673
-0.027778861
-0.020181827
-0.012241983
-0.0047504119
0.0019564074
0.0070256683
0.010341212
0.012426085
0.013286769
0.012972826
0.011844162
0.009785093
0.0072267995
0.0042051772
0.0010661833
-0.0019618957
-0.0046303192
-0.0067534064
-0.0082218701
-0.0090193403
-0.0092044761
-0.0088827884
-0.0081736301
-0.0072013305
-0.0061013673
-0.0049927922
-0.00392324
-0.0028746552
-0.001861471
-0.0010052385
-0.00028973812
0.00029325902
0.00075255601
0.0010920756
0.0013102659
-0.043860428
-0.040045309
-0.034701975
-0.028672667
-0.022826689
-0.017598837
-0.013138457
-0.0095671344
-0.0067976236
-0.0047794193
-0.0032922198
-0.0022310849
-0.0016043021
-0.001171958
-0.00085610738
-0.00058779581
-0.00037374618
-0.0002082529
-0.00010694559
-0.045476925
-0.044645516
-0.041451165
-0.035993398
-0.028645392
-0.020174045
-0.011539812
-0.0035503092
0.0032030074
0.008158807
0.011298734
0.013067148
0.013575399
0.012844743
0.01129643
0.0088022655
0.0058537181
0.0025260271
-0.00081158785
-0.0039058914
-0.006513269
-0.0084678932
-0.0096981804
-0.010228822
-0.010148195
-0.0095737318
-0.0086400311
-0.0075066321
-0.0063228618
-0.0051509657
-0.0039664462
-0.0027860941
-0.0017761943
-0.0009195369
-0.00020672076
0.00037505825
0.00083386238
0.0011740205
0.0013937485
-0.047614654
-0.043892749
-0.038388208
-0.031949743
-0.02553841
-0.019742318
-0.014800159
-0.010776507
-0.0076661538
-0.0054278893
-0.0037350115
-0.0025131593
-0.0017702007
-0.00125796
-0.00092464678
-0.00068427757
-0.00047829329
-0.00032054879
-0.00016672677
-9.3784229e-05
-0.049015058
-0.047790568
-0.043954375
-0.037593032
-0.0292475
-0.019898011
-0.010611263
-0.0022603434
0.0044863606
0.0092938733
0.012178185
0.013570931
0.013676349
0.012472909
0.010465498
0.007518261
0.0041812768
0.0005760666
-0.0029103278
-0.0060082859
-0.0084891536
-0.010219119
-0.011172969
-0.011410499
-0.011037474
-0.010192762
-0.0090590896
-0.007820081
-0.0065555213
-0.0052322207
-0.0038700771
-0.002691816
-0.0016812896
-0.00082876207
-0.00011839756
0.00046157239
0.00091957282
0.0012600049
0.0014810075
-0.05137387
-0.047669942
-0.042046124
-0.03527781
-0.028360744
-0.021962778
-0.016458197
-0.011987587
-0.0084847807
-0.0059899105
-0.004122349
-0.0027476151
-0.0019160471
-0.0013076412
-0.00093195309
-0.00069963523
-0.00053287788
-0.00039547559
-0.00024874091
-0.00014129234
-7.632129e-05
-0.052590682
-0.050922196
-0.046318527
-0.038932468
-0.029567288
-0.019380421
-0.0094980684
-0.00091248571
0.0058169249
0.010390037
0.012939409
0.013895448
0.013544014
0.011813626
0.0093134065
0.0059045307
0.0021944645
-0.0016457834
-0.0052177709
-0.0082475793
-0.010535473
-0.011990978
-0.01263111
-0.012537696
-0.011844877
-0.010755256
-0.0094901377
-0.0081492253
-0.0066877264
-0.0051286278
-0.0037655369
-0.0025860014
-0.0015810449
-0.00073221267
-2.5037136e-05
0.0005527925
0.0010095196
0.001349941
0.0015720153
-0.055159674
-0.051427431
-0.045629842
-0.038562076
-0.031207516
-0.024263524
-0.018166822
-0.013172585
-0.0092753215
-0.0064727052
-0.0044011636
-0.0029090886
-0.0019840281
-0.0013174126
-0.00087967639
-0.00064878802
-0.00051253742
-0.00041764087
-0.00029689082
-0.00020986785
-0.00010342079
-6.5780422e-05
-0.056166641
-0.05395536
-0.048446619
-0.039991235
-0.029624943
-0.018651774
-0.0082402973
0.00053712952
0.007140682
0.011407583
0.013542649
0.013996313
0.013130989
0.010822472
0.0078040267
0.0039369383
-0.00011595474
-0.0041319097
-0.007713766
-0.010600469
-0.012633022
-0.013764702
-0.014039423
-0.013574515
-0.012586292
-0.011335315
-0.0099432725
-0.0083493258
-0.0065784741
-0.0050128215
-0.0036471687
-0.0024744992
-0.0014744657
-0.00063023442
7.336975e-05
0.00064844705
0.0011035578
0.0014437954
0.0016667435
-0.058947791
-0.055195112
-0.049164816
-0.041754588
-0.033981108
-0.026556386
-0.019922778
-0.014381883
-0.010022083
-0.0069095112
-0.0045854453
-0.002945401
-0.0019700026
-0.0012292089
-0.00077081454
-0.0005336874
-0.00042044548
-0.00036687703
-0.00029934979
-0.00023499138
-0.00014725833
-8.3191503e-05
-4.7333057e-05
-0.059669517
-0.056783969
-0.050317283
-0.040778855
-0.029450507
-0.017723035
-0.0068358528
0.0020719906
0.0084216151
0.012313364
0.013945031
0.013820838
0.012384693
0.0094562701
0.0059007182
0.0015960062
-0.0027500331
-0.006866314
-0.010375516
-0.013046878
-0.014760055
-0.015499656
-0.015351625
-0.014536394
-0.013353113
-0.011946518
-0.010233093
-0.0082375084
-0.0064508309
-0.0048804163
-0.0035225859
-0.0023559746
-0.0013619773
-0.00052283397
0.00017643559
0.00074833441
0.0012017397
0.0015416137
0.0017650387
-0.062672349
-0.058948556
-0.052683741
-0.044866116
-0.036635468
-0.028740073
-0.021635337
-0.015606383
-0.010772277
-0.0072937199
-0.0047146973
-0.0028721344
-0.0018216839
-0.001052305
-0.00055478745
-0.00034915746
-0.00025593167
-0.00024676629
-0.00023025177
-0.00021306925
-0.0001523416
-0.00010864076
-4.5739134e-05
-3.7755498e-05
-0.062999583
-0.05939334
-0.051944353
-0.041320885
-0.029049198
-0.016585853
-0.0052827942
0.0036214069
0.0096313502
0.01305218
0.014093912
0.013308034
0.011250357
0.0076690439
0.0035718772
-0.0011290675
-0.0056971199
-0.0098287791
-0.01318379
-0.015561839
-0.016867781
-0.017137292
-0.016581582
-0.01553487
-0.014164193
-0.01235401
-0.010124042
-0.008098205
-0.0063032953
-0.0047409939
-0.0033901213
-0.002230933
-0.0012435981
-0.00041051316
0.00028389968
0.00085264696
0.0013043181
0.0016430357
0.0018668128
-0.06624512
-0.06263483
-0.056163096
-0.047923035
-0.039167001
-0.030770726
-0.023210816
-0.016759222
-0.01150973
-0.0076626381
-0.0047834654
-0.0027377765
-0.0015495854
-0.00074756465
-0.00024929627
-6.3120667e-05
-1.370721e-05
-5.337497e-05
-8.935072e-05
-0.00012427298
-0.00011311976
-9.336209e-05
-5.208058e-05
-2.5192763e-05
-1.9728819e-05
-0.066141062
-0.061802675
-0.053351711
-0.041623745
-0.028417039
-0.015247055
-0.0036507103
0.0051359572
0.010712306
0.013555476
0.013926345
0.012393801
0.0096709688
0.0054161567
0.00079468122
-0.0042373696
-0.0089413546
-0.013002041
-0.016112931
-0.018086829
-0.018883528
-0.018688613
-0.01786403
-0.01659617
-0.014724778
-0.012256222
-0.0099744765
-0.0079351239
-0.0061474906
-0.0045925776
-0.0032503292
-0.0020993868
-0.0011199815
-0.00029358369
0.00039617464
0.00096196784
0.0014106093
0.001747932
0.0019719517
-0.06964932
-0.06617437
-0.05955866
-0.050907144
-0.041600087
-0.032635849
-0.024605657
-0.01775601
-0.012160132
-0.0079977414
-0.0048247907
-0.0025434058
-0.0012092324
-0.00031231239
0.00017040127
0.00031596463
0.00031925107
0.00021708159
0.00012571541
3.2867696e-05
-1.0453283e-05
-3.622272e-05
-2.1897339e-05
-1.2135751e-05
7.9650279e-06
-9.6095173e-06
-0.069140424
-0.064042837
-0.054536228
-0.041683779
-0.027547741
-0.01373221
-0.001955428
0.0065785366
0.011597491
0.01374018
0.013373474
0.011012265
0.0075881687
0.0026626022
-0.0024402607
-0.0077215975
-0.01247105
-0.016361274
-0.019095758
-0.020534257
-0.020814268
-0.020314573
-0.019235417
-0.017354482
-0.014651084
-0.012099631
-0.0097965864
-0.0077618197
-0.0059812107
-0.0044357231
-0.0031032194
-0.0019621808
-0.00099147152
-0.000171298
0.00051429033
0.0010751325
0.0015204635
0.0018560996
0.0020803488
-0.072948742
-0.069557512
-0.062805191
-0.053781467
-0.043921268