/*--------------------------------*- C++ -*----------------------------------*\
| =========                 |                                                 |
| \\      /  F ield         | OpenFOAM: The Open Source CFD Toolbox           |
|  \\    /   O peration     | Version:  5.0                                   |
|   \\  /    A nd           | Web:      www.OpenFOAM.org                      |
|    \\/     M anipulation  |                                                 |
\*---------------------------------------------------------------------------*/
FoamFile
{
    version     2.0;
    format      ascii;
    class       volScalarField;
    location    "240";
    object      pPrime2Mean;
}
// * * * * * * * * * * * * * * * * * * * * * * * * * * * * * * * * * * * * * //

dimensions      [0 4 -4 0 0 0 0];

internalField   nonuniform List<scalar> 
9520
(
2.5937589e-07
2.4089777e-07
1.7519348e-06
2.0974862e-07
1.6261518e-06
4.7405334e-06
1.7197743e-07
1.4139543e-06
4.4017096e-06
9.3131804e-06
1.3287828e-07
1.1563715e-06
3.8298485e-06
8.649359e-06
1.5714464e-05
9.6537544e-08
8.8944386e-07
3.1351766e-06
7.5283985e-06
1.4600141e-05
2.4236474e-05
6.5729034e-08
6.4101026e-07
2.4146272e-06
6.1656329e-06
1.2717065e-05
2.2528137e-05
3.5278543e-05
4.2036293e-08
4.2983623e-07
1.7431784e-06
4.750719e-06
1.0425227e-05
1.9638807e-05
3.2810468e-05
4.9302667e-05
2.6112636e-08
2.6637616e-07
1.1716051e-06
3.4307049e-06
8.0423529e-06
1.6117531e-05
2.8631436e-05
4.5883863e-05
6.6851082e-05
1.7936532e-08
1.5433943e-07
7.2837942e-07
2.3056456e-06
5.8157138e-06
1.2450119e-05
2.3529721e-05
4.0087328e-05
6.2262701e-05
8.8533248e-05
1.7127167e-08
9.2550693e-08
4.2354536e-07
1.4319556e-06
3.9145823e-06
9.0164285e-06
1.8204975e-05
3.2996766e-05
5.4471614e-05
8.2527964e-05
0.00011502644
2.335603e-08
7.6764877e-08
2.5374551e-07
8.3006562e-07
2.4354321e-06
6.0783434e-06
1.3207456e-05
2.5577468e-05
4.4919636e-05
7.231398e-05
0.0001073284
0.00014706192
3.6565839e-08
1.0088005e-07
2.0658207e-07
4.9323611e-07
1.4143683e-06
3.7871712e-06
8.9197336e-06
1.859364e-05
3.4895772e-05
5.9759636e-05
9.421117e-05
0.0001373685
0.00018541938
5.7469051e-08
1.5788658e-07
2.6384202e-07
3.9596737e-07
8.4214589e-07
2.2018366e-06
5.5662077e-06
1.2581807e-05
2.5427681e-05
4.6541952e-05
7.8042534e-05
0.00012081762
0.00017340416
0.00023091317
8.7519778e-08
2.4246369e-07
4.0618613e-07
5.0370924e-07
6.7862727e-07
1.3113939e-06
3.2378237e-06
7.8617044e-06
1.7245087e-05
3.400832e-05
6.0957377e-05
0.00010035275
0.00015284372
0.00021623057
0.00028437994
1.2969777e-07
3.5083241e-07
6.1527747e-07
7.7917319e-07
8.6735857e-07
1.0586435e-06
1.9234983e-06
4.5682759e-06
1.0790925e-05
2.3127325e-05
4.4685562e-05
7.8640584e-05
0.00012733478
0.00019104615
0.00026667126
0.00034666063
1.8669879e-07
4.8230547e-07
8.7495275e-07
1.1833267e-06
1.3427449e-06
1.3576504e-06
1.5422313e-06
2.6933457e-06
6.2606824e-06
1.4499023e-05
3.0487598e-05
5.786187e-05
0.00010015181
0.00015968594
0.00023621968
0.00032556188
0.00041858483
2.6410659e-07
6.3020423e-07
1.171918e-06
1.6764651e-06
2.0394458e-06
2.1070884e-06
1.9696845e-06
2.1272606e-06
3.6547302e-06
8.4014687e-06
1.916203e-05
3.9629043e-05
7.3999472e-05
0.00012610842
0.00019815269
0.00028918402
0.00039373535
0.00050095041
3.6646779e-07
8.1728147e-07
1.499674e-06
2.2310364e-06
2.8946416e-06
3.2068443e-06
3.0611739e-06
2.6981441e-06
2.8337666e-06
4.8556815e-06
1.1098272e-05
2.4987908e-05
5.0908243e-05
9.3617753e-05
0.00015718667
0.00024352086
0.00035077051
0.00047200276
0.00059450809
5.003411e-07
1.0052246e-06
1.8571526e-06
2.8228987e-06
3.8560353e-06
4.5665515e-06
4.6680885e-06
4.2048697e-06
3.5701282e-06
3.6940212e-06
6.3536729e-06
1.4475086e-05
3.2227464e-05
6.4734536e-05
0.00011730124
0.00019411493
0.00029660525
0.00042180563
0.00056113665
0.000699941
6.6307899e-07
1.3017568e-06
2.2357066e-06
3.435404e-06
4.8795743e-06
6.1055731e-06
6.659772e-06
6.4367073e-06
5.5915723e-06
4.627393e-06
4.7380842e-06
8.2065023e-06
1.8684503e-05
4.1176064e-05
8.1583193e-05
0.00014569534
0.00023766776
0.00035823681
0.00050309498
0.00066185273
0.00081785017
8.5897584e-07
1.5421782e-06
2.6899012e-06
4.0700837e-06
5.9445732e-06
7.7609226e-06
8.9251778e-06
9.2017932e-06
8.6143041e-06
7.3008086e-06
5.8978063e-06
5.9790053e-06
1.0483318e-05
2.391301e-05
5.2189397e-05
0.00010199366
0.00017950561
0.0002886572
0.00042924866
0.00059540351
0.00077479436
0.00094873545
1.0783676e-06
2.0404942e-06
3.1474672e-06
4.7410066e-06
7.0327145e-06
9.496556e-06
1.1368619e-05
1.2337971e-05
1.236346e-05
1.1343223e-05
9.3856252e-06
7.3714223e-06
7.4218038e-06
1.3274624e-05
3.0396156e-05
6.5685133e-05
0.00012657369
0.00021949348
0.0003479217
0.00051045656
0.00069944331
0.00090051314
0.0010929859
1.3257175e-06
2.342932e-06
3.8516048e-06
5.4543817e-06
8.1710914e-06
1.1284046e-05
1.3925692e-05
1.570231e-05
1.6597864e-05
1.6380223e-05
1.4724705e-05
1.1834009e-05
9.011063e-06
9.0805419e-06
1.6706609e-05
3.8424461e-05
8.2149618e-05
0.00015599933
0.00026646929
0.00041631253
0.0006026467
0.00081585209
0.0010394578
0.0012508668
1.5505205e-06
3.1340658e-06
4.4921081e-06
6.3511196e-06
9.3543232e-06
1.3158493e-05
1.6562583e-05
1.9193551e-05
2.111187e-05
2.2076685e-05
2.1429335e-05
1.8763997e-05
1.458683e-05
1.0778399e-05
1.0992992e-05
2.0949323e-05
4.8349435e-05
0.00010214192
0.00019101268
0.00032128377
0.00049467634
0.00070655681
0.00094518016
0.0011919591
0.0014225149
1.8015743e-06
3.708856e-06
5.6481352e-06
7.3046864e-06
1.0755188e-05
1.5109373e-05
1.9301713e-05
2.2754337e-05
2.575709e-05
2.8146187e-05
2.9062029e-05
2.7551755e-05
2.3397809e-05
1.7578459e-05
1.2652842e-05
1.3228569e-05
2.621982e-05
6.0590593e-05
0.00012629586
0.00023241981
0.00038481731
0.00058384264
0.00082286025
0.0010878729
0.0013582247
0.0016079329
2.0740933e-06
4.774364e-06
6.7336933e-06
8.7342605e-06
1.226898e-05
1.7354666e-05
2.2159713e-05
2.6383236e-05
3.0429652e-05
3.4378107e-05
3.7239709e-05
3.763856e-05
3.4687658e-05
2.8559548e-05
2.0764622e-05
1.4635111e-05
1.5886119e-05
3.2789275e-05
7.5640492e-05
0.0001553249
0.00028108462
0.00045796136
0.00068460723
0.00095214675
0.0012442627
0.0015383305
0.0018069903
2.5122061e-06
5.8172083e-06
8.529384e-06
1.0291161e-05
1.4355714e-05
1.9806831e-05
2.53481e-05
3.012839e-05
3.510278e-05
4.0608803e-05
4.5674289e-05
4.8529514e-05
4.7748294e-05
4.2783083e-05
3.4220048e-05
2.4119584e-05
1.6736231e-05
1.9096416e-05
4.0989159e-05
9.4075643e-05
0.00019002149
0.00033792004
0.00054160998
0.00079771165
0.0010949106
0.0014145573
0.0017322201
0.0020194251
2.9701994e-06
6.8969198e-06
1.0363631e-05
1.2718776e-05
1.6726714e-05
2.2985692e-05
2.8862303e-05
3.4170272e-05
3.9825052e-05
4.6784723e-05
5.4130003e-05
5.9842897e-05
6.1946202e-05
5.9356405e-05
5.1858754e-05
4.0377659e-05
2.7613091e-05
1.8972218e-05
2.3027168e-05
5.1226085e-05
0.00011656238
0.00023125631
0.0004038723
0.00063663966
0.00092382817
0.0012515337
0.0015988361
0.001939704
0.0022448502
3.432873e-06
7.9559418e-06
1.2129172e-05
1.5378775e-05
2.0276511e-05
2.6642523e-05
3.3243091e-05
3.8618762e-05
4.4763589e-05
5.292309e-05
6.2520552e-05
7.1258516e-05
7.6777716e-05
7.7467522e-05
7.2562845e-05
6.1994066e-05
4.701628e-05
3.1189601e-05
2.1363857e-05
2.7899e-05
6.3994013e-05
0.00014386448
0.00027997109
0.00047991148
0.0007438925
0.0010635385
0.0014222786
0.0017970432
0.0021604635
0.0024827619
3.8847134e-06
8.6022677e-06
1.3922671e-05
1.8140109e-05
2.4282678e-05
3.1894601e-05
3.826958e-05
4.4017514e-05
5.01261e-05
5.9197517e-05
7.0816148e-05
8.2639275e-05
9.1820888e-05
9.6449885e-05
9.52949e-05
8.7582517e-05
7.3258083e-05
5.4062357e-05
3.4757613e-05
2.3950878e-05
3.4003045e-05
7.988973e-05
0.00017684313
0.00033716805
0.00056701493
0.00086415252
0.0012173216
0.0016072784
0.00200899
0.0023940592
0.0027325503
4.1746378e-06
9.5046109e-06
1.5199095e-05
2.0809811e-05
2.8658679e-05
3.7970951e-05
4.5383851e-05
5.0245543e-05
5.6456775e-05
6.5858373e-05
7.9201901e-05
9.3894535e-05
0.00010686358
0.00011574563
0.00011917591
0.00011583361
0.00010464126
8.5629251e-05
6.1361728e-05
3.8199968e-05
2.6812148e-05
4.1723013e-05
9.9620965e-05
0.00021645751
0.000403898
0.00066614274
0.00099812758
0.0013855386
0.0018065326
0.0022343604
0.002639939
0.0029935116
4.3232001e-06
9.8850965e-06
1.6831602e-05
2.301761e-05
3.2697122e-05
4.4658866e-05
5.3885069e-05
5.9003603e-05
6.3794784e-05
7.3481658e-05
8.7922017e-05
0.00010520576
0.00012174178
0.00013503113
0.00014346783
0.00014560652
0.000139541
0.00012384888
9.8948697e-05
6.8683014e-05
4.1395507e-05
3.0093246e-05
5.155105e-05
0.00012401662
0.00026375436
0.00048124243
0.00077821652
0.0011464287
0.0015684238
0.0020199039
0.0024727164
0.0028974489
0.0032648622
4.1887101e-06
1.0121373e-05
1.7808183e-05
2.5562189e-05
3.6337931e-05
5.0571774e-05
6.3393819e-05
6.96448e-05
7.4024009e-05
8.2271029e-05
9.7593652e-05
0.00011679377
0.00013660837
0.00015405356
0.00016768655
0.00017593074
0.00017650813
0.00016673879
0.0001451152
0.00011292114
7.5740658e-05
4.4252492e-05
3.4029089e-05
6.4107436e-05
0.00015402571
0.00031985565
0.00057029444
0.00090409972
0.0013095594
0.0017660736
0.0022471225
0.0027235047
0.0031658475
0.0035457531
3.7907753e-06
9.8793419e-06
1.8415738e-05
2.7328982e-05
4.023938e-05
5.6209747e-05
7.1737431e-05
8.2327984e-05
8.6684446e-05
9.4073267e-05
0.00010854494
0.00012929038
0.00015164645
0.00017290541
0.00019145846
0.00020611612
0.00021428546
0.00021249572
0.00019748178
0.00016814265
0.00012714644
8.2233401e-05
4.6735319e-05
3.8970905e-05
8.0148843e-05
0.00019071709
0.00038594833
0.00067213706
0.001044578
0.0014878958
0.0019784452
0.0024877901
0.0029860677
0.0034443186
0.0038352833
3.1733099e-06
9.1461471e-06
1.8293147e-05
2.8498864e-05
4.3138828e-05
6.1975426e-05
7.9912869e-05
9.3646164e-05
0.00010266948
0.00010875382
0.00012255089
0.00014312901
0.00016751278
0.00019171826
0.00021478116
0.00023561929
0.00025193541
0.00025952224
0.00025384243
0.00023153681
0.00019247518
0.0001411624
8.7873763e-05
4.8896189e-05
4.540217e-05
0.00010057742
0.00023526638
0.00046326609
0.00078781817
0.0012003319
0.0016816759
0.0022053539
0.002741386
0.0032596572
0.0037319841
0.004132515
2.4365256e-06
7.9499692e-06
1.7306309e-05
2.8738728e-05
4.5030826e-05
6.6518502e-05
8.8194605e-05
0.00010485652
0.00011737491
0.00012818371
0.00013983817
0.00015993362
0.00018469547
0.00021115094
0.00023772445
0.00026431318
0.00028869425
0.00030658925
0.00031220384
0.00030043966
0.00026845122
0.00021755251
0.00015447971
9.2420847e-05
5.0895471e-05
5.3958604e-05
0.00012644459
0.00028895523
0.00055306493
0.00091832239
0.0013719208
0.0018909892
0.0024464766
0.0030072761
0.0035434484
0.004027921
0.0044364875
1.7263513e-06
6.3995209e-06
1.5499223e-05
2.7712128e-05
4.5653278e-05
6.9402552e-05
9.5230607e-05
0.00011638335
0.00013230164
0.00014688517
0.00016329775
0.00018061345
0.00020472806
0.00023171657
0.00026091515
0.00029217363
0.000324276
0.00035265607
0.00037098868
0.00037240029
0.00035189353
0.0003076373
0.00024275596
0.00016661015
9.5697005e-05
5.3024015e-05
6.5440275e-05
0.00015895186
0.00035315268
0.00065659603
0.0010645477
0.0015597629
0.0021157755
0.0027013539
0.0032847288
0.0038365539
0.0043311739
0.0047462297
1.1658091e-06
4.7665784e-06
1.3059035e-05
2.5474658e-05
4.439398e-05
7.054043e-05
9.9778029e-05
0.00012697688
0.00014773081
0.00016658716
0.00018652167
0.00020862212
0.00022894253
0.00025492314
0.00028489601
0.00031975819
0.00035850627
0.00039724781
0.00042882302
0.00044542183
0.00043982436
0.00040765555
0.00034843444
0.00026743116
0.00017707832
9.7613148e-05
5.572458e-05
8.0830445e-05
0.00019944789
0.00042929262
0.00077507627
0.0012272768
0.0017641256
0.0023558185
0.0029694016
0.0035729276
0.0041380376
0.0046407694
0.0050607729
8.5206841e-07
3.3754699e-06
1.0435129e-05
2.2268471e-05
4.1326194e-05
6.8911109e-05
0.00010210456
0.00013422607
0.00016294675
0.00018634131
0.00021187823
0.00023686594
0.00026142725
0.00028225876
0.00031121092
0.00034764714
0.00039187137
0.00043996844
0.00048499341
0.00051773092
0.00052973542
0.00051402186
0.00046711837
0.00039013076
0.00029088485
0.00018543188
9.8187665e-05
5.9623115e-05
0.00010130308
0.00024941973
0.00051884524
0.00090965576
0.0014071574
0.0019851098
0.0026107526
0.0032499228
0.0038709833
0.0044469302
0.0049557293
0.0053791614
2.5720259e-06
8.4112944e-07
8.1688123e-06
1.872087e-05
3.6799521e-05
6.4617887e-05
0.00010064781
0.00013893776
0.00017393987
0.00020704093
0.00023625639
0.0002689137
0.00029550564
0.00031846598
0.0003413573
0.00037738237
0.00042489582
0.00048122034
0.00053881903
0.00058831453
0.00061937862
0.00062361
0.00059452126
0.00052963957
0.00043193969
0.00031237161
0.00019124791
9.7585531e-05
6.5555214e-05
0.00012822964
0.00031047247
0.00062328455
0.0010613883
0.001604677
0.0022226491
0.0028800682
0.0035421203
0.0041779503
0.0047622434
0.0052750813
0.0057004621
6.8538829e-06
2.5809586e-06
1.1339653e-06
1.5624554e-05
3.1718381e-05
5.8161435e-05
9.5479408e-05
0.00013889161
0.00018229008
0.00022264266
0.00026320847
0.00029865712
0.00033550119
0.00035838377
0.00038063445
0.00041036332
0.00045911873
0.00052138987
0.00059058914
0.00065613075
0.00070735201
0.00073359925
0.00072678547
0.00068088361
0.00059449664
0.00047295127
0.00033108086
0.00019416498
9.6152422e-05
7.4594103e-05
0.00016318064
0.00038430299
0.00074405305
0.0012311974
0.0018201501
0.0024765054
0.0031631236
0.00384511
0.0044928418
0.0050829808
0.0055978707
0.0060237722
1.3829153e-05
6.86642e-06
3.3977983e-06
1.6732352e-06
2.7279457e-05
5.0846331e-05
8.7220683e-05
0.0001339939
0.0001850537
0.00023577213
0.00028424745
0.000332911
0.00037167587
0.00040643982
0.00042563023
0.00045222092
0.00049593458
0.00056200792
0.0006404532
0.00072132803
0.00079219915
0.00084208613
0.00086039411
0.00083915141
0.00077262728
0.00066078967
0.00051208033
0.00034614679
0.00019393487
9.4466114e-05
8.8064025e-05
0.00020791269
0.00047266596
0.00088252166
0.0014198496
0.0020537039
0.0027462766
0.0034591551
0.0041579373
0.0048146441
0.005408153
0.0059231681
0.0063482265
2.4679985e-05
1.386419e-05
8.2023611e-06
4.7955793e-06
2.3655962e-06
4.4433592e-05
7.7657297e-05
0.00012488068
0.00018182986
0.00024262501
0.00030320748
0.00036053114
0.00041545281
0.00044953741
0.00048117003
0.00050137315
0.00054058123
0.00060436791
0.00068993694
0.0007837025
0.00087386981
0.0009471347
0.0009928005
0.0010000907
0.00096065436
0.00086907584
0.00072733912
0.00054804741
0.00035669125
0.00019049216
9.3387744e-05
0.0001075624
0.0002643463
0.00057733362
0.0010399504
0.0016279283
0.0023052758
0.0030314
0.0037672925
0.0044795928
0.0051423308
0.005736786
0.0062500783
0.0066730024
4.0608137e-05
2.4718858e-05
1.5721072e-05
1.0485789e-05
6.4293679e-06
3.0926154e-06
6.9158368e-05
0.00011380628
0.00017312809
0.00024237753
0.0003154694
0.00038699495
0.0004518748
0.00050432912
0.00053135821
0.00056418997
0.00059353744
0.00065327534
0.00074007148
0.00084479649
0.0009517378
0.0010484032
0.0011214977
0.001160345
0.0011532427
0.0010910719
0.00096918392
0.00079261605
0.00057939433
0.00036190099
0.00018402024
9.4102589e-05
0.00013495854
0.00033453446
0.0007000491
0.0012174495
0.0018558169
0.0025746081
0.003331167
0.0040865738
0.0048090282
0.0054748765
0.0060679324
0.006577746
0.0069973249
6.3988991e-05
4.0556032e-05
2.738603e-05
1.8865204e-05
1.311915e-05
7.9749357e-06
3.7099515e-06
0.00010367289
0.00016164022
0.00023530984
0.0003196055
0.00040646404
0.00048857051
0.00055175824
0.00059800394
0.00062134362
0.00066397611
0.00071074018
0.00079561877
0.00090521085
0.0010273839
0.0011448143
0.0012457164
0.0013167108
0.001346048
0.0013203165
0.0012297528
0.0010714005
0.00085471497
0.00060454959
0.0003611093
0.00017502693
9.8152101e-05
0.00017238266
0.00042061806
0.00084247627
0.0014159461
0.0021036818
0.0028612557
0.0036447328
0.0044159649
0.005145173
0.0058112685
0.0064006782
0.0069053605
0.0073204686
9.7378261e-05
6.3833822e-05
4.42805e-05
3.1880646e-05
2.244536e-05
1.5563099e-05
9.1642053e-06
4.116098e-06
0.00015068344
0.00022440308
0.00031550181
0.00041701816
0.00051839503
0.00060185119
0.00065819138
0.00070034142
0.00072783588
0.00078899227
0.00085914677
0.00096993429
0.0011009014
0.0012379851
0.0013639056
0.0014678104
0.0015350091
0.0015513095
0.0015013325
0.0013754101
0.0011735967
0.00091139875
0.00062192046
0.00035390565
0.00016441688
0.00010745856
0.00022219561
0.00052477244
0.0010061517
0.0016361515
0.0023714668
0.0031645898
0.0039711375
0.0047543754
0.0054869496
0.0061505167
0.0067341485
0.0072321596
0.0076417606
0.00014384626
9.7141241e-05
6.8710423e-05
5.0614349e-05
3.6996635e-05
2.5666678e-05
1.7372235e-05
9.8882096e-06
4.2641791e-06
0.00021335368
0.00030623989
0.00041779393
0.00053854265
0.00064555778
0.00072470904
0.00077461948
0.00081940249
0.00085888117
0.00094561423
0.0010406635
0.0011775556
0.0013275104
0.0014775775
0.0016115657
0.0017179377
0.0017789241
0.0017770962
0.00169557
0.0015259739
0.001273061
0.00096017999
0.00063002433
0.00034025315
0.00015355606
0.0001243256
0.00028694535
0.00064914727
0.0011924338
0.001878538
0.0026588879
0.0034838166
0.0043093229
0.0051006796
0.0058332845
0.0064916602
0.0070675138
0.0075574339
0.007960582
0.00020649108
0.00014383201
0.00010300007
7.6965709e-05
5.7881118e-05
4.153851e-05
2.7904355e-05
1.8355835e-05
1.0123175e-05
4.1314008e-06
0.00029581325
0.00041175871
0.00054690166
0.00067934729
0.00078608986
0.00086056666
0.00090830678
0.00096165753
0.0010213404
0.0011360257
0.0012579994
0.0014189831
0.0015860028
0.0017492185
0.0018921557
0.0019999895
0.0020506298
0.002023554
0.001901347
0.0016785402
0.001366554
0.000998451
0.00062763148
0.00032061652
0.00014432989
0.00015142223
0.00036930713
0.00079580233
0.0014024585
0.0021433181
0.0029654424
0.0038179921
0.0046581551
0.0054537282
0.0061831173
0.0068337766
0.0073999983
0.0078805308
0.0082763681
0.00028928429
0.00020686463
0.00015063477
0.00011276895
8.6371619e-05
6.4313087e-05
4.4607282e-05
2.8915661e-05
1.8470121e-05
9.8883807e-06
3.8565818e-06
0.00040309854
0.00054614671
0.00069927694
0.00083806222
0.0009436177
0.0010161084
0.0010656349
0.0011347934
0.0012178917
0.0013642521
0.0015121794
0.0016948629
0.0018797789
0.002058324
0.0022110358
0.002317566
0.0023514264
0.0022897364
0.0021159193
0.001829381
0.0014504275
0.0010236438
0.00061393557
0.00029604475
0.00013916559
0.00019173971
0.00047201142
0.00096663996
0.001637097
0.002430439
0.0032904202
0.0041660456
0.0050164369
0.0058123603
0.0065354145
0.0071759975
0.0077308859
0.0082008505
0.0085886051
0.0003974236
0.00028998471
0.00021438438
0.00016155541
0.00012361011
9.4560816e-05
6.8605722e-05
4.5850778e-05
2.8654869e-05
1.7853458e-05
9.504417e-06
3.4176679e-06
0.00054047575
0.00070733881
0.00087422366
0.0010188016
0.0011244591
0.0011970098
0.0012531808
0.0013430251
0.0014525714
0.0016315972
0.0018033886
0.0020087987
0.0022152413
0.0024119256
0.0025734074
0.0026733887
0.0026814384
0.002573439
0.0023354324
0.0019740294
0.0015207767
0.0010334296
0.0005887043
0.00026824821
0.00014102133
0.00024852848
0.0005977601
0.0011633384
0.0018969292
0.0027395837
0.0036329223
0.004526789
0.0053829239
0.0061754227
0.0068891942
0.007517518
0.0080595103
0.0085178361
0.0089117902
0.00053597422
0.00039814916
0.00029772688
0.00022590526
0.00017300544
0.00013262003
9.9731454e-05
7.0246917e-05
4.5201617e-05
2.7463136e-05
1.6870116e-05
8.5991062e-06
2.9658409e-06
0.00070728885
0.00089542495
0.0010765806
0.0012275697
0.0013334937
0.0014091043
0.0014760439
0.001590521
0.0017270307
0.0019369999
0.0021354687
0.0023680654
0.0026011134
0.0028170394
0.0029835792
0.0030689437
0.0030393807
0.0028711087
0.002554963
0.002107403
0.0015736338
0.0010259154
0.00055243179
0.00023966911
0.00015336281
0.00032520983
0.0007491362
0.0013872978
0.0021822275
0.003070179
0.0039918671
0.0048989369
0.0057563496
0.0065418073
0.0072435403
0.0078575748
0.0083852325
0.0088444716
0.0092530112
0.00070526119
0.00053581317
0.00040506837
0.00030900084
0.00023703966
0.00018167658
0.00013753383
0.00010124438
6.9136493e-05
4.3281102e-05
2.5667792e-05
1.5228631e-05
7.9502601e-06
2.5136682e-06
0.00090442815
0.001115929
0.0013122747
0.0014686434
0.0015760473
0.0016581852
0.0017390358
0.0018802843
0.0020406365
0.0022845659
0.0025158895
0.0027830839
0.0030463518
0.0032797305
0.0034446557
0.0035042465
0.0034224735
0.0031778196
0.0027685795
0.0022239747
0.0016052017
0.00099987444
0.00050648761
0.00021352354
0.00018009317
0.00042527053
0.00092851977
0.0016395993
0.0024929451
0.0034213904
0.0043660055
0.0052811406
0.0061354798
0.0069104698
0.0075975651
0.008195409
0.0087202976
0.0091881523
0.0096030353
0.00090691587
0.00070412163
0.00054009291
0.00041457878
0.00031867379
0.00024411754
0.00018489112
0.00013767729
9.9017822e-05
6.6281567e-05
4.036144e-05
2.3096466e-05
1.3940653e-05
6.8935575e-06
2.0793804e-06
0.0011379662
0.0013746741
0.0015849469
0.0017467616
0.0018583707
0.001949636
0.0020479965
0.0022087659
0.0023971296
0.0026816325
0.0029571218
0.003265033
0.0035587709
0.0038049374
0.003958276
0.0039777166
0.0038263269
0.0034872728
0.0029694684
0.0023179928
0.001612129
0.0009549701
0.00045322108
0.00019377267
0.0002254508
0.00055215441
0.0011380167
0.0019209644
0.0028286903
0.0037921319
0.0047539692
0.0056720597
0.0065191346
0.0072803727
0.0079503508
0.0085432276
0.0090723047
0.009542055
0.0099617379
0.0011473245
0.00090516406
0.00070416484
0.00054544175
0.00042096332
0.0003227738
0.00024421158
0.00018211517
0.00013313657
9.4571962e-05
6.1772318e-05
3.6431369e-05
2.0865076e-05
1.213781e-05
5.8208773e-06
1.8094922e-06
0.0014137908
0.0016746849
0.0018983446
0.0020682106
0.0021872637
0.0022911545
0.0023997676
0.0025741815
0.0028011802
0.0031429498
0.0034723711
0.0038234029
0.0041452815
0.0043961745
0.0045244991
0.0044860659
0.0042448903
0.0037918519
0.0031501068
0.002383763
0.0015918006
0.00089196003
0.00039601436
0.00018504573
0.00029389121
0.00070916019
0.0013793793
0.0022316944
0.0031887228
0.0041811246
0.0051543621
0.0060703891
0.0069061066
0.0076503997
0.0083147611
0.0089087293
0.0094360245
0.0099060028
0.010328965
0.0014329848
0.0011453199
0.0008995959
0.00070261496
0.00054581796
0.00042008056
0.00031831248
0.00023709437
0.00017377662
0.00012604767
8.7655118e-05
5.6051479e-05
3.2771596e-05
1.8175098e-05
1.0371014e-05
4.7725781e-06
1.5626476e-06
0.0017341714
0.0020182661
0.0022592798
0.0024417882
0.002572558
0.0026805645
0.0027868042
0.0029831641
0.00326869
0.0036849511
0.0040727036
0.0044673175
0.0048114213
0.0050554936
0.0051416418
0.0050241182
0.0046703832
0.004082705
0.0033024968
0.0024159779
0.0015426435
0.00081286722
0.00033930016
0.00019255961
0.00038996615
0.00089931913
0.0016538974
0.0025716408
0.0035720212
0.0045870114
0.0055657896
0.0064747409
0.0072950411
0.0080348198
0.0086984794
0.0092875578
0.0098112429
0.010279772
0.010704531
0.0017651146
0.001432329
0.0011326217
0.0008882903
0.00069351117
0.00053713469
0.00040908479
0.0003055852
0.00022369759
0.00016279027
0.00011564563
7.9490483e-05
5.0444693e-05
2.8710251e-05
1.5403886e-05
8.534688e-06
3.704475e-06
1.3382475e-06
0.0020991205
0.0024119545
0.0026781835
0.0028794893
0.0030138108
0.0031081935
0.0032136314
0.0034489527
0.0038199967
0.0043198189
0.0047692546
0.0052044665
0.0055615062
0.0057833585
0.0058061343
0.0055846867
0.0050932723
0.0043498732
0.0034184803
0.0024100892
0.0014644284
0.00072111922
0.00028854333
0.00022199251
0.00051815738
0.00112522
0.0019623244
0.002940282
0.0039774216
0.005008382
0.0059866921
0.0068834886
0.007702445
0.0084411755
0.0090973109
0.0096794762
0.010197688
0.010663085
0.011088222
0.0021420304
0.0017669597
0.0014121105
0.0011081725
0.0008657683
0.00067320968
0.00051672227
0.0003890293
0.00028605798
0.00020780481
0.00014760727
0.00010429135
7.1410633e-05
4.457253e-05
2.4314065e-05
1.273451e-05
6.7339041e-06
3.1326696e-06
1.0894072e-06
0.0025145463
0.0028676088
0.0031690061
0.0033838772
0.0034996411
0.0035736693
0.0036935838
0.0039933724
0.0044671387
0.00506135
0.005571858
0.0060418164
0.0063986292
0.0065783907
0.0065122048
0.006158402
0.005502291
0.004582538
0.0034901466
0.0023627443
0.0013585486
0.00062161181
0.00025015298
0.00027929438
0.00068263025
0.0013888757
0.0023049554
0.003336878
0.0044036298
0.0054435434
0.0064151496
0.007316294
0.0081355821
0.0088646605
0.0095110121
0.010084182
0.010595014
0.011055617
0.011479791
0.0025682786
0.0021458281
0.001739286
0.0013723956
0.0010674779
0.00082924472
0.0006395736
0.00048683019
0.00036198136
0.0002645271
0.00018685875
0.00013216852
9.3195143e-05
6.3165668e-05
3.7891063e-05
2.0294257e-05
1.0299462e-05
5.6535516e-06
2.3442298e-06
8.6969056e-07
0.0029933593
0.0034004249
0.0037374638
0.0039416039
0.004025084
0.0040877801
0.0042475691
0.0046294263
0.0052270161
0.0059210607
0.0064903651
0.0069853702
0.0073242302
0.0074369919
0.0072516194
0.0067336032
0.0058845296
0.0047693564
0.0035102943
0.0022722019
0.0012282585
0.00052075538
0.00023131115
0.00037037148
0.0008870224
0.0016917938
0.0026818026
0.0037604587
0.0048489098
0.00589028
0.0068750051
0.0077799946
0.0085881633
0.0093050396
0.0099392687
0.010501281
0.01100281
0.011456991
0.011878965
0.0030578294
0.0025734668
0.0021095986
0.0016822771
0.0013095342
0.0010094849
0.00077774707
0.00059644996
0.0004502335
0.00033391145
0.00023715386
0.00016687105
0.00011723875
8.2014589e-05
5.3740839e-05
3.1819378e-05
1.6733956e-05
8.7423421e-06
4.4960413e-06
2.0395028e-06
6.7137641e-07
0.0035507605
0.0040176689
0.0043705891
0.0045455557
0.0046003945
0.0046673583
0.0048857873
0.0053810269
0.006110801
0.0069115158
0.0075339657
0.0080398007
0.0083376273
0.008353035
0.0080134727
0.0072962162
0.0062256126
0.0048989208
0.0034730019
0.002138767
0.0010788827
0.00042638292
0.00023962053
0.00050079417
0.001134502
0.0020351613
0.0030925222
0.0042093995
0.0053107845
0.0063777616
0.0073725628
0.0082658504
0.0090599801
0.0097620069
0.010381659
0.010930301
0.011420597
0.011866785
0.01228544
0.0036240761
0.0030634057
0.0025284931
0.0020334498
0.001593413
0.0012246494
0.00093494862
0.00071740549
0.00054729695
0.00041404604
0.00029917954
0.00021240896
0.00014706584
0.00010255534
6.9445469e-05
4.5262415e-05
2.6587265e-05
1.4363061e-05
7.3102363e-06
3.8559837e-06
1.5439967e-06
5.0621331e-07
0.0041938527
0.0047102214
0.0050601862
0.0052065745
0.0052404521
0.0053419233
0.0056333355
0.0062561225
0.0071340181
0.0080458257
0.0087109525
0.0092080161
0.0094357329
0.0093175205
0.0087838032
0.0078297262
0.0065100201
0.004960387
0.0033742772
0.0019652403
0.0009178832
0.00034740084
0.00028272649
0.00067583548
0.0014279472
0.0024196836
0.0035358489
0.004681055
0.0058249597
0.0069117358
0.0078955249
0.0087737042
0.0095507594
0.010235133
0.010837668
0.011370681
0.011847832
0.012284526
0.012698885
0.0042738731
0.0036283197
0.0030089315
0.0024316195
0.0019151941
0.0014768736
0.0011216236
0.00085308513
0.00065233365
0.00050092366
0.00037057718
0.00026922107
0.00018680116
0.00012820453
8.6603602e-05
5.8842713e-05
3.8183037e-05
2.2947241e-05
1.2271259e-05
6.356407e-06
3.152583e-06
1.3009991e-06
3.7073612e-07
0.0049168646
0.0054688038
0.0058178848
0.0059408636
0.005974173
0.0061185555
0.0064999417
0.0072709291
0.0083126763
0.0093367545
0.010028282
0.010490681
0.010612618
0.010318033
0.0095452816
0.0083152267
0.0067216453
0.0049442035
0.0032127238
0.0017572387
0.00075461871
0.00029338376
0.00036835663
0.00090063845
0.0017696512
0.0028448157
0.0040091448
0.0052188772
0.0063967536
0.0074750978
0.0084438125
0.0093033467
0.010060089
0.010723883
0.011306676
0.01182178
0.012283904
0.012709723
0.013119
0.0050035731
0.0042736374
0.0035624152
0.002889409
0.0022808838
0.0017626708
0.0013401827
0.0010135268
0.00076886463
0.00059369912
0.00044719844
0.00033469674
0.0002369908
0.00016339155
0.00010873499
7.396702e-05
5.0138394e-05
3.31878e-05
1.9782834e-05
1.0756643e-05
5.4583292e-06
2.6936903e-06
1.0060777e-06
2.6703908e-07
0.0057128451
0.0063088621
0.0066631806
0.0067678871
0.0068085719
0.007008541
0.0075023629
0.0084458969
0.0096632956
0.01079586
0.011491224
0.011886018
0.011858973
0.011338105
0.010276915
0.0087317278
0.0068445651
0.0048430582
0.0029902097
0.0015231836
0.00060000262
0.00027462965
0.00050447718
0.0011797363
0.0021602991
0.0033082218
0.0045646927
0.0058281591
0.0070029306
0.0080678661
0.0090173072
0.0098544124
0.010587439
0.011227602
0.011787968
0.012282876
0.012728188
0.013141913
0.013545411
0.0058096261
0.004997719
0.0041931556
0.0034166099
0.0027019585
0.0020883904
0.0015891366
0.001202076
0.00090632038
0.00069627594
0.00052855189
0.00040488031
0.00029495592
0.00020858233
0.00013980473
9.4045464e-05
6.3751945e-05
4.3953662e-05
2.8823746e-05
1.7335709e-05
9.353566e-06
4.7446161e-06
2.2391142e-06
8.1762213e-07
1.8876091e-07
0.0065985208
0.0072525543
0.0076143919
0.0077007479
0.0077628103
0.0080239541
0.008666626
0.0098002504
0.011201351
0.012432918
0.013102919
0.013389207
0.013161167
0.012356469
0.010953921
0.0090567502
0.006864086
0.0046529253
0.002712242
0.0012741106
0.00046660168
0.00030234165
0.00069857647
0.0015156933
0.002598293
0.0038717204
0.0052085883
0.0064782191
0.0076436139
0.0086900424
0.0096157218
0.010426405
0.011132145
0.011745524
0.012280727
0.012753232
0.013180079
0.013580542
0.013977724
0.0067085594
0.0058002088
0.0049011115
0.0040165262
0.0031862209
0.0024635778
0.0018745864
0.001418868
0.0010692928
0.00081798538
0.00061874049
0.0004793871
0.00035752014
0.00026104553
0.00018049185
0.00012247888
8.2214081e-05
5.6420898e-05
3.8578353e-05
2.5321384e-05
1.5096726e-05
8.170174e-06
4.0732368e-06
1.8601101e-06
6.3098116e-07
1.3120285e-07
0.0075995487
0.0083201185
0.0086829013
0.0087521695
0.0088363084
0.0091918246
0.010012314
0.011352443
0.01294178
0.014256319
0.01486433
0.014991441
0.014500092
0.013346458
0.011547938
0.009267306
0.0067680972
0.0043738835
0.0023880668
0.0010239529
0.00036894859
0.0003876469
0.00095587789
0.0019082658
0.0031549502
0.0045436861
0.0059015857
0.0071692732
0.008318945
0.0093414469
0.010238625
0.011018676
0.011693412
0.012276761
0.012784131
0.01323211
0.013638872
0.014024999
0.014415531
0.0077264951
0.0066974937
0.0056886107
0.0046890931
0.0037356246
0.002894587
0.0022044962
0.0016699535
0.0012599293
0.00096424278
0.00072706871
0.00056254908
0.00042465582
0.00031806898
0.00022870117
0.00015981584
0.00010847304
7.3440283e-05
5.0099545e-05