/*--------------------------------*- C++ -*----------------------------------*\
| =========                 |                                                 |
| \\      /  F ield         | OpenFOAM: The Open Source CFD Toolbox           |
|  \\    /   O peration     | Version:  5.0                                   |
|   \\  /    A nd           | Web:      www.OpenFOAM.org                      |
|    \\/     M anipulation  |                                                 |
\*---------------------------------------------------------------------------*/
FoamFile
{
    version     2.0;
    format      ascii;
    class       volVectorField;
    location    "240";
    object      U;
}
// * * * * * * * * * * * * * * * * * * * * * * * * * * * * * * * * * * * * * //

dimensions      [0 1 -1 0 0 0 0];

internalField   nonuniform List<vector> 
9520
(
(1.0142867 0.00016643609 0)
(1.0143857 0.00048783322 0)
(1.0137918 0.00016426528 0)
(1.0145604 0.00078635462 0)
(1.0138927 0.00048246265 0)
(1.0136027 0.00016331553 0)
(1.0147946 0.0010614558 0)
(1.0140723 0.0007795036 0)
(1.0137031 0.00047913148 0)
(1.0132931 0.00016662375 0)
(1.0150737 0.0013125583 0)
(1.0143152 0.0010547533 0)
(1.0138829 0.00077426398 0)
(1.013394 0.00048778161 0)
(1.0130507 0.0001730895 0)
(1.015385 0.0015392725 0)
(1.0146076 0.0013085991 0)
(1.0141267 0.0010484558 0)
(1.0135747 0.00078797925 0)
(1.0131525 0.00050661272 0)
(1.0127716 0.00017895271 0)
(1.0157175 0.0017415181 0)
(1.0149368 0.0015399626 0)
(1.0144216 0.0013036622 0)
(1.0138191 0.0010678292 0)
(1.0133338 0.0008188734 0)
(1.012873 0.00052533069 0)
(1.0125141 0.00017991865 0)
(1.0160618 0.0019187685 0)
(1.0152923 0.0017487717 0)
(1.0147552 0.0015386912 0)
(1.0141149 0.0013300922 0)
(1.0135786 0.001111271 0)
(1.0130527 0.00085171104 0)
(1.0126141 0.00053052737 0)
(1.0122578 0.00017583811 0)
(1.016411 0.0020702902 0)
(1.0156662 0.0019353108 0)
(1.0151169 0.0017531422 0)
(1.0144518 0.0015746753 0)
(1.0138748 0.0013856624 0)
(1.0132954 0.0011601766 0)
(1.0127908 0.00086375996 0)
(1.0123533 0.0005202634 0)
(1.0120236 0.00016924203 0)
(1.0167613 0.0021946209 0)
(1.0160528 0.0021000539 0)
(1.0154971 0.001947031 0)
(1.014819 0.0018015503 0)
(1.0142129 0.0016433584 0)
(1.0135888 0.0014512343 0)
(1.0130302 0.0011821807 0)
(1.0125231 0.00085015092 0)
(1.0121144 0.00050102603 0)
(1.0118054 0.00016352559 0)
(1.0171139 0.0022872536 0)
(1.0164501 0.0022453705 0)
(1.0158867 0.0021212976 0)
(1.0152063 0.002010364 0)
(1.0145829 0.0018851226 0)
(1.0139231 0.0017274363 0)
(1.0133198 0.0014859172 0)
(1.0127546 0.001168508 0)
(1.0122768 0.00082017933 0)
(1.0118915 0.00048308948 0)
(1.0116018 0.00016068408 0)
(1.0174715 0.0023569205 0)
(1.0168606 0.0023789795 0)
(1.016277 0.0022814999 0)
(1.0156023 0.0022010885 0)
(1.0149753 0.0021107941 0)
(1.0142893 0.0019905242 0)
(1.0136489 0.0017772266 0)
(1.013035 0.0014774349 0)
(1.0124983 0.0011296202 0)
(1.0120463 0.00079097572 0)
(1.011684 0.00047315143 0)
(1.0114074 0.00016027841 0)
(1.0178205 0.0024003152 0)
(1.0172834 0.0025053621 0)
(1.0166547 0.0024352478 0)
(1.0159934 0.0023749689 0)
(1.0153801 0.0023192334 0)
(1.0146802 0.0022409775 0)
(1.014009 0.0020583146 0)
(1.0133525 0.0017778915 0)
(1.0127679 0.0014344471 0)
(1.012256 0.0010903535 0)
(1.0118313 0.00077393404 0)
(1.0114865 0.00047096271 0)
(1.0112197 0.00016004413 0)
(1.0181361 0.0024460053 0)
(1.017634 0.0026434603 0)
(1.0169648 0.0026004428 0)
(1.0163593 0.0025297308 0)
(1.0157861 0.0025063875 0)
(1.0150913 0.0024774869 0)
(1.0143938 0.0023308434 0)
(1.0136983 0.0020716271 0)
(1.0130737 0.0017349147 0)
(1.0125101 0.0013871468 0)
(1.01203 0.001067611 0)
(1.0116263 0.00076952739 0)
(1.0112962 0.00047047428 0)
(1.0110396 0.00015736423 0)
(1.0184553 0.0024561058 0)
(1.0179353 0.0028248975 0)
(1.0172192 0.002776486 0)
(1.0166966 0.0026607618 0)
(1.0161877 0.0026615173 0)
(1.0155244 0.0026940518 0)
(1.0148008 0.0025961847 0)
(1.0140649 0.0023607412 0)
(1.0134057 0.0020312895 0)
(1.0127993 0.0016825311 0)
(1.0122698 0.0013593699 0)
(1.0118137 0.0010616968 0)
(1.0114289 0.00076884305 0)
(1.011113 0.00046382236 0)
(1.0108704 0.00015054937 0)
(1.0187768 0.002533399 0)
(1.0182076 0.0029900716 0)
(1.0174939 0.0029269749 0)
(1.0170377 0.0027439331 0)
(1.0166122 0.0027706161 0)
(1.0159918 0.0028814395 0)
(1.0152306 0.0028569973 0)
(1.0144463 0.0026486986 0)
(1.0137549 0.0023242545 0)
(1.0131145 0.0019765722 0)
(1.0125429 0.0016512941 0)
(1.0120387 0.0013524068 0)
(1.0116052 0.0010604701 0)
(1.0112391 0.00075923484 0)
(1.0109401 0.00044532801 0)
(1.0107165 0.00013946676 0)
(1.0191261 0.0024893694 0)
(1.0184501 0.00322597 0)
(1.0176867 0.0030422416 0)
(1.017399 0.0027707732 0)
(1.0170657 0.0027942462 0)
(1.0165 0.0030387178 0)
(1.015685 0.0031217528 0)
(1.014837 0.0029430924 0)
(1.0141107 0.0026152358 0)
(1.0134469 0.0022684048 0)
(1.0128413 0.0019445852 0)
(1.0122939 0.0016445181 0)
(1.0118155 0.0013508693 0)
(1.0114049 0.0010477283 0)
(1.0110595 0.00073059566 0)
(1.0107822 0.00041381375 0)
(1.0105812 0.000125506 0)
(1.0194458 0.002744615 0)
(1.0186433 0.003422079 0)
(1.0178125 0.0031424419 0)
(1.017713 0.0027269606 0)
(1.0175093 0.002781473 0)
(1.0170435 0.0031548336 0)
(1.0161755 0.0033951916 0)
(1.0152313 0.0032534656 0)
(1.0144615 0.0029075459 0)
(1.0137873 0.0025561436 0)
(1.0131577 0.0022385947 0)
(1.0125723 0.0019409471 0)
(1.0120522 0.0016439666 0)
(1.0116003 0.0013343092 0)
(1.0112156 0.0010105923 0)
(1.0108942 0.00067977536 0)
(1.010643 0.00037287322 0)
(1.0104655 0.00011094946 0)
(1.0198543 0.0025088178 0)
(1.0188546 0.0038666752 0)
(1.017757 0.0032977212 0)
(1.0178999 0.002650381 0)
(1.0180357 0.0027081966 0)
(1.0175846 0.0032585032 0)
(1.0166838 0.0037031723 0)
(1.0156125 0.0035980164 0)
(1.0147946 0.0032044654 0)
(1.0141261 0.0028361196 0)
(1.0134856 0.0025306714 0)
(1.0128685 0.0022427809 0)
(1.012308 0.0019442659 0)
(1.0118169 0.0016250036 0)
(1.0113967 0.0012877744 0)
(1.0110411 0.00094336837 0)
(1.010748 0.00061227484 0)
(1.0105242 0.00032912924 0)
(1.0103676 9.8005062e-05 0)
(1.0200677 0.0031919253 0)
(1.0188251 0.0041304586 0)
(1.0175032 0.0033484031 0)
(1.0179623 0.0024258014 0)
(1.0185759 0.0025403466 0)
(1.018213 0.0033442622 0)
(1.0171804 0.0040544813 0)
(1.0159609 0.004002707 0)
(1.0150857 0.0035171877 0)
(1.0144473 0.0031019401 0)
(1.0138189 0.0028147004 0)
(1.0131797 0.0025491231 0)
(1.0125784 0.0022550972 0)
(1.0120468 0.0019252505 0)
(1.0115934 0.0015700804 0)
(1.0112092 0.0012052387 0)
(1.0108849 0.00084965682 0)
(1.0106237 0.00053935305 0)
(1.0104242 0.00028918537 0)
(1.0102844 8.7987843e-05 0)
(1.0203729 0.0025837148 0)
(1.0189983 0.0049705875 0)
(1.0169853 0.0036924759 0)
(1.0178987 0.0020823027 0)
(1.0192309 0.0021742097 0)
(1.0189949 0.0034409679 0)
(1.0177014 0.0044627509 0)
(1.0162328 0.0044845951 0)
(1.0153017 0.0038486755 0)
(1.0147317 0.0033497565 0)
(1.0141507 0.003081195 0)
(1.0135055 0.0028557589 0)
(1.0128619 0.0025785795 0)
(1.0122848 0.0022403972 0)
(1.0117967 0.0018630355 0)
(1.0113866 0.0014719192 0)
(1.0110411 0.0010887233 0)
(1.0107519 0.00074435164 0)
(1.0105209 0.00047202532 0)
(1.0103401 0.00025715719 0)
(1.0102122 8.1053802e-05 0)
(1.0200964 0.0038685916 0)
(1.0185373 0.0053521055 0)
(1.0162432 0.0035698444 0)
(1.017673 0.0016110552 0)
(1.0199208 0.0016810868 0)
(1.0199875 0.0034753812 0)
(1.0183034 0.0049880007 0)
(1.0164315 0.0050591746 0)
(1.0154027 0.0042121985 0)
(1.0149388 0.0035519442 0)
(1.0144724 0.0033131721 0)
(1.0138485 0.0031548615 0)
(1.0131614 0.0029160055 0)
(1.0125287 0.002575694 0)
(1.012 0.0021727438 0)
(1.0115644 0.001748467 0)
(1.0112024 0.0013319619 0)
(1.0108963 0.00095184608 0)
(1.0106434 0.00064551136 0)
(1.0104361 0.00041661423 0)
(1.0102684 0.00023401452 0)
(1.0101477 7.6522795e-05 0)
(1.0198121 0.0027994273 0)
(1.0186305 0.0066364404 0)
(1.0150046 0.0043779985 0)
(1.0171919 0.00071851342 0)
(1.0208096 0.00079663495 0)
(1.0212208 0.0035673172 0)
(1.0189977 0.0056745408 0)
(1.0165164 0.0057805524 0)
(1.0153787 0.0045824854 0)
(1.0151038 0.0037196427 0)
(1.0147729 0.0034757277 0)
(1.0142173 0.0034278082 0)
(1.0134875 0.0032666308 0)
(1.0127802 0.0029383967 0)
(1.0121975 0.0025058136 0)
(1.0117343 0.002040289 0)
(1.011359 0.0015828945 0)
(1.0110437 0.0011623931 0)
(1.0107789 0.00081937124 0)
(1.010556 0.00056440483 0)
(1.0103652 0.0003744096 0)
(1.0102062 0.0002184099 0)
(1.0100889 7.3425458e-05 0)
(1.0187238 0.0047535094 0)
(1.0167373 0.0071724365 0)
(1.0136942 0.0038838215 0)
(1.0164286 3.9936677e-05 0)
(1.0216113 -0.0002185502 0)
(1.0227692 0.0034411539 0)
(1.0198389 0.0066213001 0)
(1.0164452 0.0067066467 0)
(1.0151061 0.0049932947 0)
(1.0151488 0.0037569346 0)
(1.0151191 0.0035570106 0)
(1.0146422 0.0036515221 0)
(1.0138604 0.003624981 0)
(1.0130472 0.0033373962 0)
(1.0123855 0.0028722983 0)
(1.0118876 0.0023530754 0)
(1.0115019 0.0018451273 0)
(1.0111835 0.0013785841 0)
(1.0109158 0.00099411637 0)
(1.0106859 0.00070771338 0)
(1.0104852 0.00050286173 0)
(1.0103049 0.00034386156 0)
(1.0101509 0.00020795283 0)
(1.0100344 7.0856063e-05 0)
(1.0191709 0.0037755538 0)
(1.0142699 0.0087725623 0)
(1.0107139 0.0055445599 0)
(1.0152741 -0.0017413844 0)
(1.0230036 -0.0018666641 0)
(1.0246792 0.0036019425 0)
(1.0207975 0.0078502482 0)
(1.0161736 0.0079437973 0)
(1.0145279 0.0054188239 0)
(1.0150268 0.0036676365 0)
(1.0155313 0.0034520724 0)
(1.0151375 0.0037733551 0)
(1.0143204 0.0039913589 0)
(1.0133457 0.003786998 0)
(1.0125622 0.003286158 0)
(1.012015 0.0026947533 0)
(1.0116211 0.0021218176 0)
(1.0113066 0.0016021016 0)
(1.0110431 0.0011720676 0)
(1.0108157 0.0008496296 0)
(1.0106131 0.00062071918 0)
(1.0104272 0.00045668776 0)
(1.0102532 0.00032262638 0)
(1.0101006 0.00020011499 0)
(1.0099837 6.8094951e-05 0)
(1.0180513 0.006125685 0)
(1.014119 0.0098304585 0)
(1.0075983 0.0043493952 0)
(1.0135856 -0.0026667304 0)
(1.0236855 -0.0035987197 0)
(1.0270472 0.0030723161 0)
(1.0220074 0.0095714658 0)
(1.0156188 0.0095444037 0)
(1.0135284 0.0059454069 0)
(1.0146571 0.0033347273 0)
(1.0159541 0.003140305 0)
(1.0157795 0.0038333942 0)
(1.0148678 0.0043420293 0)
(1.0137039 0.0043093546 0)
(1.0127275 0.0037712967 0)
(1.0121041 0.003075856 0)
(1.0117049 0.0024153958 0)
(1.0114038 0.0018335245 0)
(1.0111522 0.0013546447 0)
(1.0109341 0.0009926054 0)
(1.0107386 0.0007339217 0)
(1.0105566 0.00055425734 0)
(1.0103794 0.00042084336 0)
(1.0102085 0.00030770649 0)
(1.0100542 0.00019257188 0)
(1.0099368 6.468247e-05 0)
(1.0119365 0.0050410281 0)
(1.013232 0.011952743 0)
(1.0049516 0.006524768 0)
(1.0113987 -0.005665965 0)
(1.0253286 -0.0062777197 0)
(1.0295365 0.0035580574 0)
(1.0232312 0.011624458 0)
(1.0147109 0.011622872 0)
(1.0120123 0.006498302 0)
(1.0139542 0.00277968 0)
(1.0163751 0.0024668957 0)
(1.0166667 0.0037924065 0)
(1.0155315 0.0047305175 0)
(1.0141056 0.0049398153 0)
(1.0128788 0.0043622111 0)
(1.0121397 0.0035145175 0)
(1.0117373 0.0027276734 0)
(1.0114651 0.0020700213 0)
(1.0112364 0.0015416187 0)
(1.0110331 0.0011387631 0)
(1.0108506 0.00084588559 0)
(1.0106807 0.00064227749 0)
(1.0105131 0.00050151733 0)
(1.0103406 0.00039199383 0)
(1.0101696 0.00029458885 0)
(1.0100116 0.00018329317 0)
(1.0098942 6.0444252e-05 0)
(0.99873086 0.0083020343 0)
(1.0001478 0.012905091 0)
(1.0020174 0.0051859924 0)
(1.0091702 -0.0073197817 0)
(1.0260829 -0.0086587489 0)
(1.031818 0.0022397342 0)
(1.0249103 0.014624434 0)
(1.0132204 0.014318419 0)
(1.00976 0.0072189995 0)
(1.0128316 0.0018079051 0)
(1.0168124 0.0014002207 0)
(1.0178448 0.0035078009 0)
(1.0164766 0.0051832791 0)
(1.0145462 0.0057082915 0)
(1.0129915 0.0051126105 0)
(1.0120902 0.0040329638 0)
(1.0116964 0.0030603454 0)
(1.0114783 0.0023057028 0)
(1.0112902 0.0017281854 0)
(1.0111083 0.0012887153 0)
(1.0109413 0.00096027333 0)
(1.0107888 0.00072568252 0)
(1.0106395 0.00056675083 0)
(1.0104812 0.00045590162 0)
(1.0103104 0.00036659956 0)
(1.0101357 0.00027804354 0)
(1.0099735 0.00017094576 0)
(1.0098563 5.5484869e-05 0)
(0.9854684 0.0084394473 0)
(0.98312016 0.015402806 0)
(0.9897454 0.0078885525 0)
(1.0069208 -0.011331638 0)
(1.0286022 -0.012626619 0)
(1.0346835 0.0033564347 0)
(1.0257632 0.017904463 0)
(1.0111359 0.017653361 0)
(1.006651 0.0080537149 0)
(1.0111329 0.00049355308 0)
(1.0172494 -0.00033977376 0)
(1.0194155 0.0029725596 0)
(1.0178028 0.0056887285 0)
(1.0151468 0.0066902649 0)
(1.0130184 0.0060529767 0)
(1.0119256 0.0046685251 0)
(1.011546 0.0034145534 0)
(1.0114263 0.0025274636 0)
(1.011309 0.0019038811 0)
(1.0111592 0.0014390308 0)
(1.0110076 0.0010798662 0)
(1.0108721 0.00081024598 0)
(1.0107465 0.00062271792 0)
(1.0106134 0.00049891024 0)
(1.0104601 0.00041205549 0)
(1.0102879 0.00033939211 0)
(1.0101066 0.00025522413 0)
(1.0099406 0.00015573064 0)
(1.0098233 5.0241363e-05 0)
(0.97100882 0.011065457 0)
(0.96859905 0.016949347 0)
(0.97608374 0.0050384008 0)
(1.000925 -0.013167594 0)
(1.029783 -0.015651315 0)
(1.0395749 0.0018120448 0)
(1.0255841 0.022630568 0)
(1.0075595 0.021993784 0)
(1.0022814 0.0090269982 0)
(1.0087873 -0.001502147 0)
(1.0176885 -0.0026876952 0)
(1.0214659 0.0019390311 0)
(1.0196522 0.0063055831 0)
(1.0159679 0.0079828492 0)
(1.0129688 0.0072726103 0)
(1.011579 0.0054486424 0)
(1.0112407 0.0037891594 0)
(1.0112833 0.002715452 0)
(1.0112877 0.0020481673 0)
(1.01119 0.001580352 0)
(1.0110525 0.0012051755 0)
(1.010928 0.00090170174 0)
(1.0108242 0.00067724227 0)
(1.0107229 0.00052754019 0)
(1.0106015 0.00043265015 0)
(1.0104497 0.00036681302 0)
(1.0102725 0.00030668556 0)
(1.0100828 0.0002273307 0)
(1.009913 0.0001395258 0)
(1.0097948 4.5400014e-05 0)
(0.95473487 0.012086058 5.2790029e-24)
(0.95270294 0.018395948 0)
(0.96311611 0.0057942557 0)
(0.99431102 -0.019445183 0)
(1.0298106 -0.021014257 0)
(1.042087 0.0033218737 0)
(1.0279265 0.026786542 0)
(1.0026682 0.026808084 0)
(0.99651552 0.010285819 0)
(1.005515 -0.0040475341 0)
(1.0181899 -0.0061255045 0)
(1.0241627 0.00049911049 0)
(1.022154 0.0069368669 0)
(1.0171071 0.0097235643 0)
(1.0128219 0.0088923582 0)
(1.0109483 0.0064192717 0)
(1.0107191 0.0041848429 0)
(1.0110127 0.0028354738 0)
(1.0112214 0.0021297519 0)
(1.0112104 0.0016940734 0)
(1.011087 0.0013330051 0)
(1.0109599 0.0010059381 0)
(1.0108683 0.00073896609 0)
(1.0107977 0.0005506948 0)
(1.010717 0.0004340323 0)
(1.0106028 0.00036493635 0)
(1.0104491 0.00031729406 0)
(1.0102631 0.00026627952 0)
(1.0100654 0.00019886412 0)
(1.0098903 0.00012469852 0)
(1.0097702 4.1661392e-05 0)
(0.93615603 0.014360907 -3.1253072e-24)
(0.93517645 0.020215553 -5.5133236e-24)
(0.94963141 0.0021704113 0)
(0.98577726 -0.023654867 0)
(1.0273617 -0.024574281 0)
(1.042137 -0.00081491783 0)
(1.0364183 0.034207191 0)
(0.99893778 0.032350908 0)
(0.98909079 0.01134292 0)
(1.0013887 -0.0075603559 0)
(1.0186584 -0.010434068 0)
(1.0276013 -0.0017930317 0)
(1.0255295 0.0077621835 0)
(1.0186342 0.012015437 0)
(1.0125549 0.011089281 0)
(1.00994 0.0076452866 0)
(1.0098682 0.0045941913 0)
(1.0105685 0.0028424451 0)
(1.0111028 0.0021004502 0)
(1.0112377 0.0017511957 0)
(1.01113 0.0014546596 0)
(1.01098 0.0011280081 0)
(1.0108796 0.00081919172 0)
(1.0108301 0.00057957438 0)
(1.0107924 0.00042434039 0)
(1.010728 0.00033696263 0)
(1.0106173 0.00029054309 0)
(1.0104578 0.0002592721 0)
(1.0102605 0.00022110728 0)
(1.0100537 0.00017299519 0)
(1.0098716 0.00011312237 0)
(1.0097483 3.9556707e-05 0)
(0.91608997 0.01616237 3.1376224e-24)
(0.91579623 0.021950882 2.1930741e-23)
(0.93272675 0.001138481 0)
(0.97638305 -0.029255224 0)
(1.0195468 -0.029601783 0)
(1.038147 0.0021396123 0)
(1.0342601 0.0395463 0)
(0.99837401 0.040165938 0)
(0.98088943 0.012960836 0)
(0.99596826 -0.012144685 0)
(1.0193357 -0.016339354 0)
(1.0319532 -0.0046422803 0)
(1.0299124 0.0085189636 0)
(1.0206962 0.015084731 0)
(1.0121138 0.014022383 0)
(1.0084208 0.0092629929 0)
(1.0085496 0.0049768136 0)
(1.0098821 0.0026852728 0)
(1.0109184 0.0018941631 0)
(1.0112836 0.0017051663 0)
(1.0112089 0.0015546619 0)
(1.011009 0.0012747939 0)
(1.0108665 0.0009332039 0)
(1.0108163 0.00062971139 0)
(1.0108161 0.00041549894 0)
(1.0108088 0.00029005014 0)
(1.0107571 0.00022944011 0)
(1.0106457 0.00020715781 0)
(1.0104754 0.00019663137 0)
(1.0102647 0.00018006706 0)
(1.0100466 0.00015228413 0)
(1.0098556 0.00010617575 0)
(1.0097278 3.9389617e-05 0)
(0.89579905 0.01812652 0)
(0.89579762 0.023872354 -2.1967232e-23)
(0.9143636 -0.0015793011 0)
(0.96212109 -0.03459312 0)
(1.0097848 -0.03172187 0)
(1.0266317 0.0016781357 0)
(1.0121077 0.047752112 0)
(0.98769149 0.049515537 0)
(0.97028605 0.014335811 0)
(0.9895797 -0.017662052 0)
(1.0197865 -0.023291687 0)
(1.0372792 -0.0088286233 0)
(1.0355722 0.0096278437 0)
(1.0233273 0.019037043 0)
(1.01145 0.017943666 0)
(1.006231 0.011338948 0)
(1.0066 0.0053631958 0)
(1.0088533 0.0022489207 0)
(1.010655 0.0014166829 0)
(1.0114004 0.0015141253 0)
(1.0113433 0.0016095128 0)
(1.0110787 0.0014516897 0)
(1.0108467 0.001101457 0)
(1.0107576 0.00072214588 0)
(1.0107783 0.00042423592 0)
(1.0108297 0.00023550374 0)
(1.0108498 0.00014092067 0)
(1.0108049 0.00011264251 0)
(1.0106858 0.0001210331 0)
(1.010501 0.00013739816 0)
(1.0102746 0.0001460869 0)
(1.0100429 0.00013913619 0)
(1.0098411 0.00010469922 0)
(1.0097079 4.1238851e-05 0)
(0.87559755 0.019950357 -2.7195427e-24)
(0.87633161 0.025649202 0)
(0.89522785 -0.0039102769 -3.4475941e-23)
(0.94507061 -0.039941322 0)
(0.99656882 -0.036457153 0)
(1.0138188 0.0071223536 0)
(0.99193507 0.055635931 0)
(0.96413601 0.057851197 0)
(0.95678523 0.018433604 0)
(0.98100258 -0.024836415 0)
(1.0203607 -0.032178877 0)
(1.0434539 -0.013456644 0)
(1.0424124 0.010503864 0)
(1.0266955 0.024215068 0)
(1.0104232 0.023081469 0)
(1.0031356 0.014086943 0)
(1.0038266 0.0056677497 0)
(1.0073629 0.0014640993 0)
(1.0102902 0.00052888342 0)
(1.0116233 0.0010580245 0)
(1.0116609 0.0016049831 0)
(1.0112409 0.0016562416 0)
(1.01085 0.0013440794 0)
(1.0106629 0.00088564469 0)
(1.0106726 0.00047428103 0)
(1.010775 0.00018959397 0)
(1.0108764 3.3398654e-05 0)
(1.0109169 -1.913038e-05 0)
(1.0108694 -5.3417808e-06 0)
(1.0107363 3.8851245e-05 0)
(1.0105332 8.786148e-05 0)
(1.0102891 0.00012248646 0)
(1.0100417 0.00013465385 0)
(1.009828 0.00010876555 0)
(1.0096873 4.5117839e-05 0)
(0.85650717 0.021504856 -4.832252e-24)
(0.85798867 0.027381735 4.4070084e-23)
(0.87633369 -0.0065710568 3.4465279e-23)
(0.92619711 -0.045594781 3.4298404e-23)
(0.97988947 -0.040600467 -1.2013375e-22)
(0.99884993 0.0088985342 0)
(0.97480378 0.065163746 0)
(0.9440874 0.06522255 0)
(0.9411494 0.019930158 0)
(0.9702965 -0.032366438 0)
(1.0201441 -0.042091577 0)
(1.050442 -0.020015712 0)
(1.0502813 0.012087008 0)
(1.0304939 0.030722231 0)
(1.0089423 0.029705339 0)
(0.99889661 0.017579795 0)
(0.9999709 0.0059733456 0)
(1.0052647 0.00012009857 0)
(1.009799 -0.00088566707 0)
(1.0120035 0.00021984128 0)
(1.0122392 0.0014601262 0)
(1.0115593 0.001877037 0)
(1.0109315 0.0016935113 0)
(1.0105486 0.0011541999 0)
(1.0104949 0.00059679815 0)
(1.0106308 0.00017493623 0)
(1.0108166 -7.8648895e-05 0)
(1.0109588 -0.00018254406 0)
(1.0110078 -0.00018012948 0)
(1.01095 -0.00011788615 0)
(1.0107961 -3.1277855e-05 0)
(1.0105705 5.1992431e-05 0)
(1.0103065 0.00011190023 0)
(1.010042 0.00013718194 0)
(1.0098143 0.00011852334 0)
(1.0096653 5.0859979e-05 0)
(0.83961822 0.022739793 9.5137483e-24)
(0.84170895 0.028831141 -6.6186702e-23)
(0.85854916 -0.009087279 0)
(0.90622081 -0.051111173 6.2808705e-23)
(0.96019671 -0.04445466 1.195481e-22)
(0.98200677 0.010173953 1.6429221e-22)
(0.95683765 0.073987375 8.6094699e-23)
(0.92605311 0.070577943 0)
(0.92529064 0.021623888 0)
(0.96098521 -0.043014814 0)
(1.0201432 -0.054853553 0)
(1.0589419 -0.026111186 0)
(1.0590989 0.01335696 0)
(1.0342852 0.039155261 0)
(1.0064288 0.038180231 0)
(0.99315501 0.022056538 0)
(0.99477385 0.0061038944 0)
(1.0024024 -0.0018190755 0)
(1.0091284 -0.0030820746 0)
(1.0126118 -0.0011241149 0)
(1.0131704 0.001099711 0)
(1.0121918 0.0021748641 0)
(1.0111125 0.0021564951 0)
(1.0104559 0.0015881371 0)
(1.0102433 0.00083447285 0)
(1.0103797 0.00021994676 0)
(1.010649 -0.00017787194 0)
(1.0109083 -0.00036863238 0)
(1.0110756 -0.00040062469 0)
(1.0111206 -0.00033355476 0)
(1.0110438 -0.00021590969 0)
(1.0108635 -8.4156426e-05 0)
(1.0106116 3.2546627e-05 0)
(1.0103232 0.0001148201 0)
(1.0100408 0.00015229877 0)
(1.009799 0.00013402943 0)
(1.0096409 5.8193166e-05 0)
(0.82602119 0.02368254 6.964162e-25)
(0.82829015 0.0299903 1.4541872e-23)
(0.84257851 -0.011546192 -7.8673848e-24)
(0.88622088 -0.056289007 -5.3132338e-23)
(0.9390331 -0.048923559 -1.0064266e-22)
(0.96164448 0.013138871 1.5909461e-22)
(0.93970347 0.081313978 1.0374774e-22)
(0.90748734 0.079375686 3.1167028e-24)
(0.90939194 0.017754069 0)
(0.95123095 -0.053261101 0)
(1.020863 -0.0691133 0)
(1.0707029 -0.037451939 0)
(1.0717515 0.015940235 0)
(1.0380434 0.049428844 0)
(1.0021549 0.048541421 0)
(0.98549043 0.02767419 0)
(0.98784678 0.006155121 0)
(0.99859453 -0.0047174345 0)
(1.0082497 -0.0061616976 0)
(1.0135143 -0.0032102733 0)
(1.0146001 0.00045064448 0)
(1.0132664 0.0025085462 0)
(1.011521 0.0028431797 0)
(1.0103802 0.0022261733 0)
(1.0099304 0.0012511883 0)
(1.0100049 0.00036758164 0)
(1.0103479 -0.00024077187 0)
(1.0107387 -0.00056519412 0)
(1.0110493 -0.00066256749 0)
(1.011224 -0.00060947867 0)
(1.0112522 -0.00046950979 0)
(1.0111472 -0.00029238061 0)
(1.0109362 -0.00011657688 0)
(1.0106541 3.0925925e-05 0)
(1.0103415 0.00013231627 0)
(1.0100383 0.00017687593 0)
(1.0097814 0.0001544891 0)
(1.0096137 6.6738865e-05 0)
(0.8159214 0.024204777 -4.1739937e-24)
(0.81826341 0.030751828 -4.1412149e-25)
(0.82960226 -0.013668881 0)
(0.86669116 -0.061010784 1.7822453e-23)
(0.9165892 -0.052826962 -7.8056292e-23)
(0.94070757 0.014771278 0)
(0.91993757 0.090037111 -3.6683633e-22)
(0.89089597 0.086991357 -3.5565967e-22)
(0.89126747 0.020292659 0)
(0.94380791 -0.066480536 0)
(1.0196009 -0.084549344 0)
(1.0791173 -0.044797233 0)
(1.0900604 0.01625169 0)
(1.0468094 0.061665999 0)
(0.99690532 0.061265796 0)
(0.97513724 0.034270353 0)
(0.97896385 0.0059394028 0)
(0.99361021 -0.0085638578 0)
(1.0071031 -0.010556817 0)
(1.0147968 -0.0061372784 0)
(1.0166946 -0.0006667621 0)
(1.0149554 0.0028943566 0)
(1.0122981 0.0038173538 0)
(1.0103736 0.0031699014 0)
(1.0095438 0.0019187767 0)
(1.0094829 0.00066311008 0)
(1.0098842 -0.00023720439 0)
(1.0104206 -0.0007579416 0)
(1.0109017 -0.00096051798 0)
(1.0112365 -0.00094452605 0)
(1.0113995 -0.00079576879 0)
(1.0113984 -0.00057882947 0)
(1.011258 -0.0003436093 0)
(1.011011 -0.00012663334 0)
(1.0106961 4.7081941e-05 0)
(1.0103576 0.00016317466 0)
(1.0100332 0.00020957786 0)
(1.0097607 0.00017896707 0)
(1.0095834 7.6121494e-05 0)
(0.81070089 0.024313273 0)
(0.81249089 0.031155254 0)
(0.82000454 -0.015594484 4.2863351e-25)
(0.84949445 -0.064983479 0)
(0.89357177 -0.05654951 3.0818857e-24)
(0.91798632 0.017025004 1.8016002e-22)
(0.90081649 0.097878318 5.8872872e-22)
(0.87339524 0.09552743 -1.5842838e-22)
(0.87447169 0.023114527 0)
(0.92883238 -0.078420239 0)
(1.0178208 -0.097992126 0)
(1.0807337 -0.060321167 0)
(1.0973099 0.018017922 0)
(1.0620844 0.07524963 0)
(0.99578771 0.075833257 0)
(0.96231328 0.042220747 0)
(0.96751977 0.0052931498 0)
(0.98738103 -0.01385102 0)
(1.0056302 -0.016225152 0)
(1.016541 -0.010340903 0)
(1.0196494 -0.0022871008 0)
(1.0174608 0.0032504962 0)
(1.0135982 0.0051843403 0)
(1.010534 0.0045605542 0)
(1.0090428 0.0029095087 0)
(1.0087984 0.0011972656 0)
(1.009215 -0.00013435893 0)
(1.0099169 -0.00093458639 0)
(1.0106024 -0.0012913869 0)
(1.0111324 -0.0013399176 0)
(1.0114629 -0.0011970927 0)
(1.0115961 -0.0009483932 0)
(1.0115551 -0.0006562298 0)
(1.0113726 -0.00036698082 0)
(1.0110859 -0.00011413723 0)
(1.0107375 8.1613721e-05 0)
(1.0103711 0.00020598338 0)
(1.0100248 0.00024913923 0)
(1.0097368 0.00020637917 0)
(1.00955 8.5954721e-05 0)
(0.81099354 0.0312192 -5.9553961e-25)
(0.81068219 0.024128607 0)
(0.8137598 -0.017012814 -8.9149737e-24)
(0.83541432 -0.068154249 -4.8617228e-24)
(0.87166561 -0.059778327 -1.7615744e-23)
(0.89501732 0.018911347 7.1594113e-24)
(0.88081806 0.10557294 4.8765723e-25)
(0.85698126 0.10367451 -2.5258086e-22)
(0.85750477 0.026055923 1.6075578e-22)
(0.91140406 -0.086978174 0)
(1.0075217 -0.1151455 -1.0692918e-21)
(1.0783181 -0.063699185 0)
(1.0971621 0.014824779 0)
(1.0780603 0.093022398 0)
(0.99768432 0.094011909 0)
(0.94924238 0.051529269 0)
(0.95340683 0.0043005249 0)
(0.97950819 -0.020599102 0)
(1.0038712 -0.023845413 0)
(1.0188212 -0.015739771 0)
(1.0236702 -0.0047841834 0)
(1.0210606 0.0036686559 0)
(1.0155951 0.007013971 0)
(1.0109497 0.006572099 0)
(1.0084476 0.0043818985 0)
(1.0078608 0.002018007 0)
(1.0082949 0.00012258347 0)
(1.0091804 -0.0010682581 0)
(1.0101136 -0.0016524877 0)
(1.0108835 -0.0018003408 0)
(1.0114194 -0.0016792844 0)
(1.0117192 -0.0014060988 0)
(1.0118074 -0.001060703 0)
(1.0117177 -0.00069886095 0)
(1.0114881 -0.00036213875 0)
(1.0111592 -7.9335938e-05 0)
(1.0107759 0.00013226481 0)
(1.0103811 0.00025876206 0)
(1.0100127 0.0002933342 0)
(1.0097095 0.00023546428 0)
(1.0095135 9.5940558e-05 0)
(0.8111782 -0.017721369 7.9521874e-24)
(0.81522129 0.03110075 0)
(0.81689419 0.023491332 -6.0615246e-24)
(0.8225252 -0.070432452 4.8583178e-24)
(0.85224977 -0.062136422 1.1847964e-23)
(0.87281259 0.020553256 3.2840883e-22)
(0.86192163 0.11237255 -5.6110329e-22)
(0.84173866 0.11142198 -5.546157e-23)
(0.84183272 0.029012022 7.5845668e-23)
(0.89329039 -0.09695975 7.1571536e-23)
(0.99030024 -0.13057384 -1.1798223e-21)
(1.0684437 -0.07789114 1.1170974e-21)
(1.0903949 0.020886528 0)
(1.0663408 0.10888208 0)
(0.99146899 0.11715638 0)
(0.93569026 0.064281287 0)
(0.93608437 0.0021150299 0)
(0.97032133 -0.029232345 0)
(1.0016102 -0.033097805 0)
(1.0217475 -0.023103672 0)
(1.0289809 -0.0080154281 0)
(1.0260108 0.0039103601 0)
(1.0185499 0.0094978718 0)
(1.0117043 0.0093843485 0)
(1.0077616 0.0065324069 0)
(1.0065816 0.0032313741 0)
(1.007045 0.00060215791 0)
(1.0081419 -0.0011629076 0)
(1.0093899 -0.0020490396 0)
(1.0104579 -0.0023350872 0)
(1.0112459 -0.002252437 0)
(1.0117486 -0.0019605823 0)
(1.0119962 -0.0015636875 0)
(1.0120275 -0.0011297284 0)
(1.0118824 -0.00070639209 0)
(1.011602 -0.00032974664 0)
(1.0112296 -2.3484948e-05 0)
(1.0108103 0.00019625054 0)
(1.0103868 0.00031913274 0)
(1.0099967 0.00034093111 0)
(1.0096787 0.00026558786 0)
(1.0094741 0.00010584644 0)
(0.81421906 -0.07157434 5.2797019e-24)
(0.8154314 -0.017924053 2.1554854e-23)
(0.82581228 0.030558247 0)
(0.82671362 0.022442282 -9.8966922e-25)
(0.83366727 -0.06400855 -4.3147312e-24)
(0.8527726 0.021983053 -1.457027e-22)
(0.84479545 0.11812368 0)
(0.82869744 0.11822676 5.5078257e-23)
(0.82836402 0.031959676 5.9461483e-24)
(0.87503246 -0.10698429 -7.0639051e-23)
(0.97086749 -0.14601178 1.2710633e-21)
(1.0533422 -0.0946675 1.2301296e-21)
(1.0773372 0.022878212 0)
(1.0371299 0.12798034 0)
(0.97213167 0.14027431 0)
(0.91937676 0.079331137 0)
(0.9170382 0.0010239538 0)
(0.95864084 -0.040175542 0)
(0.99923414 -0.044920626 0)
(1.0252506 -0.031899676 0)
(1.0357756 -0.012768297 0)
(1.0327012 0.0042765064 0)
(1.0226857 0.012653952 0)
(1.0129406 0.01326827 0)
(1.0069536 0.0095658619 0)
(1.0048907 0.0050069324 0)
(1.005315 0.00131792 0)
(1.0067197 -0.0011588789 0)
(1.0083647 -0.0024874461 0)
(1.0098184 -0.0029686626 0)
(1.0109202 -0.0029359655 0)
(1.0116673 -0.0026252128 0)
(1.0121057 -0.0021748392 0)
(1.0122853 -0.0016669653 0)
(1.0122512 -0.0011553942 0)
(1.0120458 -0.00068000545 0)
(1.0117124 -0.0002714927 0)
(1.0112954 5.0316645e-05 0)
(1.0108398 0.00027108656 0)
(1.0103879 0.00038470384 0)
(1.0099766 0.00039057881 0)
(1.0096448 0.0002957261 0)
(1.0094322 0.00011547331 0)
(0.82019897 -0.065112912 -1.0125568e-23)
(0.81249025 -0.071653542 -5.9198578e-24)
(0.82511038 -0.017420192 -1.9203462e-23)
(0.84019184 0.029641096 -1.169232e-23)
(0.83939115 0.021011972 3.039414e-23)
(0.83500885 0.022942789 1.3771717e-22)
(0.83078894 0.12268723 7.6879126e-23)
(0.81873354 0.12394057 0)
(0.81779748 0.034529689 -8.4507247e-24)
(0.85740005 -0.11660137 -1.6024659e-22)
(0.94929635 -0.16203182 0)
(1.0346544 -0.10828998 -1.6031887e-21)
(1.0649074 0.012520348 0)
(1.0183221 0.1464528 0)
(0.95040775 0.15889215 0)
(0.90385283 0.096093633 0)
(0.89798236 -0.001705267 0)
(0.94536922 -0.052976769 0)
(0.99615911 -0.058517366 0)
(1.0295619 -0.043458487 0)
(1.0442011 -0.018375575 0)
(1.0413466 0.004070836 0)
(1.0283912 0.016878962 0)
(1.014736 0.018472855 0)
(1.0059938 0.013782486 0)
(1.0026725 0.007505553 0)
(1.002958 0.0023611607 0)
(1.0047912 -0.0010708249 0)
(1.0069548 -0.0029990588 0)
(1.0089135 -0.0037218063 0)
(1.0104145 -0.0037554883 0)
(1.0114611 -0.0034201794 0)
(1.0121244 -0.002907352 0)
(1.0124782 -0.002319721 0)
(1.0125791 -0.0017165114 0)
(1.0124739 -0.0011394526 0)
(1.0122053 -0.00062205303 0)
(1.0118176 -0.00019036309 0)
(1.0113555 0.00013840124 0)
(1.0108638 0.00035381183 0)
(1.0103841 0.00045358676 0)
(1.0099528 0.00044022284 0)
(1.0096079 0.00032522436 0)
(1.0093881 0.00012472993 0)
(0.82145216 0.023238029 6.5818004e-24)
(0.81182491 -0.065206369 8.4972115e-24)
(0.81623058 -0.070986559 3.0682635e-23)
(0.83958966 -0.016399148 1.209115e-23)
(0.85650123 0.028422296 -5.7323923e-23)
(0.85543814 0.019319059 -1.640511e-23)
(0.82126175 0.12592465 -1.4686857e-22)
(0.81272831 0.12848084 -6.4155861e-23)
(0.81068918 0.03680524 -1.0097024e-22)
(0.84235298 -0.12541687 1.2751099e-22)
(0.92618089 -0.17733573 -1.4998755e-21)
(1.012317 -0.12377769 8.729035e-22)
(1.0451826 0.0098555649 0)
(1.0080479 0.15408866 -1.039198e-21)
(0.93020462 0.18096649 -2.4766388e-22)
(0.89034906 0.1043723 0)
(0.88152441 3.5469779e-06 0)
(0.93060414 -0.069100225 0)
(0.99287657 -0.075469483 0)
(1.0344592 -0.056235038 0)
(1.0544192 -0.026456466 0)
(1.0524376 0.004256269 0)
(1.0358431 0.021982992 0)
(1.0172987 0.025409979 0)
(1.0047844 0.019449248 0)
(0.99974727 0.010968174 0)
(0.99980733 0.0038118299 0)
(1.0021825 -0.00091274825 0)
(1.0050612 -0.003595385 0)
(1.0076862 -0.0046657975 0)
(1.009705 -0.0047634258 0)
(1.0111202 -0.0043782724 0)
(1.0120473 -0.0037805573 0)
(1.012599 -0.0030992176 0)
(1.0128556 -0.0023974517 0)
(1.0128719 -0.0017151661 0)
(1.0126922 -0.0010850118 0)
(1.0123587 -0.0005359802 0)
(1.011916 -9.0476717e-05 0)
(1.0114089 0.00023723239 0)