/*--------------------------------*- C++ -*----------------------------------*\
| =========                 |                                                 |
| \\      /  F ield         | OpenFOAM: The Open Source CFD Toolbox           |
|  \\    /   O peration     | Version:  5.0                                   |
|   \\  /    A nd           | Web:      www.OpenFOAM.org                      |
|    \\/     M anipulation  |                                                 |
\*---------------------------------------------------------------------------*/
FoamFile
{
    version     2.0;
    format      ascii;
    class       volVectorField;
    location    "240";
    object      U_0;
}
// * * * * * * * * * * * * * * * * * * * * * * * * * * * * * * * * * * * * * //

dimensions      [0 1 -1 0 0 0 0];

internalField   nonuniform List<vector> 
9520
(
(1.0142953 0.00016647 0)
(1.0143943 0.00048791073 0)
(1.0138003 0.00016430533 0)
(1.0145689 0.00078645104 0)
(1.0139013 0.00048258701 0)
(1.0136112 0.00016322728 0)
(1.0148027 0.0010615515 0)
(1.0140807 0.0007796944 0)
(1.0137116 0.00047891171 0)
(1.0133019 0.0001663487 0)
(1.0150815 0.0013126236 0)
(1.0143234 0.0010549904 0)
(1.0138912 0.00077393947 0)
(1.0134028 0.00048700786 0)
(1.0130601 0.00017274272 0)
(1.0153925 0.0015392927 0)
(1.0146156 0.0013088132 0)
(1.0141349 0.0010480392 0)
(1.0135833 0.00078676243 0)
(1.0131617 0.00050557963 0)
(1.0127815 0.000178676 0)
(1.0157245 0.0017414788 0)
(1.0149444 0.0015400975 0)
(1.0144296 0.0013031305 0)
(1.0138275 0.0010662058 0)
(1.0133429 0.00081718685 0)
(1.0128829 0.00052445351 0)
(1.0125244 0.000179797 0)
(1.0160682 0.0019186368 0)
(1.0152995 0.001748778 0)
(1.0147629 0.0015380022 0)
(1.0141232 0.0013281138 0)
(1.0135875 0.0011089521 0)
(1.0130624 0.00085021485 0)
(1.0126243 0.00053010172 0)
(1.0122681 0.00017582427 0)
(1.0164167 0.0020699942 0)
(1.0156729 0.0019351298 0)
(1.0151242 0.0017522467 0)
(1.0144598 0.0015723463 0)
(1.0138834 0.0013827894 0)
(1.0133049 0.0011580379 0)
(1.0128009 0.0008629851 0)
(1.0123636 0.00052020068 0)
(1.0120338 0.00016920087 0)
(1.016766 0.0021940038 0)
(1.0160591 0.002099591 0)
(1.0155042 0.0019458794 0)
(1.0148267 0.001798849 0)
(1.0142213 0.0016399679 0)
(1.0135981 0.0014484821 0)
(1.0130403 0.0011810083 0)
(1.0125334 0.00085001218 0)
(1.0121247 0.00050094102 0)
(1.0118158 0.00016333583 0)
(1.0171172 0.0022858953 0)
(1.0164562 0.0022443958 0)
(1.0158936 0.0021198422 0)
(1.0152138 0.0020072608 0)
(1.0145912 0.0018812249 0)
(1.0139322 0.0017240949 0)
(1.0133297 0.0014842805 0)
(1.0127648 0.0011682817 0)
(1.0122871 0.0008200583 0)
(1.0119019 0.00048260227 0)
(1.0116125 0.00016031008 0)
(1.0174733 0.002354245 0)
(1.016867 0.0023770432 0)
(1.0162841 0.0022797131 0)
(1.0156095 0.0021975896 0)
(1.0149833 0.0021063856 0)
(1.0142983 0.0019866 0)
(1.0136586 0.0017751138 0)
(1.0130452 0.0014770076 0)
(1.0125086 0.0011294902 0)
(1.0120566 0.0007902377 0)
(1.0116947 0.00047211269 0)
(1.0114186 0.00015978599 0)
(1.0178216 0.0023954483 0)
(1.0172913 0.0025017891 0)
(1.016663 0.0024332192 0)
(1.0160003 0.0023712477 0)
(1.0153877 0.0023143385 0)
(1.0146889 0.0022364547 0)
(1.0140186 0.0020557248 0)
(1.0133625 0.0017772264 0)
(1.0127782 0.0014342765 0)
(1.0122663 0.0010893776 0)
(1.0118419 0.0007723034 0)
(1.0114977 0.00046952455 0)
(1.0112316 0.0001595574 0)
(1.0181365 0.0024379632 0)
(1.0176451 0.0026372264 0)
(1.0169749 0.0025985646 0)
(1.0163659 0.0025263419 0)
(1.0157929 0.0025011261 0)
(1.0150998 0.0024722938 0)
(1.0144034 0.0023277632 0)
(1.0137082 0.0020707484 0)
(1.0130839 0.0017346715 0)
(1.0125203 0.0013859792 0)
(1.0120406 0.0010654013 0)
(1.0116375 0.00076720146 0)
(1.011308 0.00046898949 0)
(1.011052 0.00015700321 0)
(1.0184555 0.002444284 0)
(1.0179485 0.0028171291 0)
(1.0172287 0.0027764321 0)
(1.0167015 0.0026585808 0)
(1.0161927 0.0026561228 0)
(1.0155323 0.0026880153 0)
(1.0148104 0.002592531 0)
(1.0140748 0.0023597109 0)
(1.0134157 0.0020310027 0)
(1.0128094 0.0016811906 0)
(1.0122804 0.0013566307 0)
(1.0118248 0.0010585325 0)
(1.0114407 0.00076636431 0)
(1.0111254 0.00046266446 0)
(1.0108831 0.00015038095 0)
(1.0187774 0.0025164078 0)
(1.0182245 0.0029807976 0)
(1.0175023 0.0029298019 0)
(1.0170389 0.0027445183 0)
(1.0166142 0.0027653576 0)
(1.0159984 0.0028740526 0)
(1.0152405 0.002852429 0)
(1.0144564 0.0026475806 0)
(1.0137647 0.0023240292 0)
(1.0131244 0.0019750679 0)
(1.0125534 0.0016480559 0)
(1.0120498 0.0013484336 0)
(1.011617 0.001057052 0)
(1.0112515 0.00075722479 0)
(1.0109529 0.00044473052 0)
(1.0107294 0.0001394809 0)
(1.0191274 0.0024670227 0)
(1.0184716 0.0032172669 0)
(1.0176941 0.0030493654 0)
(1.0173974 0.0027745149 0)
(1.0170647 0.0027889733 0)
(1.0165053 0.0030290936 0)
(1.0156958 0.0031155802 0)
(1.014848 0.0029419627 0)
(1.0141204 0.0026153042 0)
(1.0134565 0.0022667866 0)
(1.0128515 0.0019408284 0)
(1.0123049 0.0016397507 0)
(1.0118273 0.0013465544 0)
(1.0114174 0.0010448279 0)
(1.0110724 0.00072949169 0)
(1.0107951 0.00041378079 0)
(1.010594 0.00012562295 0)
(1.0194477 0.0027137552 0)
(1.0186737 0.003413334 0)
(1.0178206 0.0031552997 0)
(1.017705 0.0027340991 0)
(1.0175057 0.0027750796 0)
(1.0170478 0.0031407439 0)
(1.0161885 0.0033862637 0)
(1.0152442 0.003252501 0)
(1.0144711 0.0029083773 0)
(1.0137963 0.0025545574 0)
(1.0131676 0.0022342733 0)
(1.0125832 0.0019353484 0)
(1.0120639 0.0016387348 0)
(1.0116128 0.0013305807 0)
(1.0112285 0.0010088012 0)
(1.0109073 0.00067962786 0)
(1.0106559 0.00037318724 0)
(1.0104781 0.000111058 0)
(1.0198597 0.0024684082 0)
(1.0188977 0.0038616314 0)
(1.0177647 0.0033139762 0)
(1.0178852 0.0026635155 0)
(1.0180283 0.0026989452 0)
(1.0175882 0.0032386479 0)
(1.0167007 0.0036897683 0)
(1.0156287 0.0035973778 0)
(1.0148044 0.0032069097 0)
(1.0141343 0.0028348962 0)
(1.0134949 0.0025257212 0)
(1.0128792 0.0022362498 0)
(1.0123198 0.0019380661 0)
(1.0118295 0.0016203934 0)
(1.0114098 0.0012852747 0)
(1.0110545 0.00094292884 0)
(1.0107611 0.00061272046 0)
(1.010537 0.00032946549 0)
(1.0103802 9.8014189e-05 0)
(1.0200768 0.0031401145 0)
(1.0188891 0.0041192751 0)
(1.017513 0.0033808499 0)
(1.0179378 0.0024499368 0)
(1.0185579 0.0025259674 0)
(1.0182173 0.003317146 0)
(1.0172028 0.0040349423 0)
(1.0159822 0.0040030253 0)
(1.0150962 0.0035224623 0)
(1.0144543 0.0031016411 0)
(1.0138271 0.0028090617 0)
(1.01319 0.0025414836 0)
(1.0125902 0.0022478089 0)
(1.0120595 0.001919709 0)
(1.0116066 0.001566831 0)
(1.0112227 0.0012042622 0)
(1.0108984 0.00085023548 0)
(1.0106368 0.00053983964 0)
(1.0104369 0.00028927203 0)
(1.010297 8.7863113e-05 0)
(1.0203862 0.0025125412 0)
(1.019079 0.0049758163 0)
(1.0169957 0.0037335379 0)
(1.017858 0.0021167442 0)
(1.0191963 0.0021524635 0)
(1.0190002 0.0034027852 0)
(1.0177325 0.0044346588 0)
(1.0162616 0.0044866047 0)
(1.0153137 0.0038591439 0)
(1.0147366 0.0033514628 0)
(1.0141572 0.0030748066 0)
(1.013515 0.0028467099 0)
(1.0128738 0.0025699767 0)
(1.0122978 0.0022338374 0)
(1.0118101 0.0018590208 0)
(1.0114002 0.0014703978 0)
(1.0110549 0.0010891672 0)
(1.0107653 0.00074508595 0)
(1.0105339 0.00047212455 0)
(1.0103528 0.00025687412 0)
(1.0102249 8.0820254e-05 0)
(1.0201128 0.0037868508 0)
(1.0186549 0.005339677 0)
(1.0162582 0.0036451337 0)
(1.0176071 0.0016686764 0)
(1.0198627 0.0016487726 0)
(1.0199954 0.0034196782 0)
(1.0183488 0.0049494562 0)
(1.0164722 0.0050647447 0)
(1.015415 0.0042301382 0)
(1.0149407 0.0035577458 0)
(1.0144758 0.0033062813 0)
(1.0138566 0.0031439683 0)
(1.0131733 0.0029056446 0)
(1.0125422 0.0025679566 0)
(1.0120138 0.0021679773 0)
(1.0115783 0.001746429 0)
(1.0112163 0.0013321491 0)
(1.0109101 0.00095269391 0)
(1.0106566 0.00064563323 0)
(1.0104491 0.00041616675 0)
(1.0102812 0.00023339897 0)
(1.0101607 7.6240865e-05 0)
(1.0198404 0.00268444 0)
(1.0187633 0.0066584663 0)
(1.0150197 0.0044657628 0)
(1.0170981 0.00079262807 0)
(1.0207194 0.00075145741 0)
(1.0212311 0.0034859048 0)
(1.0190649 0.0056212179 0)
(1.0165716 0.0057915189 0)
(1.0153912 0.0046132406 0)
(1.0150989 0.0037316952 0)
(1.0147702 0.0034682288 0)
(1.0142225 0.0034144962 0)
(1.0134992 0.0032537314 0)
(1.0127944 0.0029291517 0)
(1.0122119 0.0025003308 0)
(1.0117485 0.0020378557 0)
(1.0113731 0.001582828 0)
(1.0110577 0.0011632757 0)
(1.0107926 0.00081950932 0)
(1.0105693 0.00056362079 0)
(1.0103784 0.00037347441 0)
(1.0102192 0.00021760243 0)
(1.0101021 7.3164689e-05 0)
(1.0187867 0.0046286646 0)
(1.0169375 0.0071573474 0)
(1.0137253 0.0040338784 0)
(1.0162879 0.00016388778 0)
(1.0214785 -0.00028607002 0)
(1.022784 0.0033220848 0)
(1.0199372 0.0065497039 0)
(1.0165244 0.0067268229 0)
(1.0151227 0.0050426199 0)
(1.0151319 0.003779425 0)
(1.015108 0.0035510063 0)
(1.014642 0.0036345579 0)
(1.0138715 0.0036080406 0)
(1.0130629 0.0033259891 0)
(1.0124011 0.0028661509 0)
(1.0119022 0.0023504863 0)
(1.0115161 0.0018449533 0)
(1.0111977 0.0013794615 0)
(1.0109298 0.00099415052 0)
(1.0106997 0.00070667877 0)
(1.0104988 0.00050133886 0)
(1.0103184 0.00034258802 0)
(1.0101642 0.00020713595 0)
(1.0100478 7.068178e-05 0)
(1.0192285 0.003607927 0)
(1.0144952 0.0088261468 0)
(1.0107263 0.0057170982 0)
(1.0150903 -0.0016069089 0)
(1.0228133 -0.0019515369 0)
(1.0246969 0.0034299787 0)
(1.0209405 0.0077506744 0)
(1.0162878 0.0079768352 0)
(1.0145475 0.0054957235 0)
(1.0149931 0.0037054838 0)
(1.015505 0.0034448695 0)
(1.015131 0.0037514827 0)
(1.0143307 0.0039679116 0)
(1.0133639 0.0037721048 0)
(1.01258 0.0032793844 0)
(1.0120304 0.0026924724 0)
(1.0116353 0.0021218679 0)
(1.0113208 0.0016030104 0)
(1.0110572 0.001171894 0)
(1.0108299 0.00084820462 0)
(1.0106272 0.00061863205 0)
(1.0104412 0.00045479112 0)
(1.0102669 0.00032120572 0)
(1.0101142 0.00019947973 0)
(1.0099972 6.8061591e-05 0)
(1.0181282 0.005942686 0)
(1.0144173 0.0098336147 0)
(1.0075942 0.004602422 0)
(1.0133174 -0.0024491447 0)
(1.0234334 -0.0037269267 0)
(1.0270769 0.002832092 0)
(1.0222091 0.0094433375 0)
(1.0157796 0.0095984923 0)
(1.0135523 0.0060613457 0)
(1.0146 0.0033959029 0)
(1.0159032 0.0031316163 0)
(1.015767 0.0038021541 0)
(1.014878 0.0043071569 0)
(1.0137269 0.0042887912 0)
(1.0127494 0.0037638677 0)
(1.012121 0.003074675 0)
(1.0117191 0.0024163335 0)
(1.0114175 0.0018346185 0)
(1.0111663 0.0013541754 0)
(1.0109486 0.00099061874 0)
(1.0107532 0.0007311724 0)
(1.010571 0.00055154983 0)
(1.0103937 0.00041888045 0)
(1.0102225 0.00030644073 0)
(1.010068 0.00019231097 0)
(1.0099503 6.4828206e-05 0)
(1.0121196 0.0048128299 0)
(1.0135741 0.012033884 0)
(1.0049609 0.0068327353 0)
(1.0110607 -0.0054478331 0)
(1.0250213 -0.0064200028 0)
(1.0295614 0.0032219874 0)
(1.0235168 0.011445049 0)
(1.0149373 0.011704626 0)
(1.0120409 0.0066676607 0)
(1.0138647 0.0028736662 0)
(1.0162884 0.0024567202 0)
(1.0166431 0.0037447351 0)
(1.0155436 0.004680405 0)
(1.0141365 0.0049096462 0)
(1.012908 0.0043540701 0)
(1.0121592 0.0035158593 0)
(1.0117513 0.0027306194 0)
(1.011478 0.0020716773 0)
(1.01125 0.0015408036 0)
(1.0110477 0.0011360044 0)
(1.0108657 0.00084228563 0)
(1.0106958 0.00063870537 0)
(1.0105281 0.00049871813 0)
(1.0103552 0.00039024198 0)
(1.0101838 0.00029391902 0)
(1.0100254 0.00018358326 0)
(1.0099075 6.0787902e-05 0)
(0.99901834 0.0080581102 0)
(1.0006219 0.012933324 0)
(1.0020506 0.0056301939 0)
(1.0087402 -0.0069853525 0)
(1.0256788 -0.0088825932 0)
(1.0318561 0.001796649 0)
(1.0252955 0.014408448 0)
(1.0135272 0.014438306 0)
(1.0097953 0.0074588231 0)
(1.012699 0.0019488036 0)
(1.0166749 0.0013885318 0)
(1.0178011 0.0034338106 0)
(1.0164929 0.0051118085 0)
(1.0145895 0.0056649844 0)
(1.0130318 0.0051039023 0)
(1.0121146 0.0040392396 0)
(1.0117101 0.0030671851 0)
(1.0114895 0.0023086797 0)
(1.0113026 0.0017270378 0)
(1.0111225 0.0012849337 0)
(1.0109567 0.00095554269 0)
(1.0108045 0.00072107893 0)
(1.0106551 0.00056303129 0)
(1.0104965 0.00045353557 0)
(1.0103253 0.00036551983 0)
(1.01015 0.00027836519 0)
(1.0099872 0.00017188036 0)
(1.0098693 5.601793e-05 0)
(0.98578902 0.0081707398 0)
(0.98352877 0.015567014 0)
(0.98963278 0.008377515 0)
(1.0063875 -0.011014264 0)
(1.0280778 -0.012869213 0)
(1.0347696 0.0027452332 0)
(1.0262912 0.017591901 0)
(1.0115572 0.017823381 0)
(1.0066932 0.008387665 0)
(1.0109415 0.00069656054 0)
(1.0170422 -0.0003521347 0)
(1.0193406 0.0028604756 0)
(1.0178257 0.005584137 0)
(1.0152105 0.0066290058 0)
(1.013075 0.0060439203 0)
(1.0119576 0.0046834162 0)
(1.0115593 0.0034282195 0)
(1.0114346 0.0025331452 0)
(1.0113191 0.0019025685 0)
(1.0111725 0.0014338874 0)
(1.011023 0.0010736176 0)
(1.0108885 0.00080432153 0)
(1.010763 0.00061790499 0)
(1.0106296 0.00049573729 0)
(1.0104758 0.00041060305 0)
(1.0103029 0.00033944596 0)
(1.0101209 0.00025665793 0)
(1.009954 0.00015725885 0)
(1.0098359 5.0924782e-05 0)
(0.97137126 0.010808089 0)
(0.96897328 0.017109101 0)
(0.97582465 0.0056982325 0)
(1.000162 -0.012704282 0)
(1.0291974 -0.01600167 0)
(1.039682 0.0010606114 0)
(1.0262632 0.022293185 0)
(1.0081011 0.022227214 0)
(1.0023312 0.0094811545 0)
(1.0085173 -0.001213345 0)
(1.0173859 -0.0026996909 0)
(1.0213463 0.0017736613 0)
(1.0196841 0.0061525593 0)
(1.0160631 0.0078959333 0)
(1.0130526 0.0072638888 0)
(1.0116214 0.0054764721 0)
(1.0112537 0.0038145725 0)
(1.0112868 0.0027261525 0)
(1.0112936 0.0020470814 0)
(1.0112012 0.0015733689 0)
(1.0110676 0.001196807 0)
(1.0109449 0.0008940235 0)
(1.0108416 0.00067106551 0)
(1.0107401 0.00052331373 0)
(1.0106182 0.00043049963 0)
(1.0104657 0.0003665846 0)
(1.0102875 0.00030813067 0)
(1.0100969 0.00022970416 0)
(1.0099261 0.00014149545 0)
(1.009807 4.617795e-05 0)
(0.95512436 0.011817954 4.1040941e-24)
(0.9530432 0.018667022 0)
(0.96278809 0.0065747487 0)
(0.99334726 -0.019014285 0)
(1.0291705 -0.021342294 0)
(1.0421555 0.0022188789 0)
(1.0287608 0.026311493 0)
(1.0033427 0.027135321 0)
(0.99656012 0.010899468 0)
(1.0051412 -0.0036544756 0)
(1.0177615 -0.0061355631 0)
(1.0239803 0.00026159229 0)
(1.0221976 0.0067118234 0)
(1.0172492 0.0096007892 0)
(1.0129476 0.008885813 0)
(1.011007 0.0064670204 0)
(1.0107314 0.0042290693 0)
(1.0110081 0.0028546274 0)
(1.01122 0.0021295802 0)
(1.0112176 0.0016845279 0)
(1.0111009 0.0013215553 0)
(1.0109773 0.00099580332 0)
(1.0108867 0.00073101329 0)
(1.0108161 0.00054513243 0)
(1.0107349 0.00043093049 0)
(1.0106198 0.00036424626 0)
(1.0104651 0.00031867861 0)
(1.0102781 0.00026922606 0)
(1.0100792 0.00020192374 0)
(1.0099029 0.00012694736 0)
(1.0097819 4.247791e-05 0)
(0.93657226 0.014108784 -2.0690659e-24)
(0.93552264 0.020532207 -4.286009e-24)
(0.94917955 0.0031105641 0)
(0.98464071 -0.023192291 0)
(1.0267014 -0.02509307 0)
(1.0422366 -0.0020818533 0)
(1.0372598 0.033708382 0)
(0.99980232 0.032759022 0)
(0.98911635 0.01213313 0)
(1.000878 -0.007028598 0)
(1.0180669 -0.010443493 0)
(1.027337 -0.0021244027 0)
(1.0255886 0.0074387742 0)
(1.0188431 0.011840508 0)
(1.0127426 0.01108668 0)
(1.0100237 0.0077240992 0)
(1.0098784 0.0046663098 0)
(1.0105515 0.002875505 0)
(1.0110896 0.0021021817 0)
(1.0112381 0.0017379379 0)
(1.0111419 0.001438608 0)
(1.0109977 0.0011142617 0)
(1.0108993 0.00080873437 0)
(1.0108499 0.00057228221 0)
(1.0108117 0.00042007269 0)
(1.0107464 0.00033564526 0)
(1.0106345 0.00029178578 0)
(1.0104738 0.00026244531 0)
(1.0102752 0.00022517246 0)
(1.010067 0.00017653449 0)
(1.0098837 0.00011550316 0)
(1.0097595 4.0364557e-05 0)
(0.91651295 0.015915767 2.0772173e-24)
(0.91614382 0.022351924 1.810779e-23)
(0.93222077 0.0022301676 0)
(0.97527616 -0.028867429 0)
(1.0190408 -0.030136439 0)
(1.0385556 0.00073210577 0)
(1.0354435 0.038801615 0)
(0.99968771 0.040685981 0)
(0.98094653 0.013971721 0)
(0.9952969 -0.011446969 0)
(1.01854 -0.016344568 0)
(1.0315795 -0.0050953468 0)
(1.0299914 0.008057821 0)
(1.0209977 0.014840548 0)
(1.0123892 0.014027064 0)
(1.0085417 0.0093877833 0)
(1.0085559 0.0050905515 0)
(1.0098462 0.0027398659 0)
(1.0108866 0.0018983634 0)
(1.0112744 0.0016863385 0)
(1.0112179 0.0015313819 0)
(1.0110272 0.0012552217 0)
(1.0108882 0.0009190379 0)
(1.0108382 0.0006201696 0)
(1.0108371 0.00040984705 0)
(1.0108287 0.00028794189 0)
(1.0107758 0.00023040231 0)
(1.010663 0.0002104275 0)
(1.0104913 0.00020132099 0)
(1.0102791 0.00018483284 0)
(1.0100595 0.0001560656 0)
(1.0098673 0.00010856123 0)
(1.0097386 4.0155221e-05 0)
(0.89621249 0.017891221 0)
(0.89613549 0.024345185 -1.813778e-23)
(0.913819 -0.00034154179 0)
(0.96095876 -0.034208749 0)
(1.0092994 -0.032463272 0)
(1.027332 -9.3661012e-05 0)
(1.0138557 0.046925257 0)
(0.98928481 0.050105656 0)
(0.97043334 0.015664866 0)
(0.98870511 -0.016767492 0)
(1.018743 -0.023306725 0)
(1.0367803 -0.0094326722 0)
(1.0356776 0.008988848 0)
(1.0237559 0.018693559 0)
(1.0118493 0.01795866 0)
(1.0064049 0.011530949 0)
(1.0066004 0.0055375718 0)
(1.0087885 0.0023351338 0)
(1.010595 0.001426448 0)
(1.0113736 0.001486116 0)
(1.0113472 0.0015744469 0)
(1.0110972 0.0014232195 0)
(1.0108711 0.0010818761 0)
(1.0107824 0.00070966223 0)
(1.0108017 0.00041698695 0)
(1.0108515 0.00023254532 0)
(1.01087 0.00014146886 0)
(1.0108237 0.00011586652 0)
(1.010703 0.00012603706 0)
(1.0105166 0.00014306592 0)
(1.0102885 0.00015126814 0)
(1.0100553 0.00014295238 0)
(1.0098524 0.0001070005 0)
(1.0097183 4.1945786e-05 0)
(0.87598022 0.019728847 -2.1548124e-24)
(0.87665603 0.026199406 0)
(0.89466511 -0.0025038906 -3.2464192e-23)
(0.94389454 -0.039586885 0)
(0.99611189 -0.037297115 0)
(1.014675 0.0050704409 0)
(0.99375827 0.054774901 0)
(0.9654696 0.0586453 0)
(0.95684732 0.020118048 0)
(0.97989434 -0.023726759 0)
(1.0190341 -0.032185643 0)
(1.0428103 -0.014252686 0)
(1.0425558 0.0096249099 0)
(1.0272926 0.023748912 0)
(1.0109875 0.02311225 0)
(1.0033828 0.014371834 0)
(1.0038185 0.0059291707 0)
(1.0072552 0.0015953318 0)
(1.0101885 0.00054705898 0)
(1.0115689 0.0010174745 0)
(1.011656 0.0015542164 0)
(1.0112579 0.0016152951 0)
(1.0108783 0.0013167264 0)
(1.0106921 0.00086928827 0)
(1.0106994 0.00046524566 0)
(1.0107992 0.00018580285 0)
(1.0108985 3.3572501e-05 0)
(1.0109372 -1.6020348e-05 0)
(1.0108881 -1.7700899e-07 0)
(1.0107534 4.5123803e-05 0)
(1.0105485 9.4069437e-05 0)
(1.0103026 0.00012776947 0)
(1.0100536 0.00013842016 0)
(1.0098388 0.00011095014 0)
(1.0096973 4.5760216e-05 0)
(0.85683817 0.021295502 -6.901518e-24)
(0.85828251 0.028000319 3.6886778e-23)
(0.87578456 -0.0049994869 3.2459387e-23)
(0.92504491 -0.045271166 3.8046513e-23)
(0.97942674 -0.041543462 -1.1776373e-22)
(0.99981015 0.0065198617 0)
(0.97669588 0.064390889 0)
(0.9452474 0.066129386 0)
(0.94108205 0.021988435 0)
(0.96898035 -0.03095207 0)
(1.0184778 -0.042148644 0)
(1.0496387 -0.021038139 0)
(1.0504852 0.010910068 0)
(1.0313234 0.030084409 0)
(1.0097288 0.029758517 0)
(0.99924083 0.017993471 0)
(0.99994928 0.006354662 0)
(1.0050968 0.00031415388 0)
(1.0096369 -0.00085484821 0)
(1.011909 0.00016165889 0)
(1.012218 0.0013833491 0)
(1.0115775 0.0018190281 0)
(1.0109653 0.001654234 0)
(1.0105847 0.0011324641 0)
(1.0105268 0.00058589869 0)
(1.0106583 0.00017060385 0)
(1.0108409 -7.8613457e-05 0)
(1.0109809 -0.00017948545 0)
(1.0110282 -0.00017483971 0)
(1.0109686 -0.00011122671 0)
(1.0108129 -2.4304996e-05 0)
(1.0105854 5.8406036e-05 0)
(1.0103195 0.00011703036 0)
(1.0100536 0.00014090778 0)
(1.0098247 0.0001205553 0)
(1.0096749 5.1445877e-05 0)
(0.83988386 0.022541861 1.199823e-23)
(0.84196082 0.029511447 -5.5373863e-23)
(0.85803546 -0.0073598888 0)
(0.90512015 -0.050828108 5.3591259e-23)
(0.95975135 -0.045534306 1.1718826e-22)
(0.98299311 0.0075172355 1.6793553e-22)
(0.9587719 0.073228284 8.7852832e-23)
(0.92717367 0.071767484 0)
(0.92512411 0.024059272 0)
(0.95926919 -0.041310416 0)
(1.0180404 -0.054837171 0)
(1.0578598 -0.027410904 0)
(1.0593799 0.011796932 0)
(1.0354264 0.038325754 0)
(1.0074951 0.038263517 0)
(0.99362699 0.02263962 0)
(0.99473161 0.0066492105 0)
(1.0021507 -0.001540294 0)
(1.0088816 -0.0030337403 0)
(1.0124598 -0.0012064617 0)
(1.0131244 0.00098553545 0)
(1.0122124 0.002088544 0)
(1.0111555 0.0020992192 0)
(1.0105025 0.0015585289 0)
(1.0102831 0.00082147787 0)
(1.010412 0.00021574732 0)
(1.0106761 -0.00017731505 0)
(1.0109322 -0.00036524428 0)
(1.0110975 -0.00039514166 0)
(1.0111408 -0.00032659841 0)
(1.0110622 -0.00020837665 0)
(1.01088 -7.6850107e-05 0)
(1.0106261 3.8903316e-05 0)
(1.0103358 0.00011968818 0)
(1.0100519 0.00015564321 0)
(1.009809 0.00013589295 0)
(1.0096502 5.8739379e-05 0)
(0.82622241 0.023496432 4.9005541e-25)
(0.82848468 0.030719946 1.2014065e-23)
(0.84213082 -0.0096743273 -1.0494071e-23)
(0.88521145 -0.056038684 -5.0628855e-23)
(0.93859277 -0.050108925 -9.494322e-23)
(0.96264541 0.010157216 1.6479722e-22)
(0.94162688 0.080458255 1.2080194e-22)
(0.90859422 0.080648336 -1.2324053e-24)
(0.90900356 0.020567244 0)
(0.94912956 -0.05123108 0)
(1.0183693 -0.069209325 0)
(1.0691909 -0.03901794 0)
(1.0720165 0.013965859 0)
(1.0395179 0.048335946 0)
(1.0035674 0.048683085 0)
(0.98611271 0.02848158 0)
(0.98777283 0.0069153338 0)
(0.99822992 -0.0043259318 0)
(1.0078879 -0.0060902121 0)
(1.0132809 -0.0033250419 0)
(1.0145179 0.00028291726 0)
(1.0132881 0.0023785268 0)
(1.0115803 0.0027614431 0)
(1.0104427 0.0021841533 0)
(1.0099828 0.0012363497 0)
(1.0100443 0.0003646703 0)
(1.0103787 -0.00023841899 0)
(1.0107646 -0.00056063079 0)
(1.0110727 -0.00065657786 0)
(1.0112457 -0.00060224714 0)
(1.0112723 -0.00046154295 0)
(1.0111654 -0.00028440816 0)
(1.0109524 -0.00010923708 0)
(1.0106682 3.7050383e-05 0)
(1.0103537 0.00013688585 0)
(1.0100491 0.00017995107 0)
(1.0097911 0.00015621493 0)
(1.0096228 6.7270156e-05 0)
(0.81604069 0.02402869 -4.8508065e-24)
(0.81839479 0.031522852 1.3299621e-25)
(0.82923155 -0.011675723 0)
(0.86581338 -0.060800312 1.9247715e-23)
(0.91617463 -0.054129445 -8.0224709e-23)
(0.94167566 0.011491615 0)
(0.92178671 0.089198098 -3.7572123e-22)
(0.89201299 0.088394681 -3.6820492e-22)
(0.89082011 0.02355416 0)
(0.94144003 -0.064270833 0)
(1.0168665 -0.084532373 0)
(1.077721 -0.046690888 0)
(1.0902431 0.013682946 0)
(1.0485689 0.060324719 0)
(0.99869455 0.061490632 0)
(0.97592559 0.035358862 0)
(0.97883858 0.006982727 0)
(0.9930949 -0.0080316721 0)
(1.0065892 -0.010454398 0)
(1.0144526 -0.0062949491 0)
(1.0165613 -0.00090730973 0)
(1.0149765 0.0027001013 0)
(1.0123817 0.0036987877 0)
(1.0104622 0.0031122119 0)
(1.0096144 0.0019008495 0)
(1.0095336 0.00066397828 0)
(1.0099201 -0.00023063556 0)
(1.0104485 -0.00075053634 0)
(1.0109262 -0.00095320783 0)
(1.0112594 -0.0009368588 0)
(1.0114211 -0.00078759658 0)
(1.0114183 -0.00057044784 0)
(1.011276 -0.00033555465 0)
(1.0110269 -0.00011947799 0)
(1.0107098 5.2882321e-05 0)
(1.0103694 0.00016745898 0)
(1.0100437 0.00021243967 0)
(1.0097702 0.00018061046 0)
(1.0095922 7.6665606e-05 0)
(0.81072629 0.02414036 0)
(0.81255782 0.031952183 0)
(0.81971463 -0.013508018 -1.376994e-25)
(0.84878582 -0.064801567 0)
(0.89319 -0.057952343 2.2803562e-24)
(0.91891164 0.013457164 1.8504084e-22)
(0.90257388 0.096994023 6.1157749e-22)
(0.87447086 0.097024852 -1.4466927e-22)
(0.87405118 0.026748301 0)
(0.92625675 -0.075811186 0)
(1.0148831 -0.098330858 0)
(1.0795066 -0.062499684 0)
(1.0973124 0.014889721 0)
(1.0642016 0.073531461 0)
(0.99807037 0.076145621 0)
(0.96330675 0.04365613 0)
(0.96731574 0.006688323 0)
(0.98666945 -0.013137413 0)
(1.0049202 -0.016086694 0)
(1.0160493 -0.010552708 0)
(1.0194438 -0.0026256686 0)
(1.0174794 0.0029647543 0)
(1.0137166 0.0050114611 0)
(1.010663 0.0044811554 0)
(1.0091419 0.0028890903 0)
(1.0088661 0.0012049069 0)
(1.0092583 -0.00012017045 0)
(1.0099472 -0.00092152649 0)
(1.0106273 -0.0012811653 0)
(1.0111556 -0.0013312633 0)
(1.0114855 -0.0011887794 0)
(1.0116176 -0.00093995137 0)
(1.0115749 -0.0006478131 0)
(1.0113904 -0.00035909017 0)
(1.0111014 -0.00010727909 0)
(1.0107509 8.7075892e-05 0)
(1.0103826 0.00021001691 0)
(1.0100349 0.00025189537 0)
(1.0097459 0.00020802208 0)
(1.0095586 8.6538562e-05 0)
(0.81100475 0.032026804 -6.5982125e-25)
(0.81063392 0.023954481 0)
(0.81360979 -0.014855545 -1.0146228e-23)
(0.83487717 -0.067994643 -4.4132194e-24)
(0.87134709 -0.061268971 -1.9643456e-23)
(0.89585936 0.015083369 8.1426874e-24)
(0.88241912 0.10467365 7.6320433e-25)
(0.8580045 0.10526943 -2.5452585e-22)
(0.85711711 0.030124112 1.3763984e-22)
(0.90884353 -0.083968987 0)
(1.0043705 -0.11551938 -1.0178037e-21)
(1.0773324 -0.066236581 0)
(1.0972355 0.010912115 0)
(1.0807738 0.090800782 0)
(1.0007116 0.094333376 0)
(0.95062175 0.053390048 0)
(0.95308046 0.0061317199 0)
(0.97854522 -0.019679612 0)
(1.0029154 -0.023659202 0)
(1.0181384 -0.016020166 0)
(1.0233668 -0.0052510173 0)
(1.0210727 0.0032569238 0)
(1.0157627 0.0067608689 0)
(1.0111384 0.0064617568 0)
(1.0085918 0.0043607472 0)
(1.007952 0.0020357818 0)
(1.00835 0.0001511826 0)
(1.0092133 -0.0010451616 0)
(1.0101378 -0.0016368622 0)
(1.0109058 -0.0017896237 0)
(1.011442 -0.00167069 0)
(1.0117418 -0.001397935 0)
(1.0118291 -0.0010524089 0)
(1.0117376 -0.00069064935 0)
(1.0115057 -0.00035452738 0)
(1.0111744 -7.2806469e-05 0)
(1.0107889 0.0001374865 0)
(1.0103922 0.0002626573 0)
(1.0100226 0.00029610226 0)
(1.0097184 0.0002371781 0)
(1.0095218 9.6585747e-05 0)
(0.81116689 -0.015524546 9.1267897e-24)
(0.81517155 0.031908261 0)
(0.81675804 0.023308918 -5.7190279e-24)
(0.82218584 -0.070292495 4.4101048e-24)
(0.85200344 -0.063708224 1.2982456e-23)
(0.87354681 0.01650054 3.3552176e-22)
(0.86332214 0.1114609 -5.7737393e-22)
(0.84264754 0.11309551 -6.1614175e-23)
(0.84150451 0.033496631 6.0223204e-23)
(0.89078497 -0.093574744 6.9507775e-23)
(0.9871699 -0.1308453 -1.1200363e-21)
(1.0675677 -0.080855572 1.0629794e-21)
(1.0913878 0.016424833 0)
(1.0701688 0.10605371 0)
(0.99545722 0.11758089 0)
(0.93760562 0.066628471 0)
(0.93567233 0.0044831708 0)
(0.96903704 -0.028054102 0)
(1.000352 -0.03286824 0)
(1.0208265 -0.023462864 0)
(1.028544 -0.0086476228 0)
(1.0260119 0.0033283095 0)
(1.0187849 0.0091334151 0)
(1.0119788 0.0092295566 0)
(1.0079727 0.0065123246 0)
(1.0067093 0.0032680529 0)
(1.0071159 0.00065147525 0)
(1.0081781 -0.0011230319 0)
(1.0094118 -0.0020233079 0)
(1.0104771 -0.0023202375 0)
(1.0112667 -0.0022430755 0)
(1.0117712 -0.0019530084 0)
(1.0120192 -0.0015561012 0)
(1.0120494 -0.0011217747 0)
(1.0119023 -0.00069846082 0)
(1.0116194 -0.0003224271 0)
(1.0112445 -1.7212277e-05 0)
(1.010823 0.00020135002 0)
(1.0103977 0.00032304283 0)
(1.0100063 0.00034380004 0)
(1.0096874 0.00026744031 0)
(1.0094822 0.00010657108 0)
(0.81407076 -0.071455481 5.4426939e-24)
(0.81554433 -0.015727653 2.3257538e-23)
(0.82571347 0.031353015 0)
(0.82649515 0.022249184 -8.0286381e-25)
(0.83347801 -0.065635885 -5.169791e-24)
(0.8533774 0.017754557 -1.4848733e-22)
(0.84595098 0.11720638 0)
(0.82945934 0.11996821 6.1188271e-23)
(0.82811903 0.036845614 8.8484597e-25)
(0.87265603 -0.10320192 -6.8604546e-23)
(0.96785509 -0.14630373 1.2044697e-21)
(1.0522836 -0.097854486 1.1674082e-21)
(1.0787535 0.017583858 0)
(1.041118 0.12481646 0)
(0.97621149 0.14080991 0)
(0.92151218 0.082324768 0)
(0.91658302 0.0040453688 0)
(0.95694943 -0.038742199 0)
(0.99762364 -0.044627844 0)
(1.0240366 -0.032357345 0)
(1.0351677 -0.013603197 0)
(1.0326807 0.0034695528 0)
(1.0230113 0.01212998 0)
(1.0133361 0.013051285 0)
(1.0072604 0.0095496738 0)
(1.0050734 0.0050746769 0)
(1.0054065 0.0013991979 0)
(1.006761 -0.0010911992 0)
(1.0083818 -0.0024461229 0)
(1.0098312 -0.0029467073 0)
(1.0109364 -0.0029249309 0)
(1.0116881 -0.002618558 0)
(1.0121291 -0.0021687391 0)
(1.012309 -0.0016600693 0)
(1.0122734 -0.0011477871 0)
(1.0120657 -0.00067230865 0)
(1.0117295 -0.00026436313 0)
(1.0113099 5.6516631e-05 0)
(1.0108521 0.00027622128 0)
(1.0103984 0.00038877787 0)
(1.0099859 0.00039369126 0)
(1.0096531 0.00029779154 0)
(1.00944 0.00011628908 0)
(0.82011124 -0.066756607 -1.024168e-23)
(0.81257784 -0.071547937 -6.1891698e-24)
(0.8253681 -0.015257049 -2.0742019e-23)
(0.84003084 0.030406309 -1.2165387e-23)
(0.83910837 0.020805963 2.8443372e-23)
(0.83540355 0.018583759 1.4020709e-22)
(0.83166997 0.12177183 7.8894889e-23)
(0.81931074 0.12573452 0)
(0.81762437 0.039779407 -9.8097119e-25)
(0.85522871 -0.11244078 -1.3571377e-22)
(0.9463941 -0.1622948 0)
(1.0335224 -0.11175816 -1.5248178e-21)
(1.066178 0.0066254727 0)
(1.0223377 0.14295489 0)
(0.95401863 0.15986674 0)
(0.90588956 0.099646685 0)
(0.89753959 0.0022332433 0)
(0.94321201 -0.05117586 0)
(0.99412003 -0.058197893 0)
(1.0280038 -0.044015034 0)
(1.0433673 -0.019463547 0)
(1.0412947 0.0029723903 0)
(1.0288364 0.016146101 0)
(1.0152992 0.018167898 0)
(1.0064364 0.013772897 0)
(1.0029336 0.0076209624 0)
(1.0030794 0.0024923871 0)
(1.0048371 -0.0009633272 0)
(1.0069633 -0.0029309754 0)
(1.0089147 -0.0036871711 0)
(1.0104219 -0.0037412777 0)
(1.0114771 -0.0034147804 0)
(1.0121465 -0.0029037833 0)
(1.0125029 -0.002315032 0)
(1.0126038 -0.0017101793 0)
(1.0124965 -0.001132061 0)
(1.0122252 -0.00061444088 0)
(1.0118345 -0.0001832248 0)
(1.0113696 0.0001447458 0)
(1.0108757 0.00035917409 0)
(1.0103943 0.00045797283 0)
(1.0099618 0.00044367503 0)
(1.009616 0.0003275413 0)
(1.0093956 0.00012564332 0)
(0.82163947 0.01881181 6.6674615e-24)
(0.81184331 -0.066833386 8.6928029e-24)
(0.81651583 -0.070863664 3.2747898e-23)
(0.83996185 -0.014303238 1.2584094e-23)
(0.85627676 0.029143887 -5.6919858e-23)
(0.8550906 0.019099868 -1.5077668e-23)
(0.82180412 0.12502217 -1.5015112e-22)
(0.81307899 0.13031008 -6.5280105e-23)
(0.81061113 0.042371518 -1.0963476e-22)
(0.84044922 -0.1209126 1.0112651e-22)
(0.92345399 -0.17756499 -1.4183167e-21)
(1.0111235 -0.12751228 8.4587165e-22)
(1.0466933 0.0032361229 0)
(1.0122765 0.14981683 -1.096078e-21)
(0.93387249 0.18190444 -1.5099403e-22)
(0.89232498 0.10851624 0)
(0.88116437 0.0046186004 0)
(0.92799482 -0.066983285 0)
(0.99035145 -0.075075223 0)
(1.0324951 -0.056916372 0)
(1.053306 -0.027830812 0)
(1.0523306 0.0027714583 0)
(1.0364449 0.020951992 0)
(1.0180942 0.024988073 0)
(1.005414 0.019453422 0)
(1.0001174 0.011153568 0)
(0.99997146 0.0040181065 0)
(1.0022314 -0.0007475513 0)
(1.0050565 -0.0034865698 0)
(1.0076688 -0.0046127129 0)
(1.0096972 -0.0047436579 0)
(1.0111267 -0.0043742876 0)
(1.0120653 -0.0037809281 0)
(1.0126235 -0.0030983922 0)
(1.0128822 -0.0023938193 0)
(1.0128976 -0.0017091049 0)
(1.0127152 -0.0010775905 0)
(1.0123785 -0.00052821045 0)
(1.0119326 -8.3067289e-05 0)