/*--------------------------------*- C++ -*----------------------------------*\
| =========                 |                                                 |
| \\      /  F ield         | OpenFOAM: The Open Source CFD Toolbox           |
|  \\    /   O peration     | Version:  5.0                                   |
|   \\  /    A nd           | Web:      www.OpenFOAM.org                      |
|    \\/     M anipulation  |                                                 |
\*---------------------------------------------------------------------------*/
FoamFile
{
    version     2.0;
    format      ascii;
    class       volVectorField;
    location    "240";
    object      UMean;
}
// * * * * * * * * * * * * * * * * * * * * * * * * * * * * * * * * * * * * * //

dimensions      [0 1 -1 0 0 0 0];

internalField   nonuniform List<vector> 
9520
(
(1.0098264 2.4273257e-05 0)
(1.0099143 7.0988544e-05 0)
(1.0097544 2.5131467e-05 0)
(1.0100704 0.00011496769 0)
(1.0098422 7.3784125e-05 0)
(1.009724 2.5306702e-05 0)
(1.0102803 0.00015561467 0)
(1.0099983 0.00011992674 0)
(1.0098114 7.4244655e-05 0)
(1.0096769 2.5019367e-05 0)
(1.0105309 0.00019302687 0)
(1.0102089 0.00016312719 0)
(1.0099672 0.00012112321 0)
(1.0097634 7.3823391e-05 0)
(1.0096399 2.4423274e-05 0)
(1.0108108 0.00022647907 0)
(1.0104614 0.00020357813 0)
(1.0101776 0.00016558756 0)
(1.0099177 0.00012128117 0)
(1.0097256 7.219721e-05 0)
(1.0096031 2.2918173e-05 0)
(1.0111098 0.00025552088 0)
(1.0107449 0.00024061148 0)
(1.0104302 0.00020798056 0)
(1.0101264 0.00016735705 0)
(1.0098784 0.00011939913 0)
(1.0096871 6.8122366e-05 0)
(1.0095699 2.0973376e-05 0)
(1.0114191 0.0002797331 0)
(1.0110497 0.00027378924 0)
(1.0107143 0.00024772304 0)
(1.0103775 0.00021259094 0)
(1.0100851 0.00016629773 0)
(1.0098367 0.00011376439 0)
(1.0096521 6.2637412e-05 0)
(1.0095429 1.7933503e-05 0)
(1.0117311 0.00029808782 0)
(1.0113672 0.00030244877 0)
(1.0110203 0.00028448745 0)
(1.0106606 0.0002565364 0)
(1.0103341 0.00021368984 0)
(1.0100393 0.00016045825 0)
(1.0097986 0.00010573574 0)
(1.0096228 5.3957065e-05 0)
(1.009519 1.4269482e-05 0)
(1.0120393 0.00031136084 0)
(1.0116897 0.00032591963 0)
(1.0113397 0.00031792474 0)
(1.0109666 0.00029891174 0)
(1.0106152 0.00026125678 0)
(1.0102834 0.00020930066 0)
(1.0099969 0.00015122756 0)
(1.0097648 9.2496564e-05 0)
(1.0095965 4.3372535e-05 0)
(1.0095042 9.5312507e-06 0)
(1.0123387 0.00031608238 0)
(1.0120115 0.00034477233 0)
(1.0116653 0.00034686763 0)
(1.0112872 0.00033913216 0)
(1.0109195 0.0003088363 0)
(1.0105594 0.00026025182 0)
(1.0102358 0.00020049342 0)
(1.0099568 0.00013485825 0)
(1.0097341 7.6005762e-05 0)
(1.009579 2.9544265e-05 0)
(1.0094935 4.1720948e-06 0)
(1.0126249 0.00031960012 0)
(1.0123273 0.00035564794 0)
(1.0119913 0.00037147065 0)
(1.0116155 0.0003762225 0)
(1.0112391 0.0003559404 0)
(1.0108585 0.00031331322 0)
(1.0105059 0.00025373688 0)
(1.0101879 0.00018274512 0)
(1.0099198 0.00011376523 0)
(1.0097115 5.40132e-05 0)
(1.0095657 1.3802861e-05 0)
(1.009493 -2.0545878e-06 0)
(1.0128954 0.00030803173 0)
(1.0126356 0.00036405875 0)
(1.0123117 0.00038984637 0)
(1.0119458 0.0004105837 0)
(1.011567 0.00040182477 0)
(1.0111732 0.000368048 0)
(1.0107987 0.00031116226 0)
(1.0104489 0.00023668462 0)
(1.010143 0.00015864475 0)
(1.0098898 8.4771654e-05 0)
(1.0096932 2.8676524e-05 0)
(1.0095628 -4.6248111e-06 0)
(1.0094978 -8.7302616e-06 0)
(1.0131472 0.00030695066 0)
(1.0129298 0.00035614043 0)
(1.0126223 0.00040587096 0)
(1.0122744 0.00043932381 0)
(1.0118979 0.00044636014 0)
(1.0114972 0.00042362465 0)
(1.011107 0.00037250037 0)
(1.0107316 0.00029714817 0)
(1.0103945 0.00021147678 0)
(1.0101031 0.00012412066 0)
(1.0098641 5.0773687e-05 0)
(1.0096854 -1.3954858e-06 0)
(1.0095653 -2.4478266e-05 0)
(1.0095126 -1.5955622e-05 0)
(1.0133787 0.00026701646 0)
(1.0132053 0.00036070865 0)
(1.0129179 0.00041103441 0)
(1.0125977 0.00046586315 0)
(1.0122255 0.00048788436 0)
(1.0118254 0.00047989193 0)
(1.0114243 0.00043724378 0)
(1.0110292 0.00036406098 0)
(1.0106663 0.00027301686 0)
(1.0103426 0.00017324234 0)
(1.0100679 8.2640355e-05 0)
(1.0098488 9.661815e-06 0)
(1.0096833 -3.4091553e-05 0)
(1.0095783 -4.6094007e-05 0)
(1.0095332 -2.3361963e-05 0)
(1.0135876 0.00027246291 0)
(1.0134625 0.00033038482 0)
(1.0132007 0.00042442537 0)
(1.0129058 0.00048055341 0)
(1.0125473 0.00052874715 0)
(1.0121543 0.00053407652 0)
(1.0117451 0.00050490372 0)
(1.0113359 0.0004368909 0)
(1.0109516 0.00034344972 0)
(1.0106004 0.00023322399 0)
(1.0102955 0.00012577191 0)
(1.0100424 3.1294599e-05 0)
(1.0098399 -3.5613181e-05 0)
(1.0096926 -7.0081294e-05 0)
(1.0095975 -6.8354629e-05 0)
(1.0095628 -3.0940012e-05 0)
(1.0137723 0.00019467517 0)
(1.0137005 0.00034467118 0)
(1.0134673 0.00040548173 0)
(1.013198 0.00050415102 0)
(1.0128568 0.00056085514 0)
(1.0124775 0.00058947573 0)
(1.0120654 0.00057408967 0)
(1.0116475 0.00051512139 0)
(1.0112445 0.00042254743 0)
(1.0108702 0.00030454107 0)
(1.0105392 0.00018158667 0)
(1.0102569 6.5344931e-05 0)
(1.0100238 -2.6173073e-05 0)
(1.009843 -8.6166751e-05 0)
(1.0097088 -0.00010746559 0)
(1.0096264 -9.1268152e-05 0)
(1.0095977 -3.8369512e-05 0)
(1.0139259 0.00022333824 0)
(1.0139113 0.0002777391 0)
(1.0137166 0.00042590515 0)
(1.0134745 0.00049972581 0)
(1.0131538 0.00059996453 0)
(1.0127893 0.00063728444 0)
(1.0123828 0.00064574291 0)
(1.0119592 0.00059735184 0)
(1.0115406 0.00050998606 0)
(1.0111469 0.00038714551 0)
(1.0107923 0.00025089557 0)
(1.0104846 0.00011362531 0)
(1.0102259 -3.6304802e-06 0)
(1.0100181 -9.1437563e-05 0)
(1.0098541 -0.00013929693 0)
(1.009736 -0.00014635188 0)
(1.0096614 -0.00011385614 0)
(1.00964 -4.5563003e-05 0)
(1.0140465 9.8012907e-05 0)
(1.0140946 0.00031799707 0)
(1.0139388 0.00037183771 0)
(1.0137341 0.0005314775 0)
(1.0134384 0.00061278034 0)
(1.0130889 0.00069308091 0)
(1.0126907 0.00071258988 0)
(1.0122676 0.00068446141 0)
(1.0118367 0.00060451919 0)
(1.0114262 0.0004809103 0)
(1.0110497 0.00033405075 0)
(1.0107193 0.00017737807 0)
(1.0104381 3.4201269e-05 0)
(1.010208 -8.3466897e-05 0)
(1.0100214 -0.00016099783 0)
(1.0098778 -0.00019528724 0)
(1.0097703 -0.00018506176 0)
(1.0097045 -0.00013588748 0)
(1.0096866 -5.2255239e-05 0)
(1.0141041 0.0001582889 0)
(1.0142395 0.00019700014 0)
(1.0141344 0.00041523756 0)
(1.0139681 0.00049452794 0)
(1.0137044 0.00065727784 0)
(1.0133788 0.00072574087 0)
(1.0129878 0.0007875734 0)
(1.0125673 0.00077012265 0)
(1.0121301 0.00070657912 0)
(1.0117043 0.00058459074 0)
(1.0113077 0.0004311296 0)
(1.0109561 0.00025732627 0)
(1.010654 8.8994152e-05 0)
(1.0104046 -5.9661609e-05 0)
(1.0102006 -0.00016992407 0)
(1.0100392 -0.00023540292 0)
(1.0099101 -0.00025171147 0)
(1.0098144 -0.00022326608 0)
(1.0097527 -0.0001565273 0)
(1.0097384 -5.832439e-05 0)
(1.0141041 -1.5509202e-05 0)
(1.0143447 0.00028657565 0)
(1.0142955 0.00030813329 0)
(1.0141752 0.00054694601 0)
(1.0139494 0.00063768409 0)
(1.0136503 0.00078809091 0)
(1.0132764 0.00084327547 0)
(1.0128564 0.00086492381 0)
(1.0124156 0.00081073313 0)
(1.0119784 0.00069869229 0)
(1.0115632 0.00054115819 0)
(1.0111914 0.00035381103 0)
(1.0108687 0.00016194594 0)
(1.0106013 -1.7815867e-05 0)
(1.0103827 -0.00016310219 0)
(1.0102091 -0.00026388995 0)
(1.0100674 -0.00031145166 0)
(1.0099545 -0.00030823 0)
(1.0098649 -0.00025950518 0)
(1.009807 -0.00017541958 0)
(1.009793 -6.3554499e-05 0)
(1.0139155 7.3646379e-05 0)
(1.0143561 0.0001053701 0)
(1.0143958 0.00039738193 0)
(1.0143506 0.00046281789 0)
(1.0141685 0.0007025311 0)
(1.0139045 0.00078929958 0)
(1.0135515 0.00092702865 0)
(1.0131365 0.00094585569 0)
(1.0126906 0.00092534344 0)
(1.0122447 0.00081837619 0)
(1.011814 0.00066432674 0)
(1.0114221 0.00046611152 0)
(1.0110788 0.00025377122 0)
(1.0107935 4.3790319e-05 0)
(1.0105612 -0.00013781826 0)
(1.0103783 -0.0002774089 0)
(1.0102303 -0.00036141977 0)
(1.0101102 -0.00038882245 0)
(1.0100072 -0.00036266217 0)
(1.0099234 -0.00029320618 0)
(1.0098649 -0.00019191853 0)
(1.0098503 -6.7842326e-05 0)
(1.0134003 -0.00012885337 0)
(1.0142463 0.0002351308 0)
(1.0144368 0.00022211001 0)
(1.0144655 0.00055609732 0)
(1.0143535 0.00063106043 0)
(1.014136 0.00087217761 0)
(1.0138085 0.00095416834 0)
(1.0134069 0.0010543297 0)
(1.012955 0.0010308281 0)
(1.0125004 0.0009502196 0)
(1.0120568 0.00079633986 0)
(1.0116464 0.00059432705 0)
(1.0112821 0.00036432229 0)
(1.0109777 0.00012636037 0)
(1.0107309 -9.1763302e-05 0)
(1.0105396 -0.00027269649 0)
(1.0103888 -0.00039796065 0)
(1.0102688 -0.00046221108 0)
(1.0101638 -0.00046459328 0)
(1.0100704 -0.00041425261 0)
(1.0099869 -0.00032321064 0)
(1.0099264 -0.00020565918 0)
(1.0099085 -7.1028866e-05 0)
(1.0125346 -6.4220027e-05 0)
(1.013746 2.5098081e-05 0)
(1.0143207 0.00036470086 0)
(1.0145147 0.00040514639 0)
(1.0144799 0.00073363275 0)
(1.0143321 0.00082120461 0)
(1.0140482 0.0010607254 0)
(1.0136595 0.0011123028 0)
(1.0132122 0.001163526 0)
(1.0127429 0.0010773494 0)
(1.0122878 0.0009426133 0)
(1.0118617 0.00073471549 0)
(1.0114771 0.00049348775 0)
(1.011152 0.00023024485 0)
(1.0108886 -2.3127221e-05 0)
(1.0106877 -0.00024680682 0)
(1.0105349 -0.00041729325 0)
(1.0104192 -0.00052453741 0)
(1.0103209 -0.00056265034 0)
(1.0102309 -0.00053782176 0)
(1.0101406 -0.00046121291 0)
(1.0100559 -0.00034891489 0)
(1.0099897 -0.0002162047 0)
(1.0099671 -7.3041811e-05 0)
(1.0118791 -0.00019411887 0)
(1.0128794 0.00011964452 0)
(1.0138797 0.00015413196 0)
(1.0144199 0.00055232184 0)
(1.0145427 0.00059352876 0)
(1.0144787 0.00093915881 0)
(1.0142534 0.0010382955 0)
(1.0138971 0.0012481191 0)
(1.0134516 0.0012518677 0)
(1.0129796 0.0012311649 0)
(1.0125059 0.0010871103 0)
(1.012064 0.00089127832 0)
(1.0116621 0.00063824039 0)
(1.0113154 0.00035545337 0)
(1.0110327 6.9082932e-05 0)
(1.0108193 -0.0001972331 0)
(1.0106632 -0.00041581962 0)
(1.0105529 -0.00057152695 0)
(1.0104665 -0.00065281855 0)
(1.01039 -0.00066154424 0)
(1.0103079 -0.00060602079 0)
(1.010219 -0.00050268425 0)
(1.010128 -0.00036951646 0)
(1.0100541 -0.00022330521 0)
(1.0100248 -7.3816502e-05 0)
(1.0100624 -0.0001980955 0)
(1.0123012 -6.4415622e-05 0)
(1.0130023 0.00027473526 0)
(1.0140019 0.00035686342 0)
(1.0144592 0.0007456464 0)
(1.0145578 0.00081689958 0)
(1.0144166 0.0011802426 0)
(1.0141011 0.0012622324 0)
(1.0136765 0.00141651 0)
(1.0131978 0.0013463916 0)
(1.0127181 0.0012578795 0)
(1.0122547 0.0010497164 0)
(1.0118331 0.00080098046 0)
(1.011467 0.00049986117 0)
(1.0111628 0.00018535765 0)
(1.010933 -0.0001223285 0)
(1.0107699 -0.00039029205 0)
(1.0106637 -0.0005989102 0)
(1.010591 -0.00073040415 0)
(1.0105345 -0.00078142175 0)
(1.0104725 -0.00075570902 0)
(1.0103964 -0.00066802791 0)
(1.0103025 -0.00053738768 0)
(1.0102028 -0.00038454521 0)
(1.0101182 -0.00022673311 0)
(1.0100807 -7.3326108e-05 0)
(1.0051638 -0.00032858274 0)
(1.0106403 6.4250264e-05 0)
(1.0124281 7.5675511e-05 0)
(1.0131262 0.00050272815 0)
(1.0140672 0.0005552809 0)
(1.0144966 0.00097982339 0)
(1.0145118 0.0010903512 0)
(1.0142683 0.0014374732 0)
(1.0138674 0.0014668367 0)
(1.0134025 0.0015349132 0)
(1.0129112 0.0013948427 0)
(1.0124386 0.0012342163 0)
(1.0119923 0.00097007358 0)
(1.0116032 0.00066483521 0)
(1.0112786 0.00032424023 0)
(1.0110285 -2.0925276e-05 0)
(1.0108537 -0.00033826932 0)
(1.0107476 -0.00060264471 0)
(1.0106875 -0.00079048419 0)
(1.0106538 -0.00089241908 0)
(1.0106198 -0.00090638235 0)
(1.0105703 -0.00084357719 0)
(1.0104927 -0.00072197122 0)
(1.0103913 -0.00056459394 0)
(1.0102786 -0.00039355458 0)
(1.0101812 -0.00022637998 0)
(1.010134 -7.1566244e-05 0)
(0.99784307 -0.00033163355 0)
(1.0056457 -0.00024469438 0)
(1.0109365 0.00023952824 0)
(1.0125526 0.00027427937 0)
(1.0132135 0.00071632338 0)
(1.0141367 0.00079432692 0)
(1.014476 0.0012794288 0)
(1.0143657 0.0013931317 0)
(1.0140233 0.0016748985 0)
(1.0135719 0.0016154348 0)
(1.0130925 0.0016011021 0)
(1.0126044 0.0013897512 0)
(1.0121444 0.0011656609 0)
(1.0117264 0.00084059594 0)
(1.0113773 0.0004865848 0)
(1.0111063 0.00010631347 0)
(1.0109146 -0.00025791218 0)
(1.0108029 -0.0005794675 0)
(1.0107515 -0.00082823665 0)
(1.0107399 -0.00098901122 0)
(1.0107381 -0.0010527878 0)
(1.0107249 -0.0010257406 0)
(1.0106797 -0.00092263869 0)
(1.0105977 -0.00076678224 0)
(1.0104829 -0.00058353985 0)
(1.0103546 -0.00039630258 0)
(1.0102421 -0.00022222285 0)
(1.010184 -6.8546965e-05 0)
(0.98946831 -0.00042434389 0)
(0.99837534 -0.00013648583 0)
(1.0059312 -4.3837968e-05 0)
(1.0112202 0.00048394204 0)
(1.0126366 0.00045824063 0)
(1.0133191 0.00097313825 0)
(1.0141543 0.0011160023 0)
(1.0143409 0.0016194569 0)
(1.0141081 0.0016734408 0)
(1.0137068 0.0018495898 0)
(1.0132385 0.0017043631 0)
(1.0127595 0.0016114926 0)
(1.0122805 0.0013380028 0)
(1.0118421 0.0010444767 0)
(1.0114604 0.00066451944 0)
(1.0111646 0.00026002628 0)
(1.0109536 -0.00014881579 0)
(1.0108299 -0.00052664025 0)
(1.0107809 -0.00083952243 0)
(1.0107876 -0.0010655467 0)
(1.0108182 -0.0011888819 0)
(1.0108471 -0.0012091852 0)
(1.010846 -0.0011362237 0)
(1.0108016 -0.00099134934 0)
(1.010708 -0.0008012461 0)
(1.0105767 -0.00059376975 0)
(1.0104294 -0.00039268971 0)
(1.0103 -0.00021426261 0)
(1.0102298 -6.4301339e-05 0)
(0.98027085 -0.00045465549 0)
(0.98999056 -0.00030536274 0)
(0.99862067 1.7015748e-05 0)
(1.0063437 0.0001879962 0)
(1.0115035 0.00070018796 0)
(1.0127511 0.00069681004 0)
(1.0133688 0.0013340803 0)
(1.0140415 0.0015021876 0)
(1.0140734 0.0019364069 0)
(1.0137709 0.0018778431 0)
(1.0133521 0.0019572873 0)
(1.0128837 0.0017326786 0)
(1.0124082 0.001573701 0)
(1.0119432 0.0012319456 0)
(1.0115347 0.00087259414 0)
(1.0112036 0.00043412454 0)
(1.0109698 -1.0597867e-05 0)
(1.01083 -0.00044292437 0)
(1.010776 -0.0008206226 0)
(1.0107944 -0.0011168064 0)
(1.0108541 -0.0013082559 0)
(1.0109265 -0.0013874701 0)
(1.0109771 -0.0013574971 0)
(1.0109844 -0.0012357782 0)
(1.0109324 -0.0010479689 0)
(1.0108235 -0.00082456431 0)
(1.0106709 -0.00059505866 0)
(1.0105022 -0.00038268532 0)
(1.0103541 -0.00020258787 0)
(1.0102711 -5.8880695e-05 0)
(0.96920737 -0.00052640081 -1.8142707e-24)
(0.98083717 -0.00030284618 0)
(0.99028836 -0.00011742192 0)
(0.99897229 0.00017896023 0)
(1.0069428 0.00037612451 0)
(1.0118351 0.00096205316 0)
(1.0127956 0.0010659892 0)
(1.0132718 0.0017717178 0)
(1.013777 0.0018671443 0)
(1.013718 0.0021664628 0)
(1.0133969 0.0020027879 0)
(1.0129793 0.0020019845 0)
(1.0125072 0.0017150429 0)
(1.0120378 0.0014818033 0)
(1.0115947 0.0010719161 0)
(1.0112313 0.00064076685 0)
(1.0109625 0.00015232331 0)
(1.0108032 -0.00032768922 0)
(1.0107384 -0.000769391 0)
(1.0107603 -0.0011382611 0)
(1.0108425 -0.0014047375 0)
(1.0109556 -0.0015534643 0)
(1.0110611 -0.0015797794 0)
(1.0111299 -0.0014951452 0)
(1.0111361 -0.0013219956 0)
(1.0110721 -0.0010912464 0)
(1.0109413 -0.00083615212 0)
(1.0107643 -0.00058696598 0)
(1.0105717 -0.00036627902 0)
(1.0104038 -0.0001873326 0)
(1.0103073 -5.2353037e-05 0)
(0.95606699 -0.00056992357 2.15161e-24)
(0.96977303 -0.00040404733 1.8935087e-24)
(0.98117033 -0.00014197043 0)
(0.99066561 3.6309534e-05 0)
(0.99949198 0.00031487715 0)
(1.0077043 0.00063171894 0)
(1.0120941 0.0013898852 0)
(1.0126439 0.0015409339 0)
(1.013006 0.0021820172 0)
(1.0134174 0.0021263391 0)
(1.0133319 0.0023035826 0)
(1.0130106 0.0020621261 0)
(1.0125858 0.0020004665 0)
(1.012107 0.0016457729 0)
(1.0116484 0.0013333613 0)
(1.0112432 0.00084603983 0)
(1.0109404 0.000350082 0)
(1.0107483 -0.00018394334 0)
(1.0106694 -0.00068438047 0)
(1.0106871 -0.0011265843 0)
(1.0107831 -0.0014724599 0)
(1.0109305 -0.0016999289 0)
(1.0110893 -0.001795353 0)
(1.0112246 -0.0017627233 0)
(1.0113012 -0.0016189095 0)
(1.0113014 -0.0013930538 0)
(1.0112173 -0.0011202354 0)
(1.0110608 -0.00083574793 0)
(1.0108557 -0.00056973243 0)
(1.0106372 -0.00034369237 0)
(1.0104486 -0.00016870689 0)
(1.0103381 -4.4808003e-05 0)
(0.94191478 -0.00058445472 -2.1619324e-24)
(0.95667888 -0.00047139744 -6.0600438e-24)
(0.97010383 -0.00022262487 0)
(0.9816331 -2.7301093e-05 0)
(0.99121639 0.00012459183 0)
(1.0002286 0.00053971196 0)
(1.0084469 0.0010705822 0)
(1.0121174 0.0019349019 0)
(1.0122901 0.0019919669 0)
(1.0126447 0.0024581482 0)
(1.0130365 0.0022722525 0)
(1.0129437 0.0023743354 0)
(1.0126061 0.0020791999 0)
(1.0121606 0.0019529518 0)
(1.0116783 0.001520081 0)
(1.0112475 0.0011137651 0)
(1.0108995 0.00055282749 0)
(1.0106744 -3.3592365e-06 0)
(1.0105674 -0.00056797628 0)
(1.010577 -0.0010795084 0)
(1.0106776 -0.0015071229 0)
(1.0108502 -0.0018199857 0)
(1.0110565 -0.0019960743 0)
(1.0112583 -0.0020303418 0)
(1.0114127 -0.0019321545 0)
(1.0114918 -0.0017262924 0)
(1.0114761 -0.0014474663 0)
(1.0113674 -0.0011341565 0)
(1.0111799 -0.0008230628 0)
(1.010944 -0.00054351459 0)
(1.0106981 -0.00031527139 0)
(1.0104879 -0.00014694075 0)
(1.0103633 -3.634588e-05 0)
(0.92742365 -0.00061956014 0)
(0.94247918 -0.00047524188 6.0689969e-24)
(0.95707147 -0.00033243403 0)
(0.97057741 -0.00011976619 0)
(0.98230404 3.5720349e-05 0)
(0.99194475 0.00027443833 0)
(1.0010926 0.0010354516 0)
(1.0090034 0.0016652582 0)
(1.0118435 0.002436708 0)
(1.0118288 0.0023080454 0)
(1.0122795 0.0026015708 0)
(1.0126683 0.002348375 0)
(1.0125433 0.0024118386 0)
(1.0121616 0.0020578383 0)
(1.0116961 0.001849903 0)
(1.0112277 0.001318209 0)
(1.0108486 0.00081791857 0)
(1.0105786 0.00018794376 0)
(1.0104417 -0.00041293978 0)
(1.0104289 -0.00099829046 0)
(1.0105289 -0.0015052633 0)
(1.0107161 -0.0019077316 0)
(1.0109607 -0.0021737327 0)
(1.0112243 -0.0022889914 0)
(1.0114587 -0.0022533233 0)
(1.0116267 -0.0020848537 0)
(1.0116971 -0.00181504 0)
(1.0116601 -0.0014837494 0)
(1.0115193 -0.0011325354 0)
(1.0112974 -0.00079807429 0)
(1.0110281 -0.00050864509 0)
(1.0107536 -0.00028138755 0)
(1.0105216 -0.00012228235 0)
(1.0103828 -2.7016235e-05 0)
(0.91288463 -0.00056802103 1.2079413e-24)
(0.92785397 -0.00056093206 0)
(0.9428403 -0.00031062949 1.1796382e-23)
(0.95762035 -0.00030616494 0)
(0.97128144 -7.9832907e-05 0)
(0.98316581 0.00019682393 0)
(0.99272985 0.00066776116 0)
(1.0019264 0.0017347095 0)
(1.0093059 0.0022410797 0)
(1.0113785 0.0027331801 0)
(1.011392 0.0024689134 0)
(1.0119526 0.0026764344 0)
(1.0122928 0.002400377 0)
(1.0120936 0.0024230446 0)
(1.011664 0.001984957 0)
(1.0111959 0.0016650969 0)
(1.0107717 0.0010303005 0)
(1.0104693 0.0004403761 0)
(1.0102907 -0.00024196075 0)
(1.0102521 -0.00087668696 0)
(1.0103365 -0.0014668608 0)
(1.0105318 -0.0019584871 0)
(1.010803 -0.0023211014 0)
(1.0111193 -0.00252944 0)
(1.0114307 -0.0025728755 0)
(1.0116923 -0.0024604208 0)
(1.0118617 -0.0022176743 0)
(1.011917 -0.0018829677 0)
(1.0118492 -0.0015011584 0)
(1.011672 -0.0011150306 0)
(1.0114117 -0.00076119724 0)
(1.0111071 -0.00046556792 0)
(1.0108032 -0.00024246657 0)
(1.0105493 -9.5011368e-05 0)
(1.0103965 -1.6955092e-05 0)
(0.89887111 -0.00055868851 -4.0701778e-24)
(0.91309668 -0.00051522681 -1.7316752e-23)
(0.92814796 -0.00042203272 -1.1789701e-23)
(0.94335106 -0.0002877917 -1.7916385e-23)
(0.95841314 -0.00035682886 -2.2608491e-23)
(0.97217996 6.1280222e-05 0)
(0.98408026 0.00065664263 0)
(0.99342698 0.0012414395 0)
(1.0027011 0.0023866893 0)
(1.0094669 0.0026098001 0)
(1.0109002 0.0028278738 0)
(1.0110199 0.0025511965 0)
(1.0116284 0.0027463182 0)
(1.0118627 0.0024400958 0)
(1.011573 0.0023891429 0)
(1.0111136 0.0018265293 0)
(1.0106814 0.0013821867 0)
(1.0103321 0.00064955866 0)
(1.0101232 -1.1192501e-05 0)
(1.0100465 -0.00073391925 0)
(1.0101103 -0.0013861487 0)
(1.0102973 -0.001970776 0)
(1.0105872 -0.0024316148 0)
(1.0109436 -0.0027427766 0)
(1.0113238 -0.0028803944 0)
(1.011678 -0.0028430196 0)
(1.0119542 -0.0026474205 0)
(1.0121178 -0.0023275958 0)
(1.0121466 -0.0019288259 0)
(1.0120426 -0.0014988131 0)
(1.0118231 -0.0010819452 0)
(1.0115217 -0.00071279644 0)
(1.0111803 -0.00041483528 0)
(1.0108468 -0.00019889683 0)
(1.0105709 -6.540694e-05 0)
(1.0104043 -6.2353079e-06 0)
(0.88601149 -0.00047694763 4.6875489e-24)
(0.89880368 -0.00052129983 3.0431113e-23)
(0.91327131 -0.00037094815 0)
(0.92857157 -0.00046386995 6.3029685e-23)
(0.94411571 -0.00034205 2.2493748e-23)
(0.95941625 -0.00031575183 3.4698228e-23)
(0.97310284 0.00052988641 1.7784179e-23)
(0.98490744 0.0013091778 0)
(0.99410077 0.0017944823 0)
(1.0035037 0.0027893141 0)
(1.0095826 0.0027584614 0)
(1.010463 0.0028655473 0)
(1.0106753 0.0026302323 0)
(1.0112441 0.0028298606 0)
(1.0113382 0.0024442163 0)
(1.0109781 0.0022648228 0)
(1.0105385 0.0015576149 0)
(1.01018 0.0009933768 0)
(1.0099262 0.00018464031 0)
(1.0098216 -0.00053250918 0)
(1.0098513 -0.0012790624 0)
(1.0100228 -0.0019384476 0)
(1.0103139 -0.0025025414 0)
(1.010701 -0.0029205796 0)
(1.0111371 -0.0031655553 0)
(1.0115773 -0.0032215086 0)
(1.011962 -0.0030942885 0)
(1.0122449 -0.0028104962 0)
(1.0123896 -0.0024126291 0)
(1.0123851 -0.001950971 0)
(1.0122367 -0.0014768978 0)
(1.0119712 -0.0010334398 0)
(1.011626 -0.00065355452 0)
(1.0112469 -0.00035705744 0)
(1.0108838 -0.00015097133 0)
(1.0105864 -3.3784932e-05 0)
(1.0104065 5.0419016e-06 0)
(0.87473567 -0.00040326919 -1.0140356e-25)
(0.88559733 -0.00044298251 -7.2643178e-24)
(0.89882167 -0.00037932878 1.2653355e-23)
(0.91352339 -0.00044805174 -2.5076842e-23)
(0.92927259 -0.00058821138 -4.6799362e-23)
(0.94510148 -0.0002890061 3.0974794e-23)
(0.96045741 6.413565e-05 1.2422816e-22)
(0.97391662 0.0012196344 -2.2164843e-23)
(0.98568087 0.0018714918 0)
(0.99491496 0.0021334731 0)
(1.0043925 0.0029679667 0)
(1.0095949 0.0028165348 0)
(1.0100533 0.0029587849 0)
(1.0102777 0.0027394188 0)
(1.0107474 0.0028926281 0)
(1.0107117 0.0023531545 0)
(1.0103446 0.0020135287 0)
(1.009974 0.001167935 0)
(1.0097134 0.00050943603 0)
(1.009566 -0.00035773534 0)
(1.00957 -0.0011136126 0)
(1.0097112 -0.0018742463 0)
(1.0099926 -0.0025268567 0)
(1.0103924 -0.0030585172 0)
(1.0108736 -0.0034179993 0)
(1.0113875 -0.003583987 0)
(1.0118763 -0.003546436 0)
(1.0122835 -0.0033217951 0)
(1.0125588 -0.002946422 0)
(1.0126763 -0.0024702285 0)
(1.0126278 -0.00194926 0)
(1.0124302 -0.0014350357 0)
(1.0121143 -0.00097029923 0)
(1.0117236 -0.00058414281 0)
(1.0113068 -0.00029260811 0)
(1.0109141 -9.9565493e-05 0)
(1.0105959 -4.2051902e-07 0)
(1.0104032 1.6756316e-05 0)
(0.86500941 -0.00027016441 -1.8574648e-24)
(0.87394179 -0.00035866076 3.2031998e-24)
(0.88544493 -0.00030880992 0)
(0.8988611 -0.00049407849 -1.9166252e-23)
(0.91407023 -0.00061846453 -5.6739706e-24)
(0.93019893 -0.00059581682 0)
(0.9461354 0.00013717187 -8.8591554e-23)
(0.96140348 0.00066552644 -1.0141856e-22)
(0.97467071 0.0018397037 0)
(0.98657077 0.002110954 0)
(0.99605054 0.0022296909 0)
(1.0053689 0.0030832229 0)
(1.0094873 0.0028863195 0)
(1.0095883 0.0031337208 0)
(1.0097543 0.0028438706 0)
(1.0101227 0.0028573607 0)
(1.0100284 0.0021164428 0)
(1.0097193 0.0016231844 0)
(1.009447 0.00067225386 0)
(1.0092951 -5.9479534e-05 0)
(1.0092573 -0.00096569914 0)
(1.0093735 -0.0017507943 0)
(1.009629 -0.0025130372 0)
(1.0100265 -0.0031480351 0)
(1.010535 -0.0036314233 0)
(1.0111101 -0.0039185776 0)
(1.0116925 -0.003990899 0)
(1.0122224 -0.003849515 0)
(1.0126371 -0.0035211092 0)
(1.012895 -0.0030517795 0)
(1.0129723 -0.0024995405 0)
(1.0128735 -0.0019226651 0)
(1.0126201 -0.0013741921 0)
(1.0122513 -0.00089312907 0)
(1.0118139 -0.00050540039 0)
(1.0113592 -0.00022243583 0)
(1.0109378 -4.4820684e-05 0)
(1.0105994 3.4339986e-05 0)
(1.0103945 2.8789624e-05 0)
(0.85745532 -0.00014145666 0)
(0.86377609 -0.00020161278 0)
(0.87357842 -0.00022914969 -3.3045513e-24)
(0.88524217 -0.00046252121 0)
(0.89920994 -0.00071349738 -2.8866433e-24)
(0.91482327 -0.0006694157 4.4547304e-23)
(0.93119922 -0.00020105343 2.1567771e-22)
(0.94709002 0.00079307996 1.9458377e-22)
(0.96231197 0.001191391 0)
(0.97555337 0.0021105662 0)
(0.98779831 0.0020731833 0)
(0.99757942 0.0022572893 0)
(1.0063798 0.0032705645 0)
(1.009219 0.0030363473 0)
(1.0089493 0.0033214647 0)
(1.0090924 0.0028455365 0)
(1.0094251 0.002656685 0)
(1.0093496 0.0017194879 0)
(1.0091363 0.0011132807 0)
(1.0089721 8.5548394e-05 0)
(1.0089302 -0.00069917665 0)
(1.0090032 -0.0016346947 0)
(1.0092343 -0.0024383444 0)
(1.0096109 -0.003193887 0)
(1.0101278 -0.0037958406 0)
(1.0107476 -0.0042162475 0)
(1.0114101 -0.0044144232 0)
(1.0120547 -0.0043799056 0)
(1.0126109 -0.0041248847 0)
(1.013022 -0.0036876528 0)
(1.0132474 -0.003124639 0)
(1.0132763 -0.0024987932 0)
(1.0131179 -0.001872065 0)
(1.0128049 -0.0012945384 0)
(1.0123806 -0.00080301981 0)
(1.0118963 -0.00041807872 0)
(1.0114041 -0.00014708585 0)
(1.0109547 1.2428998e-05 0)
(1.0105972 7.0247999e-05 0)
(1.0103807 4.1138808e-05 0)
(0.85566263 -3.0021381e-05 -4.1872233e-25)
(0.85742513 0.00010852853 0)
(0.86312755 -6.7549226e-05 -8.6627141e-24)
(0.8730538 -0.00040726613 -1.332282e-23)
(0.88536298 -0.00072910593 -8.0743346e-24)
(0.89974502 -0.00081081171 1.5315849e-23)
(0.91566014 -0.00029763622 6.7156271e-24)
(0.9321426 0.00044054855 2.6425084e-23)
(0.94803033 0.0013587813 -2.5562271e-22)
(0.96336365 0.0013440182 0)
(0.97679165 0.0020428737 -2.5510101e-22)
(0.98943448 0.001983222 0)
(0.99932021 0.0023954846 0)
(1.0072261 0.0036093208 0)
(1.0086644 0.0032370957 0)
(1.0081102 0.0033967831 0)
(1.0083586 0.0026562393 0)
(1.0087307 0.0022688223 0)
(1.0087179 0.0011889714 0)
(1.0086113 0.00050469742 0)
(1.008554 -0.00057497214 0)
(1.0086197 -0.001402999 0)
(1.0088045 -0.002359416 0)
(1.0091577 -0.0031759876 0)
(1.0096615 -0.0039115358 0)
(1.0103038 -0.0044657111 0)
(1.0110318 -0.0048049499 0)
(1.0117774 -0.0048983207 0)
(1.0124704 -0.0047436566 0)
(1.0130412 -0.0043667511 0)
(1.013432 -0.0038181744 0)
(1.0136144 -0.0031623446 0)
(1.0135827 -0.0024684203 0)
(1.0133595 -0.0017971001 0)
(1.0129824 -0.0011975961 0)
(1.0125015 -0.00070082357 0)
(1.01197 -0.00032314276 0)
(1.0114412 -6.7512483e-05 0)
(1.010965 7.1947426e-05 0)
(1.0105894 0.00010701346 0)
(1.0103622 5.3656016e-05 0)
(0.85474035 0.0001045098 7.7048973e-24)
(0.85565912 0.0002946495 0)
(0.86495013 0.0002324942 -1.7880323e-24)
(0.86218733 -0.00025511527 1.3315512e-23)
(0.87283106 -0.00070629883 3.1842475e-24)
(0.88562858 -0.00085952887 9.2292026e-23)
(0.90037626 -0.00046059161 -1.7221717e-22)
(0.91644961 0.00032327786 -7.9187842e-23)
(0.93308955 0.00099153784 -2.3847072e-22)
(0.94912626 0.0014939069 -9.27566e-23)
(0.96478591 0.0011349059 -3.3832935e-22)
(0.97843397 0.0019112626 2.6520872e-22)
(0.99133597 0.0020464154 0)
(1.0010302 0.0028126634 0)
(1.0075217 0.0040007129 0)
(1.0077596 0.003347886 0)
(1.0071744 0.0032409951 0)
(1.0076505 0.0022455558 0)
(1.0080901 0.0017319719 0)
(1.0081497 0.00055367186 0)
(1.0081474 -0.00018088538 0)
(1.0081903 -0.0013001927 0)
(1.0083613 -0.0021660113 0)
(1.008665 -0.0031413706 0)
(1.0091486 -0.0039609347 0)
(1.0097895 -0.0046631921 0)
(1.0105586 -0.0051501275 0)
(1.0113925 -0.0053899119 0)
(1.0122101 -0.005361887 0)
(1.0129398 -0.0050751283 0)
(1.0135072 -0.0045702138 0)
(1.0138649 -0.003908856 0)
(1.0139894 -0.0031644525 0)
(1.0138897 -0.0024074729 0)
(1.0135946 -0.0016995293 0)
(1.0131513 -0.0010839288 0)
(1.0126128 -0.00058777752 0)
(1.012035 -0.0002215663 0)
(1.0114707 1.5704849e-05 0)
(1.010969 0.00013304844 0)
(1.0105763 0.00014438334 0)
(1.0103391 6.6285591e-05 0)
(0.85344038 -8.6139536e-05 3.5265766e-24)
(0.85474521 0.00041632781 1.0051121e-23)
(0.86376049 0.00045864541 0)
(0.87464827 0.00036422441 -8.4717574e-26)
(0.86151399 -0.00056871862 -4.1922451e-24)
(0.87265358 -0.00086426281 -5.0756681e-23)
(0.8859783 -0.00052087383 0)
(0.90099147 0.00015094071 7.8660741e-23)
(0.91726075 0.00084437764 -1.2033997e-22)
(0.93419531 0.0010773219 9.1561452e-23)
(0.9505923 0.0012182346 4.2437993e-22)
(0.9666472 0.00084501447 3.5119272e-22)
(0.98034172 0.0019636286 0)
(0.99327628 0.0024355285 0)
(1.0023317 0.00340614 0)
(1.0072162 0.0042316188 0)
(1.0066683 0.0032152185 0)
(1.0062939 0.0028299126 0)
(1.0070273 0.0016675175 0)
(1.0075183 0.0010863152 0)
(1.0076477 -0.00015862823 0)
(1.0077393 -0.00093085395 0)
(1.0078748 -0.0020845629 0)
(1.0081556 -0.0029919668 0)
(1.0085893 -0.0039804164 0)
(1.0092167 -0.0047922606 0)
(1.0100011 -0.0054420008 0)
(1.0108989 -0.0058419311 0)
(1.0118297 -0.0059622555 0)
(1.0127093 -0.0057966156 0)
(1.0134574 -0.0053675727 0)
(1.0140067 -0.0047301308 0)
(1.0143137 -0.0039580196 0)
(1.0143702 -0.0031293069 0)
(1.0141926 -0.0023175758 0)
(1.013822 -0.0015795386 0)
(1.0133098 -0.00095537926 0)
(1.012714 -0.00046498856 0)
(1.0120908 -0.00011441064 0)
(1.0114925 0.00010175272 0)
(1.0109667 0.00019544959 0)
(1.0105583 0.0001821056 0)
(1.0103118 7.8927935e-05 0)
(0.85252396 -0.00042583094 -5.1621126e-24)
(0.85346882 0.00021735078 -3.5347072e-24)
(0.86318651 0.00058262306 -8.6597794e-24)
(0.87388814 0.00059995963 -3.1750165e-24)
(0.88588541 0.00043280571 7.0542812e-24)
(0.86087151 -0.00073647754 5.172356e-23)
(0.87255068 -0.00054027463 3.7744147e-23)
(0.88628593 8.3516555e-05 0)
(0.90165141 0.00066456916 1.2367327e-22)
(0.91821529 0.00086807505 -4.0459418e-23)
(0.93565813 0.00070719746 0)
(0.95250007 0.00085322626 -5.0566942e-22)
(0.96881278 0.00074547132 0)
(0.98231074 0.0023944187 0)
(0.99505545 0.0030205 0)
(1.0031886 0.003895908 0)
(1.0064274 0.004081405 0)
(1.0055851 0.0027772624 0)
(1.0055546 0.0022367627 0)
(1.0064979 0.00098148672 0)
(1.0070149 0.00036214455 0)
(1.0072034 -0.00092971924 0)
(1.0073751 -0.0017372901 0)
(1.0076038 -0.0029337356 0)
(1.0080071 -0.0038847004 0)
(1.0085882 -0.0048793261 0)
(1.009371 -0.0056650765 0)
(1.0103055 -0.0062415625 0)
(1.0113275 -0.0065312156 0)
(1.0123464 -0.0065127187 0)
(1.0132707 -0.0061939736 0)
(1.014021 -0.0056142058 0)
(1.0145322 -0.0048431006 0)
(1.0147753 -0.0039630256 0)
(1.0147506 -0.0030579417 0)
(1.0144894 -0.0021985427 0)
(1.0140386 -0.0014394822 0)
(1.0134572 -0.00081283536 0)
(1.0128046 -0.00033384585 0)
(1.0121373 -2.6143177e-06 0)
(1.0115067 0.00019001705 0)
(1.0109585 0.00025857716 0)
(1.0105355 0.00021996174 0)
(1.0102806 9.1536761e-05 0)
(0.85163501 -0.00062906777 3.0971881e-24)
(0.8525324 -0.00014391541 5.171219e-24)
(0.86227932 0.00038619908 1.3470251e-23)
(0.87366805 0.00072810665 3.2756963e-24)
(0.88549678 0.00066874926 -9.6757449e-24)
(0.89868579 0.00051257213 -3.8765591e-24)
(0.8604006 -0.00041174228 -8.18699e-23)
(0.87241871 5.9552286e-05 -5.0125412e-23)
(0.8866122 0.00058849561 -1.4981345e-22)