/*--------------------------------*- C++ -*----------------------------------*\
| =========                 |                                                 |
| \\      /  F ield         | OpenFOAM: The Open Source CFD Toolbox           |
|  \\    /   O peration     | Version:  5.0                                   |
|   \\  /    A nd           | Web:      www.OpenFOAM.org                      |
|    \\/     M anipulation  |                                                 |
\*---------------------------------------------------------------------------*/
FoamFile
{
    version     2.0;
    format      ascii;
    class       volSymmTensorField;
    location    "240";
    object      UPrime2Mean;
}
// * * * * * * * * * * * * * * * * * * * * * * * * * * * * * * * * * * * * * //

dimensions      [0 2 -2 0 0 0 0];

internalField   nonuniform List<symmTensor> 
9520
(
(2.9711971e-05 6.9144683e-07 0 2.277252e-08 0 0)
(3.0109795e-05 2.031358e-06 0 1.9601829e-07 0 0)
(2.5755451e-05 6.5168406e-07 0 2.3432402e-08 0 0)
(3.0830935e-05 3.2883775e-06 0 5.1095953e-07 0 0)
(2.6163683e-05 1.9171124e-06 0 2.0174165e-07 0 0)
(2.4223522e-05 6.4120507e-07 0 2.3976986e-08 0 0)
(3.1828615e-05 4.4669683e-06 0 9.3714893e-07 0 0)
(2.6909317e-05 3.1107148e-06 0 5.2617333e-07 0 0)
(2.4632641e-05 1.8879566e-06 0 2.0653665e-07 0 0)
(2.1850006e-05 6.2247735e-07 0 2.5074642e-08 0 0)
(3.3065295e-05 5.5699378e-06 0 1.4481226e-06 0 0)
(2.7948538e-05 4.2394087e-06 0 9.6594984e-07 0 0)
(2.5379864e-05 3.0679189e-06 0 5.3910515e-07 0 0)
(2.2256377e-05 1.8352359e-06 0 2.1616366e-07 0 0)
(2.0083326e-05 6.0875783e-07 0 2.6121563e-08 0 0)
(3.4507068e-05 6.5974097e-06 0 2.0212267e-06 0 0)
(2.9247779e-05 5.3075356e-06 0 1.4943803e-06 0 0)
(2.6423632e-05 4.1894231e-06 0 9.9064375e-07 0 0)
(2.3002175e-05 2.9894146e-06 0 5.6502835e-07 0 0)
(2.0484548e-05 1.7966574e-06 0 2.2535958e-07 0 0)
(1.8172714e-05 5.9367853e-07 0 2.7528173e-08 0 0)
(3.6120267e-05 7.5487619e-06 0 2.6373976e-06 0 0)
(3.0776988e-05 6.3162109e-06 0 2.0886088e-06 0 0)
(2.7732342e-05 5.2577642e-06 0 1.5342774e-06 0 0)
(2.4048265e-05 4.095521e-06 0 1.0401858e-06 0 0)
(2.122232e-05 2.9323991e-06 0 5.8986713e-07 0 0)
(1.8562819e-05 1.7542614e-06 0 2.377514e-07 0 0)
(1.6520355e-05 5.7801291e-07 0 2.8845627e-08 0 0)
(3.7871506e-05 8.4224641e-06 0 3.2809064e-06 0 0)
(3.2506357e-05 7.2653259e-06 0 2.7295884e-06 0 0)
(2.9277812e-05 6.2745599e-06 0 2.1468248e-06 0 0)
(2.5366018e-05 5.1607582e-06 0 1.6146869e-06 0 0)
(2.2259991e-05 4.0284327e-06 0 1.0878622e-06 0 0)
(1.9281944e-05 2.8697943e-06 0 6.2346874e-07 0 0)
(1.6899118e-05 1.7098782e-06 0 2.4937264e-07 0 0)
(1.4876478e-05 5.6082924e-07 0 3.0372201e-08 0 0)
(3.972711e-05 9.2160696e-06 0 3.9394884e-06 0 0)
(3.4406676e-05 8.1530246e-06 0 3.4016938e-06 0 0)
(3.1031964e-05 7.2399613e-06 0 2.8085899e-06 0 0)
(2.6930245e-05 6.1880291e-06 0 2.2654607e-06 0 0)
(2.3571744e-05 5.0935785e-06 0 1.692304e-06 0 0)
(2.0296517e-05 3.9549523e-06 0 1.1527111e-06 0 0)
(1.7598519e-05 2.8029747e-06 0 6.5509408e-07 0 0)
(1.5238104e-05 1.661015e-06 0 2.6285611e-07 0 0)
(1.3408161e-05 5.4084256e-07 0 3.1771714e-08 0 0)
(4.165483e-05 9.9291888e-06 0 4.6031638e-06 0 0)
(3.6445621e-05 8.9763071e-06 0 4.0914575e-06 0 0)
(3.2965811e-05 8.152612e-06 0 3.502979e-06 0 0)
(2.8715853e-05 7.1782615e-06 0 2.9729385e-06 0 0)
(2.5135017e-05 6.1317237e-06 0 2.3800447e-06 0 0)
(2.1583603e-05 5.0202106e-06 0 1.7985998e-06 0 0)
(1.8587423e-05 3.8739444e-06 0 1.2140276e-06 0 0)
(1.5906744e-05 2.7285722e-06 0 6.9188069e-07 0 0)
(1.3752995e-05 1.6036753e-06 0 2.752267e-07 0 0)
(1.1996832e-05 5.1823272e-07 0 3.3252011e-08 0 0)
(4.3623042e-05 1.0555807e-05 0 5.2661487e-06 0 0)
(3.8594095e-05 9.732877e-06 0 4.7879579e-06 0 0)
(3.5051025e-05 9.0104055e-06 0 4.2181197e-06 0 0)
(3.0697454e-05 8.1301171e-06 0 3.7205054e-06 0 0)
(2.692665e-05 7.1444507e-06 0 3.1314028e-06 0 0)
(2.3123908e-05 6.0708521e-06 0 2.5382439e-06 0 0)
(1.9845447e-05 4.9346518e-06 0 1.8996364e-06 0 0)
(1.6854879e-05 3.7818762e-06 0 1.2855612e-06 0 0)
(1.4391681e-05 2.6395236e-06 0 7.2573978e-07 0 0)
(1.2320777e-05 1.5382998e-06 0 2.8835997e-07 0 0)
(1.0735608e-05 4.927109e-07 0 3.4547052e-08 0 0)
(4.5604279e-05 1.1107342e-05 0 5.9233457e-06 0 0)
(4.0823561e-05 1.0416505e-05 0 5.4866381e-06 0 0)
(3.725934e-05 9.8110066e-06 0 4.9431429e-06 0 0)
(3.2847391e-05 9.0403463e-06 0 4.4938218e-06 0 0)
(2.8922149e-05 8.1308223e-06 0 3.9297018e-06 0 0)
(2.4897396e-05 7.1094979e-06 0 3.352154e-06 0 0)
(2.1355829e-05 5.9916328e-06 0 2.6893172e-06 0 0)
(1.8064997e-05 4.8340513e-06 0 2.0179279e-06 0 0)
(1.5299505e-05 3.6681627e-06 0 1.3517527e-06 0 0)
(1.2921768e-05 2.5365665e-06 0 7.6187337e-07 0 0)
(1.1039468e-05 1.4638664e-06 0 2.9988608e-07 0 0)
(9.5528291e-06 4.6493974e-07 0 3.5793042e-08 0 0)
(4.7577508e-05 1.1568481e-05 0 6.5931427e-06 0 0)
(4.3133695e-05 1.1037059e-05 0 6.1814745e-06 0 0)
(3.9558865e-05 1.0550132e-05 0 5.6718028e-06 0 0)
(3.5138218e-05 9.9077547e-06 0 5.2823779e-06 0 0)
(3.1094652e-05 9.0887992e-06 0 4.7612652e-06 0 0)
(2.6882681e-05 8.1357594e-06 0 4.2235383e-06 0 0)
(2.31008e-05 7.0483347e-06 0 3.5638295e-06 0 0)
(1.9523168e-05 5.8930092e-06 0 2.867047e-06 0 0)
(1.6461232e-05 4.7038636e-06 0 2.1281024e-06 0 0)
(1.3778346e-05 3.5336767e-06 0 1.4227406e-06 0 0)
(1.1604414e-05 2.4176891e-06 0 7.9374844e-07 0 0)
(9.8347302e-06 1.3822818e-06 0 3.1105734e-07 0 0)
(8.5052276e-06 4.355082e-07 0 3.6773153e-08 0 0)
(4.952201e-05 1.1965462e-05 0 7.2332606e-06 0 0)
(4.5477557e-05 1.1563147e-05 0 6.8741577e-06 0 0)
(4.1918691e-05 1.1227133e-05 0 6.3962571e-06 0 0)
(3.755684e-05 1.0729353e-05 0 6.0779932e-06 0 0)
(3.3419077e-05 1.0016961e-05 0 5.6153631e-06 0 0)
(2.905653e-05 9.1475124e-06 0 5.1383192e-06 0 0)
(2.5060939e-05 8.1050786e-06 0 4.5067009e-06 0 0)
(2.1214607e-05 6.9634258e-06 0 3.8141612e-06 0 0)
(1.7864913e-05 5.7556108e-06 0 3.0336507e-06 0 0)
(1.4878003e-05 4.5448923e-06 0 2.2467417e-06 0 0)
(1.2411627e-05 3.3753709e-06 0 1.4858789e-06 0 0)
(1.0360007e-05 2.2859909e-06 0 8.2495163e-07 0 0)
(8.7669241e-06 1.2953456e-06 0 3.1991002e-07 0 0)
(7.5422844e-06 4.048215e-07 0 3.7595047e-08 0 0)
(5.1412365e-05 1.2232271e-05 0 7.9275119e-06 0 0)
(4.7791324e-05 1.2039776e-05 0 7.5662996e-06 0 0)
(4.4297316e-05 1.1835554e-05 0 7.1346272e-06 0 0)
(4.007867e-05 1.1507735e-05 0 6.8721376e-06 0 0)
(3.5857007e-05 1.0909957e-05 0 6.4849432e-06 0 0)
(3.1396964e-05 1.0143032e-05 0 6.0850647e-06 0 0)
(2.7214297e-05 9.1603173e-06 0 5.5042657e-06 0 0)
(2.3123682e-05 8.0466172e-06 0 4.8429202e-06 0 0)
(1.949733e-05 6.8288663e-06 0 4.0503105e-06 0 0)
(1.6210534e-05 5.580009e-06 0 3.2138114e-06 0 0)
(1.3450773e-05 4.3530511e-06 0 2.3533645e-06 0 0)
(1.1112566e-05 3.1972862e-06 0 1.5482971e-06 0 0)
(9.2554764e-06 2.1443507e-06 0 8.4996669e-07 0 0)
(7.7835595e-06 1.2043108e-06 0 3.2743512e-07 0 0)
(6.6984589e-06 3.7356564e-07 0 3.8107922e-08 0 0)
(5.3243044e-05 1.2491674e-05 0 8.5616608e-06 0 0)
(5.0126472e-05 1.2405337e-05 0 8.3070607e-06 0 0)
(4.6704999e-05 1.2397707e-05 0 7.8596143e-06 0 0)
(4.2625405e-05 1.2214468e-05 0 7.6713809e-06 0 0)
(3.8394134e-05 1.1769194e-05 0 7.3642145e-06 0 0)
(3.3888843e-05 1.1117088e-05 0 7.0536291e-06 0 0)
(2.9535984e-05 1.0209515e-05 0 6.5455677e-06 0 0)
(2.5233216e-05 9.1415631e-06 0 5.9392646e-06 0 0)
(2.1343587e-05 7.9256056e-06 0 5.1622072e-06 0 0)
(1.7765508e-05 6.6456092e-06 0 4.3067922e-06 0 0)
(1.471364e-05 5.3612138e-06 0 3.377486e-06 0 0)
(1.2084496e-05 4.1328125e-06 0 2.4596414e-06 0 0)
(9.9568593e-06 3.0034467e-06 0 1.5991309e-06 0 0)
(8.2346839e-06 1.9948829e-06 0 8.7167681e-07 0 0)
(6.921785e-06 1.1114045e-06 0 3.3223582e-07 0 0)
(5.9375574e-06 3.4164798e-07 0 3.8411306e-08 0 0)
(5.4987177e-05 1.2543194e-05 0 9.3569561e-06 0 0)
(5.2459519e-05 1.2773138e-05 0 9.0281459e-06 0 0)
(4.9155383e-05 1.2861565e-05 0 8.6324695e-06 0 0)
(4.5182144e-05 1.2873741e-05 0 8.4756126e-06 0 0)
(4.0988089e-05 1.2573668e-05 0 8.2630306e-06 0 0)
(3.6490721e-05 1.2066429e-05 0 8.044324e-06 0 0)
(3.200668e-05 1.1248786e-05 0 7.6241313e-06 0 0)
(2.7527736e-05 1.0246033e-05 0 7.0910661e-06 0 0)
(2.3385997e-05 9.0451749e-06 0 6.3552912e-06 0 0)
(1.9531142e-05 7.7449548e-06 0 5.510348e-06 0 0)
(1.6190877e-05 6.4068238e-06 0 4.5422553e-06 0 0)
(1.3269526e-05 5.1034836e-06 0 3.541839e-06 0 0)
(1.0865062e-05 3.8894288e-06 0 2.5478666e-06 0 0)
(8.8841375e-06 2.7967609e-06 0 1.6441764e-06 0 0)
(7.3397349e-06 1.8415024e-06 0 8.8603279e-07 0 0)
(6.1435213e-06 1.0163053e-06 0 3.3523196e-07 0 0)
(5.2794938e-06 3.0973267e-07 0 3.8415423e-08 0 0)
(5.6629809e-05 1.2716084e-05 0 1.0105283e-05 0 0)
(5.4817847e-05 1.2914646e-05 0 9.9176031e-06 0 0)
(5.163547e-05 1.3307652e-05 0 9.3804477e-06 0 0)
(4.7792025e-05 1.3453139e-05 0 9.3457782e-06 0 0)
(4.3633058e-05 1.333388e-05 0 9.1789598e-06 0 0)
(3.9170307e-05 1.2962946e-05 0 9.0618595e-06 0 0)
(3.4616364e-05 1.2275276e-05 0 8.7349633e-06 0 0)
(2.9985226e-05 1.1354946e-05 0 8.2899622e-06 0 0)
(2.5606696e-05 1.01854e-05 0 7.6178854e-06 0 0)
(2.1493605e-05 8.8790548e-06 0 6.8104421e-06 0 0)
(1.7870735e-05 7.4932839e-06 0 5.8333153e-06 0 0)
(1.4660451e-05 6.1169238e-06 0 4.7804411e-06 0 0)
(1.1975839e-05 4.8135095e-06 0 3.6810202e-06 0 0)
(9.7278008e-06 3.6264762e-06 0 2.6275453e-06 0 0)
(7.9424556e-06 2.5829955e-06 0 1.6752225e-06 0 0)
(6.5292713e-06 1.6835892e-06 0 8.95725e-07 0 0)
(5.4707586e-06 9.2116803e-07 0 3.355719e-07 0 0)
(4.6991775e-06 2.7765094e-07 0 3.8198445e-08 0 0)
(5.8143778e-05 1.2438745e-05 0 1.1110577e-05 0 0)
(5.7200552e-05 1.3203469e-05 0 1.0839331e-05 0 0)
(5.41693e-05 1.3556569e-05 0 1.0340275e-05 0 0)
(5.0449998e-05 1.4003675e-05 0 1.0213282e-05 0 0)
(4.6371828e-05 1.4016919e-05 0 1.0169517e-05 0 0)
(4.191951e-05 1.3818208e-05 0 1.0118619e-05 0 0)
(3.7333189e-05 1.3262402e-05 0 9.8864674e-06 0 0)
(3.2590106e-05 1.2462797e-05 0 9.5324953e-06 0 0)
(2.7993433e-05 1.1344712e-05 0 8.940641e-06 0 0)
(2.3636124e-05 1.0046972e-05 0 8.194339e-06 0 0)
(1.9738047e-05 8.6214471e-06 0 7.2373938e-06 0 0)
(1.6248211e-05 7.1774396e-06 0 6.1623662e-06 0 0)
(1.3283659e-05 5.7836628e-06 0 4.9858223e-06 0 0)
(1.0763386e-05 4.4955184e-06 0 3.8087571e-06 0 0)
(8.7271831e-06 3.3517044e-06 0 2.6848946e-06 0 0)
(7.0871746e-06 2.3611941e-06 0 1.6977838e-06 0 0)
(5.8292534e-06 1.5251409e-06 0 8.9815723e-07 0 0)
(4.8767731e-06 8.2528632e-07 0 3.3399408e-07 0 0)
(4.2059984e-06 2.4620737e-07 0 3.7712517e-08 0 0)
(5.9292426e-05 1.2567571e-05 0 1.2285331e-05 0 0)
(5.9814949e-05 1.2856011e-05 0 1.2117584e-05 0 0)
(5.6810239e-05 1.3903356e-05 0 1.132891e-05 0 0)
(5.3218281e-05 1.4388874e-05 0 1.1352756e-05 0 0)
(4.9175702e-05 1.4649921e-05 0 1.119877e-05 0 0)
(4.4811907e-05 1.4601171e-05 0 1.1270689e-05 0 0)
(4.0147242e-05 1.4213746e-05 0 1.1094019e-05 0 0)
(3.5319887e-05 1.3548112e-05 0 1.0826089e-05 0 0)
(3.0533767e-05 1.2519763e-05 0 1.0318301e-05 0 0)
(2.5940039e-05 1.1246067e-05 0 9.6522649e-06 0 0)
(2.1777785e-05 9.791197e-06 0 8.7425468e-06 0 0)
(1.8020717e-05 8.286825e-06 0 7.675312e-06 0 0)
(1.4780542e-05 6.8042328e-06 0 6.4506122e-06 0 0)
(1.1987149e-05 5.4123664e-06 0 5.176998e-06 0 0)
(9.6930669e-06 4.1591433e-06 0 3.9045614e-06 0 0)
(7.8157714e-06 3.0639708e-06 0 2.7291477e-06 0 0)
(6.348678e-06 2.1375237e-06 0 1.7063567e-06 0 0)
(5.210048e-06 1.3646341e-06 0 8.9554926e-07 0 0)
(4.3725997e-06 7.3123636e-07 0 3.3002946e-07 0 0)
(3.782614e-06 2.1548151e-07 0 3.7009641e-08 0 0)
(6.0261451e-05 1.1610147e-05 0 1.3610595e-05 0 0)
(6.2464998e-05 1.3396436e-05 0 1.3883658e-05 0 0)
(5.984412e-05 1.3661039e-05 0 1.2856013e-05 0 0)
(5.6201134e-05 1.4793201e-05 0 1.2578975e-05 0 0)
(5.2209027e-05 1.513113e-05 0 1.2580017e-05 0 0)
(4.7830151e-05 1.5320969e-05 0 1.2516105e-05 0 0)
(4.3144183e-05 1.5102407e-05 0 1.2422351e-05 0 0)
(3.8159364e-05 1.460531e-05 0 1.2188851e-05 0 0)
(3.3208078e-05 1.3694018e-05 0 1.175657e-05 0 0)
(2.8389383e-05 1.2474758e-05 0 1.1178325e-05 0 0)
(2.3973234e-05 1.1001715e-05 0 1.0339846e-05 0 0)
(1.9962385e-05 9.4443886e-06 0 9.3081459e-06 0 0)
(1.6455432e-05 7.8767402e-06 0 8.0641154e-06 0 0)
(1.3393361e-05 6.3821797e-06 0 6.7221726e-06 0 0)
(1.0837793e-05 5.0142213e-06 0 5.3256137e-06 0 0)
(8.7153517e-06 3.8034408e-06 0 3.9820433e-06 0 0)
(7.0283967e-06 2.7718037e-06 0 2.7507399e-06 0 0)
(5.6943934e-06 1.9093552e-06 0 1.7055688e-06 0 0)
(4.6858488e-06 1.2069056e-06 0 8.8636296e-07 0 0)
(3.9395931e-06 6.389778e-07 0 3.2417678e-07 0 0)
(3.4304284e-06 1.86304e-07 0 3.6076939e-08 0 0)
(5.9549914e-05 1.1685965e-05 0 1.5876927e-05 0 0)
(6.5555255e-05 1.1712492e-05 0 1.6014511e-05 0 0)
(6.3004261e-05 1.4133507e-05 0 1.4968366e-05 0 0)
(5.9796544e-05 1.4719006e-05 0 1.4647752e-05 0 0)
(5.5622228e-05 1.5579699e-05 0 1.4185731e-05 0 0)
(5.1234058e-05 1.5880387e-05 0 1.4203576e-05 0 0)
(4.6387889e-05 1.5928598e-05 0 1.3899995e-05 0 0)
(4.1201044e-05 1.561495e-05 0 1.3699964e-05 0 0)
(3.6000841e-05 1.4854918e-05 0 1.3275559e-05 0 0)
(3.0971062e-05 1.3720638e-05 0 1.2777207e-05 0 0)
(2.6308865e-05 1.2252441e-05 0 1.2023594e-05 0 0)
(2.2055769e-05 1.0647629e-05 0 1.1053188e-05 0 0)
(1.8295904e-05 9.0003911e-06 0 9.8168304e-06 0 0)
(1.4973843e-05 7.4071525e-06 0 8.4341367e-06 0 0)
(1.2157204e-05 5.922725e-06 0 6.9395894e-06 0 0)
(9.7846792e-06 4.5889443e-06 0 5.4503492e-06 0 0)
(7.8691147e-06 3.4389972e-06 0 4.0265707e-06 0 0)
(6.3300922e-06 2.471506e-06 0 2.7576084e-06 0 0)
(5.1420395e-06 1.6843792e-06 0 1.6919216e-06 0 0)
(4.2354892e-06 1.051343e-06 0 8.7214114e-07 0 0)
(3.580362e-06 5.5122401e-07 0 3.1626818e-07 0 0)
(3.136922e-06 1.5889094e-07 0 3.4950606e-08 0 0)
(5.7048751e-05 9.0376002e-06 0 1.7437703e-05 0 0)
(6.7281329e-05 1.3057212e-05 0 1.9961632e-05 0 0)
(6.7516015e-05 1.2326027e-05 0 1.7984018e-05 0 0)
(6.39801e-05 1.5087667e-05 0 1.7452705e-05 0 0)
(5.9918006e-05 1.5546357e-05 0 1.6934115e-05 0 0)
(5.5280852e-05 1.636497e-05 0 1.6299538e-05 0 0)
(5.0148477e-05 1.6587975e-05 0 1.5924979e-05 0 0)
(4.4591679e-05 1.6573499e-05 0 1.5408701e-05 0 0)
(3.8993777e-05 1.5982916e-05 0 1.4964356e-05 0 0)
(3.3674981e-05 1.496897e-05 0 1.4472291e-05 0 0)
(2.8772694e-05 1.3532385e-05 0 1.3801337e-05 0 0)
(2.4286431e-05 1.1894713e-05 0 1.2907309e-05 0 0)
(2.0288716e-05 1.0172648e-05 0 1.1701706e-05 0 0)
(1.6718526e-05 8.4864653e-06 0 1.0303712e-05 0 0)
(1.3644871e-05 6.8875612e-06 0 8.7371369e-06 0 0)
(1.1020737e-05 5.4272041e-06 0 7.1275644e-06 0 0)
(8.870395e-06 4.1486233e-06 0 5.530623e-06 0 0)
(7.1183819e-06 3.0614976e-06 0 4.050166e-06 0 0)
(5.7418924e-06 2.1738831e-06 0 2.743307e-06 0 0)
(4.667861e-06 1.460965e-06 0 1.6687151e-06 0 0)
(3.863985e-06 9.0317659e-07 0 8.5219084e-07 0 0)
(3.2814392e-06 4.6845873e-07 0 3.0665999e-07 0 0)
(2.8983812e-06 1.3381456e-07 0 3.3648942e-08 0 0)
(5.2662564e-05 7.9844972e-06 0 2.1826511e-05 0 0)
(6.9189542e-05 8.0157806e-06 0 2.3540267e-05 0 0)
(7.0982415e-05 1.3754127e-05 0 2.3436536e-05 0 0)
(7.0243344e-05 1.3306317e-05 0 2.2112093e-05 0 0)
(6.5485717e-05 1.5759835e-05 0 2.0844689e-05 0 0)
(6.0598308e-05 1.6346618e-05 0 1.9937852e-05 0 0)
(5.4860768e-05 1.7144163e-05 0 1.856792e-05 0 0)
(4.8627683e-05 1.7379335e-05 0 1.7770756e-05 0 0)
(4.2400934e-05 1.708231e-05 0 1.6897336e-05 0 0)
(3.6569294e-05 1.6195746e-05 0 1.6362593e-05 0 0)
(3.1360565e-05 1.482432e-05 0 1.5703505e-05 0 0)
(2.6646853e-05 1.3174793e-05 0 1.4883597e-05 0 0)
(2.2423314e-05 1.138907e-05 0 1.3719204e-05 0 0)
(1.8617978e-05 9.6164008e-06 0 1.2323764e-05 0 0)
(1.5293642e-05 7.908801e-06 0 1.0709268e-05 0 0)
(1.2418644e-05 6.3224871e-06 0 9.0055244e-06 0 0)
(1.0029995e-05 4.9082155e-06 0 7.2587846e-06 0 0)
(8.0591042e-06 3.6886855e-06 0 5.5832554e-06 0 0)
(6.4867449e-06 2.6845596e-06 0 4.0424376e-06 0 0)
(5.2381385e-06 1.8761385e-06 0 2.7135722e-06 0 0)
(4.2794447e-06 1.2476549e-06 0 1.6341273e-06 0 0)
(3.5557518e-06 7.6263459e-07 0 8.2759258e-07 0 0)
(3.039809e-06 3.9263617e-07 0 2.9545807e-07 0 0)
(2.7054646e-06 1.1119365e-07 0 3.2207564e-08 0 0)
(5.2448819e-05 4.8688751e-06 0 2.4001734e-05 0 0)
(6.9078577e-05 8.4259478e-06 0 3.139109e-05 0 0)
(7.6341904e-05 7.5055291e-06 0 2.9934272e-05 0 0)
(7.6901324e-05 1.4451187e-05 0 2.9854288e-05 0 0)
(7.414397e-05 1.3882865e-05 0 2.7692577e-05 0 0)
(6.8139669e-05 1.636344e-05 0 2.5275701e-05 0 0)
(6.1335784e-05 1.7203604e-05 0 2.319779e-05 0 0)
(5.3902101e-05 1.8066789e-05 0 2.0975553e-05 0 0)
(4.6563708e-05 1.8051518e-05 0 1.9576387e-05 0 0)
(3.9914804e-05 1.7418296e-05 0 1.8551851e-05 0 0)
(3.4149563e-05 1.6100702e-05 0 1.7837189e-05 0 0)
(2.9141379e-05 1.4464018e-05 0 1.7019712e-05 0 0)
(2.4698924e-05 1.2637891e-05 0 1.5886486e-05 0 0)
(2.0666791e-05 1.0790581e-05 0 1.4496003e-05 0 0)
(1.7097929e-05 8.9837716e-06 0 1.284801e-05 0 0)
(1.3972658e-05 7.2766189e-06 0 1.1074916e-05 0 0)
(1.1343342e-05 5.7234284e-06 0 9.2043769e-06 0 0)
(9.1501047e-06 4.3611797e-06 0 7.3558081e-06 0 0)
(7.3769117e-06 3.2252419e-06 0 5.592993e-06 0 0)
(5.9482048e-06 2.3045865e-06 0 4.012179e-06 0 0)
(4.8285912e-06 1.59065e-06 0 2.6646859e-06 0 0)
(3.9589494e-06 1.0438794e-06 0 1.5904681e-06 0 0)
(3.3092876e-06 6.3379863e-07 0 7.9844739e-07 0 0)
(2.8454125e-06 3.2407445e-07 0 2.8298086e-07 0 0)
(2.5523714e-06 9.120888e-08 0 3.065819e-08 0 0)
(5.1464979e-05 2.3320545e-06 0 3.1715561e-05 0 0)
(7.7789129e-05 4.7438935e-07 0 3.7907214e-05 0 0)
(8.0111451e-05 7.6337065e-06 0 4.1591967e-05 0 0)
(8.695977e-05 7.2661211e-06 0 4.120205e-05 0 0)
(8.540581e-05 1.4386733e-05 0 3.8810107e-05 0 0)
(7.9963368e-05 1.4295705e-05 0 3.4947386e-05 0 0)
(7.1073325e-05 1.7116569e-05 0 3.0205866e-05 0 0)
(6.1450026e-05 1.8275687e-05 0 2.6647887e-05 0 0)
(5.2229994e-05 1.8902197e-05 0 2.3323544e-05 0 0)
(4.4106228e-05 1.8538227e-05 0 2.1589746e-05 0 0)
(3.7415208e-05 1.7384942e-05 0 2.0355247e-05 0 0)
(3.1873187e-05 1.5734261e-05 0 1.9440049e-05 0 0)
(2.7131611e-05 1.3887407e-05 0 1.8249467e-05 0 0)
(2.287419e-05 1.1997005e-05 0 1.6837786e-05 0 0)
(1.9057361e-05 1.0105991e-05 0 1.5152657e-05 0 0)
(1.5678962e-05 8.2885906e-06 0 1.3325855e-05 0 0)
(1.2805031e-05 6.5981963e-06 0 1.1358514e-05 0 0)
(1.0386704e-05 5.08597e-06 0 9.3636508e-06 0 0)
(8.4104129e-06 3.804138e-06 0 7.397527e-06 0 0)
(6.7984673e-06 2.7540717e-06 0 5.5721705e-06 0 0)
(5.513661e-06 1.9378392e-06 0 3.95291e-06 0 0)
(4.4937735e-06 1.3158164e-06 0 2.6006672e-06 0 0)
(3.7065155e-06 8.5684323e-07 0 1.5375331e-06 0 0)
(3.1128701e-06 5.1676324e-07 0 7.6569325e-07 0 0)
(2.6926243e-06 2.6350639e-07 0 2.695032e-07 0 0)
(2.4321605e-06 7.3800689e-08 0 2.9033949e-08 0 0)
(5.7780946e-05 -1.3240575e-05 0 3.4185298e-05 0 0)
(8.3355919e-05 1.6865356e-06 0 5.3585661e-05 0 0)
(9.614591e-05 -3.5882726e-06 0 5.5714785e-05 0 0)
(9.7357286e-05 6.3147046e-06 0 5.893437e-05 0 0)
(0.00010209611 6.2049456e-06 0 5.6701204e-05 0 0)
(9.7384989e-05 1.3772336e-05 0 5.0359548e-05 0 0)
(8.6555189e-05 1.5047005e-05 0 4.3153038e-05 0 0)
(7.3301795e-05 1.8183688e-05 0 3.5498916e-05 0 0)
(6.069802e-05 1.9289753e-05 0 3.0002902e-05 0 0)
(5.0057767e-05 1.9564536e-05 0 2.5934716e-05 0 0)
(4.161482e-05 1.8580159e-05 0 2.3863611e-05 0 0)
(3.5124418e-05 1.7000776e-05 0 2.2345881e-05 0 0)
(2.9845558e-05 1.5105688e-05 0 2.0949375e-05 0 0)
(2.5266514e-05 1.3199178e-05 0 1.9401274e-05 0 0)
(2.1188844e-05 1.12646e-05 0 1.7639667e-05 0 0)
(1.7540327e-05 9.3545093e-06 0 1.5753351e-05 0 0)
(1.4410911e-05 7.5344406e-06 0 1.3709854e-05 0 0)
(1.1762576e-05 5.8691848e-06 0 1.1599195e-05 0 0)
(9.5821685e-06 4.429149e-06 0 9.4552539e-06 0 0)
(7.7868513e-06 3.2324821e-06 0 7.4004153e-06 0 0)
(6.3357182e-06 2.2956367e-06 0 5.5105256e-06 0 0)
(5.1634882e-06 1.5820199e-06 0 3.8706871e-06 0 0)
(4.2349041e-06 1.0627732e-06 0 2.520546e-06 0 0)
(3.5084194e-06 6.858237e-07 0 1.4772054e-06 0 0)
(2.9614647e-06 4.1342299e-07 0 7.2998277e-07 0 0)
(2.5739678e-06 2.1075678e-07 0 2.5532727e-07 0 0)
(2.3392584e-06 5.8861843e-08 0 2.7365997e-08 0 0)
(9.4070026e-05 -3.0233992e-05 0 4.6021846e-05 0 0)
(0.00011208917 -3.0566439e-05 0 6.1896611e-05 0 0)
(0.00010870908 2.0623033e-08 0 8.0227315e-05 0 0)
(0.00012422351 -7.3225244e-06 0 8.3850142e-05 0 0)
(0.0001228063 3.3270787e-06 0 8.3854407e-05 0 0)
(0.00012309609 4.401278e-06 0 7.6581825e-05 0 0)
(0.00011099364 1.3634038e-05 0 6.3764165e-05 0 0)
(9.2514624e-05 1.6224098e-05 0 5.2093908e-05 0 0)
(7.4528893e-05 1.9258921e-05 0 4.0716193e-05 0 0)
(5.9337649e-05 2.0166334e-05 0 3.3700541e-05 0 0)
(4.7816095e-05 1.9700945e-05 0 2.8985806e-05 0 0)
(3.9431098e-05 1.8162207e-05 0 2.6409053e-05 0 0)
(3.3153286e-05 1.6297285e-05 0 2.4229443e-05 0 0)
(2.7984578e-05 1.4359854e-05 0 2.233215e-05 0 0)
(2.3527835e-05 1.2423419e-05 0 2.0359382e-05 0 0)
(1.9577638e-05 1.0466211e-05 0 1.8369423e-05 0 0)
(1.6163573e-05 8.5321242e-06 0 1.6250576e-05 0 0)
(1.3271997e-05 6.7156664e-06 0 1.4051148e-05 0 0)
(1.0884906e-05 5.1078242e-06 0 1.1761508e-05 0 0)
(8.9080778e-06 3.748039e-06 0 9.5005509e-06 0 0)
(7.2931211e-06 2.6709356e-06 0 7.3490711e-06 0 0)
(5.9695696e-06 1.8469516e-06 0 5.4164398e-06 0 0)
(4.8985291e-06 1.2525748e-06 0 3.763183e-06 0 0)
(4.0366777e-06 8.2966983e-07 0 2.4275049e-06 0 0)
(3.3604109e-06 5.3501654e-07 0 1.4105389e-06 0 0)
(2.8464159e-06 3.2326387e-07 0 6.9216331e-07 0 0)
(2.483755e-06 1.6561303e-07 0 2.4072661e-07 0 0)
(2.2685064e-06 4.6210283e-08 0 2.5682793e-08 0 0)
(0.00017536093 -4.682306e-05 0 5.0385557e-05 0 0)
(0.00016548259 -5.5617316e-05 0 8.8965181e-05 0 0)
(0.00015232695 -4.809596e-05 0 0.00010426822 0 0)
(0.00015066633 -1.7743078e-06 0 0.00012299926 0 0)
(0.00016441348 -1.2340816e-05 0 0.00012288871 0 0)
(0.00015816478 -1.2154065e-06 0 0.00011616015 0 0)
(0.00014770157 3.4388553e-06 0 9.9683413e-05 0 0)
(0.00012406927 1.4027589e-05 0 7.8695318e-05 0 0)
(9.755363e-05 1.7421982e-05 0 6.0959113e-05 0 0)
(7.5039355e-05 2.0336025e-05 0 4.6411521e-05 0 0)
(5.7863041e-05 2.042293e-05 0 3.8112067e-05 0 0)
(4.599529e-05 1.9225256e-05 0 3.2434859e-05 0 0)
(3.7673598e-05 1.7353653e-05 0 2.8820341e-05 0 0)
(3.1381039e-05 1.5474964e-05 0 2.590794e-05 0 0)
(2.6218186e-05 1.3541822e-05 0 2.345602e-05 0 0)
(2.1832753e-05 1.1593936e-05 0 2.1216405e-05 0 0)
(1.8083597e-05 9.5880505e-06 0 1.898504e-05 0 0)
(1.4914957e-05 7.6299981e-06 0 1.6710004e-05 0 0)
(1.2310373e-05 5.847178e-06 0 1.4307469e-05 0 0)
(1.0154157e-05 4.309178e-06 0 1.1872255e-05 0 0)
(8.3807621e-06 3.0715799e-06 0 9.4773639e-06 0 0)
(6.9107965e-06 2.1162133e-06 0 7.2544679e-06 0 0)
(5.6998796e-06 1.4286861e-06 0 5.285311e-06 0 0)
(4.7033568e-06 9.4682205e-07 0 3.6350537e-06 0 0)
(3.89504e-06 6.2400725e-07 0 2.322912e-06 0 0)
(3.2521538e-06 4.0295005e-07 0 1.3391752e-06 0 0)
(2.7619793e-06 2.4634301e-07 0 6.5296999e-07 0 0)
(2.4164812e-06 1.2754056e-07 0 2.2596471e-07 0 0)
(2.2155477e-06 3.5651289e-08 0 2.400903e-08 0 0)
(0.00031868047 -6.5012846e-05 0 6.28168e-05 0 0)
(0.00025569934 -8.8673461e-05 0 0.00010819172 0 0)
(0.00022253646 -8.6250686e-05 0 0.00014752756 0 0)
(0.00021181031 -6.4612309e-05 0 0.00016990902 0 0)
(0.00021508664 -5.199608e-06 0 0.00018555963 0 0)
(0.00021986669 -1.9286061e-05 0 0.00017330199 0 0)
(0.00020009856 -4.7222471e-06 0 0.00015458612 0 0)
(0.00017281069 3.0635542e-06 0 0.00012582581 0 0)
(0.00013645824 1.4546306e-05 0 9.3820558e-05 0 0)
(0.00010190229 1.8811281e-05 0 7.044485e-05 0 0)
(7.5354593e-05 2.0739095e-05 0 5.326056e-05 0 0)
(5.696722e-05 1.9848626e-05 0 4.3094003e-05 0 0)
(4.4756385e-05 1.826708e-05 0 3.5698117e-05 0 0)
(3.6147896e-05 1.6433186e-05 0 3.0899176e-05 0 0)
(2.9652496e-05 1.4609798e-05 0 2.7225668e-05 0 0)
(2.4442484e-05 1.2696611e-05 0 2.4432511e-05 0 0)
(2.0215695e-05 1.068257e-05 0 2.1949161e-05 0 0)
(1.6707551e-05 8.6145124e-06 0 1.9576004e-05 0 0)
(1.3855055e-05 6.6551421e-06 0 1.7085456e-05 0 0)
(1.1516132e-05 4.9247518e-06 0 1.4511079e-05 0 0)
(9.5908327e-06 3.5059366e-06 0 1.1900596e-05 0 0)
(7.982768e-06 2.3967992e-06 0 9.3992551e-06 0 0)
(6.6388105e-06 1.5946803e-06 0 7.1083756e-06 0 0)
(5.5119413e-06 1.0370967e-06 0 5.1233854e-06 0 0)
(4.5723061e-06 6.7611298e-07 0 3.4877788e-06 0 0)
(3.798194e-06 4.4290654e-07 0 2.209507e-06 0 0)
(3.1778006e-06 2.9077994e-07 0 1.2645315e-06 0 0)
(2.7019168e-06 1.8168867e-07 0 6.1311855e-07 0 0)
(2.3674841e-06 9.5966002e-08 0 2.1126291e-07 0 0)
(2.1766548e-06 2.6980009e-08 0 2.2364131e-08 0 0)
(0.00055668428 -8.0882279e-05 -2.6276688e-26 7.1542288e-05 7.3449778e-26 1.4377375e-46)
(0.00040891153 -0.00011636371 0 0.0001405622 0 0)
(0.00032355651 -0.0001364247 0 0.00019152631 0 0)
(0.00030370048 -0.00012120291 0 0.00023575868 0 0)
(0.00029887776 -8.0936825e-05 0 0.00026367435 0 0)
(0.00030737906 -1.0362084e-05 0 0.00026792326 0 0)
(0.00028655061 -2.5237634e-05 0 0.00023429228 0 0)
(0.00024459575 -7.8727141e-06 0 0.00019839762 0 0)
(0.00019830367 2.857526e-06 0 0.00015263848 0 0)
(0.00014822675 1.5821944e-05 0 0.00010998685 0 0)
(0.00010593087 1.9425169e-05 0 8.1721678e-05 0 0)
(7.6439251e-05 2.0003726e-05 0 6.0937976e-05 0 0)
(5.6828225e-05 1.8680084e-05 0 4.7774363e-05 0 0)
(4.3771208e-05 1.7217116e-05 0 3.8434507e-05 0 0)
(3.4580013e-05 1.5520805e-05 0 3.2460041e-05 0 0)
(2.7827099e-05 1.3762507e-05 0 2.831701e-05 0 0)
(2.2686908e-05 1.1777987e-05 0 2.5272488e-05 0 0)
(1.8695955e-05 9.660209e-06 0 2.2681159e-05 0 0)
(1.5529902e-05 7.5386893e-06 0 2.0097055e-05 0 0)
(1.2987883e-05 5.6035316e-06 0 1.7414116e-05 0 0)
(1.0914399e-05 3.9828132e-06 0 1.4620341e-05 0 0)
(9.1787074e-06 2.6965618e-06 0 1.1862248e-05 0 0)
(7.7120775e-06 1.7560617e-06 0 9.2527175e-06 0 0)
(6.4632128e-06 1.1019085e-06 0 6.9187632e-06 0 0)
(5.397184e-06 6.8851215e-07 0 4.9318201e-06 0 0)
(4.4935841e-06 4.36217e-07 0 3.3252616e-06 0 0)
(3.7397409e-06 2.8957734e-07 0 2.0898551e-06 0 0)
(3.1297959e-06 1.9660922e-07 0 1.1884258e-06 0 0)
(2.661029e-06 1.2846875e-07 0 5.733734e-07 0 0)
(2.3327526e-06 7.0246105e-08 0 1.9680103e-07 0 0)
(2.1486715e-06 1.9999676e-08 0 2.0763439e-08 0 0)
(0.00089518266 -9.6766915e-05 3.4155785e-26 8.7151698e-05 -1.1796389e-25 4.3486516e-46)
(0.00065134074 -0.00014821372 8.5383691e-26 0.00017431715 8.0046966e-27 1.5700568e-46)
(0.0004822689 -0.00017336568 0 0.00024589681 0 0)
(0.00041720359 -0.00019254209 0 0.00031444089 0 0)
(0.00041889399 -0.00016507608 0 0.00036644639 0 0)
(0.0004235036 -9.6981778e-05 0 0.00038806954 0 0)
(0.00042340126 -1.2486577e-05 0 0.00036806447 0 0)
(0.00035823396 -3.2100388e-05 0 0.00030674966 0 0)
(0.0002921846 -1.0984633e-05 0 0.00024367256 0 0)
(0.00022361006 4.305163e-06 0 0.00018096676 0 0)
(0.00015939938 1.6492048e-05 0 0.00012901353 0 0)
(0.00011094451 1.8427851e-05 0 9.4214769e-05 0 0)
(7.852458e-05 1.8543219e-05 0 6.8119864e-05 0 0)
(5.6941889e-05 1.7474318e-05 0 5.1618469e-05 0 0)
(4.2593876e-05 1.6248382e-05 0 4.0415489e-05 0 0)
(3.2780086e-05 1.4693957e-05 0 3.3663509e-05 0 0)
(2.5924311e-05 1.2870459e-05 0 2.9253844e-05 0 0)
(2.0999466e-05 1.0735475e-05 0 2.614862e-05 0 0)
(1.7380224e-05 8.4980748e-06 0 2.3375513e-05 0 0)
(1.4576237e-05 6.3551295e-06 0 2.0587894e-05 0 0)
(1.234633e-05 4.5118317e-06 0 1.7640601e-05 0 0)
(1.0491413e-05 3.0242405e-06 0 1.4652165e-05 0 0)
(8.9146801e-06 1.9196841e-06 0 1.1736409e-05 0 0)
(7.5553262e-06 1.1449617e-06 0 9.0474429e-06 0 0)
(6.3722347e-06 6.5979071e-07 0 6.6855528e-06 0 0)
(5.3452763e-06 3.7707591e-07 0 4.7157193e-06 0 0)
(4.4585547e-06 2.3326574e-07 0 3.1512515e-06 0 0)
(3.7109517e-06 1.6068129e-07 0 1.965713e-06 0 0)
(3.1028269e-06 1.1988092e-07 0 1.111873e-06 0 0)
(2.6349406e-06 8.5634348e-08 0 5.3416425e-07 0 0)
(2.3089441e-06 4.9758482e-08 0 1.8270938e-07 0 0)
(2.1289714e-06 1.4526197e-08 0 1.9218469e-08 0 0)
(0.0013624599 -0.00010453553 -1.8453375e-26 0.00010300246 1.2662776e-25 4.3834823e-46)
(0.00098176157 -0.00017541386 -1.8046898e-25 0.0002214234 -7.4211978e-27 9.7601461e-46)
(0.00072938067 -0.00022023311 0 0.00031366025 0 0)
(0.00058237011 -0.00023987844 0 0.00040071391 0 0)
(0.0005497075 -0.00026423869 0 0.00049406653 0 0)
(0.00057328794 -0.00021521781 0 0.00054395556 0 0)
(0.00058343996 -0.00010609066 0 0.00054282808 0 0)
(0.00054884748 -1.6191558e-05 0 0.0004840672 0 0)
(0.00043621862 -3.9733475e-05 0 0.00038458532 0 0)
(0.00034117379 -1.1539762e-05 0 0.00029129211 0 0)
(0.00024789978 5.3204711e-06 0 0.00021363968 0 0)
(0.00017178229 1.5041062e-05 0 0.00014977611 0 0)
(0.00011728199 1.6550431e-05 0 0.00010586184 0 0)
(8.0759658e-05 1.7170465e-05 0 7.3989092e-05 0 0)
(5.6597073e-05 1.6449639e-05 0 5.4352533e-05 0 0)
(4.0979666e-05 1.5455996e-05 0 4.182616e-05 0 0)
(3.0757563e-05 1.3876717e-05 0 3.4671396e-05 0 0)
(2.4031972e-05 1.1849101e-05 0 3.0285174e-05 0 0)
(1.9523321e-05 9.5056033e-06 0 2.7047279e-05 0 0)
(1.6325553e-05 7.1839788e-06 0 2.4076525e-05 0 0)
(1.389377e-05 5.1011829e-06 0 2.0976217e-05 0 0)
(1.1917929e-05 3.3883142e-06 0 1.7780109e-05 0 0)
(1.0242064e-05 2.0934895e-06 0 1.4575363e-05 0 0)
(8.784978e-06 1.1718075e-06 0 1.1534397e-05 0 0)
(7.4972116e-06 5.9128576e-07 0 8.7808685e-06 0 0)
(6.3572011e-06 2.6121203e-07 0 6.4154386e-06 0 0)
(5.3431758e-06 1.1291514e-07 0 4.4803313e-06 0 0)
(4.4585727e-06 6.2182174e-08 0 2.9685375e-06 0 0)
(3.705631e-06 5.680169e-08 0 1.8401511e-06 0 0)
(3.0916036e-06 5.8706965e-08 0 1.035843e-06 0 0)
(2.6199545e-06 5.2047517e-08 0 4.9583859e-07 0 0)
(2.2932313e-06 3.3924311e-08 0 1.6910135e-07 0 0)
(2.1153629e-06 1.0397903e-08 0 1.7738978e-08 0 0)
(0.0019513433 -0.00010999472 0 0.0001218593 0 0)
(0.0014273896 -0.00019561424 1.3029717e-25 0.00027520605 3.0339651e-26 9.7917964e-46)
(0.0010512646 -0.00025542024 0 0.00039416148 0 0)
(0.00083271792 -0.00030329275 0 0.00051582652 0 0)
(0.00072503221 -0.00032714224 0 0.00062850932 0 0)
(0.00072629356 -0.00035043986 0 0.00073547612 0 0)
(0.00076058233 -0.00025536864 0 0.00077093616 0 0)
(0.00076907741 -0.00011192442 0 0.00073036581 0 0)
(0.00068128934 -2.38409e-05 0 0.00060443718 0 0)
(0.00051809935 -4.2804647e-05 0 0.00046813124 0 0)
(0.00038886925 -1.2435651e-05 0 0.00034581607 0 0)
(0.00027364806 3.3179454e-06 0 0.0002486962 0 0)
(0.00018593289 1.2621385e-05 0 0.00016908682 0 0)
(0.00012350937 1.5028772e-05 0 0.00011548615 0 0)
(8.2084442e-05 1.6096106e-05 0 7.8245775e-05 0 0)
(5.5510467e-05 1.5716598e-05 0 5.6159803e-05 0 0)
(3.8932688e-05 1.4771504e-05 0 4.2954208e-05 0 0)
(2.8642809e-05 1.2942232e-05 0 3.586232e-05 0 0)
(2.2351931e-05 1.0579262e-05 0 3.1439524e-05 0 0)