# Forces       
# CofR         : (0.00000000e+00 0.00000000e+00 0.00000000e+00)
# Time         forces(pressure viscous porous)	moments(pressure viscous porous)
0.0059988      	((5.11146967e+02 -3.76112714e-06 1.27792718e-17) (1.97996487e+00 -2.72165142e-06 -6.94641977e-20) (0.00000000e+00 0.00000000e+00 0.00000000e+00)) ((4.66319709e-22 7.93365127e-17 -1.07501855e-12) (2.74569396e-17 -5.19879212e-20 9.62077756e-05) (0.00000000e+00 0.00000000e+00 0.00000000e+00))
0.0131961      	((-2.55460557e+02 -1.03108869e-06 -7.36745328e-18) (1.81015334e+00 -3.46956840e-06 -3.87997795e-20) (0.00000000e+00 0.00000000e+00 0.00000000e+00)) ((-1.10510848e-20 -3.97343500e-17 -1.16588322e-10) (1.92617459e-17 -2.14661142e-20 6.06690663e-05) (0.00000000e+00 0.00000000e+00 0.00000000e+00))
0.0218297      	((-4.97459476e-01 -1.20965260e-05 -4.65806816e-19) (1.68766126e+00 -2.78652701e-06 -2.11237332e-20) (0.00000000e+00 0.00000000e+00 0.00000000e+00)) ((-6.17021401e-21 -1.00270545e-19 -1.53708732e-10) (1.41226442e-17 -4.96600364e-21 4.39752657e-05) (0.00000000e+00 0.00000000e+00 0.00000000e+00))
0.0321864      	((-1.60508549e+00 1.26954166e-06 -5.02588636e-19) (1.58859012e+00 -1.54239486e-06 -1.37671728e-20) (0.00000000e+00 0.00000000e+00 0.00000000e+00)) ((6.50181527e-21 -2.50987217e-19 -1.60662147e-10) (1.13148956e-17 -4.19272666e-22 3.56722308e-05) (0.00000000e+00 0.00000000e+00 0.00000000e+00))
0.0446119      	((-2.20294133e-01 3.40111048e-05 -5.06063482e-19) (1.49531906e+00 -8.15144976e-07 -1.28906602e-20) (0.00000000e+00 0.00000000e+00 0.00000000e+00)) ((9.48092396e-21 -2.97772203e-20 -1.61949631e-10) (9.88031505e-18 2.35214002e-22 2.75931011e-05) (0.00000000e+00 0.00000000e+00 0.00000000e+00))
0.0595151      	((7.72769366e-01 2.40157473e-06 -4.73581186e-19) (1.40257194e+00 -4.37384885e-07 -1.29461806e-20) (0.00000000e+00 0.00000000e+00 0.00000000e+00)) ((5.11022546e-21 1.22308785e-19 -1.46498653e-10) (9.12692962e-18 -9.29880917e-23 2.06539928e-05) (0.00000000e+00 0.00000000e+00 0.00000000e+00))
0.077383       	((1.16920080e+00 4.18844368e-05 -4.59191701e-19) (1.30885532e+00 -1.18531554e-06 -1.46672565e-20) (0.00000000e+00 0.00000000e+00 0.00000000e+00)) ((1.55291419e-21 1.81402388e-19 -9.23460326e-11) (7.43178963e-18 -2.68904919e-21 1.57902547e-05) (0.00000000e+00 0.00000000e+00 0.00000000e+00))
0.0988051      	((1.21765898e+00 1.73164589e-06 -4.57490220e-19) (1.21301430e+00 -1.98886865e-06 -1.78428319e-20) (0.00000000e+00 0.00000000e+00 0.00000000e+00)) ((-7.97675424e-23 1.87070492e-19 -8.51393495e-11) (5.55499517e-18 -6.33893303e-21 1.23847814e-05) (0.00000000e+00 0.00000000e+00 0.00000000e+00))
0.124484       	((1.13886475e+00 -3.18201980e-05 -4.54005143e-19) (1.11504438e+00 -2.56090723e-06 -2.01339895e-20) (0.00000000e+00 0.00000000e+00 0.00000000e+00)) ((1.31860917e-22 1.74246839e-19 -6.32918567e-11) (2.26616439e-18 -1.31175280e-20 1.01592597e-05) (0.00000000e+00 0.00000000e+00 0.00000000e+00))
0.154875       	((1.03268331e+00 -1.51850513e-05 -4.50457185e-19) (1.01756555e+00 -2.86126260e-06 -8.01959221e-21) (0.00000000e+00 0.00000000e+00 0.00000000e+00)) ((2.24976543e-22 1.58425078e-19 -5.49708942e-11) (-1.01207027e-18 -9.91840596e-21 8.21696349e-06) (0.00000000e+00 0.00000000e+00 0.00000000e+00))
0.189999       	((9.38123189e-01 -4.54798307e-06 -4.48012399e-19) (9.23857917e-01 8.32307057e-06 1.24348714e-20) (0.00000000e+00 0.00000000e+00 0.00000000e+00)) ((5.08795949e-22 1.44578529e-19 -5.64880126e-11) (-3.99451043e-18 -3.10772392e-22 -5.01662384e-06) (0.00000000e+00 0.00000000e+00 0.00000000e+00))
0.229938       	((8.63332591e-01 1.23402357e-05 -4.47141024e-19) (8.36202158e-01 5.78755714e-06 1.89288610e-20) (0.00000000e+00 0.00000000e+00 0.00000000e+00)) ((7.03022411e-22 1.33469571e-19 -3.77735389e-11) (-5.50703416e-18 4.08508694e-21 -6.27019412e-06) (0.00000000e+00 0.00000000e+00 0.00000000e+00))
0.274768       	((8.02645198e-01 8.35179411e-06 -4.45122731e-19) (7.56614515e-01 2.51129963e-06 2.13517450e-20) (0.00000000e+00 0.00000000e+00 0.00000000e+00)) ((5.20218594e-22 1.24408538e-19 -2.17808775e-11) (-7.00733344e-18 7.53436401e-21 -7.72241356e-06) (0.00000000e+00 0.00000000e+00 0.00000000e+00))
0.32458        	((7.55063561e-01 2.13398802e-05 -4.42749140e-19) (6.85615096e-01 -3.24472118e-07 2.33819761e-20) (0.00000000e+00 0.00000000e+00 0.00000000e+00)) ((-1.81700541e-22 1.17310048e-19 -1.38975913e-11) (-7.67923501e-18 1.10816830e-20 -8.12667702e-06) (0.00000000e+00 0.00000000e+00 0.00000000e+00))
0.375552       	((7.22595986e-01 2.00484863e-05 -4.40919027e-19) (6.27423273e-01 -5.80668459e-06 2.45259577e-20) (0.00000000e+00 0.00000000e+00 0.00000000e+00)) ((-8.84283917e-22 1.12419404e-19 -9.44134040e-12) (-7.98893330e-18 1.67005302e-20 -1.15988242e-05) (0.00000000e+00 0.00000000e+00 0.00000000e+00))
0.426791       	((7.00714724e-01 1.40231867e-05 -4.38746267e-19) (5.80242020e-01 -5.52761853e-06 2.56234899e-20) (0.00000000e+00 0.00000000e+00 0.00000000e+00)) ((-1.21168449e-21 1.09043722e-19 -5.11263173e-12) (-7.48791559e-18 1.80600605e-20 -1.01124591e-05) (0.00000000e+00 0.00000000e+00 0.00000000e+00))
0.478164       	((6.86878511e-01 1.47909304e-05 -4.36770256e-19) (5.41545505e-01 -4.92264730e-06 2.65968259e-20) (0.00000000e+00 0.00000000e+00 0.00000000e+00)) ((-1.71039652e-21 1.06967329e-19 -4.20833350e-12) (-6.55045197e-18 1.80925923e-20 -8.79596787e-06) (0.00000000e+00 0.00000000e+00 0.00000000e+00))
0.529538       	((6.78917175e-01 1.08898393e-05 -4.35333981e-19) (5.09377960e-01 -7.26946391e-06 2.51294662e-20) (0.00000000e+00 0.00000000e+00 0.00000000e+00)) ((-2.06690072e-21 1.05855219e-19 -1.48187842e-12) (-5.68493461e-18 1.50022239e-20 -1.02348610e-05) (0.00000000e+00 0.00000000e+00 0.00000000e+00))
0.581047       	((6.73715570e-01 1.42576009e-05 -4.33503869e-19) (4.82366674e-01 -7.52083038e-06 2.26475321e-20) (0.00000000e+00 0.00000000e+00 0.00000000e+00)) ((-2.32017708e-21 1.05154570e-19 -2.60154165e-12) (-4.64745021e-18 1.51269014e-20 -8.26496819e-06) (0.00000000e+00 0.00000000e+00 0.00000000e+00))
0.632693       	((6.71571308e-01 1.49301043e-05 -4.31678585e-19) (4.59433635e-01 -9.34706059e-06 2.14894350e-20) (0.00000000e+00 0.00000000e+00 0.00000000e+00)) ((-2.41611125e-21 1.05090827e-19 -3.10791375e-12) (-3.79392416e-18 1.44953982e-20 -1.05956052e-05) (0.00000000e+00 0.00000000e+00 0.00000000e+00))
0.684477       	((6.73015557e-01 1.18879564e-05 -4.30042885e-19) (4.39705452e-01 -6.95487732e-06 2.00883876e-20) (0.00000000e+00 0.00000000e+00 0.00000000e+00)) ((-2.48856168e-21 1.05442868e-19 -6.05133228e-12) (-3.21306084e-18 1.39596794e-20 -8.80388229e-06) (0.00000000e+00 0.00000000e+00 0.00000000e+00))
0.736401       	((6.77232978e-01 1.13762620e-05 -4.28323969e-19) (4.22531919e-01 -7.50843348e-06 1.93043132e-20) (0.00000000e+00 0.00000000e+00 0.00000000e+00)) ((-2.43469109e-21 1.06219230e-19 -4.54964246e-12) (-3.03754986e-18 1.36163870e-20 -8.79457409e-06) (0.00000000e+00 0.00000000e+00 0.00000000e+00))
0.788605       	((6.83320143e-01 1.15371784e-05 -4.26795549e-19) (4.07333153e-01 -9.37184460e-06 1.84125446e-20) (0.00000000e+00 0.00000000e+00 0.00000000e+00)) ((-2.50915202e-21 1.07182723e-19 -3.26134925e-12) (-2.88350654e-18 1.37156599e-20 -1.13350116e-05) (0.00000000e+00 0.00000000e+00 0.00000000e+00))
0.841096       	((6.91114770e-01 6.13308620e-06 -4.25131872e-19) (3.93781243e-01 -6.54625992e-06 1.84050571e-20) (0.00000000e+00 0.00000000e+00 0.00000000e+00)) ((-2.49394603e-21 1.08392590e-19 -3.06732612e-12) (-2.72282613e-18 1.32850445e-20 -8.95737383e-06) (0.00000000e+00 0.00000000e+00 0.00000000e+00))
0.89373        	((7.00365137e-01 3.98229124e-06 -4.23622532e-19) (3.81622248e-01 -3.69000069e-06 1.84472605e-20) (0.00000000e+00 0.00000000e+00 0.00000000e+00)) ((-2.60918756e-21 1.09813825e-19 -7.63918605e-13) (-2.57789941e-18 1.29187994e-20 -5.62589010e-06) (0.00000000e+00 0.00000000e+00 0.00000000e+00))
0.94651        	((7.11026432e-01 9.38787131e-06 -4.22193860e-19) (3.70687435e-01 -1.37041421e-06 1.80217611e-20) (0.00000000e+00 0.00000000e+00 0.00000000e+00)) ((-2.82376601e-21 1.11431770e-19 -6.95715607e-13) (-2.47873265e-18 1.29570873e-20 -2.68125918e-06) (0.00000000e+00 0.00000000e+00 0.00000000e+00))
0.999436       	((7.22243053e-01 7.66049628e-06 -4.20687546e-19) (3.60793872e-01 -2.54697854e-06 1.72998355e-20) (0.00000000e+00 0.00000000e+00 0.00000000e+00)) ((-3.04295794e-21 1.13185204e-19 6.67006963e-13) (-2.24719685e-18 1.33585240e-20 -4.67569732e-06) (0.00000000e+00 0.00000000e+00 0.00000000e+00))
1.05251        	((7.34105173e-01 6.94024031e-06 -4.19371659e-19) (3.51804049e-01 -1.27787574e-06 1.74816005e-20) (0.00000000e+00 0.00000000e+00 0.00000000e+00)) ((-3.35668980e-21 1.15012614e-19 1.22657214e-12) (-2.07676034e-18 1.29618424e-20 -1.78124534e-06) (0.00000000e+00 0.00000000e+00 0.00000000e+00))
1.10573        	((7.47065894e-01 1.00062819e-05 -4.18098381e-19) (3.43601178e-01 -4.70303593e-07 1.70230076e-20) (0.00000000e+00 0.00000000e+00 0.00000000e+00)) ((-3.67149151e-21 1.17014140e-19 2.58338325e-12) (-1.94230669e-18 1.30870193e-20 -4.65645050e-07) (0.00000000e+00 0.00000000e+00 0.00000000e+00))
1.15896        	((7.60213721e-01 1.11985594e-05 -4.16747346e-19) (3.36112901e-01 -1.02782026e-06 1.58091370e-20) (0.00000000e+00 0.00000000e+00 0.00000000e+00)) ((-3.99463564e-21 1.19044800e-19 4.40307354e-12) (-2.02672049e-18 1.37860851e-20 -4.83537485e-07) (0.00000000e+00 0.00000000e+00 0.00000000e+00))
1.21233        	((7.73746640e-01 1.11581782e-05 -4.15422774e-19) (3.29231147e-01 -1.82625319e-06 1.44746659e-20) (0.00000000e+00 0.00000000e+00 0.00000000e+00)) ((-4.31163775e-21 1.21178014e-19 4.78689343e-12) (-2.08661954e-18 1.44820425e-20 -7.71519081e-07) (0.00000000e+00 0.00000000e+00 0.00000000e+00))
1.26586        	((7.87719982e-01 1.23153721e-05 -4.14082231e-19) (3.22884251e-01 -2.45078866e-06 1.32888180e-20) (0.00000000e+00 0.00000000e+00 0.00000000e+00)) ((-4.61309731e-21 1.23390656e-19 5.48784039e-12) (-2.11456750e-18 1.50583780e-20 -9.24903859e-07) (0.00000000e+00 0.00000000e+00 0.00000000e+00))
1.31938        	((8.02307494e-01 1.18495709e-05 -4.12846203e-19) (3.17024514e-01 -4.10106006e-06 1.23982857e-20) (0.00000000e+00 0.00000000e+00 0.00000000e+00)) ((-4.92772813e-21 1.25725513e-19 6.08063776e-12) (-2.12844656e-18 1.54305386e-20 -2.00820554e-06) (0.00000000e+00 0.00000000e+00 0.00000000e+00))
1.37291        	((8.17220662e-01 1.19211875e-05 -4.11653590e-19) (3.11599043e-01 -5.63950438e-06 1.25751227e-20) (0.00000000e+00 0.00000000e+00 0.00000000e+00)) ((-5.25915561e-21 1.28174075e-19 6.63316177e-12) (-2.13121933e-18 1.50135076e-20 -3.04417752e-06) (0.00000000e+00 0.00000000e+00 0.00000000e+00))
1.42659        	((8.32271586e-01 1.27120788e-05 -4.10547249e-19) (3.06511904e-01 -4.76265263e-06 1.19804996e-20) (0.00000000e+00 0.00000000e+00 0.00000000e+00)) ((-5.56784265e-21 1.30703814e-19 6.48256687e-12) (-2.17089639e-18 1.52088976e-20 -2.17162226e-06) (0.00000000e+00 0.00000000e+00 0.00000000e+00))
1.48027        	((8.47678130e-01 1.33274979e-05 -4.09567184e-19) (3.01822469e-01 -4.95780748e-06 1.16372296e-20) (0.00000000e+00 0.00000000e+00 0.00000000e+00)) ((-5.86453635e-21 1.33342668e-19 6.68418299e-12) (-2.20141254e-18 1.52282846e-20 -3.22283757e-06) (0.00000000e+00 0.00000000e+00 0.00000000e+00))
1.53395        	((8.63036469e-01 1.10515291e-05 -4.08530665e-19) (2.97451480e-01 -6.64189451e-06 1.15658236e-20) (0.00000000e+00 0.00000000e+00 0.00000000e+00)) ((-6.17204361e-21 1.35942504e-19 6.42011119e-12) (-2.20741679e-18 1.50313958e-20 -7.52749676e-06) (0.00000000e+00 0.00000000e+00 0.00000000e+00))
1.58763        	((8.78125812e-01 5.34521691e-06 -4.07431599e-19) (2.93360899e-01 -4.16066243e-06 1.48622982e-20) (0.00000000e+00 0.00000000e+00 0.00000000e+00)) ((-6.47731222e-21 1.38488797e-19 5.20358626e-12) (-2.19364433e-18 1.21868505e-20 -4.95155507e-06) (0.00000000e+00 0.00000000e+00 0.00000000e+00))
1.64147        	((8.92995306e-01 5.67746405e-06 -4.06301448e-19) (2.89514327e-01 -1.71939347e-06 1.70961450e-20) (0.00000000e+00 0.00000000e+00 0.00000000e+00)) ((-6.77604427e-21 1.41002540e-19 4.95496114e-12) (-2.17136216e-18 1.02029302e-20 -2.46556520e-06) (0.00000000e+00 0.00000000e+00 0.00000000e+00))
1.69531        	((9.07794666e-01 6.42837157e-06 -4.05147580e-19) (2.85899260e-01 -1.72109446e-06 1.66715676e-20) (0.00000000e+00 0.00000000e+00 0.00000000e+00)) ((-7.04021060e-21 1.43540485e-19 6.14646664e-12) (-2.20563734e-18 1.03350564e-20 -2.27002838e-06) (0.00000000e+00 0.00000000e+00 0.00000000e+00))
1.74914        	((9.22985281e-01 6.17224779e-06 -4.04101271e-19) (2.82505335e-01 -1.70699418e-06 1.62637151e-20) (0.00000000e+00 0.00000000e+00 0.00000000e+00)) ((-7.28008995e-21 1.46155570e-19 6.60403741e-12) (-2.43505392e-18 1.04724713e-20 -2.10525743e-06) (0.00000000e+00 0.00000000e+00 0.00000000e+00))
1.80314        	((9.37961187e-01 7.13189535e-06 -4.03137494e-19) (2.79323137e-01 -2.97440360e-06 1.47655087e-20) (0.00000000e+00 0.00000000e+00 0.00000000e+00)) ((-7.50331039e-21 1.48731056e-19 5.53131846e-12) (-2.69652349e-18 1.14730512e-20 -3.13353023e-06) (0.00000000e+00 0.00000000e+00 0.00000000e+00))
1.85714        	((9.51431376e-01 3.98094551e-06 -4.01840614e-19) (2.76346954e-01 -1.44664280e-06 1.59496970e-20) (0.00000000e+00 0.00000000e+00 0.00000000e+00)) ((-7.69420269e-21 1.51067554e-19 7.12865422e-12) (-2.82299375e-18 1.03521263e-20 -1.84327130e-06) (0.00000000e+00 0.00000000e+00 0.00000000e+00))
1.91129        	((9.65432731e-01 1.23146162e-05 -4.00745253e-19) (2.73557487e-01 -1.61694032e-06 1.57255152e-20) (0.00000000e+00 0.00000000e+00 0.00000000e+00)) ((-7.89514307e-21 1.53499264e-19 1.48568104e-12) (-2.94693961e-18 1.03427721e-20 -1.85825139e-06) (0.00000000e+00 0.00000000e+00 0.00000000e+00))
1.96545        	((9.79209904e-01 2.58018755e-06 -3.99679636e-19) (2.70954041e-01 -1.65232357e-06 1.55062770e-20) (0.00000000e+00 0.00000000e+00 0.00000000e+00)) ((-8.08772130e-21 1.55896436e-19 7.33004326e-12) (-3.04424730e-18 1.03288027e-20 -1.86905911e-06) (0.00000000e+00 0.00000000e+00 0.00000000e+00))
2.01977        	((9.93011496e-01 5.39419324e-06 -3.98690012e-19) (2.68538599e-01 -1.61208297e-06 1.52929587e-20) (0.00000000e+00 0.00000000e+00 0.00000000e+00)) ((-8.27402746e-21 1.58316146e-19 6.35376398e-12) (-3.14765227e-18 1.03009245e-20 -1.80848615e-06) (0.00000000e+00 0.00000000e+00 0.00000000e+00))
2.07409        	((1.00603699e+00 6.61700392e-06 -3.97617181e-19) (2.66296060e-01 -1.55036632e-06 1.49905123e-20) (0.00000000e+00 0.00000000e+00 0.00000000e+00)) ((-8.45120662e-21 1.60603690e-19 6.06672134e-12) (-3.24881588e-18 1.03399086e-20 -1.77295680e-06) (0.00000000e+00 0.00000000e+00 0.00000000e+00))
2.12841        	((1.01820733e+00 7.68788987e-06 -3.96438702e-19) (2.64157880e-01 -1.48001742e-06 1.48838004e-20) (0.00000000e+00 0.00000000e+00 0.00000000e+00)) ((-8.63123023e-21 1.62753414e-19 7.82181958e-12) (-3.13129999e-18 1.03301954e-20 -1.65445410e-06) (0.00000000e+00 0.00000000e+00 0.00000000e+00))
2.1829         	((1.03008388e+00 8.14622506e-06 -3.95206250e-19) (2.62144072e-01 -1.38442072e-06 1.48531735e-20) (0.00000000e+00 0.00000000e+00 0.00000000e+00)) ((-8.79480433e-21 1.64834475e-19 9.54139458e-12) (-3.01140891e-18 1.02661761e-20 -1.52194609e-06) (0.00000000e+00 0.00000000e+00 0.00000000e+00))
2.23739        	((1.04193670e+00 8.41721503e-06 -3.94033282e-19) (2.60267721e-01 -1.23489729e-06 1.49103379e-20) (0.00000000e+00 0.00000000e+00 0.00000000e+00)) ((-8.97249288e-21 1.66904943e-19 9.14025062e-12) (-2.90237912e-18 1.00997239e-20 -1.37227333e-06) (0.00000000e+00 0.00000000e+00 0.00000000e+00))
2.29204        	((1.05355015e+00 7.75593619e-06 -3.93006180e-19) (2.58501446e-01 -1.07702653e-06 1.49677313e-20) (0.00000000e+00 0.00000000e+00 0.00000000e+00)) ((-9.14383839e-21 1.68937024e-19 7.67783732e-12) (-2.79799696e-18 9.92067137e-21 -1.18451771e-06) (0.00000000e+00 0.00000000e+00 0.00000000e+00))
2.3467         	((1.06500636e+00 8.06460482e-06 -3.92056530e-19) (2.56844358e-01 -1.03421648e-06 1.48341186e-20) (0.00000000e+00 0.00000000e+00 0.00000000e+00)) ((-9.30514612e-21 1.70938624e-19 7.90722316e-12) (-2.69808114e-18 9.91208584e-21 -1.10884562e-06) (0.00000000e+00 0.00000000e+00 0.00000000e+00))
2.40152        	((1.07464409e+00 8.98669254e-06 -3.90718668e-19) (2.55272910e-01 -1.01495587e-06 1.46638997e-20) (0.00000000e+00 0.00000000e+00 0.00000000e+00)) ((-9.45028521e-21 1.72658467e-19 7.99742900e-12) (-2.58425630e-18 9.94230995e-21 -1.05475294e-06) (0.00000000e+00 0.00000000e+00 0.00000000e+00))
2.45634        	((1.08394204e+00 9.18706732e-06 -3.89414645e-19) (2.53785984e-01 -1.08881548e-06 1.44985167e-20) (0.00000000e+00 0.00000000e+00 0.00000000e+00)) ((-9.59875940e-21 1.74322789e-19 7.22319177e-12) (-2.45738258e-18 9.95065511e-21 -1.09010739e-06) (0.00000000e+00 0.00000000e+00 0.00000000e+00))
2.51117        	((1.09241766e+00 9.10493970e-06 -3.88010856e-19) (2.52368295e-01 -1.17141267e-06 1.43464657e-20) (0.00000000e+00 0.00000000e+00 0.00000000e+00)) ((-9.74602321e-21 1.75843481e-19 7.30180120e-12) (-2.34298399e-18 9.91985878e-21 -1.14134555e-06) (0.00000000e+00 0.00000000e+00 0.00000000e+00))
2.56599        	((1.10027099e+00 1.02721301e-05 -3.86557681e-19) (2.51089865e-01 -1.21654190e-06 1.43938820e-20) (0.00000000e+00 0.00000000e+00 0.00000000e+00)) ((-9.86424705e-21 1.77220526e-19 7.02981531e-12) (-2.28005412e-18 9.71246155e-21 -1.23337227e-06) (0.00000000e+00 0.00000000e+00 0.00000000e+00))
2.62099        	((1.10689446e+00 1.16548396e-05 -3.84935565e-19) (2.49925233e-01 -1.20458398e-06 1.41990266e-20) (0.00000000e+00 0.00000000e+00 0.00000000e+00)) ((-9.97913521e-21 1.78390127e-19 8.00660146e-12) (-2.22531738e-18 9.68473797e-21 -1.28274311e-06) (0.00000000e+00 0.00000000e+00 0.00000000e+00))
2.67599        	((1.11453425e+00 1.26929807e-05 -3.83574623e-19) (2.48840853e-01 -1.11780624e-06 1.41128590e-20) (0.00000000e+00 0.00000000e+00 0.00000000e+00)) ((-1.01316964e-20 1.79705867e-19 7.41426983e-12) (-2.16402246e-18 9.56769747e-21 -1.31962396e-06) (0.00000000e+00 0.00000000e+00 0.00000000e+00))
2.73098        	((1.12078184e+00 1.15868774e-05 -3.81970725e-19) (2.47778763e-01 -1.05044418e-06 1.40212590e-20) (0.00000000e+00 0.00000000e+00 0.00000000e+00)) ((-1.02831695e-20 1.80803155e-19 6.37635918e-12) (-2.11189898e-18 9.46115275e-21 -1.25901570e-06) (0.00000000e+00 0.00000000e+00 0.00000000e+00))
2.78615        	((1.12609197e+00 1.08916802e-05 -3.80424281e-19) (2.46714981e-01 -1.04741567e-06 1.39540399e-20) (0.00000000e+00 0.00000000e+00 0.00000000e+00)) ((-1.04437187e-20 1.81739791e-19 5.98297692e-12) (-2.09886157e-18 9.36690523e-21 -1.31474250e-06) (0.00000000e+00 0.00000000e+00 0.00000000e+00))
2.84133        	((1.13084180e+00 8.88463631e-06 -3.78880361e-19) (2.45684045e-01 -1.05013934e-06 1.38811151e-20) (0.00000000e+00 0.00000000e+00 0.00000000e+00)) ((-1.05514123e-20 1.82617472e-19 4.76718177e-12) (-2.10528608e-18 9.31431591e-21 -1.25981086e-06) (0.00000000e+00 0.00000000e+00 0.00000000e+00))
2.89668        	((1.13554959e+00 5.66345998e-06 -3.77291720e-19) (2.44696508e-01 -1.12306214e-06 1.37152501e-20) (0.00000000e+00 0.00000000e+00 0.00000000e+00)) ((-1.06776089e-20 1.83481216e-19 4.10550554e-12) (-2.11229566e-18 9.24502014e-21 -1.18316328e-06) (0.00000000e+00 0.00000000e+00 0.00000000e+00))
2.95203        	((1.13918364e+00 5.75598107e-06 -3.75624871e-19) (2.43738339e-01 -1.21388042e-06 1.34512934e-20) (0.00000000e+00 0.00000000e+00 0.00000000e+00)) ((-1.07783673e-20 1.84164359e-19 3.27820225e-12) (-2.11646360e-18 9.12246212e-21 -1.11500598e-06) (0.00000000e+00 0.00000000e+00 0.00000000e+00))
3.00756        	((1.14279083e+00 5.45250135e-06 -3.74086939e-19) (2.42860239e-01 -1.28548078e-06 1.31688588e-20) (0.00000000e+00 0.00000000e+00 0.00000000e+00)) ((-1.08772388e-20 1.84846096e-19 2.94711488e-12) (-2.11791237e-18 8.97677085e-21 -1.03649858e-06) (0.00000000e+00 0.00000000e+00 0.00000000e+00))
3.06309        	((1.14501325e+00 -2.04664080e-06 -3.72221326e-19) (2.41989446e-01 -1.16810538e-06 1.29139953e-20) (0.00000000e+00 0.00000000e+00 0.00000000e+00)) ((-1.09667255e-20 1.85282322e-19 2.56701214e-12) (-2.11722649e-18 8.81256908e-21 -9.42997376e-07) (0.00000000e+00 0.00000000e+00 0.00000000e+00))
3.1188         	((1.14739365e+00 3.65215286e-06 -3.70542444e-19) (2.41145489e-01 -1.12618610e-06 1.27982377e-20) (0.00000000e+00 0.00000000e+00 0.00000000e+00)) ((-1.10761127e-20 1.85723676e-19 2.81421501e-12) (-2.13015778e-18 8.71574929e-21 -8.41270257e-07) (0.00000000e+00 0.00000000e+00 0.00000000e+00))
3.17452        	((1.14844186e+00 3.32249863e-06 -3.68800923e-19) (2.40313847e-01 -1.14602904e-06 1.27062364e-20) (0.00000000e+00 0.00000000e+00 0.00000000e+00)) ((-1.11445945e-20 1.85948908e-19 3.04034716e-12) (-2.15256831e-18 8.63608952e-21 -7.26061176e-07) (0.00000000e+00 0.00000000e+00 0.00000000e+00))
3.23023        	((1.15021337e+00 5.52747450e-06 -3.67041351e-19) (2.39491335e-01 -1.15078248e-06 1.21430500e-20) (0.00000000e+00 0.00000000e+00 0.00000000e+00)) ((-1.12441925e-20 1.86287790e-19 3.28145974e-12) (-2.17168439e-18 8.25620282e-21 -5.31258145e-07) (0.00000000e+00 0.00000000e+00 0.00000000e+00))
3.28613        	((1.15131618e+00 5.24622834e-06 -3.65341163e-19) (2.38671736e-01 -1.13261235e-06 1.15385439e-20) (0.00000000e+00 0.00000000e+00 0.00000000e+00)) ((-1.13343172e-20 1.86507090e-19 4.67111896e-12) (-2.16974862e-18 7.83193907e-21 -2.83224913e-07) (0.00000000e+00 0.00000000e+00 0.00000000e+00))
3.34203        	((1.15114421e+00 6.09329133e-06 -3.63550933e-19) (2.37872522e-01 -1.11324702e-06 1.14968478e-20) (0.00000000e+00 0.00000000e+00 0.00000000e+00)) ((-1.14159500e-20 1.86502144e-19 6.02168402e-12) (-2.15324332e-18 7.78001261e-21 -8.43400986e-08) (0.00000000e+00 0.00000000e+00 0.00000000e+00))
3.39793        	((1.15086135e+00 8.16554403e-06 -3.61806877e-19) (2.37093453e-01 -1.08428963e-06 1.18555239e-20) (0.00000000e+00 0.00000000e+00 0.00000000e+00)) ((-1.14926788e-20 1.86474976e-19 7.07997810e-12) (-2.13725157e-18 7.98851753e-21 3.05140836e-08) (0.00000000e+00 0.00000000e+00 0.00000000e+00))
3.45402        	((1.14934219e+00 8.93775574e-06 -3.59771186e-19) (2.36325424e-01 -1.03616839e-06 1.22024480e-20) (0.00000000e+00 0.00000000e+00 0.00000000e+00)) ((-1.15524101e-20 1.86248167e-19 7.78006023e-12) (-2.12089685e-18 8.19623483e-21 7.90619820e-08) (0.00000000e+00 0.00000000e+00 0.00000000e+00))
3.5101         	((1.14805695e+00 1.17015059e-05 -3.57761844e-19) (2.35574609e-01 -9.46046468e-07 1.23556261e-20) (0.00000000e+00 0.00000000e+00 0.00000000e+00)) ((-1.16228066e-20 1.86051090e-19 7.70147596e-12) (-2.09556378e-18 8.29603659e-21 7.86498763e-08) (0.00000000e+00 0.00000000e+00 0.00000000e+00))
3.56638        	((1.14685876e+00 1.32136015e-05 -3.56005654e-19) (2.34841732e-01 -8.24530400e-07 1.25470689e-20) (0.00000000e+00 0.00000000e+00 0.00000000e+00)) ((-1.16886606e-20 1.85870656e-19 7.83931232e-12) (-2.06921389e-18 8.41231327e-21 1.19455307e-08) (0.00000000e+00 0.00000000e+00 0.00000000e+00))
3.62266        	((1.14501208e+00 1.29500603e-05 -3.54056253e-19) (2.34138766e-01 -7.10556141e-07 1.24987217e-20) (0.00000000e+00 0.00000000e+00 0.00000000e+00)) ((-1.17524460e-20 1.85565086e-19 7.49510241e-12) (-2.04314079e-18 8.37263826e-21 -1.13388128e-07) (0.00000000e+00 0.00000000e+00 0.00000000e+00))
3.67894        	((1.14298988e+00 1.75865844e-05 -3.52292852e-19) (2.33452580e-01 -5.74619290e-07 1.21659083e-20) (0.00000000e+00 0.00000000e+00 0.00000000e+00)) ((-1.18068841e-20 1.85227297e-19 8.73447018e-12) (-2.01799617e-18 8.11643031e-21 -3.45242807e-07) (0.00000000e+00 0.00000000e+00 0.00000000e+00))
3.73542        	((1.14075927e+00 1.87407540e-05 -3.50422324e-19) (2.32777329e-01 -4.17144499e-07 1.20238647e-20) (0.00000000e+00 0.00000000e+00 0.00000000e+00)) ((-1.18663927e-20 1.84851937e-19 1.00281645e-11) (-1.99345244e-18 7.96932581e-21 -6.39695726e-07) (0.00000000e+00 0.00000000e+00 0.00000000e+00))
3.79189        	((1.13808992e+00 2.40847349e-05 -3.48479754e-19) (2.32113649e-01 -2.86963007e-07 1.21662213e-20) (0.00000000e+00 0.00000000e+00 0.00000000e+00)) ((-1.19270970e-20 1.84401845e-19 9.58575146e-12) (-1.96999409e-18 8.02000834e-21 -9.56134880e-07) (0.00000000e+00 0.00000000e+00 0.00000000e+00))
3.84837        	((1.13535807e+00 2.39767754e-05 -3.46672354e-19) (2.31461778e-01 -1.05868400e-07 1.22517912e-20) (0.00000000e+00 0.00000000e+00 0.00000000e+00)) ((-1.19853693e-20 1.83934062e-19 8.55661050e-12) (-1.94799656e-18 8.06394169e-21 -1.19627739e-06) (0.00000000e+00 0.00000000e+00 0.00000000e+00))
3.90504        	((1.13229008e+00 2.13634339e-05 -3.44758193e-19) (2.30812696e-01 5.30457202e-08 1.22660187e-20) (0.00000000e+00 0.00000000e+00 0.00000000e+00)) ((-1.20422745e-20 1.83420125e-19 6.34169215e-12) (-1.92368606e-18 8.10475908e-21 -1.27678904e-06) (0.00000000e+00 0.00000000e+00 0.00000000e+00))
3.96171        	((1.12778652e+00 1.66309138e-05 -3.42624289e-19) (2.30156945e-01 1.95015159e-07 1.21576044e-20) (0.00000000e+00 0.00000000e+00 0.00000000e+00)) ((-1.20822575e-20 1.82682671e-19 2.05451520e-12) (-1.89692727e-18 8.11376815e-21 -1.07765720e-06) (0.00000000e+00 0.00000000e+00 0.00000000e+00))
4.01858        	((1.12497827e+00 1.05579844e-05 -3.40827594e-19) (2.29502781e-01 3.18758938e-07 1.17301314e-20) (0.00000000e+00 0.00000000e+00 0.00000000e+00)) ((-1.21339257e-20 1.82201401e-19 -2.78854067e-12) (-1.86885809e-18 7.92969406e-21 -6.27131485e-07) (0.00000000e+00 0.00000000e+00 0.00000000e+00))
4.07546        	((1.12193268e+00 8.41423013e-06 -3.39087912e-19) (2.28859500e-01 4.40743086e-07 1.09874451e-20) (0.00000000e+00 0.00000000e+00 0.00000000e+00)) ((-1.21938944e-20 1.81669556e-19 -6.31598658e-12) (-1.85258555e-18 7.51466401e-21 -5.69525373e-08) (0.00000000e+00 0.00000000e+00 0.00000000e+00))
4.13233        	((1.11894115e+00 9.66770242e-06 -3.37269889e-19) (2.28229444e-01 5.74687727e-07 1.01615347e-20) (0.00000000e+00 0.00000000e+00 0.00000000e+00)) ((-1.22532204e-20 1.81147284e-19 -6.74658506e-12) (-1.83517005e-18 6.97349057e-21 4.26136823e-07) (0.00000000e+00 0.00000000e+00 0.00000000e+00))
4.18941        	((1.11608463e+00 8.04049010e-06 -3.35476464e-19) (2.27611700e-01 6.44213755e-07 9.85924174e-21) (0.00000000e+00 0.00000000e+00 0.00000000e+00)) ((-1.23092486e-20 1.80647535e-19 -5.67304233e-12) (-1.81484189e-18 6.71832354e-21 7.56694226e-07) (0.00000000e+00 0.00000000e+00 0.00000000e+00))
4.24649        	((1.11206311e+00 9.43440312e-06 -3.33628392e-19) (2.26995913e-01 6.63375167e-07 1.01447456e-20) (0.00000000e+00 0.00000000e+00 0.00000000e+00)) ((-1.23483934e-20 1.79961958e-19 -4.33428207e-12) (-1.79429543e-18 6.82439390e-21 9.16266037e-07) (0.00000000e+00 0.00000000e+00 0.00000000e+00))
4.30377        	((1.10805694e+00 1.01104839e-05 -3.31745618e-19) (2.26371107e-01 6.71015205e-07 1.07229628e-20) (0.00000000e+00 0.00000000e+00 0.00000000e+00)) ((-1.23847770e-20 1.79278766e-19 -2.56732027e-12) (-1.77491132e-18 7.12685119e-21 9.72416736e-07) (0.00000000e+00 0.00000000e+00 0.00000000e+00))
4.36106        	((1.10429318e+00 1.08563631e-05 -3.29931975e-19) (2.25742142e-01 6.87933318e-07 1.12726067e-20) (0.00000000e+00 0.00000000e+00 0.00000000e+00)) ((-1.24176043e-20 1.78635116e-19 -1.16778614e-12) (-1.75501468e-18 7.43147828e-21 9.64377884e-07) (0.00000000e+00 0.00000000e+00 0.00000000e+00))
4.41834        	((1.10087568e+00 1.13352987e-05 -3.28128058e-19) (2.25113582e-01 7.17321603e-07 1.16227982e-20) (0.00000000e+00 0.00000000e+00 0.00000000e+00)) ((-1.24452767e-20 1.78038776e-19 -5.80861531e-13) (-1.73478870e-18 7.62609550e-21 9.15694796e-07) (0.00000000e+00 0.00000000e+00 0.00000000e+00))
4.47584        	((1.09765065e+00 1.28223141e-05 -3.26444286e-19) (2.24486095e-01 7.70152059e-07 1.17465041e-20) (0.00000000e+00 0.00000000e+00 0.00000000e+00)) ((-1.24705011e-20 1.77477169e-19 -4.49339567e-13) (-1.71443404e-18 7.68937603e-21 8.49773772e-07) (0.00000000e+00 0.00000000e+00 0.00000000e+00))
4.53334        	((1.09378555e+00 1.29736430e-05 -3.24474963e-19) (2.23860914e-01 8.34926702e-07 1.16766228e-20) (0.00000000e+00 0.00000000e+00 0.00000000e+00)) ((-1.24933465e-20 1.76813233e-19 -7.67187962e-13) (-1.69450935e-18 7.63423806e-21 7.80479748e-07) (0.00000000e+00 0.00000000e+00 0.00000000e+00))
4.59083        	((1.08975687e+00 1.29049839e-05 -3.22715307e-19) (2.23237594e-01 9.00478197e-07 1.10277843e-20) (0.00000000e+00 0.00000000e+00 0.00000000e+00)) ((-1.25065535e-20 1.76120416e-19 -1.13695251e-12) (-1.68833936e-18 7.22753650e-21 7.11262862e-07) (0.00000000e+00 0.00000000e+00 0.00000000e+00))
4.64855        	((1.08605300e+00 1.30264148e-05 -3.20939169e-19) (2.22615427e-01 9.58417584e-07 1.10034093e-20) (0.00000000e+00 0.00000000e+00 0.00000000e+00)) ((-1.25214950e-20 1.75482444e-19 -1.82773881e-12) (-1.68406446e-18 7.20571643e-21 6.44339519e-07) (0.00000000e+00 0.00000000e+00 0.00000000e+00))
4.70626        	((1.08262995e+00 1.28207193e-05 -3.19212063e-19) (2.22000947e-01 1.01458922e-06 1.09506795e-20) (0.00000000e+00 0.00000000e+00 0.00000000e+00)) ((-1.25407154e-20 1.74889040e-19 -2.19735059e-12) (-1.67935750e-18 7.16460295e-21 5.80084887e-07) (0.00000000e+00 0.00000000e+00 0.00000000e+00))
4.76397        	((1.07936905e+00 1.56073601e-05 -3.17498880e-19) (2.21395667e-01 1.08397233e-06 1.08767345e-20) (0.00000000e+00 0.00000000e+00 0.00000000e+00)) ((-1.25559229e-20 1.74318626e-19 -2.93700795e-12) (-1.67453494e-18 7.10731880e-21 5.16919339e-07) (0.00000000e+00 0.00000000e+00 0.00000000e+00))
4.8219         	((1.07627710e+00 1.70463421e-05 -3.15872464e-19) (2.20794410e-01 1.17519973e-06 1.07898093e-20) (0.00000000e+00 0.00000000e+00 0.00000000e+00)) ((-1.25644348e-20 1.73771942e-19 -3.50014744e-12) (-1.66997056e-18 7.04127795e-21 4.63432939e-07) (0.00000000e+00 0.00000000e+00 0.00000000e+00))
4.87983        	((1.07244566e+00 1.47758690e-05 -3.13925545e-19) (2.20191916e-01 1.24141231e-06 1.06984503e-20) (0.00000000e+00 0.00000000e+00 0.00000000e+00)) ((-1.25670689e-20 1.73112378e-19 -3.41423417e-12) (-1.66581392e-18 6.97526771e-21 4.14076066e-07) (0.00000000e+00 0.00000000e+00 0.00000000e+00))