/*--------------------------------*- C++ -*----------------------------------*\
| =========                 |                                                 |
| \\      /  F ield         | OpenFOAM: The Open Source CFD Toolbox           |
|  \\    /   O peration     | Version:  5.0                                   |
|   \\  /    A nd           | Web:      www.OpenFOAM.org                      |
|    \\/     M anipulation  |                                                 |
\*---------------------------------------------------------------------------*/
FoamFile
{
    version     2.0;
    format      ascii;
    class       volScalarField;
    location    "240";
    object      p;
}
// * * * * * * * * * * * * * * * * * * * * * * * * * * * * * * * * * * * * * //

dimensions      [0 2 -2 0 0 0 0];

internalField   nonuniform List<scalar> 
9200
(
-0.00063948669
-0.00063742405
-0.001462265
-0.00063290929
-0.001464279
-0.0024924297
-0.0006313131
-0.0014536071
-0.0024926757
-0.0034089651
-0.00062412017
-0.0014463298
-0.0024781088
-0.003412218
-0.0043490379
-0.00061686272
-0.0014275911
-0.0024672693
-0.0033961899
-0.0043558634
-0.0052411499
-0.00060551031
-0.0014068661
-0.002440027
-0.0033850715
-0.0043410435
-0.0052549684
-0.0061134599
-0.00059214609
-0.001377278
-0.002407956
-0.0033535327
-0.0043335449
-0.0052449575
-0.0061361899
-0.006948086
-0.00057573432
-0.0013421352
-0.0023621415
-0.0033150314
-0.0043021378
-0.0052464007
-0.0061341429
-0.0069824363
-0.0077480333
-0.00055700925
-0.0012997319
-0.0023064328
-0.0032585459
-0.0042620324
-0.0052213063
-0.0061496895
-0.0069921168
-0.0077975173
-0.0085075252
-0.00053619238
-0.0012511114
-0.0022387291
-0.0031883182
-0.0041997678
-0.0051867651
-0.0061368684
-0.0070280402
-0.0078238177
-0.0085749989
-0.009223751
-0.00051408293
-0.0011963233
-0.002160418
-0.0031017143
-0.0041198035
-0.0051265473
-0.0061145681
-0.0070350712
-0.0078858043
-0.0086218363
-0.0093121586
-0.0098929755
-0.00049174999
-0.0011358771
-0.0020719157
-0.0030003039
-0.0040188608
-0.0050451986
-0.0060636506
-0.0070336856
-0.0079197778
-0.0087158565
-0.0093840926
-0.01000509
-0.010511731
-0.00047070424
-0.0010700256
-0.0019744627
-0.0028845691
-0.0038986647
-0.0049385031
-0.005988657
-0.0070011424
-0.0079478003
-0.0087846875
-0.0095178217
-0.010106381
-0.010650161
-0.011076669
-0.00045247323
-0.00099893613
-0.001869339
-0.0027559757
-0.0037598137
-0.0048081431
-0.0058840007
-0.0069415868
-0.0079429962
-0.0088509338
-0.0096291764
-0.010285592
-0.010784951
-0.011243771
-0.011584785
-0.00043918086
-0.0009225031
-0.0017580618
-0.0026159544
-0.0036042213
-0.0046545879
-0.0057510813
-0.0068481438
-0.0079088727
-0.0088835368
-0.0097430524
-0.010447054
-0.011015899
-0.011415867
-0.01178261
-0.012033489
-0.00043115874
-0.00084168817
-0.0016420134
-0.0024661217
-0.0034339227
-0.0044798999
-0.0055901067
-0.0067218098
-0.0078368445
-0.0088853344
-0.0098235795
-0.010617763
-0.011235899
-0.011704014
-0.011995475
-0.012263735
-0.012420639
-0.00042667033
-0.0007572585
-0.0015232645
-0.0023079827
-0.0032513128
-0.004286302
-0.0054032631
-0.0065623196
-0.0077272588
-0.0088456197
-0.0098724968
-0.010756639
-0.011472846
-0.011989452
-0.012346094
-0.012520333
-0.012684638
-0.012744613
-0.00042241941
-0.00067063298
-0.0014028907
-0.0021438562
-0.0030587301
-0.0040764274
-0.0051930619
-0.0063717665
-0.0075791651
-0.0087638191
-0.009876787
-0.010864128
-0.011680787
-0.012301539
-0.012704326
-0.012937802
-0.012987391
-0.013043276
-0.013004563
-0.0004123871
-0.00058515184
-0.0012813174
-0.0019756182
-0.0028590773
-0.0038529277
-0.0049626033
-0.006152705
-0.0073944103
-0.0086380462
-0.0098346784
-0.010924573
-0.011858634
-0.012588925
-0.013100184
-0.013374823
-0.013475568
-0.013393992
-0.013338219
-0.013200517
-0.00038909745
-0.00050475409
-0.001159352
-0.0018052308
-0.0026544793
-0.0036190834
-0.0047151186
-0.0059084374
-0.0071755136
-0.0084696567
-0.0097430914
-0.010934736
-0.011987891
-0.012848832
-0.013477149
-0.013862105
-0.013997084
-0.013955873
-0.01373819
-0.013568923
-0.013332486
-0.00034504363
-0.00043399875
-0.0010370704
-0.0016356888
-0.0024466823
-0.0033777208
-0.0044543537
-0.0056425341
-0.0069259757
-0.0082609098
-0.0096026677
-0.010890062
-0.012063586
-0.013059693
-0.013830692
-0.014338094
-0.014582852
-0.014566177
-0.014376311
-0.014019018
-0.013735609
-0.013399507
-0.00027427919
-0.00037738049
-0.00091437352
-0.0014698009
-0.0022380318
-0.0031316131
-0.0041835298
-0.0053590922
-0.0066497383
-0.0080152969
-0.0094152186
-0.010790233
-0.0120794
-0.013214558
-0.014136048
-0.014796356
-0.015166596
-0.015256246
-0.015078706
-0.014734536
-0.014236145
-0.013838191
-0.013402545
-0.00017369833
-0.00033853333
-0.00079118116
-0.0013103401
-0.0020306228
-0.0028841943
-0.0039056415
-0.0050619007
-0.0063512767
-0.007736939
-0.0091841087
-0.010636342
-0.012033792
-0.013305066
-0.014384057
-0.015208819
-0.015740062
-0.01595543
-0.015877786
-0.015530706
-0.015028464
-0.014388536
-0.013875728
-0.013347673
-4.3684128e-05
-0.00031956197
-0.00066759957
-0.0011598303
-0.001826634
-0.0026385731
-0.0036241875
-0.0047546189
-0.006034951
-0.0074305724
-0.0089135644
-0.010431407
-0.01192688
-0.01332816
-0.014564044
-0.015563923
-0.016271855
-0.016653662
-0.016698954
-0.016442169
-0.015919314
-0.015256242
-0.014475243
-0.013850677
-0.01323703
0.00011186154
-0.00032068847
-0.00054403597
-0.0010203537
-0.0016282405
-0.0023977301
-0.0033425425
-0.0044413808
-0.0057049369
-0.0071010436
-0.008608572
-0.010179558
-0.011761105
-0.013282722
-0.014671136
-0.015848442
-0.016747867
-0.017316263
-0.017530456
-0.017390541
-0.016945351
-0.016241811
-0.015417181
-0.014497781
-0.013767296
-0.013072391
0.00028614163
-0.00034022877
-0.00042118065
-0.00089339705
-0.0014375369
-0.0021644915
-0.0030642187
-0.0041262288
-0.0053657475
-0.0067530976
-0.0082744456
-0.0098858755
-0.011540336
-0.013170314
-0.014702684
-0.016055398
-0.017152114
-0.01792649
-0.018334442
-0.018362511
-0.018024795
-0.017383283
-0.016496566
-0.015511725
-0.014458587
-0.013627808
-0.012856635
0.00047164922
-0.00037398687
-0.00029993918
-0.00077974792
-0.0012564294
-0.0019415033
-0.0027927229
-0.0038132529
-0.0050219276
-0.0063918173
-0.0079164774
-0.0095559916
-0.011269634
-0.012994296
-0.014659104
-0.016180289
-0.017475236
-0.018465442
-0.019091504
-0.019317248
-0.019143018
-0.018596175
-0.017753082
-0.016682692
-0.015541029
-0.014360026
-0.013435196
-0.012592598
0.00066182035
-0.00041170467
-0.00018228059
-0.00067969783
-0.0010862651
-0.0017311826
-0.0025313414
-0.0035065591
-0.0046781264
-0.0060224477
-0.0075402717
-0.0091956702
-0.010954864
-0.012759503
-0.014542953
-0.016222087
-0.017710575
-0.018921142
-0.019779723
-0.020232726
-0.020256503
-0.019864834
-0.019100264
-0.018052378
-0.016800158
-0.015506703
-0.014204857
-0.013192322
-0.012284117
0.00084497822
-0.00043881159
-7.4988366e-05
-0.00059289759
-0.00092776017
-0.0015357966
-0.0022829429
-0.0032101553
-0.0043391227
-0.0056503475
-0.0071516615
-0.0088110475
-0.010602216
-0.012471829
-0.014358633
-0.01618225
-0.017855314
-0.019284476
-0.020384309
-0.02108399
-0.021340741
-0.021143448
-0.020521855
-0.019533067
-0.018279786
-0.016849536
-0.015410842
-0.013995937
-0.012902554
-0.011934651
0.0010185741
-0.00046775933
1.7593241e-05
-0.00051682996
-0.00078237698
-0.0013569213
-0.0020497981
-0.0029277942
-0.0040096421
-0.0052810413
-0.0067566272
-0.0084086119
-0.010218326
-0.012137744
-0.014111897
-0.016064442
-0.017909503
-0.019550514
-0.020893426
-0.021853292
-0.022367796
-0.022405242
-0.021970225
-0.021108286
-0.019891599
-0.018434575
-0.016832054
-0.01525591
-0.013736473
-0.012569337
-0.011548155
0.0012003671
-0.00051012097
0.00010233242
-0.00044212697
-0.00065321197
-0.0011959022
-0.0018339215
-0.0026626788
-0.0036941235
-0.0049200648
-0.006361389
-0.0079950814
-0.0098102614
-0.011764292
-0.013809367
-0.015874014
-0.017875776
-0.019717539
-0.021299705
-0.022525856
-0.023316896
-0.023619455
-0.023416639
-0.02272912
-0.021619342
-0.020173567
-0.018516836
-0.016749458
-0.015044757
-0.013429836
-0.012196393
-0.011128285
0.0013829173
-0.00056009196
0.00018257986
-0.00037413154
-0.00053632562
-0.0010528532
-0.0016376843
-0.0024172802
-0.0033964164
-0.0045727135
-0.0059722681
-0.0075774971
-0.0093853972
-0.011359086
-0.013458411
-0.01561753
-0.017758809
-0.019786816
-0.021599313
-0.023091576
-0.024170159
-0.024762304
-0.024827755
-0.024365256
-0.023413382
-0.022050911
-0.020377629
-0.018527309
-0.01660403
-0.014780549
-0.013079629
-0.011787434
-0.010678883
0.0015580289
-0.00061113117
0.00026512395
-0.00033126847
-0.00042442887
-0.00091269561
-0.0014629145
-0.0021942158
-0.003119694
-0.0042436536
-0.0055954174
-0.0071630868
-0.0089515149
-0.010930186
-0.013067089
-0.015302513
-0.017564867
-0.019762038
-0.021791784
-0.023544152
-0.024914483
-0.025812709
-0.02617688
-0.025981106
-0.025242262
-0.024016876
-0.022399932
-0.020503228
-0.018467435
-0.016398498
-0.014466728
-0.012689551
-0.011346263
-0.010203554
0.0017195059
-0.00066244102
0.00034809394
-0.00029250517
-0.00032825674
-0.00076675961
-0.0012953439
-0.0019947716
-0.0028674191
-0.0039367354
-0.0052363987
-0.0067589797
-0.0085167006
-0.010486181
-0.012644049
-0.014937351
-0.017301457
-0.019648862
-0.021879485
-0.023881012
-0.025540776
-0.026754366
-0.027439725
-0.027547264
-0.027068572
-0.02603933
-0.024534516
-0.022664221
-0.020550656
-0.018339258
-0.016135998
-0.014106945
-0.012263398
-0.010876592
-0.009705894
0.0018622523
-0.00071218522
0.00042532808
-0.00025140441
-0.0002358597
-0.00065730251
-0.0011302151
-0.0017999681
-0.0026417211
-0.0036560686
-0.0048999526
-0.0063717188
-0.0080890714
-0.010036092
-0.012198593
-0.014531222
-0.016977143
-0.019454512
-0.021867146
-0.024102814
-0.026043983
-0.027575098
-0.02859665
-0.029036312
-0.028860486
-0.028079538
-0.026749148
-0.024962177
-0.022842594
-0.020520978
-0.01814539
-0.015819999
-0.01370501
-0.011804962
-0.010382092
-0.0091892861
0.0019817704
-0.0007576896
0.00049367828
-0.00021455565
-0.0001469612
-0.00056709927
-0.00099972873
-0.0016084533
-0.0024212571
-0.0034041531
-0.0045911813
-0.0060069612
-0.0076762476
-0.0095890941
-0.011740608
-0.014094126
-0.016601484
-0.019187532
-0.021761423
-0.024212993
-0.026422661
-0.028267011
-0.029632156
-0.030425223
-0.03058764
-0.030103633
-0.029004305
-0.027365336
-0.025296861
-0.022934798
-0.020416009
-0.017888937
-0.01545424
-0.013264817
-0.011318015
-0.0098662876
-0.0086569899
0.0020743855
-0.0007966318
0.00055220567
-0.00018477606
-6.4750414e-05
-0.00047538661
-0.00087659618
-0.0014624766
-0.0022062588
-0.0031560598
-0.0043135341
-0.0056707608
-0.0072849768
-0.0091539472
-0.011280314
-0.013636825
-0.01618504
-0.018857701
-0.021570598
-0.024217299
-0.02667856
-0.028826155
-0.030535176
-0.031695
-0.03222366
-0.032078597
-0.031264539
-0.02983401
-0.027882733
-0.02553663
-0.022941518
-0.020238235
-0.017573422
-0.015042656
-0.0127903
-0.010806239
-0.0093325737
-0.0081120555
0.0021373437
-0.00082718818
0.00060007378
-0.00016106803
6.07396e-06
-0.00038876258
-0.00075466347
-0.0013214252
-0.0020394741
-0.0029145266
-0.0040388535
-0.0053674628
-0.0069225093
-0.0087385388
-0.010827669
-0.013170602
-0.015739333
-0.018476018
-0.021304442
-0.024123449
-0.026816151
-0.029252179
-0.031298871
-0.03283113
-0.033745962
-0.033974853
-0.033494555
-0.032331718
-0.03056101
-0.028297349
-0.025680665
-0.022864312
-0.019990749
-0.017202713
-0.014589318
-0.012285372
-0.010273211
-0.0087841629
-0.007557353
0.0021691357
-0.00084835723
0.00063648316
-0.0001425592
6.5239012e-05
-0.0003142171
-0.00064015005
-0.0011795455
-0.0018707529
-0.0027288255
-0.0037709699
-0.0050654329
-0.0065944801
-0.0083513653
-0.010391842
-0.012706647
-0.015276632
-0.018054672
-0.020974185
-0.023940942
-0.026842247
-0.029547871
-0.031920365
-0.033823519
-0.035136371
-0.035766236
-0.035661836
-0.034821348
-0.033294794
-0.031178902
-0.028606463
-0.025729224
-0.022705549
-0.019677161
-0.01678094
-0.01409836
-0.011753879
-0.0097223549
-0.0082240889
-0.0069955395
-0.00085911164
0.0021691358
0.00066021788
-0.00012882657
0.00011287753
-0.00025217303
-0.0005421174
-0.0010468317
-0.0017029825
-0.002535107
-0.0035618428
-0.0047702802
-0.0062659087
-0.0079994138
-0.0099827705
-0.012255449
-0.014809349
-0.017606847
-0.02059249
-0.023681007
-0.026765758
-0.029718749
-0.032400331
-0.034666347
-0.036381226
-0.03743078
-0.037736758
-0.037267792
-0.036045752
-0.034144623
-0.031682664
-0.028808612
-0.025683593
-0.022468327
-0.019301516
-0.016312422
-0.013573927
-0.011199565
-0.0091569301
-0.0076551805
-0.0064290725
0.00067132916
-0.00085911167
0.0021373439
-0.00012045979
0.00014890662
-0.00020254841
-0.00046090333
-0.00093329178
-0.0015455321
-0.0023416247
-0.0033357926
-0.0045351778
-0.005943382
-0.0076440225
-0.0096091182
-0.011828435
-0.014349356
-0.017146129
-0.020173294
-0.02335657
-0.026597609
-0.029772776
-0.032742578
-0.035357732
-0.037471369
-0.038950998
-0.039693521
-0.039638204
-0.038776607
-0.03715561
-0.034873513
-0.032068678
-0.028903591
-0.025546025
-0.022156382
-0.018868203
-0.015801588
-0.013020117
-0.010626032
-0.0085800056
-0.0070800662
-0.0058601979
-0.00011694011
0.00067132923
-0.00084835731
0.0020743859
0.00017208332
-0.00016556521
-0.0003960447
-0.00083915483
-0.0014109009
-0.0021598163
-0.0031116158
-0.0042730569
-0.0056788293
-0.0072933639
-0.0092286334
-0.011436067
-0.013909696
-0.016685762
-0.019731243
-0.02298213
-0.026350698
-0.029720231
-0.032953718
-0.035899329
-0.038401921
-0.040314047
-0.041510643
-0.041903034
-0.041451632
-0.040173023
-0.038140218
-0.035475263
-0.032334789
-0.028892395
-0.025319642
-0.02177399
-0.018381862
-0.015252913
-0.012440938
-0.010036716
-0.0079944558
-0.0065011614
-0.005290962
0.00018270384
-0.00011694008
0.00066021803
-0.00082718833
0.0019817709
-0.00014280692
-0.00034753936
-0.00076397407
-0.00129944
-0.0020042661
-0.0029007485
-0.0040167369
-0.0053743606
-0.0070003651
-0.0088508977
-0.011032427
-0.013502911
-0.01624042
-0.019280916
-0.022573227
-0.026039804
-0.029573652
-0.033042987
-0.036295959
-0.039171924
-0.041511625
-0.043171298
-0.044036725
-0.04403772
-0.043158666
-0.041443058
-0.038990428
-0.035945296
-0.032480274
-0.028777153
-0.025008341
-0.021325861
-0.017847304
-0.014670851
-0.011840268
-0.0094348684
-0.0074029419
-0.0059206751
-0.0047232116
-0.00013365286
0.0001827039
-0.00012045963
0.00063648345
-0.00079663199
0.0018622529
-0.000317057
-0.00070779234
-0.0012105536
-0.0018754583
-0.0027203438
-0.0037753931
-0.0050805704
-0.0066517632
-0.0085273832
-0.010629044
-0.013079536
-0.015824861
-0.018838642
-0.022145661
-0.02568112
-0.02934777
-0.033022164
-0.036555384
-0.03978395
-0.042539706
-0.04466338
-0.046018253
-0.046505288
-0.046076182
-0.044741962
-0.04257426
-0.039698784
-0.036280676
-0.032505811
-0.028561029
-0.024616677
-0.020817041
-0.017269425
-0.01405979
-0.011221823
-0.0088235337
-0.0068079118
-0.0053406129
-0.0041586071
-0.00030388634
-0.00013365273
0.00017208359
-0.00012882636
0.00060007415
-0.00075768984
0.0017195066
-0.00067252258
-0.0011442248
-0.0017727618
-0.002571077
-0.0035685355
-0.0048041778
-0.0063162622
-0.0081283552
-0.01027358
-0.012653018
-0.015386061
-0.018421606
-0.021717341
-0.025291477
-0.029059115
-0.032905528
-0.036688178
-0.040243814
-0.043398135
-0.045979352
-0.047831372
-0.04882899
-0.04889211
-0.047997742
-0.04618551
-0.043555926
-0.040259635
-0.036480119
-0.032413395
-0.028248112
-0.024149754
-0.020252809
-0.016653144
-0.013423997
-0.010589123
-0.0082055273
-0.0062116099
-0.0047628036
-0.0035986124
-0.00065733335
-0.00030388617
-0.00014280662
0.000148907
-0.00014255886
0.00055220617
-0.00071218547
0.0015580297
-0.0011025498
-0.001696182
-0.0024521948
-0.0033973121
-0.0045670347
-0.0060008287
-0.0077451517
-0.0098186959
-0.012263925
-0.014939908
-0.017973351
-0.021307976
-0.024890249
-0.028725283
-0.032709538
-0.036707697
-0.04056039
-0.044090296
-0.047115856
-0.049464631
-0.050988182
-0.051576788
-0.051173307
-0.049782742
-0.047475021
-0.044379214
-0.040669199
-0.036543944
-0.03220624
-0.027843286
-0.023613096
-0.019638599
-0.016003334
-0.01276756
-0.0099454516
-0.0075834778
-0.0056161226
-0.004188858
-0.0030445085
-0.0010845316
-0.00065733324
-0.00031705666
-0.00016556466
0.00011287812
-0.00016106763
0.00049367885
-0.00066244128
0.0013829182
-0.001648033
-0.0023636536
-0.0032609822
-0.0043707245
-0.0057300448
-0.0073854261
-0.0093830036
-0.011746709
-0.014516031
-0.017512402
-0.0208577
-0.02449977
-0.028366886
-0.032452192
-0.036629846
-0.040745578
-0.044622833
-0.048073348
-0.050911003
-0.052967134
-0.054105005
-0.054234777
-0.053325663
-0.051413058
-0.048598081
-0.045037316
-0.040925561
-0.036473995
-0.031888646
-0.02735211
-0.023012567
-0.018979899
-0.015324722
-0.012094341
-0.0092939325
-0.0069598844
-0.0050232688
-0.0036200699
-0.002497499
-0.0016271557
-0.0010845315
-0.00067252212
-0.0003475387
-0.0002025477
6.5239713e-05
-0.00018477551
0.0004253288
-0.00061113139
0.0012003681
-0.0023079306
-0.0031595108
-0.0042145035
-0.0055058214
-0.0070765908
-0.0089744884
-0.011252212
-0.013930211
-0.01705278
-0.020388201
-0.024056848
-0.028008878
-0.032155028
-0.03647255
-0.040814148
-0.045005607
-0.048855696
-0.052167536
-0.054754718
-0.056456477
-0.057152342
-0.056776343
-0.055327117
-0.052872407
-0.04954437
-0.045525508
-0.041028631
-0.036273523
-0.031465883
-0.026780707
-0.022354232
-0.018282119
-0.014621829
-0.011408085
-0.0086376088
-0.006336879
-0.0044343508
-0.0030577082
-0.001958756
-0.002283659
-0.0016271555
-0.0011025493
-0.00070779167
-0.00039604387
-0.00025217207
6.0748711e-06
-0.00021455502
0.00034809476
-0.00056009214
0.0010185751
-0.0030955717
-0.0040983291
-0.0053274347
-0.0068208301
-0.0086235545
-0.010789155
-0.013371133
-0.016391712
-0.01989257
-0.023586744
-0.027584741
-0.031845548
-0.03625783
-0.040783376
-0.045251605
-0.049470094
-0.053234755
-0.05634413
-0.058615533
-0.059900981
-0.06010044
-0.059175652
-0.057157282
-0.054146565
-0.050305806
-0.045841168
-0.040980062
-0.035947084
-0.03094407
-0.026135606
-0.021644172
-0.017550506
-0.013899147
-0.010712536
-0.0079790055
-0.0057157167
-0.0038508297
-0.0025039351
-0.0014286632
-0.0030675958
-0.0022836587
-0.0016480326
-0.0011442241
-0.00076397305
-0.00046090217
-0.00031421598
-6.4749378e-05
-0.0002514036
0.00026512492
-0.00051012104
0.00084497933
-0.0040250308
-0.0051948706
-0.0066174224
-0.0083327858
-0.010391202
-0.012848239
-0.015761428
-0.019149934
-0.023055355
-0.02712392
-0.031453901
-0.036015538
-0.040675186
-0.045376771
-0.049927026
-0.054116541
-0.057731985
-0.060571177
-0.062460073
-0.06326808
-0.062919873
-0.061408102
-0.058797778
-0.055223611
-0.050876632
-0.045983727
-0.040783162
-0.035500418
-0.030329986
-0.025423482
-0.020888391
-0.016790413
-0.013161272
-0.010010698
-0.0073193287
-0.0050982539
-0.003276365
-0.0019598837
-0.00088078068
-0.0039928005
-0.0030675957
-0.0023079302
-0.0016961812
-0.0012105526
-0.0008391536
-0.00054211606
-0.00038876121
-0.00014695994
-0.00029250425
0.00018258095
-0.00046775922
0.00066182156
-0.0051111165
-0.0064663769
-0.0081015587
-0.010061332
-0.012398457
-0.015172649
-0.018442049
-0.022224911
-0.026558029
-0.031014313
-0.035672379
-0.040521466
-0.04540222
-0.050240318
-0.054820102
-0.05891819
-0.062315558
-0.064814136
-0.066253495
-0.066525002
-0.065582021
-0.063450936
-0.060232461
-0.056094084
-0.051253413
-0.045954642
-0.040442812
-0.034940235
-0.029630742
-0.024651071
-0.020093194
-0.01600746
-0.012411779
-0.0093036767
-0.0066609772
-0.0044908757
-0.0027124849
-0.0013912994
-0.00030787571
-0.0050741046
-0.0039928004
-0.0030955712
-0.0023636528
-0.0017727608
-0.0012994388
-0.00093329019
-0.00064014837
-0.00047538507
-0.00023585829
-0.00033126734
0.00010233366
-0.00043881125
0.00047165057
-0.0063708187
-0.0079299467
-0.0097990204
-0.01202536
-0.014665728
-0.017781495
-0.021432854
-0.025634302
-0.030416097
-0.035268054
-0.040245289
-0.045361422
-0.05042942
-0.055356266
-0.059905872
-0.063843944
-0.066950436
-0.06903632
-0.069960238
-0.069639402
-0.068059677
-0.065283585
-0.061447695
-0.056751062
-0.051435083
-0.045757337
-0.039965208
-0.034273805
-0.028853694
-0.023825687
-0.019265373
-0.015205882
-0.011651615
-0.0085946257
-0.0060136893
-0.0038954588
-0.0021106661
-0.00080069248
0.00027624656
-0.0063283866
-0.0050741044
-0.0040250303
-0.0031595101
-0.0024521938
-0.0018754569
-0.0014108993
-0.0010468299
-0.00075466159
-0.00056709742
-0.00032825508
-0.0003741301
1.7594634e-05
-0.00041170419
0.00028614314
-0.0078212255
-0.0096044329
-0.011728626
-0.014244868
-0.017212196
-0.020694468
-0.024751803
-0.029393978
-0.034640535
-0.03989255
-0.04517349
-0.050528767
-0.05574181
-0.060701897
-0.065154586
-0.068858878
-0.071598739
-0.07319969
-0.073544405
-0.072579845
-0.07032765
-0.06688789
-0.062432504
-0.057190278
-0.051422948
-0.045396937
-0.039357376
-0.0335089
-0.028007169
-0.022955424
-0.018409876
-0.01438631
-0.01088487
-0.0078977048
-0.0053797427
-0.003235939
-0.0014959374
-0.00019449716
0.00087017941
-0.0077727299
-0.0063283865
-0.0051111162
-0.0040983285
-0.003260981
-0.0025710755
-0.0020042644
-0.0015455303
-0.0011795433
-0.00087659394
-0.00065730043
-0.000424427
-0.00044212512
-7.4986664e-05
-0.00037398623
0.00011186324
-0.0094809888
-0.011508566
-0.01391004
-0.016739016
-0.02005727
-0.0239296
-0.02841475
-0.033515886
-0.03923948
-0.044891402
-0.050453013
-0.056011351
-0.061319206
-0.066249377
-0.070532078
-0.073924581
-0.076220387
-0.077265295
-0.076970522
-0.075316492
-0.072363117
-0.068248376
-0.063178785
-0.057410212
-0.051220395
-0.044879688
-0.038627166
-0.032654773
-0.027100646
-0.022045956
-0.017526909
-0.013553902
-0.010131192
-0.0072156495
-0.004648333
-0.0025732442
-0.00085941042
0.0004223439
0.001473967
-0.0094256907
-0.0077727299
-0.0063708182
-0.0051948698
-0.0042145024
-0.0033973107
-0.002720342
-0.0021598142
-0.0017029803
-0.0013214228
-0.00099972624
-0.00076675722
-0.00053632339
-0.00051682786
-0.0001822786
-0.00034022795
-4.3682256e-05
-0.011368772
-0.013661768
-0.016362339
-0.019526954
-0.023219006
-0.027503098
-0.032434874
-0.038010364
-0.044218025
-0.050263197
-0.056074354
-0.061791637
-0.067136136
-0.071965949
-0.076000054
-0.0789998
-0.080773815
-0.081194159
-0.080204098
-0.077821656
-0.074145798
-0.069352559
-0.063681504
-0.05741178
-0.050832218
-0.044213034
-0.037784575
-0.031722319
-0.026140481
-0.021096887
-0.016622977
-0.012735457
-0.0093937788
-0.0063911509
-0.0039267763
-0.0018811513
-0.00021165549
0.0010511737
0.0020868258
-0.011305909
-0.0094256905
-0.007821225
-0.0064663762
-0.0053274338
-0.0043707232
-0.0035685336
-0.0029007462
-0.0023416223
-0.0018707504
-0.0014624737
-0.0011302122
-0.00091269298
-0.00065320944
-0.00059289521
-0.00029993691
-0.00032068747
-0.00017369633
-0.013503836
-0.016083018
-0.019104463
-0.022626666
-0.026713831
-0.031428831
-0.036824148
-0.042884156
-0.049576016
-0.056001087
-0.062022431
-0.06784679
-0.073161813
-0.077814102
-0.081516775
-0.084040969
-0.085216756
-0.084947892
-0.083212962
-0.08007014
-0.075658398
-0.070191274
-0.063938364
-0.057197556
-0.050264834
-0.043407408
-0.036841856
-0.030718436
-0.025125384
-0.02011638
-0.015733341
-0.01193457
-0.0084580428
-0.0055911513
-0.0031652665
-0.0011779589
0.00044976879
0.0016901568
0.0027083402
-0.013432574
-0.011305909
-0.0094809884
-0.0079299461
-0.0066174212
-0.0055058199
-0.0045670328
-0.0037753909
-0.0031116132
-0.0025351041
-0.0020394712
-0.0016084501
-0.0012953407
-0.0010528502
-0.00078237407
-0.00067969522
-0.00042117821
-0.00031956089
-0.00027427713
-0.015905088
-0.01879108
-0.022154278
-0.026054665
-0.030556081
-0.035719085
-0.041590047
-0.048139269
-0.055308255
-0.062092513
-0.068276975
-0.074148481
-0.079360037
-0.083752436
-0.087037388
-0.089002997
-0.089507215
-0.088489081
-0.085967096
-0.082039627
-0.076887117
-0.07075831
-0.063948881
-0.056772163
-0.049528664
-0.042476255
-0.035806164
-0.029640487
-0.024065517
-0.019149784
-0.014862309
-0.010865345
-0.007563722
-0.004738199
-0.0023938809
-0.00046006734
0.0011220352
0.002339015
0.0033378486
-0.015824555
-0.013432574
-0.011368772
-0.0096044321
-0.0081015576
-0.0068208287
-0.0057300432
-0.0048041757
-0.0040167342
-0.0033357895
-0.0027288223
-0.0022062554
-0.0017999645
-0.0014629109
-0.0011958989
-0.00092775702
-0.00077974507
-0.00054403339
-0.00033853221
-0.00034504162
-0.018591168
-0.021803711
-0.025528281
-0.029825518
-0.034758188
-0.040382352
-0.046736322
-0.053773316
-0.061403919
-0.068520073
-0.074812283
-0.080662125
-0.085690548
-0.089735653
-0.092514642
-0.093840224
-0.093603573
-0.091783031
-0.088439059
-0.083711421
-0.077821288
-0.071049299
-0.063715029
-0.05614545
-0.048638061
-0.041426526
-0.034672854
-0.028500995
-0.023018311
-0.018202452
-0.013636753
-0.0098567359
-0.0066003655
-0.0038771361
-0.0016066325
0.00026895973
0.0018050924
0.0029966122
0.0039747553
-0.018500443
-0.015824555
-0.013503836
-0.011508565
-0.0097990194
-0.0083327845
-0.0070765889
-0.0060008265
-0.0050805677
-0.0042730539
-0.0035618394
-0.0029145229
-0.0024212532
-0.0019947676
-0.0016376804
-0.0013569177
-0.0010862617
-0.0008933941
-0.00066759699
-0.00037737941
-0.00038909559
-0.021579747
-0.025137344
-0.029241132
-0.033951791
-0.039329359
-0.045423609
-0.052262666
-0.059778211
-0.067847943
-0.075261333
-0.08159499
-0.08734937
-0.092108544
-0.095715036
-0.097899997
-0.098507416
-0.097465353
-0.09479717
-0.090604668
-0.085070055
-0.078451953
-0.071062668
-0.063245422
-0.055332264
-0.047599073
-0.04025061
-0.033457171
-0.027371925
-0.021990554
-0.016794708
-0.012493201
-0.0087597907
-0.0056314495
-0.0030002961
-0.00080788505
0.0010090563
0.0024973987
0.0036621356
0.0046184145
-0.021477878
-0.018500443
-0.015905088
-0.013661767
-0.011728625
-0.01006133
-0.0086235525
-0.0073854238
-0.0063162597
-0.0053743576
-0.0045351741
-0.0037709658
-0.0031560555
-0.0026417168
-0.0021942113
-0.0018339172
-0.0015357927
-0.0012564259
-0.0010203507
-0.00079117862
-0.00043399773
-0.00041238547
-0.024887203
-0.028806648
-0.03330544
-0.038443091
-0.044275416
-0.050844021
-0.058163359
-0.066141834
-0.07462154
-0.082284097
-0.088589009
-0.094167028
-0.09856453
-0.10163987
-0.10314467
-0.10295998
-0.10105584
-0.097501765
-0.09244317
-0.086101373
-0.078773139
-0.070805105
-0.062554901
-0.054336778
-0.046399804
-0.038966841
-0.032248657
-0.026261964
-0.02037242
-0.015493064
-0.011238187
-0.0076610288
-0.0046471068
-0.0021123291
1.6837488e-06
0.0017584681
0.0031979754
0.0043345316
0.0052682598
-0.024773206
-0.021477878
-0.018591168
-0.016083018
-0.013910039
-0.012025359
-0.0103912
-0.0089744862
-0.0077451488
-0.00665176
-0.0056788256
-0.004770276
-0.004038849
-0.0034041483
-0.0028674143
-0.0024172754
-0.0020497936
-0.0017311787
-0.0014375334
-0.0011598274
-0.00091437115
-0.00050475318
-0.00042241807
-0.028528177
-0.032824213
-0.037731003
-0.043305771
-0.049598529
-0.056639868
-0.064428447
-0.07285274
-0.081692658
-0.0895559
-0.095753562
-0.10106563
-0.10500625
-0.10745857
-0.10820027
-0.1071546
-0.10434285
-0.099871754
-0.093934961
-0.086794139
-0.078788961
-0.07029095
-0.061644497
-0.053141017
-0.045062018
-0.037686054
-0.0310584
-0.024402398
-0.018887445
-0.014052359
-0.0099863964
-0.0065476767
-0.0036523672
-0.0012138557
0.00082057054
0.0025159985
0.0039054428
0.0050133688
0.005923473
-0.028401053
-0.024773206
-0.021579747
-0.018791079
-0.016362338
-0.014244867
-0.012398455
-0.010789153
-0.0093830006
-0.0081283518
-0.0070003615
-0.0059433779
-0.0050654281
-0.0043135289
-0.0036560635
-0.0031196889
-0.0026626737
-0.0022829383
-0.0019414994
-0.0016282371
-0.0013103374
-0.0010370682
-0.000585151
-0.00042666931
-0.032515223
-0.037199905
-0.042524482
-0.048542641
-0.055296377
-0.062803272
-0.071047131
-0.079883003
-0.08903179
-0.097039924
-0.10303945
-0.107992
-0.11138033
-0.11311919
-0.11301984
-0.11105221
-0.10729507
-0.10188329
-0.095063232
-0.087149348
-0.078512815
-0.069516594
-0.060487759
-0.051770523
-0.043722382
-0.036422303
-0.028923615
-0.022706769
-0.017230468
-0.012621547
-0.0087212839
-0.0054251626
-0.0026477272
-0.00030649658
0.0016469199
0.003279997
0.0046197866
0.0056974049
0.0065833334
-0.032373958
-0.028401053
-0.024887202
-0.021803711
-0.019104462
-0.016739014
-0.014665726
-0.012848236
-0.011252209
-0.0098186927
-0.008527379
-0.0072933594
-0.0062659038
-0.0053674576
-0.0045911758
-0.0039367298
-0.003396411
-0.0029277891
-0.0025313369
-0.0021644876
-0.0018266307
-0.0014697983
-0.00115935
-0.00067063224
-0.00043115801
-0.036858222
-0.041940525
-0.047689033
-0.054152292
-0.061362611
-0.06932377
-0.077996143
-0.087200556
-0.096607696
-0.10468841
-0.11039199
-0.11489248
-0.11763214
-0.11857059
-0.11755773
-0.1146179
-0.10988003
-0.10351284
-0.095825915
-0.087179421
-0.077934794
-0.068443974
-0.059114409
-0.050393344
-0.042398507
-0.033976026
-0.026987937
-0.020799668
-0.015592015
-0.011179198
-0.0074487546
-0.0042937552
-0.001634908
0.00060746294
0.0024792166
0.0040513139
0.0053387027
0.0063858503
0.0072471124
-0.03670181
-0.032373957
-0.028528176
-0.025137343
-0.022154277
-0.019526952
-0.017212193
-0.015172647
-0.01337113
-0.011746706
-0.010273576
-0.008850893
-0.0076440176
-0.0065944748
-0.005670755
-0.0048999467
-0.0042436478
-0.0036941181
-0.0032101502
-0.0027927185
-0.0023977265
-0.0020306198
-0.0016356864
-0.0012813156
-0.0007572578
-0.00043918036
-0.041564021
-0.047049406
-0.053223818
-0.060129338
-0.067787211
-0.07618224
-0.085245026
-0.094785568
-0.10437706
-0.11244477
-0.11775855
-0.12171088
-0.12370681
-0.12376439
-0.12177411
-0.11781753
-0.11206737
-0.10475315
-0.09623513
-0.086866668
-0.077001598
-0.067106975
-0.057731042
-0.049031123
-0.039602447
-0.031769343
-0.024793394
-0.018922089
-0.013944339
-0.0097317739
-0.0061687409
-0.0031552034
-0.00061656209
0.0015263664
0.0033197595
0.0048266102
0.0060612822
0.0070775385
0.0079141129
-0.04139147
-0.03670181
-0.032515222
-0.028806648
-0.025528279
-0.022626664
-0.020057268
-0.017781493
-0.015761425
-0.013930207
-0.012263921
-0.010629039
-0.009228628
-0.0079994082
-0.0069225034
-0.0060069552
-0.0052363927
-0.0045727077
-0.0040096366
-0.0035065541
-0.0030642146
-0.0026385697
-0.002238029
-0.0018052287
-0.0014028891
-0.00084168752
-0.00045247291
-0.046636025