/*--------------------------------*- C++ -*----------------------------------*\
| =========                 |                                                 |
| \\      /  F ield         | OpenFOAM: The Open Source CFD Toolbox           |
|  \\    /   O peration     | Version:  5.0                                   |
|   \\  /    A nd           | Web:      www.OpenFOAM.org                      |
|    \\/     M anipulation  |                                                 |
\*---------------------------------------------------------------------------*/
FoamFile
{
    version     2.0;
    format      ascii;
    class       surfaceScalarField;
    location    "240";
    object      phi;
}
// * * * * * * * * * * * * * * * * * * * * * * * * * * * * * * * * * * * * * //

dimensions      [0 3 -1 0 0 0 0];

internalField   nonuniform List<scalar> 
18180
(
0.0013532139
-1.3968761
0.0026181472
-1.306617
0.0013109106
-1.398187
0.0037942865
-1.2225147
0.0025308964
-1.307837
0.0012659878
-1.399453
0.0048891605
-1.1439957
0.003670758
-1.2236546
0.0024476419
-1.3090186
0.0012252917
-1.4006783
0.0059021471
-1.0706686
0.0047324345
-1.1450573
0.0035532225
-1.2247601
0.0023705014
-1.3101638
0.0011835819
-1.4018619
0.0068377792
-1.0021178
0.0057179425
-1.0716541
0.0045843449
-1.1460885
0.0034454714
-1.2258351
0.0022930353
-1.3112733
0.0011415283
-1.4030034
0.0076968602
-0.93799928
0.0066297509
-1.0030296
0.0055444599
-1.0726142
0.0044523242
-1.1470953
0.0033376894
-1.2268798
0.0022148092
-1.3123466
0.0010971902
-1.4041006
0.0084822941
-0.87799341
0.007469417
-0.93883895
0.0064351012
-1.0039203
0.0053943849
-1.0735562
0.0043206128
-1.1480782
0.0032297241
-1.2278947
0.0021326734
-1.3133821
0.0010501619
-1.4051507
0.009196404
-0.82181645
0.0082389365
-0.87876293
0.0072580286
-0.93966187
0.0062731356
-1.004799
0.0052451936
-1.0744808
0.0041904949
-1.149039
0.0031165375
-1.2288785
0.0020453276
-1.3143772
0.00099979787
-1.4061505
0.0098424127
-0.76920671
0.0089403523
-0.82251787
0.0080147091
-0.87951961
0.0070899007
-0.94047864
0.0061127165
-1.0056665
0.0051004956
-1.0753908
0.0040540373
-1.1499765
0.0029961649
-1.2298294
0.0019515298
-1.3153289
0.00094534578
-1.4070959
0.010424118
-0.71992981
0.0095760665
-0.76984242
0.0087069659
-0.82321012
0.0078456923
-0.8802754
0.0069240829
-0.94129
0.0059610145
-1.0065271
0.0049485789
-1.0762854
0.0039091864
-1.1508895
0.0028660011
-1.2307438
0.0018499117
-1.3162335
0.00088663842
-1.4079825
0.010946539
-0.6737661
0.010148818
-0.72050257
0.0093369181
-0.77047238
0.0085417275
-0.82390616
0.0076797404
-0.88103106
0.0067724901
-0.94210148
0.0058013871
-1.0073799
0.0047880052
-1.0771642
0.0037519983
-1.1517755
0.0027245834
-1.2316185
0.0017400029
-1.3170869
0.00082358439
-1.4088061
0.011416634
-0.63051087
0.010662019
-0.6742793
0.0099072109
-0.72107286
0.0091794693
-0.77111012
0.0083802541
-0.82460667
0.0075347671
-0.88179334
0.0066123804
-0.94291247
0.0056337691
-1.0082256
0.0046128023
-1.078025
0.0035804151
-1.1526314
0.0025714156
-1.2324499
0.0016215053
-1.3178848
0.00075634117
-1.4095624
0.01184445
-0.58996404
0.011120476
-0.63096933
0.010421288
-0.67479338
0.0097608193
-0.72165421
0.0090264069
-0.77175627
0.0082476799
-0.82531958
0.0073806283
-0.88256158
0.0064459643
-0.94372467
0.0054494299
-1.0090623
0.0044203533
-1.0788649
0.0033931119
-1.1534531
0.0024053798
-1.2332338
0.0014946723
-1.3186231
0.00068521591
-1.4102477
0.012244181
-0.55191889
0.011531938
-0.59037551
0.010883971
-0.63143201
0.01028831
-0.67532087
0.0096194612
-0.72224726
0.0089112097
-0.7724198
0.0081051945
-0.82604415
0.007223223
-0.88333884
0.0062609758
-0.94453621
0.005246022
-1.0098879
0.0042090363
-1.0796808
0.0031887908
-1.1542365
0.0022268746
-1.233966
0.0013600064
-1.3192979
0.00061066309
-1.4108583
0.012634731
-0.5161518
0.011909341
-0.55229629
0.011302624
-0.59079416
0.010765589
-0.63190929
0.010161334
-0.67586274
0.0095257462
-0.7228618
0.0087851773
-0.77309978
0.0079637268
-0.82678465
0.0070454728
-0.88412334
0.0060560555
-0.94534625
0.0050204589
-1.0106994
0.0039764768
-1.0804685
0.0029682468
-1.1549778
0.0020364045
-1.2346424
0.001218331
-1.3199056
0.0005332534
-1.4113916
0.013037699
-0.48241403
0.012272591
-0.51651505
0.011688806
-0.55268247
0.011198513
-0.59122708
0.010655046
-0.632403
0.010092224
-0.67642922
0.0094200771
-0.7234967
0.0086656271
-0.77380168
0.0078002378
-0.82753942
0.0068478313
-0.88491512
0.0058257517
-0.94615154
0.0047699717
-1.0114928
0.0037236494
-1.0812239
0.002731056
-1.1556725
0.0018351221
-1.2352592
0.0010706855
-1.320443
0.00045365265
-1.4118452
0.013473561
-0.4504327
0.012648422
-0.48278986
0.012059633
-0.51688588
0.011596958
-0.55308092
0.011105661
-0.5916777
0.010612501
-0.63292328
0.01000997
-0.67701911
0.0093274106
-0.72415848
0.008522482
-0.77452393
0.0076178878
-0.82830948
0.0066218513
-0.88571122
0.0055675194
-0.94694909
0.0044951117
-1.0122643
0.0034493859
-1.0819423
0.002479232
-1.1563166
0.0016243605
-1.2358129
0.00091830838
-1.3209077
0.00037258076
-1.4122178
0.013956462
-0.41993351
0.013067398
-0.45085167
0.012437619
-0.48316785
0.011976702
-0.51726562
0.011521844
-0.5534971
0.011090184
-0.59215538
0.010555878
-0.63346919
0.0099480834
-0.67763979
0.0092096897
-0.72484569
0.0083625017
-0.77526854
0.0074045422
-0.82909217
0.0063656159
-0.88650931
0.0052807458
-0.94773472
0.0041941084
-1.013009
0.0031563239
-1.0826194
0.0022136929
-1.1569059
0.0014058861
-1.2363004
0.00076255672
-1.3212977
0.00029077881
-1.4125086
0.014488735
-0.39067204
0.013557078
-0.42042319
0.012848399
-0.45126246
0.012360048
-0.4835512
0.011917609
-0.51766139
0.011532174
-0.55393909
0.011060504
-0.59266001
0.010527503
-0.63404861
0.0098598646
-0.67828996
0.0090781024
-0.72556129
0.008169209
-0.77603321
0.007159375
-0.82988593
0.0060768195
-0.88730539
0.0049634244
-0.94850404
0.0038697677
-1.0137225
0.0028447403
-1.0832504
0.0019371087
-1.1574372
0.0011815958
-1.2367195
0.00060487137
-1.3216117
0.00020902233
-1.4127176
0.01505796
-0.36246727
0.01413377
-0.39124873
0.013314959
-0.42088975
0.012774207
-0.45167661
0.01231307
-0.48394666
0.011950634
-0.51807985
0.011529609
-0.55440819
0.011067019
-0.59319952
0.010471857
-0.6346606
0.0097615922
-0.67897345
0.0089112719
-0.72630335
0.007943352
-0.77681719
0.0068779132
-0.83068702
0.0057534393
-0.8880954
0.0046179122
-0.94925218
0.0035218577
-1.0143996
0.0025182604
-1.0838316
0.0016513088
-1.1579069
0.00095363125
-1.2370682
0.00044676485
-1.3218495
0.00012818125
-1.4128458
0.015637637
-0.33522589
0.014795813
-0.36312931
0.013850651
-0.39178442
0.013245659
-0.4213612
0.012733381
-0.45209693
0.012364283
-0.4843603
0.011973863
-0.5185241
0.011570762
-0.55491194
0.011045942
-0.59377361
0.010410644
-0.63530965
0.0096265813
-0.67968876
0.0087119951
-0.727072
0.007677862
-0.77761713
0.0065583191
-0.8314919
0.0053969335
-0.88887442
0.0042436685
-0.94997399
0.0031544488
-1.0150358
0.0021784057
-1.0843587
0.0013593168
-1.1583126
0.00072421174
-1.2373457
0.00028980663
-1.3220111
4.9302568e-05
-1.4128951
0.016191299
-0.30894718
0.015521018
-0.3359511
0.014453399
-0.36373206
0.013792491
-0.39233125
0.013203977
-0.4218318
0.012797921
-0.45253056
0.012410281
-0.48479672
0.012047529
-0.51900087
0.011584975
-0.55545097
0.011024239
-0.5943872
0.010311718
-0.63599479
0.0094600729
-0.68043684
0.0084702337
-0.72786437
0.007371306
-0.77843012
0.0062007876
-0.83229575
0.0050065354
-0.88963729
0.0038447247
-0.95066427
0.0027688494
-1.0156262
0.0018291869
-1.0848285
0.0010636827
-1.158652
0.00049550957
-1.2375514
0.00013580196
-1.3220976
-2.5851379e-05
-1.4128692
0.01667868
-0.28370834
0.016269152
-0.30969532
0.015103442
-0.33660114
0.014417391
-0.36435696
0.013743557
-0.39287083
0.013278113
-0.42231199
0.012862178
-0.45298246
0.012512523
-0.48526172
0.012096175
-0.51951207
0.011603716
-0.55603045
0.0109645
-0.59503998
0.010183021
-0.63671773
0.0092487906
-0.6812154
0.0081851795
-0.72867824
0.0070222946
-0.77925163
0.0058043626
-0.83309358
0.0045858694
-0.89037843
0.003422255
-0.95131767
0.0023696543
-1.0161667
0.0014730573
-1.0852379
0.00076757191
-1.1589241
0.00026982979
-1.2376854
-1.3625985e-05
-1.3221098
-9.9752177e-05
-1.4127695
0.017062158
-0.25963698
0.016988385
-0.28442757
0.015765528
-0.3103574
0.015104097
-0.33728784
0.014357018
-0.36497042
0.01382605
-0.39341877
0.013355533
-0.42280535
0.012987815
-0.45345775
0.012593011
-0.48575855
0.012154514
-0.52006287
0.011584928
-0.55665088
0.010877398
-0.59573436
0.010007893
-0.63747684
0.0089927747
-0.68202299
0.0078535948
-0.72950954
0.0066297256
-0.78007699
0.0053719618
-0.83387967
0.0041359569
-0.89109213
0.0029810826
-0.9519291
0.0019593851
-1.016653
0.0011140077
-1.0855843
0.00047332338
-1.1591276
4.9019554e-05
-1.2377481
-0.00015898584
-1.3220506
-0.00017202015
-1.4125975
0.017312043
-0.23687801
0.017623573
-0.26027216
0.016394748
-0.28505679
0.015818618
-0.31107192
0.015031182
-0.33796201
0.014449828
-0.3655942
0.013912343
-0.39397558
0.013499291
-0.42331682
0.013096024
-0.45396077
0.0126882
-0.48629224
0.012176819
-0.52065476
0.011541759
-0.55731524
0.01074292
-0.59646939
0.0097873838
-0.63827145
0.0086867131
-0.68285611
0.0074742872
-0.7303541
0.0061955433
-0.78090057
0.0049043888
-0.8346481
0.0036615632
-0.89177261
0.0025238435
-0.95249356
0.0015426791
-1.0170817
0.00075478398
-1.0858658
0.00018368604
-1.1592623
-0.00016593089
-1.2377411
-0.00029893407
-1.3219237
-0.00023992153
-1.4123575
0.017409891
-0.21556287
0.018124253
-0.23737869
0.016943991
-0.26082141
0.016514738
-0.28575291
0.015735042
-0.31177578
0.015139274
-0.33865145
0.014542816
-0.36622467
0.014070334
-0.39454662
0.013630397
-0.4238512
0.013223663
-0.45449623
0.012749883
-0.4868653
0.012178197
-0.5212912
0.011451077
-0.55802339
0.010563213
-0.59724522
0.0095139851
-0.63909872
0.0083293953
-0.68371122
0.0070479945
-0.73120655
0.0057202642
-0.78171645
0.004406099
-0.83539264
0.0031653788
-0.89241415
0.0020556142
-0.9530065
0.0011226935
-1.0174496
0.00039894638
-1.0860811
-9.9364059e-05
-1.1593288
-0.00037309818
-1.237667
-0.00043225312
-1.3217314
-0.00030389202
-1.4120537
0.017349113
-0.19578875
0.018451067
-0.21588969
0.017370684
-0.23780539
0.017142025
-0.26144869
0.016424322
-0.28644219
0.015865439
-0.31250195
0.015239489
-0.33934813
0.014713767
-0.36686811
0.014220091
-0.39513632
0.013785314
-0.42441285
0.01332123
-0.45506758
0.012794468
-0.48748157
0.012132836
-0.52197296
0.011316098
-0.55877628
0.010328519
-0.59805975
0.0091865293
-0.63995585
0.0079201625
-0.68458338
0.0065748869
-0.73206118
0.0052077941
-0.78251814
0.0038797247
-0.83610698
0.0026527147
-0.89301125
0.0015799408
-0.95346374
0.00070374362
-1.0177544
4.9202427e-05
-1.0862296
-0.00037338812
-1.1593285
-0.00057111552
-1.2375281
-0.00055805847
-1.3214772
-0.00036315161
-1.4116905
0.017130992
-0.17760364
0.018580216
-0.1959179
0.017641959
-0.21616096
0.017653214
-0.23831657
0.017048634
-0.26207301
0.01658485
-0.2871616
0.01597576
-0.31323822
0.01542519
-0.34005955
0.014879753
-0.36752777
0.014397683
-0.39574869
0.01391417
-0.42500579
0.01340577
-0.45567888
0.012794038
-0.48814277
0.012044864
-0.52270172
0.011124873
-0.55957263
0.010037772
-0.59891099
0.0088028175
-0.64083851
0.0074587931
-0.68546729
0.0060580999
-0.73291148
0.0046605789
-0.783299
0.0033306055
-0.83678488
0.0021274246
-0.89355873
0.0011017598
-0.95386176
0.00028916199
-1.0179944
-0.00029134714
-1.0863117
-0.00063650383
-1.1592631
-0.00075859098
-1.2373276
-0.00067553747
-1.3211648
-0.00041783409
-1.4112727
0.016767914
-0.16101947
0.018507569
-0.17753099
0.017738303
-0.19601424
0.018010023
-0.21651777
0.017560333
-0.23882827
0.017246765
-0.26273492
0.016709463
-0.2878953
0.016180531
-0.31399356
0.015607461
-0.34078726
0.015077301
-0.36820738
0.014553345
-0.39638786
0.014034146
-0.42563416
0.013447906
-0.45633275
0.012753399
-0.48885131
0.01190031
-0.52347716
0.010876455
-0.56041132
0.0096871436
-0.59979532
0.0083622101
-0.64174192
0.0069474563
-0.68635665
0.0054997615
-0.73375067
0.0040837715
-0.78405216
0.0027627778
-0.83742023
0.0015949257
-0.8940519
0.00062499651
-0.95419759
-0.00011722722
-1.0181685
-0.00062021649
-1.086328
-0.0008868304
-1.1591349
-0.00093449216
-1.2370686
-0.00078427812
-1.3207984
-0.00046766592
-1.410805
0.014623004
-0.17111908
0.018235532
-0.16074744
0.017656241
-0.17744893
0.018185263
-0.19618948
0.017920762
-0.2168782
0.017801457
-0.23938297
0.01739015
-0.26341561
0.01693877
-0.28865354
0.016381443
-0.31476754
0.015824853
-0.34153481
0.015256728
-0.36891077
0.014704176
-0.39705789
0.014115003
-0.42630126
0.013452857
-0.4570322
0.012656818
-0.48960782
0.011698317
-0.52429902
0.010565353
-0.56128953
0.0092755591
-0.60070867
0.007865744
-0.64266021
0.0063878404
-0.68724473
0.0049046234
-0.73457152
0.0034814424
-0.78477083
0.0021819829
-0.83800729
0.0010596732
-0.89448658
0.00015417883
-0.954469
-0.00051229309
-1.0182764
-0.00093493457
-1.0862798
-0.0011229224
-1.1589465
-0.0010979951
-1.2367549
-0.00088390572
-1.3203821
-0.00051272944
-1.4102923
0.012761695
-0.16536285
0.016230207
-0.16911375
0.017397181
-0.16048838
0.018161217
-0.17742488
0.018104345
-0.19637307
0.018206818
-0.21728356
0.017966801
-0.23995962
0.017648779
-0.26412562
0.017162101
-0.2894342
0.016620954
-0.31556364
0.016027303
-0.34230539
0.015435141
-0.36964173
0.014819523
-0.39776241
0.014162153
-0.42701056
0.013403462
-0.45777885
0.012503471
-0.49041297
0.01143177
-0.52516544
0.01019005
-0.56220402
0.0088027977
-0.60164572
0.0073145632
-0.64358693
0.0057840904
-0.68812419
0.0042766274
-0.7353667
0.0028594759
-0.78544832
0.0015931064
-0.83854072
0.00052684503
-0.89485924
-0.00030689204
-0.9546744
-0.00089288943
-1.0183184
-0.0012335366
-1.0861692
-0.0013435481
-1.1587009
-0.0012485382
-1.2363903
-0.00097431655
-1.3199205
-0.00055298615
-1.4097393
0.011094173
-0.15959372
0.014463477
-0.16359612
0.015466581
-0.16718315
0.017941422
-0.16026858
0.018099892
-0.17742043
0.018432528
-0.19659878
0.018395503
-0.21771226
0.018257972
-0.24056881
0.017898516
-0.26486203
0.017427364
-0.29024061
0.016847989
-0.31638433
0.016232279
-0.34310253
0.015581734
-0.37040394
0.01490488
-0.39850514
0.014157371
-0.42776447
0.013298853
-0.45857423
0.012284707
-0.49126591
0.011098688
-0.52607407
0.0097489803
-0.5631502
0.0082693693
-0.60260053
0.0067120163
-0.64451486
0.0051398526
-0.68898742
0.0036216043
-0.73612883
0.0022230589
-0.78607827
0.0010018856
-0.83901576
9.1692981e-07
-0.89516705
-0.00075433742
-0.95481295
-0.0012564339
-1.0182955
-0.0015142908
-1.0859985
-0.0015478314
-1.1584016
-0.0013857873
-1.2359788
-0.0010554607
-1.3194181
-0.00058855669
-1.4091507
0.0095378211
-0.15398691
0.012826325
-0.15795656
0.013768701
-0.16189823
0.016086198
-0.16532793
0.017906677
-0.16007537
0.018461325
-0.17744923
0.018644623
-0.1968479
0.018720053
-0.21817434
0.018537031
-0.24120733
0.018193127
-0.26562779
0.017682024
-0.29107465
0.017080811
-0.31723286
0.016408894
-0.34392969
0.015702087
-0.37120115
0.014941286
-0.39928905
0.014099673
-0.42856529
0.013128998
-0.45941852
0.011998069
-0.49216529
0.010696125
-0.52702122
0.0092419493
-0.56412278
0.007677665
-0.60356618
0.0060612949
-0.6454363
0.0044606992
-0.68982651
0.0029448843
-0.73685066
0.0015783608
-0.78665475
0.00041342843
-0.83942827
-0.00051349226
-0.8954079
-0.0011848793
-0.95488451
-0.0016005928
-1.0182092
-0.0017758977
-1.0857704
-0.0017351591
-1.1580523
-0.0015096063
-1.2355246
-0.0011274618
-1.3188792
-0.00061954232
-1.4085312
0.0080248121
-0.14872678
0.011226278
-0.15238686
0.012201513
-0.15638937
0.014439005
-0.16025104
0.016124728
-0.16354598
0.018291566
-0.15990561
0.018697189
-0.17750179
0.019000435
-0.19712828
0.019029471
-0.21866678
0.018863331
-0.24187753
0.018478662
-0.26642443
0.01794544
-0.29193928
0.017288445
-0.31811241
0.016562937
-0.34479053
0.015776774
-0.37203664
0.014927612
-0.40011699
0.013977841
-0.42941413
0.01289095
-0.4603114
0.011639231
-0.4931084
0.010223122
-0.52800239
0.0086702574
-0.56511537
0.0070302735
-0.60453516
0.0053675092
-0.64634311
0.0037519283
-0.69063356
0.0022529116
-0.73752521
0.00093103699
-0.78717236
-0.00016692096
-0.83977484
-0.0010123543
-0.89558042
-0.0015954878
-0.95488961
-0.0019235267
-1.0180616
-0.0020173669
-1.0854882
-0.0019052038
-1.1576567
-0.0016200529
-1.2350321
-0.0011905046
-1.3183082
-0.00064611944
-1.4078851
0.0065050414
-0.14399697
0.0095906309
-0.14709113
0.01067567
-0.15086102
0.012893392
-0.15484376
0.014533465
-0.15865978
0.016567421
-0.16182183
0.018549608
-0.15975803
0.019078856
-0.17758021
0.019339151
-0.19743796
0.019387739
-0.21919119
0.01918196
-0.24258083
0.018775555
-0.26725455
0.018186588
-0.29283742
0.017477061
-0.31902653
0.01667471
-0.34568847
0.015804542
-0.37291357
0.014851668
-0.40099082
0.013788438
-0.43031162
0.012579042
-0.46125121
0.011206431
-0.4940917
0.0096797904
-0.52901193
0.0080357596
-0.56612086
0.0063316509
-0.6054993
0.0046357409
-0.64722692
0.0030200761
-0.69140072
0.0015517658
-0.73814594
0.00028710102
-0.78762638
-0.00073437394
-0.84005282
-0.0014918669
-0.89568404
-0.0019836737
-0.95482947
-0.0022237528
-1.0178552
-0.0022380717
-1.0851553
-0.0020578836
-1.1572188
-0.0017173326
-1.2345052
-0.0012448808
-1.3177094
-0.00066847522
-1.4072166
0.0049476587
-0.13997092
0.0078700823
-0.14227642
0.0091197692
-0.14553523
0.011356746
-0.14932437
0.013027999
-0.1533383
0.015012718
-0.15710507
0.016883736
-0.16015596
0.018950232
-0.1596294
0.019443979
-0.17768504
0.019727275
-0.19777749
0.019739812
-0.21974904
0.019514067
-0.24331934
0.019052918
-0.26812088
0.018412159
-0.29377252
0.017626851
-0.31997867
0.016742909
-0.34662684
0.015772419
-0.37383432
0.014709545
-0.40191193
0.013524554
-0.43125713
0.012190698
-0.46223548
0.010698525
-0.49511044
0.0090671388
-0.5300433
0.0073420851
-0.56713129
0.0055864787
-0.60645004
0.0038724193
-0.64807927
0.0022714923
-0.69212045
0.00084802749
-0.73870686
-0.00034792563
-0.78801283
-0.0012843127
-0.84026038
-0.0019487978
-0.89571892
-0.002347342
-0.95470588
-0.0025002236
-1.0175931
-0.0024376921
-1.0847755
-0.0021933374
-1.1567428
-0.0018017936
-1.2339483
-0.0012909365
-1.317087
-0.00068683277
-1.4065298
0.0033402815
-0.13680163
0.0060407041
-0.13814155
0.007485186
-0.14064184
0.0097561526
-0.14393464
0.011515672
-0.14781204
0.013521682
-0.15184726
0.015371984
-0.15559332
0.017331872
-0.1585376
0.019336724
-0.15952215
0.019857571
-0.17781534
0.020110958
-0.19814864
0.020106878
-0.22034185
0.019829251
-0.24409567
0.019318
-0.26902672
0.018602413
-0.29474808
0.017736555
-0.32097232
0.016753945
-0.34760836
0.015676076
-0.37480085
0.014493214
-0.40288059
0.013182802
-0.43224923
0.011723494
-0.46326045
0.010115589
-0.49615889
0.0083878201
-0.53108904
0.0065933392
-0.56813815
0.004800876
-0.60737849
0.0030839869
-0.64889176
0.0015131825
-0.6927856
0.00014789384
-0.73920268
-0.0009686052
-0.78832853
-0.0018126877
-0.84039649
-0.0023803269
-0.89568593
-0.0026848971
-0.9545212
-0.0027522634
-1.0172785
-0.0026162013
-1.0843527
-0.002311898
-1.1562327
-0.0018738918
-1.2333654
-0.0013290803
-1.3164447
-0.00070142682
-1.4058283
0.0016862517
-0.13461262
0.0041026917
-0.13486362
0.0057472575
-0.13640362
0.0080430494
-0.13892873
0.0099231285
-0.14234209
0.012001306
-0.14629167
0.013906597
-0.15038187
0.015849482
-0.15411093
0.017767192
-0.15696807
0.01976992
-0.1594345
0.020268925
-0.17797331
0.02051045
-0.19855221
0.020459508
-0.22097211
0.020135196
-0.24491287
0.019551371
-0.26997568
0.018756238
-0.29576776
0.017792126
-0.3220105
0.016703147
-0.34863544
0.015506497
-0.37581413
0.014198506
-0.40389629
0.012759493
-0.43328523
0.011176513
-0.46432137
0.0094591774
-0.49723025
0.0076452007
-0.5321409
0.0057951308
-0.56913241
0.0039811845
-0.60827569
0.0022777038
-0.64965628
0.00075191333
-0.69338962
-0.00054242785
-0.73962886
-0.0015700315
-0.78857119
-0.0023158631
-0.84046095
-0.0027841864
-0.89558664
-0.0029951781
-0.95427829
-0.0029795639
-1.0169151
-0.002773828
-1.0838907
-0.0024140626
-1.1556925
-0.0019341779
-1.2327603
-0.0013597558
-1.3157864
-0.00071250795
-1.4051158
-0.13349057
1.6074102e-08
0.0020770568
-0.13258699
0.0039051369
-0.1330215
0.0061956317
-0.1345562
0.0082019131
-0.13720752
0.010377835
-0.14071862
0.012390892
-0.14477596
0.014394636
-0.14892703
0.016317147
-0.15266089
0.01824271
-0.15544086
0.020203018
-0.15936859
0.020696234
-0.17815909
0.020897892
-0.1989906
0.02080552
-0.22164244
0.020413113
-0.24577461
0.01975212
-0.27097156
0.018859294
-0.29683493
0.017788656
-0.32309601
0.016580639
-0.34970958
0.01525878
-0.3768744
0.013820522
-0.40495732
0.012252692
-0.43436141
0.010550121
-0.46541232
0.0087317754
-0.49831682
0.0068441927
-0.53318996
0.004953503
-0.57010473
0.0031347285
-0.60913271
0.001460758
-0.65036513
-5.4063552e-06
-0.69392664
-0.0012171713
-0.73998172
-0.0021476883
-0.78873936
-0.0027907846
-0.84045435
-0.0031585969
-0.89542323
-0.0032774664
-0.95398039
-0.003182142
-1.0165068
-0.0029110284
-1.0833938
-0.0025004659
-1.1551263
-0.0019832686
-1.2321367
-0.0013834387
-1.3151155
-0.00072033173
-1.4043955
-0.13141353
1.7334511e-08
-0.13349057
-0.0016862197
0.0019781356
-0.13065999
0.0042182967
-0.13104416
0.0063311527
-0.13268544
0.0086025701
-0.13543225
0.010749304
-0.13907703
0.012869107
-0.14325043
0.014874995
-0.14748487
0.016817665
-0.15123584
0.018718237
-0.15395608
0.020652048
-0.1593244
0.021113834
-0.17837503
0.021280716
-0.19946579
0.021127182
-0.2223565
0.020662257
-0.24668475
0.019905825
-0.27201809
0.018906571
-0.29795284
0.017715542
-0.32423091
0.016380851
-0.35083165
0.014926886
-0.37798077
0.013356312
-0.40606094
0.011661533
-0.43547282
0.0098458126
-0.46652635
0.007937428
-0.49941006
0.0059903429
-0.5342268
0.0040756397
-0.57104564
0.0022689429
-0.6099409
0.00064064231
-0.65101118
-0.00075221621
-0.6943916
-0.0018709109
-0.7402585
-0.0026976448
-0.7888325
-0.0032349272
-0.84037802
-0.0035022922
-0.8951984
-0.0035314425
-0.95363108
-0.0033603126
-1.0160575
-0.0030284501
-1.0828658
-0.0025718488
-1.1545377
-0.0020218355
-1.2314984
-0.0014006201
-1.3144352
-0.00072515704
-1.4036703
-0.12943541
1.6468603e-08
-0.13141353
-0.0020770224
-0.13461262
-0.0033402501
0.0021383806
-0.12858007
0.0043171796
-0.12903019
0.0066557599
-0.13073863
0.0089330819
-0.13361603
0.011195606
-0.13740353
0.013340888
-0.14171633
0.015382386
-0.1460496
0.017319141
-0.14983675
0.019206948
-0.15251098
0.02109358
-0.15930415
0.021528038
-0.17862235
0.021642751
-0.19998136
0.021423775
-0.22311802
0.020868384
-0.24764731
0.020007515
-0.27311903
0.018886897
-0.2991242
0.017566638
-0.3254167
0.016096687
-0.35200145
0.014506874
-0.37913133
0.012803762
-0.40720317
0.010986436
-0.43661345
0.0090666211
-0.46765555
0.0070810012
-0.50050072
0.0050904889
-0.53524165
0.0031690298
-0.57194572
0.001391744
-0.610692
-0.00017536839
-0.65158802
-0.0014821865
-0.69478032
-0.0024987812
-0.74045736
-0.0032165185
-0.78885091
-0.0036463399
-0.84023397
-0.0038144794
-0.89491536
-0.0037571619
-0.95323424
-0.0035146463
-1.0155713
-0.0031268959
-1.0823108
-0.002629038
-1.1539305
-0.0020505821
-1.2308484
-0.0014118005
-1.3137485
-0.0007272406
-1.4029431
-0.12729704
1.6024186e-08
-0.12943541
-0.0019781028
-0.13258698
-0.004102658
-0.13680162
-0.0049476281
0.0021905385
-0.12645343
0.0045466864
-0.12692111
0.0069239365
-0.12872948
0.0093247627
-0.13174519
0.011636334
-0.13569898
0.013835006
-0.14016895
0.015891034
-0.14462149
0.017830553
-0.14846035
0.019688973
-0.15110637
0.021532311
-0.15930842
0.021924752
-0.17890435
0.021983061
-0.20054065
0.021681515
-0.22393115
0.021026669
-0.24866646
0.020045657
-0.27427779
0.018793686
-0.30035125
0.017333882
-0.32665389
0.015723249
-0.35321782
0.013995397
-0.38032296
0.012162181
-0.40837891
0.010229319
-0.43777614
0.0082165681
-0.46879111
0.0061687842
-0.50157901
0.0041519672
-0.53622459
0.0022418281
-0.57279581
0.00051100163
-0.61137837
-0.0009801123
-0.6520901
-0.0021894946
-0.69508961
-0.0030964561
-0.74057742
-0.0037015449
-0.78879571
-0.0040236131
-0.84002484
-0.0040948216
-0.8945777
-0.0039550106
-0.95279387
-0.0036459298
-1.0150523
-0.0032072973
-1.0817325
-0.0026729177
-1.1533081
-0.0020702326
-1.23019
-0.0014174795
-1.3130583
-0.00072683435
-1.4022163
-0.12510652
1.4919127e-08
-0.12729704
-0.0021383489
-0.13065998
-0.0039051048
-0.13486361
-0.0060406715
-0.13997091
-0.0065050118
0.0023102228
-0.12421697
0.0047349415
-0.12473212
0.0072397785
-0.1266445
0.0097119653
-0.12982082
0.012095437
-0.13395941
0.01433022
-0.13860813
0.016407065
-0.143198
0.018336017
-0.1471074
0.020166467
-0.14974053
0.02195629
-0.15933996
0.022302568
-0.17922386
0.022288617
-0.20114775
0.021895775
-0.22480026
0.021125467
-0.24974627
0.02001339
-0.2754975
0.01861804
-0.30163541
0.017011474
-0.32794212
0.015255971
-0.3544784
0.013390629
-0.38155141
0.011432298
-0.40958189
0.0093932269
-0.4389528
0.0073012086
-0.46992354
0.0052077524
-0.5026348
0.0031829699
-0.53716573
0.0013023332
-0.57358714
-0.00036539467
-0.61199309
-0.0017668306
-0.65251276
-0.0028688227
-0.69531724
-0.0036602482
-0.74061872
-0.0041505574
-0.78866876
-0.0043658736
-0.83975379
-0.0043433935
-0.89418932
-0.0041256612
-0.95231414
-0.0037551319
-1.0145045
-0.003270678
-1.0811347
-0.0027044119
-1.152674
-0.0020815167
-1.2295259
-0.0014181499
-1.312367
-0.00072418284
-1.4014921
-0.12279631
1.3729421e-08
-0.12510652
-0.002190509
-0.12858006
-0.0042182656
-0.13302149
-0.0057472265
-0.13814153
-0.0078700511
-0.14399696
-0.0080247836
0.0024066332
-0.12188866
0.004956641
-0.12244898
0.0075520617
-0.1244846
0.010113658
-0.12783904
0.01255539
-0.13218458
0.01483098
-0.13703205
0.01691768
-0.14177966
0.018835955
-0.14577688
0.020629957
-0.14841419
0.02236372
-0.15940111
0.022649475
-0.17958472
0.022554938
-0.20180691
0.022055059
-0.22572985
0.021157836
-0.25089072
0.019901182
-0.27678064
0.018353358
-0.30297729
0.016593666
-0.32927981
0.014691887
-0.35577966
0.012692066
-0.38281118
0.010616087
-0.41080475
0.0084828232
-0.44013442
0.0063269576
-0.47104274
0.0042059239
-0.50365775
0.002192032
-0.53805543
0.00035903733
-0.57431157
-0.0012298228
-0.6125301
-0.0025291999
-0.65285239
-0.0035154793
-0.69546201
-0.0041871062
-0.74058217
-0.0045619984
-0.78847264
-0.0046727433
-0.83942444
-0.004560637
-0.89375434
-0.0042700354
-0.95179924
-0.0038433612
-1.0139318
-0.0033181307
-1.080521
-0.0027244635
-1.152031
-0.0020851594
-1.2288589
-0.0014142921
-1.3116769
-0.00071952066
-1.4007726
-0.12038969
1.2478823e-08
-0.12279631
-0.0023101954
-0.12645342
-0.0043171506
-0.13104415
-0.0061956017
-0.1364036
-0.0074851564
-0.14227641
-0.0095906012
-0.14872677
-0.0095377938
0.0025209066
-0.11945292
0.0051758979
-0.12007282
0.007875282
-0.12224622
0.01051618
-0.12579983
0.013019501
-0.1303731
0.015326769
-0.13544114
0.0174224
-0.14036611
0.019323005
-0.14446993
0.021077773
-0.14712825
0.022743631
-0.15949527
0.022961011
-0.17999079
0.022770947
-0.2025228
0.022152515
-0.22672453
0.021113864
-0.2521034
0.0197018
-0.27812908
0.017992785
-0.30437641
0.016076338
-0.33066426
0.014029217
-0.35711681
0.011900544
-0.38409564
0.009717196
-0.41203913
0.007503787
-0.44131125
0.00530145
-0.47213827
0.0031718645
-0.50463758
0.0011880768
-0.53888447
-0.00057969728
-0.5749617
-0.0020749853
-0.61298431
-0.003261485
-0.65310638
-0.0041254232
-0.6955237
-0.0046746454
-0.74046952
-0.0049348868
-0.7882105
-0.004944299
-0.83904078
-0.0047473211
-0.89327706
-0.004389254
-0.95125334
-0.0039118351
-1.0133381
-0.0033507894
-1.0798947
-0.0027340195
-1.1513822
-0.0020818719
-1.2281913
-0.0014063687
-1.31099
-0.0007130704
-1.4000595
-0.1178688
1.1311719e-08
-0.12038969
-0.0024066083
-0.12421696
-0.0045466598
-0.12903018
-0.0063311249
-0.13455619
-0.0080430207
-0.14064182
-0.0091197409
-0.14709112
-0.01122625
-0.1539869
-0.011094146
0.0026339168
-0.11691094
0.0054024602
-0.1176
0.0081991139
-0.11992915
0.010921535
-0.12370186
0.01347914
-0.12852547
0.015817002
-0.13383574
0.017915559
-0.13895866
0.019794942
-0.1431871
0.021500367
-0.14588498
0.023091561
-0.15962582
0.023226743
-0.18044659
0.022929974
-0.20330026
0.022178132
-0.2277888
0.020985914
-0.25338751
0.019407443
-0.27954374
0.017531089
-0.30583116
0.015456405
-0.33209145
0.01326759
-0.35848385
0.011018593
-0.38539703
0.0087404236
-0.41327576
0.0064631767
-0.44247297
0.0042330705
-0.47319947
0.0021147267
-0.50556423
0.00018007715
-0.53964424
-0.0015056767
-0.57553101
-0.0028941026
-0.61335169
-0.0039585807
-0.65327322
-0.0046953165
-0.69550302
-0.0051211306
-0.74028328
-0.0052687855
-0.78788601
-0.0051810312
-0.83860707
-0.0049044864
-0.89276183
-0.0044846002
-0.95068058
-0.0039618464
-1.012727
-0.0033698093
-1.0792589
-0.0027340172
-1.15073
-0.0020723414
-1.2275254
-0.0013948199
-1.3103083
-0.00070504593
-1.3993544
-0.11523489
1.0138738e-08
-0.11786879
-0.0025208843
-0.12188865
-0.0047349173
-0.1269211
-0.0066557342
-0.13268542
-0.0082018865
-0.13892872
-0.0097561255
-0.14553521
-0.010675643
-0.15238685
-0.012826298
-0.15959371
-0.01276167
0.0027506132
-0.1142591
0.0056294791
-0.11503036
0.0085249179
-0.11753254
0.011323404
-0.12154613
0.013933823
-0.12664229
0.016296689
-0.13221687
0.018394398
-0.13755812
0.020244336
-0.14193107
0.021893655
-0.14468707
0.02339778
-0.15979686
0.023440195
-0.18095681
0.023022196
-0.20414432
0.022124124
-0.22892701
0.020765483
-0.25474555
0.019011885
-0.28102454
0.016963875
-0.30733863
0.01473221
-0.33355607
0.012408325
-0.35987358
0.010050016
-0.38670663
0.0076920861
-0.41450467
0.0053689967
-0.4436089
0.0031309914
-0.47421574
0.0010439184
-0.50642807
-0.00082302124
-0.5403269
-0.0024111192
-0.57601399
-0.0036809741
-0.6136293
-0.0046160964
-0.65335244
-0.005222527
-0.69540163
-0.0055254544
-0.74002661
-0.0055637635
-0.78750328
-0.0053837869
-0.83812777
-0.005033403
-0.89221302
-0.0045574788
-0.95008495
-0.0039947359
-1.0121021
-0.0033763459
-1.0786166
-0.0027253664
-1.150077
-0.002057226
-1.226863
-0.0013800717
-1.3096332
-0.00069564416
-1.3986588
-0.11248429
8.9200785e-09
-0.11523489
-0.0026338969
-0.11945291
-0.0049566192
-0.12473211
-0.0069239131
-0.13073861
-0.0086025457
-0.1372075
-0.0099231034
-0.14393462
-0.01135672
-0.15086101
-0.012201487
-0.15795655
-0.014463452
-0.16536284
-0.014622979
0.0028675427
-0.11149716
0.0058577332
-0.11236318
0.0088480668
-0.1150572
0.011720802
-0.1193331
0.014379148