/*--------------------------------*- C++ -*----------------------------------*\
| =========                 |                                                 |
| \\      /  F ield         | OpenFOAM: The Open Source CFD Toolbox           |
|  \\    /   O peration     | Version:  5.0                                   |
|   \\  /    A nd           | Web:      www.OpenFOAM.org                      |
|    \\/     M anipulation  |                                                 |
\*---------------------------------------------------------------------------*/
FoamFile
{
    version     2.0;
    format      ascii;
    class       volVectorField;
    location    "240";
    object      U;
}
// * * * * * * * * * * * * * * * * * * * * * * * * * * * * * * * * * * * * * //

dimensions      [0 1 -1 0 0 0 0];

internalField   nonuniform List<vector> 
9200
(
(1.0421421 -0.0005515866 -4.6464705e-24)
(1.0424599 -0.0016797024 -9.5875272e-21)
(1.043725 -0.00054857602 0)
(1.0430573 -0.0026788477 4.9297062e-21)
(1.0440369 -0.0016890321 -7.3802615e-21)
(1.0444408 -0.00054531881 0)
(1.0438121 -0.0036486202 4.9314135e-22)
(1.0446289 -0.0026838904 -3.4496433e-22)
(1.0447516 -0.001695875 0)
(1.0454839 -0.00054109158 0)
(1.044715 -0.0045224539 -9.4339035e-21)
(1.0453772 -0.0036634577 -5.5076087e-21)
(1.0453432 -0.0026911997 -4.1137787e-21)
(1.0457927 -0.0017066114 -2.5285749e-22)
(1.0463318 -0.00053563282 -3.295707e-25)
(1.0457011 -0.0053458415 -8.7289294e-21)
(1.0462659 -0.0045409755 6.7276675e-22)
(1.0460877 -0.0036800722 -1.3281378e-20)
(1.0463869 -0.0027017344 -5.040639e-21)
(1.0466414 -0.0017146977 3.4824132e-23)
(1.0472235 -0.00052806582 1.0268288e-20)
(1.046742 -0.006095964 -8.1716918e-21)
(1.0472343 -0.0053740352 -9.1400537e-21)
(1.0469713 -0.0045637452 8.0234943e-21)
(1.0471317 -0.0037048714 4.814103e-22)
(1.0472392 -0.0027094743 -5.0782334e-21)
(1.047537 -0.0017206237 -4.9435874e-21)
(1.0480507 -0.00051804058 -7.8104414e-22)
(1.0477994 -0.0067873035 -3.5503262e-21)
(1.0482496 -0.006132622 -6.3841198e-21)
(1.0479316 -0.005407421 -8.7482192e-21)
(1.0480142 -0.0045997348 1.7986503e-22)
(1.0479858 -0.0037262996 1.2136429e-20)
(1.048144 -0.0027132073 5.2858276e-21)
(1.0483692 -0.0017212021 6.24166e-21)
(1.0488569 -0.00050498126 -9.4605632e-21)
(1.0488484 -0.0074158527 9.8799084e-21)
(1.0492753 -0.0068347042 -7.3988175e-21)
(1.0489359 -0.0061768684 2.6773586e-22)
(1.04897 -0.0054617217 -4.4373376e-21)
(1.0488693 -0.0046327571 3.330602e-22)
(1.0489004 -0.0037446756 1.8637623e-20)
(1.0489859 -0.0027088312 -3.3592766e-21)
(1.0491853 -0.001715165 1.0384145e-20)
(1.0496223 -0.00048849367 1.9759122e-20)
(1.0498662 -0.007986587 -7.4196652e-21)
(1.0502853 -0.007474137 3.6931042e-21)
(1.0499471 -0.0068919257 2.0117641e-22)
(1.049966 -0.006250927 -8.7371167e-22)
(1.0498235 -0.0055136553 1.5461209e-21)
(1.0497942 -0.0046645781 3.9876358e-22)
(1.0497533 -0.0037530406 -6.5175109e-21)
(1.0498187 -0.00269364 -1.1177415e-20)
(1.0499623 -0.0017005176 -6.0826507e-21)
(1.0503501 -0.00046801017 -1.5315803e-21)
(1.0508354 -0.0085013434 3.4158261e-21)
(1.051258 -0.0080562833 -1.6574725e-22)
(1.0509394 -0.0075452291 -5.9556726e-21)
(1.0509646 -0.0069895849 6.0767172e-21)
(1.0508149 -0.0063238399 -8.5700962e-21)
(1.0507571 -0.0055681802 1.8978808e-20)
(1.0506588 -0.0046853501 6.9252225e-23)
(1.0506074 -0.0037481206 -1.8065895e-20)
(1.0506142 -0.0026646246 8.7338041e-21)
(1.0507051 -0.0016751038 -1.8146395e-20)
(1.0510354 -0.00044324488 2.5798684e-21)
(1.0517391 -0.0089640434 -1.4021045e-22)
(1.0521766 -0.008581955 1.2086655e-21)
(1.0518909 -0.0081424019 5.0444591e-21)
(1.0519396 -0.0076685475 0)
(1.0518048 -0.0070875804 -1.1299776e-22)
(1.0517545 -0.0064046564 -2.4613035e-22)
(1.0516321 -0.0056112097 3.8607701e-21)
(1.0515365 -0.0046917559 9.1608432e-21)
(1.0514249 -0.0037251219 6.0366337e-22)
(1.0513798 -0.0026189494 1.0787834e-20)
(1.0514082 -0.0016375552 7.0668597e-21)
(1.0516752 -0.00041393486 -1.5479264e-21)
(1.0525552 -0.0093793634 -1.3017042e-22)
(1.0530268 -0.0090542081 7.565e-22)
(1.0527852 -0.0086839679 0)
(1.0528693 -0.0082935176 0)
(1.0527672 -0.007793955 3.1089355e-21)
(1.052747 -0.0072004932 -3.9574935e-21)
(1.0526378 -0.0064741733 8.3241837e-21)
(1.0525338 -0.0056403998 -1.0397356e-20)
(1.0523789 -0.0046770776 -9.0967867e-22)
(1.0522243 -0.003680155 -1.148924e-23)
(1.0521095 -0.0025543098 -1.2180231e-20)
(1.0520689 -0.0015864162 1.2234491e-20)
(1.0522664 -0.00037992801 -2.2877765e-20)
(1.0532407 -0.009753927 4.155775e-22)
(1.0537916 -0.0094762502 -1.6182688e-22)
(1.0536085 -0.0091731531 2.8059539e-21)
(1.0537376 -0.008864174 -3.1153256e-21)
(1.0536801 -0.0084486152 3.31148e-21)
(1.0537078 -0.0079427499 -8.3057339e-22)
(1.0536353 -0.0073027685 -2.7645144e-21)
(1.0535617 -0.0065319222 3.1199446e-23)
(1.0534021 -0.0056463398 -1.0183428e-20)
(1.0532165 -0.004636227 -9.4054915e-21)
(1.0529905 -0.0036098869 -3.4375111e-21)
(1.0528006 -0.0024680984 -9.3348859e-21)
(1.0526836 -0.0015206437 -6.0621425e-21)
(1.0528058 -0.00034115524 5.9783452e-21)
(1.0537063 -0.010098319 4.8134454e-21)
(1.0544387 -0.0098530183 -3.4160176e-21)
(1.0543453 -0.0096133006 1.2939756e-21)
(1.0545319 -0.0093832075 5.1481229e-23)
(1.0545277 -0.0090504062 -6.7675955e-24)
(1.0546147 -0.0086369465 8.0340246e-22)
(1.0545972 -0.0080819242 -2.6718854e-21)
(1.0545777 -0.0073971301 3.5508421e-21)
(1.0544553 -0.0065651961 -8.2190342e-23)
(1.0542797 -0.0056235367 1.0152052e-21)
(1.0540218 -0.0045651807 2.1268891e-22)
(1.053725 -0.0035106925 1.2501597e-21)
(1.0534493 -0.0023588596 1.1685384e-20)
(1.0532491 -0.0014394364 -5.296371e-21)
(1.0532907 -0.0002976401 4.1023445e-21)
(1.0537812 -0.010424091 -1.5730387e-21)
(1.054897 -0.0101937 3.6047323e-21)
(1.0549674 -0.010009454 -1.341073e-21)
(1.0552392 -0.0098531096 2.8886874e-21)
(1.0552981 -0.0096015857 -3.1769145e-21)
(1.0554519 -0.0092808535 8.1871617e-21)
(1.0555006 -0.0088168447 -7.2492795e-21)
(1.0555542 -0.0082188342 1.4058065e-22)
(1.0554952 -0.0074665537 2.6142869e-21)
(1.0553724 -0.0065689596 1.761843e-22)
(1.0551292 -0.0055664423 2.3919731e-20)
(1.0548097 -0.0044584872 -5.749974e-21)
(1.0544226 -0.0033802327 -3.8977653e-21)
(1.0540521 -0.0022252286 -1.9732164e-21)
(1.0537623 -0.0013423219 -8.3497149e-22)
(1.0537188 -0.00024949205 -4.2554478e-21)
(1.0531798 -0.010751949 0)
(1.0550216 -0.010510297 2.7611216e-21)
(1.0554113 -0.010370295 -2.2633287e-21)
(1.0558364 -0.010277943 0)
(1.0559798 -0.010104112 0)
(1.0562079 -0.0098759672 0)
(1.05633 -0.009504117 -3.0048719e-23)
(1.0564676 -0.0090018143 -6.2241011e-21)
(1.0564919 -0.008330961 1.4182427e-21)
(1.0564493 -0.007507412 -7.4384092e-21)
(1.0562673 -0.0065352313 -2.3564669e-22)
(1.0559737 -0.0054682363 -5.1342262e-21)
(1.0555622 -0.0043141132 8.139647e-23)
(1.0550798 -0.0032161203 4.4025273e-21)
(1.0546055 -0.0020664963 1.4992113e-21)
(1.0542206 -0.0012291285 2.2923209e-21)
(1.0540882 -0.00019690123 0)
(1.0514751 -0.01109799 8.2158938e-22)
(1.0545548 -0.010826045 -5.8185868e-21)
(1.0555451 -0.01070671 5.185429e-21)
(1.0562706 -0.010665068 1.5883285e-21)
(1.0565539 -0.010561566 2.9667214e-21)
(1.0568726 -0.01042324 0)
(1.0570741 -0.010144442 3.0809282e-21)
(1.057302 -0.0097412845 -2.1697157e-22)
(1.0574211 -0.0091627286 -1.0916667e-20)
(1.0574796 -0.0084171638 1.1541224e-21)
(1.057389 -0.0075084843 4.3835526e-21)
(1.05717 -0.0064566627 -5.4022114e-22)
(1.0567886 -0.0053261094 -9.4556824e-21)
(1.0562851 -0.0041273107 1.5570767e-20)
(1.0556925 -0.003017174 4.6767635e-21)
(1.0551065 -0.0018823039 1.6644479e-20)
(1.0546217 -0.0011000007 6.1568461e-21)
(1.0543974 -0.00014012959 4.1864717e-21)
(1.0481275 -0.011479474 4.7113957e-23)
(1.05309 -0.011164573 -2.4149613e-21)
(1.0551273 -0.011039215 -1.6973643e-21)
(1.0564268 -0.011024521 3.3980013e-21)
(1.0569754 -0.010980537 -3.0971493e-22)
(1.0574302 -0.010925154 4.2287433e-21)
(1.0577238 -0.010737902 2.5329938e-21)
(1.058046 -0.010436916 -6.0704486e-21)
(1.0582662 -0.0099556206 -2.1874541e-21)
(1.0584378 -0.0093020246 7.4084258e-21)
(1.0584614 -0.0084623536 -8.4209234e-23)
(1.0583495 -0.0074626077 1.0377166e-20)
(1.0580508 -0.0063289237 -3.1909686e-21)
(1.0575848 -0.0051337387 -1.1642372e-21)
(1.0569669 -0.0038976032 -2.154541e-21)
(1.0562571 -0.0027823809 -2.8657231e-21)
(1.0555522 -0.0016728574 5.0418625e-21)
(1.0549638 -0.00095536947 2.69837e-22)
(1.0546456 -7.9515232e-05 2.9552376e-21)
(1.0425471 -0.011904524 5.91128e-22)
(1.0500865 -0.011553934 3.0726632e-21)
(1.0537675 -0.011388345 -1.2683871e-20)
(1.0560849 -0.011376221 -8.3833462e-22)
(1.0571427 -0.011370273 2.419002e-21)
(1.0578433 -0.011386823 1.7873367e-21)
(1.0582663 -0.011286217 4.6621915e-22)
(1.0586915 -0.011087573 6.227729e-21)
(1.0590157 -0.010708228 -8.7579005e-22)
(1.0593066 -0.01015419 -9.8211825e-21)
(1.0594574 -0.0094000772 1.3165114e-20)
(1.0594773 -0.0084601425 -2.3099891e-21)
(1.0592974 -0.0073632238 -4.960404e-21)
(1.0589244 -0.0061445347 4.3808426e-22)
(1.0583458 -0.004890437 -1.334128e-21)
(1.0576081 -0.0036220657 -1.0265004e-20)
(1.05677 -0.0025117348 4.6014638e-22)
(1.0559403 -0.0014387405 -8.3498024e-21)
(1.0552455 -0.00079594679 -1.9083915e-21)
(1.0548328 -1.5496963e-05 -2.4831878e-21)
(1.0341927 -0.012369624 -3.1053078e-22)
(1.0449224 -0.012014856 3.975585e-21)
(1.0509333 -0.011778608 -1.2735035e-21)
(1.0548755 -0.01174222 3.3548188e-21)
(1.0568542 -0.01174912 1.4546797e-21)
(1.0580238 -0.011816191 -2.3356382e-21)
(1.0586708 -0.011793557 4.2472838e-21)
(1.0592276 -0.011693747 6.8024013e-21)
(1.0596621 -0.011418219 -8.7206681e-21)
(1.060074 -0.010971018 0)
(1.0603587 -0.010312236 -8.7505801e-21)
(1.0605248 -0.0094519492 2.2344281e-22)
(1.0604909 -0.0084012771 9.5919648e-21)
(1.0602504 -0.007202142 -4.1726589e-21)
(1.0597709 -0.0059018464 5.2606471e-21)
(1.0590752 -0.0045915273 -9.264996e-21)
(1.0582008 -0.0033015952 -2.7160919e-21)
(1.0572282 -0.0022056178 1.9871521e-21)
(1.0562689 -0.0011809765 -3.4708712e-21)
(1.0554664 -0.00062269885 -7.4526446e-22)
(1.0549592 5.1334595e-05 -1.4440207e-21)
(1.0226746 -0.012858214 -3.947327e-21)
(1.0369924 -0.012554981 3.0084299e-21)
(1.0459958 -0.012227993 6.2714399e-21)
(1.0522749 -0.012150128 -7.6396572e-21)
(1.0557606 -0.012138048 -4.210383e-21)
(1.0577894 -0.012230091 1.7946102e-21)
(1.058861 -0.012267057 0)
(1.0596292 -0.01225807 6.4438089e-21)
(1.0601965 -0.012084985 1.5405462e-21)
(1.0607326 -0.011748725 -1.2407468e-20)
(1.0611528 -0.011194927 -3.8376442e-21)
(1.0614722 -0.01042697 1.0828678e-21)
(1.0616007 -0.0094452425 9.0246159e-23)
(1.0615228 -0.0082771866 -4.3218626e-21)
(1.0611861 -0.0069760968 4.3233347e-21)
(1.0605956 -0.0055948408 -3.7950964e-21)
(1.0597616 -0.0042380774 1.1993145e-21)
(1.0587438 -0.002935123 -6.0708435e-21)
(1.0576291 -0.0018653128 -2.7298399e-21)
(1.056537 -0.00090090621 -5.5057935e-22)
(1.0556265 -0.00043683481 -1.0822452e-21)
(1.0550249 0.00011994077 0)
(1.0078343 -0.0133428 -2.6042642e-21)
(1.0258213 -0.0131642 -1.281275e-21)
(1.0383234 -0.012742855 2.5777404e-22)
(1.0476415 -0.012622649 -6.7617535e-21)
(1.0533506 -0.012563859 -2.3004739e-21)
(1.0568129 -0.012649454 2.5602734e-21)
(1.0586725 -0.012722099 -4.8676876e-21)
(1.0598312 -0.01278628 6.8520303e-21)
(1.0605985 -0.012709895 3.5262785e-21)
(1.0612749 -0.012485297 2.1078192e-22)
(1.061832 -0.012042876 2.1907068e-23)
(1.0623063 -0.01137995 -1.4389543e-21)
(1.0626056 -0.010482485 1.1539005e-21)
(1.0627089 -0.0093713825 -7.9419111e-21)
(1.0625484 -0.0080825751 -1.0690055e-20)
(1.0621112 -0.0066779383 -9.087657e-21)
(1.0613846 -0.005223906 1.7577368e-21)
(1.0604046 -0.0038276275 1.1428796e-20)
(1.0592317 -0.0025248417 -7.5163452e-23)
(1.0579703 -0.0014929701 -2.4050506e-21)
(1.0567441 -0.00060053743 0)
(1.0557259 -0.00023999591 1.3007912e-21)
(1.0550326 0.00018702588 2.2329518e-22)
(0.98977866 -0.01378968 1.3982255e-20)
(1.0111602 -0.013814591 -2.7451664e-21)
(1.0273984 -0.013313641 7.2240927e-21)
(1.0403062 -0.013171116 3.7476705e-21)
(1.0489779 -0.013049777 -8.2839284e-21)
(1.0545984 -0.013102246 0)
(1.0577999 -0.013178923 -1.0189884e-21)
(1.059687 -0.013291812 4.9297593e-21)
(1.0608127 -0.01329757 3.5914748e-21)
(1.0616844 -0.013180491 -5.2282674e-22)
(1.0623901 -0.01285268 -6.9732905e-21)
(1.0630189 -0.012303975 -4.2018561e-21)
(1.0634911 -0.011506372 5.6596321e-21)
(1.0637856 -0.010470601 -8.4216896e-21)
(1.0638229 -0.0092226933 1.2186808e-20)
(1.0635759 -0.0078092762 1.9783374e-20)
(1.0630098 -0.0063067998 8.015062e-22)
(1.062138 -0.0047854048 4.7412135e-21)
(1.0609963 -0.0033626505 -1.0090801e-20)
(1.0596625 -0.0020715903 -3.6212689e-22)
(1.0582503 -0.0010909977 3.4356363e-21)
(1.0568895 -0.00028328038 -7.0688109e-22)
(1.0557648 -3.5746986e-05 -9.2997393e-22)
(1.0549882 0.00025824417 1.7353462e-22)
(0.96886491 -0.014164707 3.8937957e-21)
(0.99303862 -0.014464656 -6.7782596e-22)
(1.0129212 -0.01391478 -1.1764913e-24)
(1.0296926 -0.013789778 -1.6106065e-20)
(1.0419458 -0.01360901 5.7699337e-21)
(1.0504983 -0.013614544 -9.8515648e-21)
(1.0557642 -0.013665128 -8.7811869e-22)
(1.0589138 -0.013794179 -8.820991e-21)
(1.060709 -0.01385956 4.1285573e-21)
(1.061915 -0.013837352 2.7249284e-21)
(1.0628138 -0.013622578 -6.4812106e-21)
(1.0636042 -0.013194045 4.1568759e-21)
(1.0642483 -0.012508364 -5.447875e-21)
(1.0647369 -0.011566838 -1.7654634e-23)
(1.0649844 -0.010380991 1.022556e-20)
(1.0649526 -0.0089901263 1.27938e-21)
(1.0645878 -0.0074547677 -5.0425857e-23)
(1.063882 -0.0058578659 7.942629e-21)
(1.0628455 -0.0042813756 0)
(1.0615344 -0.0028430753 1.5519178e-21)
(1.0600325 -0.0015787135 3.7107915e-22)
(1.0584682 -0.00066150204 -5.2287641e-22)
(1.0569735 4.9443797e-05 -9.5238233e-22)
(1.0557461 0.00017897541 1.0142166e-21)
(1.0548849 0.00033584429 1.5050531e-21)
(0.94564616 -0.014438345 -1.3658788e-20)
(0.97176397 -0.015066144 -5.3161272e-22)
(0.99487295 -0.014508582 2.1430706e-21)
(1.0154329 -0.01445456 1.766268e-21)
(1.0316294 -0.0142384 1.5976478e-20)
(1.0437901 -0.014203147 1.4832764e-22)
(1.0519196 -0.014207765 -8.4113411e-22)
(1.0570523 -0.014320892 6.6366976e-22)
(1.0600268 -0.014414598 6.6213599e-21)
(1.0618521 -0.014465362 -3.9303659e-21)
(1.0630647 -0.014354079 4.556855e-21)
(1.0640517 -0.01404665 -1.813908e-22)
(1.0648717 -0.013481815 -1.7240364e-21)
(1.065553 -0.012649884 2.5831102e-21)
(1.066015 -0.011548189 3.2580858e-22)
(1.0662134 -0.010203905 -1.4637212e-20)
(1.0660788 -0.0086691747 -2.1726576e-20)
(1.0655843 -0.0070129902 -1.1846664e-20)
(1.0647159 -0.00533222 -1.552076e-20)
(1.0635045 -0.0037108964 -4.1860739e-22)
(1.0620134 -0.0022725323 1.202182e-20)
(1.0603401 -0.0010483961 -3.4955483e-22)
(1.0586229 -0.00020770654 -2.7373836e-22)
(1.0569974 0.00039725806 -1.1287503e-21)
(1.0556717 0.00040190749 1.716311e-21)
(1.0547319 0.00041139882 -4.8393717e-23)
(0.92079424 -0.014589015 6.1644841e-22)
(0.94787385 -0.015571042 -1.1348274e-21)
(0.97352352 -0.015051866 -9.0582941e-21)
(0.99744488 -0.015126439 9.4616992e-21)
(1.0175999 -0.014916121 -1.3939466e-20)
(1.0337993 -0.014868113 8.3858904e-21)
(1.0455219 -0.014825803 3.7095477e-21)
(1.0534624 -0.014900762 8.4465081e-21)
(1.0583271 -0.014989493 -9.4179138e-21)
(1.0612577 -0.015081992 -3.9432212e-21)
(1.0630429 -0.015054685 1.5201685e-21)
(1.0643297 -0.014861466 -1.1128992e-20)
(1.0653526 -0.014421472 1.1004149e-20)
(1.066228 -0.01371134 -1.2475612e-21)
(1.0669037 -0.012712418 3.0017427e-21)
(1.0673386 -0.011440174 -5.6975938e-22)
(1.0674526 -0.0099325975 -4.893959e-21)
(1.0672025 -0.0082524739 4.6535481e-21)
(1.066552 -0.0064836663 -5.615429e-21)
(1.0655082 -0.0047279653 -9.3053419e-22)
(1.0641076 -0.003077429 0)
(1.0624308 -0.0016529685 3.8103955e-21)
(1.0605834 -0.00048445445 1.8043587e-21)
(1.0587151 0.00026823274 0)
(1.0569627 0.00075709317 1.6021982e-21)
(1.0555442 0.00063046369 -6.0077585e-22)
(1.0545275 0.00048775543 -2.5910885e-21)
(0.89501921 -0.014607029 4.7206212e-21)
(0.92205927 -0.01593755 -1.7581622e-22)
(0.94938927 -0.015503285 -7.7091184e-21)
(0.97595231 -0.015758399 9.4025538e-22)
(0.9997146 -0.015604182 -2.4092011e-21)
(1.0200315 -0.015589548 -9.3353841e-21)
(1.0358502 -0.015522069 -4.7727167e-22)
(1.0473824 -0.015555775 -6.8438891e-21)
(1.0549789 -0.01561406 -4.3933553e-24)
(1.0597152 -0.015713267 7.9585758e-21)
(1.0625314 -0.015740341 -3.8242145e-21)
(1.0643521 -0.015643825 1.0301549e-21)
(1.0656655 -0.015325143 -2.7719176e-21)
(1.0667548 -0.014744063 3.1897782e-21)
(1.0676439 -0.013863579 -7.7725296e-22)
(1.0683156 -0.012685496 3.900668e-21)
(1.0686872 -0.011233631 4.4823099e-21)
(1.0687036 -0.0095583832 2.7164249e-20)
(1.0683087 -0.0077380322 9.4261669e-21)
(1.0674868 -0.0058637274 1.0770566e-20)
(1.0662497 -0.0040479459 7.3555058e-21)
(1.0646513 -0.0023825845 -2.8002096e-21)
(1.0627831 -0.00098885837 -5.1582737e-22)
(1.0607616 0.00010996943 0)
(1.0587455 0.00076257917 0)
(1.0568717 0.001126437 -1.4668606e-23)
(1.0553655 0.00086307797 4.3865201e-21)
(1.0542785 0.00056296396 5.7525241e-21)
(0.86900308 -0.014495076 0)
(0.89507323 -0.016141179 -8.4697114e-22)
(0.92316114 -0.015828952 6.9991045e-21)
(0.95144818 -0.01630291 3.2545282e-21)
(0.97815057 -0.016255071 9.8086982e-21)
(1.0022756 -0.016329737 5.0188749e-22)
(1.0223475 -0.016278818 -6.0818411e-21)
(1.0380474 -0.016292198 -1.0789155e-20)
(1.0492069 -0.016312492 1.2883857e-20)
(1.0566056 -0.016389932 -3.8515415e-21)
(1.061137 -0.016436002 4.9906854e-22)
(1.0639228 -0.016407779 3.9484474e-21)
(1.065736 -0.016195991 -9.9148565e-21)
(1.0671125 -0.015743814 5.860992e-21)
(1.0682293 -0.014992601 3.7342981e-21)
(1.0691366 -0.013928029 -1.6048667e-23)
(1.0697678 -0.012557416 3.7291596e-21)
(1.070063 -0.010918585 -2.8531095e-21)
(1.0699503 -0.0090772632 1.3631641e-20)
(1.0693931 -0.0071213986 1.9637326e-21)
(1.068378 -0.005154993 6.4599274e-21)
(1.0669355 -0.0032932004 3.9900121e-21)
(1.0651302 -0.0016310405 -8.4574981e-22)
(1.0630685 -0.00028376268 -6.610151e-21)
(1.0608746 0.00073041996 -3.3190483e-21)
(1.0587156 0.0012720569 1.3667313e-21)
(1.0567265 0.0015023541 -4.150475e-21)
(1.055139 0.0010975243 3.6183085e-21)
(1.053986 0.00063762947 -1.0090251e-20)
(0.8433731 -0.014248634 -1.4521529e-20)
(0.86763028 -0.01618182 0)
(0.89562585 -0.015997453 0)
(0.92462107 -0.016718037 0)
(0.95337319 -0.016819414 -2.5506506e-21)
(0.98064896 -0.017038912 8.7715516e-21)
(1.0047374 -0.017058872 -9.6278203e-22)
(1.0248354 -0.017094911 -1.4295053e-21)
(1.0402057 -0.017093896 1.6743164e-20)
(1.0511436 -0.017138583 -1.5855509e-20)
(1.0582554 -0.017172838 9.7582581e-21)
(1.062673 -0.01717697 -3.3823861e-21)
(1.0653884 -0.017045946 1.555854e-21)
(1.067238 -0.016711425 -8.145321e-21)
(1.068643 -0.016093156 3.8093272e-21)
(1.0697956 -0.015156776 4.7253469e-21)
(1.0706854 -0.013890477 9.6005465e-22)
(1.0712639 -0.012317002 -9.8178902e-21)
(1.0714494 -0.0104888 -4.291838e-21)
(1.071188 -0.0084832249 -8.4905624e-21)
(1.0704431 -0.0064029774 -7.8394653e-21)
(1.0692195 -0.0043576303 3.2051214e-21)
(1.0675588 -0.00246821 7.7296761e-21)
(1.0655415 -0.00082654774 -2.5663503e-21)
(1.0632854 0.00045708348 -1.9653192e-21)
(1.0609229 0.0013728056 3.1419124e-23)
(1.0586271 0.0017928126 -3.1986401e-21)
(1.05653 0.0018822021 2.2844938e-21)
(1.0548674 0.0013326521 -1.5338008e-20)
(1.0536551 0.0007109571 -6.7321294e-21)
(0.8165444 -0.013843868 -1.1491057e-21)
(0.84048043 -0.016021451 -9.8892349e-22)
(0.86760571 -0.016002152 0)
(0.89626299 -0.016971803 0)
(0.92606936 -0.017253768 0)
(0.95558747 -0.017665246 0)
(0.98308411 -0.017812072 0)
(1.0073976 -0.017927502 3.14232e-22)
(1.0272912 -0.017945529 -8.1556501e-21)
(1.0424857 -0.017971523 1.7728189e-20)
(1.0530955 -0.017979405 -9.3691388e-22)
(1.0600156 -0.017982718 1.0971511e-20)
(1.064278 -0.01789708 -1.4190182e-20)
(1.0669747 -0.017656408 1.7490828e-21)
(1.0688316 -0.017163712 -5.4471259e-23)
(1.0702787 -0.016363208 5.135964e-21)
(1.0714336 -0.015219896 -9.9034458e-21)
(1.0722952 -0.013738646 -1.0508593e-21)
(1.0727867 -0.011955624 1.3673717e-20)
(1.0728417 -0.0099365673 6.0987509e-21)
(1.072403 -0.0077749016 1.0612374e-21)
(1.0714515 -0.0055817456 9.5198193e-21)
(1.0700024 -0.0034755177 5.3878425e-22)
(1.0681148 -0.0015766237 -2.9431935e-21)
(1.0658817 2.515482e-05 4.5428855e-21)
(1.0634333 0.0012288724 3.611514e-21)
(1.0609075 0.002032369 8.0653872e-22)
(1.0584823 0.0023213034 1.3452198e-21)
(1.0562851 0.0022634637 2.3877619e-22)
(1.0545544 0.0015667708 1.211762e-20)
(1.0532882 0.00078295189 4.4568813e-21)
(0.78802415 -0.013211065 1.6037838e-20)
(0.81205779 -0.015677609 -5.0087195e-22)
(0.83973611 -0.015858451 4.5553141e-21)
(0.86718142 -0.017058973 4.8722988e-21)
(0.89705449 -0.017521041 0)
(0.9277701 -0.018159595 0)
(0.9577834 -0.018483558 -3.9415162e-22)
(0.98573382 -0.018738072 9.6366324e-21)
(1.0100428 -0.018831905 -1.5905629e-20)
(1.0298845 -0.018878725 1.8740693e-20)
(1.0447794 -0.018870927 2.320738e-21)
(1.0551571 -0.018855439 -9.9766535e-21)
(1.0618374 -0.018780446 -4.6817964e-22)
(1.0660028 -0.018598973 -5.9515067e-22)
(1.0686564 -0.018211178 -4.1857652e-21)
(1.0705411 -0.017543318 1.2307194e-21)
(1.0720007 -0.016534984 1.1751251e-21)
(1.0731498 -0.015168764 -4.4101411e-22)
(1.073949 -0.013461439 5.0086465e-21)
(1.0743318 -0.0114638 2.7367184e-20)
(1.0742249 -0.0092584394 8.5585025e-21)
(1.0735869 -0.0069497727 -7.0638315e-21)
(1.0724076 -0.0046605607 1.0132635e-20)
(1.0707204 -0.0025118675 9.2572349e-21)
(1.0685984 -0.00062439691 3.2689603e-21)
(1.0661489 0.00091871344 2.5587061e-21)
(1.063512 0.0020259186 1.1840873e-21)
(1.06083 0.0027046473 -1.9337747e-21)
(1.0582838 0.0028539387 2.8629068e-21)
(1.0559949 0.0026437906 -1.0771349e-21)
(1.0542033 0.0017988339 6.9461052e-21)
(1.0528898 0.00085318407 4.956889e-22)
(0.7598692 -0.012353439 -5.3787257e-21)
(0.7818211 -0.015089118 1.7890104e-21)
(0.81061296 -0.015512173 -6.6999389e-21)
(0.83816896 -0.016944411 -4.9009355e-21)
(0.86718062 -0.017613751 0)
(0.89802405 -0.018478847 0)
(0.92950113 -0.019020796 0)
(0.96019792 -0.019468535 -1.6754255e-21)
(0.98839485 -0.019700206 1.2239755e-20)
(1.0128444 -0.01982575 1.3706596e-20)
(1.0324991 -0.01984007 2.4672379e-21)
(1.0471883 -0.01981337 -2.1142117e-21)
(1.0572747 -0.019727966 1.9936748e-20)
(1.0637763 -0.019569548 -1.5639482e-20)
(1.0678222 -0.01925365 4.941929e-21)
(1.0704609 -0.018701209 0)
(1.0723491 -0.017829205 1.1897494e-21)
(1.0738173 -0.016594505 1.3998106e-21)
(1.0749277 -0.014989808 1.2457517e-20)
(1.0756428 -0.013047582 -1.132532e-21)
(1.0758836 -0.010835755 -1.3631676e-20)
(1.07559 -0.0084501196 -4.8169268e-21)
(1.0747273 -0.0060092628 -1.1019866e-20)
(1.0733035 -0.0036418293 -1.0693678e-20)
(1.0713664 -0.001472497 5.0003326e-22)
(1.0690062 0.00038277056 2.4247504e-21)
(1.0663417 0.0018476645 -1.4162411e-21)
(1.0635223 0.0028428233 -1.7755833e-22)
(1.0606924 0.0033850192 4.4001357e-21)
(1.0580346 0.0033873934 1.2552126e-21)
(1.055663 0.0030210798 1.1081942e-21)
(1.0538177 0.0020275588 -2.0640215e-20)
(1.0524629 0.00092151655 7.8038604e-21)
(0.73286928 -0.011274701 -4.872642e-21)
(0.751762 -0.014233556 2.8814779e-22)
(0.77962551 -0.014922764 -1.2272519e-20)
(0.80786208 -0.016607589 -6.5813356e-21)
(0.83723458 -0.017532015 3.0947031e-21)
(0.86722588 -0.01862209 -2.1713223e-23)
(0.89907723 -0.019376348 1.4665304e-20)
(0.93144016 -0.020061845 -7.9504809e-21)
(0.96265423 -0.020489657 -9.2003492e-24)
(0.99122886 -0.020758628 -2.9792544e-20)
(1.0156835 -0.020853623 1.3409384e-20)
(1.035241 -0.020852069 1.6271463e-20)
(1.0496532 -0.020760703 -1.6813457e-21)
(1.0595084 -0.020601318 -4.8588447e-21)
(1.0658064 -0.020320551 -6.363239e-21)
(1.0697671 -0.019852562 -4.5754652e-21)
(1.0723722 -0.01910376 5.5318701e-22)
(1.0742662 -0.018006757 1.4276197e-20)
(1.075713 -0.016525812 -2.5490343e-22)
(1.0767644 -0.014669991 -2.6476587e-21)
(1.0773608 -0.012488797 -4.0285835e-21)
(1.0774325 -0.010065187 -1.8564536e-20)
(1.0769229 -0.0075112085 3.0041846e-21)
(1.0758146 -0.0049545874 -2.9865547e-21)
(1.07413 -0.0025308312 -1.3506637e-20)
(1.0719352 -0.00036315871 -3.4802983e-21)
(1.0693351 0.0014378024 -1.9640351e-21)
(1.0664596 0.0028057232 -3.3175154e-21)
(1.0634653 0.0036738856 5.7819264e-22)
(1.0604974 0.0040691547 -8.5922137e-22)
(1.057738 0.0039185263 2.1144515e-21)
(1.0552928 0.0033933809 -7.8747463e-23)
(1.0534013 0.0022520302 8.6359565e-21)
(1.0520113 0.0009876947 -1.5041118e-20)
(0.70782545 -0.0099799577 5.0797218e-21)
(0.72273316 -0.013098031 -4.1390194e-22)
(0.74864365 -0.014068788 1.4130013e-20)
(0.77558787 -0.01602319 3.5228835e-21)
(0.80594427 -0.017209907 -1.0684991e-20)
(0.83624139 -0.01857583 -1.4725485e-20)
(0.8674209 -0.01955096 -1.8615917e-21)
(0.9003103 -0.020465086 0)
(0.93345007 -0.021139205 -8.5149999e-21)
(0.96529307 -0.021613544 -3.2502202e-20)
(0.99412219 -0.02185671 2.3720238e-21)
(1.0186662 -0.021939704 -6.120387e-21)
(1.0380469 -0.02187713 0)
(1.0522384 -0.021718125 -3.2965676e-21)
(1.0618307 -0.021445984 1.2273598e-20)
(1.0679622 -0.021025419 6.6896459e-21)
(1.071823 -0.020371641 -5.5905506e-21)
(1.0744039 -0.019403752 0)
(1.0762783 -0.01805781 -7.3321952e-21)
(1.0776863 -0.016314189 -9.7206606e-21)
(1.078644 -0.014198446 -1.9295821e-20)
(1.0790932 -0.011776608 -5.6493097e-21)
(1.0789631 -0.0091495234 0)
(1.0782126 -0.0064413476 -1.324678e-20)
(1.0768375 -0.0037900562 5.2101601e-22)
(1.0748798 -0.0013330214 1.1758427e-22)
(1.0724217 0.00080872331 -5.5860779e-21)
(1.0695829 0.0025336556 1.901847e-21)
(1.0665028 0.0037861519 4.3473725e-22)
(1.063343 0.0045136839 5.7682825e-21)
(1.0602479 0.0047528605 -9.7001411e-21)
(1.0573972 0.0044444634 -4.6319645e-21)
(1.0548879 0.0037589986 0)
(1.0529575 0.0024712993 -3.3016831e-22)
(1.0515381 0.0010515829 -4.625703e-21)
(0.68552156 -0.0084822484 3.6799514e-21)
(0.69563003 -0.011680642 1.0157283e-21)
(0.71859033 -0.012940001 1.2889155e-20)
(0.74317431 -0.015147947 1.1115314e-21)
(0.77265718 -0.016618492 -3.1058288e-21)
(0.80383907 -0.018233123 -7.3120661e-22)
(0.83542661 -0.019520072 -1.1773259e-20)
(0.86774888 -0.020683057 4.767597e-22)
(0.90163778 -0.021590532 0)
(0.93564168 -0.022324969 1.0384657e-20)
(0.96801413 -0.022782626 -1.1340891e-20)
(0.99717557 -0.023020446 2.8596612e-21)
(1.0217283 -0.023046923 -6.3300218e-21)
(1.040984 -0.022921487 8.4468117e-21)
(1.0549144 -0.0226564 -1.5181665e-22)
(1.0642795 -0.022254476 1.3915615e-20)
(1.0702299 -0.021659164 -8.3923683e-21)
(1.0740064 -0.020795496 4.3481025e-21)
(1.0765435 -0.019581007 1.3946872e-20)
(1.0783858 -0.017966083 -6.7691895e-21)
(1.079722 -0.015946158 1.3832515e-20)
(1.0805569 -0.013564408 1.6504982e-21)
(1.0808237 -0.010905978 0)
(1.0804631 -0.0080864746 -3.633301e-21)
(1.0794457 -0.005243432 1.4381176e-22)
(1.0777867 -0.0025204211 5.224472e-21)
(1.0755456 -5.5833505e-05 4.5801802e-21)
(1.072822 0.00203558 2.3897244e-21)
(1.0697486 0.0036626211 4.9253658e-22)
(1.0664722 0.0047824131 0)
(1.0631579 0.0053568714 -3.8152931e-21)
(1.059947 0.0054322679 -1.0286937e-20)
(1.0570161 0.004962605 1.9130352e-20)
(1.054452 0.0041164113 -6.307959e-21)
(1.0524899 0.0026846423 5.1922743e-22)
(1.0510467 0.0011130337 1.6279802e-20)
(0.66668605 -0.0068036864 -3.4177282e-21)
(0.67135099 -0.0099917561 -1.383479e-22)
(0.69042709 -0.011535585 -3.8747771e-21)
(0.71158214 -0.01396903 2.7093159e-23)
(0.73901523 -0.015734818 1.257765e-20)
(0.76932675 -0.017643595 1.0375369e-20)
(0.80195276 -0.019196929 -1.7505211e-22)
(0.83470751 -0.020675212 -9.6707603e-21)
(0.86818539 -0.021850801 5.0791038e-22)
(0.90313399 -0.022828626 -8.8822164e-21)
(0.93793475 -0.023561434 -4.4637242e-22)
(0.97090699 -0.02402445 5.5147945e-21)
(1.000328 -0.024213396 -1.0407481e-21)
(1.0249376 -0.024182758 1.0201513e-20)
(1.0440213 -0.023956413 -2.937583e-20)
(1.0577222 -0.023568667 6.5616003e-21)
(1.0668413 -0.023001256 4.6840295e-22)
(1.0726292 -0.02220623 5.3453892e-21)
(1.0763067 -0.021102238 -2.7047852e-21)
(1.0787939 -0.019617846 -8.0355681e-22)
(1.0805745 -0.017715551 1.098708e-20)
(1.081811 -0.015408626 -9.3251572e-21)
(1.0824864 -0.012760162 4.6305553e-21)
(1.0825388 -0.0098723709 0)
(1.0819173 -0.0068770863 1.6915942e-20)
(1.0806108 -0.0039210744 1.3341391e-20)
(1.0786526 -0.0011527186 -2.0998751e-21)
(1.0761216 0.0012928996 6.7088058e-21)
(1.0731333 0.0033088825 5.7434173e-22)
(1.0698318 0.0048170722 -3.2611982e-22)
(1.0663696 0.0057879557 5.2679009e-21)
(1.0629129 0.0061984412 -9.3094049e-21)
(1.0595985 0.0061037979 -2.1161607e-22)
(1.0565982 0.0054706337 1.9402351e-20)
(1.0539886 0.0044643336 -1.1358642e-21)
(1.0520016 0.0028913981 -5.6349255e-22)
(1.0505401 0.0011719566 5.8971823e-21)
(0.65195445 -0.0049746166 3.6145019e-22)
(0.65074593 -0.0080564524 -1.075384e-21)
(0.66512138 -0.0098651899 -4.9113775e-21)
(0.68184201 -0.012483749 -5.7524003e-22)
(0.7060577 -0.014529982 4.067496e-25)
(0.7343128 -0.016728702 1.8216461e-22)
(0.7662953 -0.01859174 -6.746214e-21)
(0.80010707 -0.020347298 3.8950805e-21)
(0.8340854 -0.021868862 0)
(0.86876652 -0.023134937 1.805545e-21)
(0.90474324 -0.02412259 0)
(0.9404027 -0.024877007 0)
(0.97391779 -0.025303513 5.7917156e-21)
(1.0036446 -0.025444405 -5.3997029e-22)
(1.0282637 -0.025319207 -4.9580545e-21)
(1.0472025 -0.024975802 -6.2480926e-21)
(1.0606482 -0.02442914 1.6288308e-20)
(1.0695385 -0.023670743 -9.2212998e-21)
(1.075151 -0.022643338 7.1624565e-22)
(1.0787293 -0.021272985 7.9333548e-22)
(1.0811421 -0.019495833 -1.4174465e-20)
(1.0828366 -0.017290814 -5.8853327e-21)
(1.0839365 -0.014691059 4.4318363e-21)
(1.0844182 -0.011778669 1.1219668e-20)
(1.0842218 -0.0086745822 2.171457e-21)
(1.0833122 -0.0055233871 1.8310491e-21)
(1.0816959 -0.0024804598 -4.6503838e-21)
(1.079427 0.00030531732 -4.6728845e-21)
(1.0766029 0.0027041024 -6.6484023e-22)
(1.0733537 0.0046200226 -2.9491102e-21)
(1.0698332 0.0059892216 -5.0531985e-21)
(1.0661973 0.0067965371 -2.7314746e-21)
(1.0626113 0.0070336806 1.6913566e-21)
(1.0592059 0.006764231 1.4264164e-20)
(1.0561472 0.005966531 -3.7359236e-20)
(1.0535013 0.0048016662 -6.1866373e-21)
(1.0514961 0.0030910598 -5.7605835e-21)
(1.0500212 0.0012282798 0)
(0.64183618 -0.0030320855 2.960829e-21)
(0.63456624 -0.0059135423 -1.2535183e-22)
(0.64359266 -0.0079532829 -1.2695629e-21)
(0.65501057 -0.010699421 -4.8529247e-22)
(0.6748993 -0.013002021 -5.712105e-21)
(0.69986312 -0.015468743 -4.3648614e-21)
(0.72991356 -0.017657597 -6.2295138e-22)