/*--------------------------------*- C++ -*----------------------------------*\
| =========                 |                                                 |
| \\      /  F ield         | OpenFOAM: The Open Source CFD Toolbox           |
|  \\    /   O peration     | Version:  5.0                                   |
|   \\  /    A nd           | Web:      www.OpenFOAM.org                      |
|    \\/     M anipulation  |                                                 |
\*---------------------------------------------------------------------------*/
FoamFile
{
    version     2.0;
    format      ascii;
    class       volVectorField;
    location    "380";
    object      ddt0(U);
}
// * * * * * * * * * * * * * * * * * * * * * * * * * * * * * * * * * * * * * //

dimensions      [0 1 -2 0 0 0 0];

internalField   nonuniform List<vector> 
9520
(
(-0.0002885201 -4.9487562e-07 0)
(-0.00028582755 -7.4248817e-07 0)
(-0.00028693341 -2.0485418e-06 0)
(-0.00028087138 -4.7588176e-07 0)
(-0.0002851364 -5.7449774e-06 0)
(-0.00028275521 4.2343912e-07 0)
(-0.00027356955 8.9895849e-08 0)
(-0.00028087834 -8.6248482e-06 0)
(-0.00028116993 3.0783435e-07 0)
(-0.00028800155 5.9923122e-06 0)
(-0.0002642735 7.9992901e-07 0)
(-0.00027422421 -1.0878226e-05 0)
(-0.00027734963 -1.9772396e-07 0)
(-0.00028513707 1.6169396e-05 0)
(-0.00029939322 1.003253e-05 0)
(-0.00025362197 1.2665196e-06 0)
(-0.00026526184 -1.1388597e-05 0)
(-0.00027205894 -9.104076e-07 0)
(-0.00028032881 2.466887e-05 0)
(-0.0002955946 2.9056861e-05 0)
(-0.00031774324 1.0274771e-05 0)
(-0.00024130805 1.4527782e-06 0)
(-0.00025447908 -1.0871884e-05 0)
(-0.00026502179 -5.3150406e-07 0)
(-0.00027468109 3.1950354e-05 0)
(-0.00028992672 4.6400469e-05 0)
(-0.0003144003 3.1469533e-05 0)
(-0.00033205471 6.6954031e-06 0)
(-0.00022639015 1.7413769e-06 0)
(-0.00024222081 -9.6131237e-06 0)
(-0.00025577106 9.0499865e-07 0)
(-0.00026820371 3.821127e-05 0)
(-0.0002831373 6.241137e-05 0)
(-0.00030929714 5.2317229e-05 0)
(-0.0003298832 2.1853722e-05 0)
(-0.00033843429 2.5565854e-06 0)
(-0.00020666568 3.0448601e-06 0)
(-0.00022869643 -7.215127e-06 0)
(-0.00024510715 3.201229e-06 0)
(-0.00025993498 4.4441857e-05 0)
(-0.00027578624 7.5809862e-05 0)
(-0.00030215706 7.2930819e-05 0)
(-0.00032602072 3.8036671e-05 0)
(-0.00033817062 9.0264866e-06 0)
(-0.0003399653 1.2776842e-06 0)
(-0.00017804801 7.283819e-06 0)
(-0.00021471143 -2.4253337e-06 0)
(-0.00023469152 6.1616003e-06 0)
(-0.00025016497 5.1060047e-05 0)
(-0.00026740268 8.7857929e-05 0)
(-0.00029378784 9.1390817e-05 0)
(-0.0003196222 5.5358711e-05 0)
(-0.00033635339 1.6594185e-05 0)
(-0.00034030652 3.66211e-06 0)
(-0.00034171178 3.9476851e-06 0)
(-0.00013316034 1.9712795e-05 0)
(-0.00020166664 8.9880692e-06 0)
(-0.00022849734 1.0057428e-05 0)
(-0.00023976581 5.7808922e-05 0)
(-0.00025785796 9.9277363e-05 0)
(-0.00028515006 0.00010849539 0)
(-0.00031174705 7.2999002e-05 0)
(-0.00033149544 2.5421437e-05 0)
(-0.000339225 6.401274e-06 0)
(-0.00034172622 1.0039501e-05 0)
(-0.0003488665 9.1821703e-06 0)
(-8.084231e-05 4.833352e-05 0)
(-0.00019453948 3.6089022e-05 0)
(-0.00023367059 1.5979281e-05 0)
(-0.00023050462 6.3584006e-05 0)
(-0.00024652239 0.00011033275 0)
(-0.00027592626 0.00012485965 0)
(-0.00030417286 9.028824e-05 0)
(-0.00032532034 3.7147599e-05 0)
(-0.0003381624 8.724527e-06 0)
(-0.00034008493 1.5514316e-05 0)
(-0.00034803345 2.4898076e-05 0)
(-0.00036288353 1.4128893e-05 0)
(-4.1280097e-05 9.5608154e-05 0)
(-0.00020839179 8.1420203e-05 0)
(-0.00026575555 2.4716182e-05 0)
(-0.00022608868 6.4043709e-05 0)
(-0.00023159619 0.00011979541 0)
(-0.0002650045 0.00014112895 0)
(-0.00029694332 0.00010728399 0)
(-0.00031865691 4.9650733e-05 0)
(-0.00033411121 1.3880713e-05 0)
(-0.00033809419 2.0343373e-05 0)
(-0.00034647759 3.8881911e-05 0)
(-0.00036117213 4.0278606e-05 0)
(-0.00038159218 1.6320101e-05 0)
(-2.242432e-06 0.00018320575 0)
(-0.00028381015 0.00017201203 0)
(-0.00034051293 3.6567474e-05 0)
(-0.00023161282 4.8849611e-05 0)
(-0.0002105842 0.00012360635 0)
(-0.00024869153 0.00015771852 0)
(-0.00028958601 0.00012468626 0)
(-0.00031242326 6.1756639e-05 0)
(-0.00032786965 2.0436359e-05 0)
(-0.00033573487 2.5019667e-05 0)
(-0.00034454268 5.297548e-05 0)
(-0.00035989704 6.4345242e-05 0)
(-0.00037979077 4.8494926e-05 0)
(-0.00040062609 1.4843284e-05 0)
(3.5338985e-05 0.00028723871 0)
(-0.00036009042 0.00025643945 0)
(-0.00039203633 2.024377e-05 0)
(-0.00021536947 3.42072e-06 0)
(-0.00016550897 0.00011504839 0)
(-0.00021818857 0.0001742556 0)
(-0.0002802776 0.00014472466 0)
(-0.00030819379 7.3135856e-05 0)
(-0.00032055988 2.6441676e-05 0)
(-0.00033036884 3.0155919e-05 0)
(-0.00034189397 6.5682904e-05 0)
(-0.0003585 8.8105457e-05 0)
(-0.00037886017 7.9525137e-05 0)
(-0.00039989828 4.5874527e-05 0)
(-0.00041578105 1.0364168e-05 0)
(9.3904911e-05 0.00047241394 0)
(-0.00048714196 0.00035131422 0)
(-0.00039809511 -4.4352231e-05 0)
(-0.00013059382 -8.6210218e-05 0)
(-7.4604306e-05 8.941471e-05 0)
(-0.00016354603 0.00019545623 0)
(-0.00026887792 0.00017436199 0)
(-0.00031055988 8.5338945e-05 0)
(-0.00031408164 2.9774005e-05 0)
(-0.00032123917 3.5009819e-05 0)
(-0.00033678755 7.7853173e-05 0)
(-0.00035595821 0.00011106785 0)
(-0.00037826262 0.00010896707 0)
(-0.00039949081 7.7567766e-05 0)
(-0.00041697545 3.3576342e-05 0)
(-0.00042455319 4.6161048e-06 0)
(0.00013551416 0.00060144946 0)
(-0.00067112124 0.00039453832 0)
(-0.00043866008 -0.00014372727 0)
(-3.1310221e-05 -0.00021227486 0)
(3.1153934e-05 2.6041915e-05 0)
(-8.7331224e-05 0.00022863429 0)
(-0.00026105063 0.00022580849 0)
(-0.00032628554 0.00010288478 0)
(-0.00031242123 2.7736957e-05 0)
(-0.0003083295 3.7692382e-05 0)
(-0.00032793557 9.0606191e-05 0)
(-0.00035195718 0.00013377944 0)
(-0.00037693473 0.00013821719 0)
(-0.00039943343 0.00010817583 0)
(-0.00041825804 5.8945531e-05 0)
(-0.00042770998 1.6489746e-05 0)
(-0.00042689318 -2.7401331e-07 0)
(7.8247529e-05 0.0011537553 0)
(-0.0010246013 0.00060641343 0)
(-0.0005236644 -0.0002907254 0)
(8.7848775e-05 -0.00036622785 0)
(9.737122e-05 -1.8124093e-06 0)
(-9.0306781e-06 0.00030971898 0)
(-0.00026699603 0.00031276984 0)
(-0.00036948763 0.00012767244 0)
(-0.00032017614 1.5584562e-05 0)
(-0.00029135731 3.4590608e-05 0)
(-0.00031451253 0.00010415474 0)
(-0.00034608845 0.000158104 0)
(-0.00037522719 0.00016796956 0)
(-0.00040014559 0.00013786158 0)
(-0.00041948691 8.6858657e-05 0)
(-0.0004322856 3.0707496e-05 0)
(-0.00043143382 1.1256563e-06 0)
(-0.00042502203 -2.6024047e-06 0)
(0.00012280042 0.0010618183 0)
(-0.0012052533 0.00033040703 0)
(-0.00061364946 -0.00047189686 0)
(0.00017229232 -0.00056364877 0)
(0.00030189196 -3.2306533e-06 0)
(6.6253019e-05 0.00041199787 0)
(-0.00030319567 0.00046555033 0)
(-0.00046224894 0.00016855876 0)
(-0.00034358919 -1.4452037e-05 0)
(-0.00026952037 1.8514017e-05 0)
(-0.00029326135 0.00011768869 0)
(-0.00033576348 0.00018569812 0)
(-0.00037299914 0.00019972334 0)
(-0.00040166566 0.00016912515 0)
(-0.00042189498 0.00011348004 0)
(-0.00043511094 5.1675441e-05 0)
(-0.00043909775 4.4962289e-06 0)
(-0.00043036903 -6.9885626e-06 0)
(-0.00042224227 -1.8436827e-06 0)
(-8.0864137e-06 0.0019869262 0)
(-0.0019440266 0.0010791671 0)
(-0.00092732483 -0.00083723465 0)
(0.00036296843 -0.00088037117 0)
(0.00067412451 -4.3030015e-05 0)
(0.00013244416 0.00055431886 0)
(-0.00035842615 0.00067875517 0)
(-0.00060968824 0.0002223486 0)
(-0.00039392044 -7.1891396e-05 0)
(-0.00024204838 -2.0618193e-05 0)
(-0.00025988076 0.00012859906 0)
(-0.00031770269 0.00021809262 0)
(-0.00036940969 0.00023551457 0)
(-0.00040445505 0.00020252957 0)
(-0.00042608364 0.00014244407 0)
(-0.00043945212 7.4595795e-05 0)
(-0.00044692467 1.2571633e-05 0)
(-0.00043892893 -9.2741387e-06 0)
(-0.00042813468 -6.0394497e-06 0)
(-0.00042128847 1.1581635e-06 0)
(-0.00018151973 0.0018917296 0)
(-0.002039127 0.00034704217 0)
(-0.00110141 -0.0011006792 0)
(0.00062181708 -0.0012721139 0)
(0.001241545 -0.00011614264 0)
(0.00028361476 0.00082420632 0)
(-0.00048631074 0.00096275428 0)
(-0.00083677906 0.000299709 0)
(-0.00048650697 -0.00017632125 0)
(-0.00020579287 -9.504785e-05 0)
(-0.000207857 0.00013470238 0)
(-0.00028721781 0.0002574339 0)
(-0.00036295388 0.00027832111 0)
(-0.0004091321 0.00023990895 0)
(-0.00043273449 0.00017308529 0)
(-0.00044636238 9.8887069e-05 0)
(-0.00045205956 3.0061813e-05 0)
(-0.00045053172 -1.2616252e-05 0)
(-0.00043617386 -7.6891966e-06 0)
(-0.00042754222 1.6071991e-06 0)
(-0.00042336846 4.7442692e-06 0)
(-4.9176358e-05 0.0030753916 0)
(-0.003257678 0.0015479794 0)
(-0.0018251543 -0.0018942038 0)
(0.00098810361 -0.0019299172 0)
(0.0019742052 -0.00016905761 0)
(0.00048671706 0.0012499007 0)
(-0.00071671987 0.001331249 0)
(-0.0011386048 0.00039574741 0)
(-0.00065803951 -0.00035017269 0)
(-0.00017341403 -0.00024279316 0)
(-0.00012838908 0.00012261868 0)
(-0.00023396634 0.00030554403 0)
(-0.00035016693 0.00033357844 0)
(-0.00041694447 0.00028423701 0)
(-0.00044338873 0.00020582397 0)
(-0.00045521592 0.00012363103 0)
(-0.00045998739 4.7666743e-05 0)
(-0.00046227845 -8.7791947e-06 0)
(-0.00044811066 -1.2119273e-05 0)
(-0.0004356077 4.1630767e-06 0)
(-0.00042953776 1.1581344e-05 0)
(-0.00042827116 7.3740056e-06 0)
(4.8664002e-06 0.002987065 0)
(-0.0030444362 0.00041859012 0)
(-0.0018487881 -0.0020310098 0)
(0.0014658497 -0.0026923304 0)
(0.0030145949 -0.00039662498 0)
(0.00085808009 0.0018911738 0)
(-0.0010844896 0.0019077854 0)
(-0.0016627111 0.00049887574 0)
(-0.00081224288 -0.00062874538 0)
(-1.181595e-05 -0.00045142166 0)
(6.1683418e-06 8.2500955e-05 0)
(-0.00013914026 0.00035996246 0)
(-0.00032243254 0.0004081816 0)
(-0.00042925593 0.00034187865 0)
(-0.00046175347 0.00024167107 0)
(-0.00046770647 0.00014722492 0)
(-0.0004685106 6.4682408e-05 0)
(-0.00047053516 -3.9566742e-07 0)
(-0.0004615814 -1.2708931e-05 0)
(-0.00044757259 7.4072286e-06 0)
(-0.00043898832 1.8673259e-05 0)
(-0.00043377803 1.9838952e-05 0)
(-0.00043481856 8.2453201e-06 0)
(-0.000675796 0.004516688 0)
(-0.005109872 0.0020963534 0)
(-0.0034228662 -0.0037194459 0)
(0.0021303431 -0.0038307982 0)
(0.0042998162 -0.00036790326 0)
(0.0013640598 0.0027497184 0)
(-0.0015956406 0.0026645641 0)
(-0.002445208 0.00060416027 0)
(-0.0011089936 -0.0010266549 0)
(9.162978e-05 -0.00084026116 0)
(0.00028616479 5.8898031e-06 0)
(5.6347986e-05 0.00043190115 0)
(-0.00026447812 0.00051546529 0)
(-0.00044762107 0.00042355312 0)
(-0.00049423599 0.00028370047 0)
(-0.00048784253 0.00016775049 0)
(-0.00047801021 7.7943841e-05 0)
(-0.00047710829 8.3820268e-06 0)
(-0.00047241135 -1.0450711e-05 0)
(-0.00046249038 1.0769516e-05 0)
(-0.00045162652 3.2032797e-05 0)
(-0.00044552129 3.0419248e-05 0)
(-0.00043967205 2.3891483e-05 0)
(-0.00044128691 7.218231e-06 0)
(-0.00064132545 0.0044226897 0)
(-0.0062520534 0.00072978697 0)
(-0.0037953546 -0.0031960475 0)
(0.0028499511 -0.0053157599 0)
(0.006228771 -0.00087125154 0)
(0.0021175413 0.0040241901 0)
(-0.0023739844 0.0038972813 0)
(-0.0036064457 0.00073372153 0)
(-0.0015533598 -0.00164894 0)
(0.0003293784 -0.0014072834 0)
(0.00079610458 -0.00016284093 0)
(0.00027674473 0.00045382835 0)
(-0.00016020732 0.00068248896 0)
(-0.00047498977 0.00055233076 0)
(-0.00055297503 0.00033825006 0)
(-0.00052309961 0.00018219924 0)
(-0.0004901231 8.3130101e-05 0)
(-0.00048101198 1.3558868e-05 0)
(-0.00047970614 -6.3919054e-06 0)
(-0.00047481488 1.8488075e-05 0)
(-0.00046783086 4.267586e-05 0)
(-0.00045993678 4.9920996e-05 0)
(-0.00045337642 3.7841518e-05 0)
(-0.00044652427 2.2891428e-05 0)
(-0.00044635131 4.450207e-06 0)
(-0.0011058002 0.0067680396 0)
(-0.0087057893 0.0027208405 0)
(-0.0040597545 -0.0059190384 0)
(0.0041441855 -0.0073919335 0)
(0.0081483124 -0.00064232854 0)
(0.0029269418 0.0053130089 0)
(-0.0033435182 0.0053397982 0)
(-0.0051793065 0.00085236224 0)
(-0.0022011891 -0.0025227922 0)
(0.00066242797 -0.0022530075 0)
(0.0014601109 -0.00040051698 0)
(0.00057549568 0.00068175072 0)
(-3.9083756e-05 0.00094483547 0)
(-0.00052678075 0.00075601151 0)
(-0.00065766882 0.00041856291 0)
(-0.00058767725 0.00018644173 0)
(-0.00050831369 7.2073978e-05 0)
(-0.00048074579 9.7105722e-06 0)
(-0.00048093295 -2.4455946e-06 0)
(-0.00048324638 3.0193684e-05 0)
(-0.00048370502 5.7957468e-05 0)
(-0.00047718364 6.8934886e-05 0)
(-0.00047107401 5.6670732e-05 0)
(-0.00046077448 4.047944e-05 0)
(-0.00045320109 1.690185e-05 0)
(-0.00044945429 2.5176694e-07 0)
(-0.0025366443 0.0062353003 0)
(-0.0071042995 0.00061789304 0)
(-0.0046348784 -0.0057868633 0)
(0.0056728169 -0.0091587255 0)
(0.011197632 -0.0015390993 0)
(0.0040591453 0.0078632119 0)
(-0.0048678941 0.0077344761 0)
(-0.0074112789 0.0009603316 0)
(-0.0030554554 -0.0037888333 0)
(0.0011239669 -0.0034564537 0)
(0.0024093592 -0.00076631515 0)
(0.0012027913 0.0010221015 0)
(3.5720661e-05 0.001317942 0)
(-0.00063460611 0.0011103363 0)
(-0.00084988334 0.00054338181 0)
(-0.00070368794 0.00017463036 0)
(-0.00053874427 3.2921583e-05 0)
(-0.00047448603 -1.2793349e-05 0)
(-0.00047176638 -1.5132417e-06 0)
(-0.00048506482 4.5629241e-05 0)
(-0.00049641924 7.9033645e-05 0)
(-0.00049691803 9.1150852e-05 0)
(-0.00049009349 8.2546953e-05 0)
(-0.00048203489 5.5769712e-05 0)
(-0.00046742345 3.5268386e-05 0)
(-0.00045838124 5.825139e-06 0)
(-0.00044881876 -4.9811097e-06 0)
(-0.0052174199 0.0084899313 0)
(-0.014225516 0.0033898017 0)
(-0.0087831702 -0.0093784944 0)
(0.0069599169 -0.011875095 0)
(0.014284985 -0.00055866686 0)
(0.0040184693 0.0091460217 0)
(-0.0063444214 0.010114936 0)
(-0.01022335 0.0010760257 0)
(-0.004250276 -0.0054609536 0)
(0.0017351915 -0.0051454698 0)
(0.0037665054 -0.0013008993 0)
(0.002164415 0.0014907225 0)
(0.00015949295 0.001895784 0)
(-0.00083339996 0.0015854875 0)
(-0.0011526913 0.00073911623 0)
(-0.00091020811 0.00013451557 0)
(-0.0005940032 -5.8521891e-05 0)
(-0.00045854507 -6.751546e-05 0)
(-0.00044522795 -8.7802419e-06 0)
(-0.00047510101 6.4167634e-05 0)
(-0.00050355873 0.000107236 0)
(-0.00051532446 0.0001193861 0)
(-0.00051315433 0.00011022146 0)
(-0.00050480229 8.1796999e-05 0)
(-0.00049010286 4.9518765e-05 0)
(-0.00047418798 1.7524534e-05 0)
(-0.00046010231 -1.0436251e-05 0)
(-0.00044407634 -1.0813291e-05 0)
(-0.0063120248 0.0090113924 0)
(-0.016424333 0.00085442099 0)
(-0.0058293165 -0.0085229543 0)
(0.0085787065 -0.015112468 0)
(0.019144656 -0.0019857628 0)
(0.0055120972 0.013570525 0)
(-0.0080975127 0.014874625 0)
(-0.014101632 0.0008919344 0)
(-0.0057264039 -0.0076748641 0)
(0.0025625387 -0.0073938482 0)
(0.0056176483 -0.0020895352 0)
(0.0035530226 0.0021327238 0)
(0.00039641528 0.0028350692 0)
(-0.0011723716 0.0022348362 0)
(-0.0016094498 0.0010044973 0)
(-0.0012210903 4.5051771e-05 0)
(-0.00068903046 -0.00023440817 0)
(-0.00042766534 -0.00017526408 0)
(-0.00039148939 -3.3948269e-05 0)
(-0.00044454234 8.5081948e-05 0)
(-0.00050033794 0.00014416572 0)
(-0.00053057937 0.000156435 0)
(-0.00053728417 0.00014311848 0)
(-0.0005303901 0.00011066696 0)
(-0.00051772111 6.7581326e-05 0)
(-0.00049690575 3.0135174e-05 0)
(-0.00047827866 -1.2641805e-05 0)
(-0.00045598026 -2.9674572e-05 0)
(-0.00043526195 -1.650809e-05 0)
(-0.00819445 0.010128605 0)
(-0.017238001 0.0021004364 0)
(-0.001658246 -0.013808678 0)
(0.014067509 -0.019454327 0)
(0.024623427 0.00055959681 0)
(0.0070491869 0.016662248 0)
(-0.012123658 0.017791584 0)
(-0.018798987 0.00093012241 0)
(-0.0077550316 -0.01041653 0)
(0.0036691887 -0.010503847 0)
(0.0081334024 -0.003154909 0)
(0.0054729252 0.0029916221 0)
(0.0007980226 0.0042227902 0)
(-0.0017005251 0.0032036053 0)
(-0.0023584764 0.0013619938 0)
(-0.0016696441 -0.00010197806 0)
(-0.00084726164 -0.00054326101 0)
(-0.00037093472 -0.00036532073 0)
(-0.00029494849 -9.098873e-05 0)
(-0.00038003946 0.00010649649 0)
(-0.00047925724 0.00019315347 0)
(-0.00053921453 0.00020556809 0)
(-0.0005611994 0.00018478408 0)
(-0.00055949717 0.00014512515 0)
(-0.00054669704 9.2488421e-05 0)
(-0.00052658751 4.0300627e-05 0)
(-0.00050095717 -5.5245807e-06 0)
(-0.00047670348 -4.6138167e-05 0)
(-0.00044765034 -4.7360685e-05 0)
(-0.00042339004 -2.1169214e-05 0)
(-0.0090487734 0.011139839 1.7703059e-23)
(-0.017329278 -0.001087386 0)
(0.00091019428 -0.015656595 0)
(0.021705809 -0.022040227 0)
(0.028051105 -0.0020237739 0)
(0.0044789801 0.021272207 0)
(-0.015241479 0.023346035 0)
(-0.023838204 0.00076748959 0)
(-0.0097531943 -0.013862691 0)
(0.0052271832 -0.014429017 0)
(0.011478972 -0.0046347622 0)
(0.0081220648 0.0041130302 0)
(0.0014154126 0.0062120858 0)
(-0.002472248 0.0045903764 0)
(-0.0035163775 0.0018499624 0)
(-0.0024071657 -0.00035292416 0)
(-0.0010625407 -0.0010132769 0)
(-0.00028563552 -0.00069132385 0)
(-0.00013147077 -0.00020347282 0)
(-0.00025984898 0.00012493594 0)
(-0.00042737632 0.00025991274 0)
(-0.00053679961 0.00027311708 0)
(-0.00058350368 0.00023925233 0)
(-0.00059118508 0.00018730818 0)
(-0.00058105722 0.00012527875 0)
(-0.00056140393 6.1170658e-05 0)
(-0.00053224606 2.6177423e-06 0)
(-0.00050241357 -4.8275426e-05 0)
(-0.00047069701 -7.3142446e-05 0)
(-0.00043662931 -6.0889879e-05 0)
(-0.00040956341 -2.4347615e-05 0)
(-0.0099597579 0.012059277 -4.688007e-23)
(-0.018079063 -0.0015227087 -1.8468352e-23)
(0.0032126035 -0.019966521 0)
(0.02513989 -0.026711238 0)
(0.029981701 0.0028747807 0)
(0.0039119024 0.024377999 0)
(-0.011451542 0.02867102 0)
(-0.031138888 0.0007296084 0)
(-0.012109812 -0.018738501 0)
(0.0074800069 -0.01963064 0)
(0.015846282 -0.0064109834 0)
(0.011581389 0.0055439986 0)
(0.0023168766 0.008922078 0)
(-0.0035597551 0.0066542834 0)
(-0.0052354148 0.0025224203 0)
(-0.0035384564 -0.00077593393 0)
(-0.0013645089 -0.0017237741 0)
(-0.00015723278 -0.0012269436 0)
(0.00014608133 -0.00039664554 0)
(-4.8597146e-05 0.00013742296 0)
(-0.00032414285 0.00035328994 0)
(-0.00051480444 0.00036971288 0)
(-0.00060363913 0.00031429278 0)
(-0.00062710342 0.00024199355 0)
(-0.00062063776 0.00016693365 0)
(-0.00060151963 8.9597714e-05 0)
(-0.00057114267 1.5575055e-05 0)
(-0.00053535513 -4.6655565e-05 0)
(-0.00050080918 -9.1041336e-05 0)
(-0.00046099493 -9.4341757e-05 0)
(-0.00042352352 -7.0338605e-05 0)
(-0.00039477321 -2.605327e-05 0)
(-0.010347979 0.012980211 4.7066417e-23)
(-0.018330686 -0.0034986743 4.0270333e-23)
(0.0037248169 -0.023409536 0)
(0.028907959 -0.027485165 0)
(0.030122175 0.0029233356 0)
(0.0034050769 0.030429268 0)
(-0.013344936 0.037891077 0)
(-0.039988923 0.00038128088 0)
(-0.014830028 -0.023634557 0)
(0.010394097 -0.0259429 0)
(0.021465386 -0.0087854702 0)
(0.016129775 0.0073711881 0)
(0.0035304443 0.012555272 0)
(-0.0050538201 0.009449023 0)
(-0.0076799229 0.0034660765 0)
(-0.0052178579 -0.0014244699 0)
(-0.0018224053 -0.0028200502 0)
(7.161318e-05 -0.002027899 0)
(0.00057664989 -0.00072235492 0)
(0.00030048349 0.000136478 0)
(-0.00013783622 0.00048906227 0)
(-0.00046561108 0.00051329734 0)
(-0.00062320182 0.00042138233 0)
(-0.00067083299 0.00031648197 0)
(-0.0006683593 0.00021935956 0)
(-0.00064736363 0.00012476263 0)
(-0.00061523748 3.447823e-05 0)
(-0.00057608544 -4.1607719e-05 0)
(-0.00053614884 -9.8261987e-05 0)
(-0.00049317809 -0.00012390977 0)
(-0.0004486428 -0.00011072963 0)
(-0.00040932266 -7.5875633e-05 0)
(-0.0003800358 -2.6454232e-05 0)
(-0.010259891 0.013812621 0)
(-0.017988805 -0.0048530735 -4.0332326e-23)
(0.003891248 -0.027623358 0)
(0.031624504 -0.031210764 0)
(0.028584916 0.0083847238 0)
(-0.0019042504 0.036787989 0)
(-0.033846027 0.042739418 0)
(-0.052302717 0.0021397275 0)
(-0.025588534 -0.031107259 0)
(0.013267428 -0.033790134 0)
(0.028340403 -0.011130978 0)
(0.021609895 0.0095984243 0)
(0.0052025067 0.017365178 0)
(-0.0070621023 0.013473002 0)
(-0.011099606 0.0047147846 0)
(-0.007593681 -0.0024070053 0)
(-0.0024967785 -0.0044407084 0)
(0.00044213909 -0.0032082657 0)
(0.0012319232 -0.001235262 0)
(0.00085053457 0.0001516953 0)
(0.00012492004 0.00068662275 0)
(-0.00039373863 0.00073007731 0)
(-0.00064816067 0.0005894945 0)
(-0.00073202945 0.00042480037 0)
(-0.0007316165 0.00028658519 0)
(-0.00070272494 0.00016676938 0)
(-0.00066467773 5.9332737e-05 0)
(-0.00062344405 -3.1197855e-05 0)
(-0.00057855821 -0.0001001473 0)
(-0.000531513 -0.00014251254 0)
(-0.0004828957 -0.00014816445 0)
(-0.00043488188 -0.00012044382 0)
(-0.00039499164 -7.7724899e-05 0)
(-0.00036553083 -2.5836621e-05 0)
(-0.009692405 0.014497183 -1.1215382e-23)
(-0.017152087 -0.0064277549 0)
(0.0042886441 -0.032149381 3.7332628e-23)
(0.03282339 -0.033401233 0)
(0.029130887 0.010372146 0)
(-0.0047569224 0.043208719 0)
(-0.042914421 0.051001899 0)
(-0.054651101 0.002837645 0)
(-0.030629944 -0.037608911 0)
(0.016608813 -0.043236506 0)
(0.036566971 -0.014408552 0)
(0.028282968 0.012464027 0)
(0.0071730839 0.023358259 0)
(-0.009749155 0.018643019 0)
(-0.015753483 0.0064563324 0)
(-0.010932453 -0.0037733828 0)
(-0.0034521939 -0.0067983744 0)
(0.0010098541 -0.0049113924 0)
(0.0022246343 -0.001988634 0)
(0.0016863327 0.00013301244 0)
(0.00058955926 0.0010268585 0)
(-0.0002949462 0.001100328 0)
(-0.00068464125 0.0008535111 0)
(-0.00082356072 0.00058265958 0)
(-0.0008219683 0.00037424217 0)
(-0.000776748 0.0002159768 0)
(-0.00072462274 8.669079e-05 0)
(-0.00067485233 -1.6482762e-05 0)
(-0.00062767405 -9.6963018e-05 0)
(-0.00057771612 -0.00015237454 0)
(-0.00052425851 -0.0001746726 0)
(-0.00046988962 -0.00016371584 0)
(-0.00042020133 -0.00012418291 0)
(-0.00038028611 -7.6966115e-05 0)
(-0.00035206014 -2.4536153e-05 0)
(-0.0085689638 0.015070769 4.7863826e-23)
(-0.015428791 -0.0078492454 1.1980311e-22)
(0.0044626378 -0.036808358 -3.730279e-23)
(0.032674267 -0.035976026 -2.1112316e-23)
(0.029599188 0.012766149 -1.4180161e-22)
(-0.007188327 0.0508164 0)
(-0.048242875 0.054830333 0)
(-0.052707856 0.0018136592 0)
(-0.024310363 -0.047748222 0)
(0.021114694 -0.056353609 0)
(0.046211347 -0.016713124 0)
(0.035700319 0.015815232 0)
(0.0093667615 0.030841304 0)
(-0.013436599 0.02582663 0)
(-0.021984822 0.0085574925 0)
(-0.015382636 -0.0057210207 0)
(-0.0047364959 -0.01006716 0)
(0.0018186078 -0.0073340173 0)
(0.0036777989 -0.0030565059 0)
(0.0029288958 8.713074e-05 0)
(0.0013303279 0.0014958626 0)
(-9.6119371e-05 0.0015945027 0)
(-0.00068125042 0.0012338174 0)
(-0.00095767766 0.00080978907 0)
(-0.00095759678 0.00048741305 0)
(-0.00087951257 0.00027130378 0)
(-0.00080013672 0.00011448557 0)
(-0.00073571202 -1.5592057e-06 0)
(-0.0006809357 -9.0679241e-05 0)
(-0.00062674555 -0.00015633327 0)
(-0.00057277944 -0.00019216588 0)
(-0.00051458159 -0.00019535435 0)
(-0.0004561529 -0.00017062608 0)
(-0.00040469023 -0.00012608193 0)
(-0.00036631584 -7.4595366e-05 0)
(-0.00033965926 -2.2950553e-05 0)
(-0.0070767072 0.015573585 -5.5519288e-23)
(-0.013069851 -0.0091306237 -1.7022713e-22)
(0.0044132771 -0.041217222 0)
(0.030977466 -0.038071804 1.977323e-22)
(0.02872284 0.01583718 1.4110706e-22)
(-0.0077906102 0.057436018 -7.3287904e-23)
(-0.051376401 0.061042607 -3.6284681e-23)
(-0.053926293 -0.0057032602 0)
(-0.018057723 -0.055743601 0)
(0.027916459 -0.069379728 0)
(0.058315686 -0.021447304 0)
(0.04545606 0.020255061 0)
(0.01160447 0.039885024 0)
(-0.018594768 0.034647375 0)
(-0.030325964 0.011460849 0)
(-0.021341666 -0.0082978159 0)
(-0.0063956465 -0.014583027 0)
(0.0029974235 -0.010649393 0)
(0.0057317848 -0.0045288856 0)
(0.0047175808 1.1191467e-06 0)
(0.0024171446 0.0021697825 0)
(0.0002798931 0.0023947972 0)
(-0.00075908768 0.0017319993 0)
(-0.0011405367 0.0011426436 0)
(-0.001164526 0.00064004782 0)
(-0.0010317489 0.0003283685 0)
(-0.00090170235 0.0001351638 0)
(-0.00080577807 7.4695445e-06 0)
(-0.0007389922 -8.5782825e-05 0)
(-0.00068204289 -0.00015721387 0)
(-0.00062370904 -0.00020262325 0)
(-0.00056530662 -0.00021823207 0)
(-0.00050327486 -0.00020656874 0)
(-0.00044329084 -0.00016923266 0)
(-0.00039183002 -0.0001229877 0)
(-0.00035331734 -7.1031177e-05 0)
(-0.0003283547 -2.1431488e-05 0)
(-0.0066804815 0.015623556 5.2598167e-24)
(-0.010130081 -0.010255681 4.7458036e-23)
(0.0040102268 -0.045334793 7.5825023e-24)
(0.028281751 -0.040107198 -8.5379043e-23)
(0.027747101 0.018094326 -1.8299043e-22)
(-0.0085265793 0.065101867 -1.4642641e-23)
(-0.05188464 0.068029145 -5.6762935e-22)
(-0.054059121 -0.0060082898 1.1584155e-22)
(-0.014044007 -0.064249968 0)
(0.0346859 -0.085655915 0)
(0.070612582 -0.024494666 0)
(0.058300471 0.023040958 0)
(0.01685998 0.050359152 0)
(-0.024678114 0.046630258 0)
(-0.041321375 0.014368567 0)
(-0.028754901 -0.011793933 0)
(-0.0084970397 -0.020556398 0)
(0.0046503512 -0.015139019 0)
(0.0085549838 -0.0065040527 0)
(0.0072289643 -0.00011951759 0)
(0.0039835817 0.0031079952 0)
(0.00086148386 0.0035606473 0)
(-0.00090739191 0.0025491655 0)
(-0.0014389755 0.0016469104 0)
(-0.0014803148 0.00084846085 0)
(-0.0012603283 0.00038825745 0)
(-0.0010451155 0.00013666834 0)
(-0.00089298854 -1.4189125e-06 0)
(-0.00080006248 -8.9444601e-05 0)
(-0.00073685703 -0.00015949654 0)
(-0.00068000747 -0.00020992304 0)
(-0.00061958434 -0.0002344862 0)
(-0.00055566346 -0.00023394427 0)
(-0.00049100825 -0.00020965315 0)
(-0.00042940882 -0.00016533925 0)
(-0.00037858968 -0.0001170685 0)
(-0.00034125743 -6.7113454e-05 0)
(-0.00031809753 -2.026936e-05 0)
(-0.0040556464 0.015473942 1.1823572e-23)
(-0.0058467487 -0.011132184 1.7004229e-24)
(0.0036490458 -0.048896113 0)
(0.025515882 -0.041485285 -3.0424849e-24)
(0.025503911 0.020448592 -9.5324132e-23)
(-0.0080227613 0.072453481 0)
(-0.05086671 0.073204246 1.3950915e-22)
(-0.053770375 -0.0070713555 2.7492588e-22)
(-0.013860565 -0.072883219 0)
(0.043584942 -0.095039933 0)
(0.081541143 -0.029072931 0)
(0.072161571 0.030438912 0)
(0.026461656 0.06329022 0)
(-0.028887191 0.059686607 0)
(-0.053302105 0.01804444 0)
(-0.037625884 -0.016578352 0)
(-0.010812963 -0.028432464 0)
(0.0069807595 -0.020948591 0)
(0.012325044 -0.009100878 0)
(0.010626483 -0.00028082287 0)
(0.0062025503 0.0043764924 0)
(0.0017202382 0.0052364226 0)
(-0.0010658566 0.0038108901 0)
(-0.0019581643 0.0023240952 0)
(-0.0019460452 0.0011840531 0)
(-0.0016258834 0.00043286478 0)
(-0.0012530564 9.943633e-05 0)
(-0.0010050994 -4.7296458e-05 0)
(-0.00086482518 -0.00011639496 0)
(-0.00078792853 -0.00016917551 0)
(-0.00073268805 -0.00021519462 0)
(-0.00067682096 -0.00024552739 0)
(-0.00061358043 -0.00025367241 0)
(-0.00054589868 -0.00024060513 0)
(-0.00047871683 -0.00020698989 0)
(-0.00041660946 -0.00015971895 0)
(-0.00036652771 -0.00011056839 0)
(-0.00033055447 -6.3473468e-05 0)
(-0.00030872917 -1.9678715e-05 0)
(-0.00076517092 0.015462049 0)
(-0.0029251416 -0.011692426 0)
(0.0030984591 -0.051655131 -1.7628608e-24)
(0.020564415 -0.042233435 0)
(0.021151395 0.02221978 1.4132823e-23)
(-0.0075339154 0.079745876 1.131854e-25)
(-0.049060415 0.079411011 -4.5690374e-22)
(-0.051184119 -0.0081546795 -5.817919e-22)
(-0.014554441 -0.078381227 0)
(0.047793872 -0.11509052 0)
(0.088785698 -0.028590801 0)
(0.074014515 0.034900261 0)
(0.015176595 0.074296749 0)
(-0.031481762 0.0768697 0)
(-0.064603223 0.020789696 0)
(-0.04773638 -0.022810075 0)
(-0.013130132 -0.038327448 0)
(0.01023096 -0.028511088 0)
(0.017278195 -0.012286941 0)
(0.015122204 -0.00051992753 0)
(0.0092337604 0.0060622831 0)
(0.0029378226 0.0075305793 0)
(-0.0012396213 0.0056718475 0)
(-0.0027425854 0.0033349305 0)
(-0.0027130782 0.0015971316 0)
(-0.0021488564 0.00050421812 0)
(-0.0015705863 1.5443693e-06 0)
(-0.001157361 -0.00016286792 0)
(-0.00093279185 -0.00019067494 0)
(-0.00082946496 -0.00020112322 0)
(-0.00077588708 -0.00022399331 0)
(-0.00072964862 -0.00025016406 0)
(-0.00067356023 -0.00026594824 0)
(-0.00060704513 -0.00026271847 0)
(-0.00053572227 -0.00024073202 0)
(-0.00046568157 -0.00020041517 0)
(-0.00040417631 -0.00015316153 0)
(-0.00035536967 -0.0001049592 0)
(-0.00032049759 -6.1143852e-05 0)
(-0.00029980509 -1.9807262e-05 0)
(-0.00065744786 -0.011953924 -5.1394869e-25)
(0.0015759501 0.015518738 0)
(0.0011761447 -0.05382826 -1.9113206e-23)
(0.015829494 -0.042715433 2.376629e-23)
(0.01697127 0.023340522 9.2906101e-23)
(-0.0063964578 0.086474245 4.4943563e-24)
(-0.04598647 0.084683939 3.0885918e-23)
(-0.048670097 -0.0088517889 -4.8122183e-23)
(-0.014575674 -0.085046456 8.6978731e-22)
(0.046717783 -0.13149404 0)
(0.094171262 -0.030982024 -8.9053749e-22)
(0.071544797 0.046340723 0)
(0.010133489 0.087656337 0)
(-0.024875381 0.09862511 0)
(-0.080349211 0.027092204 0)
(-0.062422255 -0.029769032 0)
(-0.015559792 -0.050469472 0)
(0.014673555 -0.037720592 0)
(0.023618879 -0.016338213 0)
(0.020910414 -0.00075391419 0)
(0.013299502 0.0082055773 0)
(0.0046832865 0.01064391 0)
(-0.0014500619 0.0083289913 0)
(-0.0038773241 0.0048215897 0)
(-0.003903688 0.0021536092 0)
(-0.0029465692 0.00055663478 0)
(-0.0020613083 -0.00020722998 0)
(-0.0013703387 -0.00037036522 0)
(-0.0010065187 -0.00034062068 0)
(-0.00085287621 -0.00027652915 0)
(-0.00079885683 -0.00024791601 0)
(-0.00076950895 -0.00025194319 0)
(-0.00072955181 -0.00026730937 0)
(-0.00067131594 -0.00027477507 0)
(-0.0006005396 -0.00026456602 0)
(-0.00052519373 -0.00023624324 0)
(-0.00045342823 -0.00019351091 0)
(-0.00039226429 -0.0001469326 0)
(-0.00034446522 -0.00010223067 0)
(-0.00031082909 -6.0650397e-05 0)
(-0.00029118837 -2.0617176e-05 0)
(-0.00022846834 -0.054685231 1.9488186e-23)
(0.0022439234 -0.011913576 0)
(0.0046600586 0.015716126 -6.1014689e-24)
(0.0093544518 -0.042680133 -2.3748051e-23)
(0.012512987 0.024420575 -2.3174763e-23)
(-0.0052754808 0.092250966 8.1388156e-23)
(-0.041550845 0.089350936 1.8226045e-23)
(-0.043579638 -0.0098107126 3.0923824e-22)
(-0.013512792 -0.091069979 5.2042412e-22)
(0.044924515 -0.14898742 -3.0344587e-22)
(0.095182266 -0.037187964 -8.2184475e-22)
(0.069202751 0.050906087 9.2934397e-22)
(0.009925953 0.098477728 0)
(-0.035007742 0.12358629 0)
(-0.11408178 0.033538427 0)
(-0.083817401 -0.035601223 0)
(-0.022147366 -0.065937784 0)
(0.021024052 -0.04919211 0)
(0.031604223 -0.020742499 0)
(0.028125177 -0.0011528333 0)
(0.018571472 0.010909572 0)
(0.0070670409 0.014731475 0)
(-0.0016578845 0.012003272 0)
(-0.0054906013 0.007015973 0)
(-0.0056626588 0.0029358487 0)
(-0.0042274843 0.00053243427 0)
(-0.0027237772 -0.0004975305 0)
(-0.0017058468 -0.00077228627 0)
(-0.0010906099 -0.00062552599 0)
(-0.00084640051 -0.00042573249 0)
(-0.00078583007 -0.00030313533 0)
(-0.00078217833 -0.00025790795 0)
(-0.00077149499 -0.00025864585 0)