/*--------------------------------*- C++ -*----------------------------------*\
| =========                 |                                                 |
| \\      /  F ield         | OpenFOAM: The Open Source CFD Toolbox           |
|  \\    /   O peration     | Version:  5.0                                   |
|   \\  /    A nd           | Web:      www.OpenFOAM.org                      |
|    \\/     M anipulation  |                                                 |
\*---------------------------------------------------------------------------*/
FoamFile
{
    version     2.0;
    format      ascii;
    class       volScalarField;
    location    "380";
    object      ddt0(nuTilda);
}
// * * * * * * * * * * * * * * * * * * * * * * * * * * * * * * * * * * * * * //

dimensions      [0 2 -2 0 0 0 0];

internalField   nonuniform List<scalar> 
9520
(
4.2929795e-37
-1.7398582e-35
-1.0740713e-35
-4.9277284e-33
-1.2458732e-33
-1.654245e-35
-3.2432389e-31
-6.9201742e-32
-1.8203506e-33
-9.6737542e-36
-1.2468209e-29
-2.435899e-30
-9.5060886e-32
-8.9687097e-34
9.0815715e-36
-3.3769705e-28
-6.1575792e-29
-3.1186144e-30
-3.6959959e-32
1.3614695e-33
3.1331425e-35
-7.0285156e-27
-1.2098983e-27
-7.2514838e-29
-8.4623441e-31
9.1298072e-32
3.8230812e-33
4.4352602e-35
-1.1671678e-25
-1.93677e-26
-1.2904251e-27
-9.550448e-30
3.7228562e-30
2.1925896e-31
4.8952177e-33
3.6347052e-35
-1.5773764e-24
-2.5795757e-25
-1.8414734e-26
5.0406706e-29
1.060005e-28
7.8794541e-30
2.5451201e-31
3.3099782e-33
2.3497088e-36
-1.7528307e-23
-2.8705839e-24
-2.1586706e-25
4.6301881e-27
2.2906427e-27
2.0083463e-28
8.2896249e-30
1.3404417e-31
-1.1236531e-33
-5.0487255e-35
-1.6034288e-22
-2.628085e-23
-2.1145977e-24
1.1189242e-25
3.9633467e-26
3.9126907e-27
1.9023381e-28
3.0275012e-30
-1.3223425e-31
-7.0887593e-33
-1.0188099e-34
-1.236787e-21
-1.8575186e-22
-1.7310173e-23
1.7558395e-24
5.6775005e-25
6.1222277e-26
3.2827762e-27
3.4086824e-29
-6.8908259e-30
-4.4749393e-31
-1.1969814e-32
-1.2414452e-34
-9.7507241e-22
-5.6222368e-22
-1.1752585e-22
2.0275211e-23
6.8171966e-24
7.970994e-25
4.4228733e-26
-1.812035e-28
-2.2565691e-28
-1.7320944e-29
-6.5721959e-31
-1.2763426e-32
-9.3821137e-35
1.5000751e-18
4.0552781e-20
-7.0540062e-22
1.6757035e-22
6.9115344e-23
8.834638e-24
4.772957e-25
-1.6846122e-26
-5.3349391e-27
-4.6850139e-28
-2.2576204e-29
-6.1073948e-31
-7.4610731e-33
-5.0644404e-36
1.3892748e-16
3.4274484e-18
-1.0265798e-21
4.9734642e-22
5.8817e-22
8.5152946e-23
4.2338983e-24
-4.1247715e-25
-9.8435194e-26
-9.5622142e-27
-5.4744396e-28
-1.7984631e-29
-2.3547217e-31
3.6462335e-33
1.219176e-34
7.6700768e-15
1.920372e-16
-2.5930071e-19
-4.0954027e-20
3.9480271e-21
7.339074e-22
3.2267537e-23
-6.7087698e-24
-1.4837214e-24
-1.5531353e-25
-1.0011222e-26
-3.6197867e-28
-2.346674e-30
4.0555607e-31
1.7436484e-32
2.4351671e-34
2.9155944e-13
7.7992125e-15
-6.3360406e-17
-3.8051822e-18
-8.7131879e-21
5.8528618e-21
2.4001715e-22
-8.3978596e-23
-1.8695231e-23
-2.0861803e-24
-1.4388954e-25
-5.1266911e-27
8.4231394e-29
2.0614828e-29
1.1059592e-30
2.8701526e-32
3.0741536e-34
7.7169509e-12
2.2916775e-13
-5.2054664e-15
-2.6213582e-16
-2.772146e-18
3.9563363e-20
2.2042583e-21
-8.5234397e-22
-2.0160474e-22
-2.3700995e-23
-1.6751189e-24
-4.7357925e-26
4.352164e-27
6.6219923e-28
4.2709357e-29
1.576331e-30
3.204404e-32
2.7331084e-34
1.453191e-10
4.8663831e-12
-2.5618498e-13
-1.3438674e-14
-1.7281733e-16
1.4430747e-19
3.6454817e-20
-7.1049811e-21
-1.9010103e-21
-2.3288283e-22
-1.6037016e-23
-1.4887654e-25
1.1158104e-25
1.5298564e-26
1.1470664e-27
5.3959737e-29
1.5564923e-30
2.4109553e-32
1.3010689e-34
1.8448571e-09
7.2112466e-11
-8.20827e-12
-5.0479652e-13
-7.5007712e-15
2.5131079e-17
2.0106432e-18
-3.3567176e-20
-1.5979989e-20
-2.0280375e-21
-1.2705512e-22
3.8728753e-24
2.0398391e-24
2.7474075e-25
2.3103556e-26
1.2979405e-27
4.6652863e-29
9.2994043e-31
5.1126506e-33
-9.7669786e-35
1.5664841e-08
7.4348212e-10
-1.7728195e-10
-1.3679159e-11
-2.3107562e-13
3.1679271e-15
1.6167579e-16
1.7088505e-18
-1.155259e-19
-1.6105682e-20
-8.3662274e-22
9.3566145e-23
2.9134571e-23
4.0159746e-24
3.6771442e-25
2.3416449e-26
9.5984509e-28
1.89693e-29
-2.1586201e-31
-2.0965605e-32
-3.558362e-34
8.443018e-08
4.4912468e-09
-2.4975685e-09
-2.6145486e-10
-4.9687431e-12
1.9610061e-13
1.0264758e-14
1.6052054e-16
-1.9419406e-19
-1.2144417e-19
-4.6608193e-21
1.29116e-21
3.4280285e-22
4.884842e-23
4.7974853e-24
3.2949303e-25
1.4071476e-26
1.4228333e-28
-2.363804e-29
-1.6089646e-30
-4.7464257e-32
-5.757147e-34
3.1292123e-07
1.532098e-08
-2.3838911e-08
-3.344475e-09
-7.0964828e-11
7.4896742e-12
4.6963007e-13
9.3703396e-15
3.0485836e-17
-1.2022343e-18
-2.6226494e-20
1.3595884e-20
3.4349379e-21
5.05463e-22
5.2240284e-23
3.7058087e-24
1.4098649e-25
-3.6789465e-27
-9.6514362e-28
-7.0091981e-29
-2.8722236e-30
-6.6924694e-32
-6.9292447e-34
8.2195719e-07
1.7563123e-08
-1.4970763e-07
-2.9215939e-08
-5.058771e-10
1.8345456e-10
1.5161766e-11
3.8709254e-13
7.439906e-16
-5.3022654e-17
-4.8936248e-19
1.1738629e-19
3.0042822e-20
4.5394572e-21
4.8183034e-22
3.3378872e-23
7.0623395e-25
-1.610525e-25
-2.5266032e-26
-2.0536501e-27
-1.0710279e-28
-3.6289325e-30
-7.3117115e-32
-6.6392103e-34
1.5929095e-06
-8.9785458e-08
-6.4282157e-07
-1.7254709e-07
-7.710864e-10
2.8034187e-09
3.3738092e-10
1.1194093e-11
-3.3418004e-14
-4.1130948e-15
-3.7683817e-17
7.5613152e-19
2.3423977e-19
3.6112147e-20
3.8141483e-21
2.3371193e-22
-5.5334845e-24
-3.4916652e-24
-4.9237019e-25
-4.4308131e-26
-2.7941136e-27
-1.2282276e-28
-3.6021809e-30
-6.2609504e-32
-4.7588028e-34
2.5947227e-06
-3.6497242e-07
-1.8870724e-06
-6.7058237e-07
1.7950849e-08
2.9433254e-08
5.0597117e-09
2.208898e-10
-3.2266118e-12
-2.3369719e-13
-2.6556735e-15
-6.7640113e-18
1.6340418e-18
2.6032049e-19
2.630545e-20
1.1293756e-21
-1.9012504e-22
-5.407979e-23
-7.6358817e-24
-7.4946158e-25
-5.4696741e-26
-2.9251268e-27
-1.0986292e-28
-2.6822453e-30
-3.5504077e-32
-1.4842409e-34
4.1620229e-06
-5.7625523e-07
-3.9284061e-06
-1.7644241e-06
1.7702354e-07
2.1484895e-07
5.0770402e-08
2.898574e-09
-1.1774716e-10
-9.0037835e-12
-1.340537e-13
-7.8702334e-16
8.5305903e-18
1.7374394e-18
1.6139696e-19
1.3956194e-21
-2.8361944e-21
-6.6509067e-22
-9.6928339e-23
-1.0358934e-23
-8.4361569e-25
-5.2173975e-26
-2.317195e-27
-6.7014807e-29
-9.495293e-31
4.686768e-33
2.7130537e-34
4.715677e-06
-4.9817654e-07
-6.3386737e-06
-3.5278329e-06
8.0164995e-07
1.0435682e-06
3.3778397e-07
2.4531708e-08
-2.4516531e-09
-2.3155562e-10
-4.7499822e-12
-3.6925682e-14
-3.211205e-17
1.1816363e-17
9.1378848e-19
-4.264806e-20
-3.1122362e-20
-6.8188844e-21
-1.0332608e-21
-1.1913258e-22
-1.0624127e-23
-7.2279668e-25
-3.5330104e-26
-1.0024076e-27
5.1776092e-31
1.3439453e-30
5.1765705e-32
7.1726165e-34
4.7835058e-06
-1.6366699e-06
-8.9291449e-06
-5.9075803e-06
2.1775246e-06
3.4295941e-06
1.4849889e-06
1.2957156e-07
-3.1664324e-08
-3.966151e-09
-1.1187894e-10
-1.1568748e-12
3.1568046e-16
2.2088002e-16
6.5793503e-18
-5.9436289e-19
-2.806237e-19
-6.0057822e-20
-9.4316751e-21
-1.1584052e-21
-1.1087779e-22
-7.9638955e-24
-3.8314399e-25
-5.9389958e-27
8.3183142e-28
8.2102366e-29
3.8208611e-30
9.7876276e-32
1.1144458e-33
4.9293582e-06
-2.2699133e-06
-1.0960868e-05
-8.4534985e-06
3.8448817e-06
7.8999408e-06
4.3762999e-06
3.9485704e-07
-2.6149194e-07
-4.5439321e-08
-1.8203107e-09
-2.7066411e-11
2.3968527e-13
1.5520918e-14
2.5472051e-16
-4.2075084e-18
-2.1805424e-18
-4.6409556e-19
-7.4938621e-20
-9.6429156e-21
-9.6661104e-22
-6.9499404e-23
-2.5739266e-24
1.2929059e-25
3.1354247e-26
2.8756978e-27
1.6345146e-28
6.0389077e-30
1.3465821e-31
1.3894727e-33
4.4111678e-06
-2.6713877e-06
-1.1942065e-05
-9.551041e-06
5.2595276e-06
1.3676106e-05
8.9938679e-06
5.6211748e-07
-1.4087527e-06
-3.4725589e-07
-2.0558931e-08
-4.1058579e-10
1.2944079e-11
9.4042879e-13
2.0054383e-14
9.9284634e-17
-1.4863073e-17
-3.2049335e-18
-5.253437e-19
-6.9415457e-20
-7.0415456e-21
-4.5850928e-22
6.5700402e-26
4.7078966e-24
7.2622136e-25
6.9807742e-26
4.7464779e-27
2.2887584e-28
7.5580877e-30
1.5450468e-31
1.4820187e-33
3.7965548e-06
-3.0725082e-06
-1.2411238e-05
-9.7769664e-06
7.1038299e-06
1.9072236e-05
1.3974505e-05
-1.5573493e-07
-5.0296717e-06
-1.7704696e-06
-1.5661016e-07
-3.7918111e-09
3.8488263e-10
3.7607156e-11
1.1575499e-12
1.0661866e-14
-8.3008373e-17
-2.016597e-17
-3.2943827e-18
-4.3543936e-19
-4.2350726e-20
-1.8695319e-21
2.9168124e-22
8.5946077e-23
1.2535623e-23
1.2918229e-24
1.0166758e-25
6.0507211e-27
2.6389671e-28
8.0150374e-30
1.5194942e-31
1.356665e-33
2.9333182e-06
-3.6885421e-06
-1.1994502e-05
-9.6006238e-06
8.6223722e-06
2.3208646e-05
1.8040593e-05
-1.9237154e-06
-1.2274899e-05
-5.9815953e-06
-7.9102477e-07
-1.6596799e-08
7.0845298e-09
9.8151777e-10
4.4234562e-11
5.6417368e-13
-9.1927977e-16
-1.3327839e-16
-1.8764978e-17
-2.3933841e-18
-2.0215685e-19
2.558485e-21
5.0250539e-21
1.1461066e-21
1.7118585e-22
1.9280286e-23
1.7027242e-24
1.1953115e-25
6.457308e-27
2.5808271e-28
7.2004965e-30
1.2498452e-31
1.0126336e-33
2.040664e-06
-4.3047353e-06
-1.1644814e-05
-8.7612902e-06
9.4096181e-06
2.5049558e-05
2.0464426e-05
-4.1109877e-06
-2.1803807e-05
-1.4296964e-05
-2.6436723e-06
2.2126135e-08
8.422024e-08
1.6572265e-08
1.0979337e-09
1.8809531e-11
-1.1221417e-13
-2.7659665e-15
-1.0367904e-16
-1.1598665e-17
-6.6219828e-19
1.369152e-19
5.7356389e-20
1.2292258e-20
1.9246918e-21
2.366641e-22
2.3329861e-23
1.8523623e-24
1.1789094e-25
5.7723704e-27
2.0766184e-28
5.1225941e-30
7.586988e-32
4.8767809e-34
1.0370354e-06
-4.9180493e-06
-1.1107847e-05
-7.5916263e-06
9.8395278e-06
2.5355192e-05
1.9762704e-05
-7.3598323e-06
-3.0993139e-05
-2.5489403e-05
-5.9528574e-06
6.5056071e-07
6.687227e-07
1.8006848e-07
1.7461587e-08
3.9062925e-10
-7.810151e-12
-1.7032267e-13
-1.118479e-15
-5.0460196e-17
-2.8589073e-19
1.5947059e-18
5.1823618e-19
1.1068433e-19
1.8291488e-20
2.4387099e-21
2.6493454e-22
2.3439189e-23
1.6758391e-24
9.4606092e-26
3.9986659e-27
1.1716637e-28
2.0288747e-30
1.1055535e-32
-1.4669382e-34
6.6614345e-08
-5.4969309e-06
-1.0461275e-05
-6.2805273e-06
1.023244e-05
2.4724508e-05
1.844904e-05
-9.859876e-06
-3.7465017e-05
-3.5894707e-05
-9.5812346e-06
3.4983063e-06
3.4099486e-06
1.2577491e-06
1.764196e-07
4.858923e-09
-2.9146792e-10
-8.2785092e-12
-4.7738067e-14
-2.6837852e-16
1.5733994e-17
1.3157342e-17
3.9416215e-18
8.5832096e-19
1.4962143e-19
2.1431911e-20
2.5324278e-21
2.4479187e-22
1.9044301e-23
1.1655901e-24
5.1906915e-26
1.3570667e-27
-7.7108497e-31
-1.6300976e-30
-5.994918e-32
-7.9898294e-34
-6.032906e-07
-5.850493e-06
-9.6844046e-06
-4.8401442e-06
1.051899e-05
2.3615542e-05
1.6483231e-05
-1.0839646e-05
-3.9591487e-05
-4.2042059e-05
-1.1713656e-05
1.0289221e-05
1.1438339e-05
5.6736492e-06
1.1252609e-06
3.3343073e-08
-6.3839295e-09
-2.6099916e-10
-2.161991e-12
-7.5920789e-15
1.5161297e-16
8.8961363e-17
2.612121e-17
5.8384e-18
1.0679533e-18
1.6264794e-19
2.0565921e-20
2.1242051e-21
1.7332136e-22
1.0466153e-23
3.8385569e-25
-4.1978172e-27
-1.7471618e-27
-1.2782468e-28
-5.2938386e-30
-1.2661962e-31
-1.3772429e-33
-1.193187e-06
-5.7653255e-06
-8.7954062e-06
-3.3662495e-06
1.0652249e-05
2.2210842e-05
1.4442518e-05
-1.1006081e-05
-3.926517e-05
-4.363411e-05
-1.1772506e-05
2.0329858e-05
2.6257158e-05
1.6755495e-05
4.5250826e-06
9.0471651e-08
-8.5332041e-08
-5.2705166e-09
-6.9629443e-11
-3.9116728e-13
1.6188818e-16
5.2183049e-16
1.5454709e-16
3.5394386e-17
6.732799e-18
1.0752276e-18
1.4281277e-19
1.5304108e-20
1.2316012e-21
5.936864e-23
-1.011832e-24
-5.447548e-25
-6.4732866e-26
-4.8121754e-27
-2.4411647e-28
-8.418278e-30
-1.7974045e-31
-1.8085266e-33
-1.7731486e-06
-5.1776409e-06
-7.70723e-06
-2.0794077e-06
1.0708151e-05
2.0605419e-05
1.2294561e-05
-1.0995393e-05
-3.6372011e-05
-4.3266131e-05
-1.0466477e-05
3.0513618e-05
4.4104375e-05
3.3731867e-05
1.1580037e-05
-2.6788888e-07
-7.104699e-07
-6.763924e-08
-1.4982351e-09
-1.4490046e-11
-5.5209609e-14
2.6792116e-15
8.3374236e-16
1.9434044e-16
3.7933169e-17
6.2445797e-18
8.4912412e-19
9.0192592e-20
6.196911e-21
-1.2142135e-23
-7.823622e-23
-1.3428612e-23
-1.4626578e-24
-1.1963087e-25
-7.3587319e-27
-3.3281982e-28
-1.0596153e-29
-2.1329796e-31
-2.0523835e-33
-1.7452993e-06
-3.8714385e-06
-4.8949643e-06
-1.4795931e-06
1.029886e-05
1.8830062e-05
1.0004294e-05
-1.0794282e-05
-3.3172139e-05
-4.1773905e-05
-8.5638595e-06
3.7967967e-05
5.9189782e-05
4.9442819e-05
1.9682918e-05
-2.8487658e-06
-3.7661454e-06
-5.4902704e-07
-2.1216594e-08
-3.535102e-10
-2.561007e-12
6.6452993e-15
4.2115036e-15
9.8449926e-16
1.9336496e-16
3.2047705e-17
4.3079286e-18
4.1347305e-19
1.1856554e-20
-5.2357274e-21
-1.3876147e-21
-2.1498617e-22
-2.4626911e-23
-2.2185634e-24
-1.6046484e-25
-9.0414502e-27
-3.8375752e-28
-1.1633862e-29
-2.2538765e-31
-2.1047649e-33
-1.6212762e-06
5.3970107e-07
-1.5774e-06
-1.5750846e-06
9.283838e-06
1.6771575e-05
7.4077366e-06
-1.0669993e-05
-2.9672123e-05
-3.8719826e-05
-9.4947164e-06
4.2334493e-05
6.7377937e-05
5.8339258e-05
2.333791e-05
-9.8308894e-06
-1.3059983e-05
-2.9631801e-06
-1.9711458e-07
-5.6044726e-09
-6.9643428e-11
-2.2118295e-13
2.3168452e-14
4.7622117e-15
9.0636202e-16
1.4593725e-16
1.8209085e-17
1.209721e-18
-1.6594505e-19
-7.8125021e-20
-1.6886602e-20
-2.6442855e-21
-3.2704354e-22
-3.2806356e-23
-2.7040541e-24
-1.8233733e-25
-9.7156274e-27
-3.9487937e-28
-1.1563363e-29
-2.1795354e-31
-1.9924699e-33
8.4414605e-07
2.4242882e-06
1.3325695e-06
-1.9929543e-06
7.8848694e-06
1.4495334e-05
4.6836798e-06
-1.0620022e-05
-2.5416001e-05
-3.5025068e-05
-1.0150199e-05
4.3229666e-05
6.909032e-05
5.8540875e-05
2.1487842e-05
-2.053264e-05
-3.0902837e-05
-1.0810709e-05
-1.2098741e-06
-5.7529162e-08
-1.1737056e-09
-4.3090272e-12
4.4626402e-13
3.0998056e-14
4.0732268e-15
5.915398e-16
5.9544815e-17
-9.9948236e-19
-2.5286776e-18
-7.7970959e-19
-1.6271041e-19
-2.662027e-20
-3.5672659e-21
-3.9737903e-22
-3.6949114e-23
-2.8757732e-24
-1.8459423e-25
-9.4408829e-27
-3.7137622e-28
-1.0593533e-29
-1.9562345e-31
-1.7612021e-33
-1.752736e-06
2.8327583e-06
4.6649402e-06
1.0065139e-06
5.9418484e-06
1.1938268e-05
1.9742962e-06
-1.0363987e-05
-2.0233413e-05
-3.0783701e-05
-1.0784519e-05
4.1152273e-05
6.8476987e-05
5.5052596e-05
1.466731e-05
-3.1245567e-05
-5.3017415e-05
-2.7677682e-05
-4.981008e-06
-3.8287079e-07
-1.1930919e-08
6.727389e-11
2.3314171e-11
1.0421241e-12
3.0559258e-14
2.1878275e-15
1.0934537e-16
-4.7538179e-17
-2.2272897e-17
-6.1905425e-18
-1.3101349e-18
-2.2656681e-19
-3.2847471e-20
-4.0312732e-21
-4.194656e-22
-3.6972531e-23
-2.7563544e-24
-1.7025616e-25
-8.428657e-27
-3.2302346e-28
-9.0260527e-30
-1.6410803e-31
-1.4616865e-33
3.2611759e-06
-3.4216385e-06
4.7327099e-06
5.6269549e-06
4.3078651e-07
9.2649686e-06
-7.4550382e-07
-9.8369722e-06
-1.4791344e-05
-2.612543e-05
-1.1251037e-05
3.8280966e-05
6.4794916e-05
4.7746621e-05
6.8732349e-06
-4.014946e-05
-7.0856212e-05
-5.2172645e-05
-1.419639e-05
-1.6554213e-06
-6.7114636e-08
4.2626655e-09
8.5114357e-10
5.5890142e-11
1.4156354e-12
1.6413491e-14
-3.5344237e-16
-4.2285382e-16
-1.5296003e-16
-4.1514538e-17
-9.0754406e-18
-1.6641183e-18
-2.6013989e-19
-3.4897925e-20
-4.0222818e-21
-3.9735512e-22
-3.3582389e-23
-2.4161717e-24
-1.4443372e-25
-6.9588621e-27
-2.6087756e-28
-7.1661387e-30
-1.2871545e-31
-1.1380986e-33
6.4006212e-06
-1.3505906e-06
-3.1828744e-06
6.5087004e-06
5.8846186e-06
-2.8064664e-07
-3.1375529e-06
-8.8321452e-06
-9.2487067e-06
-2.1327731e-05
-1.1774462e-05
3.4969723e-05
6.0503321e-05
4.3154417e-05
1.017029e-06
-4.2908713e-05
-8.0097724e-05
-7.629493e-05
-2.9175946e-05
-4.6975771e-06
-1.3551604e-07
8.0133753e-08
1.8558811e-08
1.8932391e-09
7.5779798e-11
9.521528e-13
-3.4682799e-15
-2.8035285e-15
-8.9199588e-16
-2.4244252e-16
-5.5116882e-17
-1.0707664e-17
-1.7967655e-18
-2.615651e-19
-3.3063047e-20
-3.6217342e-21
-3.4252042e-22
-2.7920174e-23
-1.9449847e-24
-1.1278892e-25
-5.2965452e-27
-1.944146e-28
-5.2543666e-30
-9.3345687e-32
-8.2097739e-34
-4.9154316e-06
2.7688072e-06
-4.5626049e-06
-1.9468069e-06
7.9597356e-06
5.7852064e-06
-1.2315631e-06
-7.24933e-06
-3.5868327e-06
-1.663155e-05
-1.2571744e-05
3.1379141e-05
5.5794631e-05
3.804647e-05
-2.1235684e-06
-3.9499654e-05
-8.0704685e-05
-9.2776969e-05
-4.5755375e-05
-8.7783076e-06
6.2817955e-07
8.0005939e-07
2.4411711e-07
3.8079217e-08
2.4369043e-09
5.0280528e-11
1.3870452e-13
-1.640276e-14
-4.6393423e-15
-1.257224e-15
-2.9756125e-16
-6.1074011e-17
-1.0944566e-17
-1.7169346e-18
-2.3585468e-19
-2.8326958e-20
-2.963802e-21
-2.690523e-22
-2.1158281e-23
-1.4237937e-24
-7.9777515e-26
-3.6324796e-27
-1.2977935e-28
-3.4317394e-30
-6.0064519e-32
-5.2502562e-34
-3.7054759e-06
-5.4348141e-06
-5.5301472e-07
-6.7492716e-06
-3.7697797e-07
9.043234e-06
5.319774e-06
-2.196232e-06
1.3339842e-06
-1.1707566e-05
-1.3451572e-05
2.7511737e-05
5.1011039e-05
3.2248867e-05
-6.408859e-06
-3.5910578e-05
-6.9946018e-05
-0.00010094978
-5.873735e-05
-1.0849291e-05
5.269718e-06
4.7658932e-06
1.9747956e-06
4.6022927e-07
4.5911088e-08
1.5249147e-09
7.5771068e-12
-1.5418466e-13
-2.2343694e-14
-5.8867946e-15
-1.4442165e-15
-3.1181293e-16
-5.9339371e-17
-9.9615185e-18
-1.4742632e-18
-1.9198882e-19
-2.192754e-20
-2.1849885e-21
-1.8911639e-22
-1.4180666e-23
-9.0550895e-25
-4.7935605e-26
-2.0573255e-27
-6.9287315e-29
-1.736301e-30
-2.918963e-32
-2.5070767e-34
7.6423149e-06
2.4522987e-07
-6.0181665e-06
-4.5081128e-06
-8.2123363e-06
1.1004643e-06
9.9539006e-06
4.6836318e-06
-3.0594718e-06
-7.7609028e-06
-1.5365322e-05
2.3357326e-05
4.5959397e-05
2.6555217e-05
-1.0172928e-05
-3.2498116e-05
-5.942917e-05
-9.93328e-05
-6.5849036e-05
-8.6608826e-06
1.7722965e-05
1.7899534e-05
1.0025462e-05
3.3892533e-06
5.1329186e-07
2.6478249e-08
1.5106196e-10
-6.3469238e-12
-1.2332961e-13
-2.5381875e-14
-6.3642059e-15
-1.4371336e-15
-2.8860806e-16
-5.1466238e-17
-8.1320656e-18
-1.1350018e-18
-1.3929104e-19
-1.4929883e-20
-1.3842043e-21
-1.1003278e-22
-7.4199389e-24
-4.1006505e-25
-1.7741056e-26
-5.6614921e-28
-1.1907085e-29
-1.2235376e-31
3.05578e-34
1.1982178e-35
-3.6976614e-06
1.2386784e-05
3.4570589e-06
-7.5816504e-06
-8.6390796e-06
-9.2386799e-06
2.722464e-06
1.0630382e-05
4.0432043e-06
-3.8618321e-06
-1.5959138e-05
1.8969352e-05
4.0803381e-05
2.0678478e-05
-1.4168994e-05
-2.9159343e-05
-4.8029527e-05
-9.1680899e-05
-7.7615799e-05
-2.6677145e-06
3.7262247e-05
4.4525979e-05
3.2658368e-05
1.5445602e-05
3.4427977e-06
2.654848e-07
4.7120948e-10
-2.7293074e-10
-2.6808616e-12
-1.0458086e-13
-2.5746551e-14
-6.0256317e-15
-1.2676044e-15
-2.3813733e-16
-3.9757338e-17
-5.8633776e-18
-7.572638e-19
-8.4473468e-20
-7.9487734e-21
-6.0316973e-22
-3.341346e-23
-8.4668856e-25
7.411882e-26
1.2006263e-26
9.1710764e-28
4.5688274e-29
1.5091841e-30
3.0251236e-32
2.789687e-34
-1.6652015e-05
7.2309466e-07
1.6460986e-05
5.5984126e-06
-9.2141593e-06
-1.2837018e-05
-9.8782918e-06
4.3552264e-06
1.1171048e-05
3.3840413e-06
-4.4516581e-06
1.404001e-05
3.5451521e-05
1.4904839e-05
-1.7975535e-05
-2.5986262e-05
-3.6213847e-05
-8.078477e-05
-8.2972935e-05
-6.3304425e-06
5.8631197e-05
7.856032e-05
7.0643901e-05
4.4210944e-05
1.398577e-05
1.5326607e-06
-2.8318252e-08
-7.0263092e-09
-1.1616023e-10
-6.439938e-13
-9.7119482e-14
-2.3156732e-14
-5.056579e-15
-9.9064109e-16
-1.7241625e-16
-2.6324625e-17
-3.4548599e-18
-3.7430892e-19
-3.0160001e-20
-1.0685603e-21
1.7253134e-22
4.3981741e-23
5.9215135e-24
5.8000365e-25
4.3518485e-26
2.5060227e-27
1.0786637e-28
3.277764e-30
6.2728498e-32
5.6767869e-34
8.575561e-06
-1.6539889e-05
4.9973637e-06
2.0074518e-05
7.2706774e-06
-1.1059093e-05
-1.6948298e-05
-9.9680127e-06
5.806962e-06
1.1551701e-05
2.7441339e-06
-4.8485621e-06
2.9835556e-05
8.9208792e-06
-2.179826e-05
-2.261523e-05
-2.4621176e-05
-6.677835e-05
-8.4784548e-05
-1.1416393e-05
7.1957983e-05
0.00010814011
0.00010852796
8.2293898e-05
3.4823039e-05
4.9758418e-06
-4.7793892e-07
-1.0671009e-07
-3.2233438e-09
-1.7778447e-11
-3.6872064e-13
-8.2326611e-14
-1.8408728e-14
-3.7107153e-15
-6.6005024e-16
-1.0069174e-16
-1.2412998e-17
-1.0230911e-18
1.0602838e-20
2.5028325e-20
6.0675636e-21
9.9746443e-22
1.2834431e-22
1.3441278e-23
1.1489034e-24
7.9258452e-26
4.3165155e-27
1.7880391e-28
5.2922037e-30
9.9570568e-32
8.9315306e-34
2.366126e-05
3.2656785e-06
-1.5738283e-05
9.2570513e-06
2.346731e-05
8.6759216e-06
-1.2958926e-05
-1.9770473e-05
-9.9054741e-06
7.2100319e-06
1.1740837e-05
2.3329452e-06
-4.6630146e-06
2.8603534e-06
-2.5234284e-05
-1.8808084e-05
-1.3343638e-05
-5.223552e-05
-8.3697034e-05
-1.7554905e-05
7.6188219e-05
0.00013109564
0.00013038816
0.00010727711
5.5318307e-05
8.5673277e-06
-3.5078681e-06
-9.7805102e-07
-5.2547191e-08
-5.809261e-10
-3.1611511e-12
-2.7567621e-13
-6.1439146e-14
-1.2490952e-14
-2.1955888e-15
-3.0939872e-16
-2.679743e-17
1.8384431e-18
1.497894e-18
4.189704e-19
8.5221246e-20
1.406104e-20
1.9423927e-21
2.264925e-22
2.2253603e-23
1.8170762e-24
1.2119576e-25
6.4341176e-27
2.6138068e-28
7.623727e-30
1.4193893e-31
5.993388e-36
-3.4284527e-06
1.6615041e-05
-2.4493912e-06
-1.4280208e-05
1.3518437e-05
2.669709e-05
9.8778298e-06
-1.4261113e-05
-2.160422e-05
-9.6776804e-06
8.4928025e-06
1.1971242e-05
1.9239291e-06
-4.7954324e-06
-2.79845e-05
-1.2768956e-05
-2.0805482e-06
-3.8504499e-05
-7.9832429e-05
-2.3945327e-05
7.5892019e-05
0.00013709856
0.00014268806
0.00010782932
6.0122316e-05
6.4704915e-06
-1.4199116e-05
-5.5517552e-06
-5.186968e-07
-1.1584853e-08
-9.1338106e-11
-1.0681437e-12
-1.8908204e-13
-3.749071e-14
-6.0799825e-15
-6.0630105e-16
5.5761435e-17
5.1057576e-17
1.7214389e-17
4.2970046e-18
8.8493742e-19
1.5539753e-19
2.3512357e-20
3.0675755e-21
3.4355695e-22
3.2696541e-23
2.6032117e-24
1.7014297e-25
8.8858091e-27
3.5625975e-28
1.0284236e-29
1.1410758e-33
1.4199234e-38
-2.9717226e-05
-9.8489007e-06
8.4418625e-06
-8.3465546e-06
-1.2085112e-05
1.7563006e-05
2.9722236e-05
1.0871107e-05
-1.5372792e-05
-2.3062451e-05
-9.2660984e-06
9.6031992e-06
1.1377235e-05
1.2935913e-06
-4.3133723e-06
-5.7213392e-06
9.5212231e-06
-2.556249e-05
-7.3546076e-05
-3.0078911e-05
7.243212e-05
0.0001385553
0.00014141251
9.4699614e-05
4.7314837e-05
-2.9866861e-06
-3.4864297e-05
-2.0130642e-05
-3.2089162e-06
-1.3919723e-07
-2.1547419e-09
-1.3849464e-11
-5.5680326e-13
-9.8425975e-14
-1.2172847e-14
6.6210324e-16
1.085395e-15
4.5398796e-16
1.3845918e-16
3.4946744e-17
7.5915493e-18
1.4398547e-18
2.3924924e-19
3.4767319e-20
4.3965945e-21
4.8031092e-22
4.473363e-23
3.4980265e-24
2.2523182e-25
1.1618962e-26
4.612388e-28
9.5279831e-32
3.860919e-36
-1.5197547e-42
1.355241e-06
-3.0198858e-05
-1.6097941e-05
-1.4413091e-07
-1.3137382e-05
-9.5898241e-06
2.1577479e-05
3.2575506e-05
1.1734607e-05
-1.68842e-05
-2.4369995e-05
-8.828182e-06
9.9439043e-06
1.0313652e-05
3.5418843e-07
-2.8586937e-06
2.1622141e-05
-1.3220268e-05
-6.5711925e-05
-3.6354045e-05
6.7068421e-05
0.00013699907
0.00013790285
8.62787e-05
2.8690152e-05
-1.4568244e-05
-5.6360843e-05
-4.8676356e-05
-1.2883261e-05
-1.0442664e-06
-3.0970862e-08
-3.4091305e-10
-2.6516467e-12
-2.1659954e-13
-4.2569559e-15
1.4770939e-14
8.035928e-15
2.9926883e-15
9.1531732e-16
2.4167867e-16
5.6086723e-17
1.1519322e-17
2.0962751e-18
3.3712554e-19
4.7688983e-20
5.8946712e-21
6.3171797e-22
5.7833131e-23
4.4575915e-24
2.8361873e-25
1.4491339e-26
4.8657384e-30
3.9562133e-34
3.9320525e-39
-2.628427e-44
3.3385239e-05
8.4036136e-06
-2.977e-05
-2.2566781e-05
-8.0996259e-06
-1.6674601e-05
-7.0881803e-06
2.5353622e-05
3.5385542e-05
1.230471e-05
-1.8409647e-05
-2.5364781e-05
-8.0518086e-06
1.0032809e-05
8.0445048e-06
4.4952527e-07
-1.7863625e-06
-3.2237436e-07
-5.7698302e-05
-4.1773521e-05
6.0381894e-05
0.00013365163
0.00013336793
7.8389912e-05
1.4594169e-05
-2.5157591e-05
-6.5177628e-05
-8.3039922e-05
-3.5284864e-05
-5.0757908e-06
-2.7604535e-07
-5.7370458e-09
-4.7028098e-11
-4.4378718e-13
1.1674453e-13
9.756446e-14
4.5025529e-14
1.6566415e-14
5.24279e-15
1.463895e-15
3.640462e-16
8.0850364e-17
1.6035716e-17
2.8339441e-18
4.4439407e-19
6.1497498e-20
7.4619215e-21
7.8604706e-22
7.092886e-23
5.4025456e-24
3.4052825e-25
1.7355264e-28
2.3796839e-32
6.0731955e-37
-6.3820952e-43
-1.8190017e-47
1.2128461e-05
4.429349e-05
1.6254171e-05
-2.9391397e-05
-2.913752e-05
-1.6481586e-05
-1.9935978e-05
-4.4259383e-06
2.9049112e-05
3.7844367e-05
1.2584182e-05
-1.9456483e-05
-2.5165032e-05
-6.6320629e-06
8.9828152e-06
5.704591e-06
3.2333694e-07
-9.1453722e-07
-5.1944075e-05
-4.5773691e-05
5.2506772e-05
0.00012883716
0.00012883091
6.8541419e-05
1.6798746e-06
-3.3283282e-05
-5.7207759e-05
-0.00010482793
-7.0232109e-05
-1.6736471e-05
-1.5830456e-06
-5.9825429e-08
-8.8786572e-10
-4.7316378e-12
7.7365183e-13
4.8136297e-13
2.1427667e-13
8.0532773e-14
2.6661541e-14
7.8923658e-15
2.0997302e-15
5.0252667e-16
1.0806292e-16
2.0836934e-17
3.5910537e-18
5.5066658e-19
7.4719921e-20
8.916955e-21
9.2538996e-22
8.2496784e-23
6.224952e-24
4.6332365e-27
9.8660141e-31
4.5966139e-35
2.3775486e-40
-1.7061608e-45
-5.4038066e-51
-4.6244282e-05
2.346498e-05
5.4110809e-05
2.3169348e-05
-2.9428919e-05
-3.6859705e-05
-2.5094256e-05
-2.310368e-05
-2.0867491e-06
3.2546417e-05
3.986974e-05
1.2223249e-05
-2.0067836e-05
-2.375492e-05
-4.3676075e-06
6.1523085e-06
3.4556886e-06
8.8587799e-08
-3.5392267e-07
-4.9474719e-05
4.3537712e-05
0.00012217917
0.00012366503
5.7973126e-05
-1.285834e-05
-4.3521966e-05
-5.1388122e-05
-9.2904451e-05
-0.00010846867
-3.9732978e-05
-6.1259458e-06
-3.9825964e-07
-1.0706909e-08
-1.0993601e-10
3.1394792e-12
2.0190723e-12
9.041777e-13
3.5146314e-13
1.2206029e-13
3.8252351e-14
1.0848265e-14
2.7836531e-15
6.4532729e-16
1.3485843e-16
2.5336078e-17
4.2646977e-18
6.4037031e-19
8.5319119e-20
1.0032183e-20
1.0279299e-21
9.0758908e-23
9.6467894e-26
3.0502627e-29
2.287746e-33
2.8671643e-38
-3.1708251e-44
-6.4502805e-49
-9.5024998e-55
-5.306239e-05
-3.9185114e-05
3.3741803e-05
6.2842097e-05
2.9599642e-05
-2.8801472e-05
-4.4257396e-05
-3.3895794e-05
-2.6437374e-05
1.3818116e-07
3.5675578e-05
4.0581408e-05
1.0551134e-05
-1.9553288e-05
-1.99768e-05
-3.1225165e-06
3.9289973e-06
1.5925677e-06
-1.7955027e-08
-9.4884708e-08
3.3185455e-05
0.00011326478
0.00011709585
4.6664583e-05
-3.0477099e-05
-5.5992895e-05
-4.8587495e-05
-7.4231504e-05
-0.00012783031
-7.2381215e-05
-1.6895395e-05
-1.7770644e-06
-8.1858186e-08
-1.5706117e-09
1.6216716e-12
7.520291e-12
3.4579044e-12
1.3956833e-12
5.0783156e-13
1.6787569e-13
5.0503443e-14
1.381531e-14
3.4303848e-15
7.7153176e-16
1.5680923e-16
2.8718196e-17
4.7236995e-18
6.9499222e-19
9.1140484e-20
1.0568152e-20
1.0717294e-21
1.6081239e-24
7.3555411e-28
8.3669057e-32
1.8190482e-36
4.5705451e-42
-3.177988e-47
-1.259275e-52
-1.1479339e-58
2.1371604e-05
-5.6085139e-05
-3.0671499e-05
4.313248e-05
7.0784733e-05
3.5741021e-05
-2.7748343e-05
-5.1277968e-05
-4.2652519e-05
-2.9915633e-05
2.1163549e-06
3.9310574e-05
3.9803376e-05
8.3120056e-06
-1.7132404e-05
-1.4416558e-05
-1.7710867e-06
2.0152017e-06
5.305296e-07
-2.0121137e-08
-1.7388457e-08
0.00010157255
0.00010797362
3.467117e-05
-5.1119655e-05
-7.0902712e-05
-4.9278378e-05
-5.3026211e-05
-0.00011362497
-0.00010924057
-3.5575975e-05
-5.6058131e-06
-4.1618911e-07
-1.3815592e-08
-1.4885921e-10
2.4770328e-11
1.2154172e-11
5.0925219e-12
1.9345097e-12
6.7111703e-13
2.1291786e-13
6.1697449e-14
1.6295881e-14
3.9148224e-15
8.5363992e-16
1.6860574e-16
3.0084519e-17
4.834059e-18
6.9689534e-19
9.0093884e-20
1.0324276e-20
2.1831471e-23
1.4228079e-26
2.3776003e-30
8.0394518e-35
4.7446762e-40
-4.9245048e-46
-7.6251665e-51
-1.6132519e-56
-1.0383122e-62
8.7108449e-05
9.0986417e-06
-5.6903141e-05
-2.1341866e-05
5.1961247e-05
7.8033318e-05
4.1435209e-05
-2.5307461e-05
-5.7339083e-05
-5.0959044e-05
-3.3075098e-05
4.9860601e-06
4.181377e-05
3.5738149e-05
5.5510403e-06
-1.2521863e-05
-8.7316576e-06
-5.658018e-07
7.5009243e-07
1.2111668e-07
-6.9554978e-09
-2.0632641e-09
9.568864e-05
2.0998889e-05
-7.3821639e-05
-8.7346586e-05
-4.9925881e-05
-3.3310118e-05
-8.8315684e-05
-0.00013397292
-6.7469794e-05
-1.3353033e-05
-1.4838101e-06
-7.9632879e-08
-1.8048673e-09
6.2659796e-11
3.9816773e-11
1.7231363e-11
6.7934115e-12
2.4577546e-12
8.1666383e-13
2.4888407e-13
6.9395166e-14
1.7661209e-14
4.094456e-15
8.6321143e-16
1.6524726e-16
2.8665031e-17
4.4924743e-18
6.3513894e-19
8.0934037e-20
2.4380413e-22
2.2482899e-25
5.421491e-29
2.7193813e-33
2.6322084e-38
3.7098166e-44
-2.5793307e-49
-1.0687182e-54
-1.5164978e-60
-8.3343562e-67
7.9627099e-05
6.9821704e-05
-2.5244502e-06
-5.52584e-05
-1.1460563e-05
6.0106673e-05
8.4435169e-05
4.6573501e-05
-2.27998e-05
-6.2047952e-05
-5.8662604e-05
-3.6620837e-05
8.6625178e-06
4.028964e-05
2.8376924e-05
2.937658e-06
-7.5380183e-06
-3.973675e-06
-7.284655e-08
1.9098239e-07
1.8837521e-08
-1.0169546e-09
-1.6326858e-10
5.7694169e-06
-9.5240965e-05
-0.00010494097
-4.9121565e-05
-1.3806795e-05
-5.526727e-05
-0.00013922109
-0.00010215758
-3.1855137e-05
-3.9366072e-06
-3.178496e-07
-1.2146542e-08
2.9612431e-11
1.234112e-10
5.5200944e-11
2.2228454e-11
8.2933831e-12
2.863214e-12
9.100851e-13
2.6554668e-13
7.091885e-14
1.7295678e-14
3.8454866e-15
7.7861114e-16
1.4347826e-16
2.4044755e-17
3.6575821e-18
5.0627315e-19
2.2471291e-21
2.9361564e-24
1.0121073e-27
7.362305e-32
1.0554839e-36
3.4347874e-42
-3.4555834e-48
-4.3339229e-53
-1.056649e-58
-1.2552735e-64
-6.4196229e-71
-1.1294903e-05
6.0475496e-05
5.0813935e-05
-1.3319963e-05
-5.137644e-05
-1.461137e-06
6.7760927e-05
9.0003041e-05
5.0938942e-05
-1.980947e-05
-6.4786653e-05
-6.5894387e-05
-3.6449938e-05
1.3256063e-05
3.5049501e-05
1.878101e-05
8.7297903e-07
-3.5437951e-06
-1.2692832e-06
1.1240659e-08
3.2746555e-08
2.0963898e-09
-9.4727973e-11
-8.6943396e-12
-0.00011241235
-0.00011869108
-4.58574e-05
6.8673818e-06
-2.0071902e-05
-0.00012120038
-0.0001353349
-5.8359758e-05
-1.1837206e-05
-9.1812672e-07
-5.2017924e-08
-5.127406e-10
3.8800414e-10
1.7296331e-10
7.0439636e-11
2.6330256e-11
9.2230611e-12
3.0273533e-12
9.1462813e-13
2.5331402e-13
6.4099421e-14
1.4783991e-14
3.1033243e-15
5.9259317e-16
1.0301909e-16
1.6334065e-17
2.3678421e-18
1.6994232e-20
3.1883853e-23
1.5668977e-26
1.6353473e-30
3.3429323e-35
1.6819278e-40
1.5372761e-46
-1.1182454e-51
-4.6382277e-57
-9.0650937e-63
-9.9399774e-69
-4.7457342e-75
-0.00012314307
-2.8954101e-05
3.8981004e-05
3.1601479e-05
-2.3285941e-05
-4.4761559e-05
8.5921838e-06
7.4775153e-05
9.4862819e-05
5.4122112e-05