/*--------------------------------*- C++ -*----------------------------------*\
| =========                 |                                                 |
| \\      /  F ield         | OpenFOAM: The Open Source CFD Toolbox           |
|  \\    /   O peration     | Version:  5.0                                   |
|   \\  /    A nd           | Web:      www.OpenFOAM.org                      |
|    \\/     M anipulation  |                                                 |
\*---------------------------------------------------------------------------*/
FoamFile
{
    version     2.0;
    format      ascii;
    class       surfaceScalarField;
    location    "380";
    object      ddtCorrDdt0(phi);
}
// * * * * * * * * * * * * * * * * * * * * * * * * * * * * * * * * * * * * * //

dimensions      [0 3 -2 0 0 0 0];

internalField   nonuniform List<scalar> 
18820
(
7.3108243e-07
0.00038566144
7.2738913e-07
0.00035794306
4.5986562e-06
0.00038106482
2.4967568e-07
0.00032937517
8.3764443e-06
0.00035417448
-3.5709461e-07
0.00038142966
-4.8189176e-07
0.0003002784
1.133375e-05
0.0003264282
1.7204476e-09
0.00035382815
-1.1993916e-05
0.00039343282
-1.1459636e-06
0.00027123946
1.2901267e-05
0.00029872401
7.0599593e-07
0.00032573824
-2.1939958e-05
0.00036378212
-2.0449604e-05
0.00041388769
-1.4876318e-06
0.00024313793
1.293614e-05
0.000271219
8.9435774e-07
0.0002985524
-3.0325047e-05
0.00033413342
-3.9147141e-05
0.00038247714
-2.1085287e-05
0.00043497061
-1.6492538e-06
0.00021613967
1.1961107e-05
0.00024412473
-1.024789e-07
0.0002722311
-3.7506304e-05
0.00030574484
-5.6293049e-05
0.00035127944
-4.194313e-05
0.00040332114
-1.388994e-05
0.00044885056
-2.3086541e-06
0.00019007225
9.9487923e-06
0.00021815661
-2.1154895e-06
0.00024614533
-4.4189386e-05
0.00027892102
-7.138382e-05
0.00032083551
-6.2548339e-05
0.000371874
-2.888722e-05
0.00041829716
-5.4126572e-06
0.00045424872
-5.3702532e-06
0.00016465014
5.8813508e-06
0.00019413448
-4.9487041e-06
0.00022098484
-5.1030745e-05
0.00025298307
-8.4500265e-05
0.00029203192
-8.1892115e-05
0.00034016804
-4.5004971e-05
0.00038797427
-1.1899424e-05
0.00042476188
-2.2008264e-06
0.00045643523
-1.4865728e-05
0.00013952573
-3.2573082e-06
0.00017377437
-8.7272784e-06
0.00019789483
-5.8178707e-05
0.00022811612
-9.6609493e-05
0.00026507729
-9.9566094e-05
0.00030969051
-6.1718137e-05
0.00035686359
-1.9391271e-05
0.00039544784
-4.4685935e-06
0.0004270126
-6.0424771e-06
0.00046246717
-3.8752339e-05
0.00011464364
-2.3479691e-05
0.00015972847
-1.4029759e-05
0.00017904934
-6.4800708e-05
0.00020449031
-0.00010819684
0.00023967942
-0.00011626113
0.00028175248
-7.8458228e-05
0.00032641171
-2.9070805e-05
0.00036652603
-6.6502866e-06
0.00039761565
-1.0976516e-05
0.00043193774
-1.4269512e-05
0.00047673164
-8.4305044e-05
9.6840681e-05
-6.7026453e-05
0.00015817137
-2.2068752e-05
0.00016773722
-6.7755223e-05
0.0001819756
-0.00011884904
0.00021511443
-0.00013261726
0.0002560158
-9.4927224e-05
0.00029820364
-4.0236254e-05
0.00033756296
-1.0091299e-05
0.00036995514
-1.5438698e-05
0.00040207094
-2.6515141e-05
0.0004441824
-2.2002652e-05
0.00049873412
-0.00016508568
0.00010493789
-0.00014821966
0.000178021
-3.2900765e-05
0.00016897655
-6.1061462e-05
0.00016102307
-0.00012643293
0.00018953387
-0.00014916036
0.00023164504
-0.00011149639
0.0002725728
-5.1567444e-05
0.00030952851
-1.5296349e-05
0.00034276144
-1.9417036e-05
0.00037392963
-3.8131186e-05
0.00041368668
-4.1981773e-05
0.00046416655
-2.5292771e-05
0.00052403015
-0.00028078618
0.00011623002
-0.0002483583
0.00020507326
-2.9988049e-05
0.00017508858
-3.0305553e-05
0.00013821518
-0.00012491711
0.00015948891
-0.00016603368
0.00020640769
-0.00012954641
0.000249692
-6.2361334e-05
0.00028337293
-2.0849923e-05
0.00031508542
-2.3649397e-05
0.00034699749
-4.9171295e-05
0.00038497243
-6.1040561e-05
0.00043275015
-4.956299e-05
0.00048844538
-2.2855329e-05
0.00054689052
-0.00044641332
0.00014636361
-0.00034503049
0.00021290909
1.908474e-05
0.00015598888
4.6745371e-05
9.8048917e-05
-0.00010293625
0.00011622501
-0.00018393019
0.00017739986
-0.00015340075
0.00023026772
-7.3094122e-05
0.0002604436
-2.4856167e-05
0.00028739363
-2.7925912e-05
0.00031937659
-5.9447847e-05
0.00035728379
-7.9642775e-05
0.00040358245
-7.277848e-05
0.00045597358
-4.6098793e-05
0.00051169966
-1.5946079e-05
0.00056284289
-0.00067686732
0.00018422268
-0.00043603201
0.00023737975
0.00010697777
0.00012501197
0.00016886538
3.3893053e-05
-5.9590446e-05
5.470208e-05
-0.00021179692
0.00014411556
-0.00019199242
0.00021600203
-8.6432065e-05
0.00024363096
-2.5182111e-05
0.00026079058
-3.1081264e-05
0.00029057254
-6.9721999e-05
0.00032966845
-9.7834706e-05
0.00037548901
-9.5307972e-05
0.00042612212
-6.9139582e-05
0.00047902439
-3.3288028e-05
0.00052905431
-7.3660379e-06
0.00057021625
-0.0010109648
0.00027167259
-0.00053388041
0.0002820896
0.00024656301
9.7796671e-05
0.00031062418
-1.6717139e-05
-2.3240893e-05
-2.4510233e-06
-0.00026939033
0.00011232058
-0.00026025132
0.00021238475
-0.00010644093
0.00023603297
-1.8392213e-05
0.00023686003
-3.084241e-05
0.000260576
-8.066245e-05
0.00030153389
-0.00011664078
0.00034849153
-0.00011801229
0.00039820588
-9.146514e-05
0.00044845849
-5.2373228e-05
0.00049812147
-1.6349853e-05
0.00053805239
-2.5728674e-07
0.00057048219
-0.0013453042
0.00030119906
-0.00061521679
0.00035302734
0.00043838952
9.0270356e-05
0.00050062934
-9.2181003e-05
4.9492324e-07
-4.0442933e-05
-0.00036460987
9.2786943e-05
-0.00037636996
0.0002284455
-0.00013706923
0.00024302325
6.3371117e-07
0.00021701542
-2.2450003e-05
0.00022848266
-9.192595e-05
0.00027185522
-0.00013746881
0.00032237649
-0.00014177013
0.00037226026
-0.00011413587
0.00042088522
-7.1841047e-05
0.00046793648
-2.8552758e-05
0.00051033688
-1.8546536e-06
0.00053966478
3.1489198e-06
0.0005673425
-0.0018460959
0.0004569562
-0.00075409292
0.00044009069
0.00073221366
5.9214314e-05
0.00077517884
-0.00018425884
2.088413e-05
-0.00011255739
-0.00048809098
8.3045802e-05
-0.0005497469
0.00026616463
-0.00018036203
0.00027173298
4.0653856e-05
0.00020299629
1.5746301e-06
0.00019299011
-0.00010214413
0.00023870406
-0.00016156251
0.00029595474
-0.00016782873
0.00034843871
-0.00013813287
0.00039625813
-9.1741692e-05
0.00044078866
-4.3760914e-05
0.00048315216
-5.7162615e-06
0.00051421039
5.2599578e-06
0.00053756733
2.5040306e-06
0.000564847
-0.0023146219
0.0004752913
-0.00086538377
0.00056825838
0.001110367
6.1950777e-05
0.0011624142
-0.00032800885
7.4879866e-05
-0.00023824057
-0.00069673038
9.6080169e-05
-0.00079131763
0.00032461253
-0.00023795592
0.00032374106
0.00011548975
0.00019687591
5.2231129e-05
0.00015232396
-0.00010902349
0.00019985765
-0.00019055932
0.00026769594
-0.00019823174
0.00032635173
-0.00016443087
0.00037472653
-0.00011302994
0.00041753613
-5.9926947e-05
0.00045694945
-1.4255858e-05
0.00049169518
7.1075073e-06
0.0005123714
4.288171e-06
0.00053579265
-8.04273e-07
0.00056565702
-0.0029779231
0.0007296876
-0.0010606052
0.00067052031
0.00165718
2.1459481e-05
0.0017228673
-0.00049849569
0.00014862043
-0.00040173556
-0.0010446734
0.00010969708
-0.0011051103
0.00040986611
-0.00032164059
0.00040827656
0.00023531385
0.00020388701
0.00014565875
0.00010342468
-0.000108016
0.00015129295
-0.0002259827
0.00023526896
-0.00023626093
0.00030571236
-0.00019482003
0.00035672253
-0.00013569481
0.00039736805
-7.684503e-05
0.00043443177
-2.5929634e-05
0.00046861024
6.9288101e-06
0.00049187186
6.2292405e-06
0.00051043364
-1.7126211e-06
0.00053670408
-4.7307856e-06
0.00057038933
-0.0035862853
0.00062639306
-0.0011282444
0.00079733226
0.0022625035
6.5209947e-05
0.0024710993
-0.00072676709
0.000262532
-0.00061239481
-0.0015837449
0.00013733463
-0.0015582619
0.00056284157
-0.0004097659
0.00049797816
0.00044805768
0.00019550153
0.00030238563
4.7139531e-05
-9.2164294e-05
8.7545216e-05
-0.00026788244
0.0001931808
-0.00028657475
0.00028557018
-0.00023275484
0.00034362905
-0.0001601985
0.00038119807
-9.346203e-05
0.00041394909
-3.7440473e-05
0.00044591094
2.8671204e-06
0.00047265261
7.7008134e-06
0.00049039306
-3.4161641e-06
0.00051213436
-8.7196988e-06
0.00054068914
-7.6226128e-06
0.00057800867
-0.0045013293
0.00091724238
-0.0014350777
0.00093323218
0.003099063
-3.9215893e-05
0.0035172221
-0.00098090405
0.00041027216
-0.00087449678
-0.0023463546
0.00015022335
-0.0022054231
0.00078448965
-0.00050767987
0.00066075659
0.00074894229
0.00019706726
0.00056531445
-6.7435961e-05
-3.0065088e-05
-1.4983709e-05
-0.00031249309
0.0001321515
-0.00035683224
0.00026343284
-0.00028461757
0.00033742432
-0.00018798807
0.000371398
-0.00010856945
0.00039626848
-4.7426416e-05
0.0004238921
-2.5850976e-06
0.00045132721
7.2114201e-06
0.00047312008
-5.4035102e-06
0.00049237034
-1.4635584e-05
0.00051804308
-1.3970644e-05
0.00054702834
-8.6880492e-06
0.00058668976
-0.0054238784
0.0011163182
-0.0017053523
0.0011875257
0.00392305
0.0001092547
0.004828465
-0.0013504435
0.0006128944
-0.0011835173
-0.0034012412
0.00018040893
-0.0031450071
0.0010898029
-0.00061365757
0.0008904823
0.0012098588
0.00019982111
0.00097492382
-0.00021253728
6.8920575e-05
-0.0001664373
-0.00036066835
3.3197429e-05
-0.00046051854
0.00023584283
-0.00036272669
0.00034154781
-0.00022248109
0.00037191423
-0.00012042608
0.00038323093
-5.3421425e-05
0.00040222461
-7.0177929e-06
0.00042828194
5.2234134e-06
0.00045328139
-8.7269043e-06
0.00047642434
-2.1495393e-05
0.00049922123
-2.2367152e-05
0.00052643156
-1.6563471e-05
0.00055489377
-7.8704063e-06
0.00059455182
-0.0066521235
0.001400069
-0.0018516834
0.0012626624
0.0051176346
-7.0498859e-06
0.006593275
-0.0016555335
0.00081528467
-0.0015528243
-0.0047578183
0.00017308592
-0.0044551358
0.0014905354
-0.00072957049
0.0012057364
0.0018870816
0.00021324706
0.0015864111
-0.00041165568
0.00023126168
-0.00037488598
-0.00046673947
-6.035455e-05
-0.00063114768
0.00020383995
-0.00048814132
0.00036127462
-0.00027068448
0.0003897669
-0.00012659666
0.00037808267
-5.124565e-05
0.0003810348
-7.318121e-06
0.00040249077
2.7356959e-06
0.00043073382
-1.4564868e-05
0.00045909477
-2.8973339e-05
0.00048389119
-3.3024652e-05
0.00050987541
-2.5334984e-05
0.00053519885
-1.641728e-05
0.00056343435
-5.4135819e-06
0.00059995867
-0.0075197687
0.0011424363
-0.0019603661
0.001508769
0.0065388753
-0.00015856781
0.0087778647
-0.0021916138
0.0010709112
-0.0019111476
-0.0065485214
0.00023790402
-0.0062937171
0.0020116683
-0.00082808964
0.0015890688
0.0028518406
0.00024096944
0.0024694403
-0.00066977945
0.00048149541
-0.00066189206
-0.00068751
-0.00015410855
-0.00088037376
0.00018888764
-0.00069551581
0.00041123247
-0.00034441603
0.00043503304
-0.00012328487
0.00038647068
-3.4021907e-05
0.00036086243
1.369251e-06
0.00037233427
1.2117847e-06
0.00040399049
-2.2705992e-05
0.00043885275
-3.9476718e-05
0.00046958674
-4.4436138e-05
0.00049530247
-3.7318235e-05
0.00052186414
-2.4851188e-05
0.00054363583
-1.3033997e-05
0.00057105596
-1.4997838e-06
0.00060145601
-0.008983174
0.002050089
-0.0024990875
0.0016811773
0.0082641998
-0.00021654159
0.011303417
-0.0026840949
0.0011256302
-0.002246316
-0.0086617461
0.00020209434
-0.008721525
0.0026657159
-0.00089937301
0.0020829496
0.0041585242
0.00028237839
0.0037135576
-0.0010031641
0.00085778521
-0.0010460706
-0.001014181
-0.00033522854
-0.0012476228
0.00021315467
-0.0010040347
0.0004974137
-0.00045890683
0.00052574955
-0.00010481902
0.0004165864
1.032141e-05
0.0003421471
2.6509884e-05
0.00033573014
3.1774944e-06
0.00037036408
-3.2934965e-05
0.00041420893
-5.3707506e-05
0.00045307586
-5.8458468e-05
0.00048361082
-5.1616038e-05
0.00050961077
-3.5519468e-05
0.00053254679
-2.1104614e-05
0.00055171811
-5.610587e-06
0.00057517769
3.6160925e-06
0.00059784321
-0.010326511
0.0024679975
-0.0024474725
0.0019984933
0.0097975694
0.00014782634
0.014402616
-0.0033157178
0.0011585327
-0.0027169768
-0.011387629
0.00047957295
-0.011921348
0.0034019209
-0.00087243162
0.002638754
0.0058850125
0.00035645084
0.0054143826
-0.0014184836
0.0014095718
-0.0015549548
-0.0014630014
-0.00059727264
-0.0018377391
0.00025489844
-0.0014243225
0.00063343561
-0.00062423977
0.0006627645
-5.8663982e-05
0.00047960261
9.9994465e-05
0.00032693383
7.8768472e-05
0.00028990622
1.3229092e-05
0.00032569034
-4.4787204e-05
0.0003822207
-7.2554134e-05
0.00043305622
-7.6627209e-05
0.00047124807
-6.7794348e-05
0.00049979985
-4.9715088e-05
0.00052382294
-2.9136718e-05
0.00054059892
-1.1477812e-05
0.00055760382
5.363321e-06
0.00057345023
9.1511104e-06
0.00058870118
-0.011589891
0.0025290001
-0.0015827011
0.0016032433
0.012596718
-0.0008006325
0.018508729
-0.0039582685
0.0011436317
-0.0033007954
-0.014870926
0.00076631618
-0.015563417
0.0041216418
-0.00084702302
0.0033764787
0.0080886772
0.00043506936
0.0077176755
-0.0019468913
0.0021865452
-0.0021954693
-0.0020695081
-0.00094847564
-0.0027409919
0.00030598741
-0.0020269753
0.00085754052
-0.00084597082
0.00085517577
2.4775664e-05
0.00057931917
0.00026268701
0.0003169185
0.00017497377
0.0002307397
3.8729707e-05
0.00026441975
-5.7597634e-05
0.00033851297
-9.7407536e-05
0.00040708239
-0.00010061074
0.00045704573
-8.7785444e-05
0.00049124727
-6.5981093e-05
0.00051607814
-3.9835007e-05
0.00053453705
-1.6900568e-05
0.00054604174
4.1200471e-06
0.00055886835
1.6946096e-05
0.00056568108
1.3897672e-05
0.00057481677
-0.012627416
0.0025814927
-0.00033834722
0.0012846604
0.016201506
-0.0020015183
0.022465796
-0.0047576842
0.00057534724
-0.0033899655
-0.018959511
0.00078778225
-0.019932545
0.0051354359
-0.00087998147
0.0041545632
0.010939235
0.00052588885
0.010755252
-0.0026025562
0.0032392999
-0.0029996698
-0.0028663351
-0.0013986619
-0.0040513602
0.00036189569
-0.0029081158
0.00118713
-0.0011483353
0.0011599097
0.00016434579
0.0007155982
0.00052474036
0.00031725903
0.00034180738
0.00015008322
9.135942e-05
0.00017811197
-6.9822103e-05
0.000276652
-0.00013101834
0.0003721311
-0.00013312285
0.00043960067
-0.00011349407
0.00048275979
-8.5728359e-05
0.00051100025
-5.4155862e-05
0.00053040547
-2.4367411e-05
0.0005420117
6.6581066e-07
0.00054951023
2.1019066e-05
0.00055481425
2.5996751e-05
0.00055360904
1.7213883e-05
0.00055761798
-0.013711373
0.0029804156
0.0012628928
0.00098026387
0.019965596
-0.0024794029
0.025983899
-0.0055196051
-0.00073318663
-0.0034491368
-0.022804692
0.00045520827
-0.025416462
0.0062716848
-0.00064562287
0.0049010441
0.014599801
0.00049395807
0.014698368
-0.0034172677
0.0046048266
-0.0039681148
-0.0038942087
-0.0019718014
-0.005875091
0.00042506844
-0.0041891372
0.001642941
-0.0015649432
0.001603743
0.00040020933
0.00092405172
0.0009200369
0.00032028572
0.00062053976
3.8518674e-05
0.00018645179
5.4975857e-05
-7.9226376e-05
0.00018751217
-0.00017747447
0.0003231046
-0.00017870695
0.00041771488
-0.00014810239
0.00047420983
-0.00011066389
0.00050769627
-7.2641223e-05
0.00052948437
-3.6132368e-05
0.00054216633
-4.273737e-06
0.00054694705
2.113492e-05
0.00054939868
3.5315668e-05
0.00054550711
3.2307634e-05
0.00053853924
1.9158045e-05
0.00053847376
-0.014730352
0.0031098367
0.0029614392
0.0012818778
0.023871885
-0.0029259994
0.029003346
-0.0054988324
-0.0029603675
-0.0032924157
-0.026984082
0.00073025018
-0.031549589
0.0065883195
-0.00019342439
0.0058194605
0.019059461
0.00044134663
0.019623587
-0.0044312876
0.0063170329
-0.0051295039
-0.0052073913
-0.0026549244
-0.0083378716
0.00049098114
-0.0060067052
0.0022426766
-0.0021432479
0.0022212553
0.00077526353
0.0012287093
0.0015256561
0.00031841611
0.0010513444
-0.00011052464
0.00034739353
-0.00012244862
-8.2179179e-05
5.7915319e-05
-0.00024341332
0.00025343385
-0.00024496531
0.00038935193
-0.00019690768
0.00046651239
-0.00014397594
0.00050751861
-9.5929796e-05
0.00053098157
-5.1357506e-05
0.000544701
-1.1569779e-05
0.0005494481
1.9562232e-05
0.00054850353
4.0603036e-05
0.00054410437
4.5255633e-05
0.00053256119
3.6339759e-05
0.00052137441
1.9886022e-05
0.0005185977
-0.015660017
0.0031044348
0.0046994381
0.0013718463
0.028156923
-0.0030031347
0.031362259
-0.0052848946
-0.0059446387
-0.0025145554
-0.033266051
0.0029895514
-0.038557687
0.007738335
-0.0013769115
0.0077717882
0.024367208
0.00051168453
0.025664486
-0.0055995661
0.0083140803
-0.0064283539
-0.0068481057
-0.0034887719
-0.011561477
0.00056869293
-0.0085362433
0.0030205648
-0.0029342905
0.0030337378
0.0013428485
0.0016536944
0.0024356499
0.00031870518
0.0016894869
-0.00031973157
0.00060808546
-0.00037124222
-8.8649237e-05
-0.00011599569
-0.00034159737
0.00015607617
-0.00034663648
0.00035508533
-0.00027126545
0.00046369305
-0.00019141812
0.000513945
-0.00012550782
0.00053709339
-6.9634365e-05
0.00054925396
-2.1610057e-05
0.00055473014
1.6139841e-05
0.00055285102
4.2540069e-05
0.00054654244
5.5142469e-05
0.00053420148
5.1744875e-05
0.00051714816
3.7965185e-05
0.00050330334
1.9590302e-05
0.00049901155
-0.016490043
0.0029890586
0.0064251344
0.0013787476
0.03278578
-0.0032569865
0.034000968
-0.005641825
-0.0092579289
-0.0019715991
-0.040014084
0.0042334765
-0.045178482
0.0096103381
-0.0028728744
0.0092342866
0.030588957
0.0015500203
0.033023611
-0.0068474428
0.010577291
-0.0078627831
-0.0088755315
-0.0044009035
-0.015700415
0.00065019041
-0.011969396
0.0040018911
-0.0040038861
0.0040901895
0.002161053
0.0022155513
0.0037670067
0.00032233649
0.0026194752
-0.00061129586
0.0010006293
-0.00071229439
-8.7769683e-05
-0.0003721418
-0.00049696081
3.9348804e-05
-0.00051335977
0.00032277766
-0.0003880384
0.00047183873
-0.00026061105
0.00053287092
-0.0001640106
0.00055244251
-9.0761278e-05
0.00055822014
-3.3192414e-05
0.00056083684
1.0530858e-05
0.00056033198
4.2058153e-05
0.00055331547
6.1036688e-05
0.00054062278
6.4419716e-05
0.00052150602
5.482299e-05
0.00050027429
3.7614003e-05
0.00048527848
1.863667e-05
0.00048037291
-0.017172561
0.0027254005
0.0080680525
0.0013461517
0.037570886
-0.0034063368
0.036532524
-0.0057885246
-0.011923087
-0.0029766604
-0.04676628
0.0047805966
-0.050639452
0.0096944409
-0.0014179305
0.0081553892
0.038125114
0.0016981173
0.042759318
-0.0081856807
0.013035713
-0.009305865
-0.011377795
-0.0053604941
-0.020913715
0.00081242679
-0.016548373
0.0052292076
-0.0054004554
0.0053984945
0.0033114058
0.0029398476
0.005649562
0.00033300146
0.0039464649
-0.0010046746
0.0015664785
-0.0011771566
-6.7737884e-05
-0.00073234966
-0.00073194084
-0.00013717119
-0.00075108845
0.00027705927
-0.00055905935
0.00049378432
-0.00036014418
0.0005713557
-0.00021402938
0.00058288193
-0.00011550615
0.00057718534
-4.7144848e-05
0.00057217968
3.8164712e-06
0.00056756004
4.0961067e-05
0.00056143106
6.299739e-05
0.00055134631
7.3383763e-05
0.00053163855
6.9049198e-05
0.00050726015
5.492946e-05
0.00048293737
3.6502416e-05
0.00046740426
1.7329868e-05
0.00046303551
-0.017698437
0.0023360816
0.0095689602
0.0012245068
0.042295854
-0.0033787963
0.038786034
-0.0056598293
-0.01460028
-0.0031113236
-0.053272199
0.0035292606
-0.055472522
0.0096136624
0.0015708371
0.0067056718
0.045921742
0.00035874925
0.054293479
-0.0098360396
0.015823164
-0.01097313
-0.014396629
-0.0062870179
-0.027341489
0.001067308
-0.022519285
0.0067833664
-0.0071852581
0.0070140399
0.004886828
0.0038230745
0.0082539559
0.0003354579
0.0057952666
-0.0015158252
0.0023561549
-0.0017943587
-2.8818227e-05
-0.0012160983
-0.0010656888
-0.00039860252
-0.0011137208
0.00022545109
-0.00079593461
0.00051393024
-0.00050262324
0.00063625302
-0.00027979023
0.00063710863
-0.00014233137
0.00060969907
-5.795418e-05
0.00058799704
-1.3403467e-06
0.00057734814
3.7912125e-05
0.00057062526
6.5104533e-05
0.00055933763
8.0250774e-05
0.00054448307
7.9664338e-05
0.00052101339
6.9894677e-05
0.00049228065
5.299656e-05
0.00046641971
3.4281277e-05
0.00045043966
1.584839e-05
0.00044717548
-0.018042982
0.0018466144
0.010851021
0.0010540378
0.046743506
-0.003223127
0.040766506
-0.0053592542
-0.017181187
-0.0030789101
-0.060130051
0.0037465325
-0.061093661
0.0091503991
0.0052137409
0.005970761
0.053464797
-0.00083739091
0.066233246
-0.011581021
0.018983621
-0.012996497
-0.017653195
-0.0077165701
-0.03498049
0.0013520061
-0.030215661
0.008763689
-0.0093165964
0.0089147223
0.0070043489
0.0048965044
0.0117542
0.00032282363
0.008303334
-0.0021726385
0.0034296426
-0.0025893234
3.0180912e-05
-0.0018533727
-0.0015308014
-0.00075098183
-0.0016625311
0.00015021025
-0.0011513759
0.00058089828
-0.00072176585
0.00073307597
-0.00036973342
0.00072619316
-0.00017022414
0.00066499002
-6.2652852e-05
0.0006143887
-1.2693266e-06
0.00058792477
3.7607631e-05
0.00057766185
6.5571707e-05
0.00057017856
8.2635228e-05
0.00055697497
8.7620694e-05
0.00053654261
8.1747048e-05
0.00050916313
6.7756167e-05
0.00047751451
4.98243e-05
0.00045085413
3.1467071e-05
0.00043480639
1.4403731e-05
0.00043275731
-0.017966722
0.0013409212
0.011895974
0.00080168098
0.050821642
-0.0030240813
0.042370956
-0.0048275669
-0.019443787
-0.003096639
-0.067083155
0.0038742016
-0.066615039
0.009267911
0.0061512405
0.0082129049
0.061279609
-0.0018440572
0.07826409
-0.012868241
0.022128065
-0.014725462
-0.020888893
-0.0097608166
-0.04357688
0.0008798354
-0.039648586
0.010784919
-0.011634912
0.011082007
0.0098440024
0.0060750365
0.016369094
0.00028158661
0.011618831
-0.0029927129
0.0048405198
-0.0035835375
0.00011637244
-0.0026755258
-0.0021689555
-0.0012152163
-0.0024525542
3.9054684e-05
-0.0017095144
0.00070836191
-0.0010268223
0.00088597513
-0.00050574682
0.0008690973
-0.00019627495
0.00075223911
-5.383291e-05
0.00065615482
1.1383461e-05
0.00060171788
4.4357549e-05
0.0005811612
6.7980079e-05
0.00057525511
8.4764162e-05
0.00056806589
9.2530473e-05
0.000552089
9.0857182e-05
0.00052745778
8.057916e-05
0.00049635259
6.4254782e-05
0.00046308583
4.6104942e-05
0.00043619699
2.8654105e-05
0.00042054214
1.3137621e-05
0.00041960388
-0.017884012
0.00077611385
0.01282921
0.00040770477
0.054203877
-0.0025805378
0.043423599
-0.0040767158
-0.021339918
-0.0029314183
-0.073978192
0.0037984097
-0.071791086
0.0090502457
0.0070147932
0.0084043605
0.066560912
0.0029315993
0.090246676
-0.013826656
0.024069292
-0.014809463
-0.026211719
-0.0094026477
-0.053006361
-0.00033132715
-0.051058215
0.01228946
-0.014021168
0.013171164
0.013619628
0.00730635
0.022295067
0.00014902219
0.01591259
-0.0040122206
0.0066423337
-0.0047945645
0.0002303029
-0.0036974805
-0.0030234619
-0.0018210258
-0.003552713
-0.00011504266
-0.0025488396
0.00087839188
-0.0014631579
0.0011447285
-0.00069185944
0.001072108
-0.0002224293
0.00089526395
-2.2490261e-05
0.00072088949
4.7555547e-05
0.00061996108
6.6361055e-05
0.0005796811
7.6735619e-05
0.00057237952
8.7525768e-05
0.0005724797
9.5252733e-05
0.00056534832
9.6482334e-05
0.00054648439
9.0255198e-05
0.00051781165
7.7330961e-05
0.0004832954
5.994089e-05
0.00044925953
4.2351841e-05
0.00042248402
2.6177103e-05
0.00040749094
1.2220401e-05
0.00040736726
0.00023166275
-0.017957979
0.013334511
0.00027083269
0.056730974
-0.0021193756
0.04400485
-0.0031617812
-0.022873622
-0.0025429931
-0.080543599
0.0036340028
-0.076764812
0.0087721316
0.0077684998
0.0082965381
0.071853065
0.0031122041
0.10440265
-0.011224388
0.024284543
-0.014041904
-0.032503857
-0.0085173268
-0.062294512
-0.00011449124
-0.065388142
0.013998618
-0.017145643
0.015413918
0.018236102
0.0085546788
0.0297322
-0.00013083194
0.021318551
-0.0052569778
0.0088666251
-0.0062365585
0.00037858479
-0.0049428561
-0.0041303196
-0.0025906378
-0.0050628165
-0.00031091223
-0.0037635755
0.001099695
-0.0021103903
0.0015256483
-0.00093175377
0.0013846448
-0.00025225784
0.0011019625
4.9630716e-05
0.00082315728
0.00012089987
0.00064753998
0.0001151061
0.00057118648
9.917848e-05
0.00055719923
9.4128794e-05
0.00056573564
9.6410614e-05
0.00057129045
9.8753841e-05
0.00056306756
9.6187993e-05
0.00054056568
8.7386347e-05
0.00050778515
7.2773262e-05
0.00047048497
5.5653116e-05
0.00043597431
3.9015244e-05
0.00040963417
2.4482801e-05
0.00039521921
1.172435e-05
0.00039562711
0.00011890088
0.013447289
-0.00027949943
-0.018020509
0.058287893
-0.0012860697
0.044180952
-0.0022954665
-0.023959143
-0.0020762433
-0.086369787
0.0032832091
-0.08126071
0.008129898
0.0085192975
0.0080213334
0.076990513
0.0031590928
0.11896337
-0.011448526
0.027982022
-0.014921871
-0.03878191
-0.0077638496
-0.072084052
0.0012722107
-0.081992576
0.016489966
-0.021713818
0.018566785
0.02298542
0.010664605
0.038889632
-0.00060279165
0.027931509
-0.006743817
0.011507518
-0.0078979081
0.00055616565
-0.0064141388
-0.0055262907
-0.0035468938
-0.0070688891
-0.00058455343
-0.0054652746
0.0013907827
-0.0030608376
0.002050148
-0.0012648105
0.0018587118
-0.00025785022
0.0013902559
0.00016684644
0.00098477492
0.00025683037
0.00068724541
0.00020877202
0.00055387239
0.000146129
0.00052421436
0.00011009168
0.00054119573
9.7910191e-05
0.00056418525
9.7293828e-05
0.00057270639
9.7607381e-05
0.0005616274
9.3297553e-05
0.00053466046
8.2951775e-05
0.00049763062
6.8009414e-05
0.00045815164
5.187562e-05
0.00042313416
3.6642626e-05
0.0003974651
2.3394049e-05
0.0003835425
1.1551407e-05
0.00038406048
-0.00035274493
0.058759553
-8.5219953e-05
0.013253022
-0.0008279496
-0.018193037
0.044268512
-0.0013736151
-0.02474583
-0.0015087648
-0.091245325
0.0027993083
-0.085223426
0.0072459247
0.0093493304
0.0072998642
0.081886654
0.0031251986
0.13361854
-0.011496085
0.031827352
-0.015293868
-0.040341597
-0.013362182
-0.084543639
0.0046957374
-0.099957658
0.019237301
-0.027857403
0.022633555
0.027932221
0.01361998
0.050100896
-0.00054667442
0.035873567
-0.0085448775
0.014543181
-0.0097794923
0.00075323705
-0.0080949755
-0.007224244
-0.0047161718
-0.0096857658
-0.00092999753
-0.0078034859
0.001753668
-0.0044185608
0.0027485017
-0.0017364009
0.0025217283
-0.00022448315
0.0018253366
0.00036143466
0.0011956844
0.0004824376
0.00075919048
0.00036876217
0.00052728186
0.00023394554
0.00046606968
0.00014396431
0.00049033452
0.00010301596
0.00053605448
9.2491745e-05
0.00056893802
9.3492499e-05
0.00057677182
9.4017014e-05
0.00056088157
8.9154532e-05
0.00052845472
7.8858609e-05
0.00048680046
6.3840809e-05
0.00044620929
4.8989932e-05
0.00041080915
3.5136156e-05
0.00038571561
2.2948374e-05
0.00037214008
1.1756418e-05
0.00037228934
-0.00041812855
0.044333913
0.00054024452
0.058134101
-0.00017598932
0.012601071
-0.0014121975
-0.018056553
-0.02507634
-0.0010430953
-0.094931667
0.0021775865
-0.088538396
0.0061142824
0.010253626
0.0063416261
0.086306978
0.0028795417
0.14780903
-0.011065295
0.035864464
-0.015533203
-0.042523391
-0.013112065
-0.092638486
-0.005267328
-0.11659189
0.021329987
-0.032060912
0.023440827
0.03517109
0.015394673
0.06371885
2.0256881e-06
0.045886345
-0.010559485
0.017800908
-0.011802597
0.00095421095
-0.009980469
-0.0092415955
-0.0060775909
-0.012996043
-0.0014058751
-0.01094294
0.0022094925
-0.0063255845
0.0036606925
-0.0023953376
0.0034074323
-0.00014192314
0.0024391407
0.00069631701
0.0014904436
0.00081480117
0.00086331929
0.00063735163
0.00049062569
0.00038280993
0.00037845277
0.00020645472
0.00040361157
0.00011635271
0.00047700523
8.5003195e-05
0.00054352467
8.2662507e-05
0.00057972634
8.7865432e-05
0.00058287981
8.9637214e-05
0.00056036943
8.4809835e-05
0.00052249361
7.3703887e-05
0.00047695373
6.082427e-05
0.00043439675
4.7234422e-05
0.0003987345
3.4554987e-05
0.00037410328
2.3313887e-05
0.00036057794
1.2219164e-05
0.00036005547
-0.00042116675
-0.025073295
0.00065015317
0.044224023
0.0014952748
0.056462846
-0.00047722385
0.011666103
-0.0019233432
-0.017711246
-0.097269367
0.0012946093
-0.091141769
0.0047809679
0.011242547
0.0051253549
0.090197001
0.002451597
0.1609069
-0.010218335
0.03996898
-0.015169822
-0.044140966
-0.013915621
-0.099974178
-0.0057763512
-0.13611629
0.014257081
-0.030400193
0.019669287
0.043893696
0.014718229
0.078670244
0.0004432842
0.05849924
-0.012610889
0.021321272
-0.014079834
0.0011155284
-0.011963915
-0.011535239
-0.0076867925
-0.017108877
-0.001964746
-0.015094652
0.0027458793
-0.0089372411
0.0048211544
-0.0033123328
0.0045776989
7.1397278e-06
0.0032583495
0.0012325791
0.0019028554
0.001331337
0.00097388063
0.0010538461
0.00044681814
0.00062790149
0.00024555478
0.00031835324
0.00026659453
0.0001454382
0.00037456829
7.590395e-05
0.00048613141
6.336386e-05
0.00056282131
7.2258705e-05
0.00059530794
8.2390498e-05
0.00059009316
8.5658455e-05
0.00055948853
8.1162909e-05
0.00051502297
7.1125428e-05
0.00046666723
5.921984e-05
0.00042243212
4.6621888e-05
0.00038669313
3.5028412e-05
0.00036238467
2.4054527e-05
0.00034873781
1.2851898e-05
0.00034718848
0.00042358412
-0.098114117
0.00034000953
-0.024763145
0.0013230675
0.04439625
0.0022222403
0.053763387
-0.0007523941
0.010495158
-0.002419203
-0.017176974
-0.092952591
0.003105445
0.012254274
0.0037692318
0.093318879
0.0020034679
0.17249872
-0.0091402193
0.043901207
-0.014150575
-0.04574594
-0.01356485
-0.10937464
-0.0045151539
-0.15531917
0.01342654
-0.036969911
0.020826813
0.050547132
0.013015861
0.092985762
0.00040272603
0.073297789
-0.014355267
0.025130366
-0.016419962
0.0011518155
-0.01411611
-0.014067802
-0.0094313257
-0.022053793
-0.0027418681
-0.020449104
0.0033897288
-0.012495355
0.0063039917
-0.0045572819
0.0060661173
0.00025582336
0.0043290142
0.0020330739
0.0024578432
0.0021163147
0.0011178546
0.0016494515
0.0003782462
0.0010187807
5.5928242e-05
0.00050030633
6.3611211e-05
0.00020080479
0.00021126353
6.7302317e-05
0.00038321724
3.328528e-05
0.00051624759
4.3483506e-05
0.00059161079
6.382203e-05
0.00061387197
7.8385894e-05
0.00059733629
8.2986357e-05
0.00055763486
7.9187097e-05
0.00050694979
7.0142767e-05
0.00045575713
5.8989983e-05
0.00041008513
4.7271361e-05
0.00037447846
3.6118806e-05
0.0003503177
2.525332e-05
0.00033633114
1.3625041e-05
0.00033354766
0.0011523109
-0.093681301
-0.00063604356
-0.097138068
0.00085267223
-0.024292741
0.0022890172
0.044329492
0.0026969673
0.050314027
-0.00098119022
0.0090571489
-0.0028065204
-0.016478041
0.012732694
0.002627019
0.095567133
0.0015209655
0.18228388
-0.007781698
0.047133392
-0.01237241
-0.046877558
-0.013018965
-0.11842193
-0.0045175624
-0.17376271
0.013928399
-0.045211432
0.021668076
0.048037015
0.023336949
0.10491577
0.0010858731
0.088909244
-0.015208732
0.029524134
-0.018749013
0.00095923226
-0.016227369
-0.016787698
-0.011396193
-0.027874779
-0.0036103283
-0.027304312
0.0041133416
-0.017237435
0.0081317995
-0.0062247118
0.007971418
0.00065084064