/*--------------------------------*- C++ -*----------------------------------*\
| =========                 |                                                 |
| \\      /  F ield         | OpenFOAM: The Open Source CFD Toolbox           |
|  \\    /   O peration     | Version:  5.0                                   |
|   \\  /    A nd           | Web:      www.OpenFOAM.org                      |
|    \\/     M anipulation  |                                                 |
\*---------------------------------------------------------------------------*/
FoamFile
{
    version     2.0;
    format      ascii;
    class       volScalarField;
    location    "380";
    object      nut;
}
// * * * * * * * * * * * * * * * * * * * * * * * * * * * * * * * * * * * * * //

dimensions      [0 2 -1 0 0 0 0];

internalField   nonuniform List<scalar> 
9520
(
1.5287978e-117
1.9414114e-109
1.3435632e-117
1.4131219e-102
1.7085528e-109
1.174473e-117
1.8345298e-96
1.2444583e-102
1.4945731e-109
1.027333e-117
6.820968e-91
1.6163036e-96
1.088898e-102
1.3086302e-109
9.0864101e-118
9.4783204e-86
6.011225e-91
1.4148797e-96
9.5421726e-103
1.1607109e-109
8.1947873e-118
5.8750788e-81
8.3528001e-86
5.2653348e-91
1.2413377e-96
8.4852776e-103
1.0523162e-109
7.5490211e-118
1.8303373e-76
5.1771083e-81
7.3200192e-86
4.6265571e-91
1.1067168e-96
7.7266223e-103
9.7499426e-110
7.0482396e-118
3.0878732e-72
1.6137954e-76
4.5396167e-81
6.4420317e-86
4.1356239e-91
1.0114778e-96
7.1873811e-103
9.1249912e-110
6.5569978e-118
2.9887843e-68
2.7261968e-72
1.4168856e-76
4.0020212e-81
5.7726334e-86
3.7908775e-91
9.4317043e-97
6.7260078e-103
8.4516061e-110
5.952002e-118
1.7512284e-64
2.6443404e-68
2.3985085e-72
1.2520384e-76
3.5950004e-81
5.3030705e-86
3.5380458e-91
8.8084357e-97
6.1868951e-103
7.5844177e-110
5.1893541e-118
6.9558591e-61
1.5510398e-64
2.3333888e-68
2.1251844e-72
1.1279119e-76
3.3083172e-81
4.9465815e-86
3.2918037e-91
8.0347451e-97
5.4809422e-103
6.5180416e-110
4.3460816e-118
3.5447808e-57
6.0468436e-61
1.3725521e-64
2.0728898e-68
1.9197267e-72
1.0398738e-76
3.0808842e-81
4.5770301e-86
2.97434e-91
7.0244369e-97
4.6451892e-103
5.406525e-110
3.5811912e-118
2.3905802e-52
2.6454575e-57
5.2926476e-61
1.2201663e-64
1.8760297e-68
1.7729023e-72
9.6663505e-77
2.8311213e-81
4.0917068e-86
2.5670239e-91
5.8791869e-97
3.8261667e-103
4.4727368e-110
3.0444604e-118
3.0637081e-46
1.2877414e-52
2.0567672e-57
4.6345224e-61
1.1031925e-64
1.7348514e-68
1.6454004e-72
8.8185524e-77
2.5013463e-81
3.4869242e-86
2.1260679e-91
4.8239542e-97
3.1901157e-103
3.8895229e-110
2.8207282e-118
5.0427658e-40
1.7399058e-46
7.0706022e-53
1.5640057e-57
4.1266931e-61
1.0204731e-64
1.6087751e-68
1.4908154e-72
7.6987337e-77
2.1050208e-81
2.8635416e-86
1.7435806e-91
4.0686475e-97
2.8449705e-103
3.7388356e-110
2.9394425e-118
3.8724105e-34
3.6143478e-40
8.7016961e-47
2.9593296e-53
1.2130899e-57
3.7902016e-61
9.4692578e-65
1.4493041e-68
1.2865591e-72
6.4018117e-77
1.7172639e-81
2.3546554e-86
1.49222e-91
3.7272832e-97
2.8323654e-103
4.0386582e-110
3.3884085e-118
1.1063022e-28
3.451207e-34
1.984334e-40
2.3005234e-47
1.0741084e-53
1.0211908e-57
3.5170932e-61
8.4986951e-65
1.2370675e-68
1.0579039e-72
5.1982055e-77
1.4203008e-81
2.0497626e-86
1.4044805e-91
3.8316636e-97
3.1491244e-103
4.738958e-110
4.0673419e-118
1.0608634e-23
1.167187e-28
2.0664192e-34
4.8439296e-41
3.5080907e-48
5.0033126e-54
9.1475075e-58
3.1495126e-61
7.1785672e-65
1.0060799e-68
8.5646002e-73
4.3369048e-77
1.2606388e-81
1.9800412e-86
1.4839341e-91
4.3516429e-97
3.7237452e-103
5.6346642e-110
4.7107729e-118
3.1029365e-19
1.2628445e-23
7.4653062e-29
4.9565839e-35
6.0855943e-42
6.8287898e-49
3.4140642e-54
8.0678024e-58
2.6302278e-61
5.7686503e-65
8.1280484e-69
7.2236276e-73
3.932584e-77
1.2486941e-81
2.1380269e-86
1.7071209e-91
5.1376323e-97
4.3433539e-103
6.2974465e-110
4.9277895e-118
2.5489374e-15
3.9373893e-19
8.4313528e-24
1.7867009e-29
6.2891725e-36
1.1756319e-42
3.4226037e-49
2.7511096e-54
6.5711887e-58
2.0808771e-61
4.6477573e-65
6.9405383e-69
6.6962118e-73
3.9897468e-77
1.3708388e-81
2.4701975e-86
1.9946706e-91
5.8328629e-97
4.6508832e-103
6.2355079e-110
4.4539747e-118
5.3511284e-12
3.2719915e-15
2.7468561e-19
2.0712729e-24
2.445044e-30
1.6981465e-36
8.8940322e-43
2.9444654e-49
1.9507646e-54
5.0133977e-58
1.6664091e-61
4.0199538e-65
6.579283e-69
6.9404635e-73
4.432828e-77
1.5783494e-81
2.8330102e-86
2.1902607e-91
5.954652e-97
4.342735e-103
5.2781913e-110
3.4082384e-118
2.7970199e-09
6.6434599e-12
2.3364344e-15
7.4382928e-20
3.3165281e-25
9.87625e-31
2.2368274e-36
1.1464053e-42
1.5266555e-49
1.1564039e-54
3.9178293e-58
1.4584227e-61
3.8976997e-65
6.9500803e-69
7.7627771e-73
5.0545353e-77
1.7631183e-81
2.9917797e-86
2.1256652e-91
5.2340419e-97
3.4430647e-103
3.7791585e-110
2.2206015e-118
3.6308629e-07
3.3373289e-09
4.9070904e-12
7.1772346e-16
1.6126051e-20
1.9922451e-25
2.0531803e-30
3.9628158e-36
5.8657945e-43
3.0465088e-50
7.201302e-55
3.4382208e-58
1.4466961e-61
4.1897042e-65
7.7889769e-69
8.714094e-73
5.467369e-77
1.7802954e-81
2.7547184e-86
1.7602622e-91
3.8942828e-97
2.3183536e-103
2.3327081e-110
1.2825707e-118
1.0933139e-05
4.1550203e-07
2.5253879e-09
1.7664489e-12
2.1337811e-16
1.2803356e-20
5.5152611e-25
4.417837e-30
2.1427984e-36
6.003349e-44
4.2705864e-51
5.6988361e-55
3.4842916e-58
1.5821461e-61
4.6886638e-65
8.5629419e-69
9.0854637e-73
5.2563843e-77
1.5506614e-81
2.1535875e-86
1.2351906e-91
2.4840115e-97
1.3726822e-103
1.3195393e-110
7.1938378e-119
6.2528982e-05
1.1962407e-05
3.2425226e-07
1.0588974e-09
6.9355828e-13
2.1134456e-16
3.8194868e-20
1.293332e-24
2.4415955e-30
1.8732513e-37
1.6188279e-45
1.1639124e-51
5.7025037e-55
3.8831596e-58
1.7652701e-61
5.026435e-65
8.5698052e-69
8.2987846e-73
4.3231528e-77
1.1455734e-81
1.4355046e-86
7.5451823e-92
1.4332996e-97
7.7833578e-104
7.7131395e-111
4.563137e-119
0.00013031752
6.5293213e-05
9.9893618e-06
1.5981762e-07
5.2859513e-10
8.0029773e-13
6.1552824e-16
8.9747829e-20
7.136261e-25
1.9825101e-31
3.2312273e-39
3.5911382e-47
7.7071091e-52
6.4419809e-55
4.3232196e-58
1.8396348e-61
4.8095224e-65
7.4224814e-69
6.4512828e-73
3.0231774e-77
7.3024465e-82
8.5188357e-87
4.3266051e-92
8.3696846e-98
4.9030621e-104
5.54413e-111
3.9053509e-119
0.00018881637
0.00013381117
5.9918738e-05
6.0409524e-06
9.6859289e-08
6.7885134e-10
2.186015e-12
1.3740172e-15
4.8993464e-20
5.6814179e-26
2.9396233e-33
2.6390261e-41
3.1545167e-48
7.9626499e-52
7.16342e-55
4.371102e-58
1.6762637e-61
3.9409578e-65
5.4615095e-69
4.2930689e-73
1.8564521e-77
4.2752934e-82
4.9694037e-87
2.6770009e-92
5.8706311e-98
4.1104895e-104
5.7183805e-111
4.949302e-119
0.00023460462
0.00019145123
0.00012668641
4.6296017e-05
4.3247459e-06
1.324508e-07
1.7098847e-09
4.499311e-12
7.417715e-16
4.0532632e-21
8.8748582e-28
2.0967517e-35
5.4347443e-43
1.6538399e-48
8.7145116e-52
7.01713e-55
3.776239e-58
1.2955133e-61
2.7480916e-65
3.4808692e-69
2.568912e-73
1.0891249e-77
2.6023941e-82
3.3511796e-87
2.1449334e-92
5.836461e-98
5.1000428e-104
8.6273371e-111
8.6738078e-119
0.00027215503
0.00023648819
0.0001822539
0.00010905908
3.8855171e-05
5.8720072e-06
3.0249388e-07
3.1627718e-09
2.4167605e-12
6.7145002e-17
7.9864157e-23
9.5754624e-30
6.7532834e-37
2.1365043e-43
1.7877735e-48
8.2048495e-52
5.7163429e-55
2.7409425e-58
8.5655597e-62
1.6891966e-65
2.0571028e-69
1.5390283e-73
7.0795613e-78
1.9658247e-82
3.1148349e-87
2.5278917e-92
8.5521441e-98
8.8404543e-104
1.6700208e-110
1.7783933e-118
0.00030387203
0.00027303759
0.00022583834
0.00016322721
9.9055752e-05
4.7084779e-05
1.1074718e-05
4.9589176e-07
1.6992457e-09
2.495474e-13
1.7927023e-18
1.4339919e-24
6.7381819e-31
8.2435281e-37
4.3068424e-43
1.5557624e-48
6.1679988e-52
3.8711041e-55
1.7177188e-58
5.1133404e-62
1.0003205e-65
1.2840852e-69
1.0913165e-73
6.1030189e-78
2.1376434e-82
4.2829524e-87
4.2379195e-92
1.6357641e-97
1.8100337e-103
3.4847606e-110
3.6529632e-118
0.0003304462
0.00030328098
0.00026114811
0.00020591921
0.00015354525
0.00011098196
6.5884089e-05
1.5229066e-05
2.7210098e-07
2.0722487e-10
9.3880962e-15
5.6601582e-20
2.2766312e-25
1.9073034e-30
3.0722911e-36
3.8459498e-43
8.0392443e-49
3.8092565e-52
2.2936625e-55
1.0030314e-58
3.0801056e-62
6.6357517e-66
1.0113018e-69
1.0818033e-73
7.7331297e-78
3.3565709e-82
7.9055057e-87
8.5896957e-92
3.4143438e-97
3.7233033e-103
6.8772754e-110
6.8118639e-118
0.00035117283
0.00032810471
0.00029054101
0.0002406555
0.0001969753
0.00016771354
0.00013493995
7.5790698e-05
9.5017983e-06
4.1022942e-08
1.1330164e-11
5.4762497e-16
1.9719692e-20
1.0462534e-24
9.0663509e-30
3.0870007e-36
5.9709633e-44
3.243996e-49
2.1112987e-52
1.3184102e-55
6.2400238e-59
2.2113247e-62
5.8793359e-66
1.1514384e-69
1.5682498e-73
1.351991e-77
6.5862654e-82
1.636719e-86
1.7736634e-91
6.7630223e-97
6.9301372e-103
1.1915873e-109
1.0956859e-117
0.00036639848
0.00034729188
0.00031436246
0.00027029356
0.00023212068
0.00021243061
0.00019414079
0.00014605519
5.9053053e-05
2.0831843e-06
3.3496924e-09
1.2607343e-12
3.8327365e-16
1.1521654e-19
5.4234343e-24
9.6611993e-30
3.4729814e-37
2.3719244e-45
1.4370618e-49
1.1991165e-52
8.5963868e-56
4.9240754e-59
2.2197215e-62
7.6226542e-66
1.8638062e-69
2.9556072e-73
2.7447745e-77
1.3524963e-81
3.2636602e-86
3.3251085e-91
1.1723065e-96
1.1048027e-102
1.7482463e-109
1.4853218e-117
0.00037687964
0.00036120807
0.00033296817
0.00029471827
0.00026227417
0.00024772333
0.0002391417
0.00020435246
0.00012452103
2.4667325e-05
2.6907952e-07
7.0618193e-10
1.5592179e-12
2.421307e-15
5.949547e-19
5.915099e-24
1.1117608e-30
3.7454218e-39
1.4513959e-46
7.8258784e-50
8.300003e-53
7.5460881e-56
5.603688e-59
3.2308098e-62
1.3424094e-65
3.6723164e-69
6.0409219e-73
5.4929e-77
2.5570543e-81
5.7157813e-86
5.321101e-91
1.7087252e-96
1.4709149e-102
2.1385118e-109
1.6817473e-117
0.0003827795
0.00037063156
0.00034667581
0.00031433252
0.00028750603
0.00027709932
0.0002730439
0.00024724589
0.00017921789
7.6992998e-05
6.1927493e-06
1.0115662e-07
1.3279887e-09
9.6650553e-12
1.1697243e-14
6.4882671e-19
7.2721763e-25
1.1497781e-32
8.7243427e-42
4.2275655e-47
5.7909065e-50
8.1644504e-53
9.6891847e-56
8.9931302e-59
6.0346381e-62
2.6939467e-65
7.3888842e-69
1.1580307e-72
9.7396259e-77
4.1416239e-81
8.392534e-86
7.061272e-91
2.0578229e-96
1.6189278e-102
2.1693548e-109
1.5870439e-117
0.00038472311
0.00037596515
0.00035630546
0.00032950857
0.00030813093
0.00030131517
0.00030004829
0.00027892647
0.00022054623
0.00012840917
3.7282789e-05
3.7801696e-06
2.4655456e-07
7.5609553e-09
4.1561107e-11
1.2538059e-14
8.7062128e-20
8.7145308e-27
1.8812605e-35
8.1821732e-44
3.0482764e-47
6.380469e-50
1.1724588e-52
1.6820322e-55
1.7404462e-58
1.2069442e-61
5.2428942e-65
1.3394295e-68
1.9093789e-72
1.4462381e-76
5.5409974e-81
1.011582e-85
7.6761263e-91
2.034147e-96
1.4686726e-102
1.8241084e-109
1.2498431e-117
0.00038410334
0.00037810025
0.00036242672
0.00034101431
0.00032456047
0.00032091113
0.0003215315
0.00030358794
0.00025184408
0.00016991452
8.5331665e-05
3.2130874e-05
9.369184e-06
1.1906466e-06
2.7769756e-08
4.3118705e-11
1.8719777e-15
1.2926377e-21
2.0866517e-29
2.2711774e-38
1.586235e-44
3.6895583e-47
1.0141063e-49
2.1633296e-52
3.3063324e-55
3.4075996e-58
2.2414352e-61
8.9077519e-65
2.0423694e-68
2.594098e-72
1.7521536e-76
6.0288742e-81
9.9157842e-86
6.8068509e-91
1.6481445e-96
1.0987368e-102
1.2738593e-109
8.2396694e-118
0.00038155598
0.000378002
0.00036610587
0.00034937174
0.00033756933
0.00033630742
0.00033832673
0.00032286856
0.0002778007
0.00020258128
0.00012892033
8.4016878e-05
5.8947066e-05
2.8354165e-05
3.4432418e-06
2.7594002e-08
7.2904816e-12
3.6214733e-17
4.9065377e-24
3.0181816e-32
8.2431184e-41
1.6746239e-44
6.4288441e-47
1.9622102e-49
4.2515253e-52
6.247338e-55
5.9714386e-58
3.5458721e-61
1.2507679e-64
2.5335792e-68
2.8470288e-72
1.7125251e-76
5.3024909e-81
7.8813258e-86
4.9217264e-91
1.0958394e-96
6.7945743e-103
7.4136887e-110
4.5671213e-118
0.00037697866
0.00037635114
0.00036840496
0.00035564073
0.00034747997
0.00034840274
0.00035096523
0.00033754474
0.00029846345
0.00023229361
0.00016418874
0.00013199832
0.00012325509
0.00010230238
5.0020568e-05
3.2846086e-06
5.3884178e-09
1.9248959e-13
2.1678253e-19
1.0969903e-26
3.2872693e-35
9.6935174e-42
3.1098594e-44
1.294842e-46
3.8119364e-49
7.6693532e-52
1.0239149e-54
8.7532457e-58
4.570517e-61
1.4140842e-64
2.5183377e-68
2.5028561e-72
1.3447309e-76
3.7636876e-81
5.0806944e-86
2.9062983e-91
5.9949225e-97
3.4859719e-103
3.6123145e-110
2.1401106e-118
0.00037397365
0.00037397062
0.00037015067
0.00036096281
0.00035483465
0.00035728798
0.00036025921
0.00034809678
0.00031478926
0.00025734889
0.00019498154
0.00017066848
0.00017658089
0.00017374247
0.00013255857
4.7536157e-05
8.0450319e-07
2.0018526e-10
1.7663643e-15
7.4037787e-22
1.5756876e-29
1.0328848e-37
1.3527146e-41
6.5265721e-44
2.4714087e-46
6.5075187e-49
1.1666067e-51
1.3831618e-54
1.0333563e-57
4.7025009e-61
1.2721001e-64
1.992801e-68
1.7571486e-72
8.4778849e-77
2.1573353e-81
2.6618208e-86
1.4056499e-91
2.7089766e-97
1.4911777e-103
1.4823926e-110
8.5370674e-119
0.00037159172
0.00037450621
0.0003751377
0.00036540962
0.00036048084
0.00036339359
0.00036629108
0.00035519148
0.00032715403
0.00027840638
0.00022195732
0.00020120115
0.00021722269
0.00022993449
0.00020447796
0.00012689
2.0529283e-05
4.3816585e-08
2.7430019e-12
8.9997029e-18
1.6993773e-24
3.6968231e-32
3.100806e-38
3.134157e-41
1.2265307e-43
3.9641218e-46
9.1171489e-49
1.4404278e-51
1.4928094e-54
9.6653425e-58
3.826006e-61
9.059942e-65
1.2525844e-68
9.8494562e-73
4.2971092e-77
1.0007944e-81
1.13736e-86
5.5928386e-92
1.0168425e-97
5.355094e-104
5.165457e-111
2.9261926e-119
0.00036900995
0.00037571361
0.00037493824
0.00037571708
0.00036429364
0.00036738272
0.00036963395
0.00035918753
0.00033623091
0.00029597553
0.00024523841
0.00022686936
0.00024757342
0.00026990413
0.00025945436
0.00019537089
8.3332457e-05
2.2160039e-06
8.7582644e-10
2.062838e-14
3.5844849e-20
1.1775271e-26
1.58056e-32
1.9604099e-37
6.3695604e-41
1.83745e-43
5.0677083e-46
1.0212816e-48
1.4189295e-51
1.2681588e-54
7.1088474e-58
2.4517513e-61
5.0999628e-65
6.2543421e-69
4.4154772e-73
1.7564218e-77
3.7726692e-82
3.9863114e-87
1.8435266e-92
3.1985647e-98
1.6317968e-104
1.5474138e-111
8.7392925e-120
0.00036614503
0.00037326368
0.00037776106
0.00037408559
0.00037513544
0.00036915394
0.00037070441
0.00036074406
0.00034257386
0.00031049787
0.00026527506
0.00024872246
0.00027020734
0.00029710338
0.00029506787
0.00024595768
0.00014585516
2.3918234e-05
6.7713661e-08
9.8857645e-12
1.6463306e-16
1.1200943e-21
2.2512025e-26
3.5950733e-31
1.0231042e-36
8.846141e-41
2.1099921e-43
5.102043e-46
9.1199708e-49
1.0937173e-51
8.4280467e-55
4.0983053e-58
1.2360167e-61
2.2702437e-65
2.4860881e-69
1.5894384e-73
5.8229855e-78
1.1644977e-82
1.1572604e-87
5.0995162e-93
8.5679612e-99
4.3007392e-105
4.0737637e-112
2.3298694e-120
0.0003686277
0.00036663994
0.00037632463
0.0003775241
0.00037187363
0.00037253636
0.00036968031
0.00036037019
0.00034691008
0.00032234416
0.00028248495
0.00026728983
0.00028867951
0.00031576048
0.00031689873
0.00027900893
0.00019383297
7.0422465e-05
1.5122785e-06
1.2252565e-09
1.9856813e-13
2.6958746e-17
6.4416191e-21
6.2558067e-25
3.3589131e-30
1.3987626e-36
8.0306384e-41
1.8711881e-43
4.0782227e-46
6.3703371e-49
6.5640721e-52
4.3709793e-55
1.850904e-58
4.9081235e-62
8.0170417e-66
7.9111534e-70
4.6346408e-74
1.5848031e-78
2.9920021e-83
2.8427177e-88
1.2168538e-93
2.0215889e-99
1.0199882e-105
9.8522034e-113
5.8133947e-121
0.00036660458
0.00036538995
0.00036779503
0.00037761519
0.00037526947
0.00036768265
0.00036644515
0.00035857478
0.00034996418
0.00033211886
0.00029719991
0.00028302776
0.00030358987
0.00033016847
0.00033224398
0.00030074491
0.00022845853
0.00011477443
1.1467713e-05
5.0594258e-08
7.7504296e-11
1.5069272e-13
2.8646039e-16
1.6407167e-19
5.5908415e-24
4.8056366e-30
3.7907786e-37
5.5234064e-41
1.3148667e-43
2.572074e-46
3.4493824e-49
3.0620078e-52
1.7694054e-55
6.5642562e-59
1.5430918e-62
2.2659358e-66
2.043932e-70
1.1179799e-74
3.6453973e-79
6.6577859e-84
6.2215805e-89
2.6721838e-94
4.5385353e-100
2.3761679e-106
2.4059996e-113
1.4961504e-121
0.00035583461
0.00036149286
0.0003621162
0.00036854945
0.00037677888
0.00037084229
0.00035999927
0.00035605089
0.00035235583
0.00034057586
0.00030982851
0.00029627165
0.00031561451
0.00034048594
0.00034273111
0.00031627439
0.00025676148
0.00015013408
3.6380791e-05
8.8224871e-07
1.0635083e-08
1.8605801e-10
2.0410077e-12
6.028702e-15
1.2798756e-18
7.9540688e-24
7.4105948e-31
4.1160216e-38
3.21183e-41
7.4013438e-44
1.2546056e-46
1.4468731e-49
1.1119521e-52
5.6164977e-56
1.8444945e-59
3.9000171e-63
5.2527107e-67
4.4514406e-71
2.3564889e-75
7.639803e-80
1.4177084e-84
1.3761923e-89
6.2809824e-95
1.1509355e-100
6.5406632e-107
7.1693462e-114
4.7790634e-122
0.0003544364
0.00035223139
0.00035519361
0.00035880651
0.00036791119
0.00037358872
0.00036293179
0.00034831005
0.00034102478
0.0003478646
0.00032090807
0.00030735674
0.00032496514
0.00034794701
0.0003488367
0.00032647649
0.0002785186
0.00018777602
6.7690595e-05
6.9802902e-06
5.0416067e-07
5.0146082e-08
2.5133868e-09
3.3280165e-11
3.97317e-14
1.7604539e-18
1.3514307e-24
1.0920098e-32
7.5313894e-39
1.5727554e-41
3.2390489e-44
4.7289108e-47
4.719448e-50
3.1702852e-53
1.4201636e-56
4.2187812e-60
8.2800091e-64
1.0694649e-67
9.0489232e-72
5.0050987e-76
1.759371e-80
3.6446824e-85
4.0429347e-90
2.1340743e-95
4.504688e-101
2.8966723e-107
3.4952958e-114
2.4828613e-122
0.00035501562
0.00035450998
0.00034724442
0.00034852174
0.00035464682
0.00036523493
0.00036722826
0.00035107671
0.00033238283
0.00032058049
0.00033087767
0.00031657008
0.00033201124
0.00035249605
0.00035169748
0.00033198591
0.00029470636
0.00021875606
0.00010622661
2.6213512e-05
7.4573301e-06
2.9567564e-06
5.7358018e-07
3.0231028e-08
1.8002995e-10
5.1934617e-14
3.4015815e-19
2.2735612e-26
3.2529591e-35
2.6314424e-39
6.1034359e-42
1.0956731e-44
1.3880638e-47
1.2155852e-50
7.2979531e-54
3.0019031e-57
8.5022938e-61
1.6716908e-64
2.2977307e-68
2.212421e-72
1.4780793e-76
6.4930797e-81
1.7026071e-85
2.3752509e-90
1.5357558e-95
3.8131037e-101
2.7519035e-107
3.553509e-114
2.5815962e-122
0.0003396616
0.00035949912
0.00035276771
0.000340963
0.00034077373
0.00034904788
0.00035985334
0.00035703005
0.00033519124
0.00031145148
0.00029454533
0.00032405542
0.0003370947
0.000354744
0.00035158505
0.00033377954
0.00030604478
0.00024488613
0.00014176093
5.6397709e-05
3.5260436e-05
3.1819029e-05
2.0013057e-05
4.4740763e-06
1.298652e-07
2.2098474e-10
1.133252e-14
8.1062333e-21
3.44524e-29
6.8384268e-37
8.7126271e-40
1.8454352e-42
2.9022864e-45
3.2601562e-48
2.5972824e-51
1.477058e-54
6.1001927e-58
1.8730124e-61
4.3667677e-65
7.772006e-69
1.0347531e-72
9.7537487e-77
5.9030783e-81
2.0308917e-85
3.5101839e-90
2.6476499e-95
7.254957e-101
5.50772e-107
7.1822915e-114
5.0848932e-122
0.00033008868
0.00034678881
0.00036173823
0.00034905812
0.0003328851
0.00033145258
0.00034133882
0.00035103578
0.00034284686
0.00031444939
0.00028532452
0.00026289947
0.00034021827
0.000354843
0.00034912765
0.00033267921
0.00031343471
0.00026661485
0.00017385901
8.9968557e-05
6.9543167e-05
8.851368e-05
8.9821433e-05
6.136399e-05
1.2802998e-05
1.4834235e-07
5.4554525e-11
3.803195e-16
2.1990761e-23
2.1939962e-32
1.0712325e-37
2.3264337e-40
4.4287176e-43
6.3085112e-46
6.6706621e-49
5.3282295e-52
3.3248343e-55
1.6847472e-58
7.1127116e-62
2.4827842e-65
6.8130946e-69
1.3544468e-72
1.7647019e-76
1.3524251e-80
5.4514206e-85
1.0388067e-89
8.2444598e-95
2.2957479e-100
1.7254452e-106
2.1817545e-113
1.4704491e-121
0.00034152989
0.00033470877
0.00035214237
0.00036182643
0.00034325019
0.00032302459
0.0003199865
0.0003309326
0.00033838311
0.00032390943
0.00028861039
0.00025396646
0.00022607505
0.00035285185
0.00034447447
0.00032935322
0.00031788805
0.00028422748
0.0002028782
0.00012169099
0.00010223773
0.00013488549
0.00016058157
0.00015011302
9.362033e-05
1.3479606e-05
4.2084423e-08
2.5757078e-12
1.9026867e-18
1.6844016e-26
6.4402683e-35
2.2971615e-38
5.0762722e-41
9.1150257e-44
1.297249e-46
1.510277e-49
1.5122715e-52
1.3585323e-55
1.0991503e-58
7.6419738e-62
4.1888463e-65
1.637587e-68
4.1569488e-72
6.2889998e-76
5.2148144e-80
2.1710153e-84
4.1486245e-89
3.2392668e-94
8.7644381e-100
6.3461448e-106
7.6786975e-113
5.0685854e-130
0.00034868743
0.00034094667
0.00033804166
0.00035572249
0.0003597428
0.00033547306
0.00031097232
0.00030607027
0.00031719774
0.00032125042
0.00029985218
0.00025778686
0.00021771993
0.00018149318
0.00033784194
0.00032437184
0.00032037841
0.00029834818
0.00022898701
0.00015071191
0.00013130082
0.00016834937
0.00021497311
0.00022291184
0.00018553935
9.3714928e-05
5.2156217e-06
2.8360164e-09
2.3103437e-14
2.929677e-21
8.7938523e-30
2.5534262e-36
4.5263521e-39
1.0227198e-41
2.0202937e-44
3.6324883e-47
6.2667349e-50
1.0538473e-52
1.64754e-55
2.1778771e-58
2.1925876e-61
1.531043e-64
6.8664663e-68
1.8564406e-71
2.8538079e-75
2.3293015e-79
9.4082274e-84
1.7310157e-88
1.2967432e-93
3.3618496e-99
2.3318239e-105
3.177012e-121
1.1795425e-139
0.00032929725
0.00034205805
0.00033850125
0.00034038286
0.0003574221
0.00035554842
0.00032536826
0.00029628603
0.00028943019
0.00029949976
0.00029924341
0.00027058469
0.00022155423
0.00017352378
0.00012571348
0.00031817466
0.00032162367
0.00031004458
0.00025222806
0.00017737454
0.00015690459
0.00019603123
0.00024897636
0.0002755533
0.00025541587
0.00018404386
6.205161e-05
5.7117568e-07
4.5152834e-11
7.0745583e-17
2.4195262e-24
7.0982761e-33
3.4112756e-37
9.3218995e-40
2.6787053e-42
7.9610858e-45
2.4966425e-47
7.8913163e-50
2.2644623e-52
5.2342383e-55
8.8191932e-58
1.0077532e-60
7.3876655e-64
3.3169742e-67
8.7388275e-71
1.2891177e-74
1.0012989e-78
3.8460456e-83
6.7392341e-88
4.8203725e-93
1.19682e-98
1.3458184e-113
7.1231472e-131
2.0369174e-150
0.00031106974
0.00031884506
0.00033299006
0.0003347965
0.00034175452
0.00035701259
0.00034901562
0.00031256326
0.00027866021
0.00026949496
0.00027735471
0.00027195057
0.00023493246
0.00017681821
0.00011788891
5.943419e-05
0.00032209713
0.00032042033
0.00027295744
0.00020203987
0.00017987684
0.00021923221
0.00027630385
0.00030908353
0.00030083337
0.00025165101
0.00014745409
1.8583185e-05
1.6340555e-08
2.6487272e-13
1.1000542e-19
1.1703292e-27
5.3396145e-35
7.2801983e-38
3.2027341e-40
1.6636062e-42
9.5676546e-45
5.4067555e-47
2.6183971e-49
9.7006666e-52
2.5372369e-54
4.4445939e-57
5.026923e-60
3.5514272e-63
1.5167385e-66
3.7821116e-70
5.2600468e-74
3.8583804e-78
1.4055121e-82
2.3465955e-87
1.6068645e-92
1.0354731e-106
3.8505462e-123
8.4241536e-142
2.1057076e-162
0.00032173621
0.00030273859
0.00030665412
0.00032235555
0.00033047967
0.00034157797
0.00035432205
0.00033967643
0.00029683244
0.00025752112
0.00024538644
0.00025001496
0.00023788031
0.00019001941
0.00011993605
5.3695318e-05
1.0001388e-05
0.00033034921
0.00029160888
0.00022505288
0.00020080304
0.00023928643
0.00029838196
0.00033501251
0.00033111402
0.00029235439
0.00021637166
8.4820238e-05
1.2823746e-06
1.7771481e-10
7.5433047e-16
8.8495001e-23
5.265665e-31
5.7458527e-36
3.5957294e-38
3.3311745e-40
3.3749487e-42
3.1504845e-44
2.367781e-46
1.3088096e-48
5.0247146e-51
1.2900372e-53
2.1580602e-56
2.3011736e-59
1.5254165e-62
6.1120946e-66
1.433332e-69
1.8746293e-73
1.3007124e-77
4.5085905e-82
7.2044781e-87
2.1512655e-100
4.4552915e-116
4.2266393e-134
5.8719994e-154
1.2490296e-175
0.00033924044
0.00031996278
0.00029288962
0.00029300955
0.00031157699
0.00032477823
0.00033931338
0.00034877199
0.00032752157
0.00027741605
0.00023227798
0.00021661654
0.00021688344
0.00019449305
0.00013173694
5.5366936e-05
8.1566887e-06
3.3307736e-07
0.00030939114
0.00024654924
0.00021999311
0.00025675683
0.00031708149
0.00035492699
0.00035290172
0.00031940334
0.00026174746
0.00015428025
2.0619877e-05
2.5973377e-08
8.9223314e-13
1.0652924e-18
3.9333179e-26
1.6735093e-33
3.8713861e-36
6.1971791e-38
1.0316989e-39
1.4683528e-41
1.5995382e-43
1.2511093e-45
6.760685e-48
2.4595566e-50
5.9023992e-53
9.1895553e-56
9.1214111e-59
5.6437912e-62
2.1200401e-65
4.6758544e-69
5.7735959e-73
3.8079897e-77
1.2630102e-81
1.5141826e-94
1.5017492e-109
6.275939e-127
1.8754007e-146
3.0546834e-167
7.5961093e-190
0.00032591866
0.00034580177
0.00031628551
0.0002816748
0.00027795039
0.00029857063
0.00031718748
0.00033429931
0.00034019844
0.00031160141
0.00025375404
0.00020249302
0.00018298552
0.00017487956
0.00013740577
6.4444129e-05
8.6216478e-06
2.430373e-07
2.7097254e-09
0.00026659593
0.0002376215
0.00027170736
0.00033271869
0.0003712549
0.00036787906
0.00033619258
0.00029130186
0.00021260749
7.3949432e-05
1.0105514e-06
2.229346e-10
2.1459624e-15
7.6636812e-22
1.5799397e-29
4.4848329e-34
1.0219911e-35
2.5944109e-37
5.266604e-39
7.8990901e-41
8.407161e-43
6.1949596e-45
3.1042734e-47
1.0419261e-49
2.307955e-52
3.3275363e-55
3.0722592e-58
1.7777371e-61
6.2845348e-65
1.3073262e-68
1.5329146e-72
9.6710893e-77
4.1965964e-89
1.7709849e-103
3.3007514e-120
2.3659656e-139
6.2366173e-160
1.9277333e-181
8.1322165e-205
0.00028514136
0.00034021845
0.00034940163
0.00031076997
0.00026892727
0.00026115815
0.00028349135
0.00030688632
0.00032593279
0.00032774761
0.00029121605
0.00022459951
0.00016725235
0.0001410172
0.00012040723
6.9037346e-05
1.1536635e-05
2.5345608e-07
1.7465442e-09
5.640273e-12
0.00025372053
0.00028411231
0.00034484125
0.00038425155
0.00037812376
0.0003450472
0.00030771483
0.00025317135
0.00014121481
1.1606623e-05
1.4721096e-08
8.8295365e-13
2.5475255e-18
3.144048e-25
1.2281069e-31
1.4389838e-33
5.1866785e-35
1.427589e-36
2.8368018e-38
3.9853209e-40
3.9021952e-42
2.6297732e-44
1.2053315e-46
3.712572e-49
7.585033e-52
1.0144595e-54
8.7413665e-58
4.7513765e-61
1.5873661e-64
3.1322021e-68
3.5113662e-72
5.0966676e-84
8.3326307e-98
6.6629819e-114
1.5088596e-132
4.5402453e-153
3.2111276e-174
2.2687265e-196
2.2453245e-220
0.00026845601
0.0003021138
0.00035129844
0.00035027311
0.00030321196
0.00025454159
0.00024241337
0.00026552881
0.00029311467
0.00031345476
0.00031059976
0.00026458005
0.00018834103
0.0001235178
8.8172296e-05
5.5492338e-05
1.332421e-05
3.738725e-07
1.733597e-09
3.1322961e-12
3.00552e-15
0.00029366985
0.00035278072
0.0003930673
0.00038395219
0.00034750332
0.00031457988
0.00027878732
0.00019621035
5.8165156e-05
3.3121125e-07
9.2630943e-11
1.6795831e-15
1.5747173e-21
2.3071413e-28
1.7806759e-31
8.1094813e-33
2.9137812e-34
7.4459037e-36
1.3461403e-37
1.7119265e-39
1.5184651e-41
9.3016477e-44
3.8944377e-46
1.1023498e-48
2.0837635e-51
2.5961087e-54
2.0981349e-57
1.0774119e-60
3.4172488e-64
6.4421674e-68
2.9379242e-79
1.7266742e-92
5.5879788e-108
4.6599761e-126
2.1401662e-146
1.3923156e-167
3.7108082e-189
6.9086332e-212
2.0971589e-236
0.00030061581
0.00028157316
0.00031718643
0.00035912753
0.00034840246
0.00029364913
0.00023823506
0.00022127023
0.00024421493
0.00027521674
0.00029631099
0.00028796309
0.00022950624
0.00014199413
7.0053166e-05
3.1199413e-05
8.6638341e-06
4.7099746e-07
2.6959044e-09
2.8656018e-12
1.3956491e-15
4.2189144e-19
0.00035578369
0.00039606257
0.00038471658
0.00034406584
0.00031394524
0.00029243529
0.00023866322
0.0001168606
6.7925868e-06
3.1820827e-09
2.7207312e-13
1.6115823e-18
7.6069429e-25
2.4819092e-29
9.9395839e-31
4.5060307e-32
1.4443914e-33
3.2853719e-35
5.3116128e-37
6.0745483e-39
4.872812e-41
2.7157863e-43
1.0413655e-45
2.7190146e-48
4.7775917e-51
5.5748501e-54
4.2509052e-57
2.0759549e-60
6.2851162e-64
8.5506981e-75
1.6998387e-87
2.1008782e-102
6.7311616e-120
7.0021836e-140
3.3995636e-161
1.2552068e-182
1.1947598e-204
7.0136172e-228
1.2943604e-252
0.00035384185
0.00030492248
0.00029359667
0.00033007605
0.00036377036
0.00034385713
0.00028173658
0.00021965471
0.00019740257
0.00021921273
0.00025258722
0.00027368464
0.0002563238
0.00018096778
8.4136149e-05
1.9266805e-05
2.9988415e-06
2.6547136e-07
3.6509572e-09
4.672074e-12
1.1265855e-15
1.6568931e-19
1.68423e-23
0.00039201114
0.00037898348
0.00033485141
0.00030699468
0.00029757148
0.0002683767
0.00017265181
3.7691742e-05
1.6852197e-07
1.3609038e-11
3.9504069e-16
9.6405949e-22
5.8908041e-27
9.9191329e-29
5.3936706e-30
2.1058407e-31
5.890008e-33
1.1854961e-34
1.7127008e-36
1.7635093e-38
1.282308e-40
6.523347e-43
2.3002209e-45
5.5669548e-48
9.143188e-51
1.0055356e-53
7.2834381e-57
3.4017003e-60
1.3201213e-70
8.4361188e-83
3.7814351e-97
4.6159032e-114
1.3877012e-133
7.064219e-155
1.7464712e-176
3.8357298e-198
1.3019101e-220
4.6640438e-244
7.1185101e-269
0.0003804083
0.000347134
0.00030787129
0.00030470595
0.00034038974
0.00036515034
0.00033641703
0.00026715931
0.00019832769
0.00017046347
0.00019016336
0.00022439934
0.00024349497
0.00020919912
0.00011870491
2.5388545e-05
1.265461e-06
6.5071995e-08
1.9539447e-09
6.7912671e-12
1.9204613e-15
1.1093602e-19
5.7773956e-24
2.0961889e-28
0.00036601267
0.00032023178
0.00029490786
0.00029639432
0.00028863753
0.00022132676
8.9689359e-05
2.7972491e-06
1.6603561e-09
2.8613555e-14
3.5579292e-19
2.4262364e-24
9.1420774e-27
5.2350207e-28
2.4041764e-29
7.9495347e-31
1.9386589e-32
3.4651872e-34
4.4884251e-36
4.1744814e-38
2.7613617e-40
1.2876317e-42
4.1958538e-45
9.4658803e-48
1.4623227e-50
1.5263894e-53
1.0587531e-56
1.1258524e-66
2.213252e-78
3.4401946e-92
1.5610382e-108
1.5092917e-127
1.2565463e-148
1.7447891e-170
4.0632981e-192
4.3077388e-214
9.3190959e-237
2.741102e-260
3.504133e-285
0.00034574351
0.00036195619
0.00033762448
0.00031017583
0.00031438837
0.00034770586
0.00036324797
0.00032585695
0.00024944066
0.00017371307
0.00014028602
0.000156593
0.00019259501
0.00019966746
0.00014541318
4.7662037e-05
1.6757885e-06
1.934012e-08
3.7400825e-10
3.5315896e-12
2.9369533e-15
1.8629929e-19
3.1899536e-24
6.5645702e-29
8.5899563e-34
0.00030077946
0.00027882238
0.00029086644
0.00030246647
0.00026242088
0.0001448722
1.9517718e-05
5.4639676e-08
8.2847297e-12
5.3775466e-17
2.1292275e-21
1.9312117e-24
4.9668737e-26
2.3062888e-27
8.6759796e-29
2.416319e-30
5.1282354e-32
8.183319e-34
9.5420227e-36
8.0468414e-38
4.8628278e-40
2.0886771e-42
6.325322e-45
1.3386497e-47
1.9587968e-50
1.9554691e-53
5.4887482e-63
3.1905048e-74
1.6532533e-87
2.7137244e-103
8.7754141e-122
1.5956885e-142
1.7582235e-164
2.2615179e-186
4.2446171e-208
3.2777333e-230
5.8687619e-253
1.4311803e-276
1.5519187e-301