/*--------------------------------*- C++ -*----------------------------------*\
| =========                 |                                                 |
| \\      /  F ield         | OpenFOAM: The Open Source CFD Toolbox           |
|  \\    /   O peration     | Version:  5.0                                   |
|   \\  /    A nd           | Web:      www.OpenFOAM.org                      |
|    \\/     M anipulation  |                                                 |
\*---------------------------------------------------------------------------*/
FoamFile
{
    version     2.0;
    format      ascii;
    class       volScalarField;
    location    "380";
    object      nuTilda;
}
// * * * * * * * * * * * * * * * * * * * * * * * * * * * * * * * * * * * * * //

dimensions      [0 2 -1 0 0 0 0];

internalField   nonuniform List<scalar> 
9520
(
4.8365063e-33
5.1341933e-31
4.6825412e-33
2.6667727e-29
4.9724655e-31
4.5275474e-33
9.0016121e-28
2.5831988e-29
4.808727e-31
4.378724e-33
2.2227895e-26
8.7205167e-28
2.4983167e-29
4.6518677e-31
4.2468624e-33
4.2915791e-25
2.1535331e-26
8.4349383e-28
2.4173505e-29
4.5150363e-31
4.1391994e-33
6.7714998e-24
4.1578453e-25
2.0833445e-26
8.1640565e-28
2.3477765e-29
4.4063704e-31
4.0554742e-33
8.9962458e-23
6.5604212e-24
4.0228688e-25
2.0172257e-26
7.9342981e-28
2.2937799e-29
4.3233806e-31
3.9862647e-33
1.0252758e-21
8.7171003e-23
6.3484282e-24
3.8967508e-25
1.9617456e-26
7.758897e-28
2.2527597e-29
4.2519508e-31
3.9140179e-33
1.016945e-20
9.9380261e-22
8.4381864e-23
6.1521074e-24
3.7919106e-25
1.9197693e-26
7.624554e-28
2.2153845e-29
4.1700698e-31
3.8190364e-33
8.8973119e-20
9.8626319e-21
9.6250927e-22
8.1821135e-23
5.9902611e-24
3.7127571e-25
1.8868976e-26
7.4939547e-28
2.1688905e-29
4.0571428e-31
3.6889592e-33
7.0633679e-19
8.6312795e-20
9.5591837e-21
9.3393375e-22
7.9725162e-23
5.8676601e-24
3.6485557e-25
1.852761e-26
7.3210696e-28
2.1033454e-29
3.9050028e-31
3.528324e-33
5.9681815e-18
6.8205107e-19
8.371645e-20
9.2814192e-21
9.1062688e-22
7.8127756e-23
5.7636559e-24
3.5775018e-25
1.8056936e-26
7.076423e-28
2.0175408e-29
3.7263716e-31
3.3623339e-33
9.6218413e-17
5.5482117e-18
6.5970577e-19
8.129682e-20
9.0540331e-21
8.9274535e-22
7.670575e-23
5.6415065e-24
3.4772852e-25
1.7397675e-26
6.7669542e-28
1.9221079e-29
3.555153e-31
3.2308628e-33
3.2397436e-15
8.2484945e-17
5.2087768e-18
6.3819756e-19
7.9285257e-20
8.8790858e-21
8.7612088e-22
7.4942122e-23
5.46736e-24
3.3398416e-25
1.6594491e-26
6.4414462e-28
1.8376447e-29
3.4360151e-31
3.1731468e-33
1.1611306e-13
2.8141542e-15
7.0917084e-17
4.8630285e-18
6.2003793e-19
7.7759107e-20
8.7117792e-21
8.544877e-22
7.2412105e-23
5.2350227e-24
3.1791724e-25
1.5796171e-26
6.1769864e-28
1.7874697e-29
3.4058751e-31
3.2091466e-33
3.4389173e-12
1.0684918e-13
2.3605252e-15
5.6947094e-17
4.564543e-18
6.0704238e-19
7.6305438e-20
8.4843065e-21
8.2326377e-22
6.913143e-23
4.9754028e-24
3.0286065e-25
1.5204767e-26
6.049189e-28
1.7873194e-29
3.4750073e-31
3.3265952e-33
7.9530181e-11
3.3396375e-12
9.1656501e-14
1.687009e-15
4.4207947e-17
4.3734611e-18
5.9570164e-19
7.4241438e-20
8.1518721e-21
7.8381189e-22
6.5633047e-23
4.7471894e-24
2.9278866e-25
1.4991407e-26
6.0968102e-28
1.836441e-29
3.6172036e-31
3.4806106e-33
1.3997574e-09
8.0517935e-11
2.9255697e-12
6.4172822e-14
1.0540903e-15
3.6586671e-17
4.2546665e-18
5.7924186e-19
7.1145289e-20
7.7403623e-21
7.4367384e-22
6.276596e-23
4.6119274e-24
2.9055442e-25
1.5211353e-26
6.2963254e-28
1.9147359e-29
3.7746131e-31
3.6066391e-33
1.830388e-08
1.4598719e-09
7.1673759e-11
2.0390263e-12
3.8224624e-14
7.0390307e-16
3.3301801e-17
4.1213067e-18
5.5349113e-19
6.7355423e-20
7.3409484e-21
7.1319418e-22
6.1306636e-23
4.6052271e-24
2.9637625e-25
1.5756067e-26
6.5604522e-28
1.987981e-29
3.8757553e-31
3.6413881e-33
1.7420578e-07
1.9393317e-08
1.3132313e-09
4.9928678e-11
1.2190262e-12
2.5559045e-14
5.9596086e-16
3.1545592e-17
3.9130489e-18
5.2198513e-19
6.3843355e-20
7.062476e-21
7.0046991e-22
6.1579275e-23
4.7161049e-24
3.0724886e-25
1.6370587e-26
6.7640843e-28
2.0191775e-29
3.8592957e-31
3.5436611e-33
1.1786195e-06
1.8509437e-07
1.7640279e-08
9.2107077e-10
3.0461753e-11
8.8838671e-13
2.4028461e-14
5.7398892e-16
2.8900536e-17
3.6568167e-18
4.9407564e-19
6.1624344e-20
6.9752861e-21
7.0727256e-22
6.3238187e-23
4.8837609e-24
3.176811e-25
1.6735434e-26
6.7877917e-28
1.9811878e-29
3.6946273e-31
3.3080332e-33
5.633842e-06
1.2421003e-06
1.6941435e-07
1.2686355e-08
5.852512e-10
2.4588411e-11
9.5847341e-13
2.5554704e-14
4.842101e-16
2.5332552e-17
3.440578e-18
4.7835863e-19
6.1206559e-20
7.0755724e-21
7.2738397e-22
6.5312715e-23
5.0154755e-24
3.2156324e-25
1.658142e-26
6.5600106e-28
1.8659541e-29
3.3925788e-31
2.9675667e-33
1.9099373e-05
5.8798443e-06
1.147202e-06
1.2583964e-07
8.7048476e-09
5.2174522e-10
2.9682814e-11
1.1013835e-12
2.141989e-14
3.2171973e-16
2.2519703e-17
3.3338376e-18
4.778221e-19
6.2348055e-20
7.2788349e-21
7.4815449e-22
6.6524927e-23
5.0196214e-24
3.1442437e-25
1.5788058e-26
6.0817101e-28
1.687655e-29
3.0036399e-31
2.5856629e-33
4.752219e-05
1.9739028e-05
5.4666207e-06
8.8722003e-07
9.3480737e-08
8.3038947e-09
6.7552271e-10
3.5750151e-11
9.3467569e-13
1.1997428e-14
1.9674451e-16
2.1272235e-17
3.3479641e-18
4.8876308e-19
6.4102393e-20
7.4462497e-21
7.5495356e-22
6.5762817e-23
4.8404446e-24
2.9512195e-25
1.4426471e-26
5.4282555e-28
1.4794096e-29
2.6053182e-31
2.2404631e-33
9.1668417e-05
4.8790568e-05
1.8488865e-05
4.3952857e-06
7.0644735e-07
9.4050741e-08
1.0947141e-08
8.3050986e-10
3.0481055e-11
5.0265834e-13
4.8370435e-15
1.4269643e-16
2.1298346e-17
3.4403372e-18
5.0203085e-19
6.5152928e-20
7.436477e-21
7.3676996e-22
6.2513965e-23
4.4799946e-24
2.6628891e-25
1.2742764e-26
4.7306696e-28
1.2850577e-29
2.2833387e-31
2.006929e-33
0.0001455038
9.3688877e-05
4.6116265e-05
1.5459965e-05
3.7140562e-06
7.3733656e-07
1.231732e-07
1.3461122e-08
7.0760798e-10
1.6083456e-11
1.8093492e-13
1.8732408e-15
1.2910382e-16
2.1958225e-17
3.5310172e-18
5.0656259e-19
6.4333688e-20
7.1613626e-21
6.9061439e-22
5.7079931e-23
3.9986691e-24
2.3362761e-25
1.1095725e-26
4.1434147e-28
1.1487465e-29
2.1124384e-31
1.9413397e-33
0.00019759744
0.00014844528
8.9554457e-05
3.9863799e-05
1.3692172e-05
3.9761692e-06
9.4940497e-07
1.4953056e-07
1.1439924e-08
3.7153483e-10
5.5725993e-12
5.4495279e-14
1.0302296e-15
1.3024024e-16
2.2525078e-17
3.5353023e-18
4.9406386e-19
6.1100992e-20
6.6218462e-21
6.2295479e-22
5.0493614e-23
3.4984295e-24
2.0446475e-25
9.8694346e-27
3.8084546e-28
1.1052052e-29
2.1412824e-31
2.0710636e-33
0.00024064257
0.00020000741
0.00014231339
7.9286963e-05
3.6464281e-05
1.4880121e-05
5.0132187e-06
1.1296745e-06
1.2678386e-07
6.0675248e-09
1.3062041e-10
1.6258852e-12
2.102661e-14
8.8318149e-16
1.330609e-16
2.2369216e-17
3.4020493e-18
4.6243821e-19
5.5752648e-20
5.9107313e-21
5.4777813e-22
4.4229872e-23
3.0971105e-24
1.8598765e-25
9.3850265e-27
3.824495e-28
1.1727544e-29
2.3836929e-31
2.3903379e-33
0.00027675854
0.00024242287
0.0001914879
0.00012768324
7.3740384e-05
3.983382e-05
1.8329577e-05
5.8104784e-06
9.5730599e-07
6.8825739e-08
2.2653748e-09
4.2344956e-11
7.0833404e-13
1.7057646e-14
9.0120737e-16
1.3078641e-16
2.1209198e-17
3.1348412e-18
4.1646755e-19
4.9334938e-20
5.1841058e-21
4.8270336e-22
3.9838179e-23
2.9003563e-24
1.8360414e-25
9.8313661e-27
4.2268691e-28
1.3498996e-29
2.8164165e-31
2.8614509e-33
0.00030761391
0.0002776007
0.000232255
0.00017421403
0.00011978511
8.0267839e-05
4.7886677e-05
2.0661498e-05
4.9284785e-06
5.3759113e-07
2.777352e-08
8.362261e-10
2.2532027e-11
7.6285544e-13
2.0355571e-14
8.6637616e-16
1.2149483e-16
1.920835e-17
2.7863794e-18
3.6600454e-19
4.3318897e-20
4.6188819e-21
4.4466483e-22
3.8578092e-23
2.9774303e-24
1.9975737e-25
1.1224976e-26
4.9799962e-28
1.6154408e-29
3.3826694e-31
3.420454e-33
0.00033363458
0.00030702728
0.000266085
0.00021346106
0.00016568564
0.00012954263
9.437413e-05
5.2615173e-05
1.7599514e-05
2.8886414e-06
2.3674245e-07
1.1839114e-08
5.4515935e-10
2.9772894e-11
1.0551228e-12
1.9538672e-14
7.3012232e-16
1.0752539e-16
1.6840802e-17
2.4365402e-18
3.2296243e-19
3.9215516e-20
4.3705012e-21
4.4596476e-22
4.1127961e-23
3.3453832e-24
2.3334856e-25
1.3402123e-26
5.9821886e-28
1.9316931e-29
4.0006752e-31
3.9867738e-33
0.00035400828
0.00033132929
0.00029459097
0.00024639093
0.00020517562
0.00017842774
0.00014955882
0.00010159472
4.5223103e-05
1.086269e-05
1.3988371e-06
1.1796602e-07
9.3642635e-09
8.0899103e-10
4.3624646e-11
1.0397444e-12
1.2060868e-14
5.8021912e-16
9.2747236e-17
1.4677298e-17
2.168947e-18
2.9839902e-19
3.8228331e-20
4.5368633e-21
4.9134989e-22
4.7416725e-23
3.9635844e-24
2.7981251e-25
1.60428e-26
7.0816593e-28
2.2503648e-29
4.5765999e-31
4.4759074e-33
0.00036900977
0.00035018257
0.00031785261
0.00027493354
0.00023828771
0.00021968873
0.00020258584
0.00015901505
8.8627806e-05
2.9554681e-05
5.8179192e-06
8.2071183e-07
1.1054409e-07
1.4699445e-08
1.2095298e-09
4.3598303e-11
5.9046525e-13
5.3247497e-15
4.7353877e-16
8.0645203e-17
1.322916e-17
2.052979e-18
3.0013043e-19
4.097392e-20
5.1336569e-21
5.7659822e-22
5.6601858e-23
4.7393138e-24
3.3183496e-25
1.8723387e-26
8.1017238e-28
2.5206594e-29
5.020361e-31
4.8134956e-33
0.00037935117
0.00036388721
0.00033609619
0.00029866738
0.000267214
0.00025324085
0.00024500967
0.00021199792
0.00014028767
6.1328494e-05
1.7534494e-05
4.0069018e-06
8.8254485e-07
1.7643357e-07
2.1942834e-08
1.2159233e-09
2.4896121e-11
1.8687698e-13
2.655866e-15
4.0783635e-16
7.3834314e-17
1.2864475e-17
2.130336e-18
3.3089779e-19
4.7305954e-20
6.0857502e-21
6.8887456e-22
6.7201046e-23
5.5437413e-24
3.8062637e-25
2.0991692e-26
8.8722443e-28
2.6983781e-29
5.2614907e-31
4.9481103e-33
0.00038517688
0.00037317999
0.00034957128
0.00031782969
0.00029166916
0.00028158289
0.00027764136
0.00025270517
0.00018858215
0.00010201694
4.0003268e-05
1.3918376e-05
4.7619578e-06
1.397544e-06
2.5900158e-07
2.2068599e-08
7.0623786e-10
7.7933465e-12
4.0821202e-14
1.965627e-15
3.7992786e-16
7.3886497e-17
1.3752857e-17
2.4048516e-18
3.8733352e-19
5.6289378e-20
7.2375251e-21
8.0873622e-22
7.7329152e-23
6.2345233e-24
4.175926e-25
2.2452209e-26
9.2615698e-28
2.7540443e-29
5.2616562e-31
4.8597515e-33
0.00038709658
0.0003784437
0.00035905265
0.00033270622
0.00031178311
0.000305142
0.00030389599
0.00028329829
0.00022715689
0.00014349708
7.2192087e-05
3.536844e-05
1.7604576e-05
7.3658607e-06
1.9932382e-06
2.595672e-07
1.3112484e-08
2.2953617e-10
1.5558067e-12
1.2889536e-14
1.8218382e-15
3.9116909e-16
8.1188037e-17
1.581958e-17
2.8376268e-18
4.6016996e-19
6.6353098e-20
8.3758271e-21
9.1362651e-22
8.5080013e-23
6.6819752e-24
4.3599918e-25
2.2843089e-26
9.20141e-28
2.6780873e-29
5.0204355e-31
4.5617834e-33
0.00038648389
0.00038055179
0.00036508571
0.0003440095
0.00032786804
0.00032430303
0.00032490212
0.00030731667
0.00025706478
0.00018007087
0.00010880116
6.8728661e-05
4.600371e-05
2.6292435e-05
1.0108688e-05
1.9834658e-06
1.5858381e-07
4.5010606e-09
5.0501678e-11
2.903357e-13
8.6873319e-15
1.9204701e-15
4.4062102e-16
9.4744742e-17
1.872478e-17
3.3513249e-18
5.3590234e-19
7.5533924e-20
9.2772021e-21
9.8297182e-22
8.8942907e-23
6.799716e-24
4.3223617e-25
2.2085369e-26
8.6978284e-28
2.4815889e-29
4.5728486e-31
4.0958645e-33
0.00038396717
0.00038045521
0.00036871422
0.00035223164
0.0003406365
0.00033940577
0.0003413815
0.0003261858
0.00028216615
0.0002102206
0.00014420463
0.00010837867
8.9732145e-05
6.5862314e-05
3.4502681e-05
9.9644317e-06
1.2519132e-06
5.8267387e-08
1.1129299e-09
9.826705e-12
7.2312601e-14
8.8713511e-15
2.2124467e-15
5.1993623e-16
1.1206198e-16
2.1907948e-17
3.8453601e-18
5.9913424e-19
8.1944001e-20
9.75597e-21
1.0024339e-21
8.810926e-23
6.5604657e-24
4.0659616e-25
2.0289766e-26
7.8250645e-28
2.1925547e-29
3.9795843e-31
3.5214829e-33
0.00037944711
0.00037882619
0.00037098388
0.00035840462
0.00035038037
0.00035129533
0.00035380948
0.00034059178
0.00030228579
0.00023832435
0.00017508943
0.000147225
0.00014005545
0.00012288856
8.2585149e-05
3.369552e-05
6.5276796e-06
4.9819567e-07
1.6147643e-08
2.4133295e-10
1.787332e-12
4.335294e-14
1.0383837e-14
2.635145e-15
6.1281571e-16
1.2954536e-16
2.4713784e-17
4.2172318e-18
6.3614939e-19
8.4189878e-20
9.7050973e-21
9.6701532e-22
8.2629027e-23
5.998947e-24
3.6295226e-25
1.7719461e-26
6.7046912e-28
1.848807e-29
3.3128408e-31
2.9032126e-33
0.0003764809
0.00037647937
0.00037270837
0.00036364838
0.00035761917
0.0003600413
0.00036296125
0.000350969
0.00031824999
0.00026237061
0.00020325704
0.00018119983
0.00018667672
0.00018405313
0.00014756046
8.0134513e-05
2.3023674e-05
2.8329729e-06
1.5352501e-07
3.89216e-09
4.6975053e-11
4.334403e-13
4.7537437e-14
1.2488396e-14
3.0903702e-15
6.9844556e-16
1.4340149e-16
2.6552077e-17
4.3800972e-18
6.3832171e-19
8.1683191e-20
9.1186846e-21
8.8178917e-22
7.3347742e-23
5.1998509e-24
3.0761551e-25
1.4721386e-26
5.4766863e-28
1.4897124e-29
2.6420218e-31
2.2991974e-33
0.00037413189
0.0003770093
0.0003776319
0.00036803169
0.00036318045
0.00036605619
0.00036890557
0.00035795429
0.00033037503
0.00028275723
0.0002285817
0.0002092404
0.00022433763
0.00023633234
0.00021221226
0.00014237408
5.7341927e-05
1.0922054e-05
9.6442552e-07
4.0902272e-08
8.5367517e-10
1.0644534e-11
3.3757704e-13
5.8711909e-14
1.4580608e-14
3.4662914e-15
7.5722738e-16
1.5062754e-16
2.6964111e-17
4.2913276e-18
6.0392852e-19
7.4749914e-20
8.0879349e-21
7.6004055e-22
6.1650864e-23
4.2749493e-24
2.4776238e-25
1.164832e-26
4.2710638e-28
1.1490945e-29
2.0228404e-31
1.7533335e-33
0.00037158281
0.00037820128
0.00037743726
0.0003782036
0.00036693731
0.00036998762
0.00037220088
0.0003618916
0.00033929266
0.00029986219
0.00025078124
0.00023338068
0.00025319128
0.00027466415
0.00026449873
0.00020352552
0.0001066562
2.9708149e-05
4.0803224e-06
2.8341588e-07
1.0347517e-08
2.5752738e-10
9.3565856e-12
5.4437459e-13
6.9917402e-14
1.6068538e-14
3.6719751e-15
7.761505e-16
1.4950298e-16
2.5788415e-17
3.9587886e-18
5.382454e-19
6.4495112e-20
6.7723221e-21
6.1950552e-22
4.9106319e-23
3.3369963e-24
1.8992547e-25
8.7941621e-27
3.1874303e-28
8.5088697e-30
1.4917535e-31
1.2922388e-33
0.00036876088
0.0003757788
0.00038022386
0.00037659637
0.00037762907
0.0003717327
0.00037325509
0.00036342613
0.00034553265
0.00031405423
0.0002700757
0.00025422949
0.00027497608
0.00030106438
0.00029902492
0.00025140231
0.00015838582
6.0056939e-05
1.2130712e-05
1.3296774e-06
8.6017768e-08
4.6053738e-09
3.2428102e-10
2.0533307e-11
8.1723426e-13
7.5434731e-14
1.6564445e-14
3.6641684e-15
7.5169767e-16
1.3954513e-16
2.3193924e-17
3.4360855e-18
4.5176592e-19
5.2475027e-20
5.3565391e-21
4.7802802e-22
3.7123271e-23
2.4782774e-24
1.389293e-25
6.356906e-27
2.2861523e-28
6.0798011e-30
1.0658888e-31
9.2648662e-34
0.00037121155
0.00036924558
0.0003788003
0.00037999111
0.00037441371
0.00037506337
0.00037224304
0.00036305851
0.00034980293
0.00032566141
0.00028675595
0.00027210495
0.00029288271
0.00031928134
0.00032034857
0.00028332792
0.00020191348
9.6371216e-05
2.6773745e-05
4.4588235e-06
5.1384223e-07
5.8068493e-08
7.4609219e-09
7.413203e-10
3.5209073e-11
8.6653736e-13
7.3109407e-14
1.6010064e-14
3.4518041e-15
6.8453838e-16
1.2234368e-16
1.9605582e-17
2.8057668e-18
3.5722277e-19
4.0296278e-20
4.0080771e-21
3.5001731e-22
2.6723191e-23
1.7589621e-24
9.7540997e-26
4.4328542e-27
1.5905092e-28
4.2374568e-30
7.4690209e-32
6.5458014e-34
0.00036920791
0.00036801574
0.00037038251
0.00038007526
0.00037776637
0.00037027916
0.00036905356
0.00036129053
0.00035281334
0.0003352567
0.00030108185
0.00028734819
0.00030740271
0.00033339478
0.0003353927
0.00030450419
0.00023456664
0.00013154743
4.7092564e-05
1.1397497e-05
2.3164356e-06
5.0467457e-07
1.0753854e-07
1.6630292e-08
1.2560937e-09
3.7545538e-11
6.1006413e-13
6.62355e-14
1.4604565e-14
3.0641184e-15
5.849024e-16
1.0071167e-16
1.5577239e-17
2.1568712e-18
2.6648742e-19
2.9276621e-20
2.8481781e-21
2.4459943e-22
1.846421e-23
1.2061612e-24
6.6669533e-26
3.0354575e-27
1.0963021e-28
2.9508344e-30
5.2672571e-32
4.6798527e-34
0.00035859387
0.00036416758
0.00036478569
0.00037112507
0.00037925059
0.00037339824
0.00036270391
0.00035880787
0.00035517179
0.00034357044
0.00031341561
0.00030022925
0.00031914846
0.00034352094
0.00034569383
0.00031969708
0.0002617426
0.00016198337
7.0516564e-05
2.3675971e-05
8.0115678e-06
2.9901655e-06
9.7979614e-07
2.2824296e-07
2.7259959e-08
1.3388448e-09
2.2864336e-11
3.4417976e-13
5.7634511e-14
1.2601875e-14
2.5506219e-15
4.6886839e-16
7.7878774e-17
1.1648451e-17
1.5647813e-18
1.8834333e-19
2.0260233e-20
1.9420838e-21
1.6561261e-22
1.2501292e-23
8.2131486e-25
4.5920487e-26
2.12698e-27
7.8435624e-29
2.1581646e-30
3.933529e-32
3.5578429e-34
0.00035722558
0.00035504861
0.00035796033
0.0003615208
0.00037049437
0.00037610261
0.00036559764
0.00035119234
0.00034401991
0.00035074296
0.00032426134
0.00031104237
0.00032830084
0.00035085254
0.00035169722
0.00032970254
0.00028282714
0.00019621308
9.4470646e-05
4.1452587e-05
2.1235362e-05
1.2081546e-05
5.7547796e-06
1.9504269e-06
3.5909023e-07
2.8857871e-08
8.3687507e-10
7.7330723e-12
2.2463209e-13
4.8039844e-14
1.0209439e-14
1.9907732e-15
3.5300414e-16
5.670614e-17
8.2339784e-18
1.079395e-18
1.2765207e-19
1.3609152e-20
1.3067676e-21
1.1296455e-22
8.7277918e-24
5.9132547e-25
3.4288764e-26
1.6513069e-27
6.3205707e-29
1.7956858e-30
3.3537993e-32
3.0814506e-34
0.0003577864
0.00035730188
0.00035014296
0.00035139025
0.00035741967
0.00036785407
0.0003698285
0.00035392012
0.00033553617
0.00032395134
0.00033403922
0.00032004876
0.00033520674
0.0003553246
0.00035451005
0.00033511408
0.00029860065
0.00022531361
0.00012465196
6.3260032e-05
4.3405607e-05
3.4028671e-05
2.2318727e-05
1.0623877e-05
2.9245847e-06
3.7599086e-07
1.8669982e-08
2.9294694e-10
1.7795802e-12
1.724396e-13
3.7771198e-14
7.7564886e-15
1.4600894e-15
2.5068187e-16
3.9181174e-17
5.575682e-18
7.235716e-19
8.5838992e-20
9.3283387e-21
9.2915098e-22
8.4580982e-23
6.9369817e-24
5.0006455e-25
3.0764232e-26
1.5597513e-27
6.2165864e-29
1.816723e-30
3.4482876e-32
3.1834566e-34
0.00034266765
0.00036220691
0.00035558969
0.00034396733
0.00034376764
0.00035190363
0.00036254819
0.00035977729
0.00033830064
0.00031502144
0.00029850275
0.00032737673
0.00034019279
0.00035753329
0.00035439638
0.00033687889
0.00030968694
0.00025028802
0.0001547269
8.6965256e-05
7.210838e-05
6.9772043e-05
5.925783e-05
3.7889917e-05
1.5081503e-05
3.0204396e-06
2.5135502e-07
7.1504199e-09
5.6347413e-11
6.8681838e-13
1.3035386e-13
2.7906808e-14
5.5464671e-15
1.013872e-15
1.7021102e-16
2.6298918e-17
3.7579002e-18
4.9977469e-19
6.2198931e-20
7.2500289e-21
7.8657906e-22
7.8234666e-23
6.9556165e-24
5.3611882e-25
3.4732594e-26
1.8262569e-27
7.4461129e-29
2.2004377e-30
4.1826713e-32
3.8346345e-34
0.0003332891
0.00034967732
0.00036441691
0.00035194145
0.00033603281
0.00033460832
0.00034431624
0.00035386258
0.00034581894
0.00031796389
0.00028953634
0.00026779011
0.00034325651
0.00035762599
0.00035197416
0.00033580162
0.00031692951
0.00027127011
0.00018346727
0.00011244627
9.8125136e-05
0.00011292972
0.00011392676
9.2196782e-05
5.0663626e-05
1.5336676e-05
2.0876601e-06
1.0516772e-07
1.5940049e-09
8.9682819e-12
4.3294397e-13
9.3393975e-14
1.9479347e-14
3.781508e-15
6.8230465e-16
1.1500633e-16
1.8274634e-17
2.7648507e-18
4.0060004e-19
5.5395612e-20
7.2066941e-21
8.6319757e-22
9.2806855e-23
8.7216762e-24
6.9701292e-25
4.6140279e-26
2.4518654e-27
1.0022273e-28
2.9516503e-30
5.5653772e-32
5.0402567e-34
0.00034454006
0.0003378198
0.0003549475
0.00036450707
0.00034623156
0.00032636056
0.00032335979
0.00033408917
0.0003414167
0.00032722552
0.00029274529
0.00025919204
0.00023249986
0.00035566036
0.00034739254
0.00033254032
0.00032130284
0.00028838691
0.00021036345
0.0001380645
0.00012319764
0.00015046206
0.00017268241
0.00016332888
0.00011610501
5.0814615e-05
1.0988606e-05
9.5392289e-07
2.7402521e-08
2.64123e-10
2.1112807e-12
2.9401402e-13
6.3713184e-14
1.3122475e-14
2.5555322e-15
4.7473192e-16
8.5221744e-17
1.4930013e-17
2.5501503e-18
4.1883877e-19
6.4654141e-20
9.1467157e-21
1.1589632e-21
1.2882315e-22
1.2309352e-23
9.8949662e-25
6.544746e-26
3.4602466e-27
1.4034732e-28
4.0939885e-30
7.6349891e-32
3.8408478e-36
0.00035155578
0.00034396042
0.00034108869
0.00035847449
0.00036245689
0.00033859225
0.00031456085
0.00030973943
0.00032061796
0.00032460124
0.00030369464
0.00026288973
0.00022460409
0.00019081812
0.00034086853
0.00032765966
0.00032375493
0.00030216535
0.00023507651
0.00016300274
0.00014697553
0.00017963632
0.00022245068
0.00022981432
0.00019480691
0.00011554349
3.7959144e-05
5.4984344e-06
2.8842866e-07
5.4001852e-09
3.9844275e-11
9.504923e-13
1.9580698e-13
4.2799449e-14
9.073828e-15
1.8861383e-15
3.8926562e-16
7.9902585e-17
1.607841e-17
3.0929789e-18
5.5411951e-19
9.0378237e-20
1.3175039e-20
1.6906673e-21
1.8829014e-22
1.7896742e-23
1.4265676e-24
9.3417666e-26
4.8867413e-27
1.9607796e-28
5.6587089e-30
6.1272569e-34
1.4758753e-38
0.00033247424
0.00034502876
0.00034154958
0.00034338437
0.0003601505
0.0003583281
0.00032867964
0.00030022088
0.00029350538
0.00030331062
0.00030307764
0.0002752456
0.00022825741
0.00018357182
0.00014153328
0.00032159338
0.00032498765
0.00031360992
0.00025736703
0.00018694584
0.00016908778
0.00020481418
0.00025469467
0.00028019541
0.00026067078
0.00019315571
9.0643834e-05
2.0880443e-05
1.9234397e-06
6.7438463e-08
9.1097292e-10
6.7543628e-12
5.7705726e-13
1.3272902e-13
3.1020608e-14
7.3378686e-15
1.7615302e-15
4.2296236e-16
9.8786344e-17
2.1781808e-17
4.4262679e-18
8.1488657e-19
1.3413281e-19
1.9521333e-20
2.4859327e-21
2.7383178e-22
2.5695817e-23
2.0221747e-24
1.3079989e-25
6.7634539e-27
2.6847694e-28
4.9498807e-32
2.3573282e-36
2.926773e-41
0.00031464696
0.00032222296
0.0003361121
0.00033790191
0.0003447285
0.0003597489
0.00035190025
0.00031614277
0.00028307745
0.00027414698
0.00028175256
0.00027653698
0.00024096756
0.00018661366
0.00013503248
8.9253064e-05
0.00032546455
0.00032378277
0.00027741985
0.00020974762
0.00018968883
0.0002264437
0.00028099693
0.00031280137
0.00030467496
0.00025692465
0.00015988189
5.5011356e-05
8.4199628e-06
5.2855994e-07
1.3313282e-08
1.3460918e-10
2.024899e-12
3.9666288e-13
1.0354973e-13
2.8227988e-14
7.8800834e-15
2.1816094e-15
5.7882394e-16
1.4320958e-16
3.2420176e-17
6.6328835e-18
1.2157898e-18
1.9806607e-19
2.8449519e-20
3.5720826e-21
3.8766234e-22
3.5857588e-23
2.7846789e-24
1.779635e-25
9.1031617e-27
2.6017639e-30
2.0380251e-34
4.2859637e-39
2.883906e-44
0.00032512363
0.00030651403
0.00031029163
0.00032567072
0.00033365558
0.00034455164
0.00035710063
0.00034271964
0.00030078567
0.00026263567
0.00025090513
0.00025533427
0.00024373856
0.00019872996
0.00013680614
8.5004763e-05
4.6186739e-05
0.00033353384
0.00029556769
0.00023143652
0.00020894152
0.00024542826
0.00030242548
0.00033818633
0.00033429771
0.0002963368
0.00022312588
0.00010741075
2.5459535e-05
2.6956973e-06
1.2128054e-07
2.2300382e-09
1.9675706e-11
1.1879916e-12
3.4058314e-13
1.0730808e-13
3.4419624e-14
1.0766342e-14
3.179293e-15
8.6767104e-16
2.1593716e-16
4.8570746e-17
9.8131629e-18
1.7713725e-18
2.8392311e-19
4.0129459e-20
4.9615987e-21
5.3024748e-22
4.8370761e-23
3.7103282e-24
2.3455593e-25
9.8437037e-29
1.1900688e-32
3.6812854e-37
3.8019699e-42
1.4086827e-47
0.00034227808
0.00032339821
0.00029691971
0.0002969732
0.00031510606
0.00032805299
0.00034232217
0.00035163869
0.00033078972
0.00028191151
0.00023844651
0.00022349933
0.0002237327
0.00020280753
0.00014675102
8.6355709e-05
4.3545413e-05
1.8641544e-05
0.00031294052
0.00025196659
0.00022691094
0.00026213474
0.0003206707
0.00035775519
0.00035570677
0.00032276492
0.00026657953
0.00016564359
5.6560178e-05
9.4008678e-06
7.1205857e-07
2.3364023e-08
3.2257085e-10
4.8364863e-12
1.1077742e-12
3.9951809e-13
1.4459439e-13
5.0108076e-14
1.6202423e-14
4.8165923e-15
1.3046247e-15
3.2000769e-16
7.0733731e-17
1.4032052e-17
2.487515e-18
3.9186631e-19
5.4498425e-20
6.6360018e-21
6.9910512e-22
6.2976293e-23
4.7781745e-24
2.8395672e-27
5.0880269e-31
2.3067098e-35
2.9355667e-40
1.7774912e-45
3.9237067e-51
0.00032914058
0.00034873908
0.00031980902
0.00028602322
0.00028232456
0.00030238565
0.00032060372
0.000337392
0.00034320779
0.00031520106
0.00025906395
0.00021033281
0.00019212247
0.00018468187
0.00015150179
9.3164169e-05
4.4332513e-05
1.723779e-05
5.5719477e-06
0.00027128792
0.00024362447
0.00027652929
0.00033598129
0.00037383743
0.00037045724
0.00033923268
0.00029527714
0.00021948593
9.8604731e-05
2.3777655e-05
2.8348935e-06
1.5657879e-07
3.8056405e-09
4.6085913e-11
3.6508258e-12
1.4394016e-12
5.7705235e-13
2.180381e-13
7.6262492e-14
2.4465039e-14
7.1571234e-15
1.9012005e-15
4.5689119e-16
9.897077e-17
1.9258315e-17
3.3526473e-18
5.1938137e-19
7.1146575e-20
8.5383076e-21
8.8804065e-22
7.9120565e-23
6.4866099e-26
1.6705662e-29
1.1064874e-33
1.7885278e-38
1.217485e-43
4.963912e-49
7.102423e-55
0.00028927936
0.00034319326
0.00035228937
0.00031442483
0.00027368021
0.00026606701
0.00028768407
0.00031051259
0.00032917535
0.00033098215
0.00029531419
0.0002312248
0.00017794771
0.00015452054
0.00013693381
9.6463542e-05
4.8358343e-05
1.746075e-05
5.0004603e-06
1.1894943e-06
0.00025902443
0.00028852771
0.00034787729
0.00038665829
0.00038055666
0.00034792969
0.00031130619
0.00025827153
0.00015391996
4.6638958e-05
8.0980079e-06
7.055575e-07
2.888252e-08
5.407473e-10
1.4565333e-11
4.9728176e-12
2.1709663e-12
8.836937e-13
3.3127964e-13
1.1384423e-13
3.574392e-14
1.0222281e-14
2.65504e-15
6.2443014e-16
1.3254999e-16
2.5312229e-17
4.3312012e-18
6.6058874e-19
8.9229402e-20
1.0568934e-20
1.0870803e-21
1.2053752e-24
4.3564973e-28
4.1618157e-32
9.0870932e-37
6.4926423e-42
3.1976129e-47
9.1734304e-53
9.173386e-59
0.00027321212
0.00030582383
0.00035410288
0.00035315486
0.00030705352
0.00025981628
0.00024803686
0.00027024864
0.00029705619
0.000316943
0.00031418566
0.00026949244
0.00019730799
0.0001398065
0.00011092795
8.6081761e-05
5.0407404e-05
1.9272375e-05
5.0055131e-06
1.0285305e-06
1.806446e-07
0.00029779782
0.00035567653
0.00039536192
0.00038630108
0.00035033503
0.00031802517
0.00028309787
0.00020400451
8.6473199e-05
1.7743888e-05
2.2598957e-06
1.46317e-07
4.5341869e-09
9.1818836e-11
1.6576729e-11
7.6734518e-12
3.3345606e-12
1.3301995e-12
4.8664741e-13
1.6306314e-13
4.9937561e-14
1.3943109e-14
3.5402094e-15
8.1518266e-16
1.6971138e-16
3.1839831e-17
5.3617785e-18
8.0627884e-19
1.0751755e-19
1.2592024e-20
1.8589385e-23
9.2521114e-27
1.2547061e-30
3.8188347e-35
3.0956899e-40
1.4853171e-45
5.8459901e-51
1.2127712e-56
9.0401004e-63
0.00030454357
0.0002859044
0.00032056995
0.00036182261
0.0003513219
0.00029774333
0.00024420139
0.00022789008
0.00024969609
0.00027963524
0.0003001854
0.00029210418
0.00023588202
0.00015577364
9.7383285e-05
6.7237968e-05
4.4090879e-05
2.0364606e-05
5.5936665e-06
1.0095861e-06
1.4932842e-07
1.9658209e-08
0.00035862163
0.00039831504
0.00038704232
0.00034693847
0.00031740347
0.00029640702
0.00024429822
0.00013291257
3.9664123e-05
5.4767812e-06
5.219982e-07
2.5609659e-08
6.7873609e-10
5.6376754e-11
2.5512765e-11
1.1737684e-11
4.9519617e-12
1.9178997e-12
6.8218245e-13
2.2256941e-13
6.6464965e-14
1.8123672e-14
4.501546e-15
1.0158291e-15
2.076599e-16
3.8328354e-17
6.3616899e-18
9.4480328e-19
1.2454967e-19
2.4164059e-22
1.6310121e-25
3.0930276e-29
1.3214207e-33
1.3327922e-38
6.0248041e-44
2.5264722e-49
7.8154312e-55
1.2197722e-60
8.0341733e-67
0.00035669693
0.00030872246
0.00029758409
0.00033321458
0.00036640674
0.00034685924
0.00028617614
0.00022656937
0.00020546238
0.0002258326
0.00025774152
0.00027817134
0.00026147147
0.0001905409
0.00010843061
5.6910878e-05
3.2774363e-05
1.7518503e-05
6.0106291e-06
1.1421636e-06
1.4221417e-07
1.5579693e-08
1.5625942e-09
0.00039429998
0.00038136369
0.00033786121
0.00031060422
0.00030144201
0.00027299421
0.00018209632
7.0690855e-05
1.4913858e-05
1.3884034e-06
1.0127271e-07
4.0162454e-09
2.158019e-10
8.0577025e-11
3.8774987e-11
1.7168423e-11
6.9980506e-12
2.62848e-12
9.0894937e-13
2.8886053e-13
8.4166482e-14
2.2432379e-14
5.4561727e-15
1.2081331e-15
2.428477e-16
4.4167096e-17
7.2379473e-18
1.0631749e-18
2.6804438e-21
2.4224357e-24
6.3402061e-28
3.7882825e-32
5.0166957e-37
2.342061e-42
8.8249432e-48
3.3143639e-53
7.9920246e-59
1.1042813e-64
6.9376009e-71
0.0003828239
0.0003500809
0.00031157839
0.00030840956
0.0003433529
0.00036777486
0.00033955658
0.00027207695
0.00020659891
0.00018069862
0.00019856734
0.0002307426
0.00024904822
0.00021661002
0.00013604308
6.2969145e-05
2.6293015e-05
1.2278504e-05
5.1091724e-06
1.2487489e-06
1.6277766e-07
1.4172687e-08
1.1967662e-09
9.283744e-11
0.00036854521
0.00032349281
0.0002988059
0.00030032237
0.00029272359
0.00022766773
0.00011061659
3.0910369e-05
4.6432677e-06
2.9575513e-07
1.7653609e-08
9.5876065e-10
2.5012176e-10
1.2171844e-10
5.6064277e-11
2.3799776e-11
9.3710867e-12
3.4168187e-12
1.1497264e-12
3.5619391e-13
1.0135769e-13
2.6432543e-14
6.3036212e-15
1.3715283e-15
2.7151811e-16
4.8744897e-17
7.9030177e-18
2.5632046e-20
3.0675494e-23
1.0955998e-26
9.0935784e-31
1.6174886e-35
8.6661311e-41
2.861363e-46
1.0709611e-51
3.4060112e-57
7.3666108e-63
9.6947436e-69
5.8269524e-75
0.0003485575
0.00036460292
0.00034071443
0.00031380734
0.0003178674
0.00035055624
0.00036590672
0.00032920379
0.00025503986
0.00018401864
0.00015392299
0.00016796501
0.00020081472
0.0002075308
0.00015858242
8.0936332e-05
2.8512037e-05
9.126688e-06
3.3705688e-06
1.0529914e-06
1.801925e-07
1.6167307e-08
1.0376484e-09
6.9462539e-11
4.1788072e-12
0.00030443979
0.00028316208
0.00029496975
0.00030625486
0.00026717887
0.00015696477
5.5007323e-05
1.1192706e-05
1.2277929e-06
6.3655758e-08
5.5118798e-09
9.9424771e-10
3.8403813e-10
1.7570033e-10
7.692611e-11
3.1259099e-11
1.18798e-11
4.2104213e-12
1.3799973e-12
4.1718851e-13
1.1606077e-13
2.9651724e-14
6.9431897e-15
1.4868144e-15
2.9039754e-16
5.156142e-17
2.1311931e-19
3.3440973e-22
1.6137794e-25
1.8475843e-29
4.4498205e-34
2.9200181e-39
9.2859016e-45
2.9725687e-50
1.0748717e-55
3.1844424e-61
6.5790151e-67
8.2634375e-73
4.7663727e-79
0.00028141452
0.00032266366
0.0003427248
0.00033027582
0.00031526219
0.00032531109
0.00035438459
0.00036045403
0.000315606
0.00023433729
0.00015900708
0.00012594292
0.00013870161
0.00016258669
0.00015303147
9.7716753e-05
3.7541254e-05