/*--------------------------------*- C++ -*----------------------------------*\
| =========                 |                                                 |
| \\      /  F ield         | OpenFOAM: The Open Source CFD Toolbox           |
|  \\    /   O peration     | Version:  5.0                                   |
|   \\  /    A nd           | Web:      www.OpenFOAM.org                      |
|    \\/     M anipulation  |                                                 |
\*---------------------------------------------------------------------------*/
FoamFile
{
    version     2.0;
    format      ascii;
    class       volScalarField;
    location    "380";
    object      nuTilda_0;
}
// * * * * * * * * * * * * * * * * * * * * * * * * * * * * * * * * * * * * * //

dimensions      [0 2 -1 0 0 0 0];

internalField   nonuniform List<scalar> 
9520
(
4.8364991e-33
5.1342081e-31
4.6829247e-33
2.6667946e-29
4.9729095e-31
4.5281245e-33
9.001741e-28
2.5834449e-29
4.8093609e-31
4.3790466e-33
2.2228368e-26
8.721381e-28
2.498647e-29
4.6521625e-31
4.2465189e-33
4.2917041e-25
2.153751e-26
8.4360191e-28
2.4174689e-29
4.5145309e-31
4.1380792e-33
6.7717558e-24
4.1582724e-25
2.083595e-26
8.1643133e-28
2.3474415e-29
4.4050087e-31
4.0539154e-33
8.9966664e-23
6.561103e-24
4.0233128e-25
2.0172489e-26
7.9329433e-28
2.2930014e-29
4.3216661e-31
3.9850141e-33
1.0253322e-21
8.7180058e-23
6.3490587e-24
3.896713e-25
1.9613622e-26
7.7561072e-28
2.2518716e-29
4.2508237e-31
3.9139844e-33
1.0170072e-20
9.9390309e-22
8.4389208e-23
6.1519129e-24
3.7910861e-25
1.9190601e-26
7.6216721e-28
2.2149356e-29
4.1705211e-31
3.8208628e-33
8.8978758e-20
9.8635487e-21
9.6258066e-22
8.1816783e-23
5.9888405e-24
3.711379e-25
1.886239e-26
7.4929745e-28
2.1693855e-29
4.059685e-31
3.6925652e-33
7.0637936e-19
8.631924e-20
9.5597628e-21
9.3386736e-22
7.9704886e-23
5.8655096e-24
3.6474253e-25
1.8526634e-26
7.3235931e-28
2.1049408e-29
3.9092215e-31
3.5326571e-33
5.9681647e-18
6.8207002e-19
8.3720349e-20
9.2806621e-21
9.103841e-22
7.8099834e-23
5.7621442e-24
3.5776099e-25
1.8065107e-26
7.0825708e-28
2.0198481e-29
3.7308034e-31
3.3655334e-33
9.6162717e-17
5.5467799e-18
6.5972951e-19
8.129057e-20
9.0515765e-21
8.924367e-22
7.6689614e-23
5.6421697e-24
3.4792028e-25
1.7414242e-26
6.7748501e-28
1.9242155e-29
3.5576512e-31
3.2308908e-33
3.2347242e-15
8.2365058e-17
5.2088455e-18
6.3817771e-19
7.9264362e-20
8.8761172e-21
8.7598003e-22
7.4957562e-23
5.4708784e-24
3.3432118e-25
1.6613562e-26
6.4476029e-28
1.8383999e-29
3.4345679e-31
3.1687067e-33
1.1583885e-13
2.8074862e-15
7.0929494e-17
4.8644699e-18
6.1989717e-19
7.773354e-20
8.7107291e-21
8.5473411e-22
7.2464904e-23
5.2404787e-24
3.1826447e-25
1.5808418e-26
6.1775484e-28
1.7859586e-29
3.399598e-31
3.2004925e-33
3.4285585e-12
1.0658054e-13
2.3629622e-15
5.7081968e-17
4.5648191e-18
6.0683802e-19
7.6297768e-20
8.4873623e-21
8.2392673e-22
6.9204468e-23
4.9803662e-24
3.0303063e-25
1.5201136e-26
6.0416667e-28
1.783367e-29
3.4648583e-31
3.3158149e-33
7.925724e-11
3.3318254e-12
9.1849228e-14
1.6962691e-15
4.4303796e-17
4.3720543e-18
5.956302e-19
7.4272317e-20
8.1590019e-21
7.8463886e-22
6.5690411e-23
4.7486804e-24
2.9262277e-25
1.4967507e-26
6.0816289e-28
1.8308916e-29
3.6060216e-31
3.471177e-33
1.3946351e-09
8.0354022e-11
2.934907e-12
6.4645839e-14
1.060041e-15
3.6579402e-17
4.2534118e-18
5.7949917e-19
7.1212389e-20
7.7484604e-21
7.442175e-22
6.2768765e-23
4.6078085e-24
2.9000619e-25
1.5170758e-26
6.2774083e-28
1.9093346e-29
3.7663749e-31
3.6023688e-33
1.8239024e-08
1.4574826e-09
7.1970441e-11
2.0567345e-12
3.8480875e-14
7.028597e-16
3.3229694e-17
4.1225423e-18
5.5405462e-19
6.7425716e-20
7.3451903e-21
7.1302956e-22
6.1232481e-23
4.5954356e-24
2.9556178e-25
1.5710759e-26
6.5443738e-28
1.9848576e-29
3.8743102e-31
3.6451892e-33
1.7365631e-07
1.9369144e-08
1.3196042e-09
5.0407166e-11
1.2268322e-12
2.5439032e-14
5.9016209e-16
3.1485802e-17
3.9171293e-18
5.2254189e-19
6.387059e-20
7.0589007e-21
6.9942032e-22
6.1436802e-23
4.7031915e-24
3.0643531e-25
1.6337816e-26
6.7579649e-28
2.0201269e-29
3.8670484e-31
3.5565059e-33
1.1756632e-06
1.849544e-07
1.7729718e-08
9.3019311e-10
3.0626846e-11
8.8114907e-13
2.3661881e-14
5.6836326e-16
2.8908441e-17
3.6610136e-18
4.9422086e-19
6.1576443e-20
6.9630128e-21
7.0554638e-22
6.3070388e-23
4.8723813e-24
3.1720786e-25
1.6731876e-26
6.796745e-28
1.9870292e-29
3.7116172e-31
3.3284731e-33
5.6229023e-06
1.2416666e-06
1.702653e-07
1.2802766e-08
5.8754185e-10
2.4315258e-11
9.4176487e-13
2.5227882e-14
4.8323763e-16
2.5374757e-17
3.4413569e-18
4.7786104e-19
6.1084143e-20
7.0577743e-21
7.255647e-22
6.5185777e-23
5.0108891e-24
3.2172101e-25
1.6616877e-26
6.585204e-28
1.8761739e-29
3.4162271e-31
2.9919091e-33
1.9070721e-05
5.8796517e-06
1.1525338e-06
1.2685422e-07
8.7199494e-09
5.1509394e-10
2.9145109e-11
1.0879613e-12
2.1400712e-14
3.2361844e-16
2.2535878e-17
3.3295698e-18
4.7675513e-19
6.2188751e-20
7.2621385e-21
7.4702534e-22
6.6505313e-23
5.025725e-24
3.1533972e-25
1.5861389e-26
6.1196362e-28
1.7004232e-29
3.0292087e-31
2.6087241e-33
4.746676e-05
1.9743339e-05
5.4894432e-06
8.9319966e-07
9.3483349e-08
8.2023634e-09
6.6359085e-10
3.5364616e-11
9.3619246e-13
1.2143955e-14
1.9805538e-16
2.1244639e-17
3.3396651e-18
4.8749977e-19
6.3971023e-20
7.4385248e-21
7.5520925e-22
6.5891175e-23
4.8581277e-24
2.9669622e-25
1.4525005e-26
5.4712865e-28
1.4919429e-29
2.626912e-31
2.2566591e-33
9.1578127e-05
4.8805774e-05
1.8555698e-05
4.4182351e-06
7.0565574e-07
9.2996791e-08
1.0768613e-08
8.2296258e-10
3.0605978e-11
5.1093548e-13
4.9294513e-15
1.4292035e-16
2.1240509e-17
3.4312558e-18
5.0113177e-19
6.5117901e-20
7.4437695e-21
7.3873024e-22
6.2786488e-23
4.5065081e-24
2.6821034e-25
1.2844791e-26
4.7686612e-28
1.2942151e-29
2.2951547e-31
2.0114173e-33
0.00014535907
9.3712391e-05
4.6255213e-05
1.5520345e-05
3.7071246e-06
7.2965984e-07
1.213861e-07
1.336306e-08
7.1200714e-10
1.6401001e-11
1.855838e-13
1.9002228e-15
1.2879801e-16
2.1897729e-17
3.5255551e-18
5.0655256e-19
6.4438613e-20
7.1852657e-21
6.9405704e-22
5.7444936e-23
4.0281842e-24
2.3543826e-25
1.1175206e-26
4.1658975e-28
1.1517001e-29
2.1099628e-31
1.9309804e-33
0.00019743418
0.00014846828
8.9778859e-05
3.9984356e-05
1.3661835e-05
3.9390033e-06
9.3754595e-07
1.4871191e-07
1.1530019e-08
3.796739e-10
5.7367991e-12
5.5755359e-14
1.0309983e-15
1.2982624e-16
2.2494502e-17
3.537093e-18
4.9519711e-19
6.1344579e-20
6.6583949e-21
6.2713657e-22
5.0863641e-23
3.5233513e-24
2.056618e-25
9.9017152e-27
3.8068902e-28
1.1000402e-29
2.1222248e-31
2.0450716e-33
0.00024047738
0.00020007119
0.0001426297
7.9489172e-05
3.6383015e-05
1.4758269e-05
4.9612501e-06
1.1254421e-06
1.2793628e-07
6.2066334e-09
1.3447508e-10
1.6649865e-12
2.0992378e-14
8.7513057e-16
1.3283807e-16
2.2392089e-17
3.4121751e-18
4.6457347e-19
5.6085025e-20
5.9512361e-21
5.5161982e-22
4.4501947e-23
3.1097857e-24
1.8613564e-25
9.3522861e-27
3.7941705e-28
1.1589035e-29
2.3485537e-31
2.3505808e-33
0.00027658848
0.0002425097
0.00019187601
0.00012797351
7.3597122e-05
3.9553986e-05
1.8176994e-05
5.7981461e-06
9.6676219e-07
7.0417286e-08
2.3280678e-09
4.3255802e-11
6.9879636e-13
1.6488706e-14
8.921152e-16
1.3094664e-16
2.128742e-17
3.1512762e-18
4.1909892e-19
4.9670693e-20
5.2173791e-21
4.8504322e-22
3.9917252e-23
2.8948284e-24
1.8243544e-25
9.7268724e-27
4.168154e-28
1.3283608e-29
2.7686412e-31
2.8123683e-33
0.0003074622
0.0002777019
0.00023267759
0.00017454146
0.00011958855
7.9783493e-05
4.7574358e-05
2.0646679e-05
4.9791596e-06
5.4974177e-07
2.8480707e-08
8.4983121e-10
2.2038016e-11
7.2858793e-13
1.9637382e-14
8.6298637e-16
1.2202641e-16
1.932146e-17
2.8047595e-18
3.6840973e-19
4.3559105e-20
4.6338718e-21
4.4452651e-22
3.8399568e-23
2.9509118e-24
1.9724462e-25
1.1055561e-26
4.8987909e-28
1.5887548e-29
3.3283538e-31
3.3685696e-33
0.00033350466
0.00030714215
0.00026652392
0.00021379527
0.00016542188
0.00012886784
9.3890324e-05
5.2631534e-05
1.7779675e-05
2.9502001e-06
2.4211711e-07
1.1960834e-08
5.3069878e-10
2.8409129e-11
1.0138603e-12
1.9170254e-14
7.3315908e-16
1.0823509e-16
1.695563e-17
2.4515382e-18
3.2438658e-19
3.9270739e-20
4.3588794e-21
4.428e-22
4.0675327e-23
3.2991977e-24
2.2973819e-25
1.3188429e-26
5.8894408e-28
1.9036559e-29
3.947778e-31
3.9397906e-33
0.0003539088
0.0003314654
0.00029501488
0.0002467185
0.00020485757
0.00017760741
0.00014893633
0.00010167976
4.5661606e-05
1.1070551e-05
1.4258785e-06
1.1844056e-07
9.1005405e-09
7.7355181e-10
4.2055734e-11
1.0204578e-12
1.2100787e-14
5.8490829e-16
9.339879e-17
1.4759099e-17
2.1755586e-18
2.9822455e-19
3.8039897e-20
4.4952448e-21
4.8521379e-22
4.6731074e-23
3.903391e-24
2.7560939e-25
1.5816924e-26
6.9918743e-28
2.2254678e-29
4.5336987e-31
4.4414694e-33
0.00036894177
0.00035033979
0.00031826372
0.00027523149
0.00023794186
0.00021880438
0.00020188147
0.0001591832
8.9405745e-05
3.0052006e-05
5.9077323e-06
8.1922438e-07
1.0746066e-07
1.4103589e-08
1.1707862e-09
4.2964738e-11
5.9487775e-13
5.4224085e-15
4.7712442e-16
8.1037486e-17
1.3249096e-17
2.0475684e-18
2.9802624e-19
4.0531367e-20
5.0650412e-21
5.6821953e-22
5.5780664e-23
4.6744648e-24
3.2773233e-25
1.8523888e-26
8.030568e-28
2.5033133e-29
4.9951389e-31
4.7978317e-33
0.0003793185
0.00036406536
0.0003364879
0.00029892419
0.00026685355
0.00025234775
0.00024433238
0.00021228392
0.00014139244
6.2215261e-05
1.7734797e-05
3.9809479e-06
8.5831877e-07
1.6998655e-07
2.1329896e-08
1.2030314e-09
2.5189424e-11
1.9285904e-13
2.694335e-15
4.0951901e-16
7.3824132e-17
1.2804667e-17
2.1115448e-18
3.2693709e-19
4.6656777e-20
5.9997571e-21
6.7958853e-22
6.6384532e-23
5.4857668e-24
3.7738439e-25
2.0856577e-26
8.8336041e-28
2.6920715e-29
5.259276e-31
4.9548686e-33
0.00038517819
0.00037337776
0.00034993958
0.00031804046
0.00029129572
0.00028071287
0.0002770107
0.00025307905
0.00018991571
0.00010326588
4.0321397e-05
1.3786358e-05
4.6391135e-06
1.3527129e-06
2.5284365e-07
2.1913395e-08
7.1696202e-10
8.0826735e-12
4.2449638e-14
1.9744892e-15
3.7926272e-16
7.3402746e-17
1.3610992e-17
2.3742834e-18
3.8204431e-19
5.5536588e-20
7.1491533e-21
8.0025687e-22
7.6675749e-23
6.195088e-24
4.1588359e-25
2.2411262e-26
9.2647309e-28
2.7606448e-29
5.2843843e-31
4.889337e-33
0.00038712111
0.0003786532
0.00035939269
0.00033286661
0.00031140062
0.00030431192
0.00030333435
0.00028370548
0.00022856506
0.00014495973
7.2573952e-05
3.4988084e-05
1.7194754e-05
7.1645912e-06
1.9542075e-06
2.585742e-07
1.3344627e-08
2.3862868e-10
1.6296316e-12
1.3146258e-14
1.8159611e-15
3.879309e-16
8.0252801e-17
1.5612465e-17
2.8000135e-18
4.5447988e-19
6.5638953e-20
8.3027584e-21
9.0774979e-22
8.4734921e-23
6.6704128e-24
4.3627818e-25
2.2911531e-26
9.2491325e-28
2.6974813e-29
5.066345e-31
4.6113912e-33
0.00038652876
0.00038075696
0.00036539249
0.00034411838
0.00032748196
0.00032352325
0.00032441176
0.00030772763
0.00025845964
0.0001815889
0.00010917599
6.798518e-05
4.5067356e-05
2.5701062e-05
9.9528854e-06
1.9815658e-06
1.6166113e-07
4.6843105e-09
5.288182e-11
3.0365136e-13
8.6779815e-15
1.9015772e-15
4.351087e-16
9.3493383e-17
1.8488497e-17
3.3138717e-18
5.3097229e-19
7.5012511e-20
9.2362875e-21
9.8116064e-22
8.90045e-23
6.8208761e-24
4.3463731e-25
2.2260703e-26
8.7859049e-28
2.5117686e-29
4.6369943e-31
4.1601892e-33
0.00038403162
0.0003806376
0.00036898226
0.00035229311
0.00034025153
0.00033868341
0.00034096592
0.00032659405
0.00028346075
0.0002117255
0.00014452741
0.00010726979
8.8165564e-05
6.4677829e-05
3.4107482e-05
9.9796164e-06
1.2773793e-06
6.0591485e-08
1.1641996e-09
1.0320581e-11
7.4168165e-14
8.7747386e-15
2.1827887e-15
5.13086e-16
1.1073558e-16
2.1691493e-17
3.8162692e-18
5.961076e-19
8.17482e-20
9.7591732e-21
1.0054729e-21
8.8606071e-23
6.6136332e-24
4.1090083e-25
2.0552839e-26
7.9434899e-28
2.2301237e-29
4.0549972e-31
3.5938836e-33
0.00037950933
0.00037896115
0.0003711539
0.00035844473
0.00035001146
0.0003506364
0.00035347362
0.00034099062
0.00030346735
0.00023978048
0.0001753429
0.0001458521
0.00013796019
0.00012116067
8.1920524e-05
3.3812432e-05
6.6621137e-06
5.1712337e-07
1.6874467e-08
2.533886e-10
1.8741386e-12
4.3093585e-14
1.0234171e-14
2.6005334e-15
6.0608044e-16
1.2844109e-16
2.4567816e-17
4.2037695e-18
6.3590722e-19
8.4397609e-20
9.7565523e-21
9.748232e-22
8.3513995e-23
6.078147e-24
3.6865167e-25
1.8039379e-26
6.8400606e-28
1.8897417e-29
3.3919805e-31
2.9769907e-33
0.00037653545
0.00037645918
0.00037276449
0.00036369221
0.00035728696
0.00035945579
0.00036271586
0.00035136026
0.00031930756
0.00026372311
0.00020354387
0.0001796724
0.00018430014
0.00018202522
0.00014678406
8.0513333e-05
2.3488665e-05
2.9353854e-06
1.602847e-07
4.0833123e-09
4.9331687e-11
4.4018228e-13
4.6699814e-14
1.2321148e-14
3.0589311e-15
6.9345663e-16
1.4279575e-16
2.6516519e-17
4.3871296e-18
6.4124123e-19
8.2297735e-20
9.2137325e-21
8.9345549e-22
7.4511837e-23
5.2954223e-24
3.1403776e-25
1.5062643e-26
5.6150567e-28
1.53015e-29
2.7181117e-31
2.3686588e-33
0.00037410409
0.00037692297
0.00037758253
0.00036810365
0.00036289843
0.00036555158
0.00036875487
0.00035834018
0.00033126768
0.00028398356
0.0002288934
0.00020768094
0.00022190629
0.00023430515
0.00021151122
0.00014314375
5.8440951e-05
1.1296702e-05
1.0059535e-06
4.2863266e-08
8.9314931e-10
1.0752077e-11
3.2035063e-13
5.7595674e-14
1.4439737e-14
3.446294e-15
7.553286e-16
1.5070259e-16
2.7060206e-17
4.3198322e-18
6.0978731e-19
7.5700124e-20
8.2145062e-21
7.7407584e-22
6.2951211e-23
4.3758556e-24
2.5422165e-25
1.1977918e-26
4.4004547e-28
1.1859384e-29
2.0907755e-31
1.8144199e-33
0.0003716484
0.00037810565
0.00037727233
0.00037816524
0.00036672429
0.00036957361
0.00037214418
0.00036226476
0.00034000166
0.00030094317
0.00025111772
0.00023189641
0.00025078572
0.00027276715
0.000264044
0.00020468065
0.0001085418
3.0669896e-05
4.2513868e-06
2.9644128e-07
1.0742909e-08
2.5388723e-10
8.4558294e-12
5.0513566e-13
6.8828199e-14
1.5995755e-14
3.6691233e-15
7.7802138e-16
1.5032412e-16
2.6012056e-17
4.0056282e-18
5.4629058e-19
6.5655596e-20
6.9141643e-21
6.3421402e-22
5.0399028e-23
3.4331229e-24
1.9584885e-25
9.0867797e-27
3.299361e-28
8.8211069e-30
1.5484416e-31
1.3426707e-33
0.0003686422
0.00037590466
0.00038006195
0.00037639697
0.0003776106
0.00037141313
0.00037329236
0.00036377693
0.00034604937
0.00031497496
0.0002704316
0.00025284689
0.00027270269
0.00029942819
0.00029884206
0.00025286518
0.00016090679
6.1874332e-05
1.2618237e-05
1.3857368e-06
8.8152501e-08
4.4318827e-09
2.9180274e-10
1.8436337e-11
7.6521378e-13
7.4871957e-14
1.6581596e-14
3.6800008e-15
7.5725433e-16
1.4103335e-16
2.3516675e-17
3.4949299e-18
4.6092328e-19
5.3698846e-20
5.4971268e-21
4.9187544e-22
3.8290541e-23
2.5620519e-24
1.4392539e-25
6.5970951e-27
2.3760147e-28
6.3262002e-30
1.1100767e-31
9.6550788e-34
0.00037099263
0.00036928901
0.00037892023
0.00037976655
0.00037420329
0.00037506973
0.00037236248
0.00036336881
0.00035012421
0.00032641676
0.0002871312
0.00027084248
0.00029076172
0.00031780551
0.00032035559
0.00028488536
0.0002047645
9.9035281e-05
2.7774703e-05
4.6163675e-06
5.1715213e-07
5.4976623e-08
6.7607135e-09
6.7094073e-10
3.2441909e-11
8.3287007e-13
7.3257251e-14
1.6112631e-14
3.4839075e-15
6.9318084e-16
1.2429556e-16
1.9982877e-17
2.8688145e-18
3.6636766e-19
4.144843e-20
4.1338965e-21
3.6188218e-22
2.768773e-23
1.8259694e-24
1.0141617e-25
4.6143443e-27
1.6569544e-28
4.4166023e-30
7.7866068e-32
6.8246546e-34
0.00036938651
0.00036792318
0.00037054
0.00038015366
0.00037749009
0.0003700716
0.00036909337
0.00036153868
0.0003529342
0.00033585045
0.00030148005
0.00028621513
0.00030544844
0.00033209945
0.00033550525
0.00030593068
0.00023744255
0.00013479376
4.8659346e-05
1.1686012e-05
2.2878719e-06
4.7455368e-07
9.8421919e-08
1.5227768e-08
1.1679119e-09
3.5781281e-11
6.0586518e-13
6.6828812e-14
1.4770302e-14
3.1087394e-15
5.9540297e-16
1.02857e-16
1.5960162e-17
2.2167265e-18
2.746819e-19
3.025756e-20
2.9504717e-21
2.5385431e-22
1.9189474e-23
1.2547769e-24
6.9382421e-26
3.1584384e-27
1.1400402e-28
3.0659785e-30
5.4680023e-32
4.8548152e-34
0.00035871009
0.00036436151
0.00036480829
0.00037136133
0.00037927524
0.00037308198
0.00036251196
0.00035888168
0.00035512142
0.00034399416
0.00031384665
0.00029923421
0.00031736359
0.00034243005
0.00034594925
0.0003209893
0.00026423642
0.00016552135
7.2523565e-05
2.40169e-05
7.8065372e-06
2.8135312e-06
9.0676544e-07
2.114465e-07
2.5613713e-08
1.2859124e-09
2.2637224e-11
3.4980213e-13
5.8427189e-14
1.281003e-14
2.6014295e-15
4.7979035e-16
7.9949178e-17
1.199474e-17
1.6158446e-18
1.949682e-19
2.1013805e-20
2.0168297e-21
1.7204776e-22
1.298078e-23
8.5169499e-25
4.7513377e-26
2.1945547e-27
8.068093e-29
2.2136252e-30
4.0255394e-32
3.6361659e-34
0.00035695397
0.00035502658
0.00035817233
0.00036168127
0.00037078414
0.00037607474
0.00036524787
0.00035102211
0.00034412421
0.00035103208
0.00032476008
0.00031019536
0.00032669429
0.00034996204
0.00035208761
0.00033086593
0.00028494853
0.00019971382
9.6715777e-05
4.1692644e-05
2.0570263e-05
1.1426116e-05
5.3876387e-06
1.8278733e-06
3.4085491e-07
2.7949785e-08
8.3298286e-10
7.9655635e-12
2.2894234e-13
4.8934093e-14
1.0432704e-14
2.0409771e-15
3.6304641e-16
5.8489929e-17
8.5146716e-18
1.1183916e-18
1.3241159e-19
1.4115735e-20
1.353291e-21
1.1661341e-22
8.9689726e-24
6.042306e-25
3.4815554e-26
1.6661685e-27
6.3420231e-29
1.793968e-30
3.3412372e-32
3.0666021e-34
0.00035793699
0.00035686289
0.00035000705
0.00035165454
0.00035772412
0.00036818229
0.00036974223
0.00035354591
0.00033538789
0.00032408398
0.00033459083
0.00031935757
0.00033378209
0.00035464076
0.00035504223
0.0003361512
0.00030031627
0.00022855868
0.00012731048
6.3268025e-05
4.203007e-05
3.2414614e-05
2.1135001e-05
1.0070727e-05
2.8034584e-06
3.6701593e-07
1.8682601e-08
3.0285232e-10
1.8703032e-12
1.7610728e-13
3.8671964e-14
7.966428e-15
1.504071e-15
2.5890822e-16
4.05477e-17
5.7759652e-18
7.4922089e-19
8.8664301e-20
9.5886314e-21
9.4809569e-22
8.5519801e-23
6.9452051e-24
4.9577863e-25
3.0232878e-26
1.5217639e-27
6.0325449e-29
1.756736e-30
3.3287128e-32
3.073181e-34
0.00034324813
0.00036220353
0.00035500698
0.00034375165
0.0003440867
0.0003523546
0.00036290156
0.00035963402
0.00033790683
0.00031489591
0.00029865625
0.00032685998
0.00033895694
0.00035705234
0.00035505678
0.00033779595
0.00031098096
0.00025316152
0.00015758283
8.708138e-05
6.9965373e-05
6.6948147e-05
5.6724266e-05
3.6322468e-05
1.4594628e-05
2.9696116e-06
2.5269966e-07
7.4032236e-09
6.0261534e-11
7.0897314e-13
1.3374167e-13
2.8711413e-14
5.7213646e-15
1.047957e-15
1.7610385e-16
2.7190148e-17
3.8730918e-18
5.1189452e-19
6.3103106e-20
7.2664587e-21
7.7795857e-22
7.6415676e-23
6.7221158e-24
5.1372842e-25
3.3071653e-26
1.7312425e-27
7.0387157e-29
2.0768858e-30
3.9463425e-32
3.6205757e-34
0.0003329658
0.00035025857
0.00036426407
0.00035123092
0.00033575712
0.00033498981
0.00034491098
0.00035422352
0.00034562489
0.00031755619
0.00028943305
0.00026795776
0.00034221856
0.00035735509
0.00035276252
0.00033659187
0.00031780944
0.00027367715
0.00018639854
0.00011272958
9.5494668e-05
0.00010906951
0.00011007297
8.9308322e-05
4.9465185e-05
1.5176677e-05
2.1069414e-06
1.0898007e-07
1.7028454e-09
9.5668116e-12
4.4573394e-13
9.6245912e-14
2.0113742e-14
3.9085197e-15
7.046745e-16
1.1836194e-16
1.8673775e-17
2.7939118e-18
3.990553e-19
5.4334985e-20
6.9683153e-21
8.2504112e-22
8.7960721e-23
8.2179363e-24
6.5415596e-25
4.3192651e-26
2.2916425e-27
9.3593209e-29
2.7555213e-30
5.1963147e-32
4.7089506e-34
0.00034371948
0.00033768583
0.00035550592
0.00036420482
0.00034540094
0.00032603402
0.00032380539
0.00033478509
0.00034177666
0.00032698217
0.00029233049
0.00025910295
0.00023266043
0.0003556019
0.00034829327
0.00033318086
0.00032178177
0.00029027019
0.00021327239
0.00013855767
0.00012041086
0.00014579955
0.00016809382
0.00015959989
0.0001142228
5.0556694e-05
1.1122611e-05
9.8867415e-07
2.9182149e-08
2.8366439e-10
2.2184229e-12
3.0352853e-13
6.5820859e-14
1.3546873e-14
2.6288896e-15
4.8468667e-16
8.5957702e-17
1.4822733e-17
2.4893661e-18
4.0269655e-19
6.1436204e-20
8.6212734e-21
1.086826e-21
1.2044467e-22
1.1488401e-23
9.2258815e-25
6.0990491e-26
3.2238258e-27
1.3074698e-28
3.8139893e-30
7.1135228e-32
3.6147498e-36
0.00035171706
0.00034338767
0.00034115841
0.00035898743
0.00036200471
0.00033764737
0.00031419081
0.00031022472
0.00032137868
0.00032495431
0.00030340604
0.00026246641
0.00022452977
0.00019098377
0.00034185723
0.00032807248
0.00032383417
0.00030356542
0.00023786732
0.00016372454
0.00014419418
0.00017477125
0.00021750354
0.00022610026
0.00019278885
0.0001153948
3.84874e-05
5.6949458e-06
3.0605848e-07
5.7906686e-09
4.2907126e-11
9.8699871e-13
2.022546e-13
4.4058649e-14
9.2711371e-15
1.9031306e-15
3.8623958e-16
7.786291e-17
1.5421359e-17
2.931864e-18
5.2124614e-19
8.4638156e-20
1.2309833e-20
1.5780932e-21
1.7570768e-22
1.6700992e-23
1.3314663e-24
8.7206532e-26
4.5625037e-27
1.8308026e-28
5.2834526e-30
5.703953e-34
1.4195357e-38
0.00033351521
0.00034541286
0.00034126448
0.0003436641
0.00036059167
0.00035773356
0.00032762761
0.00029981459
0.00029402903
0.00030412327
0.00030341736
0.00027491773
0.00022785479
0.00018352037
0.0001416833
0.00032175524
0.00032465588
0.0003145571
0.00025995452
0.00018788771
0.00016642421
0.00019990336
0.00024977862
0.00027696296
0.00025911094
0.00019335852
9.1923536e-05
2.1591534e-05
2.0329681e-06
7.2142121e-08
9.8325607e-10
7.2185148e-12
5.9587841e-13
1.3596836e-13
3.1382189e-14
7.2955685e-15
1.7182266e-15
4.0570241e-16
9.3615496e-17
2.0488565e-17
4.1468857e-18
7.6209778e-19
1.2538601e-19
1.8253069e-20
2.3258388e-21
2.5636649e-22
2.4070888e-23
1.8952082e-24
1.2262887e-25
6.3420409e-27
2.5174777e-28
4.5996232e-32
2.2114424e-36
2.9204727e-41
0.00031455428
0.00032327295
0.00033670998
0.00033791882
0.00034518368
0.00036010652
0.00035116429
0.00031498975
0.00028263943
0.00027472287
0.00028261184
0.00027686232
0.00024062713
0.00018624838
0.00013501506
8.9352502e-05
0.00032470444
0.00032429983
0.00027974791
0.0002109089
0.00018721087
0.00022159071
0.00027620695
0.00030987506
0.00030375969
0.00025752596
0.00016193691
5.6730848e-05
8.8618646e-06
5.6394846e-07
1.4353836e-08
1.4599438e-10
2.113297e-12
4.0348949e-13
1.0344646e-13
2.7630064e-14
7.5744291e-15
2.0700377e-15
5.4503119e-16
1.3433882e-16
3.0369681e-17
6.2130034e-18
1.1395663e-18
1.8583291e-19
2.6722081e-20
3.3588914e-21
3.6484103e-22
3.3770151e-23
2.6238852e-24
1.6773645e-25
8.5806598e-27
2.4240895e-30
1.8910193e-34
4.128107e-39
2.9675451e-44
0.00032394314
0.0003061671
0.00031131975
0.00032648863
0.00033395212
0.00034513646
0.0003573688
0.00034185039
0.00029953326
0.00026217637
0.00025153387
0.00025622922
0.00024403683
0.00019838514
0.00013652193
8.4985604e-05
4.6248839e-05
0.00033360269
0.00029762574
0.0002328075
0.00020669689
0.00024069383
0.0002978034
0.00033554572
0.00033389307
0.00029728954
0.00022549325
0.00011035266
2.6676461e-05
2.8682614e-06
1.3057154e-07
2.421738e-09
2.1237301e-11
1.2007116e-12
3.355673e-13
1.0357303e-13
3.2740002e-14
1.0155346e-14
2.9871842e-15
8.1426446e-16
2.0269966e-16
4.5638795e-17
9.2330077e-18
1.6690583e-18
2.6790917e-19
3.7916997e-20
4.6935351e-21
5.020388e-22
4.5827321e-23
3.5166934e-24
2.2235337e-25
9.2137589e-29
1.102452e-32
3.4508301e-37
3.8093492e-42
1.4695291e-47
0.00034191276
0.00032183322
0.00029629299
0.00029798014
0.00031615013
0.00032864516
0.00034302683
0.00035181241
0.00032979036
0.00028057182
0.0002379763
0.00022416476
0.00022462215
0.00020305545
0.00014644053
8.6153657e-05
4.3531939e-05
1.8673371e-05
0.00031480627
0.00025349177
0.00022494246
0.0002575695
0.00031621499
0.00035546835
0.00035576486
0.00032398432
0.00026864271
0.00016937911
5.899653e-05
9.9719256e-06
7.654428e-07
2.5364837e-08
3.5207592e-10
4.9845322e-12
1.0774491e-12
3.8148507e-13
1.3668647e-13
4.7159144e-14
1.5231052e-14
4.5301245e-15
1.2286458e-15
3.0187269e-16
6.6843475e-17
1.328361e-17
2.3587964e-18
3.7216542e-19
5.1829664e-20
6.3179547e-21
6.6613101e-22
6.0038694e-23
4.5565902e-24
2.6723933e-27
4.7272404e-31
2.1354378e-35
2.8383049e-40
1.8322213e-45
4.1073014e-51
0.00033081834
0.0003479771
0.00031790181
0.00028514383
0.00028332309
0.00030369797
0.00032149997
0.00033821363
0.00034330363
0.00031407847
0.00025765206
0.00020987477
0.00019281031
0.00018552191
0.00015166817
9.2951797e-05
4.4210116e-05
1.7233668e-05
5.5842928e-06
0.00027295475
0.0002419718
0.00027219805
0.00033171319
0.00037193533
0.0003710127
0.00034079394
0.00029710974
0.00022282023
0.00010239212
2.5138647e-05
3.0419353e-06
1.6991097e-07
4.1616118e-09
4.9691539e-11
3.5294746e-12
1.3646252e-12
5.4391729e-13
2.05238e-13
7.183681e-14
2.3083031e-14
6.7664105e-15
1.8012294e-15
4.3377687e-16
9.415249e-17
1.8355231e-17
3.2009705e-18
4.9665187e-19
6.8123674e-20
8.1833114e-21
8.5170014e-22
7.5913734e-23
6.1407039e-26
1.5597036e-29
1.0220696e-33
1.6791749e-38
1.2239213e-43
5.1800343e-49
7.427782e-55
0.00029108175
0.0003446335
0.00035116694
0.00031221048
0.00027257277
0.00026703365
0.00028924971
0.00031171971
0.00033011966
0.00033100451
0.00029408151
0.00022978748
0.00017754864
0.00015519177
0.00013764114
9.6582368e-05
4.822254e-05
1.740424e-05
5.0007152e-06
1.192811e-06
0.00025773801
0.00028451057
0.00034384462
0.00038517101
0.00038173449
0.00034991445
0.0003130077
0.00026093647
0.00015844986
4.9128927e-05
8.6704653e-06
7.6511555e-07
3.1604785e-08
5.9259314e-10
1.4450968e-11
4.6961591e-12
2.0448923e-12
8.3309046e-13
3.1294626e-13
1.0780588e-13
3.3933393e-14
9.7285589e-15
2.5328152e-15
5.9701974e-16
1.2699431e-16
2.42974e-17
4.1646835e-18
6.3614255e-19
8.6029629e-20
1.0198381e-20
1.049534e-21
1.1481e-24
4.0907843e-28
3.8552595e-32
8.4074887e-37
6.3019888e-42
3.3001644e-47
9.6015602e-53
9.568448e-59
0.00027235303
0.00030774383
0.00035525096
0.00035170207
0.00030455881
0.00025849111
0.00024894791
0.00027205297
0.00029857232
0.00031801498
0.00031414186
0.0002681306
0.00019589567
0.00013948882
0.00011151654
8.6592231e-05
5.0475403e-05
1.9202468e-05
4.9866437e-06
1.0291389e-06
1.8125496e-07
0.00029419314
0.00035196808
0.00039431551
0.00038820657
0.0003528267
0.00031971288
0.00028499567
0.00020808587
9.0262916e-05
1.8952719e-05
2.4480494e-06
1.6016241e-07
4.9906764e-09
9.6524853e-11
1.566584e-11
7.2320116e-12
3.1506328e-12
1.2606424e-12
4.626121e-13
1.5546577e-13
4.7743858e-14
1.3365702e-14
3.4019685e-15
7.8513894e-16
1.6379633e-16
3.0787592e-17
5.1931779e-18
7.8203079e-19
1.0438965e-19
1.2234057e-20
1.7817641e-23
8.7414108e-27
1.1681428e-30
3.5216211e-35
2.9139921e-40
1.4970323e-45
6.1018542e-51
1.2680297e-56
9.3989148e-63
0.00030144917
0.000285486
0.00032253265
0.00036264713
0.00034955752
0.00029499291
0.00024267475
0.000228709
0.00025170483
0.00028144391
0.00030137387
0.00029196588
0.00023442933
0.00015450314
9.7167366e-05
6.7668212e-05
4.4400046e-05
2.0387314e-05
5.5675497e-06
1.0052705e-06
1.4955569e-07
1.9730766e-08
0.00035534708
0.000397765
0.00038974874
0.00034998214
0.00031909883
0.00029758335
0.00024748873
0.00013760628
4.1975584e-05
5.9256751e-06
5.7138737e-07
2.8240643e-08
7.3749897e-10
5.4011589e-11
2.4069214e-11
1.1117204e-11
4.7086262e-12
1.8302534e-12
6.5318114e-13
2.1376726e-13
6.4020732e-14
1.7504168e-14
4.358518e-15
9.857996e-16
2.0193448e-16
3.7339001e-17
6.2071845e-18
9.2303292e-19
1.2178167e-19
2.3309641e-22
1.5508693e-25
2.8968813e-29
1.2216346e-33
1.2342848e-38
5.8670316e-44
2.6101087e-49
8.1790132e-55
1.2719776e-60
8.3233154e-67
0.00035398806
0.00030623936
0.00029758523
0.00033513559
0.00036688625
0.00034480664
0.00028319964
0.00022486137
0.00020619005
0.00022799766
0.00025981987
0.0002794899
0.00026120669
0.00018913606
0.00010741958
5.6793162e-05
3.3033637e-05
1.7659393e-05
6.0141637e-06
1.1354972e-06
1.4153552e-07
1.5613618e-08
1.5683515e-09
0.00039429315
0.00038482202
0.00034147845
0.0003122371
0.0003019017
0.00027502401
0.00018703473
7.4217501e-05
1.5992841e-05
1.5194871e-06
1.117656e-07
4.4125152e-09
2.1377887e-10
7.6093199e-11
3.6787697e-11
1.6374073e-11
6.7035464e-12
2.5273002e-12
8.7694485e-13
2.7956848e-13
8.1697621e-14
2.1833502e-14
5.3237644e-15
1.181479e-15
2.379649e-16
4.3353539e-17
7.1148435e-18
1.0462178e-18
2.6025199e-21
2.3185786e-24
5.9764429e-28
3.5198957e-32
4.6261292e-37
2.2101089e-42
8.9140457e-48
3.4599856e-53
8.3541014e-59
1.147676e-64
7.1611859e-71
0.00038341265
0.00034804503
0.00030976819
0.00030879999
0.00034514286
0.00036790228
0.0003372319
0.00026890342
0.00020473694
0.00018131648
0.00020081943
0.00023307448
0.00025036444
0.0002161829
0.00013481768
6.2299283e-05
2.6254382e-05
1.2400632e-05
5.1542754e-06
1.2485838e-06
1.6163247e-07
1.4097166e-08
1.1999577e-09
9.3145263e-11
0.00037259601
0.00032756304
0.00030028826
0.00030002395
0.00029349973
0.00023203379
0.000115328
3.2900239e-05
5.040063e-06
3.2594041e-07
1.9321742e-08
9.6753344e-10
2.3562579e-10
1.1546376e-10
5.3540824e-11
2.2865531e-11
9.0468105e-12
3.3110057e-12
1.1179563e-12
3.4745377e-13
9.9162441e-14
2.5930402e-14
6.1991921e-15
1.3517937e-15
2.6812655e-16
4.8213694e-17
7.8269447e-18
2.5050962e-20
2.9557756e-23
1.0396856e-26
8.5012852e-31
1.4947515e-35
8.0360525e-41
2.7945701e-46
1.1073715e-51
3.5639049e-57
7.6788061e-63
1.0039713e-68
5.9929141e-75
0.00035296823
0.00036579728
0.00033943167
0.00031267896
0.00031861113
0.00035212323
0.00036567962
0.00032662959
0.00025169366
0.00018204489
0.00015441537
0.00017017798
0.00020316761
0.00020868525
0.00015810272
8.0034935e-05
2.8168095e-05
9.1260063e-06
3.4119323e-06
1.0627733e-06
1.8001629e-07
1.6036744e-08
1.0323724e-09
6.9674987e-11
4.1902303e-12
0.00030867454
0.00028436815
0.0002938402
0.00030572623
0.00027026087
0.00016246026
5.8170256e-05
1.2063994e-05
1.3416639e-06
6.7118233e-08
5.1708959e-09
8.8587024e-10
3.5905524e-10
1.6748351e-10
7.3904905e-11
3.0244816e-11
1.1560535e-11
4.1126933e-12
1.3526302e-12
4.1022556e-13
1.1446152e-13
2.9322352e-14
6.8828169e-15
1.4770496e-15
2.890173e-16
5.1392575e-17
2.0967268e-19
3.2442814e-22
1.5420203e-25
1.7387835e-29
4.1326954e-34
2.6942995e-39
8.7836499e-45
3.0084841e-50
1.1222397e-55
3.3274005e-61
6.834712e-67
8.5264755e-73
4.8844838e-79
0.00028556603
0.0003272027
0.0003444941
0.00032977055
0.00031478702
0.00032634077
0.0003556985
0.00035989161
0.00031279322
0.00023086097
0.0001569806
0.00012631267
0.00014086614
0.00016477982
0.00015388132
9.7274049e-05
3.7023741e-05