/*--------------------------------*- C++ -*----------------------------------*\
| =========                 |                                                 |
| \\      /  F ield         | OpenFOAM: The Open Source CFD Toolbox           |
|  \\    /   O peration     | Version:  5.0                                   |
|   \\  /    A nd           | Web:      www.OpenFOAM.org                      |
|    \\/     M anipulation  |                                                 |
\*---------------------------------------------------------------------------*/
FoamFile
{
    version     2.0;
    format      ascii;
    class       volScalarField;
    location    "380";
    object      p;
}
// * * * * * * * * * * * * * * * * * * * * * * * * * * * * * * * * * * * * * //

dimensions      [0 2 -2 0 0 0 0];

internalField   nonuniform List<scalar> 
9520
(
2.7497041e-05
2.7881078e-05
-5.4150013e-05
2.831522e-05
-5.1889252e-05
-9.2492926e-05
2.8409837e-05
-4.815345e-05
-8.8328481e-05
-0.00014655091
2.7858609e-05
-4.3780482e-05
-8.1356832e-05
-0.00013987806
-0.00019302197
2.6371436e-05
-3.9666182e-05
-7.3147808e-05
-0.00012848909
-0.00018346753
-0.0002473062
2.3628157e-05
-3.6758786e-05
-6.5218369e-05
-0.00011469558
-0.00016708564
-0.00023409332
-0.00030396521
1.9173735e-05
-3.5615094e-05
-5.9063774e-05
-0.00010063268
-0.00014687219
-0.00021138456
-0.0002868955
-0.00036834651
1.261849e-05
-3.6633574e-05
-5.5868168e-05
-8.8285241e-05
-0.00012563866
-0.00018294299
-0.00025703683
-0.00034714939
-0.00043927603
4.2649166e-06
-3.9826553e-05
-5.6527768e-05
-7.9492732e-05
-0.00010602609
-0.00015226971
-0.00021863771
-0.00030949393
-0.00041341978
-0.00051954152
-4.2680857e-06
-4.5362677e-05
-6.1301453e-05
-7.578854e-05
-9.0468032e-05
-0.00012251116
-0.00017593118
-0.00025999761
-0.00036711341
-0.00048892796
-0.00060963996
-1.3748341e-05
-5.4906327e-05
-7.033646e-05
-7.8309979e-05
-8.0946036e-05
-9.670732e-05
-0.00013272888
-0.00020279972
-0.0003054578
-0.00043365235
-0.00057434122
-0.00071032739
-2.5524647e-05
-6.632721e-05
-8.299357e-05
-8.7733513e-05
-7.8869906e-05
-7.7806811e-05
-9.2638285e-05
-0.00014272282
-0.00023295829
-0.00035921919
-0.00051013549
-0.00067059209
-0.00082194185
-3.7534687e-05
-7.2128021e-05
-9.767238e-05
-0.00010179683
-8.5437593e-05
-6.8858291e-05
-5.9200543e-05
-8.382633e-05
-0.0001544695
-0.00027077436
-0.00042272625
-0.00059782839
-0.00077819251
-0.00094454069
-4.1826626e-05
-7.6763164e-05
-0.00011203693
-0.00011932733
-0.00010317097
-7.3061493e-05
-3.583846e-05
-2.978171e-05
-7.4140514e-05
-0.00017279079
-0.00031718113
-0.00049778693
-0.00069757057
-0.00089736455
-0.0010778283
-4.6605348e-05
-8.6385064e-05
-0.00012590051
-0.00014835145
-0.00013903277
-9.4257026e-05
-2.5923779e-05
1.6147726e-05
4.3393173e-06
-6.9513548e-05
-0.0001982325
-0.00037542242
-0.00058574929
-0.00080992409
-0.001027967
-0.0012211933
-2.7146988e-05
-9.5104007e-05
-0.00013179698
-0.00018653684
-0.00018673844
-0.00013521064
-3.3747256e-05
5.1553788e-05
7.8083129e-05
3.5141632e-05
-7.0276534e-05
-0.00023538862
-0.00044746687
-0.00068767045
-0.00093501205
-0.0011695565
-0.0013737379
-5.668393e-05
-0.00010277589
-0.00012869453
-0.0002036805
-0.00025048432
-0.00019342112
-6.0004256e-05
7.6132598e-05
0.00014537027
0.00013817216
6.2743203e-05
-8.2010664e-05
-0.00028710466
-0.00053476816
-0.00080372293
-0.0010726221
-0.0013213811
-0.0015343106
-1.713273e-05
-8.8016682e-05
-0.00011444198
-0.00021082231
-0.00034257064
-0.00027111525
-0.00010778232
8.860546e-05
0.00020668458
0.00023727965
0.00019717512
8.0374465e-05
-0.00010898148
-0.00035518236
-0.00063774501
-0.00093433289
-0.0012223822
-0.0014823727
-0.0017015572
-7.1350452e-05
-0.00010018935
-6.6279637e-05
-0.00019762463
-0.00045839149
-0.00038362578
-0.00018278295
8.6706374e-05
0.00026295766
0.0003312655
0.00032978341
0.00024732076
8.2038859e-05
-0.00015330073
-0.00044060083
-0.00075750626
-0.0010798625
-0.0013834529
-0.0016512208
-0.0018740086
-3.7723081e-05
-0.00011747495
3.4817863e-06
-0.0001517112
-0.00058684568
-0.0005403107
-0.00028729377
6.8438107e-05
0.00031704724
0.00041985666
0.00045802806
0.00041441519
0.00028095704
6.6149117e-05
-0.00021626097
-0.00054543099
-0.0008958368
-0.001239757
-0.0015545065
-0.0018264717
-0.002050176
-0.00016621157
-0.0001538917
0.00015796239
-7.7229899e-05
-0.00074347351
-0.00075153221
-0.00043256145
3.9744872e-05
0.00037766356
0.0005101936
0.00058042542
0.00057669934
0.00048235871
0.0002981035
3.1027295e-05
-0.00030105987
-0.00067221648
-0.001052062
-0.001412415
-0.0017341783
-0.0020066251
-0.0022285371
-0.00020500039
-0.00022066977
0.00032563212
8.046185e-05
-0.00090781532
-0.0010387502
-0.00062674269
-9.1431021e-06
0.00043424136
0.00060163333
0.00069439199
0.00072859162
0.00067994975
0.0005369994
0.00029657772
-2.7982793e-05
-0.00041120872
-0.00082086363
-0.0012243543
-0.0015968177
-0.001921018
-0.0021901843
-0.002407474
-0.00032853767
-0.00029656612
0.00064565306
0.00024192606
-0.0011158023
-0.0014013434
-0.0008790735
-7.5344663e-05
0.00050354491
0.0006993909
0.00077007491
0.00086169159
0.00086696248
0.00077673867
0.00057529738
0.0002696884
-0.00011585694
-0.00054771453
-0.00098991072
-0.0014122116
-0.0017915923
-0.0021135309
-0.0023755217
-0.0025854254
-0.00036347354
-0.00035238956
0.00089950174
0.00059416408
-0.0013167018
-0.0019123742
-0.0011969558
-0.00016713203
0.00059830433
0.00082238991
0.00084067866
0.00097816649
0.0010350652
0.0010111154
0.00086197621
0.00058746411
0.00021024201
-0.00023475524
-0.00070896131
-0.0011784456
-0.0016145475
-0.0019952044
-0.0023099982
-0.0025608954
-0.0027610337
-0.00055507007
-0.00048949747
0.0013844861
0.00072781316
-0.0015855931
-0.0025413821
-0.0015833867
-0.00028756738
0.00072728304
0.00098658922
0.00092531336
0.0010623457
0.0011888424
0.0012343008
0.0011516681
0.00092106935
0.00056310146
0.00011501597
-0.0003826111
-0.00089410361
-0.0013862675
-0.0018297269
-0.0022059107
-0.0025085568
-0.0027447893
-0.002932935
-0.00077386712
-0.0006214532
0.0019018141
0.0011023963
-0.0018205596
-0.0034567204
-0.002024255
-0.00044940053
0.00092231386
0.0012033279
0.001024013
0.0010941063
0.0013115812
0.0014402441
0.0014398906
0.0012665846
0.00093887193
0.00049810581
-1.3181517e-05
-0.00055922124
-0.001103823
-0.0016118445
-0.0020560085
-0.002421852
-0.0027076662
-0.0029259252
-0.0030998176
-0.000812078
-0.00061804152
0.0025314849
0.0014633587
-0.0021195509
-0.004182586
-0.0025908223
-0.00062312625
0.0012135433
0.0014907699
0.0011319019
0.0010798545
0.0013746038
0.0016188921
0.0017235922
0.0016223157
0.0013348459
0.00091123461
0.00039596728
-0.00017537435
-0.00076595417
-0.0013367987
-0.0018534012
-0.0022917294
-0.0026413189
-0.0029058113
-0.0031028901
-0.0032605785
-0.00081355367
-0.00058294988
0.0031114434
0.0020082196
-0.0023577757
-0.0053520761
-0.003405404
-0.00079118467
0.001571095
0.0018503935
0.0012683621
0.001010482
0.0013650001
0.0017547234
0.0019978879
0.0019889696
0.0017514683
0.0013515909
0.00084057604
0.00025406175
-0.00037317991
-0.0010017345
-0.0015914431
-0.0021093614
-0.0025349706
-0.0028621383
-0.0031010748
-0.0032743129
-0.0034142387
-0.00071218256
-0.00070549255
0.0037577383
0.0023298767
-0.0028041617
-0.0068641563
-0.0043367697
-0.0010294672
0.0019869202
0.0023019441
0.0014262726
0.00088701468
0.0012526036
0.001832311
0.0022512563
0.0023682095
0.0021896512
0.0018167271
0.0013159243
0.00072414685
7.1555197e-05
-0.00060582716
-0.0012653693
-0.001866464
-0.0023779924
-0.0027832386
-0.0030822296
-0.0032918804
-0.0034390951
-0.0035599673
-0.00067896693
-0.00070498061
0.004320508
0.0024322825
-0.0030257977
-0.0085395356
-0.005029447
-0.0013504386
0.0025203409
0.0028385662
0.001635451
0.00067620426
0.0010188454
0.0018267817
0.0024813045
0.0027572481
0.0026516856
0.0023051178
0.0018172771
0.0012284844
0.00056316574
-0.00015101137
-0.00087270845
-0.0015560571
-0.002160214
-0.0026565556
-0.0030344596
-0.0033005482
-0.003477367
-0.0035963622
-0.0036970845
-0.00060978953
-0.00059171492
0.0046086279
0.002647379
-0.0032357362
-0.010041984
-0.0061332924
-0.0017941831
0.0032710846
0.0034575871
0.0018911291
0.00037015857
0.00060563551
0.0017151717
0.0026764186
0.0031636371
0.0031412174
0.0028179276
0.002340073
0.0017586409
0.0010937638
0.00035818147
-0.00041348765
-0.0011733404
-0.0018722063
-0.0024698771
-0.0029425675
-0.0032866634
-0.0035152383
-0.0036562857
-0.0037453213
-0.0038249837
-0.00058461791
-0.00050932944
0.0047393073
0.002795144
-0.0037057628
-0.011855081
-0.0079982736
-0.0025640314
0.0041406622
0.0042784013
0.0022344734
-7.3022776e-05
-1.3630597e-05
0.0014637742
0.0028251269
0.0035891637
0.0036706958
0.0033588595
0.0028818642
0.0023063779
0.0016528555
0.00091520495
0.00011019058
-0.00071589287
-0.0015068615
-0.0022110897
-0.0027923446
-0.0032334201
-0.0035372967
-0.0037243945
-0.0038274031
-0.0038850915
-0.0039431515
-0.00056734076
-0.00042759515
0.0045872191
0.0030215912
-0.0044225735
-0.013536992
-0.0098262391
-0.0033313022
0.0051985546
0.0049106938
0.0026442072
-0.00066905635
-0.00092875276
0.0010449306
0.0029063679
0.0040452747
0.0042488913
0.0039384912
0.0034397211
0.0028670367
0.0022319262
0.0015146655
0.00069340619
-0.00018408963
-0.0010598587
-0.0018714374
-0.0025694664
-0.0031248165
-0.0035264528
-0.0037847719
-0.0039267808
-0.0039894662
-0.0040149321
-0.0040514578
-0.00056447794
-0.00039217814
0.0042869529
0.0033156299
-0.0051773252
-0.014857069
-0.011146061
-0.0039107148
0.0062481984
0.0056287843
0.0031507239
-0.0015166178
-0.002048978
0.00041703725
0.002889272
0.004530823
0.0048967156
0.004561573
0.0040186613
0.0034276115
0.0028128305
0.0021443482
0.001327575
0.00041730579
-0.0005293811
-0.0014443999
-0.0022641627
-0.002945255
-0.0034645639
-0.0038192977
-0.0040274851
-0.0041215938
-0.0041415933
-0.0041349111
-0.0041499346
-0.00056586855
-0.00039441359
0.0038261711
0.0034662263
-0.0057313719
-0.016006036
-0.012454315
-0.0045690697
0.0072294276
0.006183596
0.0036771547
-0.002634168
-0.0037681456
-0.00044356382
0.0027341794
0.0050498092
0.0056250322
0.005248581
0.0046153813
0.0039822122
0.0033788786
0.0027658217
0.0019963238
0.00107944
8.1911739e-05
-0.00092530964
-0.0018670759
-0.0026832102
-0.0033355375
-0.0038087763
-0.0041103707
-0.0042636595
-0.0043079261
-0.0042842106
-0.0042450306
-0.0042385518
-0.00054105236
-0.00043616099
0.0031910505
0.003470464
-0.0063300834
-0.016891035
-0.013950658
-0.0048782787
0.0077558234
0.0064284382
0.0043323305
-0.0041310346
-0.0059507535
-0.0015696523
0.0023576692
0.0055867306
0.006456764
0.0059996181
0.0052464171
0.0045188108
0.0039178581
0.0033631685
0.0026803535
0.0017866026
0.00076769732
-0.00031366605
-0.0013696932
-0.002324911
-0.0031241532
-0.0037362027
-0.0041548645
-0.0043970621
-0.0044920998
-0.0044832771
-0.0044168206
-0.0043450148
-0.0043173769
-0.00047542375
-0.00052354
0.0023225953
0.0032842033
-0.0069600342
-0.017573114
-0.015446465
-0.0056016788
0.0081236948
0.006264751
0.0049552602
-0.0058211965
-0.0088868954
-0.0029414476
0.0016840624
0.0061190539
0.0074054034
0.0068325236
0.0059005122
0.0050384177
0.0044029411
0.0039206145
0.0033589112
0.0025369513
0.001517682
0.00038694922
-0.00076927742
-0.0018605525
-0.0028148585
-0.0035833108
-0.0041440646
-0.0045005609
-0.0046774671
-0.0047110817
-0.004647143
-0.0045384188
-0.0044348024
-0.0043865756
-0.00035517204
-0.00071547702
0.0012623874
0.0028320791
-0.0075303782
-0.018079904
-0.016609164
-0.0067431722
0.0075270314
0.0056113941
0.0052885206
-0.008470246
-0.012590208
-0.0045799543
0.00055894044
0.0066474857
0.0084623868
0.007733993
0.0065990287
0.005515202
0.0048182145
0.0044043605
0.0040061934
0.0033077947
0.002332322
0.0011736485
-6.5934792e-05
-0.0012842327
-0.0023951859
-0.0033326721
-0.0040570348
-0.0045559785
-0.0048426675
-0.004949595
-0.0049184265
-0.0047999556
-0.0046490372
-0.0045144725
-0.0044463738
-0.00020164086
-0.0010268702
0.00011796812
0.0020119852
-0.0079252796
-0.018179073
-0.017441853
-0.0079012975
0.0064542032
0.0047207973
0.0052004494
-0.011070014
-0.017220002
-0.0067356814
-0.0010769817
0.0070384945
0.0096046374
0.0086846994
0.007315589
0.0059597774
0.0051144036
0.0048001554
0.0045897293
0.0040778322
0.0031948591
0.0020422648
0.00074182834
-0.0005915265
-0.001855842
-0.0029691979
-0.0038743017
-0.0045414086
-0.0049683989
-0.0051783815
-0.005210951
-0.005113249
-0.0049410843
-0.0047486275
-0.0045841556
-0.0044970761
-0.0013992549
-3.7935675e-05
-0.0010953236
0.00079744414
-0.0080332643
-0.01783813
-0.017788625
-0.009095457
0.0048667401
0.0041042203
0.005128098
-0.014236854
-0.021806767
-0.010235778
-0.0035519198
0.0070770612
0.010723424
0.0096432753
0.0080566843
0.0063225651
0.0052756117
0.0050219031
0.005081693
0.0048213955
0.0040889875
0.0029883581
0.0016492231
0.00021777451
-0.0011902289
-0.0024805158
-0.0035782947
-0.0044353027
-0.0050321541
-0.0053777587
-0.0055048388
-0.0054596318
-0.0052954478
-0.0050703129
-0.0048373024
-0.0046441708
-0.0045390578
-0.0023597773
-0.0017576762
8.3239377e-05
-0.00073317173
-0.0078718365
-0.016973422
-0.017561585
-0.010218739
0.0026674423
0.0027649429
0.0051765287
-0.017214446
-0.026719287
-0.014832719
-0.0074907867
0.0065972895
0.011898709
0.01049747
0.0087618203
0.0066147443
0.0052221969
0.0050519355
0.0054216943
0.0055115332
0.0049998184
0.0039994161
0.0026537699
0.0011470176
-0.00039510705
-0.0018577653
-0.0031538553
-0.0042176845
-0.0050106248
-0.0055248125
-0.0057804299
-0.0058194248
-0.0056945655
-0.0054645841
-0.0051874737
-0.0049153634
-0.0046948704
-0.0045727125
-0.0024420922
-0.0035961522
-0.0020440193
0.00015039182
-0.0073983002
-0.015565398
-0.016655475
-0.011182574
-0.00019368572
0.00091396961
0.0046862661
-0.019484994
-0.031698632
-0.019251958
-0.012191556
0.0057507889
0.013059277
0.011185567
0.0094010585
0.0067513963
0.0049415287
0.0047717775
0.0055736039
0.0061097606
0.005914548
0.0050651117
0.0037506996
0.0021912586
0.00053099879
-0.001094123
-0.0025886743
-0.0038703853
-0.004881561
-0.0055948751
-0.0060148215
-0.0061729615
-0.0061201
-0.0059151332
-0.0056202717
-0.005292578
-0.0049829726
-0.0047365948
-0.0045984912
-0.0066275389
-0.0042462379
-0.0047457065
-0.0021583707
0.00018291952
-0.01365622
-0.015119121
-0.011937286
-0.0036452517
-0.001325975
0.0032806522
-0.021436774
-0.037556403
-0.024292097
-0.016534561
0.0046543366
0.014073561
0.011392355
0.0098489672
0.0067442252
0.0043076993
0.0041475249
0.0054221899
0.0065747125
0.0068066138
0.0061823217
0.0049402069
0.0033304786
0.0015881469
-0.00018964755
-0.0018753638
-0.0033784875
-0.0046240039
-0.0055637013
-0.0061825191
-0.0064977835
-0.0065523679
-0.0064054283
-0.006120846
-0.005762253
-0.005385751
-0.0050404879
-0.0047698553
-0.0046168644
-0.011331817
-0.0057282994
-0.0058838057
-0.0057671805
-0.0021295723
0.00020009495
-0.013172135
-0.012490956
-0.0076237122
-0.0043060687
0.0010012152
-0.023894
-0.043026066
-0.031273888
-0.021515927
0.0035812937
0.014047916
0.011071929
0.010035899
0.0064320079
0.0033165404
0.0029802836
0.0049168847
0.0068393936
0.007658073
0.007335878
0.0062149809
0.0045909102
0.002762154
0.00085408745
-0.0010094053
-0.002730958
-0.0042197306
-0.005407578
-0.0062576205
-0.0067681159
-0.0069696886
-0.006916246
-0.0066741713
-0.00631101
-0.0058904308
-0.0054672482
-0.0050884696
-0.0047951227
-0.0046283005
-0.010912364
-0.0086334821
-0.0047631543
-0.0072092407
-0.0066487062
-0.0020353449
0.0002225303
-0.012688953
-0.011981102
-0.0082654726
-0.0019905791
-0.026307801
-0.048255591
-0.038510075
-0.026870008
-0.00034476995
0.013910925
0.0097769723
0.0097259737
0.005900539
0.0017490901
0.0012357074
0.0038518937
0.0068346144
0.0084255429
0.0085307492
0.007566314
0.0059566142
0.004049926
0.0020316369
3.2884922e-06
-0.0019233503
-0.0036547044
-0.0051049056
-0.0062138468
-0.0069568353
-0.0073465172
-0.0074270586
-0.0072626592
-0.0069254178
-0.0064851947
-0.0060049992
-0.0055376262
-0.0051273259
-0.0048128547
-0.0046332448
-0.01219533
-0.0083067628
-0.005815949
-0.003837651
-0.0080871805
-0.0073411439
-0.0018818607
0.00025556435
-0.016368008
-0.012944309
-0.0054531118
-0.028421859
-0.05285082
-0.046101914
-0.031604995
-0.0050884419
0.011034905
0.0085421187
0.0089877868
0.0047835582
-0.00033017158
-0.0014801529
0.0021649792
0.0064641025
0.009077425
0.009741458
0.0090002431
0.007414058
0.0054477578
0.0033252594
0.0011571837
-0.00095685666
-0.002921478
-0.0046383072
-0.0060262522
-0.0070355097
-0.0076550252
-0.0079130386
-0.0078669307
-0.0075899005
-0.0071583694
-0.0066434278
-0.006106477
-0.0055973445
-0.0051574596
-0.0048233983
-0.0046321572
-0.020610482
-0.011257637
-0.0054884094
-0.0029786267
-0.0030505123
-0.008507075
-0.0077637021
-0.0016892812
0.00030013434
-0.01804833
-0.0092932965
-0.030061933
-0.056218875
-0.052706856
-0.036233081
-0.010437133
0.0070784713
0.0063197677
0.0070080582
0.0034362131
-0.0034187395
-0.0051490705
-0.00058879556
0.0055942934
0.0095177457
0.010968099
0.010491231
0.0089650024
0.0069311903
0.0047243737
0.0024353498
0.00015701093
-0.0020188962
-0.0039950011
-0.0056728889
-0.0069756749
-0.0078650914
-0.0083462189
-0.0084634871
-0.0082866511
-0.0078964698
-0.0073727359
-0.0067861736
-0.0061951923
-0.0056463733
-0.0051789227
-0.0048271753
-0.0046257039
-0.023115378
-0.024487107
-0.010334837
-0.0025374809
-0.00035692207
-0.0024234291
-0.0085303624
-0.00794219
-0.001460919
0.00035868969
-0.013572816
-0.031019413
-0.057873177
-0.057755942
-0.040526322
-0.01614154
0.00074621118
0.0036539889
0.0038158235
0.00096878149
-0.0069722136
-0.010402527
-0.0043892941
0.0041032282
0.0096329265
0.012125145
0.012036167
0.010564253
0.008500016
0.0062003019
0.0038149861
0.0014019372
-0.00095635433
-0.0031713884
-0.005136517
-0.0067510362
-0.0079453257
-0.0086954207
-0.0090248706
-0.0089939655
-0.0086838474
-0.0081816799
-0.0075688631
-0.0069135365
-0.006270587
-0.0056844703
-0.0051923756
-0.0048254018
-0.0046145174
-0.017993509
-0.027484287
-0.027602491
-0.0095823739
0.00023521122
0.0019455183
-0.0019743573
-0.0082573602
-0.0079321403
-0.001210707
0.00045265239
-0.03107914
-0.057625685
-0.060913687
-0.044423114
-0.021954836
-0.0069790662
-0.0013971041
0.0011068077
-0.0012238161
-0.012221417
-0.016582481
-0.0098896165
0.0017089096
0.0092258099
0.013148783
0.013582768
0.012201903
0.010096307
0.007740906
0.0052621538
0.0027502577
0.00024711726
-0.0021727679
-0.0044072864
-0.006338491
-0.0078645222
-0.0089268725
-0.0095195517
-0.009685614
-0.0095009145
-0.0090570325
-0.0084456499
-0.0077465405
-0.0070242956
-0.0063320617
-0.0057129844
-0.0052001689
-0.0048191981
-0.0045984045
-0.029856386
-0.022283583
-0.030751978
-0.029766524
-0.0088165553
0.0025693977
0.0038962314
-0.0016945899
-0.0077891529
-0.0077843156
-0.0010202782
0.00049895844
-0.055194097
-0.061802483
-0.047010292
-0.027655193
-0.015848151
-0.0085082754
-0.0029529077
-0.0027783074
-0.01668868
-0.025180439
-0.016555296
-0.0017198591
0.0080190646
0.013894883
0.015042031
0.013828311
0.011704443
0.0092742394
0.0067512095
0.0041618306
0.0015621345
-0.0010165627
-0.0034856388
-0.005721321
-0.0075938891
-0.0090049447
-0.0099120936
-0.01033052
-0.010323365
-0.009981893
-0.009405892
-0.0086877408
-0.0079036744
-0.0071173626
-0.006381999
-0.0057359422
-0.0052038354
-0.0048070064
-0.004575671
-0.05071309
-0.027624638
-0.025495844
-0.03285971
-0.030872812
-0.0079947563
0.0043717675
0.0054504126
-0.0014737426
-0.0072081862
-0.0075714453
-0.00083001677
0.00064322883
-0.06011854
-0.047785689
-0.032988275
-0.02533817
-0.018081551
-0.009686318
-0.0049929414
-0.020417793
-0.034420444
-0.026643889
-0.0068233931
0.0057652351
0.014187034
0.016342041
0.015305395
0.013234497
0.010785733
0.0082064359
0.0056009288
0.0029445111
0.00026760874
-0.0023834297
-0.0048920433
-0.0071087063
-0.0088953187
-0.010163577
-0.010892541
-0.011121468
-0.010934286
-0.010435839
-0.0097293334
-0.0089047443
-0.0080384396
-0.0071963693
-0.0064266957
-0.0057550986
-0.0051989399
-0.0047842894
-0.0045470938
-0.056028425
-0.044232835
-0.024695678
-0.027250711
-0.033594875
-0.030959849
-0.0072358464
0.0056453258
0.0066008557
-0.0013072605
-0.0065421276
-0.0070174411
-0.00070563151
0.00059690127
-0.046401758
-0.037816526
-0.035431967
-0.029606437
-0.019094517
-0.0087027481
-0.023904504
-0.045497965
-0.038770673
-0.015130274
0.0018009731
0.013597339
0.017319264
0.016607628
0.014556295
0.012149444
0.0096102345
0.0069882707
0.0043502827
0.0016350563
-0.0011270268
-0.0038542799
-0.006391407
-0.0085642685
-0.010233925
-0.011330542
-0.011859454
-0.01188686
-0.011516319
-0.010860666
-0.010022698
-0.0090937994
-0.0081559473
-0.0072706023
-0.0064677924
-0.0057611318
-0.0051760649
-0.0047555056
-0.0045130184
-0.042608434
-0.049576734
-0.036649484
-0.020955854
-0.027856833
-0.032985535
-0.030103507
-0.0065075123
0.0064308587
0.0074121239
-0.0011616534
-0.005954559
-0.0063919862
-0.0006833467
0.000629534
-0.041806794
-0.046193234
-0.042594393
-0.030367035
-0.013514831
-0.028846302
-0.054525198
-0.056977956
-0.025905785
-0.0043353205
0.011650789
0.017606114
0.017334956
0.015656534
0.013299677
0.010826863
0.0082993301
0.0056950135
0.0030349869
0.00024220643
-0.0026264636
-0.005434637
-0.0079833225
-0.010081032
-0.011598892
-0.012494998
-0.012805259
-0.012623235
-0.012066275
-0.011250028
-0.010281561
-0.0092616258
-0.0082693288
-0.0073415938
-0.0064891394
-0.0057380361
-0.0051462031
-0.0047209381
-0.0044733442
-0.043862241
-0.036529835
-0.041330166
-0.028621928
-0.017205956
-0.02747372
-0.031134535
-0.028439617
-0.0058175747
0.0067512703
0.0079338283
-0.0012222404
-0.0055311805
-0.0054784719
-0.00064255897
0.0005069824
-0.056921085
-0.056499407
-0.042484638
-0.020212178
-0.03492132
-0.064233342
-0.072292724
-0.045207718
-0.014378387
0.009695922
0.016857995
0.017572079
0.015958339
0.014140458
0.011830019
0.0093919682
0.0069465983
0.0043796318
0.0016699651
-0.001242243
-0.0042445316
-0.0071317624
-0.0096651725
-0.011649115
-0.012978575
-0.013647342
-0.013724715
-0.01332584
-0.012575413
-0.011597752
-0.010514347
-0.0094260847
-0.0083800906
-0.0073838308
-0.0064661749
-0.005706469
-0.0051103027
-0.0046806307
-0.0044280586
-0.066221213
-0.044145165
-0.029708801
-0.032501748
-0.020641165
-0.013723761
-0.026294075
-0.028425272
-0.026180875
-0.0053900322
0.0065488982
0.0080359348
-0.0014065848
-0.0051176581
-0.0046057382
-0.00066608886
0.00039422462
-0.070374438
-0.05556665
-0.029275014
-0.041846309
-0.074433544
-0.089722092
-0.068100948
-0.028587134
0.0027949781
0.016816775
0.016685022
0.015901429
0.014371826
0.012476422
0.010262714
0.007949423
0.0056254591
0.0030695971
0.00024643519
-0.0028420176
-0.0059998906
-0.008951091
-0.011430529
-0.013256583
-0.014362431
-0.014780441
-0.014611036
-0.013983075
-0.013034917
-0.011913783
-0.010744721
-0.0095886155
-0.0084503619
-0.0073618128
-0.0064323975
-0.00566843
-0.0050683585
-0.004634454
-0.0043770002
-0.083214438
-0.073426814
-0.042635636
-0.022702785
-0.023885677
-0.013133384
-0.010347689
-0.024595471
-0.025232823
-0.023819954
-0.0050282018
0.0064340963
0.0077914269
-0.0014031936
-0.0045099175
-0.0039152246
-0.00062680432
0.00033154169
-0.069226273
-0.039243083
-0.049268854
-0.084715993
-0.10739972
-0.091556155
-0.045919967
-0.0065368927
0.011770311
0.015695962
0.014351683
0.014156523
0.012624148
0.010728726
0.0087140647
0.0066006859
0.0043827185
0.0017602034
-0.0012691195
-0.0045911733
-0.00791106
-0.010893407
-0.013269265
-0.014891977
-0.015740414
-0.015884763
-0.01544904
-0.014582608
-0.013456739
-0.012228545
-0.010973979
-0.0096960285
-0.0084307827
-0.0073254026
-0.006391597
-0.0056239284
-0.0050203329
-0.0045821674
-0.0043202688
-0.08181061
-0.09349772
-0.077339947
-0.03914592
-0.015946
-0.015943649
-0.0064502358
-0.0070569782
-0.022336943
-0.022010244
-0.021214497
-0.0040102734
0.0063550191
0.007567516
-0.001236651
-0.0034895729
-0.0031883451
-0.00056810375
0.00020243418
-0.049035235
-0.056555485
-0.094086529
-0.12340633
-0.11393142
-0.066686297
-0.020162524
0.005999289
0.011906828
0.01215105
0.01281574
0.012275499
0.010759195
0.0090078387
0.0073205085
0.0054269304
0.0032274465
0.00040960408
-0.0029300024
-0.0065274363
-0.0099918238
-0.012953305
-0.015169738
-0.016544081
-0.017099389
-0.01694062
-0.016221916
-0.015137213
-0.013878786
-0.012542926
-0.011129953
-0.0096815667
-0.0083916718
-0.0072813536
-0.0063439168
-0.0055732063
-0.0049660458
-0.0045241417
-0.0042577052
-0.057956879
-0.091467715
-0.099474968
-0.078162556
-0.034892552
-0.0097266113
-0.0092627842
-0.00073794814
-0.003929016
-0.019686051
-0.01824327
-0.018416917
-0.0027717704
0.0057193527
0.0067953698
-0.00076385918
-0.0025941161
-0.0026088747
-0.00049886511
0.00014729713
-0.062922795
-0.10103022
-0.13581753
-0.13472854
-0.088188486
-0.036940224
-0.0042254425
0.0089081765
0.0077564261
0.010878668
0.011045473
0.010210819
0.0088892617
0.007493336
0.0062070828
0.0044671769
0.0021176474
-0.001058577
-0.0048003588
-0.0086848885
-0.012245153
-0.015121629
-0.017120975
-0.018195839
-0.018414681
-0.017925721
-0.016943237
-0.01569409
-0.014301762
-0.012762182
-0.01112474
-0.0096402525
-0.0083441122
-0.0072300306
-0.0062898469
-0.0055160372
-0.0049057925
-0.0044599641
-0.0041894635
-0.06656399
-0.065763903
-0.096440978
-0.10107109
-0.07598218
-0.030384642
-0.0041870064
-0.0042037653
0.0039217338
-0.0010587033
-0.016850099
-0.015457088
-0.015675515
-0.0020446682
0.0051703838
0.0055391661
-0.00033443093
-0.0020722207
-0.0017814863
-0.00037838018
4.3951304e-05
-0.10377411
-0.14259035
-0.15142382
-0.10799932
-0.05633491
-0.016697195
0.00025307252
0.0073612114
0.0069486474
0.0092567485
0.008980566
0.008018248
0.0072253225
0.0063688215
0.005459478
0.0036904877
0.00095483036
-0.0027444526
-0.0069451863
-0.011081847
-0.014669471
-0.017391553
-0.019102801
-0.019816045
-0.019657274
-0.018853201
-0.017670008
-0.016254884
-0.014604025
-0.012772621
-0.011082678
-0.0095894118
-0.0082889438
-0.00717203
-0.0062290383
-0.0054525878
-0.0048392398
-0.004390029
-0.0041153843
-0.10132502
-0.067129638
-0.070048603
-0.096363069
-0.098262928
-0.071387741
-0.025927408
0.00076158807
-0.00012038808
0.0076211071
0.0015395011
-0.014070356
-0.013214257
-0.012794692
-0.0014001428
0.004677219
0.0043997155
5.1928424e-06
-0.0015548077
-0.0016613928
-0.00044134873
4.7222271e-05
-0.14212876
-0.16071926
-0.12473665
-0.076019304
-0.032194905
-0.011410213
-3.8040875e-05
0.0033183559
0.0059219693
0.0069994288
0.0066116421
0.0059969685
0.0060348971
0.005798824
0.0050806948
0.0029780096
-0.00040635355
-0.004756093
-0.0094140156
-0.013728689
-0.017270859
-0.01973705
-0.021075303
-0.021367089
-0.02083705
-0.01979114
-0.018403811
-0.016665166
-0.01463872
-0.012732423
-0.011029672
-0.00953051
-0.0082266738
-0.0071070538
-0.0061616209
-0.0053827645
-0.0047668356
-0.0043140779
-0.004035586
-0.1344704
-0.093342019
-0.064101683
-0.070413025
-0.09102568
-0.091842193
-0.064916961
-0.021728415
0.0044518757
0.0032375665
0.010107355
0.0035769643
-0.011737305
-0.010328906
-0.010089175
-0.00083725822
0.0040140027
0.0035556274
0.00019337013
-0.0010201332
-0.0010186307
-0.00026565539
-2.0956013e-06
-0.16023602
-0.13721618
-0.091744908
-0.049101696
-0.02649907
-0.010556029
-0.0033187679
0.002504144
0.004141865
0.0040505755
0.0043172861
0.0045794444
0.0056250976
0.0058704018
0.0049493936
0.0021285885
-0.002133187
-0.0071857472
-0.012224048
-0.016637514
-0.019996026
-0.022106642
-0.022990624
-0.022852666
-0.022033897
-0.020742253
-0.018952556
-0.016736692
-0.014604194
-0.012679206
-0.010967625
-0.0094639376
-0.0081570299
-0.0070350521
-0.0060877678
-0.0053069913
-0.0046882479
-0.0042321069
-0.0039500979
-0.15007914
-0.1198036
-0.081792223
-0.057383683
-0.067586824
-0.081849817
-0.08274755
-0.057263571
-0.01813802
0.006116456
0.0056454227
0.011928029
0.0042818157
-0.0092787512
-0.0071858676
-0.0078140144
-0.00030894784
0.003554689
0.002922103
0.00040211562
-0.00058981683
-0.00070962162
-0.00014130298
4.4671672e-05
-0.1411587
-0.099844336
-0.065505128
-0.04419152
-0.026345934
-0.013903886
-0.0040725872
0.0014664965
0.0011700638
0.00095663672
0.0026064733
0.0041657474
0.0061902903
0.0064833807
0.0047952638
0.00089380167
-0.0043778888
-0.010081145
-0.015381106
-0.019767572
-0.022802449
-0.024445075
-0.024842949
-0.024364642
-0.023254712
-0.021470129
-0.019078963
-0.016713601
-0.014554164
-0.012615454
-0.010897137
-0.0093893699
-0.0080799485
-0.0069563785
-0.0060078489
-0.0052248143
-0.0046031159
-0.0041443883
-0.0038590673
-0.1343799
-0.13198762
-0.10060163
-0.06752245
-0.048796692
-0.061731292
-0.070844694
-0.072165002
-0.049101444
-0.015593843
0.0064292709
0.0079784262
0.012203737
0.0048510285
-0.0061392117
-0.0048569474
-0.0053400851
0.00014652589
0.0030783578
0.0024572523
0.00054599501
-0.00032947054
-0.00028705521
-2.5218612e-05
7.5134979e-05
-0.10075592
-0.078889635
-0.063316082
-0.046696315
-0.028738055
-0.014962856
-0.0035137536
-0.0016998921
-0.0022202185
-0.0016512374
0.0019861788
0.0051332859
0.0076796946
0.0072487949
0.0042891279
-0.00097497177
-0.0072372627
-0.01345382
-0.01891434
-0.023050867
-0.025626321
-0.026731812
-0.026733443
-0.025918511
-0.024214064
-0.02167649
-0.019075917
-0.016672233
-0.014491285
-0.01254207
-0.010817726
-0.0093067852
-0.0079958376
-0.0068715432
-0.0059212126
-0.0051353569
-0.0045121363
-0.0040511251
-0.0037625487
-0.096068946
-0.11871184
-0.10999484
-0.079401018
-0.052233854
-0.038968488
-0.052817011
-0.059479124
-0.060472155
-0.041497077
-0.012991566
0.0070877273
0.0092730645
0.012510811
0.0050210816
-0.0034298559
-0.0035075245
-0.003507412
0.00055956834
0.0027173079
0.0021243456
0.00067666305
-1.8493063e-05
-2.3483978e-05
8.9285103e-05
0.00011947921
-0.087326351
-0.081837437
-0.070018019
-0.049570462
-0.030695465
-0.012551421
-0.005636317
-0.0064061961
-0.0052709197
-0.0029409634
0.0031702467
0.0076087994
0.0098154342
0.0078401251
0.0029941388
-0.0036473639
-0.010749571
-0.01733554
-0.022729363
-0.026422816
-0.028423639
-0.029072122
-0.028696206
-0.027175583
-0.024536424
-0.021705659
-0.019051952
-0.01661442
-0.014416969
-0.012458385
-0.01072942
-0.0092167207
-0.0079053176
-0.0067795397
-0.0058263063
-0.0050399222
-0.0044155251
-0.0039524248
-0.0036606573
-0.089167756
-0.085959539
-0.098197428
-0.086495074
-0.058801487
-0.037042624
-0.028282766
-0.041699315
-0.048328639
-0.051149106
-0.033563002