/*--------------------------------*- C++ -*----------------------------------*\
| =========                 |                                                 |
| \\      /  F ield         | OpenFOAM: The Open Source CFD Toolbox           |
|  \\    /   O peration     | Version:  5.0                                   |
|   \\  /    A nd           | Web:      www.OpenFOAM.org                      |
|    \\/     M anipulation  |                                                 |
\*---------------------------------------------------------------------------*/
FoamFile
{
    version     2.0;
    format      ascii;
    class       surfaceScalarField;
    location    "380";
    object      phi;
}
// * * * * * * * * * * * * * * * * * * * * * * * * * * * * * * * * * * * * * //

dimensions      [0 3 -1 0 0 0 0];

internalField   nonuniform List<scalar> 
18820
(
-0.00039754041
-1.3580954
-0.00076733679
-1.2700813
-0.00037953751
-1.3577159
-0.001109231
-1.1878608
-0.00073408896
-1.2697268
-0.00036031519
-1.3573556
-0.0014226608
-1.1110267
-0.0010635721
-1.1875313
-0.0006972992
-1.2693898
-0.00034820519
-1.3570074
-0.0017071746
-1.0392125
-0.001367475
-1.1107228
-0.001011324
-1.1872173
-0.00067349553
-1.2690645
-0.00034573226
-1.3566617
-0.0019626953
-0.97207145
-0.0016450708
-1.0389349
-0.0013029765
-1.1104311
-0.00097721254
-1.1869136
-0.00066840099
-1.2687419
-0.00034630627
-1.3563153
-0.002188767
-0.90928828
-0.0018960432
-0.97182048
-0.0015721196
-1.0386657
-0.0012611351
-1.1101472
-0.0009702341
-1.1866117
-0.00067061363
-1.2684175
-0.00034044408
-1.3559749
-0.0023841463
-0.85057245
-0.0021203788
-0.90906394
-0.0018178587
-0.97157474
-0.0015262385
-1.0384006
-0.0012532128
-1.1098642
-0.00097581113
-1.1863065
-0.00066158618
-1.2680964
-0.00032483295
-1.3556501
-0.0025464711
-0.79565592
-0.002318361
-0.85037447
-0.0020397692
-0.90884203
-0.0017719721
-0.97132901
-0.0015188658
-1.038135
-0.0012635802
-1.1095764
-0.00096663551
-1.1860015
-0.00063363308
-1.2677876
-0.0003019919
-1.3553481
-0.0026721513
-0.74428835
-0.0024909118
-0.79548337
-0.002238507
-0.85017573
-0.0019978004
-0.9086162
-0.0017676851
-0.97108019
-0.0015356625
-1.0378629
-0.0012568244
-1.1092862
-0.00093002745
-1.1857051
-0.00059038576
-1.2674992
-0.0002782559
-1.3550698
-0.0027576145
-0.69624187
-0.0026389653
-0.7441403
-0.0024172841
-0.79530459
-0.0022037415
-0.84996979
-0.001999633
-0.90838425
-0.0017938426
-0.97082201
-0.0015335865
-1.0375861
-0.0012158383
-1.1090004
-0.00086895257
-1.1854265
-0.0005442444
-1.2672332
-0.00025884067
-1.354811
-0.0028004692
-0.65130491
-0.0027621773
-0.69611866
-0.0025834197
-0.74397416
-0.0023909635
-0.79511737
-0.002214148
-0.84975528
-0.0020388893
-0.90813921
-0.0017992929
-0.9705563
-0.0014922559
-1.0373097
-0.0011409912
-1.1087284
-0.00080185249
-1.1851689
-0.00050572909
-1.2669863
-0.00024523523
-1.3545657
-0.0028123018
-0.60926291
-0.0028784013
-0.65118869
-0.0027528829
-0.69594919
-0.0025627708
-0.74380236
-0.0024092738
-0.79492224
-0.002269818
-0.84952435
-0.0020556274
-0.90788287
-0.0017615044
-0.97028705
-0.0014082373
-1.0370425
-0.0010550964
-1.1084751
-0.00074528856
-1.1849294
-0.0004783065
-1.2667533
-0.00023521343
-1.3543305
-0.0028010492
-0.56991284
-0.0030207837
-0.60912053
-0.0029460665
-0.65099551
-0.0027256776
-0.69578629
-0.0025807484
-0.74363088
-0.0024823325
-0.79470973
-0.0023034962
-0.84927648
-0.0020257819
-0.90761859
-0.0016715905
-0.9700237
-0.0013068064
-1.0367907
-0.00098156352
-1.1082389
-0.00070461724
-1.1847031
-0.00045830815
-1.2665302
-0.00022488643
-1.3541056
-0.0027728335
-0.53310262
-0.0031805699
-0.56975305
-0.0031502964
-0.6089163
-0.002865697
-0.65085549
-0.0027146473
-0.69565239
-0.0026675621
-0.74344565
-0.0025431427
-0.79447008
-0.0022876902
-0.84901457
-0.0019322683
-0.90735792
-0.0015573905
-0.96977311
-0.0012175644
-1.0365547
-0.00092828737
-1.1080152
-0.00067470988
-1.1844867
-0.00043845518
-1.2663166
-0.00021096907
-1.3538947
-0.0027310721
-0.49867204
-0.0033778226
-0.53290537
-0.0033362467
-0.5695671
-0.0029564373
-0.60882556
-0.0027881955
-0.65078194
-0.0028122601
-0.69550769
-0.00277423
-0.74321456
-0.0025517282
-0.79420604
-0.0021923157
-0.84875452
-0.0018067427
-0.90710856
-0.0014542645
-0.96953641
-0.0011522215
-1.0363308
-0.00088867554
-1.1078012
-0.00064525911
-1.1842798
-0.00041208403
-1.2661155
-0.00019211904
-1.3537026
-0.0026877353
-0.46647086
-0.0036199108
-0.49842995
-0.003516602
-0.53272502
-0.0030097481
-0.56951379
-0.0027890434
-0.60882471
-0.0029072859
-0.65068691
-0.0029986659
-0.69528325
-0.0028259609
-0.74294033
-0.0024557037
-0.79394265
-0.002054665
-0.8485066
-0.0016914534
-0.90687137
-0.0013783808
-0.96931025
-0.0011033658
-1.0361161
-0.00084927606
-1.1075972
-0.00060696021
-1.184085
-0.00037596292
-1.2659316
-0.00016923439
-1.3535333
-0.0026355372
-0.43634889
-0.0039512293
-0.46613954
-0.0037234989
-0.49822306
-0.0030053179
-0.53272945
-0.0027278921
-0.56957494
-0.0029580478
-0.60877395
-0.003224741
-0.65046084
-0.0031229049
-0.69498631
-0.0027290935
-0.74266694
-0.0023006008
-0.79369672
-0.0019277155
-0.84827034
-0.0016076887
-0.90664207
-0.0013217024
-0.96909192
-0.0010543022
-1.0359111
-0.00079857366
-1.1074056
-0.00055492393
-1.183906
-0.00033139154
-1.2657695
-0.00014487756
-1.3533884
-0.0026118086
-0.40817705
-0.0043774223
-0.43592269
-0.0039810818
-0.46588196
-0.0029547028
-0.49827367
-0.0025643328
-0.53289301
-0.0029732292
-0.56955976
-0.0034627609
-0.60853593
-0.0034640687
-0.65011967
-0.0030232135
-0.69469219
-0.0025431562
-0.74242438
-0.0021594815
-0.79346495
-0.0018395316
-0.8480385
-0.0015460585
-0.90641771
-0.0012640745
-0.96888214
-0.00099107286
-1.0357186
-0.00073093904
-1.1072296
-0.00048984942
-1.1837476
-0.00028336228
-1.265631
-0.00012208054
-1.3532664
-0.0025551254
-0.38180656
-0.0049775191
-0.40757695
-0.0043280921
-0.43557568
-0.0028154935
-0.46602117
-0.0022534097
-0.49858459
-0.0029514706
-0.53291476
-0.0037195941
-0.56930293
-0.0038696778
-0.60813032
-0.0033515189
-0.64979137
-0.0027815301
-0.69445381
-0.0023807812
-0.74220308
-0.0020709193
-0.79323356
-0.0017776263
-0.84780693
-0.0014822972
-0.90619949
-0.0011890024
-0.96868421
-0.00090742234
-1.0355421
-0.00064669841
-1.1070727
-0.00041782602
-1.1836131
-0.000238026
-1.265515
-0.0001030968
-1.3531633
-0.0025522067
-0.35709243
-0.0056957419
-0.38108834
-0.00476649
-0.40713855
-0.0025883042
-0.43580287
-0.0017389389
-0.46653564
-0.0028411856
-0.49869488
-0.0040270968
-0.53260726
-0.0043611387
-0.56881146
-0.0037310275
-0.60775081
-0.0030126217
-0.64956028
-0.0025817774
-0.69425282
-0.0022959295
-0.74197807
-0.0020161712
-0.79299502
-0.0017122582
-0.84757697
-0.0013967209
-0.90599177
-0.0010891702
-0.96850247
-0.00080392006
-1.0353849
-0.00055118669
-1.1069394
-0.00034853241
-1.1835026
-0.00019984861
-1.2654183
-8.8782561e-05
-1.3530745
-0.0024758244
-0.33390127
-0.0066384893
-0.35614968
-0.0053686745
-0.38048615
-0.0022155962
-0.40751126
-0.0009670247
-0.43657479
-0.0026195609
-0.46675727
-0.0044161311
-0.49830585
-0.0049692307
-0.53199917
-0.0041664271
-0.56837606
-0.0032363245
-0.60752711
-0.0027476377
-0.64939442
-0.0025035108
-0.69404524
-0.0022591941
-0.74173505
-0.0019572445
-0.79275003
-0.0016188407
-0.84735485
-0.0012803299
-0.90580061
-0.0009650729
-0.96834131
-0.00068530505
-1.0352508
-0.00045647057
-1.1068314
-0.00028969828
-1.1834127
-0.00017043603
-1.2653366
-7.8755529e-05
-1.3529957
-0.0025304519
-0.31204436
-0.0076193117
-0.33292045
-0.0061173315
-0.35540103
-0.0017420811
-0.38095967
0.00012958123
-0.40860786
-0.0022346093
-0.43695974
-0.0049282033
-0.46624519
-0.0057646106
-0.49751047
-0.0046816016
-0.53148399
-0.0034270212
-0.56818537
-0.002852761
-0.60742198
-0.0026757514
-0.64922217
-0.0024999477
-0.69380448
-0.0022204296
-0.74147187
-0.001861163
-0.79250771
-0.0014855408
-0.84714964
-0.0011336038
-0.90563208
-0.00082182672
-0.96820479
-0.00056422868
-1.035143
-0.00037477819
-1.1067464
-0.0002442052
-1.183339
-0.00014910792
-1.2652663
-7.19689e-05
-1.3529238
-0.0027868107
-0.29137589
-0.0089665427
-0.31069713
-0.0070804848
-0.33195729
-0.0010284854
-0.35611462
0.0016093199
-0.38243941
-0.0016645973
-0.40917788
-0.0055955017
-0.43629244
-0.0068215097
-0.46518829
-0.005311077
-0.49688099
-0.0035693503
-0.53134166
-0.0028611997
-0.56817693
-0.0027763222
-0.60732141
-0.0027259304
-0.64899619
-0.0025052034
-0.69351971
-0.0021315551
-0.74120147
-0.0017107706
-0.79228248
-0.0013130355
-0.8469702
-0.00096287943
-0.90549103
-0.0006726688
-0.96809635
-0.00045785538
-1.0350599
-0.00031097986
-1.1066796
-0.00021083969
-1.1832772
-0.00013418
-1.2652041
-6.7264414e-05
-1.3528565
-0.0029836928
-0.27259148
-0.01053546
-0.28980698
-0.0081954209
-0.3095822
-0.00026853048
-0.33271725
0.0035937801
-0.35809908
-0.00081687412
-0.38328713
-0.0064788444
-0.40829453
-0.0082341129
-0.43487984
-0.0061003507
-0.46439902
-0.0036389972
-0.49681134
-0.0027112582
-0.53149161
-0.0027849515
-0.5681683
-0.0029178713
-0.60712947
-0.0028156443
-0.64868575
-0.0024420657
-0.6932092
-0.0019644425
-0.7409478
-0.0015073261
-0.79208819
-0.0011103733
-0.84682271
-0.00078319347
-0.9053805
-0.00053981148
-0.9680144
-0.00037328304
-1.0349976
-0.00026372571
-1.1066267
-0.00018664582
-1.1832248
-0.00012390672
-1.2651474
-6.3663028e-05
-1.3527928
-0.0031721187
-0.25467347
-0.012314832
-0.27081211
-0.009364724
-0.28863767
0.00097970092
-0.31083043
0.0060626131
-0.33518608
0.00026841144
-0.35918437
-0.0076142403
-0.38215173
-0.010094232
-0.40643441
-0.0071068551
-0.43387333
-0.0036162378
-0.46442178
-0.0023406445
-0.49718196
-0.0026639714
-0.53161259
-0.0030773314
-0.56800884
-0.0031615421
-0.60678357
-0.0028106116
-0.6483172
-0.0022596092
-0.69291403
-0.001721496
-0.74073363
-0.0012654309
-0.79193313
-0.00089655605
-0.84670935
-0.00062188334
-0.90529843
-0.00043282606
-0.96795485
-0.00030922083
-1.0349521
-0.00022893643
-1.1065844
-0.00016898403
-1.1831797
-0.00011660376
-1.2650945
-6.040537e-05
-1.3527324
-0.0040463338
-0.23632612
-0.014021614
-0.25296669
-0.011004033
-0.2691728
0.0024943295
-0.2901523
0.0091093669
-0.31387718
0.0017515437
-0.33666921
-0.0091313314
-0.35766728
-0.01252647
-0.3797195
-0.008384976
-0.40515629
-0.0034753342
-0.43401424
-0.0016744491
-0.46508798
-0.0023341275
-0.4975118
-0.0032202165
-0.5314697
-0.003557294
-0.56761309
-0.0032677918
-0.60632639
-0.0026157073
-0.64796111
-0.0019622921
-0.69267323
-0.0014280751
-0.74057099
-0.001011976
-0.79181771
-0.00070475736
-0.84662647
-0.00049108406
-0.90524017
-0.00035000889
-0.96791406
-0.00026116795
-1.0349199
-0.00020255961
-1.1065508
-0.0001560357
-1.1831403
-0.00011043529
-1.2650445
-5.6904796e-05
-1.3526755
-0.0054214896
-0.21785813
-0.016637273
-0.23371046
-0.012883519
-0.2510872
0.0043510361
-0.27102951
0.012729483
-0.29377242
0.0034116609
-0.3155373
-0.011007126
-0.33479342
-0.015625565
-0.35456818
-0.010022371
-0.3780821
-0.003188243
-0.40544338
-0.00061580969
-0.43507288
-0.0017072511
-0.46571485
-0.0033181582
-0.49741386
-0.004036023
-0.53099097
-0.0038418795
-0.567039
-0.0030630351
-0.60587906
-0.0022392242
-0.64768417
-0.0015966751
-0.69250463
-0.0011260865
-0.74045688
-0.00078738558
-0.79173508
-0.000549342
-0.84656822
-0.00038819093
-0.90520199
-0.00028614503
-0.96788909
-0.00022413227
-1.0348983
-0.00018178894
-1.1065251
-0.00014568827
-1.183105
-0.00010362666
-1.2649977
-5.2822903e-05
-1.3526227
-0.0069281943
-0.20091336
-0.019488381
-0.21500702
-0.014441391
-0.23215259
0.0062013845
-0.25293755
0.01702422
-0.27532425
0.005380396
-0.29574115
-0.013431117
-0.31311331
-0.019535793
-0.33088319
-0.012063977
-0.35252658
-0.0027182606
-0.37855208
0.00093956616
-0.40699876
-0.00067890865
-0.43610122
-0.0033283926
-0.46570462
-0.0046411333
-0.49680875
-0.0045728217
-0.53026003
-0.0036310741
-0.56647096
-0.0025652412
-0.60555305
-0.0017683766
-0.64751247
-0.0012317382
-0.69239898
-0.00086552505
-0.74037874
-0.00060752075
-0.7916769
-0.00042611641
-0.84653029
-0.00030675579
-0.90518138
-0.00023551723
-0.9678777
-0.00019377938
-1.0348863
-0.00016437383
-1.1065064
-0.00013511434
-1.1830735
-9.5290005e-05
-1.2649553
-4.8284991e-05
-1.3525744
-0.0085799407
-0.18500762
-0.022237216
-0.19816453
-0.015158097
-0.21429031
0.0094601919
-0.2354114
0.021846818
-0.25776015
0.0078223112
-0.27776616
-0.016540989
-0.29263128
-0.024290236
-0.30835887
-0.014633964
-0.3283132
-0.0020081516
-0.35323669
0.0031310608
-0.38074358
0.00086722992
-0.4085449
-0.0032024157
-0.43622719
-0.0054173168
-0.46492843
-0.0055420207
-0.49583955
-0.0043532129
-0.52953789
-0.0029573562
-0.56607884
-0.0019359279
-0.60538549
-0.0013164941
-0.64742772
-0.00093040041
-0.69233411
-0.00066310804
-0.74032315
-0.00046551959
-0.7916375
-0.00032652873
-0.84651052
-0.00024022551
-0.90517667
-0.00019294751
-0.96787853
-0.00016718358
-1.0348835
-0.00014796032
-1.1064935
-0.00012259758
-1.1830462
-8.6035854e-05
-1.2649175
-4.3815953e-05
-1.3525306
-0.012136867
-0.20005088
-0.024856633
-0.1823882
-0.015433489
-0.19788913
0.014029848
-0.21885997
0.027358586
-0.24092317
0.011157587
-0.26109542
-0.02026832
-0.27403883
-0.029940924
-0.28698059
-0.017659963
-0.30533287
-0.00098931922
-0.32933204
0.0060926982
-0.35619832
0.0030697116
-0.38294606
-0.0028877351
-0.40885958
-0.006414808
-0.4352297
-0.0068461561
-0.4636243
-0.0053022786
-0.49489048
-0.0034273662
-0.52906788
-0.0020907361
-0.56592404
-0.0013600419
-0.60534195
-0.00096652947
-0.64739159
-0.00070963102
-0.69228758
-0.0005071158
-0.74028155
-0.00034930982
-0.79161472
-0.00024271819
-0.84650802
-0.00018294837
-0.90518667
-0.00015524031
-0.96789048
-0.00014240979
-1.0348891
-0.00013037064
-1.1064858
-0.00010839359
-1.1830239
-7.7167563e-05
-1.2648842
-3.9949343e-05
-1.3524906
-0.015271994
-0.19662295
-0.029316269
-0.19559124
-0.01519092
-0.18263077
0.019040303
-0.20289959
0.033121833
-0.22462322
0.01448684
-0.24425242
-0.023630962
-0.25773278
-0.03666819
-0.26731156
-0.021167983
-0.28347257
0.00048631338
-0.3068085
0.009991263
-0.3332306
0.0060627609
-0.35919137
-0.0023184849
-0.38351531
-0.0076917042
-0.40758268
-0.0086055807
-0.43347028
-0.0065706302
-0.46235595
-0.0039965782
-0.49432127
-0.0022191201
-0.5289395
-0.0013318938
-0.56595218
-0.00094950763
-0.60535897
-0.00073495688
-0.64736626
-0.00054941719
-0.69224528
-0.00037934856
-0.74025151
-0.00024871265
-0.79160873
-0.00016871591
-0.84652226
-0.00013140775
-0.9052105
-0.0001194584
-0.96791343
-0.00011696172
-1.0349025
-0.00011102204
-1.1064831
-9.4720078e-05
-1.1830063
-6.956827e-05
-1.2648546
-3.7046398e-05
-1.3524536
-0.017960387
-0.19284933
-0.03331792
-0.19262129
-0.016648434
-0.19413373
0.024325918
-0.18791639
0.038627419
-0.20840518
0.016521232
-0.22665761
-0.027522194
-0.24036119
-0.044773621
-0.24962735
-0.025492884
-0.26298666
0.0024876572
-0.28547392
0.01497293
-0.31179017
0.010008413
-0.33717625
-0.0014406621
-0.3600692
-0.0093158599
-0.38189115
-0.010956066
-0.4052322
-0.0082730935
-0.43176781
-0.0047015878
-0.46165094
-0.0022930983
-0.49424729
-0.0011929871
-0.5290784
-0.00084528455
-0.56605641
-0.00071917201
-0.60537475
-0.00058826194
-0.64732742
-0.00042152641
-0.69220311
-0.00026596011
-0.74023427
-0.00015707882
-0.79162036
-0.00010023953
-0.84655342
-8.1452027e-05
-0.90524851
-8.3262099e-05
-0.96794713
-9.0868901e-05
-1.0349226
-9.2169628e-05
-1.1064857
-8.3058059e-05
-1.1829928
-6.3860019e-05
-1.2648277
-3.5328854e-05
-1.3524183
-0.020188707
-0.18899415
-0.036812687
-0.18935456
-0.017470854
-0.19179887
0.028172691
-0.1979805
0.043649524
-0.19293849
0.017451943
-0.20933589
-0.03356455
-0.22061525
-0.053885656
-0.23124915
-0.031563595
-0.24355664
0.0049207465
-0.26541975
0.021182411
-0.2916834
0.014998013
-0.31677977
-0.00016899474
-0.33844792
-0.011368447
-0.35801661
-0.014067785
-0.37877944
-0.010539635
-0.40296565
-0.0055881267
-0.43088128
-0.0022789971
-0.46166504
-0.00088751408
-0.49455277
-0.000602574
-0.52932111
-0.00064060225
-0.56613498
-0.0006179826
-0.60534503
-0.00048193827
-0.64726701
-0.00030503236
-0.69216403
-0.00015776188
-0.74023358
-6.8809347e-05
-0.79165179
-3.2319945e-05
-0.84660256
-3.1325708e-05
-0.90530044
-4.7833218e-05
-0.96799016
-6.6026151e-05
-1.0349488
-7.5880976e-05
-1.1064929
-7.4139521e-05
-1.1829825
-6.0512617e-05
-1.2648026
-3.4864084e-05
-1.3523834
-0.021926781
-0.18513492
-0.039772657
-0.18603418
-0.017736507
-0.18908891
0.032805094
-0.19643128
0.047497911
-0.20182889
0.017740122
-0.19322667
-0.040693708
-0.20220673
-0.063007102
-0.21149381
-0.038150504
-0.22466224
0.0075805209
-0.24621641
0.028640831
-0.27287817
0.021146492
-0.29783188
0.0015232679
-0.31847203
-0.013938469
-0.3358779
-0.01812059
-0.3539638
-0.013532785
-0.37578629
-0.0067089478
-0.40184483
-0.0021365513
-0.43102372
-0.00034075622
-0.4622118
-0.00015515543
-0.49500018
-0.0004562949
-0.52950542
-0.00062840781
-0.56612455
-0.00056786373
-0.60525911
-0.00037939906
-0.64719264
-0.00018396221
-0.69213783
-4.6933307e-05
-0.74025546
2.2227133e-05
-0.79170634
3.6625874e-05
-0.84667051
1.6899486e-05
-0.90536518
-1.491472e-05
-0.96804128
-4.4544186e-05
-1.0349801
-6.3619687e-05
-1.1065034
-6.8696602e-05
-1.1829743
-5.9423979e-05
-1.264778
-3.5608337e-05
-1.3523478
-0.023139202
-0.18149292
-0.042123176
-0.1827844
-0.017580765
-0.18618992
0.037953389
-0.1942372
0.05194248
-0.20087585
0.0179651
-0.20205386
-0.0481188
-0.18580158
-0.071508714
-0.19370512
-0.04306444
-0.20657987
0.010928653
-0.22801038
0.037560123
-0.2551357
0.028442169
-0.28017385
0.0036625339
-0.29997114
-0.017164145
-0.31524635
-0.023331395
-0.33066709
-0.017413842
-0.35008275
-0.0081211284
-0.37437411
-0.0018222615
-0.40215912
0.00053973278
-0.43190421
0.0005833919
-0.46295034
-0.00010645158
-0.49535003
-0.00060541312
-0.52952842
-0.00067614956
-0.56601627
-0.00050520899
-0.6051333
-0.0002534318
-0.64712317
-4.8128858e-05
-0.69213664
7.3091157e-05
-0.74030632
0.00011575702
-0.79178547
0.00010295641
-0.84675656
6.1731464e-05
-0.90544182
1.2996862e-05
-0.96809882
-2.8515452e-05
-1.0350152
-5.6191076e-05
-1.1065159
-6.6900993e-05
-1.1829669
-6.072485e-05
-1.2647529
-3.7466797e-05
-1.3523103
-0.023814049
-0.17828156
-0.043818335
-0.17979776
-0.017062048
-0.18330312
0.043331117
-0.19156765
0.056716695
-0.19901142
0.018664097
-0.20157484
-0.055342846
-0.19482982
-0.079521877
-0.17778842
-0.046840137
-0.18992942
0.015659418
-0.21131063
0.048163056
-0.23861331
0.03719753
-0.26389106
0.0062403176
-0.28275163
-0.021251498
-0.29588379
-0.029916889
-0.30866086
-0.022380565
-0.32570037
-0.0098819015
-0.34832197
-0.0012719592
-0.37492441
0.001861958
-0.40348135
0.0017167451
-0.43303756
0.00047842567
-0.46353522
-0.00051654447
-0.4954389
-0.00082715246
-0.52937741
-0.00069860314
-0.56582287
-0.00038946212
-0.60499727
-9.1166167e-05
-0.64708013
0.00010764833
-0.69217119
0.0001988592
-0.74038943
0.00020613469
-0.79188865
0.00016340017
-0.84685823
9.9596499e-05
-0.90552842
3.4450449e-05
-0.96816178
-1.8841896e-05
-1.0350526
-5.3781282e-05
-1.106529
-6.9127903e-05
-1.1829585
-6.4373872e-05
-1.264726
-4.0251841e-05
-1.3522701
-0.02398385
-0.17571844
-0.044823235
-0.17727666
-0.016286521
-0.18057329
0.048650906
-0.18862291
0.061693482
-0.19654444
0.019686288
-0.20003361
-0.062255691
-0.194662
-0.088764936
-0.18558676
-0.04982795
-0.1748006
0.021523512
-0.19579351
0.060140941
-0.22328852
0.047770852
-0.24918663
0.0097097709
-0.26736052
-0.026325791
-0.27767734
-0.038111054
-0.28768962
-0.028559785
-0.30248164
-0.012055807
-0.32352646
-0.00041309322
-0.34918084
0.0037511169
-0.37681357
0.0033690063
-0.40513361
0.0013874062
-0.43394654
-0.00032320715
-0.46372856
-0.0010371242
-0.49522892
-0.00098909196
-0.52908692
-0.00062378898
-0.56558855
-0.0002009191
-0.60488751
0.00010930939
-0.64708179
0.00027664616
-0.69224898
0.0003225802
-0.74050587
0.0002889915
-0.79201424
0.000214803
-0.84697344
0.00012810977
-0.90562208
4.7385776e-05
-0.96822801
-1.585709e-05
-1.0350905
-5.6605066e-05
-1.1065415
-7.485212e-05
-1.182948
-6.9879787e-05
-1.2646963
-4.3719639e-05
-1.3522264
-0.023589325
-0.17389723
-0.045193755
-0.17534792
-0.015266017
-0.17829716
0.053593669
-0.18551605
0.066579892
-0.19350932
0.021089442
-0.19794759
-0.068780965
-0.19350833
-0.097659518
-0.18576742
-0.057150247
-0.17826446
0.028294891
-0.18157198
0.072836105
-0.20848868
0.059269827
-0.23478749
0.014579937
-0.2540568
-0.031995204
-0.2616911
-0.047986945
-0.26780145
-0.036055217
-0.28019419
-0.014649363
-0.29988808
0.00085114223
-0.3247907
0.0063429506
-0.35177267
0.0056782567
-0.37912282
0.0027268074
-0.40647301
2.1660178e-05
-0.43429141
-0.0013083898
-0.46345729
-0.0014297355
-0.49478828
-0.00098765731
-0.52872305
-0.00041391827
-0.56537555
5.7439796e-05
-0.60483564
0.00033747949
-0.64714262
0.00044680892
-0.69237321
0.00043688747
-0.74065377
0.0003597072
-0.79215914
0.00025395109
-0.84709928
0.00014582201
-0.90572052
5.1638785e-05
-0.9682955
-1.9314244e-05
-1.0351278
-6.4314807e-05
-1.1065521
-8.335049e-05
-1.1829345
-7.6835322e-05
-1.2646632
-4.7642705e-05
-1.3521787
-0.17299973
-0.022693173
-0.044913509
-0.17417748
-0.014059404
-0.17655453
0.057954378
-0.18265787
0.071138569
-0.19007473
0.022666
-0.19508588
-0.074783247
-0.19194531
-0.10594656
-0.18522129
-0.06419035
-0.17872731
0.029749103
-0.17971867
0.085801409
-0.19453729
0.070631804
-0.21985066
0.020409257
-0.24061681
-0.037940604
-0.2481114
-0.05954352
-0.25013453
-0.044966326
-0.25889034
-0.017621352
-0.2772222
0.0026432508
-0.30168019
0.0097944797
-0.32824223
0.0087933629
-0.35488778
0.0046168257
-0.38101284
0.00057744967
-0.4070288
-0.0016451049
-0.4339547
-0.0020721887
-0.46281484
-0.0015451686
-0.49423077
-0.00076408243
-0.52837289
-7.8616046e-05
-0.56523949
0.0003657299
-0.60486389
0.00057242039
-0.64726824
0.00060539345
-0.69254172
0.00053487158
-0.74082893
0.00041406227
-0.79231925
0.00027894027
-0.8472324
0.00015227621
-0.90582115
4.7475312e-05
-0.96836229
-2.8920534e-05
-1.0351632
-7.6028951e-05
-1.1065594
-9.4041611e-05
-1.1829173
-8.4694793e-05
-1.2646262
-5.1723917e-05
-1.352127
-0.17375103
-0.04416221
-0.17323807
-0.021321183
-0.012960234
-0.17527665
0.061597516
-0.18019767
0.075085114
-0.18660442
0.024366079
-0.1917748
-0.080157287
-0.18971184
-0.11357603
-0.18431584
-0.07083481
-0.17857683
0.031558803
-0.18053701
0.095916904
-0.18983417
0.08129706
-0.20520254
0.025632342
-0.22507374
-0.043855928
-0.23470149
-0.073106816
-0.2345481
-0.055895898
-0.23920496
-0.020988396
-0.2555233
0.0051151594
-0.27969411
0.014260258
-0.30614597
0.012869263
-0.33231813
0.0071932418
-0.35746419
0.0014199194
-0.38185531
-0.0020561354
-0.40661777
-0.0029762664
-0.43305062
-0.0023780042
-0.461982
-0.0013035971
-0.49369125
-0.00033410874
-0.5281174
0.00034368104
-0.56521744
0.00069150822
-0.60498298
0.00079299361
-0.64745584
0.00074157706
-0.69274842
0.00061070592
-0.74102557
0.00044962674
-0.79248994
0.0002892233
-0.84736934
0.00014786721
-0.90592154
3.563078e-05
-0.96842684
-4.3954569e-05
-1.0351953
-9.0752243e-05
-1.1065627
-0.00010615478
-1.1828959
-9.2895742e-05
-1.264585
-5.5774339e-05
-1.3520712
-0.17471396
-0.011997304
-0.17452381
-0.042876469
-0.17475579
-0.019470481
0.064105587
-0.17778472
0.078254864
-0.18336742
0.026003173
-0.18824151
-0.084736069
-0.18719602
-0.12023191
-0.18305595
-0.077018738
-0.17813191
0.03366394
-0.18068197
0.10667521
-0.19129532
0.093090702
-0.20162781
0.028929074
-0.20849927
-0.051003077
-0.21792659
-0.088803554
-0.21900475
-0.069285821
-0.22115818
-0.025417582
-0.23477577
0.0084689036
-0.25887704
0.019904571
-0.28533842
0.018044765
-0.31132147
0.010602875
-0.33572776
0.0026346609
-0.35867894
-0.0025409873
-0.38137045
-0.0042153842
-0.40537865
-0.0035812694
-0.43184735
-0.0021177764
-0.46116782
-0.00074154066
-0.49328382
0.00024205582
-0.52801577
0.00079716111
-0.56532309
0.0010001294
-0.60519012
0.00098268701
-0.64769695
0.00084736142
-0.69298508
0.00066131614
-0.74123726
0.00046587991
-0.7926666
0.00028540515
-0.84750688
0.00013355546
-0.90601947
1.679799e-05
-0.9684876
-6.3163657e-05
-1.0352228
-0.00010756652
-1.1065613
-0.00011892675
-1.1828698
-0.0001011785
-1.2645396
-5.9634776e-05
-1.3520116
-0.17622541
0.065617041
-0.17541001
-0.011111108
-0.17653832
-0.041093944
-0.17700712
-0.017224682
0.080585429
-0.18011529
0.027449954
-0.1848142
-0.088391045
-0.18458654
-0.12574125
-0.18168669
-0.082502073
-0.17757262
0.035889649
-0.18035762
0.11792632
-0.19193307
0.10545903
-0.20366365
0.03736991
-0.21006865
-0.05991469
-0.19958766
-0.10504311
-0.20168704
-0.084501882
-0.20378869
-0.031298507
-0.21527725
0.012630254
-0.23893712
0.026886631
-0.2658591
0.024462275
-0.29175593
0.014979023
-0.31569762
0.0043304793
-0.33742358
-0.0031073348
-0.35811259
-0.0058768886
-0.37970895
-0.0052676476
-0.40369227
-0.0033052089
-0.43065992
-0.0013601075
-0.46054925
3.935043e-05
-0.49308112
0.00087777042
-0.52809638
0.0012268521
-0.56554982
0.0012634879
-0.60547092
0.0011295651
-0.64797915
0.00091873081
-0.69324249
0.00068632286
-0.74145771
0.00046380858
-0.792845
0.00026884638
-0.84764217
0.00011063769
-0.90611331
-7.2335756e-06
-0.96854353
-8.5308455e-05
-1.0352451
-0.00012551263
-1.1065547
-0.00013187274
-1.1828391
-0.00010908834
-1.2644901
-6.3134164e-05
-1.3519485
-0.1776658
0.082025822
-0.17574461
0.065951643
-0.17721097
-0.010438457
-0.17932485
-0.038776212
-0.17971846
-0.014778303
0.028885357
-0.18155069
-0.090976268
-0.18222898
-0.1299311
-0.18039668
-0.087077538
-0.17711122
0.038097049
-0.17978002
0.12922927
-0.19166058
0.11834576
-0.2048198
0.046665352
-0.21295909
-0.06236809
-0.20761525
-0.12005339
-0.18457739
-0.098869933
-0.18731898
-0.037868559
-0.19721864
0.017482641
-0.22012964
0.035409936
-0.24746043
0.032189321
-0.27358615
0.020472729
-0.29724964
0.0066143787
-0.31798152
-0.0037331937
-0.33679772
-0.0080628483
-0.35592663
-0.0075789267
-0.37739767
-0.0049780605
-0.40201942
-0.0022664146
-0.42975361
-0.00028297235
-0.46022693
0.00092180664
-0.49312515
0.0014796974
-0.52834923
0.0015922471
-0.56587857
0.0014655878
-0.60580694
0.0012285682
-0.64828899
0.00095567097
-0.69351184
0.00068733432
-0.74168123
0.00044533867
-0.79302149
0.00024132526
-0.84777286
8.0675215e-05
-0.90620122
-3.5517866e-05
-0.96859332
-0.00010916822
-1.0352615
-0.00014379519
-1.1065428
-0.00014438095
-1.1828038
-0.00011635963
-1.2644369
-6.6235176e-05
-1.3518822
-0.17884276
0.030062317
-0.1760864
0.082367612
-0.17649974
0.065240415
-0.1798821
-0.0098812095
-0.18243284
-0.036061835
-0.18306345
-0.012212945
-0.09217483
-0.18035213
-0.132779
-0.17938107
-0.090650136
-0.17682409
0.04028674
-0.17930091
0.14008543
-0.19063618
0.13120822
-0.20452303
0.055858079
-0.21401253
-0.063831968
-0.21149521
-0.13244337
-0.19522526
-0.1111715
-0.17227582
-0.044234644
-0.1809529
0.022719002
-0.202455
0.045526711
-0.23024642
0.041358491
-0.2566296
0.02716378
-0.2802772
0.0096283482
-0.30026361
-0.0044304525
-0.31728426
-0.010892914
-0.33396766
-0.010675245
-0.35283031
-0.0072778383
-0.37509789
-0.0035447057
-0.40074113
-0.0007614193
-0.42927517
0.00093037382
-0.4602355
0.0017666912
-0.49341214
0.001985236
-0.52874221
0.0018698125
-0.5662828
0.00160095
-0.60617932
0.0012807638
-0.64861408
0.00096089572
-0.6937854
0.0006671398
-0.74190303
0.00041287678
-0.79319304
0.00020485182
-0.84789704
4.5423393e-05
-0.90628216
-6.6288774e-05
-0.9686362
-0.00013365661
-1.0352716
-0.00016170999
-1.1065254
-0.00015604268
-1.1827642
-0.00012291469
-1.2643802
-6.8858064e-05
-1.3518134
-0.17918509
-0.091832507
-0.17705104
0.031026953
-0.17614406
0.082011929
-0.17804934
0.063407662
-0.18298049
-0.0093335586
-0.18609189
-0.033033395
-0.18679304
-0.0096870588
-0.1343575
-0.17877364
-0.093151056
-0.17688015
0.042314053
-0.1788514
0.15001751
-0.18923299
0.14351805
-0.20294602
0.065408618
-0.21407357
-0.065387082
-0.21245741
-0.14496747
-0.19897112
-0.1276015
-0.17879527
-0.050129439
-0.16638102
0.028054502
-0.1862884
0.057119081
-0.21404737
0.051992066
-0.24087999
0.035176006
-0.26464182
0.013473492
-0.28412234
-0.00513423
-0.29955983
-0.014501478
-0.31367569
-0.014768532
-0.32987437
-0.010356575
-0.34975157
-0.0052906702
-0.37335193
-0.0014380797
-0.40006447
0.00091207088
-0.42925686
0.0021016518
-0.46057046
0.0024654765
-0.49389239
0.0023616092
-0.52923401
0.0020505405
-0.56673239
0.0016711397
-0.6065697
0.0012905161
-0.6489437
0.00093857771
-0.69405684
0.00062909375
-0.74211925
0.00036905897
-0.79335725
0.00016158418
-0.8480132
6.753765e-06
-0.9063552
-9.8096511e-05
-0.96867176
-0.00015788963
-1.0352754
-0.0001786204
-1.1065029
-0.00016666848
-1.1827204
-0.00012850901
-1.2643206
-7.1000051e-05
-1.3517424
-0.17917655
-0.13436603
-0.17915642
-0.089727128
-0.1765493
0.031432199
-0.17675191
0.080714496
-0.18021458
0.060641749
-0.18650881
-0.0089166393
-0.18996228
-0.029864151
-0.19063079
-0.0073953094
-0.094339287
-0.1775854
0.044120147
-0.17868624
0.15864775
-0.18748163
0.15467859
-0.20039353
0.074703394
-0.21224079
-0.066463371
-0.21299728
-0.15679818
-0.2006267
-0.14380369
-0.18276892
-0.066600401
-0.1623243
0.033309746
-0.17163627
0.06959506
-0.19876438
0.064117599
-0.2261729
0.044459961
-0.25016395
0.018281137
-0.26944947
-0.0058486332
-0.28340794
-0.019044999
-0.29501631
-0.020064588
-0.30837964
-0.014406503
-0.32582444
-0.0076044929
-0.34743775
-0.00235111
-0.3724389
0.0008714305
-0.40002383
0.0025137338
-0.42966895
0.0030645434
-0.46116953
0.002969726
-0.4945005
0.0025981336
-0.5297816
0.0021399178
-0.56720117
0.0016839285
-0.60696311
0.0012643635
-0.64926949
0.00089355716
-0.6943213
0.00057674621
-0.74232694
0.00031659791
-0.79351227
0.00011372626
-0.84812017
-3.3618779e-05
-0.90641968
-0.00012984552
-0.9686998
-0.00018109939
-1.0352729
-0.00019423675
-1.1064753
-0.00017595514
-1.182673
-0.00013321672
-1.2642584
-7.2676527e-05
-1.3516697
-0.17957043
-0.093945409
-0.18102038
-0.13250206
-0.17975411
-0.08652232
-0.17697859
0.031658878
-0.17794666
0.078446578
-0.18283835
0.056971284
-0.19016702
-0.0087119061
-0.19373367
-0.026761272
-0.19443561
-0.0055269583
0.046069516
-0.17953477
0.16565495
-0.18569345
0.16421091
-0.19701396
0.083467301
-0.20915744
-0.067361634
-0.21134253
-0.16834929
-0.20144617
-0.159147
-0.18528339
-0.082920276
-0.16644905
0.026777548
-0.15579211
0.083088926
-0.18513013
0.077525223
-0.212172
0.055045618
-0.23675856
0.023985363