/*--------------------------------*- C++ -*----------------------------------*\
| =========                 |                                                 |
| \\      /  F ield         | OpenFOAM: The Open Source CFD Toolbox           |
|  \\    /   O peration     | Version:  5.0                                   |
|   \\  /    A nd           | Web:      www.OpenFOAM.org                      |
|    \\/     M anipulation  |                                                 |
\*---------------------------------------------------------------------------*/
FoamFile
{
    version     2.0;
    format      ascii;
    class       surfaceScalarField;
    location    "380";
    object      phi_0;
}
// * * * * * * * * * * * * * * * * * * * * * * * * * * * * * * * * * * * * * //

dimensions      [0 3 -1 0 0 0 0];

internalField   nonuniform List<scalar> 
18820
(
-0.00039756817
-1.358109
-0.00076736604
-1.270094
-0.00037969579
-1.3577293
-0.0011092445
-1.1878724
-0.00073437713
-1.2697393
-0.00036029186
-1.357369
-0.0014226486
-1.1110372
-0.0010639616
-1.1875428
-0.00069727853
-1.2694023
-0.00034776953
-1.3570213
-0.0017071377
-1.039222
-0.0013679163
-1.1107333
-0.0010113187
-1.1872288
-0.00067269641
-1.2690774
-0.00034500392
-1.3566763
-0.001962644
-0.97208
-0.001645509
-1.0389444
-0.0013029687
-1.1104416
-0.00097610469
-1.1869254
-0.00066700504
-1.2687554
-0.00034556317
-1.3563307
-0.0021887063
-0.90929587
-0.0018964417
-0.97182907
-0.0015720676
-1.0386753
-0.0012597611
-1.110158
-0.00096822374
-1.1866241
-0.00066913419
-1.2684318
-0.00033995876
-1.3559907
-0.002384057
-0.85057912
-0.0021207006
-0.90907161
-0.0018177261
-0.97158341
-0.0015246163
-1.0384105
-0.0012506593
-1.1098755
-0.00097360213
-1.1863197
-0.00066057635
-1.2681112
-0.00032464449
-1.3556661
-0.002546266
-0.79566169
-0.0023185341
-0.85038129
-0.0020395265
-0.90884981
-0.0017700959
-0.97133793
-0.0015158381
-1.0381453
-0.0012606838
-1.1095884
-0.00096506052
-1.1860152
-0.00063321933
-1.2678026
-0.00030191072
-1.3553642
-0.0026716002
-0.74429324
-0.0024907592
-0.79548946
-0.002238121
-0.8501827
-0.0019956587
-0.90862425
-0.0017642179
-0.97108955
-0.0015321355
-1.0378738
-0.0012546604
-1.1092988
-0.00092935338
-1.1857191
-0.00059022251
-1.2675143
-0.00027803408
-1.3550862
-0.0027562071
-0.69624589
-0.0026380987
-0.7441459
-0.0024167037
-0.79531088
-0.0022013516
-0.849977
-0.0019957437
-0.90839272
-0.0017897177
-0.97083197
-0.0015308303
-1.0375977
-0.0012148264
-1.1090134
-0.00086871064
-1.1854406
-0.00054384126
-1.2672485
-0.00025832783
-1.3548278
-0.0027974418
-0.65130831
-0.0027597759
-0.69612421
-0.0025825569
-0.74398005
-0.0023884536
-0.79512378
-0.0022098683
-0.84976288
-0.0020341764
-0.90814826
-0.001795952
-0.97056685
-0.0014908516
-1.0373216
-0.001140628
-1.1087415
-0.00080128466
-1.1851831
-0.00050477538
-1.267002
-0.00024445363
-1.3545834
-0.0028064186
-0.60926662
-0.0028731474
-0.65119494
-0.0027516607
-0.6959551
-0.0025604802
-0.74380802
-0.002404709
-0.79492894
-0.0022645071
-0.84953255
-0.0020516961
-0.90789252
-0.0017597006
-0.970298
-0.0014076907
-1.0370546
-0.0010543811
-1.1084884
-0.00074391638
-1.184944
-0.000476814
-1.2667697
-0.00023432256
-1.3543491
-0.0027911145
-0.56991694
-0.0030120641
-0.6091277
-0.0029450009
-0.6510016
-0.0027244575
-0.69579113
-0.0025762164
-0.74363651
-0.002476404
-0.79471704
-0.00229892
-0.84928533
-0.0020235971
-0.90762862
-0.0016708478
-0.97003484
-0.0013059362
-1.036803
-0.00097979295
-1.1082525
-0.0007024467
-1.1847184
-0.00045656092
-1.2665474
-0.00022408819
-1.354125
-0.0027571439
-0.53310778
-0.0031685417
-0.56976046
-0.0031510418
-0.60892166
-0.0028671802
-0.65085888
-0.0027108598
-0.69565648
-0.0026609645
-0.74345195
-0.0025377144
-0.79447825
-0.0022851274
-0.8490238
-0.0019313835
-0.90736809
-0.0015563638
-0.96978441
-0.0012154225
-1.0365674
-0.00092545514
-1.1080295
-0.00067214308
-1.1845028
-0.00043684344
-1.2663347
-0.0002104187
-1.3539145
-0.002707454
-0.49867855
-0.0033627314
-0.53291359
-0.0033401388
-0.56957137
-0.0029621702
-0.60882667
-0.0027858749
-0.65078387
-0.0028046112
-0.69551284
-0.0027674219
-0.74322225
-0.0025487003
-0.79421468
-0.0021914186
-0.84876376
-0.0018055975
-0.90711885
-0.0014517506
-0.96954809
-0.0011487414
-1.0363441
-0.0008853138
-1.1078163
-0.00064283901
-1.1842968
-0.00041093319
-1.2661342
-0.00019187166
-1.3537227
-0.0026527968
-0.4664804
-0.0036015513
-0.49843973
-0.0035254477
-0.53272829
-0.0030204379
-0.5695131
-0.0027879013
-0.60882465
-0.0028975013
-0.65069098
-0.002989427
-0.69529083
-0.0028222453
-0.7429487
-0.0024550479
-0.79395105
-0.0020535181
-0.84851584
-0.0016885423
-0.90688206
-0.0013742311
-0.9693226
-0.0010992026
-1.0361302
-0.0008460723
-1.1076131
-0.00060514489
-1.1841026
-0.00037541096
-1.2659506
-0.00016923448
-1.3535534
-0.0025886096
-0.43635946
-0.0039301886
-0.46615176
-0.0037392317
-0.49822595
-0.0030226505
-0.53272607
-0.0027274541
-0.56957355
-0.0029447878
-0.60877736
-0.0032113832
-0.65046902
-0.0031181506
-0.69499493
-0.0027291212
-0.74267463
-0.0022997364
-0.79370483
-0.0019243941
-0.84827999
-0.0016027979
-0.90665349
-0.0013167013
-0.9691051
-0.001050303
-1.035926
-0.00079607782
-1.1074221
-0.00055395362
-1.183924
-0.00033134453
-1.2657885
-0.00014499266
-1.3534084
-0.0025476917
-0.40819305
-0.0043515145
-0.43593814
-0.0040073411
-0.46588365
-0.0029815928
-0.498267
-0.0025643976
-0.53288913
-0.0029554809
-0.56956285
-0.0034432579
-0.60854548
-0.003457868
-0.6501293
-0.0030246796
-0.69469937
-0.0025431185
-0.74243124
-0.002155781
-0.79347344
-0.0018337856
-0.848049
-0.0015401394
-0.90643006
-0.0012592334
-0.96889617
-0.00098788108
-1.0357342
-0.00072944102
-1.1072467
-0.00048967857
-1.1837657
-0.00028355583
-1.26565
-0.0001221685
-1.3532863
-0.0024748898
-0.38182354
-0.0049481495
-0.40759641
-0.0043679412
-0.43557754
-0.0028558285
-0.46600942
-0.0022550695
-0.49857633
-0.0029262421
-0.53291837
-0.0036914968
-0.56931462
-0.0038615766
-0.60814178
-0.0033556724
-0.64979831
-0.0027832511
-0.69445924
-0.0023768094
-0.74221022
-0.0020641447
-0.79324308
-0.0017706367
-0.8478185
-0.0014765342
-0.90621276
-0.0011850669
-0.96869898
-0.00090536122
-1.0355583
-0.00064623994
-1.1070901
-0.00041808999
-1.1836312
-0.00023817686
-1.2655339
-0.00010306613
-1.3531832
-0.0024485362
-0.35711811
-0.0056605669
-0.38111113
-0.0048254387
-0.40713891
-0.0026482774
-0.43578509
-0.0017428205
-0.46652167
-0.0028035204
-0.49869905
-0.0039878616
-0.532622
-0.0043503024
-0.56882589
-0.003739485
-0.60775796
-0.0030175998
-0.64956396
-0.0025777969
-0.69425825
-0.0022878986
-0.74198646
-0.0020078431
-0.79300588
-0.0017054314
-0.84758961
-0.0013919952
-0.90600583
-0.0010865216
-0.96851782
-0.00080306031
-1.0354014
-0.00055145312
-1.1069567
-0.00034875078
-1.1835206
-0.00019978452
-1.2654372
-8.8614103e-05
-1.3530946
-0.0023509993
-0.33392358
-0.0066012787
-0.3561774
-0.005448866
-0.3804877
-0.0023019466
-0.40748525
-0.00097448379
-0.43655342
-0.0025626427
-0.46676254
-0.0043608546
-0.49832606
-0.0049555858
-0.53201672
-0.00418253
-0.56838285
-0.0032468074
-0.60752876
-0.002744149
-0.64939761
-0.0024939928
-0.69405216
-0.0022490925
-0.74174521
-0.0019490912
-0.79276222
-0.0016132637
-0.84736834
-0.0012771062
-0.90581524
-0.00096381545
-0.96835707
-0.00068544127
-1.0352674
-0.00045674112
-1.1068487
-0.00028957085
-1.1834308
-0.00017012628
-1.2653557
-7.8487545e-05
-1.3530161
-0.0023734687
-0.31207706
-0.0075722586
-0.3329526
-0.0062273813
-0.35539889
-0.0018649244
-0.38092472
0.00011756164
-0.40857729
-0.0021503929
-0.43696567
-0.0048500606
-0.46627334
-0.0057479423
-0.49753371
-0.0047085274
-0.53149072
-0.0034467156
-0.56818294
-0.0028513453
-0.60742156
-0.0026646456
-0.64922696
-0.00248736
-0.69381389
-0.0022104625
-0.74148384
-0.0018546254
-0.79252085
-0.0014817988
-0.84716364
-0.0011320045
-0.90564705
-0.00082178267
-0.96822072
-0.00056448301
-1.0351597
-0.00037457703
-1.1067637
-0.00024368522
-1.1833572
-0.00014861672
-1.2652856
-7.1666393e-05
-1.3529444
-0.0025973903
-0.29141523
-0.0089110448
-0.31073828
-0.0072200636
-0.33195991
-0.0011971917
-0.35606662
0.0015907352
-0.38239789
-0.0015423657
-0.40918532
-0.0054842195
-0.43633151
-0.0068017275
-0.46521955
-0.0053545671
-0.49688767
-0.0036034052
-0.53133403
-0.0028631019
-0.56817118
-0.0027634615
-0.60732274
-0.0027096504
-0.64900467
-0.0024925014
-0.69353185
-0.0021238322
-0.74121463
-0.0017066315
-0.79229602
-0.0013112364
-0.84698441
-0.00096268834
-0.90550615
-0.0006728535
-0.96811235
-0.00045753448
-1.0350767
-0.00031021459
-1.1066972
-0.00021005428
-1.1832958
-0.0001336015
-1.2652236
-6.6993666e-05
-1.3528775
-0.0027496971
-0.27264193
-0.01047531
-0.28985096
-0.0083778706
-0.30958047
-0.00049912679
-0.33265798
0.0035690145
-0.3580449
-0.00064561691
-0.38329464
-0.006321593
-0.40834795
-0.0082111568
-0.43492208
-0.0061681544
-0.46440597
-0.0036945098
-0.49679656
-0.002718589
-0.53147855
-0.0027682512
-0.56816639
-0.0028955003
-0.60713689
-0.0027985452
-0.64869862
-0.0024326949
-0.69322299
-0.0019601196
-0.74096115
-0.0015056175
-0.79210164
-0.0011101775
-0.84683692
-0.00078328809
-0.90539571
-0.00053928124
-0.96803061
-0.00037225117
-1.0350147
-0.00026256424
-1.1066447
-0.00018576182
-1.1832436
-0.00012333826
-1.2651673
-6.3481724e-05
-1.352814
-0.0029071172
-0.25471436
-0.012252215
-0.27086503
-0.0095981112
-0.28863072
0.00067325195
-0.31075285
0.0060310739
-0.33512004
0.00050377613
-0.35919429
-0.0073924523
-0.38222378
-0.010069101
-0.40649
-0.007209256
-0.43388098
-0.0037027491
-0.46439773
-0.002356348
-0.4971588
-0.0026392727
-0.53160753
-0.0030460631
-0.56801583
-0.0031371739
-0.60679826
-0.0027987305
-0.64833259
-0.0022554607
-0.69292764
-0.0017204137
-0.74074635
-0.0012655419
-0.79194628
-0.00089658946
-0.84672362
-0.00062105973
-0.90531393
-0.00043142113
-0.96797144
-0.00030765473
-1.0349696
-0.00022763419
-1.1066028
-0.00016812175
-1.1831989
-0.00011616149
-1.2651146
-6.0364775e-05
-1.3527536
-0.0037301582
-0.23639886
-0.013940883
-0.25302569
-0.011300834
-0.2691623
0.0020985405
-0.29005601
0.0090784407
-0.31380022
0.0020623515
-0.33667861
-0.0088243852
-0.35776236
-0.012500628
-0.37979226
-0.0085341856
-0.40516507
-0.0036055433
-0.43397819
-0.001702773
-0.4650513
-0.002297498
-0.49750058
-0.0031759404
-0.53147765
-0.0035221095
-0.56763089
-0.0032520321
-0.60634496
-0.0026123076
-0.64797574
-0.0019628054
-0.69268525
-0.001429064
-0.74058283
-0.0010120629
-0.7918308
-0.00070356176
-0.84664112
-0.00048917295
-0.90525618
-0.0003479473
-0.96793114
-0.0002593632
-1.0349379
-0.00020132877
-1.1065696
-0.00015531461
-1.1831597
-0.00011026271
-1.2650647
-5.7046387e-05
-1.3526966
-0.005058117
-0.21794551
-0.016559756
-0.23377999
-0.013237077
-0.25108945
0.0038480883
-0.27091185
0.012701355
-0.29367893
0.0038184653
-0.31555633
-0.010589213
-0.33491379
-0.015602082
-0.3546609
-0.01023337
-0.37809307
-0.0033782305
-0.40539238
-0.00066267141
-0.43501829
-0.0016541549
-0.46569464
-0.0032530542
-0.49742346
-0.0039861069
-0.53101365
-0.0038205353
-0.56706239
-0.0030614289
-0.60589584
-0.0022429482
-0.64769559
-0.0015994801
-0.69251484
-0.0011264987
-0.74046839
-0.00078575262
-0.79174861
-0.0005467584
-0.84658353
-0.00038548743
-0.90521864
-0.0002837719
-0.96790674
-0.00022240937
-1.0349168
-0.00018079323
-1.1065441
-0.00014532024
-1.1831246
-0.00010384485
-1.2650179
-5.315931e-05
-1.3526434
-0.0065212869
-0.20100301
-0.019443269
-0.215062
-0.014896346
-0.23212072
0.0055544369
-0.2527958
0.016999758
-0.27521025
0.0059120721
-0.29577253
-0.012886948
-0.31325859
-0.019513184
-0.33100268
-0.012354814
-0.35253946
-0.0029892654
-0.37848204
0.00086656742
-0.40692162
-0.00060349384
-0.43606895
-0.0032313842
-0.46571631
-0.0045701214
-0.49683945
-0.0045440119
-0.53029017
-0.0036326606
-0.56649116
-0.0025747638
-0.60556402
-0.001774534
-0.64752054
-0.0012330029
-0.69240833
-0.00086340794
-0.74039074
-0.00060404661
-0.79169132
-0.00042256458
-0.84654646
-0.00030368023
-0.90519873
-0.00023322746
-0.96789592
-0.00019241763
-1.0349052
-0.00016382286
-1.1065256
-0.00013530105
-1.1830932
-9.5914196e-05
-1.2649752
-4.8786527e-05
-1.3525946
-0.0081378455
-0.18509843
-0.022239096
-0.19820718
-0.015742031
-0.21421631
0.0086756486
-0.23524193
0.021848189
-0.25764423
0.0084996193
-0.2777978
-0.015846729
-0.29281275
-0.024266742
-0.30850504
-0.015029447
-0.32832805
-0.0023857312
-0.35314299
0.0030226484
-0.38063812
0.00097205418
-0.40849717
-0.00305906
-0.43624128
-0.0053155005
-0.46497094
-0.0055030619
-0.4958804
-0.0043600767
-0.52956276
-0.0029762317
-0.56608969
-0.0019479091
-0.60539065
-0.001319537
-0.64743401
-0.00092779981
-0.69234394
-0.00065842484
-0.74033636
-0.00046081543
-0.79165307
-0.00032254906
-0.84652759
-0.00023724559
-0.90519472
-0.00019108959
-0.96789725
-0.00016637707
-1.0349026
-0.0001480342
-1.1065129
-0.00012337843
-1.1830657
-8.697438e-05
-1.264937
-4.4431693e-05
-1.3525502
-0.011658212
-0.20015546
-0.024917283
-0.18242024
-0.016150677
-0.19779854
0.013125925
-0.21866659
0.027411387
-0.24080513
0.011972368
-0.26111698
-0.019386129
-0.2742584
-0.029927734
-0.28715176
-0.018188689
-0.3053458
-0.0015047709
-0.32920901
0.0059384233
-0.35605877
0.0032125887
-0.38287865
-0.0026798017
-0.40887643
-0.0062682397
-0.43528854
-0.006793259
-0.46368074
-0.0053179939
-0.49492248
-0.0034603426
-0.52907865
-0.0021124541
-0.56592514
-0.0013663185
-0.60534387
-0.00096351213
-0.64739829
-0.00070326986
-0.69229909
-0.00050079338
-0.74029638
-0.00034411227
-0.79163151
-0.00023886442
-0.84652597
-0.00018044627
-0.90520536
-0.00015402953
-0.96790959
-0.00014232002
-1.0349083
-0.00013116833
-1.1065051
-0.00010967331
-1.183043
-7.832421e-05
-1.2649031
-4.0630935e-05
-1.3525095
-0.014759164
-0.1967319
-0.029438546
-0.19563419
-0.01604592
-0.182525
0.018034228
-0.20270684
0.03325538
-0.22451058
0.015452302
-0.24428506
-0.022536018
-0.25796709
-0.036672134
-0.267514
-0.021858181
-0.28348227
-0.00020139114
-0.30664918
0.0097795883
-0.33305018
0.0062543549
-0.35910054
-0.002023276
-0.38353518
-0.0074816583
-0.40766301
-0.0085333822
-0.43354841
-0.0066003558
-0.46239838
-0.0040511135
-0.49433171
-0.0022559134
-0.52893519
-0.001343643
-0.56594782
-0.00094624726
-0.60536113
-0.00072620103
-0.64737536
-0.00054073807
-0.69225915
-0.00037242805
-0.74026806
-0.00024368836
-0.79162668
-0.00016540155
-0.84654101
-0.0001296726
-0.90522972
-0.00011912428
-0.96793279
-0.00011771653
-1.0349218
-0.00011250188
-1.1065023
-9.6342985e-05
-1.183025
-7.0862158e-05
-1.2648729
-3.7751056e-05
-1.3524718
-0.017416597
-0.19295794
-0.033502789
-0.19266766
-0.017655663
-0.19402445
0.023241265
-0.18773204
0.03886893
-0.20832039
0.017710267
-0.22676855
-0.026183745
-0.24063733
-0.044741877
-0.24989735
-0.026371766
-0.26300042
0.001590136
-0.28527379
0.014694505
-0.31156409
0.01026106
-0.33705688
-0.001031167
-0.36009264
-0.0090174557
-0.38199938
-0.010857512
-0.40533888
-0.0083239543
-0.43182481
-0.0047884821
-0.46166101
-0.0023522251
-0.4942354
-0.0012136244
-0.5290652
-0.00084157077
-0.56605249
-0.00070681796
-0.60538051
-0.00057595321
-0.64734015
-0.00041197126
-0.69221961
-0.0002592699
-0.74025248
-0.00015273453
-0.79163935
-9.7874612e-05
-0.84657281
-8.0778094e-05
-0.90526806
-8.3908408e-05
-0.9679666
-9.2429682e-05
-1.0349419
-9.4153253e-05
-1.1065045
-8.4902779e-05
-1.183011
-6.520624e-05
-1.2648454
-3.6020962e-05
-1.3524358
-0.019617498
-0.18909859
-0.037059876
-0.18940085
-0.018643275
-0.19168005
0.027000325
-0.19778351
0.044009253
-0.19287236
0.018881028
-0.20949115
-0.031994038
-0.22095825
-0.053811194
-0.23156802
-0.032666004
-0.24360311
0.003765383
-0.26517566
0.020827762
-0.29140705
0.015325454
-0.31662848
0.0003871689
-0.33847522
-0.010950087
-0.35816001
-0.013933647
-0.37892324
-0.010620906
-0.40304193
-0.0057223368
-0.43089096
-0.0023706511
-0.46164258
-0.00092156484
-0.49452746
-0.00059853967
-0.52930824
-0.00062259667
-0.56613672
-0.00059974404
-0.60535672
-0.00046825981
-0.64728386
-0.00029592349
-0.69218295
-0.00015208211
-0.74025313
-6.5717599e-05
-0.79167151
-3.1252784e-05
-0.84662234
-3.1787972e-05
-0.90532018
-4.9389504e-05
-0.96800964
-6.8229359e-05
-1.0349678
-7.8181479e-05
-1.1065112
-7.6085724e-05
-1.1830001
-6.1842835e-05
-1.2648196
-3.5521256e-05
-1.3524003
-0.021333329
-0.18522997
-0.040078916
-0.18607955
-0.019079601
-0.18896453
0.031549803
-0.19622952
0.047953267
-0.20172753
0.019409661
-0.19340099
-0.038934869
-0.20255032
-0.062997103
-0.21177234
-0.039520894
-0.22471313
0.0060865595
-0.24592428
0.028203387
-0.27255129
0.021566179
-0.29764778
0.0022656501
-0.31850697
-0.013359987
-0.33606531
-0.017940081
-0.35415358
-0.013656759
-0.37588739
-0.0069100458
-0.40185422
-0.002274577
-0.43098703
-0.00039415948
-0.46216999
-0.00015131868
-0.49497468
-0.00042973889
-0.52950109
-0.00060174079
-0.56613472
-0.00054817587
-0.60527681
-0.00036682309
-0.64721296
-0.00017655758
-0.69215848
-4.2997819e-05
-0.74027585
2.3763948e-05
-0.79172652
3.6384365e-05
-0.84669051
1.5369944e-05
-0.90538494
-1.7199251e-05
-0.96806067
-4.7170046e-05
-1.0349988
-6.607455e-05
-1.1065212
-7.0640257e-05
-1.1829913
-6.0713833e-05
-1.2647944
-3.6218696e-05
-1.352364
-0.022529024
-0.18157414
-0.042482988
-0.1828259
-0.019092872
-0.18606628
0.03662609
-0.19404081
0.052493786
-0.20077004
0.019866714
-0.20218458
-0.04619609
-0.18613977
-0.071614935
-0.19393249
-0.044711253
-0.20658199
0.0090329728
-0.22765954
0.037029153
-0.25475005
0.028972747
-0.27995785
0.0046345259
-0.30001665
-0.016377531
-0.31548942
-0.023091778
-0.33091362
-0.017596212
-0.35021412
-0.0084147253
-0.37438271
-0.0020248485
-0.40210395
0.00045931614
-0.43184051
0.00058656193
-0.46290787
-6.7716299e-05
-0.4953367
-0.00056587604
-0.52953696
-0.00064808395
-0.56603481
-0.00048766297
-0.60515597
-0.0002437691
-0.64714575
-4.3291662e-05
-0.69215818
7.4979081e-05
-0.74032707
0.00011567837
-0.79180582
0.00010151971
-0.84677666
5.936106e-05
-0.9054615
1.0119676e-05
-0.96811796
-3.1352239e-05
-1.0350335
-5.8667892e-05
-1.1065332
-6.8773624e-05
-1.1829832
-6.1933993e-05
-1.2647687
-3.8024586e-05
-1.352326
-0.023197648
-0.17834537
-0.044223156
-0.17983397
-0.018735944
-0.18318283
0.041942025
-0.19138222
0.057359774
-0.1989068
0.020809745
-0.20171307
-0.053228128
-0.19515254
-0.079762652
-0.17799206
-0.04875442
-0.18988932
0.013349203
-0.21089822
0.047525676
-0.23815606
0.037847886
-0.26362519
0.0074855903
-0.28280892
-0.020196767
-0.29619741
-0.029607157
-0.30897404
-0.022641322
-0.32586851
-0.010299791
-0.34832906
-0.001562045
-0.37484552
0.0017448255
-0.40338946
0.0017187821
-0.43297273
0.00053418106
-0.46350976
-0.00045747796
-0.4954451
-0.00078657671
-0.52939847
-0.00067340172
-0.56584907
-0.00037672012
-0.60502302
-8.5413281e-05
-0.64710363
0.00010965937
-0.69219286
0.00019875275
-0.74041014
0.00020469201
-0.79190899
0.00016100053
-0.8468783
9.6622779e-05
-0.905548
3.1323862e-05
-0.96818063
-2.1742935e-05
-1.0350704
-5.617715e-05
-1.1065458
-7.0885686e-05
-1.1829743
-6.5482612e-05
-1.2647412
-4.0758752e-05
-1.3522853
-0.02337043
-0.17576481
-0.045266092
-0.17730244
-0.018107302
-0.18046261
0.047215941
-0.18845674
0.062416553
-0.19643899
0.02207894
-0.200176
-0.059952559
-0.19498864
-0.0890442
-0.18587099
-0.052020207
-0.17472627
0.018798078
-0.19533819
0.05939886
-0.2227714
0.048540642
-0.24884882
0.011263555
-0.26740315
-0.024943127
-0.27806256
-0.037725973
-0.2880786
-0.028925319
-0.30269005
-0.012637533
-0.32353076
-0.00081872149
-0.34907238
0.0035857577
-0.37668645
0.0033692534
-0.40503993
0.0014665423
-0.43390509
-0.00023602065
-0.46373122
-0.00097696174
-0.49525471
-0.00095323485
-0.52911863
-0.00060640699
-0.56561938
-0.0001943523
-0.60491408
0.00011094664
-0.64710491
0.00027605895
-0.69227017
0.00032088058
-0.74052633
0.00028649382
-0.79203448
0.00021174301
-0.84699342
0.00012480118
-0.90564148
4.4155753e-05
-0.96824653
-1.8709844e-05
-1.0351079
-5.8873784e-05
-1.1065578
-7.647741e-05
-1.1829633
-7.0889276e-05
-1.2647111
-4.418236e-05
-1.3522411
-0.02297887
-0.17392414
-0.045668461
-0.17536244
-0.017207497
-0.17820224
0.052129386
-0.18537605
0.06737104
-0.19341123
0.023727137
-0.19808719
-0.066301617
-0.19382694
-0.097972972
-0.18605987
-0.059533752
-0.17835745
0.025154045
-0.18108224
0.072030045
-0.20796938
0.060235539
-0.2344663
0.016473841
-0.2540591
-0.030216284
-0.26213
-0.04752495
-0.26826358
-0.036559387
-0.28044453
-0.01544145
-0.29988613
0.00029608913
-0.32464558
0.0061160437
-0.35160267
0.0056760728
-0.37899327
0.0028371622
-0.40641055
0.00014801331
-0.43428912
-0.0012187282
-0.46348945
-0.0013786859
-0.49482926
-0.00096392887
-0.52876111
-0.00040660511
-0.56540713
5.7878823e-05
-0.60486101
0.00033556958
-0.64716442
0.00044431156
-0.6923936
0.00043406906
-0.74067391
0.00035654053
-0.79217928
0.00025053776
-0.84711915
0.00014238603
-0.90573971
4.8438081e-05
-0.96831368
-2.2047546e-05
-1.0351447
-6.6429679e-05
-1.1065678
-8.484314e-05
-1.1829493
-7.7758446e-05
-1.2646775
-4.8073893e-05
-1.352193
-0.17300784
-0.022080194
-0.045405633
-0.17418697
-0.016093002
-0.17647694
0.056476712
-0.18254957
0.071982271
-0.18998729
0.025535398
-0.19521949
-0.072135254
-0.19225355
-0.10628977
-0.18551014
-0.066766823
-0.1788268
0.026113511
-0.17931691
0.084996492
-0.19404869
0.071826307
-0.21956015
0.022638137
-0.24063059
-0.035662996
-0.24861239
-0.058978567
-0.25067638
-0.045639689
-0.25918328
-0.01867734
-0.27720864
0.0019004086
-0.30149045
0.0094916552
-0.32802119
0.0087879142
-0.35471451
0.0047676474
-0.38092375
0.00075779051
-0.40702032
-0.0015126599
-0.43399519
-0.0019986455
-0.46286949
-0.0015133084
-0.49427988
-0.00075597278
-0.52841174
-8.0865464e-05
-0.56526839
0.00036116689
-0.60488661
0.00056818015
-0.64728829
0.00060177529
-0.69256131
0.0005314666
-0.74084883
0.00041060165
-0.79233935
0.00027541694
-0.84725218
0.00014885986
-0.90584013
4.4382032e-05
-0.96838011
-3.1490193e-05
-1.0351797
-7.799227e-05
-1.1065747
-9.5417615e-05
-1.1829317
-8.5559598e-05
-1.26464
-5.2138477e-05
-1.3521409
-0.17375509
-0.04465838
-0.17322858
-0.020705881
-0.015050201
-0.17522977
0.060118837
-0.18011906
0.075965948
-0.18653324
0.027443924
-0.19189581
-0.07735824
-0.1899965
-0.11394755
-0.18459578
-0.073598003
-0.17867896
0.027410513
-0.1801238
0.094988789
-0.18930921
0.082715157
-0.20493754
0.028217263
-0.22513927
-0.041003732
-0.23528986
-0.072388831
-0.23520213
-0.056744876
-0.23957119
-0.022369632
-0.25549099
0.0041429405
-0.27945117
0.01386744
-0.30586623
0.0128599
-0.33209317
0.0073951102
-0.35734197
0.0016720062
-0.38183797
-0.0018637459
-0.40666924
-0.0028697114
-0.43312413
-0.0023349118
-0.46204789
-0.0012956567
-0.4937402
-0.00034072369
-0.52815188
0.000334235
-0.56524146
0.00068393604
-0.60500236
0.00078771813
-0.64747424
0.00073761182
-0.69276745
0.0006071914
-0.74104542
0.00044614968
-0.79251008
0.00028574982
-0.84738908
0.00014455904
-0.90594031
3.26972e-05
-0.9684443
-4.6355472e-05
-1.0352113
-9.2583114e-05
-1.1065775
-0.00010744883
-1.1829098
-9.3723624e-05
-1.2645984
-5.6183697e-05
-1.3520847
-0.17470095
-0.014104339
-0.17452054
-0.043366422
-0.17472744
-0.018848912
0.062626598
-0.17773753
0.07916268
-0.18331579
0.029255784
-0.1883451
-0.081805717
-0.18744834
-0.12063274
-0.18331131
-0.07995936
-0.17823442
0.028994333
-0.18026278
0.10562514
-0.19076015
0.094571044
-0.2011651
0.031961624
-0.2086819
-0.047533592
-0.21860941
-0.08787982
-0.21979887
-0.070320033
-0.22162697
-0.02719849
-0.23474233
0.007222026
-0.25857007
0.019408572
-0.2849923
0.018031117
-0.31103745
0.01086688
-0.33556494
0.002980447
-0.35865041
-0.0022660804
-0.38143563
-0.0040616787
-0.40547727
-0.0035223349
-0.4319367
-0.0021115679
-0.46123198
-0.00075534311
-0.49332558
0.00022451481
-0.52804216
0.00078391607
-0.56534144
0.00099176855
-0.60520641
0.00097754438
-0.64771417
0.00084367672
-0.69300394
0.00065800919
-0.74125728
0.00046254604
-0.79268688
0.00028206386
-0.84752658
0.00013039697
-0.90603801
1.4012118e-05
-0.96850466
-6.5418551e-05
-1.0352385
-0.00010929739
-1.1065757
-0.00012016963
-1.1828833
-0.00010199254
-1.2645526
-6.0052231e-05
-1.3520246
-0.17621101
0.064136657
-0.17542974
-0.013195132
-0.17653173
-0.041562133
-0.17695862
-0.016602425
0.081504542
-0.18007939
0.030834991
-0.184895
-0.085353162
-0.18479766
-0.12617181
-0.18190927
-0.085602296
-0.17766837
0.030709329
-0.17994942
0.11675326
-0.19139089
0.10701923
-0.20320834
0.040698552
-0.20990202
-0.055873292
-0.2003422
-0.10398697
-0.20250226
-0.085800745
-0.20431815
-0.033566337
-0.21525912
0.011038002
-0.23855831
0.026280297
-0.2654418
0.024444404
-0.29140559
0.015316865
-0.31548744
0.004794961
-0.33737946
-0.0027214875
-0.358195
-0.0056569134
-0.3798404
-0.0051866391
-0.40381297
-0.0033027537
-0.43074552
-0.0013861246
-0.4606012
9.9253203e-06
-0.49311099
0.00085501367
-0.52811326
0.0012132639
-0.56556293
0.0012561796
-0.60548505
0.0011254386
-0.64799593
0.00091570044
-0.69326163
0.00068337126
-0.74147811
0.0004606775
-0.79286549
0.00026566193
-0.84766185
0.00010763356
-0.90613163
-9.8406783e-06
-0.96856024
-8.7459114e-05
-1.0352603
-0.00012718394
-1.1065687
-0.00013309754
-1.1828522
-0.00010991689
-1.2645028
-6.3568583e-05
-1.3519611
-0.17765124
0.082944773
-0.175767
0.064473908
-0.17726539
-0.012461476
-0.17930997
-0.039210777
-0.1796518
-0.014166548
0.032354475
-0.18159888
-0.087853971
-0.18239419
-0.13039232
-0.18057715
-0.090319929
-0.17719163
0.032445294
-0.17940434
0.12793749
-0.19113365
0.11996808
-0.20433974
0.050258565
-0.21276836
-0.057647412
-0.2081279
-0.11906425
-0.18526491
-0.100478
-0.18782501
-0.040670091
-0.1972144
0.015456461
-0.21967758
0.034685145
-0.24696316
0.032168634
-0.27316603
0.02089454
-0.29698326
0.0072265392
-0.31791901
-0.0032003515
-0.33690059
-0.0077520551
-0.35609986
-0.0074672612
-0.37755978
-0.0049820939
-0.40213363
-0.0023119679
-0.42981967
-0.00033092951
-0.46026034
0.00088426154
-0.49314024
0.0014575118
-0.52835751
0.0015810523
-0.5658878
0.0014604862
-0.6058201
0.0012258892
-0.64830612
0.00095341139
-0.69353167
0.00068475193
-0.74170218
0.00044240126
-0.79304223
0.00023828093
-0.84779249
7.7798282e-05
-0.90621927
-3.8037009e-05
-0.96860966
-0.00011126503
-1.0352762
-0.00014544773
-1.1065563
-0.00014562461
-1.1828165
-0.00011721561
-1.2644491
-6.6692427e-05
-1.3518944
-0.17885818
0.033561407
-0.17609755
0.083275331
-0.17654488
0.0637534
-0.17996361
-0.011807842
-0.1824065
-0.036456077
-0.18297924
-0.011618244
-0.088992954
-0.1804599
-0.13327349
-0.17951302
-0.094007506
-0.17688958
0.034221721
-0.17896806
0.13867665
-0.1901435
0.13289067
-0.20405624
0.059781419
-0.21386259
-0.058423684
-0.21199208
-0.13123373
-0.19595843
-0.11301979
-0.17272312
-0.047544503
-0.1809506
0.020182426
-0.20194036
0.044674661
-0.2296671
0.041339246
-0.25613377
0.027678331
-0.27994982
0.010418481
-0.30017521
-0.0037076438
-0.31741172
-0.010458254
-0.33419439
-0.010522047
-0.35304508
-0.0072924183
-0.37524945
-0.0036193903
-0.4008262
-0.0008373835
-0.42931322
0.00087173287
-0.46024781
0.0017307889
-0.49341351
0.0019677336
-0.52874419
0.0018628609
-0.56629018
0.0015986387
-0.60619285
0.0012795943
-0.6486323
0.00095933557
-0.69380625
0.00066485242
-0.74192464
0.00041007818
-0.79321403
0.00020189928
-0.84791659
4.261335e-05
-0.90629992
-6.8776637e-05
-0.96865215
-0.00013574831
-1.0352859
-0.00016338814
-1.1065385
-0.00015732661
-1.1827764
-0.00012381413
-1.264392
-6.9342873e-05
-1.351825
-0.17922572
-0.088625412
-0.1770277
0.034491556
-0.17617338
0.08290383
-0.17812775
0.061917542
-0.18307949
-0.011134856
-0.18605826
-0.033377063
-0.18669515
-0.0091150717
-0.13486817
-0.17886521
-0.096591313
-0.17692921
0.035901608
-0.17856946
0.14850906
-0.18880047
0.14523891
-0.20249174
0.069649311
-0.21392413
-0.059310305
-0.21297597
-0.14348969
-0.19973612
-0.12936461
-0.1796136
-0.053868514
-0.16639911
0.02497306
-0.18574124
0.056120493
-0.2133862
0.051982356
-0.24031021
0.035790152
-0.26424559
0.014473613
-0.28400495
-0.0041676271
-0.29971522
-0.013901654
-0.31396832
-0.014559942
-0.3301565
-0.010387564
-0.34994993
-0.005407569
-0.37346127
-0.0015549728
-0.40010861
0.00082317201
-0.42926466
0.0020453693
-0.4605624
0.0024382089
-0.49388399
0.0023515227
-0.52923285
0.0020485992
-0.56674014
0.0016716015
-0.60658485
0.0012906414
-0.64896361
0.00093752601
-0.69407893
0.00062697352
-0.74214153
0.00036631327
-0.79337844
0.00015865078
-0.84803263
3.9453632e-06
-0.90637264
-0.00010061097
-0.96868729
-0.00016002318
-1.0352893
-0.00018035515
-1.1065155
-0.00016801476
-1.1827322
-0.00012946096
-1.2643319
-7.151248e-05
-1.3517535
-0.17921619
-0.1348777
-0.17911535
-0.086537768
-0.17650831
0.034826483
-0.17680572
0.081581806
-0.18032422
0.059162276
-0.18662279
-0.010570318
-0.18992341
-0.030148807
-0.19052395
-0.0068514794
-0.09785378
-0.17760274
0.037444473
-0.17847208
0.15706222
-0.18712263
0.15641942
-0.19998098
0.079271688
-0.21211412
-0.059758541
-0.21347589
-0.15509697
-0.20136869
-0.14549915
-0.18360159
-0.070563515
-0.1629186
0.029633625
-0.17105967
0.068420004
-0.19804075
0.064125555
-0.22552939
0.045185247
-0.2497053
0.019526226
-0.2692982
-0.0045753353
-0.28359724
-0.018226114
-0.29539076
-0.01978549
-0.30874277
-0.014463391
-0.32608067
-0.0077807907
-0.34757671
-0.0025259242
-0.37249032
0.00073971905
-0.40002516
0.0024290407
-0.42964833
0.0030226904
-0.46114688
0.0029547566
-0.49448722
0.0025964417
-0.52978069
0.0021427152
-0.56721125
0.0016866633
-0.60698087
0.0012653886
-0.64929147
0.00089275807
-0.69434471
0.00057463711
-0.74234985
0.00031380052
-0.79353359
0.00011072636
-0.84813941
-3.6501794e-05
-0.90643675
-0.00013243361
-0.96871488
-0.00018330911
-1.0352863
-0.00019604821
-1.1064875
-0.00017737565
-1.1826843
-0.0001342219
-1.2642692
-7.321682e-05
-1.3516803
-0.17956419
-0.097505785
-0.18099324
-0.13299981
-0.17964495
-0.083401121
-0.17690595
0.034926707
-0.17801795
0.079275531
-0.1829773
0.055516777
-0.19029035
-0.010203374
-0.19369057
-0.026982179
-0.19432502
-0.0050153688
0.039221364
-0.17937963
0.16401296
-0.18542282
0.16595826
-0.19666147
0.088332148
-0.20904144
-0.06008019
-0.21179247
-0.16639671
-0.20217615
-0.16076028
-0.18610756
-0.087060422
-0.16710468
0.022347695
-0.15563267
0.081705693
-0.18434536
0.077544812
-0.21146
0.055890974
-0.23623512
0.025516203
-0.25569528