/*--------------------------------*- C++ -*----------------------------------*\
| =========                 |                                                 |
| \\      /  F ield         | OpenFOAM: The Open Source CFD Toolbox           |
|  \\    /   O peration     | Version:  5.0                                   |
|   \\  /    A nd           | Web:      www.OpenFOAM.org                      |
|    \\/     M anipulation  |                                                 |
\*---------------------------------------------------------------------------*/
FoamFile
{
    version     2.0;
    format      ascii;
    class       volScalarField;
    location    "380";
    object      pMean;
}
// * * * * * * * * * * * * * * * * * * * * * * * * * * * * * * * * * * * * * //

dimensions      [0 2 -2 0 0 0 0];

internalField   nonuniform List<scalar> 
9520
(
0.00011319779
0.0001129407
0.00027534775
0.000112297
0.00027511947
0.00045016927
0.00011104358
0.0002743178
0.00045009668
0.00061162974
0.00010898961
0.00027243982
0.00044941154
0.00061231173
0.00077237471
0.00010591266
0.00026898377
0.00044726667
0.00061280368
0.00077424458
0.0009245665
0.00010166681
0.00026340734
0.00044280665
0.00061191486
0.00077677714
0.00092819299
0.0010709064
9.6072957e-05
0.00025528872
0.00043514612
0.00060843071
0.00077839044
0.00093386267
0.0010767783
0.0012084799
8.9095226e-05
0.00024427136
0.00042356625
0.00060111067
0.00077748456
0.00093960163
0.0010865236
0.0012170208
0.0013373775
8.0756566e-05
0.00023022249
0.00040740594
0.00058890812
0.00077244359
0.00094345059
0.0010977856
0.0012317081
0.0013489838
0.0014561326
7.1668079e-05
0.00021282327
0.00038634237
0.00057092587
0.00076188461
0.00094343876
0.0011082659
0.0012498532
0.0013693828
0.0014710133
0.0015643358
6.0806743e-05
0.0001918598
0.00036012954
0.00054655187
0.00074462801
0.0009378348
0.0011156676
0.0012688672
0.0013955633
0.0014975752
0.0015826198
0.0016613484
4.7638783e-05
0.00016603388
0.00032894773
0.00051502925
0.00071983409
0.00092507315
0.0011179311
0.0012861543
0.0014246825
0.0015325749
0.0016156628
0.0016829764
0.0017468517
3.0116063e-05
0.00013743685
0.0002919764
0.00047603272
0.0006867429
0.00090384118
0.0011131919
0.0012993037
0.0014538773
0.00157301
0.0016600615
0.0017224524
0.0017716515
0.0018206962
1.3525074e-05
0.0001049371
0.00024953042
0.00042960549
0.00064493428
0.00087301111
0.0010999189
0.0013060738
0.0014805156
0.0016158415
0.0017127275
0.0017763074
0.0018173092
0.0018483306
0.0018829459
-6.8205755e-06
7.2428415e-05
0.00020017618
0.00037744598
0.00059372
0.00083263313
0.001076864
0.0013045982
0.0015021265
0.0016582244
0.0017705193
0.001841485
0.001880414
0.0018996048
0.0019129471
0.0019339396
-2.3270475e-05
3.396106e-05
0.00014841996
0.0003176633
0.0005347742
0.00078218375
0.0010431215
0.0012934762
0.0015165657
0.0016974272
0.0018304403
0.0019148621
0.0019580632
0.0019712877
0.0019690334
0.0019657147
0.0019741475
-4.738007e-05
-1.3127935e-06
8.9858705e-05
0.00025321508
0.00046663785
0.000722572
0.00099817273
0.0012717188
0.0015219103
0.0017310147
0.0018895593
0.001993418
0.0020472739
0.0020607644
0.0020483046
0.00202556
0.0020070197
0.0020043174
-6.4190699e-05
-4.5252563e-05
3.2266107e-05
0.00017976595
0.00039242432
0.00065195492
0.00094281523
0.0012382317
0.0015167874
0.0017568108
0.0019451561
0.0020741174
0.0021450696
0.0021653278
0.0021485726
0.0021110476
0.0020693859
0.0020375188
0.002025288
-9.0410416e-05
-7.7070084e-05
-3.369475e-05
0.00010567615
0.00030828329
0.00057327342
0.00087500527
0.0011934422
0.0015000008
0.0017730421
0.0019947274
0.0021540289
0.0022483577
0.0022822014
0.0022675464
0.0022205623
0.0021594342
0.0021009913
0.0020579739
0.0020381011
-0.00010845612
-0.00012712257
-9.207653e-05
2.3022129e-05
0.00022174259
0.00048337513
0.00079720541
0.00113535
0.001471666
0.00177821
0.0020362346
0.0022303469
0.0023540503
0.0024083778
0.0024027742
0.0023523753
0.0022762652
0.0021936744
0.0021210228
0.0020693852
0.0020437842
-0.00013429305
-0.00015884693
-0.00016687202
-5.5892164e-05
0.00012388226
0.00038871155
0.00070694685
0.0010655489
0.0014298212
0.0017720179
0.0020678761
0.002300674
0.0024591537
0.0025407204
0.002551431
0.0025045147
0.002418864
0.0023155112
0.0022142209
0.0021303838
0.0020727766
0.0020435022
-0.00015454354
-0.00021122494
-0.00022165298
-0.0001474808
2.7766554e-05
0.00028043264
0.00060989683
0.00098179426
0.0013752952
0.0017525649
0.0020888435
0.0023628329
0.0025609229
0.0026760179
0.0027104134
0.0026744956
0.002585887
0.0024663345
0.002338462
0.0022218077
0.0021300625
0.0020693386
0.0020383833
-0.00016954959
-0.00024768719
-0.00030428579
-0.00022725135
-8.1123106e-05
0.00017171183
0.00049692506
0.00088994932
0.0013057498
0.0017205371
0.0020970271
0.002415518
0.002656797
0.0028111669
0.0028764014
0.0028593772
0.0027753288
0.002645581
0.0024945547
0.0023456018
0.0022173407
0.0021212453
0.0020602181
0.0020296325
-0.00019291132
-0.00030633463
-0.00035778331
-0.00033120532
-0.00018273064
4.7690144e-05
0.0003811917
0.00078041855
0.0012272003
0.0016729132
0.0020933912
0.0024564721
0.0027449634
0.0029432688
0.0030460258
0.0030557994
0.0029845416
0.0028519005
0.0026828686
0.0025036602
0.0023376768
0.0022019714
0.0021051207
0.0020466651
0.0020183655
-0.00021491745
-0.00034402544
-0.00045382427
-0.00041078019
-0.00030768943
-7.3144609e-05
0.00024706099
0.00066580904
0.0011298921
0.0016155375
0.0020741665
0.0024861453
0.0028229991
0.0030699764
0.0032160185
0.0032601823
0.0032102581
0.0030831081
0.002902868
0.002697414
0.0024941425
0.0023157444
0.0021769312
0.0020830302
0.0020298767
0.0020056537
-0.00023055184
-0.00041054004
-0.00052017734
-0.00053439068
-0.00041559544
-0.00021982442
0.00011183472
0.00052978986
0.0010254443
0.0015389794
0.0020447429
0.0025005467
0.0028903855
0.0031884848
0.0033834616
0.0034688965
0.0034487951
0.0033361702
0.0031529921
0.0029273103
0.0026893532
0.0024668656
0.0022810313
0.002143636
0.0020562804
0.0020110317
0.001992459
-0.00025395529
-0.00045516599
-0.00061348716
-0.00063400792
-0.00056180675
-0.00035734743
-5.3317201e-05
0.00038847602
0.00089696697
0.0014536137
0.0019959338
0.0025045078
0.0029430203
0.0032974084
0.0035451906
0.0036784865
0.003696204
0.0036074115
0.0034306199
0.003192596
0.0029248777
0.0026592226
0.0024229587
0.0022349829
0.0021034853
0.0020262013
0.0019911473
0.0019796809
-0.00027310637
-0.00049433583
-0.0007036378
-0.00076894535
-0.00069939163
-0.00053152283
-0.00021815796
0.00021326831
0.00076031356
0.0013415085
0.0019377964
0.0024883273
0.0029850322
0.0033924881
0.0036988716
0.0038854382
0.0039485236
0.0038926263
0.0037322426
0.0034912544
0.0032009547
0.0028956479
0.0026079419
0.0023638318
0.0021790598
0.0020579501
0.0019939279
0.0019711828
0.0019681257
-0.0002922394
-0.00054406825
-0.00078797162
-0.00091658019
-0.00088346966
-0.0007140884
-0.00042604037
2.8543707e-05
0.00058662956
0.0012183321
0.001849931
0.0024628739
0.0030062906
0.0034770016
0.0038399627
0.0040865464
0.0042019017
0.0041874441
0.0040535357
0.0038201024
0.0035163718
0.0031775646
0.0028402028
0.002536784
0.0022910223
0.0021148907
0.0020084072
0.0019605947
0.0019520602
0.0019585084
-0.00030726136
-0.00058840813
-0.00088157132
-0.0010630733
-0.0010903275
-0.00095194514
-0.00065214209
-0.00020952465
0.00039349361
0.0010544775
0.0017472121
0.0024064896
0.0030170866
0.0035404336
0.003970881
0.0042767268
0.0044523509
0.004487632
0.0043898204
0.0041748782
0.0038684914
0.0035047832
0.0031225179
0.0027595559
0.0024473227
0.0022063298
0.0020442387
0.0019563858
0.0019273272
0.0019346237
0.0019514438
-0.00031859063
-0.00064622993
-0.00096904527
-0.0012148244
-0.0013138492
-0.0012324211
-0.00095097081
-0.00047577582
0.00013760552
0.00086212382
0.0015989005
0.0023313195
0.0029954567
0.0035924907
0.0040808767
0.0044575552
0.00469402
0.0047885412
0.0047363662
0.0045507162
0.0042532897
0.0038754284
0.0034559241
0.0030363878
0.0026551662
0.0023414521
0.0021117683
0.001969012
0.0019033007
0.0018952055
0.0019196079
0.0019474311
-0.0003321628
-0.0006971761
-0.0010801987
-0.0013596487
-0.0015382156
-0.0015491249
-0.0013134632
-0.00083960116
-0.00015603277
0.00059895917
0.0014132853
0.0022048034
0.0029535214
0.0036096144
0.0041786967
0.0046180711
0.0049276691
0.0050834673
0.0050879969
0.0049424237
0.0046658861
0.0042859402
0.0038395486
0.0033697672
0.002920292
0.0025288294
0.0022213049
0.0020094947
0.0018908408
0.0018503893
0.0018651416
0.0019076029
0.0019468386
-0.00033962294
-0.00076931146
-0.0011863902
-0.0015374392
-0.0017616806
-0.0018688411
-0.0017397729
-0.0012858722
-0.00058387418
0.00027844308
0.0011442859
0.0020313533
0.0028543105
0.0036048085
0.0042398531
0.0047658798
0.0051420446
0.0053721711
0.005437272
0.0053442825
0.0051007725
0.004731627
0.0042706143
0.003760015
0.0032468619
0.0027758546
0.002382773
0.0020892584
0.0019014473
0.0018112176
0.0017987484
0.0018379363
0.0018990583
0.0019499289
-0.00034709821
-0.00084482179
-0.0013178567
-0.001714565
-0.0020319401
-0.0021953127
-0.0021840382
-0.0018474327
-0.0011157124
-0.00019478337
0.00079518216
0.0017612894
0.0027002758
0.0035375019
0.0042775421
0.0048758501
0.00534361
0.0056430222
0.0057826148
0.0057482136
0.0055516444
0.0052068035
0.0047448218
0.0042055484
0.0036367745
0.0030884628
0.0026051229
0.0022193655
0.0019476035
0.0017896365
0.0017315947
0.001749375
0.0018142868
0.0018943061
0.0019568924
-0.000353649
-0.00092112073
-0.0014579403
-0.0019216873
-0.0023040516
-0.0025934083
-0.0026331574
-0.0024423965
-0.0018166439
-0.00080162718
0.0002838595
0.0013879873
0.0024375386
0.0034092762
0.0042475132
0.0049613179
0.0055065779
0.0059013898
0.006111786
0.0061511086
0.0060097348
0.0057047304
0.0052563885
0.0047026979
0.0040897815
0.0034703843
0.0028963659
0.0024107672
0.0020414447
0.0017987786
0.001675931
0.001653358
0.0017032954
0.0017946152
0.0018936293
0.0019678382
-0.00035604785
-0.00099708696
-0.0015967806
-0.0021480154
-0.0026112476
-0.0029950027
-0.003195071
-0.0030337998
-0.00257578
-0.0016480116
-0.00040374695
0.0008429459
0.002050877
0.0031606188
0.0041512408
0.004974647
0.0056442429
0.0061206933
0.0064295058
0.0065403879
0.0064707101
0.0062159144
0.005798557
0.0052458741
0.0046032959
0.003923051
0.0032622102
0.0026731192
0.0021956657
0.0018519043
0.001645171
0.0015621484
0.0015778165
0.0016615015
0.0017792553
0.0018971877
0.0019828059
-0.00035611118
-0.0010618167
-0.0017337112
-0.0023710077
-0.0029508033
-0.0034359224
-0.0037623676
-0.0037934244
-0.0033320832
-0.0025955806
-0.0013986565
6.3799921e-05
0.0014692315
0.0027692185
0.0039229832
0.0049180021
0.0057062415
0.0063138535
0.0067081136
0.0069193374
0.0069212333
0.0067349184
0.0063613112
0.0058286663
0.0051721651
0.0044452131
0.0037059189
0.0030142533
0.0024215407
0.0019629167
0.0016535267
0.0014891465
0.0014499842
0.0015062993
0.0016244547
0.0017685606
0.0019050945
0.0020017666
-0.00035328689
-0.0011139197
-0.001851558
-0.0025899937
-0.003285253
-0.0039275488
-0.00437445
-0.0045681361
-0.0043233007
-0.0035519955
-0.0025399245
-0.0010761336
0.00061657302
0.0021526178
0.0035333964
0.0047183163
0.0056955412
0.0064279654
0.0069598626
0.0072597034
0.0073629874
0.0072476132
0.0069377341
0.0064404771
0.0057908292
0.0050327914
0.0042279717
0.0034396135
0.0027291131
0.0021448799
0.0017158085
0.0014491857
0.0013329351
0.0013411734
0.0014398614
0.0015925656
0.0017627675
0.0019173441
0.0020246336
-0.00034681073
-0.0011490816
-0.0019461359
-0.0027818123
-0.0036111758
-0.0044125213
-0.0050625404
-0.005393152
-0.0053518448
-0.0047972465
-0.0037154482
-0.0024143672
-0.00065959192
0.0012449152
0.0028894905
0.0043419731
0.0055328767
0.0064666813
0.0071292372
0.0075727151
0.0077671585
0.0077537139
0.0075131975
0.0070731386
0.0064482164
0.0056811776
0.0048261477
0.0039518637
0.0031262313
0.0024099676
0.0018467428
0.0014577701
0.0012417269
0.0011788078
0.0012372182
0.0013792315
0.0015662484
0.0017619634
0.0019338987
0.0020512665
-0.0011611504
-0.00034552127
-0.0020120787
-0.0029396947
-0.0038995097
-0.0048813493
-0.005742985
-0.0063262635
-0.0064352953
-0.0061178214
-0.0052374845
-0.003828073
-0.002213062
-0.00015051892
0.0019383403
0.0036850271
0.0051832987
0.0063454377
0.0072210476
0.0078006486
0.0081436618
0.0082236826
0.008085383
0.0077117111
0.007135049
0.0063793821
0.0054962666
0.0045508946
0.003618063
0.0027685467
0.0020605371
0.0015310245
0.0011922954
0.0010340599
0.0010287779
0.0011393844
0.0013249513
0.001545775
0.0017661878
0.0019546353
0.0020814871
-0.0020400633
-0.0011579446
-0.00034956447
-0.0030547565
-0.0041405731
-0.0052995576
-0.0063978667
-0.0072536394
-0.0076639798
-0.0075065303
-0.006878037
-0.0056519563
-0.0038920515
-0.0019284896
0.0004382265
0.0027033835
0.0045316337
0.0060302291
0.0071446048
0.0079496647
0.0084328778
0.0086660946
0.0086237337
0.0083515265
0.0078362395
0.007117145
0.0062290282
0.0052334612
0.0042068633
0.0032285456
0.0023700918
0.0016850157
0.0012018254
0.00092299322
0.00082887572
0.00088470345
0.0010486435
0.001277494
0.0015313038
0.0017753814
0.0019794081
0.0021150936
-0.003109461
-0.0020391149
-0.0011395575
-0.00035085665
-0.004318951
-0.0056498474
-0.0069872861
-0.008145431
-0.0088956469
-0.0090821814
-0.008612932
-0.0076410896
-0.0060457127
-0.0038817913
-0.0015464437
0.0011293824
0.0035276811
0.0053920256
0.0068679656
0.0079228394
0.0086422571
0.009019198
0.0091353
0.0089614355
0.008544994
0.007879602
0.0070131116
0.0059926255
0.0048909757
0.00379483
0.0027862356
0.0019350792
0.0012879979
0.00086345872
0.00065335091
0.00062871593
0.00074809864
0.00096579511
0.0012372207
0.0015229126
0.0017894505
0.0020080139
0.0021518575
-0.00440629
-0.0031126932
-0.0020090404
-0.0010979654
-0.00034970239
-0.0059058674
-0.0074820662
-0.0089569208
-0.010086201
-0.010676638
-0.010582468
-0.0097572383
-0.008413282
-0.0063750337
-0.0037701577
-0.0010284712
0.0019241571
0.0043705772
0.0062489262
0.0076911101
0.0086687931
0.0092914198
0.0095558975
0.0095464559
0.0092296368
0.0086577143
0.0078341098
0.0068167233
0.0056664833
0.0044683547
0.0033168192
0.002294972
0.0014683803
0.00087441317
0.0005202876
0.00038672329
0.00043577456
0.00062026006
0.00089145445
0.0012044029
0.0015205859
0.0018082065
0.0020402156
0.0021915298
-0.0060336973
-0.0044132737
-0.0030644872
-0.00194089
-0.0010400375
-0.00034629157
-0.0078439233
-0.0096426902
-0.011179443
-0.012229443
-0.012595104
-0.012167209
-0.010949796
-0.0091436146
-0.0066043523
-0.0035124168
-0.00037147373
0.0027484912
0.0052176912
0.0071023196
0.0084867917
0.0093746102
0.0098956079
0.01004042
0.0098929911
0.0094197826
0.0086809981
0.0076918308
0.0065223084
0.0052480262
0.0039660906
0.0027758451
0.0017595627
0.00097539885
0.0004494798
0.00017659554
0.00012616569
0.00025202815
0.00050220608
0.00082615739
0.0011791643
0.0015241666
0.0018313775
0.0020757368
0.0022338634
-0.0080267708
-0.0060365496
-0.0043389276
-0.0029549189
-0.001844596
-0.00097122661
-0.00033883539
-0.01014583
-0.012108883
-0.013663358
-0.014569184
-0.014646068
-0.013845923
-0.012131095
-0.009783401
-0.006691214
-0.0031093417
0.00034528321
0.0035791228
0.0060777429
0.0079380556
0.0092464866
0.010040771
0.010454609
0.010466951
0.010166245
0.0095222254
0.0086051302
0.0074447106
0.0061246166
0.0047356499
0.0033856748
0.0021761929
0.0011856418
0.00046203574
1.8489331e-05
-0.0001635493
-0.00012553179
7.9121172e-05
0.00039489602
0.00077023816
0.0011614005
0.0015333393
0.0018586789
0.0021143608
0.0022786308
-0.01039939
-0.0080234515
-0.0059137757
-0.0041724315
-0.0028010245
-0.0017258313
-0.00089252078
-0.00033018923
-0.012799414
-0.014891272
-0.016398441
-0.017091983
-0.016843071
-0.015557151
-0.013241112
-0.010287632
-0.0066236417
-0.00260857
0.0011037847
0.0044290704
0.0069347732
0.0087434176
0.0099726535
0.010670158
0.010964457
0.01082678
0.010355667
0.009525936
0.0084202583
0.0070851487
0.0056194052
0.004128905
0.0027300563
0.0015231676
0.00057958354
-6.5434737e-05
-0.00041336165
-0.00049634565
-0.00036593183
-8.1432287e-05
0.00029899691
0.0007237227
0.0011507747
0.0015478582
0.0018900036
0.0021559459
0.0023255755
-0.013156041
-0.010387498
-0.0078327157
-0.0056619549
-0.0039409019
-0.0026124458
-0.0015886395
-0.00081483839
-0.00032142921
-0.01581773
-0.017975007
-0.019365948
-0.019812631
-0.019117805
-0.017226319
-0.014233327
-0.010642909
-0.0064393136
-0.0020233172
0.0019289749
0.0052871126
0.0077700591
0.0095211517
0.010672097
0.011260562
0.011416172
0.011109235
0.010449062
0.0094190629
0.0081160584
0.006606209
0.0050037722
0.0034289089
0.0020036832
0.00082324968
-5.1599265e-05
-0.0006006169
-0.00084108014
-0.00081833239
-0.00059275404
-0.00022845665
0.00021472392
0.00068626886
0.0011471249
0.0015678465
0.001925383
0.002200209
0.0023743056
-0.016305897
-0.013148144
-0.010111905
-0.0074622252
-0.0053150501
-0.0036599628
-0.0023958273
-0.0014495855
-0.00073924906
-0.00030647298
-0.019176019
-0.021336205
-0.022579928
-0.02265831
-0.02138707
-0.018803548
-0.015080424
-0.010870975
-0.0061486751
-0.001322549
0.0027908636
0.0061300459
0.0085904942
0.010285
0.011346366
0.011803034
0.011798566
0.011301456
0.010432786
0.0091889478
0.0076825969
0.0060018474
0.0042764813
0.0026390061
0.0012126482
8.3957412e-05
-0.00070040765
-0.0011371947
-0.0012599612
-0.0011262324
-0.00080408176
-0.00036135976
0.0001418043
0.00065784606
0.0011509373
0.0015935622
0.0019643146
0.0022463421
0.0024244349
-0.019815179
-0.016308262
-0.012775838
-0.0095884096
-0.0069603031
-0.0048992918
-0.0033394545
-0.0021741939
-0.0013091617
-0.00066786724
-0.00029418712
-0.022843644
-0.02498139
-0.025963709
-0.025538169
-0.023597459
-0.020254248
-0.015797366
-0.010980998
-0.0057301831
-0.00055256369
0.0036513677
0.0069696104
0.0094165903
0.011039279
0.011986849
0.012286314
0.01209855
0.011388572
0.010291747
0.0088224614
0.0071105211
0.0052675645
0.0034384515
0.001764369
0.000364549
-0.00068635845
-0.0013591107
-0.0016690191
-0.0016654612
-0.0014171338
-0.0009987436
-0.00048031384
8.0399244e-05
0.0006394284
0.0011627468
0.0016239939
0.0020050914
0.0022935726
0.0024761411
-0.023649888
-0.019827586
-0.015823903
-0.012071029
-0.008886511
-0.0063656531
-0.0044328175
-0.0030079922
-0.0019482002
-0.0011776561
-0.0006182278
-0.00027921634
-0.026821029
-0.028839357
-0.029421911
-0.028397898
-0.025711839
-0.021581246
-0.016382806
-0.010949372
-0.0051857212
0.00024866997
0.0045146219
0.0078372808
0.010257505
0.011774713
0.012580631
0.012696847
0.012300893
0.011353822
0.010010323
0.0083066088
0.0063917991
0.004401062
0.0024926233
0.00081156265
-0.000531865
-0.0014787579
-0.0020199763
-0.0021900126
-0.0020533702
-0.0016890462
-0.0011765881
-0.00058489115
3.2114495e-05
0.00063196433
0.0011807828
0.0016560516
0.0020465138
0.0023431141
0.0025325824
-0.027802982
-0.023668566
-0.019211224
-0.014900795
-0.011130554
-0.0080635765
-0.0057079015
-0.0039491622
-0.0026689891
-0.0017404677
-0.0010706249
-0.00056195079
-0.00026045508
-0.031039756
-0.032809449
-0.032902329
-0.03120086
-0.027730679
-0.022774413
-0.016810908
-0.010782389
-0.004546174
0.0010953554
0.0054168662
0.0087463559
0.011100726
0.01247715
0.013114654
0.013019567
0.012387057
0.011178665
0.0095722462
0.0076291953
0.0055199918
0.0034022262
0.0014437766
-0.00021099678
-0.0014666938
-0.0022838969
-0.0026751714
-0.0026943381
-0.0024205575
-0.0019412973
-0.0013368603
-0.00067265182
-1.4829364e-06
0.00063271331
0.001200054
0.0016882563
0.0020921952
0.0024000392
0.0025940003
-0.032211278
-0.027812344
-0.02289592
-0.01803019
-0.013676348
-0.01003004
-0.0071656677
-0.0050260437
-0.0034577729
-0.0023610508
-0.0015621911
-0.00095812884
-0.00051875351
-0.00024224393
-0.035400887
-0.036838014
-0.036371051
-0.033949116
-0.029635227
-0.023806514
-0.017086388
-0.01047293
-0.0038174684
0.0020150884
0.0063850661
0.0096859964
0.011922856
0.013132834
0.013573338
0.013234963
0.012335875
0.01084309
0.0089607562
0.0067793054
0.0044909994
0.0022734733
0.00029962383
-0.0012930827
-0.0024291959
-0.0030919961
-0.0033169027
-0.0031773505
-0.0027655561
-0.0021725853
-0.0014760246
-0.00074111912
-2.4268264e-05
0.00063417232
0.0012189204
0.0017280724
0.0021508017
0.0024615844
0.0026589489
-0.036779397
-0.032207999
-0.026848772
-0.021415905
-0.01646985
-0.012245208
-0.0088366097
-0.0062363952
-0.0043381146
-0.0030167547
-0.0020864029
-0.0013820524
-0.00086926028
-0.00047075328
-0.00022020254
-0.039847232
-0.040896764
-0.039832134
-0.036618564
-0.031391183
-0.02467268
-0.017228311
-0.010021154
-0.0029940242
0.0030435107
0.0074155193
0.010631229
0.012714889
0.013728672
0.013938098
0.013320459
0.012124034
0.010326235
0.0081601167
0.0057480287
0.0033036376
0.0010203409
-0.00092943163
-0.0024227572
-0.0034076888
-0.0038930059
-0.0039386002
-0.0036364526
-0.0030862918
-0.0023779933
-0.0015903826
-0.0007954228
-4.6987644e-05
0.0006345055
0.001250342
0.0017893343
0.0022136114
0.0025271253
0.0027274473
-0.041445825
-0.03676515
-0.031029895
-0.02502298
-0.019466687
-0.014652467
-0.010696335
-0.0076054706
-0.0053053141
-0.0037266148
-0.0026137016
-0.0018120359
-0.0012348094
-0.00077467166
-0.00043398719
-0.00020571602
-0.044359677
-0.044989701
-0.043255916
-0.039168051
-0.032994462
-0.025393749
-0.017219155
-0.0094147406
-0.0019908448
0.0041744995
0.0084718984
0.011567454
0.013463729
0.014244772
0.014184146
0.013251099
0.01172667
0.0096078225
0.0071561664
0.0045294253
0.0019601399
-0.00034867704
-0.0022312426
-0.0035866599
-0.0043897269
-0.0046780577
-0.0045361416
-0.0040684982
-0.0033760481
-0.0025520661
-0.0016864311
-0.00085044484
-7.1812116e-05
0.00065417866
0.0013150715
0.0018544075
0.0022810317
0.0025965625
0.0027995085
-0.04620542
-0.041420707
-0.035358959
-0.028821071
-0.022629057
-0.017206339
-0.012687481
-0.0091064357
-0.0063801788
-0.0044836862
-0.0031599285
-0.0022146319
-0.0015852172
-0.001080413
-0.00069032047
-0.00039118112
-0.00018419257
-0.048937056
-0.049081099
-0.046597845
-0.041591493
-0.034458485
-0.025960385
-0.01704094
-0.0086091437
-0.00080099034
0.0053383448
0.0095423882
0.012480869
0.014151356
0.014654538
0.014284346
0.012998382
0.011118394
0.008667751
0.0059370026
0.0031209639
0.00046592724
-0.0018224137
-0.003591563
-0.0047699728
-0.0053638198
-0.0054410948
-0.0051049431
-0.0044644374
-0.003627016
-0.002702734
-0.001784203
-0.00090888618
-6.8390714e-05
0.00072300379
0.0013833354
0.0019249318
0.0023526055
0.0026699127
0.0028751433
-0.051049937
-0.046187728
-0.039778257
-0.032739986
-0.025934339
-0.019866072
-0.014768757
-0.010682564
-0.0075351793
-0.0053009941
-0.0037144129
-0.0026008811
-0.0018891736
-0.001356218
-0.00093174148
-0.00060145938
-0.00032848065
-0.00016175485
-0.053535297
-0.05312117
-0.049848391
-0.043906731
-0.035774798
-0.026349064
-0.016637006
-0.0075587499
0.00048262548
0.0065260592
0.010627078
0.013355719
0.014752936
0.01493024
0.014208301
0.012531786
0.010273396
0.0074871769
0.0044940394
0.001523623
-0.0011696327
-0.0033853177
-0.0049935671
-0.0059585608
-0.0063215588
-0.0061756677
-0.0056330427
-0.0048133475
-0.0038485603
-0.0028564444
-0.0018871221
-0.00092774146
4.8633698e-06
0.0007953961
0.0014581162
0.0019998758
0.0024284346
0.0027471503
0.0029543383
-0.055930415
-0.051048605
-0.044309911
-0.036730737
-0.029325786
-0.022619066
-0.016897842
-0.0122946
-0.0087164837
-0.0061495939
-0.0042781428
-0.0029617431
-0.0021557173
-0.0015689492
-0.0011275054
-0.00078187984
-0.0005095593
-0.00029283403
-0.00014784558
-0.058098267
-0.05709534
-0.053030441
-0.046103889
-0.036915253
-0.026489477
-0.015977366
-0.006293105
0.0018049773
0.0077442213
0.011713598
0.014161891
0.015240294
0.01503912
0.013920601
0.011820208
0.0091658822
0.0060502922
0.0028231886
-0.0002563072
-0.0029322407
-0.0050186382
-0.0064203493
-0.00714143
-0.0072541945
-0.006866183
-0.0061053308
-0.0051258654
-0.0040749648
-0.0030176615
-0.0019361184
-0.00085011381
8.2257687e-05
0.00087561784
0.0015375816
0.0020794879
0.0025084296
0.0028282515
0.0030370683
-0.0607772
-0.055948693
-0.048935064
-0.040821844
-0.032762195
-0.02542182
-0.019071773
-0.013901021
-0.0098842402
-0.0069818723
-0.0048301926
-0.0032915626
-0.0023768518
-0.0017152099
-0.0012503925
-0.00091399745
-0.00064386135
-0.00044370422
-0.00023745172
-0.00012814087
-0.06260565
-0.061038411
-0.056139131
-0.04814485
-0.037803193
-0.026357697
-0.015050492
-0.0049283274
0.0031811474
0.009000627
0.012755389
0.014870329
0.015581372
0.014943039
0.01338277
0.010831356
0.007772351
0.0043450759
0.00092487311
-0.0022071173
-0.0048031322
-0.0067037989
-0.0078584801
-0.0083069221
-0.0081416233
-0.0074921387
-0.0065335105
-0.0054458357
-0.0043120314
-0.0031071283
-0.0018547628
-0.00076694248
0.00016907929
0.00096081851
0.001622187
0.002163582
0.0025925775
0.0029131137
0.0031232976
-0.065571636
-0.060810707
-0.053586384
-0.044986753
-0.036272227
-0.028234723
-0.02125809
-0.015508339
-0.011001627
-0.0077629065
-0.0053359612
-0.0035841912
-0.0025383268
-0.0017894681
-0.0012933517
-0.00096601818
-0.00072316301
-0.00054278363
-0.00034978256
-0.00020228919
-0.0001031615
-0.067103208
-0.064944504
-0.059131406
-0.049949449
-0.038401117
-0.025946192
-0.013903126
-0.003502529
0.0046360781
0.010252016
0.013717948
0.015446128
0.015734309
0.014599455
0.012555768
0.0095329804
0.0060725954
0.0023648158
-0.0011938128
-0.004311345
-0.0067621442
-0.0084253302
-0.0092929842
-0.0094296096
-0.0089566138
-0.0080657621
-0.0069728417
-0.0057810189
-0.0044554347
-0.003023581
-0.0017652689
-0.00067242415
0.00026122143
0.0010516889
0.0017116433
0.0022521659
0.0026807045
0.0030016635
0.0032130058
-0.070353177
-0.065617452
-0.058192724
-0.049159532
-0.039825221
-0.031085223
-0.023423348
-0.017093191
-0.012080366
-0.0084586645
-0.0057620702
-0.0038075597
-0.0026232017
-0.0017836929
-0.001238499
-0.00093291322
-0.0007257769
-0.00058071564
-0.00041637322
-0.0002973772
-0.00015234511
-8.6001271e-05
-0.071585164
-0.06877751
-0.061925689
-0.051461953
-0.038695751
-0.025281396
-0.012581832
-0.0019377235
0.0061104654
0.011471829
0.014571482
0.015849022
0.015653063
0.013963462
0.011400296
0.0078957842
0.0040510721
0.00011122478
-0.0035177736
-0.0065492102
-0.0087911106
-0.010164851
-0.010692354
-0.010474022
-0.0097111205
-0.0086560135
-0.0074339504
-0.0059960365
-0.0043723913
-0.0029276244
-0.0016621421
-0.00057214224
0.00035967082
0.0011478605
0.0018059708
0.0023449626
0.0027726849
0.0030938649
0.0033061723
-0.075126351
-0.070397279
-0.062732742
-0.053265998
-0.043350761
-0.033939916
-0.025589781
-0.018629896
-0.013108097
-0.0090903023
-0.0060815411
-0.0039283887
-0.0026227339
-0.0016740792
-0.0010889259
-0.00080125011
-0.00063804169
-0.00054057814
-0.00042947715
-0.00033599226
-0.00021598215
-0.0001222904
-6.0868787e-05
-0.076020728
-0.072459397
-0.064452588
-0.052659399
-0.038710166
-0.024377863
-0.011078109
-0.00025327172
0.0075854522
0.012642234
0.015278274
0.016029442
0.015286319
0.012990159
0.0098752622
0.00589384
0.0017004644
-0.0024064788
-0.0060293045
-0.0089029218
-0.010869283
-0.011883925
-0.012011072
-0.011450749
-0.010490155
-0.0092774515
-0.0077433032
-0.0059179648
-0.0042704218
-0.002815283
-0.0015525908
-0.00046476914
0.00046397077
0.0012493335
0.0019047821
0.0024417889
0.0028685554
0.0031897674
0.0034026596
-0.079860631
-0.07515629
-0.067222154
-0.057284406
-0.046776024
-0.036722317
-0.027720271
-0.02013678
-0.01406748
-0.0096546294
-0.006324555
-0.0039233804
-0.0025060898
-0.0014708506
-0.00082432065
-0.00056315984
-0.0004453853
-0.00041444097
-0.00036426667
-0.00031820982
-0.000230024
-0.00016214056
-7.3205924e-05
-4.5042829e-05
-0.080345377
-0.075916251
-0.066694035
-0.053555397
-0.038460411
-0.02322373
-0.0093936033
0.0014690958
0.0090519336
0.013713299
0.015790902
0.015929131
0.014579392
0.011630047
0.0079428155
0.0035083733
-0.00097681065
-0.0051751017
-0.0087131187
-0.011349241
-0.012950753
-0.013525305
-0.01325719
-0.012463434
-0.011314091
-0.0097101689
-0.0076772119
-0.0058113794
-0.0041488354
-0.0026955337
-0.0014349749
-0.00035085236
0.00057411187
0.0013556084
0.0020078321
0.0025428105
0.0029685612
0.0032890337
0.0035023886
-0.084503024
-0.079867655
-0.071665448
-0.061213551
-0.05007406
-0.039363224
-0.029740231
-0.021575078
-0.014974969
-0.010136731
-0.0064886335
-0.0038347234
-0.0022432314
-0.0011558857
-0.00046221948
-0.00021472476
-0.00014025509
-0.00018529759
-0.00020904455
-0.00022493596
-0.00018973485
-0.0001497237
-8.8138263e-05
-4.2022698e-05
-2.1419204e-05
-0.084482013
-0.079136505
-0.068658052
-0.054171797
-0.037935502
-0.021829935
-0.0076055188
0.0032068867
0.01045808
0.014619051
0.016050577
0.015484988
0.01347302
0.0098323377
0.0055715195
0.00073067758
-0.0039735737
-0.0081830816
-0.011546587
-0.013833009
-0.014964957
-0.015093285
-0.014555658
-0.013540566
-0.011906897
-0.0096666015
-0.0075688817
-0.0056814203
-0.004018341
-0.0025664695
-0.0013098948
-0.00023039541
0.00068944205
0.0014663831
0.0021154968
0.0026485819
0.0030720538
0.0033915464
0.0036052567
-0.088983436
-0.084483209
-0.076036964
-0.065058898
-0.05323628
-0.04183129
-0.031586956
-0.02287835
-0.015798816
-0.010553778
-0.0065634559
-0.0036658803
-0.0018925212
-0.00068562187
5.3436741e-07
0.00023618931
0.00026411441
0.00015002245
4.6780233e-05
-4.6034357e-05
-7.6454027e-05
-8.6005196e-05
-5.6747024e-05
-3.0647477e-05
1.5079959e-06
-5.4391427e-06
-0.088435024
-0.082135062
-0.07036106
-0.054501913
-0.037140013
-0.020222714
-0.0056993709
0.0049307072
0.011744856
0.015278321
0.015991203
0.014629637
0.011904623
0.0075530116
0.0027407873
-0.0024428641
-0.0072865771
-0.011410449
-0.014467251
-0.01627013
-0.016911518
-0.016736653
-0.015946117
-0.014339646
-0.011901185
-0.0095615448
-0.0074328586
-0.0055402574
-0.0038768832
-0.002428688
-0.0011773585
-0.00010424085
0.00080962189
0.0015823592
0.0022287474
0.0027579969
0.0031788992
0.0034971147
0.0037111656
-0.093306611
-0.088946969
-0.080293148
-0.068794562
-0.056266323
-0.044118672
-0.033227186
-0.023992914
-0.016484871
-0.010885221
-0.0065604298
-0.0034015832
-0.0014618288
-0.00012073354
0.00059475003
0.00079341187
0.00075741019
0.00058668705
0.00040324068
0.00022695696
0.00011759215
4.5378592e-05
2.5018803e-05
2.2197814e-05
3.4902717e-05
3.6382895e-05
1.4479674e-05
-0.092225208
-0.084931496
-0.071792341
-0.054547056
-0.036088137
-0.018411935
-0.0036994794
0.0066143246
0.012851964
0.015613672
0.01554377