/*--------------------------------*- C++ -*----------------------------------*\
| =========                 |                                                 |
| \\      /  F ield         | OpenFOAM: The Open Source CFD Toolbox           |
|  \\    /   O peration     | Version:  5.0                                   |
|   \\  /    A nd           | Web:      www.OpenFOAM.org                      |
|    \\/     M anipulation  |                                                 |
\*---------------------------------------------------------------------------*/
FoamFile
{
    version     2.0;
    format      ascii;
    class       volScalarField;
    location    "380";
    object      pPrime2Mean;
}
// * * * * * * * * * * * * * * * * * * * * * * * * * * * * * * * * * * * * * //

dimensions      [0 4 -4 0 0 0 0];

internalField   nonuniform List<scalar> 
9520
(
1.7440089e-07
1.6253923e-07
1.1833904e-06
1.4252007e-07
1.1025198e-06
3.2015464e-06
1.182e-07
9.6591553e-07
2.9837866e-06
6.275185e-06
9.2950449e-08
7.9971422e-07
2.6157565e-06
5.8490118e-06
1.056298e-05
6.9380057e-08
6.2690746e-07
2.1676967e-06
5.1284206e-06
9.8483117e-06
1.6244421e-05
4.9281336e-08
4.6530785e-07
1.7013961e-06
4.2505636e-06
8.6392059e-06
1.5149953e-05
2.3573231e-05
3.3713404e-08
3.2694863e-07
1.2647485e-06
3.3362136e-06
7.1647924e-06
1.3297078e-05
2.1994087e-05
3.2838989e-05
2.31737e-08
2.186052e-07
8.9029053e-07
2.4791425e-06
5.627269e-06
1.1035059e-05
1.9317788e-05
3.065451e-05
4.4382269e-05
1.7751395e-08
1.4278658e-07
5.9644687e-07
1.7434127e-06
4.1841657e-06
8.6728744e-06
1.6045391e-05
2.6947555e-05
4.1454198e-05
5.8586642e-05
1.7351716e-08
9.900853e-08
3.8993771e-07
1.1654421e-06
2.9437018e-06
6.4522925e-06
1.262161e-05
2.240631e-05
3.647845e-05
5.4759033e-05
7.5878867e-05
2.213243e-08
8.5131853e-08
2.6916654e-07
7.5878518e-07
1.9679735e-06
4.5404874e-06
9.3965371e-06
1.7643884e-05
3.0369965e-05
4.8244387e-05
7.0977927e-05
9.6718615e-05
3.2686496e-08
9.7754639e-08
2.2666054e-07
5.1952562e-07
1.2808089e-06
3.0347162e-06
6.6141386e-06
1.3146243e-05
2.3946743e-05
4.0227595e-05
6.2621772e-05
9.0553894e-05
0.00012159576
5.0364482e-08
1.3225385e-07
2.5057891e-07
4.3095365e-07
8.7710187e-07
1.9738216e-06
4.4184193e-06
9.2551575e-06
1.7861504e-05
3.177203e-05
5.2311069e-05
8.0022352e-05
0.00011396199
0.00015102166
7.7241455e-08
1.8640809e-07
3.2904865e-07
4.713584e-07
7.3221066e-07
1.3525702e-06
2.8690181e-06
6.175243e-06
1.2578465e-05
2.3732552e-05
4.1398643e-05
6.6988387e-05
0.00010089287
0.00014170161
0.00018552147
1.17218e-07
2.6023924e-07
4.5135091e-07
6.1928484e-07
8.1223282e-07
1.1375611e-06
1.961441e-06
3.9942485e-06
8.380386e-06
1.6724424e-05
3.0980999e-05
5.3140881e-05
8.4665309e-05
0.00012570868
0.00017428983
0.00022562253
1.7374945e-07
3.5610232e-07
6.0874e-07
8.5018356e-07
1.0762583e-06
1.2771177e-06
1.6474847e-06
2.7094546e-06
5.3933597e-06
1.1129864e-05
2.1858053e-05
3.9861116e-05
6.7351892e-05
0.00010578002
0.00015496906
0.00021225082
0.00027184474
2.5359794e-07
4.6846609e-07
7.9419685e-07
1.1357272e-06
1.4835556e-06
1.7073469e-06
1.8505643e-06
2.2531233e-06
3.6194332e-06
7.1271663e-06
1.4537779e-05
2.8171577e-05
5.0664814e-05
8.4419668e-05
0.00013080176
0.00018918844
0.00025610672
0.00032468746
3.6343692e-07
6.2844247e-07
1.0079362e-06
1.4616393e-06
1.9933267e-06
2.3663813e-06
2.4810744e-06
2.5180846e-06
2.9714705e-06
4.7318066e-06
9.2693945e-06
1.8736909e-05
3.589068e-05
6.3718318e-05
0.00010476993
0.00016022406
0.00022888824
0.00030636541
0.00038462018
5.1243511e-07
7.892361e-07
1.2545568e-06
1.8134229e-06
2.5728526e-06
3.2015237e-06
3.4454546e-06
3.3792433e-06
3.3062055e-06
3.8387391e-06
6.0920216e-06
1.1900168e-05
2.3886151e-05
4.5272095e-05
7.9390386e-05
0.00012886056
0.00019455834
0.00027458631
0.00036351027
0.00045206937
6.9756751e-07
1.0874704e-06
1.5281291e-06
2.1830857e-06
3.19538e-06
4.1627444e-06
4.6691581e-06
4.7028716e-06
4.451656e-06
4.2661949e-06
4.8877906e-06
7.7386972e-06
1.511551e-05
3.017022e-05
5.6616464e-05
9.8087238e-05
0.00015717819
0.00023432575
0.00032678711
0.00042798842
0.00052740989
9.2510376e-07
1.3140791e-06
1.8998523e-06
2.5827795e-06
3.8579404e-06
5.2170076e-06
6.0907654e-06
6.3735679e-06
6.2299735e-06
5.7893143e-06
5.4360556e-06
6.1287237e-06
9.7130216e-06
1.9031016e-05
3.7814744e-05
7.0264008e-05
0.00012025286
0.00019023266
0.00028004853
0.00038596905
0.00050020141
0.00061095257
1.1850101e-06
1.8700313e-06
2.2806568e-06
3.0359615e-06
4.5543063e-06
6.3537214e-06
7.6578607e-06
8.299276e-06
8.4672442e-06
8.1782311e-06
7.4560605e-06
6.8092148e-06
7.5574519e-06
1.2068341e-05
2.379637e-05
4.7084231e-05
8.6598118e-05
0.0001463659
0.00022854997
0.00033223745
0.00045257717
0.00058049272
0.00070293851
1.4838756e-06
2.1636411e-06
2.981028e-06
3.5564724e-06
5.3312711e-06
7.5653358e-06
9.3410041e-06
1.0397098e-05
1.1013089e-05
1.1190638e-05
1.0653264e-05
9.4387637e-06
8.3468214e-06
9.1752561e-06
1.4884873e-05
2.9597459e-05
5.8286881e-05
0.00010604444
0.00017693502
0.00027266356
0.00039138438
0.00052700936
0.00066914112
0.00080353051
1.7566461e-06
3.1062561e-06
3.596882e-06
4.323913e-06
6.190491e-06
8.9153642e-06
1.1141028e-05
1.2614618e-05
1.3743121e-05
1.4610348e-05
1.4714629e-05
1.3644094e-05
1.1670472e-05
1.001008e-05
1.1005795e-05
1.827458e-05
3.6659289e-05
7.1775667e-05
0.00012906901
0.00021249359
0.00032310364
0.00045795026
0.00060960848
0.00076635081
0.00091281067
2.055317e-06
3.7524651e-06
4.8779073e-06
5.1753112e-06
7.3568052e-06
1.0402739e-05
1.311536e-05
1.4942261e-05
1.6576694e-05
1.825846e-05
1.9362089e-05
1.9040979e-05
1.7059735e-05
1.4083087e-05
1.1784796e-05
1.3100656e-05
2.2380415e-05
4.5248326e-05
8.7948838e-05
0.00015617735
0.00025359335
0.00038038916
0.00053235545
0.00070065068
0.00087224825
0.001030777
2.3898679e-06
5.0498192e-06
6.0616781e-06
6.6392457e-06
8.6937244e-06
1.2312385e-05
1.5305311e-05
1.742091e-05
1.9471246e-05
2.201568e-05
2.4355677e-05
2.528141e-05
2.4047315e-05
2.081582e-05
1.6646081e-05
1.3684113e-05
1.5532862e-05
2.7377588e-05
5.5674384e-05
0.00010725375
0.00018791103
0.00030079262
0.00044501768
0.00061496732
0.00080034111
0.00098687745
0.0011573433
2.9523222e-06
6.3319307e-06
8.2015551e-06
8.2797097e-06
1.078382e-05
1.4535451e-05
1.7991305e-05
2.0142867e-05
2.2452091e-05
2.5798814e-05
2.9528777e-05
3.2060792e-05
3.2198196e-05
2.9629294e-05
2.4890302e-05
1.9364144e-05
1.5732856e-05
1.8392768e-05
3.3475329e-05
6.8298482e-05
0.00013018702
0.00022484232
0.00035465115
0.00051745261
0.00070609337
0.00090880697
0.0011101995
0.0012923408
3.538724e-06
7.6737439e-06
1.0394051e-05
1.1090572e-05
1.3270554e-05
1.7706115e-05
2.116806e-05
2.3354577e-05
2.5629138e-05
2.9622856e-05
3.4752322e-05
3.915972e-05
4.1126805e-05
3.9977176e-05
3.5793272e-05
2.9316217e-05
2.2248384e-05
1.7954912e-05
2.1787729e-05
4.0927265e-05
8.353759e-05
0.00015729468
0.00026756436
0.00041571781
0.00059811432
0.00080596999
0.0010260952
0.001242091
0.0014355219
4.1312024e-06
8.9773514e-06
1.2493992e-05
1.4226993e-05
1.7346588e-05
2.1530181e-05
2.5501571e-05
2.7199929e-05
2.9235119e-05
3.3577808e-05
4.0032489e-05
4.6399139e-05
5.0542535e-05
5.1363316e-05
4.8667327e-05
4.2644827e-05
3.4131797e-05
2.528772e-05
2.0367348e-05
2.5853212e-05
5.0040968e-05
0.00010187053
0.00018916767
0.00031668586
0.00048452068
0.00068736549
0.00091475891
0.0011521659
0.0013823471
0.0015865658
4.7117175e-06
9.7531666e-06
1.465528e-05
1.749819e-05
2.2056373e-05
2.7496598e-05
3.0714402e-05
3.2351737e-05
3.3546595e-05
3.7915124e-05
4.542806e-05
5.3761293e-05
6.0210713e-05
6.3395565e-05
6.2870015e-05
5.8488489e-05
5.0308451e-05
3.9328319e-05
2.843198e-05
2.2990026e-05
3.0766915e-05
6.1189482e-05
0.0001238382
0.00022643615
0.00037282098
0.00056155082
0.00078550332
0.0010325401
0.0012868953
0.0015306873
0.0017450849
5.0808542e-06
1.0898488e-05
1.6160704e-05
2.0676583e-05
2.7260582e-05
3.4628875e-05
3.873461e-05
3.8636011e-05
3.9230999e-05
4.2975075e-05
5.1220687e-05
6.1266575e-05
7.0071522e-05
7.5758571e-05
7.78698e-05
7.6025956e-05
6.9710903e-05
5.883186e-05
4.4820309e-05
3.1598209e-05
2.5862821e-05
3.6765893e-05
7.4817295e-05
0.00015004482
0.00026976134
0.0004365717
0.00064724922
0.00089275053
0.0011593092
0.0014300807
0.0016867601
0.0019106325
5.2693108e-06
1.1362519e-05
1.8187163e-05
2.3283647e-05
3.2053376e-05
4.2538749e-05
4.8662432e-05
4.8323955e-05
4.6319087e-05
4.9462838e-05
5.7758217e-05
6.9211852e-05
8.0100524e-05
8.8323076e-05
9.3236133e-05
9.4551276e-05
9.1312279e-05
8.2503691e-05
6.8129504e-05
5.0446666e-05
3.4691905e-05
2.9068651e-05
4.415833e-05
9.1447804e-05
0.00018115003
0.00031982173
0.00050851299
0.00074199469
0.0010092514
0.0012949756
0.0015814438
0.0018501503
0.0020827123
5.0822761e-06
1.1663689e-05
1.9375596e-05
2.6401096e-05
3.6351651e-05
4.9434685e-05
5.9870952e-05
6.0608552e-05
5.7274429e-05
5.762567e-05
6.5803307e-05
7.7932211e-05
9.0584465e-05
0.0001010185
0.00010872979
0.00011347793
0.00011420459
0.00010908726
9.6833721e-05
7.7985538e-05
5.5996283e-05
3.7638392e-05
3.2751339e-05
5.3337369e-05
0.00011168089
0.00021785959
0.00037730171
0.00058918378
0.00084610078
0.0011350622
0.0014393657
0.0017406329
0.0020203884
0.0022607873
4.5463992e-06
1.1345394e-05
2.0116193e-05
2.8542907e-05
4.1076307e-05
5.6029494e-05
6.9518223e-05
7.5537943e-05
7.1501379e-05
6.9828539e-05
7.5769283e-05
8.8218265e-05
0.00010183684
0.0001140924
0.00012421044
0.00013242589
0.00013760895
0.00013744956
0.00012942662
0.0001124629
8.8094727e-05
6.1249364e-05
4.0406502e-05
3.7135051e-05
6.4784301e-05
0.00013619089
0.00026091802
0.0004428801
0.00067907626
0.00095980124
0.0012701522
0.0015922257
0.0019072301
0.0021969584
0.002444288
3.7212755e-06
1.039708e-05
1.9918252e-05
2.9930512e-05
4.4557695e-05
6.2876113e-05
7.901915e-05
8.8589868e-05
9.0088382e-05
8.5936764e-05
8.985036e-05
0.00010060843
0.00011468344
0.00012783172
0.00013985855
0.00015114225
0.00016098108
0.0001665888
0.00016452707
0.00015210763
0.00012901579
9.8115111e-05
6.6008248e-05
4.3032534e-05
4.2532416e-05
7.907134e-05
0.00016571711
0.00031109899
0.00051721283
0.00077861512
0.001083242
0.0014144019
0.0017532243
0.002080761
0.0023793044
0.0026326215
2.7430904e-06
8.8527781e-06
1.8607959e-05
3.0105184e-05
4.6728624e-05
6.8228553e-05
8.8745521e-05
0.00010154182
0.00010692648
0.00010827686
0.00010844434
0.00011706025
0.00012971884
0.0001430841
0.0001559376
0.00016971735
0.00018391625
0.00019577672
0.00020088039
0.00019525922
0.0001767053
0.00014605424
0.00010770916
7.0123859e-05
4.5630983e-05
4.935305e-05
9.6862484e-05
0.00020106416
0.00036918995
0.00060091536
0.00088814818
0.0012164755
0.0015676043
0.0019219562
0.0022607037
0.0025668427
0.002825181
1.8086316e-06
6.8493648e-06
1.6234506e-05
2.8637904e-05
4.7219368e-05
7.1407526e-05
9.694895e-05
0.00011501879
0.0001240451
0.00012956977
0.00013516049
0.00013889656
0.00014875219
0.00016048153
0.0001732751
0.00018836745
0.00020639665
0.00022441841
0.00023754725
0.00024037952
0.00022918741
0.00020271244
0.00016313837
0.00011657145
7.3503997e-05
4.8402353e-05
5.8108015e-05
0.00011891484
0.00024309214
0.00043597537
0.00069454922
0.0010079344
0.0013594602
0.0017294649
0.002097958
0.0024464967
0.0027589699
0.0030213531
1.075198e-06
4.7375782e-06
1.3036613e-05
2.5591123e-05
4.5230661e-05
7.2244002e-05
0.0001018468
0.00012736514
0.00014193631
0.0001521181
0.00016146632
0.00017033529
0.00017360612
0.00018183414
0.00019256914
0.00020786578
0.0002285387
0.00025237808
0.00027370882
0.00028627707
0.00028460326
0.00026575577
0.0002296299
0.00017985708
0.00012443411
7.6121205e-05
5.164013e-05
6.9421274e-05
0.00014607702
0.00029270092
0.00051221723
0.00079860305
0.0011381384
0.0015120546
0.0018996106
0.0022807137
0.002637548
0.0029550707
0.0032205266
6.6638024e-07
2.9315542e-06
9.5994715e-06
2.1283596e-05
4.0863231e-05
6.9437053e-05
0.00010369341
0.00013516704
0.00015965403
0.00017479811
0.0001904328
0.00020198943
0.00020917206
0.0002090363
0.00021567421
0.00022898866
0.00025106753
0.00027960959
0.00030908879
0.00033187208
0.0003414487
0.00033295426
0.0003044508
0.0002570061
0.00019582107
0.00013106062
7.8014962e-05
5.5749233e-05
8.4033183e-05
0.00017928292
0.0003508121
0.00059863506
0.00091348042
0.0012788181
0.001674023
0.0020775995
0.0024696605
0.0028332451
0.0031545277
0.0034220982
1.8785062e-06
6.579826e-07
6.6221231e-06
1.6536638e-05
3.4593643e-05
6.3141238e-05
0.00010052164
0.00013932244
0.00017156776
0.00019878036
0.00021818517
0.00023833132
0.00024672624
0.00024776307
0.00024437575
0.00025359047
0.00027475422
0.00030679189
0.00034342369
0.00037671599
0.00039834386
0.00040241838
0.00038493469
0.00034485519
0.00028441461
0.00021063507
0.00013623257
7.9312875e-05
6.1261873e-05
0.00010280606
0.00021953912
0.0004183487
0.00069588771
0.0010394826
0.0014299261
0.0018450396
0.0022629273
0.0026642007
0.0030329641
0.0033567272
0.0036254794
4.8819004e-06
1.8790576e-06
1.0508465e-06
1.2386603e-05
2.7621935e-05
5.4050636e-05
9.2489359e-05
0.00013706749
0.00017945857
0.00021564849
0.00024923129
0.00027172549
0.00029154147
0.00029116046
0.00028512184
0.00028326411
0.00030143748
0.00033459726
0.00037733645
0.00042027016
0.00045460979
0.00047241257
0.00046872769
0.00044023959
0.00038661242
0.00031139403
0.00022386562
0.00013975582
8.024384e-05
6.8854192e-05
0.00012672473
0.00026790848
0.0004962136
0.00080455067
0.0011768013
0.0015913065
0.002024697
0.0024550346
0.0028637104
0.0032360756
0.0035610667
0.0038301007
9.9580142e-06
4.8778865e-06
2.9315685e-06
1.7683026e-06
2.1545724e-05
4.3913987e-05
8.0473237e-05
0.00012839376
0.00017965393
0.00022831726
0.00027178817
0.00031093832
0.00033145638
0.00034453039
0.00033316432
0.00032484313
0.00033267503
0.00036487237
0.00041128805
0.00046309481
0.00050940586
0.0005419472
0.00055365994
0.00054025463
0.00049870142
0.00042932018
0.00033737855
0.00023502613
0.00014149289
8.1171145e-05
7.9354545e-05
0.00015688855
0.00032548922
0.00058526373
0.00092509968
0.0013255103
0.0017627016
0.0022125111
0.0026533176
0.0030675496
0.0034419553
0.0037669603
0.0040354167
1.7975765e-05
9.957628e-06
6.6097351e-06
4.7365654e-06
2.6892711e-06
3.510015e-05
6.6903921e-05
0.00011425061
0.00017178031
0.00023210934
0.00029008772
0.00034023274
0.00038066071
0.00039161887
0.00039423224
0.00037582345
0.00037466509
0.00039904393
0.00044715415
0.00050532532
0.00056319304
0.00060985877
0.00063832908
0.00064220344
0.00061715099
0.00056013048
0.00047241047
0.00036165621
0.00024359631
0.00014140795
8.2630341e-05
9.3759864e-05
0.00019449835
0.00039339018
0.00068628489
0.0010578951
0.0014855644
0.0019437528
0.0024079313
0.0028571384
0.0032750699
0.0036499889
0.0039738435
0.0042409089
2.9870768e-05
1.7977742e-05
1.2383503e-05
9.5821053e-06
6.8469104e-06
3.6600779e-06
5.500782e-05
9.778282e-05
0.00015671362
0.00022612659
0.00029846844
0.00036570804
0.00041866617
0.00045287313
0.00044867889
0.00044385283
0.00042764828
0.0004427027
0.00048604727
0.00054891184
0.0006157265
0.00067643887
0.00072120768
0.00074414693
0.00073863628
0.00069960645
0.00062412053
0.00051506109
0.0003833615
0.00024907187
0.00013960911
8.5356096e-05
0.00011323608
0.00024083782
0.00047270074
0.0007999681
0.0012031715
0.0016567961
0.0021340107
0.0026103489
0.0030658346
0.0034856245
0.0038595787
0.004181177
0.0044460889
4.7853831e-05
2.9830375e-05
2.1549731e-05
1.6530424e-05
1.3016523e-05
8.8479402e-06
4.4856711e-06
8.3028613e-05
0.00013827807
0.00021107742
0.00029537616
0.00038023849
0.00045366689
0.00050208443
0.00052305771
0.00050560689
0.00050253744
0.00049791115
0.00053340993
0.00059445444
0.00066906146
0.00074107626
0.00080231834
0.00084412672
0.0008605591
0.00084370126
0.0007875654
0.00068989887
0.00055615375
0.00040151716
0.00025101688
0.0001363974
9.0303495e-05
0.00013911256
0.00029724577
0.0005644595
0.00092688963
0.0013610275
0.0018389208
0.0023329398
0.0028191099
0.0032787304
0.0036985745
0.0040701488
0.00438845
0.0046504998
7.40238e-05
4.7748609e-05
3.498262e-05
2.7627106e-05
2.1279696e-05
1.621444e-05
1.0391478e-05
5.0284375e-06
0.00012119316
0.00019131615
0.00028119026
0.00038169132
0.0004770192
0.00055011206
0.00058576748
0.00059391489
0.00057103645
0.00057939287
0.00059188818
0.00064764809
0.00072319179
0.00080591862
0.00088070744
0.00094174843
0.00098042553
0.00098905525
0.00095789634
0.00088050479
0.00075624413
0.00059429687
0.00041509602
0.00024913884
0.00013231669
9.8666211e-05
0.00017286414
0.00036508213
0.00066962548
0.00106749
0.0015314223
0.0020315378
0.0025399322
0.0030335255
0.0034951461
0.0039132959
0.0042811473
0.0045951819
0.0048537175
0.0001106419
7.3874108e-05
5.4707794e-05
4.373543e-05
3.4603839e-05
2.5590532e-05
1.8594389e-05
1.1338404e-05
5.2267405e-06
0.00017227601
0.00026065327
0.00036980347
0.00048573385
0.00058587309
0.00065023829
0.00067189373
0.0006733724
0.00065366514
0.00067964912
0.00070985471
0.00078415097
0.00087043182
0.00095852468
0.0010357325
0.0010972694
0.0011324995
0.0011308955
0.0010811591
0.000977289
0.00082147652
0.00062788956
0.00042311621
0.00024337515
0.00012820014
0.00011187818
0.00021608407
0.00044569062
0.00078904583
0.0012220602
0.0017141712
0.0022341433
0.0027543192
0.0032528858
0.0037144045
0.0041291817
0.0044920508
0.004800926
0.0050553529
0.00016048431
0.00011051391
8.2590327e-05
6.644192e-05
5.3840413e-05
4.0880457e-05
2.864394e-05
1.9910415e-05
1.1657507e-05
5.0502126e-06
0.00023994384
0.00034953633
0.00047844959
0.00060571007
0.00070249325
0.00075639458
0.000767271
0.00076908397
0.00075908443
0.00080384453
0.00085179041
0.00094100143
0.001034958
0.001128047
0.0012094648
0.0012723809
0.0013025741
0.0012866891
0.0012126592
0.0010761277
0.00088350591
0.0006552194
0.00042474316
0.00023398714
0.00012521366
0.00013160606
0.00027044651
0.00054035949
0.00092342829
0.001390727
0.0019089527
0.0024461399
0.0029753851
0.0034764651
0.0039358352
0.0043456494
0.0047023709
0.0050052725
0.0052550505
0.00022708111
0.00016055995
0.00012081128
9.7098634e-05
7.9914589e-05
6.2923971e-05
4.5260481e-05
3.0114899e-05
2.0113315e-05
1.1361866e-05
4.6925914e-06
0.00032785379
0.00046027912
0.00060654978
0.00073812593
0.00082955889
0.00087460175
0.00087908903
0.00088722241
0.00088867051
0.00095313755
0.001016184
0.001116535
0.0012178098
0.0013185162
0.0014066173
0.0014704681
0.0014921347
0.0014561397
0.0013507245
0.0011746046
0.00093993332
0.00067458157
0.00041941292
0.00022160829
0.0001248702
0.00015972219
0.00033766134
0.00065027836
0.0010733137
0.0015734512
0.002115316
0.0026668518
0.0032023736
0.0037035284
0.0041587843
0.0045621528
0.0049116598
0.005207845
0.0054524863
0.0003142976
0.00022730545
0.00017245911
0.00013768049
0.00011341822
9.1899718e-05
6.9237073e-05
4.7258189e-05
2.994487e-05
1.9377258e-05
1.0899389e-05
4.1214578e-06
0.00043886127
0.00059330037
0.0007516857
0.00088627735
0.00097261776
0.00101083
0.0010127044
0.0010305165
0.0010427222
0.0011262563
0.001200967
0.0013113964
0.0014235486
0.0015360543
0.0016318832
0.0016940913
0.0017016341
0.0016379285
0.0014928327
0.0012697632
0.00098817504
0.00068442359
0.00040693131
0.00020728827
0.00012901804
0.00019826471
0.00041942145
0.00077649551
0.0012390598
0.0017700288
0.002332693
0.0028955269
0.003434495
0.0039333451
0.0043826357
0.0047781911
0.0051194997
0.005408289
0.0056568257
0.00042520438
0.00031461532
0.00024053464
0.00019154492
0.00015597609
0.00012750646
9.9959673e-05
7.207016e-05
4.6773961e-05
2.8561934e-05
1.8193829e-05
9.7565885e-06
3.5369528e-06
0.00057405548
0.00074736908
0.00091776584
0.001055238
0.0011364024
0.0011699218
0.001171841
0.0011996817
0.0012202779
0.0013197151
0.0014063825
0.0015305315
0.0016597459
0.0017868856
0.0018890105
0.0019446457
0.0019303489
0.0018296969
0.0016356905
0.0013582248
0.0010256044
0.00068347857
0.00038757391
0.00019254427
0.00013983089
0.00024938052
0.00051734498
0.00091988446
0.0014208334
0.0019800964
0.0025603978
0.0031313476
0.0036709462
0.0041652214
0.0046068223
0.0049932859
0.005325479
0.0056148063
0.0058725514
0.00056107696
0.00042532654
0.00032870395
0.00026146927
0.00021129618
0.0001709855
0.00013621985
0.00010319505
7.126972e-05
4.4605932e-05
2.6416378e-05
1.6171854e-05
8.9807786e-06
2.9544555e-06
0.00073335126
0.00092687932
0.0011097731
0.001248804
0.0013252641
0.0013565068
0.0013579431
0.0013931103
0.0014188254
0.0015336905
0.0016370653
0.0017830091
0.0019343293
0.0020761095
0.0021804975
0.0022222361
0.0021763749
0.0020280863
0.0017753197
0.0014363286
0.0010497199
0.00067092009
0.00036218779
0.00017939634
0.00015976178
0.00031525753
0.00063292212
0.0010811209
0.0016186023
0.0022031221
0.0027976326
0.0033734572
0.0039109561
0.0043985144
0.0048307871
0.0052069407
0.0055373213
0.0058320817
0.0060938254
0.00072279577
0.00056066619
0.00043923627
0.00035071887
0.00028208928
0.00022631427
0.00017889952
0.00013856569
0.00010143617
6.812224e-05
4.1129691e-05
2.3297393e-05
1.4665707e-05
7.6816017e-06
2.3936545e-06
0.00092134396
0.0011365811
0.0013304366
0.0014705911
0.0015446716
0.0015728953
0.0015714724
0.00160578
0.0016386651
0.0017720917
0.0019038388
0.0020787172
0.0022537321
0.0024074528
0.0025074774
0.0025256722
0.0024366251
0.0022288029
0.0019071797
0.0015002971
0.0010583327
0.00064651073
0.00033224955
0.00017034012
0.00019147495
0.00039805673
0.00076747446
0.0012606568
0.0018321117
0.0024384071
0.0030435261
0.0036210216
0.0041538032
0.0046325724
0.0050539208
0.0054268408
0.00575985
0.0060558027
0.0063205681
0.00091496602
0.00072204773
0.00057290791
0.00046072981
0.00037109152
0.00029621854
0.00023226812
0.00017879651
0.00013454473
9.6622852e-05
6.2800389e-05
3.6403259e-05
2.0685911e-05
1.25032e-05
6.3436374e-06
2.0611743e-06
0.0011423921
0.0013782586
0.0015825712
0.0017263947
0.0017987218
0.0018198849
0.0018082587
0.0018351535
0.0018796324
0.0020474986
0.0022184357
0.0024254446
0.0026229567
0.0027832386
0.0028697481
0.0028524885
0.0027068788
0.0024267189
0.0020263166
0.0015464332
0.0010497581
0.00061072743
0.00029989153
0.00016828748
0.00023777154
0.0004998526
0.00092210421
0.0014586719
0.0020608756
0.0026851345
0.0032972135
0.0038732476
0.004398727
0.0048666432
0.005284305
0.0056578853
0.0059897676
0.0062858563
0.0065526824
0.001141695
0.00091406455
0.00073127597
0.00059149648
0.00047880388
0.00038288196
0.00029918763
0.00022845508
0.000171046
0.00012687224
8.8510358e-05
5.5987654e-05
3.2099932e-05
1.7503824e-05
1.0408553e-05
5.0551357e-06
1.7656307e-06
0.0013974036
0.0016533684
0.0018721923
0.0020226535
0.0020894351
0.0020943293
0.0020614749
0.002081228
0.0021552795
0.0023751609
0.0025899056
0.0028296415
0.0030455936
0.0032044958
0.0032657879
0.0031989154
0.0029818054
0.0026159675
0.0021275353
0.0015713371
0.0010230027
0.00056486114
0.00026791053
0.00017652746
0.0003015198
0.00062255529
0.0010976115
0.001675047
0.0023042367
0.0029424699
0.0035578547
0.0041292584
0.0046448018
0.0051096732
0.0055268458
0.0058973404
0.0062269363
0.0065221017
0.0067900502
0.0014035101
0.0011409196
0.00091896109
0.0007442262
0.00060424015
0.00048589262
0.00038124974
0.0002906836
0.00021578759
0.00015926556
0.00011466357
7.8861666e-05
4.9409586e-05
2.7298235e-05
1.4240319e-05
8.213101e-06
3.7541029e-06
1.4929677e-06
0.0016862438
0.0019675582
0.002207866
0.0023630416
0.0024150093
0.0023894735
0.0023283384
0.0023536946
0.0024846437
0.0027653988
0.0030257629
0.0032962711
0.0035240683
0.0036709833
0.0036927507
0.0035598797
0.0032550138
0.0027900597
0.0022056129
0.0015721367
0.00097794815
0.00051109516
0.00023976539
0.0001986469
0.00038554731
0.00076778158
0.0012944385
0.001909436
0.0025614893
0.0032095738
0.0038244595
0.0043879274
0.0049023601
0.0053665005
0.0057789282
0.0061450519
0.0064711854
0.0067643618
0.0070325364
0.0016991129
0.0014037672
0.0011403243
0.00092337021
0.00074784054
0.00060312443
0.0004769661
0.00036649668
0.00027223707
0.00019890363
0.00014169132
0.00010130918
6.9407527e-05
4.2534673e-05
2.2092374e-05
1.1104099e-05
6.0668646e-06
3.109117e-06
1.1931873e-06
0.0020134075
0.0023305069
0.0025948934
0.0027479535
0.0027689118
0.002697436
0.0026174267
0.0026724518
0.0028790243
0.0032270187
0.0035323646
0.0038294878
0.0040597874
0.0041811465
0.0041463401
0.0039289756
0.0035191164
0.0029420655
0.0022555633
0.0015467631
0.00091551967
0.00045253981
0.00021951487
0.0002384052
0.00049246333
0.00093675899
0.0015127502
0.0021614098
0.00283188
0.003485364
0.00409568
0.0046615472
0.0051760895
0.0056341459
0.0060403916
0.006400831
0.0067222941
0.0070124328
0.0072799849
0.0020311541
0.0017007651
0.0013981407
0.0011336694
0.00091350458
0.00073400985
0.00058324011
0.00045348806
0.00034084495
0.00024958645
0.00017491636
0.00012389126
8.8423736e-05
5.9819819e-05
3.4620452e-05
1.7373132e-05
8.2896727e-06
4.8838544e-06
2.1675919e-06
9.3303387e-07
0.0023891662
0.0027495486
0.0030365483
0.0031712776
0.0031401631
0.0030238104
0.0029464035
0.0030532806
0.0033489166
0.0037672213
0.0041158431
0.0044325259
0.0046529316
0.0047319251
0.004620745
0.0042984758
0.0037658247
0.003064827
0.0022729037
0.0014941907
0.00083782814
0.00039327495
0.00021170557
0.00029950754
0.00062451013
0.0011304135
0.0017526022
0.0024304329
0.0031142892
0.0037682618
0.0043864122
0.0049545664
0.0054621027
0.0059124516
0.0063110406
0.006664426
0.0069800049
0.0072660741
0.0075322231
0.0024105152
0.002033599
0.00169079
0.0013794895
0.0011062629
0.00088174137
0.00069843506
0.0005476549
0.00041845853
0.00031144464
0.00021846474
0.00015220127
0.00010682809
7.545423e-05
4.8655888e-05
2.7492902e-05
1.3284546e-05
6.6476178e-06
3.6031605e-06
1.8714559e-06
7.0329968e-07
0.0028219802
0.003229302
0.0035283616
0.0036219729
0.0035311197
0.0033833889
0.003327584
0.0035130168
0.0039006874
0.0043941026
0.0047814844
0.0051075832
0.005302182
0.005318684
0.0051086088
0.0046592982
0.0039860588
0.003151235
0.0022540053
0.0014147066
0.00074830081
0.00033827939
0.000221117
0.00038540766
0.00078365925
0.0013495539
0.0020138678
0.002715442
0.0034069194
0.0040764843
0.0047008014
0.0052615859
0.0057602559
0.0062012287
0.006590606
0.0069355394
0.0072440119
0.0075250205
0.0077890586
0.0028457985
0.0024132682
0.0020200849
0.0016600748
0.0013318075
0.0010514843
0.00082515236
0.00064659102
0.00050008518
0.00038053715
0.00027207945
0.00019062079
0.0001296728
9.0063147e-05
6.0583332e-05
3.8718729e-05
2.1527293e-05
1.0796665e-05
5.1798361e-06
2.9850942e-06
1.3165639e-06
5.1666406e-07
0.0033165341
0.0037680651
0.00406047
0.0041001805
0.0039547306
0.0038000862
0.0037799728
0.0040530605
0.0045447831
0.0051156468
0.005533772
0.0058554673
0.0060046522
0.0059351313
0.0056008454
0.0050010028
0.0041701352
0.0031946086
0.0021964964
0.0013101925
0.00065170012
0.00029316024
0.00025250614
0.00049940572
0.00097179888
0.0015947273
0.0022956917
0.0030144702
0.0037320639
0.0044138618
0.0050312477
0.0055824908
0.0060703823
0.0065002026
0.0068787628
0.0072138147
0.0075139738
0.0077889722
0.0080502816
0.0033411947
0.0028488967
0.0023969911
0.0019771973
0.0015901283
0.0012500205
0.00096890106
0.00075243359
0.00058286323
0.00045139653
0.00033139575
0.00023861117
0.00016159494
0.0001083313
7.1507978e-05
4.8292283e-05
3.0701735e-05
1.7701477e-05
8.6997123e-06
4.3286247e-06
2.2848787e-06
1.0879417e-06
3.6657921e-07
0.003872113
0.0043581553
0.0046322598
0.0046193385
0.0044344523
0.0042805407
0.0043082985
0.0046848465
0.0052910697
0.0059396257
0.0063760496
0.0066754484
0.0067558061
0.0065730577
0.0060864891
0.0053118041
0.0043081023
0.0031891256
0.0020996618
0.0011842925
0.00055393297
0.00026389532
0.00031072686
0.00064482957
0.0011904851
0.001865507
0.0025960394
0.0033546432
0.0040933203
0.0047698169
0.0053776817
0.0059171568
0.0063922177
0.0068090355
0.0071751182
0.0074988492
0.0077895034
0.0080576182
0.008315704
0.0038953494
0.0033433911
0.0028306461
0.0023418075
0.0018831215
0.0014777965
0.0011370079
0.00087124928
0.00066876513
0.00052100458
0.00039070485
0.00029154918
0.00020217881
0.00013523594
8.599686e-05
5.7275209e-05
3.8619552e-05
2.5493708e-05
1.4531777e-05
7.3607046e-06
3.5596213e-06
1.9030406e-06
7.9031306e-07
2.5576268e-07
0.0044842368
0.0050016844
0.0052601926
0.0051964252
0.0049763952
0.0048300552
0.0049237227
0.0054230096
0.0061498787
0.0068722746
0.0073103998
0.0075654072
0.0075493013
0.0072220029
0.0065524732
0.0055787437
0.0043901948
0.0031303995
0.0019648333
0.0010423516
0.00046184603
0.0002569729
0.00040089815
0.00082464879
0.0014400364
0.0021599721
0.002947548
0.0037395772
0.0044763139
0.0051443377
0.0057400389
0.0062653477
0.006725427
0.007127313
0.0074792215
0.0077901835
0.0080702048
0.0083306673
0.0085850884
0.0045059938
0.0038948376
0.0033227206
0.0027620536
0.0022206361
0.0017368034
0.0013310149
0.0010109674
0.0007646738
0.00059173496
0.00044744806
0.00034400075
0.00024680123
0.00017043278
0.00010847143
6.9867835e-05
4.6321319e-05
3.2342637e-05
2.1161719e-05
1.2308345e-05
6.1917467e-06
3.0386685e-06
1.5309899e-06
6.2905591e-07
1.7522115e-07
0.0051577565
0.0057183243
0.0059605478
0.0058406412
0.0055901901
0.0054552321
0.0056463179
0.0062794392
0.007130088
0.007918164
0.0083375586
0.0085216613
0.0083764291
0.0078687588
0.0069835236
0.0057880214
0.0044074477
0.0030161013
0.001795579
0.00089131519
0.0003833783
0.00027956005
0.00052783887
0.0010403306
0.001718918
0.0025167129
0.0033543588
0.0041502932
0.0048810947
0.0055374382
0.0061181311
0.0066267499
0.0070695895
0.0074545506
0.0077905543
0.0080873513
0.008355696
0.0086077687
0.0088581869
0.0051804837
0.0045024256
0.0038710696
0.0032384088
0.002608975
0.002034903
0.0015530038
0.0011740622
0.00087915103
0.00067153074
0.00050426775
0.00039351834
0.00029093059
0.00020924601
0.00013891545
8.9849665e-05
5.7622272e-05
3.9227938e-05
2.7193928e-05
1.7985133e-05
1.039944e-05
5.3318005e-06
2.585072e-06
1.2568723e-06
4.6924384e-07
1.1828134e-07
0.0059153624
0.0065264216
0.0067410595
0.0065569133
0.0062728317
0.0061760503
0.0064876006
0.0072653731
0.008239699
0.009080764
0.0094573225
0.0095385201
0.0092253766
0.0084969523
0.0073622315
0.0059255387
0.0043525062
0.0028464414
0.0015977819
0.00074003019
0.00032780001
0.00033873387
0.00069465559
0.0012911261
0.0020716522
0.0029412913
0.0037922158
0.0045868926
0.0053077675
0.0059489965
0.0065116862
0.0070009533
0.0074242034
0.0077901858
0.0081085936
0.0083898872
0.008645533
0.0088885368
0.0091347409
0.005941651
0.0051758281
0.0044755984
0.0037673181
0.0030468021