/*--------------------------------*- C++ -*----------------------------------*\
| =========                 |                                                 |
| \\      /  F ield         | OpenFOAM: The Open Source CFD Toolbox           |
|  \\    /   O peration     | Version:  5.0                                   |
|   \\  /    A nd           | Web:      www.OpenFOAM.org                      |
|    \\/     M anipulation  |                                                 |
\*---------------------------------------------------------------------------*/
FoamFile
{
    version     2.0;
    format      ascii;
    class       volVectorField;
    location    "380";
    object      U;
}
// * * * * * * * * * * * * * * * * * * * * * * * * * * * * * * * * * * * * * //

dimensions      [0 1 -1 0 0 0 0];

internalField   nonuniform List<vector> 
9520
(
(1.014405 0.00016688605 0)
(1.0145026 0.00048885523 0)
(1.013909 0.00016489427 0)
(1.0146746 0.00078768212 0)
(1.0140089 0.00048428863 0)
(1.0137188 0.00016236686 0)
(1.0149045 0.0010629225 0)
(1.0141861 0.00078219227 0)
(1.0138182 0.00047680175 0)
(1.0134133 0.00016301563 0)
(1.0151782 0.0013139905 0)
(1.0144252 0.0010579594 0)
(1.0139958 0.00077078287 0)
(1.0135128 0.00047768159 0)
(1.0131774 0.00016805968 0)
(1.0154829 0.0015407101 0)
(1.0147125 0.0013113698 0)
(1.0142367 0.0010438515 0)
(1.0136909 0.00077207935 0)
(1.0132774 0.00049175171 0)
(1.0129069 0.00017437585 0)
(1.0158075 0.0017430578 0)
(1.0150352 0.0015415686 0)
(1.0145276 0.0012973937 0)
(1.0139323 0.0010465013 0)
(1.0134562 0.0007946951 0)
(1.0130071 0.00051107636 0)
(1.0126557 0.00017725886 0)
(1.0161422 0.0019203684 0)
(1.0153831 0.0017485747 0)
(1.014856 0.0015300348 0)
(1.0142247 0.0013037232 0)
(1.0136978 0.0010780397 0)
(1.0131848 0.00082762647 0)
(1.0127551 0.00052170217 0)
(1.0124015 0.00017488087 0)
(1.016479 0.0020714378 0)
(1.0157481 0.0019325183 0)
(1.0152113 0.0017413005 0)
(1.0145572 0.0015430203 0)
(1.0139905 0.0013442773 0)
(1.0134247 0.0011259529 0)
(1.0129306 0.00084814669 0)
(1.0124973 0.00051694173 0)
(1.0121679 0.00016839215 0)
(1.0168122 0.0021941397 0)
(1.0161252 0.0020933516 0)
(1.0155849 0.0019311801 0)
(1.0149193 0.0017640108 0)
(1.0143249 0.0015940527 0)
(1.0137147 0.0014073142 0)
(1.0131679 0.0011590016 0)
(1.0126668 0.00084397817 0)
(1.0122592 0.00049880106 0)
(1.0119512 0.00016106035 0)
(1.0171402 0.0022804959 0)
(1.0165135 0.0022315588 0)
(1.0159693 0.0021004601 0)
(1.015301 0.0019662068 0)
(1.0146909 0.0018277299 0)
(1.0140459 0.0016739548 0)
(1.0134549 0.0014544017 0)
(1.0128974 0.0011590311 0)
(1.0124216 0.00081651638 0)
(1.0120375 0.00047669063 0)
(1.0117519 0.00015580954 0)
(1.0174702 0.0023362483 0)
(1.016919 0.0023502359 0)
(1.0163594 0.0022544066 0)
(1.0156914 0.0021499648 0)
(1.0150785 0.0020448477 0)
(1.014409 0.0019273229 0)
(1.0137818 0.0017370728 0)
(1.0131761 0.0014630178 0)
(1.0126434 0.0011247653 0)
(1.012192 0.00078109654 0)
(1.0118338 0.0004597111 0)
(1.0115646 0.00015355415 0)
(1.0178023 0.0023563871 0)
(1.0173488 0.0024546824 0)
(1.0167498 0.0024010706 0)
(1.0160781 0.0023185439 0)
(1.0154765 0.0022447215 0)
(1.0147964 0.0021674828 0)
(1.0141404 0.00200928 0)
(1.0134921 0.0017578899 0)
(1.0129129 0.0014275015 0)
(1.0124016 0.0010771931 0)
(1.0119809 0.00075284528 0)
(1.0116431 0.00045152709 0)
(1.0113856 0.00015297414 0)
(1.0181024 0.0023630987 0)
(1.0177413 0.0025471978 0)
(1.0170899 0.0025592799 0)
(1.016441 0.0024744363 0)
(1.0158723 0.0024246394 0)
(1.0152028 0.0023924499 0)
(1.0145245 0.0022723642 0)
(1.0138369 0.0020461111 0)
(1.0132175 0.0017252042 0)
(1.0126557 0.0013710761 0)
(1.0121796 0.001038939 0)
(1.0117828 0.00073828685 0)
(1.0114615 0.00044918401 0)
(1.0112133 0.00015160616 0)
(1.0184057 0.0023286006 0)
(1.0180689 0.0026964779 0)
(1.0173465 0.0027476096 0)
(1.0167606 0.0026200727 0)
(1.0162513 0.0025764553 0)
(1.0156254 0.0025957 0)
(1.0149314 0.0025267696 0)
(1.0142039 0.0023301021 0)
(1.0135479 0.0020190452 0)
(1.012944 0.0016635855 0)
(1.0124192 0.001323787 0)
(1.0119703 0.0010191388 0)
(1.0115942 0.0007336512 0)
(1.0112868 0.00044572425 0)
(1.0110497 0.00014722334 0)
(1.0187155 0.0023301559 0)
(1.0183866 0.0028222245 0)
(1.0176112 0.0029280412 0)
(1.0170588 0.0027370481 0)
(1.0166355 0.0026874277 0)
(1.0160738 0.0027646097 0)
(1.0153626 0.0027715563 0)
(1.0145895 0.0026131059 0)
(1.013896 0.0023107119 0)
(1.013257 0.0019548398 0)
(1.0126915 0.0016091686 0)
(1.0121952 0.0012989332 0)
(1.0117708 0.0010122357 0)
(1.0114132 0.00072829188 0)
(1.0111204 0.00043416612 0)
(1.0108982 0.00013875298 0)
(1.0190595 0.0022191023 0)
(1.0187082 0.0030605519 0)
(1.0177992 0.0030866752 0)
(1.0173777 0.0028069088 0)
(1.017045 0.002719395 0)
(1.016558 0.0028931205 0)
(1.0158245 0.0030100561 0)
(1.0149929 0.0029018144 0)
(1.0142525 0.0026032134 0)
(1.0135858 0.0022446859 0)
(1.0129881 0.0018956729 0)
(1.0124502 0.0015803658 0)
(1.0119815 0.0012899957 0)
(1.0115796 0.0010039982 0)
(1.011241 0.0007106208 0)
(1.0109656 0.00041058506 0)
(1.0107626 0.00012661139 0)
(1.0193868 0.002337894 0)
(1.0190176 0.0031988795 0)
(1.0179295 0.0032524697 0)
(1.0176157 0.002819135 0)
(1.0174566 0.0027019054 0)
(1.0170769 0.0029546601 0)
(1.0163342 0.0032407892 0)
(1.0154127 0.0032063698 0)
(1.0146063 0.0029027774 0)
(1.0139206 0.0025327769 0)
(1.0133008 0.0021824041 0)
(1.0127278 0.0018655862 0)
(1.0122188 0.0015703414 0)
(1.0117761 0.0012786143 0)
(1.0113981 0.00097997339 0)
(1.0110803 0.00067312364 0)
(1.0108266 0.00037553525 0)
(1.0106453 0.00011248181 0)
(1.0198145 0.0020021557 0)
(1.0193436 0.0037042263 0)
(1.0178904 0.0034663298 0)
(1.0177342 0.0028159038 0)
(1.0179164 0.0026001296 0)
(1.0175956 0.0029902367 0)
(1.0168802 0.0034792825 0)
(1.0158412 0.0035429027 0)
(1.0149484 0.0032173001 0)
(1.0142506 0.0028182973 0)
(1.0136217 0.0024667801 0)
(1.0130218 0.0021549201 0)
(1.0124756 0.0018572487 0)
(1.0119945 0.0015567608 0)
(1.0115809 0.0012468401 0)
(1.0112293 0.00093048203 0)
(1.0109352 0.00061567662 0)
(1.0107064 0.00033365435 0)
(1.0105461 9.8617252e-05 0)
(1.0200434 0.0024836498 0)
(1.0195826 0.0038380852 0)
(1.0177239 0.0037005721 0)
(1.0176854 0.0027366389 0)
(1.0182935 0.002397353 0)
(1.018218 0.0029904 0)
(1.0174309 0.003733293 0)
(1.0162611 0.0039414962 0)
(1.015257 0.0035626577 0)
(1.0145587 0.0030986539 0)
(1.0139429 0.0027431835 0)
(1.0133282 0.0024465669 0)
(1.012747 0.0021531274 0)
(1.0122271 0.0018438158 0)
(1.0117803 0.0015182314 0)
(1.0113996 0.0011841201 0)
(1.0110765 0.00085304289 0)
(1.0108096 0.00054590516 0)
(1.0106053 0.00029159376 0)
(1.0104628 8.6946301e-05 0)
(1.0203699 0.0016750474 0)
(1.019944 0.0048408792 0)
(1.01726 0.004118399 0)
(1.0174465 0.0025334961 0)
(1.0187096 0.0019864144 0)
(1.0189788 0.0029466502 0)
(1.018047 0.0040103207 0)
(1.0166417 0.0044185608 0)
(1.0155074 0.0039545526 0)
(1.0148229 0.0033763305 0)
(1.0142537 0.0030024217 0)
(1.0136442 0.0027349447 0)
(1.0130312 0.0024586709 0)
(1.0124694 0.0021445164 0)
(1.0119876 0.0017999985 0)
(1.0115805 0.0014424506 0)
(1.0112361 0.0010880436 0)
(1.0109429 0.00075415219 0)
(1.0107053 0.00047523096 0)
(1.0105211 0.00025513757 0)
(1.010392 7.8431737e-05 0)
(1.020098 0.002721842 0)
(1.0199759 0.0049853126 0)
(1.0166831 0.0044468876 0)
(1.0169624 0.0023750115 0)
(1.0190696 0.0014247589 0)
(1.0199466 0.002759115 0)
(1.0188081 0.0043711198 0)
(1.0169878 0.0049963197 0)
(1.0156426 0.0044091766 0)
(1.0150036 0.0036396311 0)
(1.0145397 0.0032325739 0)
(1.0139676 0.0030109444 0)
(1.0133302 0.0027724424 0)
(1.0127199 0.0024629149 0)
(1.0121968 0.0020984544 0)
(1.0117625 0.0017110299 0)
(1.0114005 0.00132626 0)
(1.0110927 0.00096254173 0)
(1.0108327 0.00065038139 0)
(1.0106206 0.00041315263 0)
(1.0104506 0.00022737436 0)
(1.0103301 7.2981973e-05 0)
(1.0198984 0.0013359063 0)
(1.0201414 0.0065510556 0)
(1.015513 0.0052559553 0)
(1.0161783 0.0017408066 0)
(1.0194864 0.00049235021 0)
(1.0211204 0.0025265702 0)
(1.0197454 0.0048115953 0)
(1.0173075 0.0057323476 0)
(1.0156752 0.0049327924 0)
(1.0150949 0.0038956939 0)
(1.0147688 0.0033972998 0)
(1.0142977 0.0032554896 0)
(1.0136516 0.0030896954 0)
(1.0129818 0.0028037155 0)
(1.0124042 0.0024201237 0)
(1.011938 0.0019963451 0)
(1.0115602 0.0015727476 0)
(1.0112442 0.001172964 0)
(1.010974 0.00082518705 0)
(1.0107454 0.00055814198 0)
(1.0105517 0.00036424916 0)
(1.0103906 0.00020858141 0)
(1.0102744 6.985191e-05 0)
(1.0191608 0.0029847356 0)
(1.0191892 0.0066786429 0)
(1.0146002 0.005696899 0)
(1.0149444 0.0016374429 0)
(1.0197006 -0.00070560315 0)
(1.0226111 0.0019428324 0)
(1.0209285 0.0054416386 0)
(1.0175896 0.0067036187 0)
(1.0154891 0.0055676095 0)
(1.0150218 0.0040917551 0)
(1.0149965 0.0035059587 0)
(1.0146459 0.003438355 0)
(1.0140109 0.0033966435 0)
(1.0132657 0.0031710199 0)
(1.0126093 0.0027746582 0)
(1.0120997 0.0023053514 0)
(1.011706 0.0018328954 0)
(1.0113867 0.0013886033 0)
(1.0111153 0.00099960101 0)
(1.0108816 0.0006995013 0)
(1.0106771 0.00048577648 0)
(1.0104945 0.0003287201 0)
(1.0103382 0.00019717656 0)
(1.0102226 6.8127043e-05 0)
(1.0194697 0.0015857313 0)
(1.0171522 0.0088157458 0)
(1.0115408 0.0072369809 0)
(1.013318 0.00020763369 0)
(1.0202042 -0.0023681329 0)
(1.0243863 0.0014640207 0)
(1.0223832 0.0061726412 0)
(1.017837 0.0080084037 0)
(1.0150327 0.0063351944 0)
(1.0147279 0.0042370692 0)
(1.0151929 0.0034247135 0)
(1.0150515 0.0035206421 0)
(1.0144465 0.0036807699 0)
(1.0135917 0.0035692919 0)
(1.0128167 0.0031744524 0)
(1.0122413 0.0026484779 0)
(1.0118282 0.0021119597 0)
(1.0115102 0.0016129157 0)
(1.0112451 0.0011763011 0)
(1.0110168 0.00083764755 0)
(1.0108116 0.00059773219 0)
(1.0106233 0.00043312503 0)
(1.0104463 0.00030470773 0)
(1.0102912 0.00019083112 0)
(1.0101738 6.6977202e-05 0)
(1.0185829 0.0034285635 0)
(1.0179837 0.0093831143 0)
(1.0083119 0.0073411356 0)
(1.0107034 0.00043207404 0)
(1.0200622 -0.0045277148 0)
(1.0267413 0.00017192012 0)
(1.0242234 0.0073293604 0)
(1.0179781 0.0097406274 0)
(1.0142049 0.0073462459 0)
(1.0141157 0.0042563874 0)
(1.015288 0.0031500985 0)
(1.0155943 0.0034657333 0)
(1.0149699 0.003891378 0)
(1.0139997 0.0040083733 0)
(1.0130365 0.003640373 0)
(1.012356 0.0030395398 0)
(1.0119156 0.0024167886 0)
(1.0116045 0.0018485732 0)
(1.0113536 0.0013572923 0)
(1.0111386 0.00097489689 0)
(1.010944 0.00070346163 0)
(1.0107598 0.00052098185 0)
(1.0105805 0.00039538584 0)
(1.0104049 0.00029010482 0)
(1.0102476 0.00018722903 0)
(1.0101276 6.5757479e-05 0)
(1.0137971 0.0020076948 0)
(1.0173848 0.012234053 0)
(1.0059231 0.0095586562 0)
(1.007749 -0.0022184206 0)
(1.0206547 -0.0071312063 0)
(1.0291184 -0.00056659348 0)
(1.0263723 0.0084495248 0)
(1.0180554 0.012009895 0)
(1.0129064 0.0085845643 0)
(1.0130722 0.004198767 0)
(1.0152445 0.0025394771 0)
(1.0162784 0.0032263811 0)
(1.0156364 0.0040906906 0)
(1.0144866 0.004494458 0)
(1.0132862 0.0042024042 0)
(1.0124371 0.0035026061 0)
(1.0119538 0.0027554186 0)
(1.0116577 0.0020966399 0)
(1.0114318 0.0015431567 0)
(1.011238 0.0011132344 0)
(1.0110615 0.00080544636 0)
(1.0108924 0.00059839321 0)
(1.0107226 0.00046454583 0)
(1.010546 0.00036788005 0)
(1.0103691 0.00028229645 0)
(1.0102066 0.00018432301 0)
(1.0100836 6.4075924e-05 0)
(1.0020376 0.004711417 0)
(1.0068665 0.012282148 0)
(1.0041224 0.010329098 0)
(1.0045899 -0.0022992028 0)
(1.0199831 -0.01044206 0)
(1.0316694 -0.0031038386 0)
(1.0288978 0.010583542 0)
(1.0177933 0.014976162 0)
(1.0109552 0.010204498 0)
(1.0114944 0.0039321301 0)
(1.0150208 0.0015673348 0)
(1.0171104 0.0026410725 0)
(1.0165926 0.0042680534 0)
(1.0150649 0.005066415 0)
(1.0135483 0.0049111983 0)
(1.012469 0.0040704551 0)
(1.0119237 0.00314119 0)
(1.0116544 0.0023562551 0)
(1.0114705 0.0017308851 0)
(1.0113079 0.0012530258 0)
(1.0111554 0.00090646756 0)
(1.0110085 0.00066880661 0)
(1.0108585 0.00051741826 0)
(1.0106967 0.00042204712 0)
(1.0105191 0.00034833205 0)
(1.0103376 0.00027699898 0)
(1.0101679 0.00018021891 0)
(1.0100425 6.1749904e-05 0)
(0.98940034 0.0044239129 0)
(0.9899935 0.016240152 0)
(0.99019324 0.013089429 0)
(1.0010993 -0.0059817908 0)
(1.0206403 -0.014136485 0)
(1.0345439 -0.0036529141 0)
(1.0310926 0.012275215 0)
(1.0174321 0.018686396 0)
(1.0081933 0.012240803 0)
(1.0091729 0.0035482313 0)
(1.0145511 -1.9006767e-05 0)
(1.0181604 0.0016798957 0)
(1.0179264 0.0043353571 0)
(1.0158927 0.0057797976 0)
(1.0137981 0.0057969971 0)
(1.0124285 0.0047950064 0)
(1.0117897 0.0035879415 0)
(1.0115733 0.002623721 0)
(1.0114598 0.001912994 0)
(1.0113442 0.0013905438 0)
(1.0112205 0.0010081054 0)
(1.0110988 0.00073654031 0)
(1.0109759 0.00055880332 0)
(1.0108399 0.00045326192 0)
(1.0106806 0.0003877635 0)
(1.0104991 0.00033395264 0)
(1.0103091 0.00026889143 0)
(1.010132 0.00017347256 0)
(1.0100047 5.881418e-05 0)
(0.97568246 0.0069485592 0)
(0.97523908 0.017757646 0)
(0.97435847 0.012616341 0)
(0.99222477 -0.0056426279 0)
(1.0200389 -0.018754759 0)
(1.0390159 -0.0072105852 0)
(1.0330097 0.015876309 0)
(1.0157653 0.023430204 0)
(1.0042838 0.014770808 0)
(1.005988 0.0028360016 0)
(1.0137519 -0.0021543998 0)
(1.0194808 6.2308812e-05 0)
(1.0197694 0.0043048934 0)
(1.0170647 0.0066794479 0)
(1.0141153 0.0069478456 0)
(1.0122549 0.0057073804 0)
(1.011515 0.0041205373 0)
(1.0113815 0.002892934 0)
(1.0113857 0.002073982 0)
(1.0113444 0.0015156505 0)
(1.0112569 0.0011087724 0)
(1.0111592 0.00080550319 0)
(1.0110644 0.00059498696 0)
(1.010962 0.00046727997 0)
(1.0108349 0.00039834264 0)
(1.0106735 0.00035719262 0)
(1.0104848 0.00031882221 0)
(1.0102835 0.00025490301 0)
(1.0100999 0.00016419297 0)
(1.0099703 5.5636215e-05 0)
(0.95983053 0.0076490048 -3.15033e-24)
(0.95901922 0.020615971 0)
(0.96046294 0.014656088 0)
(0.98258005 -0.011685552 0)
(1.019054 -0.023682907 0)
(1.0425465 -0.0081820795 0)
(1.037468 0.018042538 0)
(1.0129635 0.02904083 0)
(0.99883186 0.018023314 0)
(1.0015899 0.0018879764 0)
(1.0126161 -0.0052947621 0)
(1.0211584 -0.0021567867 0)
(1.0222406 0.0039864368 0)
(1.0187181 0.0078640195 0)
(1.0145323 0.0084854913 0)
(1.0119025 0.0068866586 0)
(1.0110357 0.0047633818 0)
(1.0110313 0.0031489596 0)
(1.011229 0.0021895551 0)
(1.0113078 0.0016090579 0)
(1.01127 0.0012012908 0)
(1.0111921 0.00087833464 0)
(1.0111194 0.0006326684 0)
(1.0110511 0.00047207537 0)
(1.0109657 0.00038578065 0)
(1.0108419 0.00034752182 0)
(1.0106749 0.00032723724 0)
(1.0104756 0.00029836715 0)
(1.0102623 0.0002369925 0)
(1.0100716 0.00015420541 0)
(1.0099391 5.2831824e-05 0)
(0.94168159 0.0098225014 5.9557886e-24)
(0.94177512 0.022877536 3.2876524e-24)
(0.94583478 0.013140893 0)
(0.97221564 -0.014566279 0)
(1.016514 -0.029300301 0)
(1.0430176 -0.014473256 0)
(1.0446442 0.024052373 0)
(1.011887 0.035226545 0)
(0.99174893 0.021486501 0)
(0.99594787 0.00048296046 0)
(1.0109582 -0.0092564959 0)
(1.0232752 -0.0054534348 0)
(1.0255553 0.0035156677 0)
(1.0209772 0.0093341252 0)
(1.0151019 0.010574534 0)
(1.0113224 0.0084435164 0)
(1.0102317 0.0055378534 0)
(1.0104662 0.0033786246 0)
(1.010961 0.0022190569 0)
(1.0112356 0.0016390153 0)
(1.0112726 0.0012704557 0)
(1.0112082 0.0009547598 0)
(1.0111428 0.00067968886 0)
(1.0111006 0.0004769539 0)
(1.0110587 0.00035872483 0)
(1.0109847 0.00030889354 0)
(1.0108597 0.00029677497 0)
(1.0106842 0.00029280111 0)
(1.0104707 0.00027075103 0)
(1.0102454 0.00021908434 0)
(1.0100466 0.00014553947 0)
(1.0099106 5.0999465e-05 0)
(0.92178679 0.011460895 -5.9793465e-24)
(0.92252846 0.025680608 -4.8631785e-24)
(0.92837333 0.014070437 0)
(0.96169552 -0.02063146 0)
(1.0093019 -0.034949827 0)
(1.0399983 -0.014662202 0)
(1.0452168 0.025660495 0)
(1.0168261 0.043906936 0)
(0.9846273 0.025782521 0)
(0.98861154 -0.0016399354 0)
(1.0089614 -0.014708857 0)
(1.0258748 -0.0096040036 0)
(1.0298407 0.0024871191 0)
(1.0240491 0.011299103 0)
(1.0158444 0.013369023 0)
(1.0104376 0.010551725 0)
(1.0089784 0.0064697071 0)
(1.0095885 0.0035572236 0)
(1.0105445 0.0021043352 0)
(1.0111327 0.0015564527 0)
(1.0112874 0.0012908864 0)
(1.0112285 0.0010305646 0)
(1.0111459 0.00074402443 0)
(1.0111093 0.00049467034 0)
(1.011104 0.00032839625 0)
(1.0110854 0.00024859487 0)
(1.0110186 0.00022954913 0)
(1.0108895 0.00024034131 0)
(1.0107009 0.00025207763 0)
(1.0104706 0.00024141461 0)
(1.0102324 0.00020353107 0)
(1.0100242 0.00013971289 0)
(1.0098837 5.0577259e-05 0)
(0.90144442 0.013338797 0)
(0.90241079 0.028423108 4.8708187e-24)
(0.90957483 0.013531013 0)
(0.94656902 -0.025272238 0)
(1.000576 -0.039470433 0)
(1.0318875 -0.01831442 0)
(1.0326306 0.032140081 0)
(1.0110768 0.053157979 0)
(0.97671153 0.031253076 0)
(0.98010033 -0.0039432813 0)
(1.0061729 -0.021257118 0)
(1.0291181 -0.015358448 0)
(1.0353553 0.0012605341 0)
(1.0280563 0.013656825 0)
(1.0168426 0.01711036 0)
(1.0091459 0.013349863 0)
(1.0071249 0.0076604972 0)
(1.0082626 0.0036132155 0)
(1.0099309 0.0017812169 0)
(1.0109977 0.0012935388 0)
(1.0113383 0.0012171334 0)
(1.0112853 0.0010949475 0)
(1.0111494 0.00083626365 0)
(1.0110836 0.00054237468 0)
(1.0110956 0.00031110742 0)
(1.0111305 0.00017864069 0)
(1.0111324 0.00013245861 0)
(1.0110691 0.00014312437 0)
(1.01093 0.00017934042 0)
(1.0107234 0.00020957765 0)
(1.0104752 0.00021547312 0)
(1.0102223 0.00019247072 0)
(1.0100035 0.00013791622 0)
(1.0098577 5.1835915e-05 0)
(0.88094074 0.015133676 1.2043245e-24)
(0.88268209 0.031099578 0)
(0.89017369 0.013650764 -4.3938319e-23)
(0.92925856 -0.030611261 0)
(0.98744287 -0.045400638 0)
(1.0209184 -0.016612155 0)
(1.0150373 0.037257935 0)
(0.98614042 0.063533836 0)
(0.96341512 0.039594276 0)
(0.96893558 -0.0075537524 0)
(1.0029501 -0.029670444 0)
(1.0328129 -0.02204441 0)
(1.042086 -0.00089037802 0)
(1.0332569 0.016828112 0)
(1.0180534 0.022011441 0)
(1.007304 0.017094794 0)
(1.0044853 0.0091240346 0)
(1.0063312 0.0035290685 0)
(1.0090424 0.0011238964 0)
(1.0108365 0.00075383447 0)
(1.0114786 0.0010182371 0)
(1.0114014 0.0011291641 0)
(1.0111851 0.00096646138 0)
(1.0110386 0.00064396975 0)
(1.0110321 0.00032924047 0)
(1.011108 0.00011604947 0)
(1.0111842 1.613676e-05 0)
(1.0112027 6.9676996e-06 0)
(1.0111345 5.3131594e-05 0)
(1.0109793 0.00011757324 0)
(1.0107519 0.00017049773 0)
(1.0104836 0.00019568137 0)
(1.0102143 0.00018814112 0)
(1.0099839 0.00014088195 0)
(1.0098316 5.4942243e-05 0)
(0.86129388 0.016703872 -1.1188543e-23)
(0.86372064 0.033616986 -9.9047018e-24)
(0.8713683 0.013332965 4.3929207e-23)
(0.91068786 -0.036216993 3.8984737e-23)
(0.9706808 -0.050757206 -7.0608268e-23)
(1.0073024 -0.018712801 0)
(0.99940723 0.046971041 0)
(0.96407848 0.07249996 0)
(0.9442049 0.04552924 0)
(0.95555259 -0.010056313 0)
(0.99813341 -0.039284881 0)
(1.0369808 -0.03081448 0)
(1.0500453 -0.0030873183 0)
(1.0395491 0.020522259 0)
(1.0195748 0.028375353 0)
(1.0047286 0.021977916 0)
(1.0007928 0.011028689 0)
(1.0036065 0.0031711134 0)
(1.0077913 3.4001452e-05 0)
(1.010653 -0.00020081328 0)
(1.0117685 0.00058629301 0)
(1.011693 0.0011369275 0)
(1.011302 0.0011500241 0)
(1.0109999 0.00082538911 0)
(1.0109183 0.00041380083 0)
(1.0110079 8.5164009e-05 0)
(1.0111553 -0.00010330345 0)
(1.0112695 -0.00016049319 0)
(1.0112952 -0.00012270608 0)
(1.0112138 -3.6115803e-05 0)
(1.0110365 6.0688417e-05 0)
(1.0107846 0.00014050865 0)
(1.010495 0.00018523137 0)
(1.0102085 0.00019098605 0)
(1.0099644 0.00014900312 0)
(1.0098045 5.9917885e-05 0)
(0.84361967 0.017980625 1.5014755e-23)
(0.84655409 0.035768573 8.6256151e-24)
(0.85388388 0.013127969 0)
(0.89146599 -0.041799711 2.4004942e-24)
(0.95131327 -0.056155184 7.0254276e-23)
(0.99078077 -0.020983654 1.8444619e-22)
(0.98225541 0.054224226 9.4181216e-23)
(0.94562822 0.081450346 0)
(0.92595011 0.051561382 0)
(0.94263307 -0.015550726 0)
(0.99234869 -0.051231525 0)
(1.0414699 -0.040106925 0)
(1.058911 -0.0066239439 0)
(1.0466892 0.02555491 0)
(1.0209658 0.036493408 0)
(1.0011947 0.028283216 0)
(0.99578066 0.013352128 0)
(0.9998628 0.0025679808 0)
(1.0060539 -0.001719813 0)
(1.0104495 -0.0017006318 0)
(1.0122787 -0.00019219216 0)
(1.0122638 0.001050514 0)
(1.0115613 0.0013714628 0)
(1.0110202 0.0011301987 0)
(1.0107658 0.00060368544 0)
(1.0108223 0.00011841257 0)
(1.0110281 -0.00020375925 0)
(1.0112459 -0.00034667855 0)
(1.0113861 -0.00034338084 0)
(1.0114075 -0.00025015753 0)
(1.0113057 -0.00011813735 0)
(1.0110998 1.5594796e-05 0)
(1.0108207 0.00012280246 0)
(1.0105059 0.00018578187 0)
(1.0102018 0.00020262227 0)
(1.0099438 0.00016249998 0)
(1.0097757 6.6628568e-05 0)
(0.82915229 0.019011458 -9.4317032e-25)
(0.83203115 0.037492547 -3.623442e-24)
(0.83850016 0.012775164 -2.2714162e-23)
(0.8727446 -0.047075432 -2.4850361e-23)
(0.93037555 -0.061761549 -4.2718592e-23)
(0.97067678 -0.02195503 2.0935004e-22)
(0.96524511 0.059459969 2.5898119e-22)
(0.92702317 0.091284988 -4.1103871e-23)
(0.90896717 0.052404883 0)
(0.92946222 -0.020300238 0)
(0.98740523 -0.065054012 0)
(1.0473567 -0.053226326 0)
(1.0703133 -0.0095077246 0)
(1.0544256 0.031384334 0)
(1.0216228 0.046702769 0)
(0.9962067 0.036329793 0)
(0.98904309 0.016293956 0)
(0.99485356 0.0014566782 0)
(1.0037215 -0.0042061712 0)
(1.0102138 -0.0039955611 0)
(1.0131004 -0.0014353559 0)
(1.013217 0.00081077669 0)
(1.0121161 0.0017094787 0)
(1.011122 0.0015668687 0)
(1.0106107 0.00096120113 0)
(1.0105458 0.00026229982 0)
(1.0107827 -0.00025466961 0)
(1.0111078 -0.00053361312 0)
(1.0113822 -0.00060161053 0)
(1.0115327 -0.00052416482 0)
(1.0115379 -0.0003678456 0)
(1.011407 -0.00018521215 0)
(1.0111679 -1.3508313e-05 0)
(1.0108577 0.00011987692 0)
(1.0105185 0.00020020827 0)
(1.0101939 0.00022379759 0)
(1.0099214 0.00018108543 0)
(1.0097444 7.4814164e-05 0)
(0.81790003 0.01961713 -4.2194009e-24)
(0.82089685 0.038744577 7.6174661e-25)
(0.8261865 0.012436104 0)
(0.85507909 -0.051982441 2.8825308e-23)
(0.90853407 -0.06685984 -6.362832e-23)
(0.94939089 -0.024082059 0)
(0.94475794 0.06710649 -4.1538152e-22)
(0.91037918 0.10001661 -4.426956e-22)
(0.89034693 0.060071146 0)
(0.91714212 -0.030061373 0)
(0.98214285 -0.080162419 0)
(1.0536754 -0.065962353 0)
(1.0859057 -0.016156506 0)
(1.0662668 0.039099391 0)
(1.0216105 0.059334299 0)
(0.98894272 0.046060594 0)
(0.98024766 0.019875055 0)
(0.98824028 -0.00011167131 0)
(1.0006483 -0.0078225798 0)
(1.0099525 -0.0071994603 0)
(1.0143365 -0.0033582664 0)
(1.0147111 0.00036098981 0)
(1.0131019 0.0021474815 0)
(1.0114132 0.0022490313 0)
(1.0104538 0.0015340195 0)
(1.0101816 0.00057424706 0)
(1.0103987 -0.00021332167 0)
(1.010827 -0.00069686665 0)
(1.011255 -0.00088518676 0)
(1.0115635 -0.00085483046 0)
(1.0117066 -0.00069213663 0)
(1.0116828 -0.00046683468 0)
(1.011515 -0.00023201567 0)
(1.0112383 -2.3764336e-05 0)
(1.0108944 0.00013287019 0)
(1.0105292 0.00022781224 0)
(1.0101839 0.00025347985 0)
(1.0098965 0.00020415472 0)
(1.0097104 8.4167823e-05 0)
(0.81129603 0.019749907 0)
(0.81394721 0.039457386 0)
(0.81731567 0.011930124 -7.8885304e-25)
(0.84018987 -0.056143537 0)
(0.88628161 -0.071582171 -2.9015234e-24)
(0.92628393 -0.025612848 2.1647781e-22)
(0.92466894 0.073340862 7.6084558e-22)
(0.89196227 0.10951646 -2.2471221e-23)
(0.87400562 0.066871233 0)
(0.89971555 -0.035410878 0)
(0.97816205 -0.09525539 0)
(1.0559337 -0.082870313 0)
(1.0966863 -0.020796746 0)
(1.0847834 0.046130463 0)
(1.0263217 0.074099399 0)
(0.97979646 0.057939583 0)
(0.96868424 0.023982684 0)
(0.9798406 -0.0024697297 0)
(0.99667607 -0.012555362 0)
(1.009645 -0.011745831 0)
(1.0161048 -0.0060579549 0)
(1.0169305 -0.00044668268 0)
(1.0146925 0.0027205814 0)
(1.0120323 0.0032628625 0)
(1.0103228 0.0024170285 0)
(1.0097306 0.0011423832 0)
(1.0098482 -3.5770903e-05 0)
(1.0103703 -0.00080877923 0)
(1.0109716 -0.0011802382 0)
(1.0114699 -0.001237389 0)
(1.0117858 -0.0010915376 0)
(1.0119029 -0.0008357773 0)
(1.0118385 -0.00053998583 0)
(1.011627 -0.00025485548 0)
(1.0113088 -1.3683656e-05 0)
(1.0109303 0.00016331241 0)
(1.0105376 0.00026732812 0)
(1.0101709 0.0002910554 0)
(1.0098685 0.00023106072 0)
(1.0096733 9.4327243e-05 0)
(0.81148725 0.039649451 -6.1743503e-25)
(0.81016786 0.019529931 0)
(0.81257813 0.011526854 -9.353734e-24)
(0.82839926 -0.059544272 1.820601e-25)
(0.8656435 -0.075568094 -5.2911853e-23)
(0.90250499 -0.027163288 -2.5520361e-25)
(0.90291604 0.079907208 7.5679172e-25)
(0.8744874 0.11848382 -2.5982333e-22)
(0.85737687 0.074540735 -7.591148e-23)
(0.88237491 -0.037519127 0)
(0.96554148 -0.11171688 -3.7807197e-22)
(1.0557086 -0.09265329 0)
(1.0979832 -0.032558669 0)
(1.1013391 0.05606034 0)
(1.037196 0.090955576 0)
(0.97287685 0.071749417 0)
(0.95415622 0.028832514 0)
(0.96913658 -0.0057636049 0)
(0.99176568 -0.018975099 0)
(1.0092823 -0.017590569 0)
(1.0185273 -0.0099524476 0)
(1.0200958 -0.0016282756 0)
(1.0170928 0.0033873669 0)
(1.013125 0.0047287407 0)
(1.0103096 0.0037630329 0)
(1.0091311 0.0020256875 0)
(1.0091171 0.00037040596 0)
(1.009696 -0.00082645545 0)
(1.0104916 -0.0014715186 0)
(1.0112181 -0.0016682713 0)
(1.0117465 -0.0015679645 0)
(1.0120419 -0.0012962438 0)
(1.0121157 -0.00094591699 0)
(1.0120008 -0.00058249253 0)
(1.0117399 -0.00025180031 0)
(1.0113776 1.7531046e-05 0)
(1.0109637 0.00021064565 0)
(1.0105427 0.00031770421 0)
(1.0101545 0.00033476086 0)
(1.0098373 0.0002605609 0)
(1.0096332 0.00010494447 0)
(0.81145312 0.011290722 8.3678421e-24)
(0.81451019 0.039536766 0)
(0.81505926 0.018807281 1.1872054e-24)
(0.81835139 -0.061984325 -1.8192162e-25)
(0.84759979 -0.078617966 2.3812774e-23)
(0.87931291 -0.028565943 3.5791615e-22)
(0.88162563 0.085758114 -6.5359055e-22)
(0.85715439 0.12693841 -1.3664285e-22)
(0.84210907 0.081937343 -6.6651136e-23)
(0.86492041 -0.041072776 2.619802e-23)
(0.94805248 -0.12565851 -4.3774641e-22)
(1.0461917 -0.11069171 3.9336935e-22)
(1.0946932 -0.033117208 0)
(1.1009046 0.062531888 0)
(1.0457046 0.11319124 0)
(0.96783007 0.08937773 0)
(0.93753914 0.034037472 0)
(0.95616781 -0.010094525 0)
(0.98560091 -0.026998691 0)
(1.008918 -0.025438713 0)
(1.0217159 -0.014961062 0)
(1.0244416 -0.0035240034 0)
(1.0205829 0.0042624492 0)
(1.014852 0.0067440792 0)
(1.0104889 0.0057524024 0)
(1.0083901 0.0033830432 0)
(1.0081217 0.0010625438 0)
(1.0087503 -0.00071453356 0)
(1.0097669 -0.0017354188 0)
(1.010767 -0.002143233 0)
(1.0115568 -0.0021257971 0)
(1.0120736 -0.0018553234 0)
(1.012323 -0.0014570627 0)
(1.012339 -0.0010166608 0)
(1.0121657 -0.00059193634 0)
(1.0118511 -0.00022219719 0)
(1.0114435 6.9952301e-05 0)
(1.0109931 0.00027252723 0)
(1.0105437 0.00037735735 0)
(1.0101344 0.00038286877 0)
(1.0098028 0.00029191444 0)
(1.00959 0.00011575092 0)
(0.81277622 -0.063209894 4.8469653e-24)
(0.81666437 0.011146504 2.5246351e-23)
(0.82408088 0.038873687 0)
(0.82380644 0.01765025 5.0605504e-25)
(0.83019944 -0.080899756 -1.688612e-23)
(0.85808282 -0.029569457 -1.571702e-22)
(0.86147355 0.090827264 0)
(0.8415253 0.13434219 1.3569918e-22)
(0.82890044 0.089088586 -3.7031891e-23)
(0.84831168 -0.044153567 -2.5873109e-23)
(0.92903266 -0.14016702 5.0198271e-22)
(1.0299553 -0.12848972 4.5443257e-22)
(1.0855507 -0.042060338 0)
(1.084099 0.074536219 0)
(1.0315724 0.13553816 0)
(0.95659234 0.11139697 0)
(0.92022169 0.041996786 0)
(0.93983486 -0.016405609 0)
(0.97858466 -0.037224934 0)
(1.0084 -0.034899148 0)
(1.0258079 -0.021860433 0)
(1.0302336 -0.0059667585 0)
(1.0254286 0.0051550484 0)
(1.0174567 0.0095192948 0)
(1.0109237 0.0085776754 0)
(1.0075069 0.0054104734 0)
(1.0067515 0.0021264642 0)
(1.0074646 -0.00037774155 0)
(1.0087267 -0.0019662415 0)
(1.0100691 -0.0026695618 0)
(1.0111811 -0.0027750596 0)
(1.0119706 -0.0025240877 0)
(1.0124378 -0.0020841462 0)
(1.0126203 -0.0015669326 0)
(1.012567 -0.0010453592 0)
(1.0123294 -0.00056782645 0)
(1.0119586 -0.00016641535 0)
(1.0115048 0.00014201428 0)
(1.0110176 0.00034691406 0)
(1.0105401 0.00044404206 0)
(1.01011 0.0004347218 0)
(1.0097648 0.00032431342 0)
(1.0095441 0.00012647741 0)
(0.81818645 -0.082056934 -9.7303793e-24)
(0.81395744 -0.06335651 -6.2043912e-24)
(0.82782612 0.011136342 -2.2586807e-23)
(0.83730454 0.037641334 -1.0445077e-23)
(0.8356417 0.016131589 -3.0535279e-24)
(0.83836039 -0.030434487 1.4979179e-22)
(0.84388842 0.094963256 8.6466069e-23)
(0.82838977 0.14047819 0)
(0.81850611 0.09534666 3.0810937e-23)
(0.83357604 -0.04694202 1.7438183e-23)
(0.909047 -0.15527521 0)
(1.0107472 -0.14501598 -6.9095741e-22)
(1.0714344 -0.058815134 0)
(1.0673681 0.086358831 0)
(1.0047567 0.15718751 0)
(0.93972215 0.13385518 0)
(0.90281933 0.051019198 0)
(0.921442 -0.022645474 0)
(0.96977777 -0.049684169 0)
(1.0080463 -0.047024145 0)
(1.0307783 -0.030098578 0)
(1.0377035 -0.0097268395 0)
(1.0320399 0.0064208842 0)
(1.0211422 0.0131367 0)
(1.0117335 0.012513164 0)
(1.0064397 0.0083116194 0)
(1.0049346 0.0037298106 0)
(1.0056925 0.00019002822 0)
(1.0072852 -0.0021164469 0)
(1.0090541 -0.003238079 0)
(1.0105753 -0.0035318131 0)
(1.0117043 -0.0033202657 0)
(1.0124382 -0.0028421081 0)
(1.0128256 -0.0022459528 0)
(1.0129254 -0.0016230518 0)
(1.0127948 -0.0010318354 0)
(1.0124889 -0.00051110829 0)
(1.0120605 -8.5973901e-05 0)
(1.0115603 0.00023082038 0)
(1.0110366 0.00043136863 0)
(1.0105317 0.00051585997 0)
(1.0100818 0.00048809621 0)
(1.0097239 0.00035670216 0)
(1.0094958 0.00013695891 0)
(0.82289102 -0.031169874 6.7005229e-24)
(0.81195262 -0.082050625 8.7383384e-24)
(0.82041483 -0.062460013 3.6407143e-23)
(0.84344166 0.01119121 1.0814863e-23)
(0.8524292 0.035941494 -2.4362999e-23)
(0.85084977 0.014393874 3.8748989e-24)
(0.82968402 0.097983138 -1.6515428e-22)
(0.8191786 0.14536377 -7.9096382e-23)
(0.81161366 0.10079323 -1.3460978e-22)
(0.82183531 -0.049444353 -2.3473724e-23)
(0.88869868 -0.16982906 -7.3357298e-22)
(0.98825052 -0.16272137 5.4026204e-22)
(1.0543798 -0.069965502 0)
(1.0582041 0.081941717 -1.6467369e-21)
(0.98469652 0.17829464 1.5117005e-21)
(0.92348333 0.14996151 0)
(0.88732887 0.06330679 0)
(0.90219467 -0.032142936 0)
(0.959887 -0.064658815 0)
(1.0074401 -0.060729339 0)
(1.0368255 -0.041086159 0)
(1.0470692 -0.014116444 0)
(1.0406422 0.0074139785 0)
(1.026288 0.017986156 0)
(1.0129657 0.017827937 0)
(1.0051335 0.012375455 0)
(1.0025581 0.0060315974 0)
(1.0032775 0.0010652825 0)
(1.0053294 -0.0021720534 0)
(1.0076398 -0.0038928779 0)
(1.0096866 -0.0044226014 0)
(1.0112414 -0.0042688147 0)
(1.0123034 -0.0037519844 0)
(1.0129386 -0.0030699096 0)
(1.0132248 -0.0023381338 0)
(1.0132311 -0.001625782 0)
(1.013018 -0.00097761359 0)
(1.0126416 -0.00042393262 0)