/*--------------------------------*- C++ -*----------------------------------*\
| =========                 |                                                 |
| \\      /  F ield         | OpenFOAM: The Open Source CFD Toolbox           |
|  \\    /   O peration     | Version:  5.0                                   |
|   \\  /    A nd           | Web:      www.OpenFOAM.org                      |
|    \\/     M anipulation  |                                                 |
\*---------------------------------------------------------------------------*/
FoamFile
{
    version     2.0;
    format      ascii;
    class       volVectorField;
    location    "380";
    object      U_0;
}
// * * * * * * * * * * * * * * * * * * * * * * * * * * * * * * * * * * * * * //

dimensions      [0 1 -1 0 0 0 0];

internalField   nonuniform List<vector> 
9520
(
(1.0144152 0.00016690431 0)
(1.0145127 0.0004888838 0)
(1.0139191 0.0001649646 0)
(1.0146845 0.00078770243 0)
(1.0140189 0.00048448625 0)
(1.0137288 0.00016234694 0)
(1.0149141 0.0010629235 0)
(1.0141959 0.00078248876 0)
(1.0138281 0.00047677657 0)
(1.0134235 0.00016279853 0)
(1.0151875 0.001313966 0)
(1.0144349 0.0010583327 0)
(1.0140056 0.00077076677 0)
(1.0135228 0.00047709363 0)
(1.013188 0.00016770276 0)
(1.0154918 0.0015406677 0)
(1.0147219 0.0013117578 0)
(1.0142463 0.0010438519 0)
(1.0137008 0.00077117961 0)
(1.0132879 0.00049071635 0)
(1.0129182 0.00017401403 0)
(1.015816 0.0017430063 0)
(1.0150442 0.0015419342 0)
(1.0145369 0.0012973729 0)
(1.013942 0.0010453323 0)
(1.0134664 0.00079303935 0)
(1.0130182 0.00050996697 0)
(1.0126674 0.00017702507 0)
(1.0161501 0.0019203031 0)
(1.0153916 0.0017488912 0)
(1.014865 0.001529955 0)
(1.0142341 0.0013023216 0)
(1.0137078 0.0010758091 0)
(1.0131957 0.00082578003 0)
(1.0127668 0.0005209385 0)
(1.0124134 0.00017479168 0)
(1.0164862 0.0020713217 0)
(1.0157561 0.0019327453 0)
(1.01522 0.0017411309 0)
(1.0145663 0.0015413873 0)
(1.0140003 0.0013415631 0)
(1.0134354 0.0011233755 0)
(1.0129421 0.00084681635 0)
(1.0125092 0.00051662771 0)
(1.0121799 0.00016834469 0)
(1.0168184 0.0021938673 0)
(1.0161328 0.0020934054 0)
(1.0155932 0.0019308967 0)
(1.0149281 0.0017621323 0)
(1.0143344 0.001590902 0)
(1.0137251 0.0014040792 0)
(1.0131792 0.0011570628 0)
(1.0126787 0.00084340105 0)
(1.0122712 0.00049866656 0)
(1.0119633 0.00016091584 0)
(1.0171448 0.0022797729 0)
(1.0165206 0.0022312074 0)
(1.0159773 0.0021000305 0)
(1.0153095 0.0019640771 0)
(1.0147 0.0018241639 0)
(1.0140559 0.0016701082 0)
(1.0134659 0.0014518397 0)
(1.0129091 0.0011581474 0)
(1.0124336 0.00081628318 0)
(1.0120495 0.00047632203 0)
(1.0117642 0.00015548006 0)
(1.017473 0.0023345068 0)
(1.0169258 0.0023489307 0)
(1.0163676 0.0022537634 0)
(1.0156995 0.0021476171 0)
(1.0150872 0.0020408781 0)
(1.0144187 0.001922889 0)
(1.0137925 0.0017338978 0)
(1.0131876 0.0014617229 0)
(1.0126553 0.0011244486 0)
(1.012204 0.00078052682 0)
(1.0118461 0.00045881604 0)
(1.0115774 0.00015305281 0)
(1.0178037 0.0023529667 0)
(1.0173562 0.0024517819 0)
(1.0167591 0.0024001264 0)
(1.0160861 0.0023161654 0)
(1.0154846 0.0022404033 0)
(1.0148058 0.0021624628 0)
(1.0141509 0.0020055002 0)
(1.0135034 0.0017561548 0)
(1.0129247 0.0014270038 0)
(1.0124136 0.0010764439 0)
(1.0119931 0.00075144648 0)
(1.0116559 0.00045009593 0)
(1.011399 0.00015239988 0)
(1.0181025 0.0023566003 0)
(1.0177513 0.0025411192 0)
(1.0171019 0.0025579464 0)
(1.0164491 0.0024725823 0)
(1.0158797 0.0024201684 0)
(1.0152116 0.0023868267 0)
(1.0145347 0.0022679632 0)
(1.0138479 0.0020439485 0)
(1.0132291 0.0017244754 0)
(1.0126676 0.0013701548 0)
(1.0121917 0.0010370325 0)
(1.0117955 0.00073599878 0)
(1.0114749 0.00044747551 0)
(1.0112275 0.00015108832 0)
(1.0184046 0.0023185429 0)
(1.0180816 0.0026875051 0)
(1.0173601 0.0027469267 0)
(1.016768 0.0026198023 0)
(1.016257 0.0025722596 0)
(1.0156331 0.0025894655 0)
(1.0149413 0.0025216519 0)
(1.0142148 0.0023275373 0)
(1.0135593 0.0020181038 0)
(1.0129557 0.0016624769 0)
(1.0124313 0.0013214214 0)
(1.011983 0.0010160062 0)
(1.0116076 0.00073084697 0)
(1.011301 0.00044412159 0)
(1.0110644 0.00014686626 0)
(1.0187124 0.0023134878 0)
(1.0184038 0.0028099304 0)
(1.0176249 0.002929685 0)
(1.0170632 0.0027399296 0)
(1.016638 0.0026841051 0)
(1.0160796 0.0027575777 0)
(1.0153721 0.0027653771 0)
(1.0146005 0.0026101122 0)
(1.0139071 0.0023096517 0)
(1.0132684 0.0019535531 0)
(1.0127035 0.0016063628 0)
(1.0122078 0.0012949832 0)
(1.0117842 0.0010083924 0)
(1.0114274 0.00072557891 0)
(1.0111351 0.00043300658 0)
(1.0109132 0.00013859894 0)
(1.0190552 0.0021979313 0)
(1.0187321 0.0030471244 0)
(1.0178142 0.0030918763 0)
(1.0173785 0.0028141616 0)
(1.0170439 0.0027182101 0)
(1.0165612 0.0028848364 0)
(1.0158338 0.0030020406 0)
(1.0150045 0.0028982121 0)
(1.0142636 0.0026022248 0)
(1.0135967 0.0022432951 0)
(1.0129997 0.0018924051 0)
(1.0124627 0.0015756069 0)
(1.0119948 0.0012851205 0)
(1.0115937 0.0010002099 0)
(1.0112558 0.00070858173 0)
(1.0109807 0.00041003012 0)
(1.0107777 0.00012662757 0)
(1.0193833 0.0022986616 0)
(1.0190539 0.0031782273 0)
(1.017947 0.0032628941 0)
(1.0176122 0.0028317717 0)
(1.0174531 0.0027016259 0)
(1.0170773 0.0029433943 0)
(1.0163439 0.0032296755 0)
(1.0154259 0.0032019205 0)
(1.0146176 0.0029022238 0)
(1.0139309 0.0025314826 0)
(1.013312 0.0021786448 0)
(1.0127401 0.0018599616 0)
(1.0122321 0.0015644161 0)
(1.0117903 0.0012737852 0)
(1.011413 0.00097695937 0)
(1.0110956 0.00067208548 0)
(1.0108419 0.00037551617 0)
(1.0106603 0.00011257633 0)
(1.0198115 0.0019641758 0)
(1.019387 0.0036923524 0)
(1.0179108 0.0034833123 0)
(1.0177276 0.0028354231 0)
(1.0179058 0.0025997297 0)
(1.0175935 0.0029752289 0)
(1.0168912 0.0034627589 0)
(1.0158577 0.0035370711 0)
(1.0149605 0.0032178265 0)
(1.0142601 0.002817552 0)
(1.0136321 0.0024625256 0)
(1.0130337 0.002148315 0)
(1.0124888 0.0018502042 0)
(1.0120087 0.0015508343 0)
(1.0115959 0.0012428948 0)
(1.0112447 0.0009287207 0)
(1.0109507 0.00061555266 0)
(1.0107216 0.00033391044 0)
(1.010561 9.868157e-05 0)
(1.0200458 0.0024157953 0)
(1.0196495 0.0038016757 0)
(1.0177557 0.003730525 0)
(1.0176718 0.0027672124 0)
(1.0182697 0.0023981156 0)
(1.0182136 0.0029702433 0)
(1.017444 0.0037092037 0)
(1.0162828 0.0039338744 0)
(1.0152709 0.0035652465 0)
(1.0145673 0.0030992606 0)
(1.0139521 0.0027385175 0)
(1.0133395 0.002438813 0)
(1.0127601 0.0021448224 0)
(1.0122415 0.0018367176 0)
(1.0117954 0.0015132735 0)
(1.0114151 0.0011815598 0)
(1.0110923 0.00085265662 0)
(1.0108251 0.0005462477 0)
(1.0106204 0.0002918063 0)
(1.0104776 8.6903237e-05 0)
(1.0203762 0.0016079856 0)
(1.0200149 0.0048286498 0)
(1.0172981 0.004157836 0)
(1.0174236 0.0025776413 0)
(1.0186659 0.0019894105 0)
(1.0189693 0.0029168485 0)
(1.0180649 0.0039761074 0)
(1.0166715 0.0044083856 0)
(1.0155245 0.0039609009 0)
(1.0148302 0.0033795285 0)
(1.0142611 0.0029974994 0)
(1.0136545 0.0027257957 0)
(1.0130441 0.0024488593 0)
(1.0124839 0.0021361087 0)
(1.0120029 0.0017939708 0)
(1.0115963 0.0014390454 0)
(1.0112521 0.0010870607 0)
(1.0109588 0.00075462373 0)
(1.0107207 0.00047550164 0)
(1.0105361 0.00025507551 0)
(1.0104069 7.8263103e-05 0)
(1.0201016 0.0026164381 0)
(1.0200911 0.004934885 0)
(1.0167448 0.0045145049 0)
(1.0169262 0.0024424801 0)
(1.0189999 0.0014292969 0)
(1.0199303 0.0027140975 0)
(1.0188344 0.0043238373 0)
(1.0170282 0.0049830468 0)
(1.0156655 0.0044217575 0)
(1.0150097 0.003648005 0)
(1.0145444 0.0032280184 0)
(1.013976 0.0030000902 0)
(1.0133426 0.0027606855 0)
(1.0127347 0.0024529562 0)
(1.0122125 0.0020912866 0)
(1.0117786 0.0017067661 0)
(1.0114167 0.001324666 0)
(1.011109 0.00096289372 0)
(1.0108485 0.00065080573 0)
(1.010636 0.00041299917 0)
(1.0104657 0.0002269618 0)
(1.0103453 7.2723184e-05 0)
(1.0199 0.0012299814 0)
(1.0202485 0.0065364219 0)
(1.0155761 0.0053271096 0)
(1.0161248 0.0018346631 0)
(1.019379 0.00050426687 0)
(1.0210915 0.0024586181 0)
(1.0197852 0.004743921 0)
(1.0173665 0.0057157949 0)
(1.0157034 0.0049554017 0)
(1.0150951 0.0039113758 0)
(1.0147686 0.0033940507 0)
(1.0143028 0.0032427006 0)
(1.0136632 0.0030753062 0)
(1.012997 0.0027917415 0)
(1.0124205 0.0024117128 0)
(1.0119545 0.0019912667 0)
(1.0115767 0.0015705687 0)
(1.0112609 0.001173044 0)
(1.0109903 0.00082563491 0)
(1.0107612 0.00055786488 0)
(1.0105671 0.0003635872 0)
(1.0104059 0.00020788365 0)
(1.0102897 6.9565567e-05 0)
(1.019185 0.0028292288 0)
(1.0193706 0.0066107965 0)
(1.014717 0.005830092 0)
(1.0148666 0.0017714189 0)
(1.0195478 -0.0006959734 0)
(1.0225661 0.0018439907 0)
(1.0209869 0.0053472332 0)
(1.0176761 0.0066839135 0)
(1.0155276 0.0056045381 0)
(1.015018 0.0041210787 0)
(1.0149866 0.0035052803 0)
(1.0146442 0.0034229832 0)
(1.0140205 0.0033784481 0)
(1.0132817 0.0031561886 0)
(1.0126268 0.0027647977 0)
(1.012117 0.0022995731 0)
(1.0117229 0.001830265 0)
(1.0114036 0.0013883892 0)
(1.011132 0.0009999709 0)
(1.010898 0.00069910212 0)
(1.010693 0.00048463751 0)
(1.0105103 0.00032765108 0)
(1.0103538 0.00019634415 0)
(1.0102381 6.7880048e-05 0)
(1.0194917 0.0014283444 0)
(1.0173728 0.0087913938 0)
(1.0116693 0.0073503013 0)
(1.0132136 0.00039424419 0)
(1.0199841 -0.0023389977 0)
(1.0243155 0.0013201675 0)
(1.02247 0.0060348648 0)
(1.0179645 0.0079849164 0)
(1.0150864 0.0063944663 0)
(1.0147153 0.0042862857 0)
(1.015165 0.0034296631 0)
(1.015042 0.0035044258 0)
(1.0144525 0.0036566321 0)
(1.0136087 0.0035499489 0)
(1.0128363 0.0031627214 0)
(1.0122598 0.0026422269 0)
(1.0118455 0.0021091647 0)
(1.0115272 0.0016125315 0)
(1.011262 0.001176527 0)
(1.0110335 0.00083697164 0)
(1.0108281 0.00059621197 0)
(1.0106396 0.00043137334 0)
(1.0104623 0.00030338442 0)
(1.0103069 0.0001900426 0)
(1.0101896 6.6830681e-05 0)
(1.0186227 0.0031924014 0)
(1.0183006 0.0092951474 0)
(1.0084512 0.0075527785 0)
(1.0105513 0.00069339436 0)
(1.019772 -0.0045123823 0)
(1.0266427 -2.1014025e-05 0)
(1.0243458 0.0071409905 0)
(1.0181612 0.0097141581 0)
(1.0142806 0.0074369132 0)
(1.0140909 0.0043352932 0)
(1.0152363 0.003163026 0)
(1.0155746 0.0034413327 0)
(1.0149718 0.003857822 0)
(1.0140187 0.003981887 0)
(1.0130599 0.0036259008 0)
(1.0123768 0.0030331989 0)
(1.0119335 0.002414407 0)
(1.0116215 0.0018483305 0)
(1.0113706 0.0013573719 0)
(1.0111557 0.00097380059 0)
(1.010961 0.00070139831 0)
(1.0107767 0.00051855406 0)
(1.0105971 0.00039341177 0)
(1.0104211 0.0002886995 0)
(1.0102636 0.00018666075 0)
(1.0101434 6.5761311e-05 0)
(1.0138902 0.0017859094 0)
(1.017641 0.012216395 0)
(1.0060735 0.0097649897 0)
(1.0075419 -0.0018987981 0)
(1.0202643 -0.0070805335 0)
(1.0289871 -0.00084387791 0)
(1.0265496 0.0081778 0)
(1.0183172 0.011979985 0)
(1.0130113 0.0087205813 0)
(1.0130302 0.0043199262 0)
(1.0151591 0.0025646644 0)
(1.0162371 0.0031895913 0)
(1.0156359 0.004043867 0)
(1.0145096 0.0044555538 0)
(1.0133164 0.0041836854 0)
(1.0124619 0.0034967864 0)
(1.0119727 0.0027544466 0)
(1.0116745 0.0020971852 0)
(1.0114484 0.0015431862 0)
(1.0112551 0.0011115798 0)
(1.0110791 0.00080263428 0)
(1.0109099 0.00059517948 0)
(1.0107399 0.00046166233 0)
(1.010563 0.00036594622 0)
(1.0103855 0.00028109481 0)
(1.0102227 0.00018415533 0)
(1.0100994 6.426587e-05 0)
(1.0022237 0.0044156092 0)
(1.0073695 0.012173172 0)
(1.0044217 0.010666685 0)
(1.0043347 -0.0018822384 0)
(1.0194756 -0.010437477 0)
(1.0315385 -0.003438269 0)
(1.029125 0.010227188 0)
(1.0181545 0.0149471 0)
(1.0111008 0.01040168 0)
(1.0114298 0.0041126549 0)
(1.0148873 0.0016104535 0)
(1.0170357 0.0025871097 0)
(1.0165882 0.0042008221 0)
(1.0150952 0.0050108451 0)
(1.0135893 0.0048858606 0)
(1.012501 0.0040662265 0)
(1.0119445 0.0031435149 0)
(1.0116705 0.0023587135 0)
(1.0114862 0.001731137 0)
(1.0113247 0.0012506933 0)
(1.0111732 0.00090265098 0)
(1.0110267 0.0006645956 0)
(1.0108766 0.00051356235 0)
(1.0107145 0.00041921442 0)
(1.0105364 0.00034663756 0)
(1.0103543 0.00027644841 0)
(1.0101841 0.00018063258 0)
(1.0100581 6.2145944e-05 0)
(0.98962983 0.0041051028 0)
(0.99057227 0.016214159 0)
(0.99038577 0.013396149 0)
(1.000783 -0.0054561585 0)
(1.0199718 -0.014072105 0)
(1.0343706 -0.0041289748 0)
(1.0313818 0.011755939 0)
(1.0179316 0.018664697 0)
(1.0083896 0.012514602 0)
(1.0090775 0.0038077969 0)
(1.0143517 5.0618443e-05 0)
(1.0180374 0.0016023398 0)
(1.0179144 0.0042349707 0)
(1.0159354 0.005701466 0)
(1.0138553 0.005762706 0)
(1.0124713 0.0047942428 0)
(1.0118136 0.003596546 0)
(1.0115882 0.002629914 0)
(1.0114736 0.0019140755 0)
(1.0113599 0.0013874331 0)
(1.0112382 0.0010029686 0)
(1.0111175 0.00073101969 0)
(1.0109949 0.00055379125 0)
(1.0108586 0.00044942526 0)
(1.0106988 0.0003854568 0)
(1.0105166 0.00033297699 0)
(1.0103259 0.00026941736 0)
(1.010148 0.00017456497 0)
(1.01002 5.9409635e-05 0)
(0.9759775 0.0065938891 0)
(0.97583986 0.017692166 0)
(0.97440099 0.013115674 0)
(0.99171183 -0.0049603078 0)
(1.0191694 -0.018798016 0)
(1.0387786 -0.0078161645 0)
(1.033446 0.015252885 0)
(1.0164283 0.023403189 0)
(1.0045497 0.015144181 0)
(1.005851 0.0032048491 0)
(1.013463 -0.0020489264 0)
(1.0192909 -4.6902849e-05 0)
(1.0197444 0.0041554817 0)
(1.0171267 0.0065672245 0)
(1.014199 0.0069015141 0)
(1.0123133 0.0057122013 0)
(1.0115442 0.0041401332 0)
(1.0113942 0.0029057658 0)
(1.0113961 0.0020769806 0)
(1.0113578 0.0015117178 0)
(1.0112739 0.0011018772 0)
(1.0111783 0.00079824298 0)
(1.0110842 0.00058851086 0)
(1.0109818 0.00046224008 0)
(1.0108542 0.00039517801 0)
(1.010692 0.00035587267 0)
(1.0105024 0.00031911693 0)
(1.0103003 0.0002566034 0)
(1.0101156 0.00016590247 0)
(1.0099852 5.6393255e-05 0)
(0.96015515 0.0072594019 -3.7461379e-24)
(0.95961755 0.020670808 0)
(0.96041302 0.015223675 0)
(0.98180033 -0.010919209 0)
(1.018066 -0.023636753 0)
(1.0424183 -0.0089346033 0)
(1.038022 0.017230943 0)
(1.0138019 0.029022956 0)
(0.99916482 0.018527501 0)
(1.0013943 0.0023941616 0)
(1.0122083 -0.0051395246 0)
(1.0208761 -0.0023074483 0)
(1.0221955 0.0037665962 0)
(1.0188084 0.0077033375 0)
(1.0146572 0.0084228097 0)
(1.0119866 0.0069009499 0)
(1.0110722 0.0047997843 0)
(1.0110407 0.0031731694 0)
(1.0112335 0.0021963678 0)
(1.011317 0.0016043671 0)
(1.0112852 0.0011919891 0)
(1.0112112 0.00086867805 0)
(1.01114 0.0006242743 0)
(1.011072 0.00046555964 0)
(1.0109862 0.00038147536 0)
(1.0108617 0.0003454849 0)
(1.0106936 0.00032726419 0)
(1.0104933 0.0003001744 0)
(1.0102789 0.00023963357 0)
(1.0100869 0.00015638379 0)
(1.0099535 5.3697726e-05 0)
(0.94203773 0.0094022917 7.5349838e-24)
(0.94239926 0.022946271 3.9092418e-24)
(0.94570749 0.013852889 0)
(0.97131623 -0.013636029 0)
(1.0154803 -0.029424688 0)
(1.0429129 -0.01534713 0)
(1.0450622 0.023058997 0)
(1.0129605 0.035212184 0)
(0.99215888 0.022164751 0)
(0.99566942 0.0011666651 0)
(1.010395 -0.0090416919 0)
(1.0228725 -0.005657121 0)
(1.0254807 0.0031998801 0)
(1.0211073 0.0091013362 0)
(1.0152878 0.010489356 0)
(1.0114458 0.0084736534 0)
(1.0102782 0.0055995825 0)
(1.0104707 0.0034215628 0)
(1.0109556 0.0022324478 0)
(1.0112374 0.0016337037 0)
(1.0112842 0.0012577714 0)
(1.0112265 0.00094166813 0)
(1.0111643 0.00066865408 0)
(1.0111228 0.00046852012 0)
(1.0110806 0.00035296558 0)
(1.0110059 0.00030587925 0)
(1.0108798 0.00029637146 0)
(1.010703 0.00029457907 0)
(1.0104883 0.00027406035 0)
(1.0102616 0.00022246386 0)
(1.0100615 0.00014804266 0)
(1.0099244 5.1922312e-05 0)
(0.92215606 0.011009591 -7.5648125e-24)
(0.92316196 0.025819883 -6.1680685e-24)
(0.92822788 0.014908425 0)
(0.9606653 -0.019681101 0)
(1.0082598 -0.035086868 0)
(1.0398918 -0.015753419 0)
(1.0457124 0.02434679 0)
(1.0182384 0.043908066 0)
(0.98514738 0.026636489 0)
(0.98822695 -0.00073886204 0)
(1.008199 -0.014414388 0)
(1.0253137 -0.0098756462 0)
(1.0297263 0.002042638 0)
(1.024234 0.010968732 0)
(1.0161171 0.013252388 0)
(1.0106193 0.010606065 0)
(1.00904 0.00657043 0)
(1.0095843 0.0036282033 0)
(1.0105236 0.0021288008 0)
(1.0111222 0.0015509016 0)
(1.0112926 0.0012732636 0)
(1.0112452 0.0010123719 0)
(1.0111681 0.00072920449 0)
(1.0111331 0.00048361529 0)
(1.0111276 0.00032081001 0)
(1.0111082 0.00024436796 0)
(1.0110403 0.00022850878 0)
(1.0109098 0.0002419682 0)
(1.0107198 0.0002556699 0)
(1.0104879 0.00024586287 0)
(1.0102481 0.0002074754 0)
(1.0100386 0.00014240261 0)
(1.009897 5.1511397e-05 0)
(0.90181012 0.012859779 0)
(0.90303249 0.028611762 6.1777226e-24)
(0.90942242 0.014517893 0)
(0.94544216 -0.024193998 0)
(0.99959265 -0.039795494 0)
(1.0319815 -0.019624911 0)
(1.0338596 0.030655267 0)
(1.0129186 0.053098792 0)
(0.97757919 0.032373678 0)
(0.97961013 -0.0027627186 0)
(1.0051686 -0.020884162 0)
(1.0283652 -0.015712684 0)
(1.0351859 0.00064261303 0)
(1.028315 0.013185784 0)
(1.0172367 0.016952111 0)
(1.0094103 0.01344074 0)
(1.0072089 0.0078188424 0)
(1.0082445 0.0037255012 0)
(1.0098866 0.0018232006 0)
(1.0109679 0.0012869666 0)
(1.0113344 0.0011922512 0)
(1.0112997 0.0010690005 0)
(1.0111726 0.00081547824 0)
(1.0111096 0.00052752218 0)
(1.0111216 0.00030118296 0)
(1.0111553 0.00017296779 0)
(1.0111558 0.00013057416 0)
(1.0110911 0.00014441356 0)
(1.0109504 0.00018302881 0)
(1.0107421 0.00021471476 0)
(1.0104921 0.00022075934 0)
(1.0102375 0.00019674283 0)
(1.0100174 0.00014066365 0)
(1.0098705 5.2746215e-05 0)
(0.8812857 0.014632092 1.5562065e-24)
(0.88327483 0.031345046 0)
(0.89000221 0.01480184 -4.5236824e-23)
(0.92808894 -0.029459989 0)
(0.98644391 -0.045800027 0)
(1.0211106 -0.018153577 0)
(1.0165767 0.035482869 0)
(0.98806201 0.063470893 0)
(0.96444956 0.040954674 0)
(0.96832107 -0.0060433923 0)
(1.0016558 -0.029186504 0)
(1.0318278 -0.022504134 0)
(1.0418521 -0.0017219213 0)
(1.0336141 0.016176487 0)
(1.0186127 0.021795307 0)
(1.0076844 0.017236456 0)
(1.0046009 0.0093661654 0)
(1.0062918 0.0037009069 0)
(1.0089625 0.0011916442 0)
(1.0107772 0.00074723133 0)
(1.0114586 0.00098100523 0)
(1.0114124 0.0010900229 0)
(1.0112097 0.00093637259 0)
(1.0110679 0.00062360504 0)
(1.0110613 0.00031628107 0)
(1.0111354 0.00010868929 0)
(1.0112098 1.3327297e-05 0)
(1.0112265 7.7703264e-06 0)
(1.0111566 5.6736064e-05 0)
(1.0109996 0.00012308545 0)
(1.0107704 0.0001767419 0)
(1.0105001 0.00020149748 0)
(1.010229 0.00019253395 0)
(1.0099973 0.00014359782 0)
(1.009844 5.5805506e-05 0)
(0.86159846 0.016182436 -1.2506167e-23)
(0.86425391 0.033913441 -1.38219e-23)
(0.87119124 0.014648822 4.5226693e-23)
(0.90952899 -0.034984837 3.7520256e-23)
(0.96966698 -0.051242561 -6.6290936e-23)
(1.0075874 -0.020529059 0)
(1.0011333 0.045067874 0)
(0.96592621 0.072491245 0)
(0.94499941 0.047245182 0)
(0.95477312 -0.0080875248 0)
(0.99649728 -0.038724942 0)
(1.0357378 -0.03139809 0)
(1.0497404 -0.0041832757 0)
(1.0400429 0.019619656 0)
(1.0203555 0.028089519 0)
(1.0052637 0.022191817 0)
(1.0009508 0.011386965 0)
(1.0035367 0.0034275853 0)
(1.0076595 0.00013828713 0)
(1.0105498 -0.00020678788 0)
(1.0117227 0.00053197513 0)
(1.0116975 0.001080388 0)
(1.0113268 0.0011065803 0)
(1.0110342 0.00079711514 0)
(1.0109523 0.00039694632 0)
(1.011039 7.5925179e-05 0)
(1.0111836 -0.00010704074 0)
(1.0112954 -0.00016017929 0)
(1.0113192 -0.000119292 0)
(1.0112358 -3.0435276e-05 0)
(1.0110566 6.7578844e-05 0)
(1.0108027 0.00014746069 0)
(1.010511 0.00019127192 0)
(1.0102227 0.00019544423 0)
(1.0099772 0.00015163253 0)
(1.0098165 6.072498e-05 0)
(0.84389097 0.017446159 1.6437536e-23)
(0.84700643 0.036111749 1.3848274e-23)
(0.8537092 0.014602826 0)
(0.89036724 -0.040497942 5.3960866e-25)
(0.95033066 -0.056749919 6.5957931e-23)
(0.99108719 -0.023033998 1.8725107e-22)
(0.9840818 0.052112061 9.5510071e-23)
(0.94750148 0.081707899 0)
(0.926516 0.053549323 0)
(0.94161007 -0.013126462 0)
(0.99028427 -0.050509734 0)
(1.0398856 -0.04085214 0)
(1.0585338 -0.0080432687 0)
(1.0473717 0.024345305 0)
(1.0220422 0.036111424 0)
(1.0019367 0.02859259 0)
(0.99599327 0.013870786 0)
(0.99974906 0.0029401897 0)
(1.0058487 -0.0015651635 0)
(1.0102833 -0.0017049328 0)
(1.0121952 -0.00027111623 0)
(1.0122558 0.00096545713 0)
(1.0115892 0.0013103263 0)
(1.0110611 0.0010903196 0)
(1.0108072 0.00058159384 0)
(1.0108588 0.00010727081 0)
(1.0110599 -0.00020815103 0)
(1.0112743 -0.00034663402 0)
(1.0114121 -0.00034010371 0)
(1.0114315 -0.00024441618 0)
(1.0113276 -0.00011085186 0)
(1.0111197 2.3377241e-05 0)
(1.0108383 0.00013012974 0)
(1.0105214 0.00019176098 0)
(1.0102155 0.00020696112 0)
(1.0099562 0.00016500194 0)
(1.0097872 6.7382609e-05 0)
(0.82938447 0.018478846 -1.125214e-24)
(0.83236109 0.037874547 -5.1527031e-24)
(0.838341 0.014395778 -2.1914938e-23)
(0.87172465 -0.045711 -2.3449123e-23)
(0.92942675 -0.062438372 -3.9273507e-23)
(0.97100843 -0.024277311 2.1085682e-22)
(0.96708788 0.057106723 2.7691539e-22)
(0.92890004 0.091562459 -4.4867517e-23)
(0.90941797 0.054708506 0)
(0.92820843 -0.017313237 0)
(0.98490442 -0.06423389 0)
(1.0453201 -0.054074822 0)
(1.0697583 -0.011301203 0)
(1.0553302 0.029756865 0)
(1.0230879 0.046225787 0)
(0.99720577 0.036768637 0)
(0.98932445 0.017024758 0)
(0.99467835 0.0019854625 0)
(1.0034156 -0.0039839842 0)
(1.009959 -0.0039974137 0)
(1.0129623 -0.0015487165 0)
(1.0131895 0.00068422265 0)
(1.0121498 0.0016196967 0)
(1.0111738 0.0015093284 0)
(1.0106634 0.00093199568 0)
(1.0105904 0.0002492146 0)
(1.0108196 -0.00025900648 0)
(1.0111393 -0.00053319017 0)
(1.0114104 -0.00059816315 0)
(1.0115587 -0.00051831158 0)
(1.0115618 -0.00036027602 0)
(1.0114287 -0.00017683282 0)
(1.0111874 -5.1947065e-06 0)
(1.010875 0.00012729615 0)
(1.0105336 0.00020604282 0)
(1.0102071 0.0002279226 0)
(1.0099333 0.00018344905 0)
(1.0097556 7.5528385e-05 0)
(0.81804077 0.019088954 -4.4289244e-24)
(0.82110248 0.03915667 6.4815213e-25)
(0.82604283 0.014186586 0)
(0.85418383 -0.050579981 2.8180814e-23)
(0.90768057 -0.067620608 -5.9665848e-23)
(0.94970372 -0.026665736 0)
(0.94656195 0.06457691 -4.2115605e-22)
(0.91224674 0.10033655 -4.524306e-22)
(0.89078258 0.062675881 0)
(0.9155575 -0.026759343 0)
(0.97926246 -0.079193329 0)
(1.0511626 -0.067090984 0)
(1.0850202 -0.018416029 0)
(1.0673288 0.037019262 0)
(1.0234979 0.058738178 0)
(0.99024842 0.046675298 0)
(0.98060384 0.020885474 0)
(0.98797883 0.00061941093 0)
(1.0002081 -0.0075116219 0)
(1.0095778 -0.0071979746 0)
(1.014121 -0.003517993 0)
(1.0146546 0.00017462035 0)
(1.0131422 0.0020133882 0)
(1.0114838 0.0021678664 0)
(1.0105231 0.0014933472 0)
(1.0102392 0.00055985714 0)
(1.0104429 -0.00021617838 0)
(1.0108623 -0.00069473555 0)
(1.0112855 -0.00088074132 0)
(1.0115913 -0.00084860442 0)
(1.0117324 -0.00068435551 0)
(1.0117066 -0.0004580431 0)
(1.0115366 -0.00022298629 0)
(1.0112575 -1.5235461e-05 0)
(1.0109112 0.00014018305 0)
(1.0105439 0.00023344531 0)
(1.0101968 0.00025737511 0)
(1.0099081 0.00020639173 0)
(1.0097212 8.4862847e-05 0)
(0.81132276 0.019222215 0)
(0.81405028 0.039889655 0)
(0.81719477 0.013785191 -6.7111764e-25)
(0.83946801 -0.054721208 0)
(0.88555046 -0.072400339 -3.7150015e-24)
(0.9265784 -0.028455018 2.1715805e-22)
(0.92640787 0.070599812 7.7769447e-22)
(0.89374039 0.10987842 -7.9602587e-24)
(0.87447591 0.069681899 0)
(0.897985 -0.031401788 0)
(0.97503392 -0.094300167 0)
(1.0533637 -0.084152007 0)
(1.0962325 -0.023450551 0)
(1.0859491 0.043449053 0)
(1.0286108 0.073416806 0)
(0.98145321 0.058782585 0)
(0.96911397 0.025344303 0)
(0.97945958 -0.0014753219 0)
(0.99605955 -0.012135654 0)
(1.0091118 -0.011738844 0)
(1.0157835 -0.0062792697 0)
(1.0168328 -0.00071498192 0)
(1.0147405 0.0025210276 0)
(1.0121313 0.0031465386 0)
(1.0104194 0.0023622951 0)
(1.0098066 0.0011259333 0)
(1.0099035 -3.4948088e-05 0)
(1.010411 -0.00080245182 0)
(1.0110044 -0.0011731185 0)
(1.0114991 -0.0012300091 0)
(1.0118131 -0.0010834252 0)
(1.0119285 -0.00082680169 0)
(1.0118622 -0.00053050392 0)
(1.0116483 -0.00024552907 0)
(1.0113276 -5.1660406e-06 0)
(1.0109466 0.00017038657 0)
(1.0105518 0.00027272835 0)
(1.0101834 0.00029475678 0)
(1.0098797 0.00023321936 0)
(1.0096838 9.5028621e-05 0)
(0.81150977 0.040090728 -6.1980495e-25)
(0.81011306 0.019000218 0)
(0.81252996 0.01345658 -9.1909809e-24)
(0.82784452 -0.058116304 -1.0719051e-24)
(0.86505659 -0.076427762 -5.5745495e-23)
(0.90275857 -0.030244359 9.4406399e-26)
(0.90454351 0.076988035 -6.0235416e-26)
(0.87617674 0.11887392 -2.6095985e-22)
(0.85784897 0.077590316 -9.9465068e-23)
(0.88066955 -0.032937917 0)
(0.96222693 -0.11068872 -3.3476594e-22)
(1.0532622 -0.094343209 0)
(1.0977026 -0.035697929 0)
(1.1022753 0.052633513 0)
(1.0400527 0.090058646 0)
(0.97505069 0.072847495 0)
(0.95466094 0.030625215 0)
(0.9685929 -0.0044497149 0)
(0.99092395 -0.018417093 0)
(1.0085448 -0.017578969 0)
(1.0180642 -0.010252178 0)
(1.0199388 -0.0020076837 0)
(1.0171504 0.0030941787 0)
(1.0132654 0.0045607673 0)
(1.0104486 0.0036894803 0)
(1.0092352 0.0020079887 0)
(1.0091896 0.00037900736 0)
(1.009744 -0.00081263076 0)
(1.0105269 -0.0014590554 0)
(1.011248 -0.0016582189 0)
(1.0117746 -0.0015590014 0)
(1.012069 -0.0012871927 0)
(1.0121413 -0.00093636904 0)
(1.0120244 -0.00057272229 0)
(1.011761 -0.00024242473 0)
(1.011396 2.5880299e-05 0)
(1.0109796 0.00021747548 0)
(1.0105564 0.00032288728 0)
(1.0101665 0.00033837134 0)
(1.0098482 0.00026270644 0)
(1.0096434 0.00010567617 0)
(0.81146077 0.013251442 8.1751311e-24)
(0.81443105 0.039977002 0)
(0.81489743 0.018271565 1.3397139e-24)
(0.81802318 -0.060557248 1.0710869e-24)
(0.84716592 -0.079514849 2.4528161e-23)
(0.87952521 -0.031853855 3.5654147e-22)
(0.8830931 0.082679813 -6.5710172e-22)
(0.85866396 0.1273635 -1.458052e-22)
(0.84255303 0.085206898 -7.9257299e-23)
(0.86327797 -0.035873868 3.5547857e-23)
(0.9446987 -0.12442557 -3.9793967e-22)
(1.0438064 -0.11256097 3.4820013e-22)
(1.0943785 -0.036649094 0)
(1.102233 0.058231167 0)
(1.0497531 0.11207798 0)
(0.97075323 0.090697217 0)
(0.9382605 0.036379823 0)
(0.95539339 -0.008382874 0)
(0.98447603 -0.026291018 0)
(1.0079263 -0.025417272 0)
(1.0210685 -0.015359574 0)
(1.0242036 -0.0040496725 0)
(1.0206508 0.0038397701 0)
(1.015051 0.0064998923 0)
(1.0106907 0.0056525017 0)
(1.0085393 0.0033671217 0)
(1.0082173 0.0010819839 0)
(1.0088098 -0.00068633546 0)
(1.0098049 -0.0017128243 0)
(1.0107966 -0.0021279205 0)
(1.0115844 -0.0021149057 0)
(1.0121011 -0.0018460689 0)
(1.0123502 -0.0014478108 0)
(1.0123648 -0.0010069652 0)
(1.0121893 -0.00058213114 0)
(1.011872 -0.0002129229 0)
(1.0114615 7.8068309e-05 0)
(1.0110085 0.00027916794 0)
(1.010557 0.00038241248 0)
(1.0101461 0.00038645104 0)
(1.0098134 0.00029409986 0)
(1.0095999 0.00011653524 0)
(0.81270739 -0.061782295 4.8683421e-24)
(0.81672659 0.013109591 2.6195937e-23)
(0.82391943 0.039303994 0)
(0.82357566 0.017107618 7.9027907e-25)
(0.82989733 -0.081815146 -1.7897863e-23)
(0.85824997 -0.03302189 -1.5690439e-22)
(0.86273031 0.087618256 0)
(0.84280983 0.13480206 1.4479834e-22)
(0.82926972 0.092561403 -2.665871e-23)
(0.84681169 -0.038285926 -3.5108982e-23)
(0.92569038 -0.13878259 4.6930371e-22)
(1.0274989 -0.13039034 4.1296745e-22)
(1.0854213 -0.046361898 0)
(1.0867798 0.069569079 0)
(1.0364344 0.13406521 0)
(0.96010483 0.11309145 0)
(0.92127585 0.044990514 0)
(0.93879557 -0.0142327 0)
(0.97711334 -0.036329603 0)
(1.007098 -0.034876281 0)
(1.0249278 -0.022375046 0)
(1.0298815 -0.0066827211 0)
(1.0255085 0.0045548538 0)
(1.0177369 0.009169534 0)
(1.0112155 0.008440573 0)
(1.0077229 0.0053997032 0)
(1.0068823 0.0021657563 0)
(1.0075403 -0.00032737352 0)
(1.008768 -0.0019276103 0)
(1.0100967 -0.0026446528 0)
(1.0112061 -0.0027602145 0)
(1.0119968 -0.0025141514 0)
(1.0124654 -0.0020755026 0)
(1.0126478 -0.001557918 0)
(1.0125931 -0.0010357369 0)
(1.0123529 -0.00055810695 0)
(1.0119792 -0.00015730627 0)
(1.0115225 0.00014994972 0)
(1.0110327 0.00035345117 0)
(1.010553 0.00044909127 0)
(1.0101214 0.00043837838 0)
(1.009775 0.00032661606 0)
(1.0095537 0.00012733294 0)
(0.81801582 -0.082969007 -9.720483e-24)
(0.81411462 -0.061936174 -6.2281921e-24)
(0.82796438 0.013056506 -2.3503379e-23)
(0.83702374 0.038050928 -1.0644453e-23)
(0.83537723 0.01559525 -5.3884385e-24)
(0.83844728 -0.034008363 1.4983513e-22)
(0.84487923 0.091645113 8.6868379e-23)
(0.82940479 0.14096831 0)
(0.81879323 0.099006039 2.4956202e-23)
(0.83229511 -0.040447408 9.9187362e-24)
(0.90580253 -0.15375055 0)
(1.0082566 -0.14704419 -6.478517e-22)
(1.0713761 -0.063328061 0)
(1.0702552 0.080462495 0)
(1.0094172 0.1557381 0)
(0.94324794 0.13595505 0)
(0.90409457 0.054840816 0)
(0.92013727 -0.019845661 0)
(0.96786886 -0.04863 0)
(1.0063858 -0.046984844 0)
(1.0296089 -0.030754548 0)
(1.0372046 -0.010678901 0)
(1.0321296 0.0055865934 0)
(1.0215335 0.012635316 0)
(1.0121531 0.012324353 0)
(1.0067509 0.0083110272 0)
(1.0051185 0.0038020925 0)
(1.0057884 0.00027242648 0)
(1.0073316 -0.002049623 0)
(1.0090775 -0.003197586 0)
(1.0105946 -0.0035101541 0)
(1.0117266 -0.0033087406 0)
(1.0124643 -0.0028343352 0)
(1.0128539 -0.0022383726 0)
(1.0129536 -0.0016144363 0)
(1.0128211 -0.0010223478 0)
(1.0125123 -0.00050148155 0)
(1.0120809 -7.6977341e-05 0)
(1.0115776 0.00023870805 0)
(1.0110512 0.00043792945 0)
(1.0105442 0.00052102418 0)
(1.0100929 0.00049195996 0)
(1.0097338 0.00035917935 0)
(1.009505 0.00013789852 0)
(0.82293315 -0.034807334 6.7024211e-24)
(0.8119896 -0.08296166 8.7728435e-24)
(0.8208147 -0.061030817 3.5484508e-23)
(0.8436329 0.013033446 1.1019548e-23)
(0.85202204 0.03631311 -2.2016498e-23)
(0.85053215 0.013872257 5.4455698e-24)
(0.8303392 0.094572217 -1.6660528e-22)
(0.81992661 0.14588944 -8.1419619e-23)
(0.81180815 0.10460681 -1.3145597e-22)
(0.82077488 -0.042423578 -1.8470127e-23)
(0.88568033 -0.16815413 -7.2532176e-22)
(0.98583976 -0.16483969 5.1354626e-22)
(1.0541222 -0.074939676 0)
(1.0608385 0.075026317 -1.6998163e-21)
(0.98936326 0.17688475 1.6258915e-21)
(0.92650104 0.15255618 0)
(0.88864012 0.067878035 0)
(0.90070912 -0.028631625 0)
(0.95746402 -0.063361794 0)
(1.0053554 -0.060706309 0)
(1.0353132 -0.04189041 0)
(1.046367 -0.015363679 0)
(1.0407409 0.0062678401 0)
(1.0268277 0.017286835 0)
(1.0135614 0.017567508 0)
(1.0055795 0.012391154 0)
(1.0028179 0.0061547644 0)
(1.0034019 0.0011972864 0)
(1.0053808 -0.0020649364 0)
(1.0076552 -0.0038268104 0)
(1.009695 -0.0043882956 0)
(1.0112553 -0.0042537791 0)
(1.0123251 -0.0037452097 0)
(1.012966 -0.0030647319 0)
(1.0132544 -0.0023316641 0)
(1.0132601 -0.0016175151 0)
(1.0130446 -0.0009681957 0)
(1.012665 -0.00041430818 0)
(1.0121752 2.514459e-05 0)