/*--------------------------------*- C++ -*----------------------------------*\
| =========                 |                                                 |
| \\      /  F ield         | OpenFOAM: The Open Source CFD Toolbox           |
|  \\    /   O peration     | Version:  5.0                                   |
|   \\  /    A nd           | Web:      www.OpenFOAM.org                      |
|    \\/     M anipulation  |                                                 |
\*---------------------------------------------------------------------------*/
FoamFile
{
    version     2.0;
    format      ascii;
    class       volVectorField;
    location    "380";
    object      UMean;
}
// * * * * * * * * * * * * * * * * * * * * * * * * * * * * * * * * * * * * * //

dimensions      [0 1 -1 0 0 0 0];

internalField   nonuniform List<vector> 
9520
(
(1.0115446 7.6364886e-05 0)
(1.0116359 0.00022359901 0)
(1.0113173 7.7238754e-05 0)
(1.0117977 0.00036076904 0)
(1.0114093 0.00022642694 0)
(1.0112266 7.7676096e-05 0)
(1.0120151 0.00048736709 0)
(1.0115729 0.00036587659 0)
(1.0113186 0.00022776897 0)
(1.0110797 7.8038867e-05 0)
(1.0122746 0.0006036332 0)
(1.0117935 0.00049526351 0)
(1.0114824 0.00036860345 0)
(1.0111712 0.00022926763 0)
(1.0109666 7.8043433e-05 0)
(1.0125646 0.00070901637 0)
(1.0120582 0.00061495208 0)
(1.0117035 0.00049999694 0)
(1.0113342 0.00037205714 0)
(1.0110574 0.00022952094 0)
(1.0108441 7.7399522e-05 0)
(1.0128744 0.00080329648 0)
(1.0123557 0.00072446033 0)
(1.0119693 0.00062247526 0)
(1.0115548 0.0005065939 0)
(1.0112193 0.00037342672 0)
(1.0109333 0.00022803998 0)
(1.0107331 7.6207879e-05 0)
(1.013195 0.00088624646 0)
(1.012676 0.00082359656 0)
(1.0122688 0.00073564539 0)
(1.0118206 0.00063365687 0)
(1.0114385 0.00051031323 0)
(1.0110922 0.00037222954 0)
(1.0108206 0.00022486081 0)
(1.0106264 7.4044751e-05 0)
(1.0135184 0.00095725278 0)
(1.0130103 0.00091196838 0)
(1.0125919 0.00083940573 0)
(1.0121209 0.0007530362 0)
(1.011703 0.00064125036 0)
(1.0113075 0.00051095812 0)
(1.0109764 0.00036817937 0)
(1.0107113 0.00021883873 0)
(1.0105268 7.1118982e-05 0)
(1.0138381 0.0010171295 0)
(1.0133505 0.00098911954 0)
(1.01293 0.00093356008 0)
(1.0124461 0.00086471085 0)
(1.0120025 0.00076617869 0)
(1.0115676 0.00064566203 0)
(1.0111876 0.00050758633 0)
(1.0108624 0.00035949994 0)
(1.0106091 0.00021050759 0)
(1.0104363 6.7115287e-05 0)
(1.0141485 0.0010629875 0)
(1.0136906 0.0010555037 0)
(1.0132755 0.0010173545 0)
(1.0127879 0.00096832324 0)
(1.0123275 0.00088518607 0)
(1.0118623 0.00077660569 0)
(1.0114427 0.00064485532 0)
(1.0110668 0.00049789136 0)
(1.0107553 0.00034690615 0)
(1.0105156 0.00019892908 0)
(1.0103532 6.2302113e-05 0)
(1.0144453 0.0011019547 0)
(1.0140248 0.0011087551 0)
(1.0136221 0.0010911201 0)
(1.0131389 0.0010631823 0)
(1.01267 0.00099798911 0)
(1.0121828 0.00090407004 0)
(1.0117319 0.00078050629 0)
(1.0113135 0.00063617135 0)
(1.0109529 0.00048256081 0)
(1.010656 0.00032882269 0)
(1.0104294 0.00018488057 0)
(1.0102811 5.6528921e-05 0)
(1.0147253 0.0011229747 0)
(1.0143529 0.0011538805 0)
(1.0139638 0.0011534995 0)
(1.0134931 0.0011497155 0)
(1.0130227 0.0011041273 0)
(1.0125212 0.0010278534 0)
(1.0120466 0.00091501957 0)
(1.011593 0.00077523873 0)
(1.0111912 0.00061997344 0)
(1.0108452 0.00045936309 0)
(1.0105639 0.00030647705 0)
(1.0103543 0.00016787879 0)
(1.0102174 5.009032e-05 0)
(1.0149857 0.001145859 0)
(1.0146668 0.0011773545 0)
(1.0142953 0.0012079249 0)
(1.0138474 0.0012257123 0)
(1.0133799 0.0012037451 0)
(1.0128709 0.0011474639 0)
(1.0123791 0.0010483802 0)
(1.0118971 0.00091587118 0)
(1.0114608 0.0007603764 0)
(1.0110724 0.00059340815 0)
(1.0107447 0.00042989336 0)
(1.0104829 0.00027897507 0)
(1.0102876 0.00014880476 0)
(1.0101651 4.296659e-05 0)
(1.0152245 0.0011310655 0)
(1.0149579 0.0012085797 0)
(1.0146109 0.0012486667 0)
(1.0141987 0.0012935948 0)
(1.0137346 0.0012956311 0)
(1.0132267 0.0012628081 0)
(1.0127229 0.0011803654 0)
(1.0122185 0.0010582604 0)
(1.0117534 0.000904842 0)
(1.0113285 0.00073257907 0)
(1.0109611 0.00055829219 0)
(1.0106548 0.00039274004 0)
(1.0104106 0.00024777679 0)
(1.0102329 0.0001275711 0)
(1.0101217 3.5448916e-05 0)
(1.0154392 0.0011483141 0)
(1.015233 0.0012038864 0)
(1.0149147 0.0012905705 0)
(1.0145333 0.001345026 0)
(1.0140846 0.001382105 0)
(1.0135858 0.0013713632 0)
(1.0130719 0.0013106883 0)
(1.0125514 0.0012021498 0)
(1.012062 0.0010538217 0)
(1.0116056 0.00087829898 0)
(1.0112041 0.00069362602 0)
(1.0108593 0.00051258293 0)
(1.010574 0.00034993761 0)
(1.0103508 0.0002126479 0)
(1.0101873 0.00010505544 0)
(1.0100891 2.7609725e-05 0)
(1.0156275 0.0010907888 0)
(1.0154866 0.0012345544 0)
(1.0152042 0.0012992854 0)
(1.0148496 0.0014001624 0)
(1.014422 0.0014562079 0)
(1.01394 0.001476711 0)
(1.0134216 0.0014384944 0)
(1.0128914 0.0013470866 0)
(1.0123804 0.0012072902 0)
(1.0118973 0.001031317 0)
(1.0114655 0.00083764303 0)
(1.0110872 0.00064082341 0)
(1.0107671 0.00045887187 0)
(1.0105063 0.00030099478 0)
(1.0103008 0.00017506491 0)
(1.0101533 8.1448996e-05 0)
(1.0100651 1.9722376e-05 0)
(1.015781 0.001123052 0)
(1.0157126 0.0011885415 0)
(1.0154744 0.0013368444 0)
(1.0151531 0.0014274101 0)
(1.0147463 0.0015318343 0)
(1.0142826 0.0015704667 0)
(1.01377 0.0015645374 0)
(1.0132335 0.0014919877 0)
(1.0127037 0.001365148 0)
(1.0121982 0.0011918092 0)
(1.0117389 0.00099141778 0)
(1.0113306 0.00077960961 0)
(1.0109805 0.00057721873 0)
(1.0106883 0.00039627824 0)
(1.0104494 0.00024799374 0)
(1.0102635 0.00013527533 0)
(1.0101283 5.7581196e-05 0)
(1.0100505 1.1915105e-05 0)
(1.0158959 0.0010122447 0)
(1.0159009 0.0012356103 0)
(1.0157138 0.0013072426 0)
(1.0154374 0.001481022 0)
(1.015061 0.001580325 0)
(1.0146114 0.0016677654 0)
(1.0141093 0.0016819793 0)
(1.0135738 0.0016376628 0)
(1.0130291 0.0015264328 0)
(1.0125039 0.0013597385 0)
(1.0120186 0.0011554891 0)
(1.0115832 0.00093044794 0)
(1.0112061 0.00070748426 0)
(1.0108871 0.00050143013 0)
(1.0106215 0.00032749679 0)
(1.0104066 0.00019117296 0)
(1.0102364 9.4687037e-05 0)
(1.0101137 3.381581e-05 0)
(1.0100434 4.428456e-06 0)
(1.0159356 0.0010703954 0)
(1.0160532 0.0011308721 0)
(1.0159237 0.0013568785 0)
(1.0156952 0.0014728982 0)
(1.0153534 0.0016510478 0)
(1.0149335 0.0017407807 0)
(1.0144367 0.0018031876 0)
(1.0139058 0.0017782674 0)
(1.0133534 0.0016914038 0)
(1.0128104 0.0015341662 0)
(1.0123009 0.0013300933 0)
(1.0118403 0.0010942397 0)
(1.0114376 0.00085157354 0)
(1.0110946 0.00061935519 0)
(1.0108069 0.00041673951 0)
(1.0105702 0.00025266376 0)
(1.0103755 0.00013254975 0)
(1.0102212 5.3867566e-05 0)
(1.0101072 1.0898936e-05 0)
(1.0100438 -2.5891259e-06 0)
(1.0159046 0.00090280825 0)
(1.0161545 0.0012237569 0)
(1.0160969 0.0012690654 0)
(1.0159219 0.0015347044 0)
(1.0156261 0.0016653863 0)
(1.0152323 0.0018347714 0)
(1.014758 0.0019038591 0)
(1.0142258 0.0019234182 0)
(1.013671 0.0018551762 0)
(1.0131146 0.0017154697 0)
(1.0125826 0.0015145705 0)
(1.0120977 0.0012714271 0)
(1.0116699 0.0010108052 0)
(1.0113042 0.00075247094 0)
(1.0109972 0.00051899497 0)
(1.0107437 0.00032308962 0)
(1.0105324 0.00017442275 0)
(1.0103582 7.2841556e-05 0)
(1.0102154 1.4104895e-05 0)
(1.0101092 -1.0729192e-05 0)
(1.0100499 -8.9330259e-06 0)
(1.0156297 0.00099031128 0)
(1.0161424 0.0010506217 0)
(1.0161934 0.001357617 0)
(1.0161171 0.0014779966 0)
(1.0158685 0.0017461174 0)
(1.0155164 0.0018741015 0)
(1.0150626 0.0020241027 0)
(1.0145384 0.0020537959 0)
(1.0139772 0.0020248263 0)
(1.0134121 0.0018993588 0)
(1.0128614 0.001708965 0)
(1.0123523 0.0014615456 0)
(1.0118993 0.0011860196 0)
(1.0115111 0.00090259561 0)
(1.0111855 0.00063715493 0)
(1.010918 0.00040607984 0)
(1.010696 0.00022373574 0)
(1.0105109 9.3620245e-05 0)
(1.0103523 1.394219e-05 0)
(1.0102198 -2.3873669e-05 0)
(1.0101178 -3.0453895e-05 0)
(1.0100614 -1.4475028e-05 0)
(1.0149075 0.00077848196 0)
(1.0159738 0.0011842677 0)
(1.016222 0.0011918444 0)
(1.0162358 0.0015727394 0)
(1.0160753 0.0017070637 0)
(1.0157732 0.00197818 0)
(1.0153504 0.0020934301 0)
(1.0148402 0.0022033211 0)
(1.0142734 0.0021844933 0)
(1.0136984 0.0020912396 0)
(1.0131334 0.0019095385 0)
(1.0126021 0.0016646 0)
(1.0121237 0.0013772197 0)
(1.0117118 0.0010709844 0)
(1.0113669 0.00077356321 0)
(1.011086 0.0005050499 0)
(1.0108563 0.0002844294 0)
(1.0106669 0.0001196314 0)
(1.0105031 1.2775727e-05 0)
(1.0103591 -4.3152251e-05 0)
(1.0102323 -5.8980718e-05 0)
(1.0101326 -4.7852406e-05 0)
(1.0100767 -1.9058542e-05 0)
(1.0138417 0.00083591474 0)
(1.0152707 0.00097612646 0)
(1.0160519 0.0013371765 0)
(1.016281 0.0014408155 0)
(1.0162095 0.0018172133 0)
(1.0159912 0.0019653094 0)
(1.0156163 0.0022255081 0)
(1.0151253 0.0023072193 0)
(1.014563 0.0023635065 0)
(1.0139713 0.0022776966 0)
(1.0133929 0.0021208316 0)
(1.0128443 0.0018774333 0)
(1.0123412 0.0015842688 0)
(1.0119042 0.0012580235 0)
(1.0115381 0.00093003637 0)
(1.0112426 0.0006229509 0)
(1.0110059 0.00036041833 0)
(1.0108159 0.0001550345 0)
(1.0106546 1.3893571e-05 0)
(1.0105109 -6.6838808e-05 0)
(1.010376 -9.6797975e-05 0)
(1.0102528 -9.0501079e-05 0)
(1.0101519 -6.2476523e-05 0)
(1.0100949 -2.2589712e-05 0)
(1.0133632 0.00070944271 0)
(1.0142014 0.0010539855 0)
(1.0154388 0.0011232054 0)
(1.0161444 0.0015926824 0)
(1.016271 0.0017057073 0)
(1.0161471 0.0020948033 0)
(1.0158441 0.0022442484 0)
(1.0153914 0.0024724889 0)
(1.0148366 0.0025025214 0)
(1.0142402 0.0024838589 0)
(1.0136392 0.0023293599 0)
(1.013072 0.0021032231 0)
(1.0125498 0.0018045884 0)
(1.012087 0.0014637024 0)
(1.0116972 0.001107515 0)
(1.0113845 0.00076222705 0)
(1.0111393 0.00045526066 0)
(1.0109496 0.00020422702 0)
(1.0107952 2.1616266e-05 0)
(1.010661 -9.1891731e-05 0)
(1.0105317 -0.0001429664 0)
(1.0104035 -0.00014595797 0)
(1.0102793 -0.00011762622 0)
(1.0101751 -7.4019981e-05 0)
(1.0101149 -2.4989043e-05 0)
(1.0116498 0.00069728809 0)
(1.0138265 0.00087945365 0)
(1.0143462 0.0012306867 0)
(1.0155687 0.0014058244 0)
(1.01615 0.0018666154 0)
(1.0162236 0.0020101565 0)
(1.0160179 0.0023997698 0)
(1.0156208 0.0025305631 0)
(1.0150922 0.0027021567 0)
(1.0144922 0.0026557872 0)
(1.0138811 0.0025585174 0)
(1.0132881 0.0023296994 0)
(1.0127432 0.0020397322 0)
(1.0122592 0.0016861405 0)
(1.0118435 0.0013063754 0)
(1.01151 0.00092437223 0)
(1.0112529 0.00057209281 0)
(1.0110619 0.00027141988 0)
(1.010916 4.0764106e-05 0)
(1.0107969 -0.00011397439 0)
(1.0106839 -0.00019484392 0)
(1.0105661 -0.00021420139 0)
(1.0104391 -0.00018936758 0)
(1.0103112 -0.00013979707 0)
(1.0102006 -8.2218002e-05 0)
(1.0101357 -2.6213002e-05 0)
(1.0058644 0.00053479169 0)
(1.0123144 0.0010286923 0)
(1.0139745 0.0010209413 0)
(1.0144788 0.0015480824 0)
(1.0156097 0.0016991115 0)
(1.0161241 0.0021819127 0)
(1.0161108 0.0023508755 0)
(1.015803 0.0027208081 0)
(1.0153119 0.0028014694 0)
(1.0147286 0.0028862461 0)
(1.014105 0.0027581608 0)
(1.0134978 0.0025773692 0)
(1.0129243 0.0022799915 0)
(1.0124147 0.00192587 0)
(1.0119768 0.0015253142 0)
(1.0116188 0.001110359 0)
(1.0113452 0.00071313437 0)
(1.0111491 0.00036049539 0)
(1.0110103 7.6182564e-05 0)
(1.0109086 -0.0001279115 0)
(1.0108189 -0.00024817312 0)
(1.0107242 -0.00029310729 0)
(1.0106117 -0.00027872695 0)
(1.0104825 -0.00022616464 0)
(1.0103468 -0.00015651276 0)
(1.0102277 -8.6912859e-05 0)
(1.0101564 -2.6242185e-05 0)
(0.99693842 0.00053805707 0)
(1.0064316 0.00065057406 0)
(1.0126982 0.001223252 0)
(1.014098 0.0013032567 0)
(1.0145394 0.0018659418 0)
(1.0156233 0.0020312602 0)
(1.016037 0.0025454711 0)
(1.0159032 0.0027200919 0)
(1.0154883 0.0030293987 0)
(1.0149282 0.0030239124 0)
(1.0143157 0.0030139363 0)
(1.0136899 0.0027999506 0)
(1.013098 0.0025420143 0)
(1.0125566 0.0021746642 0)
(1.0120923 0.0017641524 0)
(1.0117113 0.0013195785 0)
(1.0114163 0.0008800166 0)
(1.0112096 0.00047444867 0)
(1.0110739 0.00013250847 0)
(1.0109885 -0.00012825476 0)
(1.0109255 -0.00029753057 0)
(1.0108626 -0.00037867097 0)
(1.0107792 -0.0003842592 0)
(1.0106682 -0.00033529189 0)
(1.0105316 -0.00025552695 0)
(1.0103852 -0.0001674489 0)
(1.0102551 -8.8033714e-05 0)
(1.0101761 -2.5070563e-05 0)
(0.98704483 0.0003973829 0)
(0.99762523 0.00078779236 0)
(1.0068232 0.00085596715 0)
(1.013045 0.0015783216 0)
(1.0141209 0.0015935163 0)
(1.0145834 0.0022165215 0)
(1.015584 0.002417414 0)
(1.0158481 0.0029485185 0)
(1.0155832 0.0030775653 0)
(1.0150868 0.0032860818 0)
(1.0144897 0.0031829668 0)
(1.0138688 0.0030772209 0)
(1.0132553 0.0027837397 0)
(1.0126905 0.0024468718 0)
(1.0121913 0.0020164073 0)
(1.0117842 0.0015515562 0)
(1.0114672 0.0010729983 0)
(1.0112436 0.00061575719 0)
(1.0111048 0.00021360479 0)
(1.0110318 -0.00010956859 0)
(1.0109954 -0.00033693662 0)
(1.010969 -0.00046534754 0)
(1.0109254 -0.00050234355 0)
(1.0108491 -0.00046654637 0)
(1.0107331 -0.00038262038 0)
(1.0105856 -0.00027689305 0)
(1.0104251 -0.00017243826 0)
(1.010282 -8.553544e-05 0)
(1.0101941 -2.2712723e-05 0)
(0.97626751 0.00037441717 0)
(0.98775044 0.00055941573 0)
(0.99800077 0.00093446614 0)
(1.0073717 0.0012047462 0)
(1.013339 0.0019231547 0)
(1.014131 0.0019341729 0)
(1.0145785 0.0026371815 0)
(1.0154357 0.0028669597 0)
(1.0155292 0.0033447175 0)
(1.0151657 0.0033740371 0)
(1.0146245 0.0034740974 0)
(1.0140156 0.0032693064 0)
(1.013401 0.0030779503 0)
(1.0128088 0.0027041942 0)
(1.0122812 0.0022938862 0)
(1.0118371 0.0018013622 0)
(1.0114958 0.0012915396 0)
(1.0112525 0.00078542723 0)
(1.0111034 0.00032287872 0)
(1.0110362 -6.6968698e-05 0)
(1.0110226 -0.00036020443 0)
(1.0110336 -0.00054673281 0)
(1.0110364 -0.00062748304 0)
(1.0110077 -0.000616896 0)
(1.0109311 -0.00053817191 0)
(1.0108059 -0.00041977387 0)
(1.0106427 -0.00028997723 0)
(1.0104655 -0.00017138668 0)
(1.0103076 -7.9449556e-05 0)
(1.0102096 -1.9205387e-05 0)
(0.96334757 0.0002447107 -2.4283343e-24)
(0.97705601 0.00057439691 0)
(0.98820011 0.00073327221 0)
(0.99847967 0.0011998881 0)
(1.0080935 0.0015326877 0)
(1.0136204 0.0022849634 0)
(1.0140798 0.0023571843 0)
(1.0144592 0.0031312471 0)
(1.0151411 0.0033181452 0)
(1.015101 0.0036755949 0)
(1.0146825 0.0035912415 0)
(1.0141258 0.0035845089 0)
(1.0135152 0.0032921127 0)
(1.012917 0.0030133145 0)
(1.0123559 0.0025627472 0)
(1.0118787 0.0020786466 0)
(1.0115004 0.0015320268 0)
(1.011236 0.00098335345 0)
(1.0110714 0.00046217813 0)
(1.011002 3.7988434e-06 0)
(1.0110045 -0.00036148645 0)
(1.0110498 -0.00061591855 0)
(1.0111011 -0.00075298851 0)
(1.0111286 -0.00078108132 0)
(1.0111065 -0.00071989725 0)
(1.0110246 -0.00059774878 0)
(1.0108839 -0.00044604264 0)
(1.0107016 -0.00029410262 0)
(1.0105051 -0.00016413147 0)
(1.010331 -6.9864272e-05 0)
(1.0102223 -1.4605375e-05 0)
(0.94827141 0.00019322748 3.2807591e-24)
(0.96419318 0.00041211546 2.534489e-24)
(0.97756808 0.00072061688 0)
(0.98871087 0.0010048886 0)
(0.99907196 0.0014703111 0)
(1.008965 0.0019219056 0)
(1.0137981 0.0027541293 0)
(1.0138676 0.0028865489 0)
(1.0141809 0.0036279576 0)
(1.0147245 0.0036935921 0)
(1.0146056 0.0039166486 0)
(1.0141627 0.0037250711 0)
(1.0136007 0.0036248321 0)
(1.0129967 0.0032484988 0)
(1.0124213 0.0028831659 0)
(1.0119044 0.0023536111 0)
(1.0114908 0.0018024967 0)
(1.0111909 0.0012069668 0)
(1.0110098 0.00063230144 0)
(1.0109309 0.00010564372 0)
(1.0109409 -0.00033531868 0)
(1.0110138 -0.0006660142 0)
(1.0111117 -0.00087133782 0)
(1.0111994 -0.00095229706 0)
(1.0112426 -0.00092295931 0)
(1.0112214 -0.0008093915 0)
(1.0111265 -0.0006441867 0)
(1.0109661 -0.0004611239 0)
(1.0107611 -0.00028947099 0)
(1.0105431 -0.00015084341 0)
(1.0103515 -5.6955131e-05 0)
(1.0102315 -8.9899131e-06 0)
(0.93203007 0.00011478422 -3.2954292e-24)
(0.94926142 0.00033111484 -7.784838e-24)
(0.96473061 0.0005727585 0)
(0.97818885 0.00096032493 0)
(0.98932627 0.0012298308 0)
(0.99989077 0.0018087985 0)
(1.0098021 0.0024097289 0)
(1.0137624 0.0033374939 0)
(1.0134729 0.0034331215 0)
(1.0137774 0.0040277854 0)
(1.01424 0.003960979 0)
(1.0140769 0.0040698605 0)
(1.0136177 0.0037859437 0)
(1.0130513 0.0036004866 0)
(1.0124601 0.0031382111 0)
(1.0119205 0.0026807919 0)
(1.011463 0.0020763037 0)
(1.0111279 0.0014629935 0)
(1.0109152 0.00083105969 0)
(1.0108251 0.00024032532 0)
(1.0108337 -0.00027782318 0)
(1.010925 -0.00069053628 0)
(1.0110633 -0.00097470925 0)
(1.0112104 -0.0011225194 0)
(1.0113253 -0.0011406356 0)
(1.0113782 -0.0010504698 0)
(1.011349 -0.00088372298 0)
(1.011236 -0.00067662974 0)
(1.0110509 -0.00046446908 0)
(1.01082 -0.00027615537 0)
(1.0105786 -0.00013183202 0)
(1.0103688 -4.092789e-05 0)
(1.010237 -2.446172e-06 0)
(0.91546235 3.7320326e-05 0)
(0.93307681 0.00026940378 7.7971451e-24)
(0.94991513 0.00043794969 0)
(0.96538811 0.0008168512 0)
(0.97894921 0.0011644474 0)
(0.99012473 0.0014799012 0)
(1.0009291 0.0023498196 0)
(1.0105091 0.0030340019 0)
(1.0134664 0.0039271706 0)
(1.0129404 0.0039030228 0)
(1.0133142 0.0043039854 0)
(1.0137275 0.0041327746 0)
(1.0135274 0.00415136 0)
(1.0130429 0.0037833343 0)
(1.0124782 0.0035092296 0)
(1.0119108 0.0029519137 0)
(1.0114242 0.002403153 0)
(1.0110441 0.0017278637 0)
(1.0107982 0.0010645818 0)
(1.0106817 0.00040635661 0)
(1.0106859 -0.00018601785 0)
(1.0107853 -0.00068420513 0)
(1.0109546 -0.0010553846 0)
(1.0111559 -0.001283051 0)
(1.0113435 -0.0013645835 0)
(1.0114792 -0.0013146111 0)
(1.0115317 -0.0011611875 0)
(1.0114883 -0.00094131346 0)
(1.0113504 -0.00069431049 0)
(1.0111365 -0.00045595119 0)
(1.0108771 -0.00025439068 0)
(1.0106109 -0.00010742077 0)
(1.0103822 -2.200244e-05 0)
(1.0102385 4.9703342e-06 0)
(0.89896574 1.6578534e-05 1.6443024e-24)
(0.91650653 0.00012139868 0)
(0.9337439 0.00040877954 1.5467075e-23)
(0.95070399 0.00060178175 0)
(0.96620448 0.0010075859 0)
(0.97990969 0.0014231629 0)
(0.99107908 0.0018569719 0)
(1.002089 0.0030899037 0)
(1.0110143 0.0037036736 0)
(1.0129154 0.0043708806 0)
(1.0123682 0.0042325982 0)
(1.0128384 0.0044822466 0)
(1.0131963 0.0042322042 0)
(1.0129421 0.0041741293 0)
(1.0124374 0.003715836 0)
(1.0118825 0.0033385637 0)
(1.0113593 0.0026833648 0)
(1.0109464 0.0020456087 0)
(1.0106572 0.0013121084 0)
(1.0105108 0.00060935666 0)
(1.0104952 -6.0451832e-05 0)
(1.0105983 -0.00064270698 0)
(1.0107869 -0.0011067891 0)
(1.0110332 -0.0014251357 0)
(1.0112897 -0.0015855013 0)
(1.0115115 -0.0015934621 0)
(1.0116573 -0.0014709651 0)
(1.0117024 -0.0012528555 0)
(1.0116361 -0.00098108797 0)
(1.0114683 -0.00069681098 0)
(1.0112216 -0.00043587663 0)
(1.0109315 -0.0002245524 0)
(1.0106394 -7.7997872e-05 0)
(1.0103916 -4.211151e-07 0)
(1.0102359 1.3149128e-05 0)
(0.88321164 -5.1797895e-05 -7.2272067e-24)
(0.89991912 9.2718061e-05 -2.220469e-23)
(0.91715564 0.00023016901 -1.5459086e-23)
(0.93454777 0.00059196745 -2.3589956e-23)
(0.95165759 0.00069195814 -2.9589955e-23)
(0.967224 0.001243061 0)
(0.98102793 0.001862898 0)
(0.99208279 0.0023953629 0)
(1.0032762 0.0038494519 0)
(1.0113085 0.0042677796 0)
(1.0122509 0.0046277138 0)
(1.0118022 0.0044432256 0)
(1.012351 0.0045952938 0)
(1.012631 0.0042759173 0)
(1.0123167 0.0041363186 0)
(1.0117973 0.0035681002 0)
(1.0112762 0.0030776022 0)
(1.0108218 0.0023258304 0)
(1.0104996 0.0016123106 0)
(1.0103127 0.00083153537 0)
(1.0102718 0.00010426111 0)
(1.0103624 -0.0005654559 0)
(1.0105645 -0.0011227516 0)
(1.010843 -0.0015405873 0)
(1.0111599 -0.0017934837 0)
(1.0114659 -0.001877226 0)
(1.0117111 -0.0018049358 0)
(1.011859 -0.0016065904 0)
(1.0118863 -0.0013239013 0)
(1.011791 -0.0010021744 0)
(1.0115873 -0.00068422803 0)
(1.0113049 -0.00040452388 0)
(1.0109822 -0.00018712331 0)
(1.0106639 -4.3923603e-05 0)
(1.0103965 2.3562991e-05 0)
(1.010229 2.2011617e-05 0)
(0.8690189 -7.1046411e-05 9.0256191e-24)
(0.88400363 -4.7871451e-06 3.892863e-23)
(0.90048791 0.0002089728 0)
(0.91795172 0.00034947381 8.2547134e-23)
(0.93552349 0.00069435031 2.9441994e-23)
(0.95282933 0.00080405722 4.4558126e-23)
(0.96837181 0.0016679729 2.2859651e-23)
(0.98219256 0.0024872186 0)
(0.99314555 0.003012143 0)
(1.0044698 0.0044798569 0)
(1.0113989 0.004640033 0)
(1.0115376 0.0047863327 0)
(1.011248 0.0045718082 0)
(1.011832 0.0046660392 0)
(1.0120129 0.0042653644 0)
(1.0116412 0.0040172572 0)
(1.0111368 0.003322993 0)
(1.0106786 0.0027174809 0)
(1.0103135 0.0018830027 0)
(1.0100951 0.0011061627 0)
(1.0100172 0.00029316364 0)
(1.0100878 -0.00044678696 0)
(1.0102866 -0.0011017506 0)
(1.0105895 -0.0016215005 0)
(1.0109536 -0.0019788739 0)
(1.0113366 -0.0021551653 0)
(1.0116815 -0.0021531541 0)
(1.0119416 -0.0019951215 0)
(1.0120798 -0.0017192688 0)
(1.0120817 -0.0013727033 0)
(1.0119497 -0.0010044161 0)
(1.0117061 -0.00065665655 0)
(1.011385 -0.0003624601 0)
(1.0110284 -0.0001426709 0)
(1.0106836 -5.2668037e-06 0)
(1.010397 4.9643606e-05 0)
(1.0102178 3.1469166e-05 0)
(0.85704279 -9.7280903e-05 -1.7039561e-26)
(0.86957509 -4.2498716e-05 -9.1270617e-24)
(0.88445037 0.00011414465 1.6563276e-23)
(0.90119163 0.00030290093 -3.267163e-23)
(0.91893897 0.00037985451 -6.1160945e-23)
(0.93672943 0.00082493275 3.995491e-23)
(0.95413996 0.0010975384 1.5944026e-22)
(0.96953664 0.0023122098 -2.8581467e-23)
(0.98335969 0.0031169621 0)
(0.99435296 0.0035886573 0)
(1.0056071 0.004922562 0)
(1.0111936 0.0048710315 0)
(1.0108307 0.0049200474 0)
(1.0106839 0.0046530896 0)
(1.0112592 0.0046962307 0)
(1.0113241 0.0041746601 0)
(1.010932 0.0037918541 0)
(1.0104795 0.0029675017 0)
(1.0101087 0.0022619982 0)
(1.0098473 0.0013589099 0)
(1.00974 0.0005347202 0)
(1.0097776 -0.00029880164 0)
(1.0099626 -0.0010372252 0)
(1.0102732 -0.0016648524 0)
(1.0106748 -0.0021319063 0)
(1.0111218 -0.0024160019 0)
(1.0115611 -0.0025040807 0)
(1.0119365 -0.0024084094 0)
(1.0121986 -0.0021605948 0)
(1.0123183 -0.0018064558 0)
(1.0122848 -0.0013987166 0)
(1.0121106 -0.00098745234 0)
(1.0118226 -0.00061469524 0)
(1.0114606 -0.00031028793 0)
(1.01107 -9.1372386e-05 0)
(1.0106983 3.6862965e-05 0)
(1.0103929 7.7586826e-05 0)
(1.0102025 4.1408029e-05 0)
(0.84721902 -9.402042e-05 -3.6240027e-24)
(0.85733337 -7.1843382e-05 4.1386408e-24)
(0.86989247 7.2956064e-05 0)
(0.88501925 0.00017274307 -2.4997419e-23)
(0.90209598 0.00029097928 -7.2139491e-24)
(0.92016645 0.0004385118 0)
(0.93808024 0.0011564564 -1.1351202e-22)
(0.95547458 0.0016099709 -1.3028622e-22)
(0.9706903 0.0030037758 0)
(0.98461675 0.0035873407 0)
(0.99580345 0.0039821315 0)
(1.0066761 0.005236753 0)
(1.0107828 0.0049799677 0)
(1.0101273 0.0050502499 0)
(1.0100712 0.0047073229 0)
(1.0106006 0.0046519406 0)
(1.0105824 0.0039681754 0)
(1.0102195 0.0034428304 0)
(1.0098488 0.0025063843 0)
(1.0095811 0.0017167873 0)
(1.0094313 0.00076243583 0)
(1.0094411 -9.7282082e-05 0)
(1.0095979 -0.00093783212 0)
(1.009902 -0.0016627614 0)
(1.0103246 -0.0022478664 0)
(1.010824 -0.0026485504 0)
(1.0113463 -0.0028452123 0)
(1.0118342 -0.0028345884 0)
(1.0122268 -0.0026384484 0)
(1.0124806 -0.0022979784 0)
(1.0125697 -0.0018668675 0)
(1.0124938 -0.0014009785 0)
(1.0122708 -0.00095190136 0)
(1.0119354 -0.00055889178 0)
(1.0115311 -0.00024873922 0)
(1.0111059 -3.4221637e-05 0)
(1.0107079 8.2626859e-05 0)
(1.0103843 0.00010704409 0)
(1.0101831 5.1728687e-05 0)
(0.84032541 -9.166944e-05 0)
(0.84716948 -6.4898207e-05 0)
(0.85748542 4.3736923e-05 -4.2693382e-24)
(0.87030496 9.0776521e-05 0)
(0.88580114 0.00011049333 -3.6513842e-24)
(0.90323072 0.00029717009 5.7210843e-23)
(0.92156069 0.00071450059 2.7621103e-22)
(0.93945819 0.0017174249 2.5103342e-22)
(0.95681727 0.0021659657 0)
(0.97193908 0.0035415821 0)
(0.98612096 0.0038325984 0)
(0.9975948 0.0042433325 0)
(1.0077338 0.005488783 0)
(1.0102464 0.0050383815 0)
(1.0093416 0.0051659177 0)
(1.0093793 0.0046928014 0)
(1.0098729 0.0044834891 0)
(1.0098276 0.0036234692 0)
(1.0095329 0.0029757327 0)
(1.0092611 0.0019478864 0)
(1.0091046 0.0010921242 0)
(1.0090717 9.9067189e-05 0)
(1.0092024 -0.00078343978 0)
(1.0094835 -0.0016206785 0)
(1.0099095 -0.0023172735 0)
(1.0104459 -0.00284536 0)
(1.0110376 -0.0031640575 0)
(1.0116286 -0.0032602571 0)
(1.0121522 -0.0031409418 0)
(1.0125508 -0.0028387937 0)
(1.0127825 -0.0024049551 0)
(1.012832 -0.0018988244 0)
(1.0127049 -0.001379892 0)
(1.0124288 -0.00089797588 0)
(1.0120431 -0.00049016222 0)
(1.0115957 -0.00017844736 0)
(1.011136 2.8377854e-05 0)
(1.0107123 0.00013099425 0)
(1.0103711 0.00013779724 0)
(1.0101597 6.2395202e-05 0)
(0.83979331 -4.0305653e-05 -5.4141112e-25)
(0.84027671 1.7589949e-05 0)
(0.84707022 6.1438148e-05 -1.1265699e-23)
(0.85765342 3.4653762e-05 -1.7237354e-23)
(0.87094422 -1.9300731e-05 -1.0153867e-23)
(0.88680347 5.8926798e-05 1.9412192e-23)
(0.9045344 0.0005262421 8.5951722e-24)
(0.92299888 0.0012408122 3.4556616e-23)
(0.94086305 0.0023122977 -3.2954716e-22)
(0.95827027 0.0025647326 0)
(0.97343983 0.0037928785 -3.3832176e-22)
(0.98798484 0.0039433284 0)
(0.99961868 0.0044702823 0)
(1.0085939 0.005740748 0)
(1.0095183 0.0051264966 0)
(1.0084248 0.0052100288 0)
(1.0086268 0.0045426688 0)
(1.0091238 0.0041578098 0)
(1.0090963 0.0031476675 0)
(1.0088912 0.0024023211 0)
(1.0087262 0.0013041225 0)
(1.0086846 0.00039521619 0)
(1.0087715 -0.00062450178 0)
(1.0090286 -0.0015210801 0)
(1.0094389 -0.0023418566 0)
(1.0099909 -0.0029957049 0)
(1.0106389 -0.0034498743 0)
(1.0113184 -0.0036714025 0)
(1.0119664 -0.0036540788 0)
(1.0125141 -0.0034174649 0)
(1.0129034 -0.0030058883 0)
(1.013102 -0.0024789545 0)
(1.0131005 -0.0019022165 0)
(1.0129161 -0.001335211 0)
(1.0125822 -0.0008268446 0)
(1.0121446 -0.00040927694 0)
(1.0116537 -0.00010027788 0)
(1.0111601 9.5418024e-05 0)
(1.0107114 0.00018192714 0)
(1.0103536 0.00016955014 0)
(1.0101325 7.3289391e-05 0)
(0.83945685 9.6113971e-05 1.0026462e-23)
(0.83975375 0.00012212105 0)
(0.84711535 1.7920375e-05 -3.5948263e-24)
(0.84688293 4.1054556e-05 1.7228239e-23)
(0.85800626 -0.00010994824 4.0200604e-24)
(0.87176982 -0.00011139867 1.1862454e-22)
(0.88797872 0.00024240191 -2.2059665e-22)
(0.90588309 0.0010088627 -1.0147793e-22)
(0.92447663 0.0018071322 -3.0684339e-22)
(0.94238683 0.0027130572 -1.2032566e-22)
(0.95998936 0.0026729729 -4.4346543e-22)
(0.97528576 0.0038835571 3.5178547e-22)
(0.99016648 0.0040557179 0)
(1.0016393 0.0048099804 0)
(1.0089286 0.006003403 0)
(1.0085153 0.0051877375 0)
(1.0074271 0.0050925526 0)
(1.0078736 0.0042114496 0)
(1.0083966 0.003686614 0)
(1.0084095 0.0025569212 0)
(1.0083046 0.0017371116 0)
(1.0082486 0.00058426246 0)
(1.008323 -0.00036678463 0)
(1.0085348 -0.0014062099 0)
(1.0089241 -0.0023062758 0)
(1.0094705 -0.0030975814 0)
(1.0101502 -0.0036911768 0)
(1.0109071 -0.0040540671 0)
(1.0116655 -0.0041628011 0)
(1.0123593 -0.0040199328 0)
(1.012915 -0.003659162 0)
(1.013282 -0.0031360192 0)
(1.0134336 -0.0025189946 0)
(1.0133728 -0.0018762283 0)
(1.0131241 -0.0012681729 0)
(1.0127296 -0.00073911011 0)
(1.0122388 -0.00031727931 0)
(1.0117047 -1.5148448e-05 0)
(1.011178 0.00016642561 0)
(1.0107055 0.00023462929 0)
(1.0103319 0.00020207476 0)
(1.0101018 8.4346875e-05 0)
(0.83901127 6.5917906e-05 4.553117e-24)
(0.83942049 0.00024452353 1.304327e-23)
(0.84707787 0.00014300763 0)
(0.85689818 2.2475512e-05 -1.1686285e-26)
(0.84682796 -0.00011876358 -5.3057264e-24)
(0.85844317 -0.00024317026 -6.5210041e-23)
(0.87273558 4.124934e-05 0)
(0.88923339 0.00069565535 1.0080112e-22)
(0.90728674 0.0015280577 -1.5518695e-22)
(0.92607822 0.0021658535 1.1877578e-22)
(0.94416706 0.0027763475 5.524409e-22)
(0.9620898 0.0026053979 4.6037652e-22)
(0.97744844 0.0039768326 0)
(0.99251734 0.0043098877 0)
(1.0033542 0.0052876921 0)
(1.0086904 0.0061606016 0)
(1.007338 0.0051114415 0)
(1.0064487 0.0047709563 0)
(1.0071713 0.0037181327 0)
(1.0077118 0.0030928646 0)
(1.0077791 0.0018694121 0)
(1.007777 0.00099199931 0)
(1.007828 -0.000203032 0)
(1.0080211 -0.0011925941 0)
(1.0083653 -0.0022438104 0)
(1.008896 -0.0031367098 0)
(1.0095839 -0.003881748 0)
(1.0103929 -0.004397011 0)
(1.0112512 -0.0046501625 0)
(1.0120797 -0.0046301768 0)
(1.012803 -0.004351192 0)
(1.0133522 -0.0038610091 0)
(1.0136806 -0.0032270167 0)
(1.0137743 -0.0025235203 0)
(1.0136446 -0.0018218548 0)
(1.0133271 -0.001179097 0)
(1.0128692 -0.0006362342 0)
(1.012325 -0.00021523965 0)
(1.0117483 7.5924527e-05 0)
(1.0111896 0.0002405849 0)
(1.0106945 0.0002889472 0)
(1.0103063 0.00023511622 0)
(1.0100678 9.548215e-05 0)
(0.83883399 -0.00013072154 -6.6463847e-24)
(0.83899777 0.00018974286 -4.555947e-24)
(0.84702257 0.00027453991 -1.1245888e-23)
(0.85718151 0.00014195586 -4.1079044e-24)
(0.86882881 -3.8010784e-06 1.258485e-23)
(0.84687328 -0.0002680763 6.6443545e-23)
(0.85899087 -0.00012487296 4.8404037e-23)
(0.87372953 0.00047130924 0)
(0.89056312 0.0011953164 1.5935026e-22)
(0.90880211 0.0018308907 -5.3100655e-23)
(0.92792085 0.0021508489 0)
(0.9463172 0.0026476936 -6.5786665e-22)
(0.96454396 0.0025380812 0)
(0.97982661 0.0042308538 0)
(0.99490296 0.0047262116 0)
(1.0046736 0.0057532724 0)
(1.0078815 0.0060405263 0)
(1.0061065 0.0047973558 0)
(1.0055717 0.0042691655 0)
(1.0065365 0.0031019313 0)
(1.0070792 0.0023955747 0)
(1.0072096 0.001100994 0)
(1.0073055 0.00017868404 0)
(1.0074629 -0.0010564314 0)
(1.0077819 -0.0020821217 0)
(1.00827 -0.0031376686 0)
(1.0089513 -0.0040079965 0)
(1.0097865 -0.0046885396 0)
(1.0107218 -0.0051045595 0)
(1.011674 -0.0052298871 0)
(1.0125578 -0.0050654791 0)
(1.0132954 -0.004641274 0)
(1.0138195 -0.0040192275 0)
(1.0140956 -0.0032763072 0)
(1.0141187 -0.0024928885 0)
(1.0139136 -0.0017390648 0)
(1.0135225 -0.0010697656 0)
(1.013 -0.00051917405 0)
(1.0124025 -0.0001043933 0)
(1.0117843 0.00017205924 0)
(1.0111949 0.00031733897 0)
(1.0106787 0.00034423011 0)
(1.0102768 0.00026847303 0)
(1.0100308 0.0001066411 0)
(0.83881112 -0.00033508009 3.9836535e-24)
(0.83882481 -4.3657289e-05 6.6532845e-24)
(0.84687503 0.00021072977 1.7264992e-23)
(0.85741882 0.00028017068 4.2376988e-24)
(0.86936409 0.00010616038 -1.2689644e-23)
(0.88296142 -2.0437436e-05 -7.1515595e-24)
(0.84714221 -0.00016359216 -1.0503441e-22)
(0.85957554 0.00028518853 -6.4308459e-23)
(0.87475206 0.00094937646 -1.9252214e-22)
(0.89197499 0.001478127 6.3705299e-23)
(0.91052039 0.0017371114 -6.5600241e-22)
(0.93010456 0.0019181906 2.8895964e-22)
(0.94881948 0.0025160443 0)
(0.96724098 0.0026376919 -5.5661895e-22)
(0.98227213 0.004686845 9.6562543e-22)
(0.99715233 0.0051395217 0)
(1.0055209 0.0060114843 0)
(1.0068559 0.0056506309 0)
(1.0048872 0.0042622441 0)
(1.00483 0.0036349537 0)
(1.0059682 0.0023824008 0)