/*--------------------------------*- C++ -*----------------------------------*\
| =========                 |                                                 |
| \\      /  F ield         | OpenFOAM: The Open Source CFD Toolbox           |
|  \\    /   O peration     | Version:  5.0                                   |
|   \\  /    A nd           | Web:      www.OpenFOAM.org                      |
|    \\/     M anipulation  |                                                 |
\*---------------------------------------------------------------------------*/
FoamFile
{
    version     2.0;
    format      ascii;
    class       volSymmTensorField;
    location    "380";
    object      UPrime2Mean;
}
// * * * * * * * * * * * * * * * * * * * * * * * * * * * * * * * * * * * * * //

dimensions      [0 2 -2 0 0 0 0];

internalField   nonuniform List<symmTensor> 
9520
(
(2.384594e-05 5.9009457e-07 0 1.903342e-08 0 0)
(2.4116765e-05 1.7331864e-06 0 1.6371799e-07 0 0)
(2.0473635e-05 5.5128266e-07 0 1.945344e-08 0 0)
(2.4605407e-05 2.8043939e-06 0 4.2626249e-07 0 0)
(2.0754079e-05 1.6211056e-06 0 1.6735189e-07 0 0)
(1.9189019e-05 5.3984216e-07 0 1.9847665e-08 0 0)
(2.5278968e-05 3.8073855e-06 0 7.8051443e-07 0 0)
(2.1264481e-05 2.6288441e-06 0 4.3599957e-07 0 0)
(1.9470689e-05 1.5890237e-06 0 1.7086851e-07 0 0)
(1.7193349e-05 5.2024734e-07 0 2.0669157e-08 0 0)
(2.6112031e-05 4.7446562e-06 0 1.2035577e-06 0 0)
(2.1973927e-05 3.5800597e-06 0 7.9914442e-07 0 0)
(1.9983411e-05 2.5804167e-06 0 4.4552373e-07 0 0)
(1.7473628e-05 1.533184e-06 0 1.7805658e-07 0 0)
(1.5722771e-05 5.056765e-07 0 2.1449834e-08 0 0)
(2.7081422e-05 5.6168134e-06 0 1.675618e-06 0 0)
(2.2859681e-05 4.4784283e-06 0 1.2338565e-06 0 0)
(2.0697967e-05 3.5207174e-06 0 8.1744808e-07 0 0)
(1.7986325e-05 2.4954508e-06 0 4.6494556e-07 0 0)
(1.599909e-05 1.4917884e-06 0 1.8496214e-07 0 0)
(1.4141857e-05 4.8999034e-07 0 2.2500391e-08 0 0)
(2.8164039e-05 6.4239175e-06 0 2.1799686e-06 0 0)
(2.3901222e-05 5.3254001e-06 0 1.7203526e-06 0 0)
(2.1592935e-05 4.4142804e-06 0 1.2636368e-06 0 0)
(1.8704089e-05 3.4153508e-06 0 8.547433e-07 0 0)
(1.65061e-05 2.4326657e-06 0 4.8369306e-07 0 0)
(1.4410041e-05 1.4470039e-06 0 1.9423417e-07 0 0)
(1.2780367e-05 4.7453267e-07 0 2.3465314e-08 0 0)
(2.9336936e-05 7.1651556e-06 0 2.7025909e-06 0 0)
(2.5078178e-05 6.121509e-06 0 2.2420338e-06 0 0)
(2.2649023e-05 5.2629098e-06 0 1.764136e-06 0 0)
(1.9607608e-05 4.2987586e-06 0 1.3244815e-06 0 0)
(1.7218187e-05 3.3380847e-06 0 8.9092417e-07 0 0)
(1.4903303e-05 2.3645974e-06 0 5.0892853e-07 0 0)
(1.3040062e-05 1.4027568e-06 0 2.0277938e-07 0 0)
(1.1436582e-05 4.5806782e-07 0 2.4584325e-08 0 0)
(3.0576989e-05 7.8396915e-06 0 3.2327692e-06 0 0)
(2.6370308e-05 6.8659448e-06 0 2.7851852e-06 0 0)
(2.384718e-05 6.0672928e-06 0 2.3019231e-06 0 0)
(2.06797e-05 5.1484541e-06 0 1.8544234e-06 0 0)
(1.8118139e-05 4.2152303e-06 0 1.3836861e-06 0 0)
(1.5598143e-05 3.2542258e-06 0 9.3985204e-07 0 0)
(1.3518686e-05 2.2966554e-06 0 5.3229323e-07 0 0)
(1.1683569e-05 1.3555449e-06 0 2.1267342e-07 0 0)
(1.0238549e-05 4.3959362e-07 0 2.5605979e-08 0 0)
(3.1862091e-05 8.4468174e-06 0 3.7610734e-06 0 0)
(2.7756716e-05 7.5570493e-06 0 3.3379671e-06 0 0)
(2.5168281e-05 6.8267781e-06 0 2.8624202e-06 0 0)
(2.1903428e-05 5.9657652e-06 0 2.4277747e-06 0 0)
(1.9190672e-05 5.0676115e-06 0 1.9422722e-06 0 0)
(1.6479366e-05 4.1243608e-06 0 1.4642916e-06 0 0)
(1.4194414e-05 3.1691496e-06 0 9.8540334e-07 0 0)
(1.2139086e-05 2.2235802e-06 0 5.5936407e-07 0 0)
(1.0472953e-05 1.3023408e-06 0 2.2170819e-07 0 0)
(9.0961074e-06 4.1896341e-07 0 2.6693986e-08 0 0)
(3.3170568e-05 8.9838759e-06 0 4.2827317e-06 0 0)
(2.9216193e-05 8.1918828e-06 0 3.8899153e-06 0 0)
(2.6593228e-05 7.5406031e-06 0 3.4351599e-06 0 0)
(2.3261641e-05 6.7502584e-06 0 3.0301646e-06 0 0)
(2.0420242e-05 5.8970003e-06 0 2.5498451e-06 0 0)
(1.7534148e-05 4.9795764e-06 0 2.0628651e-06 0 0)
(1.5053927e-05 4.0296917e-06 0 1.5398178e-06 0 0)
(1.2783981e-05 3.0763069e-06 0 1.0382435e-06 0 0)
(1.090604e-05 2.1402249e-06 0 5.8415673e-07 0 0)
(9.3147663e-06 1.2425618e-06 0 2.3136149e-07 0 0)
(8.078123e-06 3.960675e-07 0 2.7641234e-08 0 0)
(3.4483747e-05 9.4564239e-06 0 4.792381e-06 0 0)
(3.072974e-05 8.7681225e-06 0 4.4378743e-06 0 0)
(2.8103028e-05 8.2068581e-06 0 4.0103363e-06 0 0)
(2.4735969e-05 7.5002963e-06 0 3.6493017e-06 0 0)
(2.1790415e-05 6.7032692e-06 0 3.1919739e-06 0 0)
(1.8749121e-05 5.8224402e-06 0 2.7190209e-06 0 0)
(1.6086394e-05 4.8838401e-06 0 2.1764644e-06 0 0)
(1.3606868e-05 3.9239579e-06 0 1.6276107e-06 0 0)
(1.1520817e-05 2.9683341e-06 0 1.0868899e-06 0 0)
(9.7194295e-06 2.0454972e-06 0 6.1076784e-07 0 0)
(8.2815316e-06 1.1757009e-06 0 2.3980444e-07 0 0)
(7.1313322e-06 3.715087e-07 0 2.8541881e-08 0 0)
(3.5788251e-05 9.8622579e-06 0 5.3088725e-06 0 0)
(3.2307896e-05 9.2909136e-06 0 4.9750207e-06 0 0)
(2.9677618e-05 8.823305e-06 0 4.5823962e-06 0 0)
(2.6308447e-05 8.2148838e-06 0 4.2750013e-06 0 0)
(2.3283264e-05 7.4857391e-06 0 3.856787e-06 0 0)
(2.0109798e-05 6.6532711e-06 0 3.4184515e-06 0 0)
(1.7280037e-05 5.7347968e-06 0 2.8790252e-06 0 0)
(1.4598912e-05 4.7731967e-06 0 2.3090486e-06 0 0)
(1.2307394e-05 3.7976152e-06 0 1.7089353e-06 0 0)
(1.0295572e-05 2.8433474e-06 0 1.1393159e-06 0 0)
(8.6590005e-06 1.9383152e-06 0 6.3418629e-07 0 0)
(7.3181561e-06 1.103442e-06 0 2.4790789e-07 0 0)
(6.2960775e-06 3.4600541e-07 0 2.9222044e-08 0 0)
(3.7069063e-05 1.0200116e-05 0 5.7894899e-06 0 0)
(3.3912714e-05 9.7370946e-06 0 5.5032741e-06 0 0)
(3.1295558e-05 9.3864938e-06 0 5.1429885e-06 0 0)
(2.7975234e-05 8.8948906e-06 0 4.9005587e-06 0 0)
(2.4881485e-05 8.2441046e-06 0 4.5346604e-06 0 0)
(2.1600468e-05 7.4714533e-06 0 4.1493632e-06 0 0)
(1.8621946e-05 6.5834522e-06 0 3.6335187e-06 0 0)
(1.5750549e-05 5.6282169e-06 0 3.0667379e-06 0 0)
(1.3258213e-05 4.6355451e-06 0 2.432594e-06 0 0)
(1.1035183e-05 3.6477055e-06 0 1.7968067e-06 0 0)
(9.1980249e-06 2.69975e-06 0 1.1858832e-06 0 0)
(7.6658858e-06 1.8213214e-06 0 6.5692091e-07 0 0)
(6.4677663e-06 1.0279614e-06 0 2.5409833e-07 0 0)
(5.5339986e-06 3.1997306e-07 0 2.9759422e-08 0 0)
(3.8309545e-05 1.0457598e-05 0 6.3158889e-06 0 0)
(3.5475321e-05 1.0134623e-05 0 6.0237522e-06 0 0)
(3.2922292e-05 9.8993828e-06 0 5.7104516e-06 0 0)
(2.9722712e-05 9.5402844e-06 0 5.515392e-06 0 0)
(2.6557038e-05 8.9759048e-06 0 5.2193997e-06 0 0)
(2.3207192e-05 8.2763712e-06 0 4.9015361e-06 0 0)
(2.0097576e-05 7.4293555e-06 0 4.4284333e-06 0 0)
(1.7051701e-05 6.4906852e-06 0 3.8869166e-06 0 0)
(1.4364746e-05 5.4869083e-06 0 3.2426408e-06 0 0)
(1.1931504e-05 4.4665083e-06 0 2.5664664e-06 0 0)
(9.8921184e-06 3.4722576e-06 0 1.8757277e-06 0 0)
(8.163932e-06 2.5408394e-06 0 1.2315848e-06 0 0)
(6.7881324e-06 1.6980545e-06 0 6.7456453e-07 0 0)
(5.6906421e-06 9.5057859e-07 0 2.5908125e-07 0 0)
(4.8683434e-06 2.9397472e-07 0 3.0045058e-08 0 0)
(3.9504923e-05 1.0666265e-05 0 6.7779366e-06 0 0)
(3.707688e-05 1.0458137e-05 0 6.5805866e-06 0 0)
(3.4571656e-05 1.0367293e-05 0 6.2557562e-06 0 0)
(3.1480956e-05 1.0130802e-05 0 6.1276542e-06 0 0)
(2.8302186e-05 9.6821403e-06 0 5.905753e-06 0 0)
(2.4922945e-05 9.0660741e-06 0 5.667008e-06 0 0)
(2.1689058e-05 8.2690503e-06 0 5.2546165e-06 0 0)
(1.8491636e-05 7.3605052e-06 0 4.7579141e-06 0 0)
(1.5617446e-05 6.3539131e-06 0 4.1257048e-06 0 0)
(1.2977986e-05 5.3053426e-06 0 3.4339008e-06 0 0)
(1.073591e-05 4.2641607e-06 0 2.6880582e-06 0 0)
(8.8075752e-06 3.2746155e-06 0 1.9538725e-06 0 0)
(7.2479867e-06 2.3716157e-06 0 1.2677757e-06 0 0)
(5.9834669e-06 1.5707549e-06 0 6.8915726e-07 0 0)
(5.0119929e-06 8.7317766e-07 0 2.6183767e-07 0 0)
(4.2714486e-06 2.6781353e-07 0 3.0162709e-08 0 0)
(4.0639936e-05 1.0762394e-05 0 7.3823278e-06 0 0)
(3.8682339e-05 1.075404e-05 0 7.1085657e-06 0 0)
(3.6275542e-05 1.0771728e-05 0 6.838245e-06 0 0)
(3.323429e-05 1.0675317e-05 0 6.7383286e-06 0 0)
(3.0087394e-05 1.0348076e-05 0 6.6061227e-06 0 0)
(2.6716699e-05 9.8361147e-06 0 6.4464437e-06 0 0)
(2.3385223e-05 9.1004194e-06 0 6.1079513e-06 0 0)
(2.0062489e-05 8.2364055e-06 0 5.6694904e-06 0 0)
(1.700514e-05 7.2366533e-06 0 5.0699055e-06 0 0)
(1.4167321e-05 6.1674805e-06 0 4.3862761e-06 0 0)
(1.172338e-05 5.0811842e-06 0 3.6094715e-06 0 0)
(9.5927297e-06 4.0310555e-06 0 2.8094013e-06 0 0)
(7.8440237e-06 3.0613269e-06 0 2.0172283e-06 0 0)
(6.405016e-06 2.1951837e-06 0 1.2985202e-06 0 0)
(5.2806763e-06 1.4427976e-06 0 6.9772659e-07 0 0)
(4.4027193e-06 7.9519811e-07 0 2.6313213e-07 0 0)
(3.7564707e-06 2.4183681e-07 0 3.0055683e-08 0 0)
(4.1699566e-05 1.0888175e-05 0 7.9663001e-06 0 0)
(4.0355845e-05 1.0893613e-05 0 7.7858958e-06 0 0)
(3.8014427e-05 1.1133557e-05 0 7.3867217e-06 0 0)
(3.5051291e-05 1.1173272e-05 0 7.4063161e-06 0 0)
(3.1909438e-05 1.096995e-05 0 7.3183278e-06 0 0)
(2.8568725e-05 1.0564362e-05 0 7.2491709e-06 0 0)
(2.5184543e-05 9.9204704e-06 0 6.9850188e-06 0 0)
(2.1750522e-05 9.115087e-06 0 6.6153217e-06 0 0)
(1.8516181e-05 8.1339899e-06 0 6.065423e-06 0 0)
(1.5491093e-05 7.0546678e-06 0 5.4118851e-06 0 0)
(1.2846863e-05 5.9265894e-06 0 4.6280175e-06 0 0)
(1.051488e-05 4.8162021e-06 0 3.7860439e-06 0 0)
(8.5738685e-06 3.7756872e-06 0 2.9101278e-06 0 0)
(6.953374e-06 2.8362149e-06 0 2.0723919e-06 0 0)
(5.6681113e-06 2.0165866e-06 0 1.3177578e-06 0 0)
(4.6482559e-06 1.3132568e-06 0 7.0247641e-07 0 0)
(3.8774017e-06 7.1782501e-07 0 2.624218e-07 0 0)
(3.3047502e-06 2.1576623e-07 0 2.9787965e-08 0 0)
(4.2688882e-05 1.0703125e-05 0 8.7403416e-06 0 0)
(4.2049096e-05 1.1116231e-05 0 8.5105353e-06 0 0)
(3.984115e-05 1.1363484e-05 0 8.1353985e-06 0 0)
(3.6923238e-05 1.1621555e-05 0 8.067803e-06 0 0)
(3.3826517e-05 1.1542023e-05 0 8.1006633e-06 0 0)
(3.0472627e-05 1.1249619e-05 0 8.0889508e-06 0 0)
(2.7070471e-05 1.0707348e-05 0 7.8992963e-06 0 0)
(2.3549677e-05 9.9906303e-06 0 7.5933442e-06 0 0)
(2.0146671e-05 9.0460074e-06 0 7.104886e-06 0 0)
(1.6939093e-05 7.9671275e-06 0 6.4998273e-06 0 0)
(1.4096136e-05 6.8017882e-06 0 5.7326946e-06 0 0)
(1.1568212e-05 5.6338464e-06 0 4.8730249e-06 0 0)
(9.4342114e-06 4.5208627e-06 0 3.9356781e-06 0 0)
(7.6277486e-06 3.5024363e-06 0 2.9996325e-06 0 0)
(6.1733482e-06 2.6061745e-06 0 2.109147e-06 0 0)
(5.0034074e-06 1.8345393e-06 0 1.3299503e-06 0 0)
(4.1035762e-06 1.1844626e-06 0 7.017284e-07 0 0)
(3.4160958e-06 6.4005784e-07 0 2.6031407e-07 0 0)
(2.92246e-06 1.9013815e-07 0 2.9326235e-08 0 0)
(4.3373564e-05 1.0808415e-05 0 9.8246822e-06 0 0)
(4.4136848e-05 1.0776734e-05 0 9.5337344e-06 0 0)
(4.1833571e-05 1.1635212e-05 0 8.9283466e-06 0 0)
(3.8957267e-05 1.1966861e-05 0 8.9975469e-06 0 0)
(3.5817137e-05 1.2048051e-05 0 8.9262067e-06 0 0)
(3.2516194e-05 1.1883641e-05 0 9.0245622e-06 0 0)
(2.9033687e-05 1.145366e-05 0 8.8682516e-06 0 0)
(2.5452438e-05 1.0846542e-05 0 8.6159235e-06 0 0)
(2.1893045e-05 9.9695288e-06 0 8.1840212e-06 0 0)
(1.8500692e-05 8.9045299e-06 0 7.6423234e-06 0 0)
(1.5461298e-05 7.7077533e-06 0 6.913706e-06 0 0)
(1.2744792e-05 6.4860827e-06 0 6.0604197e-06 0 0)
(1.0419977e-05 5.3004547e-06 0 5.084273e-06 0 0)
(8.4261693e-06 4.2003147e-06 0 4.0709233e-06 0 0)
(6.7967446e-06 3.2201577e-06 0 3.0627027e-06 0 0)
(5.4681382e-06 2.369748e-06 0 2.1348705e-06 0 0)
(4.43138e-06 1.6527937e-06 0 1.331512e-06 0 0)
(3.6245313e-06 1.0544783e-06 0 6.9729204e-07 0 0)
(3.0261309e-06 5.6357025e-07 0 2.5648436e-07 0 0)
(2.5968692e-06 1.6502558e-07 0 2.870664e-08 0 0)
(4.4033436e-05 9.9518123e-06 0 1.0847855e-05 0 0)
(4.621645e-05 1.1338933e-05 0 1.1201643e-05 0 0)
(4.4372594e-05 1.1370392e-05 0 1.024589e-05 0 0)
(4.1272337e-05 1.2272472e-05 0 1.004449e-05 0 0)
(3.80994e-05 1.245772e-05 0 1.0118187e-05 0 0)
(3.4699044e-05 1.2436727e-05 0 1.007072e-05 0 0)
(3.1175929e-05 1.2150862e-05 0 9.9621015e-06 0 0)
(2.7444525e-05 1.1667306e-05 0 9.7037044e-06 0 0)
(2.3750419e-05 1.0893944e-05 0 9.31291e-06 0 0)
(2.0167935e-05 9.8663065e-06 0 8.834217e-06 0 0)
(1.6932594e-05 8.646058e-06 0 8.1645083e-06 0 0)
(1.4034111e-05 7.3732199e-06 0 7.3396037e-06 0 0)
(1.152392e-05 6.1158929e-06 0 6.3469283e-06 0 0)
(9.3453279e-06 4.9339202e-06 0 5.2778345e-06 0 0)
(7.5374053e-06 3.8653342e-06 0 4.1707291e-06 0 0)
(6.0435406e-06 2.9274948e-06 0 3.1100999e-06 0 0)
(4.8612589e-06 2.1323151e-06 0 2.1432769e-06 0 0)
(3.9277374e-06 1.4682828e-06 0 1.3262231e-06 0 0)
(3.2206836e-06 9.2645794e-07 0 6.8811025e-07 0 0)
(2.6938756e-06 4.8833353e-07 0 2.5128523e-07 0 0)
(2.328385e-06 1.411314e-07 0 2.7915599e-08 0 0)
(4.3118997e-05 1.0123611e-05 0 1.3193485e-05 0 0)
(4.9181975e-05 9.49891e-06 0 1.3001964e-05 0 0)
(4.7140378e-05 1.18651e-05 0 1.2307807e-05 0 0)
(4.4395262e-05 1.2153718e-05 0 1.1971988e-05 0 0)
(4.0863975e-05 1.2778491e-05 0 1.1596704e-05 0 0)
(3.7341017e-05 1.2870868e-05 0 1.1597782e-05 0 0)
(3.3591846e-05 1.2759779e-05 0 1.1229502e-05 0 0)
(2.9636435e-05 1.2449195e-05 0 1.0943317e-05 0 0)
(2.5706942e-05 1.1798569e-05 0 1.0514277e-05 0 0)
(2.1940851e-05 1.0846734e-05 0 1.0085043e-05 0 0)
(1.8501791e-05 9.6179089e-06 0 9.4809621e-06 0 0)
(1.5424632e-05 8.2949384e-06 0 8.7059602e-06 0 0)
(1.2737961e-05 6.9668691e-06 0 7.7168659e-06 0 0)
(1.0380523e-05 5.7050191e-06 0 6.6122783e-06 0 0)
(8.3933026e-06 4.5462442e-06 0 5.4258986e-06 0 0)
(6.7294473e-06 3.5149394e-06 0 4.2497478e-06 0 0)
(5.3944084e-06 2.6313009e-06 0 3.1321917e-06 0 0)
(4.3266979e-06 1.8897566e-06 0 2.1408642e-06 0 0)
(3.5045054e-06 1.2860525e-06 0 1.3116626e-06 0 0)
(2.8766017e-06 7.9989529e-07 0 6.7528511e-07 0 0)
(2.4206231e-06 4.1657814e-07 0 2.4456511e-07 0 0)
(2.107479e-06 1.1873138e-07 0 2.6978473e-08 0 0)
(4.1123847e-05 7.5783525e-06 0 1.4349826e-05 0 0)
(5.0464516e-05 1.1257889e-05 0 1.7184943e-05 0 0)
(5.1714203e-05 9.8125696e-06 0 1.5202912e-05 0 0)
(4.8299082e-05 1.2491442e-05 0 1.4842244e-05 0 0)
(4.4748219e-05 1.2671614e-05 0 1.4330563e-05 0 0)
(4.0759289e-05 1.3168892e-05 0 1.3639132e-05 0 0)
(3.661553e-05 1.3229025e-05 0 1.3107118e-05 0 0)
(3.2218258e-05 1.3149435e-05 0 1.2405892e-05 0 0)
(2.7863723e-05 1.267695e-05 0 1.188832e-05 0 0)
(2.3816344e-05 1.1824935e-05 0 1.1421007e-05 0 0)
(2.0168493e-05 1.0619451e-05 0 1.0876938e-05 0 0)
(1.6908437e-05 9.2512018e-06 0 1.0159471e-05 0 0)
(1.4054216e-05 7.8521993e-06 0 9.1907856e-06 0 0)
(1.1526121e-05 6.5129113e-06 0 8.0677774e-06 0 0)
(9.3613161e-06 5.2650941e-06 0 6.820459e-06 0 0)
(7.5246446e-06 4.1374057e-06 0 5.5477874e-06 0 0)
(6.0311062e-06 3.1570761e-06 0 4.2944909e-06 0 0)
(4.8226795e-06 2.3266862e-06 0 3.1388118e-06 0 0)
(3.8787415e-06 1.649188e-06 0 2.1231969e-06 0 0)
(3.1443786e-06 1.1047684e-06 0 1.2902034e-06 0 0)
(2.5953206e-06 6.7899057e-07 0 6.5823953e-07 0 0)
(2.1962411e-06 3.489985e-07 0 2.3655835e-07 0 0)
(1.9305923e-06 9.8349942e-08 0 2.5906603e-08 0 0)
(3.805514e-05 6.7762088e-06 0 1.9219216e-05 0 0)
(5.3730618e-05 5.5863959e-06 0 2.0304847e-05 0 0)
(5.5132815e-05 1.1752555e-05 0 2.1132854e-05 0 0)
(5.4943806e-05 1.0415001e-05 0 1.9681192e-05 0 0)
(5.027537e-05 1.2799992e-05 0 1.8505032e-05 0 0)
(4.5742973e-05 1.3015367e-05 0 1.7433123e-05 0 0)
(4.0768971e-05 1.3518449e-05 0 1.5749878e-05 0 0)
(3.5564845e-05 1.3717378e-05 0 1.4596264e-05 0 0)
(3.0482682e-05 1.3499525e-05 0 1.3532729e-05 0 0)
(2.5885441e-05 1.2788058e-05 0 1.295813e-05 0 0)
(2.1939532e-05 1.16287e-05 0 1.2386955e-05 0 0)
(1.8488226e-05 1.023779e-05 0 1.1721805e-05 0 0)
(1.546838e-05 8.7687989e-06 0 1.0773666e-05 0 0)
(1.2777819e-05 7.3544574e-06 0 9.641056e-06 0 0)
(1.0438468e-05 6.0217332e-06 0 8.3476688e-06 0 0)
(8.427174e-06 4.7983086e-06 0 6.997061e-06 0 0)
(6.770525e-06 3.7156953e-06 0 5.6258133e-06 0 0)
(5.4159832e-06 2.7862675e-06 0 4.3187351e-06 0 0)
(4.3444803e-06 2.0226295e-06 0 3.1229078e-06 0 0)
(3.4987275e-06 1.408304e-06 0 2.0944253e-06 0 0)
(2.8522297e-06 9.3114635e-07 0 1.2603758e-06 0 0)
(2.3652547e-06 5.6446639e-07 0 6.3768646e-07 0 0)
(2.0176727e-06 2.873577e-07 0 2.2733445e-07 0 0)
(1.7901688e-06 8.0139604e-08 0 2.4729241e-08 0 0)
(3.9903748e-05 4.2717926e-06 0 2.0876824e-05 0 0)
(5.5700656e-05 6.7899512e-06 0 2.9045909e-05 0 0)
(6.2318353e-05 4.4280339e-06 0 2.7797475e-05 0 0)
(6.2097865e-05 1.1997891e-05 0 2.8354567e-05 0 0)
(5.9741751e-05 1.0586264e-05 0 2.5990947e-05 0 0)
(5.350091e-05 1.2838028e-05 0 2.3330957e-05 0 0)
(4.7071867e-05 1.3338645e-05 0 2.0685485e-05 0 0)
(4.0390187e-05 1.4083801e-05 0 1.7810576e-05 0 0)
(3.4001055e-05 1.4213074e-05 0 1.6011153e-05 0 0)
(2.8455605e-05 1.3726154e-05 0 1.4827432e-05 0 0)
(2.3915374e-05 1.2626831e-05 0 1.4142395e-05 0 0)
(2.0183223e-05 1.1227584e-05 0 1.343827e-05 0 0)
(1.6989714e-05 9.7097552e-06 0 1.2493052e-05 0 0)
(1.4136763e-05 8.2239059e-06 0 1.1339002e-05 0 0)
(1.1624495e-05 6.8135276e-06 0 1.0002931e-05 0 0)
(9.4353255e-06 5.4991616e-06 0 8.5899195e-06 0 0)
(7.6106137e-06 4.3118622e-06 0 7.1198358e-06 0 0)
(6.1055559e-06 3.2750451e-06 0 5.6785025e-06 0 0)
(4.9021734e-06 2.4130864e-06 0 4.3122197e-06 0 0)
(3.9409582e-06 1.7160554e-06 0 3.0908305e-06 0 0)
(3.1930815e-06 1.1766743e-06 0 2.0516144e-06 0 0)
(2.6148966e-06 7.6552513e-07 0 1.2237216e-06 0 0)
(2.184433e-06 4.5987452e-07 0 6.1367095e-07 0 0)
(1.876901e-06 2.3211823e-07 0 2.171451e-07 0 0)
(1.6810929e-06 6.4246098e-08 0 2.3473542e-08 0 0)
(4.0545832e-05 3.7512948e-06 0 2.9898773e-05 0 0)
(6.7710608e-05 -1.4500152e-06 0 3.5387048e-05 0 0)
(6.91703e-05 5.2910821e-06 0 4.0921106e-05 0 0)
(7.4774081e-05 3.3578163e-06 0 4.0933261e-05 0 0)
(7.253126e-05 1.1402307e-05 0 3.8709844e-05 0 0)
(6.6594301e-05 1.03582e-05 0 3.4281369e-05 0 0)
(5.739811e-05 1.2882528e-05 0 2.8554532e-05 0 0)
(4.7991768e-05 1.3990698e-05 0 2.3872334e-05 0 0)
(3.9322522e-05 1.4731878e-05 0 1.9779125e-05 0 0)
(3.2036168e-05 1.458426e-05 0 1.7655952e-05 0 0)
(2.6421678e-05 1.3617488e-05 0 1.6329415e-05 0 0)
(2.2118905e-05 1.2195815e-05 0 1.5464326e-05 0 0)
(1.865168e-05 1.0640525e-05 0 1.4407403e-05 0 0)
(1.5622885e-05 9.1118212e-06 0 1.3189947e-05 0 0)
(1.2925853e-05 7.6341664e-06 0 1.1790516e-05 0 0)
(1.0550486e-05 6.2389216e-06 0 1.0319175e-05 0 0)
(8.5494432e-06 4.9491643e-06 0 8.7686683e-06 0 0)
(6.8886842e-06 3.7989327e-06 0 7.2135796e-06 0 0)
(5.5505628e-06 2.8271319e-06 0 5.6917662e-06 0 0)
(4.4714625e-06 2.033802e-06 0 4.283881e-06 0 0)
(3.6194204e-06 1.4194232e-06 0 3.0375827e-06 0 0)
(2.9475112e-06 9.5406187e-07 0 1.9974459e-06 0 0)
(2.4315691e-06 6.1398586e-07 0 1.1800251e-06 0 0)
(2.043676e-06 3.6569385e-07 0 5.8690699e-07 0 0)
(1.7688966e-06 1.838846e-07 0 2.0622135e-07 0 0)
(1.59761e-06 5.05884e-08 0 2.2168045e-08 0 0)
(4.758583e-05 -1.1353685e-05 0 3.1805493e-05 0 0)
(7.4487046e-05 3.7598195e-06 0 5.3553035e-05 0 0)
(9.0436416e-05 -6.8346782e-06 0 5.6680316e-05 0 0)
(8.9739984e-05 2.6967969e-06 0 6.1207431e-05 0 0)
(9.3021066e-05 1.499185e-06 0 5.9302226e-05 0 0)
(8.6758097e-05 9.8388824e-06 0 5.2288239e-05 0 0)
(7.4823916e-05 1.0208508e-05 0 4.3444196e-05 0 0)
(6.0900032e-05 1.3428932e-05 0 3.3831998e-05 0 0)
(4.8056027e-05 1.4811965e-05 0 2.6949366e-05 0 0)
(3.7732209e-05 1.5280317e-05 0 2.2063602e-05 0 0)
(3.0046053e-05 1.4543876e-05 0 1.9650773e-05 0 0)
(2.4633617e-05 1.3145142e-05 0 1.8043171e-05 0 0)
(2.0603273e-05 1.1527879e-05 0 1.669212e-05 0 0)
(1.728121e-05 9.9788743e-06 0 1.5261596e-05 0 0)
(1.4371694e-05 8.4740447e-06 0 1.3736366e-05 0 0)
(1.1782149e-05 7.0138387e-06 0 1.2184122e-05 0 0)
(9.5875538e-06 5.62959e-06 0 1.0563092e-05 0 0)
(7.7619076e-06 4.3635884e-06 0 8.9168491e-06 0 0)
(6.2860425e-06 3.2713908e-06 0 7.2596219e-06 0 0)
(5.0887075e-06 2.3677404e-06 0 5.6775509e-06 0 0)
(4.1320517e-06 1.6640088e-06 0 4.2258664e-06 0 0)
(3.3654521e-06 1.1321721e-06 0 2.9671451e-06 0 0)
(2.7619497e-06 7.4964861e-07 0 1.9310742e-06 0 0)
(2.2916681e-06 4.7663109e-07 0 1.1306862e-06 0 0)
(1.9382925e-06 2.8345143e-07 0 5.5795173e-07 0 0)
(1.6874809e-06 1.4244602e-07 0 1.9482254e-07 0 0)
(1.5350514e-06 3.9013338e-08 0 2.0838566e-08 0 0)
(7.6152641e-05 -2.769351e-05 0 4.6092635e-05 0 0)
(0.00011289501 -3.1804333e-05 0 6.145331e-05 0 0)
(0.00010501446 2.3771008e-06 0 8.5358014e-05 0 0)
(0.00012467096 -1.2115943e-05 0 9.0306549e-05 0 0)
(0.00012051236 -1.6565099e-06 0 9.0808296e-05 0 0)
(0.00011774697 -1.4468818e-06 0 8.3234037e-05 0 0)
(0.00010347652 8.2813606e-06 0 6.7732736e-05 0 0)
(8.2905634e-05 1.0792485e-05 0 5.2932413e-05 0 0)
(6.3372925e-05 1.4302525e-05 0 3.9077524e-05 0 0)
(4.7480949e-05 1.5575396e-05 0 3.0471171e-05 0 0)
(3.6080739e-05 1.5338476e-05 0 2.4919049e-05 0 0)
(2.840145e-05 1.4009997e-05 0 2.1969753e-05 0 0)
(2.3218204e-05 1.2364094e-05 0 1.9641933e-05 0 0)
(1.9281556e-05 1.0783446e-05 0 1.7733741e-05 0 0)
(1.6016811e-05 9.2950382e-06 0 1.5906712e-05 0 0)
(1.3163966e-05 7.8170795e-06 0 1.4204344e-05 0 0)
(1.0733752e-05 6.3537557e-06 0 1.2498678e-05 0 0)
(8.7231752e-06 4.9739668e-06 0 1.07788e-05 0 0)
(7.103439e-06 3.7526825e-06 0 9.0110734e-06 0 0)
(5.7885185e-06 2.7245877e-06 0 7.2734503e-06 0 0)
(4.7296551e-06 1.9156842e-06 0 5.6240757e-06 0 0)
(3.869838e-06 1.3028894e-06 0 4.1436201e-06 0 0)
(3.1787059e-06 8.6689885e-07 0 2.8775923e-06 0 0)
(2.6246825e-06 5.6296116e-07 0 1.8548264e-06 0 0)
(2.1910147e-06 3.5679409e-07 0 1.0766021e-06 0 0)
(1.8612304e-06 2.1267554e-07 0 5.2752941e-07 0 0)
(1.627881e-06 1.0744997e-07 0 1.8318048e-07 0 0)
(1.4892364e-06 2.930386e-08 0 1.9507441e-08 0 0)
(0.00013809095 -4.2677022e-05 0 5.0392242e-05 0 0)
(0.00016468929 -5.7202465e-05 0 9.3954572e-05 0 0)
(0.00016297624 -5.3509471e-05 0 0.00011259218 0 0)
(0.00015598044 4.3459402e-07 0 0.00013684766 0 0)
(0.00017406482 -1.8312883e-05 0 0.00013692888 0 0)
(0.00016207895 -8.1776552e-06 0 0.00013007157 0 0)
(0.00014761301 -4.2566414e-06 0 0.00011057865 0 0)
(0.00012037815 7.7853463e-06 0 8.4293416e-05 0 0)
(8.9991717e-05 1.1824895e-05 0 6.2506749e-05 0 0)
(6.5099842e-05 1.5259297e-05 0 4.4969882e-05 0 0)
(4.6811049e-05 1.5762599e-05 0 3.489273e-05 0 0)
(3.4876724e-05 1.4726816e-05 0 2.8268216e-05 0 0)
(2.7259629e-05 1.306671e-05 0 2.4133506e-05 0 0)
(2.204702e-05 1.1506203e-05 0 2.0941674e-05 0 0)
(1.8036503e-05 1.0051255e-05 0 1.8477777e-05 0 0)
(1.4757295e-05 8.6185872e-06 0 1.6437556e-05 0 0)
(1.2019888e-05 7.1201213e-06 0 1.4586496e-05 0 0)
(9.7776273e-06 5.6354639e-06 0 1.2793078e-05 0 0)
(7.9974054e-06 4.2780046e-06 0 1.0938924e-05 0 0)
(6.5645337e-06 3.1115497e-06 0 9.0705734e-06 0 0)
(5.408083e-06 2.180609e-06 0 7.2379462e-06 0 0)
(4.4597391e-06 1.4703112e-06 0 5.538336e-06 0 0)
(3.6837193e-06 9.6717724e-07 0 4.0333813e-06 0 0)
(3.0472167e-06 6.2281043e-07 0 2.7722297e-06 0 0)
(2.5315929e-06 3.9988789e-07 0 1.7698828e-06 0 0)
(2.1213642e-06 2.5333032e-07 0 1.0191607e-06 0 0)
(1.8076245e-06 1.5310732e-07 0 4.9626287e-07 0 0)
(1.5856332e-06 7.8262416e-08 0 1.7150331e-07 0 0)
(1.4567123e-06 2.1239596e-08 0 1.8192851e-08 0 0)
(0.00025033102 -5.868284e-05 0 6.5521572e-05 0 0)
(0.0002381784 -9.1339775e-05 0 0.0001156294 0 0)
(0.00023727724 -9.5297191e-05 0 0.00016519325 0 0)
(0.00023657008 -7.4179868e-05 0 0.00019305532 0 0)
(0.00023616547 -2.2492295e-06 0 0.00021257529 0 0)
(0.00024007688 -2.7082836e-05 0 0.00019813722 0 0)
(0.00021261669 -1.4564646e-05 0 0.00017611303 0 0)
(0.00017930223 -5.6359222e-06 0 0.00014043277 0 0)
(0.0001363584 8.0213257e-06 0 0.00010147744 0 0)
(9.6396917e-05 1.3074312e-05 0 7.2967576e-05 0 0)
(6.6679775e-05 1.5615159e-05 0 5.2251538e-05 0 0)
(4.6706954e-05 1.5035037e-05 0 4.0064012e-05 0 0)
(3.4353151e-05 1.3560084e-05 0 3.1397236e-05 0 0)
(2.6423572e-05 1.2050506e-05 0 2.5811644e-05 0 0)
(2.0904443e-05 1.0716577e-05 0 2.1803218e-05 0 0)
(1.6729529e-05 9.3745845e-06 0 1.9051096e-05 0 0)
(1.351004e-05 7.9115994e-06 0 1.6876649e-05 0 0)
(1.0950311e-05 6.3526549e-06 0 1.4966735e-05 0 0)
(8.9683406e-06 4.8558507e-06 0 1.3038879e-05 0 0)
(7.4098044e-06 3.5365753e-06 0 1.1065815e-05 0 0)
(6.1610142e-06 2.4654081e-06 0 9.0711441e-06 0 0)
(5.1317329e-06 1.6396545e-06 0 7.1614617e-06 0 0)
(4.2769728e-06 1.0529275e-06 0 5.4136393e-06 0 0)
(3.5619132e-06 6.5563261e-07 0 3.8994741e-06 0 0)
(2.9656294e-06 4.087712e-07 0 2.6523748e-06 0 0)
(2.4733915e-06 2.5832687e-07 0 1.678536e-06 0 0)
(2.0775793e-06 1.6665002e-07 0 9.5954719e-07 0 0)
(1.7724385e-06 1.0362024e-07 0 4.6471991e-07 0 0)
(1.5570075e-06 5.4231453e-08 0 1.5995794e-07 0 0)
(1.4346085e-06 1.4608385e-08 0 1.6907249e-08 0 0)
(0.00043545575 -7.2432554e-05 -4.984336e-26 7.5582337e-05 9.0264792e-26 1.7934567e-46)
(0.0003631179 -0.00011651441 0 0.0001547268 0 0)
(0.00032417226 -0.0001511556 0 0.00021787222 0 0)
(0.00034147448 -0.00013996898 0 0.00027314693 0 0)
(0.00034492611 -9.2164926e-05 0 0.0003076358 0 0)
(0.00034965653 -7.2065078e-06 0 0.00031423534 0 0)
(0.00032088742 -3.6772567e-05 0 0.00027136065 0 0)
(0.00026771867 -1.9092257e-05 0 0.00022726095 0 0)
(0.00021109394 -6.0996207e-06 0 0.00017185021 0 0)
(0.00015180202 8.9763858e-06 0 0.00012012626 0 0)
(0.00010260783 1.367758e-05 0 8.5508812e-05 0 0)
(6.8935134e-05 1.4733969e-05 0 6.0669295e-05 0 0)
(4.7462531e-05 1.3555381e-05 0 4.487416e-05 0 0)
(3.4200883e-05 1.2328253e-05 0 3.3749921e-05 0 0)
(2.5536218e-05 1.1194264e-05 0 2.6830501e-05 0 0)
(1.9588447e-05 1.0059888e-05 0 2.2401095e-05 0 0)
(1.5359245e-05 8.690286e-06 0 1.9527019e-05 0 0)
(1.2304944e-05 7.1213391e-06 0 1.7345996e-05 0 0)
(1.0033654e-05 5.4953177e-06 0 1.532011e-05 0 0)
(8.321256e-06 4.0084483e-06 0 1.3260524e-05 0 0)
(6.9814545e-06 2.7772115e-06 0 1.112626e-05 0 0)
(5.8807643e-06 1.8165615e-06 0 9.0217077e-06 0 0)
(4.9563301e-06 1.1280388e-06 0 7.0329857e-06 0 0)
(4.1696381e-06 6.6222411e-07 0 5.2553544e-06 0 0)
(3.4969117e-06 3.8095298e-07 0 3.7429938e-06 0 0)
(2.9245075e-06 2.2177326e-07 0 2.5212508e-06 0 0)
(2.444371e-06 1.4011176e-07 0 1.5829621e-06 0 0)
(2.0535622e-06 9.4873077e-08 0 8.9932846e-07 0 0)
(1.7513807e-06 6.327262e-08 0 4.3351906e-07 0 0)
(1.5388664e-06 3.4690125e-08 0 1.4866293e-07 0 0)
(1.4205647e-06 9.2239347e-09 0 1.5659125e-08 0 0)
(0.00069864903 -8.5958328e-05 8.6579031e-26 9.482506e-05 -1.4770045e-25 5.4268586e-46)
(0.00055729282 -0.00014760467 1.2540235e-25 0.00019459784 9.354718e-27 1.9584894e-46)
(0.00045618851 -0.00018710401 0 0.00028449392 0 0)
(0.00044533691 -0.00022320012 0 0.0003699402 0 0)
(0.00048900845 -0.00019335597 0 0.00043338208 0 0)
(0.00049834867 -0.00010882887 0 0.00046211085 0 0)
(0.00049411218 -1.2053484e-05 0 0.00043583659 0 0)
(0.00040940421 -4.5671736e-05 0 0.00035660354 0 0)
(0.0003256866 -2.2689187e-05 0 0.00028156142 0 0)
(0.00024303427 -5.2078655e-06 0 0.00020541621 0 0)
(0.00016691648 9.6399274e-06 0 0.00014194341 0 0)
(0.0001095463 1.2582909e-05 0 9.9770365e-05 0 0)
(7.225353e-05 1.2824582e-05 0 6.8528974e-05 0 0)
(4.8657378e-05 1.2030369e-05 0 4.8434281e-05 0 0)
(3.3857293e-05 1.1392241e-05 0 3.5101176e-05 0 0)
(2.4301935e-05 1.0588538e-05 0 2.7435276e-05 0 0)
(1.8081672e-05 9.4429673e-06 0 2.2894774e-05 0 0)
(1.3987927e-05 7.911358e-06 0 2.0083864e-05 0 0)
(1.125372e-05 6.2019662e-06 0 1.7832382e-05 0 0)
(9.3109461e-06 4.5377333e-06 0 1.567029e-05 0 0)
(7.8666657e-06 3.123836e-06 0 1.3411573e-05 0 0)
(6.7019437e-06 2.0070046e-06 0 1.1127738e-05 0 0)
(5.7189239e-06 1.1969638e-06 0 8.9051982e-06 0 0)
(4.8697897e-06 6.4506716e-07 0 6.8588526e-06 0 0)
(4.1277038e-06 3.1517395e-07 0 5.063671e-06 0 0)
(3.4800114e-06 1.3900448e-07 0 3.5681487e-06 0 0)
(2.9165465e-06 6.5688653e-08 0 2.3820517e-06 0 0)
(2.437627e-06 4.2097776e-08 0 1.4845966e-06 0 0)
(2.045127e-06 3.7005717e-08 0 8.3921096e-07 0 0)
(1.7411164e-06 3.0963423e-08 0 4.0291625e-07 0 0)
(1.5286877e-06 1.9030667e-08 0 1.3769046e-07 0 0)
(1.4126425e-06 4.9297812e-09 0 1.4454716e-08 0 0)
(0.0010586 -9.3257628e-05 -7.5631119e-26 0.00011427447 1.5778771e-25 5.4712278e-46)
(0.00081742407 -0.00017228328 -3.0333123e-25 0.000252303 -4.9619181e-27 1.2108465e-45)
(0.00065721851 -0.00023618799 0 0.00036727734 0 0)
(0.00058678214 -0.00027181865 0 0.00047601462 0 0)
(0.00061616641 -0.00031201125 0 0.00059195221 0 0)
(0.00068321153 -0.00025512794 0 0.00065577299 0 0)
(0.00069837438 -0.00012121209 0 0.00065242635 0 0)
(0.00065270842 -1.6814359e-05 0 0.00057337321 0 0)
(0.0005031084 -5.4214454e-05 0 0.00045093229 0 0)
(0.00038618256 -2.4514629e-05 0 0.00033906152 0 0)
(0.00027447994 -4.2135054e-06 0 0.00024354606 0 0)
(0.00018268655 8.2214509e-06 0 0.00016629109 0 0)
(0.00011776207 1.0063503e-05 0 0.00011314304 0 0)
(7.6014131e-05 1.0937296e-05 0 7.4385226e-05 0 0)
(4.9407665e-05 1.1001165e-05 0 5.0466907e-05 0 0)
(3.2896616e-05 1.0874277e-05 0 3.5800175e-05 0 0)
(2.2684446e-05 1.0100488e-05 0 2.7914146e-05 0 0)
(1.6495505e-05 8.7261459e-06 0 2.3548898e-05 0 0)
(1.2773608e-05 6.9510333e-06 0 2.0734394e-05 0 0)
(1.0435846e-05 5.1332594e-06 0 1.8359049e-05 0 0)
(8.8288379e-06 3.5128336e-06 0 1.5952564e-05 0 0)
(7.5954808e-06 2.2162717e-06 0 1.3494852e-05 0 0)
(6.5632864e-06 1.2642503e-06 0 1.1044658e-05 0 0)
(5.6616741e-06 6.0749946e-07 0 8.7287175e-06 0 0)
(4.8589541e-06 2.122578e-07 0 6.6374543e-06 0 0)
(4.143213e-06 6.7545629e-09 0 4.8441318e-06 0 0)
(3.5008035e-06 -6.3531759e-08 0 3.3794419e-06 0 0)
(2.9347868e-06 -6.4050372e-08 0 2.2371285e-06 0 0)
(2.4482511e-06 -3.6044843e-08 0 1.3858745e-06 0 0)
(2.0481922e-06 -8.9188963e-09 0 7.7984975e-07 0 0)
(1.7388893e-06 5.513886e-09 0 3.7309309e-07 0 0)
(1.5243918e-06 6.7375787e-09 0 1.2709794e-07 0 0)
(1.4092352e-06 1.6017976e-09 0 1.3299771e-08 0 0)
(0.0015076494 -9.8054878e-05 0 0.00013776888 0 0)
(0.0011586588 -0.00019231576 2.6558022e-25 0.00031806516 3.1791355e-26 1.2149562e-45)
(0.00090979342 -0.00026994565 0 0.00046721305 0 0)
(0.00079426807 -0.00034122725 0 0.00061838552 0 0)
(0.00077219663 -0.0003797806 0 0.0007585149 0 0)
(0.00084130901 -0.00041985059 0 0.00089592567 0 0)
(0.00092265895 -0.00030779781 0 0.00093730897 0 0)
(0.00093468046 -0.00012536838 0 0.00087760285 0 0)
(0.00081382573 -2.3846557e-05 0 0.00071958069 0 0)
(0.00060223973 -5.9453092e-05 0 0.00055295507 0 0)
(0.00044672995 -2.5824469e-05 0 0.00040350652 0 0)
(0.0003062743 -5.9682548e-06 0 0.00028534169 0 0)
(0.00019993143 4.9129141e-06 0 0.00018920232 0 0)
(0.00012632307 7.7243442e-06 0 0.00012336066 0 0)
(7.8906605e-05 9.8183508e-06 0 7.793479e-05 0 0)
(4.9123436e-05 1.0625326e-05 0 5.1461193e-05 0 0)
(3.1267146e-05 1.0598382e-05 0 3.6317063e-05 0 0)
(2.0855322e-05 9.5219484e-06 0 2.8673411e-05 0 0)
(1.5062914e-05 7.7579123e-06 0 2.4421263e-05 0 0)