/*--------------------------------*- C++ -*----------------------------------*\
| =========                 |                                                 |
| \\      /  F ield         | OpenFOAM: The Open Source CFD Toolbox           |
|  \\    /   O peration     | Version:  5.0                                   |
|   \\  /    A nd           | Web:      www.OpenFOAM.org                      |
|    \\/     M anipulation  |                                                 |
\*---------------------------------------------------------------------------*/
FoamFile
{
    version     2.0;
    format      ascii;
    class       volScalarField;
    location    "260";
    object      ddt0(nuTilda);
}
// * * * * * * * * * * * * * * * * * * * * * * * * * * * * * * * * * * * * * //

dimensions      [0 2 -2 0 0 0 0];

internalField   nonuniform List<scalar> 
9520
(
-1.6941832e-36
-2.4879172e-34
-1.1255811e-35
-1.655402e-32
-1.2807196e-33
-1.2239794e-35
-6.7523925e-31
-6.9249209e-32
-1.3026481e-33
-5.4218932e-37
-1.9510349e-29
-2.3531692e-30
-6.4958065e-32
1.462629e-34
1.9133319e-35
-4.3484572e-28
-5.6924698e-29
-2.0010738e-30
1.9964892e-32
2.4329409e-33
3.6345937e-35
-7.8339093e-27
-1.0623395e-27
-4.2601331e-29
1.1215036e-30
1.4532249e-31
4.2066785e-33
3.8959347e-35
-1.1545368e-25
-1.6032302e-26
-6.6862952e-28
3.9115589e-29
5.4307616e-30
2.3008473e-31
4.0229932e-33
1.9043672e-35
-1.3889951e-24
-1.9912654e-25
-7.9061088e-27
9.7883413e-28
1.4402516e-28
7.9115905e-30
1.9426227e-31
1.1676575e-33
-2.2150146e-35
-1.3311882e-23
-2.0322364e-24
-6.7444264e-26
1.8960966e-26
2.9274317e-27
1.9308961e-28
5.806737e-30
1.0380077e-32
-3.793175e-33
-7.1335141e-35
-9.1757667e-23
-1.6344085e-23
-3.5076633e-25
2.9669455e-25
4.7937377e-26
3.595309e-27
1.1953923e-28
-1.4249805e-30
-2.685855e-31
-8.935049e-33
-1.0533064e-34
-5.3433747e-23
-8.5001764e-23
2.7999371e-25
3.7821536e-24
6.5369441e-25
5.3530509e-26
1.7660855e-27
-7.9054913e-29
-1.1240678e-29
-5.1860899e-31
-1.1525867e-32
-9.9499449e-35
4.0505634e-20
4.1247012e-22
2.565195e-23
3.9348836e-23
7.5392261e-24
6.6008734e-25
1.827472e-26
-2.3644535e-27
-3.2284918e-28
-1.8755801e-29
-5.906542e-31
-9.1525125e-33
-4.0108625e-35
3.6066865e-18
5.4727317e-20
1.5210272e-22
3.225813e-22
7.4238753e-23
6.9301997e-24
1.0947014e-25
-5.0452944e-26
-6.9445294e-27
-4.7828855e-28
-1.8882488e-29
-3.775945e-31
-1.0544519e-33
6.4712217e-35
2.2822267e-16
3.5481986e-18
-7.8710591e-21
1.611653e-21
6.2641053e-22
6.3814291e-23
-1.6642128e-25
-8.4115751e-25
-1.1864064e-25
-9.2304782e-27
-4.2295486e-28
-8.8278844e-30
1.2040789e-31
1.0961985e-32
1.8220774e-34
1.0456453e-14
1.6634321e-16
-1.4162552e-18
-3.6464636e-20
4.4215467e-21
5.4103828e-22
-1.2958349e-23
-1.1361591e-23
-1.6758456e-24
-1.4140867e-25
-7.0272143e-27
-1.1163514e-28
9.9864981e-30
7.6387358e-31
2.2661762e-32
2.64352e-34
3.5046711e-13
5.4844204e-15
-1.4241878e-16
-3.9881949e-18
4.4879134e-21
4.5317859e-21
-1.6703495e-22
-1.2819285e-22
-2.0006857e-23
-1.7841617e-24
-8.8435071e-26
1.7382194e-29
3.855303e-28
3.1464907e-29
1.3025334e-30
2.8785907e-32
2.6646302e-34
8.4603372e-12
1.1893254e-13
-8.9420067e-15
-2.6550569e-16
-1.8983294e-18
4.2333534e-20
-1.0375304e-21
-1.234245e-21
-2.0647176e-22
-1.8965643e-23
-8.378006e-25
3.6498365e-26
9.8991919e-27
8.8877994e-28
4.6495224e-29
1.4663091e-30
2.5200973e-32
1.664556e-34
1.4770215e-10
1.5048123e-12
-3.8157867e-13
-1.2955882e-14
-1.0788166e-16
1.1463239e-18
1.9388707e-20
-1.0231959e-20
-1.8842126e-21
-1.7360415e-22
-5.5043547e-24
9.7605909e-25
1.9186646e-25
1.8707836e-26
1.1659296e-27
4.6471226e-29
1.0825445e-30
1.0774389e-32
-2.4153289e-35
1.7741503e-09
3.1089153e-12
-1.1208238e-11
-4.617949e-13
-3.779596e-15
9.7973712e-17
2.5149739e-18
-5.8602986e-20
-1.5560425e-20
-1.4065382e-21
-1.394663e-23
1.6549993e-23
2.9794252e-24
3.109e-25
2.2002574e-26
1.026819e-27
2.7232031e-29
1.6170243e-31
-1.1886592e-32
-2.6154923e-34
1.4291049e-08
-1.8887601e-10
-2.2776082e-10
-1.1905769e-11
-7.6604719e-14
6.9941971e-15
2.0290691e-16
1.3595027e-18
-1.1573948e-19
-1.0493378e-20
2.2316928e-22
2.1583607e-22
3.8134372e-23
4.2401153e-24
3.269003e-25
1.6707738e-26
4.1506115e-28
-8.523248e-30
-1.0910524e-30
-3.7053529e-32
-4.8173333e-34
7.3917283e-08
-3.8896795e-09
-3.0677785e-09
-2.1770193e-10
-3.9140316e-13
3.4350873e-13
1.21021e-14
1.3302726e-16
-6.9886392e-19
-7.8560099e-20
4.1780141e-21
2.3200595e-21
4.1326899e-22
4.8395177e-23
3.9462384e-24
2.0316775e-25
2.7023818e-27
-5.4818489e-28
-5.171577e-29
-2.3347528e-30
-5.7510786e-32
-6.1857381e-34
2.628514e-07
-3.3292655e-08
-2.8087693e-08
-2.6640255e-09
2.1913711e-11
1.1574875e-11
5.2201416e-13
6.9913248e-15
-1.844268e-17
-1.064295e-18
4.0707111e-20
2.1322574e-20
3.8793063e-21
4.7083282e-22
3.9238482e-23
1.791529e-24
-4.5952583e-26
-1.6702526e-26
-1.5953318e-27
-8.979315e-29
-3.1913031e-30
-6.6598335e-32
-6.2188578e-34
6.4716624e-07
-1.7801031e-07
-1.6938045e-07
-2.1296189e-08
7.0687766e-10
2.6452504e-10
1.5981492e-11
2.5047773e-13
-2.4865386e-15
-6.2724919e-17
9.6866675e-21
1.7117491e-19
3.221705e-20
3.9751008e-21
3.2247989e-22
9.4390506e-24
-1.8115084e-24
-3.540555e-25
-3.5727524e-26
-2.4029467e-27
-1.10388e-28
-3.3505523e-30
-6.002625e-32
-4.7035221e-34
1.2049413e-06
-6.2129609e-07
-6.9863435e-07
-1.110493e-07
1.0237778e-08
3.9593278e-09
3.3870162e-10
6.0001259e-12
-1.8199205e-13
-4.5172317e-15
-2.903854e-17
1.1429566e-18
2.4191905e-19
2.9727232e-20
2.1733363e-21
-1.9444236e-23
-3.3820486e-23
-5.8109582e-24
-6.2352858e-25
-4.8132473e-26
-2.686371e-27
-1.0467689e-28
-2.6532485e-30
-3.6970547e-32
-1.7642021e-34
1.9887093e-06
-1.4190433e-06
-1.9826032e-06
-3.9105243e-07
8.6697709e-08
3.9700905e-08
4.8565344e-09
9.0333759e-11
-7.9352454e-12
-2.3576517e-13
-2.0767208e-15
-5.7679588e-19
1.6616906e-18
2.0211314e-19
1.1672309e-20
-1.1812591e-21
-4.5932426e-22
-7.6951922e-23
-8.8640819e-24
-7.598654e-25
-4.9042217e-26
-2.2749766e-27
-6.9691512e-29
-1.1327415e-30
-2.6195885e-34
2.1662245e-34
3.143421e-06
-2.0842021e-06
-4.0746664e-06
-9.5076937e-07
4.7358286e-07
2.6480616e-07
4.6420373e-08
7.395472e-10
-2.1860318e-10
-8.5177252e-12
-9.8702338e-14
-4.5425852e-16
1.0510711e-17
1.2937563e-18
4.5607839e-20
-1.716144e-20
-5.0337383e-21
-8.4987903e-22
-1.046497e-22
-9.8111772e-24
-6.9912659e-25
-3.6186437e-26
-1.1569142e-27
-9.1530424e-30
9.8953389e-31
4.4195079e-32
6.4303017e-34
3.1622942e-06
-3.038033e-06
-6.6826765e-06
-1.7862586e-06
1.6925085e-06
1.1962745e-06
2.9293542e-07
1.1326915e-09
-3.9037675e-09
-2.0845721e-10
-3.2884748e-12
-1.8513976e-14
1.5263595e-16
1.0233662e-17
9.060203e-20
-1.762606e-19
-4.6681543e-20
-8.0159018e-21
-1.0447811e-21
-1.0526182e-22
-8.0043715e-24
-4.2341789e-25
-1.0515195e-26
5.1365986e-28
6.7151333e-29
3.3461005e-30
8.8491369e-32
1.0258498e-33
3.0289523e-06
-4.5728016e-06
-9.5308422e-06
-3.0590916e-06
4.1169776e-06
3.7059174e-06
1.2073834e-06
-3.5658336e-08
-4.5465367e-08
-3.4609569e-09
-7.4495203e-11
-4.0167923e-13
1.2637516e-14
3.6048591e-16
1.9024408e-18
-1.4729161e-18
-3.7708625e-19
-6.5812756e-20
-8.9501473e-21
-9.4861701e-22
-7.3921145e-23
-3.4535473e-24
3.3463269e-26
2.389212e-26
2.4433502e-27
1.4511572e-28
5.4887103e-30
1.2404353e-31
1.2894316e-33
2.9966263e-06
-5.4246811e-06
-1.1409239e-05
-4.6209362e-06
7.2148633e-06
8.1805319e-06
3.2942244e-06
-3.7026049e-07
-3.4728544e-07
-3.7163185e-08
-1.1841073e-09
-5.7638794e-12
8.3048132e-13
2.6840717e-14
2.8851854e-16
-9.7495915e-18
-2.7118124e-18
-4.7786018e-19
-6.6626758e-20
-7.2201138e-21
-5.3987629e-22
-1.3527327e-23
3.1521101e-24
5.9096333e-25
6.0535306e-26
4.2509846e-27
2.0879777e-28
6.9658511e-30
1.4306081e-31
1.3724508e-33
2.4910127e-06
-5.8791655e-06
-1.2284932e-05
-4.8516145e-06
1.0112468e-05
1.400368e-05
6.2462828e-06
-1.801279e-06
-1.7583314e-06
-2.7288771e-07
-1.2792504e-08
8.9283879e-12
3.3203233e-11
1.4994596e-12
2.3355946e-14
2.5802692e-17
-1.7722351e-17
-3.1178077e-18
-4.3570536e-19
-4.635815e-20
-2.8837066e-21
1.2600045e-22
6.5558754e-23
1.0551944e-23
1.1360784e-24
9.1648107e-26
5.5361203e-27
2.4335518e-28
7.4072252e-30
1.4004437e-31
1.2404014e-33
1.8280358e-06
-6.0356069e-06
-1.2548635e-05
-4.4491621e-06
1.2904526e-05
1.9241854e-05
8.8224011e-06
-5.2233493e-06
-5.9908951e-06
-1.3568968e-06
-9.0448137e-08
2.1643879e-09
8.5363136e-10
5.5782972e-11
1.2382e-12
5.315468e-15
-1.2863954e-16
-1.8659804e-17
-2.5300276e-18
-2.4797849e-19
-7.4423262e-21
3.3561817e-21
9.2429387e-22
1.4716976e-22
1.714042e-23
1.5445416e-24
1.0968567e-25
5.9593957e-27
2.3816906e-28
6.6047229e-30
1.1312392e-31
8.9504798e-34
9.8420907e-07
-6.3283879e-06
-1.1928131e-05
-3.841573e-06
1.4606787e-05
2.2995095e-05
1.1530933e-05
-9.9308241e-06
-1.4192526e-05
-4.592902e-06
-4.0171036e-07
3.9615199e-08
1.420323e-08
1.3595383e-09
4.3112475e-11
1.8907755e-13
-3.9661292e-15
-1.2056722e-16
-1.3239635e-17
-1.0597445e-18
5.4488969e-20
4.309833e-20
1.024774e-20
1.6810635e-21
2.1231263e-22
2.1283906e-23
1.7068746e-24
1.0900336e-25
5.322584e-27
1.89525e-28
4.5732953e-30
6.4809536e-32
3.7729985e-34
1.2071612e-07
-6.5344011e-06
-1.117544e-05
-2.8863403e-06
1.5301304e-05
2.4357848e-05
1.1467671e-05
-1.4933596e-05
-2.4858976e-05
-1.0886252e-05
-1.060512e-06
3.7407008e-07
1.5284789e-07
2.1439253e-08
9.7088362e-10
2.1548877e-12
-2.8219294e-13
-2.4991953e-15
-6.6820434e-17
-3.1566673e-18
1.0104993e-18
4.1303308e-19
9.4524447e-20
1.6190793e-20
2.2069576e-21
2.4320399e-22
2.1693896e-23
1.5549652e-24
8.738639e-26
3.6280023e-27
1.0211382e-28
1.5697183e-30
1.7849024e-33
-2.3892467e-34
-8.1209146e-07
-6.6809236e-06
-1.0216131e-05
-1.7766248e-06
1.5296538e-05
2.4297685e-05
9.5899387e-06
-1.9620549e-05
-3.4924661e-05
-1.9177046e-05
-1.4439724e-06
2.1162404e-06
1.066813e-06
2.1711127e-07
1.3909131e-08
-7.0569171e-11
-1.3944945e-11
-1.4117939e-13
-6.6013271e-16
-2.1067704e-18
9.5308011e-18
3.2636071e-18
7.4767172e-19
1.3411434e-19
1.957296e-20
2.3408364e-21
2.2775709e-22
1.7775063e-23
1.081999e-24
4.6994761e-26
1.097007e-27
-1.1322824e-29
-1.9505112e-30
-6.6355524e-32
-8.6156184e-34
-1.6446207e-06
-6.7468878e-06
-9.084074e-06
-5.7371303e-07
1.5110305e-05
2.3245403e-05
7.8928771e-06
-2.1929291e-05
-4.1308077e-05
-2.6688491e-05
-2.7016702e-07
7.6094014e-06
4.8666653e-06
1.4067514e-06
1.2493307e-07
-3.108747e-09
-4.2979563e-10
-6.3601363e-12
-2.6877032e-14
1.2917475e-17
6.873121e-17
2.2254498e-17
5.178946e-18
9.6980821e-19
1.5005555e-19
1.9177961e-20
1.9939893e-21
1.6329762e-22
9.7999051e-24
3.4364063e-25
-6.3229264e-27
-1.8669715e-27
-1.325619e-28
-5.4311448e-30
-1.2919647e-31
-1.4005735e-33
-2.1266009e-06
-6.6207074e-06
-7.7811091e-06
6.8477291e-07
1.4745946e-05
2.1642979e-05
6.0379645e-06
-2.2231581e-05
-4.3111649e-05
-3.0924441e-05
3.053936e-06
1.8387173e-05
1.4751008e-05
5.846269e-06
6.9089064e-07
-5.2827875e-08
-8.3192593e-09
-1.8072889e-10
-1.2509657e-12
-3.2371029e-15
4.1162365e-16
1.3475385e-16
3.1966328e-17
6.2053525e-18
1.0044475e-18
1.3478357e-19
1.4554247e-20
1.1811059e-21
5.7128908e-23
-1.0288452e-24
-5.3840844e-25
-6.3866515e-26
-4.7654363e-27
-2.4211985e-28
-8.3424242e-30
-1.7789897e-31
-1.7872083e-33
-2.4107593e-06
-6.1483817e-06
-6.6010449e-06
1.9371106e-06
1.4136027e-05
1.9819767e-05
4.3182137e-06
-2.1176537e-05
-4.26013e-05
-3.1785213e-05
7.300571e-06
3.2271266e-05
3.0892578e-05
1.5797752e-05
2.2986403e-06
-4.9530096e-07
-1.0218365e-07
-3.4780827e-09
-4.1155838e-11
-2.1236423e-13
1.7929312e-15
7.4131362e-16
1.7894201e-16
3.5570077e-17
5.9274673e-18
8.1507e-19
8.7630014e-20
6.2042891e-21
1.9310115e-23
-7.276845e-23
-1.2811724e-23
-1.410011e-24
-1.1576307e-25
-7.148523e-27
-3.2382942e-28
-1.0300565e-29
-2.0696338e-31
-1.9864609e-33
-2.5317337e-06
-5.022004e-06
-5.5380974e-06
2.9817562e-06
1.344683e-05
1.7824986e-05
2.5868658e-06
-1.9937318e-05
-3.9882309e-05
-3.1014008e-05
1.0892693e-05
4.4926994e-05
4.7904824e-05
2.9062494e-05
4.4407851e-06
-2.7986211e-06
-8.0350124e-07
-4.4414797e-08
-9.0296952e-10
-8.1098384e-12
-1.9233844e-14
3.7987671e-15
9.2662116e-16
1.8523679e-16
3.1083551e-17
4.233536e-18
4.1898847e-19
1.5376361e-20
-4.5103982e-21
-1.2817902e-21
-2.0266866e-22
-2.3446654e-23
-2.1235861e-24
-1.5381759e-25
-8.6825812e-27
-3.6828474e-28
-1.1137391e-29
-2.1501975e-31
-1.9996e-33
-1.9129913e-06
-3.4193256e-06
-3.6620364e-06
3.3129922e-06
1.2439434e-05
1.5645024e-05
7.8600356e-07
-1.8260159e-05
-3.5746771e-05
-3.1112995e-05
1.4256614e-05
5.2912592e-05
6.0152827e-05
3.8966449e-05
4.5885939e-06
-9.9882495e-06
-4.1060453e-06
-3.745289e-07
-1.3012557e-08
-1.9897217e-10
-1.1639317e-12
2.1918336e-14
4.6627286e-15
8.9361825e-16
1.458565e-16
1.8657394e-17
1.3740188e-18
-1.1869443e-19
-6.9317457e-20
-1.5570471e-20
-2.4791836e-21
-3.0931443e-22
-3.1175355e-23
-2.574037e-24
-1.7337813e-25
-9.2345596e-27
-3.7411775e-28
-1.0905934e-29
-2.044237e-31
-1.8571635e-33
-8.5722536e-07
1.0907623e-06
-1.6730086e-06
2.9913728e-06
1.0979152e-05
1.3199676e-05
-1.2698679e-06
-1.6489359e-05
-3.1276946e-05
-2.9978282e-05
1.3921989e-05
5.6450989e-05
6.508155e-05
4.132412e-05
5.0073598e-07
-2.3758532e-05
-1.3991366e-05
-2.0985759e-06
-1.2260246e-07
-3.1211669e-09
-2.7472968e-11
5.4671051e-13
4.0363374e-14
4.3014782e-15
6.1981181e-16
6.6543435e-17
6.4546501e-19
-2.1037125e-18
-6.9960199e-19
-1.5003868e-19
-2.4894708e-20
-3.3620301e-21
-3.7597109e-22
-3.5002239e-23
-2.7202765e-24
-1.739652e-25
-8.8693631e-27
-3.4690026e-28
-9.8254708e-30
-1.7996729e-31
-1.6060599e-33
-4.9793775e-08
2.5377973e-06
2.3818696e-06
1.9295248e-06
9.1672392e-06
1.0642874e-05
-3.2979345e-06
-1.4639434e-05
-2.6191471e-05
-2.8250015e-05
1.2442547e-05
5.712335e-05
6.4580997e-05
3.9413289e-05
-5.9429684e-06
-4.05412e-05
-3.3116107e-05
-7.9486908e-06
-7.5800073e-07
-3.081931e-08
-2.869111e-10
2.9564658e-11
1.7864757e-12
5.0640114e-14
2.6069922e-15
1.6398992e-16
-3.4861965e-17
-1.9230649e-17
-5.5942873e-18
-1.2095581e-18
-2.117177e-19
-3.0905985e-20
-3.805133e-21
-3.9607757e-22
-3.4842145e-23
-2.5853335e-24
-1.5862626e-25
-7.8030965e-27
-2.963517e-28
-8.1936203e-30
-1.4723833e-31
-1.2954313e-33
-5.12037e-07
4.7196077e-07
4.6096275e-06
2.3339193e-06
7.0049461e-06
7.8743517e-06
-5.1958395e-06
-1.2586617e-05
-2.0764112e-05
-2.6099989e-05
1.0683517e-05
5.43099e-05
6.0638383e-05
3.2294733e-05
-1.4423786e-05
-5.4578156e-05
-5.7623508e-05
-2.1066227e-05
-3.103875e-06
-1.8664026e-07
9.0792059e-10
1.0224341e-09
8.8693528e-11
2.8790514e-12
3.7656309e-14
4.9261359e-17
-3.5557462e-16
-1.3558224e-16
-3.7739592e-17
-8.3962732e-18
-1.5558102e-18
-2.4467e-19
-3.290542e-20
-3.7908058e-21
-3.7331844e-22
-3.1370638e-23
-2.2374683e-24
-1.3237407e-25
-6.3047165e-27
-2.3299965e-28
-6.2974185e-30
-1.1115055e-31
-9.6540707e-34
4.4359205e-06
-4.7455684e-06
1.9652797e-06
5.7925379e-06
1.9736556e-06
5.1107947e-06
-6.899012e-06
-1.0272934e-05
-1.5217569e-05
-2.3512407e-05
8.7263733e-06
5.0680118e-05
5.6640564e-05
2.5202849e-05
-1.9626994e-05
-6.2278498e-05
-7.8449624e-05
-4.0852603e-05
-8.6263594e-06
-6.4636062e-07
5.9306121e-08
2.0897526e-08
2.7277268e-09
1.3988555e-10
2.4493616e-12
5.9542545e-15
-2.4784827e-15
-8.1436978e-16
-2.2166935e-16
-5.1138628e-17
-1.0025224e-17
-1.6908503e-18
-2.4657425e-19
-3.1123551e-20
-3.3936937e-21
-3.1848634e-22
-2.5670392e-23
-1.761464e-24
-1.004219e-25
-4.6182782e-27
-1.653946e-28
-4.3482377e-30
-7.5016082e-32
-6.4092505e-34
2.4740647e-06
4.1064139e-08
-5.638834e-06
3.7199844e-06
6.4515523e-06
1.4121042e-06
-8.0215598e-06
-7.4345413e-06
-9.6764101e-06
-2.0629498e-05
6.638702e-06
4.6564399e-05
5.2245302e-05
2.1229825e-05
-2.0380836e-05
-6.2362404e-05
-9.0245139e-05
-6.1314924e-05
-1.6781342e-05
-9.6744439e-07
6.9777997e-07
2.6158981e-07
5.040159e-08
4.0723005e-09
1.1544016e-10
7.1438071e-13
-1.5391303e-14
-4.3717626e-15
-1.1580967e-15
-2.7709294e-16
-5.7308489e-17
-1.0311811e-17
-1.6188697e-18
-2.2177544e-19
-2.6461891e-20
-2.7387168e-21
-2.447196e-22
-1.8828391e-23
-1.2311808e-24
-6.6678851e-26
-2.9067792e-27
-9.8523292e-29
-2.4523448e-30
-4.0239051e-32
-3.3061287e-34
-7.9683283e-06
-1.9586359e-07
-3.6541383e-06
-5.3673119e-06
5.2964909e-06
6.7987792e-06
5.5886003e-07
-3.6501118e-06
-4.1681349e-06
-1.7822357e-05
4.5503323e-06
4.2311838e-05
4.694682e-05
1.6531954e-05
-2.0295354e-05
-5.6049819e-05
-9.4010118e-05
-7.6254619e-05
-2.4101944e-05
1.2760431e-06
4.2787262e-06
2.0318061e-06
5.6594582e-07
7.0396132e-08
3.1721115e-09
3.1306761e-11
-2.1667207e-13
-2.2231972e-14
-5.4904411e-15
-1.3508458e-15
-2.9342446e-16
-5.5997592e-17
-9.3944726e-18
-1.3838418e-18
-1.7848442e-19
-2.0062735e-20
-1.9513555e-21
-1.6303261e-22
-1.1623361e-23
-6.9173778e-25
-3.3169122e-26
-1.2313197e-27
-3.352804e-29
-6.1437681e-31
-6.525046e-33
-2.9531686e-35
1.5673607e-06
-7.2557331e-06
-2.5054788e-06
-6.2797434e-06
-4.5928689e-06
6.6518345e-06
6.84863e-06
-3.487704e-07
3.422672e-07
-1.5159336e-05
2.6440873e-06
3.7851295e-05
4.1832791e-05
1.1584775e-05
-2.0396085e-05
-4.8087909e-05
-8.4000969e-05
-8.4375273e-05
-2.7724884e-05
9.3545407e-06
1.5894491e-05
9.9403749e-06
3.9139452e-06
7.3091162e-07
5.087382e-08
7.0840174e-10
-1.164593e-11
-2.0079914e-13
-2.4155143e-14
-5.9890156e-15
-1.3569938e-15
-2.7281469e-16
-4.8519447e-17
-7.6072823e-18
-1.0461918e-18
-1.252297e-19
-1.2889935e-20
-1.1186799e-21
-7.9529592e-23
-4.3772939e-24
-1.5397594e-25
1.4759268e-28
4.3816321e-28
3.1554556e-29
1.236329e-30
2.7583767e-32
2.7596019e-34
6.0471576e-06
5.6040824e-06
-5.9343896e-06
-5.722979e-06
-8.4452188e-06
-3.7066374e-06
8.0209169e-06
6.7035857e-06
-1.1917136e-06
-1.2429626e-05
4.3023311e-07
3.3204428e-05
3.6454617e-05
6.2652068e-06
-2.0606817e-05
-4.0595225e-05
-7.3921544e-05
-9.1130963e-05
-2.7074327e-05
2.2868826e-05
3.883908e-05
3.1400451e-05
1.6930783e-05
4.6052295e-06
4.8023209e-07
7.9523076e-09
-4.8589271e-10
-7.9352223e-12
-1.1032858e-13
-2.4466817e-14
-5.7121332e-15
-1.2000193e-15
-2.2413468e-16
-3.6945137e-17
-5.3205563e-18
-6.585716e-19
-6.796594e-20
-5.4617584e-21
-2.7147981e-22
5.2301886e-24
3.0259857e-24
4.0065668e-25
3.4795318e-26
2.1911923e-27
1.0046846e-28
3.2079615e-30
6.4043992e-32
6.0267163e-34
-1.1105252e-05
1.0728123e-05
9.2871539e-06
-4.0410202e-06
-8.8787584e-06
-1.0323896e-05
-2.5638171e-06
9.232769e-06
6.5101172e-06
-1.9816717e-06
-2.5574387e-06
2.8494693e-05
3.1150235e-05
9.3021102e-07
-2.1089354e-05
-3.280049e-05
-6.19371e-05
-9.0909301e-05
-3.5137939e-05
3.8300464e-05
6.7741457e-05
6.6808236e-05
4.6641807e-05
1.779626e-05
2.6737628e-06
3.0078861e-08
-1.1658109e-08
-3.1118387e-10
-1.4368168e-12
-9.4334759e-14
-2.2066714e-14
-4.7913859e-15
-9.2869582e-16
-1.5823147e-16
-2.3188991e-17
-2.8025154e-18
-2.4964685e-19
-8.7015364e-21
2.2095513e-21
6.1169683e-22
9.5029333e-23
1.0996262e-23
1.0055537e-24
7.2953411e-26
4.13541e-27
1.7720796e-28
5.4062579e-30
1.0464856e-31
9.6531465e-34
-6.0328453e-06
-8.379167e-06
1.4801042e-05
1.2145497e-05
-3.6627722e-06
-1.2169891e-05
-1.1950063e-05
-1.2388481e-06
1.0283208e-05
6.2075688e-06
-2.5996881e-06
2.3461588e-05
2.5651373e-05
-4.3304153e-06
-2.1507948e-05
-2.4749914e-05
-4.8836479e-05
-8.6890547e-05
-4.1819834e-05
4.4609048e-05
9.3602162e-05
0.0001028892
8.5127144e-05
4.2828665e-05
8.7370041e-06
-2.0225273e-07
-1.6352396e-07
-7.387877e-09
-5.6019449e-11
-4.4848525e-13
-7.912185e-14
-1.7444931e-14
-3.4513339e-15
-5.9180822e-16
-8.3463312e-17
-8.3513286e-18
-1.4834324e-19
1.8005795e-19
5.4213065e-20
1.0495148e-20
1.5841485e-21
1.9562753e-22
2.0026055e-23
1.6949994e-24
1.1653294e-25
6.3543259e-27
2.6455232e-28
7.8981399e-30
1.504475e-31
1.3720666e-33
1.7953651e-05
-9.6894835e-06
-4.9884342e-06
1.8570335e-05
1.460815e-05
-3.5689565e-06
-1.5463921e-05
-1.3100236e-05
1.3861642e-08
1.1210221e-05
5.7872038e-06
-3.0046e-06
1.997575e-05
-9.6320779e-06
-2.1974842e-05
-1.6586838e-05
-3.5635528e-05
-7.9875821e-05
-4.7755615e-05
4.504007e-05
0.00011231277
0.00012604586
0.00011154614
6.722195e-05
1.6707415e-05
-2.629341e-06
-1.3788101e-06
-1.0516424e-07
-1.5950199e-09
-8.5054379e-12
-2.7585618e-13
-5.8200133e-14
-1.1450628e-14
-1.8810495e-15
-2.1967999e-16
-3.1688745e-18
7.4878647e-18
2.7110123e-18
6.5107832e-19
1.2451346e-19
1.9907813e-20
2.7018156e-21
3.1190528e-22
3.0475529e-23
2.4878387e-24
1.6631603e-25
8.8702702e-27
3.6284782e-28
1.0682777e-29
2.0130798e-31
1.8213129e-33
1.3860461e-05
1.180636e-05
-1.2305017e-05
-1.2871674e-06
2.2189984e-05
1.6825112e-05
-3.6408784e-06
-1.8415341e-05
-1.3807762e-05
1.3121499e-06
1.1815805e-05
5.5447244e-06
-2.9660879e-06
-1.4806467e-05
-2.1872413e-05
-8.3006608e-06
-2.2886511e-05
-7.0439926e-05
-5.2542727e-05
4.2155932e-05
0.00011768476
0.0001408768
0.00011554835
7.4114317e-05
1.9158244e-05
-1.1835931e-05
-7.1842565e-06
-9.1994884e-07
-2.7130006e-08
-2.6925339e-10
-1.6895563e-12
-1.797104e-13
-3.3484124e-14
-4.6960209e-15
-1.6725812e-16
1.8283951e-16
8.4307155e-17
2.5023094e-17
5.9350126e-18
1.1903244e-18
2.0573984e-19
3.081074e-20
3.9921781e-21
4.4503844e-22
4.2309024e-23
3.374196e-24
2.2128575e-25
1.1617627e-26
4.6918896e-28
1.3673704e-29
2.5565973e-31
1.4631486e-35
-1.9714765e-05
7.060245e-06
4.9936482e-06
-1.3258064e-05
2.6145641e-06
2.5606054e-05
1.8791106e-05
-4.157257e-06
-2.0297358e-05
-1.4325753e-05
2.6278338e-06
1.2069531e-05
5.0177679e-06
-2.9948198e-06
-2.102744e-05
5.4037589e-07
-1.0609938e-05
-5.9609782e-05
-5.5713156e-05
3.7069353e-05
0.00011850557
0.00014059822
0.00010759312
6.2162851e-05
1.1760508e-05
-2.9167035e-05
-2.391378e-05
-5.0815032e-06
-2.8193121e-07
-5.5073136e-09
-4.0141815e-11
-5.9257853e-13
-8.3743351e-14
-6.4071419e-15
2.6626298e-15
1.7120178e-15
6.3095491e-16
1.8337442e-16
4.5155031e-17
9.6622078e-18
1.81317e-18
2.9881435e-19
4.313956e-20
5.4273201e-21
5.9031665e-22
5.4989049e-23
4.3071989e-24
2.7827146e-25
1.4431353e-26
5.7716187e-28
1.6695236e-29
2.3372965e-33
5.1208346e-38
-1.846521e-05
-2.3735089e-05
-6.4147759e-07
-2.2307377e-06
-1.3498762e-05
6.4296041e-06
2.8899083e-05
2.0529728e-05
-4.9677975e-06
-2.1987934e-05
-1.4597349e-05
3.831633e-06
1.1708472e-05
4.1559767e-06
-2.9168372e-06
1.0077401e-05
1.503624e-06
-4.8499167e-05
-5.7145782e-05
3.0749959e-05
0.00011598271
0.00013889678
0.00010119408
4.3966053e-05
-6.9546637e-07
-4.6231522e-05
-5.3209101e-05
-1.8366619e-05
-1.8520861e-06
-6.843251e-08
-9.4432648e-10
-5.8632985e-12
-1.7082081e-13
1.8287545e-14
2.3203055e-14
1.0854291e-14
3.8408626e-15
1.1451225e-15
2.9761064e-16
6.8278927e-17
1.389137e-17
2.5066016e-18
4.0001586e-19
5.6197997e-20
6.9070506e-21
7.3674185e-22
6.7414108e-23
5.2021572e-24
3.3202667e-25
1.7055386e-26
6.7727353e-28
1.7314631e-31
9.6342218e-36
6.509317e-41
1.9567072e-05
-1.4064795e-05
-2.6690393e-05
-8.6299329e-06
-8.9340292e-06
-1.3253758e-05
1.0227186e-05
3.1979667e-05
2.2135851e-05
-6.1522059e-06
-2.3538827e-05
-1.4884962e-05
4.6417628e-06
1.0811296e-05
2.7292571e-06
-2.0123409e-06
1.4005916e-05
-3.8592066e-05
-5.706166e-05
2.370857e-05
0.0001116766
0.00013524255
9.4576749e-05
3.3362613e-05
-1.4156848e-05
-5.3288951e-05
-8.3546713e-05
-4.5311175e-05
-7.9727556e-06
-5.3363889e-07
-1.3814252e-08
-1.3789814e-10
-6.2145029e-13
1.9864651e-13
1.3033997e-13
5.6564789e-14
2.0219011e-14
6.2852881e-15
1.7318318e-15
4.2587647e-16
9.3618581e-17
1.8385285e-17
3.2177573e-18
4.9990767e-19
6.8590078e-20
8.2568849e-21
8.6575226e-22
7.8005544e-23
5.9448871e-24
3.7581104e-25
1.9172822e-26
7.9773761e-30
8.2890673e-34
1.5385566e-38
2.1584905e-44
2.6116799e-05
2.8722901e-05
-9.8586636e-06
-2.9323438e-05
-1.5716494e-05
-1.5863919e-05
-1.2834288e-05
1.383162e-05
3.5046689e-05
2.3361636e-05
-7.3254813e-06
-2.4850348e-05
-1.4363113e-05
5.3383394e-06
8.5883665e-06
2.054857e-06
-1.2778901e-06
-2.9278683e-05
-5.5986785e-05
1.6119289e-05
0.0001059029
0.00013090673
8.6810114e-05
2.1127185e-05
-2.3698222e-05
-4.9469614e-05
-9.7749497e-05
-8.1916689e-05
-2.3592254e-05
-2.707517e-06
-1.2576153e-07
-2.3333696e-09
-1.5744668e-11
1.0231551e-12
5.9889022e-13
2.5732166e-13
9.4654697e-14
3.0837873e-14
9.0047945e-15
2.3655936e-15
5.592393e-16
1.1880197e-16
2.2628362e-17
3.8522374e-18
5.8375019e-19
7.8344723e-20
9.2492135e-21
9.5526826e-22
8.4939319e-23
6.4092492e-24
4.0243899e-25
2.5731728e-28
4.4189859e-32
1.5853333e-36
8.0009173e-42
-2.1931015e-48
-2.0270528e-05
3.6916386e-05
3.7091863e-05
-5.5152525e-06
-3.387243e-05
-2.3935287e-05
-2.24394e-05
-1.2611904e-05
1.7151206e-05
3.7906589e-05
2.4255567e-05
-8.3844797e-06
-2.4944725e-05
-1.3018047e-05
5.6082508e-06
5.9541022e-06
1.2932688e-06
-6.699713e-07
-5.5619567e-05
7.9534538e-06
9.800355e-05
0.0001255877
7.9458429e-05
7.9289354e-06
-3.4924005e-05
-4.7434197e-05
-8.2462587e-05
-0.00011606025
-5.0995101e-05
-9.379154e-06
-7.3833615e-07
-2.4521858e-08
-3.2446419e-10
2.8121982e-12
2.4075017e-12
1.0510135e-12
4.0049891e-13
1.367399e-13
4.218521e-14
1.1783218e-14
2.9780399e-15
6.7984258e-16
1.3987063e-16
2.5865891e-17
4.2855133e-18
6.3370736e-19
8.3251033e-20
9.6621586e-21
9.833766e-22
8.6494678e-23
6.4810589e-24
6.1850523e-27
1.650221e-30
9.9714596e-35
1.0410454e-39
1.1555051e-45
-2.2418332e-51
-5.5743779e-05
-1.0938466e-05
4.648745e-05
4.4956238e-05
-1.5207489e-06
-3.7496045e-05
-3.2358364e-05
-2.8763858e-05
-1.2720562e-05
2.0273181e-05
4.033163e-05
2.423172e-05
-9.6107865e-06
-2.3750014e-05
-1.0100833e-05
3.6752975e-06
3.5985418e-06
5.5962598e-07
-2.7287681e-07
-7.0259872e-07
8.8273507e-05
0.00011867275
7.094898e-05
-7.5330979e-06
-4.7403271e-05
-4.97802e-05
-6.634415e-05
-0.0001203608
-8.5783336e-05
-2.3490949e-05
-2.9382597e-06
-1.6459781e-07
-3.9650388e-09
-2.2603526e-11
8.6428158e-12
3.9197228e-12
1.5488948e-12
5.525764e-13
1.7924052e-13
5.2924712e-14
1.4206704e-14
3.4597473e-15
7.626858e-16
1.518547e-16
2.7237181e-17
4.3876519e-18
6.3265416e-19
8.1322324e-20
9.2888991e-21
9.3334405e-22
8.144056e-23
1.1490758e-25
4.6047701e-29
4.3776083e-33
7.8484533e-38
2.3817115e-43
-9.7094144e-50
-5.2380874e-55
-8.6340597e-06
-5.4884869e-05
-1.5542847e-06
5.5139118e-05
5.2397095e-05
2.4862544e-06
-4.0866978e-05
-4.0870161e-05
-3.461468e-05
-1.3040051e-05
2.3119914e-05
4.1740182e-05
2.2841333e-05
-1.0131635e-05
-2.0401163e-05
-7.179885e-06
2.4268844e-06
1.7056028e-06
1.5812745e-07
-7.6731064e-08
7.7107665e-05
0.00010948786
6.0822467e-05
-2.5088927e-05
-6.3767061e-05
-5.1622035e-05
-4.9368825e-05
-0.0001044489
-0.00011935175
-4.5536598e-05
-8.3815271e-06
-7.4289587e-07
-3.0318402e-08
-4.8752741e-10
2.5877743e-11
1.3572705e-11
5.5293427e-12
2.0500732e-12
6.9486728e-13
2.1540169e-13
6.0960989e-14
1.5711246e-14
3.6783448e-15
7.8063317e-16
1.4989338e-16
2.5984868e-17
4.0566611e-18
5.6874646e-19
7.134241e-20
8.0295379e-21
7.9812876e-22
1.6850669e-24
9.9748818e-28
1.4374952e-31
4.0704483e-36
2.2176219e-41
1.8071074e-47
-5.3689152e-53
-7.2529058e-59
6.4122727e-05
-1.7130425e-05
-5.1427214e-05
7.5705011e-06
6.3158951e-05
5.965074e-05
6.8103023e-06
-4.3535587e-05
-4.9061608e-05
-4.0069972e-05
-1.311027e-05
2.6595946e-05
4.2171921e-05
1.960341e-05
-9.363834e-06
-1.4766445e-05
-4.3407893e-06
1.3620185e-06
5.8068428e-07
2.6114428e-08
-1.4937027e-08
9.7603415e-05
4.8931247e-05
-4.4024247e-05
-8.2931482e-05
-5.4510565e-05
-3.4052892e-05
-7.8400393e-05
-0.0001361896
-7.9090177e-05
-1.8331146e-05
-2.3825782e-06
-1.5383347e-07
-4.4945276e-09
3.50908e-11
4.4482163e-11
1.8628777e-11
7.0538323e-12
2.472659e-12
7.9822269e-13
2.361447e-13
6.3819845e-14
1.5706571e-14
3.5115524e-15
7.1182121e-16
1.3065646e-16
2.1687506e-17
3.2510075e-18
4.3944203e-19
5.3594771e-20
5.9164156e-21
1.9674394e-23
1.7169719e-26
3.6763159e-30
1.5761216e-34
1.3432274e-39
2.704998e-45
-1.3519203e-51
-8.991103e-57
-7.1700245e-63
8.2686948e-05
4.9034899e-05
-2.5055189e-05
-4.5562846e-05
1.6629819e-05
7.0507406e-05
6.6142561e-05
1.1036352e-05
-4.5187247e-05
-5.6525201e-05
-4.5352082e-05
-1.3134941e-05
3.0004533e-05
3.892814e-05
1.4842792e-05
-6.9479902e-06
-8.9472424e-06
-1.8474056e-06
5.488655e-07
1.4257057e-07
2.0041478e-09
-1.8457468e-09
3.5350478e-05
-6.271016e-05
-0.00010058941
-5.6851133e-05
-1.8802372e-05
-4.815686e-05
-0.00013276081
-0.00011236911
-3.9651823e-05
-5.770551e-06
-5.4531301e-07
-2.5151948e-08
-2.0485543e-10
1.4386695e-10
6.1129853e-11
2.3457149e-11
8.2221816e-12
2.7068754e-12
8.2859793e-13
2.32194e-13
5.9303315e-14
1.3752144e-14
2.8868992e-15
5.4737101e-16
9.362368e-17
1.4439494e-17
2.0101447e-18
2.531165e-19
2.9230755e-20
1.8170938e-22
2.378674e-25
7.5078601e-29
4.7683854e-33
5.9931027e-38
1.9742159e-43
1.2362286e-49
-4.6747337e-55
-9.6435766e-61
-6.1911629e-67
1.9554042e-05
6.5102943e-05
3.3318625e-05
-3.0213664e-05
-3.8384128e-05
2.5354387e-05
7.7243517e-05
7.1797059e-05
1.4917497e-05
-4.5705004e-05
-6.3618191e-05
-5.0739557e-05
-1.1121073e-05
3.1120899e-05
3.2302478e-05
9.4823581e-06
-4.3748061e-06
-4.1467947e-06
-5.2731576e-07
1.4911141e-07
2.4676378e-08
-3.9801469e-11
-1.5300312e-10
-7.9047868e-05
-0.00011383231
-5.6717272e-05
-2.1984242e-06
-1.7375824e-05
-0.00010756578
-0.00014015972
-6.7819689e-05
-1.5509563e-05
-1.3951943e-06
-8.2644039e-08
9.0638658e-10
8.1135498e-10
2.2492567e-10
7.8823656e-11
2.760811e-11
8.774062e-12
2.6421031e-12
7.5665398e-13
1.9700431e-13
4.6273841e-14
9.7304526e-15
1.8148163e-15
2.9658537e-16
4.1728843e-17
4.9071494e-18
4.553167e-19
2.8539141e-20
1.2798089e-21
2.6596782e-24
1.2430356e-27
1.1583849e-31
2.0915177e-36
9.9582403e-42
1.4981115e-47
-8.7494656e-54
-5.9533917e-59
-8.7273264e-65
-5.1000611e-71
-9.1394621e-05
2.0607568e-06
4.5325843e-05
1.7883324e-05
-3.405525e-05
-3.0460659e-05
3.3982785e-05
8.3274924e-05
7.6490937e-05
1.8276184e-05
-4.4816358e-05
-6.7539517e-05
-5.1525591e-05
-6.3890698e-06
2.8328781e-05
2.211829e-05
4.5321681e-06
-2.1938851e-06
-1.3651161e-06
-9.854735e-08
2.6733017e-08
2.7637412e-09
-1.9549286e-11
-8.7288822e-12
-0.00012157494
-5.2817696e-05
1.6545955e-05
1.4943213e-05
-7.0087074e-05
-0.00015327105
-0.00010103809
-3.1377874e-05
-4.5480944e-06
-4.8161189e-08
6.0306906e-08
1.4708511e-08
2.2159543e-09
3.6981401e-10
9.3093932e-11
2.7713805e-11
7.9748762e-12
2.2031975e-12
5.6865749e-13
1.2951261e-13
2.5250891e-14
3.951711e-15
4.0105858e-16
-1.2730688e-17
-1.8951747e-17
-5.7740267e-18
-1.2303994e-18
5.9754016e-21
2.3724777e-23
1.6805162e-26
2.2978337e-30
5.9028609e-35
3.8625186e-40
8.9892971e-46
4.4960972e-52
-2.078117e-57
-5.8145079e-63
-7.4315589e-69
-4.0304454e-75
-0.00012240425
-9.9466128e-05
-1.6020369e-05
2.4896615e-05
3.6048079e-06
-3.6091333e-05
-2.2449029e-05
4.2034466e-05
8.8966682e-05
8.0021965e-05
2.0875769e-05
-4.1430122e-05