/*--------------------------------*- C++ -*----------------------------------*\
| =========                 |                                                 |
| \\      /  F ield         | OpenFOAM: The Open Source CFD Toolbox           |
|  \\    /   O peration     | Version:  5.0                                   |
|   \\  /    A nd           | Web:      www.OpenFOAM.org                      |
|    \\/     M anipulation  |                                                 |
\*---------------------------------------------------------------------------*/
FoamFile
{
    version     2.0;
    format      ascii;
    class       volVectorField;
    location    "260";
    object      ddt0(U);
}
// * * * * * * * * * * * * * * * * * * * * * * * * * * * * * * * * * * * * * //

dimensions      [0 1 -2 0 0 0 0];

internalField   nonuniform List<vector> 
9520
(
(-0.0002455493 -8.6235301e-07 0)
(-0.00024293288 -1.8710702e-06 0)
(-0.00024339369 -1.2192654e-06 0)
(-0.00023782431 -2.2020667e-06 0)
(-0.0002416728 -3.6883841e-06 0)
(-0.00024112908 2.3955975e-06 0)
(-0.0002301009 -2.0223351e-06 0)
(-0.00023749248 -5.5928091e-06 0)
(-0.00023923427 5.9237623e-06 0)
(-0.00025079506 7.9800969e-06 0)
(-0.00021999269 -1.1372394e-06 0)
(-0.00023107956 -6.9240163e-06 0)
(-0.00023522989 8.7221504e-06 0)
(-0.0002476665 2.2365976e-05 0)
(-0.00026471177 1.0521758e-05 0)
(-0.00020806178 1.0373298e-08 0)
(-0.00022234923 -6.3121736e-06 0)
(-0.00023007246 1.1153157e-05 0)
(-0.00024273555 3.5094902e-05 0)
(-0.00026114226 3.1192413e-05 0)
(-0.00028229965 8.9603262e-06 0)
(-0.00019405499 1.3625799e-06 0)
(-0.00021145235 -4.244217e-06 0)
(-0.00022347277 1.4306115e-05 0)
(-0.00023698786 4.670657e-05 0)
(-0.00025597279 5.0755552e-05 0)
(-0.00027978893 2.8123083e-05 0)
(-0.00029418749 4.6347084e-06 0)
(-0.00017717973 3.3933757e-06 0)
(-0.00019883144 -9.8702724e-07 0)
(-0.00021461891 1.860064e-05 0)
(-0.00023064767 5.6883979e-05 0)
(-0.00024960838 6.9562718e-05 0)
(-0.00027585273 4.766899e-05 0)
(-0.00029311243 1.5682859e-05 0)
(-0.00029704232 1.3121094e-06 0)
(-0.00015573388 7.0944188e-06 0)
(-0.00018505971 3.6906416e-06 0)
(-0.00020418489 2.4132738e-05 0)
(-0.00022292712 6.6926787e-05 0)
(-0.00024274044 8.6028366e-05 0)
(-0.00026992191 6.7765703e-05 0)
(-0.00029073067 2.8002409e-05 0)
(-0.00029754809 4.6936104e-06 0)
(-0.00029783905 1.7397219e-06 0)
(-0.00012663584 1.4749762e-05 0)
(-0.00017191717 1.0778629e-05 0)
(-0.00019379621 3.0817377e-05 0)
(-0.00021396396 7.751806e-05 0)
(-0.00023548237 0.00010138758 0)
(-0.00026281923 8.6801375e-05 0)
(-0.0002859472 4.1765109e-05 0)
(-0.00029689569 8.9267683e-06 0)
(-0.00029843473 4.2632237e-06 0)
(-0.00030119329 5.7936603e-06 0)
(-8.5073099e-05 3.3408174e-05 0)
(-0.00016275443 2.4202352e-05 0)
(-0.00018738376 3.8595133e-05 0)
(-0.00020420128 8.8790587e-05 0)
(-0.00022759115 0.00011640116 0)
(-0.00025599038 0.00010509009 0)
(-0.00027998734 5.72535e-05 0)
(-0.00029476358 1.3697647e-05 0)
(-0.00029780926 6.6735351e-06 0)
(-0.00030109372 1.5071292e-05 0)
(-0.00031122349 1.117395e-05 0)
(-4.0568766e-05 6.7582685e-05 0)
(-0.00016636574 5.0946261e-05 0)
(-0.00019228167 4.7159439e-05 0)
(-0.00019413245 9.9637635e-05 0)
(-0.00021809628 0.00013145542 0)
(-0.00024921215 0.00012319631 0)
(-0.000274786 7.3073724e-05 0)
(-0.00029041576 2.1860969e-05 0)
(-0.00029758075 8.3601122e-06 0)
(-0.00029997726 2.3118082e-05 0)
(-0.00031010291 3.1015566e-05 0)
(-0.00032750548 1.4920632e-05 0)
(-2.1916564e-05 0.00012454001 0)
(-0.0002013409 9.6345183e-05 0)
(-0.0002237246 5.3681604e-05 0)
(-0.00018561935 0.00010527891 0)
(-0.00020363601 0.00014557176 0)
(-0.00024151186 0.00014178019 0)
(-0.00027065988 8.9037309e-05 0)
(-0.00028608814 3.1179004e-05 0)
(-0.00029681454 1.1380927e-05 0)
(-0.00029873362 3.0778989e-05 0)
(-0.00030905447 4.8766805e-05 0)
(-0.00032574059 4.3413463e-05 0)
(-0.00034642397 1.5187858e-05 0)
(-1.9984974e-06 0.00021149598 0)
(-0.00029392436 0.00017590371 0)
(-0.00028103149 5.2167638e-05 0)
(-0.0001762043 9.4585199e-05 0)
(-0.0001798051 0.00015576008 0)
(-0.0002304725 0.00016246344 0)
(-0.00026797045 0.00010563649 0)
(-0.0002822747 4.0032754e-05 0)
(-0.00029289922 1.5571863e-05 0)
(-0.0002973855 3.7305527e-05 0)
(-0.00030800459 6.6281762e-05 0)
(-0.00032480377 7.008571e-05 0)
(-0.00034507829 4.6044786e-05 0)
(-0.00036326385 1.1906379e-05 0)
(7.0673439e-06 0.00031229962 0)
(-0.00035607784 0.0002235437 0)
(-0.00027153751 5.1573328e-06 0)
(-0.00012873093 5.7206253e-05 0)
(-0.00012639057 0.00015772914 0)
(-0.00020699175 0.00018732927 0)
(-0.00026706562 0.00012500336 0)
(-0.00028088581 4.7523573e-05 0)
(-0.00028735101 1.9099999e-05 0)
(-0.00029370364 4.3501271e-05 0)
(-0.00030635604 8.2363576e-05 0)
(-0.00032417255 9.5492743e-05 0)
(-0.00034434418 7.6537599e-05 0)
(-0.00036342551 3.7728505e-05 0)
(-0.00037446364 6.4585459e-06 0)
(-4.3552373e-06 0.00046028043 0)
(-0.00046701542 0.00027481336 0)
(-0.00024231925 -7.8793374e-05 0)
(-2.4674665e-05 -2.826036e-05 0)
(-3.4561495e-05 0.0001491511 0)
(-0.0001668151 0.00022539547 0)
(-0.00027045931 0.00015487898 0)
(-0.00028671312 5.3959506e-05 0)
(-0.00028177914 1.982537e-05 0)
(-0.00028699016 4.95704e-05 0)
(-0.00030318609 9.7675794e-05 0)
(-0.00032286001 0.00012010766 0)
(-0.00034403084 0.0001052961 0)
(-0.00036362925 6.4953157e-05 0)
(-0.00037657605 2.2006785e-05 0)
(-0.00037883619 9.9962489e-07 0)
(-2.0670705e-05 0.00061771086 0)
(-0.00061891005 0.0002578164 0)
(-0.00022655562 -0.00019491366 0)
(6.4902809e-05 -0.00012174943 0)
(6.0089684e-05 0.00013723252 0)
(-0.00011724312 0.0002872752 0)
(-0.00028821215 0.00020628873 0)
(-0.00031157997 6.000844e-05 0)
(-0.00027896993 1.4302922e-05 0)
(-0.00027681972 5.4171314e-05 0)
(-0.00029746145 0.00011365897 0)
(-0.00032086732 0.00014435008 0)
(-0.00034386486 0.00013305724 0)
(-0.00036393076 9.2756307e-05 0)
(-0.00037930383 3.9757071e-05 0)
(-0.0003825369 5.255147e-06 0)
(-0.00037783297 -2.3974808e-06 0)
(-2.9119523e-05 0.00086212964 0)
(-0.00086348887 0.00027952386 0)
(-0.00023563993 -0.00035857906 0)
(0.00024507885 -0.00024238292 0)
(0.00013556344 0.00015474622 0)
(-7.4828385e-05 0.00041171393 0)
(-0.00034000414 0.00029320685 0)
(-0.00036421412 6.3916954e-05 0)
(-0.00027798005 -4.1175866e-06 0)
(-0.00026103427 5.4308562e-05 0)
(-0.00028697039 0.00013101723 0)
(-0.00031735795 0.00016978193 0)
(-0.00034394335 0.00016132828 0)
(-0.00036539334 0.00011876327 0)
(-0.0003808782 6.2302959e-05 0)
(-0.00038846375 1.1451405e-05 0)
(-0.00038246758 -5.9835101e-06 0)
(-0.00037467174 -2.6437561e-06 0)
(-0.00012647257 0.0011468374 0)
(-0.0012329779 0.00017147721 0)
(-0.00023613846 -0.00045912739 0)
(0.00041624883 -0.00041995403 0)
(0.00026710744 0.00022663525 0)
(-3.5578364e-05 0.00057010398 0)
(-0.00043774159 0.00043545184 0)
(-0.00046165355 6.7135495e-05 0)
(-0.00028801745 -4.6212668e-05 0)
(-0.00023751116 4.4267548e-05 0)
(-0.0002690964 0.00014998309 0)
(-0.00031111936 0.00019817707 0)
(-0.0003446295 0.00019109701 0)
(-0.0003680642 0.00014631441 0)
(-0.00038355917 8.4876861e-05 0)
(-0.00039309836 2.3369112e-05 0)
(-0.00039001018 -7.75517e-06 0)
(-0.00037983111 -8.0524013e-06 0)
(-0.00037264723 -1.202669e-07 0)
(-0.00018467222 0.001487867 0)
(-0.0018370066 0.00030738698 0)
(-0.00035749478 -0.00089258664 0)
(0.00065521317 -0.00075878908 0)
(0.00060140863 0.00034184641 0)
(-2.9024177e-05 0.00076593172 0)
(-0.00057812729 0.0006321443 0)
(-0.00061139389 5.8512677e-05 0)
(-0.00031296024 -0.00012268447 0)
(-0.00020211661 1.6711762e-05 0)
(-0.00023956774 0.00017010285 0)
(-0.00029924881 0.00023165871 0)
(-0.00034555703 0.00022442658 0)
(-0.00037281121 0.00017535927 0)
(-0.00038853353 0.00010878407 0)
(-0.00039685142 4.1263374e-05 0)
(-0.00039955128 -8.8844572e-06 0)
(-0.00038705757 -1.1288273e-05 0)
(-0.00037812662 -1.8975523e-06 0)
(-0.00037367908 3.6490839e-06 0)
(-0.00030189353 0.0020532571 0)
(-0.0023451846 -1.3931777e-05 0)
(-0.0004180462 -0.0010793487 0)
(0.0011269202 -0.0010859146 0)
(0.0011065327 0.0005001137 0)
(-1.5675544e-05 0.0010732142 0)
(-0.00080116394 0.00090499452 0)
(-0.00083656798 3.3909413e-05 0)
(-0.00037051411 -0.00026510062 0)
(-0.00014632911 -4.2387647e-05 0)
(-0.00019002332 0.00019119641 0)
(-0.0002766768 0.00027355882 0)
(-0.00034632825 0.00026433576 0)
(-0.00038059297 0.0002071317 0)
(-0.00039579998 0.00013326192 0)
(-0.00040345724 5.9488155e-05 0)
(-0.00040742849 -1.6194089e-06 0)
(-0.00039760173 -1.7370816e-05 0)
(-0.00038491314 -1.6579711e-06 0)
(-0.00037911634 8.3736828e-06 0)
(-0.00037798599 6.914483e-06 0)
(-0.0002751844 0.0023870748 0)
(-0.0033858167 0.00037160683 0)
(-0.00065473557 -0.0022063072 0)
(0.0017918931 -0.0017666653 0)
(0.0018087231 0.00073621782 0)
(-2.1276349e-05 0.0015597409 0)
(-0.0011809111 0.0012462793 0)
(-0.0011599622 -2.5663589e-05 0)
(-0.00039686485 -0.00047250192 0)
(-6.9129429e-05 -0.0001650792 0)
(-0.00010864473 0.00020381629 0)
(-0.0002327358 0.00032716208 0)
(-0.00034522705 0.00031696795 0)
(-0.00039388989 0.00024387942 0)
(-0.00040709565 0.0001576946 0)
(-0.00041128165 7.6893032e-05 0)
(-0.00041337542 8.7211168e-06 0)
(-0.00040909148 -1.9023442e-05 0)
(-0.00039517289 -2.4238706e-06 0)
(-0.00038670635 1.3611828e-05 0)
(-0.00038281666 1.8155778e-05 0)
(-0.00038458259 8.5448986e-06 0)
(-0.00063956171 0.0033405004 0)
(-0.0038574962 -0.00030148224 0)
(-0.00074741391 -0.0023011473 0)
(0.0025716708 -0.0022854591 0)
(0.0027999527 0.0010023119 0)
(4.3549393e-06 0.0022738886 0)
(-0.0017623289 0.0017434976 0)
(-0.0016312977 -0.00012549401 0)
(-0.00047603907 -0.00082707106 0)
(9.9712931e-05 -0.00034849867 0)
(6.1209433e-05 0.00021608292 0)
(-0.00014777042 0.00039479496 0)
(-0.00033724134 0.00039152002 0)
(-0.00041649619 0.00029084209 0)
(-0.00042651826 0.00018172765 0)
(-0.00042132381 9.0988171e-05 0)
(-0.0004182701 1.8831796e-05 0)
(-0.00041788922 -1.8500072e-05 0)
(-0.00040747751 -2.4071295e-06 0)
(-0.0003971113 2.307349e-05 0)
(-0.00039234286 2.7801589e-05 0)
(-0.00038861008 2.4229313e-05 0)
(-0.0003918314 8.1943121e-06 0)
(-0.0016219546 0.0037032884 0)
(-0.0057792887 0.00051985472 0)
(-0.0013880589 -0.0044586329 0)
(0.003776317 -0.003787737 0)
(0.0040683884 0.0015456763 0)
(-4.2407397e-05 0.0032563554 0)
(-0.0025805452 0.0023749206 0)
(-0.0023681194 -0.0003224489 0)
(-0.00060845255 -0.0013462214 0)
(0.00042556083 -0.00066681155 0)
(0.00031865489 0.00016705668 0)
(1.2283767e-05 0.00049345229 0)
(-0.00031468718 0.00050770764 0)
(-0.00045546357 0.00035776094 0)
(-0.00046149236 0.0002055718 0)
(-0.00043642028 9.8628485e-05 0)
(-0.00042207407 2.4433856e-05 0)
(-0.00042336932 -1.7119313e-05 0)
(-0.00041672955 9.0576156e-07 0)
(-0.00041049149 3.0203981e-05 0)
(-0.00040407315 4.5267509e-05 0)
(-0.00040007051 3.789098e-05 0)
(-0.00039586283 2.5185415e-05 0)
(-0.00039810147 5.9463175e-06 0)
(-0.0013860725 0.004886775 0)
(-0.0066422874 -0.00095932379 0)
(-0.00095121675 -0.0045571303 0)
(0.0049813586 -0.0041436979 0)
(0.0059041262 0.0018656546 0)
(2.8100813e-05 0.0046861006 0)
(-0.0037472966 0.0033898559 0)
(-0.0034421667 -0.00060659159 0)
(-0.00076942795 -0.0021273744 0)
(0.00086819443 -0.0011405747 0)
(0.00076919013 0.00016935387 0)
(0.00020147147 0.00061362183 0)
(-0.00027769448 0.00069307251 0)
(-0.00052304865 0.00046497407 0)
(-0.00052626617 0.00023072789 0)
(-0.00046222384 9.392089e-05 0)
(-0.00042484526 2.0063222e-05 0)
(-0.00042345835 -1.7351963e-05 0)
(-0.00042195855 6.8410681e-06 0)
(-0.00042250014 4.147087e-05 0)
(-0.00041831225 6.1284323e-05 0)
(-0.00041460336 5.7131714e-05 0)
(-0.00040818497 4.2883825e-05 0)
(-0.00040350066 2.0732572e-05 0)
(-0.00040227047 2.0823851e-06 0)
(-0.00180854 0.0055030209 0)
(-0.0086925892 6.0260572e-05 0)
(-0.00015765613 -0.0072223977 0)
(0.0072673826 -0.006683808 0)
(0.0076884077 0.0030116404 0)
(-0.00013321437 0.0065300993 0)
(-0.0053048718 0.0044612625 0)
(-0.0048780553 -0.0010879818 0)
(-0.00099518956 -0.0032351833 0)
(0.0014858912 -0.0018526054 0)
(0.0014878228 0.00016505502 0)
(0.00038946027 0.00087358687 0)
(-0.00025028729 0.0010154253 0)
(-0.00064815547 0.00063820051 0)
(-0.00064357768 0.00026124671 0)
(-0.00050942938 6.7871243e-05 0)
(-0.00042748412 -3.9704096e-06 0)
(-0.00041474387 -2.2903976e-05 0)
(-0.00042052281 1.4702024e-05 0)
(-0.00043076001 5.7464322e-05 0)
(-0.00043386643 8.0435426e-05 0)
(-0.00043035674 8.0870566e-05 0)
(-0.00042599896 5.975532e-05 0)
(-0.00041585306 4.0078082e-05 0)
(-0.00040978057 1.0800611e-05 0)
(-0.00040318087 -2.9580266e-06 0)
(-0.0046992784 0.0066501205 0)
(-0.0099413154 -0.0018391302 0)
(-0.00066113931 -0.00796605 0)
(0.0087780094 -0.0070773648 0)
(0.009513967 0.0032742361 0)
(7.8243372e-05 0.009078941 0)
(-0.0075961381 0.0062336479 0)
(-0.0068983471 -0.0017356908 0)
(-0.0012646671 -0.0047769485 0)
(0.0023487753 -0.0028584742 0)
(0.0025176179 0.00013819132 0)
(0.00075703928 0.0013352302 0)
(-0.00028436549 0.0014454862 0)
(-0.00085921293 0.00093401543 0)
(-0.0008568375 0.00030164464 0)
(-0.00059490214 6.1254666e-06 0)
(-0.00043073679 -6.0622535e-05 0)
(-0.00039232371 -4.0754854e-05 0)
(-0.00040746658 2.3029297e-05 0)
(-0.00043276186 7.9044529e-05 0)
(-0.00044720979 0.00010508191 0)
(-0.00044910922 0.00010629124 0)
(-0.00044475633 8.5542061e-05 0)
(-0.00043530363 5.5157251e-05 0)
(-0.00042289645 2.5161853e-05 0)
(-0.00041263797 -4.3950875e-06 0)
(-0.00039977062 -8.658708e-06 0)
(-0.008012553 0.0074753791 0)
(-0.014292155 0.00046172211 0)
(-0.0023326747 -0.01259488 0)
(0.011128102 -0.010572694 0)
(0.012527044 0.005486545 0)
(-0.00038392968 0.012014469 0)
(-0.010011838 0.0077649383 0)
(-0.0094030345 -0.0026466284 0)
(-0.0016356065 -0.0068056432 0)
(0.0035005107 -0.0042874884 0)
(0.0039770525 8.7012103e-05 0)
(0.0014075576 0.0020582558 0)
(-0.00036560429 0.0020540894 0)
(-0.0011909642 0.0013371191 0)
(-0.0011797533 0.00035081741 0)
(-0.00075093969 -0.00012144913 0)
(-0.00043754413 -0.00017397636 0)
(-0.00034869148 -8.2425794e-05 0)
(-0.00037454793 2.9393758e-05 0)
(-0.0004235339 0.00010701887 0)
(-0.00045625967 0.0001376288 0)
(-0.00046795797 0.00013665537 0)
(-0.00046609278 0.000113486 0)
(-0.00045806059 7.5231468e-05 0)
(-0.0004425185 3.8498501e-05 0)
(-0.00042793822 -2.2957656e-06 0)
(-0.00041039269 -2.2947891e-05 0)
(-0.00039220123 -1.4299165e-05 0)
(-0.0090912018 0.0082636211 0)
(-0.013137742 -0.0040444801 0)
(0.0018171416 -0.013835288 0)
(0.014712149 -0.01018338 0)
(0.016572414 0.0055699684 0)
(-0.00089675837 0.017155906 0)
(-0.013610029 0.01081591 0)
(-0.01296179 -0.0038615978 0)
(-0.0020400156 -0.0095214013 0)
(0.0050780936 -0.0061702309 0)
(0.005978711 -2.0048523e-05 0)
(0.0024060646 0.0030920273 0)
(-0.0004839451 0.0030074619 0)
(-0.0017393243 0.0018868924 0)
(-0.0016586568 0.00040797066 0)
(-0.00099169844 -0.00034644318 0)
(-0.00044268737 -0.00037045324 0)
(-0.00027367949 -0.00016717871 0)
(-0.0003092167 2.8366154e-05 0)
(-0.00039476277 0.00014336572 0)
(-0.00045717953 0.000180862 0)
(-0.00048542481 0.00017539103 0)
(-0.00048999115 0.00014618099 0)
(-0.00048247043 0.00010048579 0)
(-0.00046819262 5.082245e-05 0)
(-0.00044768688 6.9794088e-06 0)
(-0.00042839129 -3.46864e-05 0)
(-0.00040329897 -4.0814821e-05 0)
(-0.00038131556 -1.8974987e-05 0)
(-0.010395902 0.0081535256 0)
(-0.012349598 -0.0037582479 0)
(0.0063426242 -0.018276736 0)
(0.021214591 -0.014913005 0)
(0.019037575 0.0087014173 0)
(-0.001268996 0.021310654 0)
(-0.018414842 0.012800446 0)
(-0.016808748 -0.0053493519 0)
(-0.002558801 -0.013013804 0)
(0.0071966005 -0.0087864331 0)
(0.0087105321 -0.00018515935 0)
(0.0038208378 0.004520452 0)
(-0.00063331587 0.0044093129 0)
(-0.0025880865 0.0026778284 0)
(-0.0024509683 0.00046710471 0)
(-0.001323939 -0.00068371683 0)
(-0.00046393952 -0.00071026967 0)
(-0.00014774544 -0.00032323218 0)
(-0.0001909776 1.1673695e-05 0)
(-0.00033243157 0.00019097542 0)
(-0.00044396907 0.00024046664 0)
(-0.00049956803 0.00022649685 0)
(-0.00051553481 0.00018707298 0)
(-0.0005114162 0.00013242628 0)
(-0.00049740184 7.2514256e-05 0)
(-0.00047508846 1.6669562e-05 0)
(-0.00045017853 -3.2489967e-05 0)
(-0.00042390326 -6.3308739e-05 0)
(-0.00039315406 -5.4628987e-05 0)
(-0.00036834512 -2.2109549e-05 0)
(-0.011198783 0.0086775981 2.9171108e-23)
(-0.011495912 -0.0067648757 0)
(0.0082604209 -0.021263405 0)
(0.027360356 -0.014258534 0)
(0.020475447 0.0080541664 0)
(-0.0017496267 0.02677472 0)
(-0.023003664 0.016816856 0)
(-0.020992928 -0.0077547788 0)
(-0.0027125421 -0.017511697 0)
(0.010021101 -0.01199436 0)
(0.012303709 -0.00042690503 0)
(0.0057983061 0.0064283011 0)
(-0.00080557255 0.0064842109 0)
(-0.0038364324 0.0037885191 0)
(-0.0036699828 0.00050648215 0)
(-0.0018478627 -0.0012082085 0)
(-0.00049182276 -0.0012514684 0)
(6.1965693e-05 -0.00058594245 0)
(1.3985781e-05 -3.2160045e-05 0)
(-0.0002138521 0.00025495997 0)
(-0.00040627879 0.00032600355 0)
(-0.00050840202 0.0002979767 0)
(-0.00054371587 0.00023947839 0)
(-0.00054482049 0.00017231212 0)
(-0.00053189344 0.00010229135 0)
(-0.00050940696 3.2450854e-05 0)
(-0.00047940936 -2.8587435e-05 0)
(-0.00045007935 -7.6188713e-05 0)
(-0.00041495952 -8.453523e-05 0)
(-0.00038090697 -6.3803848e-05 0)
(-0.0003543857 -2.3631915e-05 0)
(-0.011995738 0.0085690757 -1.9231767e-23)
(-0.011812063 -0.0080219067 -3.0464288e-23)
(0.011409152 -0.026945571 0)
(0.03101581 -0.016772286 0)
(0.021203737 0.013037709 0)
(-0.00266503 0.032426547 0)
(-0.021444021 0.018686812 0)
(-0.026594602 -0.0097979254 0)
(-0.0029100525 -0.0229231 0)
(0.0137506 -0.016361531 0)
(0.016969889 -0.00077361212 0)
(0.0083654684 0.0088833105 0)
(-0.0010143975 0.0093221446 0)
(-0.0056204004 0.0054148007 0)
(-0.005486426 0.0005406776 0)
(-0.0026566822 -0.0020324256 0)
(-0.00049607495 -0.0020525375 0)
(0.00037978016 -0.0010201549 0)
(0.00034949037 -0.00011507302 0)
(-8.1037418e-06 0.00034456608 0)
(-0.00033538466 0.00045325488 0)
(-0.00051296052 0.00040067782 0)
(-0.00057804958 0.00031224403 0)
(-0.00058575305 0.0002243414 0)
(-0.0005721316 0.00013866877 0)
(-0.00054816311 5.3613273e-05 0)
(-0.0005155917 -2.1960367e-05 0)
(-0.00048028336 -8.066741e-05 0)
(-0.00044387183 -0.0001116168 0)
(-0.00040331852 -0.00010003719 0)
(-0.00036749395 -6.873944e-05 0)
(-0.00034050139 -2.3748478e-05 0)
(-0.012214772 0.0085175456 1.9307518e-23)
(-0.01185494 -0.010485727 9.9461589e-23)
(0.013025307 -0.031250335 0)
(0.034063041 -0.013990514 0)
(0.01916146 0.014107753 0)
(-0.0082932706 0.038995085 0)
(-0.029296904 0.026108962 0)
(-0.039344743 -0.012471319 0)
(-0.0043745564 -0.029027479 0)
(0.018449465 -0.0212019 0)
(0.022682138 -0.00081663365 0)
(0.011773568 0.012161168 0)
(-0.0012515868 0.013272264 0)
(-0.0080919222 0.007585698 0)
(-0.0080539406 0.0005446675 0)
(-0.0038566714 -0.0032556731 0)
(-0.00048571407 -0.0032515493 0)
(0.00087440155 -0.0016843438 0)
(0.00087279861 -0.00023505842 0)
(0.0002849552 0.00047329503 0)
(-0.00023349355 0.00064748403 0)
(-0.00051533327 0.00056414829 0)
(-0.00062560138 0.00042163539 0)
(-0.00064140395 0.00029276986 0)
(-0.00062205182 0.00018227161 0)
(-0.00059253622 7.9913715e-05 0)
(-0.00055704339 -1.0872698e-05 0)
(-0.00051818575 -8.1080793e-05 0)
(-0.00047712702 -0.00012667176 0)
(-0.0004339835 -0.00013399497 0)
(-0.0003903291 -0.00010889483 0)
(-0.00035410584 -6.9862226e-05 0)
(-0.00032728534 -2.28119e-05 0)
(-0.011954193 0.0083788439 0)
(-0.011471518 -0.012321022 -9.9627136e-23)
(0.01410318 -0.036334789 0)
(0.034373626 -0.014380481 0)
(0.015271476 0.01945863 0)
(-0.016446297 0.047372297 0)
(-0.049034415 0.02922766 0)
(-0.049315487 -0.01366552 0)
(-0.0084798376 -0.038461435 0)
(0.023710855 -0.027544493 0)
(0.029713489 -0.0013188473 0)
(0.015938367 0.015679078 0)
(-0.0015470792 0.018394583 0)
(-0.011481166 0.01071159 0)
(-0.011667269 0.00054186276 0)
(-0.0055618218 -0.0050493174 0)
(-0.00046499684 -0.0050064642 0)
(0.0016335752 -0.0026593644 0)
(0.0016642387 -0.00046537846 0)
(0.00081209101 0.00070227575 0)
(-7.9341867e-05 0.00097297691 0)
(-0.00051022622 0.00082192591 0)
(-0.00069563869 0.00058318092 0)
(-0.00072242202 0.00038370394 0)
(-0.00068996401 0.00023365272 0)
(-0.00064670991 0.00010878126 0)
(-0.00060340705 4.5291987e-06 0)
(-0.00056158895 -7.7117085e-05 0)
(-0.00051898532 -0.00013361891 0)
(-0.00046989282 -0.00015901926 0)
(-0.00042220196 -0.00014841338 0)
(-0.00037662991 -0.00011129111 0)
(-0.00034105431 -6.8174241e-05 0)
(-0.00031486888 -2.1291899e-05 0)
(-0.011087026 0.0081411049 -1.1420661e-23)
(-0.01093043 -0.014404812 0)
(0.014597625 -0.041333275 -8.9857106e-23)
(0.034740818 -0.013206916 0)
(0.015624849 0.022034762 0)
(-0.020918492 0.055162945 0)
(-0.052807725 0.033418599 0)
(-0.042788075 -0.01912866 0)
(-0.0060575243 -0.04795994 0)
(0.030238172 -0.034205801 0)
(0.037974764 -0.0010173152 0)
(0.020743442 0.021082563 0)
(-0.0020481898 0.025243726 0)
(-0.015971388 0.014598112 0)
(-0.016501722 0.00049113067 0)
(-0.0079349897 -0.0075285097 0)
(-0.00043093345 -0.0075325662 0)
(0.0027629384 -0.0040453573 0)
(0.0028428714 -0.00080709909 0)
(0.001625486 0.000993681 0)
(0.00022517363 0.0014158817 0)
(-0.00044047969 0.001180737 0)
(-0.00079165844 0.00081573745 0)
(-0.00084432884 0.00050524583 0)
(-0.00078635116 0.00029292899 0)
(-0.00071740056 0.00013856422 0)
(-0.00065834158 1.9341245e-05 0)
(-0.000608618 -7.064856e-05 0)
(-0.00056166677 -0.00013558696 0)
(-0.00051422861 -0.00017396032 0)
(-0.00046105662 -0.000177657 0)
(-0.00040921749 -0.00015343134 0)
(-0.00036193413 -0.0001105318 0)
(-0.00032755728 -6.5220075e-05 0)
(-0.00030380141 -1.9507625e-05 0)
(-0.0096085978 0.0079206058 3.369349e-23)
(-0.0098435476 -0.01623981 1.3765642e-22)
(0.014243027 -0.046471756 8.9871545e-23)
(0.033980672 -0.012744854 -1.3600922e-22)
(0.015816058 0.024864279 -9.6395654e-23)
(-0.023907213 0.063807987 0)
(-0.055268003 0.030263818 0)
(-0.037460871 -0.023367633 0)
(0.00061046517 -0.058214202 0)
(0.035444572 -0.044511808 0)
(0.047799499 -0.0015614136 0)
(0.026140766 0.025943588 0)
(-0.0029751781 0.033881318 0)
(-0.022223543 0.020064924 0)
(-0.023014676 0.00036916564 0)
(-0.011082615 -0.010976426 0)
(-0.00035523467 -0.011014941 0)
(0.0043555997 -0.0060260143 0)
(0.0045507985 -0.0013101148 0)
(0.0028120501 0.0014044501 0)
(0.00076583148 0.0021236388 0)
(-0.00044421108 0.0016568938 0)
(-0.00091940572 0.00116868 0)
(-0.0010306282 0.00067470071 0)
(-0.00093178622 0.00035856051 0)
(-0.00081455109 0.00016256577 0)
(-0.00072418209 2.8752007e-05 0)
(-0.00066140898 -6.5675758e-05 0)
(-0.00061017151 -0.00013641014 0)
(-0.00055840932 -0.00018213397 0)
(-0.00050740332 -0.00019807814 0)
(-0.00045183117 -0.00018688154 0)
(-0.00039640009 -0.00015125129 0)
(-0.00035032335 -0.00011074655 0)
(-0.0003156779 -6.1244189e-05 0)
(-0.00029383521 -1.786845e-05 0)
(-0.0077243869 0.0077029935 -3.8433493e-23)
(-0.0083929293 -0.017889647 -1.8763186e-22)
(0.013350415 -0.051312191 0)
(0.03233833 -0.011643362 3.591402e-22)
(0.015268773 0.028476512 9.5955609e-23)
(-0.02468405 0.073760103 -5.8826584e-23)
(-0.056247644 0.031999325 -2.6537008e-23)
(-0.03638729 -0.031162518 0)
(0.0027930399 -0.068548645 0)
(0.043830384 -0.053734295 0)
(0.060794984 -0.0020216207 0)
(0.034608514 0.03477456 0)
(-0.0044971947 0.044721168 0)
(-0.030693528 0.026246184 0)
(-0.03127381 0.00018667082 0)
(-0.015240397 -0.01551494 0)
(-0.00015278362 -0.015779654 0)
(0.0065793265 -0.0086555795 0)
(0.0069433858 -0.0020079129 0)
(0.0045125425 0.0019581448 0)
(0.0015676405 0.0031411447 0)
(-0.00044479981 0.0024840372 0)
(-0.0011484263 0.0016934419 0)
(-0.0013128868 0.00092543222 0)
(-0.0011562698 0.00043700543 0)
(-0.00095589885 0.00017053281 0)
(-0.00080903309 2.1220318e-05 0)
(-0.00071745313 -7.069455e-05 0)
(-0.00065892023 -0.00013904008 0)
(-0.00060832283 -0.00018872878 0)
(-0.00055513837 -0.00021192273 0)
(-0.00049753663 -0.00021137473 0)
(-0.00044105986 -0.00018718607 0)
(-0.00038417229 -0.00014484104 0)
(-0.00033874966 -0.00010112885 0)
(-0.00030515746 -5.6630554e-05 0)
(-0.0002849881 -1.6645569e-05 0)
(-0.0058738092 0.0074385361 7.222594e-24)
(-0.0064894905 -0.019203779 4.0081999e-23)
(0.011670775 -0.055813714 5.1543911e-23)
(0.02953458 -0.010813954 -1.0002856e-22)
(0.015010361 0.031205412 -2.3208776e-22)
(-0.025231293 0.08281532 -7.8103018e-23)
(-0.056636083 0.035140574 -5.6808343e-22)
(-0.036101907 -0.033495466 1.4326509e-22)
(0.0061394928 -0.079139219 0)
(0.054593666 -0.063537289 0)
(0.072853882 -0.0014244888 0)
(0.046892629 0.039046769 0)
(-0.003184989 0.056856192 0)
(-0.03990253 0.034870654 0)
(-0.041571128 -0.00063496122 0)
(-0.020195419 -0.021511687 0)
(0.00024121117 -0.022039464 0)
(0.0095923571 -0.012129889 0)
(0.010220297 -0.0029216221 0)
(0.0069114801 0.0026949314 0)
(0.0027284354 0.004587688 0)
(-0.00036121368 0.0037502267 0)
(-0.0015615784 0.002419457 0)
(-0.0017445218 0.0013182157 0)
(-0.0015156212 0.00052118799 0)
(-0.0011660982 0.00015208693 0)
(-0.00092232002 -2.033308e-05 0)
(-0.00077961796 -9.9181907e-05 0)
(-0.00070409221 -0.00015052324 0)
(-0.00065376463 -0.00019452177 0)
(-0.00060485495 -0.00022247424 0)
(-0.00054962835 -0.00022767367 0)
(-0.00048748279 -0.0002148214 0)
(-0.00042902855 -0.0001819357 0)
(-0.00037245773 -0.00013721996 0)
(-0.00032772901 -9.341293e-05 0)
(-0.00029570285 -5.2626796e-05 0)
(-0.00027700278 -1.6080365e-05 0)
(-0.0035163124 0.0071879438 3.9133501e-24)
(-0.0044264776 -0.020314107 6.3726892e-24)
(0.0097522894 -0.059582017 0)
(0.025512166 -0.0097994893 -3.701847e-23)
(0.014068581 0.034215488 -4.1699767e-25)
(-0.024389679 0.091442082 0)
(-0.054692567 0.03569204 1.7538136e-22)
(-0.035584143 -0.036573896 2.8128879e-22)
(0.007515138 -0.091455725 0)
(0.064792481 -0.070040277 0)
(0.079740247 -0.0036126959 0)
(0.046523934 0.050835673 0)
(0.00067724669 0.07365061 0)
(-0.047518806 0.043015555 0)
(-0.052618251 -0.0019462553 0)
(-0.025823287 -0.029151705 0)
(0.0010587961 -0.030312573 0)
(0.013639051 -0.016558853 0)
(0.014529695 -0.0041249832 0)
(0.010181882 0.0036865305 0)
(0.0043678711 0.006553263 0)
(-0.00018304944 0.0055976185 0)
(-0.0021705943 0.0035209572 0)
(-0.0024618204 0.0018187309 0)
(-0.0020325016 0.00065762959 0)
(-0.0015020421 7.16394e-05 0)
(-0.0010819502 -0.00012682115 0)
(-0.00084845658 -0.00017404119 0)
(-0.00074110965 -0.00018557381 0)
(-0.00068986756 -0.00020532938 0)
(-0.00064986419 -0.00022730814 0)
(-0.00060191781 -0.0002391428 0)
(-0.00054308998 -0.0002337503 0)
(-0.00047894843 -0.00021151381 0)
(-0.00041718567 -0.00017356098 0)
(-0.00036153302 -0.00012959843 0)
(-0.00031800915 -8.709171e-05 0)
(-0.00028729025 -4.9971287e-05 0)
(-0.00026952736 -1.6288348e-05 0)
(-0.00079624197 0.0071128647 0)
(-0.0022301938 -0.020985952 0)
(0.0076737344 -0.062499736 -6.6017264e-24)
(0.020458551 -0.0088238193 0)
(0.012825941 0.03681121 9.8461586e-24)
(-0.023357285 0.099987082 -5.9411543e-23)
(-0.052358961 0.037629464 -5.0392587e-22)
(-0.033983953 -0.038816826 -5.6512297e-22)
(0.0065838658 -0.10159139 0)
(0.070712562 -0.082285637 0)
(0.085346361 0.0026476814 0)
(0.044094726 0.056123669 0)
(-0.00040305824 0.088480762 0)
(-0.056764935 0.055188181 0)
(-0.066026868 -0.0036437363 0)
(-0.032658377 -0.038669581 0)
(0.0025258644 -0.040600948 0)
(0.018946305 -0.02226328 0)
(0.020100469 -0.0055572346 0)
(0.014535584 0.004925448 0)
(0.006653357 0.0091973887 0)
(0.00011264109 0.0082043631 0)
(-0.0030369963 0.0051512672 0)
(-0.003566622 0.0025213602 0)
(-0.0028516332 0.00079355118 0)
(-0.001999555 -7.5942306e-05 0)
(-0.00131405 -0.0003230619 0)
(-0.00092951054 -0.00032907394 0)
(-0.00076201351 -0.00026725991 0)
(-0.00070615596 -0.00023321671 0)
(-0.00068146172 -0.00023085097 0)
(-0.00064951293 -0.00024019233 0)
(-0.00059984067 -0.00024372446 0)
(-0.00053745257 -0.00023182728 0)
(-0.00047034368 -0.00020432975 0)
(-0.00040555832 -0.00016424736 0)
(-0.00035096639 -0.00012238715 0)
(-0.00030878319 -8.3563006e-05 0)
(-0.00027912836 -4.9537395e-05 0)
(-0.00026213018 -1.7276758e-05 0)
(-0.00040063946 -0.021263398 -1.037816e-24)
(0.0013684582 0.007155266 0)
(0.0038532997 -0.064748149 -3.0421937e-23)
(0.015402107 -0.0079705866 1.3579215e-23)
(0.010621785 0.038805115 7.1293644e-23)
(-0.02121268 0.10767418 -3.4609758e-23)
(-0.047953759 0.038555262 -1.2973764e-24)
(-0.031959435 -0.041006661 -8.0124643e-23)
(0.0056676946 -0.11345786 8.5390373e-22)
(0.070717351 -0.094463959 0)
(0.090582684 0.0020343895 -2.4320447e-21)
(0.03887212 0.069749266 0)
(-0.0028501694 0.10731229 0)
(-0.064606588 0.070585311 0)
(-0.087116438 -0.0024769569 0)
(-0.045130401 -0.049790803 0)
(0.0050164718 -0.053276477 0)
(0.025799107 -0.028827825 0)
(0.027084209 -0.0074196675 0)
(0.020144288 0.0065032547 0)
(0.0097281733 0.012642421 0)
(0.00061113562 0.011776642 0)
(-0.0042459957 0.00756268 0)
(-0.0051986178 0.0035357813 0)
(-0.0041484763 0.00091435908 0)
(-0.0027015934 -0.00030728474 0)
(-0.0016850142 -0.00070600923 0)
(-0.001029471 -0.00060404534 0)
(-0.00075811893 -0.00042173801 0)
(-0.00068778569 -0.00029426052 0)
(-0.00068575939 -0.00024008932 0)
(-0.00068255678 -0.00023227106 0)
(-0.00065339203 -0.00023974488 0)
(-0.00059956076 -0.00024056707 0)
(-0.00053206461 -0.00022574768 0)
(-0.00046095435 -0.0001955608 0)
(-0.00039544959 -0.00015732665 0)
(-0.00034095888 -0.00011789946 0)
(-0.00029991462 -8.3385483e-05 0)
(-0.00027130392 -5.1146393e-05 0)
(-0.00025466158 -1.890835e-05 0)
(9.4391334e-05 -0.06587662 3.1034588e-23)
(0.0016192787 -0.021260721 0)
(0.003931093 0.0073801161 -2.8800204e-23)
(0.0093745638 -0.0072019588 -1.3569359e-23)
(0.0082324152 0.040599249 -2.6760502e-23)
(-0.018488299 0.11437572 -1.5870662e-23)
(-0.042255613 0.039328927 2.3595909e-22)
(-0.028190081 -0.042755546 1.5853673e-22)
(0.0040475415 -0.12478409 6.1005336e-22)
(0.069420471 -0.1065697 2.4990915e-22)
(0.088751951 -0.0014148177 -2.7746939e-21)
(0.036979365 0.080631266 2.5461718e-21)
(-0.019823168 0.12294135 0)
(-0.095308705 0.088982085 0)
(-0.11768903 -0.0031772554 0)
(-0.061774222 -0.062572579 0)
(0.0058861521 -0.069234037 0)
(0.034707399 -0.037088704 0)
(0.035737173 -0.0092207265 0)
(0.02717196 0.0082894513 0)
(0.013898764 0.017073261 0)
(0.0013282101 0.016581063 0)
(-0.0058861633 0.010889546 0)
(-0.0075409321 0.0049987379 0)
(-0.0060698001 0.0010342386 0)
(-0.0038078849 -0.00076588154 0)
(-0.0021813562 -0.0012517844 0)
(-0.0011691672 -0.0010776062 0)
(-0.00071741832 -0.00071356 0)
(-0.0006118483 -0.00041753135 0)
(-0.00064169839 -0.00026568697 0)