/*--------------------------------*- C++ -*----------------------------------*\
| =========                 |                                                 |
| \\      /  F ield         | OpenFOAM: The Open Source CFD Toolbox           |
|  \\    /   O peration     | Version:  5.0                                   |
|   \\  /    A nd           | Web:      www.OpenFOAM.org                      |
|    \\/     M anipulation  |                                                 |
\*---------------------------------------------------------------------------*/
FoamFile
{
    version     2.0;
    format      ascii;
    class       surfaceScalarField;
    location    "260";
    object      ddtCorrDdt0(phi);
}
// * * * * * * * * * * * * * * * * * * * * * * * * * * * * * * * * * * * * * //

dimensions      [0 3 -2 0 0 0 0];

internalField   nonuniform List<scalar> 
18820
(
1.6417187e-06
0.00032722752
2.4489799e-06
0.00030343427
2.9306762e-06
0.00032429497
2.5535026e-06
0.00027840697
5.440672e-06
0.00030091029
-4.6170314e-06
0.00032890388
1.9337112e-06
0.00025259454
7.3217237e-06
0.00027651384
-8.0965922e-06
0.00030436674
-1.6434742e-05
0.00034532541
7.562001e-07
0.00022644407
7.7166709e-06
0.00025218803
-1.0948681e-05
0.00027934607
-3.0872167e-05
0.00031877458
-2.1820903e-05
0.00036712946
-6.9970137e-07
0.00020067039
6.1843003e-06
0.00022796602
-1.401543e-05
0.00025523663
-4.381643e-05
0.00029226537
-4.2505065e-05
0.00033942541
-1.871924e-05
0.00038582977
-2.6200392e-06
0.0001756441
3.1355621e-06
0.00020371058
-1.8127995e-05
0.00023206311
-5.5384214e-05
0.00026678227
-6.2232123e-05
0.00031196465
-3.7923556e-05
0.0003585947
-9.8783813e-06
0.00039568826
-5.8800608e-06
0.0001515354
-1.3622015e-06
0.00018013578
-2.3515304e-05
0.00020908618
-6.6164233e-05
0.0002428252
-8.0333807e-05
0.00028486018
-5.7641792e-05
0.00033165426
-2.1068251e-05
0.00036974962
-2.7998597e-06
0.00039846831
-1.278585e-05
0.00012868152
-8.025475e-06
0.00015819532
-3.0222718e-05
0.00018683587
-7.7132437e-05
0.00022004173
-9.6714968e-05
0.00025918793
-7.703655e-05
0.00030423101
-3.3579043e-05
0.00034413669
-6.3312535e-06
0.00037324693
-2.692241e-06
0.00040114117
-2.7838355e-05
0.0001074817
-1.9334086e-05
0.00013998954
-3.8258857e-05
0.00016622855
-8.8759523e-05
0.00019845579
-0.00011237652
0.00023569075
-9.5531927e-05
0.00027766499
-4.7654606e-05
0.00031828299
-1.0440866e-05
0.00034821865
-4.8894434e-06
0.00037541152
-9.0648146e-06
0.00041018748
-5.887508e-05
8.8846152e-05
-4.0905586e-05
0.0001290551
-4.709328e-05
0.0001488251
-0.00010049676
0.00017796347
-0.0001278819
0.00021395397
-0.00011364474
0.00025379039
-6.257437e-05
0.00029256579
-1.6466398e-05
0.00032428459
-6.6839667e-06
0.00034998591
-1.6482202e-05
0.00038279783
-1.7711695e-05
0.00042788153
-0.00011407271
8.0505373e-05
-8.4964893e-05
0.00013290964
-5.5341616e-05
0.00013730815
-0.0001091934
0.00015752313
-0.0001429429
0.00019302107
-0.00013199655
0.00023229576
-7.7806802e-05
0.00026900669
-2.460659e-05
0.00030068445
-8.7667356e-06
0.00032634222
-2.3240674e-05
0.0003567174
-3.3242415e-05
0.00039829926
-2.3634841e-05
0.00045149989
-0.00020159097
9.93961e-05
-0.0001597511
0.0001552979
-5.6864304e-05
0.00013444044
-0.00010843865
0.00013655742
-0.00015624294
0.00017082207
-0.00015161885
0.00021263392
-9.3435928e-05
0.00024790856
-3.2942302e-05
0.00027731995
-1.2069572e-05
0.00030396145
-2.9320043e-05
0.00033239447
-4.7837153e-05
0.00037128532
-4.5622329e-05
0.0004202595
-2.3937642e-05
0.00047542224
-0.00031324501
0.00011063391
-0.00022980168
0.00016945494
-2.9344612e-05
0.00012778969
-8.2589529e-05
0.00010859732
-0.00016258237
0.00014289724
-0.00017452903
0.00019372134
-0.00011080865
0.00022998723
-4.0376871e-05
0.00025531581
-1.5450864e-05
0.00028067051
-3.4727635e-05
0.0003093381
-6.1715972e-05
0.00034624452
-6.6383891e-05
0.00039202099
-4.7540065e-05
0.00044383736
-1.8721997e-05
0.0004941306
-0.0004610779
0.00014083912
-0.00028232238
0.00016316427
5.0823763e-05
8.9300905e-05
-1.4498691e-05
5.9706463e-05
-0.0001558877
0.00010190433
-0.00020505443
0.00017340954
-0.00013389643
0.00021678537
-4.6540388e-05
0.00023611608
-1.7192279e-05
0.00025701794
-4.0002672e-05
0.0002859064
-7.4664024e-05
0.00032225131
-8.6312834e-05
0.00036614434
-7.0288195e-05
0.000414745
-3.8405822e-05
0.00046349996
-1.0357477e-05
0.00050447625
-0.00064688367
0.00018318001
-0.00030605234
0.0001645791
0.00015392033
6.0083204e-05
8.0280798e-05
-5.4700231e-06
-0.00014568697
4.9508388e-05
-0.00025670496
0.0001535402
-0.00017279172
0.0002122775
-5.2022645e-05
0.00022222599
-1.4824589e-05
0.00023369967
-4.4642426e-05
0.00026160792
-8.7682274e-05
0.00029888021
-0.00010582667
0.00034172944
-9.2004143e-05
0.00038783307
-5.8811894e-05
0.00043513036
-2.2271286e-05
0.00047539676
-2.1986855e-06
0.00050666547
-0.00088611479
0.00024312031
-0.00030099616
0.00017813265
0.00029659668
2.1916378e-05
0.00019959429
-5.9222131e-05
-0.00015901902
7.8642529e-06
-0.00035043382
0.00014322204
-0.00024080049
0.00022151999
-5.6530676e-05
0.00021674014
-4.0121918e-06
0.00021135848
-4.6757348e-05
0.00023575621
-0.0001015766
0.00027544809
-0.00012571925
0.00031872873
-0.00011363306
0.00036332576
-7.8753328e-05
0.00040775173
-3.6764626e-05
0.00044960755
-5.8380302e-06
0.00047902393
2.8198122e-06
0.00050383872
-0.0011945841
0.0003159679
-0.00027164026
0.00021377036
0.00047524894
-5.1155772e-07
0.00036649413
-0.00014497767
-0.00020078742
-1.745435e-05
-0.00049087932
0.00014829446
-0.00035135166
0.00025374436
-5.953272e-05
0.00022447729
2.3193685e-05
0.00018947862
-4.2394257e-05
0.00020693473
-0.00011670217
0.00025082292
-0.00014727353
0.00029695268
-0.0001359751
0.00034103343
-9.8665463e-05
0.00038321272
-5.293803e-05
0.00042390898
-1.2151056e-05
0.00045591025
4.5579761e-06
0.00047727903
3.4754052e-06
0.00050035926
-0.0016021447
0.00045211451
-0.00025210255
0.00029643175
0.00073799995
-4.898108e-05
0.00063176539
-0.00026578133
-0.00029925995
-4.6510955e-05
-0.00067193908
0.00016358972
-0.00051267236
0.00030958746
-5.5393243e-05
0.00024956442
7.7682402e-05
0.00016993848
-2.6192519e-05
0.00017322222
-0.00013309669
0.00022327452
-0.00017215522
0.00027565705
-0.00016032934
0.00032126997
-0.00011964577
0.00036198885
-6.950489e-05
0.00039976472
-2.2508655e-05
0.00043425834
5.5224267e-06
0.00045494164
6.2014173e-06
0.00047455174
6.3195244e-07
0.00049972613
-0.0020755519
0.00053462483
-0.00019982214
0.00039983045
0.001150896
-0.00011647394
0.00099748348
-0.00041470317
-0.00044402804
-0.0001210246
-0.00092423595
0.0002057694
-0.00073695073
0.00038784241
-4.1535061e-05
0.00029569475
0.00017613605
0.00015107054
1.224293e-05
0.00013146079
-0.00015028243
0.00019036637
-0.00020262819
0.00025371185
-0.00018865497
0.00030395513
-0.00014222492
0.00034383106
-8.6806057e-05
0.00037928069
-3.494476e-05
0.00041219748
3.3912468e-06
0.00043638939
9.2061257e-06
0.00045193902
1.069319e-06
0.00047411853
-3.6375329e-06
0.00050336545
-0.0026996628
0.00072025819
-0.00016187755
0.00049667133
0.0017846543
-0.00023394506
0.0015098527
-0.00062885238
-0.00063975283
-0.00021899289
-0.0013190396
0.00027376215
-0.0010334527
0.00050224973
4.5405582e-07
0.00034582483
0.0003346327
0.00013716946
8.6582621e-05
7.6703382e-05
-0.00016605683
0.00014721188
-0.00024124245
0.00022896406
-0.00022448101
0.00028952827
-0.00016766658
0.00032939387
-0.00010425227
0.00036128
-4.7212224e-05
0.00039155417
-2.5252609e-06
0.00041812114
1.1641727e-05
0.00043396065
1.250428e-06
0.00045176537
-6.6207839e-06
0.00047711078
-7.3144387e-06
0.00051068446
-0.0033775654
0.00075831098
-7.7310321e-05
0.00063567761
0.0025898409
-0.00030853664
0.0021769168
-0.00090102194
-0.00091694873
-0.00035166954
-0.0019146005
0.00037655272
-0.0014362434
0.00067653841
7.7613352e-05
0.00042506805
0.00058566753
9.4773042e-05
0.0002263669
-2.6291336e-06
-0.00017617188
8.6812942e-05
-0.00029060723
0.00019657987
-0.00027372846
0.00027822295
-0.00019874801
0.00032062639
-0.00012149086
0.00034665248
-5.7981762e-05
0.00037206967
-9.2849702e-06
0.00039833213
1.2005152e-05
0.00041777275
1.454607e-06
0.00043376827
-1.1034992e-05
0.00045619139
-1.3298834e-05
0.00048310849
-9.2206605e-06
0.00051991239
-0.0042665181
0.0010768007
-5.6496072e-05
0.00073748034
0.0036932385
-0.00046774168
0.0030797114
-0.001211345
-0.0013072365
-0.0005107415
-0.0027688214
0.00050254
-0.0019939091
0.00093421385
0.00021365915
0.00054047691
0.00098082684
2.9902331e-05
0.00044261349
-0.00012147818
-0.00016350506
-1.5288499e-05
-0.00035280896
0.00014903236
-0.00034731424
0.00027019375
-0.00024108528
0.00032059402
-0.00013844098
0.00033761326
-6.5314248e-05
0.00035402024
-1.4423941e-05
0.00037723984
1.1377914e-05
0.00039898447
4.0257326e-07
0.00041884353
-1.5959436e-05
0.0004387068
-2.1160737e-05
0.000464068
-1.7325407e-05
0.0004912299
-9.0652888e-06
0.00052898741
-0.0050806427
0.0012691918
0.00013732087
0.00088296612
0.0049179593
-0.00048726031
0.0042711976
-0.0016592404
-0.0017958744
-0.00072270652
-0.0039785707
0.00069900263
-0.0027733335
0.00128197
0.00044388045
0.00070398423
0.0015665608
-4.5255268e-05
0.00078103297
-0.00030851501
-0.00014207768
-0.00014289179
-0.00044669061
7.8617559e-05
-0.00046458095
0.00026633405
-0.0003057535
0.00033490319
-0.00015579893
0.00033799676
-6.6016629e-05
0.00033835962
-1.4650563e-05
0.00035428714
1.1028302e-05
0.00037762334
-2.4994328e-06
0.00040191209
-2.1486693e-05
0.0004243891
-3.0763038e-05
0.00044832284
-2.6489004e-05
0.00047324794
-1.8325829e-05
0.00050050985
-7.0134544e-06
0.00053601289
-0.0061650752
0.0014454839
0.00056873685
0.00083775856
0.0066701051
-0.00086919663
0.0058239832
-0.0020400559
-0.0025032405
-0.00095186734
-0.0056227103
0.00092143397
-0.0037893497
0.0017150314
0.00080239854
0.00092345062
0.002413812
-0.00014326128
0.0012940407
-0.00055825577
-0.0001395747
-0.00031100365
-0.00060544544
1.588819e-05
-0.00066104198
0.00027511058
-0.00041134611
0.0003719641
-0.00017538392
0.00035452812
-5.5001296e-05
0.00032702148
-4.9014822e-06
0.00032864906
1.2928627e-05
0.00035242181
-6.8022984e-06
0.00038195488
-2.9667429e-05
0.00041011318
-4.0886901e-05
0.00043452693
-3.8430987e-05
0.00046027585
-2.7545707e-05
0.00048248465
-1.5805926e-05
0.00050932347
-3.2959098e-06
0.00053932296
-0.007307628
0.0015844963
0.00088798191
0.0011262233
0.0086716026
-0.0011637535
0.0074641357
-0.0025093565
-0.0033356622
-0.0012076239
-0.0078591186
0.0012845457
-0.00513081
0.0022629076
0.0013285518
0.0011888815
0.0036004744
-0.00026320765
0.0020354734
-0.00088468291
-0.00013186866
-0.00056595083
-0.00089576084
-2.0664393e-05
-0.00095315971
0.00030802952
-0.00058546363
0.00044925488
-0.00020011941
0.00039672406
-2.348272e-05
0.00032303292
2.2508948e-05
0.00029963371
2.0510076e-05
0.00032109079
-1.1869408e-05
0.00035751063
-4.09331e-05
0.00039323791
-5.352548e-05
0.00042276272
-5.204224e-05
0.00044814533
-3.8991667e-05
0.00047172858
-2.4629243e-05
0.00049132457
-9.0100464e-06
0.00051505998
1.7628681e-06
0.00053757617
-0.0086099693
0.0023916383
0.0011038063
0.0013686588
0.011203977
-0.0014061638
0.0092423364
-0.00294196
-0.0045303632
-0.0013146454
-0.010622177
0.0015554398
-0.0067782317
0.0029319764
0.0020517702
0.001539694
0.0052005587
-0.00041120441
0.0030823738
-0.0013100947
-0.00010019747
-0.00091634764
-0.0013727685
-8.8919818e-05
-0.0013580199
0.00038421169
-0.00084529233
0.00056787458
-0.00023133891
0.00048048125
4.2415607e-05
0.00033082679
7.9508007e-05
0.00026603147
3.9830253e-05
0.000280313
-1.6461268e-05
0.0003256857
-5.5813066e-05
0.00037239536
-7.0039743e-05
0.00040975573
-6.7530318e-05
0.00043825048
-5.3366814e-05
0.00046251952
-3.3699316e-05
0.00048080032
-1.5915878e-05
0.00049824634
1.5987857e-06
0.00051524674
7.4016273e-06
0.0005301924
-0.0093595718
0.002494184
0.0022738014
0.0012216328
0.01412554
-0.001552916
0.011291668
-0.0034555008
-0.0058819869
-0.0015903287
-0.014004663
0.002067844
-0.0089217707
0.0036989809
0.0030548096
0.0019289408
0.0073322295
-0.00059198484
0.0045138807
-0.0018426971
-3.1560948e-05
-0.0013787274
-0.0020798782
-0.0002092142
-0.0019625503
0.00051562378
-0.0011999611
0.00073889099
-0.0002691794
0.00060571069
0.00016553959
0.00035734057
0.00018313453
0.0002271745
8.0532768e-05
0.00022530175
-1.8176389e-05
0.00028200542
-7.514237e-05
0.00034499887
-9.1940908e-05
0.00039428532
-8.6750821e-05
0.00042896651
-6.9568082e-05
0.00045444057
-4.5430744e-05
0.00047424232
-2.2259715e-05
0.00048714075
-1.2500923e-06
0.00050111039
1.3331338e-05
0.0005093396
1.2436826e-05
0.00051777498
-0.0098287573
0.0023250661
0.0042101343
0.00055784297
0.018053782
-0.0027066197
0.013639118
-0.0039003721
-0.0071898382
-0.0021476453
-0.018301076
0.0027060854
-0.011407098
0.0045531679
0.0043115024
0.0024422905
0.010091887
-0.00083072766
0.0064447105
-0.0025228008
8.7379685e-05
-0.0019616318
-0.0030730321
-0.00038555023
-0.0028771093
0.00070536093
-0.0016985308
0.0010142021
-0.00030823343
0.0007779392
0.00036277807
0.00040844776
0.00036372312
0.00017671446
0.0001583475
0.00014931463
-1.292897e-05
0.0002200106
-0.00010048949
0.00030731484
-0.00012168064
0.00037470961
-0.00011171
0.00041922195
-8.9256606e-05
0.00044863547
-6.0149998e-05
0.00046914
-3.0769445e-05
0.00048273705
-5.7224115e-06
0.00049160503
1.5458141e-05
0.00049899817
2.3262529e-05
0.00049853556
1.6005719e-05
0.00050179009
-0.010015961
0.0021779562
0.0061758666
0.0003593273
0.022436458
-0.0038248423
0.015382984
-0.0044504936
-0.0087912719
-0.0022989375
-0.023801123
0.0033524001
-0.014181675
0.0054806561
0.0059878737
0.0028767994
0.013656096
-0.001121925
0.0089703093
-0.0033563128
0.00025475458
-0.0026901627
-0.0044141604
-0.00062048285
-0.0042213162
0.00095867911
-0.0024095339
0.0014163704
-0.00034129606
0.0010472636
0.00066312312
0.00047757006
0.00065988157
0.00011225379
0.00029376717
4.1247024e-05
5.8322889e-06
0.00013050319
-0.0001341105
0.00025358296
-0.00016342909
0.00034902156
-0.000145648
0.00040861441
-0.00011416239
0.00044410038
-7.8683347e-05
0.00046714416
-4.3570306e-05
0.00048191562
-1.1873079e-05
0.00048886853
1.4034489e-05
0.00049301691
3.1113572e-05
0.00049116146
3.0013088e-05
0.00048454865
1.8020777e-05
0.0004837913
-0.010086834
0.002457731
0.0083162078
3.7609848e-05
0.027121098
-0.0043253229
0.016279546
-0.0047214122
-0.010915171
-0.0023265963
-0.029091252
0.002991189
-0.017220574
0.006391293
0.0081578102
0.0033107249
0.018100259
-0.0015673626
0.01222296
-0.0043745624
0.00045211398
-0.0035536499
-0.0061756631
-0.00092864439
-0.0061283344
0.0012865627
-0.0034257676
0.0019749137
-0.00036444013
0.0014395172
0.0011328479
0.00057751703
0.0011082839
2.9140957e-05
0.00051843731
-0.00011245449
4.5969826e-05
1.0689523e-06
-0.00017993678
0.00017628659
-0.00022437108
0.00031448419
-0.00019414482
0.00039748326
-0.00014774131
0.00044216425
-0.00010240617
0.00046779791
-6.0009391e-05
0.00048355845
-2.0756675e-05
0.00049077196
1.1601216e-05
0.00049128053
3.4788316e-05
0.00048932764
4.221024e-05
0.00047897897
3.4074445e-05
0.00046851354
1.8691851e-05
0.00046512247
-0.010021773
0.002491363
0.010544369
0.00022956509
0.031917336
-0.0047586372
0.016300868
-0.0043466548
-0.013861894
-0.0017746942
-0.035369251
0.0039514011
-0.021629426
0.0074000384
0.010526214
0.0040228972
0.023497019
-0.0020860257
0.016187299
-0.0055316883
0.00065416673
-0.0045765869
-0.0084284654
-0.0013008389
-0.0087577121
0.001700759
-0.0048484196
0.0027092076
-0.00037572071
0.001986194
0.0018463099
0.0007260334
0.0017776388
-9.1858176e-05
0.00087322388
-0.00032567034
0.00010680429
-0.00017331193
-0.00024742691
6.8534906e-05
-0.00031887989
0.00027077002
-0.00026904925
0.00038936442
-0.00019694813
0.00044666805
-0.00013351918
0.00047325853
-7.9833539e-05
0.00048760356
-3.2084951e-05
0.00049486564
7.3601192e-06
0.00049498667
3.6028539e-05
0.00049001904
5.102021e-05
0.00048050156
4.8547107e-05
0.00046452179
3.5607598e-05
0.00045161416
1.8263123e-05
0.00044688316
-0.0098449883
0.0024188446
0.012842642
0.00019308529
0.037103245
-0.0049563539
0.015355737
-0.0038135156
-0.017376961
-0.00083159474
-0.043792962
0.0066490167
-0.026581324
0.0089032999
0.012167353
0.0057589092
0.029963853
-0.0024439191
0.020954268
-0.0068529835
0.00085632337
-0.0057338173
-0.01123645
-0.0017686002
-0.012280578
0.0022220422
-0.0068106749
0.0036630005
-0.00037241049
0.0027058869
0.0028956049
0.00093687723
0.002765856
-0.00026220382
0.0014010222
-0.00061966938
0.00021606796
-0.00043494136
-0.00035393951
-6.6801587e-05
-0.00047335406
0.00022300528
-0.00038691357
0.00038862981
-0.00026992106
0.00046233054
-0.00017479386
0.00048793628
-0.00010341036
0.00049682912
-4.5183636e-05
0.00050069271
1.4237983e-06
0.000500787
3.476197e-05
0.00049622946
5.593777e-05
0.00048508195
6.0507926e-05
0.00046852404
5.1512968e-05
0.00044863318
3.4997425e-05
0.00043489343
1.7093249e-05
0.00042981453
-0.0095987548
0.0022913715
0.015115212
0.00014626802
0.042480019
-0.0051837006
0.014590935
-0.0041915617
-0.02106826
-0.00012222425
-0.052284727
0.0076601712
-0.029455496
0.009523195
0.014864743
0.0062059209
0.038210035
-0.0024872511
0.02671292
-0.0082025628
0.00097422163
-0.006970861
-0.014722213
-0.0022480575
-0.016908032
0.0028588535
-0.0094387253
0.0048500765
-0.00034987774
0.0036404447
0.0043816526
0.0012198219
0.0041957118
-0.00049299986
0.0021607806
-0.0010219632
0.00039455549
-0.00079815279
-0.00051080892
-0.00027805611
-0.00069008419
0.00014994348
-0.00055618873
0.00039229483
-0.00037551665
0.00049423478
-0.00022959225
0.00051713553
-0.00013076045
0.00051529219
-5.9059792e-05
0.0005107094
-5.4893549e-06
0.00050760496
3.2666469e-05
0.00050287376
5.6906581e-05
0.00049524039
6.9146153e-05
0.00047642756
6.4875188e-05
0.00045514515
5.1187101e-05
0.00043246178
3.335016e-05
0.00041864722
1.5685209e-05
0.00041415466
-0.0093045277
0.0020579415
0.017254259
0.00015231762
0.047839643
-0.0052133684
0.013685624
-0.004278397
-0.024039021
-0.0012208081
-0.060366158
0.0079592098
-0.030308236
0.0085129242
0.019929933
0.0044580166
0.047547746
-0.0031317652
0.033984622
-0.0097589452
0.001036321
-0.0082646501
-0.018977124
-0.0027159552
-0.02285897
0.0037028663
-0.012902628
0.0063227437
-0.00028707072
0.0047872396
0.0064403656
0.0015817248
0.0062071059
-0.00079158819
0.0032300005
-0.0015622057
0.0006595913
-0.0012869821
-0.00072242793
-0.00058650265
-0.0010252212
5.710939e-05
-0.00079115868
0.00038494031
-0.00052956583
0.00054636306
-0.0003042734
0.00056892972
-0.00016165884
0.00054804511
-7.1467904e-05
0.0005277112
-1.1605422e-05
0.00051683562
3.0309921e-05
0.00050996632
5.9022284e-05
0.00050075421
7.567995e-05
0.00048869037
7.4845687e-05
0.00046644499
6.5185422e-05
0.00044113028
4.8710505e-05
0.00041712156
3.1711923e-05
0.00040262807
1.4141492e-05
0.00040003934
-0.0090087032
0.0017416696
0.019182135
0.00013005758
0.053059375
-0.0050674277
0.012657775
-0.0041855262
-0.027076404
-0.0012410183
-0.068502098
0.0069151339
-0.03028489
0.0079358819
0.024901335
0.0035415362
0.05664228
-0.0046364938
0.042118749
-0.011265882
0.0011588137
-0.0098814326
-0.024109989
-0.0031317861
-0.030388431
0.0048134854
-0.017315241
0.008115474
-0.00016327238
0.0061989192
0.009209331
0.0020182791
0.0089545407
-0.0011657117
0.0046941295
-0.0022556869
0.0010274211
-0.0019299999
-0.0010116587
-0.00099770525
-0.0015267686
-8.4913426e-05
-0.0011566394
0.00042262476
-0.00076876883
0.00062416579
-0.00041238267
0.00065448452
-0.00019694554
0.00060422283
-7.9074861e-05
0.00055565764
-1.166179e-05
0.00052777575
3.0370625e-05
0.00051678514
5.904482e-05
0.00050994966
7.7212556e-05
0.00049922111
8.2064923e-05
0.00048145876
7.3601682e-05
0.00045802063
6.278435e-05
0.00042703986
4.5760503e-05
0.00040309531
2.8172065e-05
0.00038860207
1.2594945e-05
0.00038747135
-0.0087272807
0.0013558714
0.020799069
0.00012472846
0.05792334
-0.0047339224
0.011618582
-0.0040282412
-0.030116385
-0.0011455491
-0.076826334
0.0070832202
-0.031788297
0.0084185594
0.029855914
0.0029813192
0.066003971
-0.0058201362
0.050138967
-0.012656699
0.0020299295
-0.012136998
-0.029689557
-0.0043018611
-0.039492908
0.0059726702
-0.022754888
0.010253133
0.00016944787
0.0077827395
0.012868153
0.0025401083
0.012638306
-0.0016654706
0.0066786209
-0.0031501646
0.0015321248
-0.0027603365
-0.0014015119
-0.0015400903
-0.0022383536
-0.00028606442
-0.0017391701
0.00049765868
-0.0011040031
0.00075788467
-0.00057955662
0.00079134779
-0.00023803206
0.00069556642
-7.6008983e-05
0.0006011474
1.88265e-07
0.00054380014
3.7915372e-05
0.00052023012
6.2099536e-05
0.00051373436
7.9185274e-05
0.00050797999
8.6825707e-05
0.00049446199
8.4360646e-05
0.00047068985
7.5494576e-05
0.0004453053
5.8580462e-05
0.00041420325
4.1205352e-05
0.00039008704
2.5083466e-05
0.0003761151
1.1298231e-05
0.00037620092
-0.0084628231
0.00098056413
0.022093471
6.1461223e-05
0.062228036
-0.0041799825
0.010571107
-0.003686454
-0.033004241
-0.0011403872
-0.085052752
0.0070808722
-0.033224773
0.0085197141
0.032143068
0.0061314213
0.07579835
-0.0068130454
0.057790432
-0.013471591
0.0019577202
-0.012584495
-0.035848022
-0.0059785303
-0.050248405
0.0064536172
-0.029037184
0.012254969
0.00091776718
0.0095048111
0.017586503
0.0030643984
0.017479564
-0.0023011228
0.0092417995
-0.0042286171
0.0021787996
-0.00379678
-0.0019190089
-0.0022427872
-0.0032223238
-0.00055605994
-0.0026089434
0.00058375199
-0.0015943347
0.0009880203
-0.00080963328
0.00098796945
-0.00029143611
0.00084474112
-5.2793385e-05
0.00067232654
3.475101e-05
0.00056655729
6.1345298e-05
0.00052034688
7.2229835e-05
0.00051008549
8.2607664e-05
0.00051030515
8.9594109e-05
0.00050521028
8.9856513e-05
0.00048896801
8.3316239e-05
0.00046285815
7.087142e-05
0.00043301141
5.3718353e-05
0.00040167366
3.7210403e-05
0.00037798818
2.25139e-05
0.0003648981
1.0385125e-05
0.00036584435
-0.0082824512
0.00056574574
0.023108863
-3.4835604e-05
0.065758243
-0.0034687602
0.0095818929
-0.0031907758
-0.035670163
-0.0010205314
-0.093073584
0.0068804506
-0.034430943
0.0082870623
0.03433355
0.0063292488
0.085107242
-0.0031774563
0.065012985
-0.01403559
0.00071382992
-0.012227712
-0.042873239
-0.0055592815
-0.062935762
0.0067088029
-0.036650496
0.014066921
0.0019594102
0.011213326
0.023550605
0.0035407081
0.023659659
-0.0031156719
0.012476156
-0.0055354639
0.0030062135
-0.0050559871
-0.002588633
-0.0031271244
-0.0045571783
-0.00090789057
-0.0038542039
0.00068923008
-0.0023302578
0.0013197003
-0.0011199466
0.0012983433
-0.00035948015
0.0010560058
3.5394614e-06
0.00078838173
0.00010553412
0.00060150639
0.00011285582
0.00051500535
9.7484306e-05
0.00049505551
9.069678e-05
0.00050196685
9.1193259e-05
0.00050868886
9.2005095e-05
0.00050305557
8.8522746e-05
0.0004837605
7.9406825e-05
0.00045431023
6.5979731e-05
0.00042074877
4.8914288e-05
0.00038995341
3.3708104e-05
0.00036682529
2.0745776e-05
0.00035453324
9.9724378e-06
0.00035590123
0.00017159944
-0.0082830863
0.023668375
6.2271266e-06
0.068444606
-0.0027212104
0.008613907
-0.0025007816
-0.037952974
-0.00090796301
-0.10056164
0.0064675358
-0.035506694
0.0079562216
0.036252276
0.0063683577
0.094654009
-0.0032175067
0.074991799
-0.01315626
-0.0018815366
-0.011440245
-0.050423977
-0.0046769852
-0.075857929
0.0073628572
-0.046675226
0.016733509
0.0024076801
0.013618647
0.030749181
0.0040147358
0.031338444
-0.0041380631
0.016430345
-0.00706986
0.0040122965
-0.0065415297
-0.0034290256
-0.0042155864
-0.0063109022
-0.001373395
-0.0055856975
0.00082360398
-0.0034130917
0.0017720638
-0.0015637403
0.0017634953
-0.00042203585
0.0013608941
9.6010838e-05
0.0009635177
0.00023864423
0.00065524332
0.00020949065
0.00050483121
0.00014878382
0.00046366053
0.00010928646
0.0004764191
9.3747246e-05
0.00049937231
9.0583888e-05
0.0005100867
8.9419333e-05
0.00050214645
8.4409963e-05
0.00047875049
7.4290716e-05
0.00044598289
5.9513883e-05
0.00041014952
4.4909788e-05
0.00037873564
3.1264478e-05
0.0003563411
1.9918503e-05
0.00034458023
9.9896266e-06
0.00034594161
4.4128283e-05
0.023795839
-0.00018134151
-0.0083877854
0.070104998
-0.0016541752
0.0077036177
-0.001810928
-0.039778329
-0.00067542492
-0.1072751
0.0058055062
-0.036274305
0.0072351654
0.037902878
0.0063056398
0.1042305
-0.0032081283
0.084953294
-0.013178993
-0.00055724782
-0.014480568
-0.05970404
-0.0021602025
-0.090841291
0.010306355
-0.05915037
0.019837969
0.002196418
0.016944765
0.039003757
0.0053640502
0.040814184
-0.0054609994
0.021145945
-0.0088536618
0.0051804225
-0.0082379867
-0.0044417805
-0.0055287715
-0.0085863609
-0.0019401523
-0.007937533
0.0009784176
-0.0049579533
0.0023684285
-0.0022029604
0.0024112619
-0.00047970334
0.0018211458
0.00026225987
0.0011946351
0.00045609641
0.0007460548
0.00037760125
0.00048711379
0.00024472571
0.00040885988
0.0001475322
0.00042537435
0.00010072523
0.0004693915
8.6070107e-05
0.00050384457
8.4834017e-05
0.00051464526
8.433774e-05
0.0005021978
7.9247878e-05
0.00047377942
6.8928573e-05
0.00043654776
5.5437923e-05
0.00039962325
4.2030844e-05
0.00036795321
3.0065251e-05
0.00034623183
1.9753701e-05
0.00033480658
1.0347052e-05
0.00033562524
-0.00057695491
0.070726074
9.897393e-06
0.023604593
-0.00056366222
-0.008651935
0.0071590948
-0.0011096587
-0.041172261
-0.00041699434
-0.11289707
0.0049465495
-0.036757284
0.006288503
0.039225671
0.0059123898
0.11355095
-0.0030148091
0.095158303
-0.01341314
0.00095329378
-0.014689556
-0.065154041
-0.0090305924
-0.10578715
0.01278564
-0.07101597
0.022171931
0.0021871813
0.01984721
0.048634866
0.0073136461
0.052875128
-0.0066968891
0.026535393
-0.010850428
0.0064644709
-0.010137708
-0.0056334967
-0.0070462486
-0.011430492
-0.0026846617
-0.011030953
0.0011532489
-0.0071218932
0.0031423038
-0.003112193
0.0032776186
-0.00053603093
0.0024675493
0.00055773412
0.0015256531
0.00078326604
0.00086746094
0.00065703307
0.000466627
0.0004054609
0.00032637946
0.00021839553
0.00033798743
0.00011782567
0.00040824309
7.9341455e-05
0.00047608097
7.3472914e-05
0.00051517125
7.7335904e-05
0.00052161743
7.877719e-05
0.00050263943
7.4247255e-05
0.00046844059
6.4452257e-05
0.00042750918
5.2495915e-05
0.00038916121
4.0527501e-05
0.00035747448
2.986603e-05
0.00033615962
2.0396026e-05
0.00032474562
1.1041181e-05
0.00032461537
-0.00035183451
0.0069339692
0.00058200252
0.070153964
8.8468183e-05
0.022952455
-0.00099119605
-0.0089952149
-0.04189324
-0.00038867854
-0.11722442
0.0039103738
-0.036913434
0.0051027162
0.040295436
0.0052187553
0.12208066
-0.0026173153
0.10518975
-0.013046269
0.0020320868
-0.01449196
-0.069829426
-0.0100142
-0.11952187
0.0047041242
-0.079120792
0.020890444
0.0057430974
0.018616032
0.060211495
0.0082705928
0.06798745
-0.0077986646
0.032985909
-0.013147366
0.0077495605
-0.012135498
-0.0069827222
-0.0087884388
-0.01487613
-0.0036005971
-0.015049185
0.0013335773
-0.010089375
0.0041207037
-0.0043907746
0.0044208471
-0.00059066579
0.0033322056
0.0010299709
0.0019952786
0.0012983634
0.0010105403
0.0010791259
0.00044537494
0.00067185868
0.00020024962
0.00034297405
0.00020182658
0.00015190372
0.00030391665
7.0984252e-05
0.00041658861
5.342167e-05
0.00049611387
6.0590487e-05
0.00053189092
7.0449139e-05
0.0005299144
7.4054853e-05
0.00050279736
7.0365023e-05
0.00046250323
6.1654817e-05
0.00041832249
5.1155032e-05
0.00037853725
4.0426446e-05
0.00034689662
3.0770882e-05
0.00032582714
2.1669588e-05
0.00031410307
1.1882294e-05
0.00031276496
-0.00015947082
-0.042085603
0.00052368439
0.0069922832
0.0016934434
0.068548985
6.3622805e-05
0.021897629
-0.0013879676
-0.0093331084
-0.12002782
0.0024147328
-0.03677541
0.0037723656
0.041113454
0.0042847155
0.12949575
-0.0021963405
0.11501127
-0.012438835
0.0031236949
-0.014137896
-0.074995736
-0.0093256866
-0.13392498
0.0043889041
-0.091703476
0.017286789
0.010543306
0.016090243
0.070997379
0.0078301653
0.084761749
-0.0085036955
0.040689201
-0.015501911
0.0089412259
-0.014339
-0.0084718474
-0.010646333
-0.018951691
-0.0047128354
-0.020239681
0.0015899223
-0.014108823
0.0053530467
-0.006151898
0.0058818152
-0.00063637566
0.0044665362
0.0017381073
0.0026240357
0.0020917066
0.0012019102
0.0016909762
0.00039867992
0.0010951514
2.2094851e-05
0.00054332537
-6.589503e-08
0.00021423828
0.00013952747
6.2892154e-05
0.00031203112
2.1804382e-05
0.0004482206
3.0071415e-05
0.00052663431
5.0428554e-05
0.00055189434
6.564922e-05
0.0005382917
7.1118904e-05
0.00050200744
6.8386812e-05
0.00045574403
6.0795006e-05
0.00040865123
5.146964e-05
0.00036749734
4.1630153e-05
0.00033601848
3.2550193e-05
0.00031499081
2.3198465e-05
0.00030277089
1.2829736e-05
0.00029996765
0.00079331428
-0.12098059
3.6900634e-05
-0.041598818
0.00098294607
0.0077027773
0.0027004847
0.065912121
-5.5206553e-05
0.02056486
-0.0017797346
-0.0096756913
-0.036874597
0.0025139344
0.041733343
0.0031524934
0.13555971
-0.0017792389
0.12421669
-0.011401777
0.0038200058
-0.013135155
-0.07932858
-0.0098050797
-0.14799833
0.0047476688
-0.10550771
0.018193123
0.0061070703
0.021723023
0.079848109
0.0072395334
0.10127134
-0.0086794255
0.049900832
-0.017715296
0.0099758893
-0.016536544
-0.010116456
-0.01269438
-0.023625722
-0.0059722679
-0.026723282
0.0017707672
-0.019398807
0.0068799424
-0.0085542179
0.0077553695
-0.00065061034
0.005896066
0.0027738264
0.0034308059
0.0032511122
0.0014646183
0.0025802489
0.00031261557
0.0017110793
-0.00021725696
0.00085238414
-0.00028694975
0.00031582859
-0.00010162589
5.605181e-05
0.0001464002
-2.5328753e-05
0.00035920268
-1.9844959e-05
0.00049817053
1.3249423e-05
0.00056382799
4.4703323e-05
0.00057283378
6.3873633e-05
0.00054551598
7.0651629e-05
0.00049970825
6.8778615e-05
0.000447732
6.2083572e-05
0.00039800234
5.3231366e-05
0.00035589841
4.3928772e-05
0.0003246193
3.4791036e-05
0.00030344405
2.5089365e-05
0.00029049375
1.3802505e-05
0.00028619799
0.0010687507
-0.03715002
-0.00099906256
-0.11994462
0.0004275097
-0.04104338
0.0017909244
0.0086123351
0.0034910089
0.062365903
-0.00010932998
0.018894448
-0.0020963671
-0.009996145
0.042181245
0.0020660465
0.13990775
-0.0011955444
0.1324059
-0.0099684593
0.0039618945
-0.011543669
-0.083181123
-0.0092826354
-0.16239742
0.0045940076
-0.11798418
0.017224142
0.0021368478
0.022163342
0.0809187
0.020652459
0.11712341
-0.0086125206
0.060361574
-0.019140154
0.011004298
-0.018743682
-0.012059828
-0.014593189
-0.028980255
-0.0073398492
-0.034762558
0.0020669706
-0.026370436
0.008742386
-0.011701007
0.010026713
-0.00058654833