/*--------------------------------*- C++ -*----------------------------------*\
| =========                 |                                                 |
| \\      /  F ield         | OpenFOAM: The Open Source CFD Toolbox           |
|  \\    /   O peration     | Version:  5.0                                   |
|   \\  /    A nd           | Web:      www.OpenFOAM.org                      |
|    \\/     M anipulation  |                                                 |
\*---------------------------------------------------------------------------*/
FoamFile
{
    version     2.0;
    format      ascii;
    class       volScalarField;
    location    "260";
    object      nut;
}
// * * * * * * * * * * * * * * * * * * * * * * * * * * * * * * * * * * * * * //

dimensions      [0 2 -1 0 0 0 0];

internalField   nonuniform List<scalar> 
9520
(
1.5287937e-117
1.9412598e-109
1.340999e-117
1.4128176e-102
1.7050037e-109
1.1721762e-117
1.8337834e-96
1.2417544e-102
1.4916356e-109
1.0293404e-117
6.8164423e-91
1.6128064e-96
1.0869559e-102
1.3119709e-109
9.1689741e-118
9.4688724e-86
5.9987311e-91
1.4129054e-96
9.5739614e-103
1.1728042e-109
8.3265903e-118
5.8667926e-81
8.3363321e-86
5.2609005e-91
1.2466015e-96
8.5847308e-103
1.0706279e-109
7.6851664e-118
1.8270099e-76
5.1674864e-81
7.3186187e-86
4.6507637e-91
1.1209783e-96
7.8684728e-103
9.9237257e-110
7.1252025e-118
3.0811604e-72
1.6111705e-76
4.5419813e-81
6.4825275e-86
4.1929838e-91
1.0305673e-96
7.3098019e-103
9.1972443e-110
6.5180944e-118
2.981591e-68
2.7228922e-72
1.4188459e-76
4.0315312e-81
5.8576535e-86
3.8626357e-91
9.5798564e-97
6.7560856e-103
8.354364e-110
5.7829432e-118
1.7467787e-64
2.6430461e-68
2.4041689e-72
1.2627603e-76
3.6506285e-81
5.4019205e-86
3.5872147e-91
8.8154389e-97
6.0819882e-103
7.3232105e-110
4.9401898e-118
6.931037e-61
1.5521833e-64
2.3414489e-68
2.145815e-72
1.1462224e-76
3.3680559e-81
5.0045016e-86
3.2819534e-91
7.8578238e-97
5.2644622e-103
6.1851174e-110
4.1120589e-118
3.5201072e-57
6.0667181e-61
1.3789238e-64
2.0949518e-68
1.9522101e-72
1.0579891e-76
3.1091754e-81
4.5457218e-86
2.8954645e-91
6.7193343e-97
4.402091e-103
5.1348274e-110
3.4534861e-118
2.4314696e-52
2.6972345e-57
5.3252432e-61
1.2336399e-64
1.9087421e-68
1.8027511e-72
9.7304646e-77
2.8005616e-81
3.9670853e-86
2.4486183e-91
5.5743657e-97
3.6559495e-103
4.3690333e-110
3.0763776e-118
3.3151348e-46
1.4146349e-52
2.0870052e-57
4.682796e-61
1.1226546e-64
1.7633912e-68
1.6525458e-72
8.6897603e-77
2.4163416e-81
3.3210106e-86
2.0203891e-91
4.6461098e-97
3.1607369e-103
4.0059737e-110
3.0293038e-118
5.7612495e-40
2.0351629e-46
7.3747637e-53
1.5727748e-57
4.1989205e-61
1.0374004e-64
1.612964e-68
1.4639458e-72
7.4135733e-77
2.0040552e-81
2.7319176e-86
1.69506e-91
4.091424e-97
2.9833482e-103
4.0836802e-110
3.3115105e-118
4.6051187e-34
4.2864041e-40
8.9871149e-47
2.8532272e-53
1.2303235e-57
3.8585665e-61
9.4868407e-65
1.4189562e-68
1.235614e-72
6.0982713e-77
1.6473777e-81
2.3131934e-86
1.5226418e-91
3.971846e-97
3.1338672e-103
4.572935e-110
3.8539857e-118
1.346528e-28
4.0572011e-34
1.961897e-40
2.0293342e-47
1.0523968e-53
1.0461892e-57
3.5280198e-61
8.3011546e-65
1.1852835e-68
1.0090759e-72
5.0205051e-77
1.4115102e-81
2.1208183e-86
1.5166641e-91
4.2759313e-97
3.5643557e-103
5.3272817e-110
4.4549364e-118
1.3031303e-23
1.3460136e-28
1.9378337e-34
3.9693467e-41
3.2223554e-48
5.3676782e-54
9.282151e-58
3.0723626e-61
6.8612914e-65
9.6122793e-69
8.3342673e-73
4.3631205e-77
1.3217841e-81
2.1601952e-86
1.6624963e-91
4.8987858e-97
4.1171752e-103
6.0056884e-110
4.7719847e-118
3.7790842e-19
1.4178564e-23
6.6555605e-29
3.8272737e-35
5.4990933e-42
8.6178402e-49
3.8832859e-54
7.9268432e-58
2.5065565e-61
5.5188346e-65
7.9719899e-69
7.3564817e-73
4.1747097e-77
1.3725503e-81
2.3941585e-86
1.9026955e-91
5.5658336e-97
4.4915697e-103
6.1419906e-110
4.498146e-118
3.0371085e-15
4.3059257e-19
7.2019669e-24
1.3184602e-29
5.8041617e-36
1.7477663e-42
5.7014899e-49
2.9929039e-54
6.2534695e-58
1.9910364e-61
4.593948e-65
7.1529974e-69
7.1859009e-73
4.4070455e-77
1.5283567e-81
2.7152535e-86
2.1114794e-91
5.8423372e-97
4.3649358e-103
5.4553236e-110
3.628407e-118
6.1583243e-12
3.4711713e-15
2.3003001e-19
1.4912165e-24
2.355071e-30
2.8736456e-36
1.8297996e-42
4.4057265e-49
1.8998887e-54
4.783032e-58
1.6586338e-61
4.1913013e-65
7.126786e-69
7.6829846e-73
4.9045635e-77
1.7049581e-81
2.9242335e-86
2.1241814e-91
5.3806162e-97
3.6494825e-103
4.1321596e-110
2.5013775e-118
3.1169598e-09
6.8730161e-12
1.9419412e-15
5.465183e-20
3.3491128e-25
1.8409044e-30
4.8463813e-36
1.8568022e-42
1.5387599e-49
1.0715708e-54
3.9160004e-58
1.5377858e-61
4.2574247e-65
7.6923642e-69
8.500181e-73
5.3509148e-77
1.7707698e-81
2.8103785e-86
1.8533096e-91
4.2383448e-97
2.605256e-103
2.6997206e-110
1.5224818e-118
3.9336102e-07
3.379818e-09
4.1147165e-12
5.4850208e-16
1.7329026e-20
3.8577519e-25
4.4297966e-30
6.0582549e-36
5.3369849e-43
2.2269909e-50
7.0506594e-55
3.6638687e-58
1.5930347e-61
4.6294422e-65
8.4220145e-69
9.0255277e-73
5.3347094e-77
1.6195769e-81
2.3245037e-86
1.3803877e-91
2.8677709e-97
1.6297585e-103
1.6017586e-110
8.8670209e-119
1.1497352e-05
4.1390254e-07
2.1481768e-09
1.4268242e-12
2.3950315e-16
2.3767178e-20
1.1407052e-24
6.2283734e-30
1.705652e-36
3.1443087e-44
3.2053036e-51
6.0849627e-55
3.871254e-58
1.7446563e-61
4.9987439e-65
8.6655387e-69
8.6116278e-73
4.6316435e-77
1.2695457e-81
1.645991e-86
8.9319343e-92
1.7402924e-97
9.6125754e-104
9.6016612e-111
5.6773194e-119
6.4048901e-05
1.1846007e-05
2.815616e-07
9.0250666e-10
7.9802154e-13
3.6618511e-16
7.3665025e-20
1.6750522e-24
1.7215055e-30
7.9819226e-38
6.7905794e-46
1.1106644e-51
6.3952114e-55
4.2784919e-58
1.8545526e-61
4.9648827e-65
7.8911871e-69
7.0959258e-73
3.4428343e-77
8.5874316e-82
1.0305635e-86
5.3452317e-92
1.0440577e-97
6.1059158e-104
6.8277726e-111
4.7300745e-119
0.00013229706
6.4971279e-05
9.0181532e-06
1.4217939e-07
6.1576616e-10
1.2946657e-12
1.0919439e-15
1.0709715e-19
4.5653015e-25
7.2556386e-32
1.0018785e-39
2.0409406e-47
8.5862054e-52
7.1131324e-55
4.4777455e-58
1.7722265e-61
4.3022996e-65
6.1715011e-69
5.0201341e-73
2.2366143e-77
5.2665996e-82
6.2030565e-87
3.3428097e-92
7.2345779e-98
4.9546452e-104
6.7211671e-111
5.6865092e-119
0.00019069599
0.00013328838
5.6854552e-05
5.5734625e-06
1.1269678e-07
1.0325514e-09
3.5476608e-12
1.5190419e-15
2.9217157e-20
1.8954331e-26
7.7998055e-34
1.0853513e-41
3.4110283e-48
8.9956997e-52
7.3309069e-55
4.1044956e-58
1.4562164e-61
3.1924618e-65
4.1738411e-69
3.1607484e-73
1.3605346e-77
3.2568347e-82
4.1463472e-87
2.5884116e-92
6.8194714e-98
5.7764507e-104
9.5319486e-111
9.4271274e-119
0.00023636876
0.00019030794
0.00012267287
4.4285975e-05
4.918481e-06
1.8944059e-07
2.5318286e-09
4.6486848e-12
4.2290593e-16
1.3034095e-21
2.4081681e-28
9.1831374e-36
8.4289345e-43
2.6636866e-48
9.040252e-52
6.4222443e-55
3.1833089e-58
1.0239413e-61
2.0732102e-65
2.573861e-69
1.937275e-73
8.8162455e-78
2.3853388e-82
3.647673e-87
2.8453157e-92
9.3026096e-98
9.3881214e-104
1.7483555e-110
1.8501674e-118
0.00027389541
0.0002350105
0.00017764389
0.00010622794
4.1823146e-05
7.6852586e-06
4.0933343e-07
3.0796316e-09
1.3500664e-12
2.196452e-17
2.3981669e-23
4.8611031e-30
1.9007729e-36
1.070197e-42
2.7643028e-48
7.4087902e-52
4.6686246e-55
2.1155346e-58
6.4103309e-62
1.2662933e-65
1.6167794e-69
1.3410566e-73
7.2068568e-78
2.4114756e-82
4.6311836e-87
4.4287724e-92
1.6729589e-97
1.8311416e-103
3.5118636e-110
3.6839518e-118
0.00030536459
0.00027137539
0.00022096775
0.00016037683
0.00010311414
5.4289039e-05
1.3390029e-05
4.6111767e-07
9.5003409e-10
8.6908195e-14
6.111615e-19
9.5792619e-25
2.6426445e-30
6.0995778e-36
1.7821015e-42
1.6916742e-48
4.8746637e-52
2.9162439e-55
1.281117e-58
3.9221856e-62
8.2921059e-66
1.2165835e-69
1.2361106e-73
8.381174e-78
3.4834918e-82
7.9603242e-87
8.4933728e-92
3.3506524e-97
3.649262e-103
6.7529044e-110
6.7097665e-118
0.00033165663
0.00030149347
0.00025617879
0.00020323746
0.00015829872
0.0001201012
7.1503683e-05
1.4026016e-05
1.5635478e-07
7.886636e-11
3.7433374e-15
5.0308385e-20
1.0257654e-24
1.381775e-29
1.3849596e-35
6.6589235e-43
6.1321872e-49
2.7922778e-52
1.7107684e-55
7.9417245e-59
2.7212659e-62
6.8783182e-66
1.2687642e-69
1.6339637e-73
1.3504437e-77
6.4109468e-82
1.5721234e-86
1.6956188e-91
6.4710802e-97
6.6503939e-103
1.1469701e-109
1.0570298e-117
0.0003520235
0.00032611418
0.00028579434
0.00023818006
0.0002022247
0.00017771414
0.00014116785
7.2031078e-05
6.079779e-06
1.7390448e-08
5.4336561e-12
6.333667e-16
8.9776762e-20
6.7315328e-24
3.5112075e-29
4.9763361e-36
3.820373e-44
2.2126747e-49
1.5774522e-52
1.0857836e-55
5.9243206e-59
2.5131923e-62
8.0929104e-66
1.872073e-69
2.8554129e-73
2.5946258e-77
1.2674853e-81
3.0532098e-86
3.1174605e-91
1.1031665e-96
1.0427545e-102
1.6521961e-109
1.4027347e-117
0.00036687666
0.00034512206
0.00030984696
0.00026819886
0.00023757042
0.00022272908
0.00020037382
0.00014090081
4.6273046e-05
1.0213878e-06
1.9633456e-09
1.816113e-12
1.6247937e-15
6.3156049e-19
1.7657174e-23
1.3070258e-29
1.7176175e-37
9.2205991e-46
1.0606079e-49
1.0330727e-52
8.8178071e-56
6.1231419e-59
3.3093452e-62
1.3054256e-65
3.4512085e-69
5.5766072e-73
5.0419753e-77
2.3507226e-81
5.2719118e-86
4.9257744e-91
1.586245e-96
1.3661983e-102
1.9819526e-109
1.5510955e-117
0.00037694921
0.00035887479
0.00032875752
0.00029310504
0.00026773656
0.00025782781
0.0002446628
0.00019777228
0.00010810809
1.5526092e-05
1.9155785e-07
1.1875926e-09
5.9136716e-12
1.1041797e-14
1.626113e-18
6.8125149e-24
4.576633e-31
6.8666594e-40
8.1174753e-47
7.0597737e-50
9.2193819e-53
1.020805e-55
8.9152051e-59
5.711741e-62
2.4768708e-65
6.6988755e-69
1.0471078e-72
8.8364634e-77
3.7746233e-81
7.6735999e-86
6.4661778e-91
1.8840379e-96
1.4771733e-102
1.9661931e-109
1.4245462e-117
0.00038246485
0.00036816198
0.00034283384
0.00031324504
0.00029294812
0.00028676104
0.0002779109
0.00023987218
0.00016137574
6.0541637e-05
5.2175779e-06
1.8359313e-07
4.4027311e-09
3.6088635e-11
2.6886401e-14
6.5024598e-19
2.6288219e-25
1.6757922e-33
1.534419e-42
3.8202721e-47
6.947091e-50
1.1924327e-52
1.6207025e-55
1.6127624e-58
1.0920191e-61
4.6922206e-65
1.1994227e-68
1.7184957e-72
1.3084715e-76
5.0303902e-81
9.1827062e-86
6.9474038e-91
1.8328274e-96
1.3124614e-102
1.6109123e-109
1.0872844e-117
0.00038415872
0.00037344892
0.0003528766
0.00032897129
0.00031349969
0.00031038584
0.00030413547
0.00027142984
0.00020258472
0.00011114414
3.539419e-05
6.5649423e-06
6.9237499e-07
2.2859628e-08
8.0510916e-11
1.1163699e-14
2.8972905e-20
1.2239892e-27
2.1509338e-36
4.0291702e-44
3.9052692e-47
9.9833324e-50
2.0363838e-52
3.0181212e-55
3.0521096e-58
1.9901943e-61
7.9263759e-65
1.8294816e-68
2.3372947e-72
1.5842332e-76
5.4507955e-81
8.9234698e-86
6.0749412e-91
1.4567937e-96
9.5804332e-103
1.0915098e-109
6.9149126e-118
0.00038335364
0.00037570218
0.00035942346
0.0003410307
0.0003297741
0.00032930366
0.00032488044
0.00029637355
0.00023445531
0.00015336497
8.4780849e-05
4.5862783e-05
1.9204159e-05
2.7987888e-06
4.5510851e-08
3.4760525e-11
5.9689821e-16
1.9038489e-22
2.4103916e-30
3.0670856e-39
1.9145382e-44
6.1488435e-47
1.8144929e-49
3.8470093e-52
5.574496e-55
5.2883606e-58
3.145399e-61
1.1184274e-64
2.280268e-68
2.5713954e-72
1.5463337e-76
4.7641565e-81
7.0106198e-86
4.3168273e-91
9.4657867e-97
5.7562049e-103
6.1349954e-110
3.6794096e-118
0.00038066075
0.00037596867
0.00036352333
0.00034985685
0.00034259173
0.00034395582
0.00034091926
0.00031600357
0.00026174949
0.00018690768
0.00012982584
0.00010383338
8.3539652e-05
4.4050844e-05
4.7082051e-06
2.0563085e-08
2.3032731e-12
5.7527043e-18
5.9740165e-25
3.1221744e-33
3.4642523e-41
2.9386446e-44
1.1827937e-46
3.4423647e-49
6.8593683e-52
9.0964073e-55
7.7640638e-58
4.091138e-61
1.2748241e-64
2.2787493e-68
2.2635379e-72
1.2098396e-76
3.3498896e-81
4.4505965e-86
2.4953979e-91
5.0396385e-97
2.8564466e-103
2.8733305e-110
1.6470934e-118
0.00037619526
0.00037491586
0.00036674078
0.00035630148
0.00035217968
0.00035523964
0.00035276969
0.00033114841
0.00028404448
0.00021718995
0.0001663748
0.00015358883
0.00015137262
0.00012367666
5.5931353e-05
2.3703693e-06
1.7364931e-09
3.3011748e-14
2.7795977e-20
1.1600137e-27
4.5017796e-36
1.5873749e-41
5.9618196e-44
2.2440298e-46
5.8751369e-49
1.0458603e-51
1.2326318e-54
9.2842803e-58
4.2575554e-61
1.1563571e-64
1.8104548e-68
1.5874859e-72
7.5761225e-77
1.895198e-81
2.2869691e-86
1.1769389e-91
2.207154e-97
1.1768058e-103
1.1285656e-110
6.2507589e-119
0.00037353331
0.00037434954
0.0003694664
0.00036152765
0.00035901778
0.00036320512
0.00036115324
0.00034218136
0.00030225831
0.00024323822
0.00019685118
0.00019292912
0.00020535289
0.00019482758
0.00013713051
3.8180303e-05
2.7630942e-07
3.7004351e-11
2.3780377e-16
8.3774733e-23
2.208555e-30
1.590071e-37
3.484224e-41
1.1414014e-43
3.6451162e-46
8.3032535e-49
1.3000607e-51
1.3498509e-54
8.8107476e-58
3.5028959e-61
8.2916803e-65
1.1398569e-68
8.8629184e-73
3.8010036e-77
8.6457095e-82
9.547813e-87
4.5514161e-92
8.0033526e-98
4.0582368e-104
3.754747e-111
2.0347981e-119
0.00037172231
0.00037557863
0.00037598108
0.00036554021
0.00036400245
0.00036833018
0.0003662571
0.00034975739
0.0003167456
0.00026545994
0.0002233203
0.00022322523
0.00024524808
0.00024983053
0.00020662404
0.00011123328
9.1501453e-06
8.7437691e-09
3.8897103e-13
1.1341391e-18
3.5996593e-25
1.4503414e-31
8.6124254e-37
8.4601443e-41
1.7627491e-43
4.7328669e-46
9.3907291e-49
1.2948471e-51
1.1669196e-54
6.5719172e-58
2.2664734e-61
4.6888225e-65
5.6855921e-69
3.9456041e-73
1.5330544e-77
3.1959025e-82
3.2617088e-87
1.4563259e-92
2.4315928e-98
1.189006e-104
1.0772291e-111
5.8000982e-120
0.00036837155
0.00037637178
0.0003768717
0.0003764988
0.00036696509
0.00037124793
0.00036869911
0.00035432092
0.00032804967
0.00028433516
0.00024605894
0.00024750383
0.00027435089
0.00028709729
0.00025827272
0.00017562976
5.3840219e-05
5.0396681e-07
1.3331308e-10
3.1351459e-15
1.4695982e-20
1.226561e-25
2.2995361e-30
7.8345775e-36
1.3447051e-40
2.0643944e-43
4.8161659e-46
8.4431313e-49
1.0185224e-51
7.8872467e-55
3.8368748e-58
1.1514393e-61
2.0920877e-65
2.2526636e-69
1.4077384e-73
5.0091368e-78
9.6761369e-83
9.2554e-88
3.9315155e-93
6.346999e-99
3.0524044e-105
2.7637238e-112
1.5082841e-120
0.00036776077
0.00037152176
0.00037907851
0.00037645497
0.00037574279
0.0003719182
0.00036891354
0.00035655235
0.00033666633
0.00030031106
0.00026554723
0.00026779988
0.00029511673
0.00031116476
0.00029131228
0.00022354517
0.00011029154
7.7086247e-06
1.1632908e-08
2.0778365e-12
1.5686182e-16
2.1473724e-20
2.7803277e-24
3.2632929e-29
1.8068275e-35
1.147248e-40
1.8421392e-43
3.8644821e-46
6.0202901e-49
6.234285e-52
4.1551802e-55
1.752206e-58
4.600809e-62
7.3976877e-66
7.1457129e-70
4.0766136e-74
1.3504287e-78
2.4621412e-83
2.2598637e-88
9.3749296e-94
1.5078507e-99
7.3582809e-106
6.863355e-113
3.900589e-121
0.00037030029
0.00036647864
0.00037440107
0.00037954078
0.00037446647
0.0003728819
0.00036720915
0.00035706847
0.00034327668
0.00031368559
0.00028221538
0.00028467997
0.00031164375
0.0003280573
0.00031221034
0.00025647081
0.00015599895
3.4933898e-05
3.2476364e-07
4.1942363e-10
4.4533307e-13
6.4973802e-16
5.0649403e-19
3.7038055e-23
8.3145288e-29
6.108396e-36
6.5520736e-41
1.2908138e-43
2.4762303e-46
3.3336651e-49
2.963585e-52
1.7073178e-55
6.2820327e-59
1.4569543e-62
2.1007954e-66
1.8541672e-70
9.9012467e-75
3.1482961e-79
5.6205398e-84
5.1754721e-89
2.2046744e-94
3.7243201e-100
1.9399663e-106
1.9474055e-113
1.1910615e-121
0.0003638617
0.00036585436
0.00036626542
0.00037594023
0.00037790808
0.00037034882
0.0003664064
0.00035648742
0.00034863695
0.00032493044
0.00029640567
0.00029869557
0.00032444322
0.00034042889
0.0003270709
0.00028073352
0.00019081875
7.2708987e-05
3.5954327e-06
3.0802485e-08
3.2939361e-10
3.3929452e-12
1.3554274e-14
5.8121805e-18
9.1102625e-23
2.4635014e-29
3.581059e-37
3.3882342e-41
7.3118662e-44
1.2373407e-46
1.4296917e-49
1.0970737e-52
5.5098609e-56
1.7920485e-59
3.742209e-63
4.9752692e-67
4.1737081e-71
2.1999065e-75
7.1628136e-80
1.3521722e-84
1.3603575e-89
6.4967014e-95
1.2492621e-100
7.4132116e-107
8.3732532e-114
5.6343371e-122
0.0003557314
0.00035888371
0.00036148353
0.00036599785
0.00037553771
0.000373999
0.00036259328
0.00035560476
0.00035287231
0.00033482318
0.00030849703
0.00031015753
0.00033440406
0.00034853605
0.00033686565
0.00029874701
0.00022423195
0.00010703053
1.7536167e-05
8.8095009e-07
6.1105807e-08
3.2312094e-09
5.6992723e-11
1.2872473e-13
1.3340343e-17
2.9121602e-23
6.6996901e-31
1.649409e-38
1.6155778e-41
3.2727026e-44
4.7849366e-47
4.7776135e-50
3.2032451e-53
1.4298705e-56
4.2360795e-60
8.3334803e-64
1.0907818e-67
9.5165401e-72
5.5419025e-76
2.0959395e-80
4.774017e-85
5.9249843e-90
3.4998422e-95
8.1779102e-101
5.7051439e-107
7.2690505e-114
5.279565e-122
0.00035736665
0.00035373156
0.00035271837
0.00035675545
0.00036458662
0.00037281535
0.00036657522
0.00035074972
0.00034019793
0.0003434784
0.00031881677
0.00031937856
0.00034162109
0.00035374795
0.00034221315
0.00031138129
0.00025060597
0.00014558355
4.431337e-05
9.1202962e-06
2.7875996e-06
5.9434524e-07
4.1057204e-08
4.3202121e-10
2.7005434e-13
4.5877343e-18
9.8570054e-25
1.7728491e-33
3.1047326e-39
6.3637697e-42
1.1391287e-44
1.447501e-47
1.2722951e-50
7.6847147e-54
3.2018858e-57
9.3157083e-61
1.9254064e-64
2.8702242e-68
3.1001821e-72
2.3841854e-76
1.2222729e-80
3.7594535e-85
6.0981889e-90
4.4883411e-95
1.2368389e-100
9.6451117e-107
1.309411e-113
9.7193934e-122
0.00035155213
0.00035937097
0.00035022047
0.00034602036
0.00035114739
0.00036127117
0.00036702156
0.00035512932
0.00033464779
0.00031938683
0.00032762804
0.00032670506
0.00034653245
0.00035601362
0.00034408813
0.0003192938
0.00027184246
0.00017930674
7.8983223e-05
3.582793e-05
2.7219787e-05
1.816129e-05
4.9759165e-06
2.3801301e-07
8.1416566e-10
9.9211476e-14
2.0405691e-19
3.0945289e-27
4.1386631e-36
9.5634127e-40
1.9810373e-42
3.1322789e-45
3.559967e-48
2.8946344e-51
1.7071187e-54
7.5060617e-58
2.5453472e-61
6.828236e-65
1.4458944e-68
2.3221795e-72
2.6170377e-76
1.8544807e-80
7.3353571e-85
1.4223604e-89
1.1763051e-94
3.4659396e-100
2.7822652e-106
3.7773252e-113
2.7398738e-121
0.00033521854
0.00035748411
0.00035928148
0.00034501585
0.00033809
0.00034404895
0.0003553736
0.00035744383
0.00033958706
0.00031350714
0.00029305429
0.00033215517
0.00034941729
0.00035603398
0.00034307299
0.00032346373
0.00028845713
0.00020905955
0.00011343139
6.8343984e-05
7.7224108e-05
8.133507e-05
6.0656275e-05
1.7346233e-05
3.9478917e-07
3.1982647e-10
5.7794827e-15
1.0843384e-21
1.8250493e-30
1.693613e-37
2.6015799e-40
4.9751956e-43
7.2509031e-46
7.9876022e-49
6.8351874e-52
4.7515091e-55
2.8028035e-58
1.4265508e-61
6.0752456e-65
2.0063408e-68
4.6570359e-72
6.8521133e-76
5.7815516e-80
2.5322341e-84
5.1647e-89
4.3407159e-94
1.2703186e-99
9.9757636e-106
1.311059e-112
9.1299027e-121
0.00033596767
0.00034137801
0.00036127703
0.00035707175
0.00033781211
0.00032851551
0.00033485053
0.00034623168
0.00034383457
0.00031911971
0.0002871493
0.00026118257
0.00035026047
0.00035386596
0.00033980148
0.00032487291
0.00030104956
0.00023520311
0.0001451034
0.00010065162
0.00011887569
0.00014731694
0.00014516202
0.00010148942
2.30816e-05
1.6873515e-07
2.4570334e-11
5.1494799e-17
1.1660686e-24
1.3697293e-33
2.8172901e-38
5.9835736e-41
1.1145863e-43
1.69826e-46
2.203425e-49
2.5725147e-52
2.7899341e-55
2.7494824e-58
2.2852421e-61
1.4465047e-64
6.2997895e-68
1.7299653e-71
2.7750999e-75
2.4213626e-79
1.0575636e-83
2.1109881e-88
1.7181541e-93
4.8428383e-99
3.6536015e-105
4.6078372e-112
3.0764696e-120
0.00034909461
0.00033822447
0.00034637573
0.0003629768
0.00035269655
0.00032872188
0.00031682362
0.00032322065
0.00033339432
0.00032547612
0.00029344946
0.00025565597
0.00022435039
0.00034962394
0.00033457355
0.00032441943
0.00031047811
0.00025783898
0.00017399694
0.0001298987
0.00015095335
0.00019724143
0.00021485613
0.00019018963
0.00011182442
1.2860925e-05
1.7523681e-08
3.6302768e-13
1.1221152e-19
7.0947171e-28
7.9628617e-36
5.6843211e-39
1.3467241e-41
2.94106e-44
6.1266856e-47
1.2691384e-49
2.5825621e-52
4.7772952e-55
7.1981874e-58
7.9618633e-61
5.9343794e-64
2.7858819e-67
7.7903169e-71
1.2310602e-74
1.0383708e-78
4.3373221e-83
8.2586323e-88
6.4140703e-93
1.7284013e-98
1.2498937e-104
1.5150317e-111
1.0333697e-128
0.0003432215
0.00034572455
0.0003389586
0.00035001522
0.00036256089
0.00034627688
0.00031734207
0.00030263786
0.00030870322
0.00031615494
0.0003019738
0.00026278796
0.00021921333
0.00017966389
0.0003276841
0.00032259469
0.00031779327
0.00027716813
0.00020046112
0.00015605432
0.00017789169
0.00022947061
0.0002662983
0.00025722423
0.00019961703
8.7084322e-05
2.2633791e-06
4.3084615e-10
1.5463102e-15
1.2727781e-22
3.4176448e-31
5.3393134e-37
1.3389337e-39
4.3854667e-42
1.5495497e-44
5.8331751e-47
2.1622642e-49
6.9943676e-52
1.7548665e-54
3.1214558e-57
3.6966761e-60
2.7766643e-63
1.2694112e-66
3.3961763e-70
5.0964208e-74
4.0631129e-78
1.6051246e-82
2.9009895e-87
2.1478728e-92
5.5430337e-98
3.8561822e-104
7.4793471e-120
1.5742882e-138
0.00031938327
0.00033451247
0.00034004764
0.00033858136
0.00035206706
0.00035997631
0.00033747032
0.00030324167
0.00028559222
0.0002903153
0.00029412817
0.00027320025
0.00022642562
0.00017470545
0.00012372185
0.00031979477
0.00032387179
0.0002938371
0.00022467079
0.00017974893
0.00020079066
0.00025570836
0.00029790916
0.00030228243
0.00026325024
0.00017192714
3.8578169e-05
9.8798932e-08
3.4707806e-12
3.305545e-18
7.936659e-26
4.5636963e-34
1.1709351e-37
5.8936235e-40
3.6462843e-42
2.4449899e-44
1.5455549e-46
8.0502982e-49
3.1188118e-51
8.3814805e-54
1.4933046e-56
1.7074901e-59
1.2157086e-62
5.2281717e-66
1.313725e-69
1.8553079e-73
1.3918179e-77
5.2023858e-82
8.948005e-87
6.3412977e-92
1.5751316e-97
2.9043181e-112
1.6692912e-129
8.7162475e-150
0.00031614355
0.00030981229
0.00032368659
0.0003329118
0.0003374668
0.00035221422
0.00035504824
0.00032589129
0.0002861566
0.00026508373
0.00026751274
0.00026680549
0.00023782026
0.00018142942
0.00011853792
5.7822545e-05
0.000329352
0.00030869081
0.00024687842
0.00020148268
0.00022082833
0.00027694001
0.00032290804
0.00033151802
0.00030192576
0.00023619806
0.00011400997
4.797981e-06
1.4626931e-09
1.3438613e-14
3.6572903e-21
3.2584008e-29
1.416887e-35
7.33092e-38
7.8936575e-40
8.9226113e-42
8.9017725e-44
6.940346e-46
3.9106297e-48
1.5157571e-50
3.9087814e-53
6.5503773e-56
6.9870196e-59
4.6326762e-62
1.8591047e-65
4.3773517e-69
5.8151808e-73
4.1185632e-77
1.4632402e-81
2.4079971e-86
1.643092e-91
1.8436782e-105
1.0309966e-121
1.1543588e-140
1.9358858e-162
0.00033387113
0.00031122291
0.00029871861
0.00031142672
0.00032568465
0.00033509958
0.00035012186
0.00034723489
0.00031138717
0.00026543797
0.00024037922
0.0002395759
0.00023293321
0.00019318736
0.00012386063
5.4207562e-05
9.4466828e-06
0.00032301682
0.00026726094
0.00022155077
0.00023856376
0.00029489409
0.00034222535
0.0003528524
0.00032743796
0.00027597363
0.00018070626
4.1759094e-05
1.406208e-07
9.8478452e-12
2.589821e-17
2.1796124e-24
2.677292e-32
8.7473794e-36
1.5202121e-37
2.7017432e-39
3.9642892e-41
4.3672352e-43
3.4220304e-45
1.8442742e-47
6.6778796e-50
1.5937016e-52
2.4669826e-55
2.435099e-58
1.5001875e-61
5.6242438e-65
1.244961e-68
1.5607507e-72
1.0495151e-76
3.5661231e-81
5.6518476e-86
3.0173674e-99
1.0805471e-114
1.077971e-132
2.1921171e-153
3.6470665e-176
0.00033617322
0.0003364669
0.00030478526
0.00028629388
0.00029825895
0.00031655028
0.00033085411
0.00034516784
0.00033654017
0.00029313356
0.00024051951
0.00021107368
0.00020624192
0.00019001899
0.00013503869
5.8401198e-05
8.3058045e-06
3.0521018e-07
0.0002862027
0.00024014544
0.00025414061
0.00030996585
0.00035808258
0.00036789106
0.00034384667
0.00030208334
0.00023228876
0.00010219118
3.6074462e-06
1.5996694e-09
3.1785103e-14
2.5673606e-20
8.6523072e-28
1.4574487e-33
2.5092511e-35
6.5485191e-37
1.3350637e-38
1.9885209e-40
2.0930786e-42
1.523518e-44
7.5402263e-47
2.5002281e-49
5.4745737e-52
7.807702e-55
7.1380609e-58
4.0983455e-61
1.441743e-64
3.0161186e-68
3.5859259e-72
2.3049462e-76
7.5431474e-81
1.6370296e-93
2.9699645e-108
1.8828394e-125
2.3916942e-145
2.4977463e-167
1.2701593e-190
0.00030369822
0.000346858
0.00033665668
0.00029681881
0.00027240256
0.00028306064
0.00030546025
0.00032394237
0.00033699142
0.00032200895
0.00027051169
0.00021079448
0.00017685692
0.00016438219
0.00013382574
6.6969723e-05
9.5530778e-06
2.4723839e-07
2.4073607e-09
0.00025739672
0.00026762634
0.00032192049
0.00037065266
0.00037869405
0.00035292007
0.00031679589
0.00026715008
0.00016615035
2.5553665e-05
7.2515446e-08
8.3423685e-12
5.12519e-17
1.4001917e-23
1.3924388e-30
3.5293857e-33
1.2450108e-34
3.3763538e-36
6.5698917e-38
9.0296281e-40
8.6579546e-42
5.7210601e-44
2.5739109e-46
7.7896216e-49
1.5656246e-51
2.0626376e-54
1.7536781e-57
9.4313852e-61
3.1315524e-64
6.2226875e-68
7.066738e-72
4.3742617e-76
3.4562312e-88
2.7278028e-102
9.0318609e-119
6.0838851e-138
2.0214871e-159
5.3523768e-182
1.1508546e-205
0.00027335539
0.00031944196
0.00035435814
0.00033464242
0.00028709476
0.00025684228
0.00026585662
0.00029158728
0.00031364243
0.00032484239
0.00030288436
0.00024201694
0.00017514307
0.00013446282
0.00011059873
6.6159846e-05
1.2523438e-05
2.9151702e-07
1.7541594e-09
4.8412357e-12
0.00027886893
0.00033046036
0.00037925345
0.0003854661
0.00035616727
0.00032298456
0.00028832719
0.00021528399
8.1747957e-05
1.1640775e-06
5.9117645e-10
2.1120451e-14
4.33993e-20
7.3208219e-27
4.9531711e-31
1.852743e-32
6.4362514e-34
1.5908869e-35
2.7850053e-37
3.4380307e-39
2.9675949e-41
1.7725019e-43
7.2468193e-46
2.0058008e-48
3.7137671e-51
4.5409163e-54
3.6102451e-57
1.8298999e-60
5.7740134e-64
1.0961649e-67
1.1983511e-71
3.1735621e-83
9.7825503e-97
1.480654e-112
4.7998614e-131
5.1957139e-152
2.382601e-174
3.747272e-197
3.2533961e-221
0.00028812481
0.00028773418
0.00033283746
0.00035890032
0.00033033286
0.00027557182
0.00023937494
0.0002459554
0.00027428372
0.00029920355
0.00030801809
0.00027782665
0.00020620902
0.00013058726
8.1592951e-05
4.7727961e-05
1.2260914e-05
4.2620977e-07
2.0425877e-09
3.0699298e-12
2.484604e-15
0.00033507915
0.00038283568
0.0003875407
0.00035406997
0.00032209071
0.00029895938
0.00025177582
0.00013903659
1.4805526e-05
1.46093e-08
2.2609458e-12
2.7410674e-17
2.421118e-23
1.1578263e-28
2.2208632e-30
9.4374877e-32
2.8683691e-33
6.2440119e-35
9.7067358e-37
1.0713707e-38
8.3191776e-41
4.4979908e-43
1.6760722e-45
4.2599046e-48
7.3017369e-51
8.3340005e-54
6.2363576e-57
2.9999046e-60
9.0599148e-64
1.6547026e-67
1.3755565e-78
1.5268132e-91
9.5865352e-107
1.3793368e-124
5.2397354e-145
3.9873839e-167
9.8677997e-190
9.8109614e-213
3.373161e-237
0.00033593401
0.00029538482
0.00030091614
0.00034365566
0.00036059225
0.00032376406
0.00026191131
0.00021961863
0.00022303714
0.00025302957
0.00028016782
0.00028577132
0.00024426292
0.00015924512
7.578343e-05
2.6733304e-05
6.4773442e-06
4.2564052e-07
3.2089235e-09
3.4517973e-12
1.3159578e-15
3.4047536e-19
0.0003805307
0.0003835518
0.00034662431
0.00031523084
0.00030192804
0.00027633626
0.00019070674
5.5545885e-05
5.1309221e-07
8.0085274e-11
4.3761758e-15
2.1983588e-20
6.3419279e-26
2.3825736e-28
1.1137451e-29
4.0147616e-31
1.0416204e-32
1.9857163e-34
2.742804e-36
2.7115874e-38
1.8990425e-40
9.3260828e-43
3.1807004e-45
7.4608391e-48
1.1907924e-50
1.2770831e-53
9.0604006e-57
4.1687423e-60
1.2131421e-63
2.9975508e-74
1.1231787e-86
2.7170231e-101
1.6228959e-118
2.2155868e-138
3.5035179e-160
8.5476066e-183
1.9533214e-205
1.0253109e-228
2.3991965e-253
0.00037209337
0.00033305531
0.00030150487
0.00031299622
0.00035171273
0.00035942426
0.00031459128
0.00024577117
0.00019717226
0.00019680414
0.00022729898
0.00025549073
0.0002552656
0.00019631298
9.9951154e-05
2.1998149e-05
2.2768292e-06
1.8003518e-07
3.3328632e-09
5.8241724e-12
1.4008377e-15
1.504629e-19
1.347129e-23
0.00037284548
0.0003337399
0.00030337983
0.00029913236
0.0002923804
0.00023404688
0.00010825473
6.1254016e-06
6.1996793e-09
2.2921645e-13
6.4342277e-18
7.3719481e-23
4.4236662e-26
1.2059558e-27
4.6710957e-29
1.392084e-30
3.0486565e-32
5.0784012e-34
6.2567635e-36
5.559562e-38
3.5244994e-40
1.5788546e-42
4.9533706e-45
1.07859e-47
1.6135407e-50
1.6378563e-53
1.1105408e-56
4.9308678e-60
3.4533341e-70
4.1399798e-82
3.6381011e-96
8.5501922e-113
4.168528e-132
1.6269629e-153
4.4677684e-176
9.8115604e-199
1.8566946e-221
7.6226813e-245
1.5405616e-269
0.00035524757
0.00035796209
0.00032799997
0.0003070052
0.00032328532
0.00035672977
0.00035527767
0.00030249011
0.00022667172
0.00017163951
0.00016698515
0.00019614905
0.00022487816
0.00021012587
0.00013378342
3.5350164e-05
1.4927125e-06
4.4451783e-08
1.2558258e-09
6.3223577e-12
2.5069088e-15
1.407922e-19
5.0869214e-24
1.691112e-28
0.00031575589
0.00028751369
0.00029224199
0.00030270421
0.00026938305
0.00016043366
3.0480688e-05
1.5226749e-07
4.0023708e-11
1.1861465e-15
2.8718094e-19
1.8530319e-22
4.3673835e-25
5.9441928e-27
1.6028465e-28
3.8065239e-30
7.0685659e-32
1.0426328e-33
1.1507312e-35
9.2252493e-38
5.316299e-40
2.1831091e-42
6.3367989e-45
1.2893666e-47
1.8211215e-50
1.7636281e-53
1.1527467e-56
2.1919027e-66
8.025799e-78
2.4400633e-91
2.161492e-107
3.7121538e-126
3.8659635e-147
1.626618e-169
2.5572731e-192
6.9810802e-215
1.3831167e-237
5.1702534e-261
8.8921408e-286
0.00029339797
0.0003317794
0.00034046002
0.00032208337
0.00031159165
0.00033118776
0.00035848927
0.00034776082
0.00028714394
0.00020398938
0.00014279364
0.00013350501
0.00016361905
0.00018237496
0.00014799289
6.0567185e-05
2.8883318e-06
2.2056871e-08
2.2919858e-10
2.1863223e-12
2.8048873e-15
2.5321941e-19
3.9930997e-24
5.6058648e-29
7.0776856e-34
0.00026860319
0.00028257439
0.00030948044
0.00029911197
0.00021022447
7.4661196e-05
1.8731538e-06
1.8910373e-09
6.1753228e-13
1.673448e-15
7.1756749e-18
9.903302e-21
8.7919022e-24
2.6820291e-26
4.1267014e-28
7.950676e-30
1.2929445e-31
1.7180672e-33
1.7055229e-35
1.2386183e-37
6.5196339e-40
2.4679758e-42
6.67107e-45
1.2777065e-47
1.7176075e-50
1.6007839e-53
7.937435e-63
8.5117311e-74
8.5831907e-87
2.7665505e-102
1.6547707e-120
4.7241542e-141
3.8006302e-163
5.2020766e-186
1.0478065e-208
4.7238892e-231
9.7630726e-254
3.1522413e-277
4.6203108e-302
0.0002476222