/*--------------------------------*- C++ -*----------------------------------*\
| =========                 |                                                 |
| \\      /  F ield         | OpenFOAM: The Open Source CFD Toolbox           |
|  \\    /   O peration     | Version:  5.0                                   |
|   \\  /    A nd           | Web:      www.OpenFOAM.org                      |
|    \\/     M anipulation  |                                                 |
\*---------------------------------------------------------------------------*/
FoamFile
{
    version     2.0;
    format      ascii;
    class       volScalarField;
    location    "260";
    object      nuTilda_0;
}
// * * * * * * * * * * * * * * * * * * * * * * * * * * * * * * * * * * * * * //

dimensions      [0 2 -1 0 0 0 0];

internalField   nonuniform List<scalar> 
9520
(
4.8365141e-33
5.1341276e-31
4.6806911e-33
2.6666608e-29
4.9703255e-31
4.5258688e-33
9.0008545e-28
2.5820391e-29
4.8069478e-31
4.3811034e-33
2.2224738e-26
8.7166476e-28
2.4975044e-29
4.6550367e-31
4.2560477e-33
4.2906418e-25
2.1526258e-26
8.4329721e-28
2.4194298e-29
4.5261544e-31
4.1545822e-33
6.7693723e-24
4.1562062e-25
2.083129e-26
8.1727828e-28
2.3542451e-29
4.4240234e-31
4.0721274e-33
8.9925714e-23
6.5580198e-24
4.0230641e-25
2.0198401e-26
7.9582374e-28
2.3034494e-29
4.3408823e-31
3.9960053e-33
1.0247726e-21
8.7144029e-23
6.3497909e-24
3.9027423e-25
1.9680974e-26
7.792461e-28
2.2614574e-29
4.2594051e-31
3.908378e-33
1.0163908e-20
9.9359396e-22
8.4417055e-23
6.1630993e-24
3.8049184e-25
1.9280891e-26
7.6516598e-28
2.217517e-29
4.1587016e-31
3.7936115e-33
8.892156e-20
9.8622506e-21
9.6313239e-22
8.1989808e-23
6.0118114e-24
3.7285906e-25
1.8928236e-26
7.4948536e-28
2.1602461e-29
4.0244225e-31
3.6474421e-33
7.0573789e-19
8.6334237e-20
9.5678519e-21
9.361084e-22
8.0025796e-23
5.8918906e-24
3.6581936e-25
1.8513742e-26
7.283307e-28
2.0838983e-29
3.8582712e-31
3.4838892e-33
5.9573939e-18
6.8262124e-19
8.3816079e-20
9.305097e-21
9.1420624e-22
7.8439129e-23
5.7755602e-24
3.5716645e-25
1.7944944e-26
7.004488e-28
1.992825e-29
3.6827006e-31
3.3346461e-33
9.6553483e-17
5.5736104e-18
6.6073536e-19
8.1512752e-20
9.0907499e-21
8.9618784e-22
7.6819734e-23
5.6271697e-24
3.4525362e-25
1.720991e-26
6.6849403e-28
1.9022414e-29
3.5362846e-31
3.2387228e-33
3.2984218e-15
8.4323497e-17
5.2279443e-18
6.3982353e-19
7.9611455e-20
8.9126014e-21
8.7696831e-22
7.468601e-23
5.4239583e-24
3.3026771e-25
1.6402034e-26
6.3865281e-28
1.8338415e-29
3.4593701e-31
3.2252487e-33
1.1974105e-13
2.9200107e-15
7.1690202e-17
4.871227e-18
6.2258872e-19
7.805573e-20
8.7167903e-21
8.5089575e-22
7.1785867e-23
5.1763451e-24
3.1451581e-25
1.5695066e-26
6.1851072e-28
1.8069934e-29
3.47503e-31
3.297221e-33
3.5800235e-12
1.1124723e-13
2.3827707e-15
5.6564485e-17
4.5808298e-18
6.0956877e-19
7.6336721e-20
8.4429493e-21
8.1565588e-22
6.8366368e-23
4.9284113e-24
3.016426e-25
1.5275448e-26
6.1375554e-28
1.828918e-29
3.574294e-31
3.4247746e-33
8.324667e-11
3.4704116e-12
9.1619894e-14
1.6439576e-15
4.4070256e-17
4.3985529e-18
5.9612068e-19
7.3840104e-20
8.0722674e-21
7.7538116e-22
6.5114251e-23
4.740584e-24
2.9507975e-25
1.525612e-26
6.2505889e-28
1.8886392e-29
3.7138094e-31
3.5520978e-33
1.468301e-09
8.330076e-11
2.8892147e-12
6.1505663e-14
1.0372005e-15
3.7219246e-17
4.2691322e-18
5.7594339e-19
7.0411841e-20
7.6600879e-21
7.3906965e-22
6.2853676e-23
4.6620344e-24
2.9636539e-25
1.5608218e-26
6.4669393e-28
1.9583553e-29
3.8281287e-31
3.6153735e-33
1.9162206e-08
1.500913e-09
6.9960457e-11
1.9278072e-12
3.7486154e-14
7.4434518e-16
3.4313461e-17
4.1046277e-18
5.4741884e-19
6.6678029e-20
7.3086827e-21
7.1617722e-22
6.2146535e-23
4.7051784e-24
3.0406135e-25
1.6145486e-26
6.6785119e-28
2.0022649e-29
3.8516513e-31
3.5644174e-33
1.8145385e-07
1.9815612e-08
1.2690865e-09
4.6710273e-11
1.2011195e-12
2.8060577e-14
6.703376e-16
3.2159607e-17
3.8688902e-18
5.1675823e-19
6.3675644e-20
7.111282e-21
7.1180343e-22
6.2983553e-23
4.8333471e-24
3.1383493e-25
1.6576918e-26
6.7631165e-28
1.9890898e-29
3.7413759e-31
3.3800105e-33
1.217825e-06
1.8778072e-07
1.6965955e-08
8.5659408e-10
3.0300905e-11
1.0040051e-12
2.8342326e-14
6.2902412e-16
2.8722415e-17
3.6178328e-18
4.9356635e-19
6.2213867e-20
7.1030771e-21
7.2372803e-22
6.4694569e-23
4.968489e-24
3.1983279e-25
1.6610207e-26
6.6291037e-28
1.9031462e-29
3.4923287e-31
3.0814044e-33
5.777857e-06
1.2526796e-06
1.626143e-07
1.1848926e-08
5.881606e-10
2.8388529e-11
1.1430997e-12
2.849297e-14
4.8461981e-16
2.4894779e-17
3.4403737e-18
4.8417096e-19
6.2444713e-20
7.2396181e-21
7.4234583e-22
6.6138678e-23
5.0179583e-24
3.1684177e-25
1.606251e-26
6.2487229e-28
1.7502409e-29
3.1410359e-31
2.7223106e-33
1.9464056e-05
5.8999762e-06
1.1030897e-06
1.1854851e-07
8.8675829e-09
6.072513e-10
3.5346652e-11
1.2113901e-12
2.0928965e-14
2.9934337e-16
2.2412727e-17
3.3824791e-18
4.8837274e-19
6.3766692e-20
7.4069444e-21
7.538275e-22
6.6120021e-23
4.9099183e-24
3.0232849e-25
1.4929862e-26
5.669768e-28
1.556977e-29
2.7567891e-31
2.3774733e-33
4.8201346e-05
1.9728656e-05
5.2723804e-06
8.4628042e-07
9.6126591e-08
9.5689488e-09
7.9643587e-10
3.8591101e-11
8.8557687e-13
1.0339191e-14
1.8428765e-16
2.1592629e-17
3.4287933e-18
4.9963254e-19
6.5018821e-20
7.4629414e-21
7.4540826e-22
6.3859888e-23
4.6224295e-24
2.7746459e-25
1.3394749e-26
5.0047214e-28
1.3641786e-29
2.4242696e-31
2.1245166e-33
9.2730376e-05
4.867097e-05
1.7905337e-05
4.2428938e-06
7.3026222e-07
1.0664821e-07
1.2700958e-08
8.7922633e-10
2.8088075e-11
4.1317746e-13
3.9662617e-15
1.4120376e-16
2.1858574e-17
3.5160442e-18
5.0748546e-19
6.4937766e-20
7.2941468e-21
7.1057668e-22
5.9325357e-23
4.1936596e-24
2.4686321e-25
1.1780155e-26
4.4025131e-28
1.2167546e-29
2.2232186e-31
2.0263728e-33
0.00014707437
9.3497772e-05
4.4875541e-05
1.5062953e-05
3.8488836e-06
8.2273506e-07
1.4020563e-07
1.3987041e-08
6.3773283e-10
1.2768523e-11
1.384574e-13
1.6477989e-15
1.3230984e-16
2.2451587e-17
3.557687e-18
5.0200768e-19
6.2687208e-20
6.8629974e-21
6.5197373e-22
5.3276226e-23
3.7113142e-24
2.1737315e-25
1.0467975e-26
4.0119014e-28
1.1530207e-29
2.210632e-31
2.1182718e-33
0.00019922183
0.00014808834
8.7481103e-05
3.9072692e-05
1.4184745e-05
4.3743041e-06
1.0590258e-06
1.5270163e-07
1.0146989e-08
2.888032e-10
4.1157357e-12
4.454789e-14
1.0497206e-15
1.3386515e-16
2.2632175e-17
3.4830331e-18
4.7821692e-19
5.821012e-20
6.2260209e-21
5.8085666e-22
4.7043522e-23
3.2893258e-24
1.9635098e-25
9.805521e-27
3.9464466e-28
1.1961231e-29
2.4089859e-31
2.4011392e-33
0.00024222067
0.00019910231
0.00013926088
7.7906742e-05
3.767936e-05
1.6151526e-05
5.4769663e-06
1.1361298e-06
1.1132019e-07
4.6774134e-09
9.6989776e-11
1.3495789e-12
2.3319869e-14
9.8493353e-16
1.3410449e-16
2.190924e-17
3.2704247e-18
4.3810825e-19
5.2269445e-20
5.5173366e-21
5.1376835e-22
4.2174378e-23
3.0391987e-24
1.898632e-25
1.0023714e-26
4.2588239e-28
1.3490987e-29
2.8017579e-31
2.8414651e-33
0.00027834195
0.00024119911
0.00018766
0.0001255782
7.585793e-05
4.2708706e-05
1.9639144e-05
5.766314e-06
8.3680256e-07
5.3271184e-08
1.7217287e-09
3.6356494e-11
9.0071255e-13
2.4641584e-14
9.9483023e-16
1.2769611e-16
2.0241905e-17
2.9539927e-18
3.8976547e-19
4.6201318e-20
4.9090888e-21
4.6815241e-22
4.004542e-23
3.0426599e-24
2.012382e-25
1.1183275e-26
4.9285069e-28
1.5939799e-29
3.3359881e-31
3.3768235e-33
0.00030898734
0.00027619547
0.00022806098
0.00017184498
0.00012272169
8.5211331e-05
5.0466355e-05
2.0289047e-05
4.3098543e-06
4.2231148e-07
2.1734583e-08
7.6490596e-10
3.0889493e-11
1.2024339e-12
2.8059195e-14
8.8193113e-16
1.1508416e-16
1.80012e-17
2.6059339e-18
3.4460173e-19
4.1528733e-20
4.5666412e-21
4.5802557e-22
4.1522953e-23
3.3315542e-24
2.3023471e-25
1.3156245e-26
5.8637259e-28
1.8946942e-29
3.9309323e-31
3.9260422e-33
0.0003347618
0.00030549285
0.00026172706
0.00021111039
0.00016947877
0.00013638008
9.8219039e-05
5.1331977e-05
1.5472722e-05
2.3166693e-06
1.9207712e-07
1.1561937e-08
7.708364e-10
4.667197e-11
1.4815207e-12
2.2052397e-14
6.8559582e-16
1.0014574e-16
1.5752011e-17
2.311044e-18
3.1419596e-19
3.9579166e-20
4.6079468e-21
4.9046202e-22
4.6738249e-23
3.8785979e-24
2.7293582e-25
1.5644313e-26
6.9168988e-28
2.2031826e-29
4.4916912e-31
4.4027966e-33
0.00035481412
0.00032959777
0.00029038373
0.00024415797
0.00020957082
0.0001866923
0.0001544863
9.8978634e-05
4.0162889e-05
8.9260513e-06
1.1842212e-06
1.2233079e-07
1.3263141e-08
1.2340641e-09
5.9172872e-11
1.153817e-12
1.0849324e-14
5.3152422e-16
8.6794746e-17
1.4048894e-17
2.1452661e-18
3.0757113e-19
4.1163336e-20
5.0729849e-21
5.6355883e-22
5.5018853e-23
4.6003961e-24
3.2238761e-25
1.8231296e-26
7.9109352e-28
2.4678551e-29
4.925991e-31
4.7306246e-33
0.00036947972
0.00034827612
0.00031382038
0.00027300519
0.00024295815
0.00022855997
0.00020797073
0.00015498638
7.9768598e-05
2.4944566e-05
5.1575768e-06
8.9448502e-07
1.5394413e-07
2.1618938e-08
1.5773117e-09
4.6496958e-11
5.0046116e-13
4.283799e-15
4.4196105e-16
7.8001766e-17
1.3318983e-17
2.1599455e-18
3.2906414e-19
4.6351009e-20
5.9092533e-21
6.663038e-22
6.4991058e-23
5.3724865e-24
3.6988853e-25
2.046078e-26
8.6720599e-28
2.6431954e-29
5.1610229e-31
4.8564749e-33
0.00037945047
0.00036182067
0.00033231497
0.00029715401
0.00027196046
0.0002621105
0.00024996123
0.0002065139
0.00012784269
5.3162423e-05
1.6239986e-05
4.5218397e-06
1.196804e-06
2.4885402e-07
2.750357e-08
1.2504477e-09
2.0241568e-11
1.2643075e-13
2.3271998e-15
3.9868888e-16
7.5703878e-17
1.3796452e-17
2.3701549e-18
3.7695912e-19
5.4396597e-20
6.9774239e-21
7.8048074e-22
7.4841465e-23
6.0536192e-24
4.0671155e-25
2.1925387e-26
9.0634664e-28
2.6983961e-29
5.1566456e-31
4.7596751e-33
0.00038492535
0.0003709784
0.00034610289
0.00031678172
0.00029644066
0.00029016167
0.00028209233
0.00024639369
0.00017381204
9.0591658e-05
3.8340965e-05
1.5988413e-05
6.2589732e-06
1.8836741e-06
3.121624e-07
2.1994996e-08
5.5763456e-10
5.0033771e-12
2.7451479e-14
1.9226988e-15
3.9647429e-16
8.0629713e-17
1.5473982e-17
2.7479588e-18
4.4334085e-19
6.3851997e-20
8.0775351e-21
8.8421985e-22
8.2644775e-23
6.5113973e-24
4.258654e-25
2.2348314e-26
9.011763e-28
2.6228722e-29
4.9117288e-31
4.4539552e-33
0.00038661464
0.00037618993
0.00035594302
0.00033215163
0.00031651967
0.00031325559
0.00030768626
0.00027680183
0.00021172339
0.00013020977
7.0861353e-05
4.0717548e-05
2.2354965e-05
9.4661561e-06
2.3112309e-06
2.5191759e-07
1.0164388e-08
1.4622612e-10
9.4742027e-13
1.0984949e-14
1.9298607e-15
4.335886e-16
9.2118987e-17
1.8075574e-17
3.224296e-18
5.1546888e-19
7.2859033e-20
8.9857993e-21
9.5592735e-22
8.6790514e-23
6.6511014e-24
4.2332702e-25
2.1636627e-26
8.5191203e-28
2.4272552e-29
4.4615229e-31
3.9820908e-33
0.00038582826
0.00037839747
0.0003623516
0.0003439551
0.00033248929
0.00033184866
0.00032804676
0.00030101493
0.00024186774
0.00016636113
0.00010834719
7.8567357e-05
5.6411315e-05
3.2215678e-05
1.129002e-05
1.8826709e-06
1.2179514e-07
2.9030176e-09
3.0829633e-11
1.8382994e-13
9.0820506e-15
2.1594219e-15
5.0326274e-16
1.0801771e-16
2.108402e-17
3.7022547e-18
5.7851772e-19
7.9492916e-20
9.5051889e-21
9.801549e-22
8.6368998e-23
6.4386529e-24
3.9903e-25
1.9889247e-26
7.6578202e-28
2.1395384e-29
3.8675966e-31
3.4049704e-33
0.00038317156
0.00037862165
0.00036635663
0.00035260282
0.00034510435
0.00034630954
0.00034385165
0.00032015639
0.000268002
0.00019673881
0.00014473161
0.00012247621
0.00010657257
7.7253414e-05
3.7228683e-05
9.2929144e-06
9.5990679e-07
3.8262465e-08
6.877528e-10
5.8510909e-12
5.9492913e-14
1.0093698e-14
2.5427471e-15
5.9086876e-16
1.2490993e-16
2.3851503e-17
4.0794769e-18
6.1849788e-19
8.2232051e-20
9.5148986e-21
9.5054543e-22
8.1328094e-23
5.9031682e-24
3.5661635e-25
1.7363596e-26
6.5492038e-28
1.7978747e-29
3.203268e-31
2.7883557e-33
0.00037874008
0.00037752771
0.00036946814
0.00035893818
0.00035457279
0.0003574888
0.00035557029
0.00033494776
0.00028947894
0.00022506079
0.00017664027
0.00016415344
0.00016202436
0.0001388785
8.6613274e-05
3.1055288e-05
5.0294079e-06
3.3292108e-07
1.0098812e-08
1.4444486e-10
1.1362694e-12
4.8622495e-14
1.2045773e-14
2.9860042e-15
6.7593845e-16
1.389411e-16
2.5761864e-17
4.2708341e-18
6.2543087e-19
8.0347996e-20
8.9940907e-21
8.7093729e-22
7.2435902e-23
5.1259621e-24
3.0230444e-25
1.4406909e-26
5.3341652e-28
1.4420812e-29
2.5387967e-31
2.1909762e-33
0.00037607575
0.00037681491
0.00037209091
0.00036409941
0.0003613581
0.00036542094
0.00036389715
0.00034572593
0.00030708328
0.00024983699
0.00020455337
0.00019962747
0.00021093594
0.00020190348
0.000151324
7.3476915e-05
1.7926839e-05
1.9257977e-06
9.7102594e-08
2.3666161e-09
3.0037528e-11
4.8311948e-13
5.9063428e-14
1.418002e-14
3.3744553e-15
7.3780524e-16
1.468739e-16
2.6384123e-17
4.2203548e-18
5.9638383e-19
7.4028407e-20
8.0216121e-21
7.5377593e-22
6.103832e-23
4.2178975e-24
2.4329544e-25
1.1374605e-26
4.14411e-28
1.1063365e-29
1.9302434e-31
1.6566637e-33
0.00037426282
0.00037798047
0.00037838057
0.00036809187
0.00036633159
0.00037056183
0.00036899592
0.00035311407
0.00032108385
0.00027118409
0.00022945856
0.0002279644
0.00024872808
0.00025396882
0.00021439066
0.00013056333
4.5368681e-05
7.5503014e-06
6.173334e-07
2.5501766e-08
6.0112299e-10
1.4815568e-11
7.2899572e-13
7.3730007e-14
1.5826903e-14
3.6064566e-15
7.6175934e-16
1.4689885e-16
2.5471723e-17
3.9269355e-18
5.355458e-19
6.4275566e-20
6.7497036e-21
6.1647267e-22
4.8702057e-23
3.2928078e-24
1.8622036e-25
8.5644634e-27
3.0799699e-28
8.1475857e-30
1.413968e-31
1.2114966e-33
0.00037096706
0.00037883819
0.00037918669
0.00037889269
0.00036932495
0.00037353475
0.00037146676
0.00035753498
0.00033198434
0.00028942248
0.00025119988
0.00025118654
0.00027689402
0.00029022964
0.00026386195
0.00018715373
8.606696e-05
2.0920919e-05
2.6547982e-06
1.8457683e-07
8.5006498e-09
4.4831291e-10
2.9329996e-11
1.2685723e-12
8.2964394e-14
1.6487696e-14
3.6267339e-15
7.426491e-16
1.3851253e-16
2.3124295e-17
3.4369082e-18
4.5270254e-19
5.2597645e-20
5.3616619e-21
4.7702063e-22
3.6863876e-23
2.4452436e-24
1.3605281e-25
6.1790275e-27
2.2032019e-28
5.803206e-30
1.0068e-31
8.6541729e-34
0.00037019718
0.00037422099
0.00038146077
0.00037873458
0.00037815816
0.00037429019
0.00037173348
0.00035965181
0.00034025889
0.00030490716
0.00027002915
0.00027084375
0.00029720426
0.000313936
0.00029606138
0.00023214146
0.00013070055
4.3236779e-05
8.1091345e-06
9.3380974e-07
8.5974471e-08
9.1730865e-09
9.7461953e-10
5.7233934e-11
1.5735017e-12
8.000551e-14
1.6046655e-14
3.4366423e-15
6.8327519e-16
1.226691e-16
1.9725524e-17
2.8288656e-18
3.6036916e-19
4.0608688e-20
4.0284476e-21
3.5030489e-22
2.658847e-23
1.738098e-24
9.5695062e-26
4.3193753e-27
1.538243e-28
4.0652895e-30
7.1033701e-32
6.1664635e-34
0.00037278306
0.00036908165
0.00037709572
0.00038185764
0.00037674869
0.00037535318
0.00037008701
0.00036006124
0.0003465706
0.00031788923
0.00028625108
0.00028733805
0.0003134788
0.00033061406
0.00031648505
0.00026367989
0.0001704228
7.1390342e-05
1.8689405e-05
3.5069411e-06
6.253794e-07
1.211539e-07
2.0189914e-08
1.8726053e-09
7.2869394e-11
1.2101559e-12
6.9728123e-14
1.4699518e-14
3.0784568e-15
5.9015468e-16
1.0198485e-16
1.5812363e-17
2.1916199e-18
2.7064532e-19
2.9675619e-20
2.8777748e-21
2.4608752e-22
1.8482478e-23
1.2013984e-24
6.6166822e-26
3.0047525e-27
1.0826533e-28
2.9066946e-30
5.1706541e-32
4.5702643e-34
0.00036678056
0.00036848583
0.00036900334
0.00037860784
0.00038019168
0.00037267291
0.00036899359
0.00035935739
0.00035165862
0.00032881697
0.00030013511
0.00030112213
0.0003261839
0.00034291892
0.00033103732
0.00028695721
0.00020234564
0.00010075472
3.4834028e-05
1.0238224e-05
3.2565477e-06
1.0318162e-06
2.5894776e-07
3.7366584e-08
2.3625861e-09
5.4241415e-11
6.0039362e-13
5.9207571e-14
1.2767144e-14
2.591498e-15
4.7817204e-16
7.9646271e-17
1.1931732e-17
1.6033675e-18
1.9284194e-19
2.0714256e-20
1.9825876e-21
1.6888944e-22
1.275072e-23
8.397518e-25
4.7239676e-26
2.2053963e-27
8.2012765e-29
2.2733879e-30
4.1634336e-32
3.7682024e-34
0.00035843506
0.00036184702
0.00036425205
0.00036882915
0.00037818585
0.0003762865
0.00036502208
0.00035837812
0.00035567598
0.00033844131
0.00031201011
0.00031246313
0.00033612851
0.00035105624
0.00034065161
0.00030423006
0.00023348004
0.00012812388
5.5382586e-05
2.3825895e-05
1.2034041e-05
5.7450091e-06
2.0910168e-06
4.5698242e-07
4.6314645e-08
1.7913228e-09
2.2238756e-11
2.7894469e-13
4.9248606e-14
1.045556e-14
2.0460972e-15
3.6398167e-16
5.8608584e-17
8.5235272e-18
1.1186119e-18
1.3248202e-19
1.4165e-20
1.367761e-21
1.1931225e-22
9.3394306e-24
6.4385792e-25
3.8132524e-26
1.876092e-27
7.3223965e-29
2.1133898e-30
3.9891873e-32
3.680847e-34
0.00035991048
0.00035632766
0.00035570973
0.00035970028
0.00036750941
0.0003754702
0.00036891532
0.00035335958
0.0003432461
0.00034686052
0.00032218553
0.00032164277
0.00034340088
0.00035636448
0.00034590833
0.00031631606
0.00025840177
0.00016115842
7.8260433e-05
4.4731766e-05
3.1958857e-05
2.1346007e-05
1.0872782e-05
3.486836e-06
5.5354959e-07
3.5740338e-08
7.7518819e-10
5.0884835e-12
1.8353771e-13
3.9061442e-14
8.040339e-15
1.519069e-15
2.6170269e-16
4.1040698e-17
5.863528e-18
7.6541257e-19
9.1669173e-20
1.0110118e-20
1.028088e-21
9.6002176e-23
8.1006432e-24
6.0174105e-25
3.8107585e-26
1.9816457e-27
8.0644303e-29
2.3946029e-30
4.5944203e-32
4.263849e-34
0.00035476388
0.00036172685
0.0003527459
0.00034905364
0.00035428233
0.00036430577
0.00036971683
0.00035759317
0.00033753293
0.0003228482
0.00033092531
0.00032898264
0.00034841001
0.0003587738
0.00034776122
0.0003237947
0.00027852865
0.00019156799
0.00010472269
7.0701025e-05
6.3270622e-05
5.4958147e-05
3.7394589e-05
1.6990393e-05
4.1096363e-06
4.3397227e-07
1.6545595e-08
1.8515342e-10
1.1154601e-12
1.3683773e-13
2.9209141e-14
5.8277452e-15
1.0704105e-15
1.8075456e-16
2.8152812e-17
4.0714153e-18
5.5129104e-19
7.0344028e-20
8.4567382e-21
9.4884913e-22
9.7488547e-23
8.9252208e-24
7.0669514e-25
4.6843651e-26
2.5102165e-27
1.039529e-28
3.110756e-30
5.9705102e-32
5.5099935e-34
0.0003384959
0.00036051809
0.00036150014
0.00034752745
0.00034124238
0.00034740682
0.00035855115
0.00036023191
0.00034226548
0.00031681587
0.00029713845
0.00033450075
0.00035143488
0.00035897017
0.0003467634
0.00032760456
0.00029423868
0.00021917462
0.00013231208
9.5118537e-05
0.00010085378
0.00010377369
8.8748875e-05
5.4413532e-05
1.9415012e-05
3.2736939e-06
2.1473959e-07
4.5030516e-09
2.8906644e-11
5.0004915e-13
9.8915672e-14
2.0692113e-14
4.0430965e-15
7.3619578e-16
1.2574616e-16
2.0370251e-17
3.1642064e-18
4.7348225e-19
6.7772241e-20
9.1089811e-21
1.1219152e-21
1.233884e-22
1.1815392e-23
9.6067197e-25
6.4538986e-26
3.4743635e-27
1.4368938e-28
4.2772721e-30
8.1439279e-32
7.4396884e-34
0.00033843137
0.00034467552
0.00036414403
0.0003591946
0.00034036133
0.00033183617
0.00033847465
0.0003495918
0.00034679397
0.00032215014
0.00029110868
0.00026623616
0.00035245723
0.00035701212
0.00034355227
0.00032870567
0.00030607665
0.00024379305
0.00015946722
0.0001198853
0.00013299533
0.00015664035
0.00015520772
0.0001201498
6.0273806e-05
1.5745491e-05
1.734412e-06
6.6439104e-08
8.1737553e-10
4.7778371e-12
3.1925888e-13
6.8525107e-14
1.4229282e-14
2.8076638e-15
5.3160403e-16
9.7929425e-17
1.7700407e-17
3.1241968e-18
5.2884936e-19
8.370693e-20
1.2076713e-20
1.5535209e-21
1.7477504e-22
1.6889496e-23
1.3729705e-24
9.1772609e-26
4.9019943e-27
2.0086163e-28
5.9198503e-30
1.1155899e-31
1.0084052e-33
0.00035151697
0.00034085753
0.00034968846
0.00036569585
0.00035476253
0.00033136007
0.0003203766
0.00032715637
0.00033699767
0.00032872036
0.00029704601
0.00026062624
0.00023096671
0.00035300795
0.0003384031
0.00032797683
0.00031486354
0.00026525024
0.00018549025
0.00014391638
0.00015999564
0.00020104305
0.00021829315
0.00019665184
0.00012961736
5.0041662e-05
8.9676609e-06
6.0839996e-07
1.4388393e-08
1.2852863e-10
1.3136767e-12
2.1390577e-13
4.713398e-14
1.0165793e-14
2.1642857e-15
4.5980157e-16
9.7264968e-17
2.0107717e-17
3.9532741e-18
7.2007286e-19
1.1890718e-19
1.7498993e-20
2.262893e-21
2.5374368e-22
2.4320661e-23
1.9554715e-24
1.2918873e-25
6.8205526e-27
2.763564e-28
8.058994e-30
1.5036741e-31
7.6694517e-36
0.00034686977
0.0003484307
0.00034181085
0.00035330853
0.00036515486
0.00034832866
0.00032013863
0.00030652071
0.00031300368
0.00032010942
0.00030567919
0.00026729534
0.00022584443
0.00018925131
0.00033160128
0.00032588592
0.00032161086
0.00028361773
0.00021005893
0.00016670412
0.00018394482
0.0002312514
0.0002676178
0.00026037926
0.00020732173
0.00011096965
3.0807866e-05
3.5682719e-06
1.5579461e-07
2.6449383e-09
1.9042498e-11
6.6615205e-13
1.4863122e-13
3.5433971e-14
8.6017556e-15
2.1215481e-15
5.2171805e-16
1.2414859e-16
2.7752076e-17
5.6963408e-18
1.0565924e-18
1.7493681e-19
2.5585581e-20
3.2730728e-21
3.6235957e-22
3.4247719e-23
2.7156326e-24
1.7708752e-25
9.23825e-27
3.7028648e-28
1.0693761e-29
1.2586345e-33
2.6941611e-38
0.00032336098
0.00033843873
0.0003431068
0.00034168591
0.00035534192
0.00036247913
0.00033955943
0.00030629182
0.00028993551
0.0002951164
0.00029859779
0.00027764906
0.00023247025
0.00018451033
0.00013996893
0.00032281774
0.00032716008
0.00029947542
0.00023295288
0.00018820959
0.00020503866
0.00025634919
0.0002984944
0.00030468606
0.00026824317
0.00018356021
7.4219128e-05
1.3897753e-05
1.0716216e-06
3.3564762e-08
4.1857369e-10
3.6241837e-12
4.5373909e-13
1.2029105e-13
3.3579673e-14
9.573324e-15
2.6929026e-15
7.2252538e-16
1.8016871e-16
4.1019238e-17
8.4289344e-18
1.5504393e-18
2.5335159e-19
3.6497041e-20
4.5966518e-21
5.0124175e-22
4.665906e-23
3.6489281e-24
2.3501528e-25
1.2126447e-26
4.8141177e-28
9.9462328e-32
4.8590418e-36
4.1432594e-41
0.00031892003
0.00031383872
0.00032790632
0.0003363635
0.00034081825
0.00035548415
0.00035749677
0.00032809028
0.00028958959
0.0002700883
0.00027302974
0.0002720738
0.00024356307
0.00019045417
0.00013549437
8.8127099e-05
0.00033211437
0.00031365766
0.00025419293
0.00020849378
0.00022392737
0.00027694663
0.00032314465
0.00033365552
0.00030625005
0.00024394466
0.00013393278
3.789631e-05
4.8523182e-06
2.6791307e-07
6.1326271e-09
5.9606159e-11
1.5051505e-12
4.0052542e-13
1.284551e-13
4.1767499e-14
1.3181391e-14
3.9147589e-15
1.0725357e-15
2.6767856e-16
6.0343079e-17
1.2214248e-17
2.2083178e-18
3.5451067e-19
5.0195703e-20
6.2200546e-21
6.679645e-22
6.1289936e-23
4.7325528e-24
3.0145128e-25
1.5407329e-26
4.9990082e-30
4.3102172e-34
7.8800786e-39
2.8637334e-44
0.00033614208
0.00031379503
0.00030285619
0.0003159797
0.00032950837
0.00033872816
0.00035342086
0.00034968484
0.00031378339
0.00026946498
0.00024636234
0.00024618204
0.00023951025
0.00020146837
0.00013979055
8.5344437e-05
4.5465538e-05
0.00032738375
0.00027383277
0.00022759558
0.00024092948
0.0002945198
0.00034236781
0.00035504649
0.00033153469
0.00028213328
0.00019313791
7.7138723e-05
1.5218298e-05
1.3933747e-06
5.6249344e-08
9.5961986e-10
1.0022953e-11
1.3206005e-12
4.7758599e-13
1.7406222e-13
6.0542133e-14
1.9613854e-14
5.8373027e-15
1.5823032e-15
3.8833767e-16
8.587617e-17
1.7042302e-17
3.0221867e-18
4.7634122e-19
6.6308173e-20
8.0907136e-21
8.5632453e-22
7.755869e-23
5.9221849e-24
3.7368078e-25
1.7905328e-28
2.4551993e-32
7.7413662e-37
5.2191235e-42
1.0698922e-47
0.00034000382
0.00033832702
0.00030722111
0.00029060391
0.00030325636
0.00032083056
0.00033478392
0.00034854297
0.0003390604
0.00029587305
0.00024547788
0.00021857637
0.00021457617
0.00019909961
0.00014935848
8.8425962e-05
4.3752548e-05
1.8262535e-05
0.00029222041
0.00024555447
0.00025609617
0.00030939262
0.00035824225
0.00037031717
0.00034802577
0.00030747088
0.00024114279
0.00012495729
3.5127113e-05
4.9724783e-06
3.3288608e-07
9.999105e-09
1.3538777e-10
4.7514897e-12
1.7097087e-12
6.8654022e-13
2.5941249e-13
9.0657367e-14
2.9053155e-14
8.4910487e-15
2.2534766e-15
5.4107028e-16
1.1710785e-16
2.2769532e-17
3.9611966e-18
6.1343843e-19
8.4043428e-20
1.0110625e-20
1.0559898e-21
9.4566677e-23
7.1530943e-24
4.8666255e-27
1.0010434e-30
5.007585e-35
5.3159869e-40
1.7175089e-45
2.6146268e-51
0.00030929888
0.00035020082
0.00033819026
0.0002991849
0.00027698272
0.00028856411
0.00031026083
0.00032821894
0.00034051219
0.00032469893
0.00027383087
0.0002172861
0.00018686663
0.00017599655
0.00014874213
9.4896033e-05
4.5566845e-05
1.7304393e-05
5.4208064e-06
0.00026240984
0.00026939112
0.00032131659
0.00037091971
0.00038151075
0.0003573713
0.00032190903
0.00027413878
0.00018051599
6.3760982e-05
1.2913523e-05
1.3396081e-06
6.684344e-08
1.5297499e-09
2.6739467e-11
5.8851107e-12
2.5493109e-12
1.0349594e-12
3.8678859e-13
1.3252568e-13
4.1498846e-14
1.1839755e-14
3.0683207e-15
7.2010308e-16
1.5255705e-16
2.9079803e-17
4.9679574e-18
7.568594e-19
1.0220333e-19
1.2137691e-20
1.2532125e-21
1.111713e-22
1.0447675e-25
3.103519e-29
2.3462291e-33
3.772063e-38
1.6181356e-43
3.7257071e-49
4.5490515e-55
0.0002781018
0.00032469032
0.00035726892
0.00033592021
0.00028947166
0.00026180778
0.00027198136
0.00029700394
0.00031833506
0.00032860034
0.000305897
0.00024636305
0.00018433652
0.00014926404
0.0001295229
9.4487283e-05
4.9468762e-05
1.8030908e-05
5.0046483e-06
1.1479735e-06
0.00028063902
0.00032999523
0.00037975558
0.00038880842
0.00036109501
0.00032803069
0.0002941176
0.00022568081
0.00010865873
2.6108348e-05
3.8857368e-06
3.0118067e-07
1.1420631e-08
2.3027489e-10
2.0287201e-11
8.9052337e-12
3.8477331e-12
1.5269611e-12
5.5588315e-13
1.8543667e-13
5.6564249e-14
1.573592e-14
3.9816999e-15
9.1384008e-16
1.8966913e-16
3.5485478e-17
5.961377e-18
8.948297e-19
1.1930157e-19
1.4006852e-20
1.4324479e-21
1.821474e-24
7.6063518e-28
8.4071215e-32
2.0001524e-36
1.1479049e-41
3.0203272e-47
6.0949637e-53
5.9034422e-59
0.00029005982
0.00029235673
0.00033773133
0.0003614343
0.00033141995
0.0002780525
0.0002448981
0.00025287831
0.0002804487
0.00030441585
0.00031213092
0.00028139525
0.00021244293
0.00014516458
0.0001062483
8.0719488e-05
4.9219586e-05
1.9858692e-05
5.1953085e-06
1.0235788e-06
1.7281469e-07
0.00033492829
0.00038370594
0.00039151341
0.00035965587
0.00032722315
0.00030394574
0.00025971859
0.00015669962
5.3027604e-05
8.6643098e-06
9.6872741e-07
5.7268554e-08
1.7533156e-09
7.9862473e-11
2.946935e-11
1.3394714e-11
5.5993984e-12
2.1529404e-12
7.6088043e-13
2.4682394e-13
7.3325208e-14
1.9897469e-14
4.9193215e-15
1.1052194e-15
2.2500745e-16
4.1377977e-17
6.8466201e-18
1.0143278e-18
1.3375397e-19
1.555187e-20
2.6322835e-23
1.5142225e-26
2.3884073e-30
8.2445901e-35
6.4619177e-40
1.9186367e-45
4.3433731e-51
7.7735276e-57
5.9562148e-63
0.0003362718
0.00029763212
0.00030548693
0.00034817929
0.00036279318
0.00032473158
0.00026463655
0.00022597231
0.00023103847
0.00026015797
0.00028605384
0.00029043848
0.00024891797
0.0001695789
0.00010132424
6.3802265e-05
4.0834753e-05
1.9880471e-05
5.8176586e-06
1.0530298e-06
1.4729604e-07
1.8699702e-08
0.00038189646
0.00038820994
0.00035292302
0.00032054812
0.0003063055
0.00028246656
0.00020347564
8.8281806e-05
2.1177767e-05
2.3629477e-06
2.0354333e-07
9.6266697e-09
3.8924482e-10
9.4814771e-11
4.4148809e-11
1.9266247e-11
7.7428992e-12
2.8803417e-12
9.8832864e-13
3.1190164e-13
9.029847e-14
2.3921251e-14
5.7846732e-15
1.2738232e-15
2.5474629e-16
4.612226e-17
7.5303952e-18
1.1032504e-18
1.4412925e-19
3.2032384e-22
2.4977499e-25
5.5195601e-29
2.7192018e-33
2.9314983e-38
1.0404979e-43
2.3389232e-49
5.1799531e-55
7.8655286e-61
5.466722e-67
0.00037410457
0.00033403991
0.00030412979
0.00031749379
0.00035587681
0.00036134452
0.00031552431
0.00024894312
0.00020479418
0.00020635913
0.00023572154
0.00026234239
0.00026083989
0.000203583
0.00011968842
5.9339001e-05
3.0669597e-05
1.6014068e-05
5.8825399e-06
1.2003175e-06
1.4942151e-07
1.5233428e-08
1.4831439e-09
0.00037818687
0.00034067143
0.00030891862
0.00030299332
0.00029702549
0.0002437195
0.00013051583
4.0768863e-05
6.9973506e-06
5.4682626e-07
3.9593725e-08
2.2488154e-09
3.4685865e-10
1.4211291e-10
6.3252732e-11
2.6329952e-11
1.0145391e-11
3.649378e-12
1.2169268e-12
3.7393755e-13
1.0559682e-13
2.7338527e-14
6.4744402e-15
1.3994286e-15
2.7536627e-16
4.9173468e-17
7.9379109e-18
1.152595e-18
3.323901e-21
3.4665015e-24
1.0575675e-27
7.3373391e-32
1.0869223e-36
4.8242265e-42
1.1106191e-47
2.4400254e-53
5.1273999e-59
7.3022561e-65
4.8899387e-71
0.00036123439
0.00036076048
0.0003297475
0.00031002432
0.00032771681
0.00036055803
0.00035696505
0.00030349984
0.00023059191
0.00018124636
0.00017892414
0.00020646604
0.00023305434
0.0002176788
0.00014768447
7.0573193e-05
2.7374009e-05
1.1260504e-05
4.6166522e-06
1.2274015e-06
1.7284537e-07
1.4958428e-08
1.1617358e-09
8.827937e-11
0.00032325364
0.00029328384
0.00029562395
0.00030599915
0.00027650943
0.00017626328
6.8240918e-05
1.558755e-05
1.9832684e-06
1.434256e-07
1.7286623e-08
2.7123581e-09
6.0736688e-10
2.1133849e-10
8.6221101e-11
3.3928444e-11
1.2544522e-11
4.3768138e-12
1.419908e-12
4.2523202e-13
1.1725264e-13
2.9703078e-14
6.8989658e-15
1.4661001e-15
2.8436329e-16
5.0184952e-17
8.0269321e-18
2.9715937e-20
4.0971237e-23
1.7047631e-26
1.6479429e-30
3.3437259e-35
1.8947492e-40
4.831331e-46
9.7331205e-52
2.2526677e-57
4.7665949e-63
6.6229302e-69
4.2587118e-75
0.0003013958
0.00033839295
0.00034414337
0.0003246364
0.00031499634
0.00033555417
0.00036202625
0.00034929165
0.00028836612
0.0002091496
0.00015556872
0.00014925909
0.00017657566
0.00019310711
0.00016082182
8.97715e-05
3.2523166e-05
9.4182226e-06
3.0162168e-06
9.4320162e-07
1.7811193e-07
1.7323554e-08
1.091605e-09
6.6945818e-11
3.992569e-12
0.00027462903
0.00028548999
0.00031145798
0.00030417912
0.00022235394
0.00010343934
2.9580585e-05
5.1857863e-06
6.821052e-07
1.4932431e-07
3.7815014e-08
7.275296e-09
1.271339e-09
3.0751946e-10
1.0946286e-10
4.0880403e-11
1.4619224e-11
4.9686323e-12
1.569768e-12
4.5864018e-13
1.2363244e-13
3.0688223e-14
7.0018662e-15
1.4656046e-15
2.8076765e-16
4.9075703e-17
2.3088906e-19
4.1647165e-22
2.3386443e-25
3.1222704e-29
8.6535757e-34
6.3066868e-39
1.8862992e-44
3.6501155e-50
7.84707e-56
2.0478368e-61
4.3680887e-67
5.8478722e-73
3.612662e-79
0.00025399219
0.00027599054
0.00031263221
0.00032627639
0.000318945
0.00031844472
0.00034034153
0.00035976971
0.00033834147
0.00026925603
0.00018463719
0.00012833449
0.0001202817
0.00014002859
0.00014193171
0.00010030715
4.2795257e-05
1.1014304e-05
2.3139275e-06