/*--------------------------------*- C++ -*----------------------------------*\
| =========                 |                                                 |
| \\      /  F ield         | OpenFOAM: The Open Source CFD Toolbox           |
|  \\    /   O peration     | Version:  5.0                                   |
|   \\  /    A nd           | Web:      www.OpenFOAM.org                      |
|    \\/     M anipulation  |                                                 |
\*---------------------------------------------------------------------------*/
FoamFile
{
    version     2.0;
    format      ascii;
    class       volScalarField;
    location    "260";
    object      nuTilda;
}
// * * * * * * * * * * * * * * * * * * * * * * * * * * * * * * * * * * * * * //

dimensions      [0 2 -1 0 0 0 0];

internalField   nonuniform List<scalar> 
9520
(
4.8364483e-33
5.1340338e-31
4.6802985e-33
2.6665996e-29
4.9698795e-31
4.5254532e-33
9.0006082e-28
2.5817983e-29
4.8065069e-31
4.3811039e-33
2.2224034e-26
8.7158313e-28
2.4972854e-29
4.6551095e-31
4.2567323e-33
4.2904864e-25
2.1524288e-26
8.4323015e-28
2.4195111e-29
4.5270204e-31
4.1558529e-33
6.7690946e-24
4.1558397e-25
2.0829875e-26
8.1732131e-28
2.3547603e-29
4.4254899e-31
4.0734674e-33
8.9921649e-23
6.5574685e-24
4.022845e-25
2.0199859e-26
7.9601559e-28
2.3042493e-29
4.3422595e-31
3.9966315e-33
1.024724e-21
8.713721e-23
6.349538e-24
3.903101e-25
1.9686046e-26
7.7952045e-28
2.2621188e-29
4.2597679e-31
3.9075633e-33
1.0163445e-20
9.935247e-22
8.4415012e-23
6.1637864e-24
3.8059466e-25
1.928757e-26
7.6536233e-28
2.2175289e-29
4.1573363e-31
3.7911016e-33
8.8918415e-20
9.8616978e-21
9.6312366e-22
8.2000475e-23
6.0134906e-24
3.7298307e-25
1.893224e-26
7.4942733e-28
2.1592897e-29
4.0212941e-31
3.6437911e-33
7.0573713e-19
8.6331419e-20
9.5678949e-21
9.3624366e-22
8.0048638e-23
5.8937311e-24
3.6587759e-25
1.8510784e-26
7.2793312e-28
2.0820898e-29
3.854293e-31
3.4804978e-33
5.9588435e-18
6.8263644e-19
8.3817228e-20
9.3064998e-21
9.1446913e-22
7.8461743e-23
5.7761429e-24
3.5708033e-25
1.793358e-26
6.9979706e-28
1.9907953e-29
3.6796089e-31
3.3333699e-33
9.6680763e-17
5.5755015e-18
6.6074188e-19
8.1524249e-20
9.0933348e-21
8.9642438e-22
7.6822815e-23
5.6253577e-24
3.4501015e-25
1.7193345e-26
6.6784842e-28
1.9009834e-29
3.536053e-31
3.241107e-33
3.3064172e-15
8.444493e-17
5.2276407e-18
6.3988165e-19
7.9633262e-20
8.9147725e-21
8.7695407e-22
7.4656061e-23
5.4198137e-24
3.2994911e-25
1.638766e-26
6.3836641e-28
1.8343322e-29
3.4633154e-31
3.2316791e-33
1.2010541e-13
2.9256402e-15
7.1638047e-17
4.8699722e-18
6.2274315e-19
7.8074121e-20
8.7162548e-21
8.5049349e-22
7.1727514e-23
5.1714825e-24
3.1427889e-25
1.5691725e-26
6.1888199e-28
1.8097113e-29
3.4829808e-31
3.3064125e-33
3.5921812e-12
1.114296e-13
2.3776537e-15
5.6426083e-17
4.5810172e-18
6.0972347e-19
7.6330157e-20
8.4384271e-21
8.1496126e-22
6.8305279e-23
4.925467e-24
3.0165392e-25
1.5289417e-26
6.1486699e-28
1.8334664e-29
3.5842579e-31
3.4339119e-33
8.3539108e-11
3.4742305e-12
9.1302339e-14
1.6347705e-15
4.4006603e-17
4.4000317e-18
5.9607856e-19
7.3796651e-20
8.0651169e-21
7.7473496e-22
6.5087009e-23
4.7420218e-24
2.9543388e-25
1.528735e-26
6.2667583e-28
1.893691e-29
3.72239e-31
3.5576385e-33
1.4733896e-09
8.3344626e-11
2.8757564e-12
6.1058871e-14
1.0336187e-15
3.7261367e-17
4.2697738e-18
5.7558323e-19
7.0346715e-20
7.6542062e-21
7.3890118e-22
6.2889799e-23
4.6688417e-24
2.9701993e-25
1.5648609e-26
6.4828673e-28
1.9620042e-29
3.831583e-31
3.6142199e-33
1.9223173e-08
1.500862e-09
6.9566758e-11
1.911938e-12
3.736401e-14
7.4791173e-16
3.4401773e-17
4.102551e-18
5.468816e-19
6.6630669e-20
7.3084362e-21
7.1677641e-22
6.2251607e-23
4.7160137e-24
3.0482057e-25
1.6180463e-26
6.6875362e-28
2.0026664e-29
3.8471872e-31
3.5550274e-33
1.8194362e-07
1.980702e-08
1.2611085e-09
4.6302542e-11
1.1988253e-12
2.8311874e-14
6.7745844e-16
3.2205914e-17
3.8648876e-18
5.1640691e-19
6.3685576e-20
7.1190068e-21
7.1314203e-22
6.3130774e-23
4.8445767e-24
3.1439931e-25
1.6590159e-26
6.759601e-28
1.9851335e-29
3.7282199e-31
3.3630777e-33
1.2203521e-06
1.8762821e-07
1.6858719e-08
8.4916197e-10
3.029788e-11
1.0162497e-12
2.8765513e-14
6.3356429e-16
2.8697254e-17
3.6152043e-18
4.9372931e-19
6.2296311e-20
7.117528e-21
7.2540215e-22
6.4829391e-23
4.9752597e-24
3.1990287e-25
1.6589814e-26
6.6106267e-28
1.8949158e-29
3.4722166e-31
3.0599069e-33
5.7868185e-06
1.2514248e-06
1.6163482e-07
1.1758253e-08
5.8913802e-10
2.8799015e-11
1.1612888e-12
2.8729463e-14
4.8388527e-16
2.4858282e-17
3.4419211e-18
4.849251e-19
6.2579918e-20
7.2558435e-21
7.4367707e-22
6.6196732e-23
5.0159825e-24
3.162369e-25
1.6005998e-26
6.2172386e-28
1.7391297e-29
3.1179931e-31
2.7009348e-33
1.9486016e-05
5.8934108e-06
1.0971958e-06
1.1783247e-07
8.8947436e-09
6.1660065e-10
3.5901613e-11
1.2197493e-12
2.0836643e-14
2.9715604e-16
2.2414069e-17
3.3885164e-18
4.8949252e-19
6.3903119e-20
7.4177771e-21
7.5410482e-22
6.6052136e-23
4.8972674e-24
3.0107042e-25
1.4845974e-26
5.6314941e-28
1.5454384e-29
2.7362861e-31
2.3615973e-33
4.8242107e-05
1.9706052e-05
5.2481067e-06
8.4256488e-07
9.6506301e-08
9.7086753e-09
8.0815758e-10
3.8787178e-11
8.7899555e-13
1.0182176e-14
1.8329708e-16
2.1632984e-17
3.4371842e-18
5.0064834e-19
6.509066e-20
7.4617469e-21
7.4417948e-22
6.3654e-23
4.6005791e-24
2.7579081e-25
1.3301996e-26
4.9688689e-28
1.355193e-29
2.4120077e-31
2.1190342e-33
9.2797764e-05
4.8619679e-05
1.7836566e-05
4.2299151e-06
7.334215e-07
1.0804758e-07
1.2868471e-08
8.820665e-10
2.7804658e-11
4.0501647e-13
3.8952718e-15
1.4119492e-16
2.1916162e-17
3.5229199e-18
5.0785928e-19
6.4892126e-20
7.2776956e-21
7.0786635e-22
5.9016042e-23
4.1673389e-24
2.4517754e-25
1.1702767e-26
4.3792282e-28
1.2131566e-29
2.2238607e-31
2.0346277e-33
0.00014718088
9.342196e-05
4.4734216e-05
1.503172e-05
3.8659453e-06
8.3205753e-07
1.418009e-07
1.4007976e-08
6.2998208e-10
1.2474659e-11
1.3509572e-13
1.6326488e-15
1.3267829e-16
2.2495456e-17
3.5590267e-18
5.0137558e-19
6.2508476e-20
6.8332035e-21
6.483359e-22
5.2937789e-23
3.6874164e-24
2.1615391e-25
1.0430345e-26
4.0099364e-28
1.1568478e-29
2.2267446e-31
2.1412911e-33
0.00019932788
0.0001479778
8.7249229e-05
3.9014531e-05
1.4245292e-05
4.4163285e-06
1.0690523e-06
1.5269113e-07
1.0009247e-08
2.8162907e-10
4.0042059e-12
4.3940395e-14
1.0554537e-15
1.3421695e-16
2.2633613e-17
3.4766587e-18
4.765694e-19
5.7930233e-20
6.1898372e-21
5.7724216e-22
4.6771914e-23
3.2752923e-24
1.9603856e-25
9.8264434e-27
3.9710656e-28
1.2081155e-29
2.4403604e-31
2.4372631e-33
0.0002423217
0.00019893778
0.00013892972
7.7806911e-05
3.7826027e-05
1.6281344e-05
5.518086e-06
1.1345486e-06
1.0972282e-07
4.5586753e-09
9.4467837e-11
1.3371228e-12
2.3788628e-14
9.9778599e-16
1.3416079e-16
2.1856466e-17
3.2571771e-18
4.3581868e-19
5.1960667e-20
5.4849377e-21
5.1128645e-22
4.2064203e-23
3.04122e-24
1.9075177e-25
1.0111592e-26
4.3103326e-28
1.3684298e-29
2.845201e-31
2.8864173e-33
0.00027844135
0.00024100476
0.00018726467
0.0001254266
7.6114829e-05
4.2994166e-05
1.9750587e-05
5.7519029e-06
8.2463522e-07
5.2001961e-08
1.6817456e-09
3.6204613e-11
9.3099346e-13
2.5599585e-14
1.0048789e-15
1.2734719e-16
2.0146975e-17
2.9374258e-18
3.8747654e-19
4.5956426e-20
4.8912869e-21
4.6780016e-22
4.0166352e-23
3.0640631e-24
2.0339288e-25
1.1333169e-26
5.0016605e-28
1.6182605e-29
3.3856277e-31
3.4242376e-33
0.00030906945
0.00027598534
0.00022763506
0.00017168796
0.0001230819
8.5693775e-05
5.0676456e-05
2.0221798e-05
4.2483825e-06
4.1298778e-07
2.1304782e-08
7.6609557e-10
3.2090868e-11
1.2557152e-12
2.8872333e-14
8.8264841e-16
1.1446509e-16
1.7893469e-17
2.5910373e-18
3.4304479e-19
4.1437529e-20
4.5722112e-21
4.6042955e-22
4.1900114e-23
3.3717022e-24
2.3344973e-25
1.3349328e-26
5.9481708e-28
1.920272e-29
3.9790459e-31
3.9684195e-33
0.00033482077
0.00030527833
0.00026129293
0.00021096871
0.00016993747
0.00013704729
9.8513174e-05
5.1140671e-05
1.5263626e-05
2.2703342e-06
1.8906327e-07
1.1649938e-08
8.015608e-10
4.8645648e-11
1.5243651e-12
2.2223459e-14
6.8106095e-16
9.9502998e-17
1.5666004e-17
2.3028477e-18
3.1401056e-19
3.9706115e-20
4.6412355e-21
4.9567989e-22
4.7340649e-23
3.9325381e-24
2.7674519e-25
1.5850164e-26
6.9987029e-28
2.2257222e-29
4.5299924e-31
4.4327826e-33
0.00035484412
0.00032937399
0.0002899718
0.00024403696
0.00021008822
0.00018748916
0.00015487164
9.8618155e-05
3.9668077e-05
8.7693977e-06
1.1710372e-06
1.2382916e-07
1.3772088e-08
1.2819641e-09
6.065458e-11
1.1595085e-12
1.0707124e-14
5.2737973e-16
8.6347734e-17
1.4014961e-17
2.1476825e-18
3.0914631e-19
4.1528677e-20
5.1322418e-21
5.7098697e-22
5.5759028e-23
4.6594247e-24
3.2613446e-25
1.8412949e-26
7.9750351e-28
2.4831227e-29
4.9471581e-31
4.7423666e-33
0.00036947995
0.00034804605
0.00031343518
0.00027291644
0.00024349931
0.00022940562
0.0002083466
0.00015444671
7.8902309e-05
2.4573933e-05
5.1239057e-06
9.0823778e-07
1.5939836e-07
2.2371079e-08
1.6104367e-09
4.6535629e-11
4.9044506e-13
4.1980434e-15
4.3972169e-16
7.7909895e-17
1.3357415e-17
2.1748083e-18
3.3241104e-19
4.691909e-20
5.9861614e-21
6.7472721e-22
6.5737767e-23
5.4256332e-24
3.7284694e-25
2.0581783e-26
8.7051951e-28
2.6478963e-29
5.1601337e-31
4.8467448e-33
0.00037941861
0.00036158646
0.00033196379
0.00029710313
0.00027250049
0.00026295231
0.00025026973
0.00020580925
0.00012662658
5.2510861e-05
1.6198856e-05
4.5984262e-06
1.2347107e-06
2.564371e-07
2.7974255e-08
1.2470559e-09
1.9750982e-11
1.2160808e-13
2.3051277e-15
3.987158e-16
7.6054073e-17
1.3912833e-17
2.3964933e-18
3.8164605e-19
5.5076104e-20
7.058162e-21
7.8827885e-22
7.5444343e-23
6.0898048e-24
4.0823918e-25
2.1957398e-26
9.0569445e-28
2.6908495e-29
5.1321501e-31
4.7284594e-33
0.00038486499
0.00037074286
0.00034579351
0.00031677183
0.000296973
0.00029096226
0.00028234195
0.00024561158
0.00017237526
8.9686673e-05
3.8350129e-05
1.6260977e-05
6.4311012e-06
1.9325748e-06
3.1634865e-07
2.1871626e-08
5.4260921e-10
4.7885662e-12
2.6547385e-14
1.9236923e-15
3.9896329e-16
8.1418587e-17
1.5655686e-17
2.7817286e-18
4.4853053e-19
6.4510443e-20
8.1453686e-21
8.8969821e-22
8.2964657e-23
6.5215996e-24
4.255285e-25
2.2277338e-26
8.9632875e-28
2.6033357e-29
4.8656831e-31
4.4043382e-33
0.00038653802
0.00037595956
0.00035567723
0.00033218439
0.00031703811
0.00031399978
0.00030787243
0.00027601048
0.0002102244
0.00012916315
7.0996544e-05
4.1371502e-05
2.2874055e-05
9.6683259e-06
2.334075e-06
2.4992386e-07
9.8746872e-09
1.4011279e-10
9.0526155e-13
1.0879188e-14
1.9446801e-15
4.3834597e-16
9.3236769e-17
1.8290915e-17
3.2588957e-18
5.2007164e-19
7.3349897e-20
9.0247035e-21
9.5766551e-22
8.6731604e-23
6.6306214e-24
4.2099878e-25
2.1465868e-26
8.4331312e-28
2.397805e-29
4.3989934e-31
3.9194784e-33
0.00038574251
0.00037818403
0.00036212736
0.0003440303
0.00033298523
0.00033252882
0.0003281742
0.00030026266
0.00024038595
0.00016528687
0.00010863807
7.9708912e-05
5.7492953e-05
3.2758893e-05
1.1364453e-05
1.8644306e-06
1.1824573e-07
2.7852136e-09
2.944134e-11
1.7670638e-13
9.1471819e-15
2.1855259e-15
5.0950211e-16
1.0924797e-16
2.128729e-17
3.7299004e-18
5.8143448e-19
7.9688852e-20
9.5033929e-21
9.7737171e-22
8.5902266e-23
6.3881635e-24
3.9492519e-25
1.9637433e-26
7.5442534e-28
2.1035412e-29
3.7954719e-31
3.3359012e-33
0.00038308253
0.00037844786
0.00036616936
0.00035271318
0.00034557506
0.00034691986
0.00034392059
0.00031945009
0.00026661633
0.00019569248
0.00014515245
0.00012406156
0.00010824161
7.8246918e-05
3.7366793e-05
9.1913691e-06
9.320396e-07
3.6756001e-08
6.5727085e-10
5.5785544e-12
5.8882856e-14
1.0227539e-14
2.5749841e-15
5.9725369e-16
1.2597034e-16
2.3993726e-17
4.0930846e-18
6.1887726e-19
8.205441e-20
9.4680186e-21
9.4328774e-22
8.0497255e-23
5.8284095e-24
3.5122832e-25
1.706066e-26
6.4210924e-28
1.759231e-29
3.1288215e-31
2.7192474e-33
0.00037867362
0.00037740967
0.00036934336
0.00035905909
0.00035500731
0.00035802262
0.00035557829
0.00033430244
0.00028823541
0.00022400886
0.00017717902
0.00016601635
0.00016411004
0.00014020228
8.674031e-05
3.0696314e-05
4.8871074e-06
3.2019882e-07
9.65931e-09
1.3776279e-10
1.0982856e-12
4.9424563e-14
1.2208149e-14
3.0167021e-15
6.8088158e-16
1.3955857e-16
2.5803377e-17
4.2656497e-18
6.2287001e-19
7.978879e-20
8.906169e-21
8.6005114e-22
7.1344487e-23
5.0362059e-24
2.9627961e-25
1.4086936e-26
5.2048511e-28
1.4044642e-29
2.4684144e-31
2.1271337e-33
0.00037604681
0.00037685374
0.00037203326
0.00036420841
0.00036174097
0.00036586919
0.00036383568
0.00034514507
0.00030599412
0.00024882082
0.00020508295
0.00020160896
0.00021318401
0.00020329974
0.00015129451
7.2628118e-05
1.7441933e-05
1.8544046e-06
9.2961104e-08
2.2620627e-09
2.9166928e-11
5.0469374e-13
6.0523659e-14
1.4327913e-14
3.3952785e-15
7.3994278e-16
1.4686043e-16
2.6304668e-17
4.1950863e-18
5.9105064e-19
7.3151355e-20
7.9038809e-21
7.4067043e-22
5.9822646e-23
4.1237054e-24
2.3728869e-25
1.1069108e-26
4.0248822e-28
1.0726319e-29
1.8686136e-31
1.6017447e-33
0.00037426014
0.00037806787
0.0003784651
0.00036816347
0.00036665251
0.00037092096
0.00036886623
0.00035260052
0.00032017036
0.00027022404
0.00022993622
0.00022996923
0.00025095243
0.0002552891
0.00021412883
0.00012912064
4.422005e-05
7.2795214e-06
5.9174319e-07
2.4475446e-08
5.9312527e-10
1.5962114e-11
7.9565644e-13
7.5547482e-14
1.591394e-14
3.6112471e-15
7.6036304e-16
1.4619697e-16
2.527208e-17
3.8842378e-18
5.2812389e-19
6.3197677e-20
6.6175409e-21
6.0276367e-22
4.7499684e-23
3.2038298e-24
1.8077517e-25
8.2972305e-27
2.9786979e-28
7.8681434e-30
1.363843e-31
1.1674649e-33
0.00037095414
0.00037884938
0.00037934576
0.00037897617
0.00036957228
0.00037379738
0.00037127358
0.00035709562
0.00033125861
0.00028853284
0.00025161485
0.00025309327
0.0002789762
0.00029130048
0.00026330452
0.00018521885
8.4065648e-05
2.0202538e-05
2.55021e-06
1.7844372e-07
8.562829e-09
4.872148e-10
3.2619646e-11
1.3735516e-12
8.4280457e-14
1.6484955e-14
3.6135111e-15
7.3778125e-16
1.371761e-16
2.2829423e-17
3.3825862e-18
4.4419871e-19
5.1458371e-20
5.2308604e-21
4.6417903e-22
3.5787797e-23
2.3687033e-24
1.3153694e-25
5.9645083e-27
2.1241274e-28
5.5900174e-30
9.6925938e-32
8.3287824e-34
0.0003703552
0.00037405907
0.00038152281
0.00037893515
0.00037822962
0.00037445682
0.00037148396
0.00035929551
0.0003397251
0.00030410284
0.00027037431
0.00027262412
0.00029914023
0.00031476426
0.00029533008
0.00022994079
0.00012797165
4.1842998e-05
7.819633e-06
9.132974e-07
8.8345361e-08
9.9571706e-09
1.0748942e-09
6.2297456e-11
1.6599312e-12
8.0181224e-14
1.595673e-14
3.4077156e-15
6.7546913e-16
1.2088047e-16
1.9376675e-17
2.7702776e-18
3.5185715e-19
3.9537951e-20
3.9120776e-21
3.394189e-22
2.5713825e-23
1.6782832e-24
9.2297238e-26
4.1637076e-27
1.4827178e-28
3.9199178e-30
6.853591e-32
5.9538344e-34
0.00037285864
0.00036908753
0.00037690002
0.00038198044
0.00037697276
0.00037540554
0.00036980199
0.00035980624
0.00034622819
0.00031718055
0.00028652178
0.00028897487
0.00031526458
0.00033130639
0.00031573537
0.00026147786
0.00016727907
6.9297898e-05
1.8130341e-05
3.4809264e-06
6.5167277e-07
1.3076791e-07
2.2026523e-08
2.0187589e-09
7.6909008e-11
1.2336109e-12
6.9171928e-14
1.4545523e-14
3.037854e-15
5.8049629e-16
9.999666e-17
1.545607e-17
2.1358932e-18
2.6303856e-19
2.8771295e-20
2.7845404e-21
2.3779142e-22
1.7847197e-23
1.1600907e-24
6.3944645e-26
2.9086629e-27
1.0503979e-28
2.8272943e-30
5.0419086e-32
4.4656562e-34
0.00036650102
0.00036847146
0.00036887446
0.0003784195
0.00038036932
0.00037290978
0.00036901665
0.00035923683
0.00035150631
0.0003282016
0.00030032951
0.00030261097
0.00032778923
0.00034345042
0.0003302978
0.00028498576
0.00019906231
9.8151908e-05
3.4040372e-05
1.0303556e-05
3.4139707e-06
1.1054682e-06
2.7939257e-07
3.9871627e-08
2.4725382e-09
5.5250323e-11
5.9221351e-13
5.8427423e-14
1.2575407e-14
2.5445544e-15
4.6802053e-16
7.7716732e-17
1.1609278e-17
1.5560573e-18
1.8676634e-19
2.0034736e-20
1.9169023e-21
1.6344507e-22
1.236672e-23
8.1724867e-25
4.6185681e-26
2.1677442e-27
8.1055827e-29
2.2581917e-30
4.1525448e-32
3.7689051e-34
0.00035849621
0.00036159486
0.00036416059
0.00036860867
0.00037802263
0.0003765114
0.00036526159
0.00035836991
0.00035567923
0.00033791448
0.00031213216
0.00031379636
0.00033755566
0.00035141937
0.00033991566
0.00030254429
0.0002305375
0.000125244
5.4484089e-05
2.4192903e-05
1.261051e-05
6.1023626e-06
2.2311716e-06
4.8276823e-07
4.806036e-08
1.8132961e-09
2.1802099e-11
2.719876e-13
4.8408441e-14
1.0248015e-14
1.9992745e-15
3.5460716e-16
5.6948401e-17
8.2644451e-18
1.0831804e-18
1.2827163e-19
1.3736092e-20
1.3311393e-21
1.1678279e-22
9.2085784e-24
6.4016051e-25
3.824508e-26
1.896973e-27
7.455172e-29
2.1632307e-30
4.0982593e-32
3.789046e-34
0.00036011015
0.00035652989
0.00035552326
0.00035949906
0.00036721549
0.00037533617
0.00036918833
0.00035359497
0.00034320878
0.00034642425
0.00032222869
0.00032281382
0.00034464046
0.00035654555
0.00034517244
0.00031490259
0.0002558045
0.00015803238
7.7402328e-05
4.5590305e-05
3.3353115e-05
2.2465106e-05
1.1473588e-05
3.6478502e-06
5.6984508e-07
3.5966431e-08
7.5735343e-10
4.815947e-12
1.7973112e-13
3.8215953e-14
7.8437683e-15
1.4779556e-15
2.540612e-16
3.9788594e-17
5.6846518e-18
7.435397e-19
8.9459716e-20
9.9408183e-21
1.0211074e-21
9.6443251e-23
8.2297133e-24
6.1754817e-25
3.9440429e-26
2.0643478e-27
8.440479e-29
2.5140955e-30
4.8323552e-32
4.4875445e-34
0.00035437017
0.00036208851
0.00035307629
0.00034893242
0.00035397368
0.00036394547
0.00036962087
0.000357909
0.00033776248
0.00032278384
0.00033086372
0.00032998913
0.00034946501
0.0003587728
0.00034701633
0.00032266012
0.00027634526
0.00018843531
0.00010359752
7.2112304e-05
6.56837e-05
5.7319742e-05
3.9034129e-05
1.760664e-05
4.1991548e-06
4.3446131e-07
1.6124238e-08
1.7449154e-10
1.0672669e-12
1.3358891e-13
2.8451906e-14
5.6641377e-15
1.0388909e-15
1.7542882e-16
2.7382521e-17
3.9806221e-18
5.4372495e-19
7.0210468e-20
8.5566341e-21
9.7292494e-22
1.0109373e-22
9.3355619e-24
7.4387504e-25
4.9525915e-26
2.6617145e-27
1.1042978e-28
3.3080777e-30
6.3522133e-32
5.8620883e-34
0.00033831199
0.00036021466
0.00036200345
0.00034795788
0.00034113522
0.00034698579
0.00035813295
0.00036018058
0.00034261842
0.00031703573
0.00029705233
0.00033533149
0.00035229856
0.00035878879
0.00034601784
0.00032675642
0.00029250995
0.00021616636
0.00013095847
9.6767635e-05
0.00010416745
0.00010738407
9.171347e-05
5.5881599e-05
1.9702345e-05
3.2630056e-06
2.0889482e-07
4.2502957e-09
2.704311e-11
4.8478719e-13
9.6209264e-14
2.0098826e-14
3.9266739e-15
7.1649225e-16
1.2303857e-16
2.0119513e-17
3.1664547e-18
4.8100677e-19
6.9852724e-20
9.5010225e-21
1.180333e-21
1.3054991e-22
1.2545126e-23
1.0222416e-24
6.8762828e-26
3.7043384e-27
1.5325467e-28
4.5626856e-30
8.6875142e-32
7.9355486e-34
0.00033906981
0.00034436187
0.00036395494
0.00035982941
0.00034087851
0.00033173331
0.00033794117
0.00034913209
0.00034678516
0.00032253599
0.00029131528
0.00026613614
0.00035312364
0.00035664929
0.00034280079
0.00032814682
0.00030480727
0.00024101282
0.00015791014
0.00012155893
0.00013696237
0.00016103576
0.00015905797
0.00012243183
6.0808847e-05
1.5639507e-05
1.6855268e-06
6.2844477e-08
7.6424789e-10
4.4948561e-12
3.0986865e-13
6.6555894e-14
1.3846495e-14
2.7462743e-15
5.2493864e-16
9.8037743e-17
1.8006083e-17
3.2270882e-18
5.5298239e-19
8.8269495e-20
1.2801322e-20
1.6514337e-21
1.860439e-22
1.7988079e-23
1.4625069e-24
9.7751088e-26
5.22058e-27
2.1388683e-28
6.3032429e-30
1.1878415e-31
1.0737975e-33
0.00035197121
0.00034128123
0.00034927494
0.0003656332
0.00035552379
0.0003319556
0.00032027196
0.00032652441
0.00033651215
0.00032875567
0.00029745663
0.00026082461
0.00023086748
0.00035246855
0.00033766359
0.00032771062
0.00031403802
0.00026278387
0.00018375478
0.00014549599
0.00016414482
0.00020592916
0.00022224882
0.00019914055
0.00013020344
4.9593557e-05
8.7143911e-06
5.7696242e-07
1.3482661e-08
1.1959431e-10
1.2571258e-12
2.0786728e-13
4.6031097e-14
1.0019711e-14
2.1630019e-15
4.6727514e-16
1.0045151e-16
2.1031431e-17
4.1699171e-18
7.6323879e-19
1.2633571e-19
1.8607953e-20
2.4062352e-21
2.6969233e-22
2.583458e-23
2.0760711e-24
1.3709112e-25
7.2351921e-27
2.9309677e-28
8.5468409e-30
1.594908e-31
8.1985648e-36
0.00034616491
0.00034864975
0.00034199644
0.00035285575
0.00036522606
0.00034920933
0.00032080376
0.000306399
0.00031230625
0.00031960463
0.00030575776
0.00026771296
0.00022602438
0.00018915067
0.00033090059
0.00032593076
0.00032121249
0.00028151641
0.00020820185
0.00016811056
0.00018812151
0.00023611184
0.00027127107
0.00026243939
0.00020763451
0.00010989312
2.9967699e-05
3.3945216e-06
1.463573e-07
2.4619607e-09
1.7714555e-11
6.4645805e-13
1.4594998e-13
3.5280229e-14
8.7140341e-15
2.1863587e-15
5.4497454e-16
1.3082723e-16
2.9385472e-17
6.0442766e-18
1.121667e-18
1.8563283e-19
2.7126361e-20
3.4665564e-21
3.8337264e-22
3.6202534e-23
2.8686051e-24
1.8696372e-25
9.7502215e-27
3.9075901e-28
1.1286031e-29
1.3425788e-33
2.881301e-38
0.00032276411
0.00033760097
0.00034306083
0.00034161914
0.00035487548
0.00036268151
0.00034055538
0.00030701876
0.00028978611
0.00029435794
0.0002980823
0.00027776868
0.0002328762
0.00018465995
0.00013987014
0.00032319708
0.00032718209
0.0002977527
0.00023103167
0.00018939868
0.00020912769
0.00026114117
0.00030191829
0.00030610742
0.00026813179
0.00018187625
7.2351128e-05
1.3272067e-05
1.0094374e-06
3.1287252e-08
3.8734413e-10
3.4313195e-12
4.4863099e-13
1.2118742e-13
3.4466421e-14
9.9738732e-15
2.8326803e-15
7.6388449e-16
1.9086491e-16
4.3464335e-17
8.9249425e-18
1.6397172e-18
2.6756767e-19
3.8490354e-20
4.8412186e-21
5.2728977e-22
4.9039893e-23
3.8324958e-24
2.4672488e-25
1.2727776e-26
5.0529124e-28
1.0564365e-31
5.2078112e-36
4.3860969e-41
0.00031963185
0.00031339948
0.00032697246
0.00033604276
0.00034051777
0.00035502044
0.00035782953
0.00032919398
0.00029037386
0.00026989923
0.00027221698
0.00027154692
0.00024371126
0.00019082906
0.00013559358
8.8059902e-05
0.0003325699
0.00031227121
0.00025225824
0.00020943939
0.00022786728
0.0002816063
0.00032633306
0.0003347124
0.000305688
0.00024202147
0.00013099465
3.6351136e-05
4.5837301e-06
2.5011965e-07
5.6753781e-09
5.5068868e-11
1.4872039e-12
4.0836007e-13
1.3329051e-13
4.3827996e-14
1.3911302e-14
4.1403886e-15
1.1344529e-15
2.8285501e-16
6.3669881e-17
1.2865928e-17
2.3221072e-18
3.7215089e-19
5.2611331e-20
6.5103435e-21
6.9835801e-22
6.4025543e-23
4.9408795e-24
3.1461514e-25
1.6078846e-26
5.2821242e-30
4.6082369e-34
8.4435333e-39
2.950238e-44
0.00033701732
0.00031482793
0.00030256743
0.0003149598
0.00032894281
0.00033818557
0.00035296055
0.00035014137
0.0003149945
0.00027029344
0.00024613295
0.000245323
0.00023900105
0.00020164274
0.000140089
8.5418675e-05
4.5422227e-05
0.00032631161
0.00027191952
0.00022827677
0.0002446691
0.00029902549
0.00034527752
0.00035567411
0.00033065397
0.00028037188
0.00018968356
7.4320923e-05
1.442056e-05
1.302914e-06
5.2082571e-08
8.8278845e-10
9.5166402e-12
1.359373e-12
4.9948737e-13
1.8336041e-13
6.3939204e-14
2.0715377e-14
6.1577531e-15
1.6662164e-15
4.0811737e-16
9.0066657e-17
1.7838419e-17
3.157387e-18
4.9678231e-19
6.9045917e-20
8.413376e-21
8.8959726e-22
8.0514174e-23
6.1450508e-24
3.8767091e-25
1.8812927e-28
2.6131148e-32
8.3162833e-37
5.518818e-42
1.0658564e-47
0.00033923439
0.00033957652
0.00030854724
0.00029046913
0.00030208666
0.00031998104
0.00033400997
0.00034808551
0.00033963033
0.0002971842
0.00024633905
0.00021830803
0.00021371342
0.00019863609
0.00014954455
8.863254e-05
4.3799131e-05
1.8239776e-05
0.00029030774
0.00024595049
0.00025955612
0.00031371177
0.00036087017
0.00037048388
0.00034676616
0.00030580289
0.00023821774
0.00012093696
3.339587e-05
4.658389e-06
3.0839817e-07
9.1913339e-09
1.247868e-10
4.8627163e-12
1.7970197e-12
7.2430283e-13
2.7371865e-13
9.5520348e-14
3.0547851e-14
8.9071471e-15
2.3583068e-15
5.6492872e-16
1.220021e-16
2.3672054e-17
4.1103243e-18
6.3543432e-19
8.6926389e-20
1.0444543e-20
1.0899265e-21
9.7548695e-23
7.3764227e-24
5.0833241e-27
1.0596626e-30
5.3666505e-35
5.6980861e-40
1.7645193e-45
2.5433382e-51
0.00030737174
0.00034974852
0.00033977183
0.00030078568
0.00027699061
0.0002872769
0.00030912082
0.00032722144
0.00034004632
0.00032537562
0.00027522704
0.00021814873
0.0001865576
0.00017517457
0.00014838075
9.5018206e-05
4.569169e-05
1.7324643e-05
5.4115011e-06
0.00026249516
0.00027252586
0.00032539365
0.00037325223
0.00038113491
0.0003556876
0.00032019492
0.00027179116
0.00017625984
6.0836482e-05
1.2124854e-05
1.2420356e-06
6.1419834e-08
1.3999136e-09
2.6067113e-11
6.1974106e-12
2.6895508e-12
1.0900668e-12
4.0636126e-13
1.3884966e-13
4.3359303e-14
1.2337392e-14
3.1890866e-15
7.4663338e-16
1.5782138e-16
3.0020893e-17
5.1190731e-18
7.7858297e-19
1.0498798e-19
1.2455032e-20
1.2850495e-21
1.1394669e-22
1.0847232e-25
3.2660649e-29
2.5028859e-33
4.0571328e-38
1.7076594e-43
3.7042099e-49
4.3755529e-55
0.00027790413
0.00032278205
0.00035713934
0.00033780213
0.00029133102
0.00026196492
0.00027058601
0.00029557071
0.00031712224
0.00032811914
0.00030667163
0.00024780982
0.00018515076
0.00014893426
0.00012881609
9.4230301e-05
4.9549326e-05
1.8090129e-05
5.0104358e-06
1.1453481e-06
0.00028338469
0.00033375169
0.00038173197
0.00038781332
0.00035887475
0.00032625957
0.00029238318
0.00022198751
0.00010455443
2.4575013e-05
3.6069758e-06
2.7669224e-07
1.0427674e-08
2.1458292e-10
2.1232054e-11
9.389755e-12
4.0438331e-12
1.5993018e-12
5.8029728e-13
1.9297361e-13
5.8688578e-14
1.6281161e-14
4.1088178e-15
9.4070237e-16
1.9480483e-16
3.6371947e-17
6.0991875e-18
9.1407369e-19
1.2170667e-19
1.4276747e-20
1.4592263e-21
1.8795468e-24
7.9560573e-28
8.9183944e-32
2.146913e-36
1.2294266e-41
3.0950267e-47
5.9234796e-53
5.6597342e-59
0.00029235045
0.00029185541
0.00033592984
0.00036162089
0.00033358068
0.00028015988
0.00024520802
0.00025139913
0.00027873428
0.00030299967
0.00031164337
0.00028228936
0.00021390663
0.00014586622
0.00010594086
8.0207714e-05
4.9063983e-05
1.9904306e-05
5.2154509e-06
1.0245684e-06
1.7230198e-07
0.00033827118
0.00038526113
0.00038985198
0.00035679394
0.0003253809
0.00030277003
0.00025691957
0.00015196963
5.0343517e-05
8.0536185e-06
8.9014661e-07
5.2233138e-08
1.6077212e-09
8.1356111e-11
3.1058837e-11
1.4055009e-11
5.8477121e-12
2.239457e-12
7.8867669e-13
2.5500749e-13
7.5525833e-14
2.0436198e-14
5.0390904e-15
1.1293524e-15
2.2940904e-16
4.2103753e-17
6.9546834e-18
1.0288392e-18
1.3551243e-19
1.5745161e-20
2.699327e-23
1.5739534e-26
2.5183237e-30
8.8092347e-35
6.9502452e-40
2.0206208e-45
4.3103641e-51
7.4753612e-57
5.7134846e-63
0.00033909598
0.00029939463
0.00030469398
0.00034656966
0.00036329505
0.00032714806
0.00026696932
0.00022643069
0.00022951005
0.00025817279
0.00028445183
0.00028994608
0.00024993136
0.00017093273
0.00010185753
6.3573283e-05
4.0524609e-05
1.9813863e-05
5.8361786e-06
1.0580343e-06
1.4738177e-07
1.8636169e-08
0.00038297598
0.00038589819
0.00034944656
0.00031865635
0.00030568826
0.00028072472
0.00019880895
8.444026e-05
1.9847459e-05
2.1726082e-06
1.8573732e-07
8.8195293e-09
3.8488218e-10
1.0004454e-10
4.6323767e-11
2.0092938e-11
8.0310756e-12
2.9741317e-12
1.0168706e-12
3.1984951e-13
9.2314209e-14
2.4384995e-14
5.8811374e-15
1.2919189e-15
2.5780272e-16
4.6586753e-17
7.5939745e-18
1.1111118e-18
1.450208e-19
3.2641779e-22
2.5797465e-25
5.783024e-29
2.8889591e-33
3.1477111e-38
1.1131554e-43
2.3909565e-49
5.0300383e-55
7.5413111e-61
5.256055e-67
0.00037463696
0.00033625344
0.00030534099
0.00031649655
0.00035450569
0.00036215084
0.00031817574
0.00025147289
0.00020538841
0.00020481978
0.00023351016
0.00026055532
0.00026041368
0.00020464018
0.00012081558
5.9680719e-05
3.0524412e-05
1.5870197e-05
5.8633367e-06
1.2053771e-06
1.5028773e-07
1.5233915e-08
1.4778638e-09
0.00037531257
0.00033676108
0.00030706307
0.00030298128
0.00029637379
0.00023983326
0.00012568212
3.8479092e-05
6.4827443e-06
5.0173331e-07
3.7101578e-08
2.3200423e-09
3.7940217e-10
1.5038546e-10
6.6062644e-11
2.7295452e-11
1.0449057e-11
3.7397754e-12
1.2426002e-12
3.8055583e-13
1.0713218e-13
2.7656157e-14
6.5323463e-15
1.4085726e-15
2.7658126e-16
4.9301294e-17
7.9467749e-18
1.1525723e-18
3.3656534e-21
3.5571247e-24
1.1008434e-27
7.7470284e-32
1.1618826e-36
5.1864433e-42
1.167267e-47
2.4172973e-53
4.9297391e-59
7.0066693e-65
4.7156751e-71
0.00035794493
0.00036069079
0.00033127417
0.00031069271
0.00032657281
0.00035945366
0.00035807321
0.00030636279
0.0002332884
0.00018195725
0.00017741904
0.0002041256
0.00023123661
0.00021741719
0.0001486487
7.1345579e-05
2.7538412e-05
1.1187159e-05
4.5692228e-06
1.2237605e-06
1.7375622e-07
1.5055521e-08
1.1612026e-09
8.7977121e-11
0.00031910166
0.00029159283
0.00029629053
0.00030648544
0.00027394358
0.00017091906
6.481001e-05
1.4541865e-05
1.836358e-06
1.4389091e-07
1.9897576e-08
3.3236621e-09
6.9765877e-10
2.253887e-10
8.9500673e-11
3.4882835e-11
1.281575e-11
4.4507399e-12
1.4386936e-12
4.2941309e-13
1.1803657e-13
2.9815777e-14
6.9070562e-15
1.464403e-15
2.8346105e-16
4.9941491e-17
7.9773783e-18
2.9897029e-20
4.1766308e-23
1.7627229e-26
1.7286307e-30
3.553931e-35
2.0341249e-40
5.1625021e-46
9.9264935e-52
2.1857791e-57
4.5709779e-63
6.3699546e-69
4.1204686e-75
0.00029723346
0.00033484391
0.00034344969
0.00032545277
0.00031515981
0.0003343251
0.00036119342
0.00035068155
0.00029142984
0.00021196954
0.00015636793
0.00014787479
0.00017425598
0.00019143949
0.00016072736
9.0530993e-05
3.2938276e-05
9.4716278e-06
2.9897343e-06
9.3255968e-07
1.7766891e-07
1.7432554e-08
1.0987241e-09
6.687246e-11
3.9802377e-12
0.00027324456
0.00028692084
0.00031314659
0.0003029158
0.00021706869
9.8805392e-05
2.777485e-05
4.8551257e-06
6.9643568e-07
1.7988531e-07
4.7494683e-08
9.2045608e-09
1.5313477e-09
3.3008116e-10
1.126102e-10
4.1651783e-11
1.4810918e-11
5.0130797e-12
1.5780697e-12
4.5951135e-13
1.2348122e-13
3.0563333e-14
6.9555123e-15
1.4526323e-15
2.7775237e-16
4.8473922e-17
2.3080497e-19
4.2173206e-22
2.4017692e-25
3.2531351e-29
9.1395766e-34
6.7405498e-39
2.0267441e-44
3.8285293e-50
7.7612836e-56
1.9687415e-61
4.1926367e-67
5.6415817e-73
3.5072301e-79
0.00025303104
0.0002720298
0.00030891642
0.00032492913
0.00031905906
0.00031813209
0.00033907132
0.00035920483
0.00034000496
0.00027250295
0.00018751722
0.00012914315
0.00011889446
0.0001378689
0.00014060777