/*--------------------------------*- C++ -*----------------------------------*\
| =========                 |                                                 |
| \\      /  F ield         | OpenFOAM: The Open Source CFD Toolbox           |
|  \\    /   O peration     | Version:  5.0                                   |
|   \\  /    A nd           | Web:      www.OpenFOAM.org                      |
|    \\/     M anipulation  |                                                 |
\*---------------------------------------------------------------------------*/
FoamFile
{
    version     2.0;
    format      ascii;
    class       volScalarField;
    location    "260";
    object      p;
}
// * * * * * * * * * * * * * * * * * * * * * * * * * * * * * * * * * * * * * //

dimensions      [0 2 -2 0 0 0 0];

internalField   nonuniform List<scalar> 
9520
(
5.4107777e-05
5.4561546e-05
2.5776443e-05
5.51144e-05
2.8035321e-05
3.8064174e-05
5.5413696e-05
3.1895364e-05
4.2195282e-05
3.2760491e-05
5.5207703e-05
3.6645578e-05
4.9238099e-05
3.9247135e-05
3.3128145e-05
5.4272559e-05
4.1570639e-05
5.7821497e-05
5.0390254e-05
4.2231381e-05
2.3907571e-05
5.2395138e-05
4.5910032e-05
6.6686681e-05
6.412963e-05
5.7884738e-05
3.6361748e-05
1.1903359e-05
4.9235622e-05
4.9235453e-05
7.4654443e-05
7.8655451e-05
7.7371352e-05
5.7811871e-05
2.7781567e-05
-8.6317499e-06
4.4557965e-05
5.1218653e-05
8.0855168e-05
9.2357807e-05
9.8206074e-05
8.4823337e-05
5.5568223e-05
1.0909506e-05
-3.6826954e-05
3.876108e-05
5.1929009e-05
8.475071e-05
0.00010381823
0.00011811124
0.00011413297
9.1309308e-05
4.5584402e-05
-1.3020105e-05
-7.4929328e-05
3.2718955e-05
5.1424811e-05
8.6416672e-05
0.00011200911
0.00013502134
0.00014282209
0.00013122334
9.1010956e-05
2.9539914e-05
-4.6728048e-05
-0.00012338147
2.6109695e-05
4.9234396e-05
8.5838198e-05
0.00011642866
0.00014724444
0.00016829225
0.00017156239
0.0001432218
8.5972171e-05
4.104679e-06
-9.0781363e-05
-0.00018290465
1.8827138e-05
4.9692069e-05
8.4051583e-05
0.00011697988
0.00015359958
0.00018801538
0.00020920373
0.00019804345
0.00015183894
7.2308435e-05
-3.1584687e-05
-0.00014607212
-0.00025382533
1.3282071e-05
5.8370173e-05
8.2741607e-05
0.00011576551
0.00015319007
0.0001991849
0.00024109911
0.00025155182
0.00022276765
0.00015299546
4.8719261e-05
-7.8734025e-05
-0.00021308892
-0.00033620963
1.4048988e-05
6.7457181e-05
8.5657121e-05
0.00011052487
0.00014293051
0.00019900341
0.00026434299
0.00030032176
0.00029450711
0.0002415075
0.00014518905
1.3524368e-05
-0.00013814799
-0.00029205571
-0.00042979748
1.4919421e-05
7.3290293e-05
9.3606267e-05
9.3541767e-05
0.00011708264
0.00018419747
0.00027574484
0.00034154375
0.00036343433
0.00033379026
0.00025311641
0.00012579886
-3.4587364e-05
-0.00021034985
-0.00038288508
-0.00053403299
3.2405887e-05
8.2025513e-05
0.0001265064
6.4354007e-05
8.375713e-05
0.00015340557
0.00027319594
0.00037371129
0.0004268634
0.00042596972
0.00036824852
0.0002534803
9.2960851e-05
-9.6367836e-05
-0.00029550337
-0.00048519685
-0.00064808001
2.1772742e-05
0.0001045792
0.00017817918
3.6152929e-05
4.4258943e-05
0.00010670882
0.00025748698
0.00039707402
0.0004833413
0.00051457437
0.00048629818
0.00039202657
0.00024009774
4.5690928e-05
-0.0001722637
-0.00039358249
-0.00059828608
-0.00077086517
5.1951514e-05
0.00012641201
0.00021564038
1.2202056e-05
-1.6270406e-05
4.031478e-05
0.00022573006
0.00041160014
0.00053260249
0.00059643241
0.00060319382
0.00053674077
0.00040213805
0.00021172116
-1.6876343e-05
-0.00026320849
-0.00050426261
-0.00072115177
-0.0009011392
2.0361148e-05
0.00014693015
0.00030169551
2.2099859e-05
-9.6828615e-05
-5.4088815e-05
0.00017285839
0.00041723253
0.00057483442
0.00066964316
0.00071521497
0.00068297939
0.00057424847
0.00039725805
0.00016675195
-9.6969983e-05
-0.00036926576
-0.00062658088
-0.00085260416
-0.0010375579
4.7557665e-05
0.00017317291
0.0003820802
6.4024234e-05
-0.00019062235
-0.00018889871
9.6387726e-05
0.0004166738
0.00061515287
0.00073274406
0.00081900674
0.00082589297
0.00075136259
0.00059768986
0.00037486374
0.00010198738
-0.00019530014
-0.00048947779
-0.00075946821
-0.00099132181
-0.0011787332
9.1005479e-06
0.00017356034
0.00057062701
0.00014617359
-0.00031637417
-0.00037500543
-5.1834828e-06
0.00040776663
0.00065933841
0.00079128736
0.00091177604
0.00095975448
0.00092797704
0.00080812765
0.00060332769
0.00033050812
1.5567953e-05
-0.00031093717
-0.00062295998
-0.00090171387
-0.001135932
-0.0013231971
1.6218121e-05
0.00018169529
0.00073317746
0.00027337611
-0.00045115287
-0.00062452134
-0.00014006835
0.00038581951
0.000711219
0.00083566081
0.00098657923
0.0010781163
0.0010978822
0.0010233547
0.00084775084
0.00058500859
0.00026088162
-9.1819606e-05
-0.00044273765
-0.00076873652
-0.0010520101
-0.0012849943
-0.0014694249
1.941822e-05
0.00013973085
0.0010850681
0.0003759902
-0.00062797854
-0.00093208261
-0.00032250254
0.0003617162
0.00077387277
0.00088101767
0.0010254332
0.0011712381
0.0012544901
0.0012378762
0.0011035908
0.00086162551
0.000537778
0.00016668019
-0.00021852037
-0.00059055879
-0.00092557776
-0.0012089139
-0.001436927
-0.0016159727
5.1161158e-05
0.00016308601
0.001350127
0.00056365009
-0.00080462535
-0.0013495467
-0.00056948533
0.00032870008
0.0008665106
0.00094584918
0.0010310454
0.0012420246
0.0013905611
0.001446335
0.0013665578
0.001156357
0.00084287392
0.00046246569
4.9580929e-05
-0.00036547782
-0.0007532764
-0.0010920472
-0.0013707719
-0.0015901458
-0.0017614792
4.9847006e-05
4.8396355e-05
0.0016818185
0.00082370439
-0.0010599297
-0.0018188586
-0.00089223336
0.00029881754
0.0010035478
0.0010389956
0.0010149245
0.0012789854
0.0015039344
0.0016439982
0.0016327775
0.0014658364
0.0011726545
0.00079264068
0.00036028459
-9.2384668e-05
-0.0005318711
-0.00092946881
-0.001266543
-0.0015359623
-0.0017432452
-0.0019045997
0.00012433873
-0.00012122596
0.0019747104
0.0012216023
-0.001326861
-0.002435085
-0.0013068587
0.00027417531
0.0012133169
0.0011680941
0.00098872687
0.0012564619
0.0015839611
0.0018253144
0.001899595
0.001787489
0.001524292
0.0011537925
0.00071110507
0.0002284346
-0.00025875097
-0.0007163913
-0.0011176622
-0.0014474486
-0.0017029541
-0.0018948662
-0.0020440999
0.00029662508
-0.00028479327
0.0026031432
0.0018084992
-0.0017660555
-0.0030349124
-0.0018677958
0.00025246786
0.0015135248
0.0013529498
0.00094454315
0.0011630423
0.0016093151
0.0019826806
0.0021679042
0.0021229826
0.0018962028
0.0015422711
0.0010983412
0.00059515161
6.7081305e-05
-0.0004484497
-0.00091764154
-0.001316233
-0.001632765
-0.0018699806
-0.0020436157
-0.0021788841
0.00038183446
-0.00015222442
0.003176419
0.0023451934
-0.0022952011
-0.0038982721
-0.0026371668
0.00022227048
0.0019237362
0.0015932429
0.00089309148
0.00097716372
0.0015599755
0.0021036696
0.002437544
0.0024746634
0.0022883878
0.0019547872
0.0015172793
0.0010040834
0.00044477123
-0.00012308715
-0.0006603655
-0.0011340865
-0.0015229385
-0.0018203236
-0.0020354171
-0.0021882626
-0.00230797
0.00044305525
0.00015546208
0.0033499026
0.0028505075
-0.0031753783
-0.0047405555
-0.0035228923
0.0001981188
0.0024742727
0.0019179552
0.00082234896
0.0006907474
0.0014052311
0.0021786708
0.0027007387
0.0028457104
0.0027007781
0.0023886165
0.0019626137
0.0014497919
0.00087110469
0.0002601137
-0.00034141148
-0.00089321671
-0.0013635897
-0.0017357673
-0.0020089493
-0.0021981499
-0.002327705
-0.0024305425
0.00035991329
0.00054261376
0.0032356224
0.0034791135
-0.0039740432
-0.0073729433
-0.0043995884
0.00022927063
0.0031549404
0.0023329425
0.00075036653
0.00025711522
0.0011206391
0.0021895103
0.0029624256
0.0032396266
0.0031380924
0.0028416893
0.0024278822
0.0019248195
0.0013407069
0.0006993262
4.1527992e-05
-0.00058690087
-0.0011450539
-0.0016041972
-0.001953067
-0.0021971687
-0.0023569534
-0.0024610735
-0.0025459042
0.00023304383
0.00098927833
0.0031546879
0.0040701688
-0.0049895379
-0.0081182617
-0.005611525
0.00017297115
0.0039650091
0.0028422718
0.00066740228
-0.00034200052
0.00065573138
0.0021165324
0.0032200126
0.0036706606
0.0036072948
0.0033156676
0.0029071587
0.0024198827
0.0018473261
0.0011914566
0.00048894511
-0.00021074188
-0.00085830077
-0.001413755
-0.0018536738
-0.0021722571
-0.0023829426
-0.0025104703
-0.0025875167
-0.0026533653
8.4064519e-05
0.0013742502
0.0033299069
0.0042862923
-0.0061849433
-0.0092058313
-0.0074811151
-0.00021842135
0.0048783335
0.0034361843
0.00057872934
-0.0011930809
-2.1255953e-05
0.0019328072
0.0034772027
0.0041473022
0.0041214267
0.003811549
0.0034003769
0.0029276308
0.0023854483
0.0017307979
0.0009986944
0.00023732646
-0.00049687513
-0.0011531946
-0.0016963999
-0.0021092153
-0.0023912647
-0.0025646066
-0.0026575215
-0.0027060512
-0.0027523974
-6.9457554e-05
0.001652422
0.0033122933
0.0042728646
-0.0074384412
-0.0099214101
-0.009594524
-0.0005774243
0.0062476628
0.0040627074
0.00042694172
-0.002293117
-0.00098975165
0.0016039917
0.0037247176
0.0046907605
0.0046896742
0.0043403649
0.003898029
0.0034337591
0.0029420207
0.0023065909
0.0015637231
0.00075657356
-5.6679825e-05
-0.00081450713
-0.0014686859
-0.0019900178
-0.0023682423
-0.0026086137
-0.0027409162
-0.0027969462
-0.0028160231
-0.0028429598
-0.00021893953
0.0017523072
0.0031410081
0.0041877902
-0.0086439313
-0.010846531
-0.011406679
-0.00049110067
0.0076501902
0.0047137632
0.00022972387
-0.0037785498
-0.0022884393
0.0010973109
0.0039539646
0.0053136555
0.0053341483
0.0049059371
0.0044013396
0.0039259547
0.0034758339
0.0029033663
0.0021734934
0.0013414673
0.00046354894
-0.00039131953
-0.0011609583
-0.0018026347
-0.0022922306
-0.002629286
-0.0028216796
-0.0029112657
-0.0029283529
-0.0029177484
-0.0029250067
-0.0003474659
0.0016600183
0.0027938461
0.0039745303
-0.0095360077
-0.012403456
-0.012660945
-0.00033833669
0.008588803
0.0053849107
-9.0944664e-05
-0.0056271631
-0.004009037
0.00035463145
0.0041405116
0.0060377265
0.0060626794
0.0055249524
0.0049033797
0.0043957407
0.0039794033
0.0034998732
0.0028132517
0.0019846426
0.0010615335
0.0001203449
-0.00076462631
-0.001534376
-0.0021516028
-0.0026005262
-0.002890047
-0.0030286347
-0.0030746929
-0.0030515159
-0.0030108479
-0.0029983985
-0.0004418779
0.0013518527
0.0022739342
0.0036144556
-0.010364837
-0.013622139
-0.013639656
5.4588611e-05
0.008894311
0.0061792431
-0.00049350496
-0.0080875913
-0.0061250462
-0.0006789061
0.0042326208
0.0068741171
0.0068965998
0.0061867167
0.0054131928
0.0048208921
0.0044408693
0.0040750902
0.0034798797
0.0026755068
0.0017331239
0.00072151302
-0.0002714918
-0.0011734235
-0.0019303484
-0.0025122254
-0.0029128693
-0.0031488472
-0.0032338774
-0.0032284137
-0.0031655315
-0.0030950074
-0.0030631592
-0.00049415311
0.00084222703
0.0015625385
0.0030660517
-0.011048357
-0.014648491
-0.014686788
-0.00026433051
0.0092254933
0.0067496927
-0.001372256
-0.010680658
-0.0087949101
-0.0020927978
0.0042027386
0.0078213523
0.0078320811
0.0069291956
0.0059138151
0.0051933394
0.0048263766
0.0046014251
0.0041476259
0.0034129456
0.0024721986
0.0014100618
0.00032104617
-0.00071008415
-0.0016145181
-0.0023454844
-0.0028816733
-0.0032254041
-0.0033984734
-0.0034298833
-0.0033722194
-0.0032699202
-0.0031701076
-0.0031193861
-0.00049860043
0.00015379538
0.00069681432
0.0023220583
-0.011429238
-0.015499075
-0.015578123
-0.0010432115
0.0088214006
0.0068579557
-0.0023274798
-0.014483725
-0.012306366
-0.0038705908
0.0039260817
0.0088969339
0.0088554699
0.0077219041
0.00642657
0.0054741583
0.0051144963
0.0050445972
0.0047918141
0.0041771545
0.0032763903
0.0021860878
0.0010142188
-0.00013881715
-0.0011923133
-0.0020841248
-0.0027763831
-0.0032564021
-0.0035352467
-0.003642529
-0.0036149265
-0.0035062051
-0.0033646217
-0.0032361802
-0.0031672585
-0.00047397462
-0.00069095861
-0.000292388
0.0013512103
-0.011494461
-0.015920238
-0.016224769
-0.0019315419
0.0078994095
0.0068369731
-0.0038622035
-0.018187022
-0.016819494
-0.006277177
0.0032423426
0.010013396
0.0099376012
0.0085628765
0.0069154346
0.0056605146
0.0052384304
0.0053775367
0.0053835383
0.0049518536
0.0041370297
0.0030428931
0.0018089154
0.00054482372
-0.00065490934
-0.0017140433
-0.0025784982
-0.0032191255
-0.0036328503
-0.0038401986
-0.0038777435
-0.0037886799
-0.0036298195
-0.0034495198
-0.0032933662
-0.0032070416
-0.0016273115
-0.00044570518
-0.0013479411
0.00017117822
-0.011162043
-0.015889965
-0.016515165
-0.003087863
0.0062946154
0.0067659401
-0.0049718183
-0.022412527
-0.022032914
-0.010066116
0.0017813573
0.011117766
0.010929635
0.0093957294
0.0073952464
0.0056930254
0.0051723346
0.0055322624
0.005892304
0.0057191364
0.0050413937
0.0039795571
0.0027016703
0.0013403917
3.1760837e-06
-0.0012237676
-0.0022714755
-0.0030931312
-0.0036694032
-0.004007609
-0.0041373309
-0.004102038
-0.0039513974
-0.0037428379
-0.0035247344
-0.0033419466
-0.0032390524
-0.0023800432
-0.0025476718
-0.00045586688
-0.0011752386
-0.010440896
-0.015307999
-0.016331346
-0.0044695253
0.0040471911
0.0058006984
-0.0051475986
-0.026719376
-0.027369036
-0.014665111
-0.00062420921
0.012226848
0.011829721
0.010151987
0.0077937176
0.005571433
0.0048230983
0.0054669261
0.0062728601
0.0064612496
0.0059793035
0.0049930885
0.0036902584
0.0022498112
0.00078552223
-0.00060514599
-0.0018412344
-0.0028595853
-0.0036229285
-0.0041228091
-0.0043769997
-0.0044240719
-0.0043141552
-0.0041023428
-0.0038450333
-0.0035904117
-0.0033821803
-0.003263636
-0.002614653
-0.0033678976
-0.0033764522
-0.00050184189
-0.0093374431
-0.014145649
-0.015583168
-0.0060261046
0.0010990853
0.0039212438
-0.0053713505
-0.030454181
-0.032417423
-0.019078606
-0.0028795569
0.013271877
0.012434263
0.010714126
0.008115745
0.005193529
0.0041636596
0.0050650608
0.0064831944
0.0071489462
0.0069475027
0.0060771654
0.0047725705
0.0032707789
0.0016901327
0.00014602411
-0.0012767434
-0.0025015908
-0.0034724277
-0.0041626574
-0.0045748618
-0.0047376952
-0.004698509
-0.0045135928
-0.0042411272
-0.0039363753
-0.0036466699
-0.0034143954
-0.0032811939
-0.007954661
-0.0041590498
-0.0042919509
-0.0040169184
-0.00057774045
-0.012432519
-0.014271603
-0.0077185837
-0.0025053847
0.0011836047
-0.006080411
-0.033655348
-0.038958306
-0.024028137
-0.004515328
0.013265902
0.01292083
0.010912817
0.0082220837
0.004569747
0.0030273698
0.0042960192
0.0064395127
0.0077565198
0.0079292364
0.0072304811
0.0059498811
0.0043936963
0.0027160945
0.0010298259
-0.00057194896
-0.0020055323
-0.0031984151
-0.0041041297
-0.0047069705
-0.0050213281
-0.0050868885
-0.0049593158
-0.0046996534
-0.0043674834
-0.0040169129
-0.0036938902
-0.0034390396
-0.0032921396
-0.010284956
-0.0063572228
-0.0055741465
-0.0051184316
-0.0044596732
-0.0006840984
-0.012417062
-0.0095940732
-0.0066960815
-0.002498498
-0.0069983533
-0.036826373
-0.043753164
-0.030020714
-0.0082100443
0.012650357
0.012213395
0.010594104
0.0081524957
0.0035175224
0.0013957841
0.0028965544
0.0060717019
0.0082377977
0.0089282441
0.0084478799
0.00722102
0.0056146872
0.0038550969
0.0020411382
0.00027435686
-0.0013618351
-0.0027837333
-0.0039248448
-0.0047486452
-0.0052506454
-0.0054583878
-0.0054223724
-0.0052053725
-0.0048716612
-0.0044812886
-0.0040868907
-0.0037324927
-0.003456513
-0.003296894
-0.0099094327
-0.0077451591
-0.0046787219
-0.0067789266
-0.0057983911
-0.0046939807
-0.00081356917
-0.011633846
-0.011310997
-0.0068251664
-0.0081270167
-0.039555504
-0.048789032
-0.035493622
-0.013194206
0.0089685655
0.012451791
0.0096276652
0.0075776137
0.0021119391
-0.0010588627
0.0010836677
0.0052443015
0.0085466798
0.0099159803
0.0097402468
0.0085780336
0.0069348845
0.0050921316
0.0031720256
0.0012565749
-0.00056819432
-0.0022158201
-0.0036047621
-0.0046747848
-0.0053997622
-0.0057887629
-0.005882773
-0.0057423084
-0.0054355997
-0.0050291306
-0.0045827037
-0.0041468106
-0.0037628659
-0.0034672444
-0.0032958479
-0.013554466
-0.0070240793
-0.0051287539
-0.003013234
-0.0077378449
-0.0062882486
-0.004695914
-0.00095074757
-0.016026941
-0.011254922
-0.0097845278
-0.041472827
-0.0529019
-0.040685469
-0.018755799
0.0046539034
0.0099475136
0.0079280683
0.006740326
-7.9011438e-05
-0.0043021968
-0.0020894537
0.0038470481
0.0085953289
0.010886526
0.011088613
0.010022572
0.0083319507
0.0064216449
0.0044038384
0.0023626725
0.00037164062
-0.0014884372
-0.0031268232
-0.0044617821
-0.0054413599
-0.0060514698
-0.0063168724
-0.006291682
-0.0060449422
-0.0056490945
-0.0051720334
-0.0046721916
-0.0041970175
-0.0037853554
-0.0034714978
-0.0032894199
-0.020577263
-0.015289959
-0.0042769092
-0.0026297944
-0.0015095423
-0.0084089501
-0.0065557985
-0.0045014082
-0.0010937474
-0.015639751
-0.012076389
-0.042415364
-0.055903196
-0.044790967
-0.024790198
-0.00097354747
0.0071025896
0.00507824
0.0050380751
-0.002549483
-0.0088595986
-0.0061853213
0.0017036793
0.0082372174
0.011751107
0.012489652
0.011524042
0.0098182459
0.0078184141
0.0057192221
0.0035733121
0.0014441424
-0.0006036667
-0.0024804053
-0.0040884876
-0.0053478733
-0.006217444
-0.0066981036
-0.0068309623
-0.0066825
-0.0063287396
-0.0058455418
-0.005300768
-0.0047499656
-0.0042374038
-0.0037999264
-0.0034696855
-0.0032782303
-0.019621407
-0.02461786
-0.016585686
-0.001770467
-0.00040965341
-0.00028429612
-0.0088107485
-0.0066360363
-0.0041235557
-0.0012302587
-0.015036147
-0.04223472
-0.057407955
-0.047679124
-0.030855483
-0.0074158818
0.0019734025
0.0020118633
0.0032111627
-0.0063729625
-0.014130178
-0.01206602
-0.0013512421
0.0072669326
0.012434168
0.013892464
0.013078094
0.011339744
0.0092768464
0.0070861442
0.0048624548
0.0026276571
0.00042739008
-0.0016629283
-0.0035383987
-0.0050942174
-0.006255979
-0.0069962943
-0.007334345
-0.0073272148
-0.0070528406
-0.0065929526
-0.0060252058
-0.0054153214
-0.0048153949
-0.0042677484
-0.0038073152
-0.0034629528
-0.0032628455
-0.018341732
-0.022912147
-0.027787655
-0.017234109
0.00048251229
0.0014555004
0.00066286266
-0.0089714393
-0.0065201373
-0.0035830893
-0.0013172228
-0.04067038
-0.057163287
-0.049220501
-0.036359015
-0.014560004
-0.0049709978
-0.0025490941
0.0018579262
-0.0096174237
-0.021716201
-0.018981483
-0.0055732094
0.0053873138
0.012773796
0.015219406
0.014637729
0.012877896
0.010731256
0.0084853374
0.006191551
0.0038916688
0.001582795
-0.00068147364
-0.0028024165
-0.0046570952
-0.0061369198
-0.0071782844
-0.0077712461
-0.0079549581
-0.0078020682
-0.0074012121
-0.006837608
-0.0061877573
-0.00551441
-0.0048679539
-0.0042894673
-0.0038096858
-0.00345231
-0.0032430457
-0.037606079
-0.021587094
-0.025449929
-0.030048243
-0.017335064
0.002401308
0.0029301085
0.0012956167
-0.0089715793
-0.0062187667
-0.0030209968
-0.0013316415
-0.054911616
-0.049405873
-0.040364331
-0.022123712
-0.013899236
-0.0087376811
-0.0011811071
-0.011946211
-0.029109899
-0.029005824
-0.011648842
0.0024951551
0.012501411
0.01639151
0.016093472
0.014363008
0.012168372
0.0098451316
0.0075301577
0.005191936
0.0028299277
0.00044556478
-0.0018810298
-0.0040197264
-0.0058311315
-0.0072089757
-0.0081067527
-0.0085355426
-0.0085549062
-0.008252989
-0.0077272292
-0.0070617266
-0.006331083
-0.0055970381
-0.0049100762
-0.0043063371
-0.0038084462
-0.0034362809
-0.0032170421
-0.050735174
-0.03314679
-0.023806951
-0.027284483
-0.031302454
-0.016981308
0.0038768523
0.0039777128
0.0016474795
-0.0088611783
-0.005964449
-0.0024331214
-0.0011981274
-0.04818242
-0.042409687
-0.030037895
-0.024448621
-0.016986386
-0.0068205044
-0.014619948
-0.036720709
-0.039506321
-0.020636117
-0.0022381603
0.011323225
0.017222856
0.017406432
0.015674741
0.013482659
0.011151813
0.0088012764
0.0064880436
0.0041217587
0.0016866804
-0.00078577457
-0.0031733727
-0.0053126959
-0.0070539929
-0.0083021948
-0.0090332808
-0.009282403
-0.009130303
-0.0086787586
-0.0080301403
-0.0072623507
-0.0064535092
-0.0056668693
-0.0049477143
-0.0043198295
-0.0037993634
-0.0034103672
-0.003185492
-0.045421692
-0.044545723
-0.027882706
-0.024347912
-0.028356951
-0.031599906
-0.016250849
0.0049331732
0.0046272477
0.0017316024
-0.0086044428
-0.0052468664
-0.0019440243
-0.0010625011
-0.042072492
-0.03810198
-0.036194023
-0.02762189
-0.014019893
-0.018995029
-0.043230082
-0.05376941
-0.033727039
-0.0096484813
0.0087180595
0.017312096
0.018242789
0.016845067
0.014591359
0.012280662
0.009985525
0.0076970875
0.0054091969
0.002996002
0.00045758201
-0.002119659
-0.0045621138
-0.0066779518
-0.0083172035
-0.0094072893
-0.0099492238
-0.010006193
-0.0096789545
-0.0090771103
-0.0083055094
-0.0074366697
-0.0065601376
-0.0057327506
-0.0049821485
-0.0043211046
-0.0037733382
-0.0033787429
-0.0031488012
-0.038549772
-0.040921593
-0.0369121
-0.0221033
-0.023646918
-0.028562052
-0.031013229
-0.015172464
0.0056226414
0.0050077162
0.0016777722
-0.0082493066
-0.0052047173
-0.0015406228
-0.00083186919
-0.045626938
-0.048614067
-0.040215404
-0.022498072
-0.024568028
-0.050847627
-0.066958581
-0.053443449
-0.019833471
0.0057827149
0.016393302
0.01855152
0.017360595
0.015426909
0.013190902
0.010948596
0.0087922065
0.0066039518
0.004318372
0.0018088361
-0.00087381416
-0.0035684591
-0.0060498325
-0.0081089073
-0.0096112748
-0.010513562
-0.010846786
-0.01070322
-0.010197688
-0.0094416295
-0.0085455645
-0.0075913358
-0.0066634839
-0.0057957864
-0.0049979312
-0.0042949526
-0.0037409437
-0.0033417397
-0.0031069384
-0.051785133
-0.032891455
-0.034877302
-0.028471415
-0.016289895
-0.021970823
-0.027985056
-0.029695718
-0.013843049
0.0059052339
0.0050611405
0.0013267622
-0.0076315474
-0.005076542
-0.00142332
-0.00065874345
-0.061195738
-0.054159221
-0.032319409
-0.030767657
-0.059251159
-0.081929477
-0.072372793
-0.035160302
-0.0018981173
0.015980375
0.017363458
0.018547752
0.0156485
0.013757103
0.011680202
0.0096253844
0.0076681647
0.0055639986
0.0032121901
0.00053454514
-0.0023322735
-0.0051448211
-0.0076344174
-0.0095964421
-0.010926164
-0.011610826
-0.011720271
-0.011368854
-0.010678195
-0.0097705341
-0.0087619612
-0.0077434275
-0.0067645009
-0.0058313656
-0.0049719578
-0.0042611953
-0.0037028257
-0.0032993307
-0.0030598309
-0.07285846
-0.056030905
-0.02698759
-0.027539697
-0.019960143
-0.010790134
-0.019336698
-0.026625043
-0.027770558
-0.012598208
0.0058600844
0.0048525797
0.00073933881
-0.0066267383
-0.004646711
-0.0015307568
-0.00051727196
-0.06847579
-0.043243802
-0.037298094
-0.068059242
-0.096584617
-0.092690099
-0.053368614
-0.013359769
0.0098521145
0.01652435
0.014462173
0.015384772
0.01380328
0.012013241
0.010203425
0.0084354235
0.0066798266
0.0045824095
0.002056778
-0.00086761387
-0.0039455418
-0.0068545619
-0.0093097493
-0.011132501
-0.012248967
-0.012690749
-0.012563004
-0.011992266
-0.011111836
-0.010069927
-0.0089767941
-0.0078937506
-0.0068266792
-0.0058063299
-0.0049363916
-0.0042212138
-0.0036589554
-0.0032513793
-0.0030073803
-0.081082438
-0.082367682
-0.057603341
-0.021313476
-0.019754839
-0.011880214
-0.0055801238
-0.016180344
-0.024418462
-0.025617981
-0.011313974
0.0059705238
0.004745173
0.00018291627
-0.0054682955
-0.0040814557
-0.0013246269
-0.00040337774
-0.054495757
-0.043771141
-0.076286102
-0.10982995
-0.11250557
-0.072442336
-0.028623443
0.0027757755
0.012741932
0.013217587
0.013698403
0.013325977
0.011901899
0.010312698
0.0089194038
0.0074835377
0.0058514445
0.0036201037
0.00079184038
-0.0024461926
-0.0057340538
-0.0086986803
-0.011073363
-0.012703207
-0.013566172
-0.013744017
-0.013360921
-0.012561362
-0.011508874
-0.010365332
-0.0091903467
-0.0079911563
-0.0068041359
-0.0057686679
-0.0048939962
-0.0041751399
-0.0036093958
-0.0031978846
-0.0029496459
-0.064046962
-0.090221059
-0.088157703
-0.056928311
-0.016398647
-0.011965988
-0.0047496312
-0.00077961943
-0.012946518
-0.021746101
-0.022879233
-0.0095230381
0.0058541923
0.0048123981
-0.00036098094
-0.0041976316
-0.0035390586
-0.0012311988
-0.00037115424
-0.0498622
-0.082693878
-0.12024712
-0.13112578
-0.092131169
-0.047017766
-0.0078661928
0.0092747588
0.0092652383
0.01150806
0.011938927
0.011207825
0.010001405
0.0088512886
0.0079833631
0.0068312171
0.005148858
0.0025940495
-0.0006594899
-0.0042474482
-0.0077093138
-0.010687176
-0.012908573
-0.014288007
-0.014865761
-0.014752823
-0.014097614
-0.013087332
-0.011909445
-0.010660494
-0.0093338587
-0.0079739867
-0.0067643144
-0.0057234814
-0.0048451499
-0.0041231757
-0.0035540821
-0.0031389103
-0.002886498
-0.055636658
-0.07101971
-0.094982171
-0.090259935
-0.054766359
-0.012691034
-0.0051977209
0.0012007255
0.0034054881
-0.0098821971
-0.018548171
-0.020036913
-0.0077374065
0.0052810986
0.0045482667
-0.00041981683
-0.0032929973
-0.0034596886
-0.0010884038
-0.00026540094
-0.08625687
-0.12619138
-0.14540477
-0.11262914
-0.066486177
-0.021044573
-0.00029155467
0.0068423571
0.0072995982
0.0099492077
0.0098304065
0.0089304993
0.0083109258
0.0078369923
0.0075099896
0.0064638008
0.0044689513
0.0013882386
-0.0023783555
-0.0062984996
-0.0098835564
-0.012786218
-0.0147857
-0.015870571
-0.01612632
-0.015695195
-0.014784227
-0.013615441
-0.012311092
-0.010865339
-0.0093262147
-0.0079326059
-0.0067161301
-0.0056714044
-0.0047901492
-0.0040651492
-0.0034930312
-0.0030742104
-0.0028180832
-0.085721003
-0.060814223
-0.074886679
-0.095859159
-0.088631504
-0.051466211
-0.009808619
-6.5149285e-05
0.0059069559
0.0069236934
-0.0070186772
-0.015639866
-0.017270178
-0.0063456199
0.0046531645
0.0038762154
-0.000274096
-0.0025995872
-0.0019776877
-0.00095693994
-0.00023257367
-0.12619011
-0.15268188
-0.13071669
-0.08311721
-0.036606069
-0.012093434
-8.7358577e-05
0.0030441493
0.0063675048
0.0077217385
0.0073318239
0.0067987265
0.007144461
0.0074813049
0.0075290577
0.0062651899
0.003645157
-0.00012650106
-0.0044264195
-0.0086057051
-0.012250677
-0.014973655
-0.016686892
-0.017427277
-0.017318746
-0.016580361
-0.015475661
-0.014147241
-0.012596477
-0.010873252
-0.0092849294
-0.0078816403
-0.0066606718
-0.0056128641
-0.0047287211
-0.0040011558
-0.0034261311
-0.0030042097
-0.0027442386
-0.12018089
-0.080301372
-0.06249454
-0.075667672
-0.093031568
-0.083783763
-0.047209248
-0.0072708864
0.0036206679
0.0095389947
0.0095668123
-0.0049662005
-0.012831269
-0.014201314
-0.0047195841
0.0037861253
0.0031582211
-0.00024239274
-0.0019490792
-0.001819506
-0.00073876158
-0.00015926316
-0.15132283
-0.14162644
-0.095311813
-0.052559563
-0.026731007
-0.010448825
-0.0034827352
0.0024863979
0.0047523647
0.0045943236
0.004846007
0.005311597
0.0068750438
0.0079125129
0.0079347353
0.00600748
0.0024817304
-0.0020588037
-0.0068218173
-0.0112044
-0.014766576
-0.017228995
-0.018586845
-0.018920342
-0.018447563
-0.017473891
-0.016175358
-0.014537685
-0.012628619
-0.010834295
-0.0092323088
-0.0078228974
-0.0065983113
-0.0055475265
-0.004661089
-0.0039312045
-0.0033538184
-0.0029285373
-0.0026651024
-0.14150636
-0.10800357
-0.071354562
-0.059138225
-0.072955186
-0.086867368
-0.076264826
-0.042419736
-0.0052399454
0.0056669469
0.010302065
0.01146448
-0.0038789084
-0.0098043166
-0.011301323
-0.0032908172
0.0029718545
0.002724072
-0.000227367
-0.0013776552
-0.0012322387
-0.0005738797
-0.00014613867
-0.14327503
-0.10288359
-0.067330973
-0.043334332
-0.026103513
-0.01362876
-0.0043970344
0.0018301594
0.0015915611
0.0012071672
0.0029407513
0.0049424079
0.0077355852
0.0090507067
0.0084424674
0.0053999354
0.00080435083
-0.0044567894
-0.0095893448
-0.014062763
-0.017408708
-0.019522779
-0.020437393
-0.020345631
-0.019589899
-0.018383804
-0.016700533
-0.01460668
-0.012595453
-0.010782108
-0.009170866
-0.0077566909
-0.0065286808
-0.0054755679
-0.0045873603
-0.0038557152
-0.0032756477
-0.0028473171
-0.0025806746
-0.1357553
-0.1241844
-0.091775321
-0.059719776
-0.052210813
-0.06667406
-0.07788111
-0.067096182
-0.03746288
-0.0042087278
0.0066492685
0.011731337
0.011606487
-0.0025770164
-0.006733893
-0.0087450481
-0.0022928973
0.0024121073
0.0022836945
-7.6335029e-05
-0.00093996701
-0.0010489802
-0.00040397319
-8.6981229e-05
-0.10391247
-0.079092833
-0.061008606
-0.045789133
-0.027950754
-0.015295823
-0.0034958683
-0.0013375074
-0.0022006519
-0.0017407089
0.0022284628
0.0061263769
0.009676211
0.010584416
0.0085737024
0.0041615795
-0.0014787655
-0.0073478025
-0.012753681
-0.017125704
-0.020148241
-0.021793114
-0.022220324
-0.021791778
-0.02076259
-0.019085471
-0.016822478
-0.014584428
-0.012547281
-0.010719455
-0.009101143
-0.0076825636
-0.0064518633
-0.0053973538
-0.0045079588
-0.0037741399
-0.0031914158
-0.0027607426
-0.0024911345
-0.098477637
-0.11974973
-0.10331955
-0.073032219
-0.046769169
-0.043268529
-0.057781393
-0.066652801
-0.057147092
-0.032974017
-0.0033169416
0.0082835761
0.01185966
0.011492364
-0.0010353243
-0.0044891582
-0.0059257116
-0.0015405571
0.0019955562
0.0019123848
0.00010154281
-0.0005818817
-0.00063081213
-0.00025237703
-4.7485217e-05
-0.085654727
-0.077868409
-0.067716805
-0.048185063
-0.030763378
-0.012780492
-0.0053682752
-0.0065060329
-0.0057504524
-0.003269099
0.0035392863
0.0089679663
0.012412594
0.011786503
0.0079521546
0.0021412274
-0.0044122409
-0.010766711
-0.016257493
-0.020352283
-0.022900059
-0.024002634
-0.024034513
-0.023291331
-0.021693118
-0.019285542
-0.016817912
-0.014545922
-0.01248597
-0.010647273
-0.0090225815
-0.007600505
-0.0063685137
-0.0053133419
-0.0044221343
-0.0036857783
-0.0031017384
-0.0026690378
-0.0023964908
-0.084970379
-0.088061578
-0.098756017
-0.081277149
-0.054281356
-0.033561548
-0.033229987
-0.047858065
-0.053407718
-0.047316889
-0.027624278
-0.0012719084
0.0095680171
0.014285693
0.010513254
0.00051009749
-0.0030238524
-0.0039506777
-0.00081428091
0.0016986017
0.0016312429
0.00028964802
-0.00025683064
-0.00037625367
-0.00011025127
4.9694827e-06
-0.092113554
-0.0908923
-0.073791483
-0.052038956
-0.026521827
-0.01219944
-0.011135564
-0.012313815
-0.0083167443
-0.0018384669
0.0071556988
0.0134255
0.015032487
0.012054946
0.0063520475
-0.00073027892
-0.0080309991
-0.014692441
-0.020011585
-0.023652219
-0.025610867
-0.026260796
-0.025938401
-0.024517344
-0.02200437
-0.019309743
-0.016797227
-0.014489884
-0.01241329
-0.010564832
-0.00893512
-0.0075114518
-0.0062791704
-0.0052223621
-0.0043285372
-0.0035918471
-0.0030068174
-0.0025723056
-0.0022968981
-0.10207578
-0.078985628
-0.074091246
-0.076683185
-0.060099538
-0.036829861
-0.021053124
-0.023012646
-0.037850419
-0.03951725
-0.036767246
-0.021833521
0.0012132867
0.010123259
0.01018925
0.0094836489
0.0015420969
-0.0016469403
-0.0022982786
-0.00021543643
0.0015192329
0.0014825206