/*--------------------------------*- C++ -*----------------------------------*\
| =========                 |                                                 |
| \\      /  F ield         | OpenFOAM: The Open Source CFD Toolbox           |
|  \\    /   O peration     | Version:  5.0                                   |
|   \\  /    A nd           | Web:      www.OpenFOAM.org                      |
|    \\/     M anipulation  |                                                 |
\*---------------------------------------------------------------------------*/
FoamFile
{
    version     2.0;
    format      ascii;
    class       surfaceScalarField;
    location    "260";
    object      phi;
}
// * * * * * * * * * * * * * * * * * * * * * * * * * * * * * * * * * * * * * //

dimensions      [0 3 -1 0 0 0 0];

internalField   nonuniform List<scalar> 
18820
(
-0.00039680693
-1.3579571
-0.00076617099
-1.2699533
-0.00037820723
-1.3575789
-0.0011078379
-1.1877436
-0.00073167793
-1.2695998
-0.0003617263
-1.3572172
-0.0014211886
-1.1109208
-0.0010604074
-1.1874149
-0.00069976675
-1.2692617
-0.00035443683
-1.3568627
-0.0017056555
-1.0391182
-0.0013641954
-1.110617
-0.0010147226
-1.1870999
-0.00068519932
-1.268931
-0.00035463517
-1.3565081
-0.0019610245
-0.97198873
-0.0016424609
-1.0388399
-0.0013075583
-1.1103242
-0.00099389155
-1.1867912
-0.00068570416
-1.2685999
-0.00035456255
-1.3561535
-0.002186858
-0.90921694
-0.0018947295
-0.97173646
-0.0015784771
-1.038569
-0.0012824363
-1.1100356
-0.0009955757
-1.1864813
-0.00068725381
-1.2682672
-0.00034538068
-1.3558081
-0.0023821713
-0.85051236
-0.002120995
-0.90899068
-0.0018266592
-0.97148828
-0.0015521153
-1.0382993
-0.0012860523
-1.1097452
-0.0010010335
-1.1861676
-0.00067198792
-1.2679406
-0.00032663495
-1.3554815
-0.0025453903
-0.79560694
-0.0023218849
-0.85031147
-0.0020517194
-0.90876562
-0.0018027768
-0.97123761
-0.0015587126
-1.0380267
-0.0012972747
-1.1094489
-0.00098310079
-1.1858565
-0.00063761107
-1.2676296
-0.00030315441
-1.3551783
-0.0026746657
-0.74425027
-0.0024994278
-0.79542939
-0.002254413
-0.85010878
-0.0020341068
-0.90853429
-0.0018145037
-0.97098182
-0.0015775731
-1.0377464
-0.00127998
-1.109152
-0.00093655395
-1.1855575
-0.00059262411
-1.2673402
-0.00028145275
-1.3548969
-0.0027697422
-0.69621432
-0.0026568876
-0.74409281
-0.0024380615
-0.79524574
-0.0022459733
-0.84989691
-0.0020536696
-0.90829512
-0.0018440014
-0.97071539
-0.0015638267
-1.0374625
-0.0012258355
-1.1088628
-0.00087220473
-1.1852779
-0.00055007918
-1.2670715
-0.00026531804
-1.3546316
-0.0028307445
-0.65128493
-0.0027990126
-0.69607219
-0.0026101371
-0.74392073
-0.0024383681
-0.79505335
-0.0022755844
-0.84967499
-0.0020976461
-0.90804148
-0.0018368817
-0.97044234
-0.0015066187
-1.0371817
-0.0011455823
-1.1085894
-0.00081012158
-1.1850179
-0.00051784124
-1.266819
-0.00025426762
-1.3543773
-0.0028749875
-0.60923756
-0.0029496488
-0.65113429
-0.0027855144
-0.69589682
-0.0026122498
-0.74374685
-0.0024777559
-0.79485118
-0.0023379148
-0.84943473
-0.0021009361
-0.90777742
-0.0017804629
-0.9701685
-0.0014148378
-1.0369125
-0.0010655884
-1.1083339
-0.00076271907
-1.184773
-0.00049564918
-1.2665776
-0.00024475532
-1.3541326
-0.0029064188
-0.56988417
-0.0031291883
-0.60905802
-0.0029763644
-0.65094344
-0.0027679316
-0.69574113
-0.0026536165
-0.74357099
-0.0025610782
-0.79462801
-0.002357455
-0.84917821
-0.0020491962
-0.90750869
-0.0016803739
-0.96990296
-0.001319426
-1.0366587
-0.0010040552
-1.1080926
-0.00072981329
-1.1845388
-0.00047713981
-1.2663453
-0.00023271535
-1.3538998
-0.0029364052
-0.53306459
-0.0033214306
-0.56969193
-0.0031580439
-0.60887634
-0.0028833115
-0.65082806
-0.0027859085
-0.69560884
-0.0027592973
-0.74337277
-0.0026083335
-0.79437714
-0.0023154006
-0.848912
-0.0019426797
-0.90724638
-0.0015721396
-0.96965025
-0.0012447592
-1.0364179
-0.00096104201
-1.1078613
-0.00070242019
-1.1843136
-0.000454395
-1.2661236
-0.00021563256
-1.3536842
-0.0029726419
-0.49861826
-0.0035436214
-0.5328424
-0.0033109208
-0.56953905
-0.0029362474
-0.60882341
-0.0028539751
-0.65075999
-0.0029242411
-0.6954439
-0.002857174
-0.74312393
-0.0025840994
-0.79410844
-0.0022028573
-0.84865183
-0.0018233331
-0.90699519
-0.0014861718
-0.96940883
-0.001192336
-1.0361867
-0.00092485571
-1.1076389
-0.0006694056
-1.1840986
-0.00042199389
-1.2659172
-0.00019341678
-1.3534908
-0.0030330513
-0.46639162
-0.0038052867
-0.49835659
-0.0034411054
-0.53271222
-0.0029426944
-0.56953261
-0.0028556344
-0.60882175
-0.003054296
-0.65062994
-0.0031112303
-0.69518984
-0.0028639272
-0.7428441
-0.002463239
-0.79384806
-0.0020719744
-0.84840318
-0.001728389
-0.90675297
-0.001426004
-0.96917517
-0.0011479693
-1.0359635
-0.00088132932
-1.107427
-0.00062298163
-1.1838976
-0.00037914653
-1.2657315
-0.00016817547
-1.3533226
-0.0031000454
-0.4362486
-0.0041485645
-0.46604835
-0.0035772941
-0.49822041
-0.0028748475
-0.53278006
-0.0028044836
-0.56958376
-0.0031568777
-0.60871917
-0.0033848732
-0.6503563
-0.0031677184
-0.69488605
-0.0027276404
-0.7425797
-0.0023157876
-0.79360424
-0.0019700026
-0.84816157
-0.0016634721
-0.9065155
-0.0013749694
-0.96894817
-0.0010942191
-1.0357507
-0.00082108388
-1.1072289
-0.00056112801
-1.1837156
-0.00032972979
-1.2655699
-0.00014312379
-1.3531795
-0.0032411696
-0.40802391
-0.0045924323
-0.43580473
-0.0037291422
-0.4658965
-0.0027271018
-0.49836815
-0.0026656041
-0.53291894
-0.0032375257
-0.56950311
-0.003692542
-0.6084115
-0.0035161957
-0.65000782
-0.0030028213
-0.69461087
-0.0025509377
-0.74234455
-0.0022072606
-0.79336698
-0.00190472
-0.84792032
-0.0016087339
-0.90628174
-0.0013122125
-0.96873017
-0.0010201282
-1.0355516
-0.00074156482
-1.1070484
-0.00048806079
-1.1835573
-0.00028019163
-1.2654329
-0.00012113575
-1.3530584
-0.0033690888
-0.38162803
-0.0051987731
-0.40741757
-0.0039323174
-0.43560156
-0.002450022
-0.46617358
-0.0023843873
-0.49864937
-0.0033117597
-0.53284471
-0.0040460398
-0.56914961
-0.0039294261
-0.60799827
-0.0032961182
-0.64971452
-0.0027723925
-0.69438942
-0.0024337835
-0.74211803
-0.002147588
-0.79312412
-0.0018512569
-0.8476778
-0.0015392808
-0.90605467
-0.0012248692
-0.96852543
-0.00092298095
-1.0353702
-0.0006462515
-1.1068903
-0.00041315275
-1.1834243
-0.00023629692
-1.2653177
-0.00010373561
-1.3529546
-0.0036204387
-0.35683809
-0.0059360106
-0.38089079
-0.0041554441
-0.40719445
-0.00202007
-0.43603151
-0.0019077799
-0.46665019
-0.0033556783
-0.49860545
-0.0044780383
-0.53241271
-0.0044255479
-0.56865349
-0.0036191088
-0.60767528
-0.0029711302
-0.64951579
-0.0026385773
-0.69418462
-0.0023869819
-0.74187864
-0.0021036718
-0.7928717
-0.0017792897
-0.84743779
-0.0014395109
-0.90584003
-0.0011095857
-0.96833883
-0.00080617954
-1.0352103
-0.0005453604
-1.1067581
-0.00034600741
-1.1833146
-0.00020098459
-1.2652205
-9.0960182e-05
-1.3528637
-0.0037933773
-0.33365138
-0.0068819914
-0.35589211
-0.0044934398
-0.3805528
-0.0013723401
-0.40784218
-0.0011836445
-0.43675564
-0.0033669927
-0.46663887
-0.0050409192
-0.49804257
-0.0050324821
-0.53180578
-0.0039614197
-0.56831118
-0.0031366079
-0.6075098
-0.002804669
-0.64934969
-0.0026124831
-0.69395912
-0.0023656597
-0.74161665
-0.0020367393
-0.79261425
-0.0016686255
-0.84720868
-0.0013050449
-0.90564457
-0.00097008921
-0.96817492
-0.00067929134
-1.0350763
-0.00045313443
-1.1066509
-0.00029177841
-1.1832238
-0.00017434319
-1.2651371
-8.1877352e-05
-1.3527818
-0.0042063054
-0.31166725
-0.0079055829
-0.33262779
-0.0048737673
-0.35551179
-0.00052271621
-0.38140242
-0.00015617286
-0.40886965
-0.0033127311
-0.43680991
-0.0057959762
-0.46588381
-0.0058131534
-0.4972619
-0.004334625
-0.53143257
-0.0032350397
-0.56821275
-0.0028976417
-0.60741683
-0.0028061207
-0.64915606
-0.0026344051
-0.69369038
-0.0023171787
-0.74133621
-0.001918192
-0.79236469
-0.0015132974
-0.84700042
-0.0011404707
-0.90547419
-0.00081601692
-0.96803819
-0.00056062407
-1.0349688
-0.0003778995
-1.1065648
-0.00025059943
-1.1831475
-0.00015486186
-1.2650641
-7.5248495e-05
-1.3527065
-0.0048105663
-0.29092583
-0.0092483171
-0.31032451
-0.0054397712
-0.33206178
0.00069435937
-0.35672886
0.0012423147
-0.38280091
-0.0032041496
-0.40897823
-0.0068092493
-0.43579663
-0.0068352369
-0.46486173
-0.0047489182
-0.49684761
-0.0032307619
-0.53143685
-0.0028854399
-0.56822495
-0.0029364429
-0.6072865
-0.0029043429
-0.64888612
-0.0026286703
-0.69337888
-0.0021967667
-0.74105763
-0.001739192
-0.79213879
-0.0013197352
-0.84682116
-0.00095693812
-0.90533327
-0.00066934496
-0.96792947
-0.00046230373
-1.0348844
-0.00032037997
-1.106495
-0.00021980182
-1.1830826
-0.00014064752
-1.2649987
-6.9953168e-05
-1.3526366
-0.0054753972
-0.27206249
-0.010746078
-0.28942807
-0.0059716655
-0.30979262
0.0020903704
-0.33345779
0.0030852806
-0.35857183
-0.0029627783
-0.38304228
-0.0081610788
-0.4076264
-0.0081843201
-0.43444755
-0.0052243034
-0.46438635
-0.0030798576
-0.49699851
-0.0027100718
-0.53161222
-0.0029993831
-0.56816201
-0.0031699767
-0.60702087
-0.0029831056
-0.64853168
-0.0025179428
-0.69305771
-0.0019894822
-0.74080734
-0.0015099627
-0.79194856
-0.0011028482
-0.84667525
-0.00078042739
-0.90522219
-0.00054653951
-0.96784524
-0.00038583593
-1.034819
-0.00027692027
-1.1064379
-0.00019640561
-1.1830268
-0.00012983675
-1.2649388
-6.5104875e-05
-1.3525715
-0.0060995096
-0.25413502
-0.012489976
-0.27031859
-0.0064666383
-0.2889331
0.0040765094
-0.31177876
0.0053800092
-0.33575252
-0.0026948029
-0.3588398
-0.0099366606
-0.3812667
-0.0099369893
-0.40587373
-0.0057862369
-0.43388562
-0.0027378572
-0.46472835
-0.0022993228
-0.49740926
-0.0029839933
-0.53162761
-0.0034382503
-0.56789374
-0.0034024157
-0.60660156
-0.0029021598
-0.64814747
-0.0022744358
-0.69277275
-0.0017130613
-0.74060425
-0.0012531787
-0.79179823
-0.00089424232
-0.84656144
-0.00063189766
-0.90513683
-0.00044955917
-0.96778151
-0.00032712434
-1.0347688
-0.00024305743
-1.1063913
-0.00017812144
-1.1829786
-0.00012045424
-1.2648835
-6.0039198e-05
-1.3525114
-0.007533638
-0.23541824
-0.014254508
-0.25237048
-0.0072500734
-0.26953516
0.006438263
-0.29129485
0.008123925
-0.31452267
-0.0021741712
-0.33627316
-0.012258028
-0.35651843
-0.012213414
-0.37899027
-0.0064616111
-0.40519836
-0.0021468756
-0.4344766
-0.001567448
-0.46546022
-0.0028238476
-0.4975694
-0.0037349816
-0.53133088
-0.0039083949
-0.56738776
-0.0033826774
-0.60612104
-0.002609181
-0.64781272
-0.0019306947
-0.69255512
-0.0014054346
-0.74045199
-0.0010092595
-0.79168322
-0.00071915505
-0.84647418
-0.0005134616
-0.90507293
-0.00037343541
-0.9677352
-0.00028073564
-1.0347311
-0.00021530109
-1.1063541
-0.00016265444
-1.1829364
-0.00011059284
-1.2648329
-5.4384537e-05
-1.3524571
-0.0093421483
-0.21683267
-0.016589402
-0.23308335
-0.0082002892
-0.25142027
0.009296682
-0.27239357
0.011379708
-0.29455063
-0.0017422823
-0.31495456
-0.015168383
-0.3333628
-0.015081346
-0.3536505
-0.007293058
-0.37815883
-0.0012443442
-0.40610089
-0.00040716801
-0.43563688
-0.0024424388
-0.46584163
-0.0040697305
-0.49723466
-0.0045378631
-0.53070141
-0.0039896466
-0.56678079
-0.0030163088
-0.60571392
-0.0021653857
-0.64757803
-0.0015539823
-0.69240657
-0.0011207525
-0.7403405
-0.00080735239
-0.79159502
-0.0005793229
-0.84640832
-0.00041866176
-0.9050277
-0.00031184946
-0.96770409
-0.0002416967
-1.0347047
-0.00019095957
-1.1063258
-0.00014726979
-1.1828997
-9.9229531e-05
-1.2647881
-4.8223368e-05
-1.3524088
-0.011182065
-0.19991438
-0.018818521
-0.21460355
-0.0083742913
-0.23290934
0.01240489
-0.25452847
0.015315382
-0.27632925
-0.0013357904
-0.29495713
-0.018752077
-0.31137087
-0.018721721
-0.32972243
-0.0082893481
-0.35265421
5.5181985e-05
-0.37945835
0.0012967493
-0.40780481
-0.0017546871
-0.43632463
-0.0044420226
-0.46546934
-0.0053572819
-0.49641524
-0.0047623406
-0.52992871
-0.0035199362
-0.56627716
-0.0024184727
-0.60546083
-0.0016892941
-0.64744272
-0.0012193529
-0.69230797
-0.00089249922
-0.74025535
-0.00064786926
-0.79152647
-0.00046588791
-0.84636109
-0.00034001092
-0.90499954
-0.00025891769
-0.96768687
-0.00020639905
-1.0346893
-0.0001676835
-1.1063054
-0.00013026045
-1.1828686
-8.6699195e-05
-1.2647496
-4.2092327e-05
-1.3523667
-0.013052244
-0.18404245
-0.020859796
-0.19787311
-0.0074661868
-0.21551165
0.016759392
-0.23726385
0.019558285
-0.25877138
-0.00080297614
-0.27686206
-0.0232097
-0.2904995
-0.023111386
-0.30698121
-0.0095107154
-0.32850106
0.0018497243
-0.35444876
0.0036927506
-0.38185435
-0.00066512133
-0.40889437
-0.0048470119
-0.43591964
-0.0064432545
-0.46438337
-0.005784493
-0.49539309
-0.0041432488
-0.5293054
-0.0026931787
-0.56600245
-0.0017947748
-0.60535535
-0.0012892013
-0.64737287
-0.00096606807
-0.6922344
-0.00071801895
-0.7401852
-0.00051807865
-0.79147428
-0.00036948922
-0.84633161
-0.00027093321
-0.90498752
-0.00021069142
-0.96768258
-0.00017298984
-1.034684
-0.00014387861
-1.1062917
-0.00011137104
-1.182844
-7.4435899e-05
-1.2647172
-3.6631506e-05
-1.3523301
-0.01681192
-0.19894286
-0.022695909
-0.18220634
-0.0060368885
-0.1993024
0.022104119
-0.22085638
0.024253966
-0.24195953
0.00073600396
-0.26031036
-0.028572255
-0.27149951
-0.028224082
-0.28538681
-0.010855226
-0.3056367
0.004267994
-0.33091933
0.0069166501
-0.35767266
0.00093913314
-0.38345861
-0.0052801985
-0.40846119
-0.0078879931
-0.4344749
-0.0071570474
-0.46301081
-0.0049358967
-0.49460044
-0.0029873269
-0.52901125
-0.0018474192
-0.56594981
-0.0013054919
-0.60533906
-0.0010130823
-0.64732586
-0.00078570196
-0.69216672
-0.00057792879
-0.74012535
-0.00040544401
-0.79143833
-0.00028282238
-0.84631972
-0.00020743843
-0.90499078
-0.00016489957
-0.96769067
-0.00013956536
-1.0346883
-0.00011814365
-1.106285
-9.225227e-05
-1.1828262
-6.3621686e-05
-1.2646902
-3.2310399e-05
-1.3522978
-0.020108458
-0.19547743
-0.026342476
-0.19529629
-0.0040505331
-0.1841927
0.027636654
-0.20483494
0.028955465
-0.22555788
0.0019793938
-0.24320292
-0.033979459
-0.25490315
-0.034326152
-0.26539744
-0.012322627
-0.28391941
0.0074758126
-0.30884451
0.011135919
-0.3351386
0.0031645257
-0.35989805
-0.0057335281
-0.38300528
-0.0097965784
-0.4065526
-0.0090074046
-0.43262455
-0.0059655766
-0.46198113
-0.0032932076
-0.49429456
-0.0018171789
-0.52904149
-0.0012342612
-0.56602104
-0.0010104044
-0.60534174
-0.00084316759
-0.64726839
-0.00064798674
-0.69209666
-0.00045469849
-0.74007609
-0.00030141746
-0.79141973
-0.00020157961
-0.84632558
-0.00014613628
-0.90500954
-0.00011862868
-0.9677116
-0.00010456565
-1.0347019
-9.1848334e-05
-1.1062854
-7.5551948e-05
-1.1828142
-5.5039129e-05
-1.2646675
-2.9411577e-05
-1.3522684
-0.022911548
-0.19171755
-0.029510051
-0.19230985
-0.0035432463
-0.19580358
0.033130495
-0.18968654
0.033106752
-0.20898623
0.0010994369
-0.22467792
-0.040210795
-0.23697158
-0.042226529
-0.24700278
-0.014236206
-0.26348386
0.011578011
-0.28802161
0.016467681
-0.31417628
0.0061484666
-0.33812254
-0.0062099901
-0.35942159
-0.012298879
-0.38050298
-0.011478437
-0.40408157
-0.0073166359
-0.43127349
-0.0036082684
-0.46166607
-0.0016569454
-0.49445479
-0.0010240099
-0.52925175
-0.00093160537
-0.56609984
-0.00087983235
-0.60530507
-0.00073097002
-0.64718541
-0.00052626213
-0.6920251
-0.00033616304
-0.74004135
-0.00020027939
-0.79142103
-0.00012098269
-0.84635074
-8.3634176e-05
-0.90504453
-7.1540797e-05
-0.96774463
-7.0152064e-05
-1.0347235
-6.844976e-05
-1.1062925
-6.2189181e-05
-1.1828071
-4.9259034e-05
-1.2646477
-2.8038983e-05
-1.3522403
-0.025213493
-0.1879116
-0.03218388
-0.18904373
-0.0022566454
-0.19359645
0.03721159
-0.19988468
0.036706896
-0.19328668
-0.00097742135
-0.20690937
-0.048206106
-0.21668261
-0.050900754
-0.22829736
-0.017318813
-0.24392017
0.016587514
-0.26849336
0.023028797
-0.29458272
0.0099520522
-0.31797986
-0.0066967568
-0.33763577
-0.015539978
-0.35618049
-0.014748695
-0.37723272
-0.0090853271
-0.40231288
-0.0039299641
-0.43095179
-0.0013051795
-0.46201784
-0.0006092085
-0.49486959
-0.00072404265
-0.52945931
-0.00087774239
-0.56610193
-0.00082825321
-0.60520779
-0.00063081753
-0.64708085
-0.00039949732
-0.69196177
-0.00021371974
-0.74002791
-9.6261257e-05
-0.79144575
-3.8000149e-05
-0.84639637
-2.1061892e-05
-0.90509501
-2.6702239e-05
-0.96778808
-3.9280287e-05
-1.0347527
-4.9724425e-05
-1.1063049
-5.290495e-05
-1.1828034
-4.6415884e-05
-1.2646293
-2.8080891e-05
-1.3522123
-0.026975512
-0.18415438
-0.034377343
-0.18571814
-0.00036240949
-0.19093796
0.041963352
-0.19834822
0.039429784
-0.20260756
-0.0036261365
-0.19063797
-0.056597451
-0.19851802
-0.058393462
-0.20918991
-0.020467663
-0.22514851
0.022568453
-0.24990111
0.030843594
-0.27630816
0.014654468
-0.29928514
-0.0072403172
-0.3174363
-0.019693267
-0.33348248
-0.018998674
-0.35193051
-0.011387403
-0.37493064
-0.0042568773
-0.40198597
-0.00068710265
-0.43156987
9.4605241e-05
-0.46272165
-0.00032146302
-0.49527217
-0.00081170346
-0.52952535
-0.00093033592
-0.56599985
-0.00078017632
-0.60505843
-0.00050772282
-0.64697263
-0.00025543796
-0.69192005
-8.1474133e-05
-0.7400427
1.2744479e-05
-0.7914965
4.519329e-05
-0.84646262
3.8121086e-05
-0.90515984
1.2921929e-05
-0.96784028
-1.4485192e-05
-1.034788
-3.6711601e-05
-1.1063211
-4.8105402e-05
-1.1828017
-4.5904902e-05
-1.2646115
-2.9414352e-05
-1.3521828
-0.028166699
-0.18065441
-0.036041087
-0.18249064
0.0019260422
-0.18800659
0.047114664
-0.19608927
0.042762552
-0.20168098
-0.006332336
-0.19990136
-0.064924057
-0.18231136
-0.064997619
-0.19191387
-0.021962818
-0.20769475
0.029795777
-0.23237583
0.040145008
-0.25920253
0.02025403
-0.28190772
-0.0079055711
-0.29861988
-0.024966196
-0.31216337
-0.024445909
-0.32803525
-0.014337106
-0.34898081
-0.0045783796
-0.37460914
0.00028370178
-0.40295677
0.0011958238
-0.43267109
0.00035723328
-0.46340035
-0.00063407964
-0.4954498
-0.0010524119
-0.52940327
-0.00098469297
-0.56579533
-0.00068260212
-0.60488355
-0.00034413846
-0.64688393
-8.8954745e-05
-0.69191257
6.1757072e-05
-0.74009171
0.00012342095
-0.79157473
0.00012366138
-0.84654816
9.0972681e-05
-0.90523789
4.5946026e-05
-0.96790071
2.3583618e-06
-1.034827
-2.9819407e-05
-1.1063394
-4.7355297e-05
-1.1828003
-4.8411298e-05
-1.2645925
-3.1887983e-05
-1.352151
-0.028785773
-0.17761616
-0.037154265
-0.17954123
0.0044460852
-0.18501068
0.052433927
-0.19332585
0.046469843
-0.19979657
-0.008675842
-0.19933748
-0.07351277
-0.19131265
-0.071132084
-0.1761769
-0.022384254
-0.19149243
0.038385339
-0.21628431
0.05129339
-0.24352421
0.027175501
-0.266124
-0.0087625328
-0.28105076
-0.031604992
-0.29198109
-0.031266861
-0.30534242
-0.018071061
-0.32430129
-0.0048801734
-0.34867901
0.0017162339
-0.37604167
0.0028152301
-0.40457618
0.0014098432
-0.4337237
-0.00029271058
-0.46374172
-0.0011928507
-0.49530936
-0.0012730064
-0.52911496
-0.0009524083
-0.56552552
-0.0005051153
-0.60472257
-0.0001361296
-0.64683675
9.8113061e-05
-0.69194892
0.00020817961
-0.74017647
0.0002274167
-0.79167848
0.00019320168
-0.84665039
0.00013390733
-0.90532585
6.903482e-05
-0.96796739
1.2196502e-05
-1.034869
-2.881636e-05
-1.106358
-5.1200631e-05
-1.1827975
-5.3275749e-05
-1.2645711
-3.5222997e-05
-1.3521157
-0.028887604
-0.17522194
-0.037681967
-0.17708846
0.0069850909
-0.18208024
0.057639878
-0.19021663
0.050477591
-0.1973336
-0.010705872
-0.19776654
-0.08174126
-0.19110899
-0.079602115
-0.18284262
-0.021797248
-0.1767639
0.047976281
-0.20108337
0.063594273
-0.2285852
0.035830039
-0.25217875
-0.0092681906
-0.26561834
-0.039702205
-0.27295355
-0.039633176
-0.28361477
-0.02264587
-0.30076761
-0.0051366028
-0.32404486
0.0037291888
-0.35069197
0.0050917016
-0.37831815
0.0029560812
-0.40612241
0.0002784196
-0.43429483
-0.0013356853
-0.46359888
-0.0016901005
-0.49489226
-0.0013486495
-0.52871872
-0.00077503133
-0.56525561
-0.00024530249
-0.6046134
0.00010898796
-0.64684762
0.00029329856
-0.69203404
0.00034718967
-0.74029624
0.00031989287
-0.79180517
0.00025005154
-0.84676654
0.00016464706
-0.90542146
8.2072228e-05
-0.96803726
1.4010624e-05
-1.0349119
-3.3401741e-05
-1.1063758
-5.8503059e-05
-1.1827923
-5.9866393e-05
-1.2645464
-3.9120429e-05
-1.3520766
-0.028444472
-0.17359058
-0.037668741
-0.17523517
0.0094431066
-0.17954648
0.062447444
-0.18688781
0.05450425
-0.19424329
-0.01231171
-0.19572776
-0.089449502
-0.19005829
-0.087785449
-0.18292565
-0.026042292
-0.17859758
0.058313031
-0.18710065
0.076241667
-0.21373077
0.044720109
-0.23747527
-0.0089848476
-0.25246209
-0.049028637
-0.25629191
-0.049593895
-0.26299283
-0.02809362
-0.27816702
-0.0052779329
-0.30062628
0.0064664182
-0.32678209
0.0081749632
-0.35377523
0.0051286822
-0.38049075
0.001161653
-0.40700565
-0.0014652803
-0.43416523
-0.0022730974
-0.46301588
-0.0019359446
-0.49430497
-0.0011865355
-0.52830721
-0.00044986278
-0.56505105
7.8453393e-05
-0.60458286
0.00037184922
-0.64692618
0.00048071891
-0.69216757
0.00047095385
-0.7404473
0.00039566763
-0.79195079
0.00029135322
-0.84689324
0.00018258281
-0.90552197
8.5214253e-05
-0.96810847
8.6625861e-06
-1.0349539
-4.2952472e-05
-1.1063913
-6.8463331e-05
-1.1827837
-6.7656124e-05
-1.2645179
-4.329528e-05
-1.3520333
-0.17287653
-0.027566961
-0.037172244
-0.17408708
0.011736817
-0.17752888
0.066636289
-0.18373532
0.058356984
-0.19074054
-0.013588954
-0.19296605
-0.096539645
-0.18863762
-0.09546712
-0.18237662
-0.02993864
-0.17902931
0.064352762
-0.18463731
0.08857983
-0.19943881
0.053218082
-0.22222874
-0.0076420239
-0.23881809
-0.059695202
-0.24179553
-0.061481239
-0.24440456
-0.034545167
-0.25654128
-0.0051870247
-0.27825793
0.010082052
-0.30424192
0.012226569
-0.3308337
0.0080736062
-0.35672015
0.0024543248
-0.38178342
-0.0015652398
-0.40690569
-0.0030674746
-0.43337085
-0.0027912215
-0.46216061
-0.0017997999
-0.4936917
-0.00078392352
-0.52797315
-1.4960456e-05
-0.56495763
0.00043449746
-0.60464551
0.00062608902
-0.64707155
0.00064726298
-0.69234388
0.00057232802
-0.74062396
0.00045118166
-0.79211062
0.00031618721
-0.84702685
0.00018793642
-0.90562469
7.9297675e-05
-0.9681791
-2.8353346e-06
-1.0349941
-5.6325701e-05
-1.1064034
-8.0293645e-05
-1.182771
-7.5994406e-05
-1.2644852
-4.7456522e-05
-1.3519859
-0.17367841
-0.036370366
-0.17329193
-0.026236249
0.013496528
-0.17584679
0.07009285
-0.18098544
0.061759764
-0.1871381
-0.014482272
-0.18984722
-0.10280272
-0.18670297
-0.10257762
-0.18152712
-0.033470848
-0.17884441
0.070940045
-0.18561659
0.099614087
-0.19567157
0.060847969
-0.2070687
-0.0075579667
-0.2223128
-0.071144768
-0.22736852
-0.075752883
-0.22752388
-0.042771008
-0.23617872
-0.0047693974
-0.25695891
0.014743723
-0.2829196
0.017393299
-0.30940865
0.011944612
-0.3347047
0.0042709455
-0.35853677
-0.0016029523
-0.38174571
-0.0041274247
-0.40584574
-0.0040054743
-0.4321566
-0.0027034938
-0.46125691
-0.0012860901
-0.49318954
-0.00020064604
-0.52778746
0.0004737162
-0.56499685
0.00078269772
-0.60480212
0.00085122392
-0.64727551
0.00078301731
-0.69255457
0.00064680878
-0.74081959
0.00048541417
-0.79227984
0.00032499779
-0.84716391
0.00018177535
-0.90572717
6.5415366e-05
-0.96824735
-1.9717058e-05
-1.0350307
-7.2366724e-05
-1.1064114
-9.308801e-05
-1.182754
-8.4420362e-05
-1.2644482
-5.1453471e-05
-1.3519344
-0.17487858
0.014696706
-0.17452101
-0.035141285
-0.17499826
-0.024475159
0.072512916
-0.17826686
0.06452207
-0.18374774
-0.015045431
-0.18657494
-0.10806792
-0.18458203
-0.10880576
-0.18047483
-0.036674519
-0.17832345
0.07796682
-0.18587119
0.11119942
-0.19720192
0.071292137
-0.20611574
-0.0100198
-0.20460687
-0.083765077
-0.20969249
-0.092457512
-0.21066389
-0.053123525
-0.21717137
-0.0044334359
-0.23651468
0.020658588
-0.26287377
0.023831215
-0.28935752
0.016878219
-0.31434225
0.0067390373
-0.3371728
-0.0015596068
-0.35858012
-0.0055164219
-0.38035671
-0.0056856058
-0.40416561
-0.0040001273
-0.43085997
-0.0020264271
-0.46051658
-0.00050012228
-0.49289006
0.00047452915
-0.52778828
0.00095189831
-0.56516605
0.0010889613
-0.60503986
0.0010332874
-0.64752578
0.00088243032
-0.69279019
0.00069344405
-0.74102762
0.00049919603
-0.79245404
0.00031922185
-0.84730136
0.0001655538
-0.90582731
4.4844015e-05
-0.96831192
-4.0355794e-05
-1.0350627
-9.0022855e-05
-1.1064144
-0.00010616441
-1.1827322
-9.2628455e-05
-1.2644071
-5.5117228e-05
-1.3518793
-0.17639535
0.074029688
-0.17517865
0.015354344
-0.17655325
-0.033586293
-0.17744248
-0.022319436
0.066661342
-0.18040613
-0.015316773
-0.1834764
-0.11217657
-0.1824663
-0.11397763
-0.17941016
-0.039483916
-0.17766543
0.085125078
-0.1854817
0.12317745
-0.19784922
0.082412967
-0.20832275
-0.0064467656
-0.20968877
-0.09712898
-0.19124297
-0.10863647
-0.19351353
-0.064500734
-0.19928669
-0.0043980072
-0.21720679
0.027953393
-0.24380949
0.031633622
-0.27067618
0.023020483
-0.29549978
0.0099835216
-0.31758674
-0.0013663632
-0.33736604
-0.0073051236
-0.35679142
-0.007968551
-0.37807376
-0.0058105996
-0.40235513
-0.0030898464
-0.42979655
-0.00094278841
-0.46007391
0.00042588977
-0.49284142
0.0011385345
-0.52797491
0.0013687462
-0.56544584
0.0013319197
-0.60533849
0.0011645421
-0.64780789
0.00094464919
-0.69304139
0.00071373039
-0.74124215
0.00049453098
-0.79262935
0.00030079507
-0.8474366
0.00014097102
-0.90592344
1.9230417e-05
-0.9683715
-6.3335383e-05
-1.0350894
-0.00010829464
-1.1064123
-0.00011899806
-1.1827058
-0.00010017892
-1.264362
-5.8343263e-05
-1.351821
-0.17781011
0.068076096
-0.17554351
0.074394551
-0.17657163
0.015372725
-0.1793916
-0.031637175
-0.18033961
-0.019928056
-0.015001152
-0.18072175
-0.1150222
-0.18063078
-0.117921
-0.17852292
-0.04173062
-0.17716345
0.092082801
-0.18462315
0.13508055
-0.19738481
0.093891432
-0.20932768
-0.0019400157
-0.2128295
-0.10562613
-0.20119162
-0.1223606
-0.17751884
-0.074927956
-0.18308631
-0.0044529927
-0.1992317
0.036646786
-0.22590019
0.040984434
-0.2531603
0.030439317
-0.27809501
0.014157935
-0.29967419
-0.00099162381
-0.31796148
-0.009575617
-0.33509555
-0.011006277
-0.35375369
-0.0082865444
-0.37559782
-0.0045721619
-0.40087282
-0.0015748691
-0.42916447
0.00033063142
-0.45997865
0.0013496276
-0.49305251
0.0017085713
-0.52831474
0.001693657
-0.56580757
0.0015032148
-0.60567716
0.0012452719
-0.64810851
0.00097247608
-0.69330014
0.00071060261
-0.74145822
0.00047400449
-0.79280256
0.00027190399
-0.84756753
0.000109923
-0.90601413
-9.6353796e-06
-0.9684252
-8.7402124e-05
-1.0351103
-0.00012640156
-1.1064049
-0.00013101173
-1.182675
-0.00010697129
-1.2643134
-6.1117817e-05
-1.3517598
-0.17859632
-0.014214938
-0.1760567
0.068589287
-0.17608783
0.073910752
-0.17887602
0.014857146
-0.18258587
-0.029390908
-0.18387297
-0.017375646
-0.11643682
-0.17930713
-0.12052968
-0.17802209
-0.043416581
-0.17683696
0.098604885
-0.18368554
0.14642397
-0.19596658
0.10558178
-0.20907516
0.0023683703
-0.21363607
-0.11371258
-0.20474305
-0.13688106
-0.18667115
-0.084003021
-0.16844377
-0.0045905965
-0.18294871
0.046447988
-0.2090329
0.051922974
-0.23683873
0.039255493
-0.26197648
0.019356661
-0.28329374
-0.00033066103
-0.30033516
-0.012418769
-0.31511833
-0.015000698
-0.33110113
-0.011594373
-0.35044586
-0.0065859958
-0.37358399
-0.0024481682
-0.39999952
0.00019041895
-0.42902425
0.001601117
-0.46023014
0.0021330279
-0.49347697
0.0021403219
-0.5287614
0.0019143544
-0.56621871
0.0016046606
-0.60603655
0.0012805541
-0.64841659
0.00097045197
-0.69355999
0.00068765985
-0.74167188
0.00044045321
-0.79297111
0.00023486661
-0.84769247
7.4418845e-05
-0.90609818
-4.0271202e-05
-0.96847233
-0.00011152431
-1.0351251
-0.00014366837
-1.1063922
-0.00014197044
-1.18264
-0.00011288391
-1.2642616
-6.338523e-05
-1.3516965
-0.17874473
-0.11628842
-0.17742815
-0.012843491
-0.17591664
0.068418089
-0.17729789
0.07233262
-0.18169259
0.013963865
-0.18630862
-0.026955265
-0.18775529
-0.014821922
-0.12198196
-0.17785485
-0.044582294
-0.17685638
0.10440211
-0.18263419
0.15665362
-0.19391519
0.11693009
-0.20731488
0.0071299002
-0.21383669
-0.12157917
-0.20576948
-0.15140012
-0.19022399
-0.10065392
-0.17002026
-0.0047570618
-0.16827731
0.056811183
-0.1933119
0.06442811
-0.22153804
0.04943586
-0.2470191
0.025703493
-0.26832331
0.00065877478
-0.28428318
-0.015918366
-0.29683556
-0.020153097
-0.30996593
-0.015946542
-0.32674896
-0.0092496181
-0.34778224
-0.0036135067
-0.37241865
2.6689328e-06
-0.39981177
0.0019246122
-0.42934775
0.0026731018
-0.46077022
0.0027030462
-0.49403969
0.0024203838
-0.52926743
0.0020364984
-0.56665055
0.0016448777
-0.60640088
0.0012774436
-0.64872358
0.00094378671
-0.69381612
0.00064870482
-0.74188013
0.00039677854
-0.79313302
0.00019203732
-0.84781009
3.6368032e-05
-0.90617482
-7.1315187e-05
-0.96851254
-0.00013489273
-1.0351339
-0.00015965063
-1.1063746
-0.00015167755
-1.1826012
-0.00011779349
-1.2642072
-6.5188122e-05
-1.3516313
-0.17879736
-0.12192933
-0.17949425
-0.11422232
-0.17734688
-0.011413243
-0.17637536
0.067495559
-0.17915247
0.069792502
-0.18497417
0.012629424
-0.19021617
-0.024494385
-0.19170208
-0.012452443
-0.044761239
-0.1776759
0.10914561
-0.18159988
0.16538459
-0.19136516
0.12743843
-0.20442353
0.011785289
-0.21197027
-0.12912255
-0.20629331
-0.16492887
-0.19224074
-0.11702698
-0.17385093
-0.016821599
-0.15795572
0.067765791
-0.17923191
0.078103865
-0.20698766
0.061008861
-0.23311104
0.033104404
-0.25442001
0.0020284255
-0.26969296
-0.020210801
-0.27999074
-0.026727551
-0.29026111
-0.021538772
-0.3043737
-0.012693996
-0.32330458
-0.0051202762
-0.34627547
-0.00022418943
-0.37219179
0.0023584257
-0.40024558
0.0033718122
-0.43004646
0.0034257719
-0.46149294
0.0030534837
-0.49467279
0.0025609346
-0.52979187
0.0020755751
-0.56708125
0.0016356108
-0.60675904
0.0012438632
-0.64902366
0.00089776715
-0.69406518
0.00059745678
-0.74208081
0.0003458064
-0.79328679
0.00014565059
-0.84791937
-2.6418216e-06
-0.90624349
-0.00010181743
-0.96854562
-0.00015692303
-1.0351366
-0.00017413901
-1.1063521
-0.00015997488
-1.182559
-0.00012183137
-1.2641506
-6.6541487e-05
-1.3515647
-0.17973375
-0.043824853
-0.18135248
-0.12007111
-0.18081306
-0.11075614
-0.17826816
-0.0095204445
-0.17745452
0.065797602
-0.18149817
0.066316493
-0.18844305
0.010856299
-0.1940182
-0.022178267
-0.19556425
-0.010459261
0.1129493
-0.18147959
0.17242895
-0.18864424
0.13654172
-0.20046846
0.016352524
-0.20899076
-0.13613267
-0.20496015
-0.17788307
-0.1933391
-0.13286969
-0.17639803
-0.02947194
-0.16120059
0.069943089
-0.16013302
0.092863008
-0.19399106
0.073901495