/*--------------------------------*- C++ -*----------------------------------*\
| =========                 |                                                 |
| \\      /  F ield         | OpenFOAM: The Open Source CFD Toolbox           |
|  \\    /   O peration     | Version:  5.0                                   |
|   \\  /    A nd           | Web:      www.OpenFOAM.org                      |
|    \\/     M anipulation  |                                                 |
\*---------------------------------------------------------------------------*/
FoamFile
{
    version     2.0;
    format      ascii;
    class       surfaceScalarField;
    location    "260";
    object      phi_0;
}
// * * * * * * * * * * * * * * * * * * * * * * * * * * * * * * * * * * * * * //

dimensions      [0 3 -1 0 0 0 0];

internalField   nonuniform List<scalar> 
18820
(
-0.0003968663
-1.3579684
-0.00076626064
-1.2699637
-0.00037830655
-1.3575901
-0.0011079327
-1.1877532
-0.00073186274
-1.2696102
-0.0003615602
-1.3572285
-0.0014212622
-1.1109295
-0.0010606555
-1.1874244
-0.00069947458
-1.2692723
-0.00035386271
-1.3568747
-0.0017056868
-1.039126
-0.0013644542
-1.1106257
-0.0010143255
-1.1871096
-0.00068411982
-1.268942
-0.0003538826
-1.3565208
-0.0019610018
-0.97199566
-0.0016426613
-1.0388478
-0.0013070478
-1.110333
-0.00099235677
-1.1868013
-0.00068423675
-1.2686117
-0.00035392687
-1.3561668
-0.0021867627
-0.90922301
-0.0018948159
-0.97174351
-0.0015778152
-1.038577
-0.0012804924
-1.1100449
-0.00099342388
-1.1864922
-0.00068596387
-1.2682796
-0.00034505612
-1.3558218
-0.0023819537
-0.85051758
-0.0021209142
-0.90899691
-0.0018257988
-0.97149552
-0.0015497878
-1.0383078
-0.0012832696
-1.109755
-0.00099906866
-1.186179
-0.00067129265
-1.2679534
-0.00032655406
-1.3554952
-0.0025449189
-0.79561137
-0.0023215586
-0.85031694
-0.0020506106
-0.9087721
-0.0018000563
-0.97124525
-0.0015553559
-1.0380357
-0.0012946427
-1.1094595
-0.00098198766
-1.1858684
-0.00063742436
-1.2676425
-0.00030307232
-1.3551922
-0.0026736507
-0.74425396
-0.0024986928
-0.79543423
-0.0022530056
-0.85011454
-0.0020309661
-0.90854119
-0.0018105943
-0.97099001
-0.0015743015
-1.037756
-0.001278392
-1.109163
-0.00093624127
-1.1855695
-0.00059247796
-1.2673531
-0.00028114621
-1.354911
-0.0027676199
-0.69621737
-0.0026553863
-0.74409727
-0.002436326
-0.79525091
-0.0022424033
-0.84990311
-0.0020492086
-0.90830257
-0.0018401001
-0.97072422
-0.0015617313
-1.0374727
-0.0012253304
-1.108874
-0.00087200828
-1.18529
-0.0005495239
-1.2670847
-0.00026471247
-1.3546463
-0.0028266515
-0.65128771
-0.0027959639
-0.69607679
-0.0026080985
-0.7439255
-0.0024344678
-0.79505885
-0.0022705816
-0.84968173
-0.0020931029
-0.90804957
-0.0018342657
-0.97045168
-0.0015058464
-1.0371922
-0.0011453267
-1.1086006
-0.00080934027
-1.1850302
-0.00051670549
-1.2668327
-0.00025346166
-1.3543928
-0.0028677987
-0.609241
-0.0029440098
-0.65113966
-0.0027834252
-0.69590146
-0.0026083412
-0.74375162
-0.002472264
-0.79485716
-0.0023326804
-0.84944216
-0.0020977841
-0.90778605
-0.001779416
-0.97017811
-0.0014144819
-1.036923
-0.0010646046
-1.1083454
-0.00076108586
-1.1847858
-0.00049409305
-1.2665921
-0.00024394574
-1.3541489
-0.0028952886
-0.569888
-0.0031211518
-0.60906386
-0.0029752748
-0.65094781
-0.00276488
-0.69574492
-0.0026478623
-0.74357602
-0.0025550292
-0.79463481
-0.0023537046
-0.84918624
-0.0020479066
-0.90751756
-0.0016799157
-0.96991268
-0.0013182647
-1.0366693
-0.0010019496
-1.1081045
-0.00072754959
-1.1845523
-0.00047553036
-1.2663605
-0.00023209251
-1.3539168
-0.0029200662
-0.53306947
-0.0033116122
-0.56969754
-0.0031598021
-0.60887933
-0.0028825535
-0.65083014
-0.002780313
-0.69561247
-0.00275215
-0.7433789
-0.0026037851
-0.79438473
-0.0023139152
-0.84892023
-0.0019421765
-0.9072553
-0.0015708056
-0.96966014
-0.0012422139
-1.0364291
-0.00095810048
-1.107874
-0.00070003937
-1.1843278
-0.00045311438
-1.2661395
-0.0002153024
-1.3537015
-0.0029498534
-0.49862456
-0.0035330773
-0.532848
-0.0033163375
-0.569541
-0.0029386607
-0.60882322
-0.0028486028
-0.65076185
-0.0029152333
-0.69544939
-0.0028512803
-0.74313141
-0.0025824494
-0.7941162
-0.0022024541
-0.84865995
-0.0018218494
-0.90700426
-0.0014831853
-0.96941917
-0.0011887316
-1.0361984
-0.00092173984
-1.1076523
-0.00066743977
-1.1841135
-0.00042127882
-1.2659335
-0.00019336795
-1.3535081
-0.0030019766
-0.4664
-0.003794993
-0.49836264
-0.0034515148
-0.53271282
-0.0029491064
-0.56953055
-0.0028496214
-0.6088222
-0.0030419368
-0.65063514
-0.003102989
-0.69519768
-0.0028621647
-0.74285169
-0.0024632333
-0.79385542
-0.0020704277
-0.84841137
-0.0017249322
-0.90676251
-0.0014217252
-0.96918617
-0.0011441227
-1.0359761
-0.00087869345
-1.107441
-0.00062179089
-1.183913
-0.00037899865
-1.2657479
-0.00016829564
-1.3533398
-0.0030583695
-0.43625948
-0.0041393774
-0.46605562
-0.0035939287
-0.49822023
-0.0028869327
-0.532775
-0.0027968178
-0.56958336
-0.0031395119
-0.60872463
-0.0033728309
-0.6503653
-0.0031659237
-0.69489392
-0.0027286089
-0.74258632
-0.0023144005
-0.79361145
-0.0019660322
-0.84817027
-0.001658462
-0.90652577
-0.0013703678
-0.96895993
-0.0010909151
-1.0357638
-0.00081935623
-1.1072434
-0.00056079037
-1.1837312
-0.0003299324
-1.2655863
-0.00014326061
-1.3531966
-0.0031853873
-0.4080396
-0.0045841485
-0.43581471
-0.0037550469
-0.4658945
-0.0027483873
-0.49835877
-0.0026541907
-0.53291762
-0.0032136663
-0.5695092
-0.0036749688
-0.60842249
-0.0035146588
-0.65001657
-0.0030057216
-0.69461681
-0.0025501159
-0.7423506
-0.0022027302
-0.79337475
-0.0018988641
-0.84792987
-0.0016033085
-0.90629283
-0.0013082039
-0.96874264
-0.0010178499
-1.0355653
-0.00074089611
-1.1070633
-0.00048832152
-1.1835728
-0.0002804393
-1.2654491
-0.00012116923
-1.3530754
-0.0032970919
-0.38164664
-0.0051926513
-0.40743109
-0.0039725944
-0.43559716
-0.002483915
-0.46615897
-0.0023673943
-0.49864557
-0.0032788764
-0.53285241
-0.0040208084
-0.56916336
-0.0039285382
-0.60800861
-0.0033024854
-0.6497198
-0.0027729028
-0.69439402
-0.002428661
-0.74212467
-0.0021406921
-0.79313292
-0.0018448709
-0.84768831
-0.0015345138
-0.90606652
-0.0012220159
-0.96853847
-0.00092190638
-1.0353843
-0.00064646785
-1.1069052
-0.00041352155
-1.1834397
-0.00023635776
-1.2653339
-0.00010361875
-1.3529718
-0.0035269113
-0.35686324
-0.0059317482
-0.38090754
-0.0042178461
-0.40718584
-0.002071707
-0.43600937
-0.0018832647
-0.4666431
-0.0033087306
-0.49861572
-0.004442625
-0.5324306
-0.0044263586
-0.56866554
-0.0036310642
-0.60768003
-0.0029742183
-0.64951849
-0.0026329048
-0.69418978
-0.0023787605
-0.7418866
-0.0020960654
-0.79288173
-0.0017736674
-0.84744915
-0.0014360799
-0.90585246
-0.0011081123
-0.96835227
-0.00080622079
-1.0352246
-0.00054583287
-1.1067729
-0.00034608587
-1.18333
-0.00020077451
-1.2652367
-9.0715666e-05
-1.3528811
-0.0036767562
-0.33367796
-0.0068813751
-0.35591361
-0.0045840444
-0.38054134
-0.0014471724
-0.40781038
-0.0011485999
-0.43674404
-0.0032987963
-0.46665303
-0.0049918705
-0.49806647
-0.0050364495
-0.53182051
-0.0039821876
-0.56831442
-0.0031445387
-0.60750971
-0.002798638
-0.64935275
-0.0026025524
-0.69396599
-0.0023563649
-0.7416263
-0.0020300698
-0.79262533
-0.0016646277
-0.84722061
-0.0013032262
-0.90565734
-0.00096992559
-0.96818856
-0.00067979804
-1.0350906
-0.00045323218
-1.1066657
-0.00029142502
-1.1832394
-0.00017390047
-1.2651535
-8.1567715e-05
-1.3527995
-0.0040589689
-0.31170494
-0.0079067239
-0.33265261
-0.0050032707
-0.35549438
-0.00062879202
-0.38135972
-0.0001065069
-0.40885247
-0.003213794
-0.43682904
-0.0057281896
-0.46591671
-0.0058223811
-0.49728054
-0.0043693394
-0.53143335
-0.0032504533
-0.56820851
-0.002891993
-0.60741636
-0.0027940031
-0.6491613
-0.0026225691
-0.69369978
-0.0023090775
-0.7413473
-0.0019136439
-0.79237631
-0.0015112552
-0.84701258
-0.0011401578
-0.90548711
-0.00081652304
-0.96805184
-0.00056069973
-1.0349831
-0.00037738481
-1.1065798
-0.00024989492
-1.1831634
-0.00015427972
-1.2650808
-7.4945559e-05
-1.3527246
-0.0046351981
-0.29097012
-0.0092573647
-0.3103543
-0.0056125155
-0.33204337
0.00054750022
-0.35667068
0.0013102104
-0.38277644
-0.0030614747
-0.40900479
-0.0067156987
-0.43584153
-0.0068532156
-0.46488588
-0.0048041652
-0.49684571
-0.0032577284
-0.53142608
-0.0028804091
-0.56822009
-0.0029209904
-0.60728937
-0.0028884325
-0.64889544
-0.0026183724
-0.69339049
-0.0021916669
-0.74106927
-0.0017371619
-0.7921504
-0.0013194423
-0.84683329
-0.00095745162
-0.90534618
-0.00066933371
-0.9679432
-0.00046160879
-1.0348989
-0.00031935266
-1.1065103
-0.00021891352
-1.1830987
-0.00014003208
-1.2650157
-6.9722824e-05
-1.3526548
-0.0052625198
-0.27211315
-0.010770703
-0.28945678
-0.0062062932
-0.30976052
0.0018904671
-0.33338633
0.0031790234
-0.35853949
-0.0027607087
-0.38307721
-0.0080340106
-0.40768648
-0.0082156823
-0.43447906
-0.0053092079
-0.46438084
-0.003124439
-0.496979
-0.0027048714
-0.53160162
-0.0029783257
-0.56816275
-0.0031472269
-0.60703058
-0.0029692082
-0.6485446
-0.0025122376
-0.69306992
-0.0019878811
-0.74081855
-0.0015100346
-0.79195981
-0.0011034438
-0.8466873
-0.00078027872
-0.90523524
-0.0005455729
-0.96785924
-0.00038446804
-1.0348338
-0.00027563085
-1.1064536
-0.00019548128
-1.1830433
-0.00012931236
-1.2649562
-6.5004944e-05
-1.3525898
-0.0058470079
-0.25419089
-0.01252697
-0.27035689
-0.0067724566
-0.28889061
0.0038214041
-0.31169146
0.0055029041
-0.33571021
-0.0024120691
-0.35888813
-0.0097653417
-0.38134588
-0.0099879858
-0.40591417
-0.0059125964
-0.43387567
-0.0028078748
-0.4646974
-0.0022939774
-0.4973899
-0.0029527732
-0.53162717
-0.0034053071
-0.56790467
-0.0033825763
-0.60661721
-0.0028957107
-0.64816113
-0.0022739961
-0.6927838
-0.0017141088
-0.74061448
-0.0012540478
-0.79180921
-0.00089392619
-0.84657365
-0.00063055146
-0.90515026
-0.00044776558
-0.96779594
-0.00032537524
-1.0347841
-0.00024175191
-1.1064073
-0.00017730238
-1.1829953
-0.00012017074
-1.264901
-6.0115562e-05
-1.3525297
-0.0072369673
-0.23550151
-0.0143016
-0.25241626
-0.0076453183
-0.26948403
0.0061230271
-0.29119224
0.0082870978
-0.31447565
-0.00178972
-0.33633256
-0.012032641
-0.35662083
-0.012291334
-0.37904253
-0.006643831
-0.40518294
-0.0022527989
-0.43443075
-0.0015626043
-0.46542877
-0.0027758849
-0.49756679
-0.0036879202
-0.53134456
-0.0038796806
-0.56740757
-0.0033753303
-0.60613759
-0.0026111276
-0.647824
-0.0019337392
-0.69256417
-0.0014069754
-0.74046155
-0.0010087861
-0.79169435
-0.00071730137
-0.8464869
-0.00051110878
-0.90508692
-0.00037116364
-0.96775015
-0.00027894891
-1.0347469
-0.0002141841
-1.1063704
-0.00016214615
-1.1829533
-0.00011067952
-1.2648504
-5.4655585e-05
-1.3524751
-0.0090215661
-0.21691791
-0.016678891
-0.23312421
-0.0086979638
-0.25136362
0.0089127246
-0.27227372
0.011588523
-0.29449366
-0.0012314742
-0.3150339
-0.014873006
-0.3334922
-0.01519634
-0.35371582
-0.0075496679
-0.37813669
-0.0013993396
-0.4060364
-0.000403891
-0.43558946
-0.0023695416
-0.46583512
-0.0040016488
-0.49725306
-0.0044970241
-0.53072721
-0.0039812596
-0.56680164
-0.0030226708
-0.60572605
-0.0021720469
-0.64758569
-0.0015569244
-0.69241422
-0.0011202106
-0.74035013
-0.00080483163
-0.79160682
-0.00057622359
-0.84642179
-0.00041573982
-0.90504234
-0.00030951833
-0.96771958
-0.0002401933
-1.0347209
-0.00019024665
-1.1063423
-0.00014727268
-1.1829167
-9.9720701e-05
-1.2648054
-4.8666149e-05
-1.3524264
-0.010847234
-0.19999354
-0.018975442
-0.21462136
-0.0090099995
-0.23281218
0.011944222
-0.25439511
0.015570342
-0.27625554
-0.00066471343
-0.29506042
-0.018377479
-0.31152942
-0.018883562
-0.32980497
-0.0086421948
-0.3526233
-0.00016593896
-0.37937009
0.0012969385
-0.40773723
-0.0016466453
-0.43631236
-0.004342193
-0.46549457
-0.0052994057
-0.49645068
-0.0047529846
-0.52995549
-0.0035333533
-0.56629096
-0.0024314213
-0.60546667
-0.0016949027
-0.64744771
-0.0012189656
-0.69231547
-0.00088909265
-0.74026587
-0.0006437488
-0.79153929
-0.00046211845
-0.84637541
-0.00033701642
-0.90501484
-0.00025692271
-0.96770285
-0.00020540824
-1.0347057
-0.00016754585
-1.1063221
-0.00013084076
-1.1828856
-8.7528156e-05
-1.2647665
-4.2655058e-05
-1.3523837
-0.012712885
-0.18411635
-0.02108502
-0.19788396
-0.0082549192
-0.21537644
0.01624381
-0.23711177
0.019872762
-0.25869753
6.5455108e-05
-0.27698571
-0.022748711
-0.29068919
-0.023334844
-0.30707814
-0.0099878426
-0.32845933
0.0015421651
-0.3543314
0.0036883726
-0.38176152
-0.00050945415
-0.40887442
-0.0047005272
-0.43595403
-0.0063611073
-0.46443287
-0.0057745555
-0.49542911
-0.0041673837
-0.52932146
-0.002716436
-0.56600594
-0.0018050167
-0.60535656
-0.0012894056
-0.64737728
-0.00096147033
-0.69224309
-0.00071245446
-0.74019716
-0.00051315137
-0.79148826
-0.00036565232
-0.84634677
-0.00026831523
-0.90500345
-0.00020927514
-0.96769899
-0.00017265802
-1.0347006
-0.00014442664
-1.1063085
-0.00011248745
-1.1828606
-7.5491802e-05
-1.2647337
-3.7260223e-05
-1.3523465
-0.016472471
-0.199026
-0.022996436
-0.18220493
-0.006990019
-0.19914886
0.021562782
-0.22069541
0.024644016
-0.24188302
0.0017827496
-0.26041483
-0.028013826
-0.2717206
-0.028525973
-0.28549806
-0.011487225
-0.30557876
0.0038494508
-0.33076661
0.0069067685
-0.3575498
0.001157591
-0.38342857
-0.0050674721
-0.40850747
-0.0077711884
-0.43454394
-0.0071471278
-0.4630603
-0.0049767467
-0.49461974
-0.0030261984
-0.5290117
-0.0018653291
-0.56594563
-0.001306976
-0.60533899
-0.0010068339
-0.64733191
-0.00077801375
-0.69217753
-0.00057133289
-0.74013898
-0.00040046326
-0.79145345
-0.00027940444
-0.84633569
-0.00020547525
-0.90500725
-0.0001642799
-0.96770736
-0.00014005076
-1.034705
-0.00011940625
-1.1063016
-9.3740819e-05
-1.1828424
-6.4811084e-05
-1.2647061
-3.2958663e-05
-1.3523135
-0.019773726
-0.19556165
-0.026721469
-0.19530097
-0.0051665315
-0.18402842
0.027101204
-0.20468729
0.02945045
-0.22550184
0.0032440094
-0.24334428
-0.033268022
-0.25516063
-0.034713616
-0.26553295
-0.013142697
-0.28384259
0.0069221538
-0.30865146
0.011120165
-0.33498001
0.0034637047
-0.35985591
-0.0054294428
-0.3830666
-0.0096313389
-0.40664732
-0.0089982668
-0.43269281
-0.0060317774
-0.46200527
-0.0033553656
-0.49429058
-0.0018472105
-0.52902981
-0.0012376579
-0.56601495
-0.0010016837
-0.60534414
-0.00083216017
-0.64727777
-0.00063879168
-0.69211007
-0.00044803485
-0.74009141
-0.00029694992
-0.7914359
-0.00019895784
-0.8463422
-0.0001451491
-0.90502638
-0.00011898436
-0.96772843
-0.00010589453
-1.0347185
-9.3659156e-05
-1.1063016
-7.7249068e-05
-1.18283
-5.6274216e-05
-1.2646828
-3.0041748e-05
-1.3522835
-0.022585203
-0.19179951
-0.029970219
-0.1923129
-0.0048353393
-0.19563216
0.032629963
-0.18955718
0.03372844
-0.20896528
0.0026568803
-0.22491471
-0.039332299
-0.23728
-0.042676174
-0.24719807
-0.0152823
-0.26339335
0.010862374
-0.28778281
0.016446665
-0.31397796
0.006548927
-0.33806523
-0.0057834853
-0.35950187
-0.012066882
-0.38063106
-0.01147108
-0.40417451
-0.0074200951
-0.43130449
-0.0037047655
-0.46165587
-0.0017050262
-0.49443276
-0.0010308775
-0.52923659
-0.00091902007
-0.56609761
-0.00086341089
-0.60531289
-0.0007176894
-0.64719887
-0.00051710381
-0.69204101
-0.00033030484
-0.74005805
-0.00019687706
-0.79143798
-0.00011957237
-0.84636778
-8.3807602e-05
-0.90506156
-7.2837944e-05
-0.96776149
-7.2161751e-05
-1.03474
-7.0571765e-05
-1.1063083
-6.3977219e-05
-1.1828223
-5.0467185e-05
-1.2646624
-2.8626102e-05
-1.3522549
-0.02489762
-0.18798939
-0.032724401
-0.18904532
-0.0037306631
-0.19341758
0.036738785
-0.19974098
0.037458637
-0.19328737
0.00087172528
-0.20718012
-0.047238886
-0.21700813
-0.051451641
-0.22850454
-0.018654239
-0.24382613
0.015676584
-0.26820756
0.023005459
-0.2943416
0.010477783
-0.31790682
-0.0061094832
-0.33773923
-0.015218698
-0.35635005
-0.014744392
-0.37735774
-0.0092415111
-0.40235309
-0.0040760851
-0.43093317
-0.0013792511
-0.46198164
-0.00062181008
-0.49484183
-0.00070571886
-0.52944989
-0.00085371831
-0.56610731
-0.00080911515
-0.60522146
-0.00061804635
-0.64709793
-0.00039179542
-0.69197951
-0.00020941827
-0.74004551
-9.4408893e-05
-0.79146315
-3.7962779e-05
-0.84641362
-2.2305485e-05
-0.90511209
-2.8751334e-05
-0.9678049
-4.1736664e-05
-1.0347688
-5.1978587e-05
-1.1063203
-5.4671634e-05
-1.182818
-4.7563701e-05
-1.2646434
-2.8617704e-05
-1.3522262
-0.02667143
-0.18422435
-0.034993627
-0.18572017
-0.0020183117
-0.19075767
0.041522493
-0.19820129
0.040285842
-0.20256819
-0.0014974449
-0.1909182
-0.055611964
-0.19880704
-0.059119184
-0.20934058
-0.022127551
-0.22503122
0.021412115
-0.24956166
0.030820891
-0.27602299
0.015333356
-0.29919717
-0.0064459611
-0.31757034
-0.019254453
-0.33370348
-0.018999598
-0.35209484
-0.011616643
-0.37498261
-0.0044726992
-0.40195648
-0.00079777212
-0.43151465
7.345762e-05
-0.46267691
-0.00029533095
-0.49525221
-0.00077590791
-0.52952771
-0.00090300403
-0.56601342
-0.00076210661
-0.6050774
-0.0004975054
-0.64699221
-0.00025013082
-0.6919388
-7.9242587e-05
-0.74006068
1.2955158e-05
-0.79151407
4.4003992e-05
-0.84647993
3.5983051e-05
-0.90517682
1.0249562e-05
-0.96785688
-1.7136837e-05
-1.0348036
-3.895145e-05
-1.106336
-4.9780208e-05
-1.1828158
-4.6992318e-05
-1.2646251
-2.9896474e-05
-1.3521963
-0.027874137
-0.18071369
-0.036725736
-0.18249224
9.2573541e-05
-0.18783105
0.046710312
-0.19594549
0.043726483
-0.20164193
-0.0039178865
-0.20014775
-0.063949537
-0.18258063
-0.065893092
-0.19203314
-0.02394302
-0.20752511
0.028366799
-0.23198591
0.040120082
-0.25886085
0.021116663
-0.2818063
-0.0068491072
-0.29879403
-0.024377971
-0.31244682
-0.024455111
-0.32824797
-0.014664527
-0.34904696
-0.0048896037
-0.37456571
0.00012284094
-0.40287709
0.0011628335
-0.43260402
0.00039407368
-0.46336632
-0.0005805902
-0.49544753
-0.0010123977
-0.52941831
-0.00095837444
-0.56581715
-0.00066873663
-0.60490617
-0.00033769806
-0.64690465
-8.6527987e-05
-0.69193152
6.1921332e-05
-0.74010964
0.00012219613
-0.79159226
0.00012149815
-0.84656545
8.8228322e-05
-0.9052548
4.3076222e-05
-0.9679171
1.5890041e-08
-1.0348426
-3.1977549e-05
-1.1063538
-4.8923546e-05
-1.1828139
-4.9372033e-05
-1.2646056
-3.2315748e-05
-1.352164
-0.028503934
-0.17766233
-0.03789634
-0.17954309
0.0024469552
-0.18484662
0.052066633
-0.19318737
0.047542006
-0.19976102
-0.0059716881
-0.19958813
-0.072495868
-0.19160141
-0.072200295
-0.17627343
-0.024694988
-0.19128117
0.036684123
-0.21584244
0.051238178
-0.24310401
0.028238665
-0.26598286
-0.0073890839
-0.28126632
-0.030833244
-0.29233876
-0.031292645
-0.30560929
-0.018528104
-0.32438439
-0.005319149
-0.34861742
0.0014879598
-0.37593083
0.0027660193
-0.40448028
0.0014611516
-0.4336711
-0.00021407622
-0.46373283
-0.0011326426
-0.49532729
-0.0012351168
-0.52914157
-0.00093289718
-0.56555299
-0.00049738247
-0.60474648
-0.00013390358
-0.64685727
9.7802608e-05
-0.6919674
0.00020665107
-0.7401941
0.00022511886
-0.79169588
0.00019036784
-0.84666759
0.00013085588
-0.90534258
6.6117984e-05
-0.9679832
9.5498116e-06
-1.0348841
-3.0826721e-05
-1.1063719
-5.2606775e-05
-1.1828107
-5.4128348e-05
-1.2645838
-3.5605652e-05
-1.3521284
-0.028615616
-0.17525534
-0.03847002
-0.17708865
0.0048392485
-0.18193538
0.057309774
-0.19008976
0.05165287
-0.19729824
-0.00771628
-0.19801642
-0.080681665
-0.19140233
-0.080752506
-0.1830492
-0.024450249
-0.17651817
0.046014587
-0.20061163
0.063549596
-0.22815386
0.037115721
-0.25198106
-0.0075200521
-0.26585189
-0.038718874
-0.27338069
-0.039691036
-0.28394037
-0.023269809
-0.30086758
-0.0057433826
-0.32396016
0.0034137269
-0.35054318
0.0050214988
-0.3781863
0.0030266007
-0.40604573
0.0003918297
-0.43427701
-0.0012452509
-0.46362022
-0.0016353343
-0.49492707
-0.001321357
-0.52875311
-0.00076564903
-0.56528472
-0.00024401438
-0.60463637
0.00010739289
-0.64686686
0.00029090476
-0.69205165
0.00034450711
-0.74031349
0.00031691744
-0.79182243
0.0002468865
-0.84678362
0.00016151392
-0.90543798
7.919384e-05
-0.96805284
1.154956e-05
-1.0349265
-3.5240083e-05
-1.1063893
-5.9769008e-05
-1.182805
-6.0629762e-05
-1.2645587
-3.9471777e-05
-1.3520889
-0.02817908
-0.1736099
-0.038492811
-0.17523255
0.0071769898
-0.1794264
0.062152119
-0.18677773
0.055775128
-0.19421202
-0.0090442977
-0.19597022
-0.088353945
-0.19034414
-0.089014991
-0.18313984
-0.029023631
-0.17847582
0.056107712
-0.18661129
0.076252971
-0.21331501
0.046249047
-0.23728718
-0.0067944583
-0.25270665
-0.04778793
-0.25678283
-0.049694711
-0.26337702
-0.028928274
-0.2782819
-0.006098893
-0.30051207
0.0060410323
-0.32658746
0.0080779877
-0.35359967
0.0052240114
-0.38038372
0.0013223113
-0.40697621
-0.0013314706
-0.43419079
-0.0021930327
-0.46306252
-0.0018981836
-0.49435024
-0.0011750677
-0.52834369
-0.00045072836
-0.56507801
7.4289504e-05
-0.60460327
0.00036760369
-0.64694356
0.0004771229
-0.69218427
0.00046767339
-0.74046424
0.00039242979
-0.79196797
0.00028813198
-0.84691024
0.00017951345
-0.9055383
8.2478612e-05
-0.96812377
6.3886899e-06
-1.0349681
-4.4621493e-05
-1.1064045
-6.9607218e-05
-1.182796
-6.8358972e-05
-1.2645299
-4.3632975e-05
-1.3520453
-0.17288237
-0.027301671
-0.038016197
-0.17408652
0.0093793121
-0.17743487
0.066374424
-0.1836487
0.059710303
-0.1907129
-0.010062762
-0.19319355
-0.095411706
-0.18891246
-0.09676721
-0.18259192
-0.033257491
-0.17890599
0.061806181
-0.18417429
0.088693432
-0.19905175
0.055006795
-0.22207275
-0.004994037
-0.2390876
-0.058113929
-0.24238066
-0.06160522
-0.24487232
-0.035634616
-0.25667068
-0.0062738922
-0.2781069
0.0095224783
-0.30399352
0.01209708
-0.33060655
0.0082000954
-0.35657575
0.0026771081
-0.38173851
-0.0013710513
-0.40693663
-0.0029501788
-0.43343364
-0.0027385222
-0.46222218
-0.0017865518
-0.49373876
-0.00078827149
-0.52800615
-2.3889197e-05
-0.56497983
0.00042681654
-0.60466248
0.00062067264
-0.64708711
0.00064331447
-0.69235991
0.00056898479
-0.7406408
0.00044799635
-0.79212784
0.00031307713
-0.8470438
0.00018502376
-0.90564084
7.6747166e-05
-0.96819413
-4.8734624e-06
-1.0350079
-5.7854469e-05
-1.1064162
-8.1353475e-05
-1.1827831
-7.6669649e-05
-1.2644968
-4.7795505e-05
-1.3519975
-0.17367974
-0.037218828
-0.17328583
-0.025967209
0.011082596
-0.1757898
0.069861779
-0.18092223
0.063179683
-0.18711808
-0.010724522
-0.19005114
-0.10165198
-0.18695328
-0.10393956
-0.18174011
-0.037128335
-0.17872108
0.068053307
-0.18515311
0.099692905
-0.19517376
0.062961545
-0.2070065
-0.0043826266
-0.22268416
-0.06913478
-0.22806675
-0.075879012
-0.22810686
-0.04415399
-0.23635295
-0.0061839995
-0.25676057
0.014024445
-0.28260887
0.017226168
-0.30912261
0.012108696
-0.33451515
0.0045743282
-0.35847298
-0.001326608
-0.38178296
-0.0039569859
-0.40592982
-0.0039312913
-0.43224087
-0.0026888323
-0.4613199
-0.0012965689
-0.49323046
-0.00021735337
-0.52781268
0.00046010268
-0.56501312
0.00077391076
-0.60481572
0.0008459288
-0.64728973
0.00077941674
-0.69257034
0.00064376802
-0.74083657
0.00048245374
-0.79229721
0.00032208136
-0.84718086
0.00017905252
-0.90574315
6.3056913e-05
-0.96826206
-2.1611223e-05
-1.0350441
-7.3795419e-05
-1.1064238
-9.4107444e-05
-1.1827656
-8.5091249e-05
-1.2644595
-5.1805618e-05
-1.3519457
-0.17485876
0.012261616
-0.1745219
-0.035982761
-0.17497919
-0.024196552
0.072299381
-0.1782274
0.065993738
-0.18373628
-0.011094246
-0.18674836
-0.1069033
-0.18479982
-0.11021676
-0.18067607
-0.040661582
-0.17820686
0.07473399
-0.18540176
0.11123455
-0.19669476
0.073602829
-0.20581505
-0.0063251027
-0.20506403
-0.08134965
-0.21046929
-0.092601583
-0.21134418
-0.054850043
-0.21741081
-0.0062657397
-0.23627121
0.019757361
-0.26249348
0.0236228
-0.2890055
0.017086677
-0.31410059
0.0071432317
-0.33708406
-0.0011749244
-0.35862466
-0.005271497
-0.38046845
-0.005580892
-0.40428022
-0.0039843806
-0.43094532
-0.0020476736
-0.4605688
-0.0005284805
-0.49291934
0.00045109299
-0.52780367
0.00093749011
-0.5651767
0.0010811992
-0.60505099
0.0010290906
-0.6475394
0.00087961886
-0.69280619
0.00069087014
-0.74104499
0.00049651534
-0.79247165
0.00031651143
-0.84731832
0.00016301203
-0.9058431
4.2644318e-05
-0.96832632
-4.2145426e-05
-1.0350758
-9.1400278e-05
-1.1064265
-0.00010717856
-1.1827435
-9.3323271e-05
-1.264418
-5.5494114e-05
-1.3518902
-0.17638271
0.073823331
-0.17519877
0.012938493
-0.17655737
-0.034404577
-0.17740886
-0.022028247
0.068161229
-0.18039489
-0.011217156
-0.18361337
-0.11100857
-0.18264309
-0.11542788
-0.1795887
-0.043775296
-0.17756236
0.081555492
-0.18502836
0.12318183
-0.19734905
0.084895998
-0.20798793
-0.0022723613
-0.20986779
-0.094448902
-0.19196477
-0.10892025
-0.19415062
-0.066636824
-0.1995574
-0.0067543025
-0.21692225
0.026835369
-0.24334922
0.031384096
-0.27025478
0.023279168
-0.29519799
0.010510872
-0.31746823
-0.0008405593
-0.33741842
-0.0069580449
-0.35693811
-0.0078209263
-0.37822841
-0.0057942152
-0.40247039
-0.0031282225
-0.42986478
-0.0009893735
-0.46010791
0.00038760649
-0.49285585
0.0011148389
-0.52798102
0.0013566673
-0.56545216
0.0013265582
-0.60534846
0.0011620306
-0.64782181
0.00094276964
-0.69305809
0.00071162432
-0.7412601
0.00049210403
-0.79264724
0.00029825788
-0.84745356
0.00013856844
-0.90593903
1.7128734e-05
-0.96838559
-6.5078008e-05
-1.0351021
-0.00010967017
-1.106424
-0.00012004558
-1.1827168
-0.00010091916
-1.2643726
-5.8749807e-05
-1.3518315
-0.17780544
0.069583964
-0.17556183
0.074186385
-0.17662998
0.013011094
-0.17939549
-0.032417949
-0.18029247
-0.019624214
-0.010805779
-0.18080627
-0.11386093
-0.18076101
-0.11940159
-0.17866938
-0.046288594
-0.17707541
0.088184552
-0.18419142
0.13504904
-0.19689557
0.096562531
-0.20901558
0.0027402747
-0.21300056
-0.10252028
-0.20179642
-0.12281438
-0.17807064
-0.077443672
-0.18334377
-0.0073913728
-0.19892033
0.035271048
-0.22535793
0.040697357
-0.25266248
0.030753318
-0.27772893
0.014831391
-0.29951851
-0.00028513861
-0.31802365
-0.0090900846
-0.33528638
-0.010799566
-0.35395947
-0.0082703736
-0.37575225
-0.0046361685
-0.40096244
-0.0016494131
-0.42920474
0.00027086656
-0.45999117
0.0013112134
-0.49305222
0.0016896025
-0.52831396
0.0016861939
-0.5658118
0.0015010165
-0.60568745
0.001244499
-0.64812354
0.00097142652
-0.69331789
0.00070886414
-0.74147686
0.0004717548
-0.79282074
0.00026947468
-0.84758447
0.00010759081
-0.90602949
-1.1707848e-05
-0.96843896
-8.915637e-05
-1.0351226
-0.0001278208
-1.1064162
-0.00013212259
-1.1826856
-0.00010776571
-1.2643236
-6.1557614e-05
-1.3517699
-0.17862429
-0.0099869329
-0.17605704
0.070079174
-0.17612229
0.073678705
-0.17896921
0.012584821
-0.18258618
-0.030124233
-0.18381254
-0.017058704
-0.11527326
-0.17939394
-0.12203287
-0.17812973
-0.048192438
-0.17676553
0.094399033
-0.18328989
0.14636863
-0.19551101
0.10841271
-0.20874575
0.0075439882
-0.21381929
-0.11013989
-0.20538095
-0.13718275
-0.18742805
-0.086833288
-0.16868103
-0.0081061741
-0.18262897
0.044764016
-0.2084133
0.051604315
-0.23626488
0.03963045
-0.26153961
0.020196779
-0.28309432
0.00060191609
-0.30040556
-0.011750035
-0.3153637
-0.014713543
-0.33137241
-0.011580221
-0.35064962
-0.0066873822
-0.37370104
-0.0025635935
-0.40004826
9.949722e-05
-0.42903337
0.0015413114
-0.46022127
0.0021034807
-0.4934661
0.002129444
-0.52875721
0.00191246
-0.56622324
0.0016055538
-0.6060485
0.0012812437
-0.64843336
0.00096999929
-0.69357903
0.00068613028
-0.74169123
0.00043827244
-0.79298953
0.00023245668
-0.84770934
7.2072987e-05
-0.90611327
-4.2389381e-05
-0.96848573
-0.00011334092
-1.0351371
-0.00014516902
-1.1064032
-0.00014316052
-1.1826502
-0.00011374482
-1.2642714
-6.3858952e-05
-1.3517061
-0.17878131
-0.11511624
-0.17739319
-0.0086507796
-0.17592956
0.069886437
-0.17736053
0.072070023
-0.18181338
0.011812022
-0.18630761
-0.027629157
-0.18768415
-0.014492401
-0.1235017
-0.17792511
-0.049514084
-0.17680808
0.099921572
-0.18228807
0.1565934
-0.19351466
0.11990509
-0.20700339
0.01281358
-0.21401535
-0.11758651
-0.20637267
-0.15156885
-0.19099485
-0.10352636
-0.17073498
-0.0088278586
-0.16795934
0.054777141
-0.1926421
0.06407895
-0.22088794
0.049882473
-0.24651691
0.026735667
-0.2680785
0.0018754105
-0.28436781
-0.015007824
-0.29714778
-0.019760714
-0.31031652
-0.015938157
-0.32701447
-0.0094041336
-0.34793287
-0.0037869031
-0.37247773
-0.00013277613
-0.39981599
0.0018351258
-0.42932718
0.0026277859
-0.46074557
0.0026868804
-0.49402354
0.0024186427
-0.52926339
0.0020397944
-0.56665748
0.001648279
-0.60641554
0.0012791391
-0.6487425
0.00094362827
-0.69383653
0.00064719725
-0.74190016
0.0003945415
-0.79315162
0.00018954747
-0.84782681
3.3930141e-05
-0.90618959
-7.3531304e-05
-0.96852554
-0.00013681137
-1.0351455
-0.00016125273
-1.1063851
-0.00015296263
-1.182611
-0.00011872006
-1.2642165
-6.5693044e-05
-1.3516404
-0.17881742
-0.1234656
-0.17946792
-0.11304151
-0.17726783
-0.0073125035
-0.17639238
0.068918287
-0.17924084
0.06949748
-0.18511909
0.010623504
-0.19021463
-0.025098681
-0.19162316
-0.012112533
-0.049803517
-0.17763567
0.10444005
-0.18132656
0.16533983
-0.1910345
0.1305236
-0.20413316
0.017948672
-0.21213848
-0.12470386
-0.20689799
-0.16495475
-0.19298678
-0.11994291
-0.1745783
-0.021423334
-0.1581395
0.065327817
-0.17851002
0.077708012
-0.20627116
0.061535769
-0.23254123
0.034355699
-0.25413694
0.0035917317
-0.26979482
-0.018990473
-0.28038517
-0.026199515
-0.29070897
-0.021543094
-0.30471159
-0.01292379
-0.32349481
-0.0053733669
-0.34634641
-0.00042154916
-0.37218896
0.0022285026
-0.40020936
0.0033042837
-0.43000368
0.0034016681
-0.46146036
0.0030516449
-0.49465654
0.0025675982
-0.52979119
0.0020830246
-0.56709223
0.0016406925
-0.60677709
0.0012460284
-0.6490449
0.00089758103
-0.69408691
0.00059578018
-0.7421014
0.00034338583
-0.79330546
0.00014298824
-0.84793587
-5.2335449e-06
-0.90625789
-0.00010417008
-0.96855818
-0.0001589671
-1.0351477
-0.00017585838
-1.1063622
-0.00016135618
-1.1825684
-0.00012282029
-1.2641594
-6.707465e-05
-1.3515733
-0.17970312
-0.04891781
-0.1813198
-0.12161371
-0.18072396
-0.10958538
-0.17813607
-0.005568812
-0.17747592
0.067153362
-0.18160851
0.065986896
-0.1886068
0.0090156755
-0.19401544
-0.0227064
-0.19548101
-0.010111961
0.10810486
-0.18130049
0.1724058
-0.18839253
0.13970792
-0.20021882
0.02294904
-0.20913353
-0.13131125
-0.20553109
-0.17779707
-0.19405567
-0.13579158
-0.1771381
-0.034533007
-0.16146863
0.066785032
-0.15959672
0.092412512
-0.19321452
0.074506127
-0.21924152
0.043178447
-0.24136398
0.005656142