/*--------------------------------*- C++ -*----------------------------------*\
| =========                 |                                                 |
| \\      /  F ield         | OpenFOAM: The Open Source CFD Toolbox           |
|  \\    /   O peration     | Version:  5.0                                   |
|   \\  /    A nd           | Web:      www.OpenFOAM.org                      |
|    \\/     M anipulation  |                                                 |
\*---------------------------------------------------------------------------*/
FoamFile
{
    version     2.0;
    format      ascii;
    class       volScalarField;
    location    "260";
    object      pMean;
}
// * * * * * * * * * * * * * * * * * * * * * * * * * * * * * * * * * * * * * //

dimensions      [0 2 -2 0 0 0 0];

internalField   nonuniform List<scalar> 
9520
(
7.4338647e-05
7.4472345e-05
0.0001923183
7.4562692e-05
0.0001930014
0.00031411682
7.4346373e-05
0.00019390179
0.00031545443
0.00042711365
7.3616099e-05
0.00019443969
0.00031743146
0.00042961547
0.00053710907
7.2136419e-05
0.00019406502
0.000319083
0.00043352113
0.00054112742
0.00063974746
6.9751311e-05
0.00019219373
0.00031948194
0.00043749927
0.00054769289
0.00064573798
0.0007362228
6.6259305e-05
0.00018836893
0.00031768651
0.00044024324
0.00055506537
0.00065584729
0.000744588
0.00082452962
6.1608489e-05
0.00018221086
0.00031293478
0.00044044471
0.00056154942
0.0006679389
0.00075902162
0.00083558636
0.00090451796
5.5770527e-05
0.00017356972
0.00030450491
0.00043700481
0.00056546535
0.00067995925
0.00077700422
0.00085501454
0.00091856061
0.00097501997
4.9299044e-05
0.00016202068
0.00029202312
0.00042897155
0.00056537723
0.00068987314
0.00079614557
0.00087997328
0.0009435648
0.00099216525
0.0010356835
4.1166132e-05
0.00014745479
0.0002751341
0.00041568537
0.0005600364
0.00069589189
0.00081408504
0.00090778969
0.00097639256
0.0010230322
0.0010559764
0.0010860341
3.1499429e-05
0.00012872983
0.00025396116
0.00039634866
0.00054852388
0.00069638458
0.00082870943
0.0009358103
0.0010141374
0.0010642837
0.0010928625
0.0011093386
0.0011258807
1.7833266e-05
0.00010775911
0.00022761798
0.00037070579
0.00052998864
0.00069001188
0.00083808868
0.00096158188
0.0010539043
0.0011128804
0.0011428872
0.0011520565
0.0011519572
0.0011552334
5.6315195e-06
8.2885424e-05
0.00019675222
0.00033852802
0.00050399325
0.00067558102
0.00084062502
0.00098281584
0.0010930212
0.0011657738
0.0012029647
0.0012107254
0.0012001312
0.0011836813
0.0011742769
-1.1074681e-05
5.8600292e-05
0.00015958069
0.00030129264
0.00046975163
0.00065295222
0.0008349623
0.00099759166
0.0011289629
0.0012200951
0.0012699783
0.0012823407
0.0012670613
0.0012366326
0.0012045768
0.0011834837
-2.3042018e-05
2.8125311e-05
0.00012088215
0.0002569777
0.0004287386
0.00062140205
0.00082014703
0.0010043751
0.0011595124
0.0012730715
0.0013409376
0.0013638445
0.001349952
0.0013110001
0.0012614083
0.0012149967
0.0011834071
-4.2931728e-05
2.0691703e-06
7.528306e-05
0.00020921948
0.00037926421
0.00058174249
0.00079542148
0.0010020446
0.0011826625
0.0013222064
0.0014128903
0.001452247
0.0014459305
0.001404338
0.0013420933
0.0012745692
0.0012154268
0.0011749048
-5.5179539e-05
-3.368449e-05
3.1838958e-05
0.00015277584
0.00032487541
0.00053203294
0.00076143361
0.00098935703
0.0011969336
0.0013652144
0.0014830597
0.0015445092
0.0015520934
0.0015141041
0.0014446776
0.0013600794
0.0012764363
0.0012066372
0.0011588776
-7.6725551e-05
-5.7179523e-05
-2.0756505e-05
9.6865391e-05
0.00026069635
0.00047551083
0.00071605077
0.0009666099
0.0012009464
0.0014002445
0.0015488425
0.0016376557
0.0016653807
0.0016376405
0.0015670938
0.0014702201
0.0013650176
0.0012676109
0.0011894518
0.0011364487
-8.9904526e-05
-9.8267181e-05
-6.5130331e-05
3.1585371e-05
0.00019534224
0.00040787273
0.00066202659
0.00093164454
0.0011946811
0.0014256123
0.0016081174
0.0017287935
0.0017826833
0.0017720055
0.001707064
0.0016035508
0.0014806565
0.0013572505
0.0012488187
0.0011649563
0.0011086632
-0.00011044892
-0.0001227978
-0.00012556565
-2.8934164e-05
0.0001182384
0.00033685075
0.00059564846
0.00088645286
0.0011759636
0.0014408836
0.0016588801
0.0018154382
0.0019009298
0.0019140679
0.00186188
0.0017583351
0.0016226985
0.001475965
0.0013373332
0.0012210554
0.0011342028
0.0010767271
-0.00012592273
-0.00016637484
-0.00016806883
-0.00010244387
4.420372e-05
0.00025185745
0.00052402977
0.00082760217
0.001146055
0.001443894
0.0017001766
0.0018952067
0.0020172761
0.0020605669
0.0020284864
0.0019322586
0.0017901045
0.0016240232
0.0014564348
0.0013061032
0.0011853531
0.001098437
0.0010417626
-0.00013784127
-0.00019592535
-0.00023487699
-0.0001644917
-4.3368899e-05
0.00016798406
0.00043634283
0.00076217024
0.0011016154
0.0014356595
0.0017296228
0.0019666367
0.0021289565
0.0022083064
0.002203544
0.002122478
0.0019811026
0.0018012396
0.0016074433
0.001422667
0.0012645309
0.0011429626
0.0010588047
0.0010049822
-0.00015585542
-0.00024460023
-0.00027774955
-0.00024822748
-0.00012293237
6.792598e-05
0.00034764487
0.00067902761
0.0010496696
0.001412447
0.0017483004
0.0020272024
0.0022339915
0.0023542005
0.0023835996
0.0023256573
0.0021932047
0.002006569
0.0017911824
0.0015732236
0.0013754912
0.0012138436
0.0010950829
0.0010165708
0.00096746628
-0.00017080405
-0.00027661514
-0.00035478105
-0.00031179567
-0.00022412524
-2.7586632e-05
0.00023990628
0.00059278302
0.00097898665
0.001380975
0.0017519603
0.0020773925
0.0023296372
0.0024957227
0.0025652198
0.0025381634
0.0024232193
0.0022380567
0.0020074975
0.0017597315
0.0015219562
0.001316054
0.0011553008
0.0010430872
0.0009729005
0.0009302663
-0.0001826046
-0.00033084341
-0.00041046573
-0.00041091867
-0.00031094049
-0.00014793568
0.00013283952
0.00048465476
0.00090350745
0.0013302547
0.0017467939
0.0021127377
0.0024154765
0.0026297202
0.0027453225
0.0027562351
0.00266745
0.0024928108
0.0022551359
0.0019831004
0.0017071421
0.001454608
0.0012456308
0.0010903636
0.00098825773
0.00092895145
0.00089430546
-0.0001987075
-0.00037012064
-0.00048573995
-0.00049374815
-0.00042968794
-0.00025987644
-2.7579961e-06
0.00037371031
0.00080393803
0.0012733681
0.0017219909
0.0021387741
0.0024869198
0.0027549229
0.0029203834
0.002976286
0.0029218705
0.0027672018
0.0025316944
0.0022429709
0.0019331582
0.001634059
0.0013723818
0.0011657346
0.0010204301
0.00093191869
0.00088571073
0.00086043779
-0.00021261232
-0.00040263672
-0.00056070456
-0.00060281573
-0.00054409632
-0.00040440138
-0.00013788812
0.00023025718
0.00069915661
0.0011899818
0.0016903984
0.0021442936
0.0025486736
0.0028665995
0.003088196
0.0031944331
0.003182405
0.0030569978
0.0028337849
0.0025376299
0.0022007261
0.0018578562
0.0015415041
0.0012767758
0.0010778606
0.00094700191
0.00087519047
0.00084411071
0.00082941499
-0.00022445655
-0.00044578673
-0.0006294659
-0.00072438631
-0.00069461075
-0.00055766613
-0.0003110981
7.9398725e-05
0.00055904411
0.0010989576
0.0016294574
0.0021426772
0.0025892176
0.0029685121
0.0032437745
0.0034075948
0.0034448456
0.0033577337
0.0031571207
0.0028640978
0.0025090268
0.0021279947
0.0017578986
0.0014308499
0.001169389
0.00098369447
0.00087144774
0.00081919647
0.00080501781
0.00080188762
-0.0002329143
-0.00048254709
-0.000707708
-0.00084366843
-0.00086632866
-0.0007566077
-0.00050105416
-0.00011902701
0.00040376465
0.00096936101
0.0015578549
0.002110059
0.0026212826
0.0030489051
0.003389914
0.0036102914
0.0037053193
0.0036648678
0.0034969696
0.0032182341
0.0028557247
0.0024447753
0.0020249955
0.0016344037
0.0013037543
0.0010520909
0.00088497241
0.00079526564
0.00076500551
0.0007692082
0.00077839812
-0.00023695744
-0.00053199105
-0.00078040693
-0.00096960247
-0.0010492455
-0.00099197896
-0.00075201341
-0.00034283798
0.00019220052
0.00081706677
0.001443149
0.0020632545
0.0026203781
0.0031198524
0.0035147846
0.0038044093
0.0039576461
0.0039738183
0.0038483319
0.0035951744
0.0032370155
0.0028067295
0.0023444243
0.0018924122
0.0014889377
0.0011621954
0.00092689429
0.00078357643
0.00071980423
0.00071362461
0.0007373434
0.0007593711
-0.00024206896
-0.00057538321
-0.00087291576
-0.001089594
-0.0012364626
-0.0012544063
-0.0010592213
-0.00064856576
-5.2339485e-05
0.00060132063
0.0012985237
0.0019676528
0.0026035868
0.0031551813
0.0036294
0.0039780305
0.0042028175
0.0042776239
0.0042060491
0.0039895208
0.0036481009
0.0032106337
0.0027158375
0.0022080511
0.0017314995
0.0013234151
0.0010083573
0.00079596746
0.00068110743
0.00064627705
0.00066590121
0.00070994125
0.00074510165
-0.00024197484
-0.00063576387
-0.00096226296
-0.0012369902
-0.0014232465
-0.001523587
-0.0014149656
-0.0010269755
-0.00040810835
0.00033582189
0.0010794943
0.0018336031
0.0025319516
0.0031731205
0.0037067111
0.0041409484
0.0044287324
0.0045762346
0.0045624982
0.0043955258
0.004083367
0.0036519701
0.0031369078
0.002582291
0.0020363506
0.0015439995
0.0011401396
0.00084465973
0.00066125305
0.00057908129
0.00057573989
0.00062256801
0.00068738135
0.00073578126
-0.00024118535
-0.0006998162
-0.0010712392
-0.0013843975
-0.0016486367
-0.0017973299
-0.0017890004
-0.0014945908
-0.0008551936
-5.6886141e-05
0.00079261929
0.0016129531
0.0024148021
0.0031309793
0.003765347
0.0042655722
0.0046439173
0.0048572145
0.004916251
0.0048050151
0.0045364117
0.0041250807
0.0036036189
0.0030141025
0.0024061593
0.0018307056
0.0013321041
0.00094160537
0.00067343719
0.00052478454
0.00047891471
0.00050915461
0.00058423808
0.00066992803
0.0007315214
-0.00023995819
-0.00076380726
-0.001187521
-0.0015560725
-0.0018758274
-0.0021298914
-0.0021658123
-0.0019926653
-0.0014361878
-0.00056620275
0.0003671892
0.0013042905
0.0021995649
0.0030378932
0.0037586399
0.0043709356
0.0048203169
0.0051278698
0.0052543336
0.005214984
0.0049984602
0.0046231432
0.0041103959
0.0035002463
0.0028413423
0.0021881261
0.0015930861
0.0010985811
0.00073068448
0.00049717921
0.00038840747
0.00038196776
0.00044745833
0.00055127476
0.0006577816
0.00073235319
-0.00023538332
-0.00082716539
-0.0013022667
-0.0017447557
-0.0021313216
-0.0024654127
-0.0026356708
-0.0024868541
-0.0020690119
-0.0012674557
-0.00020761023
0.00084609486
0.0018777344
0.0028356959
0.0036965587
0.0044066805
0.0049770021
0.0053595979
0.005583203
0.00561213
0.0054653032
0.0051366853
0.0046504344
0.0040355014
0.0033399018
0.0026184593
0.0019297135
0.0013261469
0.00084642159
0.00051032928
0.00031826981
0.00025394718
0.00028948211
0.00039151401
0.00052395494
0.00065102631
0.00073823909
-0.00022893569
-0.00088115099
-0.0014155826
-0.0019309208
-0.0024137076
-0.0028320803
-0.0031102546
-0.0031200928
-0.0026990253
-0.0020558079
-0.0010314947
0.00019158314
0.0013849587
0.0025109425
0.0035147054
0.0043844465
0.0050607187
0.0055709967
0.0058733481
0.0060013054
0.0059228875
0.0056604274
0.0052138247
0.0046135176
0.0038972437
0.0031212257
0.0023461734
0.0016331005
0.0010328903
0.00057885502
0.00028339283
0.00013910494
0.00012304943
0.00020268062
0.00034174564
0.00050254364
0.0006496885
0.00074907841
-0.0002208302
-0.00092413634
-0.0015133235
-0.0021145498
-0.0026915707
-0.0032404708
-0.0036196712
-0.0037670775
-0.0035243734
-0.0028502655
-0.0019810758
-0.00075933487
0.00066310368
0.0019893971
0.003194097
0.0042325242
0.0050847014
0.0057060482
0.0061426915
0.0063525213
0.0063742406
0.0061795979
0.0057938473
0.0052239511
0.0045079355
0.0036930764
0.0028438602
0.002025909
0.0013011145
0.00071675144
0.00029928346
5.2821353e-05
-3.8115822e-05
-2.6180025e-06
0.0001225119
0.00029850682
0.00048718612
0.00065369407
0.00076471156
-0.00021108398
-0.00095253735
-0.001591685
-0.0022767865
-0.0029627803
-0.003642278
-0.0041908078
-0.0044531426
-0.0043824435
-0.0038866098
-0.002957021
-0.0018781439
-0.00041071352
0.0012187363
0.0026511068
0.0039292014
0.0049704681
0.0057795856
0.0063323899
0.0066825693
0.0067889394
0.0066950637
0.0063753177
0.0058588216
0.0051614387
0.0043296261
0.0034213847
0.00250827
0.0016600228
0.00093717184
0.0003815184
1.1250445e-05
-0.00017852433
-0.00021115629
-0.00012165935
4.9647897e-05
0.00026212144
0.00047789532
0.00066292796
0.00078492787
-0.0009611407
-0.00020902224
-0.0016465702
-0.0024112676
-0.003203302
-0.0040304489
-0.0047534542
-0.0052278823
-0.0052846959
-0.0049856683
-0.0042232467
-0.0030553687
-0.0017148575
4.1653698e-05
0.0018413326
0.0033802457
0.0046964859
0.0057071526
0.0064592729
0.0069302116
0.0071822292
0.007175785
0.0069570073
0.0065028819
0.0058486687
0.0050207237
0.0040750992
0.0030810201
0.0021159047
0.0012515829
0.00054525238
3.1263575e-05
-0.00028167584
-0.00040773929
-0.00037808979
-0.00023288143
-1.5433263e-05
0.0002327727
0.00047462577
0.00067719845
0.00080948011
-0.0016697018
-0.00095748019
-0.0002149434
-0.0025104914
-0.0034044546
-0.0043763887
-0.0052938683
-0.0059949887
-0.0063065206
-0.006141478
-0.0055862357
-0.0045781833
-0.0031188121
-0.0014559128
0.0005720979
0.0025484007
0.0041581459
0.0054692996
0.0064320162
0.0071143495
0.0074909514
0.0076355581
0.0075070011
0.007152458
0.0065544916
0.0057564483
0.0047966367
0.0037417959
0.0026721069
0.0016690933
0.00080446654
0.00012980413
-0.00032976115
-0.00057584493
-0.00063218857
-0.00053711721
-0.0003353976
-7.2339099e-05
0.00021053383
0.00047724937
0.00069628804
0.00083810562
-0.0025594121
-0.0016699374
-0.00094142465
-0.00022070038
-0.0035536765
-0.0046651405
-0.0057787214
-0.0067315503
-0.0073289101
-0.0074525344
-0.0070269435
-0.0062355225
-0.0049236431
-0.003092766
-0.0011005413
0.0012190636
0.0033124983
0.0049486017
0.0062344711
0.0071363431
0.0077355793
0.0080088554
0.0080372158
0.0077751514
0.0072730405
0.0065220437
0.0055753191
0.0044845839
0.0033281582
0.0021958059
0.0011711881
0.0003232341
-0.0003043323
-0.00069712969
-0.00086777686
-0.00084936899
-0.00068682383
-0.00042848123
-0.00012080182
0.00019539747
0.00048559542
0.0007199284
0.0008705163
-0.0036271492
-0.0025667482
-0.0016468101
-0.0009050995
-0.00022555059
-0.0048751354
-0.0061830529
-0.007399959
-0.008316979
-0.0087774366
-0.0086628135
-0.0079947557
-0.0069044099
-0.0051875005
-0.0029633069
-0.00059771426
0.0019603069
0.0040930716
0.0057367743
0.0069848391
0.0078102691
0.0083173076
0.0084797576
0.0083807507
0.007971561
0.007309422
0.0063970103
0.0052987479
0.0040810149
0.0028340191
0.0016545985
0.00062648526
-0.00018688789
-0.00075201411
-0.0010664223
-0.0011541263
-0.0010571732
-0.00082597893
-0.00051161308
-0.00016064205
0.00018727067
0.00049940224
0.00074781559
0.00090640892
-0.0049777822
-0.0036353382
-0.0025320184
-0.0015915903
-0.00085458291
-0.0002287945
-0.0064757843
-0.0079624244
-0.0092234292
-0.010068089
-0.01033307
-0.0099985865
-0.0090193322
-0.0075107121
-0.005346946
-0.0026764002
2.7355078e-05
0.0027246173
0.0048794185
0.0065185948
0.0077088624
0.0084489284
0.0088580661
0.0088993042
0.0086575243
0.0080860364
0.007251704
0.0061708853
0.0049209974
0.0035835922
0.0022603667
0.0010520616
4.0271103e-05
-0.00072016411
-0.0012078711
-0.0014333154
-0.0014318954
-0.0012536957
-0.00095366675
-0.0005843446
-0.00019182482
0.00018591095
0.00051832355
0.00077961715
0.00094548565
-0.006618702
-0.0049777998
-0.0035769085
-0.0024451944
-0.001513112
-0.00079500543
-0.0002289825
-0.0083726544
-0.0099934645
-0.011260573
-0.01197213
-0.012056202
-0.011432021
-0.010006909
-0.0080203337
-0.0053510396
-0.0022607052
0.00069999148
0.0034999439
0.0056732797
0.0072822506
0.0084028043
0.0090537774
0.0093556038
0.0092591528
0.008856854
0.0081073618
0.0070891932
0.005835297
0.0044370103
0.0029912703
0.0016093852
0.00039309134
-0.00058135349
-0.0012704002
-0.0016664985
-0.0017937501
-0.0016983528
-0.0014374019
-0.0010690101
-0.00064645091
-0.00021454854
0.00019091841
0.00054201443
0.00081506925
0.00098747281
-0.0085745225
-0.0066086548
-0.0048746886
-0.0034415611
-0.0023202596
-0.0014157581
-0.00072748771
-0.00022843114
-0.010564923
-0.012282504
-0.013493406
-0.014085411
-0.013923548
-0.01286639
-0.010913149
-0.0083760666
-0.005216155
-0.0017694467
0.0014147643
0.0042890476
0.0064605129
0.0080211524
0.0090708009
0.0096250277
0.0098029607
0.0095480977
0.0089661523
0.0080230762
0.0068115309
0.0053826265
0.003843074
0.0023043475
0.00088481866
-0.00031635649
-0.0012315591
-0.0018310984
-0.0021226365
-0.0021439573
-0.0019511579
-0.0016068575
-0.0011714641
-0.00069800044
-0.00022925329
0.00020197783
0.00057032999
0.00085399044
0.001032068
-0.010858248
-0.0085574624
-0.0064452876
-0.0046637615
-0.0032518604
-0.0021652788
-0.0013031363
-0.00066092086
-0.00022692128
-0.013054071
-0.014806132
-0.01597267
-0.016388388
-0.015830467
-0.01424388
-0.0116814
-0.0085980726
-0.0049928026
-0.0012017269
0.0021790494
0.0050789337
0.0072311243
0.0087423774
0.0097171158
0.010157089
0.010188046
0.0097527596
0.0089712528
0.00782031
0.0064080623
0.0048062974
0.003137024
0.0015248739
9.1947616e-05
-0.0010691579
-0.0019029397
-0.0023956997
-0.0025712722
-0.0024805464
-0.0021881122
-0.0017610143
-0.0012609359
-0.00073946583
-0.00023618027
0.00021918232
0.0006032647
0.00089603423
0.0010788306
-0.013462106
-0.010851454
-0.008324869
-0.0061328653
-0.0043741287
-0.0030203409
-0.0019864247
-0.0011888584
-0.00059600973
-0.00022007203
-0.01580913
-0.017607965
-0.018683507
-0.01877189
-0.017711272
-0.015505756
-0.012319482
-0.0087200824
-0.0046718926
-0.00054614714
0.0029652845
0.0058587258
0.0079991558
0.0094569962
0.010338753
0.010637479
0.010496274
0.0098578525
0.0088571103
0.0074858526
0.0058690057
0.0041010023
0.002318632
0.00065710766
-0.00076228324
-0.0018572051
-0.0025876775
-0.0029577828
-0.0030077262
-0.0028003126
-0.00240743
-0.0018994155
-0.0013378474
-0.00077096584
-0.00023487066
0.0002427596
0.00064022152
0.00094030427
0.0011273289
-0.01634828
-0.013469244
-0.010545239
-0.0078871002
-0.0057122044
-0.0040273568
-0.0027557515
-0.0018027374
-0.0010725042
-0.0005357659
-0.00021458523
-0.018859966
-0.020671655
-0.021514188
-0.021162415
-0.019506588
-0.016655101
-0.012854725
-0.00873656
-0.0042537911
0.0001572572
0.0037552612
0.006651211
0.0087808566
0.01016268
0.01092315
0.011050749
0.010711655
0.0098466264
0.0086076478
0.0070064295
0.0051855798
0.0032632955
0.0013899447
-0.00029272699
-0.0016694616
-0.0026716186
-0.0032778189
-0.0035111506
-0.0034274981
-0.003100469
-0.0026081034
-0.0020224251
-0.0014021315
-0.00079154918
-0.0002248039
0.00027156924
0.00067933424
0.00098597334
0.0011777168
-0.019530734
-0.016371405
-0.013075417
-0.0099627833
-0.0073018898
-0.0052153379
-0.0036391506
-0.0024817797
-0.0016140663
-0.00096338709
-0.00049330669
-0.00020607311
-0.022192977
-0.023893852
-0.024384921
-0.023503573
-0.021219686
-0.017704448
-0.013272216
-0.0086427245
-0.0037491223
0.00088898956
0.0045689097
0.0074811344
0.0095780416
0.010846674
0.011452867
0.011380002
0.010816589
0.0097009223
0.0082066801
0.006369321
0.0043507103
0.002292155
0.00035523214
-0.0013169082
-0.002620039
-0.0035030389
-0.0039654709
-0.0040497123
-0.003826487
-0.0033792145
-0.0027901988
-0.002129706
-0.0014521926
-0.00080026404
-0.00020792099
0.00030226812
0.00071934385
0.0010343337
0.0012331121
-0.023001305
-0.0195513
-0.015875049
-0.012317298
-0.0091847311
-0.0066169785
-0.0046676322
-0.0032372622
-0.0022004453
-0.0014404748
-0.00087324502
-0.00044542238
-0.0001944248
-0.025710175
-0.027186522
-0.027248773
-0.025801179
-0.022853953
-0.018634294
-0.013561874
-0.0084613204
-0.0031673294
0.0016830141
0.0054351744
0.0083518311
0.010376037
0.011489964
0.011910874
0.011607175
0.010790612
0.0094011659
0.0076379119
0.0055631739
0.003359381
0.0011890425
-0.00077921823
-0.0024058719
-0.0036034486
-0.0043417969
-0.0046426912
-0.0045677005
-0.0042017714
-0.00363613
-0.0029530721
-0.0022188076
-0.0014864475
-0.00080008482
-0.00018959192
0.00033329481
0.00076412785
0.0010905792
0.0012936957
-0.026669554
-0.023003459
-0.018917995
-0.014908475
-0.011307653
-0.0082731624
-0.0058711814
-0.0041013969
-0.0028286858
-0.0019447153
-0.0012898177
-0.00077828605
-0.00040912873
-0.00018155407
-0.029322026
-0.030513226
-0.030112078
-0.028052267
-0.0243833
-0.019431318
-0.013755177
-0.0081717703
-0.0024865382
0.0025656139
0.0063695846
0.0092509979
0.011144877
0.012073384
0.012277979
0.011710358
0.010611039
0.0089269697
0.0068852069
0.0045784403
0.0022092708
-4.1826807e-05
-0.0020042287
-0.0035483741
-0.0046083727
-0.0051778626
-0.0053016817
-0.005060688
-0.0045521723
-0.0038700307
-0.0030931267
-0.0022872332
-0.0015090993
-0.00079904803
-0.00017158092
0.00037263729
0.00082273558
0.0011516469
0.0013580613
-0.030444776
-0.026653555
-0.02220033
-0.017696677
-0.013624187
-0.010124294
-0.0072843289
-0.0051006728
-0.0035305262
-0.0024619236
-0.0017147998
-0.0011371196
-0.00070324449
-0.00036816844
-0.00016718136
-0.03300283
-0.033879517
-0.03296825
-0.030224356
-0.025784785
-0.020123611
-0.013860521
-0.0077508177
-0.0016929408
0.0035591986
0.007365802
0.010146961
0.011870779
0.01257995
0.012532681
0.01166495
0.010253634
0.0082576292
0.0059340192
0.0034080594
0.0009012504
-0.0013930302
-0.0033080934
-0.004731617
-0.005622661
-0.0060010647
-0.0059360733
-0.0055264051
-0.0048757324
-0.0040758852
-0.0032066443
-0.0023405736
-0.001531617
-0.00079914926
-0.0001400622
0.00043487547
0.00088575266
0.0012169499
0.0014262206
-0.034314692
-0.030410611
-0.025664164
-0.02068101
-0.016084961
-0.012123036
-0.0088420936
-0.0062640933
-0.0043285466
-0.0030233011
-0.0021251159
-0.0014849788
-0.0010120044
-0.0006224521
-0.00033928407
-0.00015660456
-0.03675983
-0.03727368
-0.035775083
-0.032285742
-0.027098119
-0.020726845
-0.013825429
-0.0071528603
-0.00072769682
0.0046560333
0.0083806959
0.01101992
0.012536363
0.012986883
0.012647632
0.011444304
0.0096930147
0.0073736779
0.0047720196
0.0020483942
-0.00056017899
-0.0028542282
-0.004677396
-0.0059414683
-0.0066335536
-0.006802671
-0.0065421034
-0.0059618136
-0.0051655648
-0.004248228
-0.0033007583
-0.0023946657
-0.0015563513
-0.00077863291
-7.306023e-05
0.00050114686
0.00095359449
0.001286377
0.0014981858
-0.038291369
-0.034277377
-0.029223768
-0.023818311
-0.018690875
-0.014212495
-0.010497179
-0.0075240723
-0.0052470566
-0.0036470766
-0.0025519807
-0.0017928451
-0.0012953612
-0.00088019974
-0.00055193155
-0.00030306486
-0.00014227159
-0.040571094
-0.040644997
-0.038495271
-0.034286121
-0.02833411
-0.021196713
-0.013606001
-0.0063621128
0.00041649797
0.0057820117
0.0093933062
0.011851455
0.013119876
0.013264352
0.012593396
0.011019086
0.0089041913
0.0062566835
0.0033897516
0.00049959312
-0.0021671783
-0.0044123822
-0.0060966251
-0.0071625084
-0.0076295744
-0.0075769908
-0.0071152894
-0.0063575889
-0.0054138385
-0.0043958485
-0.0033967469
-0.0024523784
-0.0015511261
-0.00070586832
-2.2900132e-06
0.00057306166
0.0010257956
0.0013599468
0.0015739603
-0.042337584
-0.038272633
-0.03289899
-0.027031312
-0.021411806
-0.016392378
-0.012191377
-0.0088345679
-0.0062185899
-0.0043501063
-0.0030076683
-0.0020880856
-0.0015220315
-0.0011028845
-0.00075552102
-0.00047680277
-0.00025470428
-0.00012552929
-0.04437364
-0.04394551
-0.041187303
-0.036239783
-0.029449589
-0.021472171
-0.013163232
-0.0053381425
0.0016484216
0.0069219071
0.010401058
0.012620313
0.013592987
0.013381492
0.012337674
0.010358422
0.0078627117
0.0048902269
0.0017817058
-0.0012343158
-0.0039079009
-0.0060503049
-0.0075479407
-0.0083803796
-0.0086026452
-0.0083176559
-0.0076432616
-0.0067028164
-0.0056310684
-0.004546801
-0.0034981677
-0.0024681999
-0.001471832
-0.00062930993
7.5176629e-05
0.00064956907
0.0011024526
0.0014376319
0.0016535274
-0.046382621
-0.042343732
-0.036707325
-0.030352704
-0.024182
-0.018647384
-0.013923204
-0.010136963
-0.0071991558
-0.005065014
-0.0034977406
-0.0023827244
-0.0017193558
-0.0012544685
-0.00091285189
-0.00062810942
-0.00040212149
-0.00022583769
-0.00011536341
-0.048111385
-0.047241882
-0.043866137
-0.038105109
-0.030375848
-0.021496248
-0.012467866
-0.0041230823
0.002911426
0.008072032
0.011385197
0.013295809
0.013922977
0.01330282
0.01184416
0.0094321743
0.0065450359
0.0032616438
-5.2865213e-05
-0.0031440538
-0.0057657223
-0.0077478398
-0.0090139081
-0.0095843059
-0.0095440514
-0.0090085108
-0.0081108926
-0.007009625
-0.0058535882
-0.0047056105
-0.0035425824
-0.0023819206
-0.0013881999
-0.0005447513
0.00015745351
0.00073091278
0.0011834863
0.0015194018
0.001736854
-0.050362247
-0.046412515
-0.040590884
-0.033800899
-0.027044097
-0.020926236
-0.01569233
-0.011428449
-0.008129891
-0.0057534205
-0.0039633069
-0.0026756452
-0.0018962696
-0.0013533985
-0.00099246021
-0.00073232228
-0.00051275037
-0.00034613745
-0.0001814275
-0.00010086667
-0.051850466
-0.050554043
-0.04649892
-0.039800592
-0.031037926
-0.021248845
-0.011539181
-0.0028169553
0.0042133353
0.0092325385
0.012298654
0.013842287
0.014073933
0.012988464
0.011074317
0.0082097254
0.0049307942
0.0013627705
-0.0021097584
-0.0052147945
-0.0077196799
-0.0094852697
-0.010481043
-0.010762605
-0.010432945
-0.0096289876
-0.0085318566
-0.0073244364
-0.0060871679
-0.0047885797
-0.0034493469
-0.0022899602
-0.0012949817
-0.00045513909
0.00024500166
0.00081692282
0.0012688716
0.001605153
0.0018238991
-0.054336672
-0.050413813
-0.044457843
-0.037305842
-0.030011414
-0.023269492
-0.017458306
-0.012722857
-0.009010263
-0.0063610209
-0.0043766665
-0.0029222602
-0.0020458008
-0.0014076906
-0.0010073959
-0.00075520174
-0.00057267099
-0.00042611103
-0.00026974156
-0.00015396247
-8.1863778e-05
-0.055618612
-0.053850083
-0.048998076
-0.041237039
-0.031414128
-0.020752124
-0.010418259
-0.001453159
0.0055700093
0.010361044
0.013101766
0.014219097
0.014001133
0.012395058
0.0099900558
0.0066618098
0.0030039048
-0.00080863775
-0.0043777849
-0.0074258808
-0.0097477645
-0.011246621
-0.01193425
-0.011888861
-0.011241933
-0.010193807
-0.0089646346
-0.0076548418
-0.006221711
-0.004689171
-0.0033479468
-0.0021865028
-0.0011964274
-0.00035977416
0.00033754818
0.0009075937
0.0013584396
0.0016948009
0.0019146368
-0.058329982
-0.054388935
-0.048254042
-0.040776579
-0.033007304
-0.025686589
-0.019261349
-0.013989056
-0.0098606512
-0.0068867918
-0.0046860373
-0.0030977256
-0.0021172985
-0.0014144785
-0.00095402065
-0.00070813124
-0.00055685321
-0.0004517243
-0.00032173802
-0.00022810754
-0.00011357808
-6.995673e-05
-0.059385852
-0.057054969
-0.051265523
-0.042389597
-0.031520048
-0.02003705
-0.0091471177
2.0004986e-05
0.0069251949
0.011421082
0.013757343
0.014383011
0.013657243
0.011477955
0.0085544873
0.0047631805
0.00075381055
-0.0032461982
-0.00683785
-0.0097547406
-0.011830989
-0.013013202
-0.013340696
-0.012927266
-0.011986082
-0.010775995
-0.0094194339
-0.0078580569
-0.0061179301
-0.0045775076
-0.0032327595
-0.002077342
-0.0010915443
-0.00025900701
0.00043510459
0.0010026528
0.0014520494
0.0017883114
0.0020090402
-0.062325438
-0.058368305
-0.051996977
-0.044160214
-0.035939383
-0.028098521
-0.02110452
-0.015265759
-0.010663931
-0.0073641556
-0.0048971087
-0.0031509981
-0.002106782
-0.0013220034
-0.00083724136
-0.00058905041
-0.00046584899
-0.00040307819
-0.00032648316
-0.0002560005
-0.00016156941
-9.1290192e-05
-5.0128069e-05
-0.063087259
-0.060061995
-0.053272393
-0.043260112
-0.031384987
-0.019112736
-0.0077222811
0.0015865156
0.0082473143
0.01238186
0.01422321
0.014281547
0.012989965
0.010193663
0.0067301014
0.002493026
-0.0018210626
-0.0059353343
-0.0094682172
-0.012181783
-0.013947815
-0.014744838
-0.014654258
-0.013892246
-0.012755455
-0.011389337
-0.0097133308
-0.0077532845
-0.0059956459
-0.0044492899
-0.0031113137
-0.0019611443
-0.00098076431
-0.00015284282
0.00053728343
0.0011019023
0.00154975
0.0018857309
0.0021069592
-0.066264423
-0.062332903
-0.055718774
-0.047458829
-0.038754854
-0.03040866
-0.022906533
-0.016551042
-0.011457216
-0.007784447
-0.0050500001
-0.0030907964
-0.0019650442
-0.0011404429
-0.00061094761
-0.00039380149
-0.00029530303
-0.00028172036
-0.00025814463
-0.00023500739
-0.00016848109
-0.00011977714
-5.1416053e-05
-3.9253651e-05
-0.066626627
-0.062847077
-0.055025799
-0.043876957
-0.031014854
-0.017973246
-0.0061421327
0.0031711902
0.0095101219
0.013190162
0.014447834
0.013854768
0.011944804
0.0084955148
0.0044840125
-0.00016111855
-0.0047117756
-0.0088572975
-0.012250482
-0.014682404
-0.016050053
-0.016383254
-0.015887591
-0.014893692
-0.01356922
-0.011802095
-0.009613249
-0.0076208109
-0.0058535267
-0.0043139736
-0.0029819479
-0.001838424
-0.0008641037
-4.1782972e-05
0.00064382725
0.0012055291
0.0016517926
0.0019867042
0.0022083076
-0.070062408
-0.066236759
-0.059400297
-0.050697747
-0.041444682
-0.032567053
-0.024575741
-0.017765791
-0.012231955
-0.0081770026
-0.0051379411
-0.0029660323
-0.0016938911
-0.00083330801
-0.00029429444
-9.4755184e-05
-4.007929e-05
-8.0750798e-05
-0.00011432412
-0.00014520668
-0.00012906209
-0.00010507905
-5.9561212e-05
-2.8661014e-05
-2.0063036e-05
-0.069974481
-0.065423154
-0.056548629
-0.044244656
-0.030405841
-0.016623358
-0.0044769528
0.0047331333
0.010658829
0.013777174
0.014369194
0.013038576
0.010463936
0.0063375509
0.0017916262
-0.0032003507
-0.007904299
-0.011996016
-0.015159631
-0.017198779
-0.018065476
-0.017938055
-0.017173386
-0.015958297
-0.014136533
-0.011715627
-0.0094722928
-0.0074646437
-0.0057030051
-0.0041695962
-0.0028452261
-0.0017091917
-0.00074221584
7.3862854e-05
0.000755141
0.0013141102
0.0017575008
0.0020911042
0.0023129737
-0.073688785
-0.070001913
-0.063002184
-0.053862609
-0.044029851
-0.034556666
-0.026065788
-0.018827086
-0.012921632
-0.0085308994
-0.0051854724
-0.0027762849
-0.0013514467
-0.0003896809
0.0001346201
0.00029877947
0.00030767185
0.00020306584
0.0001093395
1.6412048e-05
-2.4191082e-05
-4.6573603e-05
-2.9134542e-05
-1.5952771e-05
6.6551635e-06
-8.7256316e-06
-0.073170087
-0.06782092
-0.057841274
-0.044361902
-0.029552937
-0.01508798
-0.0027378798
0.0062346386
0.011628127
0.014060314
0.013919069
0.011766665
0.0084887528
0.0036832314
-0.0013588138
-0.0066196476
-0.01138871
-0.015327686
-0.018129466
-0.019644049
-0.019999519
-0.019567651
-0.018548755
-0.016725121
-0.014077033
-0.011569796
-0.0093031429
-0.0072980488
-0.0055419063
-0.0040167224
-0.0027011576
-0.0015742916
-0.00061544358
0.00019483259
0.0008722423
0.0014264933
0.0018667281
0.0021987304
0.0024208527
-0.077198843
-0.073606617
-0.066460293
-0.05691795
-0.046499472
-0.036400044
-0.027356684
-0.019696271
-0.013457971
-0.0087972413
-0.0051775164
-0.0025351053
-0.00094381907