/*--------------------------------*- C++ -*----------------------------------*\
| =========                 |                                                 |
| \\      /  F ield         | OpenFOAM: The Open Source CFD Toolbox           |
|  \\    /   O peration     | Version:  5.0                                   |
|   \\  /    A nd           | Web:      www.OpenFOAM.org                      |
|    \\/     M anipulation  |                                                 |
\*---------------------------------------------------------------------------*/
FoamFile
{
    version     2.0;
    format      ascii;
    class       volScalarField;
    location    "260";
    object      pPrime2Mean;
}
// * * * * * * * * * * * * * * * * * * * * * * * * * * * * * * * * * * * * * //

dimensions      [0 4 -4 0 0 0 0];

internalField   nonuniform List<scalar> 
9520
(
2.4203295e-07
2.2492835e-07
1.635053e-06
1.9608834e-07
1.5186078e-06
4.4241075e-06
1.6110533e-07
1.3221208e-06
4.1104606e-06
8.6878884e-06
1.2487275e-07
1.0835171e-06
3.5809712e-06
8.0735107e-06
1.4653533e-05
9.1169271e-08
8.3611715e-07
2.9375301e-06
7.0358194e-06
1.362239e-05
2.2589276e-05
6.2564682e-08
6.0567123e-07
2.2697441e-06
5.7738461e-06
1.1879545e-05
2.1008758e-05
3.2864219e-05
4.0534194e-08
4.0954409e-07
1.6469478e-06
4.4628841e-06
9.7576937e-06
1.833518e-05
3.0581311e-05
4.5904199e-05
2.5699614e-08
2.5742681e-07
1.1161201e-06
3.2388768e-06
7.5504671e-06
1.5075909e-05
2.6715228e-05
4.2742609e-05
6.220935e-05
1.806411e-08
1.5278298e-07
7.0364904e-07
2.1943838e-06
5.4864254e-06
1.1679867e-05
2.1994316e-05
3.7381424e-05
5.7967082e-05
8.2341865e-05
1.7307925e-08
9.4589142e-08
4.1889823e-07
1.381666e-06
3.7221207e-06
8.4981115e-06
1.7065036e-05
3.0821806e-05
5.0762789e-05
7.67907e-05
0.00010692664
2.3204629e-08
7.9041888e-08
2.5889466e-07
8.1974022e-07
2.346881e-06
5.772785e-06
1.2435886e-05
2.3955553e-05
4.1928318e-05
6.7348046e-05
9.9812075e-05
0.00013663814
3.582788e-08
1.006062e-07
2.1228228e-07
5.0247965e-07
1.3942821e-06
3.6439491e-06
8.4605356e-06
1.7488811e-05
3.2654365e-05
5.5739574e-05
8.7687881e-05
0.000127681
0.00017219542
5.6029824e-08
1.5278061e-07
2.6219134e-07
4.062358e-07
8.5597966e-07
2.1663726e-06
5.3466438e-06
1.1917481e-05
2.3890333e-05
4.3514204e-05
7.2740823e-05
0.00011238597
0.00016109462
0.00021434943
8.5394372e-08
2.3090246e-07
3.9083945e-07
4.9917527e-07
6.9510176e-07
1.3303472e-06
3.178668e-06
7.5373094e-06
1.6310553e-05
3.1916513e-05
5.6942505e-05
9.3471212e-05
0.00014209754
0.00020078624
0.00026387167
1.2709961e-07
3.3198319e-07
5.8150769e-07
7.4734827e-07
8.5994186e-07
1.0837009e-06
1.9469575e-06
4.4734354e-06
1.0324562e-05
2.1841351e-05
4.189056e-05
7.3399253e-05
0.00011852529
0.00017752041
0.00024751528
0.00032153745
1.8399545e-07
4.5598006e-07
8.195931e-07
1.1147656e-06
1.2901021e-06
1.3477087e-06
1.5774104e-06
2.7188905e-06
6.1134146e-06
1.3843333e-05
2.874935e-05
5.4183916e-05
9.3401373e-05
0.00014854615
0.00021938753
0.00030205221
0.00038811157
2.6191341e-07
5.9645311e-07
1.0931316e-06
1.56409e-06
1.9254183e-06
2.0289005e-06
1.9557322e-06
2.1728399e-06
3.6778927e-06
8.1797367e-06
1.8256785e-05
3.7314461e-05
6.9223196e-05
0.00011751822
0.00018422225
0.00026845472
0.00036516492
0.00046432943
3.6584386e-07
7.779015e-07
1.3970209e-06
2.0705902e-06
2.7076747e-06
3.0351866e-06
2.9487958e-06
2.6769856e-06
2.8896523e-06
4.8704912e-06
1.0773056e-05
2.3757137e-05
4.7865912e-05
8.7487343e-05
0.00014637361
0.00022627825
0.00032548848
0.00043760104
0.00055088288
5.0289585e-07
9.6023745e-07
1.7313895e-06
2.6121431e-06
3.588721e-06
4.2840857e-06
4.4195308e-06
4.0461373e-06
3.5387308e-06
3.7610858e-06
6.3517729e-06
1.4008191e-05
3.0575999e-05
6.0781065e-05
0.00010951572
0.00018063932
0.00027546545
0.00039125069
0.00052007262
0.00064840135
6.703323e-07
1.2572319e-06
2.0881599e-06
3.1739314e-06
4.52811e-06
5.7014391e-06
6.2490143e-06
6.0857062e-06
5.3738872e-06
4.584918e-06
4.8179359e-06
8.1755516e-06
1.8025925e-05
3.8985532e-05
7.6498631e-05
0.00013590365
0.00022102962
0.00033254998
0.00046648395
0.00061323913
0.00075743852
8.7287013e-07
1.4948831e-06
2.5253815e-06
3.7597084e-06
5.5088978e-06
7.2304866e-06
8.3366921e-06
8.6197947e-06
8.1335227e-06
7.0142372e-06
5.8457162e-06
6.0726995e-06
1.0405151e-05
2.2997864e-05
4.9314181e-05
9.5516321e-05
0.00016730194
0.00026829333
0.00039829989
0.00055189322
0.00071769335
0.00087845467
1.100745e-06
2.0053868e-06
2.9672074e-06
4.3854989e-06
6.5152935e-06
8.8405782e-06
1.0595842e-05
1.1501047e-05
1.1563841e-05
1.0707562e-05
9.0227239e-06
7.3119902e-06
7.5285167e-06
1.3123258e-05
2.9141542e-05
6.1947505e-05
0.00011839492
0.00020441283
0.00032320348
0.00047346711
0.00064813471
0.00083394328
0.0010118079
1.3588789e-06
2.3061607e-06
3.6710623e-06
5.0590954e-06
7.5784919e-06
1.0507633e-05
1.2969477e-05
1.4598994e-05
1.5442796e-05
1.5318054e-05
1.3910282e-05
1.1387252e-05
8.9462458e-06
9.1967389e-06
1.6446376e-05
3.6725513e-05
7.7334529e-05
0.00014575802
0.0002479835
0.00038654483
0.00055877625
0.00075579593
0.00096240203
0.0011577419
1.5937348e-06
3.1291527e-06
4.3067791e-06
5.9296557e-06
8.6946405e-06
1.2272732e-05
1.5430985e-05
1.7822732e-05
1.9581632e-05
2.0535574e-05
2.005874e-05
1.7743731e-05
1.4047103e-05
1.0710019e-05
1.1112102e-05
2.053232e-05
4.6074749e-05
9.5991142e-05
0.00017828994
0.00029879826
0.00045909783
0.00065490709
0.00087538378
0.001103374
0.001316382
1.8548397e-06
3.7190568e-06
5.4896995e-06
6.8625473e-06
1.0047467e-05
1.4127383e-05
1.8010199e-05
2.1124799e-05
2.3846293e-05
2.6096068e-05
2.7064007e-05
2.5818879e-05
2.2138916e-05
1.6936088e-05
1.258397e-05
1.3340201e-05
2.5582553e-05
5.7576681e-05
0.00011850183
0.00021673383
0.00035766872
0.00054162697
0.00076248007
0.0010073082
0.0012570496
0.00148773
2.1403803e-06
4.8336209e-06
6.5964533e-06
8.3009475e-06
1.1525472e-05
1.6303642e-05
2.0728814e-05
2.4512781e-05
2.8145554e-05
3.1808224e-05
3.4572785e-05
3.5098087e-05
3.2525693e-05
2.7025463e-05
2.0012714e-05
1.4571313e-05
1.5974376e-05
3.1848092e-05
7.1685556e-05
0.00014552433
0.00026188613
0.00042541663
0.00063486566
0.00088203836
0.0011518749
0.0014234982
0.0016716644
2.6046348e-06
5.9265073e-06
8.465095e-06
9.8763309e-06
1.3614654e-05
1.8708945e-05
2.3813077e-05
2.8043868e-05
3.246377e-05
3.7524957e-05
4.2322637e-05
4.5126067e-05
4.4556505e-05
4.0114625e-05
3.237558e-05
2.3257489e-05
1.668584e-05
1.9136848e-05
3.9634747e-05
8.893275e-05
0.00017778916
0.00031458846
0.00050286607
0.00073949721
0.0010140372
0.0013092747
0.0016026669
0.0018679427
3.0894604e-06
7.0610698e-06
1.037481e-05
1.2385896e-05
1.6011376e-05
2.1888548e-05
2.725729e-05
3.1912732e-05
3.6862212e-05
4.320736e-05
5.0099718e-05
5.5555294e-05
5.7649499e-05
5.5383384e-05
4.8603245e-05
3.819474e-05
2.6648689e-05
1.8945106e-05
2.2982605e-05
4.9317064e-05
0.00010993237
0.00021609905
0.00037571318
0.00059082499
0.0008561412
0.0011588278
0.0014795803
0.0017943799
0.002076207
3.5794071e-06
8.1714302e-06
1.2211763e-05
1.5147797e-05
1.9674121e-05
2.5582766e-05
3.1630594e-05
3.6235757e-05
4.152191e-05
4.8887712e-05
5.7837387e-05
6.6094595e-05
7.1345823e-05
7.2085588e-05
6.7667816e-05
5.8076282e-05
4.4478087e-05
3.0139961e-05
2.1369024e-05
2.7714392e-05
6.134995e-05
0.00013538856
0.00026132233
0.00044615474
0.00069006977
0.00098533343
0.0013166519
0.001662739
0.0019983424
0.0022959916
4.0584305e-06
8.8450421e-06
1.4082723e-05
1.8018289e-05
2.3830759e-05
3.099047e-05
3.6698491e-05
4.1585612e-05
4.6665025e-05
5.4756201e-05
6.5524142e-05
7.6632242e-05
8.5262126e-05
8.9612317e-05
8.8614225e-05
8.1625576e-05
6.8614284e-05
5.1165506e-05
3.3648348e-05
2.3993105e-05
3.3599548e-05
7.6283346e-05
0.00016609546
0.00031438334
0.0005268145
0.00080132311
0.0011275149
0.0014876312
0.0018585755
0.002214148
0.0025267332
4.3650823e-06
9.7970494e-06
1.5409515e-05
2.079707e-05
2.8383508e-05
3.7295936e-05
4.4007872e-05
4.7828206e-05
5.2861823e-05
6.1081666e-05
7.3365372e-05
8.7099912e-05
9.9218526e-05
0.00010745572
0.00011063635
0.00010763502
9.7491687e-05
8.0210059e-05
5.8117108e-05
3.7063794e-05
2.6887997e-05
4.0991064e-05
9.4769862e-05
0.00020293794
0.00037625138
0.00061857759
0.00092523705
0.0012830177
0.0016717644
0.0020667977
0.0024412866
0.0027677815
4.5221406e-06
1.0195861e-05
1.7125451e-05
2.3092283e-05
3.2584079e-05
4.4247341e-05
5.2813656e-05
5.678326e-05
6.0150578e-05
6.8468191e-05
8.1627236e-05
9.7703532e-05
0.00011307927
0.00012533365
0.00013305978
0.00013505497
0.00012961024
0.00011538827
9.2719988e-05
6.5116171e-05
4.0270655e-05
3.0186132e-05
5.0342545e-05
0.00011757445
0.00024688171
0.00044792357
0.00072229311
0.001062374
0.0014520574
0.0018689241
0.0022870008
0.0026791541
0.0030184131
4.3772515e-06
1.0445857e-05
1.81481e-05
2.5760511e-05
3.6366454e-05
5.0377898e-05
6.2685533e-05
6.777956e-05
7.0540568e-05
7.7127344e-05
9.0957287e-05
0.00010868797
0.00012702568
0.00014302989
0.00015545223
0.00016299441
0.00016363422
0.00015486918
0.00013523699
0.00010586538
7.1892655e-05
4.3180745e-05
3.4103328e-05
6.222672e-05
0.00014557302
0.00029896168
0.00053040754
0.00083875664
0.0012131978
0.0016347217
0.0020788603
0.0025186736
0.0029270658
0.0032778439
3.9509044e-06
1.0188721e-05
1.8785224e-05
2.7611446e-05
4.0445862e-05
5.6226654e-05
7.1312582e-05
8.094838e-05
8.3537236e-05
8.9018136e-05
0.00010170301
0.00012071747
0.00014126816
0.00016067007
0.00017748745
0.00019082861
0.00019840534
0.00019698987
0.00018347091
0.00015675269
0.00011926588
7.8162365e-05
4.575939e-05
3.8964217e-05
7.7342585e-05
0.00017975188
0.00036027219
0.00062470171
0.00096869243
0.0013780546
0.0018309705
0.0023012049
0.0027612084
0.0031842681
0.0035452424
3.2905905e-06
9.4114751e-06
1.8649793e-05
2.8833589e-05
4.347565e-05
6.2232918e-05
7.9781847e-05
9.2646883e-05
0.00010008105
0.00010400928
0.00011572943
0.00013424856
0.00015649727
0.0001784173
0.000199202
0.00021807308
0.00023306907
0.00024027631
0.0002353883
0.0002151844
0.00017949615
0.00013248447
8.3656635e-05
4.8055447e-05
4.5216491e-05
9.6523226e-05
0.00022119529
0.00043195068
0.00073177197
0.0011127274
0.0015571632
0.0020406325
0.0025354769
0.0030139144
0.0034499504
0.0038197428
2.5037828e-06
8.1437675e-06
1.7598753e-05
2.9067029e-05
4.5436713e-05
6.69613e-05
8.8391869e-05
0.00010424351
0.00011526123
0.00012407915
0.00013329888
0.00015097708
0.00017322599
0.0001969699
0.00022070389
0.00024464717
0.00026693446
0.00028360503
0.00028914922
0.00027870643
0.00024956282
0.00020293264
0.00014506368
8.8153817e-05
5.0219638e-05
5.3448498e-05
0.00012073897
0.00027108511
0.00051515511
0.00085252572
0.0012713767
0.0017506054
0.002263409
0.0027810899
0.00327603
0.0037232605
0.0041004583
1.7473396e-06
6.5002193e-06
1.5676915e-05
2.7956278e-05
4.6046905e-05
6.9927454e-05
9.570363e-05
0.00011622017
0.00013068398
0.00014335125
0.00015746901
0.00017189342
0.00019304444
0.00021686406
0.00024266153
0.00027057417
0.00029977306
0.00032602601
0.00034331063
0.00034505765
0.00032653687
0.00028603528
0.00022648107
0.00015655369
9.1494196e-05
5.2523933e-05
6.4399781e-05
0.00015109829
0.00033068384
0.00061103899
0.0009877905
0.0014450252
0.0019583246
0.002498875
0.0030373683
0.0035467358
0.0040033165
0.0043864924
1.151197e-06
4.7687663e-06
1.308218e-05
2.5558041e-05
4.4651511e-05
7.1026435e-05
0.00010036308
0.00012723003
0.00014668592
0.00016370663
0.00018138061
0.0002006394
0.00021739428
0.00023967452
0.00026565108
0.0002964575
0.00033146794
0.00036713656
0.00039661191
0.00041241039
0.0004076735
0.00037832962
0.00032397513
0.00024953818
0.00016652263
9.3601604e-05
5.5379824e-05
7.8978367e-05
0.00018884513
0.0004013136
0.00072072402
0.0011382875
0.0016339188
0.0021801204
0.0027464904
0.0033035583
0.0038251677
0.0042892198
0.0046769513
8.1801251e-07
3.2921902e-06
1.0291742e-05
2.2128787e-05
4.132999e-05
6.9181189e-05
0.00010263851
0.00013464846
0.00016249851
0.0001841493
0.00020756444
0.00022964981
0.00025054785
0.00026698021
0.00029128228
0.00032291516
0.00036255518
0.00040661011
0.00044843246
0.00047913345
0.00049067485
0.00047651244
0.00043349694
0.00036272545
0.00027147458
0.00017456347
9.4498846e-05
5.9366904e-05
9.8267376e-05
0.00023535072
0.00048432976
0.00084527018
0.0013046134
0.0018381493
0.0024156541
0.0030056114
0.003578839
0.0041104309
0.0045800676
0.0049709527
2.4373441e-06
8.0785147e-07
7.8795431e-06
1.8336541e-05
3.6457215e-05
6.4502876e-05
0.0001008795
0.00013933355
0.00017377877
0.00020564884
0.00023276536
0.00026266123
0.00028538762
0.000303723
0.00032111932
0.00035155895
0.0003936097
0.00044490693
0.00049817385
0.00054433319
0.00057347163
0.00057771679
0.00055109752
0.00049144417
0.00040157528
0.00029161837
0.00018029611
9.434301e-05
6.5257144e-05
0.00012353161
0.00029209484
0.00058109099
0.00098564869
0.0014872165
0.0020576544
0.0026644546
0.0032755022
0.0038623375
0.0044016132
0.0048749626
0.0052676356
6.4777729e-06
2.4449443e-06
1.1216203e-06
1.5024862e-05
3.0998093e-05
5.7528217e-05
9.5176207e-05
0.00013892276
0.00018217518
0.00022166564
0.00026075504
0.00029329046
0.00032648382
0.00034441664
0.00036070822
0.00038382112
0.00042623274
0.00048247034
0.00054619592
0.00060706748
0.00065481448
0.00067934553
0.00067323429
0.00063101859
0.000551526
0.00043970894
0.00030923811
0.00018339411
9.3455155e-05
7.4040488e-05
0.00015621885
0.00036064163
0.00069292687
0.0011427101
0.0016863859
0.002292213
0.0029259292
0.0035553464
0.0041531427
0.0046977948
0.0051730235
0.0055661669
1.309971e-05
6.4875323e-06
3.310782e-06
1.6979258e-06
2.6231292e-05
4.965398e-05
8.6195734e-05
0.00013334468
0.00018456098
0.00023491079
0.00028233694
0.00032880504
0.00036362549
0.00039369367
0.00040640445
0.00042562159
0.00046185903
0.00052089666
0.0005927092
0.00066757285
0.00073336943
0.0007796884
0.00079666868
0.00077711532
0.00071586063
0.00061294728
0.00047615038
0.00032354742
0.00018363227
9.2367923e-05
8.6937159e-05
0.00019794803
0.00044260832
0.00082110075
0.0013171603
0.0019022374
0.0025414532
0.0031993724
0.0038442628
0.0044503191
0.0049980626
0.0054733927
0.005865748
2.3437095e-05
1.3127745e-05
7.9056471e-06
4.7928836e-06
2.4376611e-06
4.2763801e-05
7.5854376e-05
0.00012329241
0.00018054295
0.00024136956
0.00030146568
0.00035704453
0.00040879573
0.00043783782
0.00046321467
0.00047517413
0.00050594018
0.00056151345
0.00063931349
0.00072570844
0.00080919391
0.00087696431
0.0009190953
0.00092572484
0.00088935055
0.00080504976
0.00067465715
0.00050973936
0.00033374301
0.0001809512
9.187401e-05
0.00010541864
0.0002504889
0.00053962826
0.0009667735
0.0015095359
0.0021347122
0.002804855
0.003483981
0.0041413195
0.0047529192
0.005301518
0.0057752443
0.0061656201
3.865937e-05
2.3470477e-05
1.5101292e-05
1.0331192e-05
6.5249777e-06
3.2151093e-06
6.6695308e-05
0.00011119739
0.00017069694
0.0002402024
0.00031329266
0.00038371327
0.00044595306
0.0004943131
0.00051452444
0.00053921974
0.00055895108
0.00060931344
0.00068706483
0.00078310241
0.00088173611
0.00097096476
0.0010382049
0.001073789
0.0010670777
0.0010098052
0.00089767572
0.00073527517
0.00053914184
0.00033907615
0.00017551817
9.3063986e-05
0.00013120677
0.00031573332
0.00065330781
0.0011309676
0.0017201893
0.0023835713
0.003081764
0.0037788668
0.0044455489
0.0050599966
0.0056072863
0.0060777887
0.0064650678
6.1143746e-05
3.8612586e-05
2.6322348e-05
1.8450522e-05
1.3128858e-05
8.1643547e-06
3.8753879e-06
0.00010018468
0.00015793296
0.00023175835
0.00031633951
0.00040266795
0.00048281932
0.00054258453
0.00058322642
0.00059763971
0.00063045822
0.00066633426
0.00074087531
0.00084036475
0.00095267905
0.0010607054
0.0011533969
0.0012183573
0.001245065
0.0012212535
0.0011379542
0.00099235128
0.00079306118
0.00056291062
0.00033892801
0.00016779715
9.7356137e-05
0.0001662639
0.00039565425
0.00078518001
0.0013145368
0.0019492727
0.0026484033
0.0033713999
0.004083075
0.0047559629
0.0053706169
0.0059145243
0.0063802781
0.006763422
9.3371729e-05
6.100524e-05
4.2626342e-05
3.1135975e-05
2.2268723e-05
1.572643e-05
9.4260903e-06
4.3095986e-06
0.0001458368
0.00021927615
0.00031057044
0.00041192708
0.00051200799
0.00059298269
0.00064452855
0.00067906485
0.00069561696
0.00074541409
0.00080336261
0.00090263871
0.0010220887
0.0011479102
0.0012632363
0.0013582608
0.0014195702
0.001434344
0.001388374
0.0012726715
0.0010871384
0.00084595513
0.00057957101
0.00033291212
0.0001586166
0.00010651976
0.00021276519
0.00049225634
0.00093666062
0.0015181359
0.0021967331
0.0029286269
0.0036728765
0.0043955991
0.0050715672
0.0056838664
0.0062224246
0.006682009
0.0070600617
0.00013830461
9.3159794e-05
6.6298594e-05
4.9444691e-05
3.6625107e-05
2.5709868e-05
1.7650573e-05
1.0195418e-05
4.4677295e-06
0.00020678189
0.00029936728
0.0004107112
0.00053061793
0.00063596905
0.00071153981
0.00075486154
0.00078998105
0.00081658299
0.00089028374
0.0009716031
0.0010954141
0.001232153
0.0013693684
0.0014915784
0.0015886652
0.0016443501
0.0016426565
0.0015678586
0.0014120848
0.0011795422
0.00089165519
0.00058774457
0.00032098528
0.00014923021
0.00012267601
0.00027305864
0.00060752066
0.0011090012
0.0017421993
0.0024623073
0.003223509
0.0039852169
0.0047154006
0.0053913709
0.005998858
0.0065302216
0.006982327
0.007354416
0.00019901703
0.00013827187
9.9575654e-05
7.5241249e-05
5.7275493e-05
4.1511567e-05
2.8108876e-05
1.8699491e-05
1.0447026e-05
4.3250931e-06
0.00028713213
0.00040234792
0.00053661519
0.0006679981
0.00077223528
0.00084168937
0.00088085805
0.0009227276
0.0009671587
0.0010668132
0.0011731718
0.0013192018
0.0014710528
0.0016197037
0.0017498799
0.0018484241
0.0018948843
0.0018702478
0.0017582053
0.0015535235
0.0012665639
0.00092774053
0.00058628331
0.00030356873
0.00014137202
0.00014828368
0.00034960989
0.00074334559
0.0013032481
0.0019869215
0.0027455305
0.0035321781
0.0043073747
0.0050414183
0.0057143952
0.0063147406
0.0068371995
0.0072806301
0.0076459639
0.00027946486
0.00019932803
0.00014572612
0.00011025543
8.5443564e-05
6.4228793e-05
4.4835848e-05
2.920748e-05
1.8829007e-05
1.0198876e-05
4.0325256e-06
0.00039150517
0.00053312013
0.00068519751
0.00082229207
0.00092421534
0.00099000648
0.0010289682
0.0010844119
0.0011497193
0.0012785116
0.001408611
0.0015741589
0.001741679
0.0019040569
0.002043372
0.0021410957
0.0021725149
0.0021163102
0.0019568965
0.0016935357
0.0013448167
0.0009518228
0.00057443033
0.00028162334
0.00013727716
0.00018609953
0.00044493584
0.00090148445
0.0015202036
0.0022522528
0.0030457467
0.003853646
0.0046382447
0.0053725805
0.0060396858
0.0066307128
0.0071426985
0.0075763652
0.0079342314
0.00038449186
0.00028005304
0.00020763824
0.00015775037
0.00012213791
9.436204e-05
6.8908065e-05
4.6218901e-05
2.8957215e-05
1.8184286e-05
9.7985853e-06
3.5658012e-06
0.00052490724
0.00069005466
0.00085536019
0.00099744083
0.0010980901
0.0011620735
0.0012055585
0.0012792147
0.0013674795
0.0015261836
0.0016776421
0.0018632346
0.0020500591
0.0022292707
0.002377153
0.0024693698
0.0024774369
0.0023788261
0.0021603577
0.0018279709
0.0014106717
0.00096173423
0.00055195974
0.00025671991
0.00013967077
0.00023912011
0.00056152732
0.0010834838
0.0017604011
0.0025378997
0.0033621265
0.0041868159
0.0049766776
0.0057078222
0.0063663374
0.0069460336
0.0074461041
0.0078690177
0.0082326022
0.00051892204
0.00038514863
0.00028873173
0.00022051211
0.00017045506
0.00013209706
0.00010006867
7.0766154e-05
4.5585551e-05
2.771825e-05
1.7157661e-05
8.8431659e-06
3.0859659e-06
0.00068703515
0.00087287549
0.0010518408
0.0011992948
0.0012985939
0.0013636828
0.0014153018
0.0015102213
0.0016217092
0.0018082833
0.0019832545
0.0021932282
0.0024046892
0.0026022001
0.002755416
0.0028347165
0.0028084875
0.0026544963
0.0023640079
0.0019521032
0.0014604403
0.00095571103
0.000519318
0.00023110572
0.00015174761
0.00031049992
0.00070176557
0.0012906338
0.0020240913
0.0028433332
0.0036936707
0.0045304998
0.0053215036
0.0060461219
0.0066935069
0.0072599992
0.0077468246
0.008170573
0.0085476203
0.00068331259
0.0005188397
0.0003932864
0.00030166695
0.00023316522
0.00018026251
0.00013769254
0.00010188235
6.9693481e-05
4.3600687e-05
2.5844848e-05
1.5436228e-05
8.1680311e-06
2.6063952e-06
0.00087847785
0.0010869982
0.0012803214
0.00143192
0.0015309561
0.0016002979
0.0016622169
0.0017799124
0.0019113377
0.0021279106
0.0023323828
0.0025743164
0.0028143197
0.0030287112
0.0031811424
0.0032371757
0.0031630738
0.0029387251
0.0025623258
0.0020607953
0.0014905946
0.00093260764
0.00047776334
0.00020774542
0.00017710693
0.000403454
0.00086784465
0.001523931
0.0023112304
0.0031677819
0.0040392245
0.0048834519
0.0056715854
0.0063865196
0.0070203758
0.0075719051
0.0080561608
0.0084878606
0.0088707618
0.00087906436
0.00068234305
0.0005247336
0.00040489168
0.00031320175
0.00024160239
0.00018427779
0.00013819222
9.9698191e-05
6.6752947e-05
4.0554355e-05
2.3153373e-05
1.4100162e-05
7.0601877e-06
2.1456391e-06
0.0011050838
0.0013379415
0.0015442363
0.0016998758
0.0018012019
0.0018763366
0.0019514155
0.0020843226
0.0022392763
0.0024917947
0.0027371966
0.0030173885
0.0032864686
0.0035134907
0.0036558703
0.0036752531
0.0035370812
0.0032256351
0.002748973
0.0021487062
0.0014980234
0.00089210547
0.00042946062
0.00019029253
0.00021965751
0.00052115791
0.0010617067
0.001784041
0.0026214556
0.0035102405
0.0043975232
0.0052444378
0.0060258394
0.0067280584
0.0073460901
0.0078930136
0.0083811326
0.0088145815
0.0092019114
0.0011121829
0.00087758644
0.00068437819
0.00053272795
0.00041356691
0.0003189502
0.00024263564
0.00018189731
0.00013366456
9.5133684e-05
6.2054414e-05
3.6450302e-05
2.0838603e-05
1.2220651e-05
5.9316699e-06
1.8626222e-06
0.0013723462
0.0016285144
0.0018471614
0.0020093543
0.0021151789
0.0021983009
0.0022793936
0.0024213591
0.0026092182
0.0029142638
0.0032105612
0.003531589
0.0038276477
0.0040598101
0.0041796086
0.0041458363
0.0039248468
0.003508132
0.0029169628
0.0022105567
0.0014803029
0.00083490045
0.0003775287
0.00018301617
0.00028350864
0.0006666547
0.0012849688
0.0020712397
0.0029540795
0.0038695268
0.0047672824
0.0056122601
0.0063831517
0.0070696971
0.007682514
0.0082304397
0.0087169142
0.0091505722
0.0095409269
0.0013886294
0.0011104372
0.00087439814
0.00068602611
0.00053591448
0.00041467505
0.00031562381
0.00023596
0.0001735346
0.00012639324
8.7931771e-05
5.609192e-05
3.2650872e-05
1.8043474e-05
1.0383482e-05
4.8330859e-06
1.6054034e-06
0.0016823163
0.0019608678
0.0021957817
0.0023681878
0.0024813257
0.0025642839
0.0026386611
0.0027962837
0.0030365892
0.0034115248
0.0037630956
0.0041254794
0.0044429961
0.0046695144
0.0047507179
0.0046440514
0.0043191043
0.0037779873
0.0030588807
0.0022414343
0.001435977
0.0007628593
0.00032605624
0.00019072938
0.00037286029
0.00084274181
0.0015388184
0.0023853845
0.0033081566
0.0042443934
0.0051472243
0.0059856377
0.0067422557
0.007424592
0.0080367526
0.008580166
0.0090633074
0.0094956263
0.009887637
0.001709684
0.0013879309
0.0011004291
0.00086683069
0.00068027022
0.00052961096
0.00040501163
0.00030340418
0.00022250156
0.00016228372
0.00011555989
7.9426212e-05
5.0269234e-05
2.8430786e-05
1.5167159e-05
8.4714569e-06
3.7159885e-06
1.3708392e-06
0.0020351072
0.0023413804
0.0025996275
0.0027868126
0.0028995308
0.0029646871
0.003032142
0.0032215535
0.003541542
0.0039953186
0.0044052227
0.0048061755
0.0051364428
0.0053429259
0.0053657837
0.0051631558
0.0047109805
0.0040259673
0.0031671789
0.0022371364
0.0013648353
0.00067914646
0.00028008706
0.00021867291
0.00049184895
0.0010518051
0.0018239434
0.0027259903
0.0036826198
0.0046335508
0.0055359083
0.0063630466
0.0071183672
0.007799723
0.0084049409
0.0089419728
0.0094200614
0.009849487
0.010241844
0.0020736762
0.0017112031
0.0013705399
0.00108022
0.00084813286
0.00066272359
0.00051074444
0.00038553252
0.00028379992
0.00020624672
0.00014652523
0.00010374309
7.1039675e-05
4.4176143e-05
2.3860403e-05
1.2399201e-05
6.5971823e-06
3.1286486e-06
1.1112778e-06
0.0024362282
0.0027809054
0.0030708815
0.0032680771
0.0033588351
0.0033975612
0.0034721511
0.0037187874
0.0041358636
0.0046783996
0.005146042
0.0055800752
0.0059107339
0.0060786414
0.0060193525
0.0056944059
0.0050900203
0.0042420633
0.0032345528
0.002194573
0.0012681686
0.00058828176
0.00024553807
0.00027233922
0.00064431496
0.0012956927
0.0021406119
0.0030923837
0.0040762898
0.0050354334
0.0059315308
0.0067626069
0.007518215
0.0081906654
0.0087868527
0.0093155816
0.0097868561
0.010211855
0.01060332
0.0024847144
0.002077053
0.0016864995
0.0013354451
0.0010438413
0.0008147105
0.00063080901
0.00048145439
0.00035835311
0.00026182391
0.00018455305
0.00013053482
9.2250607e-05
6.2497832e-05
3.7228931e-05
1.9690993e-05
9.8834911e-06
5.4944434e-06
2.307959e-06
8.830401e-07
0.0028976045
0.0032931309
0.0036156241
0.003799823
0.0038527734
0.0038726102
0.0039791703
0.004301499
0.0048351687
0.0054713468
0.0059946185
0.0064526097
0.0067670609
0.0068731842
0.0067037025
0.0062269663
0.0054442784
0.0044158014
0.0032543618
0.0021121457
0.0011489877
0.00049618623
0.00022904033
0.00035717466
0.00083360359
0.0015757907
0.0024888471
0.0034836878
0.0044875592
0.0054479547
0.0063560633
0.0071906622
0.0079360118
0.0085972002
0.0091821987
0.0097006278
0.010163314
0.010582382
0.010971814
0.00295592
0.0024892673
0.0020443053
0.0016347387
0.0012773146
0.00098919723
0.00076501229
0.00058829635
0.00044464285
0.00032972879
0.00023350561
0.00016391446
0.00011512372
8.0677179e-05
5.269829e-05
3.0927817e-05
1.6019663e-05
8.3079138e-06
4.3109161e-06
2.0048297e-06
6.7813716e-07
0.0034330501
0.0038854896
0.0042225945
0.0043732212
0.0043901549
0.0044064251
0.0045636494
0.0049920955
0.0056495673
0.0063858792
0.0069593451
0.0074279515
0.0077046203
0.0077207504
0.0074086785
0.0067478071
0.0057604821
0.0045366651
0.0032211553
0.0019901488
0.0010122164
0.0004100952
0.00023760641
0.00047830619
0.0010626329
0.00189321
0.002868354
0.0038983952
0.0049140875
0.0058979931
0.0068153654
0.0076391697
0.0083715627
0.009019046
0.0095905889
0.010096675
0.01054899
0.010960678
0.011347043
0.0034994315
0.0029608913
0.0024484689
0.0019742011
0.0015511383
0.0011960618
0.0009164522
0.00070517482
0.00053871832
0.0004076773
0.00029378914
0.00020799823
0.00014349641
9.9982046e-05
6.7610434e-05
4.3908716e-05
2.5538808e-05
1.3622151e-05
6.8674107e-06
3.6751965e-06
1.4967957e-06
5.0843598e-07
0.0040498613
0.004550545
0.0048819343
0.0049975499
0.0049856871
0.0050273408
0.0052495197
0.0057971539
0.006593555
0.0074339957
0.0080477295
0.0085085743
0.0087203805
0.0086129137
0.0081213428
0.0072416812
0.006024324
0.0045946707
0.0031312704
0.0018311843
0.00086475032
0.00033822488
0.00027827641
0.0006405944
0.0013340783
0.0022486274
0.0032779526
0.0043339945
0.0053887738
0.006390904
0.0072981202
0.0081079815
0.0088246167
0.0094558058
0.010011548
0.010503206
0.010943385
0.011346307
0.011728703
0.0041222577
0.0035036602
0.0029115727
0.0023587444
0.0018620111
0.0014386191
0.0010949217
0.00083492896
0.00063939786
0.00049136808
0.00036276247
0.00026296306
0.00018161217
0.00012408252
8.3468482e-05
5.6647557e-05
3.6626767e-05
2.1857201e-05
1.1528098e-05
5.9343786e-06
2.9720847e-06
1.2566529e-06
3.6987079e-07
0.0047434783
0.0052780189
0.005603623
0.0056882794
0.0056669775
0.0057420935
0.0060453461
0.0067318393
0.0076818804
0.0086274566
0.0092659932
0.0096948728
0.0098087149
0.0095381515
0.0088256979
0.0076911659
0.0062209724
0.0045810333
0.0029834428
0.0016404516
0.00071522484
0.00028939571
0.0003581769
0.00084880837
0.0016500851
0.0026415221
0.003715121
0.0048305216
0.0059165889
0.0069109457
0.0078042509
0.0085969058
0.0092947928
0.0099069855
0.010444503
0.010919629
0.011345935
0.011738815
0.012116518
0.004821395
0.0041227831
0.0034445091
0.0028005891
0.0022149164
0.0017139053
0.0013040042
0.00098712387
0.00074964019
0.00057945165
0.00043582686
0.00032586664
0.00022977957
0.00015754182
0.00010399614
7.0488585e-05
4.7738039e-05
3.1585013e-05
1.8689755e-05
1.004924e-05
5.062715e-06
2.528941e-06
9.6111331e-07
2.6467463e-07
0.0055065167
0.0060813687
0.0064064735
0.0064647394
0.0064407125
0.0065610725
0.0069667915
0.007815512
0.0089297455
0.0099766801
0.010618748
0.010985023
0.010960951
0.010481257
0.0095024077
0.0080769389
0.0063357763
0.0044890373
0.0027794194
0.0014257255
0.00057369953
0.00027310836
0.00048468612
0.001107163
0.0020112602
0.0030696314
0.0042280305
0.0053929347
0.0064761466
0.0074581306
0.0083336504
0.0091056043
0.0097816012
0.010371981
0.010888796
0.011345277
0.011756061
0.012137775
0.01251014
0.0055929015
0.0048169064
0.0040511238
0.0033091311
0.0026211948
0.0020272793
0.0015424303
0.001166147
0.0008786516
0.00067536203
0.00051208174
0.00039235785
0.00028497859
0.00020061992
0.00013326951
8.899831e-05
6.0114108e-05
4.1530922e-05
2.7225835e-05
1.6287724e-05
8.6942929e-06
4.3888318e-06
2.0913998e-06
7.782582e-07
1.8592547e-07
0.0063536382
0.0069820679
0.0073079686
0.0073384104
0.0073242531
0.0074948881
0.0080385862
0.0090657165
0.010351272
0.011490421
0.012108672
0.012374452
0.012164504
0.011422654
0.010128669
0.0083783175
0.0063552198
0.0043149979
0.0025242947
0.0011971812
0.00045177158
0.00029973128
0.00066474584
0.001417991
0.0024160017
0.0035899122
0.0048223897
0.0059929948
0.0070675555
0.0080324628
0.0088860521
0.0096336187
0.010284428
0.010850084
0.011343671
0.011779469
0.012173206
0.012542676
0.012909208
0.0064515209
0.0055848791
0.0047311266
0.0038871822
0.003088106
0.0023881461
0.0018156123
0.0013722116
0.0010319386
0.00078842148
0.00059526035
0.00046166321
0.00034368522
0.00025025259
0.00017179479
0.00011566646
7.7079756e-05
5.2831606e-05
3.6201549e-05
2.3790522e-05
1.4116771e-05
7.5779051e-06
3.7626554e-06
1.7341594e-06
5.9720261e-07
1.285018e-07
0.007309606
0.0079998022
0.008318984
0.0083211838
0.0083164226
0.0085690935
0.0092787203
0.010499497
0.011959992
0.013176086
0.013736494
0.013855037
0.013401808
0.012337829
0.010678395
0.008574149
0.0062681657
0.0040590089
0.0022266027
0.00096768373
0.00036288426
0.0003795605
0.00090313392
0.00178092
0.0029300174
0.0042101798
0.0054620808
0.006630895
0.0076909493
0.0086337746
0.009461058
0.01018035
0.010802541
0.011340476
0.011808367
0.012221525
0.01259672
0.012952953
0.013313344
0.0074223372
0.0064419622
0.0054859943
0.0045339567
0.0036170133
0.0028021559
0.0021309382
0.0016107416
0.001211409
0.00092488538
0.00069475083
0.00053773975
0.00040555283
0.00030338144
0.000217207