/*--------------------------------*- C++ -*----------------------------------*\
| =========                 |                                                 |
| \\      /  F ield         | OpenFOAM: The Open Source CFD Toolbox           |
|  \\    /   O peration     | Version:  5.0                                   |
|   \\  /    A nd           | Web:      www.OpenFOAM.org                      |
|    \\/     M anipulation  |                                                 |
\*---------------------------------------------------------------------------*/
FoamFile
{
    version     2.0;
    format      ascii;
    class       volVectorField;
    location    "260";
    object      U;
}
// * * * * * * * * * * * * * * * * * * * * * * * * * * * * * * * * * * * * * //

dimensions      [0 1 -1 0 0 0 0];

internalField   nonuniform List<vector> 
9520
(
(1.0143012 0.00016651171 0)
(1.0144 0.00048800813 0)
(1.0138061 0.00016431997 0)
(1.0145743 0.00078658859 0)
(1.0139069 0.00048262542 0)
(1.013617 0.00016311544 0)
(1.0148078 0.0010617048 0)
(1.0140861 0.00077973662 0)
(1.0137172 0.00047860505 0)
(1.0133081 0.00016605301 0)
(1.0150861 0.0013127782 0)
(1.0143285 0.0010549936 0)
(1.0138967 0.00077345595 0)
(1.0134088 0.00048615402 0)
(1.0130667 0.00017237146 0)
(1.0153964 0.0015394347 0)
(1.0146202 0.0013086979 0)
(1.0141401 0.0010473609 0)
(1.0135891 0.00078539527 0)
(1.0131682 0.00050446186 0)
(1.0127888 0.00017835771 0)
(1.0157276 0.0017416165 0)
(1.0149484 0.0015397749 0)
(1.0144344 0.0013022102 0)
(1.0138331 0.0010643251 0)
(1.0133492 0.00081535078 0)
(1.0128901 0.00052345108 0)
(1.0125321 0.0001796151 0)
(1.0160703 0.0019187555 0)
(1.0153028 0.0017481614 0)
(1.0147673 0.0015367499 0)
(1.0141285 0.0013257346 0)
(1.0135936 0.0011063848 0)
(1.0130694 0.00084851376 0)
(1.012632 0.00052950059 0)
(1.0122759 0.00017574342 0)
(1.0164175 0.0020700646 0)
(1.0156753 0.0019341125 0)
(1.0151281 0.0017505561 0)
(1.0144647 0.0015694105 0)
(1.0138893 0.0013795356 0)
(1.0133118 0.0011555901 0)
(1.0128086 0.00086192714 0)
(1.0123715 0.00051994075 0)
(1.0120418 0.0001691036 0)
(1.0167651 0.0021939533 0)
(1.0160604 0.0020980084 0)
(1.0155074 0.0019436211 0)
(1.0148313 0.0017952704 0)
(1.014227 0.0016360008 0)
(1.0136048 0.0014453 0)
(1.0130478 0.0011794327 0)
(1.0125413 0.00084955058 0)
(1.0121327 0.00050068684 0)
(1.0118239 0.00016311267 0)
(1.0171139 0.0022853707 0)
(1.0164565 0.00224197 0)
(1.0158963 0.0021168356 0)
(1.015218 0.0020029148 0)
(1.0145966 0.0018764982 0)
(1.0139388 0.0017201542 0)
(1.013337 0.0014821244 0)
(1.0127727 0.0011676047 0)
(1.0122951 0.00081965471 0)
(1.01191 0.00048201028 0)
(1.011621 0.00015992555 0)
(1.0174673 0.0023525898 0)
(1.0168664 0.00237304 0)
(1.0162866 0.0022757709 0)
(1.0156133 0.0021923383 0)
(1.0149885 0.0021008032 0)
(1.0143047 0.0019818764 0)
(1.0136659 0.0017723388 0)
(1.0130529 0.0014760202 0)
(1.0125166 0.0011289701 0)
(1.0120647 0.00078932118 0)
(1.0117031 0.00047103864 0)
(1.0114277 0.00015929523 0)
(1.0178141 0.0023920101 0)
(1.017291 0.0024958213 0)
(1.0166662 0.0024281062 0)
(1.0160038 0.0023651076 0)
(1.0153926 0.00230781 0)
(1.0146953 0.0022308702 0)
(1.0140259 0.0020523274 0)
(1.0133703 0.0017758904 0)
(1.0127862 0.0014336255 0)
(1.0122744 0.0010881616 0)
(1.0118503 0.00077061266 0)
(1.0115067 0.0004680937 0)
(1.0112412 0.00015906953 0)
(1.0181274 0.0024316655 0)
(1.0176478 0.0026271341 0)
(1.0169799 0.002592254 0)
(1.0163691 0.0025195362 0)
(1.0157974 0.0024936439 0)
(1.0151062 0.0024657202 0)
(1.0144109 0.0023237065 0)
(1.0137159 0.0020691085 0)
(1.0130919 0.0017338712 0)
(1.0125284 0.0013845212 0)
(1.012049 0.0010631187 0)
(1.0116464 0.00076489379 0)
(1.0113176 0.00046751178 0)
(1.0110621 0.00015662605 0)
(1.0184442 0.0024344302 0)
(1.0179524 0.0028041748 0)
(1.0172333 0.002770355 0)
(1.0167034 0.0026520331 0)
(1.016196 0.0026477671 0)
(1.0155385 0.0026802482 0)
(1.0148183 0.0025877585 0)
(1.0140827 0.0023578366 0)
(1.0134236 0.0020301149 0)
(1.0128174 0.0016795295 0)
(1.0122887 0.0013538126 0)
(1.0118337 0.0010554053 0)
(1.0114503 0.00076391151 0)
(1.0111356 0.00046147429 0)
(1.0108936 0.00015017641 0)
(1.0187649 0.0025022877 0)
(1.0182302 0.0029641649 0)
(1.0175061 0.0029246956 0)
(1.0170388 0.0027390993 0)
(1.0166156 0.0027562338 0)
(1.0160042 0.0028646011 0)
(1.0152491 0.0028466259 0)
(1.0144648 0.0026455908 0)
(1.0137726 0.0023231832 0)
(1.0131323 0.0019732549 0)
(1.0125616 0.0016447532 0)
(1.0120586 0.0013445186 0)
(1.0116265 0.0010536875 0)
(1.0112617 0.0007551799 0)
(1.0109635 0.00044404124 0)
(1.01074 0.00013944229 0)
(1.0191134 0.0024469211 0)
(1.0184807 0.0031996557 0)
(1.0176967 0.0030461973 0)
(1.0173953 0.0027708233 0)
(1.0170639 0.0027789535 0)
(1.0165106 0.0030171235 0)
(1.0157058 0.0031081775 0)
(1.0148576 0.0029399683 0)
(1.0141283 0.0026147942 0)
(1.0134641 0.0022649095 0)
(1.0128596 0.0019370622 0)
(1.0123137 0.0016350808 0)
(1.0118368 0.0013423176 0)
(1.0114275 0.0010419067 0)
(1.011083 0.00072825281 0)
(1.0108059 0.00041360232 0)
(1.0106046 0.00012568025 0)
(1.0194307 0.0026872885 0)
(1.0186888 0.0033919164 0)
(1.0178236 0.0031548039 0)
(1.0176975 0.002732488 0)
(1.017503 0.0027634831 0)
(1.0170526 0.0031245506 0)
(1.0162008 0.0033763525 0)
(1.0152558 0.0032508055 0)
(1.0144792 0.0029086992 0)
(1.0138035 0.0025528351 0)
(1.0131754 0.0022300389 0)
(1.0125919 0.0019299173 0)
(1.0120735 0.0016336221 0)
(1.011623 0.0013268458 0)
(1.0112392 0.0010068567 0)
(1.0109183 0.00067925246 0)
(1.0106667 0.00037332986 0)
(1.0104886 0.00011111137 0)
(1.0198442 0.0024305185 0)
(1.0189229 0.0038423287 0)
(1.0177671 0.0033152431 0)
(1.0178719 0.0026652589 0)
(1.0180239 0.0026842636 0)
(1.0175927 0.0032170979 0)
(1.0167167 0.0036759075 0)
(1.0156436 0.0035961382 0)
(1.014813 0.0032089758 0)
(1.0141408 0.0028337054 0)
(1.0135021 0.0025210313 0)
(1.0128876 0.0022299935 0)
(1.0123293 0.0019320478 0)
(1.0118397 0.001615803 0)
(1.0114206 0.0012826203 0)
(1.0110655 0.0009421931 0)
(1.0107721 0.0006128922 0)
(1.0105477 0.00032963865 0)
(1.0103907 9.7980174e-05 0)
(1.0200598 0.0030946206 0)
(1.0189293 0.0040900598 0)
(1.0175179 0.0033913511 0)
(1.0179174 0.0024598759 0)
(1.0185441 0.0025056625 0)
(1.0182238 0.0032891071 0)
(1.0172241 0.0040155302 0)
(1.0160021 0.0040029005 0)
(1.0151056 0.0035273434 0)
(1.0144597 0.003101625 0)
(1.0138334 0.002803938 0)
(1.013198 0.0025342896 0)
(1.0125997 0.002240788 0)
(1.0120699 0.0019142226 0)
(1.0116175 0.0015634295 0)
(1.0112338 0.0012029622 0)
(1.0109097 0.00085043911 0)
(1.0106477 0.00054006346 0)
(1.0104476 0.00028922747 0)
(1.0103076 8.7707931e-05 0)
(1.0203704 0.0024456854 0)
(1.0191333 0.0049584073 0)
(1.0170013 0.0037528626 0)
(1.0178247 0.0021330768 0)
(1.0191688 0.0021247278 0)
(1.019009 0.0033645457 0)
(1.0177626 0.0044075097 0)
(1.0162888 0.0044880223 0)
(1.0153251 0.0038691671 0)
(1.0147404 0.0033536259 0)
(1.0141618 0.0030692896 0)
(1.0135222 0.0028383733 0)
(1.0128831 0.0025617679 0)
(1.0123083 0.0022273716 0)
(1.0118212 0.0018548535 0)
(1.0114116 0.0014685263 0)
(1.0110664 0.0010891532 0)
(1.0107765 0.00074546254 0)
(1.0105448 0.00047200771 0)
(1.0103636 0.00025649693 0)
(1.0102356 8.0563756e-05 0)
(1.0200951 0.0037135496 0)
(1.0187383 0.0053020249 0)
(1.016273 0.0036833291 0)
(1.0175526 0.0017076518 0)
(1.0198157 0.0016114614 0)
(1.0200072 0.0033656843 0)
(1.0183927 0.0049129074 0)
(1.016511 0.005069531 0)
(1.0154271 0.0042470925 0)
(1.0149421 0.0035642621 0)
(1.0144777 0.0033007287 0)
(1.0138622 0.0031341694 0)
(1.0131824 0.0028958873 0)
(1.012553 0.0025603522 0)
(1.0120251 0.0021630375 0)
(1.0115898 0.0017440046 0)
(1.011228 0.001331815 0)
(1.0109216 0.00095309253 0)
(1.0106678 0.00064547836 0)
(1.0104601 0.00041555534 0)
(1.0102921 0.00023271574 0)
(1.0101717 7.5935905e-05 0)
(1.0198348 0.0025768991 0)
(1.0188563 0.0066446937 0)
(1.0150334 0.004519955 0)
(1.0170224 0.00083599923 0)
(1.0206469 0.00070392368 0)
(1.0212463 0.0034094177 0)
(1.0191295 0.0055717696 0)
(1.0166248 0.005801251 0)
(1.0154044 0.0046425915 0)
(1.0150943 0.0037443746 0)
(1.0147666 0.0034627726 0)
(1.0142252 0.003402914 0)
(1.0135079 0.0032417363 0)
(1.0128057 0.0029201019 0)
(1.0122238 0.0024946096 0)
(1.0117603 0.0020349643 0)
(1.0113849 0.0015821728 0)
(1.0110695 0.0011636325 0)
(1.0108041 0.00081929951 0)
(1.0105806 0.0005626494 0)
(1.0103895 0.00037241382 0)
(1.0102303 0.0002167348 0)
(1.0101133 7.2873395e-05 0)
(1.0187988 0.0045172792 0)
(1.0170861 0.0071075001 0)
(1.0137625 0.0041304923 0)
(1.016172 0.00025717802 0)
(1.0213662 -0.00035641788 0)
(1.022804 0.0032102295 0)
(1.0200305 0.006482415 0)
(1.0166007 0.0067450474 0)
(1.0151408 0.0050891088 0)
(1.0151169 0.0038028742 0)
(1.0150956 0.0035475463 0)
(1.0146393 0.0036203395 0)
(1.013879 0.003592617 0)
(1.0130752 0.003314818 0)
(1.0124139 0.0028596449 0)
(1.0119144 0.0023472969 0)
(1.011528 0.0018440896 0)
(1.0112097 0.0013797426 0)
(1.0109416 0.00099378976 0)
(1.0107114 0.00070541681 0)
(1.0105104 0.00049968264 0)
(1.0103298 0.00034120941 0)
(1.0101756 0.00020624548 0)
(1.0100592 7.0463015e-05 0)
(1.0192348 0.0034498679 0)
(1.014678 0.0088308461 0)
(1.0107413 0.0058318976 0)
(1.0149429 -0.0015212266 0)
(1.0226567 -0.0020355409 0)
(1.0247193 0.0032748952 0)
(1.0210741 0.0076580626 0)
(1.0163971 0.0080064154 0)
(1.0145696 0.0055681328 0)
(1.0149637 0.0037437435 0)
(1.0154786 0.0034420684 0)
(1.0151219 0.0037337883 0)
(1.0143366 0.0039468088 0)
(1.0133779 0.0037576302 0)
(1.0125945 0.0032719557 0)
(1.0120433 0.0026893426 0)
(1.0116472 0.0021210681 0)
(1.0113327 0.0016032417 0)
(1.0110692 0.001171296 0)
(1.010842 0.00084654144 0)
(1.0106392 0.00061640279 0)
(1.0104531 0.00045277143 0)
(1.0102786 0.00031967702 0)
(1.0101258 0.00019873664 0)
(1.0100088 6.7964843e-05 0)
(1.0181595 0.0057744478 0)
(1.0146338 0.0097877392 0)
(1.0075935 0.0047752026 0)
(1.0131023 -0.0022745655 0)
(1.023216 -0.0038478689 0)
(1.0271112 0.0026121457 0)
(1.022396 0.0093241888 0)
(1.0159328 0.0096476724 0)
(1.0135804 0.006169808 0)
(1.0145507 0.0034575713 0)
(1.0158543 0.003129047 0)
(1.015751 0.0037765961 0)
(1.0148828 0.0042762625 0)
(1.0137443 0.0042687408 0)
(1.0127672 0.0037553861 0)
(1.0121352 0.0030721285 0)
(1.0117311 0.0024161601 0)
(1.0114293 0.0018349309 0)
(1.0111782 0.0013532691 0)
(1.0109609 0.00098840869 0)
(1.0107656 0.00072829861 0)
(1.0105834 0.00054872595 0)
(1.010406 0.00041677495 0)
(1.0102345 0.00030502422 0)
(1.0100798 0.00019188753 0)
(1.009962 6.4888784e-05 0)
(1.0122871 0.0045990288 0)
(1.0138784 0.012054539 0)
(1.0049733 0.0070575478 0)
(1.0107834 -0.0052826673 0)
(1.024769 -0.0065548702 0)
(1.0295908 0.0029259687 0)
(1.0237777 0.011276289 0)
(1.015152 0.011777429 0)
(1.012075 0.0068250774 0)
(1.0137881 0.0029659321 0)
(1.0162073 0.0024560515 0)
(1.016615 0.0037055929 0)
(1.0155487 0.0046359257 0)
(1.0141603 0.0048805221 0)
(1.012932 0.0043439891 0)
(1.0121758 0.0035150472 0)
(1.0117633 0.0027319371 0)
(1.011489 0.0020724169 0)
(1.0112616 0.0015395589 0)
(1.01106 0.0011330806 0)
(1.0108785 0.0008386049 0)
(1.0107087 0.00063504847 0)
(1.0105409 0.00049576582 0)
(1.0103678 0.00038829247 0)
(1.0101961 0.00029300295 0)
(1.0100374 0.00018363985 0)
(1.0099191 6.1024205e-05 0)
(0.9993034 0.0078215494 0)
(1.0010995 0.012895321 0)
(1.002113 0.0059539574 0)
(1.0083927 -0.0067052366 0)
(1.0253273 -0.0090855386 0)
(1.0319023 0.0013971274 0)
(1.0256437 0.014203614 0)
(1.0138164 0.014544117 0)
(1.0098392 0.0076811118 0)
(1.0125852 0.0020862741 0)
(1.0165479 0.0013889664 0)
(1.0177529 0.003373515 0)
(1.016499 0.0050484281 0)
(1.0146229 0.0056232663 0)
(1.0130653 0.0050922301 0)
(1.0121358 0.0040418547 0)
(1.0117223 0.0030716805 0)
(1.0114994 0.0023104512 0)
(1.0113132 0.0017255177 0)
(1.0111347 0.0012811015 0)
(1.0109698 0.00095083295 0)
(1.010818 0.00071644554 0)
(1.0106686 0.00055918212 0)
(1.0105098 0.00045092263 0)
(1.0103381 0.00036412931 0)
(1.0101624 0.00027831454 0)
(1.0099991 0.00017250796 0)
(1.0098807 5.6424538e-05 0)
(0.98612 0.0079065749 0)
(0.98396078 0.015649892 0)
(0.98959798 0.0087549508 0)
(1.0059579 -0.010769267 0)
(1.0276282 -0.013081521 0)
(1.0348479 0.0022159561 0)
(1.0267605 0.017297474 0)
(1.0119531 0.017974869 0)
(1.0067465 0.0086935838 0)
(1.0107786 0.00089295768 0)
(1.0168533 -0.00034673075 0)
(1.0192608 0.0027679411 0)
(1.0178343 0.0054914959 0)
(1.0152595 0.006570046 0)
(1.0131229 0.0060301131 0)
(1.0119858 0.0046925649 0)
(1.0115717 0.0034381509 0)
(1.0114422 0.0025372695 0)
(1.0113279 0.0019008952 0)
(1.0111839 0.00142892 0)
(1.0110362 0.0010675681 0)
(1.0109025 0.00079848172 0)
(1.0107771 0.00061301036 0)
(1.0106436 0.00049231664 0)
(1.0104894 0.00040876657 0)
(1.0103159 0.00033904552 0)
(1.0101334 0.00025759566 0)
(1.0099657 0.00015842107 0)
(1.009847 5.1468797e-05 0)
(0.97175801 0.01055794 0)
(0.9693829 0.017185132 0)
(0.97565622 0.0062123174 0)
(0.99953718 -0.012319583 0)
(1.0286891 -0.016307049 0)
(1.0397843 0.00040827948 0)
(1.0268779 0.021973869 0)
(1.0086064 0.022430621 0)
(1.0023978 0.0098995591 0)
(1.0082872 -0.00093985896 0)
(1.017113 -0.0026898518 0)
(1.021223 0.0016391369 0)
(1.0196956 0.0060166708 0)
(1.0161372 0.0078121297 0)
(1.0131237 0.0072480908 0)
(1.0116597 0.0054952539 0)
(1.0112666 0.0038343448 0)
(1.0112908 0.0027345133 0)
(1.011299 0.0020457781 0)
(1.0112108 0.0015668657 0)
(1.0110805 0.0011889656 0)
(1.0109593 0.00088662787 0)
(1.0108566 0.00066490549 0)
(1.0107549 0.00051886757 0)
(1.0106327 0.00042794686 0)
(1.0104795 0.00036581745 0)
(1.0103006 0.00030895644 0)
(1.0101092 0.00023149091 0)
(1.0099375 0.00014306158 0)
(1.0098177 4.6810691e-05 0)
(0.95554831 0.011547296 3.3366548e-24)
(0.95343479 0.018847495 0)
(0.96256185 0.0071945303 0)
(0.99254543 -0.018641862 0)
(1.028628 -0.021636393 0)
(1.0422457 0.0013379845 0)
(1.0295137 0.025869139 0)
(1.0039752 0.02741636 0)
(0.9966281 0.011453774 0)
(1.0048239 -0.0032759682 0)
(1.0173766 -0.006118682 0)
(1.0237962 6.7654047e-05 0)
(1.0222138 0.0065143435 0)
(1.0173601 0.0094825562 0)
(1.0130552 0.0088680069 0)
(1.0110607 0.0065013338 0)
(1.0107453 0.0042642981 0)
(1.0110061 0.0028705645 0)
(1.0112194 0.0021292661 0)
(1.0112239 0.001676042 0)
(1.0111128 0.0013111271 0)
(1.0109921 0.00098629641 0)
(1.0109025 0.00072326199 0)
(1.0108319 0.00053943562 0)
(1.0107504 0.00042742253 0)
(1.0106347 0.00036294887 0)
(1.0104791 0.00031932793 0)
(1.0102913 0.00027138579 0)
(1.0100912 0.00020433573 0)
(1.009914 0.00012877475 0)
(1.0097922 4.3149972e-05 0)
(0.93703625 0.013852169 -1.5606421e-24)
(0.9359329 0.020752103 -3.4843694e-24)
(0.94885773 0.0038843826 0)
(0.98369355 -0.022784009 0)
(1.0261445 -0.025545468 0)
(1.04236 -0.0031508042 0)
(1.0379884 0.033227383 0)
(1.0006029 0.033113436 0)
(0.98917955 0.01285241 0)
(1.0004452 -0.0065384671 0)
(1.0175382 -0.010413881 0)
(1.0270749 -0.002394327 0)
(1.0256103 0.0071544907 0)
(1.0190083 0.011672958 0)
(1.012904 0.011067621 0)
(1.0101015 0.0077822646 0)
(1.0098925 0.0047252095 0)
(1.0105401 0.0029034768 0)
(1.0110797 0.0021040699 0)
(1.0112386 0.0017266791 0)
(1.011152 0.0014244077 0)
(1.0110128 0.0011017081 0)
(1.0109162 0.00079880528 0)
(1.010867 0.00056499742 0)
(1.0108284 0.00041543054 0)
(1.0107624 0.00033365821 0)
(1.0106496 0.00029217464 0)
(1.0104878 0.00026468139 0)
(1.0102882 0.00022835565 0)
(1.0100788 0.00017939164 0)
(1.0098944 0.00011746173 0)
(1.0097694 4.1033764e-05 0)
(0.91699299 0.01566163 1.5667898e-24)
(0.916575 0.022646431 1.5516653e-23)
(0.93186041 0.0031419962 0)
(0.9743303 -0.02854505 0)
(1.018596 -0.030613457 0)
(1.0389174 -0.0005034664 0)
(1.0364621 0.038099683 0)
(1.0008779 0.041131482 0)
(0.98105248 0.014886323 0)
(0.99472265 -0.010791342 0)
(1.0178293 -0.016306746 0)
(1.0312133 -0.005462853 0)
(1.0300201 0.0076515002 0)
(1.0212371 0.014604452 0)
(1.0126276 0.014006926 0)
(1.0086548 0.0094824246 0)
(1.0085698 0.0051845697 0)
(1.0098204 0.0027872494 0)
(1.0108612 0.0019030733 0)
(1.0112669 0.0016707802 0)
(1.0112253 0.0015114967 0)
(1.0110424 0.0012378218 0)
(1.0109065 0.00090592384 0)
(1.0108569 0.00061086067 0)
(1.0108552 0.00040386632 0)
(1.010846 0.00028512318 0)
(1.0107921 0.00023039575 0)
(1.0106782 0.00021261807 0)
(1.0105052 0.00020492889 0)
(1.0102918 0.00018865989 0)
(1.0100709 0.00015916018 0)
(1.0098776 0.00011053696 0)
(1.0097481 4.0791045e-05 0)
(0.89669467 0.017642077 0)
(0.89656835 0.024705341 -1.5542241e-23)
(0.91344121 0.0007053693 0)
(0.95998932 -0.03388389 0)
(1.0089078 -0.033115283 0)
(1.0279547 -0.001624218 0)
(1.0154194 0.046159789 0)
(0.99075313 0.050603494 0)
(0.97063846 0.016861895 0)
(0.98796002 -0.015928714 0)
(1.0178282 -0.023268213 0)
(1.0362956 -0.0099279755 0)
(1.035717 0.0084304918 0)
(1.0240982 0.018365759 0)
(1.0121941 0.017938942 0)
(1.0065683 0.011678215 0)
(1.0066135 0.0056830043 0)
(1.0087402 0.0024106753 0)
(1.0105468 0.0014376248 0)
(1.0113507 0.0014635923 0)
(1.0113503 0.0015445785 0)
(1.0111125 0.0013985453 0)
(1.0108915 0.0010641421 0)
(1.0108035 0.00069776974 0)
(1.0108217 0.00040952603 0)
(1.0108704 0.00022882074 0)
(1.0108877 0.00014094004 0)
(1.0108401 0.00011785412 0)
(1.0107183 0.00012978584 0)
(1.0105303 0.00014759233 0)
(1.0103009 0.00015549013 0)
(1.0100663 0.00014609651 0)
(1.0098623 0.00010891246 0)
(1.0097275 4.2532613e-05 0)
(0.8764413 0.019488222 -1.8348689e-24)
(0.87708462 0.026626377 0)
(0.89428257 -0.0012993736 -3.1786584e-23)
(0.94292112 -0.039273606 0)
(0.9957364 -0.038035649 0)
(1.0154327 0.0032598359 0)
(0.99540789 0.053925138 0)
(0.96672991 0.059315006 0)
(0.9569567 0.021620606 0)
(0.97895009 -0.022683991 0)
(1.0178738 -0.032128438 0)
(1.0421755 -0.01489 0)
(1.0426156 0.0088538367 0)
(1.0277726 0.023302659 0)
(1.0114791 0.023094264 0)
(1.0036161 0.014594431 0)
(1.0038299 0.0061491594 0)
(1.0071734 0.001710985 0)
(1.0101053 0.00056696297 0)
(1.0115232 0.00098609457 0)
(1.0116507 0.0015118738 0)
(1.0112717 0.0015799462 0)
(1.0109019 0.0012925256 0)
(1.0107167 0.00085400372 0)
(1.0107222 0.00045606355 0)
(1.0108201 0.00018122728 0)
(1.0109177 3.2554013e-05 0)
(1.010955 -1.4298595e-05 0)
(1.0109046 3.544984e-06 0)
(1.0107685 5.003012e-05 0)
(1.0105621 9.9116391e-05 0)
(1.0103146 0.00013210201 0)
(1.0100642 0.00014153135 0)
(1.0098483 0.00011276571 0)
(1.0097062 4.629206e-05 0)
(0.85725219 0.021066111 -7.875241e-24)
(0.85868286 0.028491653 3.2927106e-23)
(0.87541302 -0.0036436418 3.1786322e-23)
(0.92409852 -0.044976125 4.2071781e-23)
(0.97905032 -0.042365806 -1.151353e-22)
(1.0006665 0.0044465078 0)
(0.97841616 0.063635201 0)
(0.94635415 0.06692104 0)
(0.94107871 0.023799925 0)
(0.96790023 -0.029624686 0)
(1.0170076 -0.042103812 0)
(1.0488512 -0.021871207 0)
(1.0505811 0.0098928069 0)
(1.0319956 0.029475491 0)
(1.0104142 0.029744615 0)
(0.99956761 0.018317384 0)
(0.9999577 0.0066775566 0)
(1.0049672 0.00048731955 0)
(1.0095038 -0.00082165824 0)
(1.0118282 0.00011697976 0)
(1.0121988 0.001320102 0)
(1.0115916 0.001770323 0)
(1.0109929 0.0016196398 0)
(1.010615 0.0011126281 0)
(1.0105538 0.00057504238 0)
(1.0106819 0.00016526184 0)
(1.010862 -7.9989412e-05 0)
(1.0110003 -0.0001780018 0)
(1.0110461 -0.00017117651 0)
(1.010985 -0.00010613984 0)
(1.0108278 -1.8718007e-05 0)
(1.0105987 6.3684221e-05 0)
(1.0103312 0.00012126717 0)
(1.0100638 0.00014400102 0)
(1.0098339 0.0001222442 0)
(1.0096835 5.1929206e-05 0)
(0.84023058 0.022317226 1.3101546e-23)
(0.84231435 0.030058295 -4.9905573e-23)
(0.8576891 -0.0058533707 0)
(0.90421275 -0.05057069 4.3234902e-23)
(0.95939598 -0.04647304 1.1457152e-22)
(0.98387276 0.005202536 1.7178282e-22)
(0.96053992 0.072451181 8.9467113e-23)
(0.92825029 0.072795118 0)
(0.92505669 0.026213558 0)
(0.95786177 -0.0397266 0)
(1.016185 -0.05473854 0)
(1.0568088 -0.02846354 0)
(1.0595198 0.010420812 0)
(1.0363665 0.037540391 0)
(1.0084302 0.038258875 0)
(0.99407526 0.023102099 0)
(0.99473085 0.0071110816 0)
(1.0019549 -0.0012923297 0)
(1.008677 -0.00298064 0)
(1.0123306 -0.0012693358 0)
(1.0130821 0.00089167367 0)
(1.012228 0.0020154001 0)
(1.0111906 0.0020499803 0)
(1.0105411 0.0015314677 0)
(1.0103166 0.00080866988 0)
(1.0104396 0.00021044106 0)
(1.0106994 -0.0001784354 0)
(1.0109531 -0.00036369886 0)
(1.0111169 -0.00039151666 0)
(1.0111587 -0.00032142848 0)
(1.0110786 -0.00020248061 0)
(1.0108946 -7.0908599e-05 0)
(1.0106391 4.4148527e-05 0)
(1.0103471 0.0001237192 0)
(1.0100619 0.00015842631 0)
(1.009818 0.00013743996 0)
(1.0096586 5.9188437e-05 0)
(0.82650051 0.023282473 2.8404611e-25)
(0.82877915 0.031315234 1.0781279e-23)
(0.8418247 -0.0080304251 -1.3057153e-23)
(0.8843762 -0.055802303 -4.7590933e-23)
(0.93823178 -0.051136349 -8.8352707e-23)
(0.96354406 0.0075520923 1.6985419e-22)
(0.94339245 0.079606709 1.332894e-22)
(0.90967682 0.081751577 -4.2881441e-24)
(0.90876813 0.023034364 0)
(0.94737924 -0.049331109 0)
(1.0161763 -0.069153847 0)
(1.0677544 -0.040248167 0)
(1.072094 0.01224079 0)
(1.0407215 0.047284731 0)
(1.004816 0.04870005 0)
(0.98671076 0.029124317 0)
(0.98775897 0.0075694748 0)
(0.99794291 -0.0039766931 0)
(1.0075868 -0.0060123561 0)
(1.0130801 -0.003411419 0)
(1.0144441 0.00014421232 0)
(1.0133024 0.002268937 0)
(1.011628 0.0026905065 0)
(1.0104946 0.0021466718 0)
(1.0100266 0.0012213695 0)
(1.0100776 0.0003601271 0)
(1.0104051 -0.00023834293 0)
(1.0107872 -0.00055836209 0)
(1.0110933 -0.00065276506 0)
(1.011265 -0.00059704329 0)
(1.0112902 -0.00045543349 0)
(1.0111817 -0.00027809189 0)
(1.0109668 -0.00010323516 0)
(1.0106809 4.2106729e-05 0)
(1.0103647 0.00014067818 0)
(1.0100587 0.00018250213 0)
(1.0097998 0.00015764385 0)
(1.0096309 6.7706315e-05 0)
(0.81623294 0.023828679 -4.9775872e-24)
(0.81861717 0.032157268 1.8918082e-25)
(0.82898005 -0.0099055191 0)
(0.86507876 -0.060591245 2.1463635e-23)
(0.91582524 -0.055249796 -8.1665659e-23)
(0.94254269 0.0086215589 0)
(0.92348886 0.08832893 -3.84354e-22)
(0.89311626 0.089598618 -3.7908876e-22)
(0.89055785 0.026423358 0)
(0.93944043 -0.062213441 0)
(1.0144891 -0.08439029 0)
(1.0764118 -0.048241861 0)
(1.0902328 0.01147497 0)
(1.0499787 0.059075575 0)
(1.0002654 0.061559376 0)
(0.97668965 0.0362303 0)
(0.97879977 0.0078813149 0)
(0.99268838 -0.0075453474 0)
(1.0061601 -0.010342704 0)
(1.0141561 -0.0064128995 0)
(1.0164399 -0.0011059839 0)
(1.0149888 0.0025341033 0)
(1.0124488 0.0035980164 0)
(1.0105348 0.003060971 0)
(1.0096736 0.0018831114 0)
(1.0095763 0.00066222022 0)
(1.0099507 -0.00022724303 0)
(1.0104728 -0.00074610103 0)
(1.0109476 -0.00094853416 0)
(1.0112796 -0.00093153011 0)
(1.0114403 -0.00078150567 0)
(1.0114362 -0.00056391423 0)
(1.0112921 -0.00032909614 0)
(1.0110411 -0.00011360732 0)
(1.0107221 5.7668427e-05 0)
(1.0103801 0.00017101447 0)
(1.010053 0.00021480877 0)
(1.0097786 0.0001819686 0)
(1.0096002 7.7113134e-05 0)
(0.81080904 0.023943652 0)
(0.81269641 0.032615294 0)
(0.81951427 -0.011662237 -1.9592489e-25)
(0.84819122 -0.064621967 0)
(0.89285675 -0.059162416 1.5168293e-24)
(0.91972521 0.010326803 1.8912178e-22)
(0.90420141 0.09607526 6.3074915e-22)
(0.87553395 0.098298776 -1.3534251e-22)
(0.8738374 0.029932103 0)
(0.92408921 -0.07338668 0)
(1.0123314 -0.098465623 0)
(1.078368 -0.06424006 0)
(1.0973097 0.012285977 0)
(1.0658916 0.071862895 0)
(1.0000385 0.076254971 0)
(0.96426941 0.044821521 0)
(0.96722982 0.0078891021 0)
(0.98609998 -0.012488349 0)
(1.0043259 -0.015934209 0)
(1.0156263 -0.010710466 0)
(1.0192561 -0.0029020222 0)
(1.0174863 0.0027196619 0)
(1.0138114 0.004862594 0)
(1.0107704 0.0044112416 0)
(1.0092244 0.0028687036 0)
(1.008923 0.0012084493 0)
(1.0092951 -0.00011066203 0)
(1.0099732 -0.00091258698 0)
(1.0106491 -0.0012743273 0)
(1.0111762 -0.0013253798 0)
(1.0115056 -0.0011828173 0)
(1.0116369 -0.00093354826 0)
(1.0115928 -0.00064119045 0)
(1.0114064 -0.00035271946 0)
(1.0111154 -0.00010164854 0)
(1.0107629 9.1577856e-05 0)
(1.010393 0.00021335964 0)
(1.010044 0.00025417434 0)
(1.0097542 0.00020937969 0)
(1.0095663 8.7021162e-05 0)
(0.81108481 0.032701336 -6.4967124e-25)
(0.81062077 0.023749069 0)
(0.8135256 -0.012928648 -9.9709584e-24)
(0.83441212 -0.067834079 -2.7541425e-24)
(0.87106338 -0.062537328 -2.2083889e-23)
(0.89659527 0.011712434 8.5795934e-24)
(0.88389899 0.10374041 6.6274331e-25)
(0.85902358 0.10662151 -2.5685995e-22)
(0.85692897 0.033670301 1.2169967e-22)
(0.90671125 -0.081184394 0)
(1.0016611 -0.11566911 -9.56642e-22)
(1.0764132 -0.068369723 0)
(1.0973285 0.0076191471 0)
(1.0829648 0.088709524 0)
(1.0033119 0.094405227 0)
(0.95194625 0.054884037 0)
(0.95291599 0.0077177286 0)
(0.97777087 -0.018847376 0)
(1.0021076 -0.023456329 0)
(1.0175484 -0.016229697 0)
(1.0230963 -0.0056329607 0)
(1.0210709 0.0029176008 0)
(1.0158977 0.0065431422 0)
(1.0112945 0.0063629165 0)
(1.008713 0.0043390091 0)
(1.0080286 0.0020476211 0)
(1.0083966 0.00017246494 0)
(1.0092415 -0.001028146 0)
(1.0101589 -0.0016257627 0)
(1.0109257 -0.0017823042 0)
(1.0114622 -0.0016647851 0)
(1.0117622 -0.0013920292 0)
(1.0118486 -0.0010460672 0)
(1.0117555 -0.00068415026 0)
(1.0115216 -0.0003483464 0)
(1.0111881 -6.7448397e-05 0)
(1.0108007 0.00014179051 0)
(1.0104023 0.00026588243 0)
(1.0100315 0.00029839274 0)
(1.0097265 0.00023859833 0)
(1.0095294 9.7122746e-05 0)
(0.81120619 -0.013551777 8.9705472e-24)
(0.81513205 0.032583387 0)
(0.81662767 0.023101547 -4.803042e-24)
(0.82191339 -0.070140385 2.7521853e-24)
(0.85176781 -0.065045498 1.3818777e-23)
(0.87418555 0.012942187 3.4092647e-22)
(0.86462637 0.11050294 -5.9026343e-22)
(0.84355681 0.11450659 -6.6255569e-23)
(0.84137238 0.03740998 4.8930614e-23)
(0.8887189 -0.090472551 6.7802663e-23)
(0.98450031 -0.13089715 -1.0542437e-21)
(1.0667788 -0.083333365 9.9883056e-22)
(1.0922362 0.012537505 0)
(1.0734812 0.10340613 0)
(0.99901662 0.11769044 0)
(0.9394193 0.068522198 0)
(0.93547417 0.0065394319 0)
(0.9679975 -0.0269691 0)
(0.99928819 -0.032616888 0)
(1.0200273 -0.023731146 0)
(1.0281505 -0.0091692547 0)
(1.0259923 0.0028390454 0)
(1.0189758 0.0088198802 0)
(1.0122065 0.0090936596 0)
(1.0081488 0.0064901865 0)
(1.0068169 0.0032952319 0)
(1.0071758 0.00069005215 0)
(1.008209 -0.0010920043 0)
(1.0094309 -0.002003932 0)
(1.0104943 -0.0023097664 0)
(1.0112855 -0.0022368696 0)
(1.0117916 -0.0019479098 0)
(1.0120401 -0.0015506275 0)
(1.0120694 -0.0011156651 0)
(1.0119203 -0.00069215731 0)
(1.0116352 -0.00031645196 0)
(1.011258 -1.204573e-05 0)
(1.0108344 0.00020556606 0)
(1.0104075 0.00032628361 0)
(1.010015 0.00034618189 0)
(1.0096952 0.00026898304 0)
(1.0094895 0.00010717864 0)
(0.8139167 -0.071306229 5.3698275e-24)
(0.81561512 -0.013746843 2.300362e-23)
(0.82559895 0.032025113 0)
(0.8262845 0.022031413 -6.1058513e-25)
(0.83329793 -0.067012479 -5.7937451e-24)
(0.85389438 0.014025748 -1.5092001e-22)
(0.84703781 0.11623546 0)
(0.83022494 0.1214277 6.5797566e-23)
(0.82805984 0.04110016 -3.9298064e-24)
(0.87070521 -0.099725922 -6.6923615e-23)
(0.96527653 -0.14637591 1.1359214e-21)
(1.0513672 -0.10051977 1.0985118e-21)
(1.0800046 0.013011146 0)
(1.0447664 0.12179996 0)
(0.97999875 0.14096562 0)
(0.92358652 0.084719678 0)
(0.91638086 0.0066989518 0)
(0.95557419 -0.037409219 0)
(0.99625771 -0.044299737 0)
(1.0229834 -0.032699363 0)
(1.0346216 -0.014290904 0)
(1.0326375 0.0027818736 0)
(1.0232677 0.011679539 0)
(1.0136652 0.012858454 0)
(1.007521 0.0095290725 0)
(1.0052283 0.0051274015 0)
(1.0054839 0.0014643266 0)
(1.0067963 -0.0010368139 0)
(1.0083967 -0.0024138342 0)
(1.0098429 -0.0029305512 0)
(1.0109512 -0.0029176608 0)
(1.0117071 -0.0026145985 0)
(1.0121505 -0.0021648301 0)
(1.0123306 -0.0016551246 0)
(1.0122937 -0.0011419179 0)
(1.0120838 -0.00066616612 0)
(1.0117452 -0.00025853367 0)
(1.0113232 6.1640048e-05 0)
(1.0108633 0.00028047141 0)
(1.010408 0.00039216543 0)
(1.0099943 0.00039628739 0)
(1.0096607 0.00029952219 0)
(1.0094471 0.00011697784 0)
(0.81997606 -0.06815588 -1.0244832e-23)
(0.81261087 -0.07141693 -6.2037844e-24)
(0.8255496 -0.013293097 -2.0479882e-23)
(0.8398487 0.031055249 -1.1826389e-23)
(0.83882869 0.020577616 2.4411227e-23)
(0.83574063 0.014741515 1.4241503e-22)
(0.8325045 0.12079368 8.033763e-23)
(0.8198951 0.12722713 0)
(0.81761336 0.044341046 5.3851673e-24)
(0.85346501 -0.10861145 -1.1212449e-22)
(0.94396497 -0.16234463 0)
(1.0325976 -0.1146653 -1.4446258e-21)
(1.0673159 0.0014920022 0)
(1.0260012 0.13960945 0)
(0.95741791 0.16042182 0)
(0.90783912 0.10255152 0)
(0.89736777 0.0056319085 0)
(0.94145113 -0.049490971 0)
(0.99238035 -0.057826821 0)
(1.0266488 -0.044427315 0)
(1.0426195 -0.02036257 0)
(1.0412134 0.0020456464 0)
(1.0291927 0.015509059 0)
(1.0157693 0.017895095 0)
(1.0068106 0.01375475 0)
(1.0031559 0.0077131759 0)
(1.0031827 0.0025998323 0)
(1.004876 -0.00087568898 0)
(1.0069709 -0.00287604 0)
(1.0089163 -0.003660535 0)
(1.010429 -0.0037317119 0)
(1.0114919 -0.0034123334 0)
(1.0121669 -0.0029024285 0)
(1.0125257 -0.0023122675 0)
(1.0126263 -0.0017056501 0)
(1.0125172 -0.0011263206 0)
(1.0122433 -0.00060833178 0)
(1.0118499 -0.00017737748 0)
(1.0113826 0.00015000164 0)
(1.0108866 0.00036363774 0)
(1.0104036 0.00046163783 0)
(1.0099699 0.00044657286 0)
(1.0096233 0.00032949582 0)
(1.0094024 0.00012641925 0)
(0.82177316 0.014901642 6.7205941e-24)
(0.81181315 -0.068217344 8.7365307e-24)
(0.81671106 -0.070709838 3.3888685e-23)
(0.84022606 -0.012401096 1.2236703e-23)
(0.85601749 0.029756379 -5.3858102e-23)
(0.85472694 0.01886185 -1.2598006e-23)
(0.82232819 0.12404694 -1.5238043e-22)
(0.81346426 0.13182835 -6.5945045e-23)
(0.81064998 0.047197115 -1.1620277e-22)
(0.83891265 -0.11678398 7.7080803e-23)
(0.9211991 -0.17757588 -1.3388171e-21)
(1.0101305 -0.13064403 8.1961388e-22)
(1.0480796 -0.0025436209 0)
(1.0161665 0.14581269 -1.1364178e-21)
(0.93734008 0.18241412 -7.5774637e-23)
(0.89427877 0.11190605 0)
(0.88107031 0.0087486771 0)
(0.92582637 -0.065013729 0)
(0.98819108 -0.074628328 0)
(1.0307837 -0.057425035 0)
(1.0523011 -0.028962075 0)
(1.0521888 0.0014974272 0)
(1.0369236 0.020056078 0)
(1.0187568 0.024610042 0)
(1.00595 0.019442912 0)
(1.0004347 0.011303463 0)
(1.0001124 0.0041893029 0)
(1.0022731 -0.00061080158 0)
(1.0050527 -0.003397118 0)
(1.0076542 -0.0045704877 0)
(1.0096911 -0.0047297076 0)
(1.0111333 -0.0043735107 0)
(1.0120823 -0.0037834117 0)
(1.0126462 -0.0030993336 0)
(1.0129066 -0.0023918845 0)
(1.0129211 -0.001704733 0)
(1.0127362 -0.001071769 0)
(1.0123966 -0.00052192071 0)
(1.0119478 -7.6952796e-05 0)
(1.0114354 0.0002495168 0)