/*--------------------------------*- C++ -*----------------------------------*\
| =========                 |                                                 |
| \\      /  F ield         | OpenFOAM: The Open Source CFD Toolbox           |
|  \\    /   O peration     | Version:  5.0                                   |
|   \\  /    A nd           | Web:      www.OpenFOAM.org                      |
|    \\/     M anipulation  |                                                 |
\*---------------------------------------------------------------------------*/
FoamFile
{
    version     2.0;
    format      ascii;
    class       volVectorField;
    location    "260";
    object      U_0;
}
// * * * * * * * * * * * * * * * * * * * * * * * * * * * * * * * * * * * * * //

dimensions      [0 1 -1 0 0 0 0];

internalField   nonuniform List<vector> 
9520
(
(1.0143097 0.00016654259 0)
(1.0144084 0.00048807604 0)
(1.0138145 0.00016436103 0)
(1.0145825 0.00078666962 0)
(1.0139153 0.00048275052 0)
(1.0136253 0.00016302958 0)
(1.0148157 0.0010617806 0)
(1.0140943 0.00077992632 0)
(1.0137255 0.00047839171 0)
(1.0133168 0.00016577452 0)
(1.0150937 0.0013128227 0)
(1.0143365 0.0010552273 0)
(1.0139048 0.00077314043 0)
(1.0134174 0.00048537243 0)
(1.0130759 0.00017200895 0)
(1.0154035 0.0015394373 0)
(1.0146279 0.001308907 0)
(1.014148 0.001046955 0)
(1.0135975 0.00078416707 0)
(1.0131773 0.0005033857 0)
(1.0127985 0.00017805398 0)
(1.0157343 0.0017415683 0)
(1.0149557 0.0015399065 0)
(1.0144421 0.0013016881 0)
(1.0138413 0.0010626872 0)
(1.0133581 0.00081359726 0)
(1.0128997 0.00052249551 0)
(1.0125422 0.00017946367 0)
(1.0160764 0.0019186306 0)
(1.0153097 0.0017481715 0)
(1.0147747 0.0015360698 0)
(1.0141364 0.0013237356 0)
(1.0136022 0.0011039773 0)
(1.013079 0.00084689081 0)
(1.0126422 0.00052898455 0)
(1.0122862 0.00017570632 0)
(1.0164229 0.002069802 0)
(1.0156817 0.0019339491 0)
(1.0151351 0.0017496718 0)
(1.0144724 0.0015670528 0)
(1.0138977 0.0013765525 0)
(1.0133212 0.0011532777 0)
(1.0128186 0.0008610012 0)
(1.0123818 0.00051980433 0)
(1.012052 0.00016904923 0)
(1.0167694 0.0021934109 0)
(1.0160664 0.0020975852 0)
(1.0155141 0.0019424888 0)
(1.0148387 0.0017925316 0)
(1.0142352 0.0016324776 0)
(1.0136139 0.0014423308 0)
(1.0130577 0.0011780454 0)
(1.0125515 0.00084928518 0)
(1.0121429 0.00050055828 0)
(1.0118343 0.00016291617 0)
(1.0171168 0.0022841581 0)
(1.0164621 0.0022410649 0)
(1.0159027 0.0021154141 0)
(1.0152251 0.0019997668 0)
(1.0146045 0.001872443 0)
(1.0139477 0.0017165508 0)
(1.0133467 0.0014802118 0)
(1.0127829 0.0011671921 0)
(1.0123054 0.00081945633 0)
(1.0119204 0.00048150154 0)
(1.0116317 0.0001595435 0)
(1.0174686 0.0023501569 0)
(1.0168722 0.0023711946 0)
(1.0162932 0.002274033 0)
(1.01562 0.0021887904 0)
(1.0149961 0.0020962101 0)
(1.0143134 0.0019776415 0)
(1.0136755 0.0017698866 0)
(1.013063 0.0014753416 0)
(1.0125269 0.0011287266 0)
(1.012075 0.00078854358 0)
(1.0117138 0.00046997869 0)
(1.0114389 0.00015878686 0)
(1.0178147 0.0023875482 0)
(1.017298 0.0024923827 0)
(1.0166739 0.0024261306 0)
(1.0160103 0.0023613353 0)
(1.0153997 0.0023027045 0)
(1.0147037 0.002225983 0)
(1.0140353 0.0020493284 0)
(1.0133802 0.0017749045 0)
(1.0127965 0.001433293 0)
(1.0122847 0.0010871277 0)
(1.011861 0.00076894729 0)
(1.0115179 0.00046661342 0)
(1.0112531 0.00015855668 0)
(1.0181273 0.0024241367 0)
(1.017658 0.0026209511 0)
(1.0169895 0.0025903536 0)
(1.0163752 0.0025160997 0)
(1.0158037 0.0024881522 0)
(1.0151143 0.0024601018 0)
(1.0144203 0.002320137 0)
(1.0137257 0.0020678312 0)
(1.013102 0.00173341 0)
(1.0125387 0.0013832717 0)
(1.0120596 0.001060857 0)
(1.0116576 0.00076250345 0)
(1.0113294 0.00046595435 0)
(1.0110746 0.00015623122 0)
(1.0184438 0.0024233459 0)
(1.0179647 0.0027963735 0)
(1.0172425 0.0027701397 0)
(1.0167078 0.0026498412 0)
(1.0162005 0.0026421538 0)
(1.0155458 0.0026737391 0)
(1.0148277 0.0025835205 0)
(1.0140925 0.0023563167 0)
(1.0134336 0.0020295485 0)
(1.0128276 0.0016780773 0)
(1.0122993 0.0013510041 0)
(1.0118449 0.0010521503 0)
(1.0114622 0.00076131992 0)
(1.011148 0.00046021852 0)
(1.0109065 0.00014997269 0)
(1.018765 0.0024860172 0)
(1.0182464 0.0029546331 0)
(1.0175142 0.0029274021 0)
(1.0170395 0.0027398067 0)
(1.0166169 0.002750835 0)
(1.0160102 0.0028567194 0)
(1.0152587 0.002841354 0)
(1.0144748 0.0026438692 0)
(1.0137824 0.00232261 0)
(1.0131422 0.0019716053 0)
(1.0125721 0.0016414258 0)
(1.0120698 0.0013404271 0)
(1.0116384 0.001050121 0)
(1.0112742 0.00075301275 0)
(1.0109764 0.00044333826 0)
(1.010753 0.00013942722 0)
(1.019114 0.002425266 0)
(1.0185019 0.0031907144 0)
(1.0177041 0.0030531834 0)
(1.017393 0.0027747291 0)
(1.017062 0.0027737962 0)
(1.016515 0.0030070116 0)
(1.015716 0.0031011293 0)
(1.0148685 0.0029380716 0)
(1.0141381 0.0026144349 0)
(1.0134737 0.0022631134 0)
(1.0128699 0.0019331938 0)
(1.0123248 0.0016301669 0)
(1.0118487 0.0013378134 0)
(1.0114401 0.0010388039 0)
(1.0110961 0.0007269739 0)
(1.010819 0.00041347931 0)
(1.0106175 0.00012577982 0)
(1.0194318 0.0026569949 0)
(1.0187186 0.0033826175 0)
(1.0178315 0.0031673443 0)
(1.0176888 0.002740204 0)
(1.0174985 0.0027575188 0)
(1.0170556 0.0031100013 0)
(1.016213 0.0033663053 0)
(1.0152686 0.0032488323 0)
(1.0144889 0.0029090077 0)
(1.0138126 0.0025510461 0)
(1.0131853 0.0022255828 0)
(1.0126029 0.0019241415 0)
(1.0120853 0.0016281627 0)
(1.0116356 0.0013228707 0)
(1.0112523 0.0010048319 0)
(1.0109316 0.00067895432 0)
(1.0106798 0.00037358773 0)
(1.0105014 0.0001112153 0)
(1.0198487 0.0023906435 0)
(1.0189654 0.0038366875 0)
(1.0177744 0.003331067 0)
(1.0178569 0.0026793667 0)
(1.0180148 0.0026756185 0)
(1.0175946 0.0031968767 0)
(1.0167324 0.0036609788 0)
(1.0156599 0.0035941477 0)
(1.014823 0.0032107837 0)
(1.0141491 0.0028322732 0)
(1.0135114 0.0025159303 0)
(1.0128984 0.0022232541 0)
(1.0123412 0.0019255823 0)
(1.0118524 0.0016109028 0)
(1.0114338 0.0012798445 0)
(1.011079 0.00094152691 0)
(1.0107855 0.00061324502 0)
(1.0105606 0.00032995617 0)
(1.0104034 9.7993278e-05 0)
(1.0200668 0.0030428656 0)
(1.0189929 0.0040794382 0)
(1.0175287 0.0034229775 0)
(1.017894 0.0024855582 0)
(1.0185236 0.0024925844 0)
(1.0182257 0.0032618336 0)
(1.017245 0.0039938753 0)
(1.0160235 0.0040013618 0)
(1.0151165 0.0035318529 0)
(1.0144668 0.0031011502 0)
(1.0138417 0.002798148 0)
(1.0132084 0.002526411 0)
(1.0126117 0.0022331943 0)
(1.0120827 0.0019083469 0)
(1.0116309 0.0015598586 0)
(1.0112475 0.0012017114 0)
(1.0109233 0.00085087191 0)
(1.0106609 0.00054051889 0)
(1.0104605 0.00028932162 0)
(1.0103203 8.7589014e-05 0)
(1.0203815 0.0023745995 0)
(1.0192142 0.0049605846 0)
(1.0170142 0.0037908637 0)
(1.017785 0.0021698394 0)
(1.0191309 0.0021055212 0)
(1.0190109 0.0033263066 0)
(1.0177915 0.0043765024 0)
(1.016318 0.0044875414 0)
(1.015338 0.0038787008 0)
(1.0147455 0.0033552057 0)
(1.0141684 0.0030627713 0)
(1.0135318 0.0028290617 0)
(1.0128952 0.0025528189 0)
(1.0123215 0.0022204284 0)
(1.0118348 0.0018504698 0)
(1.0114255 0.0014666815 0)
(1.0110804 0.0010893812 0)
(1.0107901 0.00074615604 0)
(1.0105579 0.0004721145 0)
(1.0103765 0.00025623001 0)
(1.0102485 8.0332183e-05 0)
(1.0201067 0.0036309129 0)
(1.0188558 0.0052894626 0)
(1.0162933 0.0037597126 0)
(1.0174886 0.0017685051 0)
(1.0197533 0.0015833221 0)
(1.0200098 0.0033099622 0)
(1.0184353 0.0048702648 0)
(1.0165519 0.0050715054 0)
(1.0154407 0.0042639172 0)
(1.0149444 0.0035700797 0)
(1.0144815 0.0032937679 0)
(1.0138704 0.0031230121 0)
(1.0131944 0.002885141 0)
(1.0125666 0.0025521727 0)
(1.0120391 0.0021578465 0)
(1.011604 0.0017415954 0)
(1.0112422 0.0013317287 0)
(1.0109356 0.00095387662 0)
(1.0106813 0.00064562787 0)
(1.0104733 0.00041512624 0)
(1.0103052 0.00023210966 0)
(1.0101848 7.5649362e-05 0)
(1.0198586 0.0024614084 0)
(1.0189896 0.0066589193 0)
(1.0150558 0.0046019119 0)
(1.0169306 0.00091427929 0)
(1.0205503 0.0006655151 0)
(1.0212492 0.0033288184 0)
(1.0191929 0.0055124898 0)
(1.0166816 0.0058072205 0)
(1.0154201 0.0046719087 0)
(1.0150907 0.0037565874 0)
(1.0147645 0.0034553408 0)
(1.0142304 0.0033894017 0)
(1.0135197 0.003228427 0)
(1.0128202 0.0029103379 0)
(1.0122385 0.0024886312 0)
(1.0117748 0.0020321081 0)
(1.0113993 0.00158178 0)
(1.0110838 0.0011644322 0)
(1.010818 0.00081947178 0)
(1.0105942 0.00056190607 0)
(1.0104029 0.00037149149 0)
(1.0102436 0.00021592123 0)
(1.0101267 7.2600829e-05 0)
(1.018857 0.0043897207 0)
(1.0172867 0.0070906691 0)
(1.0138057 0.0042848379 0)
(1.016037 0.00038764522 0)
(1.0212256 -0.00041466109 0)
(1.0228089 0.0030931426 0)
(1.0201232 0.0064014192 0)
(1.016683 0.0067585391 0)
(1.0151611 0.0051366868 0)
(1.0151018 0.0038259928 0)
(1.0150847 0.0035417695 0)
(1.014639 0.0036033663 0)
(1.0138901 0.0035752836 0)
(1.013091 0.0033027867 0)
(1.0124298 0.002852898 0)
(1.0119294 0.0023442231 0)
(1.0115425 0.0018435454 0)
(1.0112242 0.0013805267 0)
(1.0109558 0.00099387025 0)
(1.0107254 0.00070444407 0)
(1.0105241 0.00049817461 0)
(1.0103434 0.00033993748 0)
(1.0101891 0.00020540319 0)
(1.0100728 7.0270127e-05 0)
(1.0192857 0.003280847 0)
(1.0149074 0.0088703628 0)
(1.0107676 0.0059937471 0)
(1.0147655 -0.0013791891 0)
(1.0224532 -0.0021064182 0)
(1.024723 0.0031066132 0)
(1.0212092 0.0075443574 0)
(1.0165162 0.0080306236 0)
(1.014595 0.0056430707 0)
(1.0149329 0.003783093 0)
(1.0154521 0.0034359852 0)
(1.0151151 0.0037124602 0)
(1.0143465 0.0039230344 0)
(1.0133961 0.0037419509 0)
(1.0126127 0.0032644175 0)
(1.0120592 0.0026864904 0)
(1.0116618 0.0021207162 0)
(1.0113472 0.0016040623 0)
(1.0110836 0.0011711918 0)
(1.0108564 0.00084519831 0)
(1.0106534 0.00061435502 0)
(1.0104672 0.0004508591 0)
(1.0102925 0.00031823543 0)
(1.0101396 0.00019805412 0)
(1.0100225 6.7907277e-05 0)
(1.0182266 0.0055852774 0)
(1.0149349 0.009787337 0)
(1.0075966 0.0050274226 0)
(1.0128445 -0.0020441731 0)
(1.0229493 -0.0039588374 0)
(1.027122 0.002375961 0)
(1.0225871 0.0091749795 0)
(1.0161012 0.009689885 0)
(1.0136127 0.0062835449 0)
(1.0144979 0.0035213664 0)
(1.0158029 0.0031227046 0)
(1.0157379 0.0037461739 0)
(1.014892 0.0042412369 0)
(1.013767 0.0042471469 0)
(1.0127895 0.0037469108 0)
(1.0121526 0.003070254 0)
(1.0117457 0.0024166803 0)
(1.0114434 0.0018359663 0)
(1.0111926 0.0013529094 0)
(1.0109756 0.00098653094 0)
(1.0107804 0.00072560734 0)
(1.0105981 0.00054601072 0)
(1.0104205 0.00041477484 0)
(1.0102486 0.00030369154 0)
(1.0100938 0.00019155564 0)
(1.0099757 6.5006658e-05 0)
(1.0124558 0.0043682798 0)
(1.0142244 0.012123903 0)
(1.0049913 0.0073435131 0)
(1.0104674 -0.005042503 0)
(1.0244394 -0.0066747615 0)
(1.0295934 0.0025986664 0)
(1.0240505 0.011069324 0)
(1.0153899 0.011843773 0)
(1.0121155 0.0069925906 0)
(1.0137047 0.0030642149 0)
(1.0161202 0.002450053 0)
(1.0165895 0.0036590394 0)
(1.0155593 0.0045858817 0)
(1.0141905 0.0048488329 0)
(1.0129617 0.0043343089 0)
(1.0121962 0.0035154402 0)
(1.011778 0.0027344608 0)
(1.0115024 0.0020740824 0)
(1.0112755 0.0015389202 0)
(1.0110748 0.0011304717 0)
(1.0108938 0.00083508212 0)
(1.010724 0.00063147586 0)
(1.0105561 0.00049290367 0)
(1.0103827 0.00038646106 0)
(1.0102105 0.0002922058 0)
(1.0100515 0.00018383994 0)
(1.0099327 6.1339363e-05 0)
(0.99958467 0.0075654313 0)
(1.0015935 0.012892898 0)
(1.0021797 0.0063948653 0)
(1.0079944 -0.0063444726 0)
(1.0248925 -0.0092812122 0)
(1.0319219 0.00096242151 0)
(1.0260077 0.013945805 0)
(1.01414 0.014644294 0)
(1.009891 0.0079194409 0)
(1.0124609 0.0022335794 0)
(1.01641 0.0013839317 0)
(1.0177055 0.0033015171 0)
(1.0165127 0.0049771879 0)
(1.0146649 0.0055777991 0)
(1.0131062 0.0050811574 0)
(1.0121615 0.0040468363 0)
(1.0117372 0.0030781586 0)
(1.0115112 0.0023135578 0)
(1.011326 0.0017246552 0)
(1.0111492 0.0012775339 0)
(1.0109853 0.00094620521 0)
(1.010834 0.00071184803 0)
(1.0106845 0.00055538334 0)
(1.0105254 0.00044843497 0)
(1.0103532 0.00036289771 0)
(1.010177 0.00027847872 0)
(1.0100131 0.00017335066 0)
(1.009894 5.6933163e-05 0)
(0.98643776 0.0076238566 0)
(0.98440561 0.015797684 0)
(0.98951999 0.0092406219 0)
(1.0054404 -0.010424032 0)
(1.0270598 -0.013280826 0)
(1.0348924 0.0016141749 0)
(1.027255 0.016937288 0)
(1.0123984 0.018120062 0)
(1.0068104 0.0090267128 0)
(1.0105984 0.0011049117 0)
(1.0166457 -0.00034913607 0)
(1.0191796 0.0026594192 0)
(1.0178528 0.0053871358 0)
(1.015321 0.0065057707 0)
(1.0131804 0.0060174981 0)
(1.0120197 0.0047056006 0)
(1.0115866 0.0034514842 0)
(1.0114514 0.0025432854 0)
(1.0113384 0.0019000431 0)
(1.0111973 0.0014240918 0)
(1.0110518 0.0010614624 0)
(1.0109191 0.00079257188 0)
(1.0107938 0.00060811114 0)
(1.0106601 0.00048899171 0)
(1.0105054 0.00040714096 0)
(1.0103312 0.00033891553 0)
(1.010148 0.00025887834 0)
(1.0099794 0.00015987504 0)
(1.0098599 5.2135819e-05 0)
(0.97212024 0.010281225 0)
(0.96979891 0.017323907 0)
(0.97542561 0.006854022 0)
(0.99879232 -0.011817337 0)
(1.0280557 -0.016614525 0)
(1.0398438 -0.00028006089 0)
(1.0275392 0.021559967 0)
(1.0091818 0.02263124 0)
(1.0024768 0.010354365 0)
(1.0080319 -0.0006383338 0)
(1.0168102 -0.002687841 0)
(1.0210937 0.001479961 0)
(1.0197203 0.0058636747 0)
(1.0162287 0.0077208422 0)
(1.0132087 0.0072340576 0)
(1.0117048 0.0055203556 0)
(1.0112819 0.0038595006 0)
(1.0112955 0.0027458743 0)
(1.0113054 0.002045442 0)
(1.0112222 0.0015603632 0)
(1.0110957 0.0011808063 0)
(1.0109764 0.00087897847 0)
(1.0108742 0.00065862709 0)
(1.0107724 0.00051447143 0)
(1.0106496 0.00042560313 0)
(1.0104956 0.00036538475 0)
(1.0103159 0.00031019845 0)
(1.0101236 0.00023374926 0)
(1.0099508 0.00014498252 0)
(1.0098302 4.7581862e-05 0)
(0.95593822 0.011252012 2.3846189e-24)
(0.95381989 0.019092531 0)
(0.96226653 0.0079454248 0)
(0.9915907 -0.018160993 0)
(1.0279452 -0.021925299 0)
(1.0423077 0.00042109857 0)
(1.0303315 0.025320891 0)
(1.0046926 0.027703739 0)
(0.99670938 0.012065539 0)
(1.0044687 -0.0028649802 0)
(1.0169485 -0.0061098338 0)
(1.0235997 -0.00015946857 0)
(1.0222461 0.0062892739 0)
(1.0174959 0.0093533567 0)
(1.0131825 0.0088535421 0)
(1.0111236 0.0065451306 0)
(1.0107612 0.0043082997 0)
(1.0110033 0.0028909071 0)
(1.0112187 0.0021303194 0)
(1.0112312 0.0016672555 0)
(1.0111267 0.0012999965 0)
(1.0110095 0.00097620382 0)
(1.0109211 0.00071520798 0)
(1.0108505 0.00053369661 0)
(1.0107685 0.00042408877 0)
(1.010652 0.00036201087 0)
(1.0104954 0.00032047564 0)
(1.0103065 0.00027413702 0)
(1.0101053 0.00020731269 0)
(1.0099269 0.00013100099 0)
(1.0098042 4.3969245e-05 0)
(0.93745357 0.013566699 -9.939349e-25)
(0.93632669 0.021043526 -2.4900381e-24)
(0.94844553 0.0048284241 0)
(0.98259557 -0.022231775 0)
(1.0254334 -0.026015058 0)
(1.0424541 -0.0043123127 0)
(1.0387518 0.032624649 0)
(1.0015135 0.033474725 0)
(0.98926356 0.013652494 0)
(0.99995791 -0.0059786374 0)
(1.0169476 -0.010396484 0)
(1.0267911 -0.0027092284 0)
(1.025652 0.0068308882 0)
(1.0192074 0.011488354 0)
(1.0130942 0.011053303 0)
(1.0101917 0.0078553629 0)
(1.0099079 0.0047971021 0)
(1.0105259 0.0029386328 0)
(1.0110672 0.0021077783 0)
(1.0112388 0.0017146461 0)
(1.0111636 0.0014088418 0)
(1.0110304 0.0010880698 0)
(1.010936 0.00078826329 0)
(1.010887 0.00055750213 0)
(1.0108479 0.00041088642 0)
(1.010781 0.00033203413 0)
(1.0106671 0.00029313468 0)
(1.0105041 0.00026763185 0)
(1.0103032 0.00023230069 0)
(1.0100924 0.00018288574 0)
(1.0099068 0.00011984588 0)
(1.0097809 4.1852692e-05 0)
(0.91741767 0.015378161 9.9785003e-25)
(0.91696977 0.023020469 1.212262e-23)
(0.931394 0.0042387988 0)
(0.9731676 -0.028089692 0)
(1.0179778 -0.031115145 0)
(1.0392348 -0.0018850244 0)
(1.0375146 0.037231437 0)
(1.0022334 0.041590927 0)
(0.98118197 0.0159003 0)
(0.99406974 -0.010066579 0)
(1.0170408 -0.016283736 0)
(1.0308134 -0.0058934167 0)
(1.0300731 0.0071905167 0)
(1.0215239 0.014345955 0)
(1.0129067 0.013994418 0)
(1.0087855 0.009598986 0)
(1.008584 0.0052981572 0)
(1.0097885 0.0028451239 0)
(1.0108304 0.0019105228 0)
(1.0112571 0.001654008 0)
(1.0112335 0.0014890795 0)
(1.0110603 0.0012184925 0)
(1.010928 0.00089164008 0)
(1.0108788 0.00060105735 0)
(1.0108765 0.00039787514 0)
(1.0108662 0.00028264498 0)
(1.010811 0.00023101549 0)
(1.0106958 0.00021562246 0)
(1.0105214 0.00020945639 0)
(1.0103065 0.00019335092 0)
(1.0100841 0.00016293799 0)
(1.0098896 0.00011294795 0)
(1.0097592 4.1573832e-05 0)
(0.89711015 0.017365248 0)
(0.89695108 0.025146344 -1.2142522e-23)
(0.91293762 0.0019621211 0)
(0.95880351 -0.033422382 0)
(1.0083928 -0.033809449 0)
(1.0285624 -0.0033161523 0)
(1.0171366 0.04519015 0)
(0.99243755 0.051113321 0)
(0.97089848 0.018203731 0)
(0.98711961 -0.014988747 0)
(1.0167957 -0.023239914 0)
(1.0357539 -0.010491515 0)
(1.0357846 0.0077917308 0)
(1.0245053 0.018000993 0)
(1.0125985 0.017929175 0)
(1.0067567 0.011858428 0)
(1.0066257 0.0058575298 0)
(1.0086813 0.0025019019 0)
(1.0104884 0.0014524646 0)
(1.0113227 0.0014385465 0)
(1.0113533 0.0015107351 0)
(1.0111303 0.0013702986 0)
(1.0109156 0.001044332 0)
(1.0108283 0.0006849033 0)
(1.0108453 0.00040183737 0)
(1.0108924 0.00022541392 0)
(1.0109082 0.0001410827 0)
(1.0108592 0.00012075567 0)
(1.0107359 0.0001345888 0)
(1.0105462 0.00015320719 0)
(1.0103152 0.00016064225 0)
(1.0100791 0.00014993802 0)
(1.0098738 0.00011125523 0)
(1.0097381 4.3260028e-05 0)
(0.87682649 0.0192212 -1.4172413e-24)
(0.8774502 0.027141224 0)
(0.89376124 0.00013307059 -3.0296695e-23)
(0.94172282 -0.038840891 0)
(0.99521681 -0.038821512 0)
(1.016196 0.0012752609 0)
(0.99723871 0.05283518 0)
(0.96817436 0.060016447 0)
(0.9571108 0.023294845 0)
(0.97787968 -0.021518329 0)
(1.0165561 -0.032097536 0)
(1.0414707 -0.015637238 0)
(1.042706 0.0079765049 0)
(1.0283391 0.022805978 0)
(1.0120507 0.023089955 0)
(1.0038847 0.014862642 0)
(1.003839 0.0064112955 0)
(1.0070743 0.0018496513 0)
(1.0100057 0.00059277922 0)
(1.0114672 0.00095029768 0)
(1.0116436 0.0014625792 0)
(1.0112874 0.0015392624 0)
(1.0109295 0.0012647508 0)
(1.0107459 0.00083704769 0)
(1.0107492 0.00044643133 0)
(1.0108446 0.00017688025 0)
(1.0109401 3.2253499e-05 0)
(1.0109757 -1.1568179e-05 0)
(1.0109237 8.4411656e-06 0)
(1.010786 5.6201915e-05 0)
(1.0105776 0.0001053582 0)
(1.0103284 0.00013738222 0)
(1.0100764 0.00014533657 0)
(1.0098594 0.00011499943 0)
(1.0097165 4.6955825e-05 0)
(0.85758592 0.020807998 -9.1483263e-24)
(0.85901265 0.02907153 2.7679314e-23)
(0.87490411 -0.0020370893 3.0296158e-23)
(0.92292573 -0.044566914 4.7564369e-23)
(0.97852386 -0.043251239 -1.0934481e-22)
(1.0015333 0.0021646108 0)
(0.98033051 0.062658384 0)
(0.94761517 0.067769331 0)
(0.94104472 0.02583467 0)
(0.96666352 -0.028113062 0)
(1.0153491 -0.042079678 0)
(1.0479643 -0.022809548 0)
(1.0507111 0.0087158327 0)
(1.0327834 0.02879333 0)
(1.0112112 0.029749274 0)
(0.9999424 0.018707884 0)
(0.99996112 0.0070605309 0)
(1.0048115 0.00069293797 0)
(1.0093444 -0.00077962402 0)
(1.0117313 6.6014984e-05 0)
(1.0121736 0.0012458325 0)
(1.0116077 0.0017129802 0)
(1.0110252 0.0015797169 0)
(1.0106508 0.0010899579 0)
(1.0105858 0.00056328596 0)
(1.0107097 0.00016020435 0)
(1.0108866 -8.052447e-05 0)
(1.0110228 -0.00017537783 0)
(1.0110668 -0.00016620309 0)
(1.011004 -9.9676376e-05 0)
(1.0108451 -1.1741965e-05 0)
(1.010614 7.023279e-05 0)
(1.0103446 0.00012646368 0)
(1.0100757 0.00014779939 0)
(1.0098446 0.00012433357 0)
(1.0096934 5.2535211e-05 0)
(0.84049881 0.0220677 1.4561713e-23)
(0.84259603 0.030696752 -4.2472775e-23)
(0.85721227 -0.0040821267 0)
(0.90309556 -0.050200447 2.7152129e-23)
(0.95888851 -0.04748668 1.0880819e-22)
(0.98476619 0.0026042929 1.7081772e-22)
(0.96249088 0.071429229 8.8428385e-23)
(0.92947116 0.073911231 0)
(0.92494615 0.028612003 0)
(0.95628793 -0.03790423 0)
(1.0140717 -0.05468045 0)
(1.0556303 -0.029693711 0)
(1.0597091 0.0088648999 0)
(1.0374533 0.036649364 0)
(1.0095125 0.038276158 0)
(0.99459026 0.023653454 0)
(0.9947237 0.0076594044 0)
(1.0017201 -0.00099702389 0)
(1.0084341 -0.0029161383 0)
(1.0121749 -0.0013408222 0)
(1.0130298 0.00078147842 0)
(1.0122448 0.0019294616 0)
(1.0112312 0.0019919017 0)
(1.0105868 0.0015003403 0)
(1.0103564 0.00079440311 0)
(1.0104723 0.00020526979 0)
(1.010727 -0.00017858972 0)
(1.0109775 -0.00036081639 0)
(1.0111392 -0.00038639135 0)
(1.0111793 -0.00031469453 0)
(1.0110974 -0.00019505204 0)
(1.0109115 -6.3493998e-05 0)
(1.0106541 5.0653926e-05 0)
(1.0103601 0.00012868538 0)
(1.0100733 0.00016187404 0)
(1.0098283 0.00013936443 0)
(1.0096682 5.9751813e-05 0)
(0.82670438 0.023042836 4.8671601e-26)
(0.82899707 0.032000335 9.1213274e-24)
(0.84140797 -0.0061053967 -1.5866118e-23)
(0.88335499 -0.055462086 -4.2626898e-23)
(0.93773222 -0.052247497 -7.7342419e-23)
(0.96445509 0.004639298 1.7180615e-22)
(0.94534359 0.07848211 1.4128965e-22)
(0.91089018 0.08294601 -7.1842468e-24)
(0.90850838 0.025803485 0)
(0.94542272 -0.047172368 0)
(1.0136567 -0.069126888 0)
(1.0661542 -0.041658735 0)
(1.0722454 0.010265309 0)
(1.042132 0.046102551 0)
(1.0062532 0.048753393 0)
(0.9873924 0.02988843 0)
(0.98773338 0.0083348427 0)
(0.99760119 -0.0035623335 0)
(1.0072298 -0.0059183409 0)
(1.0128416 -0.0035103185 0)
(1.0143525 -1.7156751e-05 0)
(1.0133173 0.0021390431 0)
(1.0116835 0.0026074072 0)
(1.0105556 0.0021022507 0)
(1.010079 0.0012045066 0)
(1.0101176 0.00035582561 0)
(1.0104365 -0.0002368995 0)
(1.0108136 -0.00055438665 0)
(1.0111171 -0.00064716859 0)
(1.0112871 -0.00059005538 0)
(1.0113106 -0.00044759023 0)
(1.0112002 -0.00027018452 0)
(1.0109832 -9.5759048e-05 0)
(1.0106954 4.8390834e-05 0)
(1.0103773 0.00014536883 0)
(1.0100698 0.00018567746 0)
(1.0098097 0.00015942713 0)
(1.0096403 6.8250477e-05 0)
(0.81635489 0.023598142 -5.2058152e-24)
(0.81876579 0.032881754 3.2394213e-25)
(0.82863263 -0.0078515892 0)
(0.86419545 -0.060286768 2.3639767e-23)
(0.91535681 -0.056468455 -8.2082937e-23)
(0.9434234 0.0054082513 0)
(0.92537178 0.087191747 -3.8429649e-22)
(0.89432625 0.090909104 -3.795831e-22)
(0.89024678 0.029625702 0)
(0.93715791 -0.059840026 0)
(1.0117264 -0.084288573 0)
(1.0748482 -0.050055139 0)
(1.090264 0.0089145125 0)
(1.051659 0.057619551 0)
(1.0020852 0.06166839 0)
(0.97755947 0.037264027 0)
(0.97873979 0.0089331893 0)
(0.99220328 -0.0069804179 0)
(1.0056526 -0.010209646 0)
(1.0138047 -0.0065485086 0)
(1.0162928 -0.0013368458 0)
(1.0149991 0.0023399397 0)
(1.0125264 0.0034770383 0)
(1.0106211 0.0029996307 0)
(1.009744 0.0018619914 0)
(1.0096279 0.00066102798 0)
(1.0099876 -0.00022189208 0)
(1.0105015 -0.00073939612 0)
(1.0109727 -0.00094163785 0)
(1.0113029 -0.00092410806 0)
(1.0114623 -0.00077345257 0)
(1.0114566 -0.00055555743 0)
(1.0113105 -0.0003210037 0)
(1.0110572 -0.000106292 0)
(1.0107362 6.3632981e-05 0)
(1.0103923 0.00017543064 0)
(1.0100638 0.00021776224 0)
(1.0097883 0.00018365986 0)
(1.0096093 7.7665252e-05 0)
(0.81083656 0.023715886 0)
(0.81277182 0.033363753 0)
(0.81924184 -0.0095089557 -3.3559457e-25)
(0.8474819 -0.064351635 0)
(0.89242889 -0.060474535 7.8194058e-25)
(0.92056792 0.0068188585 1.9059953e-22)
(0.9060028 0.094878304 6.3796705e-22)
(0.87669083 0.099689923 -1.2478556e-22)
(0.87355642 0.033492678 0)
(0.92160077 -0.07059339 0)
(1.0093619 -0.098615146 0)
(1.0769174 -0.066251445 0)
(1.0973201 0.009200605 0)
(1.0679019 0.06999482 0)
(1.0023284 0.076430718 0)
(0.96536794 0.046190635 0)
(0.96711156 0.0092977715 0)
(0.98542724 -0.011729564 0)
(1.0036241 -0.015754904 0)
(1.0151244 -0.010892039 0)
(1.0190315 -0.0032264798 0)
(1.0174884 0.0024345916 0)
(1.0139204 0.0046855754 0)
(1.0108956 0.0043262225 0)
(1.0093234 0.0028434919 0)
(1.0089918 0.0012128865 0)
(1.0093398 -9.8221933e-05 0)
(1.0100046 -0.00090034758 0)
(1.0106747 -0.0012645051 0)
(1.0112 -0.0013169297 0)
(1.0115286 -0.0011745953 0)
(1.0116589 -0.00092511722 0)
(1.0116131 -0.00063272473 0)
(1.0114245 -0.00034472423 0)
(1.0111313 -9.4618144e-05 0)
(1.0107766 9.7198608e-05 0)
(1.0104048 0.00021751883 0)
(1.0100544 0.00025700588 0)
(1.0097636 0.00021105759 0)
(1.0095751 8.7608368e-05 0)
(0.81109866 0.033459658 -6.4390427e-25)
(0.81057353 0.023519826 0)
(0.81338861 -0.010699438 -9.8561604e-24)
(0.83387684 -0.067594251 -8.4095962e-25)
(0.87070859 -0.063921896 -2.4910349e-23)
(0.89736072 0.0079388643 8.885518e-24)
(0.88554703 0.10251604 1.0753439e-24)
(0.86011238 0.10809357 -2.5435137e-22)
(0.85667958 0.037650147 1.0506259e-22)
(0.90422752 -0.077973783 0)
(0.99849438 -0.11581259 -8.801749e-22)
(1.0751635 -0.070828619 0)
(1.0974176 0.0038211679 0)
(1.0853296 0.086313383 0)
(1.006342 0.094552146 0)
(0.95347 0.056649103 0)
(0.95270176 0.0095656999 0)
(0.97685635 -0.017866264 0)
(1.001162 -0.023216735 0)
(1.0168524 -0.016469732 0)
(1.0227672 -0.006079428 0)
(1.0210586 0.0025078565 0)
(1.0160507 0.0062831883 0)
(1.0114774 0.0062437616 0)
(1.0088572 0.0043105507 0)
(1.0081216 0.0020607111 0)
(1.008454 0.00019858839 0)
(1.0092761 -0.0010061434 0)
(1.0101842 -0.0016104827 0)
(1.0109487 -0.0017716817 0)
(1.0114852 -0.0016562013 0)
(1.0117852 -0.001383838 0)
(1.0118707 -0.0010377121 0)
(1.0117758 -0.00067583826 0)
(1.0115395 -0.00034059131 0)
(1.0112037 -6.0748713e-05 0)
(1.010814 0.00014715772 0)
(1.0104138 0.00026988387 0)
(1.0100416 0.00030121916 0)
(1.0097356 0.00024033409 0)
(1.0095379 9.776726e-05 0)
(0.81120234 -0.01128317 8.9143862e-24)
(0.81507821 0.033341548 0)
(0.81649159 0.022864369 -3.86337e-24)
(0.8215851 -0.069928201 8.4035733e-25)
(0.85149263 -0.066494366 1.440425e-23)
(0.87485261 0.0089375758 3.4117938e-22)
(0.86607657 0.10925572 -5.9496569e-22)
(0.84451813 0.11604371 -6.9699938e-23)
(0.84117985 0.041790476 3.6378818e-23)
(0.88628183 -0.086851734 6.3510733e-23)
(0.98138278 -0.1309228 -9.6963847e-22)
(1.0656103 -0.086184702 9.1870693e-22)
(1.0929995 0.0081934925 0)
(1.0769267 0.10037799 0)
(1.003083 0.1178826 0)
(0.94150769 0.070743112 0)
(0.93521499 0.0089382874 0)
(0.96677013 -0.025708029 0)
(0.9980413 -0.032319729 0)
(1.0190886 -0.024037738 0)
(1.0276792 -0.0097726554 0)
(1.0259587 0.0022612371 0)
(1.0191887 0.0084454874 0)
(1.012472 0.0089253847 0)
(1.0083599 0.0064589771 0)
(1.0069479 0.0033251053 0)
(1.0072501 0.00073570068 0)
(1.0082481 -0.0010533638 0)
(1.0094545 -0.0019784273 0)
(1.0105145 -0.0022948236 0)
(1.0113069 -0.0022273623 0)
(1.0118147 -0.0019402142 0)
(1.0120635 -0.001542943 0)
(1.0120917 -0.0011076091 0)
(1.0119406 -0.00068409874 0)
(1.0116529 -0.00030897382 0)
(1.0112732 -5.616533e-06 0)
(1.0108474 0.00021079269 0)
(1.0104187 0.00033027434 0)
(1.0100248 0.00034908756 0)
(1.0097041 0.00027084294 0)
(1.0094978 0.0001078994 0)
(0.81378822 -0.071102492 5.20944e-24)
(0.81572286 -0.011478709 2.2928017e-23)
(0.82548795 0.032771691 0)
(0.82606546 0.021784494 -3.9678964e-25)
(0.8330812 -0.068502773 -6.6305803e-24)
(0.85444391 0.009838409 -1.5118983e-22)
(0.84824562 0.11497625 0)
(0.83102556 0.12301953 6.9218122e-23)
(0.82793678 0.045865341 -1.2312012e-23)
(0.86838516 -0.09567025 -6.2689746e-23)
(0.962182 -0.14640072 1.045464e-21)
(1.0500275 -0.10354249 1.0100192e-21)
(1.0811805 0.0078641801 0)
(1.048701 0.11836449 0)
(0.98425195 0.14118578 0)
(0.92594748 0.087547114 0)
(0.91612939 0.0097774716 0)
(0.9539524 -0.035864554 0)
(0.99465869 -0.043922209 0)
(1.0217481 -0.03308983 0)
(1.0339678 -0.015086224 0)
(1.032568 0.0019795184 0)
(1.0235601 0.011141039 0)
(1.0140475 0.012621276 0)
(1.0078278 0.009496107 0)
(1.0054165 0.0051850925 0)
(1.0055808 0.0015404449 0)
(1.0068421 -0.00097087012 0)
(1.0084167 -0.0023725624 0)
(1.0098573 -0.0029081105 0)
(1.0109682 -0.0029061029 0)
(1.0117282 -0.0026075829 0)
(1.0121742 -0.0021585286 0)
(1.0123547 -0.0016481034 0)
(1.0123164 -0.0011341956 0)
(1.0121041 -0.0006583393 0)
(1.0117627 -0.00025125753 0)
(1.0113381 6.7968867e-05 0)
(1.0108759 0.00028570462 0)
(1.0104188 0.00039629228 0)
(1.0100038 0.00039941261 0)
(1.0096693 0.00030158267 0)
(1.0094551 0.00011778765 0)
(0.81986141 -0.069668298 -1.013303e-23)
(0.81270794 -0.07122839 -6.1584558e-24)
(0.82579705 -0.011060528 -2.0405988e-23)
(0.83966884 0.0317742 -1.1531933e-23)
(0.83854557 0.020319608 2.0191134e-23)
(0.83609911 0.010418137 1.4294391e-22)
(0.83343331 0.11953219 8.0865242e-23)
(0.82049527 0.12886108 0)
(0.81753731 0.049451202 1.4432107e-23)
(0.85134986 -0.10415393 -8.2046849e-23)
(0.94104241 -0.16232677 0)
(1.031275 -0.11794978 -1.3384703e-21)
(1.0683122 -0.0042602119 0)
(1.029974 0.13578066 0)
(0.96119868 0.16106246 0)
(0.91003562 0.10593022 0)
(0.89717051 0.0095960487 0)
(0.93938059 -0.047542204 0)
(0.99035032 -0.057406179 0)
(1.0250667 -0.044899858 0)
(1.0417271 -0.021394091 0)
(1.0410949 0.00095581219 0)
(1.02959 0.014755365 0)
(1.0163127 0.017559934 0)
(1.0072537 0.013720281 0)
(1.0034256 0.0078138831 0)
(1.0033129 0.0027240441 0)
(1.0049287 -0.00077077473 0)
(1.0069842 -0.0028076124 0)
(1.0089199 -0.0036247863 0)
(1.0104373 -0.0037163571 0)
(1.0115082 -0.0034061839 0)
(1.0121892 -0.0028984634 0)
(1.0125507 -0.0023073873 0)
(1.0126513 -0.0016992049 0)
(1.0125403 -0.0011188272 0)
(1.0122636 -0.00060060913 0)
(1.0118672 -0.0001701247 0)
(1.0113971 0.00015644087 0)
(1.0108989 0.00036906292 0)
(1.0104141 0.00046604689 0)
(1.0099791 0.00045002033 0)
(1.0096316 0.0003317983 0)
(1.0094101 0.00012732552 0)
(0.82194034 0.010505073 6.7100179e-24)
(0.81183219 -0.069711225 8.6593429e-24)
(0.81700477 -0.070495946 3.4924437e-23)
(0.84058178 -0.010240625 1.1935584e-23)
(0.85576808 0.030433835 -5.0634313e-23)
(0.85437913 0.018593282 -9.9959585e-24)
(0.82290777 0.12279224 -1.5291831e-22)
(0.81384006 0.13349424 -6.5903889e-23)
(0.81061465 0.052600892 -1.2331803e-22)
(0.83706882 -0.11193855 4.8539559e-23)
(0.91845197 -0.17749541 -1.2332461e-21)
(1.008689 -0.13416276 7.8373534e-22)
(1.0493521 -0.0090712022 0)
(1.0203414 0.14119211 -1.1904496e-21)
(0.9411667 0.18299381 2.6841637e-23)
(0.89642027 0.11582525 0)
(0.88098451 0.013557716 0)
(0.92332539 -0.062700567 0)
(0.98567117 -0.074112972 0)
(1.028792 -0.058005393 0)
(1.051116 -0.030259759 0)
(1.0519915 3.1426351e-05 0)
(1.037458 0.018998445 0)
(1.0195224 0.024144641 0)
(1.0065809 0.019410587 0)
(1.0008179 0.011467503 0)
(1.0002902 0.0043858575 0)
(1.0023322 -0.00044882921 0)
(1.0050552 -0.0032873572 0)
(1.0076402 -0.0045149123 0)
(1.0096846 -0.0047077021 0)
(1.0111401 -0.004368082 0)
(1.0121003 -0.0037830231 0)
(1.0126708 -0.0030981689 0)
(1.0129334 -0.0023881142 0)
(1.012947 -0.0016986017 0)
(1.0127596 -0.0010642831 0)
(1.0124168 -0.00051407778 0)
(1.0119649 -6.9470123e-05 0)