/*--------------------------------*- C++ -*----------------------------------*\
| =========                 |                                                 |
| \\      /  F ield         | OpenFOAM: The Open Source CFD Toolbox           |
|  \\    /   O peration     | Version:  5.0                                   |
|   \\  /    A nd           | Web:      www.OpenFOAM.org                      |
|    \\/     M anipulation  |                                                 |
\*---------------------------------------------------------------------------*/
FoamFile
{
    version     2.0;
    format      ascii;
    class       volVectorField;
    location    "260";
    object      UMean;
}
// * * * * * * * * * * * * * * * * * * * * * * * * * * * * * * * * * * * * * //

dimensions      [0 1 -1 0 0 0 0];

internalField   nonuniform List<vector> 
9520
(
(1.0101854 3.5153767e-05 0)
(1.010274 0.00010286471 0)
(1.010081 3.6015301e-05 0)
(1.0104313 0.00016630883 0)
(1.0101696 0.00010566719 0)
(1.0100379 3.6245126e-05 0)
(1.0106427 0.00022490867 0)
(1.0103273 0.00017129912 0)
(1.0101263 0.0001063114 0)
(1.00997 3.6093356e-05 0)
(1.0108952 0.00027879133 0)
(1.01054 0.00023250156 0)
(1.0102838 0.00017281457 0)
(1.0100575 0.00010629045 0)
(1.0099171 3.5622667e-05 0)
(1.0111772 0.00032726807 0)
(1.010795 0.00028950292 0)
(1.0104964 0.00023543579 0)
(1.0102137 0.0001736598 0)
(1.0100039 0.00010505658 0)
(1.0098624 3.4297618e-05 0)
(1.0114785 0.00036993683 0)
(1.0110815 0.00034167403 0)
(1.0107517 0.00029455602 0)
(1.0104248 0.00023821201 0)
(1.0101586 0.00017245644 0)
(1.0099474 0.00010152393 0)
(1.0098129 3.2510469e-05 0)
(1.0117901 0.00040641807 0)
(1.0113894 0.00038862855 0)
(1.011039 0.00034963494 0)
(1.010679 0.00030053696 0)
(1.0103679 0.00023815004 0)
(1.010099 0.00016774917 0)
(1.0098963 9.6521544e-05 0)
(1.0097693 2.9654018e-05 0)
(1.0121045 0.00043577158 0)
(1.0117105 0.00042975978 0)
(1.0113486 0.00040039233 0)
(1.0109657 0.00036023742 0)
(1.0106201 0.00030299137 0)
(1.0103042 0.00023366564 0)
(1.0100447 0.00016055309 0)
(1.0098502 8.8397374e-05 0)
(1.0097296 2.6144312e-05 0)
(1.0124151 0.00045877936 0)
(1.0120367 0.00046444317 0)
(1.011672 0.00044651059 0)
(1.0112757 0.0004170862 0)
(1.010905 0.00036671565 0)
(1.0105517 0.00030044118 0)
(1.0102457 0.00022566086 0)
(1.0099942 0.00014826795 0)
(1.0098081 7.8283956e-05 0)
(1.0096989 2.1559427e-05 0)
(1.0127168 0.00047209539 0)
(1.0123623 0.00049322282 0)
(1.0120017 0.00048690977 0)
(1.0116008 0.00047054547 0)
(1.0112137 0.00042921293 0)
(1.0108316 0.00036809925 0)
(1.010488 0.00029330764 0)
(1.0101888 0.00021068804 0)
(1.0099474 0.00013259197 0)
(1.0097747 6.4925441e-05 0)
(1.0096731 1.6314155e-05 0)
(1.0130052 0.0004830179 0)
(1.0126819 0.00051294938 0)
(1.012332 0.00052177961 0)
(1.0119338 0.00051970022 0)
(1.011538 0.00049003742 0)
(1.0111352 0.00043669982 0)
(1.0107621 0.0003637629 0)
(1.0104231 0.00027745582 0)
(1.0101357 0.00019079999 0)
(1.0099089 0.00011141574 0)
(1.0097462 4.9537181e-05 0)
(1.0096577 1.0182096e-05 0)
(1.0132776 0.00047825789 0)
(1.0129943 0.00052902765 0)
(1.0126569 0.00054934572 0)
(1.012269 0.0005649554 0)
(1.0118711 0.00054850474 0)
(1.0114549 0.0005058546 0)
(1.0110595 0.00043728878 0)
(1.0106879 0.00034917617 0)
(1.010362 0.00025500813 0)
(1.0100894 0.00016301689 0)
(1.0098752 8.6703121e-05 0)
(1.0097282 3.1406988e-05 0)
(1.0096482 3.556002e-06 0)
(1.0135313 0.00048218131 0)
(1.0132927 0.00052765887 0)
(1.0129718 0.00057338604 0)
(1.012603 0.00060356468 0)
(1.0122076 0.00060454146 0)
(1.0117842 0.00057480343 0)
(1.0113728 0.00051366863 0)
(1.0109751 0.00042638477 0)
(1.0106173 0.0003261321 0)
(1.0103056 0.00022214657 0)
(1.0100481 0.00012996385 0)
(1.009852 5.7167317e-05 0)
(1.0097163 1.1716429e-05 0)
(1.009649 -3.6479089e-06 0)
(1.0137643 0.00044750267 0)
(1.0135714 0.00053779581 0)
(1.0132716 0.00058598904 0)
(1.0129322 0.00063873729 0)
(1.0125407 0.00065658149 0)
(1.0121182 0.00064340576 0)
(1.0116956 0.00059245497 0)
(1.0112777 0.00050906206 0)
(1.0108935 0.00040499403 0)
(1.0105486 0.00029007832 0)
(1.0102546 0.00018199458 0)
(1.0100173 8.967803e-05 0)
(1.0098353 2.4784146e-05 0)
(1.0097151 -9.8189203e-06 0)
(1.0096562 -1.1077182e-05 0)
(1.0139744 0.0004554002 0)
(1.0138323 0.00051282325 0)
(1.0135587 0.00060533054 0)
(1.0132458 0.00066109849 0)
(1.0128684 0.00070696581 0)
(1.0124533 0.00070894155 0)
(1.0120223 0.00067319943 0)
(1.0115899 0.00059673414 0)
(1.0111836 0.00049183401 0)
(1.0108104 0.00036796997 0)
(1.0104854 0.00024438594 0)
(1.0102131 0.00013182516 0)
(1.0099933 4.4919532e-05 0)
(1.0098302 -1.1024944e-05 0)
(1.0097208 -3.2131883e-05 0)
(1.0096728 -1.8709464e-05 0)
(1.0141598 0.00038186184 0)
(1.0140736 0.00053052595 0)
(1.0138301 0.00059216175 0)
(1.013543 0.00069128494 0)
(1.0131837 0.00074784079 0)
(1.0127831 0.00077476538 0)
(1.0123488 0.0007546248 0)
(1.0119074 0.00068889632 0)
(1.0114819 0.00058646736 0)
(1.0110848 0.00045635378 0)
(1.0107327 0.00031862545 0)
(1.0104304 0.00018555036 0)
(1.0101792 7.5142181e-05 0)
(1.0099817 -5.2966286e-06 0)
(1.0098325 -4.8449283e-05 0)
(1.0097366 -5.5189192e-05 0)
(1.0096954 -2.6234392e-05 0)
(1.0143134 0.00041124358 0)
(1.0142876 0.0004679819 0)
(1.0140838 0.00061617078 0)
(1.0138251 0.00069347365 0)
(1.0134865 0.00079456856 0)
(1.0131013 0.00083215862 0)
(1.0126726 0.00083763007 0)
(1.0122255 0.00078421635 0)
(1.0117837 0.00068861604 0)
(1.0113666 0.00055522948 0)
(1.0109901 0.00040557876 0)
(1.0106614 0.00025273659 0)
(1.0103836 0.00011769676 0)
(1.0101582 1.0436667e-05 0)
(1.0099785 -5.8398095e-05 0)
(1.0098463 -8.7522695e-05 0)
(1.009759 -7.8043847e-05 0)
(1.0097258 -3.3556046e-05 0)
(1.0144328 0.00028898238 0)
(1.0144719 0.00050963541 0)
(1.0143096 0.0005672231 0)
(1.0140899 0.00072979293 0)
(1.0137774 0.00081482598 0)
(1.013407 0.00089660921 0)
(1.0129871 0.00091503315 0)
(1.0125405 0.00088355619 0)
(1.0120859 0.00079709568 0)
(1.0116514 0.00066448779 0)
(1.0112522 0.00050563781 0)
(1.0108998 0.00033468096 0)
(1.0105986 0.00017483704 0)
(1.01035 3.8706983e-05 0)
(1.0101469 -5.8959037e-05 0)
(1.0099884 -0.00011455985 0)
(1.0098677 -0.00012662386 0)
(1.00979 -0.00010043722 0)
(1.0097612 -4.0414321e-05 0)
(1.0144866 0.0003487618 0)
(1.0146184 0.00039207238 0)
(1.0145081 0.00061191834 0)
(1.0143288 0.0006988781 0)
(1.0140489 0.00086478052 0)
(1.0137036 0.00093768168 0)
(1.0132905 0.00099965718 0)
(1.012847 0.00098069334 0)
(1.0123857 0.0009122998 0)
(1.0119354 0.00078295056 0)
(1.0115152 0.00061891205 0)
(1.0111409 0.00043214449 0)
(1.0108178 0.00024828333 0)
(1.0105488 8.2172979e-05 0)
(1.0103273 -4.737923e-05 0)
(1.0101502 -0.00013345137 0)
(1.0100074 -0.00017144172 0)
(1.0098994 -0.00016537419 0)
(1.0098268 -0.00012155291 0)
(1.0098023 -4.6681749e-05 0)
(1.0144801 0.00017629219 0)
(1.0147227 0.00048232162 0)
(1.0146718 0.00050889239 0)
(1.01454 0.00075323258 0)
(1.0142996 0.00085226686 0)
(1.0139808 0.0010066106 0)
(1.013586 0.0010647329 0)
(1.0131426 0.0010860075 0)
(1.0126779 0.0010289148 0)
(1.0122158 0.00091109371 0)
(1.0117762 0.0007444954 0)
(1.0113808 0.00054548822 0)
(1.0110361 0.00033925936 0)
(1.0107482 0.0001430844 0)
(1.0105112 -2.0622181e-05 0)
(1.0103209 -0.00014127688 0)
(1.0101646 -0.00020995599 0)
(1.0100389 -0.00022862604 0)
(1.0099382 -0.00020234972 0)
(1.0098702 -0.00014101711 0)
(1.0098467 -5.214465e-05 0)
(1.0142735 0.00026506163 0)
(1.0147293 0.00030283156 0)
(1.0147712 0.00059797893 0)
(1.0147195 0.00067492209 0)
(1.0145235 0.00092039359 0)
(1.0142412 0.0010157535 0)
(1.0138673 0.0011560809 0)
(1.0134295 0.0011772691 0)
(1.0129595 0.0011550314 0)
(1.0124886 0.0010441995 0)
(1.0120329 0.00088254453 0)
(1.0116165 0.00067404693 0)
(1.0112503 0.00044850479 0)
(1.0109434 0.00022318249 0)
(1.0106917 2.4062934e-05 0)
(1.0104911 -0.00013463599 0)
(1.0103277 -0.00023918558 0)
(1.010194 -0.00028804284 0)
(1.0100794 -0.00028399207 0)
(1.0099854 -0.00023694496 0)
(1.0099178 -0.0001581903 0)
(1.0098944 -5.6694507e-05 0)
(1.013715 6.0586872e-05 0)
(1.0146072 0.00043340242 0)
(1.0148096 0.00042474464 0)
(1.0148352 0.00076839287 0)
(1.014713 0.0008556971 0)
(1.0144781 0.0011029928 0)
(1.0141308 0.0011920076 0)
(1.0137065 0.0012943148 0)
(1.0132305 0.0012718527 0)
(1.0127507 0.0011885933 0)
(1.0122817 0.0010288853 0)
(1.0118461 0.00081789688 0)
(1.011458 0.0005759051 0)
(1.0111311 0.00032368043 0)
(1.0108638 8.8993212e-05 0)
(1.0106538 -0.0001102338 0)
(1.0104865 -0.00025541515 0)
(1.010352 -0.00034066793 0)
(1.0102348 -0.00036487446 0)
(1.0101308 -0.0003367335 0)
(1.0100382 -0.00026801591 0)
(1.0099696 -0.00017269523 0)
(1.0099437 -6.0172797e-05 0)
(1.0128077 0.00012371938 0)
(1.0140645 0.00022376044 0)
(1.0146823 0.00056794264 0)
(1.0148834 0.00062161313 0)
(1.014841 0.00095970627 0)
(1.0146787 0.0010599246 0)
(1.0143759 0.0013038255 0)
(1.0139659 0.0013618883 0)
(1.0134945 0.0014142439 0)
(1.0129995 0.0013281385 0)
(1.0125187 0.0011887454 0)
(1.012067 0.00097342286 0)
(1.0116577 0.0007213401 0)
(1.0113092 0.00044493774 0)
(1.0110243 0.0001759793 0)
(1.0108037 -6.5122436e-05 0)
(1.0106334 -0.00025483592 0)
(1.0105021 -0.00038257961 0)
(1.0103907 -0.00044221533 0)
(1.0102895 -0.00043943868 0)
(1.0101899 -0.00038509138 0)
(1.0100971 -0.00029493546 0)
(1.0100237 -0.00018409264 0)
(1.0099939 -6.2502718e-05 0)
(1.0121892 -5.5432076e-06 0)
(1.0131557 0.00031490712 0)
(1.0142052 0.00035673277 0)
(1.0147798 0.00076963551 0)
(1.0149034 0.00082573742 0)
(1.0148273 0.0011801687 0)
(1.014586 0.0012899843 0)
(1.0142095 0.0015038524 0)
(1.0137411 0.0015132147 0)
(1.013243 0.0014929126 0)
(1.0127427 0.0013466299 0)
(1.0122746 0.0011444482 0)
(1.0118476 0.00088188017 0)
(1.0114766 0.00058695675 0)
(1.0111716 0.00028600489 0)
(1.0109375 3.1913204e-06 0)
(1.0107627 -0.00023385734 0)
(1.0106358 -0.00040947795 0)
(1.0105352 -0.00051193575 0)
(1.0104467 -0.00054255118 0)
(1.0103547 -0.00050929553 0)
(1.0102576 -0.00042816926 0)
(1.0101596 -0.0003168998 0)
(1.0100794 -0.00019212085 0)
(1.0100437 -6.3616523e-05 0)
(1.0103931 -1.1225595e-05 0)
(1.0126202 0.0001327715 0)
(1.0132829 0.00047464386 0)
(1.0143286 0.00057624027 0)
(1.014812 0.00097945017 0)
(1.0149059 0.0010658069 0)
(1.0147514 0.0014346726 0)
(1.0144189 0.0015272041 0)
(1.0139724 0.0016852107 0)
(1.0134683 0.0016200295 0)
(1.0129611 0.0015296012 0)
(1.0124706 0.0013170988 0)
(1.0120233 0.0010597374 0)
(1.0116325 0.00074766649 0)
(1.011305 0.0004195346 0)
(1.0110536 9.6324242e-05 0)
(1.0108709 -0.00018925538 0)
(1.0107469 -0.00041710487 0)
(1.010659 -0.00056931597 0)
(1.0105894 -0.00064200188 0)
(1.0105167 -0.00063855377 0)
(1.0104319 -0.00057323121 0)
(1.0103311 -0.00046469121 0)
(1.0102255 -0.0003334201 0)
(1.0101355 -0.0001965445 0)
(1.0100923 -6.3483913e-05 0)
(1.0053079 -0.00014846271 0)
(1.0109894 0.00026594568 0)
(1.0127512 0.00027339077 0)
(1.0134082 0.00072125265 0)
(1.0143888 0.00079398381 0)
(1.0148366 0.0012302007 0)
(1.0148463 0.0013532509 0)
(1.0145893 0.0017055396 0)
(1.0141693 0.0017458625 0)
(1.0136795 0.001817349 0)
(1.0131606 0.0016796792 0)
(1.0126599 0.0015147819 0)
(1.012187 0.0012436933 0)
(1.0117727 0.0009282512 0)
(1.0114245 0.00057514663 0)
(1.0111518 0.00021540243 0)
(1.0109564 -0.00011863315 0)
(1.0108315 -0.00040145198 0)
(1.010755 -0.00060944851 0)
(1.0107071 -0.00073272679 0)
(1.0106615 -0.0007688952 0)
(1.0106025 -0.0007285948 0)
(1.0105177 -0.0006293851 0)
(1.0104104 -0.00049390036 0)
(1.0102929 -0.00034403824 0)
(1.010191 -0.00019724487 0)
(1.0101388 -6.2097393e-05 0)
(0.99765111 -0.00015018831 0)
(1.0058083 -5.7770668e-05 0)
(1.0113039 0.00044570704 0)
(1.012875 0.00048954927 0)
(1.0134899 0.00095597243 0)
(1.0144472 0.0010520661 0)
(1.0148026 0.0015432803 0)
(1.0146875 0.0016703447 0)
(1.0143295 0.0019580992 0)
(1.0138552 0.0019098952 0)
(1.0133479 0.0018962842 0)
(1.0128312 0.00168431 0)
(1.0123437 0.0014531418 0)
(1.0118999 0.0011192636 0)
(1.0115267 0.00075347614 0)
(1.0112327 0.00035977782 0)
(1.0110194 -2.0195094e-05 0)
(1.0108879 -0.0003593106 0)
(1.0108189 -0.00062755102 0)
(1.0107918 -0.00080921639 0)
(1.0107773 -0.00089503179 0)
(1.0107538 -0.00089058231 0)
(1.0107005 -0.00081018214 0)
(1.0106125 -0.0006766506 0)
(1.0104931 -0.00051502097 0)
(1.0103611 -0.00034849497 0)
(1.0102449 -0.00019418908 0)
(1.0101824 -5.9463698e-05 0)
(0.98895843 -0.00025320508 0)
(0.99821615 5.6811988e-05 0)
(1.0061152 0.00014440316 0)
(1.0116 0.00071288441 0)
(1.0129461 0.00069498068 0)
(1.0135833 0.0012320034 0)
(1.0144537 0.0013872413 0)
(1.0146565 0.0018971326 0)
(1.0144164 0.0019672063 0)
(1.013995 0.0021499608 0)
(1.0134997 0.0020133203 0)
(1.0129912 0.0019175958 0)
(1.0124842 0.0016399571 0)
(1.0120194 0.0013374033 0)
(1.0116131 0.00094694459 0)
(1.011294 0.00052985572 0)
(1.0110609 0.000106436 0)
(1.0109164 -0.00028799724 0)
(1.0108486 -0.00061954065 0)
(1.0108386 -0.00086586553 0)
(1.0108553 -0.001010933 0)
(1.0108726 -0.0010538171 0)
(1.0108626 -0.0010038211 0)
(1.0108116 -0.00088172784 0)
(1.0107133 -0.00071380012 0)
(1.0105786 -0.00052757509 0)
(1.0104286 -0.00034667693 0)
(1.0102963 -0.00018736862 0)
(1.0102224 -5.5612084e-05 0)
(0.97943006 -0.00028175763 0)
(0.98951944 -0.00012489848 0)
(0.99848787 0.00020943036 0)
(1.0065552 0.00040069216 0)
(1.0118854 0.00095506483 0)
(1.0130397 0.0009540957 0)
(1.0136224 0.0016055168 0)
(1.0143336 0.001787426 0)
(1.0143778 0.0022312574 0)
(1.0140621 0.002190908 0)
(1.0136176 0.0022741758 0)
(1.0131201 0.0020535582 0)
(1.0126157 0.0018878185 0)
(1.0121241 0.0015394498 0)
(1.0116907 0.0011695226 0)
(1.0113359 0.00071979203 0)
(1.0110797 0.00026145066 0)
(1.0109182 -0.00018631995 0)
(1.0108444 -0.00058176454 0)
(1.010845 -0.00089752408 0)
(1.0108894 -0.0011102377 0)
(1.0109489 -0.0012118657 0)
(1.0109895 -0.0012050175 0)
(1.0109893 -0.0011065076 0)
(1.0109322 -0.00094148013 0)
(1.0108199 -0.00074000614 0)
(1.010665 -0.00053132531 0)
(1.0104946 -0.00033854075 0)
(1.0103445 -0.00017686037 0)
(1.0102583 -5.0590862e-05 0)
(0.96797803 -0.0003658027 -1.9437862e-24)
(0.98004317 -0.00011918165 0)
(0.98984809 6.099575e-05 0)
(0.99886516 0.00039286464 0)
(1.00718 0.00061700745 0)
(1.0122078 0.0012368432 0)
(1.0130653 0.0013346668 0)
(1.013521 0.0020559248 0)
(1.0140621 0.0021710372 0)
(1.0140066 0.0024822973 0)
(1.013665 0.002334756 0)
(1.0132186 0.0023324278 0)
(1.0127179 0.0020443409 0)
(1.0122216 0.0018016555 0)
(1.0117538 0.0013833912 0)
(1.0113666 0.00094122177 0)
(1.0110748 0.00044060301 0)
(1.0108936 -5.3801017e-05 0)
(1.010808 -0.00051213828 0)
(1.0108108 -0.00089972183 0)
(1.0108764 -0.001186841 0)
(1.0109754 -0.0013576451 0)
(1.0110695 -0.0014070895 0)
(1.0111297 -0.0013459968 0)
(1.01113 -0.0011962291 0)
(1.0110623 -0.0009881598 0)
(1.0109294 -0.00075465775 0)
(1.0107513 -0.00052578229 0)
(1.0105579 -0.00032404453 0)
(1.0103887 -0.00016278878 0)
(1.0102896 -4.4465696e-05 0)
(0.95443254 -0.00041100605 2.3888228e-24)
(0.96860254 -0.00023333561 2.0287009e-24)
(0.9804128 3.9200045e-05 0)
(0.99025222 0.00023931445 0)
(0.99940042 0.00055548575 0)
(1.007966 0.00089919275 0)
(1.0124511 0.0016738567 0)
(1.0129012 0.0018223258 0)
(1.0132518 0.0024851772 0)
(1.0136899 0.0024546612 0)
(1.0135973 0.0026405991 0)
(1.013251 0.0024092827 0)
(1.0127979 0.0023395207 0)
(1.0122931 0.001980483 0)
(1.01181 0.0016571718 0)
(1.0113814 0.0011611103 0)
(1.0110554 0.00065359205 0)
(1.0108407 0.0001066472 0)
(1.0107405 -0.00040934869 0)
(1.0107381 -0.00086921993 0)
(1.0108161 -0.0012349622 0)
(1.010948 -0.0014839886 0)
(1.0110941 -0.0016023619 0)
(1.0112194 -0.0015934513 0)
(1.011289 -0.0014735425 0)
(1.0112847 -0.0012711354 0)
(1.0111984 -0.0010207902 0)
(1.0110411 -0.00075748484 0)
(1.010836 -0.00051117856 0)
(1.0106176 -0.00030339915 0)
(1.0104284 -0.00014535666 0)
(1.0103159 -3.7323626e-05 0)
(0.93984346 -0.00043886477 -2.400059e-24)
(0.95512385 -0.00030349222 -6.4246287e-24)
(0.96897549 -5.5343229e-05 0)
(0.98090768 0.00017952831 0)
(0.99081727 0.00035458624 0)
(1.0001558 0.00080261917 0)
(1.0087298 0.0013486888 0)
(1.012463 0.002228427 0)
(1.0125378 0.0022942845 0)
(1.0128806 0.0027872007 0)
(1.013287 0.002625169 0)
(1.01318 0.0027280017 0)
(1.0128175 0.0024352982 0)
(1.012347 0.0022968986 0)
(1.0118419 0.0018581985 0)
(1.0113882 0.0014413158 0)
(1.0110171 0.00087124542 0)
(1.0107691 0.00030302026 0)
(1.01064 -0.00027574192 0)
(1.0106288 -0.00080385573 0)
(1.0107102 -0.0012503902 0)
(1.0108658 -0.0015841026 0)
(1.011058 -0.0017827576 0)
(1.0112484 -0.0018407324 0)
(1.0113945 -0.0017668297 0)
(1.0114681 -0.0015851259 0)
(1.0114496 -0.0013297045 0)
(1.01134 -0.0010385764 0)
(1.011153 -0.00074814528 0)
(1.0109181 -0.00048765399 0)
(1.0106732 -0.00027694278 0)
(1.0104631 -0.00012478896 0)
(1.010337 -2.9262182e-05 0)
(0.92491829 -0.00048302548 0)
(0.94050897 -0.00031904057 6.4342894e-24)
(0.95556996 -0.00017020648 0)
(0.96948662 7.6185508e-05 0)
(0.98159827 0.00027001862 0)
(0.99156214 0.00052339451 0)
(1.0010582 0.0013078794 0)
(1.0093192 0.0019516451 0)
(1.0121834 0.0027497259 0)
(1.0120602 0.0026424814 0)
(1.0124944 0.0029572751 0)
(1.0128889 0.0027204826 0)
(1.0127489 0.0027745347 0)
(1.0123461 0.0024179354 0)
(1.0118599 0.0021965779 0)
(1.0113705 0.00165979 0)
(1.0109688 0.0011493041 0)
(1.0106756 0.00050972789 0)
(1.0105161 -0.00010430716 0)
(1.0104816 -0.00070494092 0)
(1.0105617 -0.0012297646 0)
(1.0107306 -0.0016522159 0)
(1.0109595 -0.0019401708 0)
(1.0112101 -0.0020788951 0)
(1.0114347 -0.0020676969 0)
(1.011596 -0.001923969 0)
(1.0116626 -0.0016784581 0)
(1.0116243 -0.001370434 0)
(1.0114841 -0.0010409836 0)
(1.0112639 -0.00072659468 0)
(1.0109966 -0.00045552054 0)
(1.0107238 -0.000245037 0)
(1.0104925 -0.00010132791 0)
(1.0103527 -2.0332154e-05 0)
(0.9099705 -0.00044643235 1.299738e-24)
(0.92547722 -0.00041803999 0)
(0.94093299 -0.00015849866 1.2563705e-23)
(0.95616815 -0.00011625802 0)
(0.97021525 0.00014541897 0)
(0.98248262 0.00044979117 0)
(0.99238457 0.00091400166 0)
(1.00196 0.0020184672 0)
(1.0096622 0.0025489753 0)
(1.0116984 0.0030769107 0)
(1.0115945 0.002837285 0)
(1.0121368 0.0030527814 0)
(1.0124817 0.002782115 0)
(1.0122715 0.002788447 0)
(1.0118261 0.0023466249 0)
(1.0113395 0.0020150631 0)
(1.0108943 0.0013759862 0)
(1.0105687 0.00077584986 0)
(1.0103671 8.2658632e-05 0)
(1.0103061 -0.00056635998 0)
(1.0103696 -0.0011731875 0)
(1.0105457 -0.001683728 0)
(1.0107997 -0.0020675119 0)
(1.0111014 -0.0022988085 0)
(1.0114013 -0.0023666525 0)
(1.0116546 -0.002279339 0)
(1.0118191 -0.0020616998 0)
(1.0118722 -0.00175134 0)
(1.0118047 -0.0013925108 0)
(1.0116295 -0.0010276546 0)
(1.0113721 -0.00069322548 0)
(1.0110705 -0.00041520787 0)
(1.0107691 -0.0002080996 0)
(1.0105164 -7.5245325e-05 0)
(1.010363 -1.0664211e-05 0)
(0.89559379 -0.00045344256 -4.7313586e-24)
(0.91033774 -0.00038773389 -1.8345989e-23)
(0.92584439 -0.0002840103 -1.2556751e-23)
(0.94150424 -0.00010352205 -1.9098252e-23)
(0.95699568 -0.00013956746 -2.4057457e-23)
(0.9711412 0.0003045364 0)
(0.98344159 0.00090657427 0)
(0.99314524 0.0014831251 0)
(1.0028188 0.0026949737 0)
(1.0098493 0.0029581463 0)
(1.0111805 0.0032046574 0)
(1.0111825 0.0029452536 0)
(1.0117796 0.0031311171 0)
(1.0120241 0.0028230282 0)
(1.0117293 0.0027543999 0)
(1.0112568 0.0021909226 0)
(1.0108055 0.001736863 0)
(1.010434 0.00099997406 0)
(1.0102016 0.00032794337 0)
(1.0101019 -0.00040704329 0)
(1.010144 -0.0010749761 0)
(1.010311 -0.001677346 0)
(1.0105826 -0.0021583018 0)
(1.0109227 -0.002491713 0)
(1.0112897 -0.0026533888 0)
(1.0116338 -0.0026412977 0)
(1.0119035 -0.0024714442 0)
(1.0120638 -0.0021769849 0)
(1.0120923 -0.0018024548 0)
(1.0119901 -0.0013950564 0)
(1.0117739 -0.00099884954 0)
(1.0114764 -0.00064838437 0)
(1.011139 -0.00036725363 0)
(1.0108086 -0.0001665128 0)
(1.0105345 -4.6814842e-05 0)
(1.0103678 -3.3239167e-07 0)
(0.88245656 -0.00039280374 5.5954942e-24)
(0.89570615 -0.00041289506 3.221758e-23)
(0.91059377 -0.0002476952 0)
(0.92634509 -0.00029376267 6.7090208e-23)
(0.94231414 -0.00012768395 2.3935821e-23)
(0.95803624 -8.5896153e-05 3.6759604e-23)
(0.97211295 0.00076550909 1.8844709e-23)
(0.98433869 0.0015564212 0)
(0.9938981 0.002051509 0)
(1.0037009 0.0031448485 0)
(1.009959 0.0031516123 0)
(1.0106864 0.0032655585 0)
(1.0107954 0.0030339915 0)
(1.0113683 0.003212487 0)
(1.0114804 0.0028251381 0)
(1.0111171 0.0026317726 0)
(1.0106633 0.001927111 0)
(1.0102837 0.0013539016 0)
(1.0100066 0.00053944566 0)
(1.0098785 -0.00019037262 0)
(1.0098859 -0.00095085849 0)
(1.0100364 -0.0016270329 0)
(1.0103083 -0.0022100577 0)
(1.0106778 -0.0026492995 0)
(1.0110989 -0.0029177192 0)
(1.0115271 -0.002998789 0)
(1.0119035 -0.0028977098 0)
(1.0121816 -0.0026401762 0)
(1.012325 -0.0022677875 0)
(1.0123218 -0.0018301639 0)
(1.0121768 -0.0013781843 0)
(1.0119159 -0.00095471506 0)
(1.0115757 -0.00059272976 0)
(1.0112013 -0.00031225891 0)
(1.010842 -0.00012052343 0)
(1.0105469 -1.6350328e-05 0)
(1.0103672 1.0564737e-05 0)
(0.8710357 -0.00034001212 -8.4217904e-26)
(0.88224534 -0.00035882032 -7.6561049e-24)
(0.8958128 -0.00027395739 1.3467093e-23)
(0.91093949 -0.00029099137 -2.6656577e-23)
(0.9271069 -0.00038828589 -4.9785676e-23)
(0.94334808 -6.0761849e-05 3.2853364e-23)
(0.95913557 0.00027779493 1.316195e-22)
(0.97299936 0.001449198 -2.3514228e-23)
(0.98519235 0.002135388 0)
(0.99479229 0.0024405046 0)
(1.0046409 0.0033765328 0)
(1.0099268 0.0032440894 0)
(1.0102163 0.0033661014 0)
(1.0103645 0.0031377339 0)
(1.0108561 0.0032695241 0)
(1.0108403 0.0027349449 0)
(1.010467 0.0023861517 0)
(1.0100789 0.0015443661 0)
(1.0097954 0.00087557619 0)
(1.0096244 6.3645978e-07 0)
(1.0096053 -0.00076958004 0)
(1.0097251 -0.0015454007 0)
(1.0099865 -0.0022158548 0)
(1.0103676 -0.0027675015 0)
(1.0108321 -0.0031494112 0)
(1.0113321 -0.0033400427 0)
(1.0118106 -0.0033287173 0)
(1.0122111 -0.0031310052 0)
(1.0124836 -0.0027822681 0)
(1.0126016 -0.0023315627 0)
(1.0125562 -0.0018342406 0)
(1.0123635 -0.0013415207 0)
(1.0120535 -0.00089599705 0)
(1.0116688 -0.00052691844 0)
(1.0112574 -0.0002505564 0)
(1.0108691 -7.1055138e-05 0)
(1.0105536 1.5881727e-05 0)
(1.0103613 2.1908313e-05 0)
(0.86128982 -0.00023395794 -2.2265152e-24)
(0.87046846 -0.00029817053 3.398681e-24)
(0.88219043 -0.00022667678 0)
(0.89596227 -0.00035480517 -2.0382044e-23)
(0.91156186 -0.00043071348 -5.9930541e-24)
(0.92809822 -0.00038477353 0)
(0.94444998 0.00034748091 -9.3801686e-23)
(0.96016221 0.00086449745 -1.0746373e-22)
(0.97383497 0.0020873024 0)
(0.9861564 0.00242282 0)
(0.99599242 0.0025960916 0)
(1.0056381 0.0035311861 0)
(1.0097583 0.0033201732 0)
(1.0097032 0.0035328359 0)
(1.0098228 0.0032333776 0)
(1.0102234 0.0032336315 0)
(1.0101437 0.0025048737 0)
(1.0098229 0.0020040088 0)
(1.00953 0.001055513 0)
(1.0093543 0.00031124222 0)
(1.0092934 -0.00060511909 0)
(1.0093876 -0.001405743 0)
(1.0096227 -0.0021842257 0)
(1.0100006 -0.002837915 0)
(1.0104912 -0.0033424868 0)
(1.0110504 -0.0036533221 0)
(1.0116203 -0.003751596 0)
(1.0121414 -0.0036375164 0)
(1.0125515 -0.003336731 0)
(1.0128085 -0.0028943105 0)
(1.0128883 -0.0023673672 0)
(1.0127943 -0.0018136707 0)
(1.0125472 -0.0012859586 0)
(1.0121854 -0.00082328899 0)
(1.0117549 -0.00045176692 0)
(1.0113063 -0.00018310378 0)
(1.0108898 -1.8186236e-05 0)
(1.0105546 4.9534573e-05 0)
(1.0103504 3.3583957e-05 0)
(0.85387495 -0.00013166022 0)
(0.86030369 -0.00017238527 0)
(0.87021228 -0.00016962635 -3.5061652e-24)
(0.88211562 -0.00034700614 0)
(0.89640221 -0.00054393662 -3.0469117e-24)
(0.91239656 -0.00047295329 4.7192909e-23)
(0.92918247 -1.2597034e-05 2.2834502e-22)
(0.94549217 0.00098734923 2.064045e-22)
(0.96115938 0.001399419 0)
(0.97479125 0.0024133028 0)
(0.98744105 0.002439872 0)
(0.99757807 0.0026704389 0)
(1.0066618 0.0037304939 0)
(1.0094364 0.0034524553 0)
(1.0090342 0.0037077248 0)
(1.0091535 0.0032335329 0)
(1.0095181 0.0030400026 0)
(1.0094483 0.0021182477 0)
(1.0092181 0.0015024029 0)
(1.0090317 0.00047417776 0)
(1.0089663 -0.00032560666 0)
(1.0090175 -0.0012730203 0)
(1.0092278 -0.0020929858 0)
(1.0095845 -0.0028654404 0)
(1.0100823 -0.0034870678 0)
(1.0106848 -0.0039299224 0)
(1.0113324 -0.0041532548 0)
(1.0119658 -0.004146032 0)
(1.0125152 -0.0039193517 0)
(1.0129237 -0.0035103304 0)
(1.0131504 -0.0029742927 0)
(1.0131836 -0.0023734483 0)
(1.0130317 -0.0017692333 0)
(1.0127264 -0.0012116777 0)
(1.0123102 -0.00073764467 0)
(1.0118335 -0.00036800207 0)
(1.0113481 -0.00011041693 0)
(1.0109041 3.7208324e-05 0)
(1.01055 8.4366016e-05 0)
(1.0103346 4.5581778e-05 0)
(0.85234573 -3.1393218e-05 -4.4432204e-25)
(0.85384355 8.8811384e-05 0)
(0.85976962 -3.8025396e-05 -9.2060797e-24)
(0.86983168 -0.00031489142 -1.4139193e-23)
(0.88234534 -0.00058343261 -8.5136357e-24)
(0.89703663 -0.00063499611 1.6172995e-23)
(0.91333241 -0.00012810805 7.108041e-24)
(0.93022852 0.00060879568 2.8131352e-23)
(0.94652755 0.0015626135 -2.7111184e-22)
(0.96229201 0.0016032294 0)
(0.97608369 0.0024076482 -2.7239278e-22)
(0.98912695 0.0023891125 0)
(0.99938104 0.002824764 0)
(1.0075142 0.004051719 0)
(1.0088469 0.0036320384 0)
(1.0081777 0.003778797 0)
(1.008414 0.0030528201 0)
(1.0088112 0.002664464 0)
(1.0087955 0.0015982195 0)
(1.0086687 0.00090059458 0)
(1.0085895 -0.00018318707 0)
(1.0086332 -0.0010280587 0)
(1.0087978 -0.0019974589 0)
(1.009131 -0.0028305403 0)
(1.0096153 -0.0035837447 0)
(1.0102386 -0.0041586712 0)
(1.0109499 -0.0045218957 0)
(1.0116817 -0.0046420331 0)
(1.0123652 -0.0045160565 0)
(1.0129312 -0.0041684532 0)
(1.0133217 -0.0036484884 0)
(1.0135074 -0.0030195766 0)
(1.013482 -0.002350126 0)
(1.0132669 -0.0017005923 0)
(1.0128989 -0.0011201256 0)
(1.012427 -0.00063989929 0)
(1.011904 -0.00027656788 0)
(1.0113826 -3.3461121e-05 0)
(1.0109121 9.493373e-05 0)
(1.0105402 0.00012008473 0)
(1.0103142 5.7760112e-05 0)
(0.851546 0.0001055513 8.1895147e-24)
(0.85233748 0.00025929503 0)
(0.86122706 0.00018687892 -2.1642052e-24)
(0.85898626 -0.00019327062 1.4131509e-23)
(0.86972949 -0.0005841497 3.3605093e-24)
(0.88272931 -0.00070921972 9.7788599e-23)
(0.89778283 -0.00031652707 -1.8232757e-22)
(0.91423794 0.00046812677 -8.3856583e-23)
(0.93128471 0.001167144 -2.527901e-22)
(0.94771019 0.0017532792 -9.8525423e-23)
(0.9637757 0.0014558564 -3.6019055e-22)
(0.97777146 0.0023189671 2.8319727e-22)
(0.99109014 0.0024608186 0)
(1.0011606 0.0032255203 0)
(1.0078208 0.0044198532 0)
(1.0079199 0.0037346924 0)
(1.0072267 0.0036308343 0)
(1.0076951 0.0026577465 0)
(1.0081522 0.0021404303 0)
(1.0082026 0.00097149606 0)
(1.0081796 0.00021874107 0)
(1.0082024 -0.00090745172 0)
(1.0083536 -0.0017908112 0)
(1.0086382 -0.002779229 0)
(1.009102 -0.0036154149 0)
(1.0097231 -0.0043361675 0)
(1.0104734 -0.0048453531 0)
(1.0112912 -0.0051108557 0)
(1.0120964 -0.0051114066 0)
(1.0128186 -0.0048547083 0)
(1.0133836 -0.0043799008 0)
(1.0137432 -0.0037474082 0)
(1.0138734 -0.0030296056 0)
(1.0137819 -0.0022964788 0)
(1.0134964 -0.0016093976 0)
(1.0130633 -0.001011874 0)
(1.0125348 -0.00053124893 0)
(1.011966 -0.00017842626 0)
(1.0114096 4.7206343e-05 0)
(1.010914 0.00015428084 0)
(1.0105253 0.00015644289 0)
(1.0102896 7.0061474e-05 0)
(0.85042402 -5.4362129e-05 3.7407202e-24)
(0.85154464 0.00038329193 1.0675731e-23)
(0.86027775 0.00039339287 0)
(0.87094406 0.00029212341 -6.9136019e-26)
(0.85844171 -0.00047750889 -4.4262566e-24)
(0.86968103 -0.00074111206 -5.3773498e-23)
(0.88320859 -0.00040630943 0)
(0.89853086 0.00026635848 8.3298125e-23)
(0.91517157 0.0009932147 -1.2762962e-22)
(0.93249147 0.0013101174 9.725605e-23)
(0.94924106 0.0015434779 4.5101379e-22)
(0.96568985 0.0012084618 3.7389498e-22)
(0.9797361 0.0023779113 0)
(0.99312125 0.0028216399 0)
(1.0025506 0.0037987726 0)
(1.0075268 0.0046384693 0)
(1.0068074 0.0036152405 0)
(1.0063239 0.0032371569 0)
(1.007055 0.0020962117 0)
(1.0075569 0.0015046184 0)
(1.0076743 0.00026369222 0)
(1.0077471 -0.00053049619 0)
(1.0078655 -0.0016924051 0)
(1.0081281 -0.0026165199 0)
(1.008543 -0.0036177855 0)
(1.00915 -0.0044464214 0)
(1.0099141 -0.0051160315 0)
(1.0107933 -0.0055400588 0)
(1.0117089 -0.0056881547 0)
(1.0125779 -0.0055529555 0)
(1.0133208 -0.0051552615 0)
(1.0138701 -0.0045485761 0)
(1.0141816 -0.0038053086 0)
(1.0142458 -0.0030027445 0)
(1.0140782 -0.0022139998 0)
(1.0137187 -0.0014958627 0)
(1.0132179 -0.00088868602 0)
(1.0126328 -0.00041279325 0)
(1.0120193 -7.462923e-05 0)
(1.0114293 0.00013077164 0)
(1.0109099 0.00021499418 0)
(1.0105057 0.00019318788 0)
(1.0102609 8.2389203e-05 0)
(0.84966225 -0.00036699725 -5.4716966e-24)
(0.85044625 0.00021153315 -3.7478472e-24)
(0.85981262 0.00052103398 -9.1996201e-24)
(0.87040169 0.00050487305 -3.3692795e-24)
(0.88232735 0.000340995 8.2033224e-24)
(0.85794391 -0.00064556516 5.4795812e-23)
(0.8697147 -0.00045672746 3.9971524e-23)
(0.88365881 0.00016623482 0)
(0.89932962 0.00078177956 1.3113739e-22)
(0.91624093 0.0010753502 -4.3065335e-23)
(0.93403285 0.0010085013 0)
(0.95120252 0.0012232041 -5.373217e-22)
(0.96791902 0.0011118476 0)
(0.98179502 0.0027728233 0)
(0.99502755 0.003376897 0)
(1.0035014 0.0042882007 0)
(1.0067305 0.0044966331 0)
(1.0056911 0.0032014936 0)
(1.0055552 0.0026613781 0)
(1.0065037 0.0014234704 0)
(1.0070271 0.0007850274 0)
(1.0072046 -0.00050726519 0)
(1.0073611 -0.0013382444 0)
(1.0075752 -0.0025421451 0)
(1.0079607 -0.0035082972 0)
(1.0085221 -0.0045154487 0)
(1.0092835 -0.0053188175 0)
(1.0101972 -0.0059170642 0)
(1.011201 -0.0062331547 0)
(1.012206 -0.0062447368 0)
(1.0131219 -0.0059582462 0)
(1.0138696 -0.0054109738 0)
(1.0143834 -0.0046709977 0)
(1.0146335 -0.0038195631 0)
(1.0146187 -0.0029398853 0)
(1.0143692 -0.002102535 0)
(1.0139309 -0.0013622224 0)
(1.0133618 -0.00075146366 0)
(1.0127206 -0.00028588867 0)
(1.0120637 3.3896669e-05 0)
(1.0114417 0.00021663258 0)
(1.0109001 0.00027648392 0)
(1.0104815 0.0002301047 0)
(1.0102285 9.4695367e-05 0)
(0.84895461 -0.00057449139 3.2821176e-24)
(0.84966884 -0.00012559828 5.4804884e-24)
(0.85906401 0.00034978646 1.4262895e-23)
(0.87027782 0.00063726495 3.476022e-24)
(0.88213144 0.00055185546 -1.0299298e-23)
(0.89540737 0.0004006412 -4.5568171e-24)
(0.85762817 -0.00036321469 -8.6709708e-23)
(0.86973181 0.00010834421 -5.3088789e-23)
(0.8841297 0.00067040476 -1.5874078e-22)
(0.90023342 0.00083527304 5.1903916e-23)
(0.9176047 0.00067883941 -5.3895273e-22)
(0.93598455 0.00057618256 2.3727069e-22)