/*--------------------------------*- C++ -*----------------------------------*\
| =========                 |                                                 |
| \\      /  F ield         | OpenFOAM: The Open Source CFD Toolbox           |
|  \\    /   O peration     | Version:  5.0                                   |
|   \\  /    A nd           | Web:      www.OpenFOAM.org                      |
|    \\/     M anipulation  |                                                 |
\*---------------------------------------------------------------------------*/
FoamFile
{
    version     2.0;
    format      ascii;
    class       volSymmTensorField;
    location    "260";
    object      UPrime2Mean;
}
// * * * * * * * * * * * * * * * * * * * * * * * * * * * * * * * * * * * * * //

dimensions      [0 2 -2 0 0 0 0];

internalField   nonuniform List<symmTensor> 
9520
(
(2.8976646e-05 6.8511411e-07 0 2.2441058e-08 0 0)
(2.9349881e-05 2.0126311e-06 0 1.9312997e-07 0 0)
(2.5057666e-05 6.442145e-07 0 2.305114e-08 0 0)
(3.0025747e-05 3.257668e-06 0 5.0327781e-07 0 0)
(2.5441427e-05 1.894944e-06 0 1.9841879e-07 0 0)
(2.354677e-05 6.3307967e-07 0 2.3568822e-08 0 0)
(3.096004e-05 4.4246031e-06 0 9.2266549e-07 0 0)
(2.6141816e-05 3.0742702e-06 0 5.1736041e-07 0 0)
(2.3931548e-05 1.8638804e-06 0 2.0299121e-07 0 0)
(2.1204087e-05 6.1345582e-07 0 2.46201e-08 0 0)
(3.2117578e-05 5.5162453e-06 0 1.4249709e-06 0 0)
(2.7117398e-05 4.1889412e-06 0 9.4938515e-07 0 0)
(2.4633802e-05 3.0282606e-06 0 5.2970492e-07 0 0)
(2.158645e-05 1.8084278e-06 0 2.1220665e-07 0 0)
(1.9464787e-05 5.9902203e-07 0 2.5622015e-08 0 0)
(3.3466514e-05 6.5328685e-06 0 1.9876138e-06 0 0)
(2.8336712e-05 5.2432543e-06 0 1.4680008e-06 0 0)
(2.561425e-05 4.134349e-06 0 9.7299411e-07 0 0)
(2.2287668e-05 2.945136e-06 0 5.5454112e-07 0 0)
(1.9842197e-05 1.7677196e-06 0 2.2102143e-07 0 0)
(1.7586564e-05 5.8323327e-07 0 2.6969737e-08 0 0)
(3.4975207e-05 7.4740365e-06 0 2.591566e-06 0 0)
(2.9771538e-05 6.2384613e-06 0 2.0504759e-06 0 0)
(2.6843275e-05 5.1873501e-06 0 1.5062099e-06 0 0)
(2.3270797e-05 4.0337914e-06 0 1.0205148e-06 0 0)
(2.053583e-05 2.8844985e-06 0 5.7837909e-07 0 0)
(1.7953373e-05 1.7231334e-06 0 2.3289834e-07 0 0)
(1.5963963e-05 5.6705603e-07 0 2.8227359e-08 0 0)
(3.6612276e-05 8.3383814e-06 0 3.2210593e-06 0 0)
(3.1393883e-05 7.1746436e-06 0 2.6778329e-06 0 0)
(2.8294407e-05 6.1889933e-06 0 2.1063302e-06 0 0)
(2.450903e-05 5.0814503e-06 0 1.5834392e-06 0 0)
(2.1511092e-05 3.9614366e-06 0 1.06633e-06 0 0)
(1.8629195e-05 2.818087e-06 0 6.1061101e-07 0 0)
(1.6319885e-05 1.6771694e-06 0 2.4400109e-07 0 0)
(1.4353055e-05 5.4945155e-07 0 2.9685083e-08 0 0)
(3.8346083e-05 9.1238659e-06 0 3.8638672e-06 0 0)
(3.3176233e-05 8.0501977e-06 0 3.3344714e-06 0 0)
(2.9941312e-05 7.1395963e-06 0 2.7537732e-06 0 0)
(2.5978739e-05 6.0910857e-06 0 2.2204389e-06 0 0)
(2.2743867e-05 5.0071617e-06 0 1.6581218e-06 0 0)
(1.9582339e-05 3.8823061e-06 0 1.1286011e-06 0 0)
(1.6976825e-05 2.7484894e-06 0 6.4085675e-07 0 0)
(1.4692557e-05 1.6269866e-06 0 2.5687985e-07 0 0)
(1.2914927e-05 5.292009e-07 0 3.1019538e-08 0 0)
(4.014635e-05 9.829979e-06 0 4.5098092e-06 0 0)
(3.5088604e-05 8.8624362e-06 0 4.0069437e-06 0 0)
(3.1756966e-05 8.0379688e-06 0 3.4319677e-06 0 0)
(2.7656419e-05 7.0637814e-06 0 2.9120938e-06 0 0)
(2.421302e-05 6.0255924e-06 0 2.3308333e-06 0 0)
(2.0791405e-05 4.9260154e-06 0 1.7603134e-06 0 0)
(1.7905389e-05 3.7971096e-06 0 1.1873154e-06 0 0)
(1.5319956e-05 2.6717094e-06 0 6.7601668e-07 0 0)
(1.3238311e-05 1.5688163e-06 0 2.6867816e-07 0 0)
(1.1535416e-05 5.064058e-07 0 3.2431819e-08 0 0)
(4.1983386e-05 1.0451527e-05 0 5.1531846e-06 0 0)
(3.7103263e-05 9.6087988e-06 0 4.6840678e-06 0 0)
(3.3714815e-05 8.8823493e-06 0 4.1290507e-06 0 0)
(2.951828e-05 7.9984237e-06 0 3.6418811e-06 0 0)
(2.589689e-05 7.0184295e-06 0 3.0649492e-06 0 0)
(2.2238375e-05 5.9544756e-06 0 2.4831145e-06 0 0)
(1.9086612e-05 4.8345747e-06 0 1.8571959e-06 0 0)
(1.6209312e-05 3.7013499e-06 0 1.2557452e-06 0 0)
(1.383697e-05 2.5811368e-06 0 7.083309e-07 0 0)
(1.183874e-05 1.5028542e-06 0 2.8121002e-07 0 0)
(1.0303444e-05 4.8081868e-07 0 3.3664657e-08 0 0)
(4.3831374e-05 1.0998546e-05 0 5.788548e-06 0 0)
(3.9193515e-05 1.0284081e-05 0 5.3615436e-06 0 0)
(3.5788356e-05 9.6704638e-06 0 4.8340915e-06 0 0)
(3.1538488e-05 8.8921357e-06 0 4.3955835e-06 0 0)
(2.7772574e-05 7.9849455e-06 0 3.8438824e-06 0 0)
(2.390454e-05 6.9703906e-06 0 3.2777164e-06 0 0)
(2.0504918e-05 5.8673531e-06 0 2.6281699e-06 0 0)
(1.7344355e-05 4.7286226e-06 0 1.9704741e-06 0 0)
(1.4687664e-05 3.5852079e-06 0 1.3189741e-06 0 0)
(1.2401194e-05 2.4770663e-06 0 7.4282916e-07 0 0)
(1.0587459e-05 1.4281979e-06 0 2.9218742e-07 0 0)
(9.1503761e-06 4.5308828e-07 0 3.4847272e-08 0 0)
(4.5670714e-05 1.1459257e-05 0 6.4349551e-06 0 0)
(4.136199e-05 1.0897128e-05 0 6.0328243e-06 0 0)
(3.7948021e-05 1.0398534e-05 0 5.5408528e-06 0 0)
(3.3691472e-05 9.7437117e-06 0 5.162437e-06 0 0)
(2.9814994e-05 8.923429e-06 0 4.654027e-06 0 0)
(2.5769871e-05 7.9735732e-06 0 4.1274822e-06 0 0)
(2.2143735e-05 6.8989411e-06 0 3.4812045e-06 0 0)
(1.8712188e-05 5.7613297e-06 0 2.7985631e-06 0 0)
(1.5776254e-05 4.5948086e-06 0 2.0758265e-06 0 0)
(1.3202658e-05 3.4488748e-06 0 1.3867994e-06 0 0)
(1.1115294e-05 2.3577063e-06 0 7.7321122e-07 0 0)
(9.4133071e-06 1.3467026e-06 0 3.0279892e-07 0 0)
(8.1299759e-06 4.238406e-07 0 3.5769375e-08 0 0)
(4.748175e-05 1.1852325e-05 0 7.0483222e-06 0 0)
(4.3562709e-05 1.1418083e-05 0 6.6995107e-06 0 0)
(4.0164434e-05 1.1065029e-05 0 6.2410208e-06 0 0)
(3.596638e-05 1.0551195e-05 0 5.9344682e-06 0 0)
(3.2000565e-05 9.8326995e-06 0 5.4846213e-06 0 0)
(2.7812639e-05 8.9622759e-06 0 5.0185261e-06 0 0)
(2.3984946e-05 7.9298472e-06 0 4.3999946e-06 0 0)
(2.0299085e-05 6.8041606e-06 0 3.7214865e-06 0 0)
(1.7091705e-05 5.6187696e-06 0 2.958047e-06 0 0)
(1.4231563e-05 4.4329782e-06 0 2.189268e-06 0 0)
(1.1869371e-05 3.2896598e-06 0 1.4470411e-06 0 0)
(9.9030998e-06 2.226049e-06 0 8.028828e-07 0 0)
(8.3735355e-06 1.2602767e-06 0 3.1114038e-07 0 0)
(7.1937046e-06 3.9348364e-07 0 3.653391e-08 0 0)
(4.9240825e-05 1.2125902e-05 0 7.7146284e-06 0 0)
(4.5728686e-05 1.188807e-05 0 7.3631675e-06 0 0)
(4.2397142e-05 1.1666154e-05 0 6.9533889e-06 0 0)
(3.8341151e-05 1.1316385e-05 0 6.7022036e-06 0 0)
(3.4292734e-05 1.0708013e-05 0 6.328636e-06 0 0)
(3.0012599e-05 9.9350165e-06 0 5.9393593e-06 0 0)
(2.6008095e-05 8.9588103e-06 0 5.3710329e-06 0 0)
(2.2090534e-05 7.8585851e-06 0 4.723099e-06 0 0)
(1.8621743e-05 6.6625298e-06 0 3.9477816e-06 0 0)
(1.5478413e-05 5.4389443e-06 0 3.1304596e-06 0 0)
(1.2840176e-05 4.2395893e-06 0 2.2911002e-06 0 0)
(1.0604761e-05 3.111421e-06 0 1.5064669e-06 0 0)
(8.8281495e-06 2.0851637e-06 0 8.2649808e-07 0 0)
(7.417745e-06 1.1701889e-06 0 3.1815712e-07 0 0)
(6.3739034e-06 3.6269059e-07 0 3.6997269e-08 0 0)
(5.0942344e-05 1.2379087e-05 0 8.3161688e-06 0 0)
(4.7920999e-05 1.2254845e-05 0 8.0728071e-06 0 0)
(4.4658287e-05 1.2219601e-05 0 7.64887e-06 0 0)
(4.0737406e-05 1.201237e-05 0 7.4726723e-06 0 0)
(3.6678676e-05 1.1550656e-05 0 7.1801374e-06 0 0)
(3.2356571e-05 1.0887364e-05 0 6.8800726e-06 0 0)
(2.8189529e-05 9.9814823e-06 0 6.3834666e-06 0 0)
(2.4070677e-05 8.923845e-06 0 5.78956e-06 0 0)
(2.035255e-05 7.7281966e-06 0 5.0293576e-06 0 0)
(1.693359e-05 6.4732765e-06 0 4.1934504e-06 0 0)
(1.4020109e-05 5.2176924e-06 0 3.2869342e-06 0 0)
(1.1511081e-05 4.0188189e-06 0 2.3923938e-06 0 0)
(9.4807779e-06 2.9184684e-06 0 1.5545578e-06 0 0)
(7.8365978e-06 1.9371932e-06 0 8.4680372e-07 0 0)
(6.5808405e-06 1.0786343e-06 0 3.2251718e-07 0 0)
(5.6357527e-06 3.3134727e-07 0 3.7256896e-08 0 0)
(5.2561406e-05 1.2446731e-05 0 9.0776134e-06 0 0)
(5.0111264e-05 1.261471e-05 0 8.7583017e-06 0 0)
(4.6965805e-05 1.2682259e-05 0 8.3900158e-06 0 0)
(4.3139424e-05 1.2659749e-05 0 8.2456717e-06 0 0)
(3.9118062e-05 1.2341006e-05 0 8.049644e-06 0 0)
(3.4804575e-05 1.1815637e-05 0 7.8408712e-06 0 0)
(3.0511618e-05 1.0994438e-05 0 7.4311844e-06 0 0)
(2.6225732e-05 9.9979569e-06 0 6.9088356e-06 0 0)
(2.2267744e-05 8.8153201e-06 0 6.1888925e-06 0 0)
(1.8586245e-05 7.5393388e-06 0 5.3631248e-06 0 0)
(1.5400511e-05 6.2308018e-06 0 4.4187711e-06 0 0)
(1.2616258e-05 4.9587899e-06 0 3.4437469e-06 0 0)
(1.0326021e-05 3.7763135e-06 0 2.4760271e-06 0 0)
(8.4395929e-06 2.7137515e-06 0 1.5968252e-06 0 0)
(6.9680622e-06 1.7860086e-06 0 8.5993506e-07 0 0)
(5.8261948e-06 9.8524167e-07 0 3.2511919e-07 0 0)
(4.9978257e-06 3.0006395e-07 0 3.7229022e-08 0 0)
(5.4082207e-05 1.2610719e-05 0 9.7925179e-06 0 0)
(5.2335568e-05 1.276437e-05 0 9.609754e-06 0 0)
(4.9303156e-05 1.3118842e-05 0 9.1014632e-06 0 0)
(4.5598479e-05 1.3234904e-05 0 9.0831559e-06 0 0)
(4.160541e-05 1.3085961e-05 0 8.9340285e-06 0 0)
(3.7326393e-05 1.2692844e-05 0 8.8273334e-06 0 0)
(3.2966259e-05 1.1994758e-05 0 8.5092139e-06 0 0)
(2.8535282e-05 1.1076234e-05 0 8.0728022e-06 0 0)
(2.4350662e-05 9.9219545e-06 0 7.4148487e-06 0 0)
(2.0423692e-05 8.6383781e-06 0 6.6256682e-06 0 0)
(1.6970475e-05 7.2823848e-06 0 5.6724695e-06 0 0)
(1.3913665e-05 5.9387563e-06 0 4.6462615e-06 0 0)
(1.1360057e-05 4.6694989e-06 0 3.5759267e-06 0 0)
(9.2231314e-06 3.5156949e-06 0 2.5510198e-06 0 0)
(7.5264802e-06 2.5029876e-06 0 1.6254258e-06 0 0)
(6.1827939e-06 1.6309246e-06 0 8.6851332e-07 0 0)
(5.1743423e-06 8.9200202e-07 0 3.2516747e-07 0 0)
(4.4360761e-06 2.6864863e-07 0 3.6989708e-08 0 0)
(5.5483017e-05 1.2356361e-05 0 1.075402e-05 0 0)
(5.4577189e-05 1.3042042e-05 0 1.0492223e-05 0 0)
(5.1699275e-05 1.3373583e-05 0 1.0024702e-05 0 0)
(4.8105985e-05 1.3774009e-05 0 9.9144022e-06 0 0)
(4.4188556e-05 1.3760007e-05 0 9.8922615e-06 0 0)
(3.9913723e-05 1.3527542e-05 0 9.8518165e-06 0 0)
(3.5524241e-05 1.2956714e-05 0 9.6269276e-06 0 0)
(3.0985576e-05 1.2152983e-05 0 9.2780084e-06 0 0)
(2.6590942e-05 1.1046988e-05 0 8.6981131e-06 0 0)
(2.2430522e-05 9.769733e-06 0 7.9684553e-06 0 0)
(1.8715826e-05 8.3734697e-06 0 7.0349717e-06 0 0)
(1.5394931e-05 6.9630203e-06 0 5.987071e-06 0 0)
(1.2577842e-05 5.6057465e-06 0 4.8416207e-06 0 0)
(1.0185277e-05 4.3540509e-06 0 3.6964654e-06 0 0)
(8.2537792e-06 3.2446727e-06 0 2.6041999e-06 0 0)
(6.6985791e-06 2.2851479e-06 0 1.64572e-06 0 0)
(5.5050857e-06 1.4756601e-06 0 8.7010844e-07 0 0)
(4.5996595e-06 7.9814497e-07 0 3.2338115e-07 0 0)
(3.9591953e-06 2.3786005e-07 0 3.6493779e-08 0 0)
(5.6523805e-05 1.2476661e-05 0 1.1908909e-05 0 0)
(5.7086198e-05 1.27025e-05 0 1.1722298e-05 0 0)
(5.4213096e-05 1.3708658e-05 0 1.0974331e-05 0 0)
(5.0734267e-05 1.4162871e-05 0 1.1019281e-05 0 0)
(4.6836661e-05 1.4377745e-05 0 1.0887391e-05 0 0)
(4.2645296e-05 1.4294919e-05 0 1.0971878e-05 0 0)
(3.8175092e-05 1.3881172e-05 0 1.0799752e-05 0 0)
(3.3556894e-05 1.3207715e-05 0 1.0532852e-05 0 0)
(2.8977955e-05 1.2187038e-05 0 1.0033325e-05 0 0)
(2.458974e-05 1.0931312e-05 0 9.3819631e-06 0 0)
(2.0622591e-05 9.5042061e-06 0 8.4945397e-06 0 0)
(1.7048846e-05 8.0335216e-06 0 7.4541264e-06 0 0)
(1.3972009e-05 6.5893432e-06 0 6.261626e-06 0 0)
(1.1322687e-05 5.2370004e-06 0 5.0224059e-06 0 0)
(9.1494105e-06 4.0221034e-06 0 3.7857837e-06 0 0)
(7.3724696e-06 2.9620329e-06 0 2.6445206e-06 0 0)
(5.9843693e-06 2.0660005e-06 0 1.6525517e-06 0 0)
(4.9065358e-06 1.318597e-06 0 8.6687776e-07 0 0)
(4.1123952e-06 7.0609041e-07 0 3.193173e-07 0 0)
(3.5505801e-06 2.077759e-07 0 3.5790585e-08 0 0)
(5.7409382e-05 1.1537524e-05 0 1.3173166e-05 0 0)
(5.9614629e-05 1.324785e-05 0 1.3468756e-05 0 0)
(5.7150636e-05 1.3469416e-05 0 1.2463997e-05 0 0)
(5.3588705e-05 1.4552287e-05 0 1.2210881e-05 0 0)
(4.9728152e-05 1.4857957e-05 0 1.2240407e-05 0 0)
(4.5503278e-05 1.4992625e-05 0 1.2186339e-05 0 0)
(4.1009592e-05 1.4746366e-05 0 1.2094429e-05 0 0)
(3.6233455e-05 1.4232194e-05 0 1.185541e-05 0 0)
(3.149489e-05 1.3326795e-05 0 1.142708e-05 0 0)
(2.6886959e-05 1.2121667e-05 0 1.0860156e-05 0 0)
(2.2675581e-05 1.067438e-05 0 1.0042593e-05 0 0)
(1.8860872e-05 9.1498191e-06 0 9.0365748e-06 0 0)
(1.553229e-05 7.6218554e-06 0 7.8249049e-06 0 0)
(1.2630159e-05 6.1695745e-06 0 6.5188611e-06 0 0)
(1.0211398e-05 4.8438657e-06 0 5.1615319e-06 0 0)
(8.2049817e-06 3.6726176e-06 0 3.8570527e-06 0 0)
(6.611868e-06 2.6757896e-06 0 2.6630113e-06 0 0)
(5.3526417e-06 1.8428092e-06 0 1.6504204e-06 0 0)
(4.4003837e-06 1.1642813e-06 0 8.5737029e-07 0 0)
(3.6947175e-06 6.15798e-07 0 3.1345021e-07 0 0)
(3.2113451e-06 1.7920707e-07 0 3.4867065e-08 0 0)
(5.660479e-05 1.1619514e-05 0 1.5454957e-05 0 0)
(6.2664838e-05 1.1530368e-05 0 1.5533063e-05 0 0)
(6.0226401e-05 1.3945509e-05 0 1.4565367e-05 0 0)
(5.7096718e-05 1.4480368e-05 0 1.4259511e-05 0 0)
(5.3018504e-05 1.528808e-05 0 1.3824841e-05 0 0)
(4.8763904e-05 1.5541058e-05 0 1.3853575e-05 0 0)
(4.4095385e-05 1.5541484e-05 0 1.3540997e-05 0 0)
(3.9112783e-05 1.5211576e-05 0 1.3327582e-05 0 0)
(3.4126248e-05 1.4451365e-05 0 1.2899368e-05 0 0)
(2.9311706e-05 1.3329832e-05 0 1.2408725e-05 0 0)
(2.4860762e-05 1.188376e-05 0 1.1673468e-05 0 0)
(2.0814784e-05 1.0309926e-05 0 1.0727218e-05 0 0)
(1.7247149e-05 8.7026337e-06 0 9.5223003e-06 0 0)
(1.410025e-05 7.1539537e-06 0 8.175889e-06 0 0)
(1.1436055e-05 5.7155841e-06 0 6.7230053e-06 0 0)
(9.19515e-06 4.4258999e-06 0 5.2770452e-06 0 0)
(7.3884569e-06 3.3155829e-06 0 3.8965483e-06 0 0)
(5.9384986e-06 2.3821373e-06 0 2.6673932e-06 0 0)
(4.8199669e-06 1.6228064e-06 0 1.6360202e-06 0 0)
(3.9664054e-06 1.0121137e-06 0 8.4305439e-07 0 0)
(3.3488858e-06 5.2990347e-07 0 3.0561516e-07 0 0)
(2.9294279e-06 1.523821e-07 0 3.375779e-08 0 0)
(5.4098465e-05 8.9585057e-06 0 1.6928613e-05 0 0)
(6.4263363e-05 1.295361e-05 0 1.9530448e-05 0 0)
(6.4743103e-05 1.2087627e-05 0 1.7559359e-05 0 0)
(6.1223864e-05 1.4843118e-05 0 1.707762e-05 0 0)
(5.7239857e-05 1.525252e-05 0 1.6581631e-05 0 0)
(5.269309e-05 1.5996516e-05 0 1.5945523e-05 0 0)
(4.771805e-05 1.6177532e-05 0 1.5550502e-05 0 0)
(4.234951e-05 1.6131852e-05 0 1.5000279e-05 0 0)
(3.6958378e-05 1.5544942e-05 0 1.454282e-05 0 0)
(3.1854666e-05 1.4539179e-05 0 1.4050974e-05 0 0)
(2.7168464e-05 1.3122898e-05 0 1.3396034e-05 0 0)
(2.289747e-05 1.1512355e-05 0 1.2523304e-05 0 0)
(1.910448e-05 9.8294833e-06 0 1.1347363e-05 0 0)
(1.5723811e-05 8.189392e-06 0 9.9846447e-06 0 0)
(1.2817655e-05 6.6400914e-06 0 8.4609641e-06 0 0)
(1.0340366e-05 5.228409e-06 0 6.897905e-06 0 0)
(8.3139029e-06 3.9945489e-06 0 5.3496596e-06 0 0)
(6.6654222e-06 2.9465416e-06 0 3.9159615e-06 0 0)
(5.372047e-06 2.0912412e-06 0 2.6515797e-06 0 0)
(4.3636582e-06 1.4044042e-06 0 1.6124945e-06 0 0)
(3.6091447e-06 8.671563e-07 0 8.232588e-07 0 0)
(3.0619548e-06 4.4893296e-07 0 2.9614773e-07 0 0)
(2.7010434e-06 1.2786688e-07 0 3.2479744e-08 0 0)
(4.9895243e-05 7.9268854e-06 0 2.1414767e-05 0 0)
(6.6345411e-05 7.7494999e-06 0 2.301337e-05 0 0)
(6.8167094e-05 1.3614579e-05 0 2.3112252e-05 0 0)
(6.7564084e-05 1.3005397e-05 0 2.1781564e-05 0 0)
(6.2802443e-05 1.5451218e-05 0 2.0549697e-05 0 0)
(5.7952671e-05 1.5963843e-05 0 1.9630414e-05 0 0)
(5.2327791e-05 1.6689404e-05 0 1.8202545e-05 0 0)
(4.625746e-05 1.6905691e-05 0 1.7344405e-05 0 0)
(4.0215403e-05 1.6603154e-05 0 1.6433825e-05 0 0)
(3.4588927e-05 1.5728766e-05 0 1.5890664e-05 0 0)
(2.9596018e-05 1.4372956e-05 0 1.5241024e-05 0 0)
(2.510347e-05 1.2747704e-05 0 1.4439739e-05 0 0)
(2.1094998e-05 1.0998232e-05 0 1.330125e-05 0 0)
(1.7492461e-05 9.2723182e-06 0 1.1938589e-05 0 0)
(1.4349914e-05 7.6174612e-06 0 1.0366662e-05 0 0)
(1.163638e-05 6.0843145e-06 0 8.7114725e-06 0 0)
(9.3862968e-06 4.7200123e-06 0 7.0180177e-06 0 0)
(7.5334084e-06 3.5450281e-06 0 5.395732e-06 0 0)
(6.0579851e-06 2.5783112e-06 0 3.905505e-06 0 0)
(4.8880219e-06 1.8003786e-06 0 2.6210385e-06 0 0)
(3.9906954e-06 1.1958421e-06 0 1.5780842e-06 0 0)
(3.3136606e-06 7.2973289e-07 0 7.9900116e-07 0 0)
(2.8307969e-06 3.7481383e-07 0 2.8514839e-07 0 0)
(2.5170934e-06 1.0578699e-07 0 3.1067774e-08 0 0)
(5.0194403e-05 4.9658763e-06 0 2.3482758e-05 0 0)
(6.6572874e-05 8.2917499e-06 0 3.1045478e-05 0 0)
(7.3813022e-05 7.1119007e-06 0 2.9644438e-05 0 0)
(7.4301122e-05 1.4236018e-05 0 2.9717961e-05 0 0)
(7.1626756e-05 1.3512927e-05 0 2.7542078e-05 0 0)
(6.5544271e-05 1.5943626e-05 0 2.508893e-05 0 0)
(5.8779893e-05 1.6714442e-05 0 2.2911647e-05 0 0)
(5.1452366e-05 1.7539468e-05 0 2.0563219e-05 0 0)
(4.4259197e-05 1.7537465e-05 0 1.909202e-05 0 0)
(3.7785823e-05 1.6909219e-05 0 1.8034503e-05 0 0)
(3.2225623e-05 1.5608789e-05 0 1.7321467e-05 0 0)
(2.7439407e-05 1.3990792e-05 0 1.6515246e-05 0 0)
(2.3219965e-05 1.2198165e-05 0 1.5403271e-05 0 0)
(1.940213e-05 1.039648e-05 0 1.4040267e-05 0 0)
(1.6028351e-05 8.645062e-06 0 1.2432602e-05 0 0)
(1.3078302e-05 6.9954373e-06 0 1.0708556e-05 0 0)
(1.060162e-05 5.4975156e-06 0 8.8948299e-06 0 0)
(8.5405744e-06 4.1854809e-06 0 7.1052826e-06 0 0)
(6.8781859e-06 3.0924982e-06 0 5.4009165e-06 0 0)
(5.5413382e-06 2.2073665e-06 0 3.8735511e-06 0 0)
(4.4954596e-06 1.5214555e-06 0 2.5721904e-06 0 0)
(3.6840026e-06 9.9672168e-07 0 1.5349683e-06 0 0)
(3.0782571e-06 6.0384413e-07 0 7.7037548e-07 0 0)
(2.6456458e-06 3.0789309e-07 0 2.7292613e-07 0 0)
(2.3718164e-06 8.6316838e-08 0 2.9553062e-08 0 0)
(4.9596842e-05 2.8604248e-06 0 3.14663e-05 0 0)
(7.6069064e-05 3.146571e-07 0 3.7525644e-05 0 0)
(7.812236e-05 7.3558706e-06 0 4.1603389e-05 0 0)
(8.482018e-05 6.7213809e-06 0 4.1324579e-05 0 0)
(8.3183843e-05 1.4077833e-05 0 3.8996768e-05 0 0)
(7.7632183e-05 1.3798854e-05 0 3.5042733e-05 0 0)
(6.8648064e-05 1.6555815e-05 0 3.0103612e-05 0 0)
(5.9024571e-05 1.7702797e-05 0 2.633561e-05 0 0)
(4.9867833e-05 1.8333311e-05 0 2.2859008e-05 0 0)
(4.1864218e-05 1.7993645e-05 0 2.1052932e-05 0 0)
(3.5343908e-05 1.6849102e-05 0 1.9795021e-05 0 0)
(3.0013495e-05 1.5214712e-05 0 1.8881361e-05 0 0)
(2.5498359e-05 1.3396342e-05 0 1.7701376e-05 0 0)
(2.1464248e-05 1.155043e-05 0 1.6309219e-05 0 0)
(1.7853996e-05 9.7164459e-06 0 1.4658846e-05 0 0)
(1.4663397e-05 7.9607945e-06 0 1.2879586e-05 0 0)
(1.1955209e-05 6.3309906e-06 0 1.09712e-05 0 0)
(9.6826833e-06 4.8747614e-06 0 9.0402032e-06 0 0)
(7.8308635e-06 3.6417692e-06 0 7.1398728e-06 0 0)
(6.3240714e-06 2.6327969e-06 0 5.3769601e-06 0 0)
(5.1256089e-06 1.849328e-06 0 3.8138876e-06 0 0)
(4.1757392e-06 1.2531254e-06 0 2.5088247e-06 0 0)
(3.4434339e-06 8.1406897e-07 0 1.482946e-06 0 0)
(2.8915971e-06 4.8965855e-07 0 7.3828491e-07 0 0)
(2.500895e-06 2.4888078e-07 0 2.5975007e-07 0 0)
(2.2584172e-06 6.9391588e-08 0 2.7968207e-08 0 0)
(5.5729361e-05 -1.2755494e-05 0 3.3808326e-05 0 0)
(8.1963543e-05 2.3887727e-06 0 5.3733132e-05 0 0)
(9.5346261e-05 -4.0259002e-06 0 5.6066315e-05 0 0)
(9.6069185e-05 5.7960477e-06 0 5.9583038e-05 0 0)
(0.00010058471 5.5152944e-06 0 5.746182e-05 0 0)
(9.5604091e-05 1.3267767e-05 0 5.1000261e-05 0 0)
(8.4537907e-05 1.4370841e-05 0 4.3470327e-05 0 0)
(7.1104816e-05 1.7520652e-05 0 3.5425454e-05 0 0)
(5.8405009e-05 1.8674397e-05 0 2.9663431e-05 0 0)
(4.7776562e-05 1.8966882e-05 0 2.5429591e-05 0 0)
(3.9435319e-05 1.8007363e-05 0 2.3292093e-05 0 0)
(3.3119776e-05 1.6431513e-05 0 2.1746345e-05 0 0)
(2.8059778e-05 1.4560984e-05 0 2.03446e-05 0 0)
(2.3708465e-05 1.2696503e-05 0 1.8800252e-05 0 0)
(1.9846308e-05 1.082105e-05 0 1.7063687e-05 0 0)
(1.6395824e-05 8.9765318e-06 0 1.5220178e-05 0 0)
(1.3443898e-05 7.2224223e-06 0 1.3235978e-05 0 0)
(1.095403e-05 5.6189857e-06 0 1.1192799e-05 0 0)
(8.9112787e-06 4.2338625e-06 0 9.1212186e-06 0 0)
(7.2343039e-06 3.0843038e-06 0 7.1374778e-06 0 0)
(5.8822143e-06 2.1855643e-06 0 5.3140349e-06 0 0)
(4.7920259e-06 1.5022207e-06 0 3.7322079e-06 0 0)
(3.9297265e-06 1.0062046e-06 0 2.4300016e-06 0 0)
(3.2557606e-06 6.4731622e-07 0 1.4238231e-06 0 0)
(2.7486112e-06 3.8900632e-07 0 7.0337104e-07 0 0)
(2.3892332e-06 1.9759151e-07 0 2.4591722e-07 0 0)
(2.1714211e-06 5.4893312e-08 0 2.6343616e-08 0 0)
(9.0481545e-05 -2.984186e-05 0 4.615667e-05 0 0)
(0.00011235269 -3.0710481e-05 0 6.1932001e-05 0 0)
(0.00010843994 7.9380863e-07 0 8.1462522e-05 0 0)
(0.00012471604 -8.0593846e-06 0 8.5365693e-05 0 0)
(0.00012260287 2.5443454e-06 0 8.5528201e-05 0 0)
(0.00012234672 3.4732402e-06 0 7.82251e-05 0 0)
(0.00010983937 1.2844519e-05 0 6.4849734e-05 0 0)
(9.0901715e-05 1.5433877e-05 0 5.2564382e-05 0 0)
(7.2555471e-05 1.8551308e-05 0 4.0682746e-05 0 0)
(5.7168634e-05 1.9523971e-05 0 3.3355534e-05 0 0)
(4.5613411e-05 1.9076951e-05 0 2.84676e-05 0 0)
(3.7322904e-05 1.7548817e-05 0 2.5811648e-05 0 0)
(3.1229576e-05 1.5693471e-05 0 2.3585142e-05 0 0)
(2.6281783e-05 1.3796812e-05 0 2.1666628e-05 0 0)
(2.2044345e-05 1.1921807e-05 0 1.9700125e-05 0 0)
(1.8299151e-05 1.0034819e-05 0 1.7743755e-05 0 0)
(1.5071577e-05 8.171944e-06 0 1.568177e-05 0 0)
(1.2349667e-05 6.4230871e-06 0 1.3551901e-05 0 0)
(1.0112619e-05 4.8762743e-06 0 1.1340097e-05 0 0)
(8.2670176e-06 3.5699056e-06 0 9.1582264e-06 0 0)
(6.763742e-06 2.5368064e-06 0 7.083345e-06 0 0)
(5.5343231e-06 1.7482177e-06 0 5.2200063e-06 0 0)
(4.5410971e-06 1.1810208e-06 0 3.6262706e-06 0 0)
(3.7426914e-06 7.7909999e-07 0 2.3387656e-06 0 0)
(3.1166408e-06 5.0051034e-07 0 1.3586357e-06 0 0)
(2.6408651e-06 3.0137564e-07 0 6.6646618e-07 0 0)
(2.3050712e-06 1.5378153e-07 0 2.3169585e-07 0 0)
(2.1057929e-06 4.263101e-08 0 2.4706821e-08 0 0)
(0.00016859872 -4.6293214e-05 0 5.048951e-05 0 0)
(0.00016540069 -5.6064842e-05 0 9.014944e-05 0 0)
(0.00015468133 -4.9119058e-05 0 0.00010614242 0 0)
(0.00015232354 -9.8267817e-07 0 0.0001260714 0 0)
(0.00016677269 -1.3301466e-05 0 0.0001260407 0 0)
(0.00015924897 -2.4244333e-06 0 0.00011931841 0 0)
(0.00014804179 2.1413976e-06 0 0.00010222319 0 0)
(0.00012367477 1.3066484e-05 0 8.0164209e-05 0 0)
(9.6335433e-05 1.6593836e-05 0 6.1617913e-05 0 0)
(7.3283115e-05 1.9602945e-05 0 4.6453022e-05 0 0)
(5.5814424e-05 1.9757683e-05 0 3.7802243e-05 0 0)
(4.3876456e-05 1.8555016e-05 0 3.1920942e-05 0 0)
(3.5656653e-05 1.6691816e-05 0 2.8187523e-05 0 0)
(2.955161e-05 1.4843652e-05 0 2.5196323e-05 0 0)
(2.4598456e-05 1.2977078e-05 0 2.2719411e-05 0 0)
(2.0419004e-05 1.1105444e-05 0 2.0495181e-05 0 0)
(1.6861196e-05 9.1767517e-06 0 1.8314082e-05 0 0)
(1.387067e-05 7.2918765e-06 0 1.6108377e-05 0 0)
(1.1427255e-05 5.5761102e-06 0 1.3787803e-05 0 0)
(9.4145817e-06 4.0978945e-06 0 1.1438589e-05 0 0)
(7.7653104e-06 2.910662e-06 0 9.129945e-06 0 0)
(6.4015079e-06 1.9964857e-06 0 6.9877471e-06 0 0)
(5.2799676e-06 1.340773e-06 0 5.0904389e-06 0 0)
(4.3579359e-06 8.8340039e-07 0 3.5005064e-06 0 0)
(3.6104552e-06 5.7903428e-07 0 2.2364673e-06 0 0)
(3.0160502e-06 3.7223237e-07 0 1.2889927e-06 0 0)
(2.5627009e-06 2.2675841e-07 0 6.2829035e-07 0 0)
(2.2430373e-06 1.1689042e-07 0 2.1734086e-07 0 0)
(2.0572932e-06 3.240252e-08 0 2.3081504e-08 0 0)
(0.00030715854 -6.4246481e-05 0 6.3484772e-05 0 0)
(0.00025288408 -8.9551838e-05 0 0.0001098618 0 0)
(0.00022569165 -8.8265119e-05 0 0.00015136333 0 0)
(0.00021716984 -6.6456744e-05 0 0.0001748858 0 0)
(0.00022000281 -4.2051769e-06 0 0.00019145876 0 0)
(0.00022440949 -2.0660914e-05 0 0.00017874716 0 0)
(0.00020298315 -6.5095691e-06 0 0.00015933312 0 0)
(0.00017448416 1.5777913e-06 0 0.00012919714 0 0)
(0.00013678791 1.3517295e-05 0 9.5762097e-05 0 0)
(0.00010108224 1.795797e-05 0 7.1342944e-05 0 0)
(7.3810659e-05 1.9990968e-05 0 5.3431152e-05 0 0)
(5.503468e-05 1.9131075e-05 0 4.2853036e-05 0 0)
(4.2747495e-05 1.7530811e-05 0 3.5173983e-05 0 0)
(3.4242101e-05 1.5729581e-05 0 3.0195e-05 0 0)
(2.7918236e-05 1.3973261e-05 0 2.6428154e-05 0 0)
(2.2898392e-05 1.214669e-05 0 2.3619009e-05 0 0)
(1.8861351e-05 1.0217487e-05 0 2.1171183e-05 0 0)
(1.5535025e-05 8.2282214e-06 0 1.88636e-05 0 0)
(1.28525e-05 6.3415029e-06 0 1.6457083e-05 0 0)
(1.0668469e-05 4.677046e-06 0 1.3974185e-05 0 0)
(8.8794346e-06 3.3152591e-06 0 1.1458596e-05 0 0)
(7.3894014e-06 2.253763e-06 0 9.0490181e-06 0 0)
(6.1462525e-06 1.4888612e-06 0 6.842744e-06 0 0)
(5.1048631e-06 9.5995495e-07 0 4.931254e-06 0 0)
(4.2368202e-06 6.2028127e-07 0 3.35639e-06 0 0)
(3.5216083e-06 4.0326198e-07 0 2.1257857e-06 0 0)
(2.9481847e-06 2.6349258e-07 0 1.2162761e-06 0 0)
(2.5080406e-06 1.6414154e-07 0 5.8953566e-07 0 0)
(2.1985897e-06 8.6322375e-08 0 2.0306542e-07 0 0)
(2.0223113e-06 2.3999045e-08 0 2.1485897e-08 0 0)
(0.00053722054 -7.9868337e-05 -3.0581407e-26 7.2469869e-05 7.6862966e-26 1.5125222e-46)
(0.00040177 -0.00011695048 0 0.00014365224 0 0)
(0.00032445004 -0.00013983249 0 0.00019715148 0 0)
(0.00031164709 -0.00012520557 0 0.00024370551 0 0)
(0.00030866611 -8.3077726e-05 0 0.00027309585 0 0)
(0.00031672894 -9.3567099e-06 0 0.0002778859 0 0)
(0.00029404432 -2.7361992e-05 0 0.00024227437 0 0)
(0.00024964619 -9.9235036e-06 0 0.00020475024 0 0)
(0.00020128121 1.3016156e-06 0 0.00015702408 0 0)
(0.000149305 1.4732527e-05 0 0.00011247843 0 0)
(0.000105511 1.8570376e-05 0 8.2931426e-05 0 0)
(7.5085031e-05 1.9203265e-05 0 6.12998e-05 0 0)
(5.5041117e-05 1.7871601e-05 0 4.7579435e-05 0 0)
(4.1902032e-05 1.6419876e-05 0 3.7842976e-05 0 0)
(3.2787618e-05 1.4806588e-05 0 3.1652777e-05 0 0)
(2.6175924e-05 1.3143908e-05 0 2.7425042e-05 0 0)
(2.1204672e-05 1.1256161e-05 0 2.4388643e-05 0 0)
(1.7392493e-05 9.223993e-06 0 2.1852008e-05 0 0)
(1.4400663e-05 7.1799524e-06 0 1.9350801e-05 0 0)
(1.2023202e-05 5.3162488e-06 0 1.6762755e-05 0 0)
(1.0097587e-05 3.7591902e-06 0 1.4070918e-05 0 0)
(8.4915896e-06 2.5275744e-06 0 1.1414629e-05 0 0)
(7.1369483e-06 1.6305604e-06 0 8.902394e-06 0 0)
(5.9843032e-06 1.0100906e-06 0 6.6558604e-06 0 0)
(5.0005282e-06 6.2146598e-07 0 4.7436262e-06 0 0)
(4.1663054e-06 3.8764724e-07 0 3.1977258e-06 0 0)
(3.4697806e-06 2.5472979e-07 0 2.0092341e-06 0 0)
(2.9056955e-06 1.7237603e-07 0 1.1422812e-06 0 0)
(2.4717951e-06 1.1265915e-07 0 5.50949e-07 0 0)
(2.1678347e-06 6.1421907e-08 0 1.8903902e-07 0 0)
(1.9978039e-06 1.7223414e-08 0 1.9934104e-08 0 0)
(0.00086445466 -9.5494378e-05 4.3604779e-26 8.8832231e-05 -1.2401249e-25 4.5758053e-46)
(0.00063697037 -0.00014884655 9.3089756e-26 0.00017866348 8.4014675e-27 1.6517169e-46)
(0.00047906849 -0.00017679287 0 0.00025407324 0 0)
(0.00042374992 -0.00019924239 0 0.0003261413 0 0)
(0.00043350958 -0.00017107768 0 0.00038067284 0 0)
(0.00043940398 -9.9283309e-05 0 0.00040383813 0 0)
(0.00043870799 -1.1998289e-05 0 0.00038247358 0 0)
(0.00036915253 -3.4617929e-05 0 0.00031750522 0 0)
(0.00029940708 -1.3171365e-05 0 0.00025196793 0 0)
(0.00022797249 2.651287e-06 0 0.00018647532 0 0)
(0.00016123916 1.5408901e-05 0 0.0001321428 0 0)
(0.00011086363 1.7525201e-05 0 9.5838979e-05 0 0)
(7.7386138e-05 1.7618138e-05 0 6.8640298e-05 0 0)
(5.5345591e-05 1.6574861e-05 0 5.1375312e-05 0 0)
(4.0868381e-05 1.5434984e-05 0 3.9703519e-05 0 0)
(3.1081415e-05 1.4002388e-05 0 3.2740898e-05 0 0)
(2.4336594e-05 1.2287e-05 0 2.8276273e-05 0 0)
(1.9567804e-05 1.0247568e-05 0 2.520291e-05 0 0)
(1.612017e-05 8.0927967e-06 0 2.2505166e-05 0 0)
(1.3486704e-05 6.0254218e-06 0 1.9812392e-05 0 0)
(1.1415136e-05 4.2518326e-06 0 1.6971551e-05 0 0)
(9.7013431e-06 2.8262363e-06 0 1.4093159e-05 0 0)
(8.2474901e-06 1.7723605e-06 0 1.1286558e-05 0 0)
(6.9946714e-06 1.0373522e-06 0 8.6991865e-06 0 0)
(5.9041099e-06 5.812177e-07 0 6.4270989e-06 0 0)
(4.9568235e-06 3.1975227e-07 0 4.5325283e-06 0 0)
(4.1379008e-06 1.9120804e-07 0 3.0281909e-06 0 0)
(3.4465189e-06 1.3011243e-07 0 1.8885191e-06 0 0)
(2.8834153e-06 9.8232558e-08 0 1.0679669e-06 0 0)
(2.4497362e-06 7.124059e-08 0 5.1292904e-07 0 0)
(2.1475454e-06 4.1561973e-08 0 1.7538166e-07 0 0)
(1.9812428e-06 1.1894607e-08 0 1.843672e-08 0 0)
(0.0013155303 -0.00010332032 -2.849295e-26 0.00010541909 1.3298097e-25 4.6126436e-46)
(0.00095674134 -0.00017575501 -2.0380804e-25 0.00022797501 -7.2298191e-27 1.0254148e-45)
(0.00071926713 -0.00022433148 0 0.00032495281 0 0)
(0.00058533444 -0.00024707878 0 0.00041654891 0 0)
(0.00056413327 -0.00027456838 0 0.00051474962 0 0)
(0.00059629949 -0.0002237465 0 0.00056758618 0 0)
(0.00060784077 -0.00010898759 0 0.00056592724 0 0)
(0.00057097278 -1.5852393e-05 0 0.00050310508 0 0)
(0.00045041743 -4.2519335e-05 0 0.00039882816 0 0)
(0.0003508293 -1.3964648e-05 0 0.00030165907 0 0)
(0.00025369134 3.6861908e-06 0 0.00022035907 0 0)
(0.00017425405 1.3928745e-05 0 0.00015371142 0 0)
(0.00011755256 1.5473351e-05 0 0.00010786052 0 0)
(7.9905349e-05 1.6112595e-05 0 7.4513847e-05 0 0)
(5.5196594e-05 1.5525912e-05 0 5.3974433e-05 0 0)
(3.9364967e-05 1.4674676e-05 0 4.0977008e-05 0 0)
(2.9123825e-05 1.3229891e-05 0 3.3646064e-05 0 0)
(2.2492231e-05 1.130678e-05 0 2.9234956e-05 0 0)
(1.813391e-05 9.052614e-06 0 2.6053156e-05 0 0)
(1.5105949e-05 6.809974e-06 0 2.3170943e-05 0 0)
(1.2840273e-05 4.8013773e-06 0 2.0177255e-05 0 0)
(1.1016353e-05 3.1577291e-06 0 1.7096379e-05 0 0)
(9.4739419e-06 1.9216686e-06 0 1.401076e-05 0 0)
(8.133183e-06 1.0469611e-06 0 1.1084967e-05 0 0)
(6.9475627e-06 5.0084146e-07 0 8.4370381e-06 0 0)
(5.8969998e-06 1.9549701e-07 0 6.1629864e-06 0 0)
(4.9611012e-06 6.4312606e-08 0 4.3031144e-06 0 0)
(4.1432006e-06 2.5953979e-08 0 2.8505127e-06 0 0)
(3.4457887e-06 2.9810061e-08 0 1.7666192e-06 0 0)
(2.8762297e-06 3.913787e-08 0 9.9424856e-07 0 0)
(2.4383022e-06 3.8727279e-08 0 4.7579251e-07 0 0)
(2.1350029e-06 2.6169041e-08 0 1.6219621e-07 0 0)
(1.9705203e-06 7.8560197e-09 0 1.7002823e-08 0 0)
(0.0018828135 -0.00010878824 0 0.00012522729 0 0)
(0.0013861895 -0.00019610213 1.5563552e-25 0.00028425959 3.0980922e-26 1.0287786e-45)
(0.0010304614 -0.00025943891 0 0.00040949661 0 0)
(0.00082929749 -0.00031197709 0 0.00053730984 0 0)
(0.0007367415 -0.00033877398 0 0.00065592783 0 0)
(0.00075093066 -0.00036542272 0 0.00076924469 0 0)
(0.00079454213 -0.00026634511 0 0.00080584806 0 0)
(0.00080399235 -0.00011433479 0 0.00076148814 0 0)
(0.0007094084 -2.3496605e-05 0 0.00062894953 0 0)
(0.0005359495 -4.6010453e-05 0 0.00048623998 0 0)
(0.0004011323 -1.4907473e-05 0 0.00035833785 0 0)
(0.0002806155 1.6892107e-06 0 0.00025690028 0 0)
(0.00018901421 1.1274246e-05 0 0.00017378311 0 0)
(0.00012423632 1.3756196e-05 0 0.00011760804 0 0)
(8.1520902e-05 1.500739e-05 0 7.8635391e-05 0 0)
(5.4250008e-05 1.483971e-05 0 5.5625016e-05 0 0)
(3.7385673e-05 1.4049791e-05 0 4.1986181e-05 0 0)
(2.7052448e-05 1.2346108e-05 0 3.4753968e-05 0 0)
(2.0850782e-05 1.0077103e-05 0 3.0335339e-05 0 0)
(1.701167e-05 7.6440211e-06 0 2.6977699e-05 0 0)