/*--------------------------------*- C++ -*----------------------------------*\
| =========                 |                                                 |
| \\      /  F ield         | OpenFOAM: The Open Source CFD Toolbox           |
|  \\    /   O peration     | Version:  5.0                                   |
|   \\  /    A nd           | Web:      www.OpenFOAM.org                      |
|    \\/     M anipulation  |                                                 |
\*---------------------------------------------------------------------------*/
FoamFile
{
    version     2.0;
    format      ascii;
    class       volVectorField;
    location    "180";
    object      ddt0(U);
}
// * * * * * * * * * * * * * * * * * * * * * * * * * * * * * * * * * * * * * //

dimensions      [0 1 -2 0 0 0 0];

internalField   nonuniform List<vector> 
9520
(
(-0.00020528759 -1.1879059e-06 0)
(-0.00020339761 -2.9854473e-06 0)
(-0.00020239356 -7.9134437e-07 0)
(-0.00019950181 -4.1093441e-06 0)
(-0.00020120274 -2.7619408e-06 0)
(-0.00020112906 3.1236196e-06 0)
(-0.0001934639 -4.7585501e-06 0)
(-0.00019808619 -4.4620356e-06 0)
(-0.00019943722 7.9963262e-06 0)
(-0.00021222647 8.0802957e-06 0)
(-0.00018531545 -4.4334915e-06 0)
(-0.00019342245 -5.8764224e-06 0)
(-0.00019611439 1.1891922e-05 0)
(-0.00020939325 2.2974935e-05 0)
(-0.00022572983 9.2901363e-06 0)
(-0.00017548047 -3.5724914e-06 0)
(-0.00018700777 -5.619654e-06 0)
(-0.00019217504 1.5220079e-05 0)
(-0.00020517762 3.6261017e-05 0)
(-0.00022273398 2.7977872e-05 0)
(-0.000240288 6.6155706e-06 0)
(-0.00016374926 -2.2064806e-06 0)
(-0.00017867176 -3.8506678e-06 0)
(-0.00018749728 1.8634827e-05 0)
(-0.00020030904 4.8536156e-05 0)
(-0.00021857483 4.5894013e-05 0)
(-0.00023852752 2.1333262e-05 0)
(-0.00024851571 2.2370457e-06 0)
(-0.00014937211 2.2804057e-07 0)
(-0.00016891564 -7.9305649e-07 0)
(-0.00018106798 2.2898585e-05 0)
(-0.00019523389 5.8940759e-05 0)
(-0.00021328692 6.3406564e-05 0)
(-0.0002356959 3.6720881e-05 0)
(-0.00024812351 8.2609012e-06 0)
(-0.00024802417 -1.0891567e-07 0)
(-0.00013089131 4.9173076e-06 0)
(-0.0001585381 3.7279156e-06 0)
(-0.00017342176 2.828025e-05 0)
(-0.0001894387 6.8789922e-05 0)
(-0.00020757964 7.8779678e-05 0)
(-0.0002310478 5.2867102e-05 0)
(-0.00024665718 1.5528566e-05 0)
(-0.00024876059 -1.1967165e-07 0)
(-0.00024772034 1.5563803e-06 0)
(-0.0001058363 1.4553956e-05 0)
(-0.00014986022 1.054594e-05 0)
(-0.00016611307 3.4801261e-05 0)
(-0.00018292478 7.8862876e-05 0)
(-0.00020205843 9.2892043e-05 0)
(-0.00022525058 6.8663027e-05 0)
(-0.00024317851 2.3881454e-05 0)
(-0.0002483912 4.5727248e-07 0)
(-0.00024815112 3.2158188e-06 0)
(-0.0002514836 6.2870445e-06 0)
(-7.0812852e-05 3.6977286e-05 0)
(-0.00014734766 2.3237462e-05 0)
(-0.00016283047 4.2237309e-05 0)
(-0.00017589895 8.9429164e-05 0)
(-0.00019640788 0.00010645967 0)
(-0.00021999692 8.3774329e-05 0)
(-0.00023834165 3.4518722e-05 0)
(-0.00024730796 9.287043e-07 0)
(-0.00024736765 4.398261e-06 0)
(-0.00025096623 1.6420738e-05 0)
(-0.00026250616 1.1381717e-05 0)
(-3.4429542e-05 7.7637231e-05 0)
(-0.00016161306 4.6609239e-05 0)
(-0.00017058669 4.9407801e-05 0)
(-0.00016810679 9.9522679e-05 0)
(-0.00018952352 0.00011981235 0)
(-0.00021519247 9.8604957e-05 0)
(-0.00023430913 4.5637421e-05 0)
(-0.00024405302 4.2754309e-06 0)
(-0.0002468824 4.8154019e-06 0)
(-0.00024970675 2.4974121e-05 0)
(-0.00026094285 3.1998273e-05 0)
(-0.00027856686 1.4085114e-05 0)
(-2.6463968e-05 0.0001448912 0)
(-0.00022160621 8.812635e-05 0)
(-0.00020316633 5.1558429e-05 0)
(-0.0001597904 0.00010419955 0)
(-0.00017785381 0.00013231295 0)
(-0.00021008688 0.00011371205 0)
(-0.00023151116 5.6655805e-05 0)
(-0.00024037647 8.7471296e-06 0)
(-0.00024677666 5.3890124e-06 0)
(-0.00024820904 3.3280125e-05 0)
(-0.0002596512 5.0488696e-05 0)
(-0.00027663531 4.1561175e-05 0)
(-0.00029615355 1.3106787e-05 0)
(-1.461656e-05 0.00023671372 0)
(-0.0003150901 0.00014928901 0)
(-0.00023947305 3.6337137e-05 0)
(-0.0001435262 9.3306645e-05 0)
(-0.00015514482 0.00014166434 0)
(-0.00020283794 0.00013069949 0)
(-0.00023072588 6.7740732e-05 0)
(-0.00023670988 1.2418737e-05 0)
(-0.00024308166 6.6991752e-06 0)
(-0.00024643743 4.0140152e-05 0)
(-0.00025840703 6.8413127e-05 0)
(-0.00027533678 6.7593532e-05 0)
(-0.00029495367 4.0402049e-05 0)
(-0.00031007137 8.9504469e-06 0)
(-3.0648094e-05 0.00035031074 0)
(-0.00037677806 0.00017631154 0)
(-0.00020837497 -3.2528423e-05 0)
(-8.3230126e-05 5.8783226e-05 0)
(-0.00010361775 0.00014650374 0)
(-0.00018687994 0.00015370515 0)
(-0.00023349837 8.0725318e-05 0)
(-0.00023492655 1.3949057e-05 0)
(-0.00023718402 7.3341487e-06 0)
(-0.00024321135 4.6277186e-05 0)
(-0.00025662511 8.5063126e-05 0)
(-0.0002742508 9.2009874e-05 0)
(-0.00029389074 6.7887742e-05 0)
(-0.00031053706 2.9143245e-05 0)
(-0.00031775983 3.4065611e-06 0)
(-5.4020046e-05 0.00048377256 0)
(-0.00047278944 0.00018683493 0)
(-0.00016876194 -0.00013325836 0)
(1.7724813e-05 -1.4118016e-05 0)
(-2.297348e-05 0.0001475757 0)
(-0.00016081584 0.0001932521 0)
(-0.00024598922 0.00010227946 0)
(-0.0002394909 1.2714898e-05 0)
(-0.00023011425 5.1839152e-06 0)
(-0.00023690183 5.2399521e-05 0)
(-0.00025307666 0.00010085448 0)
(-0.00027272874 0.00011540777 0)
(-0.00029297134 9.4216097e-05 0)
(-0.0003108706 5.1007822e-05 0)
(-0.00032000487 1.2713207e-05 0)
(-0.0003190263 -1.2531745e-06 0)
(-0.00010985137 0.00063881059 0)
(-0.00059666065 0.00013230438 0)
(-0.00011779938 -0.00025510379 0)
(8.3052685e-05 -8.8958752e-05 0)
(5.5190265e-05 0.00016635365 0)
(-0.00013656002 0.00026064329 0)
(-0.00027914081 0.00014045712 0)
(-0.00026050677 6.7197988e-06 0)
(-0.00022342922 -3.3848283e-06 0)
(-0.0002263937 5.7916648e-05 0)
(-0.00024714472 0.00011725189 0)
(-0.00027063484 0.00013850012 0)
(-0.00029247324 0.00011889868 0)
(-0.00031072467 7.4881014e-05 0)
(-0.00032312805 2.3998089e-05 0)
(-0.0003225066 -1.9899073e-06 0)
(-0.00031623343 -3.2256599e-06 0)
(-0.00015379567 0.0008426702 0)
(-0.00085331717 0.00018529167 0)
(-0.00012397739 -0.00043151882 0)
(0.00026727447 -0.00017324518 0)
(0.00013739164 0.00021498427 0)
(-0.00012780006 0.00039212665 0)
(-0.00035353094 0.00020747951 0)
(-0.00030547714 -9.1470523e-06 0)
(-0.00021363342 -2.5286094e-05 0)
(-0.00020949074 6.0850857e-05 0)
(-0.0002371948 0.00013550346 0)
(-0.0002678447 0.00016272707 0)
(-0.00029253377 0.00014430062 0)
(-0.00031131656 9.7109933e-05 0)
(-0.00032413726 4.0701821e-05 0)
(-0.00032810281 -1.0119413e-06 0)
(-0.00032036077 -9.1262799e-06 0)
(-0.00031291073 -2.0059111e-06 0)
(-0.00031288149 0.0011567936 0)
(-0.0012245336 -4.9581393e-05 0)
(-0.00012294712 -0.00067339585 0)
(0.00051508888 -0.00029199905 0)
(0.00022366107 0.00030693478 0)
(-0.00012899925 0.00056241752 0)
(-0.00047646329 0.00031380012 0)
(-0.00038869342 -3.6068466e-05 0)
(-0.000208963 -7.1237628e-05 0)
(-0.00018377183 5.7180487e-05 0)
(-0.00021995869 0.00015654887 0)
(-0.000263159 0.00019005037 0)
(-0.00029371604 0.00017114888 0)
(-0.00031364863 0.0001206238 0)
(-0.00032609791 5.9215046e-05 0)
(-0.00033378521 3.1702594e-06 0)
(-0.00032646305 -1.3229334e-05 0)
(-0.00031737976 -6.8653127e-06 0)
(-0.00031197134 1.4543622e-06 0)
(-0.00044544755 0.0013725389 0)
(-0.0018227552 0.0001123295 0)
(-8.131366e-05 -0.0010883407 0)
(0.00093127853 -0.00053719211 0)
(0.00045633449 0.00047644798 0)
(-0.00017395772 0.0007801849 0)
(-0.00065368054 0.0004621824 0)
(-0.00052208024 -9.196009e-05 0)
(-0.00020824 -0.0001536318 0)
(-0.00014349857 4.2625253e-05 0)
(-0.00019049417 0.00018090241 0)
(-0.00025412882 0.00022283892 0)
(-0.00029611021 0.0002013859 0)
(-0.00031829532 0.00014527347 0)
(-0.00033034241 7.8333372e-05 0)
(-0.00033617065 1.5630121e-05 0)
(-0.00033482437 -1.8873981e-05 0)
(-0.0003227821 -9.7513935e-06 0)
(-0.000316513 2.2273846e-06 0)
(-0.00031462181 5.3952454e-06 0)
(-0.00062349809 0.0020134155 0)
(-0.0022892762 -0.00048055251 0)
(2.2612744e-05 -0.0015256307 0)
(0.0014221084 -0.00073624699 0)
(0.00084145429 0.00074623149 0)
(-0.00025876864 0.0010930461 0)
(-0.0009273806 0.00065861845 0)
(-0.00072128587 -0.00017846711 0)
(-0.00022927109 -0.00030759173 0)
(-8.0849752e-05 6.7600076e-07 0)
(-0.0001385773 0.0002087218 0)
(-0.0002361206 0.00026538213 0)
(-0.0003001459 0.00023806599 0)
(-0.00032658528 0.000171758 0)
(-0.0003365417 9.7326984e-05 0)
(-0.00034051099 2.8464933e-05 0)
(-0.00034323289 -1.8749683e-05 0)
(-0.00033104709 -1.5300561e-05 0)
(-0.00032181807 4.105184e-06 0)
(-0.0003187466 1.3437542e-05 0)
(-0.00032044903 8.23644e-06 0)
(-0.00077187811 0.0021228577 0)
(-0.0034000919 -9.0587205e-05 0)
(5.7660817e-07 -0.002424449 0)
(0.0022418817 -0.0012634342 0)
(0.0014222938 0.0011325224 0)
(-0.00041206923 0.0015886365 0)
(-0.0013638335 0.00089452308 0)
(-0.00094694091 -0.00034042303 0)
(-0.00016879556 -0.0005185674 0)
(2.2096713e-05 -8.4149158e-05 0)
(-4.60153e-05 0.00023432859 0)
(-0.00019872964 0.00032292744 0)
(-0.00030567043 0.000287772 0)
(-0.00034177914 0.00020174259 0)
(-0.00034647677 0.00011484255 0)
(-0.00034569244 3.9810855e-05 0)
(-0.00034797723 -1.5273857e-05 0)
(-0.00034036878 -1.8631911e-05 0)
(-0.00032963249 7.0018289e-06 0)
(-0.00032527974 2.0588912e-05 0)
(-0.0003237048 2.2499858e-05 0)
(-0.00032806446 9.1808448e-06 0)
(-0.0011901434 0.0032085993 0)
(-0.0037673541 -0.0011502622 0)
(0.00018095293 -0.0030710785 0)
(0.0031035906 -0.0015572622 0)
(0.0021832625 0.0016221376 0)
(-0.00060951782 0.0023009452 0)
(-0.0020379312 0.0012253562 0)
(-0.0013668001 -0.00057448191 0)
(-0.00018022319 -0.00093695299 0)
(0.00027043799 -0.00023332376 0)
(0.0001533193 0.00026135824 0)
(-0.000123755 0.00040359564 0)
(-0.00031101599 0.00036108799 0)
(-0.00036938712 0.00023940994 0)
(-0.00036432307 0.0001295241 0)
(-0.00035199556 4.6824227e-05 0)
(-0.00035031371 -1.1744698e-05 0)
(-0.00034672724 -1.9973135e-05 0)
(-0.00033963645 8.5736407e-06 0)
(-0.00033351537 3.3589577e-05 0)
(-0.00033209417 3.442088e-05 0)
(-0.00033072847 2.6942864e-05 0)
(-0.00033571755 8.1040135e-06 0)
(-0.0021573696 0.0032232241 0)
(-0.0056903154 -0.00035029767 0)
(-2.5220418e-05 -0.0047581463 0)
(0.0046777642 -0.002769066 0)
(0.0032819879 0.0024072444 0)
(-0.00090972296 0.0033737952 0)
(-0.0029966439 0.0016235776 0)
(-0.001964744 -0.00096167323 0)
(-0.00011542889 -0.0014226282 0)
(0.00068242927 -0.0004455415 0)
(0.00035409262 0.00023205189 0)
(5.89216e-06 0.0005344769 0)
(-0.00031580028 0.00048112782 0)
(-0.00042030035 0.0002928539 0)
(-0.00039770264 0.00013943477 0)
(-0.00036144251 4.5486326e-05 0)
(-0.00035002893 -1.2437832e-05 0)
(-0.00034922624 -2.0228949e-05 0)
(-0.00034687802 1.3343171e-05 0)
(-0.00034410571 4.3907008e-05 0)
(-0.0003422246 5.3006087e-05 0)
(-0.00034040431 4.3535025e-05 0)
(-0.00033899875 2.5901921e-05 0)
(-0.00034188247 5.1968908e-06 0)
(-0.0021545707 0.0045297092 0)
(-0.005969157 -0.0023159058 0)
(0.00068145899 -0.0056776094 0)
(0.0058612356 -0.0026884828 0)
(0.0045912743 0.0031370359 0)
(-0.0012583126 0.0048305395 0)
(-0.0043600887 0.0022300272 0)
(-0.0028346184 -0.0015115046 0)
(-6.296332e-05 -0.0022351467 0)
(0.0012008994 -0.00086511258 0)
(0.00072582944 0.00036295887 0)
(0.00015606949 0.00072814604 0)
(-0.00033164878 0.00067628005 0)
(-0.00051282526 0.00037921749 0)
(-0.00046137057 0.00014256491 0)
(-0.00037807432 2.8385563e-05 0)
(-0.00034609643 -2.2493512e-05 0)
(-0.00034548984 -2.1168808e-05 0)
(-0.00034985109 2.1110088e-05 0)
(-0.00035422695 5.7409964e-05 0)
(-0.00035363583 7.2436373e-05 0)
(-0.00035353243 6.2083728e-05 0)
(-0.00034891743 4.6014073e-05 0)
(-0.00034696544 1.9209332e-05 0)
(-0.00034536832 8.4581447e-07 0)
(-0.0027380448 0.0045411477 0)
(-0.0083597367 -0.0014096185 0)
(0.0012959764 -0.0080899628 0)
(0.0085026555 -0.0049176483 0)
(0.0062789875 0.0045534493 0)
(-0.0018697352 0.0068171312 0)
(-0.0061656404 0.0027922645 0)
(-0.0039892697 -0.002343118 0)
(5.1377167e-05 -0.0033484838 0)
(0.0019931569 -0.0014098297 0)
(0.0014192103 0.00052866774 0)
(0.00028245658 0.0010320192 0)
(-0.00038257061 0.0010178798 0)
(-0.00068239749 0.00051912254 0)
(-0.00057762135 0.0001363415 0)
(-0.00041009175 -1.5773006e-05 0)
(-0.00033741981 -5.1254013e-05 0)
(-0.00033142491 -2.5671481e-05 0)
(-0.00034602187 3.1824689e-05 0)
(-0.0003608586 7.5525736e-05 0)
(-0.00036681274 9.3641347e-05 0)
(-0.00036696503 8.7079754e-05 0)
(-0.00036435 6.2682675e-05 0)
(-0.00035701972 3.8037665e-05 0)
(-0.00035246617 6.9678192e-06 0)
(-0.00034503461 -4.4167216e-06 0)
(-0.0060247219 0.0059727316 0)
(-0.0091196013 -0.003425538 0)
(0.00094381846 -0.0095440598 0)
(0.010496528 -0.0043575642 0)
(0.0074584121 0.0052988055 0)
(-0.0022504243 0.0094279834 0)
(-0.0086894064 0.0039263809 0)
(-0.0056290127 -0.0034183103 0)
(0.00019605146 -0.0048732087 0)
(0.0030547098 -0.0022079174 0)
(0.0024176139 0.00074747912 0)
(0.00050804744 0.0015401124 0)
(-0.00050849196 0.0014683226 0)
(-0.00095186846 0.00075046738 0)
(-0.0007909235 0.00011118582 0)
(-0.00047337068 -0.0001107735 0)
(-0.00032101814 -0.00011186531 0)
(-0.00030068054 -3.9340174e-05 0)
(-0.00033036894 4.4891263e-05 0)
(-0.00036171932 9.981246e-05 0)
(-0.00037846521 0.0001195646 0)
(-0.00038268377 0.00011318908 0)
(-0.00038100639 8.6062543e-05 0)
(-0.00037290049 5.3377699e-05 0)
(-0.00036393261 1.7131708e-05 0)
(-0.0003536009 -9.706231e-06 0)
(-0.00034037064 -9.9413138e-06 0)
(-0.0085203478 0.0057376464 0)
(-0.011205737 -0.0026005296 0)
(0.0013185551 -0.013815424 0)
(0.013943244 -0.007075049 0)
(0.0096292338 0.0079556061 0)
(-0.0029692455 0.01298095 0)
(-0.011762496 0.0045193635 0)
(-0.0076126578 -0.0048774707 0)
(0.00036670137 -0.0069338585 0)
(0.0045030834 -0.0033766241 0)
(0.0038492552 0.0010384068 0)
(0.00091857413 0.0023718295 0)
(-0.00073313742 0.0020958508 0)
(-0.0013653246 0.0010654362 0)
(-0.0011051103 5.5386813e-05 0)
(-0.00058071885 -0.00028204265 0)
(-0.00029180328 -0.00022395113 0)
(-0.00024353431 -7.2137512e-05 0)
(-0.00029429403 5.9543054e-05 0)
(-0.0003522554 0.00013191702 0)
(-0.0003868081 0.00015316922 0)
(-0.00039930773 0.00014358733 0)
(-0.00039920949 0.0001123327 0)
(-0.00039282994 6.9720872e-05 0)
(-0.00037987668 2.9662728e-05 0)
(-0.00036705765 -1.2241477e-05 0)
(-0.0003496895 -2.7591411e-05 0)
(-0.00033200452 -1.4854248e-05 0)
(-0.0092704078 0.0062636753 0)
(-0.0089981695 -0.0061985567 0)
(0.0045701135 -0.014354684 0)
(0.015774405 -0.006232395 0)
(0.012738928 0.0086904186 0)
(-0.0050094972 0.016891484 0)
(-0.016025313 0.0064008154 0)
(-0.010458883 -0.0067272395 0)
(0.00062311098 -0.009741868 0)
(0.006483715 -0.0048488799 0)
(0.0058220045 0.0013831245 0)
(0.0015786678 0.0035933792 0)
(-0.0010877845 0.0030513291 0)
(-0.0020441277 0.0014977808 0)
(-0.0015629685 -3.3195831e-05 0)
(-0.0007549759 -0.00057672195 0)
(-0.00024424614 -0.00042348858 0)
(-0.00014500484 -0.0001403236 0)
(-0.00022356852 7.3278786e-05 0)
(-0.00032467594 0.00017558983 0)
(-0.00038870227 0.00019797021 0)
(-0.00041575127 0.00018160028 0)
(-0.00042058305 0.00014360593 0)
(-0.00041482935 9.2575676e-05 0)
(-0.00040165994 4.1182111e-05 0)
(-0.0003839725 -4.2276298e-06 0)
(-0.00036662172 -4.2634931e-05 0)
(-0.00034186976 -4.2678822e-05 0)
(-0.00032108488 -1.8388579e-05 0)
(-0.010309827 0.0052935904 0)
(-0.0078225919 -0.0064396305 0)
(0.0093974617 -0.019399213 0)
(0.022062759 -0.010191715 0)
(0.013507538 0.012148907 0)
(-0.0062109103 0.021595658 0)
(-0.020337047 0.0070054481 0)
(-0.013324716 -0.0091081139 0)
(0.0010145642 -0.013303645 0)
(0.0091363389 -0.0068849987 0)
(0.0085232073 0.0018174596 0)
(0.0025473473 0.0053200295 0)
(-0.0015998059 0.0044311183 0)
(-0.0030985253 0.0021012312 0)
(-0.0023273122 -0.00019522291 0)
(-0.00099813635 -0.0010267486 0)
(-0.00017448809 -0.00076052535 0)
(2.2468261e-05 -0.00026648498 0)
(-9.4800536e-05 8.2898863e-05 0)
(-0.00026539671 0.00023665849 0)
(-0.00037959904 0.00026105563 0)
(-0.00043118955 0.00023197659 0)
(-0.00044502029 0.00018213892 0)
(-0.00044125998 0.00012281536 0)
(-0.00042851047 6.114535e-05 0)
(-0.00040775413 4.2354804e-06 0)
(-0.00038639164 -4.4596634e-05 0)
(-0.00036024766 -6.5941379e-05 0)
(-0.0003316926 -5.2967862e-05 0)
(-0.00030883228 -2.0243196e-05 0)
(-0.011068302 0.0053375425 1.7900714e-23)
(-0.0067493448 -0.0093564446 0)
(0.012130327 -0.023571111 0)
(0.029418669 -0.008367729 0)
(0.01418731 0.010835191 0)
(-0.0014384002 0.028034903 0)
(-0.02510731 0.0091937124 0)
(-0.016417442 -0.012219905 0)
(0.0018343181 -0.01796631 0)
(0.012587334 -0.009356601 0)
(0.012069937 0.0023339756 0)
(0.003942942 0.007678647 0)
(-0.0023093448 0.0064936939 0)
(-0.0046486752 0.0029356229 0)
(-0.0034803856 -0.00047840838 0)
(-0.0013525858 -0.0016996935 0)
(-6.7165616e-05 -0.0013017588 0)
(0.00029839184 -0.00047577622 0)
(0.00012832624 8.6356676e-05 0)
(-0.00015657049 0.00032824602 0)
(-0.00035553588 0.00035240752 0)
(-0.00044750226 0.00030154281 0)
(-0.00047472256 0.00023233927 0)
(-0.00047288158 0.00016081434 0)
(-0.00045987379 8.7019816e-05 0)
(-0.00043831425 1.6230743e-05 0)
(-0.00041103348 -4.3349514e-05 0)
(-0.00038425744 -8.5120806e-05 0)
(-0.0003506513 -8.2339521e-05 0)
(-0.00032003501 -5.8602957e-05 0)
(-0.00029634054 -2.0538228e-05 0)
(-0.011812631 0.0045870198 -2.297754e-23)
(-0.0068545247 -0.010940453 -1.8716148e-23)
(0.015433898 -0.026590297 0)
(0.02903036 -0.0082810947 0)
(0.011692341 0.017328406 0)
(-0.0022401795 0.035932869 0)
(-0.030373286 0.0099021523 0)
(-0.021327362 -0.014998301 0)
(0.0028438954 -0.023635943 0)
(0.01709867 -0.012775267 0)
(0.016700172 0.0029943646 0)
(0.0057545426 0.010768453 0)
(-0.0032764701 0.0092957288 0)
(-0.0068549078 0.0041303326 0)
(-0.0051991134 -0.00091036647 0)
(-0.0019007296 -0.0027352052 0)
(0.0001251006 -0.0021071292 0)
(0.0007185828 -0.0008109738 0)
(0.00046484183 8.0068471e-05 0)
(1.3332151e-05 0.00046379243 0)
(-0.00031517252 0.00049488062 0)
(-0.00046768688 0.00040876794 0)
(-0.00051495715 0.00030322729 0)
(-0.00051358962 0.00020783313 0)
(-0.00049695789 0.00011793136 0)
(-0.00047267898 3.2057404e-05 0)
(-0.00044252319 -4.0235391e-05 0)
(-0.00041038485 -9.235331e-05 0)
(-0.00037633859 -0.00011017088 0)
(-0.00033938805 -9.231475e-05 0)
(-0.00030802509 -6.0140941e-05 0)
(-0.00028456302 -1.9607168e-05 0)
(-0.011991854 0.0040823688 2.3068628e-23)
(-0.0068665973 -0.013599473 6.5834996e-23)
(0.017233241 -0.030011 0)
(0.029963321 -0.0070349375 0)
(0.011040085 0.018285913 0)
(-0.017677204 0.042493613 0)
(-0.041110573 0.015310694 0)
(-0.033440934 -0.019183702 0)
(0.0031483282 -0.030278898 0)
(0.02267254 -0.016289415 0)
(0.022394782 0.0037413486 0)
(0.0082344772 0.014789215 0)
(-0.0045678167 0.013307726 0)
(-0.0099193799 0.0056938051 0)
(-0.007624553 -0.0015771846 0)
(-0.0027093008 -0.0042552347 0)
(0.00043345495 -0.0032984595 0)
(0.0013602214 -0.0013439975 0)
(0.0010234605 0.00010264124 0)
(0.00022504336 0.0006818225 0)
(-0.0002545761 0.00072671474 0)
(-0.00049526589 0.00057541462 0)
(-0.00057553104 0.00040347421 0)
(-0.00057112718 0.00026637164 0)
(-0.00054373442 0.00015306228 0)
(-0.00051235289 5.163284e-05 0)
(-0.00047867663 -3.3424489e-05 0)
(-0.00044426023 -9.5293463e-05 0)
(-0.00040513539 -0.00012994514 0)
(-0.00036639222 -0.00012515947 0)
(-0.00032755353 -9.5580863e-05 0)
(-0.00029654584 -5.8444608e-05 0)
(-0.00027370306 -1.7914894e-05 0)
(-0.011726103 0.0034486288 0)
(-0.006690427 -0.015842409 -6.5955025e-23)
(0.018428564 -0.033279127 0)
(0.031550602 -0.0060908578 0)
(0.0086658598 0.024977762 0)
(-0.02581587 0.050644837 0)
(-0.048958542 0.015257091 0)
(-0.03905477 -0.022987848 0)
(0.0023916788 -0.03969116 0)
(0.029331835 -0.021170314 0)
(0.029197755 0.0049903945 0)
(0.011037263 0.019808109 0)
(-0.0063064228 0.018482285 0)
(-0.014104216 0.0079091038 0)
(-0.011038723 -0.0024978124 0)
(-0.0038505595 -0.0064603309 0)
(0.00089648655 -0.0050182381 0)
(0.00233109 -0.0021231218 0)
(0.0018636186 6.8058302e-05 0)
(0.00072667857 0.0010278881 0)
(-8.0411754e-05 0.0010663799 0)
(-0.00052310788 0.0008197359 0)
(-0.00066671895 0.00054563596 0)
(-0.00065654522 0.00033945664 0)
(-0.00060790539 0.00019094424 0)
(-0.00056071475 7.1336143e-05 0)
(-0.00051912211 -2.3881392e-05 0)
(-0.00048132324 -9.397086e-05 0)
(-0.0004432383 -0.0001393082 0)
(-0.00039778294 -0.00015019252 0)
(-0.00035540129 -0.00013142883 0)
(-0.00031505948 -9.4335381e-05 0)
(-0.00028540745 -5.4723122e-05 0)
(-0.00026397666 -1.5981056e-05 0)
(-0.010851843 0.0027934615 -9.9546534e-24)
(-0.0065182784 -0.018331114 0)
(0.018965474 -0.037428244 -1.0517923e-22)
(0.03213023 -0.0051779526 0)
(0.0078348468 0.028702714 0)
(-0.030458594 0.05652926 0)
(-0.049643396 0.01501886 0)
(-0.031471095 -0.028060269 0)
(0.0032045232 -0.050959221 0)
(0.036962201 -0.025496284 0)
(0.036911268 0.0060607367 0)
(0.014346761 0.026109478 0)
(-0.0087240404 0.025624289 0)
(-0.019691249 0.010566329 0)
(-0.015566447 -0.0038216868 0)
(-0.0054146947 -0.0094988706 0)
(0.0015552515 -0.0074685479 0)
(0.0037531575 -0.0032294713 0)
(0.0031052066 1.4471712e-05 0)
(0.0014848402 0.0014960996 0)
(4.6039986e-05 0.0014856099 0)
(-0.00053446433 0.0011849058 0)
(-0.00080281218 0.00075037001 0)
(-0.00078822207 0.0004315716 0)
(-0.00070044079 0.00022910722 0)
(-0.00062298149 8.7405327e-05 0)
(-0.00056554712 -1.6314669e-05 0)
(-0.00052119274 -9.1858925e-05 0)
(-0.00048017925 -0.00014248595 0)
(-0.00043887993 -0.00016653098 0)
(-0.0003917072 -0.00016016895 0)
(-0.00034400261 -0.00012987904 0)
(-0.00030253415 -9.158559e-05 0)
(-0.00027397933 -5.0842797e-05 0)
(-0.00025563289 -1.4065728e-05 0)
(-0.0094031289 0.0022184433 3.8272234e-23)
(-0.0059669182 -0.020553545 1.1021432e-22)
(0.018599529 -0.041288857 1.051114e-22)
(0.031621107 -0.0043290356 -1.4937998e-22)
(0.0081421039 0.032678615 -1.2293885e-22)
(-0.033807688 0.06526627 0)
(-0.051396088 0.012967288 0)
(-0.027243679 -0.030972829 0)
(0.0086182135 -0.063384662 0)
(0.046848785 -0.0331529 0)
(0.046899249 0.0087411112 0)
(0.017859711 0.03349147 0)
(-0.01221039 0.034499149 0)
(-0.02728027 0.014227414 0)
(-0.021626105 -0.0055568045 0)
(-0.0074539446 -0.013686989 0)
(0.0025250961 -0.010819074 0)
(0.0057491166 -0.0047540273 0)
(0.0048896183 -8.2655779e-05 0)
(0.0025727957 0.0021753484 0)
(0.0003632954 0.0023078765 0)
(-0.00062231234 0.0017060149 0)
(-0.0010032992 0.0010691919 0)
(-0.00099591051 0.00055757567 0)
(-0.0008420508 0.00026187785 0)
(-0.00070881132 9.0611925e-05 0)
(-0.0006195599 -1.8202957e-05 0)
(-0.00056385614 -9.199461e-05 0)
(-0.00052041648 -0.00014605076 0)
(-0.00047535264 -0.00017649783 0)
(-0.00042930702 -0.00017996835 0)
(-0.00038368759 -0.00016011413 0)
(-0.00033316069 -0.0001225489 0)
(-0.0002950098 -8.709072e-05 0)
(-0.00026521346 -4.5690983e-05 0)
(-0.00024837742 -1.2546398e-05 0)
(-0.0075843043 0.0017087883 -4.7415674e-23)
(-0.005182794 -0.02262092 -1.6386279e-22)
(0.017552801 -0.045092766 0)
(0.030367907 -0.0033185863 4.362142e-22)
(0.0079683556 0.037848172 1.2240377e-22)
(-0.034832251 0.072571555 -5.8175727e-23)
(-0.05246822 0.011297871 -3.0560124e-23)
(-0.025470976 -0.040121984 0)
(0.014166948 -0.074096758 0)
(0.057747316 -0.039440081 0)
(0.062933758 0.0080707932 0)
(0.025121275 0.042032501 0)
(-0.016211519 0.046428348 0)
(-0.037267681 0.018007785 0)
(-0.029168007 -0.0079433785 0)
(-0.010088944 -0.019189977 0)
(0.0038842587 -0.015371695 0)
(0.0084975548 -0.0068028095 0)
(0.0073935666 -0.00022498987 0)
(0.0041298244 0.0031263162 0)
(0.00089497879 0.0034864105 0)
(-0.00081093678 0.0024897405 0)
(-0.0013343976 0.0015617485 0)
(-0.0013237964 0.00073373239 0)
(-0.0010617392 0.00028885814 0)
(-0.00083295045 6.7644887e-05 0)
(-0.00068630564 -4.2324938e-05 0)
(-0.00060610865 -0.00010436136 0)
(-0.00055864289 -0.00015165614 0)
(-0.00051675489 -0.00018395727 0)
(-0.00047194417 -0.00019147245 0)
(-0.00041955201 -0.00018264003 0)
(-0.00037203197 -0.00015357915 0)
(-0.00032337884 -0.000113627 0)
(-0.00028480504 -7.4485697e-05 0)
(-0.00025750673 -4.0639113e-05 0)
(-0.00024215611 -1.1638049e-05 0)
(-0.0057630129 0.0012541719 6.2433286e-24)
(-0.0039744357 -0.024247328 2.8258008e-23)
(0.015519787 -0.048645743 2.0545409e-23)
(0.027879599 -0.002613588 -1.292537e-22)
(0.0081557172 0.0421113 -2.9890061e-22)
(-0.035304493 0.080644169 6.5462095e-23)
(-0.052493023 0.012591999 -1.939447e-22)
(-0.024821238 -0.043305244 5.0645654e-24)
(0.02144031 -0.087013393 0)
(0.067711651 -0.048859453 0)
(0.070514111 0.013925179 0)
(0.033070215 0.052821772 0)
(-0.017932574 0.059160007 0)
(-0.047832181 0.022901919 0)
(-0.03821029 -0.011415263 0)
(-0.013003086 -0.02639478 0)
(0.0058037662 -0.021285453 0)
(0.012170764 -0.0095189686 0)
(0.010772349 -0.00041465129 0)
(0.006321488 0.0044075248 0)
(0.0016964781 0.0051715999 0)
(-0.0010470993 0.0037116313 0)
(-0.0018970821 0.0022118476 0)
(-0.0018108265 0.0010141034 0)
(-0.0014220903 0.00028452069 0)
(-0.0010171355 -1.5182867e-06 0)
(-0.00077127647 -0.00010811632 0)
(-0.00064654928 -0.00014199563 0)
(-0.0005895989 -0.00016580069 0)
(-0.00055300389 -0.00018945592 0)
(-0.00051388711 -0.00020149288 0)
(-0.00046654606 -0.00019696378 0)
(-0.00041278591 -0.00017761329 0)
(-0.00036228352 -0.0001435935 0)
(-0.00031392134 -0.0001037747 0)
(-0.00027682638 -6.7395966e-05 0)
(-0.0002507766 -3.7038381e-05 0)
(-0.00023654161 -1.1538366e-05 0)
(-0.0033965301 0.00089897644 7.801656e-24)
(-0.0025755378 -0.025652979 -9.4034092e-24)
(0.012946999 -0.051803792 0)
(0.024953356 -0.0010021667 1.1315427e-23)
(0.0077378189 0.046737246 -4.6947281e-23)
(-0.03432321 0.088760817 0)
(-0.050522055 0.011367104 1.5903527e-22)
(-0.025084503 -0.047766828 1.4153899e-22)
(0.02347218 -0.10121294 0)
(0.074999726 -0.048834362 0)
(0.075723839 0.013386934 0)
(0.027473379 0.060629353 0)
(-0.01917312 0.075880861 0)
(-0.057639717 0.026810126 0)
(-0.048330979 -0.015873211 0)
(-0.016072103 -0.035416121 0)
(0.0085328861 -0.02899593 0)
(0.017014415 -0.012852244 0)
(0.015247792 -0.00069853255 0)
(0.0093336714 0.0061091856 0)
(0.0028356701 0.0075029542 0)
(-0.0013365631 0.0055287033 0)
(-0.0027586036 0.0031731188 0)
(-0.0026088428 0.0013563631 0)
(-0.0019391982 0.00027930654 0)
(-0.0013069251 -0.00015397722 0)
(-0.00088707786 -0.000252144 0)
(-0.00068156107 -0.00022903782 0)
(-0.00060525444 -0.00020188226 0)
(-0.00057634574 -0.00019837051 0)
(-0.00055008723 -0.00020423331 0)
(-0.00051238067 -0.00020456246 0)
(-0.00046179029 -0.00019323775 0)
(-0.00040613004 -0.00016797057 0)
(-0.00035249884 -0.00013211231 0)
(-0.00030541892 -9.5167644e-05 0)
(-0.00026963158 -6.1944538e-05 0)
(-0.00024476809 -3.5474574e-05 0)
(-0.00023112497 -1.2268866e-05 0)
(-0.00078989191 0.00078137167 0)
(-0.0012574682 -0.026791021 0)
(0.010142627 -0.054215745 9.7136996e-24)
(0.020501477 0.0002166002 0)
(0.0064976231 0.050078047 5.5339198e-23)
(-0.032666673 0.096574242 3.2874748e-23)
(-0.048214591 0.011327823 -2.5201749e-22)
(-0.024217823 -0.051470169 5.3082945e-22)
(0.022651584 -0.11195771 0)
(0.080229104 -0.058202066 0)
(0.080054788 0.026704821 0)
(0.021242162 0.070683718 0)
(-0.0075065914 0.098979319 0)
(-0.071371088 0.035502492 0)
(-0.062581788 -0.020378901 0)
(-0.019917372 -0.046387006 0)
(0.012350374 -0.03845667 0)
(0.023229386 -0.017101526 0)
(0.021019436 -0.00097455388 0)
(0.01335827 0.008272062 0)
(0.0044871951 0.01067832 0)
(-0.0016984614 0.0081678559 0)
(-0.0040146097 0.0045785532 0)
(-0.0038538354 0.001808307 0)
(-0.0027305793 0.00022350429 0)
(-0.0017510364 -0.00043615827 0)
(-0.0010476526 -0.0004975838 0)
(-0.00070931317 -0.00039609544 0)
(-0.00059376189 -0.00028026866 0)
(-0.00057444472 -0.00021978027 0)
(-0.0005713476 -0.00020227844 0)
(-0.00055325915 -0.00020102245 0)
(-0.00051225869 -0.00019864293 0)
(-0.0004579888 -0.00018397873 0)
(-0.00039917518 -0.00015673364 0)
(-0.00034341113 -0.00012167431 0)
(-0.00029725183 -8.821591e-05 0)
(-0.00026279017 -6.0194539e-05 0)
(-0.00023879561 -3.6470446e-05 0)
(-0.00022551787 -1.3745969e-05 0)
(-0.00028390567 -0.027208759 4.2243291e-25)
(0.0012605882 0.00080998267 0)
(0.0055258208 -0.055794738 1.8401236e-23)
(0.015704518 0.0015077608 -2.628674e-23)
(0.0049789042 0.053091637 6.5510894e-23)
(-0.029632274 0.10374773 -1.6558761e-22)
(-0.043827271 0.01056154 -1.9937372e-23)
(-0.023132905 -0.05532086 2.9231001e-22)
(0.021595284 -0.12572641 -5.5623894e-22)
(0.07977848 -0.068427333 0)
(0.07694304 0.027480928 -8.4352038e-22)
(0.012997808 0.079932278 0)
(-0.018748321 0.12462911 0)
(-0.10285439 0.041953342 0)
(-0.084090133 -0.023421258 0)
(-0.028811813 -0.060227293 0)
(0.017798035 -0.050425581 0)
(0.031059794 -0.021767086 0)
(0.02818816 -0.0014371101 0)
(0.018576743 0.010989745 0)
(0.0067363845 0.01483208 0)
(-0.0021312986 0.011823589 0)
(-0.0058104597 0.0066574596 0)
(-0.0057025508 0.0024349558 0)
(-0.0039879336 4.647155e-05 0)
(-0.0023573289 -0.00084341649 0)
(-0.0013047063 -0.00095910543 0)
(-0.00072694562 -0.00069602753 0)
(-0.0005385816 -0.00042684551 0)
(-0.00052810581 -0.00026683514 0)
(-0.00056184763 -0.00019989428 0)
(-0.00057903876 -0.00018538248 0)
(-0.00056009569 -0.00018955825 0)
(-0.00051409238 -0.0001879901 0)
(-0.00045455385 -0.00017321079 0)
(-0.00039191628 -0.00014599636 0)
(-0.00033537837 -0.00011539334 0)
(-0.00028968381 -8.5602925e-05 0)
(-0.00025624897 -6.182047e-05 0)
(-0.00023299382 -3.9507669e-05 0)
(-0.0002195516 -1.5795638e-05 0)
(0.00070832181 -0.056800714 -1.8803469e-23)
(0.00068718704 -0.027217449 0)
(0.0037167184 0.0010688704 -2.3675786e-23)
(0.010114482 0.0023755501 2.6270836e-23)
(0.0035118617 0.055348624 1.5531512e-23)
(-0.025634462 0.11005756 9.1759531e-23)
(-0.038201037 0.0097939289 2.198657e-22)
(-0.020701226 -0.058642856 -7.9401988e-23)
(0.019487931 -0.1384722 -4.2147677e-22)
(0.077763454 -0.076339587 -4.7198375e-23)
(0.078203827 0.027094118 -9.3606745e-22)
(0.015685977 0.096629517 8.9248771e-22)
(-0.050873837 0.13961771 0)
(-0.12556676 0.05521339 0)
(-0.10733114 -0.030659065 0)
(-0.040270031 -0.07637132 0)
(0.0232048 -0.064568819 0)
(0.040790063 -0.02766382 0)
(0.036940673 -0.0016638657 0)
(0.025148365 0.014187239 0)
(0.0099113179 0.020233963 0)
(-0.002647893 0.0168695 0)
(-0.0083068931 0.0095413615 0)
(-0.0083606909 0.0033066913 0)
(-0.0058672149 -0.00028626785 0)
(-0.0032661495 -0.001542466 0)
(-0.0016600314 -0.0016513961 0)
(-0.00073144711 -0.0011813524 0)
(-0.00041522475 -0.0006993233 0)
(-0.0004075943 -0.00036543246 0)
(-0.00049912378 -0.0002025924 0)
(-0.00057455333 -0.00015538209 0)