/*--------------------------------*- C++ -*----------------------------------*\
| =========                 |                                                 |
| \\      /  F ield         | OpenFOAM: The Open Source CFD Toolbox           |
|  \\    /   O peration     | Version:  5.0                                   |
|   \\  /    A nd           | Web:      www.OpenFOAM.org                      |
|    \\/     M anipulation  |                                                 |
\*---------------------------------------------------------------------------*/
FoamFile
{
    version     2.0;
    format      ascii;
    class       volScalarField;
    location    "180";
    object      ddt0(nuTilda);
}
// * * * * * * * * * * * * * * * * * * * * * * * * * * * * * * * * * * * * * //

dimensions      [0 2 -2 0 0 0 0];

internalField   nonuniform List<scalar> 
9520
(
-6.7147119e-36
-7.8450696e-34
-1.4130515e-35
-4.4276551e-32
-1.5618179e-33
-1.1054433e-35
-1.5951537e-30
-8.2536113e-32
-1.1238508e-33
3.7856398e-36
-4.1598426e-29
-2.7572839e-30
-5.3374161e-32
6.5459124e-34
2.3321577e-35
-8.4816822e-28
-6.5780686e-29
-1.5578259e-30
4.785383e-32
2.8628913e-33
3.6561442e-35
-1.411418e-26
-1.2117519e-27
-3.0934154e-29
2.0696601e-30
1.6566075e-31
4.1119619e-33
3.2755169e-35
-1.9438544e-25
-1.8043775e-26
-4.3552738e-28
6.1645659e-29
6.0136869e-30
2.1850692e-31
3.1790653e-33
7.1594848e-36
-2.22623e-24
-2.2114579e-25
-4.1614537e-27
1.3838955e-27
1.54995e-28
7.297805e-30
1.4177344e-31
-2.2294533e-34
-3.4990559e-35
-2.0842061e-23
-2.2436415e-24
-1.7635298e-26
2.4749663e-26
3.0614834e-27
1.7256403e-28
3.8002905e-30
-6.5757795e-32
-5.0743091e-33
-7.7315335e-35
-1.4937465e-22
-1.8335457e-23
1.929582e-25
3.6449447e-25
4.8700934e-26
3.0981676e-27
6.5767209e-29
-4.0289539e-30
-3.2700536e-31
-9.1921017e-33
-9.6325332e-35
-4.7394806e-22
-1.0686665e-22
4.9520937e-24
4.4440076e-24
6.4536131e-25
4.4131102e-26
6.718749e-28
-1.4167032e-28
-1.2838629e-29
-5.0955284e-31
-9.9618162e-33
-7.1174172e-35
3.6048001e-20
1.4023393e-23
5.134406e-23
4.4759382e-23
7.2510499e-24
5.158624e-25
4.2530964e-28
-3.4990263e-27
-3.510307e-28
-1.7646557e-29
-4.7874877e-31
-5.5410625e-33
4.2227617e-36
3.4901785e-18
3.7527456e-20
-1.6191437e-23
3.5978593e-22
6.9897107e-23
5.1006613e-24
-1.3191401e-25
-6.6676965e-26
-7.2371827e-27
-4.3101165e-28
-1.4140504e-29
-1.6450077e-31
3.9219171e-33
1.1270295e-34
2.202293e-16
2.3628014e-18
-2.9654501e-20
1.7856915e-21
5.8425118e-22
4.4388722e-23
-2.9393277e-24
-1.02918e-24
-1.1886628e-25
-7.9412794e-27
-2.8498458e-28
-9.9025486e-31
3.8322674e-31
1.5710614e-32
2.1532306e-34
9.9026481e-15
9.1475619e-17
-2.9736356e-18
-4.2306284e-20
4.1933975e-21
3.6764953e-22
-4.0625858e-23
-1.3180773e-23
-1.6154734e-24
-1.1526234e-25
-4.029267e-27
9.187932e-29
1.8691487e-29
9.8240419e-31
2.5140015e-32
2.6459562e-34
3.2360135e-13
1.8589797e-15
-2.28841e-16
-4.425235e-18
7.3257395e-21
3.2529852e-21
-4.1339927e-22
-1.4345271e-22
-1.8599134e-23
-1.3593202e-24
-3.6901744e-26
4.0182781e-27
5.8911016e-28
3.7610472e-29
1.371094e-30
2.7303912e-32
2.2419311e-34
7.6019859e-12
-1.186905e-14
-1.2564525e-14
-2.7946024e-16
-1.4575993e-18
3.9475481e-20
-3.050444e-21
-1.3535252e-21
-1.8571183e-22
-1.328325e-23
-1.0526663e-25
9.8921705e-26
1.3479803e-26
1.004767e-27
4.6684101e-29
1.3125017e-30
1.9212962e-32
8.5666736e-35
1.2863436e-10
-1.9268623e-12
-4.9534581e-13
-1.3003009e-14
-6.9349414e-17
1.7000078e-18
6.2867534e-21
-1.1209699e-20
-1.6501134e-21
-1.0922786e-22
3.2764086e-24
1.7801939e-24
2.4085299e-25
2.0180555e-26
1.1182467e-27
3.8879021e-29
7.0534435e-31
1.2829001e-33
-1.2530976e-34
1.4935508e-09
-6.164586e-11
-1.3857147e-11
-4.4286852e-13
-1.4285537e-15
1.4199423e-16
2.6366308e-18
-6.9486139e-20
-1.3424395e-20
-7.7572141e-22
7.6648175e-23
2.5271136e-23
3.5141281e-24
3.2085247e-25
2.0109323e-26
7.8791772e-28
1.2745292e-29
-3.573441e-31
-2.2475869e-32
-3.5499834e-34
1.1457174e-08
-1.027336e-09
-2.7258802e-10
-1.0934742e-11
2.4391991e-14
9.3733181e-15
2.1503803e-16
9.3267402e-19
-1.0232931e-19
-5.0481451e-21
1.0427589e-21
2.9687439e-22
4.2796767e-23
4.188718e-24
2.8218907e-25
1.1283557e-26
2.8449784e-29
-2.623524e-29
-1.6070441e-30
-4.5543985e-32
-5.3685786e-34
5.5316225e-08
-1.1286615e-08
-3.5948771e-09
-1.9207379e-10
2.6709191e-12
4.3701623e-13
1.2466251e-14
9.6546067e-17
-9.6421514e-19
-3.7347881e-20
1.080694e-20
2.9769434e-21
4.4474559e-22
4.5753516e-23
3.1655505e-24
1.0739862e-25
-5.0198255e-27
-9.7334676e-28
-6.7258026e-29
-2.6784767e-30
-6.0779435e-32
-6.1047347e-34
1.7911619e-07
-7.6953393e-08
-3.2054108e-08
-2.2512053e-09
8.6849215e-11
1.421381e-11
5.2065332e-13
4.4092898e-15
-4.9726633e-17
-8.3696457e-19
8.9910979e-20
2.6085607e-20
4.0253813e-21
4.2488462e-22
2.8455427e-23
4.1471489e-25
-1.6750151e-25
-2.4346389e-26
-1.9184306e-27
-9.7564834e-29
-3.2152774e-30
-6.2460105e-32
-5.38273e-34
3.7352041e-07
-3.5676737e-07
-1.9016437e-07
-1.5823042e-08
1.4855827e-09
3.1679031e-10
1.5407434e-11
1.2079932e-13
-4.4099799e-15
-6.3655651e-17
3.818314e-19
2.0351972e-19
3.241014e-20
3.4072941e-21
1.9915242e-22
-7.011444e-24
-3.3771228e-24
-4.6089614e-25
-4.0548323e-26
-2.4932707e-27
-1.0611363e-28
-2.9703409e-30
-4.7872302e-32
-3.154751e-34
5.8288735e-07
-1.1294982e-06
-7.769086e-07
-7.7531856e-08
1.7688861e-08
4.6880873e-09
3.1485993e-10
1.4978987e-12
-2.6400293e-13
-4.4631295e-15
-2.2494026e-17
1.3753862e-18
2.3764063e-19
2.4055575e-20
9.6878695e-22
-1.8621886e-22
-5.0595332e-23
-7.0020354e-24
-6.73567e-25
-4.7854912e-26
-2.4589373e-27
-8.6630797e-29
-1.874778e-30
-1.8044666e-32
2.8531002e-35
9.2934352e-07
-2.4806872e-06
-2.1799879e-06
-2.4569823e-07
1.3367843e-07
4.6529246e-08
4.3428559e-09
-1.5542051e-11
-1.0367189e-11
-2.2365265e-13
-1.689683e-15
3.5050606e-18
1.6203871e-18
1.5376147e-19
1.3686512e-21
-2.6416557e-21
-6.1064722e-22
-8.7531378e-23
-9.1558088e-24
-7.2263113e-25
-4.2482938e-26
-1.7163494e-27
-3.9382167e-29
-6.0297888e-32
2.2437861e-32
4.3624488e-34
1.5228016e-06
-3.9135278e-06
-4.5085736e-06
-5.1291737e-07
6.7220817e-07
3.0679321e-07
3.966459e-08
-9.2483482e-10
-2.6800646e-10
-7.8264539e-12
-7.700479e-14
-2.204731e-16
1.2173972e-17
9.4233171e-19
-3.3306801e-20
-2.8409634e-20
-6.1903667e-21
-9.2202651e-22
-1.0364897e-22
-8.8844403e-24
-5.6414456e-25
-2.3655074e-26
-3.3633943e-28
2.8639435e-29
2.165026e-30
6.6330793e-32
8.3292423e-34
9.019978e-07
-5.7439131e-06
-7.4474307e-06
-8.3704427e-07
2.2691603e-06
1.3567674e-06
2.3730294e-07
-1.6147503e-08
-4.5679871e-09
-1.8730892e-10
-2.4290624e-12
-4.993718e-15
3.5195497e-16
9.6282717e-18
-4.5468181e-19
-2.5388731e-19
-5.4192166e-20
-8.3385165e-21
-9.9219696e-22
-9.013236e-23
-5.8346098e-24
-2.0481087e-25
6.0766105e-27
1.4494223e-27
1.0498017e-28
4.3756573e-30
1.0506009e-31
1.1398509e-33
4.050177e-07
-7.8223414e-06
-1.0802996e-05
-1.4790888e-06
5.3258454e-06
4.0778161e-06
9.1065387e-07
-1.5427954e-07
-5.1402747e-08
-2.9081642e-09
-5.3752396e-11
1.8029588e-13
2.6492184e-14
5.2997748e-16
-8.9784707e-19
-1.9621406e-18
-4.183265e-19
-6.5811499e-20
-8.1261377e-21
-7.5774658e-22
-4.5691228e-23
-3.4799344e-25
2.9702165e-25
4.1241261e-26
3.2907493e-27
1.7405544e-28
6.1074962e-30
1.3027536e-31
1.2883548e-33
2.3372159e-08
-9.0025283e-06
-1.2715487e-05
-2.5401512e-06
9.1896193e-06
8.6807075e-06
2.2487882e-06
-9.0969498e-07
-3.8408622e-07
-3.1301843e-08
-8.1841756e-10
1.2848316e-11
1.4967128e-12
3.9355558e-14
3.2420305e-16
-1.2802666e-17
-2.8999569e-18
-4.5988304e-19
-5.7481232e-20
-5.2402006e-21
-2.3364372e-22
2.3037277e-23
6.5778509e-24
8.4150149e-25
7.4464325e-26
4.7847603e-27
2.2012117e-28
6.9467802e-30
1.3545093e-31
1.2332828e-33
-5.8556454e-07
-9.6062339e-06
-1.3681943e-05
-2.3329342e-06
1.2753119e-05
1.397077e-05
3.7291831e-06
-3.4467541e-06
-1.9120353e-06
-2.2972873e-07
-8.0645569e-09
3.796144e-10
5.5180135e-11
2.074902e-12
2.5393646e-14
-2.955792e-17
-1.8548361e-17
-2.8882265e-18
-3.5366279e-19
-2.8887529e-20
-5.4284033e-23
4.890859e-22
1.0246977e-22
1.3467617e-23
1.3065378e-24
9.7906687e-26
5.5568269e-27
2.3055725e-28
6.6182356e-30
1.1734191e-31
9.6385422e-34
-1.5094667e-06
-9.6927598e-06
-1.3748242e-05
-1.7503906e-06
1.594904e-05
1.8956434e-05
4.6045935e-06
-8.724815e-06
-6.4284348e-06
-1.1318365e-06
-4.8003302e-08
7.2329329e-09
1.3338867e-09
7.2904691e-11
1.2311142e-12
8.0337174e-16
-1.5052021e-16
-1.6681151e-17
-1.902245e-18
-1.1389258e-19
1.5199446e-20
6.4393595e-21
1.2575482e-21
1.7455118e-22
1.8661641e-23
1.5732367e-24
1.0497597e-25
5.3463719e-27
1.9890352e-28
5.0546956e-30
7.6966664e-32
5.087144e-34
-2.4428579e-06
-9.9208238e-06
-1.34198e-05
-1.3825711e-06
1.7469798e-05
2.2589073e-05
5.4729284e-06
-1.5598804e-05
-1.5098242e-05
-3.7602139e-06
-1.4212733e-07
8.8187054e-08
2.1000181e-08
1.6786629e-09
3.8756342e-11
-1.0872054e-13
-5.6108481e-15
-1.0710295e-16
-9.0215061e-18
-1.5134996e-19
2.1362049e-19
6.573402e-20
1.2781001e-20
1.8855824e-21
2.2052672e-22
2.068588e-23
1.5540055e-24
9.2007466e-26
4.0776695e-27
1.2681037e-28
2.4308726e-30
1.970488e-32
-6.762987e-35
-3.4250163e-06
-9.9924138e-06
-1.2629988e-05
-7.9768116e-07
1.7908194e-05
2.3199309e-05
3.8455529e-06
-2.2560231e-05
-2.6353398e-05
-8.664167e-06
1.7502311e-08
6.7499e-07
2.1425227e-07
2.49794e-08
7.7882152e-10
-1.0190975e-11
-3.6546078e-13
-2.3285855e-15
-4.0959509e-17
2.3765143e-18
2.0033352e-18
5.5804853e-19
1.1071128e-19
1.7328411e-20
2.195243e-21
2.2547395e-22
1.8632272e-23
1.216461e-24
5.9437448e-26
1.893933e-27
2.4292269e-29
-8.5956208e-31
-4.5671646e-32
-6.775055e-34
-4.4158922e-06
-9.9565898e-06
-1.1621872e-05
-2.347502e-08
1.7494106e-05
2.2517445e-05
1.6118429e-06
-2.7978701e-05
-3.6802604e-05
-1.4785319e-05
1.6307907e-06
3.3283633e-06
1.415936e-06
2.3811558e-07
9.7271741e-09
-3.9070042e-10
-1.6484167e-11
-1.2702211e-13
-4.4637204e-16
2.8689711e-17
1.5131092e-17
4.0827536e-18
8.334069e-19
1.3762038e-19
1.8652676e-20
2.0632782e-21
1.8254578e-22
1.2439598e-23
5.9548919e-25
1.1978431e-26
-8.5962439e-28
-9.2126731e-29
-4.287474e-30
-1.0888934e-31
-1.229147e-33
-5.2471768e-06
-9.8036336e-06
-1.0404316e-05
8.181417e-07
1.6939789e-05
2.0831442e-05
2.3325101e-07
-2.9920133e-05
-4.3247039e-05
-1.9979992e-05
6.0119246e-06
1.0821513e-05
6.093334e-06
1.4456855e-06
7.265992e-08
-8.3216686e-09
-4.7639349e-10
-5.1625289e-12
-2.0947331e-14
1.7329653e-16
9.7989989e-17
2.6380141e-17
5.541495e-18
9.5627983e-19
1.3673056e-19
1.5946949e-20
1.4599561e-21
9.5316155e-23
2.9225081e-24
-2.1676368e-25
-4.2953767e-26
-3.7149442e-27
-2.0320257e-28
-7.3097891e-30
-1.6052173e-31
-1.647015e-33
-5.6681253e-06
-9.4656472e-06
-9.0324977e-06
1.6815823e-06
1.620799e-05
1.8899114e-05
-1.2310525e-06
-3.002508e-05
-4.5227598e-05
-2.2636351e-05
1.2764826e-05
2.4259911e-05
1.7352704e-05
5.5924865e-06
2.9669363e-07
-1.0632766e-07
-8.8288039e-09
-1.4754832e-10
-9.9173218e-13
-1.6708335e-15
5.5956519e-16
1.5370814e-16
3.3015926e-17
5.8839377e-18
8.7104768e-19
1.0422853e-19
9.3151234e-21
4.6282158e-22
-2.2801101e-23
-8.276438e-24
-1.0752099e-24
-9.5739264e-26
-6.2147388e-27
-2.9156362e-28
-9.4939868e-30
-1.9407246e-31
-1.8865761e-33
-5.7977764e-06
-8.8390037e-06
-7.6441964e-06
2.5805126e-06
1.5259282e-05
1.674021e-05
-2.4527665e-06
-2.817256e-05
-4.5048435e-05
-2.2897674e-05
1.9715702e-05
4.0182198e-05
3.4177434e-05
1.396875e-05
4.5931944e-07
-8.4302189e-07
-1.0524025e-07
-2.8506814e-09
-3.2616568e-11
-1.5931163e-13
2.6497477e-15
8.2468542e-16
1.7914396e-16
3.2407239e-17
4.8495277e-18
5.7085369e-19
4.3900861e-20
-2.2154475e-22
-7.5812247e-22
-1.5016015e-22
-1.9115927e-23
-1.8286246e-24
-1.3749931e-25
-7.9756436e-27
-3.4561478e-28
-1.0607066e-29
-2.0699636e-31
-1.9396143e-33
-5.666912e-06
-7.5668448e-06
-6.5007434e-06
3.2936883e-06
1.4232435e-05
1.4435982e-05
-3.6334646e-06
-2.6103701e-05
-4.2116896e-05
-2.1767031e-05
2.4797296e-05
5.3725593e-05
4.9879082e-05
2.3650882e-05
-1.0098272e-06
-4.2475858e-06
-8.1124757e-07
-3.6599638e-08
-7.1344982e-10
-6.1172896e-12
-3.8631732e-15
4.2858544e-15
9.0442729e-16
1.617098e-16
2.3661589e-17
2.5333126e-18
1.0332362e-19
-3.4010342e-20
-1.0928329e-20
-1.9713556e-21
-2.6313527e-22
-2.7695169e-23
-2.355912e-24
-1.6234535e-25
-8.7988541e-27
-3.6153042e-28
-1.0638317e-29
-2.0065765e-31
-1.8295359e-33
-4.5093954e-06
-5.8493418e-06
-5.4735842e-06
3.3565542e-06
1.2913586e-05
1.1851693e-05
-4.9101451e-06
-2.3602378e-05
-3.8530876e-05
-2.2730978e-05
2.823538e-05
6.1338758e-05
5.9246302e-05
2.8877183e-05
-6.2931942e-06
-1.4002029e-05
-4.0080958e-06
-3.105041e-07
-1.0221234e-08
-1.4584272e-10
-4.2271509e-13
3.8793643e-14
4.6706742e-15
7.460981e-16
1.0058753e-16
8.2035087e-18
-6.2302953e-19
-4.4835904e-19
-1.1473525e-19
-2.0733199e-20
-2.9517994e-21
-3.424006e-22
-3.2733601e-23
-2.5934647e-24
-1.6840843e-25
-8.6891683e-27
-3.4284144e-28
-9.7613392e-30
-1.792274e-31
-1.5994529e-33
-3.18342e-06
-1.1457615e-06
-3.9288367e-06
2.7834885e-06
1.1206483e-05
9.0278795e-06
-6.4230263e-06
-2.0928224e-05
-3.441884e-05
-2.2893203e-05
2.8386968e-05
6.3292013e-05
6.1514066e-05
2.8118397e-05
-1.5074892e-05
-3.164556e-05
-1.3512854e-05
-1.7500128e-06
-9.5212126e-08
-2.1542086e-09
1.0947271e-12
1.7089367e-12
6.5887315e-14
3.6770314e-15
3.6886603e-16
8.8749336e-18
-1.0723729e-17
-4.031089e-18
-9.7683846e-19
-1.8253931e-19
-2.7846987e-20
-3.5404994e-21
-3.7758666e-22
-3.3821188e-23
-2.5426482e-24
-1.576006e-25
-7.8139043e-27
-2.980557e-28
-8.2518658e-30
-1.4807574e-31
-1.2978338e-33
-2.6136658e-06
-8.2154702e-08
3.9392179e-07
1.531464e-06
9.1114014e-06
6.1681283e-06
-7.8898274e-06
-1.813732e-05
-2.966058e-05
-2.2850001e-05
2.6551649e-05
6.2950061e-05
5.8597941e-05
2.2458571e-05
-2.4740127e-05
-5.2287022e-05
-3.2278866e-05
-6.6545823e-06
-5.7562462e-07
-1.8755112e-08
4.4218653e-10
8.2184379e-11
3.7592806e-12
7.2466434e-14
1.3714858e-15
-1.2810478e-16
-9.1876189e-17
-2.9162135e-17
-7.0567847e-18
-1.3797767e-18
-2.2549962e-19
-3.1223629e-20
-3.6791317e-21
-3.6866479e-22
-3.1369043e-23
-2.2566602e-24
-1.3430453e-25
-6.4215459e-27
-2.3736978e-28
-6.3961623e-30
-1.1220996e-31
-9.6613491e-34
-9.2228251e-07
-3.290659e-06
2.0650544e-06
5.4305994e-07
6.6849348e-06
3.0840647e-06
-9.2262081e-06
-1.526095e-05
-2.444596e-05
-2.214275e-05
2.4117981e-05
5.9760437e-05
5.2689571e-05
1.4686193e-05
-3.3482833e-05
-6.8472827e-05
-5.7281579e-05
-1.7626228e-05
-2.2580915e-06
-8.2928904e-08
1.2798905e-08
2.4594419e-09
1.7375983e-10
4.6336968e-12
3.7433077e-14
-1.3592674e-15
-6.1450757e-16
-1.8044347e-16
-4.437704e-17
-9.1108936e-18
-1.5908575e-18
-2.3836028e-19
-3.0737171e-20
-3.4081317e-21
-3.2386318e-22
-2.6314734e-23
-1.8140967e-24
-1.0360038e-25
-4.7616606e-27
-1.6964406e-28
-4.4178748e-30
-7.518254e-32
-6.3131182e-34
3.892141e-06
-5.9619557e-06
-2.0021094e-06
3.514064e-06
3.4362682e-07
1.2697367e-07
-1.0255509e-05
-1.2251499e-05
-1.907466e-05
-2.1041961e-05
2.1400805e-05
5.5833395e-05
4.8183443e-05
8.1845283e-06
-3.6450914e-05
-7.6377488e-05
-7.9760517e-05
-3.3939887e-05
-5.795357e-06
-3.2746154e-08
1.8175489e-07
4.4570462e-08
4.8676107e-09
2.0727766e-10
2.6329184e-12
-5.2503766e-15
-3.5632432e-15
-9.880956e-16
-2.4714967e-16
-5.3250358e-17
-9.8925745e-18
-1.5934353e-18
-2.2285955e-19
-2.7032389e-20
-2.8331556e-21
-2.5533006e-22
-1.9723519e-23
-1.2903213e-24
-6.9672053e-26
-3.0118071e-27
-1.004716e-28
-2.4394144e-30
-3.8652232e-32
-3.0380124e-34
-2.5074813e-06
-5.0711342e-07
-7.6813112e-06
-1.3414992e-07
4.4748626e-06
-6.8267479e-08
-1.0495958e-05
-8.6702688e-06
-1.379932e-05
-1.9575629e-05
1.8600433e-05
5.1430943e-05
4.3303202e-05
5.0731779e-06
-3.4266578e-05
-7.6268906e-05
-9.3619792e-05
-5.0422311e-05
-9.7580256e-06
1.5327519e-06
1.4942027e-06
4.9483413e-07
8.1989432e-08
5.5000754e-09
1.1217685e-10
1.7229651e-13
-2.1100763e-14
-4.9145118e-15
-1.2360825e-15
-2.7841909e-16
-5.4745798e-17
-9.4145043e-18
-1.415522e-18
-1.8565185e-19
-2.1145782e-20
-2.0767089e-21
-1.7444895e-22
-1.2438895e-23
-7.3634367e-25
-3.4835717e-26
-1.2512072e-27
-3.1611021e-29
-4.7962892e-31
-2.5243113e-33
2.0083186e-35
-9.3995959e-06
-4.0395793e-06
-4.1445698e-06
-8.2049048e-06
1.6425944e-06
5.1523864e-06
-7.8683097e-07
-3.0642756e-06
-8.4007364e-06
-1.8109637e-05
1.5687273e-05
4.7043942e-05
3.7809204e-05
1.2169613e-06
-3.1765328e-05
-6.6556848e-05
-9.9491626e-05
-6.2226068e-05
-1.0802564e-05
8.3006427e-06
7.5742294e-06
3.4185576e-06
8.3937218e-07
8.6607913e-08
2.7404175e-09
2.2493169e-12
-3.8059558e-13
-2.316763e-14
-5.631242e-15
-1.3142567e-15
-2.7180026e-16
-4.9526457e-17
-7.9292285e-18
-1.1102217e-18
-1.3494794e-19
-1.407258e-20
-1.2347332e-21
-8.8470847e-23
-4.8844048e-24
-1.7014288e-25
5.3432311e-28
5.341118e-28
3.8402122e-29
1.521241e-30
3.4510763e-32
3.5302754e-34
2.5932263e-06
-5.9274693e-06
-5.7718311e-06
-8.9594119e-06
-7.8886539e-06
3.2308072e-06
5.601874e-06
-1.5462838e-06
-4.1554269e-06
-1.6816147e-05
1.2628454e-05
4.2410965e-05
3.2408752e-05
-2.5637741e-06
-2.9384293e-05
-5.6548995e-05
-9.5819234e-05
-6.7915581e-05
-7.5902676e-06
2.3356745e-05
2.4663221e-05
1.4952864e-05
5.2809932e-06
8.1700646e-07
3.8492947e-08
-2.0180568e-10
-1.9334015e-11
-1.672463e-13
-2.3778399e-14
-5.6508629e-15
-1.2191098e-15
-2.3331233e-16
-3.9326982e-17
-5.7843332e-18
-7.3133345e-19
-7.7337823e-20
-6.445134e-21
-3.5212016e-22
7.0775643e-25
2.9554184e-24
4.1995324e-25
3.763294e-26
2.4204694e-27
1.1288923e-28
3.6613288e-30
7.4249327e-32
7.1056826e-34
1.1745918e-06
6.9980874e-06
-2.6903824e-06
-8.4942856e-06
-1.2093111e-05
-7.3551393e-06
4.9410218e-06
5.8741244e-06
-2.2320102e-06
-1.5389392e-05
9.3770602e-06
3.7421828e-05
2.675223e-05
-7.0191843e-06
-2.7115072e-05
-4.6075492e-05
-8.7283601e-05
-7.7661699e-05
-1.1505199e-06
4.3896547e-05
5.4329968e-05
4.2337549e-05
2.0688734e-05
4.6486692e-06
3.0890705e-07
-8.4698683e-09
-7.0301189e-10
-5.5983334e-12
-1.0041632e-13
-2.2367486e-14
-4.9707482e-15
-9.8817399e-16
-1.72774e-16
-2.6062121e-17
-3.2740994e-18
-3.1415101e-19
-1.5920745e-20
1.5866402e-21
5.7850166e-22
9.5679881e-23
1.1405552e-23
1.0626904e-24
7.8347605e-26
4.5022179e-27
1.953515e-28
6.032578e-30
1.1822964e-31
1.105143e-33
-1.5175348e-05
5.8144024e-06
1.0682126e-05
-1.0180003e-06
-1.1161684e-05
-1.421959e-05
-6.5705229e-06
6.5404629e-06
6.1029273e-06
-2.8267591e-06
5.5424646e-06
3.2311483e-05
2.1199035e-05
-1.1332144e-05
-2.5075685e-05
-3.5349251e-05
-7.5232895e-05
-8.1431395e-05
-4.6199434e-06
6.4202812e-05
8.7326194e-05
8.0918437e-05
5.134393e-05
1.6057752e-05
1.3695308e-06
-1.4427677e-07
-1.5160077e-08
-2.1920198e-10
-9.7389503e-13
-8.3039532e-14
-1.8539496e-14
-3.770411e-15
-6.6889917e-16
-9.9171677e-17
-1.1070255e-17
-5.4552924e-19
1.323304e-19
4.9832796e-20
1.0269443e-20
1.598478e-21
2.0118912e-22
2.0880544e-23
1.787157e-24
1.2424539e-25
6.8450118e-27
2.8783715e-28
8.6800801e-30
1.6708615e-31
1.5411477e-33
8.2038585e-07
-1.3793876e-05
1.0131218e-05
1.3748827e-05
-4.0816835e-07
-1.4020959e-05
-1.6107768e-05
-5.5320561e-06
7.9552876e-06
6.2166653e-06
-3.3210546e-06
2.6900873e-05
1.5422338e-05
-1.5745277e-05
-2.2818681e-05
-2.4744184e-05
-6.1836194e-05
-8.2010243e-05
-9.5817075e-06
7.6032403e-05
0.00011286712
0.00011303648
8.450796e-05
3.4216656e-05
2.9791293e-06
-1.3128381e-06
-1.96216e-07
-5.257731e-09
-3.4277418e-11
-3.505262e-13
-6.3780707e-14
-1.2950728e-14
-2.2463933e-15
-2.9723398e-16
-1.7444106e-17
5.2358633e-18
2.4148159e-18
6.208437e-19
1.2270739e-19
2.0011758e-20
2.7531441e-21
3.2109696e-22
3.1633419e-23
2.6047051e-24
1.7563126e-25
9.4454028e-27
3.8962186e-28
1.1571234e-29
2.2008571e-31
2.01158e-33
2.1000576e-05
-3.5682603e-06
-1.1504805e-05
1.4289449e-05
1.6562283e-05
-1.8378956e-09
-1.6867117e-05
-1.7476762e-05
-4.4563528e-06
9.2695117e-06
6.2251188e-06
-3.432273e-06
9.5229752e-06
-2.0035965e-05
-2.0287026e-05
-1.435221e-05
-4.8478452e-05
-7.9932158e-05
-1.5513193e-05
7.8780703e-05
0.00013130713
0.00012812103
0.00010016469
4.7514812e-05
1.4511417e-06
-6.969865e-06
-1.5594706e-06
-7.5733596e-08
-9.9021593e-10
-5.2069806e-12
-2.0949575e-13
-3.9880625e-14
-6.2757361e-15
-5.195114e-16
1.1316833e-16
7.2242774e-17
2.3235326e-17
5.719113e-18
1.1719295e-18
2.0544037e-19
3.107936e-20
4.0586757e-21
4.55399e-22
4.3526017e-23
3.4959765e-24
2.3085288e-25
1.220389e-26
4.9642334e-28
1.4579472e-29
2.7491644e-31
2.4967048e-33
3.326121e-06
1.4359883e-05
-8.6352255e-06
-8.455338e-06
1.8342144e-05
1.9194149e-05
1.9980677e-07
-1.9031537e-05
-1.8355784e-05
-3.3242665e-06
1.0376697e-05
6.3883898e-06
-3.3015103e-06
-2.3959846e-05
-1.700676e-05
-4.1179873e-06
-3.5377526e-05
-7.5304495e-05
-2.159391e-05
7.7402359e-05
0.00013429539
0.00013144443
9.4325512e-05
4.5074089e-05
-6.7627571e-06
-2.2727436e-05
-7.8081982e-06
-6.7432291e-07
-1.7288207e-08
-1.5966693e-10
-1.0804763e-12
-1.0941196e-13
-1.2742914e-14
1.1684091e-15
1.3908412e-15
5.6886857e-16
1.7273795e-16
4.3578051e-17
9.4684705e-18
1.7955448e-18
2.981813e-19
4.3302005e-20
5.47378e-21
5.9797436e-22
5.59054e-23
4.4028666e-24
2.860083e-25
1.4917633e-26
6.0033045e-28
1.7486522e-29
3.2777271e-31
2.1585916e-35
-2.6913847e-05
-3.2391327e-06
6.8742095e-06
-1.2722133e-05
-4.9868406e-06
2.2192369e-05
2.1716927e-05
7.7983762e-08
-2.0922333e-05
-1.9004521e-05
-2.1669096e-06
1.1209413e-05
6.0597114e-06
-3.1761981e-06
-1.1824709e-05
6.1674312e-06
-2.3013058e-05
-6.8567876e-05
-2.73931e-05
7.3141187e-05
0.00013410787
0.00012949011
7.9681486e-05
3.0738815e-05
-1.878646e-05
-4.8173888e-05
-2.5513506e-05
-3.826707e-06
-1.8503429e-07
-3.3156089e-09
-2.2864719e-11
-3.0200428e-13
-5.6391614e-15
1.7217636e-14
9.4432854e-15
3.5330078e-15
1.0835981e-15
2.8646347e-16
6.6468711e-17
1.3630321e-17
2.473542e-18
3.964038e-19
5.5868711e-20
6.8837619e-21
7.3562461e-22
6.7509071e-23
5.2298733e-24
3.3517824e-25
1.7296962e-26
6.9055413e-28
2.0004522e-29
3.212241e-33
8.3316307e-38
-5.4140584e-06
-2.8640371e-05
-1.002712e-05
-9.8645141e-07
-1.4914552e-05
-1.486627e-06
2.5921584e-05
2.4042673e-05
-2.53017e-07
-2.26352e-05
-1.9450976e-05
-1.0716742e-06
1.1224546e-05
5.3045441e-06
-3.0295421e-06
1.6960137e-05
-1.1308656e-05
-6.0590997e-05
-3.3186653e-05
6.7226743e-05
0.00013102064
0.00012496066
7.2065472e-05
1.4019992e-05
-2.8135201e-05
-7.068351e-05
-5.7085385e-05
-1.4348414e-05
-1.2563607e-06
-4.2004498e-08
-5.378958e-10
-2.9127651e-12
1.0995286e-13
1.0754194e-13
5.0651047e-14
1.8761386e-14
5.9481749e-15
1.6593444e-15
4.1147403e-16
9.0982763e-17
1.7940177e-17
3.1483211e-18
4.8993094e-19
6.7283227e-20
8.1036626e-21
8.4897207e-22
7.6658635e-23
5.855848e-24
3.7121664e-25
1.9005781e-26
7.5494877e-28
2.2269572e-31
1.435976e-35
1.2473331e-40
2.7535169e-05
6.0923839e-07
-2.9302573e-05
-1.711402e-05
-8.2213815e-06
-1.6610822e-05
1.9342822e-06
2.9294229e-05
2.6283124e-05
-8.2416e-07
-2.4229942e-05
-1.9972088e-05
-2.3581921e-07
1.0670037e-05
3.7906347e-06
-1.8326833e-06
1.0758506e-06
-5.2511339e-05
-3.8160223e-05
6.0250183e-05
0.00012649458
0.00011921781
6.1754771e-05
1.1449453e-06
-3.5487005e-05
-7.7535402e-05
-9.2834805e-05
-3.7381959e-05
-5.6033644e-06
-3.3432216e-07
-7.956906e-09
-7.3228876e-11
5.3492515e-13
5.1592401e-13
2.3378866e-13
8.8157049e-14
2.9128722e-14
8.5820471e-15
2.2680616e-15
5.3833399e-16
1.1464676e-16
2.1863572e-17
3.7224554e-18
5.6362063e-19
7.553052e-20
8.9042034e-21
9.1671582e-22
8.1523071e-23
6.1550019e-24
3.8700518e-25
1.9719992e-26
9.5889229e-30
1.1507837e-33
2.5519191e-38
6.2993686e-44
1.2919493e-05
3.7521407e-05
6.7219494e-06
-3.0010881e-05
-2.41317e-05
-1.5819375e-05
-1.807765e-05
5.2235667e-06
3.2731411e-05
2.8134279e-05
-1.5098258e-06
-2.5166074e-05
-1.9408957e-05
9.1488542e-07
8.6835745e-06
2.7980999e-06
-1.0617516e-06
-4.6707612e-05
-4.1633924e-05
5.2347868e-05
0.00012065349
0.00011324701
5.1535112e-05
-1.2313986e-05
-3.9841489e-05
-6.5438062e-05
-0.00011576681
-7.2132048e-05
-1.7237236e-05
-1.7329229e-06
-7.3252311e-08
-1.2620529e-09
-4.8499861e-12
2.105818e-12
9.6271915e-13
3.7358301e-13
1.2884233e-13
3.9994013e-14
1.1214764e-14
2.8408029e-15
6.4908829e-16
1.3348989e-16
2.4646243e-17
4.0722925e-18
5.9993085e-19
7.845665e-20
9.0557086e-21
9.1739286e-22
8.0503972e-23
6.0233577e-24
3.7691861e-25
2.8762956e-28
5.7373532e-32
2.4029862e-36
1.5793628e-41
1.0507031e-47
-4.0887745e-05
2.3535918e-05
4.6598773e-05
1.2843691e-05
-3.1757088e-05
-3.1994827e-05
-2.3647829e-05
-1.9408422e-05
7.9894799e-06
3.5904091e-05
2.9709302e-05
-2.2270393e-06
-2.5124066e-05
-1.7999716e-05
2.1867455e-06
5.8193374e-06
1.7782722e-06
-6.1195086e-07
-4.483643e-05
4.3612803e-05
0.00011318693
0.00010653871
3.9928437e-05
-2.5328862e-05
-4.6172448e-05
-5.569821e-05
-0.00010446111
-0.00010969182
-3.8837651e-05
-6.1500263e-06
-4.3480891e-07
-1.3355796e-08
-1.5575176e-10
7.0595553e-12
3.6121686e-12
1.4462496e-12
5.1958109e-13
1.6916489e-13
5.004249e-14
1.3439692e-14
3.2702301e-15
7.1929568e-16
1.4268429e-16
2.5460433e-17
4.0747695e-18
5.8300842e-19
7.4293336e-20
8.3852065e-21
8.3707255e-22
7.2633834e-23
5.4039784e-24
6.3751033e-27
2.0003377e-30
1.4055503e-34
1.759653e-39
3.6247664e-45
3.4759651e-53
-4.7904043e-05
-3.3771745e-05
3.3110408e-05
5.498426e-05
1.8556036e-05
-3.2643318e-05
-3.9813765e-05
-3.1536913e-05
-2.1037269e-05
1.0666815e-05
3.8723611e-05
3.0217256e-05
-3.218819e-06
-2.3906898e-05
-1.4589063e-05
1.4841934e-06
3.6592085e-06
8.1962673e-07
-2.5093524e-07
3.3679477e-05
0.00010383255
9.8524801e-05
2.7021363e-05
-4.0732824e-05
-5.4475808e-05
-4.783225e-05
-8.4999745e-05
-0.00013271284
-6.8315616e-05
-1.5823135e-05
-1.752953e-06
-8.9978433e-08
-2.0014747e-09
7.9804822e-12
1.2586922e-11
5.1876204e-12
1.9259958e-12
6.5373191e-13
2.0260113e-13
5.7253479e-14
1.471447e-14
3.4297965e-15
7.2329828e-16
1.377172e-16
2.362232e-17
3.6415479e-18
5.0327651e-19
6.2188484e-20
6.8563082e-21
6.7289015e-22
5.786962e-23
1.0773623e-25
5.1840511e-29
5.7626823e-33
1.2070558e-37
4.8146746e-43
3.3605601e-49
-2.3858591e-55
2.19301e-05
-5.0417247e-05
-2.5539768e-05
4.1898224e-05
6.2753649e-05
2.4066611e-05
-3.3307967e-05
-4.7533018e-05
-3.9321528e-05
-2.2842164e-05
1.3067673e-05
4.1309531e-05
2.9157228e-05
-4.2556519e-06
-2.1160107e-05
-1.0447163e-05
1.048457e-06
1.8034538e-06
2.6290031e-07
-7.0509413e-08
9.222266e-05
8.8389279e-05
1.3139039e-05
-5.8565949e-05
-6.4302218e-05
-4.1971973e-05
-6.0733494e-05
-0.00013287469
-0.0001043063
-3.1613702e-05
-5.0797488e-06
-4.0736379e-07
-1.536861e-08
-1.7154148e-10
4.0693426e-11
1.7729542e-11
6.6994961e-12
2.3242485e-12
7.4818895e-13
2.2051258e-13
5.9286182e-14
1.4486807e-14
3.2072172e-15
6.4168767e-16
1.1580842e-16
1.8820455e-17
2.7502262e-18
3.6105545e-19
4.2525086e-20
4.5304393e-21
4.3497117e-22
1.4040613e-24
1.0338366e-27
1.7642362e-31
5.8083296e-36
3.7953013e-41
6.0891819e-47
-1.8339813e-54
-4.5136119e-59
7.8354588e-05
1.036083e-05
-5.0998819e-05
-1.6831009e-05
5.0237817e-05
6.9950244e-05
2.9240744e-05
-3.3254622e-05
-5.4617966e-05
-4.6680103e-05
-2.4458227e-05
1.6308885e-05
4.2182136e-05
2.6075215e-05
-4.4341248e-06
-1.5356296e-05
-6.3692669e-06
7.573433e-07
6.5573153e-07
5.6367183e-08
-1.3879146e-08
7.5901045e-05
-1.7665369e-06
-7.8148633e-05
-7.4304238e-05
-3.5981379e-05
-3.7334945e-05
-0.00010624025
-0.00013243495
-5.9867808e-05
-1.1285197e-05
-1.3073263e-06
-7.6229629e-08
-1.7097431e-09
1.3107068e-10
5.9886876e-11
2.2777827e-11
7.9822364e-12
2.5416302e-12
7.7085296e-13
2.1425872e-13
5.4132752e-14
1.2367289e-14
2.5432839e-15
4.6871427e-16
7.710263e-17
1.1275773e-17
1.4614618e-18
1.6786215e-19
1.703654e-20
1.6222467e-21
1.3923305e-23
1.6153292e-26
4.1840198e-30
2.0971281e-34
2.0821779e-39
5.5776606e-45
3.5830056e-51
-4.218086e-57
-5.0616694e-63
6.0572419e-05
6.2064168e-05
-7.6616167e-07
-4.9558491e-05
-7.7680642e-06
5.8015191e-05
7.6223729e-05
3.4039914e-05
-3.2334604e-05
-6.0626331e-05
-5.3866158e-05
-2.5915809e-05
2.0276934e-05
3.9782543e-05
2.0459503e-05
-3.5905043e-06
-9.3132746e-06
-2.8376475e-06
3.6572325e-07
1.6725468e-07
7.9424819e-09
-1.7701582e-09
-1.693363e-05
-9.6010434e-05
-8.2177539e-05
-2.8310713e-05
-1.35483e-05
-7.619464e-05
-0.00014668978
-9.2143578e-05
-2.6369364e-05
-3.111085e-06
-2.4162018e-07
-3.6497666e-09
1.271597e-09
2.8322683e-10
8.1409513e-11
2.7340239e-11
8.5464031e-12
2.4776197e-12
6.9478495e-13
1.7802179e-13
4.0857925e-14
8.2949603e-15
1.4623827e-15
2.1679487e-16
2.5154012e-17
1.7651591e-18
-8.5407802e-20
-5.5211306e-20
-1.126416e-20
9.7775956e-23
1.9827342e-25
7.8526619e-29
5.9072377e-33
8.5991655e-38
3.4080319e-43
4.496306e-49
-3.7275759e-56
-6.0596949e-61
-4.7034054e-67
-3.2250545e-05
4.2890145e-05
4.4211183e-05
-1.1177722e-05
-4.6262886e-05
1.3381377e-06
6.545873e-05
8.1820887e-05
3.8326362e-05
-3.0348461e-05
-6.5071069e-05
-6.0181416e-05
-2.4999103e-05
2.3369558e-05
3.3165992e-05
1.3459894e-05
-2.5160196e-06
-4.3542075e-06
-8.7507911e-07
1.1080819e-07
2.925918e-08
6.5170724e-10
-1.5016134e-10
-0.00010944367
-8.7959017e-05
-1.7793266e-05
1.1759958e-05
-4.2199163e-05
-0.00014162043
-0.00012526378
-4.8211659e-05
-8.8306133e-06
-3.5760706e-07
8.4508039e-08
2.8504386e-08
4.6149922e-09
6.0942672e-10
1.0567038e-10
2.7716629e-11
7.6884998e-12
2.0182828e-12
5.0858712e-13
1.1141054e-13
2.017251e-14
2.627564e-15
8.1102331e-17
-8.4072609e-17
-3.3572305e-17
-8.5155188e-18
-1.6986399e-18
-2.8182012e-19
3.299373e-22
1.8729891e-24
1.1777054e-27
1.3289154e-31
2.7938679e-36
1.5499939e-41
3.1472136e-47
1.8320132e-53
-2.8725977e-59
-6.2004484e-65
-4.0866084e-71
-0.00011686369
-4.6879345e-05
2.3385571e-05
2.6153264e-05
-2.0595757e-05
-4.0414098e-05
1.0565098e-05
7.23705e-05
8.6866342e-05
4.1816089e-05
-2.7593981e-05
-6.6374852e-05
-6.1297617e-05
-2.0107211e-05
2.186777e-05
2.3578311e-05
6.8136202e-06
-1.4328215e-06
-1.4538587e-06
-1.8155019e-07
2.139418e-08
3.3387888e-09
3.54241e-11
-8.8818042e-12
-8.9356835e-05
-4.5019254e-06
3.8908135e-05
-5.423858e-06
-0.00012124842
-0.0001529378
-7.6147473e-05
-1.84188e-05
-8.4604588e-07
1.0726365e-06
4.0966758e-07
9.425735e-08
1.4328996e-08
1.2697635e-09
1.1381357e-10
2.2827866e-11
5.4747792e-12
1.2233509e-12
2.2364084e-13
2.0951514e-14
-5.4643187e-15
-3.8928415e-15
-1.4116737e-15
-3.9237016e-16
-9.1091349e-17
-1.8213437e-17
-3.1753682e-18
-2.66209e-21
1.2537914e-23
1.4069459e-26
2.4188266e-30
7.3314136e-35
5.5503558e-40
1.5632913e-45
1.7816312e-51
-2.5247589e-58
-3.6945385e-63
-5.6741491e-69
-3.379442e-75
-8.3933795e-05
-0.00011864405
-6.0151802e-05
3.3338795e-06
8.8191774e-06
-2.8884838e-05
-3.3979107e-05
1.9436451e-05
7.9237724e-05
9.0975837e-05