/*--------------------------------*- C++ -*----------------------------------*\
| =========                 |                                                 |
| \\      /  F ield         | OpenFOAM: The Open Source CFD Toolbox           |
|  \\    /   O peration     | Version:  5.0                                   |
|   \\  /    A nd           | Web:      www.OpenFOAM.org                      |
|    \\/     M anipulation  |                                                 |
\*---------------------------------------------------------------------------*/
FoamFile
{
    version     2.0;
    format      ascii;
    class       surfaceScalarField;
    location    "180";
    object      ddtCorrDdt0(phi);
}
// * * * * * * * * * * * * * * * * * * * * * * * * * * * * * * * * * * * * * //

dimensions      [0 3 -2 0 0 0 0];

internalField   nonuniform List<scalar> 
18820
(
2.513368e-06
0.00027247498
4.2649186e-06
0.00025302281
2.1277785e-06
0.00027034739
5.333315e-06
0.00023261084
4.22924e-06
0.00025092291
-6.2188136e-06
0.00027656709
5.5363711e-06
0.00021170126
6.0483731e-06
0.00023079345
-1.1053954e-05
0.00025576116
-1.6856035e-05
0.00029342468
4.873861e-06
0.00019047401
6.7058072e-06
0.00021104664
-1.5016206e-05
0.00023475955
-3.1867729e-05
0.00027077756
-1.9529676e-05
0.00031295659
3.5976443e-06
0.00016935404
5.5355347e-06
0.00019164841
-1.8713425e-05
0.00021474945
-4.5480601e-05
0.00024837805
-3.8359661e-05
0.00028961377
-1.4134974e-05
0.00032709447
1.4512492e-06
0.00014880429
2.7706997e-06
0.00017212421
-2.2952737e-05
0.00019589516
-5.75298e-05
0.00022680625
-5.6595624e-05
0.00026662105
-2.9084464e-05
0.00030457107
-5.1281641e-06
0.00033222633
-2.6480154e-06
0.00012916953
-1.5170372e-06
0.00015309819
-2.8241832e-05
0.0001774222
-6.8320642e-05
0.00020669546
-7.3488643e-05
0.00024370802
-4.4796322e-05
0.000282341
-1.1509746e-05
0.00031096211
9.3659291e-08
0.00033213726
-1.1377483e-05
0.00011113677
-7.8899728e-06
0.00013554896
-3.4791441e-05
0.00015965749
-7.8909047e-05
0.00018802136
-8.8668803e-05
0.00022188582
-6.0672669e-05
0.0002595936
-1.900884e-05
0.00028984916
-1.9632291e-07
0.0003112635
-2.1674343e-06
0.00033431046
-2.971903e-05
9.5622443e-05
-1.841889e-05
0.000121672
-4.2564576e-05
0.00014333192
-8.9884143e-05
0.000170644
-0.00010296252
0.00020232624
-7.5968113e-05
0.00023719133
-2.8205514e-05
0.00026879975
-6.623447e-07
0.0002903254
-3.4436426e-06
0.00031255334
-9.9041241e-06
0.0003442217
-6.5752262e-05
8.4145358e-05
-3.81268e-05
0.00011533597
-5.0438158e-05
0.00012955488
-0.00010082677
0.00015428603
-0.00011688273
0.00018457596
-9.0884611e-05
0.0002172534
-3.8552157e-05
0.00024754768
-2.4099273e-06
0.00027055731
-4.1505479e-06
0.0002910441
-1.7912995e-05
0.00032057836
-1.8248885e-05
0.00036247926
-0.00013206278
8.7721922e-05
-7.8233581e-05
0.0001242566
-5.5366987e-05
0.00012027298
-0.00010888044
0.00013761963
-0.00013023418
0.00016764959
-0.00010586692
0.00019956953
-4.9152052e-05
0.00022786331
-6.1364094e-06
0.00025128383
-4.548235e-06
0.00027096602
-2.5158189e-05
0.00029830303
-3.4415078e-05
0.0003367633
-2.2584341e-05
0.00038507384
-0.00022980555
0.00011233995
-0.00013865195
0.00014814322
-4.7634748e-05
0.00011653085
-0.00010746762
0.0001188704
-0.0001420947
0.00014949239
-0.00012201421
0.00018380893
-5.9752841e-05
0.00021018103
-9.8398771e-06
0.00023157648
-5.4645089e-06
0.00025221048
-3.1672882e-05
0.0002774934
-4.9489966e-05
0.00031339396
-4.3929381e-05
0.00035812967
-2.0957982e-05
0.00040604355
-0.00035209653
0.00012837875
-0.00018293954
0.00015662883
-4.3610867e-07
0.00010094897
-8.1469216e-05
9.0541587e-05
-0.00014917864
0.0001259664
-0.00014202976
0.00016952082
-7.1395944e-05
0.00019546379
-1.212994e-05
0.00021248138
-6.3016049e-06
0.00023242371
-3.7205068e-05
0.00025775438
-6.3773597e-05
0.00029179181
-6.4042363e-05
0.00033352531
-4.2051743e-05
0.00037924698
-1.4405099e-05
0.00042046162
-0.00049836964
0.00015985949
-0.00020463019
0.00015006928
9.8456972e-05
5.7737905e-05
-2.203644e-05
4.1524329e-05
-0.00015021017
9.1584645e-05
-0.00017253541
0.00015648567
-8.7490037e-05
0.00018562764
-1.1934656e-05
0.00019527953
-5.5140975e-06
0.00021170405
-4.2488259e-05
0.00023771781
-7.7206793e-05
0.00027120103
-8.3121842e-05
0.00031088829
-6.2726247e-05
0.00035422036
-3.0020842e-05
0.00039488812
-5.8997481e-06
0.00042637534
-0.00066924996
0.00019426044
-0.00019144321
0.00014667157
0.00021827637
3.0250129e-05
5.1831892e-05
-1.6122567e-05
-0.00016090678
5.2231876e-05
-0.00022824094
0.00014730447
-0.00011624434
0.00018525319
-8.3997506e-06
0.00018210409
-5.4937065e-07
0.0001903247
-4.7503402e-05
0.00021672902
-9.0555299e-05
0.00025107808
-0.00010167789
0.0002897722
-8.2346746e-05
0.00033052774
-4.7047717e-05
0.0003712695
-1.3299143e-05
0.00040231418
1.0958331e-06
0.00042529411
-0.0008904462
0.00026733887
-0.00016162057
0.00016443684
0.00038788642
-2.2939495e-05
0.00014377507
-6.1684302e-05
-0.00020306196
2.6043468e-05
-0.00032820798
0.00015221416
-0.00016803564
0.00019910901
1.907968e-06
0.00017495631
1.3114869e-05
0.00016844842
-5.1199996e-05
0.00019402897
-0.00010496494
0.00023114771
-0.00012060547
0.00027001787
-0.00010165669
0.00030909856
-6.4127794e-05
0.00034762829
-2.3372676e-05
0.00038136656
9.6808826e-07
0.00040246938
4.133403e-06
0.00042117566
-0.0011766368
0.0003470995
-9.6453545e-05
0.0002021715
0.00062226406
-6.9942253e-05
0.00025576396
-0.00013491753
-0.00027440787
9.6732855e-06
-0.00047576209
0.00017361439
-0.00025117686
0.00023536855
2.2527698e-05
0.00017849883
4.3583061e-05
0.00014449412
-5.0716508e-05
0.00016796891
-0.00012134759
0.00021041628
-0.00014127208
0.00025182189
-0.00012177166
0.00029014497
-8.1110754e-05
0.00032609867
-3.6090264e-05
0.00036036734
-8.8013313e-07
0.00038323906
7.4024396e-06
0.0003992281
2.8582526e-06
0.00041833242
-0.0015491951
0.00049312377
1.8562726e-07
0.0002504609
0.00097662303
-0.00015218873
0.00043446293
-0.00024862773
-0.00041517852
5.8664255e-06
-0.00067353725
0.00020746734
-0.00037207258
0.00029452352
6.2694786e-05
0.00019520937
0.00010261218
0.00011947241
-4.2723171e-05
0.00013649985
-0.00014044556
0.00018706564
-0.00016543584
0.00023458109
-0.00014379998
0.00027385589
-9.8967527e-05
0.00030801336
-4.9449885e-05
0.00033947574
-6.6943463e-06
0.00036620356
1.0633553e-05
0.00038003256
5.2886728e-06
0.00039682543
-1.1783958e-06
0.00041952574
-0.0019695126
0.00058178577
0.00017636143
0.0003169493
0.0014705255
-0.00024344239
0.00069457489
-0.00041228495
-0.00064024814
-2.3542979e-05
-0.00093988441
0.00027223427
-0.00054012141
0.00037552991
0.00012671324
0.00023051115
0.00020758408
9.0236832e-05
-1.9150885e-05
9.5894124e-05
-0.00016243731
0.00015848413
-0.00019583608
0.00021745965
-0.0001696516
0.00026043049
-0.00011793851
0.0002928308
-6.3074935e-05
0.00032164936
-1.5417795e-05
0.00034821661
1.2470769e-05
0.00036438852
8.0168487e-06
0.00037732904
-2.0353145e-06
0.00039770985
-5.7195354e-06
0.00042525996
-0.0025397991
0.00078397275
0.0003813571
0.00037679182
0.0021907198
-0.00040324531
0.0010615713
-0.00061042207
-0.0009814491
-7.106773e-05
-0.0013407662
0.00037736003
-0.0007455949
0.00047772126
0.00024691429
0.00025533272
0.00037836468
5.9726837e-05
3.0266814e-05
4.0808861e-05
-0.00018545597
0.00011890034
-0.00023612213
0.00019875798
-0.00020303434
0.00025083293
-0.00013887629
0.00028136411
-7.6082606e-05
0.00030584125
-2.3754765e-05
0.00032999678
1.1135909e-05
0.00034956878
1.0794764e-05
0.00036163281
-3.5199925e-06
0.0003788383
-1.0254953e-05
0.00040227244
-8.9886026e-06
0.00043426294
-0.0031252315
0.00083234154
0.00067167053
0.00049366096
0.0030892851
-0.00052177373
0.0015316561
-0.00087331417
-0.0014454334
-0.00014642168
-0.0019484685
0.00053665422
-0.0010184237
0.00065020074
0.00042946482
0.00029517141
0.0006552589
-2.1568311e-05
0.00014104612
-5.1065917e-05
-0.00020350413
5.8841911e-05
-0.0002918083
0.00017457161
-0.00025060185
0.00024631224
-0.00016394399
0.00027589098
-8.7491036e-05
0.0002927682
-2.9997781e-05
0.00031208684
8.8305852e-06
0.00033231235
1.2299926e-05
0.00034808079
-4.9176889e-06
0.00036305271
-1.6321073e-05
0.00038492883
-1.6494601e-05
0.00040980519
-1.0185409e-05
0.00044446238
-0.0039191227
0.0011532828
0.00097573764
0.00052827574
0.0043674584
-0.00078451259
0.0021757895
-0.0011658934
-0.002087907
-0.00023082587
-0.0028394134
0.00074453968
-0.0013734789
0.00089171834
0.00072340911
0.00035625302
0.0010599984
-0.00010957829
0.00029985185
-0.00018038979
-0.00021228273
-4.2302861e-05
-0.00037301694
0.00014003676
-0.00032515081
0.0002491086
-0.00019776111
0.00028011969
-9.6097897e-05
0.00028449088
-3.1802372e-05
0.00029456993
7.9627217e-06
0.00031295778
1.279118e-05
0.00033183138
-6.9083521e-06
0.00035008867
-2.3251343e-05
0.0003700052
-2.5332445e-05
0.0003937909
-1.9691459e-05
0.00041933762
-9.2605328e-06
0.00045373661
-0.0045595101
0.0012542965
0.0014805632
0.00064845796
0.0057581902
-0.00086245655
0.0029596051
-0.0015683175
-0.0028914135
-0.00036237393
-0.0040988569
0.0010286299
-0.0018444467
0.0012155132
0.0011641423
0.00045097766
0.0016498081
-0.00023356994
0.00056846824
-0.00037821194
-0.00025595053
-0.00013673636
-0.00051064243
9.5312858e-05
-0.00044871155
0.00026359141
-0.00024965528
0.00030099917
-0.0001004857
0.00028450473
-2.5140291e-05
0.00027782642
1.1699088e-05
0.00029083311
1.3168857e-05
0.00031258398
-1.0825544e-05
0.00033575907
-3.0383269e-05
0.00035723784
-3.6262787e-05
0.00038095771
-2.9454479e-05
0.00040357792
-1.9397736e-05
0.00042950083
-6.4379887e-06
0.00046018796
-0.005473932
0.0014905948
0.0021856434
0.00054921649
0.0077259351
-0.0013192875
0.0040062149
-0.0019090589
-0.0039859454
-0.00047377431
-0.0058269073
0.0013656854
-0.0024367775
0.0016209641
0.0018076022
0.00057204369
0.0025043472
-0.00040357633
0.00097740181
-0.0006425207
-0.00037261254
-0.00026156192
-0.00071202753
6.464444e-05
-0.00065563871
0.00030224218
-0.00033445959
0.00034840208
-9.8576882e-05
0.00029909751
-3.3280022e-06
0.0002626974
2.4906284e-05
0.00026462152
1.491944e-05
0.00028908405
-1.6586739e-05
0.00031834962
-3.9855723e-05
0.00034524209
-4.7940629e-05
0.0003689328
-4.1567094e-05
0.00039309234
-2.9193284e-05
0.00041339721
-1.4905478e-05
0.00043799404
-2.0187613e-06
0.00046221979
-0.0063507854
0.00156445
0.0028069191
0.00086931851
0.0098797674
-0.0016046166
0.0049928007
-0.0023058689
-0.0052072736
-0.00068772012
-0.0081413016
0.0018406272
-0.0032060607
0.0021349717
0.0026982227
0.00073033484
0.0036917189
-0.00061534217
0.0015688253
-0.00099501431
-0.00053659236
-0.00047854917
-0.0010387492
6.5161544e-05
-0.00096115155
0.00037016761
-0.00047226168
0.0004400609
-8.6981671e-05
0.00033682575
4.5391685e-05
0.00025039412
5.4870801e-05
0.00023274368
2.0746161e-05
0.00025879976
-2.4022877e-05
0.00029652245
-5.2561015e-05
0.00033105927
-6.1520501e-05
0.00035883205
-5.571767e-05
0.00038310001
-3.9930782e-05
0.00040385151
-2.3679806e-05
0.00042219493
-6.0680674e-06
0.00044206876
3.4044556e-06
0.00045882813
-0.0070125426
0.0020780654
0.0035588742
0.00081249334
0.012680184
-0.0019310993
0.0060525034
-0.0026643174
-0.0067682986
-0.00074483312
-0.011140572
0.0023115586
-0.004104923
0.0027394943
0.0038807911
0.00095239919
0.0053066791
-0.00088463647
0.0024023571
-0.0014488831
-0.00075228464
-0.00077932547
-0.0015806695
6.3379253e-05
-0.0013808697
0.00048489668
-0.000675438
0.0005733683
-5.6905509e-05
0.00041001249
0.00013773158
0.00024451217
0.00011258582
0.00019269959
3.568954e-05
0.00021781242
-3.2696459e-05
0.00026747786
-6.9493763e-05
0.0003134564
-7.8704995e-05
0.00034824674
-7.1386969e-05
0.00037451023
-5.3214037e-05
0.000396399
-3.1844311e-05
0.0004120371
-1.1771973e-05
0.00042792178
5.2395462e-06
0.00044025888
8.7796869e-06
0.00045006099
-0.007065556
0.0019231656
0.005016338
0.00062059887
0.015518428
-0.0020257515
0.0073761638
-0.0032547597
-0.0086235815
-0.00080902348
-0.014838368
0.0029529727
-0.0052704013
0.0034770437
0.0054276694
0.0011926186
0.0074778504
-0.0012187795
0.0035356124
-0.0020178945
-0.0010208398
-0.0011803265
-0.0024067539
4.6772671e-05
-0.0019922606
0.0006747918
-0.00095201896
0.00076150605
-3.4199433e-06
0.00051991395
0.00030099587
0.00024677875
0.00021720262
0.00013992095
6.8247205e-05
0.0001601596
-4.1682205e-05
0.00022680641
-9.2237125e-05
0.00029022227
-0.00010134154
0.00033609098
-9.039956e-05
0.00036725972
-6.8586622e-05
0.00038988973
-4.1975743e-05
0.00040654474
-1.7710522e-05
0.00041799584
3.7908025e-06
0.00042939289
1.6236209e-05
0.00043282734
1.2971481e-05
0.00043710186
-0.0068615282
0.0016951579
0.0070617128
-0.00012221341
0.019174225
-0.0030351985
0.0086501336
-0.0032997223
-0.010722276
-0.0011560541
-0.019402878
0.003755501
-0.0065737668
0.0042563468
0.0073867958
0.0015179262
0.010310547
-0.0016400824
0.0050571795
-0.0027403453
-0.0013462553
-0.0016924745
-0.0035940106
6.946338e-06
-0.0028989676
0.00095350336
-0.0013377682
0.0010605698
8.8609641e-05
0.00066950603
0.0005607467
0.00026019094
0.00039736319
6.664102e-05
0.00013079877
7.7385889e-05
-4.9271155e-05
0.00016775674
-0.00012368882
0.00025825865
-0.00013234611
0.00032122166
-0.00011485238
0.00036053704
-8.7234877e-05
0.00038590483
-5.5692161e-05
0.00040361044
-2.556535e-05
0.00041441201
-1.0569278e-07
0.00042191136
2.0098464e-05
0.00042555228
2.4261843e-05
0.00042156182
1.5512854e-05
0.00042160117
-0.0064145072
0.0015268518
0.0092237681
-0.00046690313
0.023312316
-0.0042603055
0.0094280101
-0.003813076
-0.012105242
-0.0019167442
-0.025033432
0.004474519
-0.0077321813
0.0049139246
0.0098843892
0.001758766
0.013982797
-0.0021543283
0.0070311027
-0.0036140056
-0.0017460593
-0.0023405369
-0.0052308902
-5.5581546e-05
-0.0042252838
0.0013332855
-0.0018750542
0.0014908144
0.00025019907
0.00089900504
0.00095020782
0.00028006513
0.00069166879
-3.4101095e-05
0.00023994031
-4.2492978e-05
-5.3183367e-05
8.1299097e-05
-0.00016890861
0.00021297222
-0.00017677984
0.00030268304
-0.00014818592
0.00035454265
-0.00011100013
0.00038429012
-7.3273029e-05
0.00040347851
-3.6992741e-05
0.00041503908
-5.0040921e-06
0.00041932062
2.0146788e-05
0.00042188064
3.3707942e-05
0.00041612699
2.9163015e-05
0.00040793635
1.6538766e-05
0.00040507447
-0.0058149639
0.0017492256
0.01153643
-0.00078581677
0.027076159
-0.0042307457
0.0090964307
-0.0039287263
-0.014108344
-0.0018099633
-0.031380229
0.004430074
-0.0089644076
0.0057067539
0.012802214
0.0019961127
0.018583601
-0.0028420436
0.0095394561
-0.0046626888
-0.0022436261
-0.0031164373
-0.00741808
-0.0001533422
-0.0061127242
0.0018318778
-0.0026283956
0.0020866452
0.00051130707
0.0012297248
0.0015455306
0.00030369323
0.0011422456
-0.00017050955
0.00041360131
-0.00020776771
-5.1961967e-05
-4.3726186e-05
-0.00023743251
0.00014980816
-0.00024478788
0.00028096337
-0.00019769283
0.00035217124
-0.00014354896
0.00038707214
-9.5214531e-05
0.00040621432
-5.1084504e-05
0.0004175591
-1.1759403e-05
0.00042179251
1.9268359e-05
0.00042020684
3.9276267e-05
0.00041632831
4.1420741e-05
0.00040388914
3.1366776e-05
0.00039313298
1.6331019e-05
0.00038875542
-0.0051152105
0.0018056734
0.014009073
-0.00072342535
0.030671159
-0.0043808163
0.0083671289
-0.0035014424
-0.018215189
0.00017812983
-0.03877022
0.0055800519
-0.011838353
0.0073040269
0.015934078
0.0025748983
0.024214164
-0.0036344583
0.012558075
-0.0058606793
-0.0028500571
-0.0040562602
-0.010270224
-0.00026429788
-0.0087404107
0.0024743577
-0.0036640004
0.0028674934
0.00090829661
0.0016896674
0.0024344058
0.0003408527
0.0018098234
-0.00036389205
0.00069473035
-0.00045165601
-5.9807219e-05
-0.00019994742
-0.00035117903
6.9992844e-05
-0.00035406447
0.00025905759
-0.00027443056
0.00035767519
-0.00018956882
0.00039816587
-0.00012246899
0.00041430239
-6.7435775e-05
0.0004225443
-2.0167325e-05
0.00042595254
1.6722491e-05
0.00042433357
4.1789323e-05
0.00041769904
5.1348558e-05
0.00040641475
4.5129211e-05
0.0003901456
3.1186612e-05
0.00037830199
1.522576e-05
0.0003735416
-0.0043559739
0.0017829337
0.016638657
-0.00082391943
0.034663344
-0.0047156119
0.0070937534
-0.0031074382
-0.022708756
0.00099213484
-0.046404552
0.007812487
-0.014768869
0.0085105757
0.019122494
0.0041156146
0.0312044
-0.0044153468
0.016093001
-0.0071694088
-0.0036433323
-0.0050674096
-0.013902505
-0.00042398946
-0.012293784
0.0032890841
-0.0050688657
0.0038792308
0.0014831328
0.0022926637
0.0037283725
0.00039569974
0.0027840224
-0.00063335973
0.0011164748
-0.00078566054
-5.4688243e-05
-0.00045680834
-0.00050993687
-4.1226285e-05
-0.00051875898
0.00023465145
-0.00038914709
0.00037374169
-0.00025449945
0.00042257652
-0.00015635281
0.00043202198
-8.5595079e-05
0.00043243529
-2.9482088e-05
0.00043183562
1.3146907e-05
0.00042951135
4.1670272e-05
0.00042444528
5.7759425e-05
0.00041129096
5.6653331e-05
0.00039490317
4.5534546e-05
0.00037581559
2.9522882e-05
0.00036402953
1.3626111e-05
0.00035992738
-0.0035936345
0.0017223184
0.01929493
-0.00087335034
0.038755178
-0.0049157535
0.0060682247
-0.0036900813
-0.027360888
0.0015447018
-0.053621236
0.0082088419
-0.014766322
0.0078099465
0.023062766
0.0045703006
0.040381483
-0.0050614785
0.020182092
-0.0085044655
-0.0046684055
-0.0061443427
-0.018430967
-0.00053895347
-0.017031824
0.0043140584
-0.0069066185
0.0051268497
0.002290207
0.0030721613
0.0055497835
0.00047125318
0.0041761059
-0.00099639918
0.0017235338
-0.0012404433
-2.8774811e-05
-0.00081160938
-0.00075759756
-0.00020918644
-0.000737652
0.00017762768
-0.00055375071
0.00039922036
-0.00034707341
0.00046628546
-0.0001987525
0.00046494922
-0.00010421339
0.00045061414
-3.7990443e-05
0.00044091798
9.1630988e-06
0.0004357958
4.0690668e-05
0.00043047295
5.9503288e-05
0.00042269199
6.5607181e-05
0.00040233758
5.7511538e-05
0.00038293711
4.3282309e-05
0.00036207314
2.7392042e-05
0.00035028829
1.2109829e-05
0.00034782941
-0.0028639301
0.0015685621
0.02185967
-0.00084243355
0.042838753
-0.0049569251
0.0050243739
-0.0038718984
-0.031523009
0.00047204781
-0.060380689
0.0083041749
-0.013470011
0.0069125362
0.027863997
0.0030087093
0.051040213
-0.0060884412
0.025165673
-0.010045086
-0.0059781694
-0.0071947089
-0.023957888
-0.00061741893
-0.023214636
0.0056438688
-0.0092560442
0.0066635075
0.003400507
0.0040165578
0.0080603476
0.00056160417
0.0061126103
-0.0014652648
0.0025727856
-0.0018456713
2.0268492e-05
-0.0012895193
-0.001105559
-0.00046368207
-0.0011014295
0.00015455516
-0.00080727499
0.00043112111
-0.00048601479
0.00053813537
-0.00025460029
0.00052211109
-0.00012166208
0.00048237728
-4.222884e-05
0.00045483106
7.9652752e-06
0.0004420933
4.0879167e-05
0.00043558514
6.2268169e-05
0.00042768973
7.1442133e-05
0.00041684609
6.1430257e-05
0.00039841735
5.5537679e-05
0.00037069128
3.9699512e-05
0.00034978172
2.4911407e-05
0.00033751145
1.0478969e-05
0.00033736222
-0.0022204771
0.0013466041
0.02422483
-0.00079661165
0.046858096
-0.0048617773
0.0039315248
-0.0038640698
-0.035931975
0.00053707651
-0.067731043
0.0078224219
-0.01162283
0.0064569999
0.032869069
0.0019074552
0.06167069
-0.0076217798
0.031431472
-0.012354262
-0.0072299958
-0.0087932664
-0.030428878
-0.00072370838
-0.031182765
0.0073507247
-0.012090373
0.0084782294
0.0049000198
0.0051640096
0.011415097
0.00066182203
0.0087484948
-0.0020742887
0.003732681
-0.0026251741
9.183058e-05
-0.0019172609
-0.0015942966
-0.00080080742
-0.0016765641
0.00011142381
-0.0011694273
0.00051668525
-0.00070570745
0.00065079507
-0.00033268602
0.00061620714
-0.00013573642
0.0005361734
-3.7300108e-05
0.00047743597
1.406003e-05
0.00044872117
4.3687553e-05
0.00043926698
6.3740229e-05
0.00043409332
7.4695961e-05
0.0004244179
7.3754591e-05
0.00040450985
6.716862e-05
0.00038678332
5.1226552e-05
0.00035917261
3.5852336e-05
0.00033885591
2.0842649e-05
0.00032717246
9.0036073e-06
0.00032837031
-0.0016772351
0.0010598166
0.026272923
-0.00070150186
0.050653879
-0.0045923971
0.0028192036
-0.0037494486
-0.040386272
0.00059023594
-0.075221942
0.0080279954
-0.011328762
0.0075283607
0.038425417
0.00090064358
0.072491912
-0.0089137779
0.037229731
-0.013420057
-0.0087456065
-0.010838656
-0.03751214
-0.0017099936
-0.040971593
0.0090651355
-0.015271202
0.010531582
0.0069656613
0.0064126071
0.015808895
0.00077022752
0.012243756
-0.0028334424
0.0052545964
-0.003596212
0.00019344744
-0.0027268123
-0.002262783
-0.0012487908
-0.0025076158
3.0224075e-05
-0.001728057
0.00067004148
-0.0010110966
0.00082206463
-0.00045052641
0.00076863033
-0.00014216904
0.00062263655
-1.4594595e-05
0.00051346452
3.5242405e-05
0.0004562484
5.4939914e-05
0.00043745977
6.8012835e-05
0.00043498114
7.7064847e-05
0.00043170723
7.8454339e-05
0.00041970096
7.297639e-05
0.00039868982
6.227893e-05
0.00037572673
4.6118303e-05
0.000348914
3.0821689e-05
0.000328891
1.8059685e-05
0.00031814103
7.9454958e-06
0.0003204364
-0.0012322709
0.00077161907
0.027966506
-0.00063378047
0.054128551
-0.004176176
0.0016188966
-0.0033920817
-0.044630073
0.00049436152
-0.082680949
0.0080492587
-0.011027973
0.0077272137
0.04174268
0.0042110914
0.083154761
-0.0097622159
0.042242034
-0.013926095
-0.01188611
-0.010279555
-0.045524822
-0.0028259687
-0.052984032
0.01030246
-0.018633549
0.012427502
0.0097695758
0.0077276836
0.021418901
0.00080261114
0.016795775
-0.0037817936
0.0072060793
-0.0047849307
0.0003344769
-0.0037372572
-0.0031610825
-0.0018285203
-0.003668558
-8.7859028e-05
-0.0025775994
0.00087976453
-0.0014432257
0.0011021696
-0.00061065051
0.00098219059
-0.00013784599
0.00076431054
3.8635178e-05
0.00056940903
8.4001658e-05
0.00046470713
8.3001292e-05
0.00042818609
7.8897885e-05
0.00042657046
8.0031028e-05
0.00043200508
8.0700722e-05
0.00042944592
7.7145499e-05
0.00041551577
6.8822993e-05
0.00039213366
5.6194004e-05
0.00036564605
4.0821785e-05
0.00033892035
2.7127009e-05
0.0003198368
1.595616e-05
0.00031015488
7.3922774e-06
0.00031305559
-0.00095890862
0.0004448505
0.029332479
-0.00059436726
0.056996899
-0.0035021303
0.00033354498
-0.0028908151
-0.048456763
0.00043461844
-0.090061659
0.0078750849
-0.010563211
0.0075845029
0.045174255
0.0042956333
0.09390059
-0.0065347459
0.046497348
-0.014017544
-0.016323886
-0.0094883184
-0.052222564
-0.003581812
-0.067695218
0.011885227
-0.022741201
0.014410123
0.013088868
0.0091082137
0.028441398
0.00070518992
0.022546378
-0.0049480019
0.0096293224
-0.0062050433
0.00051614107
-0.004966608
-0.0043195828
-0.0025787593
-0.0052516511
-0.00024542608
-0.0038185384
0.001153087
-0.0020788528
0.0015154015
-0.00081485976
0.0013063862
-0.00012197285
0.00096632515
0.00014336456
0.00065958432
0.00017605622
0.00047735768
0.00014005787
0.00040765136
0.00010360792
0.0004034768
8.6293574e-05
0.00042030526
8.0779694e-05
0.00043191784
7.7730637e-05
0.00042884766
7.2546766e-05
0.00041177702
6.3022439e-05
0.00038529369
5.0191637e-05
0.00035627066
3.6227515e-05
0.00032982541
2.4184715e-05
0.00031162035
1.4881279e-05
0.00030269026
7.3814042e-06
0.00030568546
0.00013135581
-0.00091970511
0.030141633
-0.00036431517
0.05914223
-0.0027397002
-0.00092762211
-0.0022409539
-0.051754899
0.00040733201
-0.097044276
0.0074172481
-0.010043856
0.0073557363
0.048451842
0.004306912
0.10471862
-0.0065224018
0.053563936
-0.013601351
-0.021832083
-0.0085093487
-0.060195044
-0.001515838
-0.084938049
0.013661025
-0.028172954
0.017316994
0.016123075
0.01137591
0.037017909
0.00053170452
0.029597594
-0.0063460461
0.012522061
-0.0078407497
0.00073339435
-0.0064223096
-0.0057784686
-0.0035077247
-0.0073656082
-0.00046479
-0.0055732613
0.00150931
-0.0030115478
0.0020858053
-0.0010919293
0.0017924841
-6.3101384e-05
0.0012475281
0.00031150518
0.00079818679
0.00034094932
0.00049469219
0.00024459669
0.00037281473
0.00015231596
0.00035894092
0.00010060685
0.00038916207
7.9861039e-05
0.00042121951
7.3919564e-05
0.00043572098
7.1685759e-05
0.00042969636
6.6377097e-05
0.00040840847
5.7014037e-05
0.00037846054
4.5284349e-05
0.00034720773
3.2772765e-05
0.00032124213
2.2648825e-05
0.00030386398
1.4752683e-05
0.00029534314
7.7704606e-06
0.00029792608
-8.291516e-05
0.030355894
-0.00012308997
-0.001056715
0.060468053
-0.0016901402
-0.0020650403
-0.0016022733
-0.054419897
0.00042405645
-0.10329586
0.0066589276
-0.0093890302
0.0067624288
0.051541587
0.00426599
0.11552033
-0.0064948057
0.060853637
-0.013812124
-0.022661195
-0.012772245
-0.071193919
0.0024895283
-0.10260641
0.016152526
-0.036379984
0.021868082
0.019027961
0.014412104
0.0472951
0.0010987289
0.038181393
-0.0080521121
0.015872186
-0.0096961811
0.00097197673
-0.0080793432
-0.007554427
-0.004646359
-0.010128316
-0.00074499796
-0.007995291
0.0019572527
-0.0043474158
0.0028452126
-0.001479439
0.002473334
6.6242845e-05
0.0016631613
0.00057836164
0.00098067633
0.00060673443
0.00053240215
0.00042065604
0.00031862318
0.00024249226
0.00028262741
0.00013079937
0.000328741
7.9822169e-05
0.00038919326
6.5019014e-05
0.00043011296
6.4623257e-05
0.00044277412
6.4622646e-05
0.00043143836
6.0292604e-05
0.00040511702
5.1684082e-05
0.00037205064
4.0692071e-05
0.00033928174
3.0822246e-05
0.00031307284
2.2416983e-05
0.00029621001
1.5326975e-05
0.00028781054
8.4896171e-06
0.00028944727
-0.00061805579
0.061003193
0.0001836762
0.030049121
-0.00040960408
-0.0014230599
-0.0027604054
-0.00099476763
-0.056483646
0.00046148783
-0.10860392
0.0057321289
-0.0086743202
0.0059442249
0.054245011
0.004059002
0.12605062
-0.0062643063
0.068290893
-0.013932084
-0.023438586
-0.013034743
-0.07796373
-0.006002426
-0.1174115
0.017294617
-0.042772383
0.022544958
0.024834367
0.016061687
0.059636237
0.0020709803
0.049180516
-0.0099003957
0.01952606
-0.011705996
0.0012191428
-0.0099433491
-0.009665299
-0.0059684845
-0.013628788
-0.0011458687
-0.011259807
0.0025195251
-0.0062305531
0.0038404246
-0.0020169678
0.003382762
0.00029021609
0.0022493861
0.001017778
0.0012237555
0.0010050588
0.00058235655
0.0007140509
0.0002389985
0.00039435975
0.00016673914
0.00018521681
0.00022819549
8.2766388e-05
0.00032578111
4.9852406e-05
0.00040434724
4.9019387e-05
0.00044570609
5.5496464e-05
0.00045188772
5.8345616e-05
0.00043337244
5.5357541e-05
0.0004014313
4.7904376e-05
0.00036482832
3.8991193e-05
0.00033110557
3.0524143e-05
0.00030496941
2.3245265e-05
0.00028830134
1.6712722e-05
0.00027961099
9.4711661e-06
0.0002799866
-0.00030040027
-0.0030780553
0.00052775709
0.060659111
0.0004817807
0.02915773
-0.00074738269
-0.0019368317
-0.057690163
0.00021176158
-0.11252561
0.0043831901
-0.0077534744
0.0048112905
0.056576387
0.0036128429
0.13594288
-0.0058332636
0.075590874
-0.01356431
-0.024210969
-0.013159718
-0.084602581
-0.0063958758
-0.13326139
0.0098474637
-0.044379226
0.018901479
0.032571205
0.014808141
0.073639375
0.0020585511
0.062996639
-0.011745125
0.023611108
-0.013985459
0.0014128582
-0.0118997
-0.012072598
-0.007536064
-0.017973954
-0.001623304
-0.015603976
0.0031982998
-0.0088204955
0.0051094863
-0.0027613452
0.0045848159
0.00064309851
0.0030298941
0.0017025161
0.0015646605
0.0016045167
0.00062430499
0.0011671177
0.0001292887
0.00064115374
-7.8090251e-06
0.00028012186
7.18205e-05
9.2733827e-05
0.00021820807
2.6835057e-05
0.00034877936
2.1452341e-05
0.00043189907
3.5405515e-05
0.00046578107
4.8445024e-05
0.00046177246
5.3977178e-05
0.00043473938
5.2366348e-05
0.00039695673
4.6521734e-05
0.0003572875
3.9042992e-05
0.00032257923
3.1706258e-05
0.00029651198
2.517004e-05
0.00027985298
1.8532512e-05
0.00027057279
1.0522821e-05
0.00026947391
0.00014234271
-0.058132895
0.00045530978
-0.0030056042
0.0015327854
0.059608107
0.00065446509
0.027755878
-0.0010583048
-0.002530756
-0.11508446
0.0027706282
-0.0068883702
0.003518094
0.058454434
0.0029332353
0.14484231
-0.0052865977
0.082441227
-0.012683637
-0.024832027
-0.012943271
-0.092277489
-0.0054847979
-0.14907363
0.0094163755
-0.053750716
0.019218971
0.038456505
0.013016182
0.086624103
0.001823399
0.078181349
-0.013126143
0.028159255
-0.016293293
0.0014598609
-0.014032445
-0.014750612
-0.0092216942
-0.023223152
-0.0022868568
-0.0212408
0.0040135205
-0.012359577
0.0067373779
-0.0037605869
0.0061087296
0.0011814506
0.0040464511
0.002713179
0.0020192328
0.0025028899
0.00066628484
0.0018168458
-2.5420393e-05
0.0010253967
-0.00025496045
0.000429944
-0.00015763497
0.00011528878
4.9252243e-05
-5.7071403e-06
0.00025073216
-2.2986136e-05
0.00039320246
-7.9486027e-07
0.00046808136
2.6299606e-05
0.00048790596
4.4662358e-05
0.00047106952
5.2264781e-05
0.00043482618
5.1897542e-05
0.00039156694
4.6954049e-05
0.00034936586
4.0805969e-05
0.00031347207
3.4129868e-05
0.00028755573
2.7760324e-05
0.00027063353
2.0544523e-05
0.00026057373
1.1629307e-05
0.00025785435
0.00089911449
-0.11584122
-0.00013391239
-0.057543663
0.00088244205
-0.0023552587
0.0026044102
0.057658163
0.00067874134
0.026018829
-0.0013451595
-0.0032281288
-0.0065186016
0.0024008688
0.059465147
0.0025073715
0.15235458
-0.0045790517
0.088302019
-0.011147406
-0.025297412
-0.012218269
-0.099528694
-0.005692057
-0.16404964
0.0094912051
-0.064224892
0.019890543
0.036098596
0.021576886
0.097308737
0.0023315332
0.093653713
-0.013648977
0.033589118
-0.018556025
0.001258305
-0.016091731
-0.0176979
-0.011085157
-0.029464492
-0.0029803491
-0.028471062
0.0049434125
-0.017072126
0.0087260537
-0.0050676614
0.0080444432
0.0019800717
0.0053100683
0.0041676191
0.0025919892
0.0038041181
0.00071797768
0.0027363179
-0.00025319758
0.0015871634
-0.00058719413
0.00065829701
-0.00048330923
0.00015745043
-0.00019979685
-5.1150444e-05
9.4688592e-05
-9.1340805e-05
0.00031908109
-6.0420807e-05
0.00045281767
-1.4248549e-05
0.00050860972
2.2976078e-05
0.00050957102
4.4780044e-05
0.00047853537
5.3615578e-05
0.00043309062
5.4031721e-05
0.00038447337
5.00458e-05
0.00034011541
4.3883122e-05
0.00030371168
3.7436416e-05
0.00027788332
3.0698232e-05
0.00026048764
2.2773306e-05
0.00024945181
1.267493e-05
0.00024518873
0.00095191969
-0.0065713969
-0.0012165913
-0.11475853
4.1008487e-05
-0.056702221
0.0016659554
-0.0014168028
0.0034518069
0.054885099
0.00075411047
0.023919556
-0.0015684377
-0.0039929494
0.060364634
0.0015013732
0.15830175
-0.003439821
0.093051284
-0.0093283296
-0.025426166
-0.011018669
-0.10641955
-0.0053274115
-0.17913322
0.0093915186
-0.073781294
0.019047606
0.034007985
0.021981162
0.10223425
0.016651348
0.11025245
-0.014267189
0.040139331
-0.020199193
0.00085058635
-0.01814831
-0.021055123
-0.012734501
-0.03680433
-0.0037453149
-0.037560177
0.0061087792
-0.023321156
0.011192433