/*--------------------------------*- C++ -*----------------------------------*\
| =========                 |                                                 |
| \\      /  F ield         | OpenFOAM: The Open Source CFD Toolbox           |
|  \\    /   O peration     | Version:  5.0                                   |
|   \\  /    A nd           | Web:      www.OpenFOAM.org                      |
|    \\/     M anipulation  |                                                 |
\*---------------------------------------------------------------------------*/
FoamFile
{
    version     2.0;
    format      ascii;
    class       volScalarField;
    location    "180";
    object      nut;
}
// * * * * * * * * * * * * * * * * * * * * * * * * * * * * * * * * * * * * * //

dimensions      [0 2 -1 0 0 0 0];

internalField   nonuniform List<scalar> 
9520
(
1.5349819e-117
1.9476632e-109
1.341331e-117
1.4166892e-102
1.7040336e-109
1.1705962e-117
1.8381651e-96
1.2403077e-102
1.4887431e-109
1.029679e-117
6.832221e-91
1.6103778e-96
1.0844393e-102
1.3123284e-109
9.2062294e-118
9.4926068e-86
5.9895774e-91
1.4094139e-96
9.5771884e-103
1.1780657e-109
8.3867575e-118
5.8833204e-81
8.325803e-86
5.2486473e-91
1.2471827e-96
8.6262622e-103
1.0786249e-109
7.7376136e-118
1.8320811e-76
5.1631009e-81
7.3046377e-86
4.6542132e-91
1.1266176e-96
7.9269398e-103
9.9824975e-110
7.1332094e-118
3.0895838e-72
1.6099611e-76
4.535943e-81
6.4903504e-86
4.2145286e-91
1.0378546e-96
7.3438521e-103
9.1840439e-110
6.4584276e-118
2.9904408e-68
2.7211016e-72
1.4172995e-76
4.0387556e-81
5.8885425e-86
3.8876126e-91
9.6096832e-97
6.7278503e-103
8.2477108e-110
5.6654594e-118
1.754733e-64
2.642152e-68
2.4018338e-72
1.2652462e-76
3.6704635e-81
5.4330449e-86
3.5921967e-91
8.7543876e-97
5.9839768e-103
7.1533267e-110
4.8111388e-118
7.0507755e-61
1.5536323e-64
2.3393928e-68
2.1499047e-72
1.1520855e-76
3.3849175e-81
5.0025516e-86
3.2506879e-91
7.7082315e-97
5.1316753e-103
6.0254759e-110
4.0326907e-118
3.9396347e-57
6.125472e-61
1.3781807e-64
2.0983258e-68
1.9611059e-72
1.0619545e-76
3.1024071e-81
4.4916142e-86
2.8336272e-91
6.5422307e-97
4.2957104e-103
5.0649328e-110
3.4721282e-118
3.5490859e-52
2.9223394e-57
5.3431426e-61
1.2349891e-64
1.916069e-68
1.8069819e-72
9.6875716e-77
2.7611553e-81
3.8757827e-86
2.3837374e-91
5.4555126e-97
3.6318139e-103
4.4423702e-110
3.2182628e-118
5.5271744e-46
1.9193504e-52
2.1758715e-57
4.6905754e-61
1.1261338e-64
1.7652228e-68
1.6415289e-72
8.5462295e-77
2.3581229e-81
3.236019e-86
1.9852953e-91
4.652589e-97
3.2510995e-103
4.2459715e-110
3.3010156e-118
9.7817937e-40
3.0825698e-46
8.8171309e-53
1.5978677e-57
4.2122066e-61
1.0376192e-64
1.5989496e-68
1.4362375e-72
7.2270562e-77
1.9564935e-81
2.6982069e-86
1.712025e-91
4.2561413e-97
3.1990041e-103
4.4887466e-110
3.6944525e-118
7.7881677e-34
6.4712441e-40
1.1407035e-46
3.073576e-53
1.2431837e-57
3.8614737e-61
9.3908119e-65
1.3888384e-68
1.2033591e-72
5.9671107e-77
1.6369953e-81
2.3572359e-86
1.6006126e-91
4.3003098e-97
3.4643965e-103
5.0973601e-110
4.2752704e-118
2.2562615e-28
5.9902253e-34
2.4308171e-40
2.239849e-47
1.1115247e-53
1.0562944e-57
3.4917613e-61
8.1072647e-65
1.1532053e-68
9.8987824e-73
5.0216035e-77
1.4515939e-81
2.2504369e-86
1.6541593e-91
4.7396137e-97
3.9566687e-103
5.8412578e-110
4.7700351e-118
2.1608181e-23
1.9448776e-28
2.3202252e-34
4.283063e-41
3.6549898e-48
5.8603368e-54
9.266422e-58
2.9948803e-61
6.6671213e-65
9.4537742e-69
8.3919466e-73
4.5277662e-77
1.4141515e-81
2.3676312e-86
1.8422075e-91
5.4003275e-97
4.4512464e-103
6.301517e-110
4.8233197e-118
6.1783926e-19
2.0110969e-23
7.7529627e-29
4.0442536e-35
6.5383254e-42
1.1691633e-48
4.276588e-54
7.7501681e-58
2.4306364e-61
5.4401014e-65
8.0809259e-69
7.69942e-73
4.4983688e-77
1.5081174e-81
2.6448433e-86
2.078014e-91
5.9232538e-97
4.6135373e-103
6.0537593e-110
4.2415955e-118
4.8758834e-15
6.0357214e-19
8.2468814e-24
1.3817626e-29
7.2663509e-36
2.7616742e-42
8.4145682e-49
3.1122536e-54
6.0479112e-58
1.9651757e-61
4.6869683e-65
7.5468864e-69
7.787676e-73
4.8454666e-77
1.6785437e-81
2.9320355e-86
2.2096917e-91
5.872804e-97
4.1980011e-103
5.0137833e-110
3.1923387e-118
9.6758032e-12
4.8142347e-15
2.6398336e-19
1.576503e-24
3.1321118e-30
4.9920578e-36
3.1027089e-42
5.4925419e-49
1.8346967e-54
4.7136953e-58
1.7023089e-61
4.4561349e-65
7.7597334e-69
8.4381008e-73
5.345039e-77
1.8162609e-81
3.0075579e-86
2.0908269e-91
5.0557007e-97
3.2777872e-103
3.561721e-110
2.0853011e-118
4.8003252e-09
9.482433e-12
2.2555663e-15
5.9832131e-20
4.7250548e-25
3.4161454e-30
8.5040536e-36
2.415691e-42
1.4382812e-49
1.028965e-54
4.0360704e-58
1.6472208e-61
4.6541941e-65
8.4284588e-69
9.1797582e-73
5.6159848e-77
1.7878342e-81
2.7115967e-86
1.705048e-91
3.7320594e-97
2.2119197e-103
2.2349773e-110
1.2487374e-118
5.9061944e-07
4.6412794e-09
4.8858944e-12
6.354611e-16
2.5330046e-20
7.3989409e-25
7.809343e-30
7.6819633e-36
4.6143504e-43
1.7680848e-50
7.1829802e-55
3.9540724e-58
1.7485318e-61
5.0568088e-65
9.0048007e-69
9.3280981e-73
5.2851658e-77
1.5323491e-81
2.1001822e-86
1.1967359e-91
2.4131253e-97
1.3522192e-103
1.3380587e-110
7.6451715e-119
1.5798099e-05
5.6310646e-07
2.6059207e-09
1.7307454e-12
3.5881356e-16
4.5059137e-20
1.9843635e-24
7.6315035e-30
1.3732627e-36
1.9683315e-44
2.7734783e-51
6.5916392e-55
4.2707838e-58
1.8998999e-61
5.2885285e-65
8.8177735e-69
8.3771633e-73
4.3007677e-77
1.1292013e-81
1.4126398e-86
7.5021233e-92
1.4618633e-97
8.2863513e-104
8.7402936e-111
5.6016808e-119
7.6465553e-05
1.5182805e-05
3.475723e-07
1.1344238e-09
1.2061068e-12
6.7251414e-16
1.2471584e-19
1.985909e-24
1.3089519e-30
4.436396e-38
4.0451594e-46
1.1449185e-51
7.1038859e-55
4.6500832e-58
1.9412085e-61
4.9734922e-65
7.5438281e-69
6.480155e-73
3.022677e-77
7.3351062e-82
8.7133495e-87
4.5926207e-92
9.4055493e-98
5.9395221e-104
7.3340463e-111
5.6620599e-119
0.00014917736
7.4932998e-05
1.0914633e-05
1.8270845e-07
9.3109655e-10
2.2789467e-12
1.7836545e-15
1.2335147e-19
3.3463145e-25
3.7441638e-32
5.0566515e-40
1.6988105e-47
9.695838e-52
7.7394924e-55
4.6391513e-58
1.7473499e-61
4.0449334e-65
5.5560372e-69
4.3682871e-73
1.9116052e-77
4.5224596e-82
5.5085135e-87
3.1786073e-92
7.5768598e-98
5.7932916e-104
8.7479332e-111
8.0994306e-119
0.00021155399
0.00014693651
6.392622e-05
7.0334711e-06
1.6866778e-07
1.738918e-09
5.5677369e-12
1.7074873e-15
2.1081206e-20
9.5672135e-27
3.7867214e-34
8.9543842e-42
4.7769613e-48
1.0136306e-51
7.5330367e-55
3.9821768e-58
1.3469644e-61
2.8399026e-65
3.6158613e-69
2.7207199e-73
1.1963196e-77
3.0202786e-82
4.1890508e-87
2.9201727e-92
8.6128644e-98
8.0345742e-104
1.4222321e-110
1.4669182e-118
0.00026100005
0.00020728513
0.0001328205
5.1264811e-05
6.9669656e-06
3.0423514e-07
3.8030599e-09
5.1290536e-12
3.0641466e-16
6.8627679e-22
1.293444e-28
9.868336e-36
2.345484e-42
4.8470318e-48
9.5166323e-52
6.132617e-55
2.8966013e-58
9.0172696e-62
1.7964124e-65
2.2466406e-69
1.7580239e-73
8.604848e-78
2.571538e-82
4.4057456e-87
3.8251539e-92
1.3544087e-97
1.4329272e-103
2.7189041e-110
2.8680219e-118
0.00030202732
0.00025526012
0.00019072722
0.00011658127
5.1599023e-05
1.1147159e-05
5.8525764e-07
3.3492693e-09
9.9724243e-13
1.2517233e-17
1.4743561e-23
6.6960121e-30
8.1167066e-36
4.9707578e-42
4.5283602e-48
7.0665939e-52
4.17677e-55
1.8468891e-58
5.5794526e-62
1.1284146e-65
1.5248057e-69
1.3831541e-73
8.2906931e-78
3.0905128e-82
6.5047067e-87
6.6055722e-92
2.5583115e-97
2.7939818e-103
5.2502436e-110
5.3349813e-118
0.0003366537
0.00029470399
0.00023693059
0.00017361789
0.00011723899
6.64509e-05
1.7289893e-05
4.9645501e-07
7.2371663e-10
5.3721254e-14
4.3732971e-19
1.5733226e-24
1.2722061e-29
3.2463721e-35
5.9774344e-42
1.9958397e-48
4.2935729e-52
2.5257934e-55
1.1243365e-58
3.5900114e-62
8.1735277e-66
1.3273535e-69
1.5078048e-73
1.12774e-77
5.0217453e-82
1.1921834e-86
1.2790389e-91
4.9485282e-97
5.2068314e-103
9.2332234e-110
8.7576295e-118
0.00036570622
0.0003277349
0.00027490412
0.0002192721
0.00017552491
0.00013631706
8.1423449e-05
1.486863e-05
1.2429652e-07
5.3221367e-11
3.1447481e-15
9.7696817e-20
4.8809435e-24
6.7125965e-29
4.5853659e-35
1.1740205e-42
5.4991382e-49
2.3975268e-52
1.519083e-55
7.5044406e-59
2.8140496e-62
7.9255682e-66
1.6258788e-69
2.2743461e-73
1.9709457e-77
9.4861734e-82
2.3000006e-86
2.4003008e-91
8.7523879e-97
8.5445402e-103
1.3971567e-109
1.2212013e-117
0.00038838663
0.00035487611
0.00030727979
0.0002567423
0.00022214251
0.00019718213
0.00015407474
7.4732754e-05
5.1689142e-06
1.2893822e-08
5.3544656e-12
1.3708082e-15
3.9441443e-19
2.8660886e-23
1.0080852e-28
8.1267755e-36
3.5263921e-44
1.8630141e-49
1.4196385e-52
1.0637373e-55
6.4373479e-59
3.0458733e-62
1.0781707e-65
2.657041e-69
4.1597999e-73
3.7565046e-77
1.783445e-81
4.1150772e-86
3.9798985e-91
1.328428e-96
1.1836188e-102
1.770068e-109
1.4219739e-117
0.00040507826
0.0003760456
0.00033381305
0.00028925525
0.00025974311
0.00024469904
0.00021556317
0.00014497286
4.2960639e-05
8.3580646e-07
2.2321495e-09
4.1380493e-12
6.3352107e-15
2.3230187e-18
4.3723194e-23
1.8345334e-29
1.3608393e-37
6.4136551e-46
9.6443268e-50
1.051794e-52
1.0065965e-55
7.7592312e-59
4.5350145e-62
1.8657035e-65
4.9615992e-69
7.8330443e-73
6.7885632e-77
3.0024835e-81
6.3415083e-86
5.5528665e-91
1.6771517e-96
1.3573934e-102
1.8557775e-109
1.3737193e-117
0.00041652312
0.00039155743
0.00035492877
0.0003164395
0.00029185449
0.00028165962
0.00026163293
0.00020332559
0.00010484041
1.4082325e-05
2.4205813e-07
2.7106611e-09
2.0016e-11
3.4842315e-14
3.492289e-18
8.3428091e-24
3.1096586e-31
3.2647483e-40
6.8973109e-47
7.4702878e-50
1.103721e-52
1.3435269e-55
1.2442104e-58
8.1357345e-62
3.4832643e-65
9.0747047e-69
1.3445609e-72
1.0667474e-76
4.2718134e-81
8.1127236e-86
6.3715024e-91
1.7371873e-96
1.2787538e-102
1.6039208e-109
1.099822e-117
0.00042296824
0.00040221991
0.0003709024
0.0003386124
0.00031875856
0.00031200618
0.00029643985
0.00024724681
0.00015937661
5.8861317e-05
6.8020943e-06
3.9965271e-07
1.2779797e-08
9.7288078e-11
5.0442866e-14
7.094763e-19
1.594991e-25
7.147906e-34
8.2857838e-43
4.1299334e-47
8.6968593e-50
1.6200357e-52
2.2846416e-55
2.271002e-58
1.4927889e-61
6.1036084e-65
1.4660923e-68
1.9606709e-72
1.3898799e-76
4.980414e-81
8.4619051e-86
5.9553578e-91
1.468676e-96
9.8752634e-103
1.1429748e-109
7.309445e-118
0.00042523819
0.00040852407
0.00038254362
0.00035611456
0.00034074118
0.000336759
0.00032386272
0.00028062633
0.00020242468
0.00011111487
4.3137039e-05
1.2144575e-05
1.672872e-06
5.2491227e-08
1.3289879e-10
1.1072835e-14
1.6255452e-20
5.186899e-28
8.7397413e-37
3.6395404e-44
5.0856327e-47
1.3942574e-49
2.8821023e-52
4.1783266e-55
4.0374544e-58
2.4789379e-61
9.2104047e-65
1.9732088e-68
2.3345453e-72
1.4666643e-76
4.6910992e-81
7.1345604e-86
4.5168017e-91
1.0125645e-96
6.2573079e-103
6.7303242e-110
4.0463075e-118
0.00042471311
0.00041151479
0.00039037017
0.00036970964
0.00035816826
0.00035652598
0.00034564223
0.00030755296
0.00023620014
0.00015531574
9.6931124e-05
6.4574798e-05
3.2807537e-05
5.2285887e-06
6.6637534e-08
3.1928693e-11
3.1913008e-16
8.0387161e-23
9.3253732e-31
1.4481266e-39
2.506361e-44
8.8198167e-47
2.5708786e-49
5.2181438e-52
7.1173994e-55
6.2964392e-58
3.4723987e-61
1.1407246e-64
2.1449554e-68
2.2316235e-72
1.2415352e-76
3.5515938e-81
4.8511034e-86
2.7788611e-91
5.7013846e-97
3.2618706e-103
3.2875917e-110
1.8751325e-118
0.00042200152
0.00041240703
0.00039542108
0.00037978285
0.00037193533
0.0003717669
0.00036246937
0.00032895526
0.00026590166
0.0001907494
0.00014427404
0.00012766673
0.00010737796
5.9080765e-05
6.0459812e-06
1.7831037e-08
1.2036813e-12
2.4247178e-18
2.272387e-25
1.1746599e-33
3.3655343e-41
4.3686034e-44
1.6800746e-46
4.5692579e-49
8.4413959e-52
1.0342335e-54
8.1427842e-58
3.9480677e-61
1.1306734e-64
1.8581297e-68
1.6999886e-72
8.4011329e-77
2.1587603e-81
2.6619402e-86
1.3898073e-91
2.6306244e-97
1.4054648e-103
1.3402276e-110
7.3284324e-119
0.00041740237
0.00041186047
0.00039949617
0.00038707619
0.0003822093
0.00038340039
0.00037485574
0.00034574246
0.00029056503
0.00022237408
0.00018268061
0.0001796437
0.00017796891
0.00014226888
6.1696305e-05
1.9999142e-06
9.094724e-10
1.3891908e-14
1.0459262e-20
4.3254928e-28
3.0288144e-36
2.9580379e-41
8.6800694e-44
2.9205016e-46
6.9642758e-49
1.1351555e-51
1.2276729e-54
8.4840799e-58
3.5645003e-61
8.8742107e-65
1.2754308e-68
1.029468e-72
4.5437928e-77
1.0549269e-81
1.1824602e-86
5.6770817e-92
1.0006704e-97
5.0454022e-104
4.6051216e-111
2.4443991e-119
0.0004110763
0.00041636474
0.0004030766
0.00039284435
0.00038942862
0.0003914626
0.00038351011
0.00035821791
0.00031105116
0.00024986827
0.00021410519
0.00022018629
0.00023338983
0.00021446468
0.00014305248
3.3804942e-05
1.4849412e-07
1.5578934e-11
8.9277826e-17
3.3212605e-23
1.9737926e-30
1.140726e-36
8.0631595e-41
1.4942723e-43
4.1645441e-46
8.5955594e-49
1.2297938e-51
1.1691089e-54
6.971814e-58
2.5338461e-61
5.4909005e-65
6.9258571e-69
4.9593658e-73
1.9695249e-77
4.162532e-82
4.280514e-87
1.9115443e-92
3.1753462e-98
1.5319449e-104
1.3587272e-111
7.1130406e-120
0.00040598014
0.00041416211
0.00041841293
0.00039707432
0.00039454273
0.00039646613
0.00038868765
0.00036704885
0.00032777197
0.00027349373
0.00024108544
0.000251199
0.0002735822
0.00026957037
0.00021216482
0.00010364633
5.4585644e-06
3.7114167e-09
1.4858057e-13
5.1885159e-19
5.4412784e-25
2.3623539e-30
1.3584621e-35
1.8647192e-40
1.9712861e-43
4.6668653e-46
8.431062e-49
1.0638795e-51
8.738025e-55
4.4879561e-58
1.4135543e-61
2.6767313e-65
2.9804082e-69
1.9087759e-73
6.890241e-78
1.339833e-82
1.2813856e-87
5.408721e-93
8.6233081e-99
4.063335e-105
3.5792552e-112
1.8890396e-120
0.0003996127
0.00041091464
0.00041592024
0.0004186596
0.00039736572
0.0003990352
0.00039104365
0.00037270066
0.00034123392
0.00029372605
0.00026416419
0.00027538578
0.00030205646
0.00030569256
0.00026295752
0.00016662557
3.9618612e-05
2.2154348e-07
5.4027486e-11
1.8604374e-15
3.8426465e-20
2.0973624e-24
5.1192608e-29
7.9815493e-35
2.1047628e-40
1.9407309e-43
4.0933273e-46
6.5800628e-49
7.2258713e-52
5.0930828e-55
2.2583975e-58
6.192462e-62
1.0316051e-65
1.0235139e-69
5.9385037e-74
1.9798318e-78
3.607298e-83
3.2851329e-88
1.3470386e-93
2.127698e-99
1.013264e-105
9.1745977e-113
5.0398897e-121
0.00039771056
0.00040178606
0.00041407451
0.00041547661
0.00041731688
0.00039918475
0.00039106223
0.00037589805
0.00035186225
0.00031104242
0.0002838593
0.00029535988
0.00032227598
0.00032869019
0.00029593074
0.00021430699
9.1768687e-05
3.8395195e-06
5.3519995e-09
1.8079195e-12
6.2721748e-16
3.1202701e-19
4.7223464e-23
3.5087478e-28
7.7230017e-35
1.1367295e-40
1.4741446e-43
2.8507416e-46
4.0505329e-49
3.8125678e-52
2.313467e-55
8.9060205e-59
2.1439853e-62
3.1806914e-66
2.8608638e-70
1.5401901e-74
4.8878507e-79
8.6585525e-84
7.865796e-89
3.3026912e-94
5.4757611e-100
2.7915252e-106
2.7368818e-113
1.6314599e-121
0.00039692355
0.00039528236
0.00040450221
0.00041479916
0.0004131293
0.00041346676
0.00038918734
0.00037737984
0.00036031474
0.00032571084
0.00030063616
0.00031172984
0.00033810283
0.00034524455
0.00031774686
0.00024843133
0.00013665761
2.1888274e-05
1.8325208e-07
5.588786e-10
2.2306977e-12
7.3739227e-15
6.2628033e-18
3.0164838e-22
3.4463256e-28
8.9793177e-36
4.8256884e-41
8.9652953e-44
1.5805803e-46
1.9336077e-49
1.5647461e-52
8.2347402e-56
2.7841697e-59
5.9883768e-63
8.1183633e-67
6.8709924e-71
3.6131144e-75
1.1640762e-79
2.1675232e-84
2.1499731e-89
1.0151539e-94
1.9324165e-100
1.1373718e-106
1.2755972e-113
8.5152616e-122
0.00038586533
0.00039174658
0.00039411785
0.00040599548
0.00041316418
0.00040827826
0.0004054819
0.00037797375
0.0003674034
0.00033810913
0.00031483088
0.00032516427
0.00034993287
0.00035691047
0.00033350729
0.00027588698
0.00017194912
5.4784148e-05
2.5955679e-06
5.7375228e-08
1.7053459e-09
2.9011952e-11
1.2192349e-13
3.5492394e-17
2.9870347e-22
3.4643494e-29
2.0095852e-37
2.1767578e-41
4.4205428e-44
6.8159345e-47
7.1796042e-50
5.0480154e-53
2.3436656e-56
7.1493568e-60
1.4318255e-63
1.8852906e-67
1.635501e-71
9.3791176e-76
3.4831121e-80
7.8109756e-85
9.6287464e-90
5.6934517e-95
1.3398334e-100
9.455132e-107
1.2207587e-113
8.9738174e-122
0.00037856362
0.00038121446
0.00038663795
0.00039268372
0.00040549959
0.00040892842
0.00039934612
0.00039272016
0.00037294236
0.00034901883
0.00032681713
0.00033590773
0.00035889889
0.00036418662
0.00034398653
0.00029702623
0.00020870645
8.9022531e-05
1.5526163e-05
1.8999897e-06
2.8323046e-07
2.0510963e-08
3.730913e-10
5.9481056e-13
3.4750149e-17
3.4826607e-23
2.9772995e-31
7.610826e-39
9.197578e-42
1.7134843e-44
2.2934427e-47
2.1124771e-50
1.3252084e-53
5.6671303e-57
1.6686332e-60
3.4385887e-64
5.0433752e-68
5.3124955e-72
3.9791927e-76
2.0028652e-80
6.1168225e-85
1.0013563e-89
7.5039933e-95
2.118159e-100
1.6975729e-106
2.3705719e-113
1.8076571e-121
0.000379025
0.00037747634
0.00037547148
0.00038076556
0.00039040366
0.00040248071
0.0004008677
0.00038592356
0.00037494454
0.00035858712
0.00033689589
0.00034430188
0.00036496324
0.00036832038
0.00034984146
0.00031261464
0.00023889399
0.00012771223
4.3920808e-05
1.7964212e-05
9.5886949e-06
2.6581442e-06
1.9436313e-07
1.522955e-09
5.6823335e-13
4.7328491e-18
4.0564747e-25
3.206017e-34
1.5958072e-39
3.1636272e-42
5.2337313e-45
6.2125454e-48
5.2201759e-51
3.1328478e-54
1.3756492e-57
4.5704603e-61
1.1840564e-64
2.4097229e-68
3.7414333e-72
4.1334651e-76
2.918909e-80
1.1680022e-84
2.3224607e-89
1.9809091e-94
6.0397942e-100
5.0253367e-106
7.0744271e-113
5.3178872e-121
0.00036718559
0.00038223644
0.00037459053
0.00036870365
0.00037392645
0.00038615836
0.00039616702
0.00038843178
0.00036789211
0.0003513588
0.00034523374
0.00035070111
0.00036868743
0.00036943917
0.00035204416
0.00032335817
0.00026415063
0.0001627952
7.8090097e-05
5.7092561e-05
5.6201994e-05
4.3062102e-05
1.4510539e-05
6.3596193e-07
1.4075472e-09
9.0250551e-14
8.0428791e-20
4.8315823e-28
1.1480836e-36
4.4808485e-40
8.7687078e-43
1.3233953e-45
1.489859e-48
1.2755283e-51
8.6511762e-55
4.8714132e-58
2.343034e-61
9.4805471e-65
3.0248388e-68
6.9185083e-72
1.0207479e-75
8.7449244e-80
3.936526e-84
8.3092846e-89
7.2454515e-94
2.2030451e-99
1.7990003e-105
2.4599005e-112
1.7829173e-120
0.00035211737
0.00037383596
0.00038308302
0.0003697052
0.00036026487
0.00036540059
0.00037914542
0.00038582417
0.00037155365
0.0003444357
0.00032189282
0.00035507605
0.00037025977
0.00036822239
0.00035133157
0.00033018917
0.00028485682
0.00019434307
0.00011205654
9.4046353e-05
0.00011609833
0.00012101573
9.3273585e-05
2.9727755e-05
5.6840029e-07
2.6275846e-10
2.2279358e-15
1.8125515e-22
2.5568725e-31
6.6260336e-38
1.1145047e-40
2.1095817e-43
3.2181577e-46
4.062165e-49
4.4794237e-52
4.5096288e-55
4.1396123e-58
3.269302e-61
2.0160956e-64
8.7390445e-68
2.4245163e-71
3.9673368e-75
3.551425e-79
1.6066393e-83
3.3283962e-88
2.8140674e-93
8.2453924e-99
6.4715632e-105
8.4990366e-112
5.9158436e-120
0.00035759864
0.00035743123
0.00037843576
0.00038162081
0.0003626243
0.00034999349
0.00035459561
0.00036875602
0.00037116022
0.00034938841
0.00031541958
0.00028662217
0.00036967849
0.00036475231
0.00034835648
0.0003341244
0.00030141124
0.00022266525
0.0001432122
0.00012633842
0.0001612401
0.00018917139
0.00018033015
0.00012284742
2.6966766e-05
1.2895471e-07
9.4794912e-12
9.4233355e-18
1.597273e-25
2.307996e-34
1.1543611e-38
2.6106189e-41
5.5184985e-44
1.0762487e-46
2.0346208e-49
3.7737328e-52
6.5052294e-55
9.4213333e-58
1.0288581e-60
7.7115417e-64
3.6807995e-67
1.0530206e-70
1.7082683e-74
1.4848202e-78
6.4311859e-83
1.2702058e-87
1.0237297e-92
2.8647227e-98
2.1534842e-104
2.7172576e-111
1.8224087e-119
0.00036690198
0.00035828469
0.00036151012
0.00038096857
0.0003778438
0.00035348763
0.00033741429
0.0003413528
0.00035453202
0.00035143781
0.00032167457
0.00028102993
0.00024637217
0.00035919256
0.00034350091
0.00033611095
0.00031456483
0.00024790109
0.00017152878
0.00015451702
0.00019318543
0.00024057446
0.00024856479
0.00021077496
0.00011635049
9.9624684e-06
6.9533671e-09
7.3540755e-14
1.6407832e-20
8.3926745e-29
2.2724069e-36
2.6235128e-39
7.8926174e-42
2.5016361e-44
8.3874578e-47
2.8314208e-49
8.6525988e-52
2.1210819e-54
3.7730887e-57
4.5296786e-60
3.4735644e-63
1.6268334e-66
4.4661356e-70
6.8822966e-74
5.6622607e-78
2.3154654e-82
4.3323864e-87
3.3224453e-92
8.88934e-98
6.420289e-104
7.8190276e-111
7.0724093e-128
0.00035157283
0.00036166727
0.00035715414
0.00036457752
0.0003813495
0.00037185644
0.00034189247
0.00032210819
0.00032518158
0.0003356647
0.00032627325
0.00028863625
0.00024147092
0.00019796687
0.00033722351
0.00033676148
0.00032533271
0.00027013127
0.00019746092
0.0001792325
0.00021966705
0.00027198016
0.0002969811
0.00027471049
0.00020234996
7.6256891e-05
9.8290825e-07
9.7610562e-11
2.4341911e-16
1.5191045e-23
4.1289877e-32
2.5090966e-37
9.8516535e-40
5.2701317e-42
3.1294331e-44
1.8280431e-46
9.1708226e-49
3.5248179e-51
9.5648718e-54
1.7364537e-56
2.0312705e-59
1.4816913e-62
6.5303515e-66
1.6817252e-69
2.4341341e-73
1.8841315e-77
7.2713674e-82
1.2916416e-86
9.4607836e-92
2.4319216e-97
1.6969202e-103
4.6144482e-119
1.176717e-137
0.0003299893
0.00034184962
0.00035386648
0.00035474986
0.00036626153
0.00037943198
0.00036334692
0.00032740497
0.00030374196
0.00030496043
0.00031178822
0.00029555636
0.00024948531
0.00019349006
0.00013808193
0.00033653651
0.00033468745
0.00028979028
0.00022133525
0.00020137658
0.00024164003
0.00029744031
0.00032700639
0.00031579083
0.00026439608
0.00015830472
2.2980395e-05
2.5330006e-08
5.9068466e-13
4.118914e-19
7.963933e-27
1.09695e-34
1.1200598e-37
1.0115773e-39
1.0252332e-41
9.6638479e-44
7.3915031e-46
4.1798765e-48
1.6458336e-50
4.3361413e-53
7.4382776e-56
8.1221869e-59
5.509694e-62
2.2606349e-65
5.4398332e-69
7.397184e-73
5.3938973e-77
1.9730524e-81
3.344891e-86
2.3537778e-91
5.8493909e-97
1.5492729e-111
1.2218394e-128
5.7528561e-149
0.00033537365
0.0003214698
0.00033020544
0.00034452044
0.00035173272
0.00036603519
0.00037503246
0.00035187758
0.00030979467
0.00028169192
0.0002801113
0.0002823208
0.00025784145
0.00020128205
0.00013352146
6.8092211e-05
0.00034355789
0.00030733561
0.00024344482
0.00022148403
0.00026052495
0.00031754989
0.00035012458
0.00034230362
0.00030131191
0.00022281
8.8374614e-05
1.5064752e-06
2.6933312e-10
1.750702e-15
3.6715657e-22
3.2989556e-30
1.4381226e-35
1.7384979e-37
2.8342683e-39
4.0187825e-41
4.4064382e-43
3.4913189e-45
1.9175085e-47
7.0982136e-50
1.7331148e-52
2.7427831e-55
2.76445e-58
1.7369486e-61
6.6358451e-65
1.4961024e-68
1.9185547e-72
1.3241155e-76
4.6191117e-81
7.5224525e-86
5.1202569e-91
8.3458313e-105
6.7471468e-121
9.1668818e-140
7.3343417e-162
0.00035123624
0.00033274999
0.0003113332
0.00031708351
0.00033514568
0.00034728697
0.00036348929
0.00036756788
0.00033737389
0.00028833213
0.00025524845
0.00025000748
0.00024626889
0.00021061087
0.00014004704
6.5056942e-05
1.2461353e-05
0.00032397725
0.00026394287
0.00023981105
0.00027683927
0.00033433198
0.0003672385
0.00036073652
0.00032567673
0.00026622672
0.00015350738
2.0022096e-05
2.8407317e-08
1.3409424e-12
2.6418051e-18
1.8524504e-25
8.8085595e-33
2.6318717e-35
6.3892197e-37
1.2831818e-38
1.9216569e-40
2.053819e-42
1.5248887e-44
7.7106722e-47
2.6119343e-49
5.8367162e-52
8.4822567e-55
7.8895246e-58
4.6026379e-61
1.6439863e-64
3.4909993e-68
4.2417483e-72
2.7895049e-76
9.345777e-81
1.4727159e-85
1.1483764e-98
6.0737989e-114
8.4276631e-132
1.4365666e-152
5.5742469e-176
0.00033924566
0.00035653941
0.00032833368
0.0002998467
0.00030264307
0.00032348953
0.00034084687
0.00035796598
0.00035698373
0.0003189307
0.00026247373
0.00022402357
0.00021455796
0.00020103356
0.00014962648
7.0379321e-05
1.1398123e-05
4.2061083e-07
0.00028291436
0.00025651713
0.00029062873
0.000348001
0.00038060777
0.00037255888
0.00034023094
0.00029487582
0.0002110417
6.7835917e-05
8.5629297e-07
2.2936603e-10
3.2930866e-15
2.1199184e-21
9.0613344e-29
3.9550205e-33
1.1498575e-34
3.1154858e-36
6.1361086e-38
8.577633e-40
8.3834167e-42
5.6503313e-44
2.5916747e-46
7.9866234e-49
1.6319451e-51
2.1820258e-54
1.8798483e-57
1.0232314e-60
3.4366142e-64
6.9178689e-68
8.0098093e-72
5.0567483e-76
1.639572e-80
5.2101288e-93
1.4081154e-107
1.3151522e-124
1.9446704e-144
8.8758272e-167
8.2140273e-191
0.00030032863
0.00035215627
0.00035907107
0.00032217814
0.00028680244
0.00028629642
0.00030972419
0.00033159977
0.00034897855
0.00034237015
0.00029588714
0.00023145218
0.00018779783
0.00017055971
0.00014263719
7.7936297e-05
1.3359555e-05
3.6169776e-07
3.2621218e-09
0.00027160988
0.00030189413
0.0003581679
0.00039038044
0.00037934536
0.00034681699
0.00031112398
0.00025217947
0.0001317057
8.5596159e-06
1.1103579e-08
8.8228695e-13
4.182693e-18
1.064004e-24
1.1688852e-30
1.6626814e-32
5.7712344e-34
1.4474258e-35
2.5771578e-37
3.2365724e-39
2.8422633e-41
1.726279e-43
7.1685841e-46
2.012005e-48
3.7708344e-51
4.6591157e-54
3.7378571e-57
1.9099518e-60
6.072058e-64
1.166776e-67
1.2960283e-71
7.9177861e-76
9.1653049e-88
1.0808602e-101
5.398272e-118
4.9464903e-137
1.2779311e-158
7.6617364e-182
4.3544365e-206
0.00028520807
0.00031609606
0.00036197272
0.00035912104
0.00031406559
0.00027203565
0.00026791192
0.00029301927
0.0003187992
0.00033578783
0.00032293527
0.00026664244
0.00019410484
0.00014322531
0.00011477619
7.2523527e-05
1.6560688e-05
4.4592574e-07
2.578257e-09
6.3476979e-12
0.0003103456
0.00036431292
0.00039588881
0.00038133433
0.0003469441
0.00031806613
0.00027980659
0.00018630555
4.6788266e-05
1.9667351e-07
6.4489492e-11
1.7141073e-15
3.0203963e-21
1.413081e-27
2.08778e-30
8.3831159e-32
2.5753693e-33
5.6646977e-35
8.932096e-37
9.9961513e-39
7.8677075e-41
4.3081153e-43
1.6234135e-45
4.1650386e-48
7.1932665e-51
8.2590807e-54
6.2098852e-57
2.9996794e-60
9.0941335e-64
1.6791953e-67
1.8043739e-71
6.9927087e-83
3.2214818e-96
7.4249095e-112
3.504005e-130
4.186171e-151
7.9368841e-174
2.3260595e-197
9.762514e-222
0.00031622663
0.00029716561
0.00032998561
0.00036881624
0.000356671
0.00030400488
0.00025525583
0.00024688998
0.00027282822
0.00030174681
0.00031778222
0.00029757714
0.00022970515
0.00014736927
8.8130775e-05
5.0058768e-05
1.433379e-05
6.1947644e-07
3.2210616e-09
4.4630497e-12
3.115489e-15
0.00036584395
0.00039591557
0.00037814891
0.00034129781
0.00031786076
0.00029626913
0.00023125197
0.00010099007
3.8881997e-06
1.6551632e-09
1.8531792e-13
1.888589e-18
2.6343344e-24
3.1069638e-28
1.0088948e-29
3.6450565e-31
9.4736825e-33
1.7979028e-34
2.5060856e-36
2.5014574e-38
1.7681785e-40
8.754605e-43
3.0053616e-45
7.0821962e-48
1.1334956e-50
1.2172001e-53
8.6392436e-57
3.9759982e-60
1.1589349e-63
2.0712773e-67
2.5128883e-78
4.1618872e-91
3.9925535e-106
8.6112996e-124
4.2859144e-144
2.4160836e-166
1.3267395e-189
3.649245e-213
9.6003055e-238
0.00036279218
0.00031950458
0.00030795997
0.00034179799
0.00037278532
0.00035176537
0.00029159765
0.00023608719
0.00022296629
0.00024874267
0.00027991555
0.0002941778
0.00026357011
0.00018065187
8.9695825e-05
3.0115923e-05
6.8288011e-06
5.1625416e-07
4.8442915e-09
5.5880506e-12
1.8674908e-15
4.0633907e-19
0.00038972568
0.00036916409
0.00033034235
0.00031195629
0.00030492822
0.00026484641
0.00015434751
2.4820958e-05
7.507066e-08
6.8705777e-12
3.4851191e-16
3.6134881e-21
1.9139184e-25
1.3975038e-27
4.4620587e-29
1.3058637e-30
2.8157728e-32
4.5799274e-34
5.6597167e-36
5.0550931e-38
3.2197522e-40
1.4472674e-42
4.54788e-45
9.8993529e-48
1.4777161e-50
1.4948284e-53
1.0094812e-56
4.4644283e-60
1.2621855e-63
4.5319042e-74
2.5260226e-86
9.3389164e-101
8.4724781e-118
1.6366802e-137
2.7673362e-159
2.6719972e-182
1.165813e-205
3.0661371e-229
7.0779842e-254
0.00037703266
0.00035530671
0.00032132756
0.00031786684
0.00035123566
0.00037378878
0.0003440968
0.00027647927
0.00021410262
0.00019583986
0.00022033185
0.00025242734
0.00026260672
0.00021456283
0.00011863821
2.9562039e-05
2.6433158e-06
1.8505022e-07
4.0835375e-09
9.0734718e-12
2.3206322e-15
2.0276214e-19
1.5342102e-23
0.00035435452
0.00031476043
0.00030169088
0.00030806834
0.00029028393
0.00020318136
6.7984416e-05
1.2227537e-06
6.6880745e-10
3.2688598e-14
6.5909017e-18
2.7781697e-21
2.4583641e-24
9.7310795e-27
1.6711097e-28
3.6557139e-30
6.53412e-32
9.305166e-34
1.0271276e-35
8.2392041e-38
4.7476339e-40
1.9465154e-42
5.6301486e-45
1.1392549e-47
1.597556e-50
1.534405e-53
9.9439262e-57
4.2649956e-60
4.3147226e-70
7.6604198e-82
1.0272134e-95
3.6895826e-112
2.6350199e-131
1.3211805e-152
2.5902421e-175
1.2417103e-198
6.7947765e-222
2.1817344e-245
4.8968352e-270
0.000333954
0.00035849154
0.0003450827
0.00032247487
0.00032642613
0.00035791793
0.00037176815
0.00033331433
0.0002582157
0.00018888698
0.00016528024
0.00018693275
0.00022003943
0.00021689122
0.00014982425
4.8276916e-05
2.2878418e-06
5.0200505e-08
1.2492861e-09
7.8233086e-12
4.0135028e-15
2.336552e-19
6.4899408e-24
1.854835e-28
0.00029553807
0.00028824328
0.00030756537
0.00031033971
0.00024707771
0.00011818523
9.5635523e-06
2.0806007e-08
8.2146421e-12
1.4869891e-14
8.2876869e-17
1.5897392e-19
1.0744223e-22
8.0035638e-26
4.6704768e-28
7.6724795e-30
1.1786421e-31
1.5146562e-33
1.4969604e-35
1.0826391e-37
5.6694941e-40
2.131574e-42
5.7106698e-45
1.0819412e-47
1.4365847e-50
1.3214239e-53
8.2941246e-57
2.2608127e-66
1.2188324e-77
5.6374031e-91
7.6541637e-107
1.9582914e-125
2.8465014e-146
1.2552698e-168
7.5085679e-192
4.0129253e-215
4.1351204e-238
1.5391944e-261
3.0956319e-286
0.00027351332
0.00030898512
0.00033668656
0.00033382116
0.00032286951
0.00033305323
0.00036141976
0.00036619734
0.00031919249
0.0002361248
0.0001601939
0.00013139792
0.00015284524
0.00017667666
0.00015414012
7.3875024e-05
4.9739643e-06
3.4878271e-08
2.4553513e-10
2.1133233e-12
3.5103261e-15
4.1420702e-19
6.4528703e-24
6.7207942e-29
7.5374081e-34
0.00027261679
0.00030482295
0.0003270948
0.00028719344
0.00016867579
3.6645634e-05
3.3408329e-07
6.0563317e-10
9.5544635e-12
5.5863627e-13
5.6048531e-15
1.2246775e-17
3.8197185e-21
3.9582583e-25
8.8472488e-28
1.2137963e-29
1.6760785e-31
1.971792e-33
1.7514341e-35
1.1469788e-37
5.486695e-40
1.9031456e-42
4.7560163e-45
8.5039632e-48
1.0784954e-50
9.5902229e-54
6.7535304e-63
1.0586567e-73
1.6170957e-86
7.9962225e-102
7.1911101e-120
2.9730786e-140
3.0522892e-162
2.8835321e-185
1.2507373e-208
1.7061741e-231
2.813399e-254
1.0124975e-277
1.7730868e-302
0.00025570184
0.00024912827