/*--------------------------------*- C++ -*----------------------------------*\
| =========                 |                                                 |
| \\      /  F ield         | OpenFOAM: The Open Source CFD Toolbox           |
|  \\    /   O peration     | Version:  5.0                                   |
|   \\  /    A nd           | Web:      www.OpenFOAM.org                      |
|    \\/     M anipulation  |                                                 |
\*---------------------------------------------------------------------------*/
FoamFile
{
    version     2.0;
    format      ascii;
    class       volScalarField;
    location    "180";
    object      nuTilda_0;
}
// * * * * * * * * * * * * * * * * * * * * * * * * * * * * * * * * * * * * * //

dimensions      [0 2 -1 0 0 0 0];

internalField   nonuniform List<scalar> 
9520
(
4.841444e-33
5.138402e-31
4.6810043e-33
2.6685095e-29
4.9696412e-31
4.5243314e-33
9.0063047e-28
2.5812974e-29
4.8045991e-31
4.3814262e-33
2.2237776e-26
8.7133967e-28
2.4960469e-29
4.6553102e-31
4.2603303e-33
4.293363e-25
2.1518112e-26
8.4277174e-28
2.4196099e-29
4.5311879e-31
4.1620693e-33
6.774188e-24
4.154905e-25
2.0819045e-26
8.1736546e-28
2.3570714e-29
4.4322745e-31
4.0791148e-33
8.9988717e-23
6.5566436e-24
4.0211206e-25
2.0201955e-26
7.9681832e-28
2.307729e-29
4.347372e-31
3.9972314e-33
1.0254793e-21
8.712784e-23
6.3476463e-24
3.9038853e-25
1.9706128e-26
7.8062614e-28
2.2641335e-29
4.2579965e-31
3.8995114e-33
1.0171505e-20
9.9343218e-22
8.4393608e-23
6.1658106e-24
3.8099162e-25
1.9312182e-26
7.6577871e-28
2.215262e-29
4.1454724e-31
3.7742432e-33
8.9023104e-20
9.8614318e-21
9.6289372e-22
8.2029576e-23
6.0199595e-24
3.7339965e-25
1.8935279e-26
7.4820659e-28
2.1515384e-29
4.0008949e-31
3.6233029e-33
7.0876997e-19
8.6354558e-20
9.5657105e-21
9.3654881e-22
8.0128078e-23
5.8993375e-24
3.657933e-25
1.8470023e-26
7.2485239e-28
2.0706215e-29
3.8329909e-31
3.4667056e-33
6.127524e-18
6.8427148e-19
8.3804565e-20
9.3087987e-21
9.1524921e-22
7.8513834e-23
5.7725696e-24
3.5610841e-25
1.7848581e-26
6.9577665e-28
1.9805756e-29
3.6697866e-31
3.3387512e-33
1.0613242e-16
5.6865922e-18
6.6129136e-19
8.1534741e-20
9.0995064e-21
8.9672964e-22
7.6737021e-23
5.6074056e-24
3.432519e-25
1.709433e-26
6.6486005e-28
1.8989074e-29
3.5506022e-31
3.2750373e-33
3.7484218e-15
9.1020275e-17
5.2829161e-18
6.4008777e-19
7.9673493e-20
8.9150883e-21
8.7552687e-22
7.4377243e-23
5.3909843e-24
3.2812256e-25
1.6329126e-26
6.3880699e-28
1.8465862e-29
3.5096748e-31
3.295026e-33
1.3670283e-13
3.2402048e-15
7.4977045e-17
4.8905873e-18
6.2308305e-19
7.8061389e-20
8.6980312e-21
8.4685558e-22
7.1329435e-23
5.1451238e-24
3.1351472e-25
1.5732426e-26
6.2457109e-28
1.8386307e-29
3.5580286e-31
3.3887556e-33
4.0832673e-12
1.2335095e-13
2.5297809e-15
5.7629052e-17
4.5927298e-18
6.0969501e-19
7.6144914e-20
8.3979116e-21
8.1026693e-22
6.799201e-23
4.9201765e-24
3.0303384e-25
1.5465687e-26
6.2602492e-28
1.8753269e-29
3.6728596e-31
3.5152068e-33
9.4731407e-11
3.8267127e-12
9.6688845e-14
1.685065e-15
4.467244e-17
4.4091655e-18
5.9460036e-19
7.3406071e-20
8.0169004e-21
7.7161661e-22
6.5111424e-23
4.7733559e-24
2.9946007e-25
1.5589978e-26
6.4136923e-28
1.9387707e-29
3.800906e-31
3.6140427e-33
1.6665325e-09
9.1360086e-11
3.023066e-12
6.268347e-14
1.0700153e-15
3.8040894e-17
4.2674371e-18
5.7228528e-19
6.9906223e-20
7.6277469e-21
7.402689e-22
6.3431686e-23
4.7410565e-24
3.0323036e-25
1.6014712e-26
6.6272582e-28
1.9972793e-29
3.8752617e-31
3.6259264e-33
2.1672526e-08
1.6385286e-09
7.2699527e-11
1.9543026e-12
3.9121917e-14
8.0302817e-16
3.5150852e-17
4.0816537e-18
5.4320683e-19
6.6433405e-20
7.3327427e-21
7.2431003e-22
6.3313742e-23
4.8172997e-24
3.1174919e-25
1.6507555e-26
6.7845493e-28
2.0161707e-29
3.8386494e-31
3.5132848e-33
2.0429232e-07
2.1568262e-08
1.3131058e-09
4.7250288e-11
1.2696029e-12
3.1448432e-14
7.3894473e-16
3.2479482e-17
3.8365779e-18
5.1502437e-19
6.3988543e-20
7.2065713e-21
7.2622981e-22
6.4496463e-23
4.9484292e-24
3.1997074e-25
1.6769813e-26
6.7734335e-28
1.9702373e-29
3.6640257e-31
3.2740942e-33
1.3636998e-06
2.0384145e-07
1.7563412e-08
8.6831671e-10
3.2513158e-11
1.1523266e-12
3.2355195e-14
6.6506288e-16
2.8475039e-17
3.6042893e-18
4.9672757e-19
6.3169069e-20
7.2556391e-21
7.4092797e-22
6.6108442e-23
5.0485354e-24
3.2215411e-25
1.6548248e-26
6.5280412e-28
1.8530483e-29
3.3654177e-31
2.9445058e-33
6.4378663e-06
1.3579843e-06
1.6883824e-07
1.2115776e-08
6.4047339e-10
3.3129022e-11
1.3163864e-12
3.0457316e-14
4.7677593e-16
2.4641565e-17
3.4660314e-18
4.9252845e-19
6.385123e-20
7.4074566e-21
7.5686113e-22
6.6955179e-23
5.031046e-24
3.1408583e-25
1.5734084e-26
6.0539543e-28
1.6801729e-29
2.9959806e-31
2.5901775e-33
2.1588343e-05
6.3884871e-06
1.1515937e-06
1.2293566e-07
9.7443861e-09
7.1460873e-10
4.0756869e-11
1.2867511e-12
2.0198433e-14
2.8259546e-16
2.2513961e-17
3.447323e-18
4.9988545e-19
6.5196017e-20
7.5330228e-21
7.6021062e-22
6.5979334e-23
4.8433611e-24
2.9480085e-25
1.4407678e-26
5.4302346e-28
1.4857514e-29
2.6346772e-31
2.2897223e-33
5.3242516e-05
2.1340457e-05
5.5336392e-06
8.8779255e-07
1.062955e-07
1.1228474e-08
9.1534143e-10
4.0643872e-11
8.3963524e-13
9.2001163e-15
1.7769045e-16
2.2027042e-17
3.5141409e-18
5.1045163e-19
6.5952153e-20
7.496939e-21
7.4042548e-22
6.2698162e-23
4.489546e-24
2.6706859e-25
1.2821905e-26
4.7899956e-28
1.3138574e-29
2.3663684e-31
2.1156252e-33
0.00010212812
5.2603167e-05
1.8886908e-05
4.4911184e-06
8.093821e-07
1.2415444e-07
1.44986e-08
9.1840569e-10
2.6253366e-11
3.5690756e-13
3.4831708e-15
1.4224507e-16
2.2441374e-17
3.5904921e-18
5.1340352e-19
6.4978374e-20
7.2138251e-21
6.9473164e-22
5.7430252e-23
4.0314746e-24
2.3667538e-25
1.1337276e-26
4.2865578e-28
1.2074492e-29
2.2613821e-31
2.1177928e-33
0.00016174594
0.00010105747
4.7505998e-05
1.6041143e-05
4.266894e-06
9.4768334e-07
1.5862035e-07
1.4504589e-08
5.9062988e-10
1.0826658e-11
1.1664091e-13
1.5720262e-15
1.363809e-16
2.2933697e-17
3.5900106e-18
5.003326e-19
6.1738102e-20
6.6858281e-21
6.2970582e-22
5.1219698e-23
3.5716257e-24
2.10912e-25
1.0329912e-26
4.0552667e-28
1.198028e-29
2.359615e-31
2.3130785e-33
0.0002187601
0.00015998297
9.2805737e-05
4.1721361e-05
1.5697005e-05
4.983463e-06
1.1861454e-06
1.5738096e-07
9.3599287e-09
2.4351284e-10
3.4325045e-12
4.234398e-14
1.140319e-15
1.37929e-16
2.2791307e-17
3.4574531e-18
4.6905177e-19
5.653586e-20
6.0063768e-21
5.5938258e-22
4.5537437e-23
3.2260347e-24
1.9671043e-25
1.0097825e-26
4.1808441e-28
1.2983856e-29
2.6619416e-31
2.68196e-33
0.00026595687
0.00021502256
0.00014788854
8.318481e-05
4.1547651e-05
1.8206404e-05
6.0674263e-06
1.1654169e-06
1.0278223e-07
3.9837177e-09
8.2937881e-11
1.3689059e-12
3.0033367e-14
1.1430179e-15
1.3586188e-16
2.1662168e-17
3.1945573e-18
4.2441758e-19
5.04247e-20
5.3314693e-21
5.0121172e-22
4.1892311e-23
3.0945935e-24
1.9890485e-25
1.0788068e-26
4.6770992e-28
1.4995902e-29
3.1296024e-31
3.1719799e-33
0.00030581171
0.00026072995
0.00019973053
0.00013400058
8.3266164e-05
4.7672467e-05
2.152247e-05
5.8931837e-06
7.7627851e-07
4.6274128e-08
1.5224539e-09
3.9221335e-11
1.2923504e-12
3.6180105e-14
1.1255458e-15
1.2622189e-16
1.9688327e-17
2.8553224e-18
3.7640483e-19
4.4872739e-20
4.8351022e-21
4.7146709e-22
4.1444838e-23
3.2356081e-24
2.1901013e-25
1.2358555e-26
5.4819248e-28
1.7723249e-29
3.69089e-31
3.7068229e-33
0.00033975141
0.00029898646
0.00024328471
0.00018370913
0.00013416637
9.4317293e-05
5.4791264e-05
2.0687853e-05
4.0285605e-06
3.7433375e-07
1.9956718e-08
8.6269089e-10
4.5710225e-11
1.8283486e-12
3.8029791e-14
9.1964893e-16
1.1149981e-16
1.736448e-17
2.5216318e-18
3.3691489e-19
4.1354876e-20
4.6641389e-21
4.8107121e-22
4.47046e-23
3.6501474e-24
2.5473733e-25
1.4579662e-26
6.4676089e-28
2.0721031e-29
4.2537566e-31
4.1995904e-33
0.00036838173
0.00033129915
0.00027986345
0.00022610865
0.00018490384
0.00015009501
0.00010585059
5.2324981e-05
1.4610361e-05
2.0987651e-06
1.8354588e-07
1.3609016e-08
1.138014e-09
6.9383701e-11
2.0023979e-12
2.5457532e-14
6.6737722e-16
9.6388642e-17
1.5285886e-17
2.2774007e-18
3.166445e-19
4.0981587e-20
4.9004544e-21
5.3262426e-22
5.1374975e-23
4.2790482e-24
3.0031768e-25
1.707485e-26
7.4644952e-28
2.3473893e-29
4.7225032e-31
4.5682786e-33
0.00039080475
0.00035799018
0.00031138139
0.0002618928
0.00022822067
0.00020464354
0.00016596787
0.00010113903
3.8389222e-05
8.2772192e-06
1.1776086e-06
1.4804005e-07
1.9200635e-08
1.7752425e-09
7.7180392e-11
1.3071231e-12
1.0648609e-14
5.0906786e-16
8.4502624e-17
1.396914e-17
2.1889224e-18
3.2254285e-19
4.42099e-20
5.536864e-21
6.1927418e-22
6.0376584e-23
5.0132009e-24
3.4759101e-25
1.9393184e-26
8.2934e-28
2.5492837e-29
5.0156108e-31
4.7506227e-33
0.00040734593
0.00037886768
0.00033735614
0.0002933707
0.00026416105
0.00024954319
0.00022246136
0.00015874058
7.7238134e-05
2.3673492e-05
5.3160561e-06
1.0971885e-06
2.1635371e-07
2.9982929e-08
1.9825349e-09
5.0717621e-11
4.729825e-13
3.9122961e-15
4.3136575e-16
7.8304698e-17
1.3759063e-17
2.2907028e-18
3.5597152e-19
5.0684473e-20
6.4727381e-21
7.2573517e-22
7.0050623e-23
5.715313e-24
3.8765327e-25
2.1099136e-26
8.8006058e-28
2.6410222e-29
5.0809211e-31
4.7150616e-33
0.00041871036
0.00039419045
0.00035809145
0.00031988865
0.00029529861
0.00028523597
0.00026654533
0.00021195244
0.00012521902
5.1492226e-05
1.7200575e-05
5.552377e-06
1.6237543e-06
3.3214322e-07
3.3357868e-08
1.3181354e-09
1.8408845e-11
1.0505772e-13
2.2326847e-15
4.0409706e-16
7.9144514e-17
1.4772598e-17
2.5760359e-18
4.119049e-19
5.9261697e-20
7.5317145e-21
8.3135851e-22
7.8503726e-23
6.2483654e-24
4.1271923e-25
2.1861521e-26
8.8883976e-28
2.6048766e-29
4.904575e-31
4.465147e-33
0.00042512312
0.0004047301
0.00037379787
0.00034161349
0.00032159606
0.00031487453
0.00030036919
0.00025371519
0.00017206275
8.9203993e-05
4.1253144e-05
1.9452014e-05
8.1743215e-06
2.4169268e-06
3.6598742e-07
2.2523479e-08
4.9294502e-10
4.0433926e-12
2.3512902e-14
1.9591534e-15
4.1916864e-16
8.7032245e-17
1.686235e-17
2.994409e-18
4.7961308e-19
6.8231521e-20
8.4989237e-21
9.1449234e-22
8.3962383e-23
6.4999967e-24
4.1756583e-25
2.1520207e-26
8.532901e-28
2.4447264e-29
4.511436e-31
4.036195e-33
0.00042738633
0.00041095706
0.00038524437
0.00035880616
0.00034319172
0.00033920555
0.00032723308
0.00028597398
0.00021162511
0.0001299758
7.6779016e-05
4.87683e-05
2.8088368e-05
1.1673273e-05
2.6240212e-06
2.5185892e-07
8.810236e-09
1.1798701e-10
7.563016e-13
1.0696318e-14
2.0605998e-15
4.7130501e-16
1.0049514e-16
1.9614764e-17
3.4597556e-18
5.4489807e-19
7.5696658e-20
9.1637641e-21
9.5633685e-22
8.5195814e-23
6.4108998e-24
4.0059846e-25
2.0106551e-26
7.7844955e-28
2.1837189e-29
3.9565535e-31
3.4854771e-33
0.00042686967
0.00041389616
0.00039293109
0.0003721789
0.00036037431
0.00035872339
0.00034866338
0.00031215855
0.00024359864
0.00016783043
0.00011756461
9.243428e-05
6.8368784e-05
3.8235375e-05
1.2441508e-05
1.8461281e-06
1.0429214e-07
2.3403738e-09
2.4313985e-11
1.5222701e-13
9.7085474e-15
2.363189e-15
5.4922502e-16
1.1662644e-16
2.242507e-17
3.8697927e-18
5.934018e-19
7.9942112e-20
9.3676064e-21
9.4671812e-22
8.1815638e-23
5.9871638e-24
3.6420438e-25
1.7828407e-26
6.7512173e-28
1.8576928e-29
3.3115268e-31
2.879041e-33
0.00042417715
0.00041473637
0.00039788635
0.00038209853
0.00037398373
0.00037382675
0.00036527198
0.00033305539
0.00027207642
0.0001999942
0.00015677776
0.00014181513
0.00012523027
8.8645426e-05
3.9974489e-05
8.980107e-06
8.171279e-07
3.0834749e-08
5.4011202e-10
4.5799702e-12
5.8926946e-14
1.1145073e-14
2.7769415e-15
6.3455348e-16
1.3164232e-16
2.4645468e-17
4.1311262e-18
6.1344248e-19
7.9857828e-20
9.0480681e-21
8.8551328e-22
7.4293492e-23
5.2928272e-24
3.1383801e-25
1.5010712e-26
5.5707197e-28
1.5068277e-29
2.6490753e-31
2.2788756e-33
0.00041957961
0.00041413683
0.0004018853
0.0003893021
0.00038417204
0.00038539991
0.00037753131
0.00034946677
0.00029590682
0.00022968478
0.00019104265
0.00018729739
0.00018585972
0.00015498868
9.1127266e-05
2.973026e-05
4.2822806e-06
2.682e-07
7.9091363e-09
1.1277543e-10
1.0232672e-12
5.6691291e-14
1.3236086e-14
3.191188e-15
7.0575182e-16
1.4191089e-16
2.5753142e-17
4.1785243e-18
5.9867018e-19
7.5254825e-20
8.2456432e-21
7.8209874e-22
6.3788751e-23
4.4306165e-24
2.5651924e-25
1.2014406e-26
4.379903e-28
1.1676492e-29
2.0303507e-31
1.7336056e-33
0.00041327025
0.00041843634
0.00040537711
0.00039502383
0.00039136373
0.00039346279
0.00038612616
0.00036165984
0.00031577511
0.00025595033
0.00022025507
0.00022491799
0.00023752214
0.00022068282
0.00015688024
7.0074872e-05
1.5338102e-05
1.5516492e-06
7.599496e-08
1.8747815e-09
2.8951893e-11
7.8375369e-13
7.2705238e-14
1.5176139e-14
3.4911204e-15
7.4472008e-16
1.4494547e-16
2.5469829e-17
3.9831299e-18
5.5037198e-19
6.6825135e-20
7.0869022e-21
6.5236337e-22
5.1820071e-23
3.5156766e-24
1.992025e-25
9.1620845e-27
3.2907119e-28
8.6759705e-30
1.497704e-31
1.2742751e-33
0.0004082079
0.00041622243
0.00042041273
0.00039924979
0.00039649135
0.0003985071
0.00039128921
0.0003702728
0.00033200401
0.00027876155
0.00024592907
0.00025447524
0.00027623425
0.00027356125
0.00022018689
0.00012463622
3.9141458e-05
6.0950323e-06
4.8509441e-07
2.0911397e-08
6.5977712e-10
2.9585177e-11
1.4516427e-12
8.9747766e-14
1.6287039e-14
3.596333e-15
7.4199961e-16
1.3994989e-16
2.371028e-17
3.5721254e-18
4.7623156e-19
5.5905921e-20
5.7468408e-21
5.1443697e-22
3.9898714e-23
2.6509526e-24
1.4749438e-25
6.688176e-27
2.3773212e-28
6.2299769e-30
1.073431e-31
9.149897e-34
0.00040184393
0.0004131183
0.00041789085
0.00042065136
0.000399366
0.00040115268
0.00039366066
0.0003757518
0.00034505499
0.00029842368
0.00026819313
0.00027790993
0.00030411593
0.00030894673
0.0002690019
0.00017935648
7.5082622e-05
1.6988573e-05
2.1160158e-06
1.6126253e-07
1.0708791e-08
9.0890996e-10
6.3900085e-11
2.2716094e-12
9.2845635e-14
1.6247139e-14
3.4845671e-15
6.982223e-16
1.2720285e-16
2.0742291e-17
3.0122621e-18
3.8790864e-19
4.410092e-20
4.4042917e-21
3.8461089e-22
2.9239428e-23
1.9110948e-24
1.0501526e-25
4.7263201e-27
1.6755512e-28
4.4010938e-30
7.6328808e-32
6.5696291e-34
0.00039980209
0.00040416438
0.00041620493
0.00041740177
0.00041932756
0.00040140043
0.00039371052
0.00037880398
0.00035533398
0.00031530485
0.00028736369
0.00029744583
0.00032403713
0.00033168139
0.00030111514
0.0002238182
0.0001157097
3.5555765e-05
6.6651097e-06
8.9661982e-07
1.2074961e-07
1.7886219e-08
1.9850775e-09
1.0407125e-10
2.2707146e-12
7.9920104e-14
1.5187384e-14
3.1868957e-15
6.1921209e-16
1.0854418e-16
1.7049093e-17
2.3898846e-18
2.9789383e-19
3.2896944e-20
3.2053328e-21
2.7466371e-22
2.0619213e-23
1.3377147e-24
7.3426722e-26
3.3223782e-27
1.1914534e-28
3.1813521e-30
5.6252559e-32
4.9394989e-34
0.00039925204
0.00039754883
0.00040691472
0.00041685976
0.00041504398
0.000415528
0.00039186103
0.00038013128
0.00036348499
0.00032963127
0.00030379504
0.00031357041
0.00033972886
0.00034805037
0.00032236154
0.0002563754
0.00015342302
5.9948251e-05
1.6128646e-05
3.74555e-06
9.3190735e-07
2.2229989e-07
3.798006e-08
3.1762076e-09
1.0444836e-10
1.3379191e-12
6.4652737e-14
1.3426951e-14
2.753282e-15
5.1532154e-16
8.6981628e-17
1.3183826e-17
1.7888961e-18
2.1675682e-19
2.3397814e-20
2.24452e-21
1.9110243e-22
1.4390536e-23
9.4453319e-25
5.2946733e-26
2.4646961e-27
9.1415039e-29
2.5284804e-30
4.6215809e-32
4.1736639e-34
0.00038853672
0.00039417934
0.00039651966
0.0004084134
0.00041518046
0.00041021751
0.0004076472
0.00038052612
0.00037029297
0.00034176052
0.00031776592
0.00032687099
0.00035154527
0.0003596606
0.00033773181
0.00028258941
0.00018508385
8.6827895e-05
3.1803258e-05
1.1908117e-05
4.9039363e-06
1.7651486e-06
4.497817e-07
5.8960518e-08
3.1928608e-09
5.9344882e-11
5.2125888e-13
5.3033522e-14
1.1264308e-14
2.233804e-15
4.0272472e-16
6.5622894e-17
9.6381469e-18
1.2742457e-18
1.5160288e-19
1.6235328e-20
1.5656562e-21
1.3606911e-22
1.060363e-23
7.2819617e-25
4.3054065e-26
2.1186171e-27
8.2827563e-29
2.3971305e-30
4.5390731e-32
4.2000923e-34
0.00038091695
0.00038381977
0.00038918881
0.00039526334
0.00040791424
0.0004109328
0.0004013627
0.00039504875
0.00037561623
0.00035245202
0.00032961408
0.00033756803
0.00036055592
0.00036695581
0.00034794501
0.00030283237
0.00021912393
0.00011323887
5.3015143e-05
2.8982259e-05
1.7695937e-05
9.1308867e-06
3.353921e-06
6.7232239e-07
5.9071421e-08
1.8814235e-09
1.8239621e-11
2.2988574e-13
4.2801571e-14
8.898268e-15
1.7031513e-15
2.968806e-16
4.7003478e-17
6.7600202e-18
8.8522518e-19
1.0596286e-19
1.1641978e-20
1.1767051e-21
1.0917146e-22
9.1700667e-24
6.7996356e-25
4.3158142e-26
2.2542546e-27
9.2284672e-29
2.7588303e-30
5.330239e-32
4.9795713e-34
0.00038144285
0.00037969335
0.00037803983
0.0003834763
0.00039312528
0.00040491018
0.00040289745
0.00038808239
0.00037751093
0.00036183255
0.00033961839
0.0003459806
0.00036672372
0.00037117943
0.00035362259
0.00031771438
0.00024756309
0.00014524556
7.7563387e-05
5.5009428e-05
4.5093478e-05
3.1526151e-05
1.6110181e-05
4.7930002e-06
6.6907133e-07
3.6161716e-08
6.2350027e-10
3.3203477e-12
1.554595e-13
3.2813466e-14
6.6215256e-15
1.2295794e-15
2.093721e-16
3.2759556e-17
4.7374328e-18
6.3841908e-19
8.0779628e-20
9.6174588e-21
1.0700759e-21
1.0939558e-22
1.0006035e-23
7.9452816e-25
5.2995168e-26
2.8617588e-27
1.1952547e-28
3.6088473e-30
6.9892748e-32
6.5076138e-34
0.0003703057
0.00038445848
0.00037671935
0.00037130444
0.00037681184
0.00038900242
0.00039863932
0.000390546
0.00037027271
0.00035427924
0.0003479484
0.00035244804
0.00037058415
0.00037242506
0.00035571482
0.00032787572
0.00027151881
0.00017620039
0.00010341689
8.6439242e-05
8.5414154e-05
7.5725266e-05
5.1270718e-05
2.1865722e-05
4.7273794e-06
4.2531164e-07
1.3159095e-08
1.1653512e-10
8.0890409e-13
1.1324863e-13
2.3827719e-14
4.6972362e-15
8.6016264e-16
1.4698933e-16
2.3675585e-17
3.636664e-18
5.3668215e-19
7.5848085e-20
1.0106357e-20
1.240051e-21
1.3646154e-22
1.3116274e-23
1.0737488e-24
7.2756354e-26
3.9529316e-27
1.6505219e-28
4.9614381e-30
9.5405825e-32
8.8029979e-34
0.00035488533
0.00037682519
0.00038514857
0.00037179433
0.00036296173
0.0003684949
0.0003821394
0.00038838093
0.00037383031
0.00034716409
0.00032534749
0.00035693762
0.00037233082
0.00037136972
0.00035492979
0.00033421763
0.0002911583
0.00020518183
0.00013037397
0.00011403243
0.00013074719
0.00013478449
0.0001133205
6.5848779e-05
2.1359962e-05
3.1262818e-06
1.6976414e-07
2.8827244e-09
1.7683306e-11
3.9542022e-13
8.00162e-14
1.668587e-14
3.2946181e-15
6.1984017e-16
1.1262263e-16
1.9987675e-17
3.4661158e-18
5.792225e-19
9.1069329e-20
1.3121588e-20
1.6921066e-21
1.9130559e-22
1.8605407e-23
1.5258249e-24
1.0294281e-25
5.5512927e-27
2.2968704e-28
6.8367923e-30
1.3015135e-31
1.1887904e-33
0.00035962136
0.00036026961
0.00038129371
0.00038356353
0.00036471584
0.00035283006
0.00035793988
0.00037193154
0.00037386587
0.00035194236
0.00031868857
0.00029090248
0.00037195694
0.00036808706
0.00035190858
0.00033772895
0.00030685567
0.00023179397
0.00015690182
0.00014000219
0.00016869458
0.00019403118
0.00018682614
0.00013800757
6.3920454e-05
1.4753254e-05
1.3708323e-06
4.3499286e-08
4.9737932e-10
3.0587677e-12
2.5530689e-13
5.5620804e-14
1.1905336e-14
2.4946757e-15
5.1823136e-16
1.0712505e-16
2.1755827e-17
4.2342548e-18
7.6865162e-19
1.2709121e-19
1.8780009e-20
2.4423652e-21
2.7566967e-22
2.6622011e-23
2.1600458e-24
1.4401949e-25
7.6744939e-27
3.1391262e-28
9.2435726e-30
1.7421437e-31
1.5764863e-33
0.00036942719
0.00036052186
0.00036446204
0.00038369633
0.00037969669
0.00035562508
0.00034045085
0.00034497695
0.00035794038
0.00035438939
0.00032468488
0.00028514328
0.000251992
0.0003627307
0.00034701234
0.00033933108
0.00031928371
0.00025578863
0.00018229804
0.00016423144
0.00019749741
0.00024217345
0.00025101531
0.00021672497
0.00013397777
4.6420162e-05
7.1330094e-06
4.0854146e-07
8.9008793e-09
7.5383717e-11
9.5872851e-13
1.759475e-13
4.1090509e-14
9.7126651e-15
2.3275578e-15
5.5905731e-16
1.3111994e-16
2.9133909e-17
5.9791458e-18
1.1127393e-18
1.8518258e-19
2.724788e-20
3.5083024e-21
3.9099339e-22
3.7247328e-23
2.9791822e-24
1.9597057e-25
1.0313931e-26
4.1716251e-28
1.2161332e-29
2.2717552e-31
1.2425839e-35
0.0003553164
0.00036448592
0.00035966176
0.00036763828
0.00038395816
0.00037365716
0.00034413413
0.00032543196
0.00032915846
0.0003394021
0.00032962041
0.00029238648
0.00024699281
0.00020615871
0.00034063954
0.00033961699
0.00032942446
0.0002770469
0.00020634337
0.00018649611
0.00022218329
0.00027237906
0.00029832747
0.00027830399
0.00021081727
0.00010296734
2.4833079e-05
2.4639443e-06
9.8186545e-08
1.5551076e-09
1.1218293e-11
5.4982883e-13
1.3701773e-13
3.6892714e-14
1.0201512e-14
2.8126066e-15
7.4737286e-16
1.8595871e-16
4.2435602e-17
8.7605799e-18
1.620623e-18
2.6642963e-19
3.8617854e-20
4.8938227e-21
5.3695401e-22
5.0378389e-23
3.9715474e-24
2.5787353e-25
1.3416634e-26
5.3723445e-28
1.5526739e-29
1.9881145e-33
4.4573099e-38
0.00033332021
0.00034579985
0.00035702443
0.00035755977
0.00036937838
0.00038194824
0.00036513872
0.00032983064
0.00030747031
0.00030941734
0.00031600528
0.00029954179
0.00025451754
0.00020173702
0.00015220049
0.00033903014
0.00033821697
0.00029590128
0.00022897411
0.00020707039
0.00024311656
0.0002972432
0.0003279414
0.00031888297
0.00027024081
0.00017195265
6.1066652e-05
9.887485e-06
6.8878884e-07
1.9951082e-08
2.3560689e-10
2.5268679e-12
4.4629008e-13
1.369506e-13
4.3314707e-14
1.3472076e-14
3.9809805e-15
1.091509e-15
2.7346996e-16
6.1978213e-17
1.2618681e-17
2.2948695e-18
3.7052143e-19
5.2755712e-20
6.5731175e-21
7.1004237e-22
6.5629486e-23
5.1049102e-24
3.2760641e-25
1.687424e-26
6.699749e-28
1.5153292e-31
8.0071509e-36
6.6260947e-41
0.00033753003
0.00032476102
0.00033437445
0.00034805828
0.00035483368
0.00036921707
0.00037749086
0.00035372529
0.00031250935
0.00028600751
0.0002852578
0.00028727989
0.00026293873
0.00020882728
0.00014809853
9.5838566e-05
0.0003465232
0.00031276992
0.00025023216
0.00022615374
0.00026136207
0.00031707043
0.00035100131
0.00034530754
0.00030634494
0.00023194738
0.00011332327
2.7818075e-05
3.1813057e-06
1.6105369e-07
3.453079e-09
3.3577293e-11
1.5007792e-12
4.9479802e-13
1.7639988e-13
6.0812499e-14
1.9674631e-14
5.8711436e-15
1.5989523e-15
3.9459489e-16
8.7759798e-17
1.7512977e-17
3.1219761e-18
4.9451046e-19
6.9164809e-20
8.4783437e-21
9.0249745e-22
8.2277087e-23
6.3241776e-24
4.0178388e-25
2.0522697e-26
7.3104992e-30
6.910461e-34
1.323536e-38
3.968386e-44
0.00035368188
0.0003346176
0.00031462101
0.00032152363
0.00033907713
0.00035071875
0.00036676083
0.0003700161
0.00033934708
0.00029151441
0.00026044772
0.00025618921
0.00025242688
0.00021787942
0.00015358388
9.3470752e-05
4.9428628e-05
0.00032888446
0.00027010012
0.00024382195
0.00027730226
0.0003337197
0.00036820775
0.0003639293
0.0003303234
0.0002732085
0.00016893674
5.8418365e-05
1.0196423e-05
8.4706279e-07
3.1803159e-08
5.1807132e-10
7.5288609e-12
1.7331551e-12
6.8307739e-13
2.5707159e-13
8.9950362e-14
2.8935301e-14
8.4985007e-15
2.2675899e-15
5.4738091e-16
1.1908021e-16
2.3262727e-17
4.0645757e-18
6.3198205e-19
8.6917076e-20
1.0495902e-20
1.1022617e-21
9.9279969e-23
7.5541406e-24
4.7597231e-25
2.5074248e-28
3.7903253e-32
1.2969612e-36
8.3282799e-42
1.1784432e-47
0.00034369392
0.0003585471
0.00032997927
0.00030319323
0.00030744657
0.00032789596
0.00034465044
0.00036136659
0.00035949153
0.00032115013
0.00026640312
0.00023061337
0.00022239822
0.00020948956
0.00016212774
9.742179e-05
4.8067652e-05
1.9808755e-05
0.00028861082
0.00026012539
0.00029092752
0.00034737743
0.00038180067
0.00037603208
0.00034481264
0.00030070804
0.00022164522
9.7653038e-05
2.4088066e-05
3.0624685e-06
1.8896952e-07
5.3610544e-09
7.6750414e-11
6.0706497e-12
2.5012832e-12
1.0150525e-12
3.8047028e-13
1.3091121e-13
4.1189728e-14
1.1809938e-14
3.0754598e-15
7.2506679e-16
1.5424786e-16
2.9511752e-17
5.0585757e-18
7.7301139e-19
1.0468734e-19
1.2473728e-20
1.2942132e-21
1.153808e-22
8.7072698e-24
6.5171969e-27
1.4811374e-30
8.1612599e-35
8.9798317e-40
2.3413207e-45
2.3263641e-51
0.00030569067
0.00035616675
0.00036071852
0.00032366429
0.00029029511
0.00029152951
0.00031466994
0.00033583143
0.00035257506
0.00034502096
0.00029854257
0.00023664467
0.00019671452
0.00018157485
0.00015647438
0.00010324107
5.045657e-05
1.9052094e-05
5.8483904e-06
0.00027502294
0.00030220735
0.0003576564
0.00039190393
0.00038325637
0.00035155338
0.00031629423
0.00026029793
0.00015019335
4.4840688e-05
8.0775674e-06
7.6448537e-07
3.5738512e-08
8.0232018e-10
2.5344843e-11
8.6733222e-12
3.7461271e-12
1.49206e-12
5.4548073e-13
1.8275114e-13
5.5986531e-14
1.5640747e-14
3.9731359e-15
9.1508073e-16
1.9051017e-16
3.5737123e-17
6.0174301e-18
9.051008e-19
1.2090188e-19
1.4238706e-20
1.462035e-21
1.2927146e-22
1.336713e-25
4.3906168e-29
3.6785564e-33
6.381558e-38
2.5579653e-43
4.0370217e-49
3.5517795e-55
0.00028860818
0.00032120606
0.00036556716
0.00036047113
0.00031546315
0.00027578208
0.00027369977
0.0002986074
0.00032353743
0.0003396682
0.0003258609
0.00027007175
0.00020156524
0.00015667769
0.00013296853
9.9355692e-05
5.4055424e-05
2.008414e-05
5.5098739e-06
1.2283129e-06
0.0003108442
0.00036405531
0.0003978336
0.00038582469
0.00035198892
0.00032286643
0.00028622346
0.00019934854
8.1390034e-05
1.6610173e-05
2.2349746e-06
1.6081944e-07
5.862914e-09
1.5128014e-10
2.9044282e-11
1.3007556e-11
5.4522428e-12
2.1020358e-12
7.4554894e-13
2.4269329e-13
7.2343684e-14
1.9693791e-14
4.8827424e-15
1.0996115e-15
2.2429564e-16
4.1309703e-17
6.8437348e-18
1.0149979e-18
1.3397732e-19
1.5621402e-20
1.5907021e-21
2.2249701e-24
1.0274489e-27
1.2616256e-31
3.2961246e-36
1.9341749e-41
4.0502295e-47
5.3688697e-53
4.3608811e-59
0.0003170587
0.00030064117
0.00033485995
0.00037202572
0.00035777588
0.0003053983
0.00025941347
0.00025341968
0.00027920229
0.0003071006
0.00032206131
0.00030095954
0.00023461628
0.00015946101
0.00011120277
8.2496515e-05
5.1694474e-05
2.184994e-05
5.822112e-06
1.1237159e-06
1.8285418e-07
0.00036598772
0.00039837527
0.00038333011
0.00034674501
0.00032243381
0.00030145744
0.00024096033
0.00012433203
3.5921195e-05
5.029667e-06
5.1850115e-07
2.9307859e-08
9.9851677e-10
1.0147474e-10
4.3069144e-11
1.8808391e-11
7.5621542e-12
2.8105709e-12
9.6664904e-13
3.0579869e-13
8.8738621e-14
2.3556595e-14
5.7059465e-15
1.2579753e-15
2.5175943e-16
4.5597799e-17
7.4458563e-18
1.0909804e-18
1.4259323e-19
1.6490129e-20
3.0681366e-23
1.9509426e-26
3.4216844e-30
1.3068869e-34
1.0947666e-39
3.0000225e-45
4.6333428e-51
6.0446195e-57
4.348205e-63
0.0003634976
0.00032081293
0.00031156021
0.00034643371
0.00037563749
0.00035268322
0.00029309853
0.00024088984
0.00023053688
0.00025612892
0.00028606837
0.00029904446
0.0002678195
0.00018888224
0.00011189186
6.6643388e-05
4.1455142e-05
2.08887e-05
6.4510883e-06
1.1877649e-06
1.6071748e-07
1.9543424e-08
0.00039277211
0.00037504559
0.00033621409
0.00031636576
0.00030909907
0.00027227041
0.00017055633
6.3171881e-05
1.3047267e-05
1.278281e-06
1.0761598e-07
6.0068631e-09
4.9868466e-10
1.4692468e-10
6.2498227e-11
2.5911879e-11
9.9467381e-12
3.5572359e-12
1.1871921e-12
3.6527945e-13
1.032751e-13
2.6760913e-14
6.3403826e-15
1.370371e-15
2.6951234e-16
4.8088577e-17
7.7552917e-18
1.1250145e-18
1.4591604e-19
3.5610337e-22
3.0670265e-25
7.5368351e-29
4.1222196e-33
4.8451245e-38
1.7441493e-43
3.0863325e-49
4.5193063e-55
5.8058982e-61
4.0296504e-67
0.00038074484
0.00035671895
0.00032319855
0.00032161072
0.00035560694
0.0003763197
0.00034488764
0.00027823494
0.00021991644
0.00020495874
0.00022912176
0.00025967987
0.00026837089
0.00022091205
0.0001348209
6.5958515e-05
3.1891199e-05
1.6126552e-05
6.1918433e-06
1.3415055e-06
1.6951062e-07
1.6406981e-08
1.5320688e-09
0.00036086771
0.00032108329
0.00030595428
0.00031130286
0.0002958531
0.00021541601
9.8052265e-05
2.6458323e-05
4.0073955e-06
3.3110183e-07
3.8274954e-08
5.3430835e-09
9.2450042e-10
2.3712091e-10
8.7010234e-11
3.3585596e-11
1.2301833e-11
4.2552071e-12
1.3805308e-12
4.1350915e-13
1.1402029e-13
2.8873613e-14
6.7006004e-15
1.4220239e-15
2.7532887e-16
4.8492464e-17
7.7400408e-18
1.1141891e-18
3.5230879e-21
4.0538446e-24
1.3747774e-27
1.0606196e-31
1.7283117e-36
8.1574833e-42
1.7170113e-47
2.5640216e-53
3.9715963e-59
5.3386635e-65
3.6735425e-71
0.00034102128
0.00036293287
0.00034731062
0.00032493145
0.00033032393
0.00036200842
0.00037401342
0.00033406226
0.00026043339
0.00019631122
0.00017685777
0.00019784272
0.00022875086
0.00022448665
0.00016176342
8.0536833e-05
3.0606418e-05
1.1601885e-05
4.6112805e-06
1.2951964e-06
1.9450378e-07
1.6976516e-08
1.234192e-09
9.0341172e-11
0.0003023037
0.00029238574
0.00030988564
0.00031420744
0.00025662137
0.00013913053
4.6392861e-05
9.4481908e-06
1.3133275e-06
2.5991109e-07
7.0024997e-08
1.4575048e-08
2.3561722e-09
3.9947545e-10
1.1270801e-10
4.0517398e-11
1.4286691e-11
4.8155686e-12
1.5197589e-12
4.4357743e-13
1.1942204e-13
2.9593477e-14
6.737294e-15
1.4064529e-15
2.6861637e-16
4.6800195e-17
7.4101494e-18
3.0021646e-20
4.5603063e-23
2.1076675e-26
2.2672391e-30
5.0823242e-35
3.1289209e-40
8.0499556e-46
1.2641357e-51
1.9474346e-57
3.5186249e-63
4.8931312e-69
3.2734504e-75
0.00028068555
0.00031656879
0.0003418978
0.000336913
0.00032590389
0.00033711181
0.0003652559
0.00036821752
0.00031998692
0.00023914636
0.00017022887
0.00014696565
0.00016686135
0.00018815479
0.00016657241
9.9832172e-05
3.7710245e-05
1.0557262e-05
3.0665004e-06
9.3543684e-07
1.884953e-07
1.959947e-08
1.2305917e-09
7.0024961e-11
4.056019e-12
0.00027666353
0.00030622403
0.00032933805
0.00029454355
0.00018420879
7.3418742e-05
1.8948247e-05
3.8327886e-06
1.3111554e-06
6.380144e-07
2.0093076e-07
4.3249012e-08
5.7814619e-09
5.9693306e-10
1.3263165e-10
4.5546665e-11
1.5633536e-11
5.1537986e-12
1.5836777e-12
4.5090518e-13
1.1867895e-13
2.8822618e-14
6.448563e-15
1.326809e-15
2.5050707e-16
4.3275637e-17
2.2229863e-19
4.4096903e-22
2.7475327e-25
4.0828987e-29
1.2531166e-33
1.001704e-38
3.180466e-44
5.5784935e-50
8.1269011e-56
1.5813317e-61
3.199112e-67
4.4047291e-73
2.8455713e-79
0.00025970963
0.00025679835
0.00028984678
0.00031959117
0.00032595709
0.00032551777
0.00034114586
0.00036477451
0.00035896127
0.00030169895
0.00021431194
0.00014170653
0.00011659231
0.00013002784
0.0001374908
0.00010447962
4.8502432e-05
1.3001661e-05