/*--------------------------------*- C++ -*----------------------------------*\
| =========                 |                                                 |
| \\      /  F ield         | OpenFOAM: The Open Source CFD Toolbox           |
|  \\    /   O peration     | Version:  5.0                                   |
|   \\  /    A nd           | Web:      www.OpenFOAM.org                      |
|    \\/     M anipulation  |                                                 |
\*---------------------------------------------------------------------------*/
FoamFile
{
    version     2.0;
    format      ascii;
    class       volScalarField;
    location    "180";
    object      nuTilda;
}
// * * * * * * * * * * * * * * * * * * * * * * * * * * * * * * * * * * * * * //

dimensions      [0 2 -1 0 0 0 0];

internalField   nonuniform List<scalar> 
9520
(
4.8412063e-33
5.138125e-31
4.6805176e-33
2.6683536e-29
4.969104e-31
4.5239618e-33
9.0057449e-28
2.5810139e-29
4.8042252e-31
4.3815762e-33
2.223632e-26
8.7124514e-28
2.4958706e-29
4.6555577e-31
4.2611519e-33
4.2930673e-25
2.1515862e-26
8.4272079e-28
2.4197865e-29
4.5321926e-31
4.1633336e-33
6.7736976e-24
4.1544916e-25
2.0818049e-26
8.1744073e-28
2.357651e-29
4.4336923e-31
4.0802267e-33
8.9981983e-23
6.5560299e-24
4.0209847e-25
2.0204175e-26
7.9702815e-28
2.3084803e-29
4.3484437e-31
3.9974419e-33
1.0254024e-21
8.7120347e-23
6.3475258e-24
3.9043798e-25
1.9711523e-26
7.8087635e-28
2.264607e-29
4.2578769e-31
3.8982642e-33
1.0170789e-20
9.933565e-22
8.439331e-23
6.1666897e-24
3.8109793e-25
1.9318081e-26
7.6590384e-28
2.2150119e-29
4.1436817e-31
3.7715559e-33
8.9018013e-20
9.8608174e-21
9.6290388e-22
8.2042462e-23
6.0216465e-24
3.7350517e-25
1.8937387e-26
7.4805966e-28
2.1503919e-29
3.9977136e-31
3.6200036e-33
7.0875479e-19
8.6351025e-20
9.5659146e-21
9.3670537e-22
8.015038e-23
5.900834e-24
3.6581322e-25
1.8464945e-26
7.2440437e-28
2.0688647e-29
3.8295966e-31
3.4643285e-33
6.1288068e-18
6.842728e-19
8.3806591e-20
9.3103723e-21
9.1549926e-22
7.8531231e-23
5.7725315e-24
3.5598425e-25
1.7836378e-26
6.9517053e-28
1.9789544e-29
3.6679743e-31
3.3390171e-33
1.062545e-16
5.6878672e-18
6.6129201e-19
8.154739e-20
9.101913e-21
8.9690054e-22
7.673176e-23
5.6050561e-24
3.4300117e-25
1.7079582e-26
6.6438511e-28
1.8983979e-29
3.552088e-31
3.2790483e-33
3.7560627e-15
9.1099268e-17
5.2818632e-18
6.4015122e-19
7.9693606e-20
8.9165663e-21
8.7541734e-22
7.4341166e-23
5.3868797e-24
3.27852e-25
1.6319668e-26
6.3879389e-28
1.847977e-29
3.5152118e-31
3.3025247e-33
1.3704432e-13
3.2431764e-15
7.4871643e-17
4.889144e-18
6.2322792e-19
7.8073603e-20
8.696549e-21
8.4639532e-22
7.1273834e-23
5.1412173e-24
3.1338376e-25
1.5736135e-26
6.2523814e-28
1.8420709e-29
3.5667432e-31
3.3978514e-33
4.0943682e-12
1.2340573e-13
2.5217329e-15
5.7477064e-17
4.5930128e-18
6.0980392e-19
7.6129939e-20
8.392916e-21
8.0962881e-22
6.7946253e-23
4.919041e-24
3.0318289e-25
1.5486513e-26
6.2733557e-28
1.8800599e-29
3.6821999e-31
3.5227839e-33
9.4991014e-11
3.8259617e-12
9.6249442e-14
1.6754977e-15
4.4624684e-17
4.4105305e-18
5.9448935e-19
7.3359011e-20
8.0105476e-21
7.7117355e-22
6.5109728e-23
4.7769284e-24
2.9993359e-25
1.5624851e-26
6.4297431e-28
1.9432352e-29
3.8073257e-31
3.6167358e-33
1.6709057e-09
9.1284666e-11
3.0058153e-12
6.2240121e-14
1.0678034e-15
3.8101798e-17
4.2676199e-18
5.7189563e-19
6.9849917e-20
7.6241503e-21
7.4040484e-22
6.3495108e-23
4.749475e-24
3.0392824e-25
1.6053e-26
6.6403883e-28
1.9995868e-29
3.8754046e-31
3.6212971e-33
2.1723106e-08
1.636236e-09
7.2218419e-11
1.9392688e-12
3.9082397e-14
8.0808654e-16
3.5242352e-17
4.0792256e-18
5.4274944e-19
6.640832e-20
7.33562e-21
7.2520295e-22
6.3436053e-23
4.8283552e-24
3.1243451e-25
1.6533898e-26
6.7884775e-28
2.0147779e-29
3.8305828e-31
3.5007753e-33
2.0467852e-07
2.1530731e-08
1.3036639e-09
4.6880809e-11
1.2708308e-12
3.1779751e-14
7.4639893e-16
3.2510431e-17
3.8330844e-18
5.1486466e-19
6.4026594e-20
7.2170014e-21
7.2771395e-22
6.464024e-23
4.9579897e-24
3.2034169e-25
1.6769575e-26
6.7638496e-28
1.964545e-29
3.648086e-31
3.2554459e-33
1.3655537e-06
2.0343461e-07
1.7439134e-08
8.6185734e-10
3.261631e-11
1.1676908e-12
3.2785668e-14
6.6828284e-16
2.8441097e-17
3.6031108e-18
4.9711699e-19
6.3273223e-20
7.2710115e-21
7.4249201e-22
6.6214814e-23
5.0519267e-24
3.2195709e-25
1.651342e-26
6.5044076e-28
1.8437226e-29
3.3443986e-31
2.9235234e-33
6.4438214e-06
1.355232e-06
1.6773288e-07
1.2040813e-08
6.4369275e-10
3.36268e-11
1.3342918e-12
3.0601418e-14
4.7498062e-16
2.4613354e-17
3.4692556e-18
4.9343835e-19
6.3989944e-20
7.4219132e-21
7.5780538e-22
6.6965089e-23
5.0249e-24
3.1322407e-25
1.5667051e-26
6.0201342e-28
1.6691006e-29
2.9746179e-31
2.5719209e-33
2.160056e-05
6.3758041e-06
1.1450466e-06
1.224138e-07
9.7982286e-09
7.2567082e-10
4.1284507e-11
1.2905166e-12
2.0041608e-14
2.8040296e-16
2.252807e-17
3.4544088e-18
5.0099928e-19
6.531131e-20
7.5394785e-21
7.5991734e-22
6.5858204e-23
4.8271658e-24
2.9339035e-25
1.4321594e-26
5.3938536e-28
1.475651e-29
2.6185927e-31
2.2793648e-33
5.3261239e-05
2.1300511e-05
5.5069266e-06
8.8526762e-07
1.0692993e-07
1.1391887e-08
9.2607663e-10
4.0681778e-11
8.3034139e-13
9.0467659e-15
1.7693247e-16
2.207496e-17
3.5222901e-18
5.1126019e-19
6.5981618e-20
7.4900041e-21
7.3863173e-22
6.2453473e-23
4.4662099e-24
2.654227e-25
1.2738011e-26
4.7607619e-28
1.3076566e-29
2.3607717e-31
2.1172747e-33
0.00010215796
5.2515677e-05
1.8812075e-05
4.4832892e-06
8.1414294e-07
1.2577365e-07
1.464598e-08
9.1755204e-10
2.5890696e-11
3.4925137e-13
3.4259923e-15
1.4237638e-16
2.2496902e-17
3.5956206e-18
5.1341752e-19
6.4882858e-20
7.1923368e-21
6.9168636e-22
5.711427e-23
4.0067263e-24
2.3523445e-25
1.1280009e-26
4.2739867e-28
1.2075912e-29
2.2698484e-31
2.1335316e-33
0.00016179499
0.00010091921
4.7351318e-05
1.6025356e-05
4.2907031e-06
9.5834194e-07
1.5995915e-07
1.4467819e-08
5.8129362e-10
1.0559578e-11
1.140474e-13
1.5650949e-15
1.368043e-16
2.296494e-17
3.588611e-18
4.9931948e-19
6.1521455e-20
6.6538741e-21
6.2614238e-22
5.0916929e-23
3.5526459e-24
2.1013848e-25
1.0321007e-26
4.0663619e-28
1.2058673e-29
2.3831813e-31
2.3423857e-33
0.00021878655
0.00015978001
9.2550172e-05
4.1696726e-05
1.5777009e-05
5.0304937e-06
1.1941034e-06
1.567747e-07
9.2013783e-09
2.3713461e-10
3.3512365e-12
4.2211983e-14
1.1530489e-15
1.3825725e-16
2.2773902e-17
3.448472e-18
4.6716343e-19
5.6247922e-20
5.9724026e-21
5.5632947e-22
4.5343654e-23
3.2196966e-24
1.9697383e-25
1.0150794e-26
4.2182347e-28
1.3137927e-29
2.6986711e-31
2.7215986e-33
0.00026596577
0.00021474775
0.00014751777
8.31407e-05
4.1734932e-05
1.8347366e-05
6.097694e-06
1.1597657e-06
1.0100212e-07
3.885158e-09
8.1145395e-11
1.3768867e-12
3.0988134e-14
1.1616941e-15
1.3582056e-16
2.1593108e-17
3.1800338e-18
4.2215312e-19
5.0147713e-20
5.3060082e-21
4.9973085e-22
4.1890475e-23
3.1056831e-24
2.0038185e-25
1.0904179e-26
4.738e-28
1.5208325e-29
3.1746908e-31
3.2163716e-33
0.00030580703
0.00026041461
0.00019929472
0.00013392265
8.3588774e-05
4.7971617e-05
2.1596214e-05
5.8603489e-06
7.6299847e-07
4.5213554e-08
1.4953573e-09
3.9721364e-11
1.345904e-12
3.7565413e-14
1.1366493e-15
1.2577119e-16
1.9587959e-17
2.8395559e-18
3.7445624e-19
4.4698815e-20
4.8280591e-21
4.7237996e-22
4.1682575e-23
3.2654109e-24
2.2162063e-25
1.2525134e-26
5.5581368e-28
1.7962575e-29
3.7373278e-31
3.7488876e-33
0.00033972608
0.00029865044
0.00024281973
0.00018364041
0.00013461364
9.4797563e-05
5.4911158e-05
2.0564666e-05
3.9625362e-06
3.6655933e-07
1.9693216e-08
8.7705575e-10
4.7675191e-11
1.9010622e-12
3.8897172e-14
9.1840555e-16
1.1085915e-16
1.7265834e-17
2.5097262e-18
3.3597757e-19
4.1362275e-20
4.6821706e-21
4.8472124e-22
4.5178042e-23
3.6957155e-24
2.5813112e-25
1.4771222e-26
6.5466608e-28
2.0946645e-29
4.2934901e-31
4.2319527e-33
0.00036832448
0.0003309607
0.00027939279
0.00022606112
0.00018546238
0.00015074573
0.00010599568
5.2015205e-05
1.438862e-05
2.0605386e-06
1.820233e-07
1.3873156e-08
1.1853212e-09
7.1927209e-11
2.0440799e-12
2.5468412e-14
6.6214872e-16
9.5821051e-17
1.5222455e-17
2.2739192e-18
3.1724221e-19
4.1213467e-20
4.9448616e-21
5.3872705e-22
5.2022934e-23
4.3333579e-24
3.0392072e-25
1.7257189e-26
7.531826e-28
2.3643316e-29
4.74792e-31
4.5846329e-33
0.00039071558
0.00035764457
0.00031092255
0.00026185796
0.00022883121
0.00020541684
0.00016613716
0.00010058687
3.7868815e-05
8.1506253e-06
1.1735194e-06
1.5122169e-07
1.9942566e-08
1.833545e-09
7.8478621e-11
1.3023984e-12
1.0452664e-14
5.0543366e-16
8.4205842e-17
1.3966913e-17
2.1968019e-18
3.2488123e-19
4.4658482e-20
5.6024981e-21
6.2690043e-22
6.1087641e-23
5.066283e-24
3.5070943e-25
1.9529885e-26
8.3351848e-28
2.5570098e-29
5.021038e-31
4.7469542e-33
0.00040722324
0.00037852047
0.00033692486
0.00029335546
0.00026478639
0.00025033503
0.00022257104
0.00015794459
7.6330198e-05
2.3383067e-05
5.3200035e-06
1.1213175e-06
2.2389432e-07
3.0846478e-08
2.0082805e-09
5.0329668e-11
4.6030606e-13
3.833412e-15
4.3004112e-16
7.8404737e-17
1.3831328e-17
2.3104018e-18
3.5983877e-19
5.1285298e-20
6.5483612e-21
7.3345103e-22
7.0683314e-23
5.7561967e-24
3.8961642e-25
2.1159152e-26
8.8066289e-28
2.637331e-29
5.0637655e-31
4.6904115e-33
0.00041855395
0.00039384541
0.00035769529
0.00031989945
0.00029591104
0.00028600359
0.00026657779
0.00021096838
0.00012395183
5.0999154e-05
1.7266225e-05
5.6704965e-06
1.6733879e-06
3.4033445e-07
3.3673665e-08
1.3037888e-09
1.7840545e-11
1.0077222e-13
2.2180567e-15
4.051868e-16
7.9684143e-17
1.4915944e-17
2.6050324e-18
4.1665918e-19
5.990171e-20
7.6019674e-21
8.3751092e-22
7.8916142e-23
6.2674093e-24
4.1302621e-25
2.1826083e-26
8.85424e-28
2.5894083e-29
4.8657953e-31
4.4217093e-33
0.00042493857
0.00040439132
0.0003734441
0.0003416524
0.00032218864
0.00031558323
0.00030035498
0.00025266516
0.00017057457
8.8540514e-05
4.1479496e-05
1.9833736e-05
8.3869898e-06
2.4663876e-06
3.6827853e-07
2.2223196e-08
4.765822e-10
3.8700461e-12
2.2813397e-14
1.9656796e-15
4.2264052e-16
8.7954702e-17
1.7054493e-17
3.0273263e-18
4.8428431e-19
6.8771193e-20
8.5476076e-21
9.1757071e-22
8.4042327e-23
6.4908425e-24
4.1597606e-25
2.138669e-26
8.4607898e-28
2.4189839e-29
4.4552009e-31
3.9787169e-33
0.00042718779
0.00041063077
0.0003849383
0.00035887377
0.00034375827
0.0003398472
0.00032717071
0.00028492094
0.00021006896
0.00012922659
7.7248299e-05
4.9619821e-05
2.8691186e-05
1.1863414e-05
2.6327885e-06
2.4806295e-07
8.5076864e-09
1.1302651e-10
7.2308369e-13
1.0644337e-14
2.0803628e-15
4.7666341e-16
1.0163639e-16
1.9816554e-17
3.4893652e-18
5.4839675e-19
7.6001757e-20
9.1775423e-21
9.5531077e-22
8.4888918e-23
6.3722483e-24
3.9720475e-25
1.9888102e-26
7.6825666e-28
2.1506631e-29
3.8891966e-31
3.4201663e-33
0.00042666738
0.00041359202
0.00039267322
0.00037227637
0.00036090731
0.00035929029
0.00034856089
0.00031117179
0.00024204845
0.00016707495
0.00011828164
9.383915e-05
6.9550579e-05
3.8706895e-05
1.2451036e-05
1.8162612e-06
1.0069039e-07
2.2444299e-09
2.3220568e-11
1.4692864e-13
9.8029302e-15
2.3918791e-15
5.5539976e-16
1.1773348e-16
2.2588892e-17
3.8887225e-18
5.9478232e-19
7.9915124e-20
9.3391513e-21
9.4131268e-22
8.1138155e-23
5.922907e-24
3.5940167e-25
1.7551096e-26
6.6314596e-28
1.8210424e-29
3.2401722e-31
2.8123119e-33
0.00042398052
0.00041447615
0.00039766784
0.00038221945
0.00037448031
0.00037431393
0.00036513131
0.00033214211
0.00027062689
0.00019928406
0.0001576742
0.00014368756
0.00012694668
8.9437297e-05
3.9922054e-05
8.830493e-06
7.8961814e-07
2.9601587e-08
5.161855e-10
4.3762208e-12
5.8869083e-14
1.1294548e-14
2.808041e-15
6.4005312e-16
1.3243499e-16
2.4727627e-17
4.1337344e-18
6.1212215e-19
7.9462044e-20
8.9780802e-21
8.7626572e-22
7.3326439e-23
5.2109431e-24
3.082171e-25
1.4707055e-26
5.44628e-28
1.4702941e-29
2.5803029e-31
2.2162782e-33
0.00041942486
0.00041393583
0.000401699
0.00038942426
0.00038462198
0.00038579753
0.00037734907
0.00034864188
0.0002945788
0.00022894253
0.00019205788
0.0001894294
0.00018789009
0.00015594569
9.0876566e-05
2.9238861e-05
4.1460495e-06
2.5772744e-07
7.5663932e-09
1.0793622e-10
1.0117671e-12
5.8107172e-14
1.3397368e-14
3.2164389e-15
7.090796e-16
1.4216191e-16
2.5725691e-17
4.1620856e-18
5.9458072e-19
7.4524956e-20
8.1425103e-21
7.7019933e-22
6.26558e-23
4.3411516e-24
2.5072735e-25
1.1716375e-26
4.262581e-28
1.1343149e-29
1.9692596e-31
1.6791763e-33
0.00041316077
0.00041839879
0.00040524223
0.00039512535
0.00039175383
0.00039376274
0.00038589443
0.00036092823
0.00031458685
0.00025520185
0.00022127693
0.00022711246
0.00023962351
0.00022160677
0.00015631316
6.8966515e-05
1.4877364e-05
1.4925769e-06
7.2805516e-08
1.8039562e-09
2.9110232e-11
8.4804244e-13
7.5090188e-14
1.5301038e-14
3.5030636e-15
7.4485203e-16
1.4454178e-16
2.5325145e-17
3.948639e-18
5.4398425e-19
6.5856568e-20
6.9643286e-21
6.3934089e-22
5.0657355e-23
3.4285136e-24
1.9381466e-25
8.8956266e-27
3.1893087e-28
8.3958367e-30
1.4475361e-31
1.2303843e-33
0.00040811631
0.00041621785
0.00042042829
0.00039930744
0.00039680825
0.00039870833
0.00039100975
0.00036963667
0.00033097763
0.00027801254
0.00024688662
0.00025665478
0.00027822768
0.00027428321
0.00021927817
0.00012280636
3.8037921e-05
5.8703148e-06
4.658632e-07
2.030809e-08
6.7808518e-10
3.2651077e-11
1.5894373e-12
9.2324623e-14
1.6330454e-14
3.5910431e-15
7.3866291e-16
1.3891521e-16
2.3462715e-17
3.5240622e-18
4.6841741e-19
5.4828506e-20
5.6203493e-21
5.0180326e-22
3.8826903e-23
2.5740668e-24
1.4293168e-25
6.4706297e-27
2.2971289e-28
6.0144839e-30
1.0357271e-31
8.8260725e-34
0.00040181685
0.00041300059
0.00041796008
0.00042067272
0.00039959853
0.00040124757
0.00039333787
0.00037521504
0.0003442067
0.0002976817
0.00026906543
0.00027997781
0.00030590012
0.00030940286
0.0002677925
0.00017696188
7.3119477e-05
1.6393527e-05
2.0410074e-06
1.5877778e-07
1.1199126e-08
9.997374e-10
7.0222777e-11
2.4370322e-12
9.4122563e-14
1.6196072e-14
3.4626215e-15
6.9186911e-16
1.2565354e-16
2.0426107e-17
2.9573121e-18
3.7970827e-19
4.3047267e-20
4.2878597e-21
3.7358322e-22
2.8346324e-23
1.8497386e-24
1.0152446e-25
4.5665233e-27
1.6188699e-28
4.2541792e-30
7.3840842e-32
6.3617049e-34
0.00039993801
0.00040396425
0.00041613008
0.00041752144
0.00041934261
0.00040139386
0.00039335568
0.0003783732
0.00035466922
0.00031459384
0.00028814067
0.00029937688
0.00032566613
0.00033191422
0.00029981017
0.00022114808
0.00011296988
3.4411377e-05
6.4748296e-06
8.9769745e-07
1.2750758e-07
1.9516935e-08
2.16073e-09
1.1141274e-10
2.3608778e-12
7.9701053e-14
1.5061429e-14
3.1523131e-15
6.1061705e-16
1.0670212e-16
1.6708386e-17
2.3352206e-18
2.9027679e-19
3.1976425e-20
3.10923e-21
2.6603914e-22
1.9956148e-23
1.2945829e-24
7.1114032e-26
3.2232634e-27
1.1587463e-28
3.1029973e-30
5.5030598e-32
4.8451004e-34
0.00039915579
0.00039753406
0.00040665096
0.00041684864
0.00041519743
0.00041552936
0.00039150227
0.0003798388
0.00036300007
0.00032896563
0.00030447389
0.00031534851
0.00034118905
0.00034817528
0.00032114176
0.00025370791
0.0001502013
5.8251049e-05
1.5815817e-05
3.8072333e-06
9.865033e-07
2.4024585e-07
4.0914465e-08
3.3693754e-09
1.0824966e-10
1.3419269e-12
6.3910699e-14
1.3255846e-14
2.7104382e-15
5.0571814e-16
8.5101328e-17
1.2861765e-17
1.7406658e-18
2.104582e-19
2.2683896e-20
2.1748236e-21
1.8529263e-22
1.3980592e-23
9.2063426e-25
5.1843053e-26
2.426704e-27
9.0536321e-29
2.5182494e-30
4.6250553e-32
4.1919937e-34
0.00038821992
0.00039403586
0.00039638044
0.00040812851
0.00041523045
0.00041039511
0.00040762426
0.00038042893
0.0003699933
0.00034114069
0.00031834268
0.00032849661
0.00035281568
0.00035965619
0.00033660588
0.00028026259
0.00018165577
8.4737963e-05
3.1475264e-05
1.2218401e-05
5.1772142e-06
1.8880558e-06
4.7957572e-07
6.1976418e-08
3.2845463e-09
5.9326252e-11
5.0783319e-13
5.223165e-14
1.1069731e-14
2.1885943e-15
3.9341481e-16
6.3933663e-17
9.3689314e-18
1.2367516e-18
1.4707633e-19
1.5767766e-20
1.5252347e-21
1.3324731e-22
1.0456319e-23
7.2399431e-25
4.3181956e-26
2.1428572e-27
8.4391985e-29
2.4567876e-30
4.6720057e-32
4.334867e-34
0.00038101507
0.00038362749
0.00038898542
0.00039495965
0.00040763784
0.00041103758
0.00040155674
0.00039500001
0.0003754611
0.00035187197
0.00033008348
0.00033903317
0.00036163939
0.00036682452
0.00034690923
0.00030085415
0.00021580617
0.00011096514
5.2820199e-05
2.9833762e-05
1.8576627e-05
9.6637343e-06
3.5397898e-06
7.0052132e-07
6.0339189e-08
1.871658e-09
1.7561037e-11
2.2421813e-13
4.1982608e-14
8.7043977e-15
1.6615111e-15
2.8894927e-16
4.567402e-17
6.5659e-18
8.609435e-19
1.0344137e-19
1.1439737e-20
1.1669996e-21
1.0945677e-22
9.2962817e-24
6.9637633e-25
4.4583634e-26
2.344545e-27
9.6459474e-29
2.8935335e-30
5.6025809e-32
5.2398065e-34
0.0003814693
0.00037994445
0.00037795885
0.00038318223
0.00039270349
0.00040465063
0.00040306148
0.00038828678
0.00037743887
0.00036129635
0.00033997409
0.00034727738
0.00036761179
0.00037089818
0.00035267303
0.00031610342
0.00024452936
0.00014262983
7.7608795e-05
5.6589509e-05
4.7016412e-05
3.3020868e-05
1.6831849e-05
4.951917e-06
6.7902361e-07
3.5822065e-08
5.9898217e-10
3.1346581e-12
1.5202102e-13
3.2048228e-14
6.4522663e-15
1.1961204e-15
2.0356531e-16
3.1893365e-17
4.6307737e-18
6.2866229e-19
8.0397375e-20
9.6952979e-21
1.0928721e-21
1.13003e-22
1.0428206e-23
8.334716e-25
5.5848898e-26
3.0251053e-27
1.2659479e-28
3.8267905e-30
7.4160043e-32
6.9063543e-34
0.00036977369
0.0003846439
0.00037709825
0.00037128153
0.00037642788
0.00038850628
0.00039840529
0.00039076564
0.00037048588
0.00035418686
0.00034816695
0.0003535681
0.00037128026
0.00037199894
0.00035484357
0.00032664162
0.00026887373
0.00017344634
0.00010335959
8.8731486e-05
8.848227e-05
7.8555522e-05
5.3045096e-05
2.2408782e-05
4.7698508e-06
4.1985874e-07
1.2633059e-08
1.0926825e-10
7.7634983e-13
1.1041712e-13
2.3198678e-14
4.5702233e-15
8.3787358e-16
1.4374995e-16
2.3331788e-17
3.625104e-18
5.4250305e-19
7.7763282e-20
1.0488017e-20
1.2985804e-21
1.4376817e-22
1.3870741e-23
1.138099e-24
7.7219306e-26
4.1983883e-27
1.7536162e-28
5.2720989e-30
1.0138365e-31
9.354368e-34
0.00035493704
0.00037633651
0.00038548286
0.00037227987
0.00036296146
0.00036801426
0.00038157715
0.00038818134
0.00037409915
0.00034738201
0.00032523819
0.00035787065
0.00037282718
0.00037079555
0.00035414389
0.00033335473
0.00028898743
0.00020239551
0.00013015492
0.00011674666
0.00013468938
0.00013870447
0.00011621437
6.6992142e-05
2.1443468e-05
3.0781123e-06
1.6298207e-07
2.708046e-09
1.6549837e-11
3.8357655e-13
7.7861579e-14
1.6252674e-14
3.2208251e-15
6.1051094e-16
1.1223291e-16
2.0212918e-17
3.5579964e-18
6.0213492e-19
9.5536596e-20
1.384458e-20
1.7910884e-21
2.0281083e-22
1.9736048e-23
1.6187484e-24
1.0919983e-25
5.8874489e-27
2.4354369e-28
7.2481486e-30
1.3797446e-31
1.2603055e-33
0.00036035056
0.00036016703
0.00038087912
0.00038404125
0.00036529957
0.00035284541
0.00035736305
0.00037132125
0.0003737023
0.000352257
0.00031890748
0.00029078936
0.0003722496
0.00036737002
0.00035121742
0.00033722881
0.00030514488
0.00022906439
0.00015648221
0.00014281648
0.00017326122
0.00019844003
0.00019022777
0.00013957498
6.3922715e-05
1.4502e-05
1.3170741e-06
4.0976353e-08
4.6461263e-10
2.8864936e-12
2.4827279e-13
5.4300865e-14
1.1704989e-14
2.4811065e-15
5.2322374e-16
1.0986847e-16
2.2610538e-17
4.4417738e-18
8.1085254e-19
1.3445275e-19
1.9889771e-20
2.5869028e-21
2.9185302e-22
2.8166075e-23
2.2839008e-24
1.5218973e-25
8.1060841e-27
3.3146015e-28
9.7588168e-30
1.8393057e-31
1.6647546e-33
0.00036950656
0.00036102127
0.00036418275
0.00038338237
0.00038031425
0.00035630065
0.00034047467
0.00034432864
0.00035729896
0.00035426387
0.00032503818
0.00028536842
0.00025188287
0.00036188626
0.00034644309
0.00033918979
0.00031802386
0.00025320272
0.00018166244
0.00016700185
0.00020216106
0.00024663687
0.00025418968
0.0002181858
0.00013366638
4.5609392e-05
6.8642322e-06
3.8600667e-07
8.3277468e-09
7.012014e-11
9.2294162e-13
1.7238874e-13
4.0716603e-14
9.7720109e-15
2.3806963e-15
5.799766e-16
1.3737742e-16
3.0699848e-17
6.3176364e-18
1.1766901e-18
1.9577174e-19
2.8781934e-20
3.7018251e-21
4.1209768e-22
3.9217465e-23
3.1341671e-24
2.0602961e-25
1.0838277e-26
4.382569e-28
1.2775744e-29
2.3869493e-31
1.319366e-35
0.00035437791
0.00036434054
0.00035990171
0.00036720357
0.00038376077
0.00037440755
0.00034489496
0.00032545319
0.0003284451
0.00033873752
0.00032953398
0.00029276915
0.00024720663
0.0002060534
0.00034027708
0.00033983849
0.00032858985
0.0002746779
0.00020550515
0.00018912219
0.00022683518
0.00027679732
0.00030098446
0.00027927182
0.0002100796
0.00010125779
2.3954775e-05
2.3355941e-06
9.2039403e-08
1.4457107e-09
1.0467388e-11
5.4026882e-13
1.3707361e-13
3.7564249e-14
1.0549869e-14
2.9405901e-15
7.862694e-16
1.9618336e-16
4.4798463e-17
9.2435693e-18
1.7080352e-18
2.8040465e-19
4.0583285e-20
5.1355313e-21
5.6274063e-22
5.2741616e-23
4.1544342e-24
2.6958565e-25
1.4020757e-26
5.6134912e-28
1.6225411e-29
2.1016997e-33
4.7558547e-38
0.00033317856
0.00034480856
0.00035664952
0.00035752734
0.0003688626
0.0003818692
0.00036601822
0.00033067075
0.00030748195
0.00030864498
0.00031532454
0.00029949225
0.00025490116
0.0002019249
0.00015209921
0.00033962747
0.00033778365
0.00029379358
0.00022793408
0.00020949423
0.00024765869
0.0003014939
0.00033032489
0.00031927646
0.00026919096
0.00016944876
5.9098105e-05
9.4042497e-06
6.4695315e-07
1.8563438e-08
2.1794087e-10
2.4334044e-12
4.5098754e-13
1.4095561e-13
4.5153513e-14
1.4145605e-14
4.1931235e-15
1.1504204e-15
2.8802626e-16
6.518705e-17
1.3249685e-17
2.4053264e-18
3.876703e-19
5.5105761e-20
6.8556154e-21
7.3958599e-22
6.829371e-23
5.3082251e-24
3.4048646e-25
1.7533468e-26
6.9616164e-28
1.5936099e-31
8.5183431e-36
7.0775939e-41
0.00033849517
0.00032482891
0.0003333667
0.00034744482
0.00035455054
0.00036863807
0.00037752777
0.00035472314
0.00031342763
0.00028600132
0.0002844304
0.00028658269
0.00026291795
0.00020919281
0.00014823354
9.5777659e-05
0.00034651303
0.00031093072
0.00024900574
0.00022833743
0.00026574767
0.00032111538
0.0003530224
0.00034527918
0.00030506301
0.00022920059
0.00011010889
2.655348e-05
2.9942472e-06
1.4999446e-07
3.1915879e-09
3.1189935e-11
1.5227217e-12
5.136477e-13
1.8480816e-13
6.3957429e-14
2.0708228e-14
6.1744239e-15
1.6788266e-15
4.1349451e-16
9.1773127e-17
1.8276229e-17
3.2515847e-18
5.1408576e-19
7.178203e-20
8.7862449e-21
9.3413849e-22
8.5087197e-23
6.5361398e-24
4.1510406e-25
2.120135e-26
7.6454586e-30
7.3176922e-34
1.4151073e-38
4.2004367e-44
0.00035407766
0.00033592867
0.00031491118
0.00032049787
0.00033822258
0.00035016825
0.00036612633
0.00037016475
0.00034046386
0.00029249783
0.00026041947
0.00025532912
0.00025174885
0.00021789885
0.00015388309
9.3569848e-05
4.9393501e-05
0.00032723682
0.000268737
0.00024573247
0.00028148594
0.00033755162
0.00036987147
0.00036341516
0.00032891076
0.00027089916
0.00016490285
5.5966922e-05
9.6193598e-06
7.8965808e-07
2.9394429e-08
4.7681836e-10
7.3874086e-12
1.8093703e-12
7.1748552e-13
2.703342e-13
9.4502249e-14
3.0342629e-14
8.8917299e-15
2.3668664e-15
5.6999146e-16
1.237157e-16
2.4115963e-17
4.2051376e-18
6.5263089e-19
8.9610299e-20
1.0806015e-20
1.1336154e-21
1.0202751e-22
7.7595275e-24
4.8881997e-25
2.6072072e-28
3.9921423e-32
1.3826151e-36
8.9009198e-42
1.2190886e-47
0.00034223637
0.00035930791
0.0003316043
0.00030369719
0.00030637039
0.00032677371
0.00034382675
0.000360681
0.00035973389
0.00032237696
0.00026744244
0.00023056112
0.00022153909
0.00020885986
0.00016219289
9.7622124e-05
4.8130555e-05
1.9788574e-05
0.0002871264
0.00026173319
0.00029485307
0.00035097233
0.00038305538
0.0003750667
0.00034320123
0.00029875713
0.00021797864
9.3908104e-05
2.2783921e-05
2.8584073e-06
1.746638e-07
4.9242891e-09
7.1733995e-11
6.3272976e-12
2.6298467e-12
1.0661919e-12
3.9875476e-13
1.3683966e-13
4.2936765e-14
1.2277392e-14
3.188786e-15
7.4990147e-16
1.5915607e-16
3.038435e-17
5.1977227e-18
7.9285033e-19
1.0720706e-19
1.2757295e-20
1.3224514e-21
1.1782724e-22
8.8891357e-24
6.7366035e-27
1.5510552e-30
8.6592332e-35
9.6120597e-40
2.4751481e-45
2.3350605e-51
0.00030409155
0.00035494593
0.00036180917
0.00032557899
0.00029099847
0.00029043206
0.00031328201
0.00033473324
0.00035182838
0.00034535371
0.00029986713
0.00023770313
0.00019662774
0.000180757
0.00015596252
0.00010328509
5.0582769e-05
1.9081132e-05
5.8399458e-06
0.00027628307
0.00030580898
0.00036096988
0.0003927017
0.00038175716
0.00034967393
0.0003146431
0.00025729714
0.00014561891
4.2538767e-05
7.5515364e-06
7.0676969e-07
3.2796056e-08
7.3735249e-10
2.5696743e-11
9.1206887e-12
3.9291285e-12
1.5595974e-12
5.6830023e-13
1.8979296e-13
5.7968048e-14
1.6147808e-14
4.0907993e-15
9.397793e-16
1.951902e-16
3.6535897e-17
6.1399465e-18
9.2194839e-19
1.2297357e-19
1.4466082e-20
1.4842813e-21
1.3118099e-22
1.3734329e-25
4.570545e-29
3.8814818e-33
6.812273e-38
2.7327415e-43
4.1679163e-49
3.4783159e-55
0.00028945437
0.00031950989
0.00036462457
0.00036186517
0.00031764614
0.00027667762
0.00027258867
0.00029695812
0.00032216833
0.00033885456
0.00032627563
0.00027148714
0.00020258813
0.00015655357
0.0001322497
9.8988759e-05
5.4086975e-05
2.0146455e-05
5.519239e-06
1.2259322e-06
0.00031404382
0.00036701531
0.00039813913
0.00038371068
0.00034979149
0.00032144852
0.00028407747
0.00019472263
7.7848041e-05
1.5556929e-05
2.0675679e-06
1.4750182e-07
5.3641191e-09
1.4608186e-10
3.0498457e-11
1.3633061e-11
5.6870756e-12
2.1828881e-12
7.7143611e-13
2.5028486e-13
7.4374041e-14
2.0187121e-14
4.9912896e-15
1.1211825e-15
2.2815959e-16
4.1932478e-17
6.9339243e-18
1.0267257e-18
1.3534509e-19
1.5765807e-20
1.6044828e-21
2.2722072e-24
1.0630412e-27
1.3233499e-31
3.5021028e-36
2.0706408e-41
4.2754928e-47
5.3795662e-53
4.2132185e-59
0.00031977766
0.00030107968
0.00033313105
0.00037137993
0.00035945847
0.00030782481
0.0002604891
0.00025231945
0.00027731472
0.00030547567
0.000321187
0.0003014842
0.00023607122
0.00016037751
0.00011106879
8.1970355e-05
5.1470528e-05
2.1873888e-05
5.844829e-06
1.1257421e-06
1.8238395e-07
0.00036851494
0.00039815687
0.00038055172
0.00034422788
0.00032125459
0.00030013977
0.00023716791
0.00011979642
3.3912388e-05
4.6574963e-06
4.7582084e-07
2.6850986e-08
9.4706517e-10
1.0642348e-10
4.5198315e-11
1.9607597e-11
7.8407444e-12
2.8983952e-12
9.9303482e-13
3.130843e-13
9.0565571e-14
2.3970334e-14
5.7901349e-15
1.2732881e-15
2.5423635e-16
4.5952103e-17
7.490431e-18
1.0958985e-18
1.4306632e-19
1.65326e-20
3.11404e-23
2.0060043e-26
3.5670233e-30
1.3807966e-34
1.169106e-39
3.2026794e-45
4.7739451e-51
5.9138617e-57
4.1795552e-63
0.00036549569
0.00032296794
0.00031160451
0.00034474027
0.00037530258
0.00035463532
0.00029574259
0.00024213213
0.00022947947
0.00025404113
0.00028419505
0.00029811491
0.00026848082
0.00019024685
0.00011261251
6.6532576e-05
4.1135923e-05
2.0788616e-05
6.4629681e-06
1.1935645e-06
1.6100679e-07
1.9483261e-08
0.00039202772
0.00037166872
0.00033345328
0.00031548244
0.00030862378
0.00026954284
0.00016548202
6.0059843e-05
1.217232e-05
1.1773127e-06
1.0008348e-07
5.9670333e-09
5.5235774e-10
1.5770441e-10
6.5419503e-11
2.6864338e-11
1.0240723e-11
3.6416284e-12
1.2106168e-12
3.7121753e-13
1.0461902e-13
2.7028444e-14
6.3861286e-15
1.376789e-15
2.7016562e-16
4.8110582e-17
7.7460249e-18
1.1221904e-18
1.4540828e-19
3.5919271e-22
3.1337163e-25
7.8073651e-29
4.3290454e-33
5.1501993e-38
1.8667492e-43
3.2529915e-49
4.5205222e-55
5.6073592e-61
3.871529e-67
0.0003794775
0.00035810827
0.00032473411
0.00032128686
0.00035403118
0.00037629911
0.00034709888
0.00028107339
0.00022130745
0.00020398085
0.00022688806
0.0002575867
0.00026746939
0.00022168596
0.0001359654
6.643405e-05
3.1811644e-05
1.5977157e-05
6.1608365e-06
1.3451605e-06
1.7052601e-07
1.6431448e-08
1.526951e-09
0.00035705331
0.00031816374
0.00030546111
0.00031172322
0.00029429601
0.00021045623
9.3795814e-05
2.4850759e-05
3.7202114e-06
3.2231954e-07
4.2070324e-08
6.5186539e-09
1.1135248e-09
2.6123206e-10
9.0796478e-11
3.4537277e-11
1.2561824e-11
4.3225205e-12
1.3972083e-12
4.1706613e-13
1.1463199e-13
2.8942062e-14
6.6981328e-15
1.4179969e-15
2.7395289e-16
4.8160646e-17
7.6754385e-18
1.1036134e-18
3.531486e-21
4.1155352e-24
1.4149418e-27
1.1068108e-31
1.8268073e-36
8.7110122e-42
1.8314537e-47
2.6365155e-53
3.8819947e-59
5.131913e-65
3.5353738e-71
0.00033696782
0.0003611755
0.00034803082
0.00032583918
0.00032966758
0.00036061817
0.00037431138
0.00033651431
0.0002634477
0.00019782295
0.00017597383
0.00019557248
0.00022661884
0.00022375314
0.00016249249
8.1354282e-05
3.0848191e-05
1.1555489e-05
4.5613281e-06
1.288728e-06
1.9521558e-07
1.7092468e-08
1.2355706e-09
9.0037444e-11
0.00029936683
0.00029237058
0.00031126457
0.00031392037
0.00025231047
0.00013389142
4.3843553e-05
8.8499343e-06
1.2979182e-06
3.031157e-07
8.6387137e-08
1.8376843e-08
2.9398756e-09
4.4935356e-10
1.1675404e-10
4.1284417e-11
1.4466454e-11
4.854521e-12
1.5263751e-12
4.4396674e-13
1.1914227e-13
2.9436589e-14
6.6835252e-15
1.3918844e-15
2.6528267e-16
4.6139641e-17
7.2956621e-18
2.990447e-20
4.5997793e-23
2.1550028e-26
2.3506114e-30
5.3390658e-35
3.3258502e-40
8.6125481e-46
1.3303044e-51
1.944677e-57
3.3973814e-63
4.702274e-69
3.1586905e-75
0.00027794016
0.00031247097
0.00033970174
0.00033694534
0.00032620788
0.00033616471
0.00036407434
0.00036882263
0.00032267932
0.00024230391
0.00017181698
0.00014621342
0.00016462021
0.00018616977
0.00016607675
0.00010044928
3.8171028e-05
1.0643918e-05
3.0478572e-06
9.240566e-07
1.8759487e-07
1.9690626e-08
1.2393275e-09
7.0054658e-11
4.0429384e-12
0.00027722435
0.00030862226
0.00033037215
0.00029121598
0.000178334
6.9787463e-05
1.7910191e-05
3.8504227e-06
1.5171259e-06
7.6986229e-07
2.4728626e-07
5.4183641e-08
7.0744618e-09
6.6604301e-10
1.3571935e-10
4.5978109e-11
1.5699931e-11
5.1552986e-12
1.5782234e-12
4.4779037e-13
1.1748024e-13
2.8447675e-14
6.3478922e-15
1.3030804e-15
2.455463e-16
4.2351943e-17
2.2003693e-19
4.4188162e-22
2.7905009e-25
4.2048849e-29
1.3079662e-33
1.0586765e-38
3.3956934e-44
5.9449614e-50
8.3400034e-56
1.5442921e-61
3.0755163e-67
4.2404443e-73
2.7542072e-79
0.00026092634
0.00025439355
0.00028578348
0.00031695043
0.00032530738
0.0003252457
0.00033997438
0.00036380882
0.00035985392
0.00030458463
0.00021756669
0.00014322726
0.00011577948
0.00012795834
0.00013588481
0.00010420039
4.8903697e-05