/*--------------------------------*- C++ -*----------------------------------*\
| =========                 |                                                 |
| \\      /  F ield         | OpenFOAM: The Open Source CFD Toolbox           |
|  \\    /   O peration     | Version:  5.0                                   |
|   \\  /    A nd           | Web:      www.OpenFOAM.org                      |
|    \\/     M anipulation  |                                                 |
\*---------------------------------------------------------------------------*/
FoamFile
{
    version     2.0;
    format      ascii;
    class       volScalarField;
    location    "180";
    object      p;
}
// * * * * * * * * * * * * * * * * * * * * * * * * * * * * * * * * * * * * * //

dimensions      [0 2 -2 0 0 0 0];

internalField   nonuniform List<scalar> 
9520
(
7.5340929e-05
7.5517189e-05
9.1248659e-05
7.5543023e-05
9.2554797e-05
0.00014585038
7.5100447e-05
9.4664339e-05
0.00014848611
0.00018238761
7.3963917e-05
9.692584e-05
0.00015274194
0.00018689748
0.00022431063
7.1953154e-05
9.8713381e-05
0.00015735701
0.00019430992
0.00023107545
0.00025643603
6.8969373e-05
9.9353136e-05
0.00016116071
0.00020271342
0.00024232597
0.00026629537
0.00028620219
6.485037e-05
9.8456064e-05
0.00016306526
0.00021039066
0.00025551547
0.00028291438
0.0002993152
0.00030749723
5.9649491e-05
9.5747751e-05
0.00016227176
0.00021579193
0.00026823771
0.00030309326
0.00032194848
0.00032420764
0.00032076379
5.4079117e-05
9.141732e-05
0.00015833631
0.00021754933
0.00027823105
0.00032364354
0.00035037725
0.00035358269
0.00034178263
0.00032393893
4.9156014e-05
8.5826553e-05
0.00015140036
0.00021468787
0.0002834056
0.00034155692
0.00038100109
0.00039143377
0.00037912146
0.00034946798
0.00031646246
4.5600412e-05
7.9617088e-05
0.00014144851
0.00020675715
0.00028192502
0.00035427193
0.00041008803
0.00043388189
0.00042810091
0.00039529779
0.00034657741
0.00029727362
4.7032803e-05
7.7213796e-05
0.0001296211
0.00019377423
0.00027232892
0.0003592069
0.00043462728
0.00047712782
0.00048439615
0.00045638958
0.00040111394
0.00033188554
0.00026594647
5.5491321e-05
8.282249e-05
0.00011799901
0.00017707556
0.00025345556
0.00035346097
0.00045171974
0.00051734552
0.000543887
0.00052811156
0.00047478235
0.00039502016
0.00030479553
0.00022243426
7.2318674e-05
8.97983e-05
0.00010918332
0.00015264663
0.00022196349
0.00033376895
0.00045862224
0.00055125682
0.00060255581
0.00060594357
0.00056280056
0.00048120321
0.00037610633
0.00026508315
0.00016678485
9.0030571e-05
0.00010428002
0.00010272653
0.00011537327
0.00017278339
0.00029684028
0.00045224745
0.00057628138
0.000656938
0.00068601093
0.00066062357
0.00058562167
0.00047433734
0.00034386496
0.0002126174
9.944705e-05
0.00012493292
0.00012922146
0.00011106632
6.7296289e-05
0.00011310517
0.00024161071
0.00043089667
0.00059150027
0.00070454495
0.00076463251
0.00076401788
0.00070364472
0.0005948908
0.00045357087
0.00029786063
0.00014767118
2.1156208e-05
0.00014206168
0.00015454204
0.00013587694
1.6465355e-05
4.3951831e-05
0.00016577456
0.00039517202
0.00059740046
0.00074410631
0.00083869388
0.00086888352
0.00083080322
0.00073329436
0.0005897732
0.00041772493
0.00023793752
7.0867006e-05
-6.7116196e-05
0.00019721323
0.00020027455
0.00017861601
-3.6670698e-05
-4.8449377e-05
6.3440101e-05
0.00034190413
0.00059420648
0.00077534662
0.00090538859
0.00097139278
0.00096253772
0.00088489798
0.0007482478
0.00056855519
0.00036602014
0.00016450179
-1.6911472e-05
-0.00016422311
0.00022030709
0.00025122151
0.0002684175
-6.6747584e-05
-0.00016755175
-6.9143576e-05
0.0002671723
0.00058374917
0.00079829133
0.00096359528
0.0010679788
0.0010942434
0.0010449431
0.00092455118
0.00074599064
0.00052872854
0.00029847974
7.8327943e-05
-0.00011458696
-0.00026891114
0.00028073377
0.00033277432
0.00036704559
-8.9365301e-05
-0.00031762453
-0.00024340529
0.00017112311
0.00057154995
0.00081934735
0.0010130912
0.0011550019
0.001221114
0.0012084578
0.0011141166
0.0009462226
0.00072274222
0.00047030991
0.00021589413
-1.9668407e-05
-0.00022093897
-0.00037984657
0.00032953688
0.00039143529
0.00056429895
-8.8940062e-05
-0.00051504554
-0.00047222023
4.4131043e-05
0.00055435207
0.00084144295
0.0010547583
0.0012285676
0.0013374452
0.0013701691
0.0013121454
0.0011651083
0.00094482053
0.00067801719
0.00039442157
0.00011883322
-0.00012839374
-0.00033466399
-0.00049559517
0.00038905591
0.00048146239
0.00075677256
-6.1273109e-05
-0.00074852169
-0.00077101939
-0.0001182274
0.00053675483
0.0008817166
0.0010672333
0.0012829775
0.0014373038
0.0015242957
0.0015136557
0.00139823
0.0011911247
0.00091876038
0.00061252864
0.00030084925
8.1814045e-06
-0.00024661852
-0.00045434644
-0.00061468075
0.00047090698
0.00052900909
0.0011176134
5.752693e-06
-0.0010586641
-0.0011369071
-0.00032362743
0.00051998118
0.00094197171
0.0010721311
0.0013126476
0.0015126989
0.0016650936
0.0017135527
0.0016411007
0.0014575776
0.0011892658
0.00086863735
0.00052617674
0.00019009462
-0.00011491906
-0.00037292574
-0.00057844631
-0.00073567916
0.0005417933
0.0007164648
0.0014347351
8.3164201e-05
-0.0014145086
-0.0016159976
-0.000584907
0.00050867931
0.001038232
0.0010992402
0.0013078973
0.0015708907
0.0017867167
0.0019072133
0.0018895138
0.0017400163
0.0014859096
0.0011603404
0.00079425183
0.00041852236
6.318238e-05
-0.0002491032
-0.00050574487
-0.00070544457
-0.00085720356
0.00061607437
0.00083895049
0.0018647042
0.00024468263
-0.0019161095
-0.0021517538
-0.00090358788
0.00052768585
0.0011921287
0.0011662283
0.0012643261
0.0015933952
0.0018848941
0.0020906709
0.0021401589
0.0020351198
0.001805106
0.0014844111
0.0011034121
0.0006941268
0.00029032442
-7.8644017e-05
-0.00039290646
-0.00064351481
-0.00083391964
-0.00097790414
0.00069470912
0.000958063
0.0022636627
0.00043099881
-0.0024795322
-0.0028557865
-0.0013143797
0.00058686938
0.0014263357
0.0012668103
0.0011921782
0.0015549725
0.001948948
0.0022603903
0.0023924358
0.0023414515
0.0021440306
0.0018370546
0.0014508112
0.0010162454
0.00056865998
0.00014263131
-0.00023404407
-0.00054466214
-0.00078455725
-0.00096245366
-0.0010965371
0.00078966856
0.0011794946
0.0030295297
0.00064624118
-0.0033242575
-0.0036337922
-0.0018119589
0.00069644933
0.0017569811
0.0014170854
0.0010837087
0.0014455547
0.0019626998
0.00240965
0.0026474642
0.0026597973
0.0025000143
0.002213924
0.0018323349
0.0013827279
0.00089883661
0.00041855394
-2.3321456e-05
-0.00040120746
-0.00070214127
-0.00092722208
-0.0010897128
-0.0012119586
0.00080776419
0.0016953291
0.0035286095
0.00078715294
-0.0042033493
-0.004517192
-0.0024742678
0.00086637395
0.0022056552
0.0015993369
0.00094720039
0.0012369136
0.0019087421
0.00252751
0.0029050657
0.0029908776
0.002871596
0.0026105775
0.0022426174
0.0017894871
0.0012796642
0.00075137788
0.00024479932
-0.00020574722
-0.00057788937
-0.00086370167
-0.0010700105
-0.0012143756
-0.0013231519
0.00085466576
0.0022341853
0.0037256541
0.0010540357
-0.0053237846
-0.0052907248
-0.0033238683
0.0011310776
0.0027878024
0.0018906816
0.00075733223
0.00091665304
0.0017607908
0.002609848
0.0031625898
0.0033396287
0.0032584114
0.0030232429
0.0026751576
0.0022307277
0.0017077066
0.0011413082
0.0005744534
4.8915822e-05
-0.0004027204
-0.00076265054
-0.001028188
-0.001211719
-0.0013353389
-0.0014292699
0.00084561817
0.0026945147
0.0038951804
0.0012400575
-0.0063659314
-0.0064459517
-0.0043417795
0.0015382387
0.0034839332
0.0022736014
0.00051634942
0.00042937236
0.0014965359
0.0026414426
0.0034278818
0.0037107542
0.0036644788
0.003447902
0.0031218349
0.0026991118
0.0021785817
0.0015870856
0.00096797362
0.00036894367
-0.00016771478
-0.00061269688
-0.00095346826
-0.0011937902
-0.0013509543
-0.0014516885
-0.0015295413
0.00080210749
0.0031055761
0.003560929
0.0010251923
-0.0077619605
-0.0079938916
-0.0057755427
0.0020163483
0.0042784574
0.0027878722
0.00019478678
-0.00024013435
0.0010776815
0.002605125
0.0036998038
0.004116379
0.0040940992
0.0038881582
0.003576188
0.003189292
0.0026868726
0.002085526
0.0014255125
0.00075864407
0.00013558066
-0.0004029855
-0.00083310007
-0.0011477644
-0.0013585669
-0.0014863394
-0.001562473
-0.0016231762
0.00070863895
0.0033940716
0.0036054632
0.0005493053
-0.0090191485
-0.0093638663
-0.0074290889
0.0025341795
0.0050777047
0.0034230643
-0.0002159492
-0.0011829132
0.00048095367
0.0024760658
0.0039866665
0.0045669588
0.004559912
0.0043390359
0.004036903
0.0036924923
0.0032233445
0.0026294009
0.0019442816
0.0012197988
0.00051343886
-0.00012307798
-0.00065382169
-0.0010608419
-0.0013441302
-0.0015207214
-0.001616589
-0.001666626
-0.0017096593
0.00056970938
0.0035573348
0.0035018455
0.00014025136
-0.010055966
-0.010217772
-0.0086490839
0.0032110591
0.0062285301
0.0041953005
-0.00079476503
-0.0024281049
-0.00034118391
0.0022154906
0.0042840395
0.0050866027
0.0050696636
0.0048094162
0.0044903093
0.0041663981
0.0037733145
0.0032069629
0.0025172745
0.0017513737
0.00096984048
0.00023495752
-0.00040417782
-0.00091718026
-0.0012937909
-0.0015404839
-0.0016790508
-0.0017408063
-0.0017635308
-0.001788973
0.00039124538
0.0035085622
0.0032646731
-0.00017538208
-0.011067264
-0.010864604
-0.0093187833
0.0039377552
0.0073755976
0.0050012021
-0.0015267945
-0.00413269
-0.0014045039
0.0017799734
0.0045904115
0.005689993
0.0056463888
0.005300039
0.004937024
0.0046186056
0.0043069338
0.0038020411
0.0031354709
0.0023488066
0.0015055871
0.00067739311
-7.4175353e-05
-0.00070551209
-0.0011912911
-0.0015306659
-0.0017343941
-0.0018328332
-0.0018587145
-0.0018535805
-0.0018609155
0.00018793279
0.0032211244
0.002899475
-0.00037829027
-0.011797458
-0.011706376
-0.0098731285
0.004055669
0.0081123558
0.0058933277
-0.0025294404
-0.006287433
-0.0027228875
0.0010859867
0.0048854532
0.0064041458
0.0062936313
0.0058283053
0.0053637818
0.0050436456
0.0048102944
0.0044118465
0.0037869146
0.0030065019
0.0021195628
0.0012075819
0.00034437152
-0.00041172133
-0.001023121
-0.0014733039
-0.0017681763
-0.0019253328
-0.0019807449
-0.0019691018
-0.0019361395
-0.0019252704
-2.2398859e-05
0.0026530373
0.0023945631
-0.00046252851
-0.012566769
-0.012535728
-0.010662802
0.0042636255
0.0080652151
0.0066009035
-0.0035260914
-0.0091881183
-0.0042481192
4.2710497e-05
0.0051455716
0.0072505776
0.007026141
0.0063882386
0.0057748656
0.0054096025
0.0052574389
0.0050048323
0.0044704384
0.0037156193
0.0028083626
0.0018271787
0.00085883147
-2.5889124e-05
-0.00077352303
-0.0013544362
-0.0017604969
-0.0020036657
-0.0021115631
-0.0021201998
-0.0020712305
-0.0020108024
-0.0019820072
-0.00022403195
0.0018015407
0.0017535271
-0.00056207009
-0.013310623
-0.013169993
-0.011577196
0.0038611633
0.0085148335
0.0071429887
-0.0050591638
-0.012760344
-0.0059923314
-0.0015028902
0.0053685228
0.0082268132
0.0078299413
0.0070032713
0.006148341
0.0057001122
0.0056184992
0.0055548174
0.0051628793
0.0044757838
0.003568262
0.0025343351
0.001471824
0.00046141287
-0.00042995011
-0.0011564129
-0.0016963902
-0.0020493094
-0.0022363706
-0.0022907317
-0.0022511258
-0.0021652058
-0.0020774154
-0.0020311552
-0.00041086695
0.00075638645
0.00099910216
-0.00081713298
-0.013734241
-0.013689801
-0.012468225
0.00294912
0.0085066402
0.0068067453
-0.0066033677
-0.017054898
-0.0082887385
-0.0035825197
0.0054148196
0.0093323343
0.0086829293
0.0076522188
0.0064964483
0.0058770233
0.0058658081
0.0060320098
0.0058449655
0.0052711803
0.0043956613
0.0033303718
0.0021850781
0.0010554994
1.8983106e-05
-0.00086430533
-0.0015570525
-0.0020449145
-0.0023376133
-0.0024637614
-0.0024607231
-0.0023734423
-0.0022506059
-0.0021359816
-0.0020728457
-0.00059337761
-0.00038212384
9.0484099e-05
-0.0012406654
-0.01365834
-0.013932489
-0.013189913
0.001803653
0.0080204008
0.0060210986
-0.0090948687
-0.021201724
-0.012219315
-0.0066501565
0.0050745473
0.010446232
0.0097481974
0.0083473524
0.0067741762
0.0059136711
0.0059950686
0.0064095338
0.0064943749
0.0060890266
0.0052854669
0.004209822
0.0029981573
0.0017602501
0.00058155498
-0.0004646559
-0.0013253835
-0.0019707918
-0.0023968236
-0.0026226186
-0.0026830097
-0.0026211405
-0.0024865841
-0.0023272918
-0.0021866117
-0.0021072887
-0.0015667084
-0.00077863165
-0.00098627718
-0.0018154014
-0.013019484
-0.013884113
-0.013607764
0.0002449929
0.0066899961
0.0057417239
-0.011324024
-0.025606857
-0.017372854
-0.010853446
0.0041528094
0.011664043
0.010529425
0.0090412687
0.0069952148
0.0057359404
0.0058850084
0.0066383782
0.0070862838
0.0069161187
0.0062307951
0.0051681472
0.0039118437
0.0025754489
0.001262391
5.3077946e-05
-0.00098574883
-0.0018079511
-0.0023934308
-0.002748698
-0.0029011393
-0.0028925259
-0.0027717443
-0.0025902765
-0.0023953084
-0.0022295126
-0.0021347393
-0.0021109019
-0.0027190997
-0.00098430138
-0.0024925844
-0.011923571
-0.013445753
-0.013623625
-0.0017328541
0.0047172247
0.0050122475
-0.012426021
-0.029841343
-0.022103746
-0.015039108
0.0028793399
0.013007756
0.011153891
0.0096840803
0.0070796303
0.0053293578
0.0054584346
0.0066690938
0.0075851148
0.007744085
0.0072225608
0.0062073987
0.0049175448
0.0035002591
0.0020641372
0.00069647538
-0.00052482939
-0.0015384904
-0.0023067619
-0.0028208621
-0.0030966831
-0.0031706449
-0.0030914291
-0.0029119397
-0.0026842375
-0.0024546884
-0.0022648731
-0.0021554903
-0.0032307831
-0.0032305245
-0.0037936221
-0.0011911656
-0.010458544
-0.012511178
-0.013273805
-0.004061477
0.0020000251
0.0035736831
-0.013372729
-0.034367725
-0.02781902
-0.0185171
0.0015593237
0.014301771
0.011324329
0.010165733
0.0070366844
0.0045665402
0.0046853467
0.0063975797
0.0079471143
0.008548013
0.008261312
0.0073250957
0.006013516
0.0045324623
0.0029831287
0.0014683905
6.7060003e-05
-0.0011464128
-0.002116778
-0.0028171308
-0.0032484768
-0.0034374231
-0.0034293241
-0.0032788276
-0.0030412258
-0.0027683752
-0.0025055324
-0.0022929912
-0.0021698879
-0.0087058688
-0.0040210428
-0.004277096
-0.0047363138
-0.0013921229
-0.011143914
-0.01258808
-0.0065845429
-0.0014457964
0.001596026
-0.014781122
-0.03857859
-0.035160058
-0.022149428
0.00043728598
0.014430535
0.011181195
0.010424484
0.0067120227
0.0034404992
0.003348058
0.0057694777
0.0081128882
0.0093161876
0.0093358997
0.0085206484
0.0071996062
0.0056617332
0.0040160796
0.0023677695
0.00079528303
-0.00061895497
-0.001804876
-0.0027154149
-0.0033337085
-0.0036720076
-0.0037681826
-0.003675844
-0.0034539966
-0.0031592246
-0.0028426634
-0.0025481746
-0.0023142379
-0.0021782905
-0.0094517652
-0.0067084831
-0.0046973586
-0.0051722947
-0.0055518392
-0.0015884227
-0.011371762
-0.0093058706
-0.0055288241
-0.0010102812
-0.016317817
-0.042735142
-0.041152293
-0.026395641
-0.002962427
0.014212637
0.010295389
0.010122216
0.006181124
0.001736381
0.0014137212
0.0045830829
0.0080181882
0.010010094
0.010459943
0.0097893063
0.0084764075
0.0068784582
0.0051546726
0.0033864036
0.0016591632
5.1944846e-05
-0.0013548834
-0.0024943554
-0.0033285457
-0.0038511882
-0.0040876981
-0.0040867814
-0.003909013
-0.0036162709
-0.0032657305
-0.0029073106
-0.0025829217
-0.0023289589
-0.0021810709
-0.0093912713
-0.0075172456
-0.004608022
-0.0052446871
-0.0058345218
-0.0061480985
-0.0017614911
-0.012109226
-0.010077799
-0.0042734259
-0.017884176
-0.046133117
-0.0463776
-0.030965677
-0.0073250835
0.011266033
0.0095647383
0.0092088533
0.005073749
-0.00051734764
-0.0014888253
0.0027447942
0.0075833462
0.010594008
0.011609967
0.011135809
0.0098318256
0.0081819954
0.0063807901
0.0045135706
0.0026517758
0.00086771868
-0.00075513109
-0.0021346353
-0.0032088256
-0.0039498942
-0.0043647392
-0.0044923337
-0.0043913241
-0.0041276176
-0.0037651116
-0.0033608367
-0.0029627273
-0.0026101514
-0.0023375401
-0.0021785685
-0.014893519
-0.0070550277
-0.0054743294
-0.0024588955
-0.0056097119
-0.0062923617
-0.0064312134
-0.0018927041
-0.014909294
-0.0079776199
-0.019474754
-0.048369724
-0.050610088
-0.035869599
-0.012223686
0.0071821104
0.0075427582
0.0071813493
0.0037249446
-0.003796337
-0.0053327456
-3.6350293e-05
0.0066747156
0.010968872
0.012779599
0.012537911
0.011269322
0.0095505083
0.0076835709
0.0057297268
0.0037581467
0.001822793
-2.8641518e-07
-0.0016198871
-0.0029517336
-0.0039416188
-0.0045735143
-0.0048699814
-0.0048830925
-0.0046799661
-0.0043307076
-0.0039004543
-0.0034449314
-0.0030091641
-0.0026301354
-0.0023401835
-0.0021711628
-0.019651675
-0.017396156
-0.0049820541
-0.0033180059
-0.00042949077
-0.0057675002
-0.0065881922
-0.0064513159
-0.0019832337
-0.012068344
-0.020914826
-0.049194907
-0.053772392
-0.040266558
-0.017501978
0.0012972897
0.0050835788
0.0042767493
0.0013341432
-0.0075464739
-0.010713491
-0.0037261139
0.0051566373
0.011026014
0.013896085
0.013994212
0.012748108
0.010987579
0.0090338161
0.0070130085
0.0049565954
0.0029024216
0.00090686903
-0.00093991035
-0.0025365935
-0.0037996333
-0.0046857625
-0.005193822
-0.0053629272
-0.0052572712
-0.0049510955
-0.004517922
-0.0040226305
-0.0035181331
-0.0030464945
-0.0026428036
-0.0023372842
-0.0021594259
-0.016483279
-0.023720255
-0.019176736
-0.0032574046
-0.0012903049
0.0013494349
-0.005712823
-0.0067382883
-0.0062318935
-0.0020197834
-0.022065962
-0.048480303
-0.055391748
-0.043787545
-0.022870205
-0.0055543508
0.00010654555
0.0018990341
-0.00077563183
-0.012942206
-0.017062854
-0.0088187903
0.0027300169
0.01056461
0.014882665
0.015461254
0.014255425
0.012433065
0.010419699
0.0083279718
0.006218354
0.0040829155
0.0019544042
-9.2116302e-05
-0.0019466979
-0.0034991314
-0.0046714664
-0.0054345
-0.0058055181
-0.005839732
-0.0056123875
-0.0052038795
-0.0046894545
-0.0041315531
-0.0035797869
-0.0030745121
-0.002648886
-0.0023298978
-0.002143868
-0.022474361
-0.02078494
-0.026906674
-0.02029703
-0.0016708024
0.00046362438
0.0027260013
-0.0054489364
-0.0067545767
-0.0058114619
-0.0020047831
-0.046065634
-0.055232318
-0.045796936
-0.027999731
-0.013308655
-0.0067290784
-0.0020083791
-0.0020827577
-0.017673941
-0.025955092
-0.0154293
-0.00070101419
0.0092661316
0.015631122
0.016835056
0.01574
0.013869975
0.011775091
0.0096512557
0.0075016878
0.005331626
0.0031197778
0.00091654029
-0.001172566
-0.0030165023
-0.0045006915
-0.0055595517
-0.006181215
-0.0064033346
-0.0062967912
-0.0059468439
-0.0054382797
-0.0048449639
-0.0042259265
-0.0036294042
-0.0030945563
-0.002650362
-0.0023189586
-0.0021242562
-0.04208392
-0.022291936
-0.02411513
-0.029141441
-0.020913529
-0.00020295524
0.0019627545
0.0035863896
-0.0050738548
-0.0066663048
-0.0053125254
-0.0019652913
-0.05311222
-0.046021022
-0.032562499
-0.021664347
-0.015741641
-0.008512093
-0.0039564168
-0.02153638
-0.035530557
-0.024822266
-0.0058903284
0.0069388073
0.015883153
0.018080215
0.017065505
0.015214328
0.013088303
0.010910413
0.0087727488
0.0066021158
0.0043692041
0.0020683234
-0.00021342024
-0.0023339333
-0.0041443903
-0.0055339811
-0.0064559603
-0.006919064
-0.0069821889
-0.0067315104
-0.0062600999
-0.0056535748
-0.0049823265
-0.0043047815
-0.0036693403
-0.0031101646
-0.0026485903
-0.0023030688
-0.0020988686
-0.049164762
-0.036597707
-0.021456679
-0.026304547
-0.030361903
-0.021102442
0.000962047
0.0032092517
0.0040359688
-0.0047768006
-0.0065247805
-0.0046573254
-0.0018596891
-0.044236059
-0.036214397
-0.030578639
-0.026432539
-0.017434827
-0.0071415859
-0.025074626
-0.046961872
-0.036558539
-0.013951756
0.0027733479
0.01529172
0.018948704
0.018237914
0.016352944
0.014245855
0.012090993
0.0099528929
0.007850782
0.0056550318
0.0033323445
0.00092108985
-0.0014408075
-0.0035751461
-0.0053235739
-0.0065915348
-0.0073524002
-0.0076411449
-0.0075381111
-0.0071426021
-0.0065509381
-0.0058465665
-0.0050999171
-0.0043717135
-0.0037052155
-0.0031227151
-0.0026395434
-0.0022779018
-0.0020683139
-0.04021657
-0.043194138
-0.030332479
-0.019867999
-0.02732285
-0.030639367
-0.020805751
0.0017774856
0.0041855226
0.0042587576
-0.004651087
-0.0062018636
-0.003996523
-0.001784882
-0.038508333
-0.04012437
-0.038354564
-0.027876285
-0.011344016
-0.029764447
-0.056318414
-0.056479185
-0.023349487
-0.0034910857
0.013383789
0.019150369
0.018793554
0.01727028
0.01518936
0.013068651
0.011021709
0.0089922199
0.0069254392
0.0046641519
0.0022076858
-0.00033563252
-0.0027713026
-0.0048921007
-0.0065469631
-0.0076634698
-0.0082397845
-0.0083416928
-0.0080687675
-0.0075279872
-0.0068150235
-0.0060147157
-0.0052026948
-0.0044351262
-0.0037381506
-0.0031238247
-0.0026144972
-0.0022474788
-0.0020329689
-0.038710293
-0.034316877
-0.035401013
-0.023545445
-0.017977666
-0.027268815
-0.030016623
-0.01997746
0.0022945289
0.0049064476
0.004453889
-0.0046700044
-0.0059962096
-0.0032515078
-0.0016332852
-0.049717184
-0.051030876
-0.038845165
-0.017389882
-0.035402864
-0.066296265
-0.071848192
-0.040065695
-0.013992533
0.011520459
0.018428606
0.018856694
0.01751912
0.015819749
0.013821157
0.01184302
0.0099969351
0.0080904886
0.0060077242
0.0036101374
0.00097053662
-0.0017178668
-0.0042057384
-0.0062792534
-0.0078064279
-0.0087377399
-0.009110065
-0.0090168529
-0.0085710225
-0.007881763
-0.0070484662
-0.0061643514
-0.0053025392
-0.0044959122
-0.0037534325
-0.003098976
-0.002583671
-0.0022120096
-0.0019928393
-0.058130803
-0.037244502
-0.027484884
-0.02674702
-0.016627492
-0.015874749
-0.026206347
-0.028481921
-0.018723627
0.0025760214
0.0052674891
0.0043891002
-0.0047860513
-0.0056450819
-0.002599667
-0.0014722425
-0.063628405
-0.050486446
-0.025718336
-0.041770009
-0.076183007
-0.089147528
-0.061513374
-0.027476568
0.0045548429
0.018419915
0.017705242
0.017312642
0.015898245
0.014204775
0.012416076
0.010709995
0.0091068464
0.0072740722
0.0050751635
0.0024544563
-0.00041055225
-0.0032353513
-0.0057440498
-0.0077330439
-0.0090877768
-0.0098035568
-0.009957369
-0.0096621045
-0.009036935
-0.008198256
-0.0072587417
-0.0063116602
-0.0054001765
-0.0045304948
-0.0037291228
-0.0030672987
-0.0025474088
-0.0021714722
-0.0019478138
-0.075272441
-0.064724042
-0.034854316
-0.020404375
-0.018368533
-0.009984202
-0.013497511
-0.024415121
-0.026160512
-0.017467986
0.0026513536
0.0055501864
0.0040871419
-0.0047141184
-0.005142916
-0.0022925092
-0.0012665297
-0.062581509
-0.034886318
-0.04857095
-0.085722873
-0.10551133
-0.084600428
-0.041757531
-0.0038177686
0.013734523
0.016517092
0.015882916
0.015486818
0.014127061
0.012555153
0.011142945
0.0097988965
0.0084037011
0.0065223267
0.004073469
0.0011456234
-0.0019652665
-0.0048980344
-0.0073930692
-0.0092361324
-0.010374519
-0.010852683
-0.010775289
-0.010267179
-0.0094579697
-0.0084865686
-0.007467206
-0.0064570341
-0.0054606687
-0.0045075398
-0.0036962954
-0.0030296543
-0.0025057835
-0.0021257852
-0.0018978402
-0.073867305
-0.084596698
-0.068528346
-0.031695405
-0.01392946
-0.010794248
-0.0039427176
-0.010882606
-0.022142385
-0.0240921
-0.016040058
0.0028330845
0.0057698335
0.0036251689
-0.0043020241
-0.0042930652
-0.0019071789
-0.001053555
-0.043834044
-0.055263889
-0.093885315
-0.12003066
-0.10614902
-0.058097869
-0.015530809
0.0079648095
0.012461531
0.013719177
0.014067645
0.013511494
0.012274514
0.011057017
0.010179547
0.0092074266
0.0078804171
0.0057644049
0.00292458
-0.00037207217
-0.0037087373
-0.0067247254
-0.0091219081
-0.0107657
-0.011655706
-0.011876381
-0.011550698
-0.01082016
-0.0098436835
-0.0087742004
-0.0076740879
-0.0065517075
-0.0054408332
-0.0044734
-0.0036568453
-0.0029863353
-0.002458832
-0.0020749651
-0.0018429374
-0.052093255
-0.082589097
-0.090117989
-0.069556579
-0.028163865
-0.0081834759
-0.0043880595
0.0012644155
-0.0082173361
-0.019697268
-0.021161745
-0.013992486
0.0033737739
0.0057924509
0.0028380191
-0.0036649708
-0.0035500754
-0.0016344663
-0.00095227879
-0.061035686
-0.099377314
-0.13078315
-0.12426826
-0.076409894
-0.02960176
-0.0018937175
0.0088287395
0.0095996102
0.011953038
0.012141193
0.011307947
0.010515449
0.0099359173
0.0096837919
0.0089628265
0.0074553988
0.004887381
0.0015378302
-0.0021362402
-0.0056470257
-0.0086758357
-0.010908566
-0.012308777
-0.012920923
-0.012858119
-0.012267319
-0.01133092
-0.010229103
-0.0090598339
-0.0078141905
-0.0065379072
-0.0054054537
-0.004431847
-0.0036113663
-0.002937434
-0.0024064832
-0.0020189533
-0.001783007
-0.063529786
-0.059582333
-0.087109047
-0.091819276
-0.067987348
-0.02450275
-0.0033653334
0.00061183654
0.0054982179
-0.0056847988
-0.017139929
-0.018275394
-0.012014641
0.0034247804
0.0047675855
0.0021993867
-0.0029713762
-0.0030772956
-0.0013569455
-0.00074861132
-0.10072244
-0.13603974
-0.13783574
-0.094269778
-0.045927507
-0.013504132
0.00094063262
0.0060843159
0.0080375982
0.010106292
0.0097692391
0.0090739085
0.0091559685
0.0094446905
0.0097443168
0.0089818548
0.0069742145
0.0037526045
-0.00016153503
-0.0041566698
-0.0078065546
-0.010725363
-0.012741391
-0.013852911
-0.014149774
-0.013776005
-0.012934156
-0.011843079
-0.010617823
-0.0092595855
-0.0078102414
-0.0065021453
-0.005361739
-0.0043838299
-0.0035599906
-0.0028828081
-0.002348717
-0.0019576614
-0.0017181737
-0.097383055
-0.062991537
-0.06379117
-0.087198279
-0.089671107
-0.064339625
-0.020930996
0.00055779456
0.0041988177
0.0088001567
-0.0033452051
-0.015055287
-0.017084541
-0.010111273
0.0028758199
0.0041131321
0.0016447202
-0.0023408182
-0.0023201753
-0.0012090381
-0.00061273199
-0.13450393
-0.14511954
-0.10792136
-0.062738609
-0.027749691
-0.010471921
-0.00220878
0.0038700351
0.0068982228
0.0072695693
0.0071820071
0.007298901
0.0086039428
0.0097930166
0.010299667
0.0090591627
0.006233856
0.0022350312
-0.0022025878
-0.0064704009
-0.010150168
-0.012876837
-0.014604311
-0.015374128
-0.015312931
-0.014636286
-0.013604362
-0.012359466
-0.010897282
-0.0092708805
-0.0077753687
-0.0064565323
-0.0053110943
-0.004329584
-0.0035025258
-0.0028225593
-0.0022855349
-0.0018914178
-0.0016482825
-0.12616294
-0.088983206
-0.059634117
-0.064378529
-0.082665407
-0.084427067
-0.058993177
-0.017578992
0.0036898892
0.0062766118
0.011042452
-0.0016655191
-0.012812448
-0.014821514
-0.0077941759
0.0023493974
0.0032746759
0.0011571308
-0.0018526178
-0.0019633161
-0.00093455002
-0.0004685776
-0.1446689
-0.11615212
-0.077867464
-0.043656203
-0.025938065
-0.011569282
-0.0035019353
0.0034685559
0.00431533
0.0038169823
0.0049592725
0.006488274
0.0092211465
0.010976321
0.011111454
0.0089093975
0.0050333903
0.0002669368
-0.0046178406
-0.0090798759
-0.012637062
-0.015099651
-0.016467399
-0.016833133
-0.01641115
-0.015502725
-0.014284101
-0.012739686
-0.010932685
-0.0092386084
-0.0077289006
-0.0064034636
-0.0052536988
-0.0042688263
-0.0034391986
-0.002756731
-0.0022172714
-0.0018198538
-0.0015734701
-0.13616403
-0.11150067
-0.077415778
-0.052998253
-0.06224917
-0.074938254
-0.076879619
-0.052508174
-0.014658334
0.0059166385
0.0069702498
0.012606351
-0.0011087723
-0.0099518305
-0.0096170542
-0.0057972787
0.0018465428
0.0028864908
0.00077951467
-0.001336265
-0.0013861433
-0.00077678805
-0.00037453053
-0.11912978
-0.088310746
-0.059894001
-0.043980082
-0.025815124
-0.014508339
-0.0028209737
0.0014851048
0.00050576044
0.00053674178
0.0036567775
0.0071906015
0.011093053
0.012729668
0.011716231
0.0082035349
0.0032549104
-0.0021884387
-0.0074421938
-0.011923012
-0.015256106
-0.01735693
-0.018279394
-0.018221675
-0.017519824
-0.016388029
-0.014798159
-0.012810756
-0.010906244
-0.0091932889
-0.0076739376
-0.0063429686
-0.0051892938
-0.0042018004
-0.0033700879
-0.0026856927
-0.002143492
-0.0017431491
-0.0014937224
-0.11475719
-0.12036658
-0.093528214
-0.063571003
-0.044802969
-0.057259475
-0.065677304
-0.067994537
-0.045560225
-0.012596491
0.0074021468
0.0082501831
0.012713893
-0.000357258
-0.0068347883
-0.0075525367
-0.0040147398
0.001510492
0.0024378027
0.00059983729
-0.00097245477
-0.0011267149
-0.00056636811
-0.00027020432
-0.09031536
-0.074399515
-0.063832182
-0.04556018
-0.029573995
-0.013102571
-0.0029871102
-0.0032398694
-0.0033332809
-0.0018254443
0.0041824435
0.0097788654
0.013915925
0.014421233
0.011687416
0.0067602853
0.00082059208
-0.0051857174
-0.010636959
-0.014966922
-0.017959918
-0.019583296
-0.020018885
-0.019627448
-0.018662913
-0.017075907
-0.014920875
-0.012794622
-0.010865649
-0.0091376866
-0.0076107244
-0.0062746966
-0.0051180664
-0.0041288195
-0.003295632
-0.0026088861
-0.0020640657
-0.0016614252
-0.0014092272
-0.084933329
-0.10265167
-0.1004191
-0.074153903
-0.048832556
-0.035700833
-0.049299306
-0.055860472
-0.058247755
-0.039017491
-0.010515252
0.0084290279
0.0093652604
0.012617005
0.00073618477
-0.0045498397
-0.0054014724
-0.0026384493
0.001299137
0.0020388033
0.00052714043
-0.00063224953
-0.00069039526
-0.00040869912
-0.00019080678
-0.085213087
-0.083523853
-0.069256926
-0.050182598
-0.027829932
-0.010757267
-0.0075609107
-0.009038724
-0.0066944634
-0.0017090504
0.0073435801
0.014121437
0.016991527
0.015333634
0.01073076
0.0044847752
-0.0022682177
-0.008696936
-0.014134932
-0.018168571
-0.020662796
-0.021741811
-0.021786653
-0.021091929
-0.019576056
-0.017273628
-0.014921272
-0.012764061
-0.01081183
-0.0090726504
-0.0075386755
-0.0061988693
-0.0050406287
-0.0040503071
-0.0032150254
-0.0025257121
-0.0019795226
-0.0015749368
-0.0013199662
-0.090150842
-0.075871045
-0.086182137
-0.078833387
-0.055233842
-0.034451667
-0.025813942
-0.039444063
-0.046011058
-0.049297498
-0.032002714
-0.0075684668
0.00869712
0.0099668272
0.011455442
0.0020889617
-0.0030520938
-0.003939757
-0.0015057115
0.0011845204
0.0017119849
0.00052977368
-0.00035460344
-0.00044852029
-0.00023649612
-0.000112425
-0.10141042
-0.096132355
-0.076841895
-0.048240791
-0.022380432
-0.014087474
-0.014720783
-0.015453615
-0.0080845237
0.002117845
0.013130592
0.018952123
0.019135986
0.015067175
0.0087309494
0.0013600848
-0.0060384409
-0.012662797
-0.017873914
-0.021420346
-0.023316727
-0.023947782
-0.023649051
-0.022295141
-0.019879633
-0.017300424
-0.014908431
-0.012715646
-0.010746758
-0.0089973282
-0.0074580273
-0.006116411
-0.0049573949
-0.0039650504
-0.0031270746
-0.0024372898
-0.0018900842
-0.0014837586
-0.0012261115
-0.11541878
-0.089268128
-0.06538351
-0.067061457
-0.058293275
-0.037492337
-0.021023567
-0.015708811
-0.028485506
-0.036363114
-0.036657279
-0.025352247
-0.0040683844
0.0085452696
0.0099397813
0.010008776
0.0028501152
-0.0016599762
-0.0024611142
-0.00066697391
0.0011644472
0.0015137839
0.0005736545
-7.725185e-05
-0.00017606231
-8.9083432e-05
-4.0123049e-05
-0.12406314
-0.10746609
-0.074989336
-0.038360944