/*--------------------------------*- C++ -*----------------------------------*\
| =========                 |                                                 |
| \\      /  F ield         | OpenFOAM: The Open Source CFD Toolbox           |
|  \\    /   O peration     | Version:  5.0                                   |
|   \\  /    A nd           | Web:      www.OpenFOAM.org                      |
|    \\/     M anipulation  |                                                 |
\*---------------------------------------------------------------------------*/
FoamFile
{
    version     2.0;
    format      ascii;
    class       surfaceScalarField;
    location    "180";
    object      phi;
}
// * * * * * * * * * * * * * * * * * * * * * * * * * * * * * * * * * * * * * //

dimensions      [0 3 -1 0 0 0 0];

internalField   nonuniform List<scalar> 
18820
(
-0.00039296513
-1.3578513
-0.00075899151
-1.269855
-0.00037436979
-1.3574769
-0.0010978642
-1.1876532
-0.00072423601
-1.2695051
-0.00036032727
-1.3571166
-0.0014090801
-1.1108383
-0.0010496627
-1.1873277
-0.0006967786
-1.2691687
-0.00035618034
-1.3567604
-0.0016920543
-1.0390436
-0.0013507742
-1.1105372
-0.0010100585
-1.1870145
-0.00068834509
-1.2688365
-0.0003573127
-1.3564031
-0.0019464802
-0.97192184
-0.0016271938
-1.0387672
-0.001301303
-1.1102459
-0.00099818356
-1.1867046
-0.00069101155
-1.2685028
-0.0003558984
-1.3560472
-0.0021719945
-0.90915732
-0.0018783312
-0.97167071
-0.0015710157
-1.0384975
-0.0012874844
-1.1099566
-0.0010034799
-1.1863922
-0.00069026964
-1.2681684
-0.00034433228
-1.3557029
-0.0023678715
-0.85045951
-0.0021041546
-0.9089315
-0.0018185038
-0.97142322
-0.0015576571
-1.0382273
-0.0012962177
-1.1096639
-0.0010060508
-1.1860764
-0.00067033611
-1.2678424
-0.00032423251
-1.3553786
-0.002533149
-0.79556026
-0.0023054426
-0.85025823
-0.0020433993
-0.9087066
-0.0018088707
-0.97117201
-0.0015706548
-1.0379529
-0.001304387
-1.1093656
-0.00098121797
-1.1857655
-0.0006330013
-1.2675337
-0.00030150557
-1.3550771
-0.0026671535
-0.74420905
-0.0024847636
-0.79538094
-0.0022464321
-0.85005519
-0.0020409361
-0.90847454
-0.001827987
-0.97091467
-0.001586558
-1.0376707
-0.0012783911
-1.1090684
-0.00092978569
-1.1854687
-0.00058917
-1.267246
-0.00028214033
-1.354795
-0.0027716124
-0.69617756
-0.0026467407
-0.74404707
-0.0024306639
-0.79519671
-0.002253605
-0.84984252
-0.0020685925
-0.90823393
-0.0018546681
-0.97064656
-0.0015627842
-1.0373863
-0.0012172945
-1.1087809
-0.00086675499
-1.1851911
-0.00055101903
-1.2669771
-0.00026857932
-1.3545264
-0.0028497169
-0.65124896
-0.0027991488
-0.69602515
-0.0026028953
-0.74387484
-0.0024461537
-0.79500416
-0.0022918005
-0.84961932
-0.0021099364
-0.90797866
-0.0018363308
-0.97037302
-0.0014967972
-1.0371068
-0.001137993
-1.1085097
-0.00081110484
-1.184931
-0.00052386586
-1.2667218
-0.00025904454
-1.3542673
-0.0029193574
-0.60919643
-0.0029663815
-0.65108173
-0.0027757398
-0.69585231
-0.0026178853
-0.74370311
-0.0024949031
-0.79480105
-0.0023520696
-0.84937718
-0.0021007587
-0.90771423
-0.0017692164
-0.9701006
-0.0014052015
-1.0368396
-0.0010663099
-1.1082544
-0.00077126191
-1.1846836
-0.0005049246
-1.266476
-0.0002494159
-1.3540179
-0.00298293
-0.56983976
-0.0031592366
-0.60900358
-0.0029548573
-0.65090261
-0.0027651277
-0.69570507
-0.0026703782
-0.74352763
-0.0025780311
-0.79457509
-0.0023577998
-0.84912014
-0.0020359687
-0.90744748
-0.0016685186
-0.96983728
-0.0013195159
-1.0365864
-0.0010148646
-1.1080108
-0.00074333142
-1.1844452
-0.0004865581
-1.2662388
-0.00023587268
-1.3537821
-0.0030530869
-0.53301217
-0.0033597816
-0.56963921
-0.0031116485
-0.60884679
-0.0028625936
-0.65080514
-0.0028003623
-0.69557508
-0.0027816526
-0.74332401
-0.0026102468
-0.79432265
-0.0022993312
-0.84885678
-0.0019279232
-0.90718808
-0.0015714113
-0.96958538
-0.0012575205
-1.0363437
-0.00097857784
-1.1077756
-0.00071655449
-1.1842152
-0.00046111407
-1.2660136
-0.00021668222
-1.3535654
-0.0031367166
-0.49855724
-0.0035820588
-0.53278989
-0.0032342478
-0.56951661
-0.0028931238
-0.60881626
-0.0028681127
-0.65073739
-0.0029585307
-0.69539821
-0.0028640354
-0.74307022
-0.0025641387
-0.79405784
-0.0021837417
-0.84860096
-0.0018214325
-0.90693805
-0.0015007811
-0.96934212
-0.0012137546
-1.0361086
-0.00094352039
-1.1075486
-0.00068014168
-1.1839962
-0.00042458633
-1.2658057
-0.00019268208
-1.3533727
-0.0032581775
-0.46631311
-0.0038391888
-0.49830011
-0.0033221851
-0.53270195
-0.002871939
-0.5695378
-0.00287794
-0.60880643
-0.003112438
-0.65058349
-0.0031294421
-0.6951328
-0.002838237
-0.74279613
-0.0024370159
-0.79380456
-0.0020681289
-0.84835426
-0.0017449328
-0.9066939
-0.0014513499
-0.96910453
-0.0011711602
-1.0358809
-0.0008961907
-1.1073326
-0.00062796469
-1.1837928
-0.00037809236
-1.2656203
-0.0001666629
-1.353206
-0.0034023321
-0.43615137
-0.0041716663
-0.46598063
-0.0034030627
-0.49821923
-0.0027683182
-0.53280557
-0.0028431917
-0.56957254
-0.0032516961
-0.60866717
-0.0034235136
-0.65028941
-0.0031337537
-0.69483728
-0.0026892739
-0.74254387
-0.0023082693
-0.79356442
-0.001988711
-0.84811048
-0.0016931251
-0.90645213
-0.0014029308
-0.96887276
-0.0011133013
-1.0356638
-0.00082926095
-1.1071313
-0.00056040024
-1.1836105
-0.00032701548
-1.2654599
-0.00014198034
-1.353064
-0.0036466016
-0.40788877
-0.0046014476
-0.43572159
-0.0034690054
-0.46591469
-0.0025633389
-0.49842421
-0.0027390813
-0.53290968
-0.0033823453
-0.5694419
-0.0037623852
-0.6083283
-0.0034691067
-0.64995406
-0.0029441664
-0.69458239
-0.0025368936
-0.74231524
-0.0022284233
-0.79332471
-0.0019394556
-0.84786415
-0.0016420139
-0.90621304
-0.0013358899
-0.96865017
-0.0010318029
-1.0354613
-0.00074242409
-1.1069493
-0.00048428051
-1.1834533
-0.00027810938
-1.2653238
-0.00012112528
-1.3529429
-0.0038906873
-0.38147028
-0.0051767375
-0.40731348
-0.0035483647
-0.43564223
-0.002205414
-0.46627261
-0.002512777
-0.49865052
-0.0035261447
-0.53276588
-0.0041600058
-0.56904427
-0.0038634538
-0.60793395
-0.0032043838
-0.64969384
-0.0027463969
-0.69437289
-0.0024576253
-0.74208604
-0.0021887584
-0.79307541
-0.0018908957
-0.84761527
-0.0015680428
-0.90598089
-0.0012403408
-0.96844163
-0.00092633455
-1.0352774
-0.00064205176
-1.1067915
-0.00041011944
-1.1833213
-0.00023629778
-1.2652086
-0.00010502253
-1.3528379
-0.0042996534
-0.35662811
-0.0058779418
-0.38076908
-0.0035879722
-0.40727387
-0.0016622821
-0.43618536
-0.0021178342
-0.46666756
-0.0036772137
-0.49849945
-0.004650386
-0.5322755
-0.0043265445
-0.56858118
-0.0034768261
-0.60766151
-0.0029244481
-0.64951579
-0.0026646126
-0.6941659
-0.0024366692
-0.74183813
-0.002151615
-0.79281469
-0.0018139162
-0.8473694
-0.0014589187
-0.90576231
-0.001115552
-0.96825241
-0.00080269427
-1.0351167
-0.00054150817
-1.1066601
-0.00034624123
-1.1832113
-0.00020334479
-1.2651103
-9.3216579e-05
-1.3527447
-0.0046370663
-0.33342919
-0.006767829
-0.35573822
-0.0036964865
-0.38066056
-0.00086818714
-0.40806796
-0.0015061565
-0.43679704
-0.0038534496
-0.46649132
-0.0052912733
-0.49785856
-0.004884028
-0.53171802
-0.003739843
-0.56831817
-0.0030508568
-0.6075351
-0.0028307103
-0.64934969
-0.002673629
-0.69392894
-0.0024254767
-0.74156427
-0.0020786628
-0.79254994
-0.0016919696
-0.84713635
-0.0013134153
-0.90556445
-0.00096781298
-0.96808729
-0.00067520502
-1.034983
-0.000453663
-1.1065527
-0.00029570954
-1.1831189
-0.00017852103
-1.265025
-8.4539613e-05
-1.3526601
-0.0052701015
-0.31136172
-0.0077375142
-0.33245951
-0.0037529742
-0.35568173
0.00018066002
-0.38170941
-0.00063475821
-0.40893936
-0.0040417614
-0.43660873
-0.0061506723
-0.46563192
-0.0055911976
-0.49715139
-0.0039947593
-0.5314631
-0.0030930283
-0.568276
-0.0029179842
-0.60744783
-0.0028831953
-0.64914013
-0.0027127691
-0.69364165
-0.0023691974
-0.74127373
-0.0019453529
-0.79229656
-0.0015233394
-0.84692642
-0.0011393077
-0.90539296
-0.00081220844
-0.96795029
-0.00056181382
-1.0348749
-0.00038368342
-1.1064647
-0.00025718976
-1.1830403
-0.00016001158
-1.2649495
-7.7731304e-05
-1.3525824
-0.0060636282
-0.29057365
-0.0089722632
-0.31012697
-0.0039619874
-0.33225049
0.0016473858
-0.35714846
0.00056983599
-0.382914
-0.0042776781
-0.40870345
-0.0073048012
-0.4354546
-0.0065039995
-0.46471912
-0.0042394124
-0.49690674
-0.0030019935
-0.53155414
-0.0029059621
-0.56828802
-0.0030415335
-0.60728949
-0.003013695
-0.6488392
-0.0026963782
-0.69331447
-0.0022275715
-0.74099152
-0.001749309
-0.79207059
-0.0013188017
-0.84674693
-0.00095369605
-0.90525147
-0.00067191814
-0.96784019
-0.0004701496
-1.0347884
-0.00033000474
-1.1063919
-0.00022764169
-1.1829726
-0.00014583558
-1.2648814
-7.1737555e-05
-1.3525107
-0.0069938621
-0.27164202
-0.010306495
-0.28923941
-0.0039851823
-0.31010377
0.0033710031
-0.33397411
0.0021442386
-0.35872286
-0.0045100351
-0.38268165
-0.0088369099
-0.40717134
-0.0076959889
-0.43426261
-0.0044740339
-0.4644845
-0.0027226682
-0.49718606
-0.0027423309
-0.53171777
-0.0031509762
-0.56817857
-0.0033325275
-0.60697065
-0.0030767884
-0.64845879
-0.0025523106
-0.69298973
-0.0019965952
-0.74074423
-0.0015071881
-0.7918822
-0.0011000848
-0.84660054
-0.00078507919
-0.90513831
-0.00055727606
-0.96775306
-0.00039877647
-1.0347196
-0.00028821597
-1.1063313
-0.00020428379
-1.1829142
-0.00013397243
-1.2648192
-6.5755985e-05
-1.3524449
-0.0078743562
-0.25370717
-0.011901096
-0.27004742
-0.0039070113
-0.28931759
0.0056718389
-0.31240461
0.0041428111
-0.33597268
-0.0048781495
-0.35835475
-0.010848764
-0.38066979
-0.0092305985
-0.40563673
-0.0047060117
-0.43403063
-0.0021985579
-0.46500861
-0.0023492083
-0.49757918
-0.0032153116
-0.53165343
-0.0036803878
-0.56783071
-0.0035385001
-0.60650894
-0.0029400209
-0.64807108
-0.0022728684
-0.69271345
-0.001704514
-0.7405469
-0.0012501181
-0.79173217
-0.00090162341
-0.846484
-0.00064655864
-0.90504902
-0.00046650937
-0.96768533
-0.00034248865
-1.0346654
-0.00025407686
-1.1062815
-0.0001847217
-1.1828634
-0.00012236516
-1.2647626
-5.9265128e-05
-1.3523857
-0.0095378478
-0.23485594
-0.01350023
-0.25210804
-0.0039508031
-0.27000363
0.0083872348
-0.29203298
0.006502622
-0.31476442
-0.0051773947
-0.33567344
-0.013448861
-0.35575465
-0.011217416
-0.37868297
-0.0049407963
-0.40540194
-0.0013525566
-0.43487664
-0.0016391208
-0.4657187
-0.0031866941
-0.4976078
-0.004087491
-0.53124633
-0.0041062199
-0.56726299
-0.0034226868
-0.60602628
-0.0025891725
-0.64775478
-0.0019096905
-0.69250828
-0.0013999703
-0.74039705
-0.0010198876
-0.79161391
-0.00073901801
-0.84639154
-0.00053553779
-0.90498
-0.00039339389
-0.96763442
-0.00029570149
-1.0346237
-0.00022434456
-1.1062419
-0.00016628548
-1.1828195
-0.0001095094
-1.2647123
-5.2154725e-05
-1.3523335
-0.011412296
-0.21631085
-0.01545622
-0.23289995
-0.0041228926
-0.25193595
0.011657953
-0.27327435
0.0092917759
-0.29482214
-0.0057553933
-0.31418642
-0.016725314
-0.33239699
-0.013706666
-0.3532654
-0.0051899701
-0.3784338
-0.00010406607
-0.40665043
-0.00050406338
-0.43601169
-0.0030054179
-0.46589997
-0.0045833549
-0.49711194
-0.004820601
-0.53053195
-0.0040287924
-0.56665689
-0.0029616997
-0.60565375
-0.0021204284
-0.64754404
-0.0015416968
-0.69236655
-0.0011348119
-0.74028213
-0.00083406791
-0.79151886
-0.00060811118
-0.84631896
-0.00044423147
-0.90492916
-0.0003313615
-0.96759876
-0.000253825
-1.0345943
-0.0001963555
-1.1062118
-0.00014675949
-1.1827823
-9.5144535e-05
-1.2646693
-4.4816066e-05
-1.3522887
-0.013245978
-0.19944794
-0.017145229
-0.21462184
-0.0032757292
-0.23374711
0.015176925
-0.25545492
0.012706112
-0.27668868
-0.0065989835
-0.29397855
-0.020718542
-0.31019319
-0.016869571
-0.32923408
-0.0054350672
-0.3530203
0.0016583471
-0.38019621
0.0011717883
-0.40832629
-0.0026044001
-0.43641271
-0.0051954381
-0.46528789
-0.0057588737
-0.49617367
-0.0047963435
-0.5297644
-0.0034082231
-0.56621037
-0.0023305106
-0.60544367
-0.0016622864
-0.64742345
-0.0012363213
-0.69226504
-0.0009283575
-0.74018784
-0.00068567708
-0.79144129
-0.000498632
-0.84626456
-0.0003650172
-0.9048955
-0.00027507808
-0.96757751
-0.00021414292
-1.0345765
-0.00016838799
-1.1061902
-0.00012533751
-1.1827521
-8.0337835e-05
-1.2646338
-3.7939262e-05
-1.3522507
-0.015039219
-0.18361569
-0.018622235
-0.19797093
-0.0012446521
-0.21665292
0.019759722
-0.23832991
0.016547256
-0.25929607
-0.0075921678
-0.2756955
-0.025579794
-0.28911729
-0.020650834
-0.30641193
-0.0056881708
-0.32898098
0.0040534959
-0.35541545
0.003533172
-0.3825576
-0.0019085048
-0.40902218
-0.0059512207
-0.43565693
-0.0070113022
-0.46403546
-0.0058038745
-0.49516613
-0.0039442876
-0.52922834
-0.0025329695
-0.56600791
-0.0017403492
-0.6053656
-0.0013076056
-0.64735216
-0.0010143699
-0.69217903
-0.00076837483
-0.74010514
-0.00056040588
-0.79137952
-0.00040141778
-0.84622816
-0.00029221161
-0.90487837
-0.00022185093
-0.9675698
-0.00017527147
-1.0345696
-0.00013917223
-1.1061764
-0.00010265196
-1.1827298
-6.6645174e-05
-1.2646051
-3.2140768e-05
-1.3522186
-0.018684404
-0.19844661
-0.019843389
-0.18239453
0.0013110044
-0.20052659
0.0250801
-0.22197329
0.020701096
-0.24248375
-0.0076872283
-0.25920101
-0.031395167
-0.26988013
-0.025035367
-0.28473276
-0.0058266344
-0.30627347
0.0072297911
-0.33215727
0.0067165711
-0.35859885
-0.00082832085
-0.38363778
-0.0068835845
-0.40808982
-0.0086898199
-0.43397841
-0.0071466659
-0.46269267
-0.0046014587
-0.49450896
-0.0027149228
-0.52904638
-0.001747048
-0.56600121
-0.001322767
-0.60535044
-0.0010790648
-0.64728747
-0.00085446304
-0.69209294
-0.0006339986
-0.74003155
-0.00044664981
-0.79133428
-0.00031051202
-0.84620986
-0.00022284061
-0.90487738
-0.00016936626
-0.9675757
-0.00013537106
-1.0345734
-0.00010819433
-1.1061708
-8.1228741e-05
-1.1827152
-5.511831e-05
-1.2645821
-2.7818063e-05
-1.3521908
-0.021837208
-0.19495761
-0.022829727
-0.19546027
0.0043442876
-0.18542782
0.030406322
-0.20585281
0.024441632
-0.22571383
-0.0083450367
-0.24182594
-0.037669252
-0.25292692
-0.030343152
-0.26457234
-0.0058191495
-0.28474025
0.011353254
-0.31039693
0.010886126
-0.33632683
0.00070873111
-0.3601359
-0.008026701
-0.38249467
-0.010920591
-0.40585905
-0.0089464699
-0.43217861
-0.005425612
-0.46186851
-0.0028522993
-0.49437159
-0.0016411762
-0.52915225
-0.0012503475
-0.56607363
-0.0011035199
-0.60532599
-0.00094044721
-0.64720149
-0.00072499689
-0.69200194
-0.00050895504
-0.73996924
-0.0003371251
-0.79130767
-0.00022196095
-0.84621074
-0.00015332067
-0.90489342
-0.00011540637
-0.96759567
-9.4196436e-05
-1.0345874
-7.8325247e-05
-1.1061737
-6.3359475e-05
-1.1827069
-4.6471425e-05
-1.2645635
-2.5169921e-05
-1.3521656
-0.024480126
-0.19119327
-0.025309926
-0.19247741
0.005999367
-0.19711535
0.035568443
-0.19058994
0.027465737
-0.20887692
-0.011346505
-0.22271236
-0.044787351
-0.23470784
-0.037502265
-0.24576781
-0.0059187866
-0.26447271
0.016529482
-0.28991647
0.016138033
-0.31564884
0.0028184494
-0.33843655
-0.0094321442
-0.35873046
-0.013861131
-0.37955413
-0.011338981
-0.40346654
-0.0064738867
-0.43113033
-0.0029188457
-0.46180197
-0.0013657691
-0.49464699
-0.0010326135
-0.52936999
-0.0010634737
-0.56611367
-0.0010210339
-0.6052454
-0.00083930407
-0.64708718
-0.00059892445
-0.69191197
-0.00038192545
-0.73992444
-0.00022629263
-0.79130334
-0.0001312254
-0.84623284
-8.1737724e-05
-0.90492709
-6.1371811e-05
-0.96762849
-5.52099e-05
-1.0346105
-5.3186233e-05
-1.1061839
-4.9715519e-05
-1.1827037
-4.1076903e-05
-1.2645476
-2.4195559e-05
-1.3521414
-0.026619579
-0.18739325
-0.027294429
-0.18920877
0.0084833736
-0.19496142
0.039381179
-0.20092808
0.029937006
-0.19306121
-0.015435989
-0.20478744
-0.052965687
-0.21453403
-0.04521319
-0.22699692
-0.0066447747
-0.24504182
0.022802009
-0.27074523
0.022579422
-0.29635786
0.0055298126
-0.3183602
-0.011146567
-0.33672212
-0.017678568
-0.35491302
-0.014494801
-0.37639831
-0.0078122859
-0.40212814
-0.0028815686
-0.43116761
-0.00084615723
-0.46232158
-0.00060068483
-0.49507892
-0.00091467802
-0.52951878
-0.0010779179
-0.56605679
-0.00098093142
-0.60510378
-0.00072946537
-0.64695664
-0.00045792289
-0.69183598
-0.00024575295
-0.73990498
-0.00010948329
-0.79132508
-3.7603088e-05
-0.84627697
-1.135307e-05
-0.90497711
-1.1364283e-05
-0.96767234
-2.1874453e-05
-1.0346418
-3.3931355e-05
-1.1061997
-4.0913005e-05
-1.1827039
-3.8777611e-05
-1.264533
-2.4637856e-05
-1.3521168
-0.028224902
-0.18367198
-0.028829819
-0.18585786
0.011579545
-0.19230494
0.043844235
-0.19942447
0.03169351
-0.20268459
-0.020016843
-0.18848035
-0.061129905
-0.19662322
-0.051431008
-0.20831621
-0.0071266501
-0.22651504
0.030309878
-0.25254969
0.030211263
-0.27837707
0.0088933059
-0.29972136
-0.013278772
-0.31622799
-0.022577823
-0.33182287
-0.018580315
-0.35082751
-0.0095176922
-0.3746929
-0.0027040904
-0.40230561
9.1057297e-06
-0.43202287
0.00013256832
-0.46305483
-0.00059290913
-0.49540069
-0.0011058057
-0.5294909
-0.0011478324
-0.56588989
-0.00091711542
-0.60491613
-0.00058285004
-0.64683171
-0.00029353146
-0.6917882
-9.6766898e-05
-0.7399177
1.2153261e-05
-0.79137484
5.4567288e-05
-0.84634289
5.4030224e-05
-0.90504251
3.2073021e-05
-0.96772629
3.3125097e-06
-1.0346791
-2.1308101e-05
-1.1062193
-3.7004614e-05
-1.1827056
-3.8858871e-05
-1.2645188
-2.6396685e-05
-1.3520904
-0.029280061
-0.18023075
-0.029895555
-0.18260624
0.015053128
-0.18933144
0.048691045
-0.19715175
0.03401058
-0.20174154
-0.024792451
-0.19790898
-0.069067814
-0.18054244
-0.056737613
-0.19131661
-0.005985812
-0.20945705
0.039323187
-0.23552835
0.039356895
-0.26169532
0.012913487
-0.28239725
-0.015980246
-0.29701988
-0.028775324
-0.31003049
-0.023800284
-0.3266029
-0.011665226
-0.34867997
-0.0023350768
-0.37506191
0.0013058012
-0.40360231
0.0012761007
-0.4331664
-2.6075539e-05
-0.46362167
-0.001073037
-0.49543346
-0.0013647745
-0.52927395
-0.0011811646
-0.56562584
-0.00078106164
-0.60471791
-0.00038806474
-0.64673718
-0.0001042612
-0.6917807
6.2091866e-05
-0.73996764
0.00013317846
-0.79145345
0.00013974348
-0.84642861
0.00011070231
-0.90512114
6.6037556e-05
-0.96778901
2.0769491e-05
-1.0347211
-1.5482525e-05
-1.1062408
-3.7211692e-05
-1.1827073
-4.2405919e-05
-1.2645027
-2.9264537e-05
-1.3520611
-0.029789426
-0.17727337
-0.030501549
-0.17962476
0.018689905
-0.18624302
0.053718111
-0.19435851
0.036690895
-0.19983207
-0.029233156
-0.19730084
-0.07768635
-0.18929044
-0.061462006
-0.17581805
-0.0037171454
-0.19358528
0.049663095
-0.21979695
0.050407035
-0.24657849
0.018111922
-0.26689376
-0.019314048
-0.27906345
-0.036499647
-0.28929556
-0.030285935
-0.30354484
-0.014342736
-0.32392539
-0.0017117866
-0.34930326
0.003175146
-0.37693126
0.0029570042
-0.40528321
0.00087485616
-0.43406734
-0.00093840791
-0.4637563
-0.0016531465
-0.49514509
-0.0015520712
-0.52890305
-0.0010862501
-0.56532065
-0.00055381899
-0.60455216
-0.00014736848
-0.64669407
0.00010305939
-0.69182167
0.00022044034
-0.7400549
0.00024443271
-0.79155814
0.00021346213
-0.84653136
0.00015514874
-0.90521025
8.9108826e-05
-0.96785735
2.9338716e-05
-1.034766
-1.5798744e-05
-1.1062622
-4.2366774e-05
-1.1827073
-4.8029565e-05
-1.264484
-3.289452e-05
-1.3520282
-0.029803329
-0.17496301
-0.030624355
-0.17715056
0.022231276
-0.18316613
0.05863962
-0.19116453
0.039707923
-0.19737554
-0.033339642
-0.19572558
-0.085956622
-0.18903056
-0.069142151
-0.1816103
-0.00044527182
-0.17908992
0.06083443
-0.20475661
0.062136786
-0.2315267
0.024840094
-0.25330666
-0.022800348
-0.26340746
-0.045797089
-0.26976601
-0.038156457
-0.28142504
-0.017560504
-0.30032707
-0.00075327641
-0.3248839
0.0057505615
-0.35187868
0.0053143495
-0.3792886
0.0022200389
-0.4066284
-0.00065320158
-0.43435254
-0.0020199658
-0.46338948
-0.0020863741
-0.49461079
-0.0015305537
-0.52845874
-0.00082767866
-0.56504679
-0.00024516775
-0.60445436
0.0001254474
-0.64671646
0.00031246226
-0.69191369
0.00036692136
-0.74017739
0.00034092814
-0.7916856
0.00027188287
-0.8466481
0.00018587495
-0.90530701
0.0001012445
-0.96792926
2.9747648e-05
-1.0348115
-2.1776244e-05
-1.1062828
-5.0666756e-05
-1.1827047
-5.5207136e-05
-1.2644617
-3.6961977e-05
-1.3519913
-0.029312292
-0.17342805
-0.030297144
-0.17529022
0.025516776
-0.18043606
0.063183795
-0.18771031
0.042813819
-0.19427042
-0.03698102
-0.19373416
-0.093665788
-0.18801641
-0.076535941
-0.18163677
-0.002017438
-0.18003813
0.072554305
-0.1908098
0.073824952
-0.21644478
0.031953683
-0.23864029
-0.026136354
-0.24997066
-0.056606207
-0.25259834
-0.047520277
-0.26040219
-0.021299715
-0.27768583
0.00065453728
-0.30173489
0.0091924433
-0.32832578
0.008502756
-0.35506709
0.0041338096
-0.38120237
-0.00016209452
-0.4071195
-0.0024748501
-0.43389766
-0.0028442531
-0.4626316
-0.00218013
-0.49396121
-0.0012423972
-0.52804403
-0.00042627822
-0.56486568
0.0001170707
-0.60444598
0.00040547377
-0.64680947
0.00050694793
-0.69205372
0.00049374626
-0.74033021
0.00041761198
-0.79183133
0.00031284633
-0.84677507
0.00020283975
-0.90540861
0.00010296333
-0.96800247
2.2966133e-05
-1.0348562
-3.2566454e-05
-1.1063009
-6.1438973e-05
-1.1826985
-6.3324948e-05
-1.2644353
-4.1164604e-05
-1.3519501
-0.17281466
-0.028453604
-0.029623604
-0.17410159
0.028443034
-0.17821648
0.067114293
-0.18436656
0.045863197
-0.19075969
-0.04015986
-0.19109158
-0.10074505
-0.1866549
-0.083477511
-0.18107484
-0.0031887621
-0.18046545
0.080721259
-0.18820509
0.084890016
-0.20187486
0.038457228
-0.22294832
-0.028903054
-0.23587359
-0.069244186
-0.23733268
-0.058912955
-0.24120566
-0.025671326
-0.25603058
0.0026595964
-0.27969089
0.013659552
-0.306202
0.012682572
-0.3325056
0.0067530876
-0.35768636
0.0006113334
-0.3819758
-0.0030312945
-0.40656306
-0.0038947665
-0.43284715
-0.0031219546
-0.46168977
-0.0018506764
-0.49335293
-0.00072302734
-0.52774728
6.3808394e-05
-0.56481242
0.0004948681
-0.60453538
0.00066530383
-0.64696783
0.00067413551
-0.69223411
0.00059430962
-0.7405069
0.00047187814
-0.79199037
0.00033636657
-0.8469086
0.00020671504
-0.90551236
9.5514173e-05
-0.96807502
9.7926909e-06
-1.0348986
-4.686765e-05
-1.1063155
-7.3731181e-05
-1.1826881
-7.1737104e-05
-1.2644047
-4.5245102e-05
-1.3519049
-0.17364257
-0.028795696
-0.17331824
-0.027191037
0.030609611
-0.17626817
0.070325078
-0.18142726
0.048614657
-0.18711802
-0.042761253
-0.18815829
-0.10695536
-0.18488127
-0.089909776
-0.18022263
-0.0039949875
-0.18026862
0.089440024
-0.18918422
0.095772591
-0.19908766
0.04335837
-0.206776
-0.033285805
-0.21856557
-0.083373978
-0.2217438
-0.0727512
-0.22349444
-0.03142312
-0.23545387
0.0054283025
-0.25879929
0.019326216
-0.28535755
0.017996647
-0.31151607
0.010229369
-0.33598188
0.0017503145
-0.35882535
-0.0036967339
-0.38131036
-0.0053215175
-0.40513631
-0.0044584862
-0.43151061
-0.0027358741
-0.46080458
-0.0011641556
-0.4929118
-5.5735624e-05
-0.52762773
0.00057983971
-0.56489739
0.00084609121
-0.60471617
0.0008867306
-0.64718042
0.00080562455
-0.69244542
0.00066555831
-0.74070058
0.00050395653
-0.79215796
0.00034347097
-0.84704535
0.00019901415
-0.90561586
8.0212461e-05
-0.96814544
-7.9249369e-06
-1.0349375
-6.3472039e-05
-1.1063257
-8.6642511e-05
-1.1826731
-8.0056335e-05
-1.2643699
-4.9073793e-05
-1.3518558
-0.17500249
0.031969535
-0.17444346
-0.027670471
-0.17511567
-0.025557617
0.072587371
-0.17853046
0.05088015
-0.18369275
-0.044752713
-0.18512656
-0.11213426
-0.18297939
-0.095567193
-0.17922386
-0.0045379714
-0.17967965
0.09858211
-0.1894107
0.1072903
-0.20070193
0.052065429
-0.20779472
-0.039640494
-0.20042132
-0.098289267
-0.20365028
-0.088430261
-0.20606474
-0.038804885
-0.21611267
0.0087405784
-0.23876614
0.026360421
-0.26583349
0.02459183
-0.29195273
0.014694702
-0.3159814
0.0033642865
-0.33759585
-0.0044881206
-0.35803396
-0.0072259276
-0.37940595
-0.0063112054
-0.40328359
-0.0039978735
-0.43024862
-0.0018011676
-0.46016756
-0.00025694748
-0.49271059
0.00065641789
-0.52770431
0.001055889
-0.56510719
0.0011402635
-0.6049697
0.0010579529
-0.64743275
0.00089793571
-0.6926778
0.0007082641
-0.74090489
0.00051547005
-0.79232995
0.00033609826
-0.84718244
0.00018148949
-0.90571714
5.8621139e-05
-0.96821199
-2.9101981e-05
-1.0349719
-8.1277312e-05
-1.1063311
-9.9558709e-05
-1.1826536
-8.7942574e-05
-1.264331
-5.2493539e-05
-1.3518033
-0.17645173
0.074036608
-0.17498535
0.03251142
-0.17642242
-0.026363716
-0.17764976
-0.023568079
0.052731849
-0.18038216
-0.046099839
-0.18234563
-0.11610247
-0.18115835
-0.10025977
-0.17828681
-0.0048628731
-0.17889895
0.10781124
-0.18890878
0.11918912
-0.20130952
0.061514366
-0.21015086
-0.039896953
-0.20753826
-0.1127076
-0.18600299
-0.10285809
-0.18922246
-0.046715928
-0.1981537
0.012510332
-0.21988242
0.034962981
-0.2473687
0.032544527
-0.27378619
0.020304935
-0.29756297
0.0055516812
-0.3181688
-0.0053968664
-0.33668711
-0.0097253372
-0.35553455
-0.0088344665
-0.37688269
-0.0057502261
-0.40153124
-0.0027030734
-0.42934671
-0.0005499175
-0.45987459
0.00072368581
-0.49277786
0.0013091952
-0.52795762
0.0014477746
-0.5654147
0.0013613267
-0.60527307
0.0011752777
-0.64771009
0.00095290162
-0.69292244
0.00072504215
-0.74111446
0.00050897145
-0.79250283
0.00031649882
-0.84731745
0.00015606587
-0.90581458
3.2546462e-05
-0.96827363
-5.2161834e-05
-1.035001
-9.9305702e-05
-1.1063314
-0.00011194334
-1.1826296
-9.5039581e-05
-1.2642885
-5.5452142e-05
-1.3517478
-0.17778872
0.054068844
-0.17537757
0.074428832
-0.17609375
0.03218275
-0.17922548
-0.024787995
-0.18064731
-0.021354182
-0.046477205
-0.18000479
-0.1187753
-0.1796728
-0.10384351
-0.17757461
-0.004898623
-0.17825106
0.1167278
-0.18781551
0.13103709
-0.20075675
0.071187071
-0.21098222
-0.039335395
-0.21071242
-0.12394616
-0.1962997
-0.11510307
-0.173758
-0.054009061
-0.18192932
0.016562428
-0.20220579
0.045153845
-0.23007329
0.042011122
-0.2568353
0.027133356
-0.28061461
0.0084572894
-0.30046858
-0.0064410554
-0.31712461
-0.012963362
-0.33344908
-0.012201247
-0.35216777
-0.0081358122
-0.37449711
-0.0039457979
-0.40028851
-0.0009553823
-0.42894124
0.00079548909
-0.4599464
0.0016253893
-0.49309405
0.0018313652
-0.52834121
0.0017324292
-0.5657858
0.0015075534
-0.60560535
0.0012430089
-0.6480002
0.00097481944
-0.69317222
0.00071945206
-0.74132495
0.00048738348
-0.79267371
0.00028707572
-0.84744846
0.00012480235
-0.90590684
3.7757021e-06
-0.96832957
-7.5851933e-05
-1.0350245
-0.00011683969
-1.1063265
-0.0001233136
-1.1826014
-0.00010132774
-1.2642426
-5.7941808e-05
-1.3516899
-0.17835726
-0.045908672
-0.17606219
0.054753465
-0.17580408
0.074139155
-0.1781193
0.031076571
-0.18243385
-0.023001448
-0.1842792
-0.018996417
-0.12013073
-0.17864937
-0.10624642
-0.17726989
-0.0047215062
-0.17775173
0.12498171
-0.18650497
0.14233157
-0.19911
0.081172934
-0.21074261
-0.038881913
-0.21143571
-0.13504994
-0.19960864
-0.13044404
-0.18095873
-0.060425525
-0.16734154
0.020754965
-0.18612186
0.056747247
-0.2137992
0.053002111
-0.24106428
0.035297249
-0.26499919
0.01217409
-0.28433141
-0.0075804777
-0.29932915
-0.017096075
-0.3129919
-0.016636415
-0.32901392
-0.01130473
-0.34899885
-0.0056142912
-0.37282861
-0.0014990567
-0.39974484
0.00089393286
-0.42903969
0.0020297558
-0.46035077
0.0023226107
-0.4935853
0.002195252
-0.52880403
0.0019101156
-0.56618837
0.0015863333
-0.60594867
0.0012681397
-0.64829352
0.000969004
-0.69342177
0.00069546373
-0.74153303
0.00045373539
-0.79284037
0.00025027974
-0.84757393
8.9763489e-05
-0.90599282
-2.6185503e-05
-0.96837924
-9.923266e-05
-1.0350421
-0.00013328617
-1.1063165
-0.00013353267
-1.1825692
-0.00010666632
-1.2641939
-5.9933928e-05
-1.35163
-0.17845533
-0.12003266
-0.17771368
-0.044257183
-0.17585325
0.054802639
-0.17679793
0.072817783
-0.18072827
0.02937099
-0.1861582
-0.021122451
-0.18823937
-0.016644197
-0.10752637
-0.17736942
-0.0045010582
-0.17749034
0.13225264
-0.18502266
0.15252128
-0.19669467
0.090921458
-0.20885853
-0.037998513
-0.21162601
-0.1456343
-0.20085134
-0.14564418
-0.18440851
-0.076238328
-0.16514593
0.024892552
-0.17147913
0.069113027
-0.19848764
0.065514453
-0.22631154
0.044728977
-0.25049601
0.016782612
-0.26960771
-0.0088664207
-0.28304547
-0.022310301
-0.29411493
-0.022354717
-0.30727359
-0.015443673
-0.32487497
-0.0077926402
-0.3468205
-0.0021993605
-0.37212831
0.0010421589
-0.39989307
0.0025646523
-0.42957459
0.0029631215
-0.46099128
0.0027839499
-0.494174
0.0024053953
-0.52929931
0.001994578
-0.56659661
0.0016094175
-0.60628995
0.0012588421
-0.64858336
0.00094108641
-0.69366739
0.00065700883
-0.7417363
0.00041100102
-0.79300109
0.00020848404
-0.84769265
5.2756761e-05
-0.90607177
-5.6209646e-05
-0.96842226
-0.00012160074
-1.0350538
-0.00014832395
-1.1063017
-0.00014241517
-1.1825334
-0.00011104253
-1.2641428
-6.14928e-05
-1.3515685
-0.17864297
-0.10733873
-0.17964373
-0.11810261
-0.17799086
-0.042119575
-0.17633311
0.054337822
-0.17846289
0.070552399
-0.18383869
0.027051476
-0.19006541
-0.019296409
-0.19224575
-0.014470068
-0.0037509079
-0.17811957
0.13818358
-0.18342128
0.16115528
-0.19365666
0.100066
-0.20583921
-0.03703292
-0.20982412
-0.15583768
-0.20142263
-0.15996237
-0.18653315
-0.091841589
-0.16880525
0.017630442
-0.15788382
0.082457246
-0.18482335
0.079288997
-0.21226219
0.055501289
-0.23708385
0.022200569
-0.25591396
-0.010333112
-0.26814102
-0.028816332
-0.27653944
-0.029636828
-0.28683282
-0.020715633
-0.30200164
-0.010562526
-0.32210509
-0.0030726139
-0.34594725
0.0012765736
-0.37236273
0.003284552
-0.40061297
0.0038046712
-0.43041614
0.0035460493
-0.46175338
0.00302506
-0.49479366
0.0024851217
-0.52978985
0.0020054004
-0.56699259
0.0015899354
-0.60662105
0.0012234104
-0.64886568
0.00089636168
-0.69390675
0.00060775984
-0.74193306
0.00036195977
-0.79315457
0.00016380549
-0.8478037
1.5215566e-05
-0.90614319
-8.5429792e-05
-0.96845843
-0.00014247533
-1.0350596
-0.0001617753
-1.1062823
-0.00014991971
-1.1824945
-0.00011458972
-1.2640897
-6.2635523e-05
-1.3515058
-0.17991503
-0.0024788485
-0.18147599
-0.10550647
-0.1814272
-0.11466627
-0.17936959
-0.039083092
-0.17741872
0.053293649
-0.18064795
0.067361661
-0.18718401
0.02417008
-0.19387781
-0.017664346
-0.19614139
-0.012656865
0.142603
-0.18253898
0.16809998
-0.19036597
0.108065
-0.20165567
-0.035870678
-0.20700145
-0.16521542
-0.20044639
-0.17354684
-0.18783816
-0.10717785
-0.17119689
0.0093479666
-0.16052277
0.089433116
-0.16485969
0.094182752
-0.1997171
0.067639132
-0.22440003
0.028680182
-0.24356346
-0.012106713
-0.25414036
-0.037019274