/*--------------------------------*- C++ -*----------------------------------*\
| =========                 |                                                 |
| \\      /  F ield         | OpenFOAM: The Open Source CFD Toolbox           |
|  \\    /   O peration     | Version:  5.0                                   |
|   \\  /    A nd           | Web:      www.OpenFOAM.org                      |
|    \\/     M anipulation  |                                                 |
\*---------------------------------------------------------------------------*/
FoamFile
{
    version     2.0;
    format      ascii;
    class       surfaceScalarField;
    location    "180";
    object      phi_0;
}
// * * * * * * * * * * * * * * * * * * * * * * * * * * * * * * * * * * * * * //

dimensions      [0 3 -1 0 0 0 0];

internalField   nonuniform List<scalar> 
18820
(
-0.00039305386
-1.3578606
-0.00075914292
-1.2698637
-0.00037444015
-1.3574862
-0.0010980547
-1.1876612
-0.00072437714
-1.2695138
-0.00036010705
-1.3571261
-0.0014092797
-1.1108456
-0.0010498661
-1.1873357
-0.00069638694
-1.2691775
-0.00035559571
-1.3567705
-0.0016922324
-1.0390502
-0.0013510009
-1.1105445
-0.0010095267
-1.1870226
-0.00068723944
-1.2688458
-0.00035664262
-1.3564139
-0.0019466151
-0.97192769
-0.0016273818
-1.0387738
-0.0013006422
-1.1102533
-0.00099660553
-1.1867132
-0.00068969463
-1.2685128
-0.0003554201
-1.3560584
-0.0021720552
-0.90916246
-0.0018784261
-0.97167664
-0.0015702095
-1.0385042
-0.0012854892
-1.1099645
-0.0010015361
-1.1864013
-0.00068928426
-1.2681789
-0.00034416437
-1.3557143
-0.0023677891
-0.85046399
-0.0021041048
-0.90893678
-0.0018175178
-0.97142934
-0.0015552906
-1.0382344
-0.0012936934
-1.1096723
-0.0010045316
-1.1860861
-0.00066995741
-1.2678531
-0.00032423882
-1.35539
-0.0025327611
-0.79556412
-0.0023051779
-0.85026291
-0.002042192
-0.90871211
-0.0018061423
-0.97117848
-0.0015676099
-1.0379605
-0.0013023276
-1.1093745
-0.0009805905
-1.1857755
-0.00063300182
-1.2675444
-0.00030142671
-1.3550886
-0.0026661242
-0.7442124
-0.0024841441
-0.79538516
-0.0022449634
-0.85006014
-0.0020378353
-0.90848042
-0.0018244538
-0.97092164
-0.0015839779
-1.0376789
-0.0012774562
-1.1090776
-0.00092977526
-1.1854787
-0.00058904426
-1.2672568
-0.0002817905
-1.3548068
-0.0027693256
-0.69618054
-0.0026454561
-0.74405108
-0.0024289349
-0.79520119
-0.002250136
-0.84984784
-0.0020645864
-0.90824028
-0.0018515812
-0.97065404
-0.0015615012
-1.0373948
-0.0012172303
-1.1087902
-0.00086660232
-1.1852011
-0.00055038545
-1.2669882
-0.00026794246
-1.3545389
-0.0028451075
-0.65125209
-0.0027965073
-0.69602948
-0.0026010166
-0.743879
-0.0024424192
-0.7950089
-0.002287344
-0.84962508
-0.0021063421
-0.90798552
-0.0018346914
-0.97038085
-0.0014966113
-1.0371155
-0.0011378249
-1.108519
-0.00081021416
-1.1849413
-0.00052266372
-1.2667334
-0.0002582629
-1.3542806
-0.0029113357
-0.60920044
-0.0029617213
-0.65108688
-0.0027741669
-0.69585633
-0.0026142156
-0.74370721
-0.0024900499
-0.7948062
-0.0023479297
-0.8493835
-0.0020987643
-0.90772145
-0.0017689092
-0.97010855
-0.0014050013
-1.0368483
-0.001065187
-1.108264
-0.00076953258
-1.1846944
-0.00050340289
-1.2664883
-0.00024869629
-1.3540319
-0.0029706854
-0.56984433
-0.0031531587
-0.609009
-0.0029549786
-0.65090607
-0.0027623727
-0.69570818
-0.0026652908
-0.74353196
-0.0025732127
-0.79458091
-0.0023554169
-0.84912684
-0.0020355896
-0.90745477
-0.0016682883
-0.96984526
-0.0013181948
-1.0365953
-0.0010126354
-1.1080209
-0.00074111201
-1.1844567
-0.00048511276
-1.2662519
-0.00023538329
-1.3537965
-0.0030358137
-0.53301782
-0.0033531012
-0.56964439
-0.0031152365
-0.60884875
-0.0028618834
-0.65080656
-0.002795235
-0.69557823
-0.0027757893
-0.74332939
-0.0026073263
-0.794329
-0.0022989681
-0.84886347
-0.001927717
-0.90719534
-0.0015698996
-0.96959356
-0.0012548203
-1.0363531
-0.00097569706
-1.1077863
-0.00071439641
-1.1842274
-0.00046009275
-1.2660272
-0.00021648684
-1.3535801
-0.0031135696
-0.49856409
-0.003575962
-0.53279496
-0.0032419824
-0.56951764
-0.002894928
-0.6088157
-0.0028625866
-0.65073921
-0.0029507473
-0.69540327
-0.0028601513
-0.74307656
-0.0025639129
-0.79406406
-0.0021837011
-0.84860748
-0.0018197361
-0.90694551
-0.0014976117
-0.96935077
-0.0012102298
-1.0361186
-0.00094068582
-1.10756
-0.00067853792
-1.184009
-0.00042414385
-1.2658195
-0.00019272474
-1.3533873
-0.0032274275
-0.46632253
-0.0038342601
-0.49830579
-0.0033357898
-0.53270115
-0.0028768827
-0.56953569
-0.0028709226
-0.60880736
-0.0031012085
-0.65058874
-0.0031238193
-0.69513961
-0.0028383955
-0.74280208
-0.002437438
-0.79381032
-0.0020662875
-0.84836093
-0.0017412554
-0.90670186
-0.0014471675
-0.96911383
-0.0011676599
-1.0358916
-0.00089400074
-1.1073446
-0.00062718315
-1.183806
-0.00037813586
-1.2656341
-0.00016680475
-1.3532205
-0.0033617709
-0.43616353
-0.004169265
-0.46598753
-0.0034248416
-0.49821674
-0.002777052
-0.53280098
-0.0028336885
-0.56957292
-0.0032353829
-0.60867319
-0.0034151045
-0.65029746
-0.0031346737
-0.69484333
-0.0026907342
-0.74254878
-0.002306417
-0.79357019
-0.0019844531
-0.84811773
-0.0016882235
-0.90646081
-0.0013987366
-0.96888275
-0.0011105284
-1.035675
-0.00082804662
-1.1071437
-0.0005603884
-1.1836237
-0.00032726979
-1.2654736
-0.00014207293
-1.3530784
-0.0035934067
-0.40790591
-0.0046027216
-0.43573007
-0.0035030569
-0.46590931
-0.002578056
-0.49841573
-0.0027247144
-0.53290996
-0.0033591939
-0.56944911
-0.003749928
-0.60833837
-0.0034714916
-0.64996064
-0.0029476484
-0.69458641
-0.0025352736
-0.74231993
-0.0022234843
-0.79333116
-0.0019337116
-0.84787225
-0.0016370595
-0.90622248
-0.001332505
-0.96866078
-0.0010301324
-1.035473
-0.00074222171
-1.1069619
-0.00048464778
-1.1834663
-0.00027828063
-1.2653374
-0.00012107556
-1.3529574
-0.0038231483
-0.38149049
-0.0051845064
-0.40732412
-0.0035993595
-0.43563377
-0.0022288608
-0.46625851
-0.0024905563
-0.49864989
-0.0034938036
-0.53277535
-0.004141898
-0.56905714
-0.0038681563
-0.6079417
-0.003211473
-0.64969682
-0.0027455229
-0.69437617
-0.0024518956
-0.74209152
-0.0021819515
-0.79308292
-0.0018850489
-0.84762426
-0.0015640093
-0.90599098
-0.0012382077
-0.9684527
-0.00092583973
-1.0352893
-0.00064248789
-1.106804
-0.00041037962
-1.1833342
-0.00023621077
-1.2652223
-0.00010481577
-1.3528526
-0.004212731
-0.35665522
-0.0058933272
-0.38078167
-0.0036635818
-0.4072599
-0.0016981842
-0.43616445
-0.0020836401
-0.46666542
-0.003631104
-0.49851259
-0.0046254213
-0.53229182
-0.0043355958
-0.5685897
-0.0034898199
-0.60766336
-0.0029251791
-0.64951716
-0.0026580441
-0.69417002
-0.0024284479
-0.74184502
-0.0021446149
-0.79282336
-0.0018091696
-0.8473791
-0.0014563473
-0.90577284
-0.0011147775
-0.96826376
-0.00080309461
-1.0351287
-0.00054186103
-1.1066725
-0.00034609448
-1.1832243
-0.00020297314
-1.2651241
-9.2898532e-05
-1.3527597
-0.0045302069
-0.33345802
-0.0067939003
-0.35575464
-0.003802667
-0.38064259
-0.00092008171
-0.408038
-0.001455626
-0.43679246
-0.0037864897
-0.46651004
-0.0052572607
-0.49788075
-0.0048995887
-0.53172783
-0.0037624401
-0.56831708
-0.0030552785
-0.60753326
-0.0028234603
-0.64935175
-0.0026634396
-0.69393503
-0.0024168305
-0.74157281
-0.0020730661
-0.79255946
-0.0016890205
-0.84714642
-0.0013124373
-0.90557518
-0.00096814468
-0.96809871
-0.00067560876
-1.034995
-0.0004534598
-1.1065652
-0.00029512047
-1.1831322
-0.00017793563
-1.2650391
-8.4182617e-05
-1.3526755
-0.0051364108
-0.31140143
-0.0077748988
-0.33247702
-0.0039029413
-0.35565437
0.0001066838
-0.38166935
-0.00056154261
-0.40893209
-0.0039442082
-0.43663474
-0.0061049074
-0.46566239
-0.005617379
-0.49716296
-0.0040314187
-0.53145885
-0.0031027194
-0.56826964
-0.0029103031
-0.60744641
-0.0028701089
-0.64914508
-0.0027015376
-0.69365032
-0.0023624582
-0.74128341
-0.0019421322
-0.79230635
-0.0015223157
-0.84693654
-0.0011396205
-0.9054037
-0.00081262961
-0.96796169
-0.00056153584
-1.0348869
-0.00038284618
-1.1064774
-0.00025629298
-1.1830538
-0.00015931882
-1.264964
-7.7408845e-05
-1.3525981
-0.005908556
-0.29061664
-0.0090278726
-0.31014846
-0.0041596384
-0.33222033
0.0015473174
-0.357095
0.00067151866
-0.38290241
-0.0041369111
-0.40873938
-0.0072434438
-0.4354962
-0.0065461067
-0.46473366
-0.0042963498
-0.49689803
-0.0030206699
-0.5315409
-0.0028965294
-0.56828342
-0.0030235363
-0.60729299
-0.0029981739
-0.64884844
-0.0026878891
-0.69332489
-0.0022242412
-0.7410013
-0.0017485391
-0.79208013
-0.0013192552
-0.84675691
-0.00095413096
-0.9052622
-0.00067150004
-0.96785173
-0.00046905837
-1.0348007
-0.00032872392
-1.106405
-0.00022660631
-1.1829866
-0.00014515788
-1.2648962
-7.1515247e-05
-1.3525266
-0.0068081808
-0.27169309
-0.010386972
-0.28925754
-0.0042502357
-0.31005786
0.0032359631
-0.33390897
0.0022842824
-0.35870777
-0.0043099161
-0.38272941
-0.0087559833
-0.40722684
-0.0077609767
-0.43428133
-0.0045603737
-0.46446964
-0.0027548576
-0.49716384
-0.0027283878
-0.53170904
-0.0031258247
-0.56818113
-0.0033098305
-0.60698133
-0.0030654452
-0.64847088
-0.0025491155
-0.69300001
-0.0019966158
-0.74075323
-0.0015081091
-0.79189127
-0.0011005801
-0.84661046
-0.00078445746
-0.90514924
-0.00055585218
-0.96776493
-0.00039708526
-1.0347323
-0.00028675893
-1.1063449
-0.00020326289
-1.1829285
-0.00013345678
-1.2648343
-6.5688659e-05
-1.3524609
-0.0076595251
-0.25376065
-0.012003657
-0.27007641
-0.0042463411
-0.28926143
0.005504056
-0.31232595
0.0043258212
-0.33595051
-0.0045986521
-0.35841903
-0.010742467
-0.38074292
-0.0093271938
-0.40566063
-0.0048337103
-0.434008
-0.0022502172
-0.46497428
-0.0023290615
-0.49756317
-0.0031787203
-0.53165615
-0.0036470995
-0.56784386
-0.003522527
-0.60652425
-0.0029373457
-0.64808265
-0.0022746273
-0.692722
-0.0017064773
-0.74055486
-0.0012508122
-0.79174104
-0.0009007393
-0.84649418
-0.00064469146
-0.90506041
-0.00046434453
-0.96769767
-0.0003405393
-1.0346786
-0.00025268385
-1.1062954
-0.00018390078
-1.182878
-0.00012216081
-1.2647778
-5.9386191e-05
-1.3524015
-0.0093022851
-0.23492629
-0.013629243
-0.25213507
-0.0043866074
-0.26993614
0.0081848994
-0.29194227
0.0067405718
-0.31474071
-0.004794851
-0.33575431
-0.013313002
-0.3558485
-0.011356096
-0.37871402
-0.0051246474
-0.40536969
-0.0014318296
-0.43482639
-0.0016108571
-0.46569248
-0.0031312063
-0.49761068
-0.0040396694
-0.53126358
-0.0040834291
-0.56728296
-0.0034212477
-0.60604034
-0.0025941959
-0.64776308
-0.0019136563
-0.69251482
-0.0014011741
-0.7404045
-0.0010186955
-0.79162308
-0.00073656139
-0.84640231
-0.00053277664
-0.90499197
-0.00039090098
-0.96764731
-0.00029385002
-1.0346374
-0.00022324043
-1.1062561
-0.00016588481
-1.1828343
-0.00010969721
-1.2647275
-5.2460546e-05
-1.352349
-0.011176905
-0.21637555
-0.015635718
-0.23291981
-0.0046564864
-0.25186519
0.011412004
-0.27316324
0.009594945
-0.29479665
-0.0052459874
-0.31428957
-0.016551192
-0.33251612
-0.013900349
-0.35330424
-0.0054489105
-0.37838976
-0.00022118247
-0.40658034
-0.00046538774
-0.43597186
-0.0029210814
-0.46590261
-0.0045144069
-0.49713594
-0.0047885373
-0.53055847
-0.0040294939
-0.56667471
-0.0029724784
-0.60566206
-0.00212802
-0.64754872
-0.0015440081
-0.69237199
-0.001133294
-0.7402899
-0.000830819
-0.79152882
-0.00060456643
-0.84633052
-0.00044108099
-0.90494179
-0.00032897937
-0.96761218
-0.00025237098
-1.0346083
-0.00019574624
-1.1062262
-0.00014689868
-1.1827971
-9.5710026e-05
-1.2646842
-4.5264252e-05
-1.3523038
-0.013019402
-0.19950483
-0.017395514
-0.21461576
-0.0039341361
-0.23364216
0.014889053
-0.25534224
0.013083413
-0.27665171
-0.0059329065
-0.29410973
-0.020501826
-0.31033893
-0.017132796
-0.32928367
-0.0057920472
-0.35296111
0.0014899949
-0.38010094
0.0012233005
-0.40826903
-0.002478526
-0.43641441
-0.0050952235
-0.46532179
-0.0057139048
-0.49621058
-0.0048006398
-0.52978732
-0.0034281591
-0.56621903
-0.0023443312
-0.60544575
-0.0016667251
-0.647426
-0.0012345108
-0.69227077
-0.00092400993
-0.74019671
-0.00068105947
-0.79145233
-0.00049463724
-0.84627696
-0.00036199126
-0.90490878
-0.00027314922
-0.96759141
-0.00021326005
-1.0345907
-0.00016839104
-1.1062047
-0.00012603931
-1.1827668
-8.117533e-05
-1.2646483
-3.8472442e-05
-1.3522653
-0.014829629
-0.1836668
-0.018947755
-0.19795259
-0.0020454615
-0.21650443
0.019446459
-0.23819957
0.016973578
-0.2592324
-0.0067327654
-0.27585185
-0.025326303
-0.28928525
-0.021002305
-0.30646943
-0.0061726424
-0.32890308
0.0038188173
-0.35528993
0.0036006687
-0.3824783
-0.0017252714
-0.40902228
-0.0058053093
-0.43570432
-0.0069483883
-0.46408731
-0.0058143608
-0.49519685
-0.0039779492
-0.52923753
-0.0025569522
-0.56600641
-0.0017484926
-0.60536398
-0.0013056035
-0.64735491
-0.0010084333
-0.69218635
-0.00076221706
-0.74011555
-0.00055526038
-0.79139171
-0.00039757132
-0.84624138
-0.00028967581
-0.90489226
-0.00022057569
-0.96758409
-0.00017510442
-1.034584
-0.00013987683
-1.1061909
-0.00010381792
-1.1827441
-6.7647096e-05
-1.2646192
-3.2706735e-05
-1.3522326
-0.01849713
-0.19850527
-0.020249403
-0.18236515
0.00038298397
-0.20038103
0.024781324
-0.2218393
0.021198651
-0.24242464
-0.0066081189
-0.25935705
-0.031102952
-0.2700752
-0.025489414
-0.28479814
-0.0064713907
-0.30617068
0.0069112278
-0.33199549
0.0068040409
-0.3584933
-0.00056837543
-0.3836352
-0.0066726703
-0.40815492
-0.0086017771
-0.43405094
-0.0071670462
-0.46273462
-0.0046560528
-0.49451875
-0.0027544692
-0.52904001
-0.0017610447
-0.56599385
-0.0013206954
-0.60534889
-0.0010707035
-0.64729264
-0.0008459401
-0.69210262
-0.00062714163
-0.74004367
-0.0004416811
-0.7913476
-0.0003072216
-0.84622384
-0.00022108294
-0.90489175
-0.00016897025
-0.96759022
-0.00013604338
-1.0345879
-0.00010955575
-1.1061852
-8.2652412e-05
-1.1827291
-5.6191391e-05
-1.2645957
-2.8374595e-05
-1.3522042
-0.021675653
-0.19501823
-0.023322166
-0.1954325
0.0032952186
-0.18527738
0.030133992
-0.2057337
0.025086424
-0.22572707
-0.007011077
-0.24202169
-0.037282168
-0.25317783
-0.03090693
-0.26465769
-0.0066608267
-0.28460871
0.010934386
-0.31019384
0.01099793
-0.33618938
0.0010685654
-0.36013024
-0.0077252837
-0.38258259
-0.010798036
-0.40595866
-0.0089818063
-0.43223617
-0.0055114194
-0.46187926
-0.0029148915
-0.49435833
-0.0016646651
-0.52913639
-0.0012478289
-0.56606672
-0.0010911095
-0.60532849
-0.00092811718
-0.64721046
-0.00071549473
-0.69201427
-0.00050240797
-0.73998294
-0.00033290224
-0.79132192
-0.00021964487
-0.84622528
-0.00015263944
-0.90490808
-0.00011599487
-0.96761027
-9.5638589e-05
-1.0346018
-8.009077e-05
-1.1061877
-6.4904854e-05
-1.1827204
-4.7534214e-05
-1.2645765
-2.5686653e-05
-1.3521785
-0.024346244
-0.19125319
-0.025894486
-0.19244591
0.0048161557
-0.19695344
0.035340594
-0.19048399
0.028269429
-0.20891671
-0.0097546479
-0.2229835
-0.044303821
-0.23500003
-0.038179
-0.24590576
-0.0070061984
-0.26431232
0.015994063
-0.28966838
0.016281269
-0.31547717
0.0033055658
-0.33842638
-0.0090082538
-0.35884727
-0.013691794
-0.37968883
-0.011395892
-0.40354457
-0.0066050898
-0.4311425
-0.0030150372
-0.46177911
-0.0014035105
-0.49461948
-0.0010299724
-0.52935425
-0.0010454672
-0.56611236
-0.0010030413
-0.60525356
-0.00082586826
-0.64710009
-0.00059016126
-0.69192652
-0.00037655104
-0.73993929
-0.00022336016
-0.7913182
-0.00013022808
-0.84624769
-8.2205905e-05
-0.90494187
-6.2814931e-05
-0.9676431
-5.7184767e-05
-1.0346247
-5.5128857e-05
-1.1061975
-5.1268874e-05
-1.1827167
-4.2080171e-05
-1.2645601
-2.4656175e-05
-1.3521539
-0.026513337
-0.18745124
-0.027972279
-0.1891754
0.0071627551
-0.19479251
0.039188399
-0.20080125
0.030905738
-0.1931203
-0.013600028
-0.20507133
-0.052486969
-0.21480035
-0.046029379
-0.22714965
-0.0080548914
-0.24485707
0.022133212
-0.27045146
0.022762753
-0.29614987
0.006175612
-0.31834722
-0.010559363
-0.33687527
-0.017448085
-0.35509098
-0.014581937
-0.37650278
-0.0080073491
-0.40214231
-0.0030257274
-0.43113181
-0.00090440078
-0.46227822
-0.00059850692
-0.49505095
-0.00088792195
-0.5295118
-0.0010523755
-0.56606303
-0.00096182335
-0.60511761
-0.00071754694
-0.6469727
-0.00045111672
-0.69185195
-0.00024219596
-0.73992046
-0.00010820043
-0.79134023
-3.7935718e-05
-0.84629196
-1.2761582e-05
-0.90499192
-1.3412497e-05
-0.96768687
-2.4097779e-05
-1.0346557
-3.5902262e-05
-1.1062129
-4.2383834e-05
-1.1827164
-3.9705847e-05
-1.2645451
-2.5046186e-05
-1.3521288
-0.028144966
-0.1837249
-0.029598052
-0.18582546
0.010121358
-0.192134
0.043687705
-0.19929181
0.032811958
-0.20270747
-0.017953177
-0.18876715
-0.060699475
-0.19685882
-0.052414597
-0.20841513
-0.008912106
-0.22629244
0.029478507
-0.25220236
0.030444906
-0.27813362
0.0097327304
-0.29970699
-0.012478462
-0.31642812
-0.022269257
-0.3320541
-0.018708921
-0.350964
-0.0098007113
-0.37470942
-0.0029149401
-0.4022531
-7.7788946e-05
-0.43195843
0.00013368975
-0.46301042
-0.00055376063
-0.49538511
-0.0010676764
-0.52949649
-0.0011199343
-0.56590492
-0.0009004522
-0.6049347
-0.00057416852
-0.64684965
-0.00028940269
-0.69180475
-9.5351461e-05
-0.73993331
1.1857499e-05
-0.79139002
5.3151557e-05
-0.84635787
5.1887313e-05
-0.90505722
2.9625055e-05
-0.96774059
1.1077337e-06
-1.0346927
-2.3196954e-05
-1.1062321
-3.8348847e-05
-1.1827177
-3.969898e-05
-1.2645304
-2.6748549e-05
-1.3521021
-0.029223183
-0.18027635
-0.030747547
-0.1825754
0.01345913
-0.18916324
0.048574195
-0.19702049
0.035286553
-0.20176641
-0.022480437
-0.19818021
-0.068704164
-0.18076246
-0.057896675
-0.19137674
-0.0081459081
-0.20918133
0.038284234
-0.23509817
0.039639678
-0.26139714
0.01397953
-0.28238042
-0.014905432
-0.29728002
-0.02837286
-0.31032452
-0.023984789
-0.32677823
-0.012065689
-0.34869902
-0.002636664
-0.3749877
0.0011798134
-0.4035107
0.0012756389
-0.43310038
3.0506566e-05
-0.46359468
-0.0010149395
-0.49543785
-0.0013243781
-0.52929205
-0.0011569977
-0.56564837
-0.0007697739
-0.6047391
-0.0003835029
-0.64675555
-0.00010303959
-0.69179706
6.1580148e-05
-0.73998303
0.00013166768
-0.79146854
0.00013755393
-0.84644354
0.0001081455
-0.90513574
6.3511703e-05
-0.967803
1.8507511e-05
-1.0347344
-1.7215931e-05
-1.1062532
-3.8420514e-05
-1.182719
-4.3104971e-05
-1.2645141
-2.9565954e-05
-1.3520725
-0.029751837
-0.17730946
-0.031426603
-0.17959729
0.01696622
-0.18608249
0.053643203
-0.19423224
0.038124346
-0.19985829
-0.02666763
-0.19757921
-0.077335392
-0.18954898
-0.062816611
-0.17584252
-0.0062569395
-0.19326571
0.048436155
-0.21933325
0.050752084
-0.24621057
0.019426476
-0.26684408
-0.017902409
-0.27938344
-0.035992421
-0.28966045
-0.030546984
-0.30376232
-0.01489686
-0.32394706
-0.0021337006
-0.34920198
0.0029979364
-0.37680582
0.0029542497
-0.40518931
0.00095536871
-0.43402524
-0.00085140024
-0.46375822
-0.0015935547
-0.49516867
-0.001517479
-0.52893157
-0.0010710469
-0.5653471
-0.00054912689
-0.60457347
-0.00014697227
-0.64671162
0.00010180558
-0.69183728
0.00021854487
-0.74006991
0.00024210271
-0.79157309
0.00021082888
-0.84654622
0.00015247542
-0.90522471
8.6626846e-05
-0.96787112
2.7241672e-05
-1.0347789
-1.7353603e-05
-1.1062743
-4.3401455e-05
-1.1827187
-4.8634237e-05
-1.264495
-3.31604e-05
-1.3520393
-0.029781692
-0.17498911
-0.031610466
-0.17712559
0.020390098
-0.18302117
0.058611274
-0.19105056
0.041289872
-0.19739777
-0.030521541
-0.19600438
-0.085618317
-0.18929629
-0.070615181
-0.18175041
-0.0033572022
-0.17874226
0.059447555
-0.20427711
0.062598076
-0.23117924
0.026439602
-0.2532237
-0.020975457
-0.26377103
-0.045179173
-0.27019669
-0.038520726
-0.28168671
-0.018310537
-0.30034865
-0.0013319624
-0.3247488
0.0055078045
-0.35171185
0.0053082703
-0.37915984
0.0023328717
-0.40656682
-0.0005258287
-0.43435081
-0.0019311647
-0.46342061
-0.0020370648
-0.49464908
-0.0015100453
-0.52849257
-0.00082329605
-0.56507293
-0.00024667818
-0.60447377
0.00012249064
-0.6467323
0.000309604
-0.69192834
0.00036422879
-0.74019203
0.0003382052
-0.79170047
0.0002691428
-0.84666289
0.00018325692
-0.90532134
9.8914954e-05
-0.96794279
2.785783e-05
-1.0348241
-2.3148058e-05
-1.1062945
-5.1575713e-05
-1.1827157
-5.5741064e-05
-1.2644724
-3.7210059e-05
-1.3520021
-0.029300409
-0.17344307
-0.031332406
-0.17526717
0.023579826
-0.18031532
0.063202288
-0.18761219
0.044531455
-0.19429214
-0.033912695
-0.19400662
-0.093344959
-0.18827773
-0.078131975
-0.1817795
-0.0053072253
-0.17980039
0.071035651
-0.19033035
0.074445022
-0.21612406
0.033791192
-0.23853083
-0.023808024
-0.25039113
-0.055851085
-0.25309912
-0.048006882
-0.26071053
-0.022296114
-0.27770113
-0.00012243237
-0.30155818
0.0088686012
-0.32810959
0.0084924057
-0.35489598
0.0042879373
-0.38111491
2.0133945e-05
-0.40711278
-0.0023432828
-0.43393869
-0.0027733309
-0.46268435
-0.0021529118
-0.49400622
-0.0012388019
-0.52807706
-0.00043152389
-0.56488808
0.00011090347
-0.60446218
0.00040065461
-0.64682335
0.00050342429
-0.69206754
0.00049082634
-0.74034465
0.00041488369
-0.79184621
0.00031021902
-0.84678985
0.0002003875
-0.90542281
0.00010083784
-0.96801577
2.1281039e-05
-1.0348685
-3.3781511e-05
-1.1063123
-6.2248806e-05
-1.1827092
-6.3824258e-05
-1.2644458
-4.1413655e-05
-1.3519607
-0.17281912
-0.028443147
-0.03068797
-0.1740875
0.026435406
-0.17812275
0.067176727
-0.18428976
0.047699499
-0.19078023
-0.036857329
-0.19134751
-0.10044249
-0.18690909
-0.085191932
-0.18121778
-0.0068588813
-0.18022784
0.078970857
-0.18773559
0.085702564
-0.2015879
0.040577808
-0.22291067
-0.0259795
-0.23635935
-0.068306094
-0.23793613
-0.05951433
-0.24159167
-0.026968475
-0.25603817
0.0016424707
-0.27946604
0.013239489
-0.30592907
0.012667158
-0.33228435
0.0069594721
-0.35756752
0.00086798157
-0.38196275
-0.0028390309
-0.40661703
-0.0037921498
-0.43291987
-0.0030857025
-0.46175155
-0.0018494647
-0.49339555
-0.00073427164
-0.52777432
5.1896979e-05
-0.56482908
0.00048644944
-0.60454797
0.00066013155
-0.64698006
0.00067075258
-0.69224746
0.00059163716
-0.74052141
0.00046939817
-0.79200539
0.00033395361
-0.84692342
0.00020447872
-0.90552645
9.3596361e-05
-0.96808808
8.2746626e-06
-1.0349106
-4.7966764e-05
-1.1063266
-7.4491483e-05
-1.1826986
-7.2234419e-05
-1.264415
-4.5508814e-05
-1.3519152
-0.17363917
-0.029867923
-0.17331411
-0.027175713
0.028558318
-0.17621041
0.070426233
-0.18137226
0.050548657
-0.18713892
-0.039250334
-0.18838722
-0.10667397
-0.18511603
-0.091737033
-0.18036398
-0.0080443753
-0.18003228
0.087448133
-0.18870512
0.096617902
-0.19865093
0.045861512
-0.2068716
-0.029749605
-0.21914057
-0.082168053
-0.2224974
-0.073466428
-0.22398403
-0.033081723
-0.23547843
0.0041183884
-0.25851409
0.018793903
-0.28502045
0.017975833
-0.31123774
0.010499518
-0.33582439
0.0021039621
-0.3588035
-0.0034210337
-0.38138075
-0.0051735191
-0.40523566
-0.0044096662
-0.43159591
-0.0027396728
-0.46086135
-0.0011848782
-0.49294495
-7.6924309e-05
-0.5276455
0.0005653542
-0.56490798
0.00083785214
-0.60472569
0.0008823593
-0.64719167
0.00080299579
-0.69245882
0.00066341122
-0.74071542
0.00050180142
-0.79217323
0.00034130297
-0.84706024
0.00019698714
-0.90562984
7.8476205e-05
-0.96815829
-9.2912907e-06
-1.0349493
-6.4508127e-05
-1.1063366
-8.7398335e-05
-1.1826834
-8.0576037e-05
-1.2643799
-4.9363489e-05
-1.3518658
-0.17498139
0.029900533
-0.17445037
-0.028731666
-0.1751019
-0.025529248
0.072711954
-0.17849613
0.052890053
-0.18371365
-0.041066194
-0.18532306
-0.11187452
-0.18318668
-0.097495153
-0.17935791
-0.0089566312
-0.17945173
0.096343464
-0.18892761
0.10817078
-0.20025799
0.054802583
-0.207592
-0.035582612
-0.20103859
-0.096888529
-0.20442009
-0.089355462
-0.20660836
-0.040898277
-0.21616747
0.0070552045
-0.23841524
0.025706777
-0.26542696
0.024565519
-0.29161014
0.015040735
-0.31577896
0.0038409104
-0.33756134
-0.0040996443
-0.35812489
-0.0070140208
-0.37954025
-0.0062450281
-0.4034003
-0.004010229
-0.43032535
-0.0018374394
-0.46020878
-0.0002920577
-0.49272981
0.00063180361
-0.52771195
0.0010424796
-0.56511261
0.0011341051
-0.60497744
0.0010552892
-0.64744396
0.00089635229
-0.69269176
0.0007066696
-0.74092029
0.00051362831
-0.79234556
0.00033414428
-0.8471974
0.00017962923
-0.90573099
5.7010322e-05
-0.96822459
-3.0415182e-05
-1.0349834
-8.2307858e-05
-1.1063417
-0.00010034679
-1.1826636
-8.8512508e-05
-1.2643408
-5.2818e-05
-1.351813
-0.1764412
0.074171768
-0.17500345
0.030453615
-0.17644055
-0.027393017
-0.17762449
-0.023521355
0.054786434
-0.18039252
-0.042283023
-0.18249682
-0.11587235
-0.18132523
-0.10227638
-0.17840545
-0.009627749
-0.17868679
0.10533032
-0.18843859
0.12010139
-0.20085822
0.064483866
-0.20993928
-0.035269637
-0.20790497
-0.11127878
-0.18664834
-0.10405261
-0.18972294
-0.049295892
-0.19821075
0.010353374
-0.21946564
0.034175078
-0.24688354
0.03251468
-0.27337612
0.020737642
-0.29730704
0.0061811961
-0.31811924
-0.0048580437
-0.33680294
-0.009425483
-0.35571343
-0.0087443495
-0.37704093
-0.0057759666
-0.40163456
-0.002763547
-0.42939924
-0.00060592014
-0.45989492
0.00068340708
-0.49278142
0.0012874105
-0.52795688
0.0014384842
-0.56541699
0.0013584196
-0.60528057
0.0011745517
-0.64772216
0.00095229349
-0.69293739
0.00072391104
-0.74113057
0.00050736712
-0.79251878
0.0003146899
-0.84733246
0.00015430286
-0.90582829
3.0977461e-05
-0.96828598
-5.3482753e-05
-1.0350122
-0.00010038175
-1.1063416
-0.00011280128
-1.1826393
-9.5674105e-05
-1.2642979
-5.5813563e-05
-1.3517572
-0.17779464
0.056139869
-0.17539283
0.074561149
-0.1761459
0.030158961
-0.17925063
-0.02576688
-0.18061129
-0.021286373
-0.042574521
-0.18010102
-0.11857555
-0.17979362
-0.10593099
-0.17767061
-0.0099741437
-0.17805906
0.11401975
-0.18737621
0.13197541
-0.20031261
0.074428773
-0.21080313
-0.034151871
-0.21105704
-0.12221826
-0.1969655
-0.11650407
-0.17419688
-0.057038982
-0.18197985
0.01388075
-0.20173812
0.044218157
-0.22950872
0.041982817
-0.25635168
0.027662646
-0.28030113
0.0092719756
-0.30039782
-0.0057068829
-0.3172704
-0.012543293
-0.33368513
-0.012079169
-0.35237861
-0.0081818518
-0.37463504
-0.0040419693
-0.40035614
-0.0010426317
-0.42896253
0.00073275371
-0.45994427
0.0015905722
-0.49308458
0.001817104
-0.5283355
0.0017288963
-0.56578747
0.0015080493
-0.60561407
0.0012439894
-0.64801386
0.00097496459
-0.69318844
0.00071862333
-0.74134183
0.00048590035
-0.79268999
0.00028531788
-0.84746347
0.00012304792
-0.90592036
2.1769983e-06
-0.96834164
-7.7238849e-05
-1.0350353
-0.00011800367
-1.1063364
-0.00012426367
-1.1826108
-0.00010203328
-1.2642517
-5.8341892e-05
-1.3516989
-0.17838795
-0.041981205
-0.17605642
0.056803463
-0.17583439
0.074249647
-0.17820817
0.029116499
-0.18246044
-0.023917732
-0.18423371
-0.018903614
-0.11994465
-0.17873192
-0.10837291
-0.17735171
-0.010060148
-0.1775846
0.12207959
-0.1861189
0.14328962
-0.19869043
0.084672623
-0.21055646
-0.033171502
-0.2117835
-0.13297595
-0.20029936
-0.13177073
-0.18169884
-0.063828932
-0.16740693
0.017535474
-0.18563457
0.055637089
-0.21315705
0.05298399
-0.2405099
0.035933045
-0.26462208
0.013209566
-0.28423872
-0.0065952917
-0.29950941
-0.016515928
-0.31329777
-0.016472787
-0.32929151
-0.011380729
-0.34917973
-0.0057617927
-0.37291522
-0.0016315227
-0.39976725
0.0007994853
-0.42902926
0.001975837
-0.46032953
0.0023007567
-0.49356823
0.0021904869
-0.52879709
0.0019123271
-0.56619174
0.0015897578
-0.60595984
0.0012703845
-0.64830928
0.0009695916
-0.69343941
0.000694734
-0.74155066
0.00045223657
-0.79285691
0.00024846594
-0.84758889
8.7927417e-05
-0.90600611
-2.7888766e-05
-0.96839099
-0.0001007305
-1.0350526
-0.00013456777
-1.1063261
-0.00013458646
-1.1825782
-0.00010744977
-1.2642026
-6.0370293e-05
-1.3516385
-0.17848865
-0.11984395
-0.17767024
-0.040367392
-0.1758519
0.056820968
-0.17685499
0.072896471
-0.18084673
0.027502788
-0.18618752
-0.021963918
-0.18818653
-0.016523782
-0.10968764
-0.17741719
-0.010050112
-0.17736174
0.12919578
-0.1847008
0.15348639
-0.19631566
0.094666812
-0.20868462
-0.031760365
-0.2119676
-0.14324502
-0.20151442
-0.14690606
-0.18516402
-0.079816501
-0.16571127
0.021097873
-0.17096933
0.067790742
-0.19778823
0.065513328
-0.22568639
0.045485884
-0.25006273
0.018078651
-0.26949116
-0.0075647277
-0.28326928
-0.021517955
-0.29450739
-0.022139565
-0.30763099
-0.015564094
-0.32510815
-0.0080117657
-0.34692976
-0.0023953856
-0.37215136
0.00090359409
-0.39987136
0.0024842622
-0.42953769
0.0029297986
-0.46095858
0.0027770689
-0.49415481
0.0024099166
-0.52929468
0.002001622
-0.56660361
0.0016149446
-0.6063044
0.0012617851
-0.64860147
0.00094176315
-0.69368644
0.00065616577
-0.74175459
0.00040934525
-0.79301779
0.00020650972
-0.84770748
5.0764804e-05
-0.90608476
-5.805943e-05
-0.96843366
-0.00012324153
-1.0350639
-0.00014973702
-1.106311
-0.00014358133
-1.1825421
-0.00011189629
-1.264151
-6.1960827e-05
-1.3515765
-0.17865143
-0.10952486
-0.179621
-0.11789319
-0.1778986
-0.038320688
-0.17632216
0.056288137
-0.17854253
0.070592276
-0.18398193
0.02529719
-0.19009721
-0.020053234
-0.19218789
-0.014321362
-0.0094493669
-0.17801794
0.13500837
-0.18317433
0.16212185
-0.19333627
0.10402667
-0.20567552
-0.030296845
-0.21014814
-0.15314034
-0.20207228
-0.16113965
-0.18728084
-0.095562006
-0.16941852
0.013161775
-0.15777517
0.080889717
-0.18406831
0.079296025
-0.21157092
0.056384857
-0.23658537
0.023795005
-0.25577909
-0.0086265476
-0.26842934
-0.027749104
-0.27703813
-0.029359688
-0.28728726
-0.020899375
-0.30229571
-0.010880184
-0.32223973
-0.0033546669
-0.34597048
0.0010782688
-0.37232603
0.0031683961
-0.40055549
0.0037549068
-0.4303628
0.0035358794
-0.46171739
0.0030326751
-0.49477757
0.0024974183
-0.52979047
0.0020158931
-0.56700456
0.0015965966
-0.60663921
0.0012264591
-0.64888617
0.00089678548
-0.69392706
0.00060660419
-0.74195185
0.00036001744
-0.7931713
0.00016158518
-0.8478183
1.3017295e-05
-0.90615584
-8.7458886e-05
-0.96846944
-0.00014427698
-1.0350694
-0.00016333161
-1.1062912
-0.00015119072
-1.1825028
-0.00011550743
-1.2640975
-6.313005e-05
-1.3515134
-0.17986665
-0.0082341443
-0.18145941
-0.10768645
-0.1813417
-0.11445009
-0.17921745
-0.035425396
-0.17740242
0.055148027
-0.18074705
0.067357399
-0.18734433
0.022544305
-0.19391027
-0.018330854
-0.19608142
-0.012480413
0.13938861
-0.18239818
0.16906315
-0.19011563
0.11220343
-0.20151303
-0.028675805
-0.20729656
-0.16224695
-0.20104152
-0.1746531
-0.18855883
-0.11100459
-0.17183825
0.0042210913
-0.16047783
0.087283814
-0.16416927
0.094194244
-0.19896653
0.06863808
-0.22382414
0.030586196
-0.24337656
-0.009912537