/*--------------------------------*- C++ -*----------------------------------*\
| =========                 |                                                 |
| \\      /  F ield         | OpenFOAM: The Open Source CFD Toolbox           |
|  \\    /   O peration     | Version:  5.0                                   |
|   \\  /    A nd           | Web:      www.OpenFOAM.org                      |
|    \\/     M anipulation  |                                                 |
\*---------------------------------------------------------------------------*/
FoamFile
{
    version     2.0;
    format      ascii;
    class       volScalarField;
    location    "180";
    object      pMean;
}
// * * * * * * * * * * * * * * * * * * * * * * * * * * * * * * * * * * * * * //

dimensions      [0 2 -2 0 0 0 0];

internalField   nonuniform List<scalar> 
9520
(
1.9733083e-05
2.041766e-05
7.5627326e-05
2.1542633e-05
7.759467e-05
0.00012290216
2.2788214e-05
8.0893514e-05
0.00012622727
0.00016777395
2.3923865e-05
8.4835925e-05
0.0001319561
0.00017284067
0.00020643031
2.4696081e-05
8.8803657e-05
0.00013895789
0.00018155734
0.00021347672
0.00023940448
2.4934888e-05
9.2154012e-05
0.00014620443
0.00019239435
0.00022572603
0.00024872679
0.00026577568
2.4407716e-05
9.438062e-05
0.00015267469
0.00020391508
0.00024121523
0.00026509335
0.00027765536
0.00028481432
2.3040962e-05
9.5071064e-05
0.00015754608
0.000214716
0.00025811378
0.00028613872
0.00029869726
0.00029941772
0.00029603088
2.0733434e-05
9.4052139e-05
0.00016001126
0.00022362452
0.00027465225
0.00030967566
0.0003261524
0.00032552858
0.00031350848
0.00029868008
1.7957697e-05
9.0750898e-05
0.0001596247
0.00022961145
0.00028931966
0.00033357789
0.00035750084
0.00036009133
0.00034500516
0.00031901894
0.00029248963
1.3688296e-05
8.5213967e-05
0.00015587568
0.00023195074
0.00030076966
0.00035597558
0.00039029185
0.00040031375
0.00038720362
0.00035595642
0.00031561633
0.00027721701
8.9892829e-06
7.6514893e-05
0.00014880707
0.00022978819
0.00030797099
0.00037514545
0.00042233663
0.00044346193
0.00043710724
0.00040602296
0.00035792302
0.00030288744
0.00025285046
7.9217317e-07
6.6291889e-05
0.00013744294
0.00022296597
0.00030994337
0.0003897111
0.0004516122
0.00048702243
0.00049177611
0.00046612623
0.00041588234
0.00035018036
0.00028073072
0.00021962602
-5.1883217e-06
5.2168323e-05
0.00012290797
0.00021086229
0.00030622565
0.00039838743
0.00047642723
0.00052864017
0.00054848026
0.0005332042
0.00048641105
0.00041564121
0.00033245824
0.00024922587
0.00017789806
-1.6730108e-05
3.9497497e-05
0.00010292042
0.00019465048
0.00029589207
0.00040076371
0.0004952725
0.00056631902
0.0006046187
0.00060435397
0.00056642729
0.0004963374
0.00040478894
0.00030454976
0.00020862539
0.00012832764
-2.2363508e-05
2.0309418e-05
8.2616571e-05
0.00017213036
0.00028013787
0.00039583749
0.00050712992
0.00059833606
0.00065787183
0.0006767443
0.0006529489
0.00058930254
0.00049507675
0.00038271252
0.00026651777
0.00015947875
7.1585274e-05
-3.6286501e-05
7.3022779e-06
5.5279954e-05
0.0001478624
0.00025695909
0.0003842795
0.00051090421
0.00062338311
0.00070611277
0.00074779238
0.00074299284
0.00069158935
0.00060060364
0.00048150493
0.0003492096
0.0002186794
0.00010241208
8.6835871e-06
-4.208666e-05
-1.6857375e-05
3.1792995e-05
0.00011534363
0.00023050832
0.0003640164
0.00050702743
0.0006400081
0.00074771229
0.00081505669
0.00083370344
0.00080015298
0.00071856815
0.00059861667
0.00045507433
0.00030423808
0.00016152439
3.8355519e-05
-5.9389064e-05
-5.6989836e-05
-2.8599253e-05
-1.9732137e-06
8.5017495e-05
0.00019446423
0.00033870702
0.00049324987
0.00064832798
0.00078103102
0.00087657809
0.00092233487
0.000911956
0.00084595573
0.00073155541
0.00058235813
0.00041527948
0.0002480576
9.5824837e-05
-3.1779842e-05
-0.00013139479
-6.3271872e-05
-5.6956928e-05
-2.6566502e-05
4.4140736e-05
0.00015896822
0.00030242661
0.00047272862
0.00064597057
0.00080586162
0.00093040893
0.0010066503
0.0010239811
0.00097962725
0.00087747208
0.00072902738
0.00055076851
0.00036203801
0.00018119776
2.2417665e-05
-0.00010678751
-0.00020626335
-7.6240998e-05
-7.1332267e-05
-6.6773453e-05
9.4984869e-06
0.00011107744
0.00026471383
0.00043999931
0.00063547452
0.00081973445
0.00097591715
0.0010843556
0.0011336222
0.0011164014
0.0010332426
0.00089253789
0.00070929921
0.00050331845
0.00029553783
0.00010435763
-5.7570804e-05
-0.00018557578
-0.00028273114
-8.4906837e-05
-0.00010243259
-9.1984068e-05
-3.8642916e-05
6.8127422e-05
0.00021252755
0.00040421898
0.00061174555
0.00082452526
0.0010105494
0.0011542891
0.001238203
0.001253295
0.0011955363
0.0010699018
0.0008887965
0.00067128642
0.00043972639
0.0002162461
1.8520482e-05
-0.00014304724
-0.00026682116
-0.00035968393
-9.2337903e-05
-0.00012222833
-0.00013659195
-7.5794423e-05
1.051473e-05
0.00016371855
0.00035213941
0.00058357449
0.00081548149
0.0010358029
0.0012136911
0.0013360428
0.0013872535
0.001361028
0.0012577521
0.0010865537
0.00086449859
0.00061410804
0.00036012096
0.00012492874
-7.5252277e-05
-0.0002326697
-0.00034937912
-0.00043589875
-0.00010274248
-0.00015666066
-0.00016452221
-0.00013124289
-3.8010864e-05
9.7498697e-05
0.00030152624
0.00053766335
0.000801057
0.0010469582
0.001263796
0.0014242404
0.0015160652
0.0015263672
0.0014525187
0.0012992681
0.0010806905
0.00081806731
0.00053744424
0.00026494954
2.2533426e-05
-0.00017562622
-0.00032522441
-0.00043196373
-0.00051034468
-0.00010763251
-0.00018062962
-0.00021467523
-0.00017211184
-0.00010596784
3.7711701e-05
0.00023087359
0.00049150476
0.00076797063
0.0010519497
0.0012996575
0.0015033378
0.0016365267
0.0016887776
0.0016505352
0.0015232331
0.0013167773
0.0010499723
0.00074859703
0.00044128223
0.00015494643
-8.9667535e-05
-0.00028130291
-0.0004192933
-0.0005134543
-0.00058199827
-0.00011400133
-0.00021737653
-0.00025550477
-0.00023697733
-0.00016338073
-4.5327782e-05
0.0001635522
0.00042282999
0.00073345215
0.0010375784
0.0013285903
0.0015681998
0.0017483723
0.0018446181
0.0018484918
0.0017545022
0.0015690456
0.0013071292
0.00099275915
0.00065548762
0.00032604593
3.1222764e-05
-0.00021033042
-0.00039075692
-0.00051362804
-0.00059272324
-0.00064999081
-0.0001198399
-0.00024866921
-0.00030510829
-0.00029614522
-0.00024375672
-0.00012145689
6.9445166e-05
0.00035487944
0.00067465586
0.0010207314
0.0013374775
0.0016253297
0.0018463397
0.001992786
0.0020423605
0.0019893073
0.0018333576
0.0015859738
0.0012678325
0.00090775834
0.00053870331
0.00019253315
-0.00010491492
-0.00033784708
-0.00050259205
-0.0006069128
-0.00066882574
-0.00071353213
-0.00012643791
-0.00027135591
-0.00035879674
-0.00036900487
-0.00032600015
-0.00022395643
-2.369362e-05
0.00025651794
0.00061495075
0.00097769316
0.0013431069
0.0016613795
0.001935924
0.0021278874
0.0022301159
0.0022232453
0.0021054746
0.0018822337
0.0015705998
0.0011968081
0.00079431785
0.00039858195
4.1909109e-05
-0.00025184402
-0.00047067348
-0.00061526413
-0.00069804864
-0.00074086767
-0.00077194708
-0.0001282024
-0.00030450005
-0.0004060164
-0.00045387915
-0.0004299507
-0.00033540431
-0.00014827986
0.00015394175
0.0005223385
0.00093194705
0.0013199351
0.0016933247
0.002003677
0.0022543626
0.0024061536
0.0024534056
0.002380688
0.0021913101
0.0018968232
0.0015199444
0.0010926227
0.00065216661
0.00023599945
-0.00012431317
-0.00040787824
-0.00060704367
-0.00072741528
-0.00078592729
-0.00080806012
-0.00082467596
-0.00012756728
-0.0003304091
-0.00046283955
-0.00053495775
-0.00055275389
-0.00047886301
-0.00028766696
1.1932141e-05
0.00042050321
0.00085046038
0.0012919462
0.0016940407
0.0020658156
0.0023587605
0.0025738076
0.0026737631
0.0026552792
0.0025082251
0.0022416935
0.0018731933
0.0014317095
0.00095427817
0.00048170104
5.2221069e-05
-0.00030435733
-0.00057105022
-0.00074525842
-0.00083759089
-0.00086955884
-0.0008697225
-0.00087127786
-0.00012146586
-0.00036741433
-0.00051494463
-0.00062523614
-0.00067966971
-0.00065060043
-0.00047165418
-0.00015096549
0.00027185621
0.00075461598
0.0012240624
0.0016871015
0.0020941755
0.0024564623
0.0027197655
0.0028866491
0.0029226156
0.002828487
0.0025998335
0.0022516967
0.0018080823
0.0013040233
0.00078147864
0.00028375905
-0.00015103953
-0.0004961267
-0.00073934871
-0.00088347246
-0.00094453584
-0.00094803839
-0.00092529589
-0.00091143309
-0.00011459625
-0.00040044841
-0.00058094334
-0.00071123368
-0.00081556889
-0.00083685922
-0.00070062074
-0.00037393496
9.6202168e-05
0.00060531102
0.0011366633
0.0016347443
0.0021129783
0.0025175205
0.0028581924
0.0030788049
0.0031840099
0.0031447776
0.0029661032
0.0026497744
0.0022170633
0.0016986483
0.0011357311
0.00057444628
5.9788865e-05
-0.00037169782
-0.00069736497
-0.00091058796
-0.0010201278
-0.00104707
-0.0010206098
-0.00097436466
-0.00094494968
-0.00010396022
-0.00044435859
-0.00064626979
-0.00081662294
-0.00095103887
-0.0010344321
-0.00095725328
-0.00065567369
-0.00015766194
0.00041810348
0.0009873109
0.0015559957
0.0020802474
0.0025676989
0.0029584273
0.0032629944
0.0034261369
0.0034572905
0.0033326205
0.003061592
0.0026528808
0.0021338801
0.0015427498
0.0009261877
0.00033409599
-0.00018829937
-0.00060733795
-0.00090559427
-0.0010828211
-0.0011536756
-0.0011441948
-0.0010866371
-0.0010166474
-0.00097173618
-9.1654863e-05
-0.00049251816
-0.00072364478
-0.00092328968
-0.001113735
-0.0012334526
-0.001232217
-0.00098968645
-0.00048512248
0.000138592
0.00078677926
0.0014045647
0.002015374
0.0025610928
0.0030468274
0.0034083547
0.0036604444
0.0037524467
0.0036981433
0.0034788631
0.0031089875
0.0026040883
0.0019989319
0.0013386984
0.00067562696
6.1981425e-05
-0.00045811209
-0.0008552925
-0.0011184179
-0.0012539819
-0.0012827475
-0.0012349992
-0.0011456265
-0.0010519753
-0.00099179205
-7.9632074e-05
-0.00053964996
-0.00080666487
-0.0010459458
-0.0012780067
-0.0014741464
-0.0015066678
-0.0013511425
-0.000897635
-0.00023241871
0.00048164752
0.0011858862
0.0018672761
0.0025180135
0.0030734419
0.0035420147
0.0038557388
0.0040403479
0.0040487023
0.0038987221
0.0035766039
0.0031023576
0.0024989778
0.0018093784
0.0010857507
0.0003849309
-0.00023968881
-0.00074674002
-0.00111264
-0.0013332728
-0.0014222581
-0.0014060201
-0.0013186704
-0.0011972945
-0.0010802639
-0.0010051957
-6.5398262e-05
-0.00058585288
-0.0008878162
-0.0011820211
-0.0014608105
-0.001716727
-0.0018466524
-0.0017082033
-0.0013527688
-0.00072897945
6.4287838e-05
0.00084998908
0.0016377158
0.0023815309
0.0030602477
0.0036096202
0.0040391613
0.004289414
0.0043931588
0.0043068859
0.0040516827
0.0036192713
0.0030360479
0.0023335081
0.001563275
0.00078385593
5.5833962e-05
-0.00056810354
-0.0010510364
-0.0013763486
-0.0015477801
-0.001585811
-0.0015223486
-0.0013945265
-0.0012414447
-0.0011015353
-0.0010120933
-5.0082982e-05
-0.00062539826
-0.00096814755
-0.0013165067
-0.0016628321
-0.001979102
-0.002190376
-0.0021642524
-0.0018046193
-0.0012929597
-0.00052083602
0.00037007188
0.0012714063
0.002150433
0.0029442492
0.0036360154
0.0041533364
0.0045263895
0.0046993536
0.0047103393
0.0045191459
0.0041497224
0.0036003799
0.002904844
0.002104423
0.0012593392
0.00043396312
-0.00030923676
-0.00091999931
-0.0013675874
-0.001643465
-0.0017595016
-0.0017430652
-0.0016306577
-0.001462197
-0.0012779381
-0.0011158852
-0.0010126866
-3.4863861e-05
-0.00065634602
-0.0010378827
-0.001450234
-0.0018611289
-0.0022709516
-0.0025553043
-0.0026317625
-0.002396849
-0.00185988
-0.001201639
-0.00031604161
0.00073456302
0.0017626153
0.002721832
0.0035515282
0.0042257733
0.0046906967
0.0049932214
0.0050766702
0.0049839805
0.0046780553
0.0041855003
0.0035133564
0.0027039376
0.0018090694
0.00089737077
3.7775717e-05
-0.00070713258
-0.0012916808
-0.0016928311
-0.0019109401
-0.0019662805
-0.0018924502
-0.0017301464
-0.0015214079
-0.001306757
-0.0011234844
-0.0010072376
-2.0874599e-05
-0.00067600821
-0.0010936618
-0.0015704007
-0.0020554303
-0.0025561598
-0.0029623593
-0.0031232303
-0.0030147669
-0.0026020496
-0.0018990339
-0.001127825
-5.2236401e-05
0.0011841925
0.0023217319
0.0033519122
0.0041796469
0.0048130453
0.005211264
0.0054303853
0.0054134265
0.0052067251
0.004775534
0.0041514038
0.003351972
0.0024289822
0.0014458375
0.00047808133
-0.000401984
-0.0011341013
-0.0016791039
-0.0020230623
-0.0021758915
-0.002165929
-0.0020327194
-0.001820225
-0.0015719628
-0.0013279933
-0.0011245564
-0.00099605571
-0.00068044733
-1.8052629e-05
-0.0011329647
-0.0016712881
-0.0022286125
-0.0028314362
-0.0033596831
-0.0036758586
-0.0036623564
-0.0033895274
-0.002807126
-0.0019756835
-0.0010076696
0.00031433802
0.0017130283
0.0029554506
0.0040119939
0.0048091051
0.0053872688
0.0057054597
0.0058301756
0.0057026424
0.0053707026
0.0048032706
0.0040398506
0.0031100949
0.0020764785
0.001013848
3.3122053e-06
-0.00088183455
-0.0015857984
-0.0020779463
-0.0023546079
-0.0024354212
-0.0023566434
-0.0021627796
-0.0019005051
-0.0016138029
-0.001341812
-0.0011193897
-0.00097948533
-0.0011493276
-0.0006767976
-2.6918716e-05
-0.0017474655
-0.0023733057
-0.0030764723
-0.0037397581
-0.0042190542
-0.0043933587
-0.0042170229
-0.003782301
-0.0030757668
-0.0020242963
-0.00078802924
0.00077050796
0.0023355433
0.0036328668
0.0046801868
0.0054289199
0.0059386757
0.0061661327
0.0061869107
0.0059372255
0.0054667303
0.004752252
0.0038429902
0.0027822227
0.001643954
0.00051363745
-0.00052411199
-0.0013974133
-0.0020574174
-0.002483743
-0.0026837593
-0.0026869729
-0.0025367082
-0.0022818647
-0.0019707075
-0.0016469751
-0.0013484379
-0.0011083027
-0.00095787497
-0.0017873963
-0.0011511761
-0.00066475717
-3.9168621e-05
-0.0024811179
-0.0032794965
-0.0040783262
-0.0047393229
-0.0051220936
-0.0051552873
-0.004810642
-0.0042681198
-0.0033390813
-0.0019774005
-0.00045953204
0.0013533371
0.0030097398
0.0043245896
0.0053421872
0.0060287682
0.0064599467
0.0065885447
0.0064939298
0.006107539
0.0054846801
0.004613033
0.0035533046
0.0023636834
0.0011301859
-5.3092754e-05
-0.0011002364
-0.0019436699
-0.0025437711
-0.0028919096
-0.0030070469
-0.0029280975
-0.002704848
-0.002389351
-0.0020306958
-0.0016716065
-0.0013481498
-0.0010916553
-0.00093159616
-0.0025348939
-0.0017996386
-0.0011377942
-0.00063641732
-5.2585948e-05
-0.0034258538
-0.0043566783
-0.0052087519
-0.005826195
-0.0061012575
-0.0059788121
-0.0055282825
-0.0047779856
-0.0035099583
-0.0018139446
1.7991241e-05
0.0020100323
0.0037029664
0.0050146095
0.0059893456
0.0066020249
0.0069482967
0.0069676495
0.0067424401
0.0062029226
0.0054135129
0.0043759725
0.0031638477
0.0018511361
0.00053541257
-0.00068321517
-0.0017201202
-0.0025148776
-0.0030394174
-0.0032979469
-0.0033211389
-0.0031568096
-0.0028599245
-0.0024848534
-0.0020804198
-0.0016878989
-0.0013413127
-0.0010698453
-0.00090102876
-0.0034939546
-0.0025440474
-0.0017831856
-0.0011008151
-0.00059684598
-6.5375087e-05
-0.0045530928
-0.0056000402
-0.0064712649
-0.0070235432
-0.0071685777
-0.0069626549
-0.0062992414
-0.0052072292
-0.0035625216
-0.0014903654
0.00058632842
0.0026918229
0.0044016861
0.0056954792
0.0066137049
0.0071479993
0.0074008066
0.0072959941
0.0069209104
0.0062107133
0.005241612
0.0040317609
0.0026687815
0.0012425965
-0.00013868424
-0.0013723619
-0.002377804
-0.0031048357
-0.0035387729
-0.0036974748
-0.0036231182
-0.0033713043
-0.0030011672
-0.0025680468
-0.0021199698
-0.001696215
-0.0013283768
-0.0010432843
-0.00086654177
-0.0046407352
-0.0034908714
-0.002507205
-0.0017276551
-0.0010473628
-0.00055076418
-7.6333467e-05
-0.0058820565
-0.0070181371
-0.0078776825
-0.0083366579
-0.0084299733
-0.0080341034
-0.0070108697
-0.0055221905
-0.0034537947
-0.0010679443
0.0012008392
0.003388051
0.0051011274
0.0063581924
0.0072173276
0.007668089
0.0078121857
0.0075618888
0.0070159036
0.0061176055
0.0049570872
0.0035716137
0.0020633524
0.00053778864
-0.00088894028
-0.0021147769
-0.0030665317
-0.0037069378
-0.0040362738
-0.0040864481
-0.0039103365
-0.0035702014
-0.0031278137
-0.0026388603
-0.0021496761
-0.0016970735
-0.0013097724
-0.0010123021
-0.00082847372
-0.0060143425
-0.0046221911
-0.003416727
-0.0024145866
-0.0016426409
-0.00098023779
-0.00049930293
-8.7094289e-05
-0.0074233684
-0.0086112574
-0.009424223
-0.009874519
-0.0098152908
-0.0090737436
-0.0076192047
-0.005675504
-0.0032386165
-0.00058770704
0.0018510697
0.0040874685
0.0057906504
0.0070067074
0.0078059613
0.0081581177
0.0081712619
0.0077505484
0.0070120153
0.005909264
0.0045487276
0.0029879025
0.001344579
-0.00026193152
-0.0017104971
-0.0029035915
-0.003778835
-0.0043143723
-0.004526571
-0.0044611431
-0.0041805897
-0.0037521795
-0.0032394904
-0.0026974952
-0.0021701242
-0.0016908873
-0.0012856974
-0.00097713614
-0.00078719176
-0.0076293325
-0.0059926199
-0.0044979398
-0.0032638244
-0.0022828435
-0.0015342675
-0.00090218714
-0.00044855617
-9.5746928e-05
-0.0091665229
-0.010364686
-0.011219208
-0.011571171
-0.011198797
-0.010030514
-0.0080815809
-0.0057195761
-0.0029560325
-4.6297092e-05
0.0025245901
0.0047826929
0.0064756223
0.0076521025
0.008378043
0.0086076933
0.0084617946
0.0078451524
0.006892561
0.0055714442
0.0040055142
0.0022745447
0.00051132949
-0.0011532031
-0.0025969055
-0.0037307778
-0.0045067549
-0.0049203504
-0.0050046245
-0.0048182684
-0.0044317942
-0.0039163691
-0.003336277
-0.0027446076
-0.0021816669
-0.0016776055
-0.001256209
-0.00093822219
-0.00074320502
-0.0094627495
-0.0076255074
-0.0058221385
-0.0042678009
-0.0030550895
-0.002120049
-0.0014081864
-0.0008227164
-0.00039859476
-0.00010027104
-0.011087723
-0.012383159
-0.013203256
-0.013297622
-0.012523627
-0.010856826
-0.0084364807
-0.0056946379
-0.002595294
0.00054019075
0.0032062796
0.005480194
0.0071746388
0.0082974048
0.0089253475
0.0089996389
0.0086648852
0.0078271855
0.0066405492
0.0050900799
0.0033178801
0.001427257
-0.00043520634
-0.0021304879
-0.0035400242
-0.0045873999
-0.0052420256
-0.0055183032
-0.0054657908
-0.0051547214
-0.0046623488
-0.0040625054
-0.0034188061
-0.0027804403
-0.0021838835
-0.0016570429
-0.0012220376
-0.000896581
-0.00069700915
-0.011483875
-0.0094785315
-0.0074131122
-0.0055064732
-0.0039616779
-0.0028056193
-0.0019333952
-0.0012777225
-0.00074022406
-0.00035387682
-0.00010438409
-0.013275187
-0.01461195
-0.015248335
-0.014992402
-0.01374456
-0.011592188
-0.0087139589
-0.0055786217
-0.0021849985
0.0011493458
0.0039061239
0.0062133561
0.0078936315
0.0089346022
0.0094293026
0.0093133218
0.0087606429
0.0076773464
0.0062384322
0.0044517451
0.0024778348
0.00044408635
-0.0014914005
-0.0031860878
-0.004530298
-0.0054638348
-0.0059763809
-0.0061019662
-0.0059056308
-0.0054678909
-0.0048714752
-0.0041912204
-0.0034871424
-0.0028040742
-0.0021762738
-0.0016305218
-0.0011852735
-0.00085311628
-0.0006484836
-0.013754549
-0.011519249
-0.0092131572
-0.0070035032
-0.0050867188
-0.0036026162
-0.0025276263
-0.0017396761
-0.0011419961
-0.0006626285
-0.00032116212
-0.0001049767
-0.01568716
-0.016930263
-0.017289401
-0.0166144
-0.014901221
-0.012250337
-0.0088936073
-0.005407076
-0.0017376227
0.0017945168
0.0046586184
0.0069887214
0.0086295228
0.0095445319
0.009867202
0.0095274366
0.0087281616
0.0073754076
0.0056692518
0.0036441037
0.0014796296
-0.000674208
-0.0026511216
-0.0043106563
-0.0055570546
-0.0063501334
-0.0067017015
-0.00666523
-0.0063201963
-0.0057562421
-0.0050595461
-0.0043023043
-0.0035397044
-0.0028145526
-0.0021610188
-0.0016017416
-0.0011472589
-0.0008064254
-0.00059456818
-0.01625255
-0.013775954
-0.011188248
-0.0086876422
-0.0064537726
-0.0045965745
-0.0032099107
-0.0022405953
-0.0015389712
-0.0010168656
-0.00059611248
-0.00028447043
-0.00010342435
-0.018207511
-0.019271008
-0.019296617
-0.018207164
-0.015994197
-0.012804969
-0.0090028689
-0.0052092987
-0.0012242478
0.0025260838
0.0054721618
0.0078061031
0.0093606644
0.010102296
0.010217153
0.0096197056
0.008544195
0.006900307
0.0049166888
0.002656948
0.00032023844
-0.0019239629
-0.003905966
-0.0054930162
-0.0066087896
-0.0072361702
-0.0074098913
-0.0072024251
-0.0067068608
-0.0060197118
-0.005226074
-0.0043932919
-0.0035748867
-0.0028151792
-0.0021440214
-0.0015723792
-0.0011037449
-0.00075114412
-0.00053516717
-0.018869674
-0.01624632
-0.013336397
-0.010519495
-0.0079803626
-0.0058077925
-0.0040646957
-0.002806227
-0.0019479106
-0.0013562409
-0.00090553538
-0.00052540601
-0.00025757122
-9.8062942e-05
-0.020770838
-0.021621358
-0.021311599
-0.019757053
-0.016987872
-0.013288391
-0.0090887991
-0.0049377114
-0.0005965201
0.0033539928
0.0063593624
0.0086449482
0.010051942
0.010582888
0.010455
0.0095647779
0.0081840771
0.0062311568
0.0039654434
0.0014826145
-0.0010001841
-0.0032984423
-0.0052447003
-0.0067204927
-0.0076733745
-0.0081115626
-0.0080931452
-0.0077094306
-0.0070648503
-0.0062572813
-0.0053673773
-0.0044616587
-0.0035973533
-0.0028147414
-0.0021272199
-0.0015337098
-0.0010451432
-0.00069075699
-0.00047163077
-0.021539832
-0.018838511
-0.015669399
-0.012476588
-0.0096206729
-0.0071456623
-0.0051064303
-0.003517121
-0.0023996686
-0.0016854975
-0.0011885876
-0.00079253425
-0.0004699819
-0.00022586385
-9.4352599e-05
-0.023386821
-0.024015379
-0.023312633
-0.021220591
-0.017912528
-0.013747975
-0.0091266179
-0.0045349388
0.00015356898
0.0043011931
0.0073036269
0.0094680423
0.01068308
0.010963332
0.01055455
0.0093353007
0.0076220733
0.0053475083
0.0028026675
0.00011666518
-0.0024778783
-0.0047875772
-0.0066537854
-0.0079790772
-0.0087380041
-0.0089659664
-0.0087453767
-0.0081844379
-0.0073923727
-0.0064637572
-0.0054797095
-0.004513644
-0.0036195906
-0.0028154588
-0.0020955707
-0.0014701056
-0.00098184314
-0.00062579753
-0.00040395778
-0.024302981
-0.021483702
-0.018115916
-0.014581164
-0.011336789
-0.0085619956
-0.0062383329
-0.0043822221
-0.0029679555
-0.0020385408
-0.0014419876
-0.0010216309
-0.00069911295
-0.00040853454
-0.00020737835
-8.919059e-05
-0.026080447
-0.026420351
-0.025241364
-0.022620808
-0.018830862
-0.014170758
-0.0090348705
-0.0039500497
0.0010724272
0.0053445927
0.0082558341
0.010250462
0.011231182
0.011216026
0.010485124
0.0089020008
0.0068320233
0.0042309575
0.0014184997
-0.0014413314
-0.0041051624
-0.0063784332
-0.0081180192
-0.0092535565
-0.0097894735
-0.0097908407
-0.0093633283
-0.0086245606
-0.0076823013
-0.0066336594
-0.0055710989
-0.0045664284
-0.0036442016
-0.002793761
-0.0020253784
-0.0014021572
-0.0009134172
-0.00055639406
-0.00033213732
-0.027173703
-0.024254657
-0.020610748
-0.016782084
-0.01315779
-0.010006496
-0.0074113211
-0.0053023036
-0.0036575058
-0.0024824112
-0.0017006269
-0.0012026044
-0.00088413643
-0.00059957384
-0.00035764113
-0.00018030304
-8.4792278e-05
-0.028804311
-0.028765321
-0.027116162
-0.024040993
-0.019732863
-0.014480441
-0.0087463898
-0.0031711442
0.00214481
0.006411402
0.0091860514
0.010965191
0.011667852
0.011307524
0.010213855
0.0082343799
0.005789532
0.0028653594
-0.00019304434
-0.0031874736
-0.0058708071
-0.0080553338
-0.009620119
-0.010527663
-0.010816321
-0.010581008
-0.0099426606
-0.0090200885
-0.0079267735
-0.0067769861
-0.0056645773
-0.0046231169
-0.0036364421
-0.0027154603
-0.0019510908
-0.0013282951
-0.00084034314
-0.00048252501
-0.00025617622
-0.030085068
-0.02715699
-0.023251902
-0.019021737
-0.015050999
-0.011511936
-0.0085683448
-0.0062293696
-0.004369641
-0.0030161874
-0.0020248669
-0.0013705646
-0.0010089642
-0.00074301176
-0.00050854786
-0.00030203564
-0.00015157895
-7.5709862e-05
-0.031471795
-0.031058754
-0.029036821
-0.025474118
-0.020538298
-0.014578252
-0.008239851
-0.0021943605
0.0032953552
0.0074783478
0.010083957
0.011585349
0.011960116
0.011201928
0.0097058318
0.0073011824
0.0044720546
0.001237663
-0.0020332271
-0.005113489
-0.0077594756
-0.0097988096
-0.011140813
-0.011786712
-0.011810932
-0.011330217
-0.010470431
-0.0093601192
-0.0081379208
-0.0069240526
-0.0057638884
-0.0046346716
-0.0035486559
-0.0026330492
-0.0018698543
-0.0012495976
-0.00076253111
-0.00040422038
-0.00017609613
-0.032938702
-0.03010243
-0.026032404
-0.021413893
-0.016971026
-0.013062575
-0.0097445756
-0.0071015685
-0.0050585279
-0.0035418906
-0.0024029873
-0.0015781573
-0.0011088339
-0.00081495675
-0.00060876704
-0.00041284689
-0.00025114203
-0.00013212796
-7.060125e-05
-0.034082872
-0.033415885
-0.030998995
-0.026841855
-0.021137383
-0.014431567
-0.0075058935
-0.0010595813
0.0044728654
0.0085347557
0.010924257
0.012077229
0.012068963
0.010859796
0.0089233863
0.0060734417
0.0028590649
-0.00066042898
-0.0040980921
-0.0072058711
-0.0097512632
-0.011586708
-0.012661893
-0.013020231
-0.012764645
-0.012021522
-0.010931489
-0.0096588812
-0.0083549607
-0.0070794684
-0.0058018566
-0.0045362245
-0.0034562562
-0.0025423977
-0.0017836314
-0.0011658275
-0.00068004624
-0.00032152004
-9.1940723e-05
-0.035728238
-0.032986437
-0.028856172
-0.023944869
-0.019036199
-0.014628422
-0.010941617
-0.0079561006
-0.0056606215
-0.0040187433
-0.0027459349
-0.0018108628
-0.0012284177
-0.00084708574
-0.00063179831
-0.000475485
-0.0003291993
-0.00020941468
-0.00010300744
-6.3231771e-05
-0.036755537
-0.03583181
-0.032929921
-0.028018394
-0.021477584
-0.014033403
-0.0065834861
0.00016218992
0.0056712692
0.0095611662
0.011655976
0.012395058
0.011952773
0.010239254
0.0078279574
0.0045229395
0.00093460253
-0.0028316885
-0.0063781249
-0.0094453755
-0.011822126
-0.01339766
-0.014169799
-0.01421651
-0.013655565
-0.012634262
-0.011342276
-0.0099664206
-0.008583626
-0.0071532917
-0.0056919103
-0.0044319068
-0.003354047
-0.0024465883
-0.001691953
-0.0010771323
-0.00059293031
-0.00023452871
-3.7585524e-06
-0.03856215
-0.035798939
-0.031607659
-0.026503215
-0.021224739
-0.01632085
-0.01213968
-0.0088088184
-0.0062141131
-0.0043859857
-0.0030199978
-0.0019923291
-0.0013536076
-0.00087740916
-0.00060695424
-0.00046039037
-0.00036009906
-0.00026300218
-0.0001579208
-8.6417957e-05
-5.236065e-05
-0.03948963
-0.038241433
-0.034699866
-0.028937086
-0.021552254
-0.013429818
-0.0055052741
0.001437983
0.0068893948
0.010516409
0.012234614
0.012492954
0.011563229
0.009295201
0.0063826116
0.0026244393
-0.0013117204
-0.0052720843
-0.0088563355
-0.011806863
-0.013947415
-0.015215007
-0.015649282
-0.01534775
-0.014456074
-0.013186662
-0.011765808
-0.010290086
-0.0087056998
-0.0070315672
-0.0055737665
-0.004315881
-0.0032464806
-0.0023449097
-0.0015950692
-0.00098353567
-0.00050134592
-0.00014334711
8.8416249e-05
-0.041443533
-0.0386212
-0.034276523
-0.028976299
-0.023417642
-0.018112141
-0.013441541
-0.0096481475
-0.0067438617
-0.0046817895
-0.003169245
-0.0020933137
-0.0014073481
-0.00089612336
-0.00055938929
-0.00039369513
-0.00032051566
-0.00027013964
-0.00018953828
-0.00013090038
-5.9375923e-05
-4.7756016e-05
-0.042226621
-0.040522187
-0.036227313
-0.02959152
-0.021407862
-0.012644194
-0.0043042952
0.0027837811
0.0080751923
0.011350862
0.012612118
0.012321227
0.01085123
0.0079838588
0.0045535951
0.00035822228
-0.003883533
-0.0079686361
-0.011507994
-0.014263847
-0.016106977
-0.017019636
-0.017065647
-0.016377663
-0.015185611
-0.013757472
-0.01221171
-0.010476677
-0.0085727391
-0.006897811
-0.0054416184
-0.0041942369
-0.0031325553
-0.0022376871
-0.0014929806
-0.00088530461
-0.00040545498
-4.8006162e-05
0.00018454809
-0.044325161
-0.041470206
-0.036917885
-0.031347931
-0.025506047
-0.019879556
-0.014812834
-0.010565531
-0.0072494043
-0.0049423038
-0.0032374102
-0.0020541239
-0.0013749819
-0.0008267727
-0.00048269398
-0.00029444742
-0.00022485044
-0.00021049335
-0.00018175455
-0.00014429823
-8.5278102e-05
-4.8109233e-05
-3.5252282e-05
-0.044860186
-0.042581861
-0.037512637
-0.030021664
-0.021062997
-0.011692109
-0.0029884554
0.0041822496
0.0091801876
0.012016071
0.012739745
0.011824618
0.0097628739
0.0062628356
0.0023081573
-0.0022895714
-0.0067741934
-0.010899175
-0.014305719
-0.016794125
-0.018278199
-0.018768923
-0.018371914
-0.017326068
-0.015941345
-0.014359396
-0.012483851
-0.010334331
-0.0084218759
-0.0067472626
-0.0053034458
-0.0040656327
-0.0030126682
-0.0021249335
-0.001386075
-0.00078265724
-0.00030519119
5.1536048e-05
0.0002844696
-0.047114414
-0.044302041
-0.039556475
-0.033654086
-0.027465124
-0.021519476
-0.016131071
-0.011522355
-0.0078138409
-0.0051755879
-0.0032629757
-0.0019264328
-0.001199667
-0.00067011573
-0.00031127215
-0.00015580168
-8.6780096e-05
-9.6171714e-05
-0.00010953268
-0.00011824884
-8.2732452e-05
-6.0462159e-05
-2.1124306e-05
-3.1284376e-05
-0.047290219
-0.044435959
-0.038597879
-0.030246008
-0.020526128
-0.010568494
-0.0015561869
0.0055707972
0.010156582
0.012455415
0.012560978
0.010940719
0.0082434009
0.004089515
-0.0003793448
-0.0053221128
-0.0099655735
-0.014037138
-0.017226667
-0.019371175
-0.020409651
-0.020403128
-0.019587202
-0.018311645
-0.016740768
-0.014744052
-0.01233593
-0.010165433
-0.0082508723
-0.006590051
-0.0051575571
-0.0039305359
-0.0028868456
-0.0020071527
-0.0012746273
-0.00067537687
-0.00020029487
0.00015489879
0.00038808414
-0.049715082
-0.047042708
-0.042156595
-0.035921869
-0.029317406
-0.022997968
-0.017303618
-0.012399756
-0.0083864369
-0.0054431452
-0.0032565773
-0.0017483232
-0.00092654392
-0.00037564777
-5.2952372e-05
7.4279625e-05
0.00010102074
6.4473687e-05
1.8177129e-05
-3.3716032e-05
-4.4095978e-05
-4.2887349e-05
-1.9721481e-05
-1.0203926e-05
-1.829223e-05
-0.049551885
-0.046127736
-0.039501814
-0.030265899
-0.019792885
-0.0092787071
-6.6038593e-05
0.0068840582
0.010943091
0.012595996
0.012008115
0.0096034305
0.0062365036
0.0014246401
-0.003524194
-0.0087298229
-0.013433884
-0.017360081
-0.020242386
-0.021933446
-0.022426749
-0.021939323
-0.020855105
-0.019358588
-0.017272187
-0.014597201
-0.012149061
-0.0099723952
-0.0080721777
-0.0064241361
-0.0050044648
-0.0037889672
-0.0027557426
-0.0018846651
-0.0011581913
-0.00056285471
-9.1481632e-05
0.00026194158
0.00049526747
-0.052172798
-0.04960593
-0.044656619
-0.038124212
-0.031091656
-0.024331736
-0.018289968
-0.013121605
-0.0088651974
-0.0056946609
-0.0032654218
-0.0015401451
-0.00059450227
2.1158748e-05
0.00032658533
0.00039146072
0.00037005267
0.00027753639
0.00019631869
0.00010347546
4.8944167e-05
8.4239407e-06
9.2247707e-06
4.3075332e-06
1.3613709e-05
-1.3445037e-05
-0.051702344
-0.047683713
-0.040216339
-0.03007478
-0.018852844
-0.0078513083
0.0014330887
0.0080706768
0.011466752
0.012353628
0.011011156
0.0077459721
0.0036879204
-0.0017585694
-0.0071252821
-0.012495484
-0.01715985
-0.020838707
-0.023281452
-0.024390159
-0.024343111