/*--------------------------------*- C++ -*----------------------------------*\
| =========                 |                                                 |
| \\      /  F ield         | OpenFOAM: The Open Source CFD Toolbox           |
|  \\    /   O peration     | Version:  5.0                                   |
|   \\  /    A nd           | Web:      www.OpenFOAM.org                      |
|    \\/     M anipulation  |                                                 |
\*---------------------------------------------------------------------------*/
FoamFile
{
    version     2.0;
    format      ascii;
    class       volScalarField;
    location    "180";
    object      pPrime2Mean;
}
// * * * * * * * * * * * * * * * * * * * * * * * * * * * * * * * * * * * * * //

dimensions      [0 4 -4 0 0 0 0];

internalField   nonuniform List<scalar> 
9520
(
3.3213395e-07
3.0775216e-07
2.2474754e-06
2.6668605e-07
2.0814678e-06
6.0823118e-06
2.1695611e-07
1.8016312e-06
5.6349951e-06
1.1968685e-05
1.6558761e-07
1.462415e-06
4.8806528e-06
1.109167e-05
2.0223883e-05
1.1799538e-07
1.1116191e-06
3.9655538e-06
9.6118421e-06
1.8750706e-05
3.1245422e-05
7.7832244e-08
7.8610373e-07
3.0183119e-06
7.8150504e-06
1.6262927e-05
2.8985319e-05
4.5562611e-05
4.7144505e-08
5.1067471e-07
2.1382902e-06
5.9530778e-06
1.3238624e-05
2.5165011e-05
4.2294772e-05
6.3795114e-05
2.6715669e-08
2.9906538e-07
1.3926421e-06
4.2209798e-06
1.0099777e-05
2.0513921e-05
3.6764521e-05
5.9264742e-05
8.6667545e-05
1.6408417e-08
1.5602038e-07
8.187872e-07
2.7511734e-06
7.1745884e-06
1.5677526e-05
3.0019559e-05
5.1587366e-05
8.0582636e-05
0.00011499484
1.5568103e-08
7.9658736e-08
4.2963443e-07
1.6179442e-06
4.6872837e-06
1.1160295e-05
2.2989838e-05
4.2204082e-05
7.0254971e-05
0.00010702509
0.00014968163
2.3421232e-08
6.3811526e-08
2.2005856e-07
8.4771483e-07
2.7651098e-06
7.3094436e-06
1.6406343e-05
3.2398457e-05
5.7602647e-05
9.3475091e-05
0.0001394585
0.00019170601
3.9372651e-08
9.9915461e-08
1.7307434e-07
4.3095949e-07
1.4549198e-06
4.3247763e-06
1.0776652e-05
2.3186058e-05
4.434049e-05
7.6831218e-05
0.00012204435
0.00017882498
0.00024211102
6.3491408e-08
1.7868566e-07
2.6456971e-07
3.3404726e-07
7.4334432e-07
2.2829974e-06
6.3974307e-06
1.527921e-05
3.1835068e-05
5.9325448e-05
0.00010059132
0.00015683776
0.00022613564
0.00030198653
9.6655462e-08
2.9187053e-07
4.6843719e-07
5.1039715e-07
5.7589922e-07
1.1675253e-06
3.3874442e-06
9.1013337e-06
2.1055918e-05
4.2750561e-05
7.7941795e-05
0.00012966416
0.00019880529
0.00028245463
0.00037245234
1.4094846e-07
4.3229223e-07
7.5916739e-07
9.0808781e-07
8.7531541e-07
8.9900566e-07
1.729058e-06
4.829542e-06
1.2590402e-05
2.839447e-05
5.6398569e-05
0.00010085566
0.00016491112
0.00024895946
0.0003488841
0.00045463465
1.9841239e-07
5.9641302e-07
1.1138035e-06
1.4747791e-06
1.5532387e-06
1.3599371e-06
1.3110751e-06
2.4500214e-06
6.6962169e-06
1.7053871e-05
3.763866e-05
7.3316467e-05
0.00012881541
0.00020726527
0.00030836376
0.00042654303
0.00054964461
2.7354844e-07
7.7650703e-07
1.5131411e-06
2.1605212e-06
2.5216792e-06
2.4147011e-06
1.9652054e-06
1.8145079e-06
3.3715807e-06
9.0965303e-06
2.2723145e-05
4.9192671e-05
9.4121077e-05
0.00016264714
0.00025772522
0.00037811556
0.00051654693
0.0006585517
3.6897621e-07
9.8778467e-07
1.9446349e-06
2.9252676e-06
3.6978065e-06
3.9281835e-06
3.4963395e-06
2.6918824e-06
2.4293072e-06
4.5477859e-06
1.2167768e-05
2.9874682e-05
6.3531773e-05
0.00011950776
0.00020325507
0.00031734267
0.00045932811
0.00061998276
0.00078236243
4.8886672e-07
1.1995112e-06
2.4019663e-06
3.7361028e-06
5.0109676e-06
5.7757219e-06
5.7055874e-06
4.811582e-06
3.56455e-06
3.1827277e-06
6.0457038e-06
1.6073811e-05
3.8842516e-05
8.1204553e-05
0.00015025745
0.00025161374
0.00038720847
0.00055310865
0.00073788606
0.00092199361
6.3084065e-07
1.4933681e-06
2.873951e-06
4.5683009e-06
6.4015707e-06
7.8480621e-06
8.4113001e-06
7.8925694e-06
6.4136536e-06
4.6142884e-06
4.100768e-06
7.9402795e-06
2.1018386e-05
5.0023178e-05
0.00010284529
0.00018723332
0.00030875969
0.00046843541
0.0006605367
0.000871217
0.001078252
7.9759292e-07
1.7449048e-06
3.4001973e-06
5.4137344e-06
7.8324638e-06
1.0055449e-05
1.1456249e-05
1.1673738e-05
1.0596191e-05
8.3690151e-06
5.8579431e-06
5.1984915e-06
1.0325844e-05
2.7252953e-05
6.3890934e-05
0.00012917507
0.00023137909
0.00037577999
0.00056213941
0.00078263795
0.0010208389
0.0012518098
9.7970193e-07
2.1892242e-06
3.9239392e-06
6.2779888e-06
9.2743694e-06
1.2337976e-05
1.4706249e-05
1.5927928e-05
1.574608e-05
1.3947208e-05
1.0718655e-05
7.2814232e-06
6.4889834e-06
1.3327104e-05
3.5091612e-05
8.1003364e-05
0.00016100607
0.00028371363
0.00045379741
0.00066941377
0.00092036743
0.0011874931
0.0014431908
1.1801304e-06
2.4976334e-06
4.6262125e-06
7.1603625e-06
1.0736525e-05
1.4648454e-05
1.8064005e-05
2.0458578e-05
2.1538278e-05
2.0855072e-05
1.8040155e-05
1.3450052e-05
8.8488133e-06
7.9982599e-06
1.7112709e-05
4.4920756e-05
0.00010200933
0.00019924241
0.00034532192
0.00054395239
0.00079131238
0.0010745812
0.0013717828
0.0016527538
1.3605946e-06
3.14918e-06
5.2843193e-06
8.1656136e-06
1.2207012e-05
1.6995965e-05
2.1464839e-05
2.5118671e-05
2.7694361e-05
2.8648335e-05
2.7180384e-05
2.2892967e-05
1.6510799e-05
1.0522493e-05
9.7777112e-06
2.1906302e-05
5.720764e-05
0.00012765584
0.0002448777
0.00041734347
0.00064737946
0.00092882489
0.0012460184
0.0015741547
0.0018806858
1.5674339e-06
3.6572831e-06
6.3185139e-06
9.2030519e-06
1.3811621e-05
1.9360802e-05
2.4898459e-05
2.9808494e-05
3.4002819e-05
3.6944115e-05
3.7556399e-05
3.4796384e-05
2.8466731e-05
1.9837767e-05
1.2276886e-05
1.1913815e-05
2.7993255e-05
7.2511632e-05
0.00015879155
0.00029899158
0.00050095766
0.00076519068
0.0010828548
0.0014352785
0.0017948902
0.0021269946
1.7834898e-06
4.508464e-06
7.309753e-06
1.0585284e-05
1.5474366e-05
2.1899579e-05
2.8359605e-05
3.4486637e-05
4.0305847e-05
4.5446715e-05
4.8656702e-05
4.8409594e-05
4.3698774e-05
3.4711453e-05
2.3375051e-05
1.4102389e-05
1.4530023e-05
3.5732815e-05
9.1492203e-05
0.00019637225
0.00036274128
0.00059735906
0.00089845308
0.0012541943
0.00164281
0.002034095
0.0023915095
2.1076443e-06
5.333184e-06
8.7822901e-06
1.2052935e-05
1.7542077e-05
2.4546702e-05
3.1995425e-05
3.9161514e-05
4.6526828e-05
5.3922303e-05
6.0080288e-05
6.3066716e-05
6.1250291e-05
5.3879783e-05
4.1592423e-05
2.7070376e-05
1.5998785e-05
1.779484e-05
4.5568472e-05
0.0001149223
0.00024145975
0.00043734967
0.00070774574
0.0010481613
0.0014435077
0.0018688944
0.0022916973
0.0026738851
2.4479372e-06
6.1727115e-06
1.0278716e-05
1.4110156e-05
1.9792683e-05
2.7711984e-05
3.5802502e-05
4.3952723e-05
5.2660516e-05
6.2251984e-05
7.1498766e-05
7.8235962e-05
8.0264584e-05
7.6135147e-05
6.537428e-05
4.90777e-05
3.0857204e-05
1.7975998e-05
2.1931785e-05
5.8046547e-05
0.0001436955
0.00029522019
0.00052408421
0.0008332923
0.0012152169
0.0016513095
0.002113641
0.0025674483
0.002973608
2.7913892e-06
7.0104263e-06
1.1728468e-05
1.6313929e-05
2.2839446e-05
3.1186253e-05
4.0205884e-05
4.8939332e-05
5.8812176e-05
7.038906e-05
8.2738418e-05
9.3474045e-05
0.00010004172
0.00010038091
9.3211762e-05
7.8239129e-05
5.7103073e-05
3.4640733e-05
2.0059186e-05
2.7239581e-05
7.3831063e-05
0.00017883496
0.00035891452
0.00062424372
0.00097512646
0.0014004009
0.0018779546
0.00237698
0.0028609266
0.0032900093
3.12456e-06
7.5355034e-06
1.3176409e-05
1.8584084e-05
2.6173677e-05
3.5742332e-05
4.5037492e-05
5.4545178e-05
6.5127103e-05
7.8433937e-05
9.3693232e-05
0.00010853139
0.00011999565
0.00012569881
0.0001237111
0.00011269189
9.2494241e-05
6.5537349e-05
3.8293002e-05
2.2306835e-05
3.4113141e-05
9.3722587e-05
0.00022149347
0.00043388342
0.00073913587
0.0011342989
0.001604358
0.0021236245
0.0026586645
0.0031715493
0.0036222779
3.3400607e-06
8.2181217e-06
1.4233427e-05
2.0755169e-05
2.97551e-05
4.0815795e-05
5.1287948e-05
6.0691036e-05
7.2033667e-05
8.6554774e-05
0.00010445663
0.0001232234
0.00013977041
0.00015131761
0.00015567562
0.00015068591
0.00013476214
0.00010805647
7.4165022e-05
4.1666384e-05
2.4833892e-05
4.3069898e-05
0.00011866864
0.00027295317
0.00052153203
0.00087004647
0.0013117599
0.0018275747
0.0023883227
0.002958276
0.0034985824
0.0039694771
3.4486238e-06
8.5217311e-06
1.5491294e-05
2.2566327e-05
3.3069897e-05
4.631253e-05
5.8424367e-05
6.8550785e-05
7.9576618e-05
9.5204884e-05
0.00011518103
0.00013762327
0.00015908503
0.00017673015
0.00018809581
0.00019068352
0.00018174176
0.0001594798
0.00012470138
8.2691438e-05
4.4616073e-05
2.7843233e-05
5.4769764e-05
0.00014977626
0.00033461311
0.00062330853
0.0010182123
0.0015083318
0.0020703679
0.0026718701
0.0032752323
0.0038411561
0.0043305635
3.3584979e-06
8.6925771e-06
1.6259766e-05
2.4538802e-05
3.606159e-05
5.1242729e-05
6.628214e-05
7.7628279e-05
8.9087015e-05
0.00010454369
0.00012634588
0.00015185422
0.00017796562
0.00020153183
0.00022025751
0.0002313733
0.00023149059
0.00021716868
0.00018670387
0.00014206209
9.0763899e-05
4.7034899e-05
3.1652976e-05
7.0039863e-05
0.00018831258
0.00040797403
0.00074067768
0.0011847919
0.001724691
0.0023328708
0.0029739103
0.0036087974
0.0041982828
0.0047044051
3.0806536e-06
8.5124132e-06
1.6718587e-05
2.5915515e-05
3.9131648e-05
5.5890582e-05
7.3302369e-05
8.8121003e-05
0.00010021106
0.00011594115
0.00013819835
0.00016639977
0.00019648707
0.00022566875
0.00025159236
0.00027177742
0.00028232643
0.0002787096
0.00025700346
0.00021608341
0.00015965262
9.800668e-05
4.8883395e-05
3.6730103e-05
8.988761e-05
0.00023570522
0.00049462537
0.00087509028
0.0013708379
0.0019613433
0.0026150303
0.0032939141
0.0039580967
0.0045688743
0.0050898013
2.645753e-06
7.9633775e-06
1.6632641e-05
2.6821979e-05
4.1415959e-05
6.0524954e-05
8.0093585e-05
9.7660217e-05
0.00011361319
0.00012922231
0.00015210642
0.00018159921
0.00021514826
0.00024914397
0.00028192429
0.00031110824
0.00033294736
0.00034197455
0.0003326441
0.00030100426
0.00024708932
0.00017690096
0.00010405049
5.0228123e-05
4.3714156e-05
0.00011551605
0.00029352701
0.00059621907
0.0010279503
0.0015772635
0.0022186108
0.0029166034
0.0036311898
0.0043221341
0.0049517611
0.0054855017
2.1219979e-06
7.0689824e-06
1.5903335e-05
2.7041393e-05
4.2934783e-05
6.4150164e-05
8.6803424e-05
0.00010701863
0.00012608794
0.00014577161
0.00016810789
0.00019874949
0.00023432798
0.00027244307
0.00031116685
0.00034903113
0.00038228509
0.000405272
0.0004109723
0.00039324896
0.00034869334
0.00027904973
0.000193179
0.00010857042
5.12712e-05
5.3446369e-05
0.00014832909
0.00036349351
0.0007144372
0.0012005781
0.0018048207
0.0024966175
0.0032371617
0.0039848955
0.0046998109
0.0053457123
0.0058902247
1.6097162e-06
5.9146252e-06
1.4569319e-05
2.6335602e-05
4.3524614e-05
6.6535617e-05
9.2471028e-05
0.00011638339
0.00013863518
0.00016171442
0.00018834511
0.00021834559
0.00025529543
0.00029598034
0.00033976118
0.00038533188
0.00042979945
0.00046718133
0.00048982433
0.00048954845
0.00046018926
0.00039940899
0.00031118148
0.00020783073
0.00011131088
5.2386404e-05
6.6990532e-05
0.00018993287
0.00044743699
0.0008509556
0.0013941776
0.0020540727
0.0027952863
0.0035760965
0.0043540572
0.0050899441
0.0057494543
0.0063026755
1.2012172e-06
4.7018927e-06
1.2778754e-05
2.4749841e-05
4.275356e-05
6.7659784e-05
9.630952e-05
0.00012487922
0.00015120519
0.00017830911
0.00020829669
0.00024307707
0.00027890144
0.00032097385
0.00036812209
0.00042037213
0.00047508534
0.00052690556
0.0005673493
0.00058716823
0.00057759415
0.00053292284
0.00045234127
0.00034260672
0.00022019067
0.00011212599
5.4152481e-05
8.5657483e-05
0.00024213159
0.00054727737
0.0010074049
0.0016097993
0.0023253807
0.0031143335
0.0039326321
0.0047375861
0.0054912861
0.006161689
0.0067215616
9.7071544e-07
3.6757588e-06
1.0858188e-05
2.2468601e-05
4.0675772e-05
6.6772258e-05
9.8559751e-05
0.00013096362
0.00016334316
0.00019447356
0.00022968144
0.00026779028
0.00030835281
0.00034851634
0.00039750153
0.00045456372
0.00051841007
0.00058377533
0.00064242186
0.00068373428
0.00069748178
0.00067478514
0.0006107535
0.00050653861
0.00037235332
0.00022960872
0.00011101515
5.7397241e-05
0.00011101669
0.00030691616
0.00066498419
0.0011853271
0.0018483131
0.0026188848
0.0034532758
0.0043058409
0.0051342974
0.0059025446
0.0065811111
0.0071456079
3.0919759e-06
9.5665134e-07
9.2102032e-06
1.994433e-05
3.7545089e-05
6.3946974e-05
9.8065886e-05
0.00013530579
0.00017247308
0.00021098323
0.00024978063
0.00029516022
0.00033879171
0.00038232989
0.00042905105
0.00048916883
0.00056009604
0.00063793358
0.00071403347
0.00077770441
0.00081684665
0.00082074168
0.00078067062
0.00069282917
0.00056088233
0.00039935479
0.000235476
0.00010817828
6.3233714e-05
0.00014490406
0.00038643694
0.0008025329
0.0013861351
0.0021103755
0.0029345018
0.0038114369
0.0046946605
0.0055429305
0.0063224005
0.0070064239
0.0075735692
8.2662848e-06
3.107777e-06
1.1605323e-06
1.7755502e-05
3.4006047e-05
5.9537497e-05
9.4854778e-05
0.00013623434
0.00017985836
0.00022387709
0.00027127417
0.00032014841
0.00037342955
0.00041854593
0.00046697362
0.00052533169
0.00060140678
0.00068954259
0.00078215864
0.00086764068
0.00093361216
0.00096701879
0.0009568663
0.00089468347
0.00077808871
0.00061404942
0.00042245488
0.00023727902
0.0001040691
7.3098361e-05
0.00018942446
0.00048296831
0.00096185706
0.0016110688
0.0023964128
0.0032719186
0.0041879631
0.0050979127
0.0059621693
0.0067495256
0.0074363531
0.0080042405
1.6511078e-05
8.2912925e-06
3.715689e-06
1.5422972e-06
3.0912265e-05
5.4467104e-05
8.935058e-05
0.00013363763
0.00018329619
0.00023529048
0.00028864713
0.0003478378
0.00040441674
0.00046059549
0.00050866546
0.00056754341
0.00064349576
0.00073983543
0.00084671019
0.0009533007
0.0010458317
0.0011108636
0.0011346329
0.0011057458
0.0010160474
0.00086517236
0.00066447807
0.00044044205
0.00023467031
9.9463109e-05
8.8769147e-05
0.00024693401
0.00059886279
0.001144795
0.0018611588
0.0027066009
0.0036306028
0.0045818371
0.0055143249
0.006390662
0.0071825991
0.0078696585
0.008436467
2.9113436e-05
1.6582277e-05
9.2790871e-06
4.7544581e-06
2.0327287e-06
4.9980472e-05
8.2804141e-05
0.00012792666
0.00018243434
0.00024235513
0.00030504563
0.00037095192
0.00044057162
0.00049789558
0.00055800473
0.00061452041
0.00069064104
0.00078990784
0.00090888503
0.0010342306
0.0011529668
0.0012497113
0.0013103641
0.0013201967
0.0012671297
0.0011436331
0.00095233698
0.00071036954
0.00045211318
0.00022755953
9.5520924e-05
0.00011239262
0.00032000956
0.00073649649
0.0013530379
0.0021371915
0.0030408613
0.0040098065
0.0049918994
0.0059425509
0.0068270393
0.0076203216
0.0083051453
0.0088691507
4.7282875e-05
2.9172033e-05
1.7955037e-05
1.0962119e-05
5.96996e-06
2.5447146e-06
7.6880295e-05
0.00012065055
0.00017759767
0.00024440092
0.00031694566
0.00039405667
0.00047158603
0.00054337862
0.00060169404
0.00067121633
0.00074308007
0.00084378671
0.00096958825
0.0011116098
0.0012541235
0.0013826122
0.0014807416
0.0015333698
0.0015242127
0.0014404068
0.0012758028
0.0010374038
0.00074972465
0.00045637552
0.00021620241
9.3842024e-05
0.00014648099
0.00041140527
0.00089820723
0.0015880765
0.002439685
0.0033988547
0.0044085863
0.005416868
0.006381193
0.007269933
0.0080614285
0.0087416715
0.0093012568
7.3203284e-05
4.7200491e-05
3.1077004e-05
2.024527e-05
1.290377e-05
7.1179668e-06
2.9796229e-06
0.00011382854
0.00017061274
0.00024156422
0.00032323628
0.00041265085
0.00050412241
0.00058402364
0.00065705711
0.00072115559
0.00080798526
0.00090291977
0.0010328482
0.0011859786
0.0013504622
0.0015081743
0.0016442393
0.0017410162
0.0017813448
0.0017468784
0.0016243695
0.0014102881
0.0011177476
0.00078043177
0.0004523569
0.00020130086
9.6506109e-05
0.00019389589
0.0005239927
0.0010862273
0.0018511569
0.0027688673
0.0037799904
0.004825817
0.0058553636
0.0068288228
0.0077179913
0.0085046994
0.009178155
0.0097318169
0.0001094897
7.2940018e-05
4.9744913e-05
3.4259509e-05
2.2837313e-05
1.4703932e-05
8.0009104e-06
3.2676531e-06
0.00016376328
0.0002358352
0.0003236757
0.00042514623
0.00053243961
0.00062854508
0.00070840432
0.00078672045
0.00086413757
0.00097662812
0.0011006127
0.0012615235
0.001442095
0.0016274937
0.0017988777
0.0019408197
0.0020331311
0.0020555837
0.0019877606
0.0018170205
0.0015441247
0.0011903585
0.00080038729
0.00043954624
0.00018409504
0.00010610353
0.00025780682
0.00066068925
0.0013026179
0.0021432357
0.0031246684
0.0041834328
0.0052602193
0.0063059319
0.0072840019
0.0081698928
0.0089489672
0.0096135784
0.010159932
0.00015949015
0.00010913765
7.6127701e-05
5.4109453e-05
3.7857117e-05
2.5151483e-05
1.6038619e-05
8.5352185e-06
3.374375e-06
0.00022971193
0.00032028006
0.00043063052
0.0005541957
0.0006696188
0.00076731597
0.00084976277
0.0009397905
0.0010387708
0.0011843692
0.001339841
0.0015335192
0.0017402632
0.0019455317
0.0021301065
0.0022762222
0.002359712
0.0023567636
0.0022455214
0.0020154276
0.0016736564
0.0012519434
0.00080765965
0.00041793948
0.00016644365
0.00012573428
0.00034163227
0.0008243775
0.0015492018
0.00246495
0.0035067136
0.0046081246
0.0057103822
0.0067670706
0.0077452977
0.0086243556
0.009393125
0.010046995
0.010584776
0.00022602204
0.00015958464
0.00011285261
8.1653658e-05
5.9103908e-05
4.1016842e-05
2.6737226e-05
1.675996e-05
8.7020953e-06
3.284514e-06
0.00031564235
0.00043088738
0.00056728529
0.00070425972
0.00082428765
0.00092503447
0.0010149966
0.001123347
0.0012525106
0.0014349972
0.0016256416
0.0018512348
0.0020835702
0.0023093831
0.0025071222
0.0026546524
0.0027228584
0.002684585
0.0025176839
0.0022156591
0.0017945949
0.0012990857
0.00080067007
0.00038819633
0.00015089511
0.00015898373
0.00044895921
0.0010178182
0.001827503
0.0028165893
0.0039143358
0.0050528075
0.0061747918
0.0072372459
0.0082112967
0.0090801502
0.0098361362
0.01047753
0.011005594
0.00031295299
0.00022669881
0.00016401947
0.00011917241
8.7943027e-05
6.347549e-05
4.3096496e-05
2.7414947e-05
1.6829398e-05
8.5272498e-06
3.0875263e-06
0.00042849473
0.00057305589
0.00072860332
0.00087563743
0.0010010124
0.0011086707
0.0012106306
0.0013448003
0.0015098989
0.0017351685
0.0019607857
0.0022177276
0.0024776292
0.0027256524
0.0029358303
0.0030798814
0.0031236775
0.0030374858
0.0028005097
0.0024127862
0.0019021566
0.0013284424
0.0007784046
0.00035175559
0.00014071647
0.00020986468
0.00058344647
0.0012435608
0.0021386925
0.0031980882
0.0043465891
0.0055160523
0.0066518514
0.0077149116
0.0086806218
0.0095361152
0.010277041
0.010904383
0.0114217
0.0004267817
0.0003142039
0.00023160506
0.00017099893
0.00012612557
9.3331368e-05
6.6295586e-05
4.3841846e-05
2.7153504e-05
1.6353836e-05
8.2144062e-06
2.770458e-06
0.0005738741
0.00074318643
0.00091534493
0.0010731381
0.001206648
0.0013241413
0.001444229
0.0016113144
0.0018181745
0.002087607
0.0023481702
0.0026394326
0.0029303534
0.0032021221
0.0034218661
0.003554749
0.0035619613
0.0034124263
0.0030889135
0.002600962
0.0019912416
0.0013369926
0.00074061273
0.00031094239
0.00013988334
0.00028273257
0.00074871301
0.001503855
0.0024835507
0.0036090261
0.0048022734
0.0059962752
0.0071399051
0.0081985321
0.0091519591
0.0099911687
0.010714948
0.011326813
0.011852416
0.00057315963
0.00042771964
0.00031906733
0.00023866985
0.00017805144
0.00013170161
9.6544508e-05
6.7197391e-05
4.3205585e-05
2.6201579e-05
1.5571756e-05
7.5272665e-06
2.440692e-06
0.00074973161
0.00094265495
0.0011329129
0.0013037914
0.0014466293
0.001578567
0.0017223739
0.001930236
0.0021802463
0.0024941343
0.0027950148
0.0031254636
0.0034514919
0.0037465099
0.0039700245
0.004080785
0.0040358814
0.0038047412
0.0033764754
0.0027735557
0.0020566766
0.0013222943
0.00068800733
0.00026905424
0.00015304272
0.00038216878
0.00094821816
0.0018005781
0.0028624443
0.0040486377
0.005279948
0.0064917679
0.0076372676
0.0086866228
0.0096240736
0.010444289
0.011149013
0.011762133
0.012307186
0.00075132532
0.00057256216
0.00043108197
0.00032525877
0.00024492087
0.00018290385
0.00013432763
9.712484e-05
6.6112389e-05
4.1641889e-05
2.4772757e-05
1.4292667e-05
6.9939866e-06
2.1081212e-06
0.00095808101
0.0011777191
0.001388409
0.0015723509
0.0017274099
0.0018788351
0.0020543703
0.002306977
0.0025976182
0.002962876
0.0033110343
0.0036875286
0.0040509088
0.0043657492
0.0045839225
0.0046578838
0.0045418256
0.0042080549
0.0036554801
0.0029233516
0.0020935076
0.0012827814
0.0006224539
0.00023040755
0.00018542126
0.00051284122
0.0011851489
0.0021351766
0.0032753105
0.0045158139
0.0057779562
0.0070007366
0.0081422823
0.0091777717
0.010095777
0.010894484
0.011595577
0.012220189
0.012773706
0.0009638467
0.00074927677
0.00057226071
0.00043461202
0.00032945672
0.00024787015
0.00018373068
0.00013353837
9.503695e-05
6.3768933e-05
3.9319784e-05
2.2749054e-05
1.3214558e-05
6.1591128e-06
1.7893171e-06
0.0012062351
0.0014556129
0.0016862343
0.0018846307
0.0020562933
0.0022352952
0.0024487022
0.0027386192
0.0030782604
0.003503738
0.003910206
0.0043378263
0.0047376827
0.0050658298
0.0052656035
0.0052840639
0.0050741771
0.0046142263
0.003917049
0.003042823
0.0020973553
0.0012180565
0.00054711474
0.0002003064
0.00024269171
0.00067935851
0.00146232
0.002508613
0.0037216331
0.0050091192
0.00629448
0.0075213791
0.0086533495
0.0096705911
0.01056588
0.011358058
0.012064745
0.012691886
0.013251811
0.0012191831
0.00096063001
0.00074400999
0.00057053327
0.00043483792
0.00032909579
0.00024558035
0.00018021517
0.00012943592
9.1361121e-05
6.0192406e-05
3.6204211e-05
2.0894021e-05
1.1749346e-05
5.3271978e-06
1.5766639e-06
0.001501797
0.0017799491
0.0020307474
0.0022480789
0.0024453902
0.002658921
0.0029021537
0.0032278806
0.0036302475
0.0041334616
0.0046069649
0.0050875092
0.0055204011
0.0058512922
0.0060153055
0.0059552277
0.0056251838
0.0050133617
0.0041513335
0.0031244897
0.0020647952
0.0011291629
0.00046652742
0.00018495003
0.00033081431
0.00088612766
0.0017820691
0.0029212981
0.0042004434
0.0055268573
0.0068276372
0.0080519187
0.0091688552
0.010163646
0.011051582
0.011845233
0.01254954
0.013176989
0.013741295
0.0015258038
0.0012160078
0.00094924467
0.00073464732
0.00056406105
0.00042924182
0.00032230195
0.00023805912
0.00017274307
0.0001235731
8.5879146e-05
5.5623615e-05
3.3184295e-05
1.8682028e-05
1.0291183e-05
4.498707e-06
1.3750892e-06
0.0018471537
0.0021533166
0.002430247
0.0026770885
0.0029087559
0.0031474645
0.0034089665
0.0037846153
0.0042719502
0.0048694325
0.0054143229
0.005948075
0.0064063094
0.0067250563
0.0068311419
0.0066648742
0.0061848048
0.0053938922
0.0043478156
0.0031613519
0.0019937697
0.0010188217
0.00038663039
0.00019131339
0.00045586728
0.0011371916
0.0021461285
0.0033730599
0.004710391
0.0060671898
0.00737552
0.0085905037
0.0096870717
0.010676034
0.011563065
0.012350185
0.013049678
0.013675199
0.014241912
0.0018843392
0.0015254277
0.0011977764
0.00092977081
0.00071838079
0.00055054325
0.00041616116
0.00030957041
0.00022609648
0.00016352429
0.0001153403
7.9353987e-05
5.1019982e-05
2.9837269e-05
1.6381977e-05
8.7896435e-06
3.6456115e-06
1.1950229e-06
0.0022423003
0.0025842374
0.0029009014
0.0031883127
0.0034446307
0.0036904108
0.0039800758
0.004426004
0.0050243781
0.0057258375
0.0063467078
0.0069296198
0.0074013875
0.0076881422
0.0077087997
0.0074038356
0.0067406352
0.0057427235
0.0044957125
0.0031473922
0.0018839958
0.00089162083
0.00031472623
0.00022697514
0.0006238275
0.0014360187
0.0025555379
0.0038632174
0.0052498856
0.0066281747
0.0079360527
0.0091350767
0.010230114
0.011217724
0.012094703
0.012872601
0.013564796
0.014186147
0.014753375
0.0022923
0.0018878131
0.0015008456
0.0011655683
0.00090034612
0.00069357498
0.00052861231
0.00039677171
0.00029215376
0.00021263169
0.00015131453
0.00010619246
7.2714549e-05
4.6154919e-05
2.6223945e-05
1.4153152e-05
7.3084601e-06
3.142595e-06
9.9284148e-07
0.0026957386
0.0030904592
0.0034615677
0.0037823568
0.0040394043
0.0042959166
0.0046326188
0.0051752649
0.0059005933
0.0067208654
0.0074170084
0.0080415856
0.0085101563
0.0087392375
0.0086410921
0.0081600087
0.0072778772
0.0060455381
0.0045845152
0.003078152
0.00173734
0.00075410436
0.00025936615
0.00029986852
0.0008402696
0.0017853396
0.0030107105
0.0043907343
0.0058171238
0.007207566
0.0085068274
0.0097119951
0.010807542
0.011782255
0.012646179
0.013412077
0.014094434
0.014709401
0.015275357
0.0027579529
0.0022984545
0.0018566347
0.0014545301
0.0011190022
0.00086036979
0.00065945159
0.00050040822
0.00037286636
0.00027386276
0.00019561241
0.00013862441
9.6992584e-05
6.5852594e-05
4.0683748e-05
2.2864536e-05
1.2076437e-05
6.3261762e-06
2.4957073e-06
8.1045693e-07
0.0032260224
0.0036915855
0.0041154177
0.0044422013
0.0046971932
0.0049776576
0.0053903535
0.0060428427
0.0069234127
0.0078697797
0.0086383875
0.0092923971
0.0097350946
0.0098741552
0.009617504
0.0089181274
0.0077794427
0.0062872499
0.0046046274
0.0029513085
0.0015581418
0.00061482051
0.00023012421
0.00041789463
0.0011101042
0.0021871888
0.0035115973
0.00495422
0.0064098119
0.0078026131
0.0091198197
0.010330212
0.011410895
0.012369322
0.01321707
0.01396809
0.014638046
0.015244458
0.015807493
0.0032999799
0.002766298
0.0022591431
0.0017938361
0.0013872333
0.0010592376
0.00081023301
0.0006195626
0.0004682804
0.00034911338
0.00025152788
0.00017899495
0.0001260251
8.7648692e-05
5.8127491e-05
3.5617871e-05
1.9804715e-05
1.0604652e-05
5.2885919e-06
2.1853703e-06
6.4096521e-07
0.0038518825
0.0043928863
0.0048449742
0.0051691854
0.0054320903
0.0057542551
0.0062617446
0.0070594567
0.0081081789
0.0091893407
0.010023511
0.010688888
0.011075974
0.011085294
0.010623837
0.0096595746
0.0082261933
0.0064526325
0.0045481388
0.0027672569
0.0013534898
0.00048420296
0.00023716427
0.00058855418
0.0014375844
0.0026430663
0.0040576222
0.0055515441
0.0070249143
0.0084524443
0.0097832225
0.010977963
0.012039904
0.012978512
0.013806817
0.014540008
0.015194992
0.015790755
0.016349378
0.0039348002
0.0033080669
0.0027179207
0.0021775308
0.0017017882
0.0013025911
0.00098839213
0.00075531495
0.00057667993
0.00043772807
0.0003207248
0.00023075578
0.00016212399
0.00011350649
7.7312803e-05
5.1059292e-05
3.1092083e-05
1.7551684e-05
9.2157539e-06
4.6315715e-06
1.7456762e-06
4.9592054e-07
0.0045794386
0.0051793919
0.005648922
0.0059794476
0.0062611224
0.0066605375
0.0072773122
0.0082387503
0.0094749979
0.010697183
0.011584006
0.012235649
0.012529375
0.012361084
0.01164165
0.010362339
0.0085973905
0.0065271682
0.0044096859
0.0025297012
0.0011333184
0.00037415641
0.00029076772
0.00081891047
0.0018264446
0.0031537722
0.0046471539
0.0061795233
0.0077103352
0.0091644532
0.010480488
0.011655053
0.012694199
0.013609257
0.014414732
0.015127085
0.015764548
0.016347664
0.016900569
0.0046687608
0.0039389308
0.0032481112
0.0026153252
0.0020576535
0.001587431
0.0012055497
0.00091448825
0.00069898102
0.0005377572
0.00040226899
0.00029547433
0.00020891481
0.00014589517
0.00010010861
6.829488e-05
4.487666e-05
2.7646246e-05
1.5477569e-05
8.1756303e-06
3.9298926e-06
1.4912107e-06
3.7411804e-07
0.0053980963
0.0060481092
0.006545589
0.0068923505
0.0072187969
0.0077042629
0.0084515975
0.0096014202
0.011045575
0.0124105
0.013329952
0.013934464
0.014087943
0.013685187
0.012647805
0.011001106
0.0088714641
0.0064980568
0.0041873616
0.0022461005
0.00091013626
0.00029754312
0.00040127264
0.0011156966
0.0022795812
0.0037186642
0.0052771102
0.0068964606
0.0084728291
0.0099156321
0.011211527
0.012361193
0.013373237
0.014260842
0.015039991
0.015728468
0.016345901
0.016914526
0.01746067
0.0054957087
0.0046648319
0.0038630896
0.0031211412
0.0024641318
0.0019101685
0.0014594132
0.0011077385
0.00084183186
0.00065009638
0.0004940083
0.00037188276
0.00026790353
0.00018859702
0.00012922112
8.9019613e-05
6.0518638e-05
4.0101982e-05
2.4505945e-05
1.3812829e-05
7.1670098e-06
3.4045777e-06
1.1999774e-06
2.7709725e-07
0.0063047091
0.0070214585
0.0075576104
0.0079314961
0.0083127748
0.0089030399
0.0098062552
0.011173075
0.012841837
0.014345379
0.015269262
0.015783662
0.015739504
0.015035594
0.013614136
0.01154772
0.0090270678
0.006355486
0.003883614
0.0019277062
0.00069858543
0.00026812756
0.00057915411
0.0014847762
0.0027980262
0.0043351672
0.0060176491
0.0077090044
0.0092811485
0.010706022
0.011976171
0.013095904
0.014076308
0.014932397
0.01568164
0.016343192
0.016938219
0.017490729
0.018029179
0.0064144225
0.0054837057
0.0045688131
0.0037066458
0.0029338923
0.0022795328
0.0017487671
0.0013341055
0.0010143888
0.00078112838
0.00059709383
0.00045800939
0.00033775178
0.00024298286
0.00016810253
0.00011590021
7.9505266e-05
5.4439763e-05
3.5733691e-05
2.1868773e-05
1.2205557e-05
6.2833211e-06
2.877815e-06
9.8772591e-07
2.009398e-07
0.0073243585
0.0081242409
0.0087069044
0.0091119777
0.0095715367
0.010272906
0.011372174
0.012979565
0.014885148
0.016516112
0.017407019
0.017777144
0.017465805
0.01638367
0.014507309
0.011972008
0.0090445119
0.0060940358
0.0035057858
0.0015893212
0.00051545468
0.00030068119
0.00083420308
0.0019297301
0.003380307
0.0050862397
0.0068764164
0.0085758951
0.010135476
0.011535615
0.012774044
0.013858522
0.014802528
0.015622897
0.016338592
0.01697028
0.017540693
0.018075531
0.018605571
0.0074499716
0.0063978971
0.0053663754
0.0043776314
0.0034767377
0.0027069753
0.0020818411
0.0015948136
0.0012177986
0.00093962
0.00071768583
0.00055507991
0.00041706299
0.00030769935
0.00021815583
0.00015202159
0.00010446979
7.1980102e-05
4.887388e-05
3.1949356e-05
1.9340282e-05
1.0734734e-05
5.4179053e-06
2.4054311e-06
7.7722656e-07
1.4282274e-07
0.0084848309
0.0093805004
0.010008147
0.010454184
0.0109962
0.011847315
0.013177371
0.015046025
0.017196445
0.018935263
0.019745011
0.019903054
0.019240948
0.017693444
0.015289219
0.012243168
0.0089075899
0.0057137985
0.0030662703
0.0012495443
0.00037994032
0.00040984413
0.0011735945
0.0024510148
0.0041221357
0.0059825098
0.0078006228
0.0094974415
0.011035988
0.012404178
0.013604571
0.014648184
0.015550837
0.016331165
0.017009752
0.017608744
0.018152384
0.018668116
0.019189303
0.0086317402
0.0074301853
0.0062610558
0.0051363923
0.0040978808
0.0032006406
0.002468647
0.0018976303
0.0014556294
0.0011282376
0.00086412284
0.0006689453
0.00050708528
0.00038161077
0.00027850598
0.00019857039
0.00013810058
9.5145751e-05
6.5085738e-05
4.3912536e-05
2.8332055e-05
1.6983612e-05
9.2731522e-06
4.5719746e-06
1.9478328e-06
5.9737177e-07
9.7886809e-08
0.009812899