/*--------------------------------*- C++ -*----------------------------------*\
| =========                 |                                                 |
| \\      /  F ield         | OpenFOAM: The Open Source CFD Toolbox           |
|  \\    /   O peration     | Version:  5.0                                   |
|   \\  /    A nd           | Web:      www.OpenFOAM.org                      |
|    \\/     M anipulation  |                                                 |
\*---------------------------------------------------------------------------*/
FoamFile
{
    version     2.0;
    format      ascii;
    class       volVectorField;
    location    "180";
    object      U;
}
// * * * * * * * * * * * * * * * * * * * * * * * * * * * * * * * * * * * * * //

dimensions      [0 1 -1 0 0 0 0];

internalField   nonuniform List<vector> 
9520
(
(1.0142193 0.00016485003 0)
(1.0143189 0.00048332581 0)
(1.013729 0.00016269247 0)
(1.0144947 0.00077932554 0)
(1.0138303 0.00047771431 0)
(1.013542 0.00016258794 0)
(1.0147305 0.0010523312 0)
(1.0140106 0.00077183249 0)
(1.0136428 0.00047667935 0)
(1.0132326 0.00016693813 0)
(1.0150118 0.0013019316 0)
(1.0142546 0.0010443537 0)
(1.0138235 0.00077007058 0)
(1.0133343 0.00048849374 0)
(1.0129895 0.00017362645 0)
(1.0153255 0.0015275689 0)
(1.0145484 0.0012961188 0)
(1.0140683 0.0010424384 0)
(1.0135161 0.00078892571 0)
(1.013092 0.00050832078 0)
(1.0127095 0.00017889308 0)
(1.0156606 0.0017291954 0)
(1.0148792 0.0015259189 0)
(1.0143642 0.0012959693 0)
(1.0137618 0.0010688381 0)
(1.0132745 0.00082172623 0)
(1.0128115 0.00052555566 0)
(1.0124524 0.00017894766 0)
(1.0160079 0.001906394 0)
(1.0152364 0.0017336207 0)
(1.0146991 0.0015296553 0)
(1.0140588 0.0013307252 0)
(1.0135208 0.0011152942 0)
(1.0129921 0.00085243748 0)
(1.0125527 0.00052801058 0)
(1.0121982 0.00017443459 0)
(1.0163605 0.0020586384 0)
(1.0156117 0.0019195195 0)
(1.0150621 0.0017430918 0)
(1.0143969 0.0015748635 0)
(1.0138185 0.0013903374 0)
(1.0132363 0.0011616914 0)
(1.0127301 0.00085999281 0)
(1.0122939 0.00051612765 0)
(1.0119659 0.00016828742 0)
(1.0167151 0.0021849813 0)
(1.0159992 0.0020842229 0)
(1.0154434 0.0019362502 0)
(1.0147654 0.0018013254 0)
(1.0141581 0.001648371 0)
(1.0135316 0.0014534481 0)
(1.012971 0.0011774476 0)
(1.0124643 0.00084344225 0)
(1.012057 0.00049785838 0)
(1.0117486 0.0001636765 0)
(1.0170738 0.0022822479 0)
(1.016396 0.0022307613 0)
(1.0158331 0.0021099644 0)
(1.015154 0.0020097751 0)
(1.0145295 0.0018902791 0)
(1.0138676 0.0017300677 0)
(1.0132624 0.0014807451 0)
(1.0126968 0.0011591411 0)
(1.0122204 0.00081477162 0)
(1.0118352 0.00048302742 0)
(1.0115441 0.00016201318 0)
(1.0174376 0.0023597862 0)
(1.0168027 0.002367461 0)
(1.0162212 0.0022695493 0)
(1.0155511 0.0021999462 0)
(1.0149233 0.0021159552 0)
(1.0142353 0.0019933903 0)
(1.0135932 0.0017715501 0)
(1.012979 0.0014660602 0)
(1.0124429 0.0011216722 0)
(1.0119911 0.00079047373 0)
(1.0116271 0.0004767065 0)
(1.0113475 0.00016228257 0)
(1.0177872 0.0024166072 0)
(1.0172132 0.0025014193 0)
(1.0165921 0.0024216285 0)
(1.0159433 0.0023722037 0)
(1.0153305 0.0023241009 0)
(1.0146277 0.0022440045 0)
(1.0139547 0.0020519759 0)
(1.0132985 0.0017645993 0)
(1.0127138 0.0014239542 0)
(1.0122024 0.0010892724 0)
(1.0117756 0.00077938041 0)
(1.0114275 0.00047687696 0)
(1.0111572 0.00016195918 0)
(1.0181045 0.0024808267 0)
(1.017546 0.0026496977 0)
(1.0168939 0.0025818662 0)
(1.0163115 0.0025221396 0)
(1.0157408 0.0025102742 0)
(1.0150406 0.0024809026 0)
(1.0143406 0.0023237008 0)
(1.0136463 0.0020561002 0)
(1.0130218 0.0017219234 0)
(1.0124583 0.0013850598 0)
(1.0119759 0.0010748654 0)
(1.0115686 0.00077915196 0)
(1.0112344 0.00047651843 0)
(1.010975 0.00015853681 0)
(1.0184194 0.0025127946 0)
(1.0178333 0.0028350637 0)
(1.0171528 0.0027429668 0)
(1.0166598 0.0026440754 0)
(1.0161526 0.0026634536 0)
(1.0154772 0.0026989329 0)
(1.0147478 0.0025884254 0)
(1.0140146 0.0023423353 0)
(1.0133567 0.0020154896 0)
(1.01275 0.0016792142 0)
(1.0122178 0.0013680716 0)
(1.0117576 0.0010748266 0)
(1.0113683 0.00077914916 0)
(1.0110488 0.0004679079 0)
(1.0108049 0.00015069667 0)
(1.0187354 0.002619384 0)
(1.0180824 0.0030020535 0)
(1.0174333 0.0028722728 0)
(1.0170216 0.0027092989 0)
(1.0165935 0.002769511 0)
(1.0159499 0.0028910281 0)
(1.0151759 0.0028501907 0)
(1.0143963 0.0026266135 0)
(1.0137092 0.0023048017 0)
(1.0130686 0.0019718544 0)
(1.0124936 0.0016612238 0)
(1.0119847 0.0013688444 0)
(1.0115462 0.0010749658 0)
(1.0111758 0.00076667321 0)
(1.0108746 0.00044638038 0)
(1.0106513 0.00013876566 0)
(1.0190731 0.0026036932 0)
(1.018299 0.0032282962 0)
(1.0176318 0.0029612596 0)
(1.0173957 0.0027185594 0)
(1.0170615 0.002793876 0)
(1.0164631 0.0030585325 0)
(1.0156243 0.0031191295 0)
(1.0147839 0.0029161827 0)
(1.0140682 0.0025904973 0)
(1.0134055 0.0022618538 0)
(1.0127956 0.0019557449 0)
(1.0122426 0.0016642118 0)
(1.0117584 0.0013693265 0)
(1.011343 0.0010591246 0)
(1.0109942 0.00073305613 0)
(1.0107166 0.00041215543 0)
(1.010517 0.00012449483 0)
(1.0193811 0.0029055954 0)
(1.0184365 0.0034275067 0)
(1.0177534 0.0030240934 0)
(1.0177447 0.0026544661 0)
(1.0175195 0.0027885949 0)
(1.0170073 0.0031983072 0)
(1.0160999 0.0034027257 0)
(1.0151696 0.0032195149 0)
(1.0144229 0.0028744466 0)
(1.013752 0.0025468496 0)
(1.0131169 0.0022511392 0)
(1.0125242 0.0019640554 0)
(1.0119973 0.0016666236 0)
(1.01154 0.0013494654 0)
(1.0111513 0.0010158135 0)
(1.0108283 0.00067760412 0)
(1.0105783 0.0003700102 0)
(1.0104022 0.00011026657 0)
(1.0197611 0.0027250518 0)
(1.0185754 0.0038356007 0)
(1.0176958 0.0031402347 0)
(1.0179745 0.0025482323 0)
(1.0180641 0.0027318795 0)
(1.017547 0.0033334139 0)
(1.0165826 0.0037293364 0)
(1.0155337 0.0035548231 0)
(1.0147584 0.0031575314 0)
(1.0140988 0.0028221963 0)
(1.0134515 0.0025448801 0)
(1.0128245 0.0022698443 0)
(1.0122557 0.0019714391 0)
(1.0117583 0.0016443745 0)
(1.0113338 0.0012962673 0)
(1.0109752 0.00094162994 0)
(1.0106827 0.00060803758 0)
(1.0104603 0.00032695059 0)
(1.0103047 9.8095396e-05 0)
(1.0199445 0.0034618129 0)
(1.0184182 0.0041320473 0)
(1.0174415 0.0030985282 0)
(1.0181131 0.0022681308 0)
(1.0186525 0.0025955908 0)
(1.0181664 0.0034608633 0)
(1.0170419 0.0041073152 0)
(1.0158544 0.0039443741 0)
(1.0150506 0.0034488132 0)
(1.014431 0.0030804842 0)
(1.0137944 0.0028307895 0)
(1.0131414 0.0025810501 0)
(1.012529 0.0022875522 0)
(1.01199 0.0019492239 0)
(1.0115316 0.0015822307 0)
(1.0111444 0.0012058491 0)
(1.0108189 0.00084390854 0)
(1.0105594 0.00053623764 0)
(1.0103607 0.00028906387 0)
(1.0102211 8.8939283e-05 0)
(1.0202162 0.0029740167 0)
(1.0184969 0.0048570539 0)
(1.0169343 0.0033621152 0)
(1.0181484 0.0018759357 0)
(1.0193903 0.0022791772 0)
(1.0189318 0.0036199946 0)
(1.0175062 0.0045530426 0)
(1.0160863 0.0044046898 0)
(1.0152619 0.0037435659 0)
(1.0147308 0.0033144009 0)
(1.0141406 0.0030994147 0)
(1.0134753 0.0028940807 0)
(1.0128158 0.0026176073 0)
(1.0122296 0.0022696306 0)
(1.0117361 0.0018790994 0)
(1.0113226 0.0014751832 0)
(1.0109748 0.0010830009 0)
(1.0106868 0.00073982548 0)
(1.010457 0.00047211704 0)
(1.0102762 0.00025950537 0)
(1.0101478 8.2632428e-05 0)
(1.0199125 0.0042937563 0)
(1.0178106 0.0053300302 0)
(1.0161836 0.0030498549 0)
(1.0180832 0.0012874504 0)
(1.0202006 0.0018596526 0)
(1.0198936 0.0037532283 0)
(1.018019 0.0051252235 0)
(1.0162298 0.0049418511 0)
(1.0153745 0.0040576606 0)
(1.01496 0.0034916095 0)
(1.014485 0.0033318353 0)
(1.0138314 0.0032020083 0)
(1.0131192 0.002964082 0)
(1.0124744 0.0026111624 0)
(1.0119403 0.002192869 0)
(1.0115015 0.0017544603 0)
(1.0111367 0.0013273195 0)
(1.0108304 0.00094664294 0)
(1.0105786 0.00064606483 0)
(1.0103715 0.00042037065 0)
(1.0102035 0.00023836745 0)
(1.0100819 7.8332466e-05 0)
(1.0195487 0.0034365957 0)
(1.017822 0.0063913229 0)
(1.0149669 0.0037336938 0)
(1.0177731 0.00032525823 0)
(1.021252 0.0010675339 0)
(1.0210895 0.0039921513 0)
(1.018575 0.0058795145 0)
(1.0162279 0.0056127864 0)
(1.0153497 0.0043391801 0)
(1.0151812 0.0036220616 0)
(1.0148315 0.0034943901 0)
(1.0142223 0.0034869335 0)
(1.013451 0.003328313 0)
(1.0127253 0.0029820004 0)
(1.0121377 0.0025299342 0)
(1.0116725 0.0020486507 0)
(1.0112946 0.001579678 0)
(1.0109778 0.0011572718 0)
(1.010713 0.00082033433 0)
(1.0104904 0.00057087641 0)
(1.0102991 0.00038117848 0)
(1.0101399 0.00022378641 0)
(1.0100215 7.5046999e-05 0)
(1.0182218 0.0054049064 0)
(1.0155498 0.0071199154 0)
(1.0136094 0.002908671 0)
(1.0173174 -0.00062334038 0)
(1.0222847 0.00020557919 0)
(1.0225805 0.0040850828 0)
(1.0192208 0.0069092924 0)
(1.0160277 0.0064597429 0)
(1.0150801 0.0046369132 0)
(1.0153085 0.0035988768 0)
(1.0152292 0.0035622392 0)
(1.0146837 0.0037306289 0)
(1.0138318 0.0037088736 0)
(1.0129887 0.0033928637 0)
(1.0123232 0.0029002409 0)
(1.0118266 0.0023627173 0)
(1.0114395 0.0018429882 0)
(1.0111185 0.0013741262 0)
(1.0108495 0.00099648818 0)
(1.010619 0.00071646 0)
(1.0104178 0.00051365734 0)
(1.0102371 0.00035259367 0)
(1.010083 0.00021319728 0)
(1.0099657 7.191114e-05 0)
(1.0186489 0.0046920885 0)
(1.0129738 0.008302919 0)
(1.0107692 0.0043697412 0)
(1.0164044 -0.0024135355 0)
(1.0239623 -0.0013099957 0)
(1.0244291 0.0045506106 0)
(1.0199014 0.0082645903 0)
(1.0155703 0.0075874856 0)
(1.0145059 0.0048899887 0)
(1.015293 0.0034171762 0)
(1.0157303 0.0034713178 0)
(1.0152179 0.0038826819 0)
(1.0143002 0.004112818 0)
(1.0132769 0.0038617179 0)
(1.0124921 0.0033176792 0)
(1.0119537 0.0027034215 0)
(1.0115615 0.002119393 0)
(1.0112438 0.001598636 0)
(1.0109773 0.0011767582 0)
(1.0107476 0.00086165168 0)
(1.010544 0.00063572116 0)
(1.0103573 0.00046949652 0)
(1.0101836 0.00033196663 0)
(1.0100311 0.00020406224 0)
(1.0099143 6.828446e-05 0)
(1.0174685 0.0070557969 0)
(1.012279 0.0095734583 0)
(1.0077434 0.0026983366 0)
(1.0152563 -0.0037982321 0)
(1.0249977 -0.0027593381 0)
(1.0266804 0.004421784 0)
(1.0207453 0.010107279 0)
(1.0147675 0.0090233013 0)
(1.0135133 0.0051774489 0)
(1.0150777 0.0029548942 0)
(1.0162993 0.0031759248 0)
(1.0159011 0.0040006187 0)
(1.0148473 0.0045296355 0)
(1.0136113 0.004416069 0)
(1.0126397 0.0038063373 0)
(1.0120395 0.0030793576 0)
(1.011649 0.0024097408 0)
(1.0113452 0.0018308203 0)
(1.0110883 0.00136264 0)
(1.0108655 0.0010090954 0)
(1.0106675 0.00075380549 0)
(1.0104845 0.00057253106 0)
(1.0103071 0.00043381891 0)
(1.0101372 0.00031558827 0)
(1.0099835 0.00019410148 0)
(1.0098675 6.3817884e-05 0)
(1.010862 0.0062508277 0)
(1.0113777 0.011266728 0)
(1.0050381 0.0045636858 0)
(1.0134645 -0.0066865675 0)
(1.026897 -0.0053076592 0)
(1.0291242 0.0054680377 0)
(1.0214579 0.012402815 0)
(1.0135123 0.010891188 0)
(1.0120082 0.0054096042 0)
(1.0145841 0.0022188972 0)
(1.0169312 0.0025244822 0)
(1.0168524 0.0040528736 0)
(1.0155031 0.0050083565 0)
(1.0139677 0.0050984038 0)
(1.0127548 0.0043998772 0)
(1.0120652 0.003504569 0)
(1.0116861 0.0027132016 0)
(1.0114139 0.0020668865 0)
(1.0111766 0.0015537872 0)
(1.0109652 0.0011612911 0)
(1.0107778 0.00087183041 0)
(1.0106059 0.00066646566 0)
(1.0104379 0.00051976278 0)
(1.0102664 0.00040321523 0)
(1.0100968 0.00029839061 0)
(1.0099406 0.00018149927 0)
(1.0098257 5.8468586e-05 0)
(0.99722354 0.0094828518 0)
(0.99795208 0.012421151 0)
(1.0021692 0.0023683548 0)
(1.0119042 -0.0089909905 0)
(1.0281356 -0.0071754433 0)
(1.0312674 0.0048418404 0)
(1.0225192 0.015528372 0)
(1.0115975 0.013299617 0)
(1.0097685 0.0057089776 0)
(1.0137444 0.00099105141 0)
(1.0176658 0.0014863082 0)
(1.0181374 0.0039220381 0)
(1.0164263 0.0055852716 0)
(1.014341 0.0059372018 0)
(1.0128098 0.005149501 0)
(1.011996 0.0039960503 0)
(1.0116518 0.0030280065 0)
(1.0114392 0.0022989112 0)
(1.0112383 0.001745291 0)
(1.0110428 0.0013191371 0)
(1.0108673 0.0009941042 0)
(1.0107111 0.00075681236 0)
(1.010561 0.00059097447 0)
(1.0104032 0.00047095761 0)
(1.0102347 0.00037321055 0)
(1.0100621 0.00027591418 0)
(1.0099032 0.00016553675 0)
(1.0097895 5.25128e-05 0)
(0.98381759 0.0097566313 0)
(0.98143465 0.014164531 0)
(0.99081524 0.0049421495 0)
(1.01013 -0.012799869 0)
(1.0312696 -0.010964845 0)
(1.0337227 0.006840489 0)
(1.0225282 0.019241916 0)
(1.008911 0.016275807 0)
(1.0066811 0.0059748304 0)
(1.0124251 -0.0006579748 0)
(1.0185062 -0.00021742534 0)
(1.0198707 0.0036139157 0)
(1.0177111 0.006280143 0)
(1.0148272 0.0070164675 0)
(1.0127517 0.0060850336 0)
(1.0117976 0.004583109 0)
(1.0115103 0.0033480009 0)
(1.0114066 0.0025106425 0)
(1.0112714 0.0019260818 0)
(1.0110996 0.0014799501 0)
(1.0109336 0.0011240383 0)
(1.0107916 0.00085008787 0)
(1.010664 0.00065403022 0)
(1.0105314 0.00051917341 0)
(1.0103802 0.00042128323 0)
(1.0102112 0.00033915439 0)
(1.0100331 0.00024689699 0)
(1.0098719 0.00014722613 0)
(1.0097587 4.6543218e-05 0)
(0.96913417 0.012189366 0)
(0.96715117 0.015677725 0)
(0.9781463 0.0010343198 0)
(1.0054796 -0.015484266 0)
(1.0327121 -0.013349807 0)
(1.0383686 0.0061905917 0)
(1.0214434 0.024028804 0)
(1.0047222 0.020157183 0)
(1.0023587 0.0062409185 0)
(1.0105836 -0.0031076965 0)
(1.0194953 -0.0025216572 0)
(1.0221552 0.0028978619 0)
(1.0194963 0.0071724455 0)
(1.0154648 0.0084456359 0)
(1.0125584 0.0072926085 0)
(1.0114016 0.0052866047 0)
(1.0112166 0.0036628411 0)
(1.0112951 0.002677231 0)
(1.0112751 0.0020747125 0)
(1.0111423 0.0016353451 0)
(1.0109806 0.0012635502 0)
(1.0108445 0.00095287622 0)
(1.0107371 0.00071725555 0)
(1.0106358 0.00055453242 0)
(1.0105164 0.00044642991 0)
(1.0103684 0.00036853091 0)
(1.0101951 0.00029829107 0)
(1.0100105 0.00021420466 0)
(1.0098463 0.00012888652 0)
(1.0097327 4.1310465e-05 0)
(0.95267574 0.013237567 9.7341811e-24)
(0.9514776 0.016520154 0)
(0.9657001 0.0010648836 0)
(1.00021 -0.021336683 0)
(1.0328978 -0.018869683 0)
(1.0416671 0.00919405 0)
(1.0227568 0.028803764 0)
(0.99913267 0.024367773 0)
(0.99671482 0.0065624326 0)
(1.0079658 -0.0062077462 0)
(1.0207259 -0.0059133372 0)
(1.0251696 0.0019055839 0)
(1.0219057 0.0082103367 0)
(1.016329 0.010374505 0)
(1.01219 0.0088836472 0)
(1.0106958 0.0061405944 0)
(1.0107107 0.003958971 0)
(1.0110759 0.0027596396 0)
(1.0112513 0.002159109 0)
(1.011184 0.0017687537 0)
(1.01102 0.0014112652 0)
(1.0108733 0.0010724836 0)
(1.0107753 0.0007901357 0)
(1.0107043 0.00058615506 0)
(1.0106258 0.00045366397 0)
(1.0105154 0.00036961495 0)
(1.0103669 0.00030944259 0)
(1.0101861 0.00024960848 0)
(1.0099949 0.00018236533 0)
(1.009826 0.00011286604 0)
(1.0097106 3.7493059e-05 0)
(0.93391142 0.0153713 -7.3923287e-24)
(0.93390396 0.018026391 -1.0169743e-23)
(0.95289507 -0.0030972434 0)
(0.99211082 -0.025568319 0)
(1.0302218 -0.021244303 0)
(1.0415915 0.0063304754 0)
(1.0305344 0.036236075 0)
(0.99434275 0.029358893 0)
(0.98943359 0.0064902425 0)
(1.0046992 -0.010470338 0)
(1.0221274 -0.010154106 0)
(1.0290308 0.00018221988 0)
(1.025153 0.0095994591 0)
(1.0174585 0.012935055 0)
(1.0115894 0.011031943 0)
(1.009572 0.0071848279 0)
(1.0098878 0.0042180826 0)
(1.0107089 0.0027027507 0)
(1.011198 0.0021299401 0)
(1.0112457 0.0018543057 0)
(1.0110715 0.0015626954 0)
(1.0108894 0.0012171233 0)
(1.0107785 0.0008857391 0)
(1.0107285 0.00062548185 0)
(1.0106936 0.00045101375 0)
(1.0106338 0.00034544017 0)
(1.0105288 0.0002837967 0)
(1.0103755 0.000241524 0)
(1.0101849 0.00019911516 0)
(1.0099855 0.00015438612 0)
(1.0098097 0.00010092301 0)
(1.0096911 3.555715e-05 0)
(0.91376689 0.017078579 7.421525e-24)
(0.91446848 0.019228739 3.5448535e-23)
(0.93631352 -0.0049818917 0)
(0.98271607 -0.030873049 0)
(1.0219825 -0.026080473 0)
(1.0350886 0.01054322 0)
(1.0265716 0.042738525 0)
(0.99134763 0.036354099 0)
(0.98123974 0.0068057613 0)
(1.0003434 -0.015833656 0)
(1.0239592 -0.015995195 0)
(1.033939 -0.0019293165 0)
(1.0293526 0.011132173 0)
(1.0189665 0.016356366 0)
(1.0106728 0.013883921 0)
(1.0078782 0.0085314661 0)
(1.0086148 0.0043756634 0)
(1.01014 0.0024424744 0)
(1.0111192 0.0019268302 0)
(1.0113349 0.0018491307 0)
(1.0111623 0.0017088751 0)
(1.0109131 0.0013987088 0)
(1.0107533 0.0010212591 0)
(1.010703 0.00068864286 0)
(1.0107077 0.0004501822 0)
(1.0107064 0.00030321011 0)
(1.0106614 0.00022452659 0)
(1.0105568 0.00018913032 0)
(1.010394 0.00017100653 0)
(1.0101911 0.00015490811 0)
(1.0099808 0.00013291561 0)
(1.009796 9.427166e-05 0)
(1.0096728 3.57158e-05 0)
(0.89348367 0.018928724 0)
(0.89444715 0.020692048 -3.5509214e-23)
(0.91815285 -0.0085168867 0)
(0.96876379 -0.036063141 0)
(1.0119775 -0.026900001 0)
(1.0219826 0.011987256 0)
(1.0025793 0.05111032 0)
(0.97969596 0.045063701 0)
(0.97044624 0.0062931659 0)
(0.99520595 -0.022416916 0)
(1.0258124 -0.022784345 0)
(1.0399012 -0.0051761791 0)
(1.0347746 0.013259851 0)
(1.0208286 0.02080968 0)
(1.0093373 0.017688219 0)
(1.005439 0.010209846 0)
(1.0067343 0.0044334409 0)
(1.009289 0.0018522853 0)
(1.0110157 0.0014404125 0)
(1.0115483 0.0017260731 0)
(1.0113271 0.0018340988 0)
(1.0109774 0.0016259155 0)
(1.0107153 0.001219744 0)
(1.0106269 0.00079728501 0)
(1.0106566 0.00046778964 0)
(1.0107173 0.00025346129 0)
(1.0107456 0.00013852346 0)
(1.0107084 9.5170765e-05 0)
(1.0105969 9.3901181e-05 0)
(1.0104209 0.00010742894 0)
(1.0102032 0.00011946257 0)
(1.0099796 0.0001199953 0)
(1.0097838 9.3510682e-05 0)
(1.009655 3.7945613e-05 0)
(0.87342596 0.020626373 -4.5302886e-24)
(0.87494706 0.021983254 0)
(0.89907056 -0.011675573 -3.2804326e-23)
(0.95180914 -0.041200348 0)
(0.99860312 -0.030930847 0)
(1.0082846 0.01861612 0)
(0.98216751 0.058926779 0)
(0.95781871 0.052292675 0)
(0.95721197 0.0081664932 0)
(0.98810379 -0.030582174 0)
(1.0279763 -0.031577963 0)
(1.0467958 -0.0086321449 0)
(1.0412594 0.015539885 0)
(1.023177 0.026594956 0)
(1.0074139 0.022655776 0)
(1.0019962 0.012405678 0)
(1.0040584 0.0042644558 0)
(1.0080598 0.0008449497 0)
(1.0108876 0.00053557237 0)
(1.0119182 0.00135851 0)
(1.0116727 0.0019151872 0)
(1.0111388 0.0019043561 0)
(1.0106919 0.001504837 0)
(1.0105055 0.00098103473 0)
(1.0105318 0.00052697016 0)
(1.0106495 0.00021187874 0)
(1.0107624 3.3174208e-05 0)
(1.010812 -3.578009e-05 0)
(1.010773 -3.2996085e-05 0)
(1.0106485 5.8445274e-06 0)
(1.0104546 5.5774767e-05 0)
(1.0102201 9.6096671e-05 0)
(1.009981 0.00011607578 0)
(1.009773 9.8357346e-05 0)
(1.0096361 4.220587e-05 0)
(0.85461081 0.022091574 1.6415705e-24)
(0.85665987 0.023272505 6.4893728e-23)
(0.88002504 -0.015187862 3.2788031e-23)
(0.93280015 -0.046644676 -4.6313417e-24)
(0.98197536 -0.03435744 -1.4027019e-22)
(0.9926795 0.022227465 0)
(0.96467324 0.068076508 0)
(0.93867963 0.059113501 0)
(0.94263566 0.0073735216 0)
(0.97923452 -0.03980516 0)
(1.0296972 -0.041051054 0)
(1.0545433 -0.013796031 0)
(1.0485799 0.018843743 0)
(1.0255678 0.033928239 0)
(1.004725 0.029041708 0)
(0.99729986 0.015131691 0)
(1.0003449 0.003917891 0)
(1.0063295 -0.00081317175 0)
(1.0107374 -0.00091102425 0)
(1.0125116 0.0006462376 0)
(1.0123201 0.0019302261 0)
(1.0114404 0.0022253462 0)
(1.0107351 0.0019202243 0)
(1.0103497 0.0012769967 0)
(1.010325 0.00065779592 0)
(1.0104871 0.00019910304 0)
(1.0106911 -7.8496923e-05 0)
(1.0108448 -0.00019875905 0)
(1.0109029 -0.00020827996 0)
(1.0108544 -0.00015280422 0)
(1.0107098 -6.7177173e-05 0)
(1.0104937 1.9664028e-05 0)
(1.0102397 8.6946822e-05 0)
(1.0099829 0.00011936574 0)
(1.0097612 0.00010911524 0)
(1.0096155 4.825456e-05 0)
(0.83809446 0.023242657 1.8307737e-24)
(0.84049088 0.024326299 -9.4395054e-23)
(0.86194849 -0.018504611 0)
(0.91253143 -0.051950527 1.5861127e-22)
(0.96221977 -0.03727965 1.3959736e-22)
(0.97563756 0.024981008 1.3499079e-22)
(0.94647651 0.076578462 6.9821113e-23)
(0.92095503 0.062674333 0)
(0.92780096 0.0069175905 0)
(0.97212167 -0.051717045 0)
(1.0325987 -0.054073329 0)
(1.0645611 -0.018262937 0)
(1.0567511 0.022381774 0)
(1.0274647 0.043256633 0)
(1.0006921 0.0371903 0)
(0.99095522 0.018598121 0)
(0.99535289 0.0031552258 0)
(1.0039773 -0.0031723193 0)
(1.0105476 -0.0031544208 0)
(1.0134258 -0.00052321736 0)
(1.0133638 0.001796305 0)
(1.0120389 0.0026802642 0)
(1.0108532 0.0024816822 0)
(1.0101927 0.0017494075 0)
(1.0100287 0.00090355603 0)
(1.0102099 0.00024120012 0)
(1.0105089 -0.00018146887 0)
(1.010785 -0.00038679072 0)
(1.0109624 -0.00042955055 0)
(1.0110162 -0.00036985124 0)
(1.0109487 -0.00025436976 0)
(1.0107788 -0.00012090185 0)
(1.0105371 1.3180566e-06 0)
(1.0102584 9.1643479e-05 0)
(1.0099837 0.00013693638 0)
(1.0097474 0.00012561234 0)
(1.0095924 5.5774493e-05 0)
(0.82486329 0.024112116 1.934096e-24)
(0.8272801 0.025181737 2.0554154e-23)
(0.84549825 -0.021734579 6.9353903e-24)
(0.89200038 -0.056939826 -7.9708477e-23)
(0.94106499 -0.040966736 -1.5990023e-22)
(0.95515415 0.029623594 1.5321917e-22)
(0.92932771 0.084265244 -1.1571798e-23)
(0.90248697 0.070895945 2.2370673e-23)
(0.91327615 0.00071880763 0)
(0.96433145 -0.063803019 0)
(1.0350957 -0.067312114 0)
(1.0782556 -0.027657554 0)
(1.0692624 0.027478121 0)
(1.0292309 0.054707587 0)
(0.99456658 0.047049557 0)
(0.98260652 0.022884868 0)
(0.98872119 0.0020416825 0)
(1.0008536 -0.0066279351 0)
(1.0103218 -0.0062970316 0)
(1.0147637 -0.0023771972 0)
(1.0149611 0.0014723406 0)
(1.0130762 0.0032566214 0)
(1.0111538 0.0032997695 0)
(1.0100217 0.0024479055 0)
(1.0096431 0.0013229343 0)
(1.0097967 0.00037764215 0)
(1.0101891 -0.00025623419 0)
(1.010606 -0.00059028372 0)
(1.0109291 -0.00069412601 0)
(1.0111119 -0.0006467908 0)
(1.0111485 -0.00050995057 0)
(1.0110531 -0.00033217137 0)
(1.010853 -0.0001525896 0)
(1.0105814 1.5632263e-06 0)
(1.0102786 0.00011111103 0)
(1.0099829 0.00016295157 0)
(1.0097312 0.00014679079 0)
(1.0095664 6.434849e-05 0)
(0.81524133 0.024578491 -3.1648057e-24)
(0.8175273 0.025676216 -1.0731566e-24)
(0.83195988 -0.024493922 0)
(0.87172969 -0.06145437 4.8719656e-24)
(0.91848602 -0.044064583 -7.3101374e-23)
(0.93436717 0.032933047 0)
(0.90992261 0.092769753 -3.0593205e-22)
(0.88578012 0.077658635 -2.6938103e-22)
(0.89553199 0.00058230165 0)
(0.95836161 -0.077481138 0)
(1.0349203 -0.083022387 0)
(1.0853948 -0.03341032 0)
(1.0875161 0.031174508 0)
(1.036221 0.067945595 0)
(0.98727179 0.059089236 0)
(0.97150313 0.027803471 0)
(0.9802734 0.00028601075 0)
(0.99677657 -0.011165833 0)
(1.0100395 -0.010783179 0)
(1.0166409 -0.0049973322 0)
(1.017295 0.00079957211 0)
(1.0147236 0.0040016967 0)
(1.011768 0.004467571 0)
(1.0098593 0.0034655522 0)
(1.0091533 0.0019958154 0)
(1.0092141 0.00064539871 0)
(1.0096997 -0.00027968733 0)
(1.0102788 -0.00079976449 0)
(1.010777 -0.00099912337 0)
(1.011119 -0.00098368119 0)
(1.011288 -0.00083673576 0)
(1.011295 -0.00062027739 0)
(1.0111649 -0.00038284447 0)
(1.0109293 -0.00016089599 0)
(1.0106254 1.9921185e-05 0)
(1.0102964 0.00014364842 0)
(1.0099792 0.00019675959 0)
(1.0097118 0.00017160051 0)
(1.0095372 7.3593484e-05 0)
(0.81061025 0.024683187 0)
(0.81204432 0.025912794 0)
(0.8217738 -0.026930098 1.1087936e-24)
(0.8535327 -0.06523686 0)
(0.89527245 -0.047058517 4.0458268e-24)
(0.9119154 0.036781815 1.6398709e-22)
(0.89122981 0.10066499 4.75325e-22)
(0.86842761 0.085531182 -1.8951735e-22)
(0.87851619 0.001255346 0)
(0.94446355 -0.091291581 0)
(1.0338914 -0.093983988 0)
(1.0856149 -0.047048719 0)
(1.0965672 0.036914308 0)
(1.0490531 0.083437906 0)
(0.98333949 0.072958911 0)
(0.95774393 0.033715778 0)
(0.96944178 -0.0022646679 0)
(0.99171771 -0.017355724 0)
(1.0096812 -0.016551345 0)
(1.019182 -0.0088143927 0)
(1.0205943 -0.00022017283 0)
(1.0171791 0.004874823 0)
(1.0128334 0.0061198838 0)
(1.0097765 0.0049545326 0)
(1.0084943 0.0029835623 0)
(1.0084383 0.0011295437 0)
(1.0089948 -0.00022348475 0)
(1.0097665 -0.0010089795 0)
(1.010478 -0.00134575 0)
(1.011014 -0.0013836186 0)
(1.0113465 -0.0012379631 0)
(1.0114841 -0.00098931172 0)
(1.0114518 -0.00069679563 0)
(1.0112803 -0.00040452594 0)
(1.0110056 -0.00014627941 0)
(1.0106686 5.6499798e-05 0)
(1.0103116 0.00018780124 0)
(1.0099722 0.000236691 0)
(1.0096891 0.00019883293 0)
(1.009505 8.3137505e-05 0)
(0.81079289 0.025906016 -5.9279336e-25)
(0.81107423 0.024530247 0)
(0.81464876 -0.028711527 -8.2219348e-24)
(0.838443 -0.068197978 -1.175825e-23)
(0.87295235 -0.049718985 1.1669326e-24)
(0.88947197 0.040151849 -8.3174934e-25)
(0.87207877 0.1082395 2.641423e-24)
(0.85220084 0.092977077 -2.2511664e-22)
(0.86130195 0.0015952105 2.3077704e-22)
(0.92688731 -0.10189969 0)
(1.0235364 -0.11084305 -1.2300091e-21)
(1.0816389 -0.048476371 0)
(1.0947144 0.038346629 0)
(1.0592034 0.10310746 0)
(0.98075285 0.090801853 0)
(0.94279838 0.040431662 0)
(0.95623501 -0.0055939477 0)
(0.98533316 -0.025108409 0)
(1.0093131 -0.024320413 0)
(1.0224934 -0.013723648 0)
(1.0250865 -0.0019344978 0)
(1.020728 0.0060099683 0)
(1.0144969 0.0083696562 0)
(1.0098353 0.0071033517 0)
(1.0076468 0.0044322505 0)
(1.007377 0.0018776587 0)
(1.0080177 -5.5302655e-05 0)
(1.0090221 -0.0012013368 0)
(1.0099971 -0.0017362478 0)
(1.0107724 -0.001853998 0)
(1.0113038 -0.0017202539 0)
(1.0116016 -0.0014443705 0)
(1.0116943 -0.001099696 0)
(1.0116141 -0.00073749938 0)
(1.0113966 -0.00039762866 0)
(1.0110806 -0.00010941506 0)
(1.0107086 0.00010841479 0)
(1.0103231 0.00024111229 0)
(1.0099615 0.00028056473 0)
(1.009663 0.00022732936 0)
(1.0094697 9.2717607e-05 0)
(0.81112262 -0.029634722 7.0535097e-24)
(0.81523055 0.025821227 0)
(0.81779458 0.023980677 -1.0845998e-23)
(0.82449395 -0.07028463 1.1750394e-23)
(0.85311933 -0.051618709 5.8208492e-24)
(0.86794957 0.043050494 3.1487486e-22)
(0.85423157 0.11493938 -4.9585277e-22)
(0.83743685 0.10014834 -3.638966e-23)
(0.84516279 0.0020936474 1.1183368e-22)
(0.90831624 -0.11359049 5.9356388e-23)
(1.006309 -0.12648088 -1.3715593e-21)
(1.0717294 -0.059730854 1.2871312e-21)
(1.08154 0.047811571 0)
(1.0418311 0.12209077 0)
(0.96961894 0.11279935 0)
(0.92692742 0.050203628 0)
(0.939739 -0.010676681 0)
(0.97801201 -0.035008158 0)
(1.0087618 -0.033684317 0)
(1.0267224 -0.020520019 0)
(1.0310512 -0.0041433997 0)
(1.0256236 0.0072225411 0)
(1.0169937 0.011437762 0)
(1.0100745 0.010111308 0)
(1.0065866 0.0065342524 0)
(1.0059094 0.0029625696 0)
(1.0066909 0.00029389769 0)
(1.0079764 -0.0013914733 0)
(1.0092934 -0.0021879109 0)
(1.0103682 -0.0024096203 0)
(1.0111416 -0.0022952272 0)
(1.0116313 -0.0019937035 0)
(1.0118755 -0.0015975798 0)
(1.0119124 -0.0011660696 0)
(1.0117785 -0.00074299322 0)
(1.0115114 -0.00036342426 0)
(1.0111525 -5.2199035e-05 0)
(1.0107446 0.00017288781 0)
(1.0103303 0.0003010549 0)
(1.0099468 0.00032728372 0)
(1.0096335 0.00025646428 0)
(1.0094317 0.00010212384 0)
(0.81489376 -0.071332733 5.9294403e-24)
(0.8144259 -0.029819526 2.2337037e-23)
(0.82601044 0.025406724 0)
(0.82805837 0.023038932 -2.0311503e-24)
(0.83430369 -0.053167244 2.1690685e-24)
(0.84877538 0.045504641 -1.404325e-22)
(0.83836324 0.12057096 0)
(0.82508039 0.10643619 3.6138955e-23)
(0.83106108 0.0026694591 2.9223654e-24)
(0.88924862 -0.12555319 -5.8573664e-23)
(0.98661711 -0.14153934 1.4969076e-21)
(1.0572255 -0.075174528 1.4325942e-21)
(1.0664837 0.05473127 0)
(1.0136586 0.14183829 0)
(0.95041137 0.13450447 0)
(0.91009622 0.061241079 0)
(0.92142085 -0.015292211 0)
(0.96868868 -0.047142247 0)
(1.0083697 -0.045709672 0)
(1.0318387 -0.028615496 0)
(1.0386952 -0.0076357504 0)
(1.0322803 0.00889086 0)
(1.0205015 0.015437995 0)
(1.0105853 0.014266409 0)
(1.0052455 0.0094838845 0)
(1.0039339 0.0045294405 0)
(1.0048664 0.00081479544 0)
(1.006544 -0.0015497112 0)
(1.0083066 -0.002712038 0)
(1.0097697 -0.0030779721 0)
(1.010843 -0.0029833888 0)
(1.0115606 -0.0026502484 0)
(1.0119825 -0.0021986368 0)
(1.01216 -0.001696373 0)
(1.0121337 -0.0011894066 0)
(1.0119415 -0.00071513436 0)
(1.0116227 -0.00030421767 0)
(1.0112198 2.1665127e-05 0)
(1.0107758 0.00024714834 0)
(1.0103329 0.00036529707 0)
(1.0099282 0.00037521379 0)
(1.0096009 0.00028521556 0)
(1.0093913 0.00011119752 0)
(0.82044558 -0.054107733 -1.0644621e-23)
(0.81185129 -0.071384814 -6.150045e-24)
(0.82319054 -0.0291721 -1.9924342e-23)
(0.84062402 0.024737981 -1.2744781e-23)
(0.84112919 0.021744888 5.1213672e-23)
(0.83233189 0.047200286 1.3199055e-22)
(0.82601279 0.12500207 7.1684194e-23)
(0.81613317 0.11172584 0)
(0.8199026 0.003079764 -1.3478505e-23)
(0.87032913 -0.13698662 -2.5107824e-22)
(0.96460685 -0.15740948 0)
(1.0386263 -0.086834577 -1.86365e-21)
(1.0547465 0.048041619 0)
(0.99480652 0.16165317 0)
(0.93152409 0.15047974 0)
(0.89461087 0.074574793 0)
(0.90275413 -0.022912344 0)
(0.9581706 -0.061687231 0)
(1.0076911 -0.059309695 0)
(1.0380548 -0.039447858 0)
(1.0482772 -0.011665232 0)
(1.0409014 0.010410974 0)
(1.0253773 0.020769524 0)
(1.0113743 0.019851326 0)
(1.0035288 0.01357247 0)
(1.0013112 0.0067110867 0)
(1.0023774 0.0015589625 0)
(1.0046153 -0.0016945022 0)
(1.0069632 -0.0033681285 0)
(1.0089382 -0.0038943136 0)
(1.0103903 -0.0038140217 0)
(1.0113817 -0.0034335849 0)
(1.0120079 -0.002914234 0)
(1.0123462 -0.0023352447 0)
(1.0124482 -0.0017425714 0)
(1.0123541 -0.0011722258 0)
(1.0121009 -0.00065685871 0)
(1.0117291 -0.00022349674 0)
(1.0112815 0.00010850645 0)
(1.0108015 0.0003281037 0)
(1.0103308 0.00043200064 0)
(1.0099059 0.00042266514 0)
(1.0095656 0.00031314409 0)
(1.0093489 0.00011987486 0)
(0.82015389 0.047879603 6.6192596e-24)
(0.81155338 -0.054296694 8.8169616e-24)
(0.81449119 -0.070811278 2.7117802e-23)
(0.83687162 -0.027804749 1.3157279e-23)
(0.85728699 0.023834323 -6.9117048e-23)
(0.8575718 0.020187855 -2.9580074e-23)
(0.81825152 0.12804954 -1.4168137e-22)
(0.81113649 0.11598726 -6.6256531e-23)
(0.8119354 0.0034653965 -8.187516e-23)
(0.85354456 -0.14741385 2.2353346e-22)
(0.94053267 -0.17259764 -1.7776253e-21)
(1.0163763 -0.10053242 9.4829904e-22)
(1.033562 0.049489161 0)
(0.98344908 0.17347409 -8.5051472e-22)
(0.91080758 0.17245108 -5.9499866e-22)
(0.88036218 0.079254198 0)
(0.88623623 -0.025871404 0)
(0.94616188 -0.079083164 0)
(1.0071059 -0.076515316 0)
(1.0452098 -0.0513406 0)
(1.0598902 -0.017934553 0)
(1.0520338 0.012774871 0)
(1.031716 0.027457556 0)
(1.0125371 0.027288654 0)
(1.001288 0.019035371 0)
(0.99782653 0.0097099452 0)
(0.99904035 0.0025624874 0)
(1.0020264 -0.00186824 0)
(1.0051701 -0.0041844425 0)
(1.0078275 -0.0049284841 0)
(1.0097704 -0.0048419646 0)
(1.0110945 -0.0043762194 0)
(1.0119526 -0.0037609679 0)
(1.012467 -0.0030908151 0)
(1.0127126 -0.0024072828 0)
(1.0127351 -0.0017399422 0)
(1.0125702 -0.0011182566 0)
(1.0122545 -0.00057209179 0)
(1.011829 -0.00012564518 0)
(1.0113367 0.00020483382 0)