/*--------------------------------*- C++ -*----------------------------------*\
| =========                 |                                                 |
| \\      /  F ield         | OpenFOAM: The Open Source CFD Toolbox           |
|  \\    /   O peration     | Version:  5.0                                   |
|   \\  /    A nd           | Web:      www.OpenFOAM.org                      |
|    \\/     M anipulation  |                                                 |
\*---------------------------------------------------------------------------*/
FoamFile
{
    version     2.0;
    format      ascii;
    class       volVectorField;
    location    "180";
    object      U_0;
}
// * * * * * * * * * * * * * * * * * * * * * * * * * * * * * * * * * * * * * //

dimensions      [0 1 -1 0 0 0 0];

internalField   nonuniform List<vector> 
9520
(
(1.0142264 0.00016489177 0)
(1.0143259 0.00048343143 0)
(1.013736 0.00016271826 0)
(1.0145016 0.00077947185 0)
(1.0138372 0.00047780604 0)
(1.0135489 0.00016247761 0)
(1.0147372 0.0010525019 0)
(1.0140174 0.00077198196 0)
(1.0136497 0.00047639622 0)
(1.0132399 0.00016665817 0)
(1.0150182 0.0013020926 0)
(1.0142612 0.001044552 0)
(1.0138302 0.00076964948 0)
(1.0133415 0.00048769692 0)
(1.0129972 0.00017330805 0)
(1.0153316 0.001527701 0)
(1.0145548 0.0012963094 0)
(1.0140749 0.0010419 0)
(1.0135232 0.00078766777 0)
(1.0130997 0.00050736078 0)
(1.0127178 0.00017866965 0)
(1.0156663 0.0017292807 0)
(1.0148853 0.0015260503 0)
(1.0143706 0.001295313 0)
(1.0137687 0.0010671545 0)
(1.013282 0.00082015057 0)
(1.0128197 0.00052483356 0)
(1.012461 0.00017887497 0)
(1.016013 0.0019063946 0)
(1.0152422 0.001733649 0)
(1.0147053 0.0015288536 0)
(1.0140656 0.0013286824 0)
(1.0135282 0.0011131166 0)
(1.0130002 0.000851193 0)
(1.0125613 0.00052773975 0)
(1.0122068 0.00017443962 0)
(1.016365 0.0020584752 0)
(1.0156172 0.0019193953 0)
(1.0150681 0.0017421078 0)
(1.0144035 0.001572483 0)
(1.0138257 0.0013876319 0)
(1.0132443 0.0011598982 0)
(1.0127386 0.00085948118 0)
(1.0123025 0.00051613714 0)
(1.0119744 0.00016823113 0)
(1.0167188 0.0021844805 0)
(1.0160044 0.0020838686 0)
(1.0154491 0.0019350464 0)
(1.0147717 0.0017986019 0)
(1.014165 0.0016451824 0)
(1.0135393 0.0014511169 0)
(1.0129793 0.0011766587 0)
(1.0124729 0.00084343685 0)
(1.0120655 0.00049774103 0)
(1.0117572 0.00016345485 0)
(1.0170763 0.0022809627 0)
(1.0164011 0.0022299778 0)
(1.0158387 0.0021085115 0)
(1.01516 0.0020066944 0)
(1.0145363 0.0018866284 0)
(1.0138751 0.0017272225 0)
(1.0132706 0.0014795988 0)
(1.0127053 0.0011591256 0)
(1.0122289 0.0008146108 0)
(1.0118439 0.000482447 0)
(1.0115531 0.00016161643 0)
(1.0174389 0.0023570794 0)
(1.0168084 0.0023658912 0)
(1.0162271 0.0022678618 0)
(1.0155569 0.0021965277 0)
(1.0149299 0.0021118526 0)
(1.0142427 0.0019900421 0)
(1.0136012 0.0017700294 0)
(1.0129874 0.0014659369 0)
(1.0124514 0.001121494 0)
(1.0119997 0.00078958995 0)
(1.0116361 0.00047558936 0)
(1.0113571 0.00016179555 0)
(1.0177883 0.0024115541 0)
(1.017221 0.0024984446 0)
(1.0165991 0.0024198899 0)
(1.0159488 0.0023686381 0)
(1.0153366 0.0023195785 0)
(1.0146349 0.0022401458 0)
(1.0139627 0.0020500853 0)
(1.0133068 0.0017643287 0)
(1.0127223 0.0014237551 0)
(1.0122109 0.0010880934 0)
(1.0117845 0.00077761615 0)
(1.0114371 0.00047543808 0)
(1.0111674 0.00016150961 0)
(1.0181053 0.0024725669 0)
(1.0175571 0.0026446837 0)
(1.0169021 0.0025807026 0)
(1.0163164 0.0025189651 0)
(1.0157462 0.0025054416 0)
(1.0150476 0.0024764708 0)
(1.0143485 0.00232144 0)
(1.0136544 0.0020557101 0)
(1.0130302 0.0017216786 0)
(1.0124668 0.0013836355 0)
(1.0119848 0.0010724745 0)
(1.0115781 0.00077680977 0)
(1.0112446 0.00047513071 0)
(1.0109857 0.00015823324 0)
(1.0184208 0.0025006249 0)
(1.0178464 0.0028292078 0)
(1.0171599 0.0027442416 0)
(1.0166626 0.0026421035 0)
(1.0161561 0.0026584613 0)
(1.0154836 0.0026937185 0)
(1.0147558 0.0025857316 0)
(1.0140226 0.0023419005 0)
(1.0133649 0.0020152207 0)
(1.0127584 0.0016775694 0)
(1.0122266 0.0013650974 0)
(1.011767 0.0010716376 0)
(1.0113785 0.00077681501 0)
(1.0110595 0.00046691729 0)
(1.0108158 0.00015058465 0)
(1.0187376 0.0026026548 0)
(1.0180988 0.0029960759 0)
(1.017439 0.002877098 0)
(1.017021 0.0027098278 0)
(1.0165943 0.0027644741 0)
(1.0159554 0.0028844551 0)
(1.0151843 0.0028467753 0)
(1.0144045 0.002626233 0)
(1.0137171 0.0023046022 0)
(1.0130767 0.0019699872 0)
(1.0125023 0.0016576951 0)
(1.0119941 0.0013648443 0)
(1.0115563 0.001071723 0)
(1.0111865 0.00076493722 0)
(1.0108856 0.00044595862 0)
(1.0106623 0.00013881203 0)
(1.0190773 0.0025815567 0)
(1.0183198 0.003224149 0)
(1.0176357 0.0029701618 0)
(1.0173928 0.0027216433 0)
(1.0170596 0.0027881427 0)
(1.0164679 0.0030496354 0)
(1.0156339 0.0031144351 0)
(1.0147927 0.0029160304 0)
(1.0140758 0.0025905854 0)
(1.0134133 0.00225978 0)
(1.0128041 0.001951639 0)
(1.0122519 0.0016594096 0)
(1.0117685 0.0013652333 0)
(1.0113537 0.0010565698 0)
(1.0110053 0.00073225708 0)
(1.0107277 0.00041223473 0)
(1.0105278 0.00012460509 0)
(1.019387 0.0028766173 0)
(1.0184662 0.0034217901 0)
(1.0177574 0.0030391858 0)
(1.0177357 0.0026604207 0)
(1.0175148 0.0027811531 0)
(1.0170119 0.0031848801 0)
(1.0161121 0.0033957789 0)
(1.01518 0.0032199496 0)
(1.0144302 0.0028752788 0)
(1.0137591 0.0025446495 0)
(1.0131251 0.0022463882 0)
(1.0125334 0.0019584106 0)
(1.0120074 0.0016616541 0)
(1.0115507 0.0013461471 0)
(1.0111625 0.0010144494 0)
(1.0108396 0.00067765776 0)
(1.0105893 0.0003703237 0)
(1.0104129 0.00011033061 0)
(1.0197728 0.0026850846 0)
(1.0186178 0.0038381327 0)
(1.0176994 0.0031638936 0)
(1.0179567 0.0025582372 0)
(1.0180564 0.0027212624 0)
(1.0175516 0.0033141057 0)
(1.0165991 0.0037188293 0)
(1.0155469 0.0035562503 0)
(1.0147655 0.0031599316 0)
(1.0141051 0.0028200832 0)
(1.0134591 0.0025393813 0)
(1.0128336 0.0022632477 0)
(1.0122659 0.001965543 0)
(1.0117691 0.0016402495 0)
(1.011345 0.0012942704 0)
(1.0109867 0.00094155509 0)
(1.0106939 0.00060849234 0)
(1.0104712 0.00032717387 0)
(1.0103155 9.8037564e-05 0)
(1.0199607 0.0034149369 0)
(1.0184808 0.0041296481 0)
(1.0174437 0.0031362959 0)
(1.0180808 0.0022862341 0)
(1.0186371 0.0025791149 0)
(1.0181726 0.0034340202 0)
(1.0170646 0.0040918255 0)
(1.0158721 0.0039478351 0)
(1.0150575 0.0034540419 0)
(1.0144359 0.0030788115 0)
(1.013801 0.0028244186 0)
(1.0131502 0.0025733087 0)
(1.0125392 0.0022806124 0)
(1.0120009 0.0019442548 0)
(1.011543 0.0015795824 0)
(1.0111559 0.0012053593 0)
(1.0108304 0.00084456327 0)
(1.0105705 0.00053655315 0)
(1.0103716 0.00028896554 0)
(1.010232 8.8745238e-05 0)
(1.0202388 0.002904735 0)
(1.0185758 0.0048749761 0)
(1.0169327 0.0034148615 0)
(1.0180991 0.0019008584 0)
(1.019362 0.0022532511 0)
(1.0189411 0.0035823966 0)
(1.0175383 0.0045309631 0)
(1.0161108 0.0044112692 0)
(1.0152694 0.0037541025 0)
(1.0147335 0.0033140934 0)
(1.0141454 0.0030920391 0)
(1.0134835 0.0028848488 0)
(1.0128262 0.0026094005 0)
(1.0122408 0.0022637573 0)
(1.0117477 0.0018758078 0)
(1.0113344 0.0014742593 0)
(1.0109866 0.0010836624 0)
(1.0106982 0.00074032394 0)
(1.010468 0.00047194314 0)
(1.0102872 0.00025901814 0)
(1.0101588 8.2341776e-05 0)
(1.0199403 0.004221568 0)
(1.0179271 0.0053357934 0)
(1.0161823 0.0031332683 0)
(1.0180053 0.0013302962 0)
(1.0201526 0.0018201539 0)
(1.0199086 0.0036986014 0)
(1.0180662 0.0050952947 0)
(1.0162619 0.0049542861 0)
(1.0153795 0.0040754963 0)
(1.014959 0.0034940773 0)
(1.0144866 0.0033235035 0)
(1.0138383 0.0031907501 0)
(1.0131298 0.0029541565 0)
(1.0124862 0.0026042694 0)
(1.0119522 0.0021889905 0)
(1.0115134 0.0017531601 0)
(1.0111487 0.0013278802 0)
(1.0108421 0.00094725452 0)
(1.0105899 0.00064577466 0)
(1.0103827 0.00041962457 0)
(1.0102147 0.00023757006 0)
(1.0100932 7.8011406e-05 0)
(1.0195914 0.0033265404 0)
(1.0179514 0.0064331534 0)
(1.0149585 0.0038399736 0)
(1.0176655 0.00037600687 0)
(1.0211784 0.0010107429 0)
(1.0211117 0.0039131241 0)
(1.0186456 0.0058386184 0)
(1.0162742 0.0056336072 0)
(1.0153549 0.0043715666 0)
(1.0151715 0.0036295304 0)
(1.0148261 0.0034850284 0)
(1.0142267 0.0034728115 0)
(1.0134618 0.0033158476 0)
(1.0127381 0.0029738322 0)
(1.0121502 0.0025255762 0)
(1.0116846 0.0020471286 0)
(1.0113067 0.0015801326 0)
(1.0109897 0.0011579295 0)
(1.0107247 0.00081997947 0)
(1.0105019 0.00056966693 0)
(1.0103105 0.00037995573 0)
(1.0101513 0.00022284082 0)
(1.0100331 7.4765457e-05 0)
(1.0182978 0.0052956164 0)
(1.0157444 0.0071363316 0)
(1.0136073 0.0030710446 0)
(1.0171552 -0.00053204158 0)
(1.0221736 0.00012108329 0)
(1.0226137 0.0039691195 0)
(1.0193247 0.0068552048 0)
(1.0160942 0.0064945618 0)
(1.0150816 0.0046860538 0)
(1.0152842 0.0036132903 0)
(1.0152169 0.0035537092 0)
(1.0146838 0.0037118455 0)
(1.013843 0.0036922412 0)
(1.0130033 0.0033828915 0)
(1.0123369 0.0028955847 0)
(1.011839 0.0023612696 0)
(1.0114515 0.0018434842 0)
(1.0111305 0.0013747943 0)
(1.0108615 0.00099596028 0)
(1.0106308 0.00071487925 0)
(1.0104296 0.00051178496 0)
(1.0102488 0.00035105984 0)
(1.0100947 0.00021229415 0)
(1.0099775 7.1732129e-05 0)
(1.0187255 0.0045376036 0)
(1.0131772 0.0083861901 0)
(1.0107423 0.0045658883 0)
(1.016201 -0.002321833 0)
(1.0238079 -0.0014204713 0)
(1.0244754 0.0043848807 0)
(1.0200527 0.0081904135 0)
(1.0156661 0.0076420402 0)
(1.0145044 0.0049670909 0)
(1.0152514 0.0034456714 0)
(1.0157056 0.0034578641 0)
(1.0152129 0.0038569382 0)
(1.0143121 0.0040894131 0)
(1.0132948 0.0038488347 0)
(1.012508 0.0033129864 0)
(1.0119666 0.0027026029 0)
(1.0115734 0.0021202541 0)
(1.0112556 0.0015993378 0)
(1.0109893 0.001175955 0)
(1.0107598 0.0008595941 0)
(1.0105562 0.00063316324 0)
(1.0103695 0.00046731742 0)
(1.0101956 0.00033035718 0)
(1.0100431 0.00020339779 0)
(1.0099262 6.8257328e-05 0)
(1.0175655 0.0069029054 0)
(1.0125645 0.0096274138 0)
(1.007695 0.0029737543 0)
(1.0149619 -0.003634215 0)
(1.0247857 -0.0029195959 0)
(1.0267488 0.0041874092 0)
(1.0209592 0.01001465 0)
(1.0149022 0.0091073656 0)
(1.013508 0.0052927164 0)
(1.0150088 0.003001288 0)
(1.0162508 0.0031561082 0)
(1.015892 0.0039641653 0)
(1.0148612 0.0044943862 0)
(1.0136352 0.0043984754 0)
(1.0126596 0.0038019799 0)
(1.0120536 0.0030801364 0)
(1.0116606 0.0024116143 0)
(1.0113565 0.0018316772 0)
(1.0111002 0.0013614592 0)
(1.0108779 0.0010064043 0)
(1.0106801 0.00075050529 0)
(1.0104971 0.00056948173 0)
(1.0103196 0.00043162694 0)
(1.0101495 0.00031427203 0)
(1.0099957 0.00019386736 0)
(1.0098794 6.3973296e-05 0)
(1.0110732 0.0060474372 0)
(1.011689 0.011389901 0)
(1.0049999 0.0048943528 0)
(1.0130994 -0.0065367389 0)
(1.0266459 -0.0054935295 0)
(1.0292079 0.0051448548 0)
(1.0217593 0.012272575 0)
(1.0137023 0.011013474 0)
(1.0119973 0.0055787947 0)
(1.0144764 0.0022920225 0)
(1.0168485 0.0024963946 0)
(1.016836 0.0039986975 0)
(1.0155218 0.0049574875 0)
(1.0140011 0.0050730484 0)
(1.0127821 0.0043966031 0)
(1.0120813 0.0035087206 0)
(1.011697 0.0027171742 0)
(1.0114241 0.0020682104 0)
(1.0111879 0.0015521453 0)
(1.0109776 0.0011577543 0)
(1.0107908 0.00086762873 0)
(1.0106191 0.00066250891 0)
(1.010451 0.00051676565 0)
(1.0102793 0.00040136207 0)
(1.0101094 0.00029781298 0)
(1.0099528 0.00018184511 0)
(1.0098375 5.881428e-05 0)
(0.99751885 0.0092919248 0)
(0.99832871 0.012517546 0)
(1.0021176 0.0028402034 0)
(1.0114202 -0.008759745 0)
(1.0278128 -0.0074565893 0)
(1.0313777 0.0043946547 0)
(1.0229272 0.01537909 0)
(1.0118544 0.013473845 0)
(1.0097501 0.0059493565 0)
(1.0135852 0.0011024519 0)
(1.0175341 0.0014471327 0)
(1.0181076 0.0038388442 0)
(1.0164532 0.0055126791 0)
(1.014389 0.0059012736 0)
(1.012848 0.0051484871 0)
(1.0120158 0.0040062453 0)
(1.0116616 0.0030358713 0)
(1.0114475 0.0023013529 0)
(1.0112483 0.0017431266 0)
(1.0110549 0.0013144834 0)
(1.0108806 0.0009887385 0)
(1.0107249 0.00075180261 0)
(1.0105747 0.00058706925 0)
(1.0104168 0.0004685428 0)
(1.0102478 0.00037219549 0)
(1.0100748 0.00027635447 0)
(1.0099153 0.00016649762 0)
(1.0098009 5.3026002e-05 0)
(0.98413793 0.0095487769 0)
(0.98173426 0.014383323 0)
(0.99065173 0.0054375456 0)
(1.0095816 -0.012588454 0)
(1.0308412 -0.011268807 0)
(1.0339056 0.0062631485 0)
(1.0230835 0.019031335 0)
(1.0092642 0.016515715 0)
(1.0066514 0.0063121255 0)
(1.0121965 -0.00049697232 0)
(1.0183066 -0.00027013712 0)
(1.0198193 0.0034880345 0)
(1.0177511 0.0061745673 0)
(1.0148991 0.0069660466 0)
(1.0128057 0.0060875612 0)
(1.0118232 0.0046036901 0)
(1.0115183 0.0033627781 0)
(1.0114114 0.0025154064 0)
(1.011279 0.0019234115 0)
(1.0111107 0.0014737734 0)
(1.010947 0.0011171222 0)
(1.0108059 0.00084376495 0)
(1.0106785 0.00064904656 0)
(1.0105457 0.00051596733 0)
(1.010394 0.00041986139 0)
(1.0102244 0.0003393164 0)
(1.0100457 0.00024838153 0)
(1.0098837 0.00014870008 0)
(1.0097697 4.7175253e-05 0)
(0.96948967 0.012015604 0)
(0.96740969 0.015905483 0)
(0.97781353 0.0016986507 0)
(1.004718 -0.015146696 0)
(1.0322604 -0.013779503 0)
(1.0385955 0.0054466383 0)
(1.0221476 0.023796935 0)
(1.005172 0.020481526 0)
(1.0023123 0.0067015416 0)
(1.010262 -0.0028780882 0)
(1.0192026 -0.0025915791 0)
(1.0220718 0.0027115151 0)
(1.0195552 0.007019321 0)
(1.0155737 0.0083750441 0)
(1.0126386 0.0073014147 0)
(1.0114353 0.0053230623 0)
(1.0112219 0.003689262 0)
(1.011294 0.0026862835 0)
(1.0112782 0.0020716444 0)
(1.0111513 0.0016270315 0)
(1.0109936 0.0012544498 0)
(1.0108593 0.00094481376 0)
(1.0107524 0.00071093999 0)
(1.010651 0.00055027883 0)
(1.0105312 0.0004443195 0)
(1.0103824 0.00036839602 0)
(1.0102084 0.00029985058 0)
(1.0100229 0.0002164799 0)
(1.0098578 0.00013070634 0)
(1.0097434 4.2003037e-05 0)
(0.95305731 0.01306412 9.0310242e-24)
(0.95169827 0.016849826 0)
(0.96526989 0.0018747077 0)
(0.99918338 -0.021058398 0)
(1.0324227 -0.019249572 0)
(1.0417234 0.0082341216 0)
(1.0236265 0.028505309 0)
(0.99968667 0.024801294 0)
(0.99663674 0.0071855297 0)
(1.0075229 -0.005895349 0)
(1.0203114 -0.0060040831 0)
(1.0250401 0.0016368521 0)
(1.0219908 0.0079861295 0)
(1.0164923 0.010276042 0)
(1.0123098 0.0089032379 0)
(1.0107413 0.0062007557 0)
(1.010712 0.0040040825 0)
(1.0110651 0.0027757835 0)
(1.0112467 0.0021558054 0)
(1.0111894 0.0017572004 0)
(1.0110323 0.0013989984 0)
(1.0108887 0.0010620226 0)
(1.0107916 0.00078208883 0)
(1.0107206 0.00058059226 0)
(1.0106416 0.00045066646 0)
(1.0105305 0.00036907002 0)
(1.0103811 0.00031095675 0)
(1.0101993 0.0002525564 0)
(1.010007 0.00018519423 0)
(1.009837 0.00011487099 0)
(1.0097209 3.8192547e-05 0)
(0.93431851 0.015224941 -6.6604225e-24)
(0.93412742 0.018411173 -9.4345915e-24)
(0.95235099 -0.0021869434 0)
(0.99111539 -0.025298521 0)
(1.0298505 -0.021857619 0)
(1.0416811 0.0050878395 0)
(1.0316008 0.035906508 0)
(0.99506496 0.029890079 0)
(0.98931626 0.0073113753 0)
(1.0040975 -0.01004388 0)
(1.0215537 -0.010271295 0)
(1.0288414 -0.00019485058 0)
(1.0252739 0.0092788095 0)
(1.0176992 0.012796766 0)
(1.0117682 0.011067885 0)
(1.0096356 0.0072813791 0)
(1.0098819 0.0042910208 0)
(1.0106833 0.0027301799 0)
(1.0111818 0.0021266319 0)
(1.0112454 0.0018379992 0)
(1.0110824 0.0015454793 0)
(1.0109056 0.0012029513 0)
(1.0107962 0.00087524948 0)
(1.0107462 0.00061830453 0)
(1.0107107 0.00044695833 0)
(1.01065 0.00034435858 0)
(1.010544 0.00028520507 0)
(1.0103897 0.00024472138 0)
(1.0101978 0.0002029022 0)
(1.0099972 0.00015754501 0)
(1.0098203 0.00010297229 0)
(1.0097009 3.6221833e-05 0)
(0.9141801 0.01695111 6.6867132e-24)
(0.91469172 0.019706598 3.3381065e-23)
(0.93570658 -0.0039566699 0)
(0.98168818 -0.030647435 0)
(1.0216223 -0.026727929 0)
(1.0357264 0.009088336 0)
(1.0280093 0.042244289 0)
(0.99248213 0.03703729 0)
(0.98110581 0.0078580426 0)
(0.9995458 -0.01529141 0)
(1.0231905 -0.016142738 0)
(1.0336674 -0.0024475887 0)
(1.0295211 0.010673175 0)
(1.0193147 0.016165959 0)
(1.0109349 0.013944924 0)
(1.0079686 0.008681383 0)
(1.0085974 0.0044897193 0)
(1.0100918 0.0024879297 0)
(1.0110836 0.0019223621 0)
(1.0113274 0.0018249557 0)
(1.0111712 0.0016835393 0)
(1.0109302 0.0013788065 0)
(1.0107732 0.0010073395 0)
(1.0107226 0.00067946793 0)
(1.0107264 0.00044492917 0)
(1.010724 0.00030146316 0)
(1.0106778 0.00022570722 0)
(1.0105721 0.00019242336 0)
(1.0104079 0.00017546013 0)
(1.0102037 0.00015919748 0)
(1.0099921 0.00013617446 0)
(1.0098063 9.6255389e-05 0)
(1.0096823 3.6320351e-05 0)
(0.89388778 0.01882437 0)
(0.89466436 0.02124864 -3.3437921e-23)
(0.91750366 -0.0073823232 0)
(0.96768174 -0.035872295 0)
(1.0117012 -0.027781757 0)
(1.0229 0.010250041 0)
(1.0042647 0.050609302 0)
(0.98101846 0.045872975 0)
(0.97033096 0.0076802418 0)
(0.99417404 -0.021710687 0)
(1.024811 -0.022980088 0)
(1.0395371 -0.0058703617 0)
(1.0350075 0.012622622 0)
(1.0213235 0.020545537 0)
(1.0097165 0.017783779 0)
(1.0055672 0.010437103 0)
(1.0066996 0.0046068024 0)
(1.0092067 0.0019240635 0)
(1.010951 0.0014365822 0)
(1.0115237 0.0016898652 0)
(1.0113299 0.0017972081 0)
(1.0109955 0.0015976356 0)
(1.0107384 0.0012009789 0)
(1.0106495 0.00078563206 0)
(1.0106775 0.00046125528 0)
(1.0107366 0.00025104698 0)
(1.0107635 0.00013938067 0)
(1.010725 9.8425714e-05 0)
(1.0106122 9.8685015e-05 0)
(1.0104346 0.00011254917 0)
(1.0102154 0.0001239566 0)
(1.0099905 0.00012320349 0)
(1.0097937 9.5361181e-05 0)
(1.0096641 3.8482718e-05 0)
(0.87380004 0.020545755 -4.2709626e-24)
(0.87515882 0.022627388 0)
(0.89840121 -0.010400675 -3.2387665e-23)
(0.95070755 -0.04103254 0)
(0.99835583 -0.031944743 0)
(1.0093631 0.016682287 0)
(0.98387227 0.058444299 0)
(0.95888005 0.053284983 0)
(0.95705945 0.009939424 0)
(0.98680177 -0.02974426 0)
(1.0267117 -0.031817164 0)
(1.0463229 -0.0095470493 0)
(1.0415814 0.014656261 0)
(1.0238676 0.026242405 0)
(1.0079485 0.022800826 0)
(1.002176 0.012739457 0)
(1.0039991 0.0045222304 0)
(1.0079276 0.00095409506 0)
(1.0107799 0.00053275817 0)
(1.0118676 0.0013055856 0)
(1.0116715 0.0018637464 0)
(1.0111576 0.0018634559 0)
(1.0107196 0.0014790886 0)
(1.0105327 0.00096627977 0)
(1.0105558 0.0005191639 0)
(1.0106709 0.00020893077 0)
(1.0107819 3.3774189e-05 0)
(1.0108299 -3.2597676e-05 0)
(1.0107895 -2.8087756e-05 0)
(1.0106635 1.1524904e-05 0)
(1.0104681 6.1204569e-05 0)
(1.0102319 0.00010051031 0)
(1.0099914 0.00011918199 0)
(1.0097825 0.00010007274 0)
(1.0096449 4.2676962e-05 0)
(0.85493521 0.02203169 6.4851605e-25)
(0.85685362 0.02399512 6.223913e-23)
(0.87936698 -0.013782973 3.2372019e-23)
(0.93171734 -0.046512269 -4.6808715e-25)
(0.98171852 -0.035523155 -1.3708265e-22)
(0.99387485 0.019999769 0)
(0.96643699 0.067666844 0)
(0.93959588 0.060206155 0)
(0.9422947 0.009597477 0)
(0.97758302 -0.038700386 0)
(1.0280882 -0.041386584 0)
(1.0539547 -0.014969509 0)
(1.0490293 0.017654781 0)
(1.0265238 0.033453977 0)
(1.0054674 0.029251583 0)
(0.9975468 0.015612161 0)
(1.0002496 0.004291056 0)
(1.0061271 -0.00065260811 0)
(1.0105679 -0.00091169105 0)
(1.0124237 0.0005691018 0)
(1.0123086 0.0018503405 0)
(1.0114624 0.0021663408 0)
(1.0107699 0.0018835917 0)
(1.010384 0.0012580163 0)
(1.0103539 0.00064893569 0)
(1.0105114 0.00019608085 0)
(1.0107124 -7.7822457e-05 0)
(1.0108642 -0.00019557614 0)
(1.0109208 -0.0002032585 0)
(1.0108707 -0.00014675968 0)
(1.0107246 -6.1069807e-05 0)
(1.0105069 2.5083376e-05 0)
(1.0102512 9.1092525e-05 0)
(1.0099931 0.00012230127 0)
(1.0097703 0.0001106497 0)
(1.0096241 4.8674013e-05 0)
(0.83835652 0.023200966 3.0846898e-24)
(0.84065927 0.025122369 -9.0894521e-23)
(0.8613267 -0.016970209 0)
(0.91149254 -0.05184846 1.4628187e-22)
(0.96197007 -0.038623158 1.3642299e-22)
(0.97686804 0.022503477 1.4145506e-22)
(0.94827582 0.076227442 7.3036219e-23)
(0.92180632 0.064087728 0)
(0.92726043 0.0095149253 0)
(0.97008895 -0.050421308 0)
(1.0304111 -0.054400755 0)
(1.0637276 -0.019736196 0)
(1.0573457 0.020781131 0)
(1.028769 0.042657476 0)
(1.0016926 0.037489263 0)
(0.99128875 0.019271259 0)
(0.99520728 0.0036851743 0)
(1.0036784 -0.0029427661 0)
(1.0102913 -0.0031518435 0)
(1.0132848 -0.00063431928 0)
(1.0133349 0.0016754376 0)
(1.0120679 0.0025943178 0)
(1.0108997 0.0024282101 0)
(1.0102384 0.0017245693 0)
(1.0100651 0.00089389749 0)
(1.0102384 0.00023903189 0)
(1.0105324 -0.00017994515 0)
(1.0108058 -0.00038318703 0)
(1.0109816 -0.00042434743 0)
(1.011034 -0.00036355682 0)
(1.010965 -0.00024782784 0)
(1.0107933 -0.00011471568 0)
(1.0105499 6.5034975e-06 0)
(1.0102695 9.5475325e-05 0)
(1.0099935 0.0001394324 0)
(1.0097563 0.00012697253 0)
(1.0096008 5.6163958e-05 0)
(0.82506242 0.024086732 1.7502194e-24)
(0.82740861 0.02603339 2.0037726e-23)
(0.84494816 -0.0200796 5.4716942e-24)
(0.89103292 -0.056881109 -7.6097536e-23)
(0.94080943 -0.042467801 -1.5138335e-22)
(0.95639853 0.026874671 1.5392075e-22)
(0.93112845 0.083875525 5.7555887e-24)
(0.90331605 0.072424307 2.0214209e-23)
(0.91248118 0.003763321 0)
(0.96195878 -0.062190591 0)
(1.032675 -0.067846694 0)
(1.0771847 -0.029512793 0)
(1.0699245 0.025440038 0)
(1.0309028 0.053947402 0)
(0.99587547 0.047476387 0)
(0.98303521 0.023809639 0)
(0.98850488 0.0027752954 0)
(1.0004259 -0.0063070272 0)
(1.0099484 -0.0062900848 0)
(1.0145479 -0.0025343106 0)
(1.0149057 0.0012928966 0)
(1.0131142 0.0031286841 0)
(1.0112202 0.0032241186 0)
(1.0100843 0.0024137448 0)
(1.0096919 0.0013136603 0)
(1.0098314 0.00037797595 0)
(1.0102154 -0.00025240915 0)
(1.0106281 -0.00058539189 0)
(1.0109493 -0.00068845715 0)
(1.0111309 -0.00064032721 0)
(1.0111662 -0.00050309408 0)
(1.0110692 -0.000325477 0)
(1.0108672 -0.00014658924 0)
(1.0105939 6.3989828e-06 0)
(1.0102894 0.00011459823 0)
(1.0099924 0.00016520811 0)
(1.0097398 0.00014802948 0)
(1.0095746 6.4736291e-05 0)
(0.81535835 0.024565698 -3.3240974e-24)
(0.81760732 0.026583911 -9.2408949e-25)
(0.83150081 -0.022729533 0)
(0.87086747 -0.061447922 5.8384721e-24)
(0.91825817 -0.045713267 -7.3207226e-23)
(0.93557534 0.029907999 0)
(0.91165538 0.092422786 -3.2007438e-22)
(0.88661871 0.079344892 -2.8525095e-22)
(0.89466368 0.0041270863 0)
(0.95573861 -0.075888081 0)
(1.0323312 -0.083556281 0)
(1.0845068 -0.035539651 0)
(1.0882338 0.028552607 0)
(1.0382376 0.067057847 0)
(0.98892838 0.05967997 0)
(0.97202833 0.029043991 0)
(0.97995727 0.0012783314 0)
(0.99617907 -0.010733241 0)
(1.009511 -0.010769322 0)
(1.0163213 -0.0052153684 0)
(1.0172018 0.00053752543 0)
(1.0147728 0.0038112285 0)
(1.0118647 0.0043592095 0)
(1.0099496 0.0034200816 0)
(1.0092199 0.0019871257 0)
(1.0092587 0.00065116062 0)
(1.0097298 -0.00027083466 0)
(1.010302 -0.0007918819 0)
(1.0107977 -0.00099224705 0)
(1.0111388 -0.00097695052 0)
(1.011307 -0.00082981721 0)
(1.0113126 -0.00061334561 0)
(1.0111809 -0.00037630507 0)
(1.0109433 -0.00015523621 0)
(1.0106376 2.4359516e-05 0)
(1.0103069 0.0001468385 0)
(1.0099886 0.00019883258 0)
(1.0097203 0.00017278992 0)
(1.0095452 7.4008365e-05 0)
(0.81063757 0.024674572 0)
(0.81208303 0.026858619 0)
(0.82141676 -0.02509146 9.5506014e-25)
(0.85282664 -0.065273743 0)
(0.8950777 -0.04883203 1.9585006e-24)
(0.91306389 0.033493477 1.6431739e-22)
(0.89288406 0.1003212 5.003684e-22)
(0.86923862 0.087351043 -1.922972e-22)
(0.87767638 0.0051793931 0)
(0.94166738 -0.089390976 0)
(1.0311876 -0.094969526 0)
(1.0849327 -0.049534475 0)
(1.0969012 0.033519776 0)
(1.0515592 0.082266221 0)
(0.98549221 0.073716155 0)
(0.95839299 0.035341285 0)
(0.96898719 -0.00094861447 0)
(0.99090251 -0.016781241 0)
(1.0089529 -0.016531495 0)
(1.0187249 -0.0091096752 0)
(1.0204463 -0.00059335629 0)
(1.0172426 0.0045931713 0)
(1.0129745 0.0059637423 0)
(1.00991 0.0048942657 0)
(1.008588 0.0029773474 0)
(1.0084979 0.0011453849 0)
(1.0090303 -0.0002060681 0)
(1.0097905 -0.00099535871 0)
(1.0104982 -0.0013362301 0)
(1.0110336 -0.0013762039 0)
(1.0113661 -0.0012311525 0)
(1.0115032 -0.00098253516 0)
(1.0114694 -0.00069009071 0)
(1.0112961 -0.00039832129 0)
(1.0110194 -0.00014101024 0)
(1.0106804 6.0581947e-05 0)
(1.0103219 0.00019075633 0)
(1.0099813 0.00023871096 0)
(1.0096973 0.00020006213 0)
(1.0095128 8.3605083e-05 0)
(0.81080218 0.026867074 -5.9645952e-25)
(0.81103065 0.024520609 0)
(0.81445343 -0.026818174 -8.5029121e-24)
(0.83790379 -0.06827897 -1.059604e-23)
(0.87280326 -0.051601325 2.5466231e-25)
(0.89051435 0.03662129 7.5303878e-24)
(0.87358199 0.10792484 3.0927958e-24)
(0.85297691 0.094936325 -2.3509565e-22)
(0.86049974 0.006001618 2.2966414e-22)
(0.92410341 -0.099659881 0)
(1.0209416 -0.11186571 -1.2210234e-21)
(1.0812114 -0.051291409 0)
(1.0954716 0.034049236 0)
(1.0628107 0.10170408 0)
(0.98364992 0.091682293 0)
(0.94374194 0.04254296 0)
(0.95558382 -0.0038622665 0)
(0.9842471 -0.024378331 0)
(1.0083368 -0.024288906 0)
(1.0218574 -0.014116362 0)
(1.0248636 -0.0024519611 0)
(1.02081 0.0056022605 0)
(1.0147016 0.0081428934 0)
(1.010033 0.0070226869 0)
(1.0077835 0.00443301 0)
(1.0074572 0.0019080309 0)
(1.0080616 -2.1816679e-05 0)
(1.0090464 -0.001177365 0)
(1.0100153 -0.0017217595 0)
(1.0107905 -0.0018450533 0)
(1.0113232 -0.0017136066 0)
(1.0116216 -0.0014381845 0)
(1.0117136 -0.0010933349 0)
(1.0116319 -0.00073117415 0)
(1.0114123 -0.00039180095 0)
(1.0110941 -0.00010451294 0)
(1.0107202 0.00011228763 0)
(1.0103331 0.00024398698 0)
(1.0099704 0.00028264839 0)
(1.0096711 0.00022866882 0)
(1.0094773 9.3257403e-05 0)
(0.81109566 -0.027708098 7.3647558e-24)
(0.81521005 0.026782571 0)
(0.81766633 0.023961973 -1.0101324e-23)
(0.82414615 -0.070394978 1.0588896e-23)
(0.85301684 -0.053592077 5.6392983e-24)
(0.86885231 0.039309086 3.1398066e-22)
(0.85554128 0.11464905 -5.125722e-22)
(0.83813335 0.10222669 -3.6675727e-23)
(0.84443573 0.0069478825 1.1341608e-22)
(0.90560251 -0.11108919 5.9553283e-23)
(1.003651 -0.12750014 -1.3574496e-21)
(1.0712237 -0.063128656 1.2773717e-21)
(1.0834114 0.043023449 0)
(1.0462011 0.1202674 0)
(0.97325115 0.11394706 0)
(0.9282492 0.052883864 0)
(0.93888772 -0.0084633733 0)
(0.97658725 -0.034080855 0)
(1.0074831 -0.033649687 0)
(1.025861 -0.021027697 0)
(1.0307222 -0.0048504747 0)
(1.0257272 0.0066406073 0)
(1.0172871 0.011113072 0)
(1.0103647 0.01000245 0)
(1.0067878 0.0065478297 0)
(1.0060202 0.0030177044 0)
(1.0067465 0.00035161226 0)
(1.0080004 -0.0013508013 0)
(1.009307 -0.0021641485 0)
(1.0103819 -0.0023974321 0)
(1.0111588 -0.0022886189 0)
(1.0116511 -0.0019886342 0)
(1.0118961 -0.0015922385 0)
(1.0119321 -0.001160213 0)
(1.0117963 -0.00073704127 0)
(1.0115269 -0.00035791384 0)
(1.0111658 -4.7515793e-05 0)
(1.0107559 0.00017669172 0)
(1.0103401 0.00030401883 0)
(1.0099555 0.0003295349 0)
(1.0096414 0.00025798499 0)
(1.0094391 0.00010275118 0)
(0.81473592 -0.071460294 5.8677911e-24)
(0.81455411 -0.027893959 2.2152999e-23)
(0.82596799 0.026349524 0)
(0.82785032 0.023006632 -1.8791745e-24)
(0.83421509 -0.055209663 2.1434207e-24)
(0.84950876 0.041603312 -1.4041036e-22)
(0.83946685 0.12030048 0)
(0.82566613 0.10862802 3.6422854e-23)
(0.83044199 0.0079562034 2.4794659e-24)
(0.88666805 -0.1227373 -5.8769547e-23)
(0.98394086 -0.14264106 1.477318e-21)
(1.0566879 -0.078760282 1.4174293e-21)
(1.0686215 0.048944189 0)
(1.0177794 0.13992053 0)
(0.95397271 0.1359583 0)
(0.91147615 0.064656612 0)
(0.92038194 -0.012447938 0)
(0.96683431 -0.046043318 0)
(1.006741 -0.045657225 0)
(1.0306961 -0.029263343 0)
(1.0382299 -0.0085783469 0)
(1.0324076 0.0080792409 0)
(1.0209167 0.014971721 0)
(1.011007 0.014118101 0)
(1.0055388 0.0095186445 0)
(1.004091 0.0046244339 0)
(1.0049359 0.00090819985 0)
(1.0065672 -0.0014805573 0)
(1.008312 -0.0026735863 0)
(1.0097755 -0.0030604464 0)
(1.0108551 -0.0029765705 0)
(1.0115784 -0.0026469651 0)
(1.0120035 -0.0021952646 0)
(1.0121814 -0.0016918423 0)
(1.0121539 -0.0011839684 0)
(1.0119595 -0.00070943595 0)
(1.0116381 -0.00029886934 0)
(1.0112328 2.6356901e-05 0)
(1.0107868 0.00025107505 0)
(1.0103424 0.00036850449 0)
(1.0099366 0.00037777654 0)
(1.0096086 0.00028698275 0)
(1.0093985 0.00011192073 0)
(0.82040159 -0.056184608 -1.0650394e-23)
(0.81190861 -0.071517078 -6.1286377e-24)
(0.82348134 -0.027267289 -1.9751484e-23)
(0.84053935 0.025640125 -1.2593504e-23)
(0.84085757 0.02169489 4.812434e-23)
(0.83281178 0.043175401 1.3217957e-22)
(0.82681859 0.12476041 7.3274607e-23)
(0.81651101 0.11401692 0)
(0.81938936 0.0087603545 -1.3476985e-23)
(0.86796463 -0.13387248 -2.4000753e-22)
(0.9619848 -0.15854829 0)
(1.0380426 -0.090804966 -1.8422998e-21)
(1.0567215 0.041583032 0)
(0.99895869 0.15968165 0)
(0.93456713 0.15238743 0)
(0.89595012 0.078617376 0)
(0.90160781 -0.019319567 0)
(0.95582184 -0.060313421 0)
(1.0056435 -0.059271563 0)
(1.0365805 -0.040243636 0)
(1.0476233 -0.01290313 0)
(1.0410552 0.0092902803 0)
(1.0259568 0.020118414 0)
(1.0119785 0.019649672 0)
(1.0039526 0.013639131 0)
(1.0015345 0.0068665671 0)
(1.0024657 0.0017066213 0)
(1.0046355 -0.0015837989 0)
(1.0069548 -0.0033056524 0)
(1.0089302 -0.003867009 0)
(1.0103927 -0.003806154 0)
(1.0113947 -0.0034329287 0)
(1.0120278 -0.0029141692 0)
(1.0123688 -0.0023333188 0)
(1.0124707 -0.0017386168 0)
(1.0123747 -0.0011669904 0)
(1.0121188 -0.00065119757 0)
(1.0117443 -0.00021805719 0)
(1.0112942 0.00011343478 0)
(1.0108123 0.00033235972 0)
(1.01034 0.000435604 0)
(1.009914 0.00042561391 0)
(1.009573 0.00031518774 0)
(1.0093557 0.00012069785 0)
(0.82038827 0.04379646 6.6668794e-24)
(0.81156927 -0.056360755 8.8692683e-24)
(0.81471687 -0.070929164 2.7664939e-23)
(0.83730391 -0.025946066 1.3004831e-23)
(0.85715181 0.024678386 -6.8140686e-23)
(0.85723752 0.020117958 -2.7559557e-23)
(0.81875915 0.12783993 -1.4368487e-22)
(0.8113548 0.1183398 -6.6135597e-23)
(0.8115951 0.0094960196 -8.4033014e-23)
(0.85148109 -0.14403721 2.1033094e-22)
(0.93804779 -0.17376816 -1.7457564e-21)
(1.0157456 -0.10484317 9.4516234e-22)
(1.0358276 0.042308075 0)
(0.98771952 0.17082296 -8.7002481e-22)
(0.91396105 0.17440527 -5.7086464e-22)
(0.88190554 0.083974769 0)
(0.88506848 -0.021405488 0)
(0.94329606 -0.077555437 0)
(1.0045896 -0.076453915 0)
(1.0433399 -0.052313049 0)
(1.0590097 -0.019517116 0)
(1.0522123 0.011267592 0)
(1.0325148 0.026539811 0)
(1.013396 0.027016572 0)
(1.0018887 0.019151379 0)
(0.99814062 0.0099535067 0)
(0.99915487 0.0027907663 0)
(1.0020387 -0.0016986664 0)
(1.0051411 -0.0040853411 0)
(1.0077976 -0.004887016 0)
(1.0097565 -0.0048320416 0)
(1.011098 -0.0043792448 0)
(1.0119688 -0.0037660992 0)
(1.0124898 -0.0030933684 0)
(1.0127373 -0.0024062966 0)
(1.0127587 -0.0017361718 0)
(1.0125912 -0.0011129058 0)
(1.0122725 -0.00056617408 0)