/*--------------------------------*- C++ -*----------------------------------*\
| =========                 |                                                 |
| \\      /  F ield         | OpenFOAM: The Open Source CFD Toolbox           |
|  \\    /   O peration     | Version:  5.0                                   |
|   \\  /    A nd           | Web:      www.OpenFOAM.org                      |
|    \\/     M anipulation  |                                                 |
\*---------------------------------------------------------------------------*/
FoamFile
{
    version     2.0;
    format      ascii;
    class       volVectorField;
    location    "180";
    object      UMean;
}
// * * * * * * * * * * * * * * * * * * * * * * * * * * * * * * * * * * * * * //

dimensions      [0 1 -1 0 0 0 0];

internalField   nonuniform List<vector> 
9520
(
(1.008272 -2.2745048e-05 0)
(1.0083567 -6.6757881e-05 0)
(1.0083402 -2.1915802e-05 0)
(1.0085076 -0.0001068882 0)
(1.008424 -6.4035098e-05 0)
(1.0083641 -2.1984216e-05 0)
(1.0087106 -0.00014381219 0)
(1.0085734 -0.00010213327 0)
(1.0084474 -6.4392121e-05 0)
(1.0084072 -2.2869136e-05 0)
(1.008953 -0.00017755751 0)
(1.0087748 -0.00013674018 0)
(1.0085959 -0.00010235475 0)
(1.0084891 -6.6578583e-05 0)
(1.008439 -2.4017503e-05 0)
(1.0092237 -0.00020900828 0)
(1.0090162 -0.00016781308 0)
(1.0087964 -0.00013638339 0)
(1.0086355 -0.0001052248 0)
(1.00852 -6.9930843e-05 0)
(1.0084796 -2.631361e-05 0)
(1.0095128 -0.00023881725 0)
(1.0092869 -0.00019619056 0)
(1.0090369 -0.00016629477 0)
(1.0088333 -0.00013904637 0)
(1.0086645 -0.00011009006 0)
(1.0085588 -7.638693e-05 0)
(1.0085166 -2.89524e-05 0)
(1.0098118 -0.00026757914 0)
(1.0095774 -0.00022252742 0)
(1.009307 -0.00019283838 0)
(1.009071 -0.00016771439 0)
(1.0088598 -0.00014448565 0)
(1.0086999 -0.00011979578 0)
(1.0085941 -8.3995169e-05 0)
(1.0085617 -3.2797688e-05 0)
(1.0101133 -0.00029668979 0)
(1.0098797 -0.00024773276 0)
(1.0095974 -0.00021654034 0)
(1.0093385 -0.00019189068 0)
(1.0090945 -0.00017256436 0)
(1.0088908 -0.00015626901 0)
(1.0087321 -0.00013148515 0)
(1.008637 -9.51172e-05 0)
(1.0086062 -3.7139352e-05 0)
(1.0104112 -0.00032540793 0)
(1.010186 -0.00027266346 0)
(1.0098998 -0.00023789042 0)
(1.0096268 -0.00021208736 0)
(1.009359 -0.00019488064 0)
(1.0091205 -0.00018501476 0)
(1.0089186 -0.00017088489 0)
(1.0087709 -0.00014891091 0)
(1.0086794 -0.00010777014 0)
(1.0086598 -4.2549365e-05 0)
(1.0107004 -0.00035771559 0)
(1.0104911 -0.00029664227 0)
(1.0102073 -0.00025842377 0)
(1.0099281 -0.0002290975 0)
(1.0096443 -0.00021181761 0)
(1.0093793 -0.00020635037 0)
(1.0091428 -0.00020116678 0)
(1.0089515 -0.00019337961 0)
(1.0088091 -0.00016897715 0)
(1.0087307 -0.00012365605 0)
(1.0087147 -4.840813e-05 0)
(1.010977 -0.00038609184 0)
(1.01079 -0.00032392667 0)
(1.0105143 -0.00027814977 0)
(1.0102358 -0.00024414788 0)
(1.009943 -0.00022405153 0)
(1.0096589 -0.00022052205 0)
(1.0093955 -0.00022241777 0)
(1.0091684 -0.00022722824 0)
(1.008984 -0.00021975691 0)
(1.008856 -0.00019454375 0)
(1.0087834 -0.00014094592 0)
(1.008779 -5.505049e-05 0)
(1.0112386 -0.0004269187 0)
(1.0110801 -0.00034853834 0)
(1.0108154 -0.00029943593 0)
(1.0105441 -0.00025686869 0)
(1.0102484 -0.00023257934 0)
(1.0099521 -0.00022818304 0)
(1.0096683 -0.00023467822 0)
(1.0094124 -0.00025027144 0)
(1.0091934 -0.00025857114 0)
(1.0090243 -0.00025404741 0)
(1.0089044 -0.00022261442 0)
(1.0088457 -0.00016067906 0)
(1.0088458 -6.1946695e-05 0)
(1.0114827 -0.00044948055 0)
(1.0113565 -0.00038462133 0)
(1.0111069 -0.00031801357 0)
(1.0108492 -0.00027076482 0)
(1.0105553 -0.00023778349 0)
(1.0102527 -0.00023046693 0)
(1.0099544 -0.00023845142 0)
(1.0096756 -0.00026231003 0)
(1.0094285 -0.00028495525 0)
(1.0092249 -0.00030036675 0)
(1.0090663 -0.00029218117 0)
(1.0089628 -0.00025503648 0)
(1.0089108 -0.00018125465 0)
(1.0089213 -6.9270792e-05 0)
(1.0117074 -0.00051191552 0)
(1.0116175 -0.00040404358 0)
(1.0113841 -0.0003449593 0)
(1.0111471 -0.00028151552 0)
(1.0108581 -0.00024173687 0)
(1.0105556 -0.00022757801 0)
(1.0102475 -0.00023449727 0)
(1.0099515 -0.00026366502 0)
(1.0096813 -0.00029843533 0)
(1.0094492 -0.00033272258 0)
(1.0092586 -0.00034765598 0)
(1.0091185 -0.00033690878 0)
(1.0090243 -0.00028911442 0)
(1.0089852 -0.00020323527 0)
(1.0089998 -7.6583347e-05 0)
(1.011911 -0.00051690547 0)
(1.0118584 -0.00045736827 0)
(1.0116478 -0.00035724418 0)
(1.011431 -0.00029996784 0)
(1.0111542 -0.00024205938 0)
(1.010857 -0.00022250406 0)
(1.0105427 -0.00022348781 0)
(1.0102344 -0.00025511304 0)
(1.0099454 -0.00029907445 0)
(1.0096894 -0.00035032621 0)
(1.0094722 -0.00038796215 0)
(1.0093021 -0.00040414506 0)
(1.0091745 -0.00038445672 0)
(1.0090962 -0.00032591341 0)
(1.009063 -0.00022528519 0)
(1.0090856 -8.3931318e-05 0)
(1.0120923 -0.00061275587 0)
(1.0120822 -0.00045771369 0)
(1.0118934 -0.00040108045 0)
(1.0117013 -0.00030484967 0)
(1.0114383 -0.00024786584 0)
(1.0111519 -0.0002122161 0)
(1.0108362 -0.00020729263 0)
(1.0105199 -0.00023722823 0)
(1.0102151 -0.00028728047 0)
(1.0099393 -0.00035295643 0)
(1.0096996 -0.00041197452 0)
(1.0095045 -0.00045534054 0)
(1.0093502 -0.00046505662 0)
(1.0092419 -0.00043650719 0)
(1.0091722 -0.00036315027 0)
(1.0091489 -0.00024759007 0)
(1.009174 -9.0951176e-05 0)
(1.0122459 -0.00058711986 0)
(1.012279 -0.00054343147 0)
(1.0121237 -0.00039610064 0)
(1.0119532 -0.00033785233 0)
(1.0117105 -0.00024170243 0)
(1.0114358 -0.00020585696 0)
(1.0111252 -0.00018478945 0)
(1.0108039 -0.00021169858 0)
(1.0104863 -0.00026358637 0)
(1.0101939 -0.00034085956 0)
(1.0099343 -0.00041912755 0)
(1.0097178 -0.0004889816 0)
(1.009542 -0.00052922883 0)
(1.0094105 -0.00053278603 0)
(1.0093144 -0.00048979611 0)
(1.0092577 -0.00040124932 0)
(1.009238 -0.00026903406 0)
(1.0092677 -9.7591988e-05 0)
(1.0123716 -0.00072525395 0)
(1.0124574 -0.00050912654 0)
(1.0123301 -0.00047222601 0)
(1.0121904 -0.00032584577 0)
(1.0119677 -0.00026103097 0)
(1.0117087 -0.00018749658 0)
(1.0114044 -0.00016362051 0)
(1.0110833 -0.00017757803 0)
(1.0107557 -0.00022949665 0)
(1.0104492 -0.00031424879 0)
(1.0101714 -0.00040923204 0)
(1.0099361 -0.00050407141 0)
(1.0097419 -0.00057507109 0)
(1.0095924 -0.00061278368 0)
(1.0094774 -0.00060310084 0)
(1.0093984 -0.00054507555 0)
(1.0093475 -0.00043828247 0)
(1.0093333 -0.0002895048 0)
(1.009363 -0.00010356644 0)
(1.0124452 -0.00066272303 0)
(1.0125953 -0.00064456904 0)
(1.0125125 -0.00043439749 0)
(1.0124028 -0.00038886177 0)
(1.0122098 -0.00024015829 0)
(1.0119692 -0.00019118218 0)
(1.0116739 -0.00013036261 0)
(1.0113536 -0.00014163085 0)
(1.0110208 -0.00018442194 0)
(1.0107014 -0.00027464792 0)
(1.0104073 -0.00038235951 0)
(1.0101546 -0.00050004156 0)
(1.0099435 -0.00060112914 0)
(1.009779 -0.00067418525 0)
(1.0096508 -0.00070089613 0)
(1.0095577 -0.00067716636 0)
(1.0094881 -0.00059954309 0)
(1.0094454 -0.00047413394 0)
(1.0094311 -0.00030808773 0)
(1.0094612 -0.00010877752 0)
(1.0124732 -0.00084177801 0)
(1.0127035 -0.00055802166 0)
(1.0126626 -0.00055902194 0)
(1.0125923 -0.00034492642 0)
(1.0124297 -0.00029030721 0)
(1.0122158 -0.00015729217 0)
(1.0119326 -0.00011517966 0)
(1.0116143 -9.2399853e-05 0)
(1.0112771 -0.00013429912 0)
(1.0109481 -0.0002214379 0)
(1.0106389 -0.00033976633 0)
(1.0103696 -0.00047664699 0)
(1.0101422 -0.00060630777 0)
(1.0099641 -0.00071498326 0)
(1.0098255 -0.00078047621 0)
(1.0097243 -0.00079520162 0)
(1.0096457 -0.00075127276 0)
(1.0095883 -0.0006531946 0)
(1.0095469 -0.00050719019 0)
(1.0095327 -0.00032450503 0)
(1.0095596 -0.0001129998 0)
(1.0123625 -0.00075083563 0)
(1.0127359 -0.00074600529 0)
(1.012766 -0.00046922274 0)
(1.0127496 -0.00045399427 0)
(1.0126277 -0.00023957852 0)
(1.0124427 -0.00019029783 0)
(1.0121805 -6.4285206e-05 0)
(1.0118646 -5.6198571e-05 0)
(1.0115236 -6.9617501e-05 0)
(1.011186 -0.00015996883 0)
(1.0108643 -0.00028113171 0)
(1.0105786 -0.00043483796 0)
(1.0103348 -0.00059001105 0)
(1.0101428 -0.00073353995 0)
(1.0099949 -0.00083929504 0)
(1.0098888 -0.00089610113 0)
(1.0098079 -0.000891128 0)
(1.0097468 -0.00082556378 0)
(1.009694 -0.00070359065 0)
(1.0096544 -0.00053702166 0)
(1.0096352 -0.00033808487 0)
(1.0096584 -0.00011615318 0)
(1.0120349 -0.00094438105 0)
(1.0126789 -0.00062008941 0)
(1.0128179 -0.00065316248 0)
(1.0128613 -0.00036222397 0)
(1.0127932 -0.00034033693 0)
(1.0126511 -0.0001262232 0)
(1.0124093 -7.5085829e-05 0)
(1.0121062 1.5072381e-05 0)
(1.011759 -1.3324381e-05 0)
(1.0114138 -8.2602652e-05 0)
(1.0110804 -0.00021125798 0)
(1.0107796 -0.00037442958 0)
(1.0105189 -0.00055251819 0)
(1.0103119 -0.0007287044 0)
(1.0101539 -0.00087506937 0)
(1.0100439 -0.00097674633 0)
(1.0099646 -0.0010157099 0)
(1.0099075 -0.00098895194 0)
(1.0098558 -0.00089675102 0)
(1.0098083 -0.00075019955 0)
(1.009764 -0.0005624088 0)
(1.0097391 -0.00034851611 0)
(1.0097556 -0.00011807666 0)
(1.0113513 -0.00087275651 0)
(1.0123619 -0.00083101074 0)
(1.0127505 -0.0005135127 0)
(1.0129144 -0.00053068587 0)
(1.0129128 -0.00024424755 0)
(1.0128273 -0.00021134886 0)
(1.0126248 8.6830321e-06 0)
(1.0123287 3.1465994e-05 0)
(1.0119864 7.7204586e-05 0)
(1.0116287 -9.3741721e-06 0)
(1.0112857 -0.00012395193 0)
(1.0109706 -0.00029969403 0)
(1.0106935 -0.00049391339 0)
(1.0104697 -0.00070015261 0)
(1.0102995 -0.00088600221 0)
(1.0101843 -0.0010341908 0)
(1.0101076 -0.0011213652 0)
(1.0100592 -0.00113977 0)
(1.010018 -0.0010846035 0)
(1.0099767 -0.0009641982 0)
(1.0099268 -0.00079110832 0)
(1.0098769 -0.00058285054 0)
(1.0098421 -0.00035537302 0)
(1.0098507 -0.00011871745 0)
(1.0105365 -0.0010055036 0)
(1.0116793 -0.00072195424 0)
(1.0124655 -0.00072109603 0)
(1.0128577 -0.00038783003 0)
(1.0129773 -0.00041004738 0)
(1.0129654 -0.00010300749 0)
(1.0128088 -5.0662133e-05 0)
(1.01254 0.00014056529 0)
(1.0121947 0.00011939012 0)
(1.0118363 9.6759914e-05 0)
(1.0114782 -3.7540934e-05 0)
(1.0111498 -0.00020588737 0)
(1.010857 -0.00041762502 0)
(1.0106154 -0.00064785304 0)
(1.01043 -0.00087104992 0)
(1.0103066 -0.0010658801 0)
(1.0102311 -0.001204455 0)
(1.0101929 -0.0012738606 0)
(1.010168 -0.0012634072 0)
(1.0101439 -0.0011772556 0)
(1.0101046 -0.001025218 0)
(1.0100513 -0.00082562279 0)
(1.0099902 -0.0005975507 0)
(1.0099439 -0.00035845708 0)
(1.0099425 -0.00011802424 0)
(1.0086264 -0.0010009194 0)
(1.0109164 -0.00091391769 0)
(1.0117838 -0.00058934307 0)
(1.0125835 -0.00059214466 0)
(1.0129285 -0.00026548787 0)
(1.0130467 -0.00025849559 0)
(1.0129617 7.9701889e-05 0)
(1.0127202 0.00011475768 0)
(1.0123914 0.00025191499 0)
(1.0120239 0.00016032742 0)
(1.0116636 8.0207842e-05 0)
(1.0113175 -0.00010907365 0)
(1.0110076 -0.00032045098 0)
(1.0107483 -0.00057414198 0)
(1.0105452 -0.0008296192 0)
(1.0104095 -0.0010700285 0)
(1.0103317 -0.0012616403 0)
(1.0103022 -0.0013868956 0)
(1.0102959 -0.0014285873 0)
(1.0102961 -0.0013856768 0)
(1.0102803 -0.0012634604 0)
(1.0102419 -0.0010788729 0)
(1.0101782 -0.00085245133 0)
(1.010104 -0.00060612112 0)
(1.0100429 -0.00035757445 0)
(1.0100303 -0.00011598515 0)
(1.0045279 -0.0011026934 0)
(1.0091222 -0.00080363299 0)
(1.0110258 -0.00077885455 0)
(1.0119029 -0.00044260011 0)
(1.0126715 -0.00047653966 0)
(1.0130201 -0.00010246184 0)
(1.013058 -4.6758353e-05 0)
(1.0128728 0.00027615327 0)
(1.0125558 0.00025721727 0)
(1.0121998 0.00031035417 0)
(1.0118289 0.0001603045 0)
(1.0114779 1.8194977e-05 0)
(1.0111469 -0.00021577517 0)
(1.0108668 -0.00047687776 0)
(1.0106451 -0.00076330306 0)
(1.0104929 -0.0010452974 0)
(1.0104077 -0.0012902803 0)
(1.0103831 -0.0014746955 0)
(1.0103943 -0.0015751435 0)
(1.0104222 -0.0015845563 0)
(1.0104387 -0.0015022651 0)
(1.0104301 -0.001341917 0)
(1.0103843 -0.0011232432 0)
(1.0103081 -0.00087098476 0)
(1.0102162 -0.00060816601 0)
(1.0101385 -0.00035266117 0)
(1.0101131 -0.00011260918 0)
(0.99865762 -0.0011107301 0)
(1.0049298 -0.0010495192 0)
(1.0093414 -0.00065106261 0)
(1.0111558 -0.00065792913 0)
(1.0120159 -0.00031965209 0)
(1.0127878 -0.00031865654 0)
(1.0130553 0.00013817688 0)
(1.0129664 0.00019185752 0)
(1.0126927 0.00044662919 0)
(1.012342 0.00033858046 0)
(1.0119839 0.0003215354 0)
(1.0116201 0.00011315616 0)
(1.0112793 -8.0321835e-05 0)
(1.010973 -0.00036722921 0)
(1.0107284 -0.00067031682 0)
(1.0105573 -0.00099240806 0)
(1.0104593 -0.0012883529 0)
(1.0104338 -0.0015337547 0)
(1.0104587 -0.0016980927 0)
(1.0105139 -0.0017682917 0)
(1.0105675 -0.0017365351 0)
(1.0105995 -0.0016115349 0)
(1.0105887 -0.0014100392 0)
(1.0105331 -0.0011574261 0)
(1.0104381 -0.00088051501 0)
(1.0103262 -0.00060351792 0)
(1.0102297 -0.00034373675 0)
(1.0101904 -0.00010792056 0)
(0.99165896 -0.0011608274 0)
(0.99905044 -0.00096929452 0)
(1.005127 -0.00085902611 0)
(1.0095742 -0.0005079327 0)
(1.0112969 -0.00056516048 0)
(1.0121718 -0.00014392453 0)
(1.0128514 -5.6079429e-05 0)
(1.0129678 0.00041626867 0)
(1.0127679 0.00039915936 0)
(1.012456 0.00054666971 0)
(1.0121051 0.00036508801 0)
(1.0117539 0.00028474175 0)
(1.0113961 2.9388268e-05 0)
(1.0110721 -0.00022520802 0)
(1.010797 -0.00055976757 0)
(1.0106023 -0.00090973074 0)
(1.0104876 -0.0012553341 0)
(1.0104545 -0.0015611003 0)
(1.0104868 -0.0017930428 0)
(1.0105655 -0.0019310414 0)
(1.010657 -0.0019601603 0)
(1.0107359 -0.0018825864 0)
(1.0107733 -0.0017100826 0)
(1.0107577 -0.001466473 0)
(1.0106844 -0.0011802618 0)
(1.010568 -0.00088068304 0)
(1.0104326 -0.00059213623 0)
(1.0103156 -0.00033084204 0)
(1.0102615 -0.00010196873 0)
(0.98389612 -0.0011972939 0)
(0.99201657 -0.001086079 0)
(0.99918675 -0.00081679716 0)
(1.0054254 -0.00073505591 0)
(1.0098494 -0.00040129481 0)
(1.0114993 -0.00041311915 0)
(1.012264 0.00016102874 0)
(1.0127693 0.00026593854 0)
(1.0127505 0.00065733511 0)
(1.0125072 0.00051972514 0)
(1.0122002 0.00058310242 0)
(1.011858 0.00034200265 0)
(1.0115074 0.00021229643 0)
(1.0111574 -0.00010085212 0)
(1.010857 -0.00041467474 0)
(1.0106287 -0.00080438832 0)
(1.0104925 -0.0011900284 0)
(1.0104465 -0.0015552994 0)
(1.0104788 -0.001855989 0)
(1.0105745 -0.0020672762 0)
(1.0107006 -0.0021665356 0)
(1.0108285 -0.0021485878 0)
(1.0109225 -0.0020183869 0)
(1.0109624 -0.0017960742 0)
(1.0109327 -0.001509528 0)
(1.0108386 -0.0011910774 0)
(1.0106956 -0.00087131737 0)
(1.0105346 -0.0005740437 0)
(1.0103956 -0.00031411599 0)
(1.0103261 -9.481805e-05 0)
(0.97451943 -0.0012172819 -1.2459365e-24)
(0.98426373 -0.0010943287 0)
(0.99218649 -0.00089248965 0)
(0.99943273 -0.00074741926 0)
(1.0059145 -0.00066493475 0)
(1.010219 -0.00022273003 0)
(1.0116214 -9.4266961e-05 0)
(1.0121856 0.00053982217 0)
(1.012537 0.00054709475 0)
(1.0124658 0.00079551977 0)
(1.0122342 0.00056347394 0)
(1.0119408 0.00057034505 0)
(1.0115925 0.00028822363 0)
(1.0112391 9.5405076e-05 0)
(1.0109032 -0.00027843399 0)
(1.0106437 -0.00066201127 0)
(1.0104745 -0.0010975806 0)
(1.0104107 -0.0015150609 0)
(1.0104362 -0.0018845278 0)
(1.0105407 -0.0021722088 0)
(1.0106949 -0.0023491851 0)
(1.0108695 -0.002402211 0)
(1.0110239 -0.002328271 0)
(1.0111301 -0.0021416093 0)
(1.0111619 -0.0018671197 0)
(1.0111144 -0.0015380757 0)
(1.0109926 -0.0011894014 0)
(1.0108203 -0.00085218567 0)
(1.0106313 -0.00054936548 0)
(1.0104692 -0.00029373373 0)
(1.0103836 -8.654667e-05 0)
(0.96313776 -0.0012534081 1.1201097e-24)
(0.97483393 -0.0011421528 1.3002533e-24)
(0.98444597 -0.00092989189 0)
(0.99245301 -0.00084359657 0)
(0.99988507 -0.00072296596 0)
(1.0065682 -0.00052116411 0)
(1.0105408 0.00016394028 0)
(1.0115221 0.00032124422 0)
(1.0119376 0.00086457886 0)
(1.0122352 0.00070060145 0)
(1.0121814 0.0008417499 0)
(1.0119678 0.00055836486 0)
(1.0116646 0.00053162181 0)
(1.0112982 0.00019524142 0)
(1.0109458 -7.0659653e-05 0)
(1.0106429 -0.00052022338 0)
(1.0104412 -0.00096601954 0)
(1.0103471 -0.0014438008 0)
(1.0103606 -0.0018766177 0)
(1.0104656 -0.0022421425 0)
(1.0106393 -0.002501864 0)
(1.0108542 -0.0026358904 0)
(1.0110681 -0.0026318472 0)
(1.0112465 -0.0024964115 0)
(1.0113533 -0.0022489977 0)
(1.0113729 -0.0019215176 0)
(1.0112987 -0.0015513004 0)
(1.0111458 -0.0011750083 0)
(1.0109406 -0.00082356486 0)
(1.0107218 -0.00051836975 0)
(1.0105358 -0.00026993712 0)
(1.010434 -7.725557e-05 0)
(0.95088332 -0.0012100654 -1.1264567e-24)
(0.96341019 -0.001198369 -4.4610669e-24)
(0.97498928 -0.00095166053 0)
(0.9847756 -0.00092436052 0)
(0.99294148 -0.0008674448 0)
(1.0005376 -0.00059077675 0)
(1.007213 -0.0001294225 0)
(1.0106101 0.00066201781 0)
(1.0112136 0.00067748216 0)
(1.0116223 0.0010289167 0)
(1.0119517 0.00074166819 0)
(1.0119191 0.00084180532 0)
(1.0116877 0.00053679548 0)
(1.01135 0.00046233806 0)
(1.0109669 5.4033293e-05 0)
(1.0106364 -0.00030699271 0)
(1.0103886 -0.0008280823 0)
(1.0102635 -0.0013317972 0)
(1.0102521 -0.001834809 0)
(1.0103516 -0.002274331 0)
(1.0105354 -0.0026198955 0)
(1.0107814 -0.0028423746 0)
(1.0110494 -0.0029206668 0)
(1.0113006 -0.0028521911 0)
(1.011491 -0.0026487494 0)
(1.0115938 -0.002338192 0)
(1.0115904 -0.0019579327 0)
(1.0114855 -0.0015484868 0)
(1.011296 -0.0011478359 0)
(1.0110555 -0.00078568141 0)
(1.0108056 -0.0004814375 0)
(1.0105952 -0.00024297828 0)
(1.0104771 -6.7057046e-05 0)
(0.93827806 -0.0012084005 0)
(0.95101376 -0.0011501229 4.4669203e-24)
(0.96357795 -0.0010396939 0)
(0.97530657 -0.00097240593 0)
(0.98536089 -0.00097734692 0)
(0.9935943 -0.00079658502 0)
(1.0012311 -0.00014091738 0)
(1.0076274 0.00042346278 0)
(1.0103674 0.0010740756 0)
(1.0108273 0.0008539057 0)
(1.0113507 0.0010572042 0)
(1.0117122 0.00073613483 0)
(1.0116496 0.00084141078 0)
(1.0113582 0.00049743745 0)
(1.0109833 0.00034620845 0)
(1.0106068 -0.00016361377 0)
(1.0103269 -0.0006196163 0)
(1.0101572 -0.0012074305 0)
(1.010119 -0.0017509149 0)
(1.0101996 -0.0022697903 0)
(1.0103858 -0.0026993389 0)
(1.0106526 -0.0030152028 0)
(1.0109652 -0.0031860627 0)
(1.0112851 -0.0031996385 0)
(1.011562 -0.0030579299 0)
(1.0117594 -0.0027822278 0)
(1.0118459 -0.0024070902 0)
(1.0118147 -0.001974963 0)
(1.0116714 -0.0015294212 0)
(1.0114423 -0.001107957 0)
(1.011164 -0.00073895942 0)
(1.010882 -0.00043898281 0)
(1.0106471 -0.00021313112 0)
(1.0105128 -5.599548e-05 0)
(0.92551559 -0.0010912372 8.0827432e-25)
(0.93815565 -0.0011817121 0)
(0.95110959 -0.00097418203 8.4644173e-24)
(0.9639196 -0.001132303 0)
(0.97590374 -0.001055811 0)
(0.98611995 -0.00089099934 0)
(0.99421452 -0.00039554519 0)
(1.0017745 0.00050432943 0)
(1.007761 0.00090066086 0)
(1.0099943 0.0012360836 0)
(1.0105189 0.00087022678 0)
(1.0111552 0.0010466456 0)
(1.0114721 0.00074798445 0)
(1.0113185 0.00084088762 0)
(1.0109574 0.00041634222 0)
(1.0105713 0.00014620502 0)
(1.0102393 -0.00046948372 0)
(1.0100379 -0.0010146465 0)
(1.0099594 -0.0016492983 0)
(1.0100178 -0.0022217512 0)
(1.0101921 -0.0027396633 0)
(1.0104706 -0.0031493258 0)
(1.0108165 -0.0034202275 0)
(1.0111962 -0.0035290893 0)
(1.0115572 -0.0034667574 0)
(1.0118548 -0.0032453547 0)
(1.0120458 -0.0028937937 0)
(1.0121103 -0.0024535661 0)
(1.0120412 -0.0019721573 0)
(1.0118557 -0.0014938295 0)
(1.011583 -0.0010558829 0)
(1.0112654 -0.000683904 0)
(1.0109508 -0.00039146606 0)
(1.0106915 -0.00018070977 0)
(1.0105413 -4.4230114e-05 0)
(0.9130803 -0.001011852 -1.205135e-24)
(0.9250597 -0.0010691063 -1.2830491e-23)
(0.93813904 -0.0010278541 -8.4589307e-24)
(0.95136452 -0.0010871284 -1.2822664e-23)
(0.96456142 -0.0012945952 -1.6361529e-23)
(0.97667869 -0.00098287411 0)
(0.98683879 -0.00042254613 0)
(0.99464141 0.00018880412 0)
(1.002193 0.0010422578 0)
(1.0078174 0.0010914041 0)
(1.0096905 0.0011973924 0)
(1.0103192 0.00084527394 0)
(1.0109715 0.00108152 0)
(1.0111581 0.000782429 0)
(1.0108914 0.00080540551 0)
(1.0104909 0.00024460345 0)
(1.0101429 -0.00015742687 0)
(1.0098901 -0.0008703606 0)
(1.0097836 -0.0014815452 0)
(1.0098059 -0.0021506444 0)
(1.0099636 -0.0027347135 0)
(1.0102374 -0.0032424795 0)
(1.0106066 -0.0036161872 0)
(1.0110336 -0.0038309827 0)
(1.0114711 -0.00386436 0)
(1.0118689 -0.0037174271 0)
(1.0121733 -0.0034102516 0)
(1.0123512 -0.0029804919 0)
(1.0123814 -0.0024766599 0)
(1.0122696 -0.0019486283 0)
(1.0120357 -0.0014422004 0)
(1.0117171 -0.00099205833 0)
(1.0113589 -0.00062113126 0)
(1.0110117 -0.00033930418 0)
(1.0107282 -0.00014601728 0)
(1.0105625 -3.1828852e-05 0)
(0.90142793 -0.00083920758 7.5480543e-25)
(0.91223822 -0.00099372008 2.2653747e-23)
(0.92488736 -0.0009130179 0)
(0.93823422 -0.0012040924 4.5520346e-23)
(0.9519329 -0.001268463 1.6276503e-23)
(0.96539754 -0.0012998525 2.5757913e-23)
(0.97738777 -0.0004872292 1.3181862e-23)
(0.98736885 0.0002321232 0)
(0.99498041 0.00066653433 0)
(1.0026589 0.0012396616 0)
(1.0079622 0.0010504113 0)
(1.0094993 0.0011366029 0)
(1.0101538 0.00088496108 0)
(1.0107006 0.0011731182 0)
(1.0107163 0.00079271868 0)
(1.0103728 0.0006710489 0)
(1.0099972 -4.7145582e-05 0)
(1.0097309 -0.0005707892 0)
(1.0095776 -0.0013535392 0)
(1.0095751 -0.0020152737 0)
(1.0097009 -0.0027012341 0)
(1.009963 -0.003287993 0)
(1.0103373 -0.003770144 0)
(1.0108005 -0.0040963863 0)
(1.011302 -0.0042398222 0)
(1.011794 -0.0041869379 0)
(1.0122148 -0.0039464386 0)
(1.0125185 -0.0035488385 0)
(1.0126691 -0.0030405413 0)
(1.0126588 -0.0024747047 0)
(1.0124957 -0.0019048643 0)
(1.0122104 -0.0013747555 0)
(1.0118434 -0.0009172708 0)
(1.011444 -0.0005512915 0)
(1.0110644 -0.00028298587 0)
(1.0107573 -0.00010937835 0)
(1.0105768 -1.8904321e-05 0)
(0.89078519 -0.00067546815 -1.7464565e-25)
(0.90013906 -0.00081120496 -5.5588862e-24)
(0.91187636 -0.00084495534 9.1411691e-24)
(0.92473836 -0.0011315188 -1.8261047e-23)
(0.93867114 -0.0014520414 -3.3919599e-23)
(0.95270474 -0.0012658799 2.2840213e-23)
(0.96618458 -0.00085706743 9.2139301e-23)
(0.97789225 0.00021856304 -1.630299e-23)
(0.98780284 0.00071479434 0)
(0.99546016 0.00079178533 0)
(1.0033308 0.0011979102 0)
(1.0081641 0.00096791559 0)
(1.0093466 0.0011981197 0)
(1.0098958 0.0010144374 0)
(1.0102698 0.0012566313 0)
(1.0101509 0.00069462672 0)
(1.0098136 0.0003951748 0)
(1.00952 -0.00046575685 0)
(1.009359 -0.0010781428 0)
(1.0093133 -0.0019106236 0)
(1.0094163 -0.0026041083 0)
(1.0096502 -0.0032990911 0)
(1.0100184 -0.0038745923 0)
(1.0104989 -0.0043198162 0)
(1.0110521 -0.0045822156 0)
(1.0116267 -0.0046414459 0)
(1.0121605 -0.0044902384 0)
(1.0125965 -0.004148885 0)
(1.0128838 -0.0036580598 0)
(1.0129995 -0.0030713898 0)
(1.0129374 -0.0024479203 0)
(1.0127188 -0.0018404777 0)
(1.0123776 -0.0012924498 0)
(1.0119611 -0.00083225542 0)
(1.0115205 -0.00047493812 0)
(1.0111089 -0.00022318293 0)
(1.0107791 -7.110608e-05 0)
(1.0105843 -5.5827852e-06 0)
(0.88114343 -0.000425445 -2.6032289e-25)
(0.88901306 -0.00062429091 2.3559505e-24)
(0.89956817 -0.00067517506 0)
(0.91144332 -0.001102024 -1.3908812e-23)
(0.92495706 -0.0014272563 -4.2957345e-24)
(0.93931097 -0.0014977235 0)
(0.95344219 -0.00077127603 -6.6012781e-23)
(0.96678741 -0.00020242876 -7.5201932e-23)
(0.97830292 0.00075287762 0)
(0.98838259 0.00074876162 0)
(0.99632071 0.00064178461 0)
(1.004212 0.0011513175 0)
(1.0083144 0.0010113548 0)
(1.0090831 0.0014101342 0)
(1.0094502 0.0011524468 0)
(1.0096825 0.0012206494 0)
(1.0095283 0.00042881027 0)
(1.0092721 -2.9961187e-05 0)
(1.0090884 -0.00098930878 0)
(1.0090394 -0.001665957 0)
(1.0091005 -0.0025275706 0)
(1.0093113 -0.003245658 0)
(1.0096556 -0.0039377813 0)
(1.0101374 -0.0044920521 0)
(1.0107237 -0.0048838193 0)
(1.0113676 -0.005068437 0)
(1.0120048 -0.0050282853 0)
(1.0125728 -0.0047685597 0)
(1.0130075 -0.0043204329 0)
(1.0132692 -0.0037344612 0)
(1.0133359 -0.0030725736 0)
(1.0132164 -0.0023952191 0)
(1.0129354 -0.0017567478 0)
(1.0125365 -0.0011959416 0)
(1.0120693 -0.00073794945 0)
(1.0115879 -0.00039297777 0)
(1.0111453 -0.00016030739 0)
(1.0107937 -3.1544941e-05 0)
(1.0105854 8.0004636e-06 0)
(0.87298653 -0.00018275079 0)
(0.8788417 -0.00033231852 0)
(0.88818776 -0.00049807172 -2.4307158e-24)
(0.89881361 -0.000967325 0)
(0.91139654 -0.0014447883 -2.1940812e-24)
(0.92535117 -0.0015065449 3.3091174e-23)
(0.93994551 -0.0010156699 1.6079024e-22)
(0.95402161 -5.7714042e-05 1.4327779e-22)
(0.96732019 0.00027054242 0)
(0.97887718 0.00078505058 0)
(0.98936759 0.00047910721 0)
(0.99759717 0.00047929511 0)
(1.005163 0.0012932621 0)
(1.0082701 0.0012371592 0)
(1.0085723 0.0016475841 0)
(1.0088234 0.0011575984 0)
(1.0090225 0.00098725148 0)
(1.0089245 -1.1953789e-05 0)
(1.0087847 -0.00057425254 0)
(1.0087153 -0.0015982207 0)
(1.008774 -0.0023172336 0)
(1.0089403 -0.0032011323 0)
(1.0092612 -0.0039346728 0)
(1.009724 -0.004617236 0)
(1.0103234 -0.0051341769 0)
(1.0110192 -0.0054574529 0)
(1.011746 -0.0055466446 0)
(1.0124393 -0.0053938135 0)
(1.0130251 -0.0050159338 0)
(1.0134476 -0.0044564112 0)
(1.0136674 -0.0037764597 0)
(1.0136775 -0.0030422376 0)
(1.0134909 -0.0023179133 0)
(1.0131447 -0.00165381 0)
(1.0126855 -0.0010864811 0)
(1.0121677 -0.00063521158 0)
(1.0116461 -0.00030608573 0)
(1.0111736 -9.5017573e-05 0)
(1.0108013 9.0285725e-06 0)
(1.0105803 2.1872143e-05 0)
(0.87005473 -2.7902571e-05 -3.0793334e-25)
(0.87296526 0.00019513063 0)
(0.87769827 -0.00020794469 -6.3108574e-24)
(0.8870399 -0.00081127024 -9.7948416e-24)
(0.89846277 -0.0013559056 -6.1618154e-24)
(0.91149663 -0.0015575305 1.1608391e-23)
(0.92575742 -0.0010284482 5.0217591e-24)
(0.94044869 -0.00029991729 1.9026416e-23)
(0.95455733 0.00045258954 -1.883854e-22)
(0.96803134 0.0002024457 0)
(0.97988347 0.00045898811 -1.8045383e-22)
(0.99077859 0.00023044598 0)
(0.99906543 0.00055782193 0)
(1.005969 0.0017005414 0)
(1.0078621 0.0015206163 0)
(1.0078126 0.0017366065 0)
(1.0081201 0.00092896597 0)
(1.0083852 0.00054823628 0)
(1.0083853 -0.00058641646 0)
(1.0083648 -0.0012101532 0)
(1.0084008 -0.0022709741 0)
(1.0085601 -0.0030263571 0)
(1.0088317 -0.0039271621 0)
(1.0092718 -0.0046729994 0)
(1.0098607 -0.0053323142 0)
(1.0105851 -0.005796721 0)
(1.0113861 -0.0060320926 0)
(1.0121917 -0.0060094361 0)
(1.0129255 -0.0057303929 0)
(1.0135174 -0.0052264545 0)
(1.0139095 -0.0045538436 0)
(1.0140773 -0.0037813249 0)
(1.0140182 -0.0029813104 0)
(1.0137601 -0.0022155417 0)
(1.0133439 -0.0015335066 0)
(1.0128238 -0.00096499554 0)
(1.0122557 -0.00052509922 0)
(1.0116951 -0.00021516699 0)
(1.0111941 -2.7728864e-05 0)
(1.0108023 5.0329973e-05 0)
(1.0105695 3.5857642e-05 0)
(0.86860399 8.8103297e-05 5.60708e-24)
(0.87007522 0.00044406405 0)
(0.88110524 0.00043043564 -1.6807412e-25)
(0.87607971 -0.00052760956 9.7891612e-24)
(0.88629437 -0.0012295533 2.4181253e-24)
(0.89821113 -0.0014933894 6.8516896e-23)
(0.91162882 -0.0010812743 -1.2845116e-22)
(0.9260483 -0.00031351731 -5.8965366e-23)
(0.94092987 0.00020569671 -1.7641361e-22)
(0.95528869 0.00035131739 -6.7773882e-23)
(0.96919095 -0.00025841846 -2.4397508e-22)
(0.98131988 0.00015277252 1.8755743e-22)
(0.99240329 0.00027125447 0)
(1.0004573 0.0010329009 0)
(1.006211 0.0021822932 0)
(1.0070565 0.0016570851 0)
(1.006951 0.0015401637 0)
(1.0074628 0.0004530052 0)
(1.0078259 -4.020865e-05 0)
(1.007924 -0.0012561716 0)
(1.0080094 -0.0019104406 0)
(1.0081368 -0.0029996865 0)
(1.0083928 -0.0037908453 0)
(1.008779 -0.0047103866 0)
(1.0093487 -0.0054586959 0)
(1.0100759 -0.0060809351 0)
(1.0109266 -0.0064715007 0)
(1.0118307 -0.0065998057 0)
(1.0127019 -0.0064478634 0)
(1.0134642 -0.0060307574 0)
(1.0140423 -0.0053953129 0)
(1.0143916 -0.0046088214 0)
(1.0144917 -0.0037491037 0)
(1.0143568 -0.0028887246 0)
(1.0140198 -0.0020903371 0)
(1.0135323 -0.001396367 0)
(1.0129507 -0.00083289723 0)
(1.0123333 -0.00040863585 0)
(1.0117351 -0.00012089958 0)
(1.011207 4.0972692e-05 0)
(1.010797 9.2083699e-05 0)
(1.0105533 4.9909202e-05 0)
(0.86653256 -0.00022798844 2.6006672e-24)
(0.86863374 0.00054877345 7.349205e-24)
(0.87887473 0.0007373078 0)
(0.89072259 0.00067710741 -1.5285394e-25)
(0.87484743 -0.00096017962 -3.1740068e-24)
(0.88555314 -0.0013822084 -3.7711418e-23)
(0.89799776 -0.0010145924 0)
(0.91167302 -0.00035898752 5.8574042e-23)
(0.92633586 0.000174837 -8.878778e-23)
(0.94160867 4.768836e-05 6.6900148e-23)
(0.95647529 -0.00019171312 3.0937645e-22)
(0.97081486 -0.00071926972 2.5321197e-22)
(0.98296929 0.00019170441 0)
(0.99393919 0.00076781002 0)
(1.0013743 0.0016949167 0)
(1.0058613 0.002453285 0)
(1.0060671 0.0014657802 0)
(1.0061729 0.0010569101 0)
(1.0069145 -0.00019147598 0)
(1.0073559 -0.00072522648 0)
(1.0075349 -0.0019858224 0)
(1.0077049 -0.0026625623 0)
(1.0079129 -0.0037819659 0)
(1.0082723 -0.0046184759 0)
(1.008788 -0.0055522261 0)
(1.0095041 -0.0062917558 0)
(1.0103767 -0.0068554066 0)
(1.0113556 -0.0071508385 0)
(1.0123522 -0.007150694 0)
(1.0132783 -0.0068530287 0)
(1.0140487 -0.0062880491 0)
(1.0145982 -0.0055172657 0)
(1.0148858 -0.004620117 0)
(1.0149088 -0.0036780528 0)
(1.0146877 -0.0027666771 0)
(1.0142691 -0.0019423665 0)
(1.013708 -0.0012445806 0)
(1.0130655 -0.00069132874 0)
(1.0124001 -0.00028692459 0)
(1.0117661 -2.4092984e-05 0)
(1.0112126 0.00011068716 0)
(1.0107859 0.00013404015 0)
(1.0105321 6.3914565e-05 0)
(0.86494519 -0.00067677688 -3.8237257e-24)
(0.86658407 0.00023886618 -2.6128343e-24)
(0.87782584 0.00083843301 -6.3246045e-24)
(0.8890192 0.0010077062 -2.3362746e-24)
(0.90132439 0.00083127823 2.1112993e-24)
(0.87357554 -0.0011154473 3.8436124e-23)
(0.88485804 -0.00090152902 2.811465e-23)
(0.89769159 -0.00028479057 0)
(0.91173663 0.00013025227 9.1357935e-23)
(0.92680263 -5.1228852e-05 -2.9282436e-23)
(0.94273302 -0.00059938873 0)
(0.95814361 -0.00073825785 -3.689981e-22)
(0.97269157 -0.00082181049 0)
(0.98453708 0.00076674972 0)
(0.99517169 0.001462047 0)
(1.0018342 0.0021780047 0)
(1.0051173 0.0022659121 0)
(1.0051366 0.00092999339 0)
(1.0055617 0.00039337146 0)
(1.0064797 -0.0009314331 0)
(1.0069654 -0.001467233 0)
(1.007198 -0.0027562283 0)
(1.0074328 -0.003463649 0)
(1.0077245 -0.004629679 0)
(1.0082052 -0.0055163707 0)
(1.0088724 -0.0064571939 0)
(1.0097486 -0.0071666605 0)
(1.0107738 -0.0076487477 0)
(1.0118747 -0.0078236422 0)
(1.0129542 -0.00767463 0)
(1.0139151 -0.007215983 0)
(1.0146769 -0.006495315 0)
(1.0151763 -0.0055892618 0)
(1.0153896 -0.0045850364 0)
(1.0153217 -0.003569821 0)
(1.0150097 -0.0026148431 0)
(1.014505 -0.0017745029 0)
(1.0138704 -0.0010789734 0)
(1.0131679 -0.00054181835 0)
(1.0124563 -0.00016095582 0)
(1.0117885 7.458538e-05 0)
(1.0112114 0.00018091109 0)
(1.0107692 0.00017596579 0)
(1.0105063 7.7834558e-05 0)
(0.86326887 -0.00084764022 2.2976175e-24)