/*--------------------------------*- C++ -*----------------------------------*\
| =========                 |                                                 |
| \\      /  F ield         | OpenFOAM: The Open Source CFD Toolbox           |
|  \\    /   O peration     | Version:  5.0                                   |
|   \\  /    A nd           | Web:      www.OpenFOAM.org                      |
|    \\/     M anipulation  |                                                 |
\*---------------------------------------------------------------------------*/
FoamFile
{
    version     2.0;
    format      ascii;
    class       volSymmTensorField;
    location    "180";
    object      UPrime2Mean;
}
// * * * * * * * * * * * * * * * * * * * * * * * * * * * * * * * * * * * * * //

dimensions      [0 2 -2 0 0 0 0];

internalField   nonuniform List<symmTensor> 
9520
(
(2.9934489e-05 6.2965794e-07 0 2.1522815e-08 0 0)
(3.0426746e-05 1.850565e-06 0 1.8548159e-07 0 0)
(2.632363e-05 6.0272704e-07 0 2.2391403e-08 0 0)
(3.1323394e-05 2.9981195e-06 0 4.8445231e-07 0 0)
(2.682407e-05 1.7742757e-06 0 1.9303091e-07 0 0)
(2.488518e-05 5.9777441e-07 0 2.3022654e-08 0 0)
(3.2568585e-05 4.0766483e-06 0 8.9100412e-07 0 0)
(2.7741458e-05 2.8818431e-06 0 5.0437311e-07 0 0)
(2.538558e-05 1.7610246e-06 0 1.9849787e-07 0 0)
(2.2668048e-05 5.8715331e-07 0 2.4249124e-08 0 0)
(3.4115683e-05 5.0885632e-06 0 1.3816545e-06 0 0)
(2.9023663e-05 3.9323767e-06 0 9.2834851e-07 0 0)
(2.6302633e-05 2.8649606e-06 0 5.1903432e-07 0 0)
(2.3163976e-05 1.7324252e-06 0 2.0928301e-07 0 0)
(2.0990818e-05 5.7969873e-07 0 2.5423659e-08 0 0)
(3.5923024e-05 6.0330408e-06 0 1.9365953e-06 0 0)
(3.0628958e-05 4.9298518e-06 0 1.4409383e-06 0 0)
(2.758676e-05 3.9179201e-06 0 9.5611354e-07 0 0)
(2.4077354e-05 2.8257657e-06 0 5.4794083e-07 0 0)
(2.1481095e-05 1.7121747e-06 0 2.1951386e-07 0 0)
(1.9160332e-05 5.71142e-07 0 2.6987857e-08 0 0)
(3.7949299e-05 6.9084442e-06 0 2.5393471e-06 0 0)
(3.2520371e-05 5.8743819e-06 0 2.0218517e-06 0 0)
(2.9198671e-05 4.924969e-06 0 1.4853894e-06 0 0)
(2.5361249e-05 3.8779414e-06 0 1.0110016e-06 0 0)
(2.2384842e-05 2.7987e-06 0 5.7539983e-07 0 0)
(1.9637919e-05 1.689273e-06 0 2.3327544e-07 0 0)
(1.7566524e-05 5.6098787e-07 0 2.8477111e-08 0 0)
(4.0153542e-05 7.7124451e-06 0 3.1767114e-06 0 0)
(3.4661194e-05 6.7647412e-06 0 2.6544202e-06 0 0)
(3.1103674e-05 5.8867896e-06 0 2.0860796e-06 0 0)
(2.6979885e-05 4.8960096e-06 0 1.5738285e-06 0 0)
(2.3658082e-05 3.8521654e-06 0 1.0633385e-06 0 0)
(2.0520597e-05 2.7683395e-06 0 6.12561e-07 0 0)
(1.8031653e-05 1.6612852e-06 0 2.4635872e-07 0 0)
(1.5959741e-05 5.4903019e-07 0 3.0199509e-08 0 0)
(4.2494298e-05 8.4404857e-06 0 3.8380377e-06 0 0)
(3.7015929e-05 7.5977444e-06 0 3.3251389e-06 0 0)
(3.3266987e-05 6.8025118e-06 0 2.7406865e-06 0 0)
(2.8902048e-05 5.8819747e-06 0 2.2155086e-06 0 0)
(2.5268213e-05 4.8813244e-06 0 1.6584258e-06 0 0)
(2.1768025e-05 3.8237092e-06 0 1.1346646e-06 0 0)
(1.8892339e-05 2.7286312e-06 0 6.4798011e-07 0 0)
(1.6405929e-05 1.6280586e-06 0 2.615498e-07 0 0)
(1.4519765e-05 5.3365683e-07 0 3.179342e-08 0 0)
(4.4931646e-05 9.0929659e-06 0 4.5160514e-06 0 0)
(3.954242e-05 8.3689372e-06 0 4.0224483e-06 0 0)
(3.5651711e-05 7.669921e-06 0 3.4348944e-06 0 0)
(3.1096454e-05 6.8356753e-06 0 2.9184389e-06 0 0)
(2.7187099e-05 5.889243e-06 0 2.3394844e-06 0 0)
(2.3351142e-05 4.8659269e-06 0 1.7746e-06 0 0)
(2.0111148e-05 3.7806135e-06 0 1.2029061e-06 0 0)
(1.7232934e-05 2.6803388e-06 0 6.892846e-07 0 0)
(1.4947519e-05 1.584453e-06 0 2.7561523e-07 0 0)
(1.3118231e-05 5.154448e-07 0 3.348105e-08 0 0)
(4.7426422e-05 9.6597857e-06 0 5.2055343e-06 0 0)
(4.2207295e-05 9.0778706e-06 0 4.7386382e-06 0 0)
(3.8222757e-05 8.485101e-06 0 4.1585579e-06 0 0)
(3.3531547e-05 7.7545518e-06 0 3.6678491e-06 0 0)
(2.9385625e-05 6.8765323e-06 0 3.0887061e-06 0 0)
(2.5245598e-05 5.8995797e-06 0 2.5112091e-06 0 0)
(2.1661931e-05 4.8293685e-06 0 1.8862612e-06 0 0)
(1.8407411e-05 3.7255403e-06 0 1.282862e-06 0 0)
(1.5741526e-05 2.6141194e-06 0 7.2764191e-07 0 0)
(1.3523022e-05 1.5321615e-06 0 2.9056732e-07 0 0)
(1.1861041e-05 4.9389966e-07 0 3.4979756e-08 0 0)
(4.9944967e-05 1.0158945e-05 0 5.9043893e-06 0 0)
(4.497486e-05 9.7126819e-06 0 5.4683311e-06 0 0)
(4.0945234e-05 9.2455223e-06 0 4.9027029e-06 0 0)
(3.6172437e-05 8.6335823e-06 0 4.4507547e-06 0 0)
(3.1832974e-05 7.8410702e-06 0 3.8912822e-06 0 0)
(2.7426026e-05 6.9263831e-06 0 3.3266259e-06 0 0)
(2.3523117e-05 5.8808633e-06 0 2.6770173e-06 0 0)
(1.9906742e-05 4.7773909e-06 0 2.017775e-06 0 0)
(1.6871542e-05 3.6440334e-06 0 1.3574809e-06 0 0)
(1.4275652e-05 2.5329933e-06 0 7.6864651e-07 0 0)
(1.2243838e-05 1.4695549e-06 0 3.0387083e-07 0 0)
(1.0668414e-05 4.697514e-07 0 3.6444942e-08 0 0)
(5.2460905e-05 1.0555485e-05 0 6.6251139e-06 0 0)
(4.7827307e-05 1.0287779e-05 0 6.209889e-06 0 0)
(4.3778164e-05 9.9443468e-06 0 5.6619378e-06 0 0)
(3.89842e-05 9.4718369e-06 0 5.2595941e-06 0 0)
(3.4495057e-05 8.7791765e-06 0 4.7351125e-06 0 0)
(2.9865657e-05 7.944715e-06 0 4.2055451e-06 0 0)
(2.5672091e-05 6.9377459e-06 0 3.5574807e-06 0 0)
(2.1712708e-05 5.8433207e-06 0 2.8734475e-06 0 0)
(1.8317729e-05 4.6893777e-06 0 2.1412998e-06 0 0)
(1.5349528e-05 3.5405557e-06 0 1.4377045e-06 0 0)
(1.2956864e-05 2.4338184e-06 0 8.0527372e-07 0 0)
(1.1026988e-05 1.398792e-06 0 3.1695625e-07 0 0)
(9.6071428e-06 4.4336698e-07 0 3.7646046e-08 0 0)
(5.4950864e-05 1.0919162e-05 0 7.3429692e-06 0 0)
(5.0721269e-05 1.0766587e-05 0 6.9661629e-06 0 0)
(4.6686944e-05 1.0586327e-05 0 6.4323759e-06 0 0)
(4.1941957e-05 1.0260594e-05 0 6.0860254e-06 0 0)
(3.7341115e-05 9.6882787e-06 0 5.6111046e-06 0 0)
(3.2535178e-05 8.9504829e-06 0 5.1348096e-06 0 0)
(2.8084133e-05 7.9990761e-06 0 4.51254e-06 0 0)
(2.3806166e-05 6.9272791e-06 0 3.8324425e-06 0 0)
(2.0064218e-05 5.7587858e-06 0 3.0591832e-06 0 0)
(1.6728109e-05 4.5713253e-06 0 2.274789e-06 0 0)
(1.3976407e-05 3.410163e-06 0 1.5098567e-06 0 0)
(1.1696063e-05 2.3202214e-06 0 8.4162195e-07 0 0)
(9.9432979e-06 1.3210127e-06 0 3.2773335e-07 0 0)
(8.6215212e-06 4.1513594e-07 0 3.8701853e-08 0 0)
(5.7381465e-05 1.1105234e-05 0 8.1174298e-06 0 0)
(5.3617806e-05 1.1212241e-05 0 7.7382904e-06 0 0)
(4.9627381e-05 1.1149545e-05 0 7.2258435e-06 0 0)
(4.5009459e-05 1.1007459e-05 0 6.9285771e-06 0 0)
(4.032668e-05 1.0560494e-05 0 6.5130894e-06 0 0)
(3.5404689e-05 9.9407901e-06 0 6.105044e-06 0 0)
(3.0731157e-05 9.0617574e-06 0 5.5296351e-06 0 0)
(2.6166849e-05 8.0293899e-06 0 4.8795008e-06 0 0)
(2.2093934e-05 6.8571303e-06 0 4.094256e-06 0 0)
(1.839819e-05 5.6350781e-06 0 3.2609503e-06 0 0)
(1.5288487e-05 4.4161299e-06 0 2.3959512e-06 0 0)
(1.2655081e-05 3.2578426e-06 0 1.5821149e-06 0 0)
(1.0571483e-05 2.1939333e-06 0 8.7180474e-07 0 0)
(8.9347065e-06 1.2373927e-06 0 3.3730627e-07 0 0)
(7.7538063e-06 3.8572214e-07 0 3.9439845e-08 0 0)
(5.9748974e-05 1.1365672e-05 0 8.8738092e-06 0 0)
(5.6505597e-05 1.1512143e-05 0 8.571221e-06 0 0)
(5.2595698e-05 1.1682637e-05 0 8.0308526e-06 0 0)
(4.8120201e-05 1.167855e-05 0 7.7909021e-06 0 0)
(4.3430206e-05 1.1397876e-05 0 7.4373241e-06 0 0)
(3.8449077e-05 1.0906393e-05 0 7.106498e-06 0 0)
(3.3584361e-05 1.0120628e-05 0 6.5989333e-06 0 0)
(2.8772047e-05 9.1471231e-06 0 6.0013438e-06 0 0)
(2.438754e-05 7.9852736e-06 0 5.2316614e-06 0 0)
(2.0345812e-05 6.7379749e-06 0 4.3801091e-06 0 0)
(1.6882164e-05 5.4624132e-06 0 3.4459157e-06 0 0)
(1.3892916e-05 4.2299009e-06 0 2.5182487e-06 0 0)
(1.1473562e-05 3.0858732e-06 0 1.6428298e-06 0 0)
(9.5207033e-06 2.0569307e-06 0 8.9905589e-07 0 0)
(8.0465473e-06 1.150058e-06 0 3.4408314e-07 0 0)
(6.9643165e-06 3.5512404e-07 0 3.9961342e-08 0 0)
(6.2020203e-05 1.1308261e-05 0 9.7823303e-06 0 0)
(5.9399543e-05 1.1871791e-05 0 9.4189248e-06 0 0)
(5.558227e-05 1.2083393e-05 0 8.8932902e-06 0 0)
(5.1265434e-05 1.2315731e-05 0 8.6753408e-06 0 0)
(4.6604639e-05 1.2173231e-05 0 8.3901114e-06 0 0)
(4.1625031e-05 1.1846925e-05 0 8.1408752e-06 0 0)
(3.6617137e-05 1.116932e-05 0 7.7132307e-06 0 0)
(3.1598302e-05 1.0276839e-05 0 7.1871855e-06 0 0)
(2.6922052e-05 9.1414281e-06 0 6.4583904e-06 0 0)
(2.2555152e-05 7.8821974e-06 0 5.6177525e-06 0 0)
(1.8745114e-05 6.5558057e-06 0 4.6448048e-06 0 0)
(1.5401172e-05 5.2479131e-06 0 3.6339588e-06 0 0)
(1.2640612e-05 4.0154061e-06 0 2.6225732e-06 0 0)
(1.0364304e-05 2.8969834e-06 0 1.698562e-06 0 0)
(8.5948045e-06 1.912901e-06 0 9.1877277e-07 0 0)
(7.2370101e-06 1.0589001e-06 0 3.490083e-07 0 0)
(6.278331e-06 3.2416377e-07 0 4.015608e-08 0 0)
(6.4189588e-05 1.151381e-05 0 1.0669989e-05 0 0)
(6.2280024e-05 1.1926841e-05 0 1.0437e-05 0 0)
(5.8605228e-05 1.2521577e-05 0 9.7691036e-06 0 0)
(5.4435518e-05 1.283544e-05 0 9.6298429e-06 0 0)
(4.9843717e-05 1.2916236e-05 0 9.3764539e-06 0 0)
(4.4894619e-05 1.273039e-05 0 9.2099261e-06 0 0)
(3.9810298e-05 1.2205462e-05 0 8.869241e-06 0 0)
(3.4617531e-05 1.1411702e-05 0 8.4288321e-06 0 0)
(2.9675034e-05 1.0322313e-05 0 7.7635812e-06 0 0)
(2.5007332e-05 9.0672548e-06 0 6.9605274e-06 0 0)
(2.0862024e-05 7.6988202e-06 0 5.9790078e-06 0 0)
(1.7170067e-05 6.3196198e-06 0 4.9158376e-06 0 0)
(1.4066367e-05 4.9945677e-06 0 3.7970215e-06 0 0)
(1.1458793e-05 3.7760666e-06 0 2.7197896e-06 0 0)
(9.3853009e-06 2.696539e-06 0 1.7399993e-06 0 0)
(7.748174e-06 1.7615146e-06 0 9.3375067e-07 0 0)
(6.5338224e-06 9.6654728e-07 0 3.5103982e-07 0 0)
(5.6680452e-06 2.9277392e-07 0 4.0106208e-08 0 0)
(6.6213679e-05 1.1117578e-05 0 1.184182e-05 0 0)
(6.5250121e-05 1.2246148e-05 0 1.1516973e-05 0 0)
(6.1670581e-05 1.2685496e-05 0 1.0842837e-05 0 0)
(5.7659468e-05 1.3374828e-05 0 1.0613602e-05 0 0)
(5.3156347e-05 1.3551568e-05 0 1.0440041e-05 0 0)
(4.8253895e-05 1.3583272e-05 0 1.032787e-05 0 0)
(4.3124063e-05 1.319968e-05 0 1.0071907e-05 0 0)
(3.7807184e-05 1.2547588e-05 0 9.724422e-06 0 0)
(3.2625068e-05 1.1523761e-05 0 9.1380344e-06 0 0)
(2.7679717e-05 1.0290765e-05 0 8.3967906e-06 0 0)
(2.3213641e-05 8.8912419e-06 0 7.4359438e-06 0 0)
(1.9187483e-05 7.4486824e-06 0 6.3514289e-06 0 0)
(1.574306e-05 6.031685e-06 0 5.1545316e-06 0 0)
(1.2800121e-05 4.7067682e-06 0 3.9509885e-06 0 0)
(1.0412927e-05 3.5189613e-06 0 2.7942821e-06 0 0)
(8.4870673e-06 2.4839184e-06 0 1.7729305e-06 0 0)
(7.0132101e-06 1.6075516e-06 0 9.4083001e-07 0 0)
(5.9074032e-06 8.7258133e-07 0 3.509511e-07 0 0)
(5.1460304e-06 2.6189459e-07 0 3.9754385e-08 0 0)
(6.7894025e-05 1.130485e-05 0 1.3107928e-05 0 0)
(6.8290409e-05 1.1828966e-05 0 1.2976902e-05 0 0)
(6.4807765e-05 1.3057917e-05 0 1.1988386e-05 0 0)
(6.0949324e-05 1.3671135e-05 0 1.184758e-05 0 0)
(5.6546463e-05 1.4181352e-05 0 1.1566019e-05 0 0)
(5.1740404e-05 1.4338801e-05 0 1.1539232e-05 0 0)
(4.6555028e-05 1.4169707e-05 0 1.1338487e-05 0 0)
(4.1134984e-05 1.3659201e-05 0 1.1077693e-05 0 0)
(3.5752161e-05 1.2742931e-05 0 1.0578686e-05 0 0)
(3.054651e-05 1.1547383e-05 0 9.9167802e-06 0 0)
(2.578051e-05 1.0131521e-05 0 9.0041596e-06 0 0)
(2.1437452e-05 8.6358045e-06 0 7.9288606e-06 0 0)
(1.7659979e-05 7.1307208e-06 0 6.68414e-06 0 0)
(1.4382618e-05 5.6981385e-06 0 5.3826468e-06 0 0)
(1.1675216e-05 4.392894e-06 0 4.0725975e-06 0 0)
(9.450117e-06 3.2432912e-06 0 2.8558445e-06 0 0)
(7.7072155e-06 2.2663712e-06 0 1.790673e-06 0 0)
(6.3570117e-06 1.449942e-06 0 9.4236038e-07 0 0)
(5.3722619e-06 7.800563e-07 0 3.4818422e-07 0 0)
(4.6931004e-06 2.3161516e-07 0 3.9160019e-08 0 0)
(6.9336239e-05 1.0287684e-05 0 1.468922e-05 0 0)
(7.1473258e-05 1.2342892e-05 0 1.4819766e-05 0 0)
(6.8211504e-05 1.2755393e-05 0 1.3640661e-05 0 0)
(6.441859e-05 1.4103794e-05 0 1.3204389e-05 0 0)
(6.0099682e-05 1.4582341e-05 0 1.3001718e-05 0 0)
(5.5363941e-05 1.5075669e-05 0 1.2854307e-05 0 0)
(5.0155754e-05 1.5058736e-05 0 1.2720117e-05 0 0)
(4.4592984e-05 1.4755799e-05 0 1.2509942e-05 0 0)
(3.9026177e-05 1.395815e-05 0 1.2087681e-05 0 0)
(3.3585464e-05 1.2835331e-05 0 1.1516837e-05 0 0)
(2.8538826e-05 1.141564e-05 0 1.0674226e-05 0 0)
(2.3899944e-05 9.8789107e-06 0 9.6371816e-06 0 0)
(1.9802751e-05 8.2926468e-06 0 8.3750617e-06 0 0)
(1.6198155e-05 6.7552571e-06 0 7.0055273e-06 0 0)
(1.3168159e-05 5.3279503e-06 0 5.5678807e-06 0 0)
(1.063627e-05 4.0524714e-06 0 4.176421e-06 0 0)
(8.61336e-06 2.9589336e-06 0 2.8928958e-06 0 0)
(7.0094831e-06 2.0418199e-06 0 1.7981136e-06 0 0)
(5.7978165e-06 1.2944085e-06 0 9.3650636e-07 0 0)
(4.907647e-06 6.8894339e-07 0 3.4330685e-07 0 0)
(4.3124081e-06 2.028094e-07 0 3.8311173e-08 0 0)
(6.9329346e-05 1.0419762e-05 0 1.6893353e-05 0 0)
(7.481829e-05 1.0812643e-05 0 1.7228428e-05 0 0)
(7.1746196e-05 1.3216325e-05 0 1.5798579e-05 0 0)
(6.831954e-05 1.3952054e-05 0 1.5305816e-05 0 0)
(6.3964952e-05 1.5060218e-05 0 1.4667243e-05 0 0)
(5.9288845e-05 1.5589685e-05 0 1.4549713e-05 0 0)
(5.3990558e-05 1.5931251e-05 0 1.4254455e-05 0 0)
(4.8243936e-05 1.5790514e-05 0 1.408214e-05 0 0)
(4.2436155e-05 1.51708e-05 0 1.3689442e-05 0 0)
(3.6772852e-05 1.4135816e-05 0 1.3197527e-05 0 0)
(3.1466751e-05 1.2741778e-05 0 1.2441901e-05 0 0)
(2.6552324e-05 1.1172978e-05 0 1.1467683e-05 0 0)
(2.2155192e-05 9.5157343e-06 0 1.0217576e-05 0 0)
(1.8235325e-05 7.8799555e-06 0 8.810041e-06 0 0)
(1.4885391e-05 6.3299939e-06 0 7.2728147e-06 0 0)
(1.2042845e-05 4.9216132e-06 0 5.7303968e-06 0 0)
(9.7312004e-06 3.6975528e-06 0 4.2447241e-06 0 0)
(7.8635296e-06 2.6627778e-06 0 2.9138013e-06 0 0)
(6.4163104e-06 1.8193582e-06 0 1.7911143e-06 0 0)
(5.311927e-06 1.1403299e-06 0 9.25025e-07 0 0)
(4.5181359e-06 6.0214949e-07 0 3.3613815e-07 0 0)
(3.9904707e-06 1.756392e-07 0 3.7247141e-08 0 0)
(6.7524442e-05 8.0288913e-06 0 1.8850505e-05 0 0)
(7.7293812e-05 1.1863039e-05 0 2.0944064e-05 0 0)
(7.6274841e-05 1.1619802e-05 0 1.8887144e-05 0 0)
(7.2730871e-05 1.4337348e-05 0 1.8046135e-05 0 0)
(6.8508333e-05 1.4958273e-05 0 1.7309874e-05 0 0)
(6.375947e-05 1.6138646e-05 0 1.6618071e-05 0 0)
(5.824899e-05 1.6591074e-05 0 1.6253513e-05 0 0)
(5.2207885e-05 1.6818278e-05 0 1.5853118e-05 0 0)
(4.6039696e-05 1.6339077e-05 0 1.5450682e-05 0 0)
(4.0099699e-05 1.5445979e-05 0 1.4986207e-05 0 0)
(3.4542997e-05 1.4092158e-05 0 1.4309189e-05 0 0)
(2.937461e-05 1.2514787e-05 0 1.3417077e-05 0 0)
(2.4699046e-05 1.0795651e-05 0 1.2203228e-05 0 0)
(2.048007e-05 9.0707603e-06 0 1.0786867e-05 0 0)
(1.6817394e-05 7.4018488e-06 0 9.1789642e-06 0 0)
(1.3664852e-05 5.8576556e-06 0 7.5127799e-06 0 0)
(1.1059102e-05 4.4926284e-06 0 5.8451382e-06 0 0)
(8.919605e-06 3.324574e-06 0 4.2902136e-06 0 0)
(7.2271266e-06 2.3675946e-06 0 2.9109195e-06 0 0)
(5.9010005e-06 1.5972765e-06 0 1.773429e-06 0 0)
(4.9067562e-06 9.9337813e-07 0 9.071436e-07 0 0)
(4.1890597e-06 5.1998346e-07 0 3.2709527e-07 0 0)
(3.7245142e-06 1.5068252e-07 0 3.5991055e-08 0 0)
(6.2922393e-05 7.0841509e-06 0 2.2835701e-05 0 0)
(7.9116244e-05 7.7086423e-06 0 2.4939397e-05 0 0)
(8.0107974e-05 1.2670195e-05 0 2.3891533e-05 0 0)
(7.8671436e-05 1.2770196e-05 0 2.2473277e-05 0 0)
(7.4070314e-05 1.5214052e-05 0 2.095331e-05 0 0)
(6.9250015e-05 1.6095415e-05 0 1.997072e-05 0 0)
(6.3317248e-05 1.7266544e-05 0 1.8799572e-05 0 0)
(5.6698822e-05 1.7654719e-05 0 1.8183572e-05 0 0)
(5.0006872e-05 1.7514026e-05 0 1.745349e-05 0 0)
(4.3611225e-05 1.6724042e-05 0 1.6954539e-05 0 0)
(3.7762083e-05 1.5460204e-05 0 1.6308112e-05 0 0)
(3.2350892e-05 1.3887029e-05 0 1.5490656e-05 0 0)
(2.7418456e-05 1.2126825e-05 0 1.4330799e-05 0 0)
(2.29186e-05 1.0323227e-05 0 1.2927682e-05 0 0)
(1.8953252e-05 8.5432432e-06 0 1.1277581e-05 0 0)
(1.549456e-05 6.8648266e-06 0 9.5166813e-06 0 0)
(1.2593133e-05 5.351969e-06 0 7.6919008e-06 0 0)
(1.0176545e-05 4.0374735e-06 0 5.929904e-06 0 0)
(8.2310371e-06 2.9495739e-06 0 4.3004407e-06 0 0)
(6.67522e-06 2.0704364e-06 0 2.8907697e-06 0 0)
(5.4740172e-06 1.3849493e-06 0 1.7430228e-06 0 0)
(4.5651011e-06 8.5341224e-07 0 8.8412916e-07 0 0)
(3.9185164e-06 4.4443685e-07 0 3.1629364e-07 0 0)
(3.5049339e-06 1.2803028e-07 0 3.4578469e-08 0 0)
(6.0003559e-05 3.1409039e-06 0 2.5467301e-05 0 0)
(7.8122964e-05 7.7740201e-06 0 3.202489e-05 0 0)
(8.4800023e-05 7.6884019e-06 0 3.0235538e-05 0 0)
(8.5123561e-05 1.3582559e-05 0 2.9358476e-05 0 0)
(8.2016939e-05 1.3556169e-05 0 2.7111087e-05 0 0)
(7.6538237e-05 1.6246959e-05 0 2.4760518e-05 0 0)
(6.9809828e-05 1.7381133e-05 0 2.29921e-05 0 0)
(6.2227715e-05 1.8492157e-05 0 2.1253778e-05 0 0)
(5.4587237e-05 1.8520646e-05 0 2.0094798e-05 0 0)
(4.7517935e-05 1.8022e-05 0 1.9208872e-05 0 0)
(4.1176843e-05 1.6804496e-05 0 1.8515368e-05 0 0)
(3.5480759e-05 1.527549e-05 0 1.7724329e-05 0 0)
(3.0304284e-05 1.3492854e-05 0 1.660853e-05 0 0)
(2.5539835e-05 1.1630412e-05 0 1.5231913e-05 0 0)
(2.1282646e-05 9.7511776e-06 0 1.3560118e-05 0 0)
(1.7522454e-05 7.9445771e-06 0 1.1733549e-05 0 0)
(1.4326172e-05 6.2812186e-06 0 9.7800258e-06 0 0)
(1.1630757e-05 4.8099315e-06 0 7.8340868e-06 0 0)
(9.4276081e-06 3.5751001e-06 0 5.9663226e-06 0 0)
(7.6361692e-06 2.5688643e-06 0 4.2854782e-06 0 0)
(6.220879e-06 1.7850186e-06 0 2.849179e-06 0 0)
(5.1154912e-06 1.1811739e-06 0 1.7025909e-06 0 0)
(4.2868821e-06 7.2468492e-07 0 8.5608358e-07 0 0)
(3.6959943e-06 3.757105e-07 0 3.0406496e-07 0 0)
(3.3263889e-06 1.0788415e-07 0 3.3040869e-08 0 0)
(5.7001643e-05 -1.3532654e-06 0 3.2042298e-05 0 0)
(8.2847712e-05 -2.8991159e-07 0 3.8674896e-05 0 0)
(8.6858687e-05 7.5674082e-06 0 4.0600852e-05 0 0)
(9.3711197e-05 7.9630475e-06 0 3.9555811e-05 0 0)
(9.2126766e-05 1.3828453e-05 0 3.6738513e-05 0 0)
(8.7218946e-05 1.4462336e-05 0 3.3126713e-05 0 0)
(7.8938653e-05 1.7566599e-05 0 2.9173364e-05 0 0)
(6.9586655e-05 1.8796865e-05 0 2.6378178e-05 0 0)
(6.0412391e-05 1.9518291e-05 0 2.3661658e-05 0 0)
(5.2109115e-05 1.9177771e-05 0 2.2182118e-05 0 0)
(4.5011373e-05 1.8172303e-05 0 2.1074917e-05 0 0)
(3.8842826e-05 1.6643625e-05 0 2.0208274e-05 0 0)
(3.3364281e-05 1.4871128e-05 0 1.9076731e-05 0 0)
(2.8343751e-05 1.2977905e-05 0 1.7708345e-05 0 0)
(2.3799232e-05 1.1018994e-05 0 1.6024061e-05 0 0)
(1.9740091e-05 9.0956289e-06 0 1.4153727e-05 0 0)
(1.6249493e-05 7.2838705e-06 0 1.2101901e-05 0 0)
(1.327546e-05 5.6489388e-06 0 1.0000649e-05 0 0)
(1.0813748e-05 4.2527984e-06 0 7.9137922e-06 0 0)
(8.7836534e-06 3.1012886e-06 0 5.9685278e-06 0 0)
(7.149375e-06 2.2005378e-06 0 4.2379352e-06 0 0)
(5.8422982e-06 1.5088191e-06 0 2.790854e-06 0 0)
(4.8273385e-06 9.9359106e-07 0 1.651876e-06 0 0)
(4.0595997e-06 6.0700877e-07 0 8.2402184e-07 0 0)
(3.516428e-06 3.1461255e-07 0 2.9068835e-07 0 0)
(3.1819241e-06 9.0212401e-08 0 3.1411118e-08 0 0)
(6.6159787e-05 -1.5984097e-05 0 3.5110171e-05 0 0)
(8.6519364e-05 -2.9881041e-06 0 5.2021031e-05 0 0)
(9.716401e-05 -3.158534e-06 0 5.3243202e-05 0 0)
(0.00010104017 7.1640124e-06 0 5.501892e-05 0 0)
(0.0001062363 7.4091211e-06 0 5.2079823e-05 0 0)
(0.00010236756 1.4017584e-05 0 4.6155757e-05 0 0)
(9.2639678e-05 1.592889e-05 0 4.020598e-05 0 0)
(8.0396769e-05 1.9041904e-05 0 3.4146468e-05 0 0)
(6.84916e-05 1.9997905e-05 0 2.966031e-05 0 0)
(5.8142471e-05 2.0334127e-05 0 2.6272968e-05 0 0)
(4.9605378e-05 1.9410969e-05 0 2.4462373e-05 0 0)
(4.2666516e-05 1.8023594e-05 0 2.312303e-05 0 0)
(3.669776e-05 1.6226733e-05 0 2.1839396e-05 0 0)
(3.1345887e-05 1.4337703e-05 0 2.040094e-05 0 0)
(2.6509002e-05 1.233443e-05 0 1.8678971e-05 0 0)
(2.2144253e-05 1.0313837e-05 0 1.6771262e-05 0 0)
(1.8354639e-05 8.3612992e-06 0 1.4646986e-05 0 0)
(1.5101495e-05 6.560126e-06 0 1.2423621e-05 0 0)
(1.2382703e-05 4.9906709e-06 0 1.0144518e-05 0 0)
(1.0114647e-05 3.6760797e-06 0 7.9499039e-06 0 0)
(8.2601785e-06 2.6388687e-06 0 5.9247892e-06 0 0)
(6.7487584e-06 1.8411369e-06 0 4.1650042e-06 0 0)
(5.5427388e-06 1.2538155e-06 0 2.7146648e-06 0 0)
(4.5946783e-06 8.2091316e-07 0 1.5929517e-06 0 0)
(3.8790146e-06 5.024835e-07 0 7.8858993e-07 0 0)
(3.3722657e-06 2.6102844e-07 0 2.7646523e-07 0 0)
(3.0660862e-06 7.4960668e-08 0 2.9721385e-08 0 0)
(0.00010893851 -3.124272e-05 0 4.4743499e-05 0 0)
(0.00011040439 -3.0732352e-05 0 6.0937669e-05 0 0)
(0.00010671729 -5.0403961e-06 0 7.385413e-05 0 0)
(0.00011964571 -5.7463477e-06 0 7.6190617e-05 0 0)
(0.00012191437 5.2272109e-06 0 7.525129e-05 0 0)
(0.00012405347 6.5957345e-06 0 6.7941664e-05 0 0)
(0.00011342627 1.504093e-05 0 5.7481549e-05 0 0)
(9.7056463e-05 1.7550873e-05 0 4.8255816e-05 0 0)
(8.0867327e-05 2.0305559e-05 0 3.897968e-05 0 0)
(6.6848032e-05 2.1009879e-05 0 3.3179881e-05 0 0)
(5.583376e-05 2.0650637e-05 0 2.9211942e-05 0 0)
(4.7364561e-05 1.9267454e-05 0 2.6990706e-05 0 0)
(4.0560933e-05 1.7580858e-05 0 2.5110581e-05 0 0)
(3.4659558e-05 1.5673839e-05 0 2.3420269e-05 0 0)
(2.9434382e-05 1.3668095e-05 0 2.156744e-05 0 0)
(2.4744174e-05 1.1589326e-05 0 1.9593299e-05 0 0)
(2.0638538e-05 9.5125065e-06 0 1.7407247e-05 0 0)
(1.7099702e-05 7.5475586e-06 0 1.5092753e-05 0 0)
(1.4125072e-05 5.7958675e-06 0 1.2655671e-05 0 0)
(1.1622553e-05 4.3016896e-06 0 1.0236087e-05 0 0)
(9.5509275e-06 3.1074186e-06 0 7.9248502e-06 0 0)
(7.8360697e-06 2.1834075e-06 0 5.8451222e-06 0 0)
(6.4371401e-06 1.5073842e-06 0 4.0639718e-06 0 0)
(5.3054693e-06 1.017226e-06 0 2.624146e-06 0 0)
(4.4143053e-06 6.6779219e-07 0 1.5268546e-06 0 0)
(3.7362048e-06 4.1062646e-07 0 7.5063726e-07 0 0)
(3.2579533e-06 2.148925e-07 0 2.6167153e-07 0 0)
(2.9736727e-06 6.1995335e-08 0 2.8002024e-08 0 0)
(0.00019904715 -4.7245173e-05 0 4.9292692e-05 0 0)
(0.00016551769 -5.3066652e-05 0 8.2948067e-05 0 0)
(0.00014135279 -4.4473007e-05 0 9.5233035e-05 0 0)
(0.00014009174 -7.2247637e-06 0 0.00010845147 0 0)
(0.00015203158 -9.8933419e-06 0 0.00010787302 0 0)
(0.00015176687 2.5394583e-06 0 0.0001009368 0 0)
(0.00014403745 7.1381854e-06 0 8.7021538e-05 0 0)
(0.00012341837 1.6122633e-05 0 7.0498856e-05 0 0)
(0.00010057878 1.8911717e-05 0 5.6065959e-05 0 0)
(8.0685662e-05 2.1498274e-05 0 4.4131102e-05 0 0)
(6.5142704e-05 2.1427542e-05 0 3.7237925e-05 0 0)
(5.392188e-05 2.0480785e-05 0 3.2491598e-05 0 0)
(4.5442693e-05 1.8790837e-05 0 2.9455367e-05 0 0)
(3.8572925e-05 1.7000116e-05 0 2.7007268e-05 0 0)
(3.2691623e-05 1.4983409e-05 0 2.4801313e-05 0 0)
(2.7567135e-05 1.2896685e-05 0 2.2655197e-05 0 0)
(2.3111437e-05 1.0732345e-05 0 2.0383684e-05 0 0)
(1.9265292e-05 8.6144622e-06 0 1.7998618e-05 0 0)
(1.6029802e-05 6.6744579e-06 0 1.5439364e-05 0 0)
(1.3297712e-05 4.9864532e-06 0 1.2828866e-05 0 0)
(1.1015377e-05 3.6143848e-06 0 1.025026e-05 0 0)
(9.1023473e-06 2.5417222e-06 0 7.85184e-06 0 0)
(7.5129676e-06 1.7573839e-06 0 5.724252e-06 0 0)
(6.197866e-06 1.1953132e-06 0 3.9401201e-06 0 0)
(5.1276545e-06 8.0740429e-07 0 2.5206058e-06 0 0)
(4.2752943e-06 5.3262435e-07 0 1.4552504e-06 0 0)
(3.6256424e-06 3.3177201e-07 0 7.1091364e-07 0 0)
(3.1679229e-06 1.7581195e-07 0 2.4658989e-07 0 0)
(2.9002519e-06 5.1166373e-08 0 2.6279968e-08 0 0)
(0.00035289677 -6.5169761e-05 0 5.9305198e-05 0 0)
(0.00026321606 -8.3020537e-05 0 0.00010012239 0 0)
(0.00020855412 -7.6897453e-05 0 0.00012996405 0 0)
(0.00018755901 -5.7767597e-05 0 0.00014726784 0 0)
(0.00019049218 -1.1744501e-05 0 0.00015842302 0 0)
(0.00019819394 -1.4983537e-05 0 0.00014817093 0 0)
(0.00018595518 1.4023048e-06 0 0.0001323277 0 0)
(0.000163534 7.5064115e-06 0 0.00010925453 0 0)
(0.00013281912 1.693952e-05 0 8.3323037e-05 0 0)
(0.0001034302 2.039847e-05 0 6.4268307e-05 0 0)
(8.038794e-05 2.2014451e-05 0 5.0180396e-05 0 0)
(6.4035734e-05 2.1196662e-05 0 4.1748753e-05 0 0)
(5.245211e-05 1.9941115e-05 0 3.5688525e-05 0 0)
(4.3639388e-05 1.8184486e-05 0 3.1765112e-05 0 0)
(3.659869e-05 1.6286893e-05 0 2.8639339e-05 0 0)
(3.0724284e-05 1.4198249e-05 0 2.6066328e-05 0 0)
(2.5802094e-05 1.2001354e-05 0 2.3605598e-05 0 0)
(2.1606055e-05 9.7604657e-06 0 2.113826e-05 0 0)
(1.8089713e-05 7.6329762e-06 0 1.8487743e-05 0 0)
(1.5129236e-05 5.738913e-06 0 1.5724853e-05 0 0)
(1.2644244e-05 4.1683765e-06 0 1.2908661e-05 0 0)
(1.054212e-05 2.923517e-06 0 1.0203541e-05 0 0)
(8.7696081e-06 2.0077345e-06 0 7.7215678e-06 0 0)
(7.2754889e-06 1.3553613e-06 0 5.5693616e-06 0 0)
(6.0262583e-06 9.1759016e-07 0 3.7947723e-06 0 0)
(4.9966457e-06 6.2107002e-07 0 2.40685e-06 0 0)
(4.172246e-06 4.1713271e-07 0 1.3796242e-06 0 0)
(3.5409474e-06 2.6518146e-07 0 6.701935e-07 0 0)
(3.0974428e-06 1.4334689e-07 0 2.3145751e-07 0 0)
(2.8419681e-06 4.2300574e-08 0 2.4578187e-08 0 0)
(0.00060685877 -8.0917635e-05 -1.1491029e-26 6.6977511e-05 5.9210026e-26 1.1100006e-46)
(0.00042591382 -0.00011056209 0 0.00012637934 0 0)
(0.00031539925 -0.00011981523 0 0.00016627988 0 0)
(0.00026912556 -0.00010347715 0 0.00020028732 0 0)
(0.00025539364 -7.3090373e-05 0 0.00022145882 0 0)
(0.00026366066 -1.6907889e-05 0 0.00022300285 0 0)
(0.00025221215 -1.7825582e-05 0 0.00019810888 0 0)
(0.00022124095 -6.6517855e-07 0 0.00016884892 0 0)
(0.00018343696 7.6291209e-06 0 0.00013139226 0 0)
(0.00014153474 1.8424838e-05 0 9.6851635e-05 0 0)
(0.00010605769 2.1054012e-05 0 7.3907315e-05 0 0)
(8.0968584e-05 2.1641675e-05 0 5.683649e-05 0 0)
(6.3528193e-05 2.0573769e-05 0 4.6116119e-05 0 0)
(5.1076446e-05 1.9297326e-05 0 3.8634336e-05 0 0)
(4.1755522e-05 1.7457244e-05 0 3.3710356e-05 0 0)
(3.4555089e-05 1.5495252e-05 0 3.0088171e-05 0 0)
(2.8814838e-05 1.328472e-05 0 2.7175978e-05 0 0)
(2.4153004e-05 1.097354e-05 0 2.4536414e-05 0 0)
(2.0309764e-05 8.6756144e-06 0 2.1798596e-05 0 0)
(1.7108159e-05 6.5666086e-06 0 1.8919774e-05 0 0)
(1.4426792e-05 4.7783393e-06 0 1.5902532e-05 0 0)
(1.2147026e-05 3.3372151e-06 0 1.2914724e-05 0 0)
(1.0202722e-05 2.2643155e-06 0 1.0080842e-05 0 0)
(8.5387141e-06 1.4988911e-06 0 7.5433252e-06 0 0)
(7.1154837e-06 9.9557944e-07 0 5.3813456e-06 0 0)
(5.9098916e-06 6.6930905e-07 0 3.6319974e-06 0 0)
(4.906626e-06 4.6242433e-07 0 2.2854899e-06 0 0)
(4.0973024e-06 3.196272e-07 0 1.3017173e-06 0 0)
(3.4769246e-06 2.1023451e-07 0 6.2923778e-07 0 0)
(3.0423863e-06 1.169511e-07 0 2.1648361e-07 0 0)
(2.795502e-06 3.5218524e-08 0 2.2916188e-08 0 0)
(0.00096740142 -9.6516899e-05 2.3344418e-27 7.9352755e-05 -9.273546e-26 3.351415e-46)
(0.00068268887 -0.00014094046 5.5985828e-26 0.00015471904 5.6173989e-27 1.2121958e-46)
(0.00048310418 -0.00015520564 0 0.00020965028 0 0)
(0.00038511323 -0.00016179467 0 0.00026287133 0 0)
(0.0003557982 -0.00013871912 0 0.00030334425 0 0)
(0.00035324763 -8.8567144e-05 0 0.00031811317 0 0)
(0.00035394993 -1.6975222e-05 0 0.00030383838 0 0)
(0.00030937532 -2.2997346e-05 0 0.0002581621 0 0)
(0.00025939833 -3.1223979e-06 0 0.0002054214 0 0)
(0.00020283426 9.4225407e-06 0 0.00015459702 0 0)
(0.00014975762 1.9059856e-05 0 0.00011277198 0 0)
(0.00010995107 2.0424349e-05 0 8.4365389e-05 0 0)
(8.2392266e-05 2.0889421e-05 0 6.3214069e-05 0 0)
(6.3040147e-05 1.9914833e-05 0 5.0088985e-05 0 0)
(4.9460839e-05 1.8545368e-05 0 4.1068853e-05 0 0)
(3.9696407e-05 1.6675601e-05 0 3.5356453e-05 0 0)
(3.2495396e-05 1.4586285e-05 0 3.135304e-05 0 0)
(2.7003374e-05 1.2224228e-05 0 2.8289968e-05 0 0)
(2.272193e-05 9.7981625e-06 0 2.5395364e-05 0 0)
(1.9236489e-05 7.477188e-06 0 2.2415253e-05 0 0)
(1.6355743e-05 5.4541294e-06 0 1.9234593e-05 0 0)
(1.390786e-05 3.7924689e-06 0 1.5995587e-05 0 0)
(1.1805473e-05 2.5346833e-06 0 1.2823994e-05 0 0)
(9.9845709e-06 1.6297684e-06 0 9.8936073e-06 0 0)
(8.3978255e-06 1.0396902e-06 0 7.3165384e-06 0 0)
(7.0226919e-06 6.7122544e-07 0 5.1655412e-06 0 0)
(5.8403077e-06 4.5812575e-07 0 3.4555949e-06 0 0)
(4.8483112e-06 3.2823698e-07 0 2.1583985e-06 0 0)
(4.0450701e-06 2.3996577e-07 0 1.2227311e-06 0 0)
(3.4289887e-06 1.6604212e-07 0 5.8857844e-07 0 0)
(2.9992519e-06 9.6068865e-08 0 2.0183205e-07 0 0)
(2.758078e-06 2.9739145e-08 0 2.1308356e-08 0 0)
(0.0014673502 -0.00010310306 1.3414421e-26 9.2135065e-05 1.0001817e-25 3.3774468e-46)
(0.0010349933 -0.00016794826 -9.3562598e-26 0.00019227468 -6.4448058e-27 7.5964253e-46)
(0.00074402723 -0.00019794393 0 0.00026404995 0 0)
(0.00055760971 -0.0002053896 0 0.00033129368 0 0)
(0.00048407686 -0.0002175964 0 0.000403157 0 0)
(0.00047380588 -0.00017782455 0 0.00044006701 0 0)
(0.00047600027 -9.5673242e-05 0 0.00044115754 0 0)
(0.00045030586 -2.0143738e-05 0 0.00039921578 0 0)
(0.00037317124 -2.931956e-05 0 0.00032045856 0 0)
(0.00029784761 -2.7613859e-06 0 0.00024382888 0 0)
(0.00022130185 1.0296663e-05 0 0.00018157818 0 0)
(0.00015977068 1.792009e-05 0 0.00012976298 0 0)
(0.00011503653 1.9491217e-05 0 9.4271468e-05 0 0)
(8.3628959e-05 2.0244463e-05 0 6.8992846e-05 0 0)
(6.2042275e-05 1.9150422e-05 0 5.3336933e-05 0 0)
(4.7517244e-05 1.776624e-05 0 4.3008777e-05 0 0)
(3.7513102e-05 1.580858e-05 0 3.6760673e-05 0 0)
(3.0493882e-05 1.3523909e-05 0 3.2660089e-05 0 0)
(2.5420489e-05 1.0973914e-05 0 2.9377208e-05 0 0)
(2.1547279e-05 8.4705271e-06 0 2.6241819e-05 0 0)
(1.8433683e-05 6.2031164e-06 0 2.2913107e-05 0 0)
(1.5818931e-05 4.2988987e-06 0 1.9455572e-05 0 0)
(1.357079e-05 2.8280539e-06 0 1.5969119e-05 0 0)
(1.1607645e-05 1.7541051e-06 0 1.2650037e-05 0 0)
(9.8720175e-06 1.0509918e-06 0 9.6383336e-06 0 0)
(8.3391595e-06 6.2183392e-07 0 7.0481825e-06 0 0)
(6.9833049e-06 3.9459585e-07 0 4.9272399e-06 0 0)
(5.808508e-06 2.7890481e-07 0 3.2684443e-06 0 0)
(4.8154633e-06 2.1983524e-07 0 2.0287959e-06 0 0)
(4.0099634e-06 1.7653562e-07 0 1.1438042e-06 0 0)
(3.3932278e-06 1.3162872e-07 0 5.4867212e-07 0 0)
(2.9650314e-06 8.0146233e-08 0 1.8765476e-07 0 0)
(2.7273738e-06 2.5695631e-08 0 1.9766421e-08 0 0)
(0.0021036059 -0.00010751662 0 0.00010690544 0 0)
(0.0015167765 -0.00018645724 3.8436921e-26 0.00023537734 2.5978483e-26 7.6193694e-46)
(0.0010893966 -0.00023215229 0 0.00032713586 0 0)
(0.00082024915 -0.00026094692 0 0.0004220371 0 0)
(0.00066336098 -0.00027308885 0 0.0005084538 0 0)
(0.00061669701 -0.00028340168 0 0.0005879507 0 0)
(0.00061401242 -0.0002080848 0 0.0006183227 0 0)
(0.00061628716 -0.00010399368 0 0.00059314875 0 0)
(0.00055676837 -2.7449289e-05 0 0.00049562418 0 0)
(0.00043920025 -3.0722644e-05 0 0.00038707275 0 0)
(0.00033462712 -3.6122779e-06 0 0.00028844637 0 0)
(0.00024234377 8.5056458e-06 0 0.00020982382 0 0)
(0.00017151608 1.6752083e-05 0 0.00014570075 0 0)
(0.00011951998 1.8968725e-05 0 0.00010331015 0 0)
(8.3902351e-05 1.945872e-05 0 7.3757677e-05 0 0)
(6.050194e-05 1.837971e-05 0 5.5753253e-05 0 0)
(4.5296722e-05 1.6974513e-05 0 4.4595658e-05 0 0)
(3.5311697e-05 1.4798598e-05 0 3.826398e-05 0 0)
(2.8726905e-05 1.2220277e-05 0 3.4017457e-05 0 0)
(2.4142401e-05 9.5224449e-06 0 3.050144e-05 0 0)