/*--------------------------------*- C++ -*----------------------------------*\
| =========                 |                                                 |
| \\      /  F ield         | OpenFOAM: The Open Source CFD Toolbox           |
|  \\    /   O peration     | Version:  5.0                                   |
|   \\  /    A nd           | Web:      www.OpenFOAM.org                      |
|    \\/     M anipulation  |                                                 |
\*---------------------------------------------------------------------------*/
FoamFile
{
    version     2.0;
    format      ascii;
    class       volScalarField;
    location    "105";
    object      p;
}
// * * * * * * * * * * * * * * * * * * * * * * * * * * * * * * * * * * * * * //

dimensions      [0 2 -2 0 0 0 0];

internalField   nonuniform List<scalar> 
9200
(
-0.00062578245
-0.0006159506
-0.0014349503
-0.00060535723
-0.0014191309
-0.0024462285
-0.00059033058
-0.0013930263
-0.0024188634
-0.0033650623
-0.00057026364
-0.0013560724
-0.0023759337
-0.0033316545
-0.0043157679
-0.00054699252
-0.0013068402
-0.002315641
-0.003275415
-0.0042769468
-0.0052401
-0.00051926774
-0.0012494549
-0.0022352363
-0.003197207
-0.0042091936
-0.0051995054
-0.0061600127
-0.00048847944
-0.0011818135
-0.0021406031
-0.0030919563
-0.0041158805
-0.0051244087
-0.0061201595
-0.0070637135
-0.00045443123
-0.0011066376
-0.0020290179
-0.0029674726
-0.0039887643
-0.0050222372
-0.006041374
-0.0070280567
-0.0079537314
-0.00041788682
-0.0010238691
-0.001904213
-0.0028201272
-0.0038375141
-0.0048804201
-0.0059357687
-0.0069498769
-0.0079255931
-0.0088232134
-0.00037924717
-0.000935027
-0.0017664902
-0.002654569
-0.0036573475
-0.0047105025
-0.0057853911
-0.0068471299
-0.0078527907
-0.0088059763
-0.0096715264
-0.00033919799
-0.00084092287
-0.0016183052
-0.0024712599
-0.0034538467
-0.0045059178
-0.0056035764
-0.0066954435
-0.0077598762
-0.0087434053
-0.0096687871
-0.010491915
-0.000298503
-0.00074261811
-0.0014613663
-0.0022733293
-0.0032277598
-0.0042726402
-0.0053816234
-0.0065099062
-0.0076150016
-0.0086675303
-0.009621655
-0.010507313
-0.011283305
-0.00025820722
-0.00064101398
-0.0012978135
-0.0020630436
-0.0029827505
-0.0040109617
-0.0051259658
-0.0062791066
-0.0074348709
-0.0085379686
-0.0095703761
-0.010480643
-0.011319575
-0.012038002
-0.00021938744
-0.00053701865
-0.0011297071
-0.0018432076
-0.0027214943
-0.0037253142
-0.0048363036
-0.0060095114
-0.0072049099
-0.0083729355
-0.0094651528
-0.010461489
-0.011317978
-0.012098316
-0.012753399
-0.00018299678
-0.00043136304
-0.00095909717
-0.0016164655
-0.0024475731
-0.0034189719
-0.0045171322
-0.0057001452
-0.0069314384
-0.0081541561
-0.0093255648
-0.010389751
-0.011338519
-0.012126959
-0.012841234
-0.013424123
-0.00014970766
-0.00032486166
-0.00078778377
-0.001385361
-0.0021644469
-0.0030961417
-0.0041720951
-0.005355613
-0.0066121701
-0.0078874111
-0.0091291939
-0.010286257
-0.01130963
-0.012194478
-0.012904905
-0.013541915
-0.014046494
-0.00011934501
-0.00021860873
-0.00061742201
-0.0011522351
-0.0018754898
-0.0027609323
-0.0038060042
-0.0049794794
-0.0062514403
-0.0075689134
-0.0088809802
-0.010124003
-0.011253204
-0.012217584
-0.013025577
-0.01364462
-0.014196475
-0.01461696
-9.049531e-05
-0.00011393869
-0.00044949508
-0.00091938481
-0.0015838831
-0.0024174424
-0.0034235663
-0.0045768628
-0.0058526368
-0.0072024266
-0.0085751112
-0.0099067705
-0.011137334
-0.012219143
-0.013109505
-0.013825054
-0.014342275
-0.014800902
-0.015132631
-6.0394689e-05
-1.2643895e-05
-0.00028524326
-0.00068901907
-0.0012926336
-0.0020696083
-0.0030295826
-0.0041529258
-0.0054210441
-0.0067907929
-0.0082144786
-0.0096264019
-0.010964334
-0.012162081
-0.013179851
-0.013978152
-0.014588854
-0.014992933
-0.015351859
-0.0155912
-2.5131599e-05
8.2871603e-05
-0.00012561597
-0.00046326992
-0.0010044363
-0.0017211419
-0.0026287251
-0.0037131122
-0.0049621746
-0.0063392092
-0.0078011013
-0.0092845471
-0.010723297
-0.012047005
-0.013194112
-0.01412761
-0.014818417
-0.015310342
-0.01559274
-0.015846557
-0.01599102
1.9778688e-05
0.00016964258
2.8821958e-05
-0.00024434251
-0.00072174712
-0.0013754188
-0.0022254132
-0.003262794
-0.0044820228
-0.005853364
-0.0073398567
-0.0088820324
-0.0104143
-0.011859937
-0.013150975
-0.014225415
-0.015056644
-0.015623307
-0.015985063
-0.016138189
-0.016282866
-0.016331099
7.8546243e-05
0.00024447538
0.00017783892
-3.4570466e-05
-0.00044680265
-0.0010354675
-0.0018236987
-0.0028071064
-0.0039866126
-0.0053396764
-0.0068363937
-0.0084230993
-0.010036629
-0.011599017
-0.013033085
-0.014268213
-0.01524976
-0.01595917
-0.016387478
-0.016608329
-0.016626456
-0.016659315
-0.0166111
0.00015419761
0.00030445621
0.00032139155
0.00016371569
-0.00018162659
-0.00070401755
-0.0014272887
-0.0023508318
-0.0034818112
-0.0048047501
-0.0062973782
-0.0079130791
-0.0095935646
-0.011261601
-0.012836335
-0.014235054
-0.015392242
-0.016258584
-0.016828761
-0.017104884
-0.017176402
-0.017055343
-0.016975105
-0.016831296
0.00024786809
0.00034747824
0.00045940593
0.00034838578
7.1946752e-05
-0.00038360345
-0.0010395569
-0.0018983433
-0.0029731736
-0.0042551689
-0.0057298923
-0.0073586822
-0.0090898107
-0.010849637
-0.012555794
-0.014119284
-0.015459386
-0.016513902
-0.017244459
-0.017658123
-0.017770726
-0.017685978
-0.017423345
-0.017230092
-0.016992535
0.00035845268
0.00037268169
0.00059159846
0.0005177146
0.00031224886
-7.669211e-05
-0.00066358039
-0.001453624
-0.0024658763
-0.0036972756
-0.0051411787
-0.0067673149
-0.0085318602
-0.010366848
-0.012191695
-0.013913325
-0.015441768
-0.01669663
-0.017624897
-0.018198818
-0.018441037
-0.018380218
-0.018134553
-0.017729618
-0.01742474
-0.017096203
0.00048267062
0.00038075866
0.00071737629
0.00067045987
0.00053774808
0.00021423843
-0.0003021988
-0.0010203313
-0.0019646995
-0.0031370501
-0.0045383654
-0.0061467808
-0.0079272318
-0.0098191987
-0.011746407
-0.013615314
-0.015328856
-0.016794405
-0.017937844
-0.018715468
-0.019113972
-0.019171204
-0.018929631
-0.01852024
-0.017973984
-0.017560076
-0.017144223
0.00061586066
0.00037436959
0.00083572788
0.00080590847
0.00074706957
0.00048681598
4.1953378e-05
-0.00060189276
-0.0014740695
-0.0025800702
-0.0039282992
-0.0055049394
-0.0072841362
-0.0092140575
-0.011225007
-0.013225858
-0.015116329
-0.016793492
-0.018167929
-0.019172279
-0.019776484
-0.019981979
-0.019843296
-0.019415677
-0.018841969
-0.018156921
-0.017637682
-0.017138809
0.00075346109
0.00035980802
0.00094459868
0.0009238827
0.00093905303
0.00073902084
0.00036643954
-0.00020161449
-0.00099813726
-0.0020315421
-0.0033174635
-0.0048494815
-0.0066110702
-0.0085598327
-0.010634393
-0.012748751
-0.014802622
-0.01668677
-0.018298032
-0.01955089
-0.020389485
-0.020798313
-0.020795754
-0.020452427
-0.019836036
-0.019099477
-0.01827965
-0.017659682
-0.01708185
0.00088720713
0.00034875669
0.0010392319
0.0010243905
0.0011126845
0.00096939975
0.00066905402
0.000177289
-0.00054084577
-0.0014963787
-0.0027119831
-0.0041878001
-0.0059165361
-0.0078655069
-0.0099829008
-0.012190049
-0.014389831
-0.016470112
-0.018317956
-0.019830706
-0.02093174
-0.021578197
-0.021772002
-0.021548582
-0.020994682
-0.020189066
-0.019293133
-0.018343976
-0.017628483
-0.016975261
0.0010180006
0.00033872155
0.0011148717
0.0011081457
0.0012664556
0.0011770283
0.00094793171
0.00053182878
-0.0001059395
-0.00097929448
-0.0021176923
-0.0035269634
-0.0052088547
-0.0071402921
-0.0092797846
-0.011557686
-0.013882755
-0.016143479
-0.01822065
-0.019998247
-0.021379195
-0.022297745
-0.02272757
-0.022688825
-0.022234701
-0.021466892
-0.020473926
-0.019423542
-0.018351748
-0.017546116
-0.016824396
0.0011635298
0.00031407262
0.0011735974
0.0011840878
0.0013985431
0.0013609327
0.0012015395
0.00085951234
0.00030310661
-0.00048486136
-0.0015402172
-0.0028737643
-0.0044960978
-0.0063933848
-0.0085348151
-0.010860911
-0.013288543
-0.015709973
-0.01800352
-0.020043224
-0.021714964
-0.022929561
-0.023636241
-0.023826768
-0.023540937
-0.022849119
-0.021866832
-0.020690416
-0.019491948
-0.018304817
-0.017415006
-0.016633155
0.0013163033
0.00027637539
0.0012229214
0.0012616083
0.0015161256
0.0015212761
0.0014279636
0.0011584093
0.00068327871
-1.7438362e-05
-0.00098501393
-0.0022348078
-0.0037861153
-0.0056338466
-0.0077579706
-0.010109834
-0.012616098
-0.015175524
-0.017667513
-0.019960097
-0.021925283
-0.023453337
-0.02446751
-0.024934271
-0.024865677
-0.024321233
-0.023387883
-0.022193114
-0.020839232
-0.019500266
-0.018205819
-0.017239751
-0.01640403
0.001468072
0.00023431711
0.0012811113
0.0013077377
0.0016263291
0.0016715567
0.0016259529
0.0014263319
0.0010320587
0.00041909403
-0.00045730073
-0.0016165703
-0.0030866127
-0.0048706019
-0.0069592633
-0.0093150541
-0.011875583
-0.014548288
-0.017216878
-0.019747207
-0.022001327
-0.023851687
-0.025197737
-0.025978065
-0.026179355
-0.025834834
-0.025023688
-0.023848009
-0.022445286
-0.020921657
-0.019451094
-0.018058419
-0.01702377
-0.016140282
0.001612537
0.00018904467
0.0013439933
0.0013348327
0.0017108144
0.00181429
0.0018101067
0.0016622071
0.0013464406
0.00082144868
3.8198719e-05
-0.0010253477
-0.0024052064
-0.0041125041
-0.006148699
-0.0084874277
-0.011077993
-0.013838131
-0.016658575
-0.01940664
-0.021938408
-0.024112228
-0.025805874
-0.026931383
-0.02744638
-0.027359477
-0.026725819
-0.025643331
-0.02422758
-0.02262374
-0.020939707
-0.019347408
-0.017865934
-0.016770484
-0.015844903
0.0017439248
0.0001428103
0.001404423
0.0013675838
0.0017854361
0.0019083566
0.0019855841
0.0018845556
0.001624426
0.0011858385
0.00049736768
-0.00046697023
-0.0017493712
-0.0033683985
-0.0053363263
-0.0076379818
-0.01023486
-0.013056143
-0.016001755
-0.018943674
-0.021735972
-0.024226875
-0.026275803
-0.027769591
-0.02863718
-0.028857793
-0.028463559
-0.027531306
-0.026176384
-0.024525691
-0.022729672
-0.020895901
-0.019192476
-0.017631916
-0.016483172
-0.015520956
0.0018566582
9.8891797e-05
0.0014585722
0.0013986692
0.0018588051
0.0019866172
0.0021122055
0.0020957024
0.0018876564
0.0015096976
0.00091541915
5.3370813e-05
-0.0011261391
-0.0026470804
-0.0045322979
-0.0067779442
-0.0093581196
-0.012214293
-0.015257241
-0.018366279
-0.021397112
-0.024191981
-0.026595741
-0.028472767
-0.029723736
-0.030297839
-0.030198375
-0.029481573
-0.028245246
-0.026620246
-0.02474243
-0.022764978
-0.020793208
-0.018989759
-0.017359862
-0.016165098
-0.015171725
0.0019457933
6.0211085e-05
0.0015053914
0.0014235372
0.0019306612
0.0020709394
0.0022237527
0.0022459045
0.0021400925
0.0018186206
0.0012886939
0.00052971329
-0.00054189068
-0.001956976
-0.0037468326
-0.0059188022
-0.0084601154
-0.011325244
-0.014437127
-0.017684575
-0.020928108
-0.02400795
-0.026758549
-0.029025223
-0.030682369
-0.031648526
-0.03189648
-0.031455115
-0.030404806
-0.028862917
-0.026973509
-0.024878783
-0.02273217
-0.020634964
-0.018742839
-0.01705323
-0.015819494
-0.014800131
0.002007344
2.9180638e-05
0.0015439858
0.0014430539
0.0019943678
0.0021514867
0.002334096
0.0023809066
0.0023195258
0.0021151428
0.0016465309
0.00095721729
-3.9351089e-06
-0.0013058725
-0.0029898796
-0.0050722761
-0.0075536525
-0.010402321
-0.013554543
-0.016910399
-0.020337896
-0.023678846
-0.026761462
-0.029415997
-0.031493391
-0.032882599
-0.033524161
-0.033416914
-0.03261627
-0.031225963
-0.02938097
-0.027235888
-0.024936542
-0.022634299
-0.02042476
-0.018455368
-0.016715455
-0.01544946
-0.014409167
0.0020387077
7.4233604e-06
0.0015735384
0.0014581781
0.002048643
0.0022194403
0.0024415065
0.0025138485
0.0024837239
0.0023242117
0.0019922949
0.001369326
0.0004813481
-0.00070263628
-0.0022707885
-0.0042499701
-0.0066519809
-0.0094595658
-0.012623595
-0.016057021
-0.019637606
-0.023211896
-0.026605805
-0.029638728
-0.032141778
-0.03397639
-0.035050884
-0.035331179
-0.034844072
-0.033671549
-0.031939291
-0.029797423
-0.027408141
-0.02491825
-0.022474853
-0.020166374
-0.018131011
-0.016349873
-0.015058044
-0.014001553
-3.7277963e-06
0.0020387077
0.0015929983
0.0014693846
0.0020929033
0.0022753019
0.0025356181
0.0026433611
0.0026461393
0.0025201329
0.0022361186
0.0017689878
0.00095145024
-0.00015544687
-0.0016001697
-0.0034629721
-0.0057684405
-0.0085117302
-0.011659405
-0.015139043
-0.018840241
-0.022617021
-0.026296547
-0.029691496
-0.032617217
-0.034910693
-0.036449164
-0.037164529
-0.037050983
-0.03616428
-0.034612312
-0.03254061
-0.030111592
-0.027491998
-0.024827103
-0.022257658
-0.019863695
-0.017773408
-0.015959736
-0.014648119
-0.013579903
0.0016022389
-3.7277719e-06
0.002007344
0.0014763339
0.0021265226
0.0023199232
0.0026152605
0.0027554957
0.0028043388
0.002713455
0.0024703257
0.0020509586
0.0014099237
0.00037734567
-0.00098834625
-0.0027238283
-0.0049159889
-0.0075739238
-0.010678126
-0.014172437
-0.017960543
-0.021906485
-0.025841857
-0.029576469
-0.032914087
-0.035670971
-0.037695601
-0.038885943
-0.039201313
-0.038666205
-0.037365552
-0.035431666
-0.033027316
-0.030324006
-0.027490082
-0.02466683
-0.021986781
-0.019520667
-0.017386127
-0.015548157
-0.014222436
-0.013146635
0.0014794125
0.001602239
7.4235326e-06
0.0019457934
0.0021481584
0.0023535887
0.0026798981
0.002849033
0.00294167
0.0029023431
0.0027018564
0.0023291511
0.0017357775
0.00089956721
-0.00038958005
-0.0020453239
-0.0041092725
-0.006661072
-0.0096965986
-0.013174573
-0.017015014
-0.021094735
-0.025252739
-0.0292995
-0.033031234
-0.036247521
-0.038771284
-0.040467964
-0.04126093
-0.041139971
-0.040161108
-0.038437767
-0.036124541
-0.033398301
-0.030436359
-0.0274058
-0.024441573
-0.021666459
-0.019141225
-0.016972645
-0.015118117
-0.013783564
-0.012704
0.0021579352
0.0014794125
0.0015929984
2.9180851e-05
0.0018566584
0.002375372
0.0027291218
0.0029247822
0.0030573141
0.0030668021
0.0029276863
0.0026031149
0.0020668728
0.0012744876
0.00020073105
-0.001377675
-0.0033638761
-0.0057900491
-0.0087317458
-0.012163905
-0.016021972
-0.020198407
-0.024542843
-0.028869768
-0.03297163
-0.036635389
-0.039662135
-0.04188727
-0.043198579
-0.043548869
-0.042960686
-0.041521851
-0.039372818
-0.036687662
-0.033653886
-0.030451422
-0.027243193
-0.02415579
-0.021301013
-0.018729265
-0.016536306
-0.014672423
-0.013333908
-0.012254066
0.0023856802
0.0021579352
0.0014763341
0.0015735388
6.0211431e-05
0.0017439251
0.0027612904
0.0029821996
0.0031512229
0.0032049421
0.0031241978
0.0028701353
0.002391808
0.001667272
0.00063106332
-0.00071545688
-0.0026261033
-0.0049795434
-0.0078027441
-0.011159309
-0.015001263
-0.019236402
-0.02372846
-0.028299572
-0.03274205
-0.03683413
-0.04035899
-0.043125222
-0.044986632
-0.04585825
-0.045725655
-0.044645477
-0.04273674
-0.040164675
-0.037119485
-0.033795778
-0.030372867
-0.027006818
-0.023814166
-0.020894809
-0.018288583
-0.016080296
-0.014213704
-0.012875688
-0.011798716
0.0027765069
0.0023856803
0.0021481586
0.0014693848
0.0015439862
9.8892167e-05
0.0016125373
0.0030189107
0.0032224384
0.0033165884
0.0032892231
0.0031029357
0.0027075403
0.0020503414
0.0010967054
-0.00022354527
-0.0018894214
-0.0041720877
-0.0069316549
-0.010182259
-0.013973578
-0.018229637
-0.022828615
-0.027604315
-0.032352855
-0.036847537
-0.040857496
-0.044168131
-0.046601824
-0.048036414
-0.048418493
-0.047768829
-0.046178547
-0.04379637
-0.040809368
-0.037420152
-0.033826925
-0.030205138
-0.026701634
-0.023421545
-0.020452171
-0.017822819
-0.015607591
-0.013744417
-0.012410966
-0.01133967
0.0030351964
0.002776507
0.0023753721
0.0021265228
0.0014581786
0.001505392
0.00014281078
0.0014680723
0.0032685989
0.0034011575
0.0034227796
0.0032984256
0.0029830316
0.0024214318
0.0015478467
0.00032665165
-0.001329342
-0.00335994
-0.0060574192
-0.0092583878
-0.012962584
-0.017200363
-0.021864867
-0.026802597
-0.031817952
-0.036683426
-0.041157909
-0.045007307
-0.048025728
-0.050055543
-0.051003807
-0.050852162
-0.049658057
-0.047546528
-0.044693707
-0.041304897
-0.037591406
-0.033751345
-0.029953312
-0.026332932
-0.022982818
-0.019977272
-0.0173354
-0.015121055
-0.013266913
-0.011941624
-0.010878595
0.0032900871
0.0030351963
0.0027612904
0.002353589
0.0020929038
0.0014430544
0.0014585729
0.00018904515
0.0013163038
0.0034559101
0.0035239052
0.0034564312
0.0032141708
0.0027456373
0.0019831308
0.00085572427
-0.00068125376
-0.0027254922
-0.0051710248
-0.0083232074
-0.011997599
-0.016174229
-0.020860655
-0.025916083
-0.031154905
-0.036353583
-0.041264909
-0.045638962
-0.049244977
-0.051892374
-0.053449428
-0.05385689
-0.053134039
-0.051375471
-0.048738667
-0.045424042
-0.041651246
-0.037636425
-0.033573991
-0.029623021
-0.025906167
-0.022502748
-0.019474085
-0.016829719
-0.014623513
-0.012783296
-0.01146928
-0.010416911
0.0034813026
0.003290087
0.0030189108
0.0027291219
0.0023199235
0.0020486434
0.0014235379
0.0014044239
0.00023431766
0.0011635303
0.0035895356
0.0035759913
0.0034008634
0.0030176253
0.0023636667
0.0013641417
-6.2641175e-05
-0.0019655799
-0.0044563629
-0.007366581
-0.011010833
-0.015184221
-0.019843259
-0.024968892
-0.030384829
-0.035873855
-0.041187513
-0.046064068
-0.050251296
-0.053528623
-0.055727293
-0.056746835
-0.056565347
-0.055241316
-0.052905982
-0.04974688
-0.04598494
-0.041850227
-0.037559686
-0.033300642
-0.02922023
-0.025426719
-0.02198593
-0.018946687
-0.016309248
-0.014117367
-0.012295053
-0.010995351
-0.009955136
0.003620298
0.0034813026
0.0032685989
0.0029821996
0.0026798982
0.0022753023
0.0019943684
0.00139867
0.0013439942
0.0002763759
0.0010180013
0.00365368
0.0035419708
0.0032371427
0.0026828967
0.0018090327
0.00052935315
-0.0012454135
-0.0035699329
-0.0065668471
-0.0099914133
-0.014159306
-0.018849181
-0.02398944
-0.029531893
-0.035264079
-0.040939149
-0.046288236
-0.051041427
-0.054951177
-0.057814073
-0.0594893
-0.05991227
-0.059101091
-0.057154012
-0.05423744
-0.050565679
-0.046376228
-0.041905364
-0.037366832
-0.032937651
-0.028750912
-0.024899868
-0.021437267
-0.01839939
-0.015776717
-0.013603781
-0.01180368
-0.010521801
-0.0094941613
0.003690287
0.003620298
0.0034559098
0.0032224382
0.0029247823
0.0026152607
0.0022194407
0.0019306618
0.0013675848
0.0012811125
0.00031407314
0.00088720796
0.0036337415
0.0034028735
0.0029403984
0.002182375
0.0010478428
-0.00055893488
-0.0027353491
-0.0055391972
-0.0091030027
-0.013088602
-0.017804083
-0.023017436
-0.028624986
-0.034547705
-0.040537582
-0.046321758
-0.051616967
-0.056152091
-0.059691559
-0.06205591
-0.063137774
-0.06291215
-0.061438801
-0.058855269
-0.055360659
-0.051192204
-0.04659989
-0.041821774
-0.037064366
-0.032491485
-0.028221049
-0.024331471
-0.020862096
-0.017835288
-0.015232849
-0.013084637
-0.011313358
-0.010050817
-0.0090178377
0.0036772071
0.0036902868
0.0035895352
0.0034011572
0.0031512227
0.0028490331
0.0025356183
0.0021514874
0.0018588059
0.0013348338
0.0012229226
0.00033872205
0.00075346214
0.0035107467
0.0031345694
0.0024833267
0.0014830644
4.2908786e-05
-0.0019427039
-0.0045771228
-0.0079198094
-0.012109764
-0.016698202
-0.021975027
-0.027706549
-0.033753275
-0.040004678
-0.046179473
-0.051984358
-0.057128397
-0.061346761
-0.064423209
-0.06620856
-0.066633554
-0.065715483
-0.063556353
-0.06033149
-0.056269335
-0.051626222
-0.046659988
-0.041605767
-0.036659081
-0.031968799
-0.027637567
-0.023728077
-0.020263916
-0.01725442
-0.014680139
-0.012568063
-0.010827693
-0.0095544948
-0.0085210662
0.0035620872
0.0036772068
0.0036536796
0.0035239047
0.0033165878
0.0030573137
0.0027554959
0.0024415068
0.00207094
0.0017854369
0.001307739
0.0011735989
0.00034875737
0.00061586186
0.0032610369
0.0027099915
0.0018335807
0.00054825931
-0.0012470745
-0.0036663124
-0.0068171804
-0.010757874
-0.015629454
-0.02085513
-0.026694816
-0.032925289
-0.039367652
-0.045880698
-0.052154633
-0.057882022
-0.062771656
-0.066572901
-0.069095899
-0.070227335
-0.069939774
-0.068294442
-0.065435095
-0.061572318
-0.056960308
-0.051870093
-0.046562195
-0.041264171
-0.036158181
-0.031377655
-0.027008394
-0.023093615
-0.019641877
-0.016660178
-0.014131796
-0.012059012
-0.010299606
-0.0090390285
-0.0080120459
0.0033214933
0.0035620871
0.0036337411
0.0035759906
0.0034227788
0.0032049415
0.0029416697
0.0026433613
0.0023340963
0.001986618
0.0017108154
0.0012616096
0.0011148733
0.00035980881
0.00048267198
0.0028577088
0.0020972621
0.00095494373
-0.00066273869
-0.0028660677
-0.0057760823
-0.0095021393
-0.014097654
-0.019699807
-0.025587389
-0.031977485
-0.038672224
-0.045450175
-0.052143509
-0.058419326
-0.063963071
-0.068491504
-0.071776024
-0.073659572
-0.074069414
-0.073022586
-0.070624763
-0.067059936
-0.062570835
-0.057433513
-0.051928275
-0.046312951
-0.04080452
-0.035570881
-0.030727523
-0.026337901
-0.022426152
-0.019000495
-0.016072764
-0.013594158
-0.011476101
-0.0097585061
-0.0085086199
-0.0074931686
0.0029286029
0.0033214929
0.0035107459
0.0035419699
0.0034564303
0.0032892223
0.0030668013
0.0028043383
0.0025138489
0.0022237531
0.0019083574
0.0016263302
0.0011840894
0.0010392337
0.00037437052
0.00035845411
0.0022691712
0.0012605701
-0.00019271354
-0.002193453
-0.0048602058
-0.0083189034
-0.012677304
-0.017979747
-0.024352132
-0.0309145
-0.037826828
-0.044933833
-0.051971942
-0.058751355
-0.064921859
-0.070170267
-0.074229682
-0.076900981
-0.078065493
-0.077694733
-0.075851689
-0.072685979
-0.068419502
-0.063323822
-0.057691478
-0.051806277
-0.045919774
-0.040237119
-0.034908312
-0.030023184
-0.025622843
-0.0217317
-0.018368667
-0.015499628
-0.012942624
-0.01088683
-0.0091983925
-0.007967662
-0.0069637218
0.0023519622
0.0029286025
0.0032610362
0.0034028726
0.0034008623
0.0032984244
0.0031241966
0.0029023423
0.0026461389
0.0023809069
0.0021122059
0.0018142909
0.0015161271
0.0011081474
0.00094460052
0.00038075962
0.00024786955
0.0014598851
0.00016022768
-0.0016525061
-0.0040897401
-0.0072765346
-0.011340771
-0.016384853
-0.022439272
-0.029609877
-0.03684566
-0.044233786
-0.051684826
-0.058893873
-0.065653317
-0.07160376
-0.076442214
-0.079926298
-0.081893251
-0.082267304
-0.081066663
-0.078400702
-0.074461689
-0.069506627
-0.06383107
-0.057738115
-0.051511105
-0.04539389
-0.039574828
-0.034175582
-0.029259777
-0.02487111
-0.021049481
-0.017754965
-0.014759092
-0.012294432
-0.010273783
-0.0086276479
-0.0074148083
-0.0064247073
0.001556154
0.0023519618
0.0028577079
0.0031345681
0.0032371411
0.0032141691
0.0031029344
0.0029276852
0.002713454
0.0024837232
0.0022459049
0.0019855848
0.0016715577
0.0013985446
0.0010243924
0.0008357298
0.0003726827
0.00015419902
0.00039045919
-0.0012465457
-0.0034699868
-0.0063986378
-0.010161516
-0.014885033
-0.020662086
-0.027504641
-0.035486735
-0.04337619
-0.051176558
-0.058889406
-0.06616651
-0.072790489
-0.078401218
-0.082714831
-0.085521252
-0.086700186
-0.086221854
-0.084152502
-0.080647597
-0.075939952
-0.070317629
-0.064094115
-0.05757928
-0.051054609
-0.044749873
-0.038822909
-0.033365772
-0.028447465
-0.024134106
-0.020389469
-0.016907686
-0.014033101
-0.01161522
-0.0096501961
-0.0080440184
-0.0068516347
-0.005876309
0.00050192647
0.0015561537
0.0022691699
0.0027099897
0.0029403967
0.0030176236
0.00298303
0.0028701336
0.0027018549
0.002520132
0.0023195253
0.0020957027
0.0018101074
0.0015212773
0.0012664572
0.00092388461
0.00071737811
0.00034747919
7.8547553e-05
-0.00098166085
-0.0030050162
-0.0056920326
-0.0091668086
-0.013559355
-0.018990707
-0.025540079
-0.033194459
-0.041981496
-0.05048745
-0.058622994
-0.066500123
-0.073731251
-0.080097442
-0.085246605
-0.088922863
-0.090955734
-0.091271997
-0.089889844
-0.086924108
-0.082575172
-0.077112959
-0.070850757
-0.064116903
-0.057227013
-0.050452969
-0.043992832
-0.037971793
-0.032491757
-0.02765204
-0.023423496
-0.019413581
-0.016088662
-0.013266683
-0.01092659
-0.0090134323
-0.0074497411
-0.0062783162
-0.0053191738
-0.00085316891
0.00050192582
0.0014598834
0.0020972602
0.0024833245
0.0026828944
0.002745635
0.0027075382
0.0026031133
0.0024703243
0.0023242105
0.0021400919
0.0018845561
0.0016259538
0.0013609339
0.0011126861
0.00080591038
0.0005916002
0.0003044571
1.9779831e-05
-0.002701533
-0.0051618716
-0.0083653535
-0.012438908
-0.017510329
-0.023691099
-0.031039597
-0.039512621
-0.049077361
-0.058151489
-0.066527749
-0.074459341
-0.081521857
-0.087503752
-0.092070088
-0.095001432
-0.096173634
-0.095562616
-0.093236612
-0.089358583
-0.084170692
-0.077974822
-0.071107205
-0.063911108
-0.056698885
-0.049710669
-0.043109728
-0.037037466
-0.031636332
-0.026887222
-0.022296134
-0.018482014
-0.015216788
-0.012492717
-0.010224685
-0.0083662257
-0.006844805
-0.0056957845
-0.0047537726
-0.0025541069
-0.00085316974
0.00039045761
0.0012605678
0.0018335778
0.0021823719
0.0023636642
0.0024214295
0.0023918059
0.0023291491
0.0022361169
0.0021151418
0.0018876559
0.0016622075
0.0014279644
0.0011770295
0.00093905457
0.00067046161
0.00045940743
0.00024447611
-2.5130664e-05
-0.0048156786
-0.0077637859
-0.011534899
-0.01625608
-0.022049396
-0.029009931
-0.037169336
-0.046452286
-0.05674967
-0.066325255
-0.074834282
-0.082700858
-0.089465947
-0.094935622
-0.098801339
-0.10088765
-0.10112226
-0.099530696
-0.096233168
-0.09143765
-0.085423505
-0.078523018
-0.071097614
-0.063495347
-0.055998074
-0.048810089
-0.042120129
-0.036122859
-0.030815686
-0.025582418
-0.021231502
-0.017482182
-0.014339769
-0.011706126
-0.0095123544
-0.0077084379
-0.0062303987
-0.0051047182
-0.0041806756
-0.0046473392
-0.0025541074
-0.00098166242
0.00016022482
0.00095494015
0.0014830609
0.0018090294
0.0019831278
0.0020503386
0.0020668702
0.0020509566
0.0019922933
0.0018186194
0.0016244254
0.0014263324
0.0012015403
0.00096940072
0.00074707088
0.00051771613
0.00032139281
0.00016964313
-6.0393981e-05
-0.0073706982
-0.010855843
-0.015242324
-0.020654369
-0.027202885
-0.034959827
-0.043931027
-0.053994708
-0.064956318
-0.074953983
-0.08347666
-0.091151366
-0.097486494
-0.10231776
-0.1053711
-0.10652177
-0.10575307
-0.10314078
-0.098855584
-0.093145368
-0.086326422
-0.078766486
-0.07084121
-0.062870579
-0.055100909
-0.047774807
-0.041150791
-0.035247174
-0.029304993
-0.024361962
-0.020080063
-0.01648065
-0.01345137
-0.010909805
-0.0087898239
-0.0070414152
-0.0056073462
-0.0045060226
-0.0036003409
-0.0071794272
-0.0046473396
-0.0027015349
-0.0012465489
-0.00019271729
0.0005482552
0.0010478384
0.0013641375
0.0015478435
0.0016672692
0.0017357749
0.0017689856
0.001646529
0.0015096963
0.00134644
0.0011584097
0.0009479322
0.00073902162
0.00053774916
0.00034838697
0.0001778398
8.287191e-05
-9.0494838e-05
-0.0104117
-0.014479933
-0.019524273
-0.025661879
-0.032986834
-0.041545429
-0.051309333
-0.062103957
-0.073643932
-0.083973242
-0.092381074
-0.099731603
-0.10550387
-0.10957526
-0.11171256
-0.11184829
-0.11002323
-0.10636315
-0.10108191
-0.094469167
-0.086886016
-0.07872461
-0.070335559
-0.062005133
-0.054035352
-0.046759848
-0.040224487
-0.033499013
-0.027904123
-0.023031594
-0.018931857
-0.015469466
-0.01255424
-0.010104148
-0.0080583733
-0.0063661345
-0.0049768155
-0.0038999033
-0.0030135257
-0.01019549
-0.0071794279
-0.0048156806
-0.003005019
-0.0016525101
-0.00066274364
4.2903421e-05
0.0005293482
0.00085571981
0.0010967015
0.0012744841
0.0014099206
0.0013693237
0.001288692
0.0011858369
0.0010320578
0.0008595125
0.00066905434
0.00048681639
0.00031224951
0.00016371654
2.8822528e-05
-1.2643799e-05
-0.00011934473
-0.013980657
-0.018672972
-0.024409893
-0.031297107
-0.03940806
-0.048756481
-0.059275416
-0.070732659
-0.082750978
-0.093310658
-0.10146638
-0.10835856
-0.11343802
-0.11663511
-0.11776283
-0.11681888
-0.11389722
-0.10916963
-0.10289374
-0.0954126
-0.087121489
-0.078390213
-0.06953853
-0.060931719
-0.052989964
-0.045792175
-0.038204321
-0.031890968
-0.026364516
-0.021711067
-0.017775575
-0.014451088
-0.011648677
-0.0092902569
-0.0073192687
-0.0056840442
-0.0043384208
-0.0032873912
-0.0024208522
-0.01373755
-0.010195491
-0.0073707
-0.0051618743
-0.0034699909
-0.0021934585
-0.0012470803
-0.00055894073
-6.2647122e-05
0.00032664618
0.00063105918
0.00089956369
0.00095144718
0.00095721464
0.00091541686
0.00082144701
0.00068327767
0.00053182853
0.00036643939
0.00021423849
7.1947073e-05
-3.4570045e-05
-0.00012561579
-0.00011393881
-0.00014970755
-0.018114596
-0.023464679
-0.029919204
-0.037568628
-0.046460334
-0.056569389
-0.06778893
-0.079826165
-0.092209543
-0.10288521
-0.11064626
-0.11694835
-0.12120969
-0.12342771
-0.12346584
-0.12139159
-0.11734134
-0.11153534
-0.1042911
-0.09599465
-0.087019448
-0.077707609
-0.068487974
-0.059878739
-0.051996597
-0.04346267
-0.036360436
-0.030108259
-0.024843304
-0.020384495
-0.016614167
-0.013425553
-0.010735849
-0.0084698542
-0.006574151
-0.004993644
-0.0036942707
-0.0026690956
-0.0018229622
-0.017842697
-0.01373755
-0.010411702
-0.0077637892
-0.0056920369
-0.0040897451
-0.0028660738
-0.0019427109
-0.0012454206
-0.00068126033
-0.00022355111
0.00020072622
0.00037734155
0.00048134452
0.00052971049
0.00049736528
0.00041909193
0.00030310509
0.00017728842
4.1952942e-05
-7.6692499e-05
-0.00018162675
-0.00024434244
-0.00028524333
-0.000218609
-0.00018299678
-0.022843517
-0.028875932
-0.036062149
-0.04447282
-0.0541237
-0.06494931
-0.076800521
-0.089327194
-0.10194287
-0.1126084
-0.11983413
-0.12541638
-0.12874278
-0.12988827
-0.12877337
-0.12552671
-0.12032387
-0.11345653
-0.10529335
-0.096194318
-0.086507063
-0.0767197
-0.06746005
-0.05888354
-0.049318109
-0.041352786
-0.034297121
-0.028354882
-0.023318539
-0.01905543
-0.015447243
-0.012394009
-0.009817924
-0.0076443028
-0.0058201526
-0.0042979957
-0.0030450763
-0.00204603
-0.0012204944
-0.022541077
-0.017842698
-0.01398066
-0.010855847
-0.0083653579
-0.0063986427
-0.0048602121
-0.0036663201
-0.0027353568
-0.0019655877
-0.0013293498
-0.00071546379
-0.00038958518
-0.00015545113
-3.9388262e-06
5.3367517e-05
3.8195779e-05
-1.7440711e-05
-0.00010594122
-0.00020161556
-0.00030219975
-0.00038360421
-0.00044680313
-0.00046327022
-0.00044949545
-0.00032486207
-0.00021938753
-0.028188741
-0.03491753
-0.042836906
-0.051993131
-0.062367058
-0.073851827
-0.086252725
-0.099155382
-0.11186406
-0.12239375
-0.12894024
-0.13368065
-0.13596564
-0.13596112
-0.1336417
-0.12918379
-0.12283695
-0.11495442
-0.10587115
-0.09591735
-0.085631972
-0.075760199
-0.066496724
-0.055814965
-0.046911177
-0.038967689
-0.032276921
-0.026600897
-0.021794536
-0.017722916
-0.014275857
-0.011359018