/*--------------------------------*- C++ -*----------------------------------*\
| =========                 |                                                 |
| \\      /  F ield         | OpenFOAM: The Open Source CFD Toolbox           |
|  \\    /   O peration     | Version:  5.0                                   |
|   \\  /    A nd           | Web:      www.OpenFOAM.org                      |
|    \\/     M anipulation  |                                                 |
\*---------------------------------------------------------------------------*/
FoamFile
{
    version     2.0;
    format      ascii;
    class       surfaceScalarField;
    location    "105";
    object      phi;
}
// * * * * * * * * * * * * * * * * * * * * * * * * * * * * * * * * * * * * * //

dimensions      [0 3 -1 0 0 0 0];

internalField   nonuniform List<scalar> 
18180
(
0.001381852
-1.3724139
0.0026642151
-1.2837718
0.001362768
-1.3737767
0.0038437822
-1.2009092
0.0026235296
-1.2850325
0.0013360786
-1.3751128
0.0049199986
-1.1234204
0.0037871773
-1.2020728
0.0025759104
-1.2862723
0.0013248141
-1.3764376
0.0058959219
-1.0509893
0.0048513331
-1.1244845
0.0037209845
-1.2032179
0.0025551698
-1.2875027
0.0013114976
-1.3777491
0.0067751812
-0.98325068
0.0058197961
-1.0519578
0.0047706604
-1.1255342
0.0036953536
-1.2043581
0.0025319485
-1.2887232
0.0013027055
-1.3790518
0.0075609352
-0.91988426
0.0066952636
-0.98412615
0.0057290321
-1.0529161
0.0047454759
-1.1265843
0.0036663593
-1.2054925
0.0025176414
-1.2899381
0.0012912376
-1.380343
0.008257779
-0.86058793
0.0074811057
-0.9206701
0.0065983174
-0.98499543
0.0057096516
-1.0538803
0.0047159658
-1.1276339
0.0036517366
-1.2066266
0.0024985151
-1.2911454
0.0012789115
-1.381622
0.0088704865
-0.80508816
0.0081813003
-0.86128813
0.0073817861
-0.92145357
0.0065899618
-0.98587574
0.0056849083
-1.0548493
0.0047076
-1.1286898
0.003630133
-1.2077582
0.0024781474
-1.2923446
0.0012619095
-1.3828839
0.0094046642
-0.75313025
0.0088003547
-0.80570721
0.0080828897
-0.86198923
0.0073892509
-0.92225286
0.0065749605
-0.9867658
0.0056894675
-1.0558311
0.0046900376
-1.1297497
0.0036077998
-1.2088878
0.0024489253
-1.2935316
0.0012407204
-1.3841246
0.0098663842
-0.70448388
0.009343337
-0.75367323
0.0087058149
-0.80633014
0.0081104332
-0.86271041
0.0073884507
-0.92306635
0.0065989738
-0.9876753
0.0056825213
-1.0568236
0.0046735917
-1.1308155
0.0035726596
-1.2100116
0.002412089
-1.294703
0.0012135399
-1.3853381
0.010262357
-0.65893265
0.0098157081
-0.70495625
0.0092552522
-0.75422267
0.0087570038
-0.80697671
0.0081277158
-0.86344968
0.0074377846
-0.92390516
0.0066089864
-0.98860177
0.0056799371
-1.05783
0.0046405623
-1.1318834
0.0035271419
-1.2111266
0.0023636238
-1.2958531
0.0011805402
-1.3865187
0.010600059
-0.61627641
0.010223328
-0.65934027
0.0097364119
-0.70543741
0.0093329041
-0.75479857
0.0087955316
-0.80764453
0.0082071853
-0.86421908
0.0074705438
-0.92476672
0.0066281614
-0.98954999
0.0056571995
-1.0588466
0.0045953052
-1.1329516
0.003464655
-1.2122277
0.0023038505
-1.2969764
0.0011409472
-1.3876596
0.010888144
-0.57632568
0.010572608
-0.61662569
0.010155027
-0.65975888
0.0098425701
-0.70594708
0.0093949412
-0.75539798
0.0089090104
-0.80834635
0.0082679027
-0.86501644
0.0075186918
-0.92565725
0.0066238192
-0.99051661
0.005621395
-1.0598727
0.0045280205
-1.1340149
0.003385944
-1.2133097
0.0022312678
-1.2980667
0.001095084
-1.3887547
0.011136788
-0.53889672
0.010870972
-0.57662405
0.010517431
-0.6169881
0.010290894
-0.6602072
0.0099297979
-0.70648193
0.0095455676
-0.75603453
0.0090021016
-0.80908055
0.0083512115
-0.86584896
0.0075402756
-0.9265737
0.0066067212
-0.99150194
0.0055588293
-1.0609035
0.0044401606
-1.1350691
0.0032884854
-1.214367
0.0021464425
-1.2991181
0.001043227
-1.3897979
0.011358027
-0.50380684
0.011127608
-0.53915335
0.010830791
-0.57693741
0.010683254
-0.61738046
0.010404459
-0.66068187
0.010119728
-0.70705609
0.0096745179
-0.75670695
0.009125542
-0.80985488
0.008405535
-0.86671422
0.0075505573
-0.92751754
0.006558539
-0.99250165
0.0054719868
-1.0619353
0.0043276245
-1.1361083
0.0031726828
-1.2153932
0.0020495786
-1.3001244
0.00098557998
-1.3907835
0.011565527
-0.47086821
0.01135466
-0.50403389
0.011103677
-0.53942624
0.011025775
-0.57727993
0.01082384
-0.61779984
0.010634813
-0.66119695
0.010286854
-0.70766843
0.0098417966
-0.7574232
0.0092184763
-0.81066782
0.008450987
-0.86761465
0.0075260057
-0.92848501
0.0064831834
-0.99351284
0.0053547488
-1.0629624
0.0041909899
-1.1371266
0.0030384334
-1.2163821
0.001941204
-1.30108
0.00092272815
-1.3917062
0.011773395
-0.43988709
0.011567756
-0.47108131
0.011346787
-0.504277
0.011326014
-0.53972648
0.01119361
-0.5776497
0.011094717
-0.61825974
0.010841464
-0.66175156
0.010500627
-0.70832726
0.0099780123
-0.75818274
0.0093056843
-0.81152252
0.0084586381
-0.86854728
0.0074722698
-0.92947409
0.0063720287
-0.99453012
0.0052079455
-1.0639794
0.0040297854
-1.1381179
0.0028869352
-1.2173278
0.0018223594
-1.3019797
0.00085534318
-1.3925616
0.011993929
-0.41066668
0.011785411
-0.44010474
0.011573363
-0.47130788
0.011593823
-0.50454481
0.011520713
-0.54005358
0.011504126
-0.57805911
0.011341367
-0.61875964
0.011103272
-0.6623542
0.010683565
-0.70903281
0.010112384
-0.75898944
0.0093531768
-0.81241706
0.0084360113
-0.86951102
0.0073778314
-0.9304799
0.0062262449
-0.99554842
0.0050301934
-1.0649798
0.0038449584
-1.139076
0.0027196333
-1.2182251
0.0016942399
-1.3028186
0.0007842081
-1.3933458
0.012234807
-0.38301872
0.01202678
-0.41090805
0.011798825
-0.4403302
0.011842056
-0.47155612
0.011814067
-0.50483816
0.011868989
-0.54041845
0.011790405
-0.57850815
0.011651677
-0.61930805
0.011335199
-0.66300584
0.010869252
-0.70978968
0.010206172
-0.75984243
0.0093701684
-0.81335121
0.0083685013
-0.87050169
0.0072442569
-0.93149791
0.0060431716
-0.9965614
0.0048224676
-1.0659573
0.0036380309
-1.1399944
0.002537885
-1.2190687
0.0015583225
-1.3035927
0.00071016053
-1.3940559
0.012496611
-0.35677776
0.012307913
-0.38329985
0.012039024
-0.41114825
0.012086474
-0.44057462
0.012085249
-0.4718273
0.01219724
-0.50516641
0.012193617
-0.54082166
0.012148682
-0.57900515
0.01193376
-0.61990661
0.011575075
-0.66371166
0.011014497
-0.710598
0.010270167
-0.76074243
0.0093390423
-0.81432175
0.0082580449
-0.87151548
0.0070672725
-0.93252201
0.005823767
-0.9975627
0.004586223
-1.0669055
0.0034110206
-1.1408675
0.0023437866
-1.2198542
0.0014161999
-1.3042987
0.000634066
-1.39469
0.012771611
-0.33181602
0.012637465
-0.35710731
0.012307187
-0.38356802
0.012344206
-0.41140598
0.012348588
-0.44083796
0.012499583
-0.47212964
0.012557904
-0.5055307
0.012598345
-0.54127132
0.012481028
-0.57955242
0.012229479
-0.62056101
0.011775645
-0.66447281
0.011131618
-0.71145946
0.01028386
-0.76168725
0.0092619621
-0.81532567
0.0080985112
-0.87254672
0.0068477328
-0.93354597
0.0055689663
-0.99854544
0.0043234132
-1.0678179
0.0031665413
-1.1416902
0.0021395863
-1.2205776
0.0012695419
-1.3049342
0.00055679222
-1.3952468
0.013044342
-0.30805178
0.013013246
-0.3321918
0.012610359
-0.35741048
0.012630739
-0.38385455
0.012620006
-0.4116774
0.012789734
-0.44112811
0.012892836
-0.47246458
0.013006576
-0.50593893
0.012980005
-0.5417703
0.012833075
-0.58015602
0.012487959
-0.62127333
0.011950682
-0.66529187
0.011197367
-0.71237296
0.010249528
-0.76267481
0.0091308322
-0.81635799
0.0078905296
-0.87358951
0.0065857371
-0.93456274
0.0052807262
-0.99950276
0.0040370434
-1.0686884
0.0029071477
-1.1424578
0.001927697
-1.2212357
0.0011200329
-1.3054974
0.0004791823
-1.395726
0.013293882
-0.2854491
0.013420878
-0.30845942
0.012946587
-0.33252803
0.012956055
-0.3577358
0.012914394
-0.38414894
0.013083446
-0.41197112
0.013211068
-0.44144634
0.013381947
-0.47283995
0.013435497
-0.50639442
0.01338774
-0.54232496
0.013150801
-0.58081886
0.012724347
-0.62204699
0.012074414
-0.66616892
0.011214049
-0.71333748
0.010157062
-0.76370104
0.0089458885
-0.81741335
0.0076330801
-0.87463686
0.0062831128
-0.93556513
0.0049620708
-1.0004278
0.0037300267
-1.0695113
0.0026360556
-1.1431662
0.001710562
-1.2218262
0.0009693273
-1.3059876
0.00040203896
-1.396128
0.013497213
-0.26400991
0.013835093
-0.28586331
0.013303899
-0.30881673
0.013321135
-0.33289311
0.013241978
-0.35806338
0.013396054
-0.38446154
0.013527677
-0.41228772
0.013736221
-0.44180062
0.013854915
-0.47325937
0.013897153
-0.50690383
0.013764824
-0.54293899
0.013450654
-0.58154516
0.012910632
-0.62288321
0.012149117
-0.66710399
0.011169558
-0.71434998
0.010006148
-0.7647613
0.0087047727
-0.81848504
0.0073276808
-0.87568142
0.0059426003
-0.93654566
0.0046161801
-1.0013139
0.003406213
-1.0702814
0.0023562734
-1.1438119
0.0014906269
-1.2223475
0.00081901178
-1.3064045
0.0003261026
-1.3964541
0.013632824
-0.24375974
0.014223308
-0.26439813
0.013661429
-0.28622084
0.013716106
-0.3092117
0.013604817
-0.33325594
0.013738944
-0.35840627
0.013857998
-0.38479186
0.014083904
-0.41263541
0.014248909
-0.44219461
0.014367576
-0.47372979
0.014332468
-0.50747147
0.014128959
-0.54361729
0.013702688
-0.58233722
0.013049012
-0.6237831
0.012160768
-0.6680952
0.011062896
-0.71540673
0.0097929193
-0.76584945
0.0084084837
-0.81956585
0.0069764982
-0.87671532
0.0055674706
-0.93749695
0.0042472778
-1.002155
0.0030691677
-1.0709943
0.0020711143
-1.1443924
0.0012702556
-1.2227988
0.00067056398
-1.306749
0.00025203925
-1.3967062
0.013683706
-0.2247307
0.014550554
-0.24408699
0.013992354
-0.26472905
0.014120765
-0.2866255
0.013994696
-0.30960158
0.014115981
-0.33363298
0.014214197
-0.35876247
0.014440297
-0.38514826
0.014631146
-0.41301764
0.01480856
-0.4426356
0.014858713
-0.47425603
0.014760401
-0.50810292
0.014448565
-0.54436317
0.013909002
-0.58319721
0.013123686
-0.62474602
0.012107577
-0.66913988
0.010888571
-0.71650238
0.0095176447
-0.76695861
0.0080583447
-0.82064769
0.0065826872
-0.87773054
0.0051620926
-0.93841176
0.0038594403
-1.0029453
0.0027229954
-1.0716462
0.0017836399
-1.1449058
0.0010516905
-1.2231799
0.00052532674
-1.3070223
0.00018043629
-1.3968866
0.01363895
-0.20694843
0.014784673
-0.22496482
0.014267809
-0.24436244
0.014507297
-0.26511559
0.014393234
-0.28702404
0.014521038
-0.31000664
0.014601519
-0.3340203
0.01481817
-0.35914035
0.015016622
-0.38553373
0.015232907
-0.41344199
0.015351851
-0.44312873
0.015348633
-0.47484426
0.015148006
-0.50880236
0.014725654
-0.54517982
0.014052205
-0.58412573
0.013131999
-0.62577044
0.011982373
-0.67023368
0.010645926
-0.71763066
0.0091805559
-0.76808082
0.0076571578
-0.82172216
0.0061505131
-0.87871896
0.0047309161
-0.93928324
0.0034573989
-1.0036797
0.0023714713
-1.0722341
0.0014969199
-1.145351
0.00083700762
-1.2234916
0.00038450589
-1.3072264
0.00011182076
-1.3969984
0.013493513
-0.19042042
0.014900801
-0.20706455
0.014460941
-0.22515795
0.014844311
-0.24469946
0.014774179
-0.26549653
0.014937528
-0.28744053
0.015015477
-0.31042059
0.015223939
-0.33442607
0.0154185
-0.35954222
0.015655219
-0.38595605
0.01582362
-0.41391376
0.015900631
-0.44368073
0.01580323
-0.47549949
0.015497265
-0.50957397
0.014941451
-0.54606907
0.014128731
-0.58512246
0.013065102
-0.62685317
0.011783401
-0.67137115
0.010333887
-0.71878399
0.0087838544
-0.76920752
0.0072088222
-0.82278047
0.0056846164
-0.87967266
0.0042791568
-0.940105
0.0030456407
-1.0043538
0.0020185068
-1.0727556
0.0012137222
-1.1457277
0.00062813126
-1.2237352
0.00024917095
-1.3073637
4.6724076e-05
-1.3970451
0.013247929
-0.17513551
0.014884146
-0.19040377
0.014550671
-0.20715428
0.015100945
-0.22541459
0.015107221
-0.2450325
0.015340135
-0.26589914
0.015440989
-0.28786604
0.015654613
-0.31085127
0.015844233
-0.3348518
0.016088877
-0.35997588
0.016288001
-0.38642043
0.016426994
-0.41444012
0.016419771
-0.44429727
0.016224558
-0.47622678
0.015788225
-0.51042074
0.015091482
-0.54703182
0.014128114
-0.58618547
0.012920003
-0.62798977
0.011508104
-0.67254537
0.0099538041
-0.71995394
0.0083307999
-0.7703295
0.0067179465
-0.8238138
0.0051905191
-0.88058402
0.0038119406
-0.9408713
0.0026288625
-1.0049642
0.0016676369
-1.0732096
0.00093674299
-1.1460363
0.00042668324
-1.2239127
0.00012036497
-1.3074374
-1.407324e-05
-1.3970311
0.011154289
-0.1890426
0.014728525
-0.17497989
0.014524463
-0.19037756
0.015249881
-0.20730322
0.015362346
-0.22566971
0.015698291
-0.24539065
0.015853824
-0.26631197
0.016096576
-0.288308
0.016292241
-0.31129928
0.016542118
-0.33530505
0.016758368
-0.36044625
0.016940954
-0.38693439
0.017006924
-0.41502727
0.016911553
-0.44498427
0.016591681
-0.47703024
0.016015546
-0.51134481
0.015163762
-0.54806746
0.014046028
-0.5873115
0.01269254
-0.62917421
0.011156746
-0.67374831
0.0095080284
-0.72113117
0.0078257176
-0.77143727
0.0061901452
-0.82481343
0.0046738659
-0.88144595
0.0033346981
-0.94157713
0.0022114175
-1.005508
0.0013222869
-1.0735951
0.00066829171
-1.1462779
0.00023404411
-1.2240264
-1.0386573e-06
-1.3074504
-7.0452825e-05
-1.3969606
0.0094159475
-0.18578583
0.012776586
-0.18709066
0.014375422
-0.17483085
0.015269109
-0.19039679
0.01551382
-0.20745469
0.015980389
-0.22595181
0.016223904
-0.24576073
0.016526625
-0.26674202
0.016750321
-0.28876608
0.017014494
-0.31177165
0.017243562
-0.33579024
0.017455709
-0.360961
0.01757698
-0.38750444
0.017566137
-0.41568186
0.017354227
-0.44574681
0.016898479
-0.47791317
0.016165854
-0.5123469
0.015152573
-0.54917401
0.013876625
-0.58849558
0.012381677
-0.63039914
0.010730517
-0.6749708
0.0090003303
-0.72230578
0.0072740647
-0.77252119
0.0056314113
-0.82577097
0.0041407293
-0.88225198
0.0028526035
-0.94221832
0.0017975622
-1.0059833
0.00098545273
-1.0739123
0.00041018904
-1.1464541
5.1418002e-05
-1.2240789
-0.00011509111
-1.3074058
-0.00012462591
-1.396836
0.0079479491
-0.18241884
0.011136901
-0.18414614
0.012485251
-0.18520049
0.015147177
-0.17470892
0.015542904
-0.19042587
0.016157736
-0.20763204
0.016519569
-0.22624747
0.016914981
-0.24614909
0.017196346
-0.26718805
0.017494957
-0.28924655
0.017744137
-0.31227223
0.01798049
-0.33631502
0.018142751
-0.36152677
0.018199525
-0.38813783
0.018082212
-0.41640984
0.017741019
-0.44658935
0.017130334
-0.47887765
0.016232029
-0.51342635
0.01505036
-0.55034774
0.013617396
-0.5897313
0.011987215
-0.63165584
0.010232353
-0.67620282
0.0084357377
-0.72346745
0.0066819704
-0.77357175
0.0050483221
-0.82667856
0.0035970632
-0.88299644
0.0023707906
-0.94279155
0.0013911163
-1.0063889
0.00065978854
-1.0741619
0.00016414875
-1.1465668
-0.00012077609
-1.2240732
-0.00022176071
-1.3073086
-0.00017422979
-1.3966618
0.0066684225
-0.17905407
0.0097051759
-0.18098711
0.010893892
-0.18255478
0.013318391
-0.1833717
0.015437878
-0.1746039
0.016207687
-0.19047582
0.016711772
-0.20782424
0.017229413
-0.2265619
0.017601044
-0.24655379
0.01796225
-0.26765534
0.018250122
-0.28975253
0.018516593
-0.31280833
0.018713647
-0.33688592
0.018823966
-0.36215121
0.018785603
-0.38884122
0.018547888
-0.41721671
0.018056223
-0.44751524
0.017278758
-0.47992438
0.016204825
-0.51458082
0.014853
-0.55158335
0.013266559
-0.59101065
0.011510985
-0.63293447
0.0096665681
-0.67743365
0.0078202637
-0.72460575
0.0060563285
-0.77457975
0.0044475189
-0.82752902
0.0030488765
-0.88367452
0.0018939832
-0.94329442
0.00099557339
-1.0067247
0.00034756407
-1.0743453
-6.8652542e-05
-1.1466189
-0.0002817459
-1.2240132
-0.00032037
-1.3071625
-0.00021966542
-1.3964421
0.0055062903
-0.17581933
0.0083881404
-0.17773704
0.009503963
-0.17959718
0.011763342
-0.18099973
0.013673608
-0.18160743
0.016116881
-0.17451309
0.016777328
-0.19054138
0.017439508
-0.20803434
0.017932063
-0.22689292
0.018387449
-0.24697899
0.018741099
-0.26814632
0.019054839
-0.29029078
0.019291532
-0.31338621
0.019448859
-0.33751081
0.019475896
-0.36284151
0.019327674
-0.38962101
0.018946524
-0.41810701
0.018290057
-0.44852654
0.017332871
-0.48105242
0.016078417
-0.51580624
0.01455698
-0.55287377
0.012824588
-0.59232425
0.010956303
-0.63422421
0.0090387806
-0.67865217
0.0071608897
-0.72571031
0.0054043264
-0.77553656
0.0038358376
-0.82831598
0.0025018344
-0.88428237
0.0014265924
-0.94372543
0.00061397461
-1.0069911
5.0654012e-05
-1.0744646
-0.00028716523
-1.1466135
-0.00043110004
-1.2239025
-0.00041093993
-1.3069712
-0.00026085871
-1.3961812
0.0044042932
-0.17284879
0.0071081615
-0.17453935
0.0082250403
-0.17645811
0.010380435
-0.17821428
0.012164674
-0.1794908
0.014401143
-0.1798917
0.016700209
-0.17443597
0.017520267
-0.19062213
0.018158309
-0.20826059
0.018737918
-0.22724339
0.019188546
-0.24742643
0.01957536
-0.26866684
0.019867854
-0.2908671
0.020076405
-0.31401376
0.020162279
-0.33819719
0.020090962
-0.3636048
0.019808317
-0.3904828
0.019267164
-0.41908412
0.018430098
-0.44962377
0.0172851
-0.48225911
0.015847454
-0.51709671
0.014161196
-0.55421038
0.012293532
-0.59366148
0.010328098
-0.63551352
0.0083557951
-0.67984707
0.0064651566
-0.72677114
0.0047335249
-0.77643425
0.0032198781
-0.82903403
0.0019613306
-0.88481711
0.00097254814
-0.94408401
0.0002489275
-1.0071894
-0.00022942846
-1.0745223
-0.00049067202
-1.1465539
-0.00056854846
-1.2237449
-0.00049334074
-1.3067387
-0.00029783999
-1.3958834
0.0033211857
-0.17027525
0.0058070687
-0.1715477
0.0069800543
-0.17329436
0.009075072
-0.17515275
0.01080885
-0.17685845
0.012920383
-0.17801004
0.015030508
-0.17822199
0.017454765
-0.17437047
0.018253642
-0.19071747
0.01898166
-0.20850433
0.019559705
-0.22761455
0.020049772
-0.24790084
0.020423148
-0.26922213
0.020698415
-0.29148911
0.020847096
-0.31469858
0.02084655
-0.33895278
0.02065111
-0.36444759
0.020215554
-0.39143119
0.01949595
-0.42014997
0.01846702
-0.45080569
0.017128193
-0.48353985
0.015509068
-0.51844458
0.013666181
-0.55558302
0.011677332
-0.59501071
0.0096327094
-0.63679044
0.0076252692
-0.68100719
0.0057411981
-0.72777881
0.0040514056
-0.77726577
0.0026060507
-0.82967874
0.0014322845
-0.88527685
0.00053530975
-0.94437039
-9.7418515e-05
-1.0073214
-0.0004915419
-1.0745214
-0.00067869937
-1.1464438
-0.00069400769
-1.2235442
-0.00056766034
-1.3064689
-0.00033080101
-1.3955526
0.0022317578
-0.16822027
0.0044492442
-0.16891743
0.005711085
-0.17027873
0.0077674474
-0.17198674
0.009509591
-0.17385349
0.011568806
-0.17550687
0.013579289
-0.17655882
0.015822481
-0.17658971
0.018199159
-0.17431599
0.019091217
-0.19082703
0.019821975
-0.2087666
0.020445005
-0.22800978
0.020929056
-0.24840675
0.021295522
-0.26981924
0.021522316
-0.29216433
0.021596731
-0.31544876
0.021483142
-0.33978481
0.021143532
-0.36537557
0.020534225
-0.39246947
0.019621851
-0.4213048
0.018391655
-0.45206915
0.016857377
-0.48488815
0.01506206
-0.51984046
0.013074603
-0.55698029
0.010981564
-0.59635957
0.0088776397
-0.63804281
0.0068557083
-0.6821217
0.0049972705
-0.72872468
0.0033653839
-0.77802511
0.0020003349
-0.8302468
0.00091912611
-0.88566067
0.00011781008
-0.94458562
-0.00042336058
-1.0073896
-0.00073488521
-1.0744653
-0.00085101952
-1.1462868
-0.00080755053
-1.2233043
-0.00063409805
-1.3061656
-0.00035985641
-1.3951927
0.0011249498
-0.166785
0.0030215297
-0.16679256
0.0043819228
-0.16758827
0.0063983738
-0.16890966
0.0081843001
-0.17066145
0.010246497
-0.17253118
0.012236305
-0.17416389
0.014387653
-0.17512399
0.01660151
-0.17499206
0.019046565
-0.17427133
0.019946878
-0.19095193
0.020727736
-0.20904933
0.021352135
-0.22843286
0.021839063
-0.24895029
0.022168436
-0.27046536
0.022333401
-0.292901
0.02230648
-0.3162721
0.022058635
-0.34069991
0.021551914
-0.36639326
0.020751679
-0.39359929
0.019633803
-0.42254695
0.018197227
-0.453409
0.016469544
-0.48629564
0.014507559
-0.52127342
0.012390971
-0.5583897
0.010213277
-0.5976952
0.0080715227
-0.63925862
0.0060559846
-0.68318041
0.004241735
-0.72960103
0.0026825351
-0.77870731
0.001408235
-0.8307359
0.00042571499
-0.88596857
-0.00027753944
-0.94473144
-0.00072764016
-1.0073968
-0.00095897732
-1.0743573
-0.0010076308
-1.1460867
-0.00090939869
-1.223029
-0.00069289558
-1.3058326
-0.00038521562
-1.3948075
-0.1660421
-3.1072205e-09
0.0015309874
-0.16529446
0.0029794881
-0.16539012
0.0049336664
-0.16612356
0.00677245
-0.16749781
0.0088677619
-0.16928271
0.010897462
-0.17119234
0.013039091
-0.17281533
0.015184928
-0.17370741
0.017475205
-0.1734207
0.019912823
-0.17423728
0.020868498
-0.19109269
0.021658376
-0.20935557
0.022294943
-0.22888874
0.022756233
-0.24953809
0.023036619
-0.27116858
0.023112748
-0.29370727
0.022962557
-0.31717602
0.022555731
-0.34170373
0.02186211
-0.36750369
0.020855012
-0.3948205
0.019522972
-0.4238727
0.01787858
-0.45481803
0.015964048
-0.48775213
0.013848724
-0.52273117
0.011621577
-0.559798
0.0093809581
-0.59900464
0.007223639
-0.64042628
0.0052352928
-0.68417397
0.0034827504
-0.73040124
0.0020095088
-0.77930858
0.00083466487
-0.83114485
-4.4671955e-05
-0.88620144
-0.00064885967
-0.94481022
-0.0010093899
-1.0073464
-0.0011636399
-1.0742013
-0.0011487274
-1.1458474
-0.00099988509
-1.222722
-0.00074438832
-1.3054734
-0.00040706861
-1.3944005
-0.16451111
-6.9806759e-09
-0.1660421
-0.0011249559
0.0015112269
-0.1638262
0.0033652952
-0.16382175
0.0052405301
-0.16459164
0.007370394
-0.16600044
0.0094748592
-0.16786011
0.01166968
-0.16982293
0.013834649
-0.17146505
0.016066221
-0.17229843
0.018366379
-0.17187426
0.020844762
-0.17421354
0.021817394
-0.19125171
0.02262828
-0.2096889
0.023250707
-0.22938322
0.023676237
-0.25017771
0.023881312
-0.27193714
0.023846467
-0.29459118
0.023546874
-0.31816716
0.022958951
-0.34280057
0.022059465
-0.36870814
0.020833325
-0.39613085
0.019282063
-0.42527618
0.017433095
-0.45628708
0.015342429
-0.48924583
0.013090778
-0.52420037
0.010774462
-0.56119151
0.0084940476
-0.60027505
0.0063438533
-0.64153484
0.004402812
-0.68509403
0.0027281441
-0.73111988
0.0013523826
-0.7798263
0.00028391866
-0.83147344
-0.00048936915
-0.88636093
-0.00099476476
-0.94482485
-0.0012681308
-1.0072419
-0.0013489555
-1.0740011
-0.0012746694
-1.1455726
-0.0010794448
-1.222387
-0.00078893621
-1.3050915
-0.00042563187
-1.3939748
-0.16299987
-8.8732902e-09
-0.16451111
-0.0015310014
-0.166785
-0.0022317638
0.0017092552
-0.16217016
0.0035835535
-0.16216477
0.0057215211
-0.16294276
0.0079048117
-0.16443039
0.010187382
-0.16637781
0.012438954
-0.16842723
0.014702377
-0.17010121
0.016965726
-0.17089777
0.019317197
-0.17034669
0.021805517
-0.17420167
0.022807763
-0.19143119
0.023615924
-0.21005412
0.024215966
-0.22992295
0.024580756
-0.25087715
0.024688777
-0.27277945
0.024515914
-0.29556022
0.024042823
-0.31925103
0.02325201
-0.34399311
0.022131048
-0.37000586
0.02067713
-0.39752592
0.018906325
-0.42674941
0.016860457
-0.45780511
0.014608545
-0.4907636
0.012241006
-0.52566691
0.0098589446
-0.5625564
0.0075628702
-0.60149406
0.0054422491
-0.64257427
0.0035675324
-0.68593342
0.0019852306
-0.73175273
0.00071659913
-0.78025898
-0.00024038822
-0.83172243
-0.00090631097
-0.88644938
-0.0013143275
-0.94477865
-0.0015037285
-1.0070872
-0.001515237
-1.0737605
-0.0013859578
-1.1452661
-0.0011485824
-1.2220273
-0.00082693991
-1.3046902
-0.00044112387
-1.3935337
-0.16129061
-1.0839849e-08
-0.16299987
-0.0015112443
-0.16529446
-0.0030215432
-0.16822027
-0.0033211915
0.0018229613
-0.16040957
0.0039202752
-0.16036353
0.0061542516
-0.1611922
0.0085261001
-0.16276911
0.010900487
-0.16483934
0.013268455
-0.16699331
0.015590104
-0.16872558
0.017917766
-0.16949834
0.020295242
-0.16883642
0.022808945
-0.17420285
0.023819558
-0.19163483
0.024618495
-0.21045665
0.02517311
-0.2305153
0.02545643
-0.25164481
0.025440083
-0.27370362
0.025103603
-0.296621
0.02443266
-0.32043168
0.023420027
-0.34528209
0.022065162
-0.3713939
0.020379426
-0.39899902
0.018393385
-0.42828234
0.016162883
-0.45935945
0.013768617
-0.49229121
0.011308305
-0.52711627
0.00888556
-0.56387909
0.006598247
-0.60265006
0.0045289127
-0.64353566
0.0027380361
-0.68668622
0.0012607095
-0.73229684
0.00010688207
-0.78060625
-0.00073532003
-0.83189342
-0.0012939758
-0.88646973
-0.0016070671
-0.94467531
-0.0017163514
-1.006886
-0.0016629917
-1.0734835
-0.0014832022
-1.1449314
-0.0012078592
-1.2216464
-0.00085881613
-1.3042725
-0.00045376609
-1.3930799
-0.15946763
-1.2218897e-08
-0.16129061
-0.0017092768
-0.1638262
-0.0029795053
-0.16679255
-0.0044492573
-0.17027525
-0.0044042986
0.0019957031
-0.15848499
0.0042255034
-0.15843478
0.0066543658
-0.15932047
0.0091508013
-0.16101942
0.011663484
-0.16323437
0.014119564
-0.16552277
0.01652306
-0.16733088
0.018896179
-0.16809928
0.021312366
-0.16733984
0.023836287
-0.17421958
0.024850316
-0.19186665
0.02561932
-0.21090286
0.026109311
-0.23116818
0.02628434
-0.25248906
0.026117161
-0.27471718
0.025590546
-0.29777889
0.024699679
-0.32171133
0.023449125
-0.34666606
0.021852484
-0.37286695
0.019935617
-0.40054126
0.017743569
-0.42986302
0.01534523
-0.46093606
0.01283081
-0.49381371
0.010303143
-0.52853386
0.0078656578
-0.5651465
0.0056112435
-0.60373239
0.003613677
-0.6444113
0.001922353
-0.68734787
0.00056054927
-0.7327505
-0.00047279146
-0.78086878
-0.0011986158
-0.83198878
-0.0016513758
-0.88642543
-0.0018728912
-0.94451877
-0.0019064335
-1.0066426
-0.0017928849
-1.0731738
-0.0015670985
-1.1445722
-0.0012578728
-1.2212473
-0.00088499251
-1.3038413
-0.00046377999
-1.3926162
-0.15747192
-1.3510867e-08
-0.15946763
-0.0018229858
-0.16217016
-0.0033653162
-0.16539012
-0.0043819392
-0.16891742
-0.0058070811
-0.17284879
-0.0055062953
0.0021536673
-0.15641316
0.0045775237
-0.15635794
0.007157729
-0.1573274
0.0098160119
-0.15917195
0.01244825
-0.16156306
0.015008933
-0.16400864
0.017481433
-0.16591613
0.019909438
-0.16669635
0.022352377
-0.16585593
0.024885352
-0.17425461
0.025884428
-0.19213175
0.026606155
-0.21139971
0.027005953
-0.23188979
0.027046139
-0.25341804
0.026700058
-0.27582669
0.025958416
-0.29903762
0.024827907
-0.32309012
0.023327618
-0.34814119
0.02148606
-0.3744174
0.019343923
-0.40214161
0.016960098
-0.43147789
0.014414626
-0.46251988
0.011805227
-0.4953158
0.0092371492
-0.52990535
0.0068111149
-0.56634637
0.0046128743
-0.60473159
0.0027059318
-0.64519487
0.0011278022
-0.68791512
-0.00011006999
-0.73311322
-0.0010192191
-0.78104817
-0.0016286102
-0.83201154
-0.0019780232
-0.88632029
-0.0021120567
-0.94431315
-0.002074628
-1.0063609
-0.0019057089
-1.0728352
-0.001638404
-1.1441917
-0.001299244
-1.2208331
-0.00090589937
-1.3033992
-0.00047138261
-1.3921448
-0.15531823
-1.4296398e-08
-0.15747192
-0.0019957297
-0.16040957
-0.0035835772
-0.16382175
-0.0049336869
-0.16758826
-0.0057111007
-0.17154769
-0.0071081732
-0.17581932
-0.006668427
0.00233655
-0.15417218
0.004930446
-0.15413065
0.0076930446
-0.15520443
0.010500938
-0.15722464
0.01326502
-0.15981914
0.01592234
-0.16244955
0.018470356
-0.16447705
0.020944537
-0.16528851
0.023413201
-0.16438378
0.025941472
-0.17431166
0.026910198
-0.1924358
0.027560927
-0.21195468
0.027844703
-0.23268836
0.02772124
-0.25443922
0.027169096
-0.27703737
0.026189295
-0.30039901
0.02480332
-0.32456582
0.023046107
-0.34970124
0.020961817
-0.37603529
0.018605673
-0.40378718
0.016048759
-0.43311202
0.013380499
-0.46409515
0.010703502
-0.49678215
0.008122805
-0.53121704
0.0057340114
-0.56746751
0.0036138709
-0.60563953
0.0018144193
-0.64588149
0.00036090554
-0.6883861
-0.00074681102
-0.73338563
-0.0015299204
-0.78114686
-0.0020242544
-0.83196531
-0.0022738704
-0.88615848
-0.0023251175
-0.94406266
-0.0022217697
-1.0060448
-0.0020023522
-1.0724712
-0.001697918
-1.143793
-0.0013326021
-1.2204064
-0.0009219613
-1.3029486
-0.00047678518
-1.391668
-0.15298167
-1.4672789e-08
-0.15531823
-0.0021536954
-0.15848499
-0.0039203014
-0.16216477
-0.0052405532
-0.16612356
-0.0063983931
-0.17027873
-0.006980069
-0.17453934
-0.0083881512
-0.17905406
-0.0079479533
0.002517748
-0.15175949
0.0053064558
-0.15174407
0.008244196
-0.15294769
0.011212186
-0.1551718
0.014103908
-0.15800071
0.016862462
-0.16084166
0.019479853
-0.16301237
0.02199859
-0.1638739
0.024481722
-0.16292403
0.026993481
-0.17439494
0.027910247
-0.19278512
0.028465554
-0.21257553
0.028604687
-0.2335718
0.028288955
-0.25555908
0.027504662
-0.27835273
0.026266925
-0.30186262
0.024614032
-0.32613374
0.022598073
-0.35133749
0.020278964
-0.37770858
0.017725034
-0.40546346
0.015018009
-0.43474953
0.012254199
-0.46564585
0.0095384787
-0.49819782
0.0069730913
-0.53245612
0.0046463505
-0.56849999
0.0026244251
-0.60644953
0.00094710762
-0.64646769
-0.0003727008
-0.68876021
-0.0013462002
-0.73356935
-0.00200309
-0.78116803
-0.002385051
-0.83185413
-0.0025392611
-0.88594434
-0.0025128782
-0.94377155
-0.0023488369
-1.0056983
-0.0020837731
-1.0720854
-0.0017464599
-1.1433791
-0.0013585717
-1.2199698
-0.00093359299
-1.3024918
-0.00048019269
-1.3911878
-0.15046391
-1.4743876e-08
-0.15298167
-0.0023365793
-0.15641316
-0.0042255311
-0.16036353
-0.0057215461
-0.16459164
-0.0067724717
-0.16890965
-0.0077674658
-0.17329436
-0.0082250542
-0.17773703
-0.0097051859
-0.18241883
-0.0094159513
0.0027119846
-0.14916501
0.0056933557
-0.14919323
0.0088161242
-0.15055163
0.011942898
-0.15301079
0.014965671
-0.15610392
0.017821173
-0.15918298
0.020506129
-0.16151991
0.023060816
-0.16245299
0.025548042
-0.16147859
0.028024691
-0.17450939
0.028866891
-0.19318645
0.029299185
-0.21327003
0.029264573
-0.23454742
0.028728303
-0.25678272
0.02768847
-0.27977428
0.026176976
-0.30342556
0.024250966
-0.32778664
0.02198039
-0.35303892
0.019439782
-0.37942333
0.016709199
-0.40715465
0.013878617
-0.43637395
0.011048669
-0.46715604
0.0083238383
-0.49954857
0.0058011693
-0.53361094
0.0035597554
-0.56943532
0.0016540198
-0.60715644
0.00011106843
-0.64695146
-0.0010683219
-0.68903808
-0.0019055172
-0.73366693
-0.0024376142
-0.78111547
-0.002710997
-0.8316824
-0.0027748751
-0.88568234
-0.0026763483
-0.94344404
-0.0024569166
-1.0053252
-0.0021509685
-1.0716809
-0.0017848477
-1.1429529
-0.001377768
-1.2195256
-0.00094120442
-1.3020308
-0.00048179724
-1.390706
-0.14775191
-1.470948e-08
-0.15046391
-0.0025177775
-0.15417219
-0.0045775521
-0.15843478
-0.0061542781
-0.16294277
-0.007370418
-0.1674978
-0.0081843208
-0.17198673
-0.0090750892
-0.17645811
-0.0095039758
-0.1809871
-0.01113691
-0.18578582
-0.011154292
0.002911489
-0.14638315
0.0060948524
-0.14647195
0.0094036798
-0.14801241
0.012692358
-0.15073748
0.015843697
-0.15412645
0.01879436
-0.15747121
0.021539807
-0.1599989
0.024121468
-0.16102642
0.026597261
-0.16005116
0.029017894
-0.17466039
0.029759549
-0.19364682