/*--------------------------------*- C++ -*----------------------------------*\
| =========                 |                                                 |
| \\      /  F ield         | OpenFOAM: The Open Source CFD Toolbox           |
|  \\    /   O peration     | Version:  5.0                                   |
|   \\  /    A nd           | Web:      www.OpenFOAM.org                      |
|    \\/     M anipulation  |                                                 |
\*---------------------------------------------------------------------------*/
FoamFile
{
    version     2.0;
    format      ascii;
    class       volScalarField;
    location    "105";
    object      pMean;
}
// * * * * * * * * * * * * * * * * * * * * * * * * * * * * * * * * * * * * * //

dimensions      [0 2 -2 0 0 0 0];

internalField   nonuniform List<scalar> 
9200
(
-0.00046718466
-0.00046007612
-0.0010386134
-0.00045350568
-0.0010280775
-0.0017750178
-0.0004442673
-0.0010108196
-0.0017560108
-0.0024324643
-0.00043243112
-0.00098590778
-0.0017274672
-0.0024088695
-0.003115629
-0.0004189772
-0.0009535574
-0.0016870128
-0.0023706588
-0.0030873632
-0.0037755055
-0.00040331451
-0.00091626271
-0.001634431
-0.0023170052
-0.0030404075
-0.0037447584
-0.0044317263
-0.00038635425
-0.00087311776
-0.0015734155
-0.0022466529
-0.0029751781
-0.0036911908
-0.0043998712
-0.0050745013
-0.00036806015
-0.00082596133
-0.0015028803
-0.0021646492
-0.002888796
-0.0036175323
-0.0043416473
-0.0050434871
-0.0057073499
-0.00034896115
-0.00077491189
-0.0014254603
-0.0020695295
-0.0027876285
-0.0035185367
-0.0042624595
-0.0049829405
-0.005679176
-0.0063256848
-0.00032931146
-0.00072102269
-0.0013416177
-0.0019646644
-0.0026696681
-0.003401912
-0.0041540099
-0.0049016657
-0.0056190495
-0.0063025597
-0.0069301446
-0.0003094727
-0.00066486166
-0.0012530467
-0.0018507175
-0.0025390303
-0.0032647188
-0.0040253379
-0.0047875646
-0.005539708
-0.0062457545
-0.0069143516
-0.0075166246
-0.00028972003
-0.00060715689
-0.0011608623
-0.0017298937
-0.0023966066
-0.0031115792
-0.0038723264
-0.0046509924
-0.0054244461
-0.0061725941
-0.0068640742
-0.0075105459
-0.0080840428
-0.00027024567
-0.00054851663
-0.0010663795
-0.0016037198
-0.0022450814
-0.0029433671
-0.0037000803
-0.0044862676
-0.0052848317
-0.0060609934
-0.0068017813
-0.0074701106
-0.0080900492
-0.0086285343
-0.00025102879
-0.00048954648
-0.00097071882
-0.0014739879
-0.002086404
-0.0027633223
-0.0035092932
-0.0042988089
-0.0051132958
-0.0059236826
-0.0066992402
-0.0074235475
-0.0080629551
-0.0086490379
-0.0091483869
-0.00023173923
-0.0004308801
-0.00087486993
-0.0013422655
-0.0019228835
-0.0025737968
-0.0033035776
-0.004089027
-0.004915407
-0.0057507893
-0.0065701906
-0.0073357547
-0.0080372617
-0.0086388287
-0.0091856272
-0.009640057
-0.00021157901
-0.00037329048
-0.00077967658
-0.0012100296
-0.001756566
-0.0023776061
-0.0030856315
-0.0038607813
-0.0046910249
-0.00554781
-0.0064021044
-0.0072213952
-0.007970316
-0.0086391842
-0.0091956959
-0.0096962275
-0.010100988
-0.00018914469
-0.00031774394
-0.00068581328
-0.0010786378
-0.0015893949
-0.0021772855
-0.0028587394
-0.0036169832
-0.0044441357
-0.0053138337
-0.0062001944
-0.007064882
-0.0078775604
-0.0085993439
-0.0092272829
-0.0097299133
-0.010178255
-0.010528463
-0.00016243552
-0.00026542943
-0.00059372511
-0.00094937791
-0.0014231028
-0.0019752856
-0.0026259146
-0.0033613268
-0.0041777681
-0.0050528044
-0.0059624889
-0.006870868
-0.0077400191
-0.008535442
-0.0092209949
-0.0097978088
-0.010238954
-0.010628653
-0.010920216
-0.00012905203
-0.0002177039
-0.00050373903
-0.0008234976
-0.0012591848
-0.0017738383
-0.0023900951
-0.0030972901
-0.0038959787
-0.0047677233
-0.0056926925
-0.0066360641
-0.0075615269
-0.0084247577
-0.0091934868
-0.0098314774
-0.010347971
-0.010719455
-0.011044926
-0.011274235
-8.6536318e-05
-0.00017604852
-0.00041604715
-0.00070213867
-0.0010989122
-0.0015749104
-0.0021539591
-0.0028283348
-0.0036026896
-0.0044629229
-0.0053936217
-0.0063637095
-0.0073371618
-0.0082700611
-0.0091180283
-0.009847996
-0.010427887
-0.010874128
-0.011168591
-0.01142477
-0.011588882
-3.2803103e-05
-0.00014188816
-0.00033065619
-0.0005864439
-0.00094340278
-0.001380185
-0.0019198958
-0.0025576609
-0.0033018833
-0.0041427224
-0.0050697784
-0.0060562304
-0.0070694453
-0.0080644893
-0.0089960575
-0.0098164019
-0.010496093
-0.01100629
-0.011373214
-0.011583641
-0.011766235
-0.011862912
3.3437421e-05
-0.00011634397
-0.00024756288
-0.00047755052
-0.00079358108
-0.001191075
-0.0016899718
-0.0022881624
-0.0029973041
-0.0038116217
-0.004725807
-0.0057181439
-0.006760183
-0.0078095674
-0.008818468
-0.0097365777
-0.010517199
-0.011133631
-0.011563245
-0.011841891
-0.011962261
-0.012067736
-0.012095478
0.00011237088
-0.00010009343
-0.00016689491
-0.00037643654
-0.00065021511
-0.001008849
-0.0014659551
-0.0020223967
-0.0026924052
-0.0034739514
-0.0043666924
-0.0053543109
-0.0064137238
-0.0075062057
-0.0085854918
-0.0095968773
-0.01048934
-0.011216249
-0.011756877
-0.012094885
-0.012277231
-0.012302407
-0.012328097
-0.012286133
0.00020289852
-9.347472e-05
-8.8966918e-05
-0.00028387837
-0.00051394946
-0.00083466157
-0.0012493543
-0.0017625622
-0.0023902721
-0.0031337782
-0.0039973503
-0.0049701536
-0.0060350028
-0.0071583522
-0.0082968499
-0.0093959376
-0.010398069
-0.011250371
-0.011909649
-0.012361425
-0.0125977
-0.012676464
-0.012602397
-0.012546547
-0.012434859
0.0003027421
-9.6851393e-05
-1.4177793e-05
-0.00020039493
-0.0003853353
-0.00066956777
-0.0010414612
-0.0015105326
-0.0020936116
-0.0027947968
-0.0036224953
-0.0045711669
-0.0056297864
-0.0067708295
-0.007955825
-0.0091319656
-0.010240126
-0.011218534
-0.012015804
-0.012592609
-0.012943146
-0.013068149
-0.013037207
-0.01286095
-0.012722724
-0.012542009
0.00040865385
-0.00011028985
5.7456209e-05
-0.00012622692
-0.00026489633
-0.00051449948
-0.00084339348
-0.0012679534
-0.0018047611
-0.0024602858
-0.003246496
-0.0041627411
-0.005204099
-0.0063496138
-0.0075668965
-0.0088072726
-0.010011875
-0.011115296
-0.012054697
-0.012780653
-0.013260443
-0.013497676
-0.01350306
-0.01335744
-0.013077207
-0.012856678
-0.012608225
0.00051670209
-0.0001326883
0.00012617665
-6.1376817e-05
-0.00015299835
-0.00037019419
-0.00065615339
-0.0010363121
-0.0015257491
-0.0021331186
-0.002873299
-0.0037499653
-0.0047640038
-0.005901181
-0.0071360708
-0.0084257164
-0.009714324
-0.010934847
-0.012018459
-0.012901648
-0.013539839
-0.013908033
-0.014020947
-0.01389949
-0.013635584
-0.013250735
-0.012948816
-0.012634505
0.00062296445
-0.00016128993
0.00019157861
-5.7516318e-06
-4.9811753e-05
-0.00023735026
-0.00048061468
-0.00081693521
-0.0012583698
-0.0018158013
-0.0025064018
-0.0033375161
-0.0043153472
-0.0054322351
-0.0066701463
-0.0079931014
-0.0093503891
-0.010676532
-0.011898788
-0.01294509
-0.013754151
-0.014287617
-0.014530398
-0.014508977
-0.014254927
-0.013870543
-0.013381544
-0.012999878
-0.012622281
0.00072203636
-0.00019068342
0.00025199644
4.0688752e-05
4.4494892e-05
-0.00011653344
-0.00031744338
-0.00061101029
-0.0010042049
-0.001510546
-0.0021488823
-0.0029296012
-0.0038636059
-0.0049493934
-0.0061763963
-0.0075163684
-0.0089253888
-0.010341971
-0.011693006
-0.012899904
-0.013890105
-0.014606054
-0.015018177
-0.015122493
-0.014958172
-0.014567246
-0.014061656
-0.013470049
-0.013011015
-0.012573002
0.00081609845
-0.00021784192
0.00030486415
7.8648509e-05
0.00012939998
-8.0187129e-06
-0.00016713739
-0.00041952882
-0.00076462459
-0.0012193682
-0.0018034728
-0.0025299656
-0.0034137882
-0.004458977
-0.0056621874
-0.0070032398
-0.0084461721
-0.0099356582
-0.01140105
-0.012761034
-0.013933619
-0.014847241
-0.015450891
-0.015725438
-0.015679544
-0.015365262
-0.014834783
-0.014208511
-0.013516981
-0.012983671
-0.012488264
0.00091771208
-0.00024462838
0.00034726851
0.00011281858
0.00020404067
8.8045587e-05
-3.0090044e-05
-0.0002432737
-0.00054085408
-0.00094410981
-0.0014726274
-0.0021419538
-0.0029704092
-0.0039668729
-0.0051347113
-0.0064617681
-0.0079207339
-0.0094640588
-0.011026212
-0.012526329
-0.013876925
-0.014993916
-0.015809636
-0.016281674
-0.016403428
-0.01619701
-0.01572745
-0.015056291
-0.014311121
-0.013523342
-0.012919305
-0.012370248
0.0010207795
-0.00027307628
0.00038117562
0.00014532312
0.00027071081
0.00017202243
9.2944636e-05
-8.2906004e-05
-0.00033390456
-0.00068635968
-0.001158555
-0.0017686025
-0.0025375326
-0.0034784681
-0.0046007905
-0.0059000044
-0.007357699
-0.0089352003
-0.010574221
-0.012197468
-0.013715392
-0.01503532
-0.016073889
-0.01676962
-0.017091296
-0.017046254
-0.016670783
-0.016042406
-0.015231059
-0.014369973
-0.013490284
-0.012819601
-0.01222154
0.0011206576
-0.00030230611
0.0004186933
0.00016689298
0.00033137748
0.00024967968
0.00020136378
6.0868189e-05
-0.00014455585
-0.00044738301
-0.00086323627
-0.0014127017
-0.002118855
-0.0029986638
-0.0040667705
-0.0053257419
-0.0067659241
-0.0083581058
-0.010052835
-0.011779034
-0.013448641
-0.014963962
-0.016229675
-0.017165501
-0.017719111
-0.017872515
-0.017648356
-0.017097208
-0.016308353
-0.015358843
-0.01438592
-0.013419369
-0.012686735
-0.012044328
0.0012140753
-0.00033178009
0.00045725979
0.00018581879
0.00037884253
0.00032148925
0.00030119839
0.0001878735
2.6102862e-05
-0.00022824461
-0.00058834723
-0.0010767547
-0.0017177767
-0.0025319483
-0.003538494
-0.0047463587
-0.0061541724
-0.0077423278
-0.009471235
-0.011278151
-0.013079669
-0.014776962
-0.016266311
-0.017451989
-0.018259969
-0.018649624
-0.018618254
-0.018204557
-0.017473202
-0.016524064
-0.015439882
-0.014360237
-0.013312558
-0.012523141
-0.011840737
0.0012979712
-0.00036033499
0.00049329788
0.00020610334
0.00042421006
0.00037309634
0.00039428786
0.0003061417
0.0001774289
-3.0315942e-05
-0.00033528416
-0.0007628906
-0.0013374098
-0.0020824828
-0.003021354
-0.0041687466
-0.0055308963
-0.0070975541
-0.0088394985
-0.010703845
-0.012614533
-0.014475249
-0.016177989
-0.017614942
-0.018693154
-0.019347775
-0.019552583
-0.019321674
-0.018710222
-0.017796272
-0.016688876
-0.015474867
-0.014294513
-0.013171964
-0.012331065
-0.011612894
0.0013693323
-0.00038656316
0.00052529618
0.00022494085
0.0004686411
0.00042210832
0.00046382315
0.00041673533
0.00031893788
0.00014566851
-0.00010579423
-0.00047290304
-0.00098047613
-0.0016541221
-0.0025203782
-0.0035993325
-0.0049041178
-0.0064333199
-0.0081681339
-0.010066475
-0.01206172
-0.014063335
-0.015963076
-0.017645234
-0.019000882
-0.019942943
-0.020418985
-0.02041944
-0.019976392
-0.019161317
-0.018064575
-0.016802676
-0.015464904
-0.014190615
-0.012999813
-0.012112791
-0.011362972
0.0014254473
-0.00040919451
0.00055282154
0.0002407753
0.00051087658
0.00047116145
0.00052960221
0.00049746243
0.00045248605
0.00031118315
9.8968315e-05
-0.00020901199
-0.00064930051
-0.0012502804
-0.0020402694
-0.0030441524
-0.0042814057
-0.0057588353
-0.00746772
-0.0093771985
-0.011431553
-0.013548719
-0.015624025
-0.017538189
-0.019170379
-0.020413628
-0.021190329
-0.021463399
-0.021241928
-0.020576576
-0.019554506
-0.018276907
-0.016865876
-0.015411459
-0.014050609
-0.012798412
-0.0118706
-0.01109322
0.0014640972
-0.0004271339
0.00057544836
0.00025380385
0.00054828309
0.00051752979
0.00059348347
0.00057517254
0.00054912339
0.00046800988
0.00029238475
2.7195327e-05
-0.0003466362
-0.00087391864
-0.0015852876
-0.0025089031
-0.003669931
-0.0050829112
-0.0067486677
-0.0086475414
-0.010735594
-0.012941284
-0.015166828
-0.017293657
-0.019193483
-0.020743173
-0.021841448
-0.022423641
-0.022470833
-0.022012211
-0.021117091
-0.019887178
-0.018432711
-0.016879368
-0.015316319
-0.013876723
-0.012570104
-0.011606773
-0.010805798
0.0014837808
-0.0004396178
0.00059276328
0.00026423095
0.0005802851
0.00055786613
0.00065481999
0.00065101174
0.0006419632
0.00057933526
0.0004767465
0.00025121854
-7.4701027e-05
-0.00052847994
-0.0011592059
-0.0019988431
-0.0030765235
-0.0044139834
-0.0060210964
-0.0078890812
-0.0099861459
-0.012252672
-0.014600459
-0.016915568
-0.019066901
-0.02091954
-0.022351673
-0.023271518
-0.02363087
-0.023431324
-0.022723081
-0.021593575
-0.020157481
-0.018532046
-0.016844491
-0.015181543
-0.013671306
-0.012317255
-0.011323542
-0.010502793
-0.00044603366
0.0014837808
0.00060423681
0.00027211794
0.00060650678
0.00059195729
0.00070918118
0.00072389765
0.00073226294
0.00068748755
0.00060626633
0.00046571689
0.00018414503
-0.00021693929
-0.00076629238
-0.0015186796
-0.0025075799
-0.0037601608
-0.0052948095
-0.007113271
-0.0091958572
-0.011495712
-0.013936226
-0.016411443
-0.018791915
-0.020935785
-0.022704794
-0.023982356
-0.024690241
-0.024799918
-0.024335378
-0.023368089
-0.02200252
-0.020364322
-0.018575563
-0.016762982
-0.015009417
-0.013436802
-0.012042216
-0.011023069
-0.010186152
0.00060974666
-0.00044603373
0.0014640973
0.00027719138
0.00062653556
0.00061973625
0.00075570927
0.00078805527
0.00081951682
0.0007933057
0.00073317138
0.00061470073
0.00043315989
8.0656222e-05
-0.00041041077
-0.0010736645
-0.001968924
-0.0031291312
-0.004579329
-0.0063313629
-0.0083774835
-0.010683957
-0.013187149
-0.015791759
-0.018373992
-0.020789946
-0.022889765
-0.024535591
-0.025620416
-0.026083512
-0.02591889
-0.025174164
-0.023941679
-0.022341298
-0.020507355
-0.018564465
-0.01663694
-0.01480241
-0.013175705
-0.011747288
-0.010707403
-0.0098577301
0.00027951795
0.00060974661
-0.00043961784
0.0014254474
0.00063961834
0.00064096485
0.00079392067
0.00084268003
0.000896672
0.00089601757
0.00085711675
0.00076265272
0.00060512879
0.00036820712
-6.9296283e-05
-0.00066878889
-0.0014669977
-0.0025280334
-0.0038838013
-0.005554412
-0.0075437605
-0.0098313695
-0.012367431
-0.015069301
-0.017822206
-0.020484802
-0.022900808
-0.024915711
-0.026396437
-0.027250034
-0.027437058
-0.026976356
-0.02593971
-0.024439279
-0.022608193
-0.020586959
-0.018500469
-0.016468763
-0.014563124
-0.012890502
-0.011434677
-0.010378497
-0.0095193049
0.00064566929
0.00027951786
0.0006042366
-0.00042713411
0.0013693325
0.0006549273
0.00082329021
0.00088741684
0.00096266723
0.0009868441
0.00097765231
0.00090723839
0.0007785127
0.00056608074
0.00026176435
-0.00027942154
-0.0010081792
-0.0019646634
-0.0032168421
-0.004793173
-0.0067073614
-0.0089521441
-0.01149207
-0.014258578
-0.017148593
-0.020027384
-0.022737358
-0.025112599
-0.026998081
-0.028270248
-0.028854736
-0.02873675
-0.027961613
-0.026625061
-0.024857361
-0.022802392
-0.020604204
-0.018385751
-0.016261103
-0.014294228
-0.012583622
-0.011106489
-0.01003822
-0.0091725823
0.0006616023
0.00064566919
0.00027719116
0.00059276296
-0.0004091947
0.0012979713
0.00084272944
0.00092158193
0.0010168689
0.0010644156
0.0010843491
0.0010480697
0.00094733329
0.00076928475
0.00048972634
0.0001001516
-0.00056540961
-0.0014470485
-0.0025878109
-0.0040579064
-0.0058807799
-0.0080606175
-0.010576622
-0.013375363
-0.016367527
-0.019428381
-0.022403724
-0.025121712
-0.027410459
-0.029119123
-0.030138704
-0.030417749
-0.029968937
-0.028864921
-0.02722441
-0.025193486
-0.022923972
-0.020560808
-0.01822289
-0.016016781
-0.013998377
-0.012257387
-0.010764742
-0.0096883786
-0.0088191264
0.00085201757
0.00066160219
0.00063961808
0.00027211753
0.00057544786
-0.00038656349
0.0012140754
0.0009437911
0.0010584255
0.0011280421
0.0011755482
0.0011728186
0.0011117262
0.00096637975
0.00072866128
0.00036249089
-0.00013172192
-0.00094574056
-0.0020066967
-0.0033597551
-0.0050761031
-0.0071711192
-0.0096370681
-0.012436393
-0.015495199
-0.018701497
-0.021908573
-0.024943926
-0.027624455
-0.029776686
-0.031259196
-0.03198262
-0.031922392
-0.031120754
-0.029677706
-0.02773319
-0.025446309
-0.022973875
-0.020459091
-0.01801478
-0.015738676
-0.013678138
-0.011914048
-0.010411414
-0.0093306836
-0.0084603823
0.00095390817
0.00085201745
0.00065492694
0.00062653509
0.00026423038
0.00055282092
-0.00036033533
0.0011206577
0.0010857547
0.0011767903
0.0012504195
0.0012794198
0.0012574623
0.0011581006
0.00095900003
0.00064386868
0.00017021884
-0.00045221744
-0.0014417514
-0.0027109862
-0.0043064261
-0.0062977075
-0.008689621
-0.011459197
-0.014549256
-0.017862886
-0.021264311
-0.024585153
-0.027636804
-0.030228731
-0.032190989
-0.033397121
-0.033782376
-0.03335246
-0.032180426
-0.030392735
-0.028148128
-0.025615582
-0.022953881
-0.020301872
-0.017764469
-0.015429599
-0.013336027
-0.011555869
-0.01004843
-0.0089667084
-0.0080977862
0.0010986367
0.00095390803
0.00084272905
0.00064096427
0.00060650612
0.00025380306
0.00052529536
-0.00033178061
0.0010207796
0.0012088097
0.0013078273
0.0013668921
0.00138196
0.0013281764
0.0011825601
0.000913312
0.0005021861
-0.00010502747
-0.00088254203
-0.0020776553
-0.0035866268
-0.0054556053
-0.0077504177
-0.010461856
-0.013548584
-0.016930732
-0.020486501
-0.024055798
-0.027449902
-0.030467189
-0.032914405
-0.03463081
-0.035510643
-0.035518378
-0.034692622
-0.033137524
-0.031004246
-0.02846729
-0.02570216
-0.022866496
-0.020092258
-0.017474982
-0.015092363
-0.01297469
-0.011185127
-0.0096774904
-0.008597818
-0.0077325346
0.0012238646
0.0010986365
0.00094379069
0.00082328957
0.0006197354
0.00058028421
0.00024077433
0.00049329693
-0.00030230666
0.00091771208
0.0013456338
0.0014339426
0.0014840875
0.0014733874
0.0013809996
0.0011740617
0.00081758335
0.00028687871
-0.00048376847
-0.0014470488
-0.0028807487
-0.0046626373
-0.0068369606
-0.009462637
-0.01251303
-0.015924984
-0.019593388
-0.023370179
-0.027071375
-0.030490161
-0.033415968
-0.035658293
-0.037071746
-0.037576908
-0.037171524
-0.035928784
-0.033983184
-0.03150804
-0.028690123
-0.02570792
-0.022714706
-0.019833407
-0.017149427
-0.014730086
-0.012596867
-0.010803633
-0.0092998221
-0.0082252227
-0.0073648489
0.0013635589
0.0012238645
0.0010857542
0.00092158122
0.00079391975
0.0005919562
0.00054828198
0.00022493964
0.00045725864
-0.00027307703
0.00081609844
0.0014781252
0.0015623549
0.0015924418
0.0015503511
0.0014056326
0.0011217306
0.00065620741
-2.1013581e-05
-0.00098982425
-0.0021732805
-0.0038810141
-0.0059703394
-0.0084814145
-0.011462978
-0.014867057
-0.018605589
-0.022546019
-0.026513557
-0.030301675
-0.03368874
-0.036460218
-0.038434544
-0.039488055
-0.039573028
-0.03872369
-0.037048406
-0.034710303
-0.031901583
-0.02881741
-0.025635425
-0.022501645
-0.01952868
-0.016791462
-0.014346085
-0.012204471
-0.010412286
-0.0089168193
-0.0078505422
-0.0069956714
0.0014991399
0.0013635587
0.0012088092
0.0010584248
0.00088741585
0.00075570808
0.00055786475
0.0005108752
0.0002061019
0.000418692
-0.00024462914
0.00072203617
0.001614
0.0016836208
0.001689119
0.0016031675
0.0013919849
0.0010109663
0.00041144992
-0.00044375311
-0.0016501194
-0.0030918232
-0.0051111199
-0.0075428105
-0.010420694
-0.013779348
-0.017545764
-0.021604096
-0.025792964
-0.02991126
-0.033732307
-0.037023922
-0.039573487
-0.041215103
-0.04185325
-0.041476644
-0.040158163
-0.038040804
-0.035313719
-0.032184004
-0.028850908
-0.025487541
-0.022230821
-0.01918231
-0.016405082
-0.013942337
-0.01179793
-0.010013065
-0.0085320568
-0.0074759159
-0.0066140323
0.001638706
0.0014991396
0.0013456332
0.0011767895
0.0010168678
0.00084267873
0.00070917971
0.00051752815
0.00046863948
0.00018581709
0.00038117412
-0.00021784286
0.00062296426
0.0017438294
0.0017952993
0.0017648546
0.0016223976
0.001326321
0.00082512967
6.2364663e-05
-0.0010066462
-0.0024949086
-0.0042364535
-0.0066059539
-0.0094145371
-0.012686453
-0.01643811
-0.020567875
-0.024929915
-0.029333453
-0.033552519
-0.03734372
-0.040469619
-0.042726191
-0.043970319
-0.044140756
-0.043266504
-0.041460057
-0.038897456
-0.035790259
-0.032355714
-0.028792855
-0.025267732
-0.021907032
-0.018799054
-0.015992275
-0.013518593
-0.011380064
-0.0096130539
-0.0081485512
-0.00707933
-0.006216237
0.0017727552
0.0016387057
0.0014781246
0.0013078264
0.0011280409
0.00096266584
0.00078805365
0.00065481823
0.00047115952
0.00042420816
0.00016689105
0.00034726689
-0.00019068438
0.00051670172
0.0018654748
0.0018884188
0.001810752
0.00159505
0.0011930182
0.0005444848
-0.00041499335
-0.0017383956
-0.0035577538
-0.0056437161
-0.0084024051
-0.011620597
-0.015309394
-0.019463011
-0.023948122
-0.028587386
-0.033161063
-0.037420869
-0.04111121
-0.043995664
-0.045886185
-0.046669658
-0.0463246
-0.044923002
-0.042616758
-0.039612169
-0.036138331
-0.032417822
-0.028646348
-0.024981278
-0.021535845
-0.018380826
-0.015551889
-0.013078891
-0.010962561
-0.0092157851
-0.0077280464
-0.006666995
-0.0058076435
0.0018993643
0.0017727549
0.0016139992
0.0014339415
0.0012504182
0.0010644141
0.00089667027
0.00072389568
0.00059348141
0.00042210612
0.00037884039
0.00014532096
0.00030486236
-0.00016129109
0.0004086535
0.0019701294
0.0019545077
0.0018144331
0.0015063422
0.00097341928
0.00014633874
-0.0010479129
-0.0026709159
-0.004875251
-0.0073525986
-0.010538621
-0.014195733
-0.018318146
-0.022874201
-0.027696334
-0.032575066
-0.037263272
-0.04149401
-0.045005073
-0.047568287
-0.049019482
-0.049282488
-0.048380099
-0.046428775
-0.043618237
-0.04018063
-0.036357259
-0.032372627
-0.028416976
-0.02463456
-0.02111897
-0.0179253
-0.015089522
-0.012641108
-0.010549536
-0.0087539412
-0.0072957236
-0.0062421572
-0.0053904478
0.0020097645
0.0018993639
0.0017438283
0.0015623535
0.0013668905
0.0011755465
0.0009868422
0.00081951474
0.00065100943
0.00052959988
0.00037309391
0.00033137509
0.00011281626
0.0002519946
-0.00013268943
0.00030274166
0.00204962
0.0019816311
0.0017617723
0.0013385161
0.00064594749
-0.00039525339
-0.0018669355
-0.0038393372
-0.0064867582
-0.0094038985
-0.013053015
-0.017173184
-0.021738226
-0.026687259
-0.031816568
-0.03688513
-0.041621151
-0.045743792
-0.048990954
-0.051150812
-0.052091118
-0.051778904
-0.050284614
-0.047769181
-0.044456654
-0.040599592
-0.036447926
-0.032225712
-0.028111857
-0.02422889
-0.020652571
-0.017440057
-0.014630856
-0.012209706
-0.010035939
-0.0082841631
-0.0068479967
-0.0058079734
-0.0049638913
0.0020959678
0.002009764
0.0018654736
0.0016836191
0.0014840855
0.0012794177
0.001084347
0.00089601529
0.00073226051
0.00057516988
0.00046382055
0.00032148661
0.00027070825
7.8646026e-05
0.00019157667
-0.00011029109
0.00020289814
0.0020922803
0.0019561474
0.0016357538
0.0010710258
0.00018589807
-0.0011095067
-0.0029058071
-0.0052818835
-0.0084337488
-0.011839453
-0.015983084
-0.020583622
-0.025591048
-0.030912115
-0.036306336
-0.041502902
-0.046209173
-0.050136403
-0.053030445
-0.054704528
-0.055066088
-0.054130661
-0.05201822
-0.048931981
-0.045125381
-0.040867705
-0.036415437
-0.031984752
-0.027731622
-0.02375847
-0.020146645
-0.016960422
-0.014180609
-0.011629087
-0.0095201038
-0.0077957429
-0.0063908602
-0.0053634836
-0.0045287924
0.0021464093
0.0020959673
0.0019701281
0.0017952973
0.0015924393
0.0013819574
0.0011728161
0.00097764972
0.00079330302
0.0006419604
0.00049745945
0.00039428503
0.0002496768
0.00020403795
4.0686179e-05
0.00012617471
-9.6852579e-05
0.00011237052
0.0020847676
0.0018616556
0.0014166504
0.00068038854
-0.00043469064
-0.0020288487
-0.0042014157
-0.0070392605
-0.010759278
-0.014700752
-0.019364312
-0.024454218
-0.029892626
-0.035552131
-0.041155992
-0.046406492
-0.05099523
-0.054632829
-0.057081941
-0.058189734
-0.057910452
-0.056312047
-0.053563492
-0.049906224
-0.045619885
-0.040988942
-0.036267753
-0.031649287
-0.02726791
-0.023236169
-0.01964824
-0.016491342
-0.013519811
-0.011052301
-0.008980993
-0.0072980041
-0.0059227008
-0.004909784
-0.0040852344
0.0021478801
0.0021464088
0.0020496184
0.0018884165
0.0016891161
0.0014733841
0.001257459
0.0010480666
0.00085711366
0.00068748448
0.00054912026
0.00041673207
0.00030119534
0.00017201941
0.00012939717
-5.7542786e-06
5.7454218e-05
-9.347592e-05
3.3437133e-05
0.002011108
0.0016790866
0.0010819062
0.0001396479
-0.0012470403
-0.0031888315
-0.0057933464
-0.009153903
-0.013506265
-0.018027842
-0.023229395
-0.028807078
-0.034652497
-0.040603336
-0.046348188
-0.051566618
-0.055940902
-0.059189614
-0.061101711
-0.061566989
-0.060592445
-0.058299806
-0.054904206
-0.050683231
-0.0459421
-0.040971081
-0.036002728
-0.031207572
-0.026736915
-0.022723214
-0.01916256
-0.015734088
-0.012869987
-0.010446348
-0.0084332747
-0.0067890893
-0.0054450432
-0.0044470283
-0.0036337116
0.0020846804
0.0021478795
0.0020922786
0.0019545052
0.0017648513
0.0015503473
0.0013281724
0.0011117222
0.00090723467
0.00073316783
0.00057933178
0.0004524826
0.00030613818
0.00020136056
8.8042444e-05
4.4491995e-05
-6.1379453e-05
-1.4179723e-05
-0.00010009458
-3.2803303e-05
0.0018526951
0.0013863831
0.00060543533
-0.00058141827
-0.0022853865
-0.004627898
-0.0077229395
-0.011668896
-0.016716514
-0.021858902
-0.02760633
-0.033658041
-0.039872843
-0.046053711
-0.051857516
-0.056946666
-0.061002093
-0.063759927
-0.065045298
-0.064798483
-0.063082554
-0.060071646
-0.056026393
-0.051261874
-0.046098995
-0.04080958
-0.035604152
-0.030679562
-0.026216922
-0.022225128
-0.018292119
-0.014995721
-0.012183291
-0.0098333225
-0.0078743824
-0.0062708036
-0.0049579196
-0.0039758934
-0.0031745814
0.001938472
0.0020846798
0.0020847659
0.0019816284
0.0018107482
0.0016031631
0.0013809949
0.0011580958
0.0009473286
0.00076264835
0.00060626227
0.00046800604
0.00031893416
0.00018786978
9.2941272e-05
-8.0219192e-06
-4.9814654e-05
-0.00012622954
-8.8968842e-05
-0.00011634508
-8.6536469e-05
0.0015877548
0.00095809507
-4.207923e-05
-0.0015158274
-0.0035870174
-0.0063865716
-0.010033023
-0.014627783
-0.020430746
-0.026227835
-0.032517107
-0.039015726
-0.045547566
-0.051882648
-0.057650358
-0.062503131
-0.066130014
-0.068295041
-0.068869145
-0.067848312
-0.065351836
-0.061607221
-0.056924809
-0.051647453
-0.046082693
-0.04048233
-0.035096092
-0.030164074
-0.025713807
-0.021222604
-0.017449251
-0.014211144
-0.011491414
-0.0092096725
-0.0073063127
-0.0057430888
-0.0044621853
-0.0034969313
-0.0027083061
0.0016875414
0.0019384715
0.0020111063
0.0019561445
0.0018144291
0.0016223928
0.0014056271
0.0011825543
0.00096637397
0.00077850719
0.00061469577
0.000476742
0.00031117894
0.0001774249
6.086431e-05
-3.0093529e-05
-0.00011653671
-0.00015300129
-0.00020039748
-0.00016689674
-0.00014188924
-0.00012905206
0.0011913203
0.00036566494
-0.00089264217
-0.0026997337
-0.005191579
-0.0085070606
-0.012767893
-0.018073369
-0.024685593
-0.03116297
-0.037976745
-0.044880379
-0.051661599
-0.05806061
-0.063685092
-0.068186473
-0.071272636
-0.072746222
-0.072531156
-0.070680591
-0.0673727
-0.062895935
-0.057602199
-0.051827555
-0.045863292
-0.04001764
-0.034601972
-0.029667401
-0.024558784
-0.020257383
-0.016548639
-0.013424082
-0.010789914
-0.0085773629
-0.0067290411
-0.0052068914
-0.0039585361
-0.0030108766
-0.0022352552
0.0013071646
0.0016875409
0.0018526933
0.0018616527
0.0017617682
0.0015950449
0.0013919789
0.001174055
0.00095899327
0.00076927808
0.00060512255
0.0004657113
0.00029237976
0.00014566397
2.6098619e-05
-8.2910036e-05
-0.00016714102
-0.00023735359
-0.00026489926
-0.00028388087
-0.00024756467
-0.00017604949
-0.00016243555
0.00063538711
-0.0004219701
-0.0019813673
-0.0041718387
-0.0071405878
-0.011033071
-0.015970915
-0.022045402
-0.02951233
-0.036686214
-0.043991823
-0.051243048
-0.058190386
-0.064549079
-0.069912755
-0.073942562
-0.076376795
-0.077065676
-0.075988569
-0.073259923
-0.069128071
-0.063937064
-0.05804019
-0.051762142
-0.045473237
-0.039568414
-0.034128703
-0.028337464
-0.023452095
-0.019219868
-0.015649193
-0.012628695
-0.010080561
-0.0079364713
-0.0061435312
-0.0046630645
-0.0034478993
-0.0025178365
-0.0017560784
0.00076965323
0.0013071641
0.0015877531
0.0016790838
0.0016357498
0.0015063368
0.0013263146
0.0011217233
0.00091330423
0.00072865341
0.00056607306
0.00043315285
0.00025121237
9.8962872e-05
-3.0320881e-05
-0.00014456041
-0.0002432779
-0.00031744715
-0.00037019762
-0.00038533828
-0.00037643896
-0.00033065787
-0.00021770486
-0.00018914458
-0.00011073064
-0.0014391346
-0.0033460956
-0.0059728373
-0.009477043
-0.01400804
-0.019682903
-0.026578817
-0.034936513
-0.04281122
-0.050559532
-0.058084966
-0.065099547
-0.071301041
-0.076278352
-0.079715067
-0.08138978
-0.081204245
-0.079197992
-0.075561912
-0.070612787
-0.064704898
-0.058185679
-0.051487353
-0.045100759
-0.039142565
-0.032599956
-0.027068538
-0.022254549
-0.018188316
-0.014742887
-0.011826631
-0.0093633463
-0.0072877746
-0.0055508257
-0.0041127248
-0.0029297993
-0.0020186244
-0.0012712629
4.4501456e-05
0.00076965273
0.0011913188
0.0013863804
0.0014166463
0.0013385107
0.0011930117
0.0010109586
0.00081757477
0.00064385963
0.00048971744
0.00036819858
0.00018413728
2.7188511e-05
-0.00010580023
-0.00022824997
-0.00033390942
-0.00041953326
-0.00048061867
-0.00051450303
-0.00051395246
-0.00047755292
-0.00041604876
-0.00026543021
-0.00021157893
-0.0010807805
-0.0027230287
-0.0050266758
-0.0081449509
-0.012244285
-0.017473455
-0.023941888
-0.031704613
-0.040975765
-0.04954242
-0.057667044
-0.06537694
-0.072345073
-0.078262159
-0.082723251
-0.085447288
-0.086256958
-0.085110763
-0.082127286
-0.077576289
-0.071792433
-0.065129779
-0.058077591
-0.051233623
-0.044755376
-0.037390027
-0.031146723
-0.02568517
-0.021069088
-0.017151713
-0.013831415
-0.011017645
-0.0086389936
-0.0066326015
-0.004952199
-0.003554357
-0.0024059636
-0.0015136795
-0.00078126936
-0.00090179097
4.4501175e-05
0.00063538581
0.00095809245
0.0010819022
0.0010710207
0.00097341277
0.00082512175
0.00065619831
0.00050217627
0.00036248073
0.0002617544
8.0646715e-05
-7.4709615e-05
-0.00020901949
-0.00033529074
-0.00044738891
-0.0005408594
-0.00061101505
-0.00065615763
-0.00066957153
-0.00065021823
-0.00058644629
-0.00050374059
-0.00031774472
-0.00023173905
-0.0023112406
-0.004312779
-0.0070645482
-0.010731013
-0.015484401
-0.021469738
-0.028782613
-0.037447084
-0.047638849
-0.05687451
-0.065290725
-0.073079085
-0.079874518
-0.085372815
-0.089187739
-0.091080169
-0.090920057
-0.088745405
-0.084760966
-0.07925871
-0.072576997
-0.065251866
-0.057996683
-0.051012989
-0.042753763
-0.035729613
-0.029549075
-0.024321606
-0.019880662
-0.016111827
-0.012914147
-0.010202376
-0.0079090952
-0.0059722722
-0.0043447927
-0.0029904666
-0.0018769014
-0.0010037571
-0.00028653206
-0.0021054123
-0.00090179119
-0.00011073175
0.00036566257
0.00060543166
0.00068038357
0.00064594106
0.0005444769
0.00041144073
0.00028686838
0.0001702077
0.00010014025