/*--------------------------------*- C++ -*----------------------------------*\
| =========                 |                                                 |
| \\      /  F ield         | OpenFOAM: The Open Source CFD Toolbox           |
|  \\    /   O peration     | Version:  5.0                                   |
|   \\  /    A nd           | Web:      www.OpenFOAM.org                      |
|    \\/     M anipulation  |                                                 |
\*---------------------------------------------------------------------------*/
FoamFile
{
    version     2.0;
    format      ascii;
    class       volScalarField;
    location    "105";
    object      pPrime2Mean;
}
// * * * * * * * * * * * * * * * * * * * * * * * * * * * * * * * * * * * * * //

dimensions      [0 4 -4 0 0 0 0];

internalField   nonuniform List<scalar> 
9200
(
4.7996084e-09
4.7010929e-09
2.7712497e-08
4.5577535e-09
2.7134228e-08
7.908103e-08
4.4380956e-09
2.6085221e-08
7.7569717e-08
1.515028e-07
4.3045188e-09
2.4939528e-08
7.478526e-08
1.4880576e-07
2.4951697e-07
4.269926e-09
2.3547741e-08
7.1696635e-08
1.4366258e-07
2.4565237e-07
3.7024403e-07
4.3452612e-09
2.2394822e-08
6.7984198e-08
1.3791586e-07
2.3775719e-07
3.6552337e-07
5.1470403e-07
4.6102108e-09
2.1478667e-08
6.4862169e-08
1.3086593e-07
2.2895357e-07
3.5492698e-07
5.0978514e-07
6.8226725e-07
5.1180457e-09
2.1088918e-08
6.2451214e-08
1.2458806e-07
2.1784937e-07
3.4326905e-07
4.9696103e-07
6.7820001e-07
8.7259679e-07
5.9387252e-09
2.1345096e-08
6.1530694e-08
1.1926256e-07
2.0762505e-07
3.2792966e-07
4.832346e-07
6.6415991e-07
8.7084939e-07
1.0840258e-06
7.1450209e-09
2.2399242e-08
6.2530589e-08
1.1621351e-07
1.9849999e-07
3.1329144e-07
4.640776e-07
6.4996697e-07
8.5726744e-07
1.0865269e-06
1.3152941e-06
8.8105218e-09
2.4350357e-08
6.5954992e-08
1.1617884e-07
1.9252571e-07
2.9935995e-07
4.451599e-07
6.2836216e-07
8.4513776e-07
1.0757869e-06
1.3243598e-06
1.5631625e-06
1.1006031e-08
2.7262613e-08
7.2168245e-08
1.2004006e-07
1.9086341e-07
2.8889777e-07
4.2600821e-07
6.0634634e-07
8.2352467e-07
1.0693823e-06
1.3195227e-06
1.5814605e-06
1.8253638e-06
1.3785784e-08
3.11822e-08
8.1394677e-08
1.284448e-07
1.9485403e-07
2.8350215e-07
4.1013568e-07
5.8251169e-07
8.0073891e-07
1.0516408e-06
1.3235063e-06
1.5861977e-06
1.8554717e-06
2.0965687e-06
1.7175566e-08
3.6147947e-08
9.3702328e-08
1.4181431e-07
2.0555495e-07
2.8521447e-07
3.9944336e-07
5.6095308e-07
7.739033e-07
1.0321351e-06
1.3148883e-06
1.6063233e-06
1.8738912e-06
2.1415744e-06
2.3740512e-06
2.1157757e-08
4.2222657e-08
1.0897651e-07
1.603368e-07
2.2373201e-07
2.9559109e-07
3.9667394e-07
5.4379825e-07
7.4751424e-07
1.005848e-06
1.3044667e-06
1.6136234e-06
1.9168068e-06
2.1782997e-06
2.4369855e-06
2.6513706e-06
2.5661791e-08
4.9517521e-08
1.268669e-07
1.8398039e-07
2.4976299e-07
3.1583472e-07
4.0408668e-07
5.3441915e-07
7.2353833e-07
9.7732598e-07
1.2843679e-06
1.6201076e-06
1.9482425e-06
2.251288e-06
2.4961964e-06
2.7348083e-06
2.9236211e-06
3.0554548e-08
5.8206684e-08
1.468066e-07
2.1251748e-07
2.835776e-07
3.466846e-07
4.2354645e-07
5.3574655e-07
7.0591858e-07
9.4797854e-07
1.2587529e-06
1.614319e-06
1.9815269e-06
2.316248e-06
2.6064449e-06
2.82106e-06
3.0300218e-06
3.1857512e-06
3.5605733e-08
6.8514511e-08
1.6808184e-07
2.4553368e-07
3.247177e-07
3.8831997e-07
4.5635316e-07
5.5045548e-07
6.9828694e-07
9.2201377e-07
1.2278193e-06
1.5995379e-06
2.0009492e-06
2.3880518e-06
2.7151877e-06
2.9761131e-06
3.1480624e-06
3.316874e-06
3.4330066e-06
4.0415571e-08
8.0654811e-08
1.8979934e-07
2.8242833e-07
3.7237687e-07
4.4039545e-07
5.0312057e-07
5.8066454e-07
7.0425339e-07
9.0355907e-07
1.1956202e-06
1.5740091e-06
2.0083851e-06
2.446254e-06
2.8388919e-06
3.1393353e-06
3.3549681e-06
3.4699645e-06
3.5900049e-06
3.6612049e-06
4.436599e-08
9.4672214e-08
2.1099615e-07
3.2250807e-07
4.2545741e-07
5.0213636e-07
5.6375063e-07
6.2773062e-07
7.2698201e-07
8.9714526e-07
1.1664216e-06
1.540967e-06
1.999239e-06
2.4908874e-06
2.9520953e-06
3.3293744e-06
3.583001e-06
3.7350455e-06
3.7808162e-06
3.8444655e-06
3.8668714e-06
4.6661148e-08
1.1025192e-07
2.3085092e-07
3.6488409e-07
4.8259374e-07
5.7233872e-07
6.3746966e-07
6.9216284e-07
7.6889896e-07
9.0712697e-07
1.145496e-06
1.50418e-06
1.9751098e-06
2.5136311e-06
3.052714e-06
3.5158875e-06
3.8542762e-06
4.0376897e-06
4.1095151e-06
4.0746204e-06
4.0760124e-06
4.0472778e-06
4.6507186e-08
1.2657634e-07
2.4874896e-07
4.0841332e-07
5.422583e-07
6.49465e-07
7.229321e-07
7.7362798e-07
8.3148246e-07
9.3726917e-07
1.1383831e-06
1.4692142e-06
1.9383814e-06
2.5134612e-06
3.1278724e-06
3.6946959e-06
4.1339225e-06
4.4048365e-06
4.495147e-06
4.4700658e-06
4.3459335e-06
4.2812093e-06
4.200637e-06
4.3399007e-08
1.4237058e-07
2.6442619e-07
4.5186481e-07
6.0278424e-07
7.3170156e-07
8.1826238e-07
8.7104205e-07
9.151661e-07
9.9040251e-07
1.1503779e-06
1.4425527e-06
1.8941609e-06
2.4902261e-06
3.1729248e-06
3.8478017e-06
4.4160706e-06
4.7979981e-06
4.9715635e-06
4.9453983e-06
4.8095199e-06
4.5900798e-06
4.4575077e-06
4.3260804e-06
3.7431166e-08
1.5631283e-07
2.780482e-07
4.9408136e-07
6.6246267e-07
8.170639e-07
9.2114827e-07
9.8268688e-07
1.0193767e-06
1.0682129e-06
1.1860191e-06
1.4310184e-06
1.8493013e-06
2.4474707e-06
3.1838495e-06
3.9660176e-06
4.677396e-06
5.2105611e-06
5.4981505e-06
5.5425854e-06
5.379114e-06
5.1211563e-06
4.8034011e-06
4.6033763e-06
4.4235012e-06
2.9483652e-08
1.6794318e-07
2.9016655e-07
5.3403638e-07
7.196869e-07
9.0343588e-07
1.0290514e-06
1.1062714e-06
1.1426277e-06
1.1711711e-06
1.2487084e-06
1.4410816e-06
1.8118442e-06
2.3914432e-06
3.1612049e-06
4.0400546e-06
4.903555e-06
5.6142627e-06
6.0689517e-06
6.2208383e-06
6.105727e-06
5.7866644e-06
5.3993464e-06
4.9832264e-06
4.7182803e-06
4.4936027e-06
2.1183888e-08
1.7771214e-07
3.0074119e-07
5.7071206e-07
7.7325497e-07
9.8848947e-07
1.1392754e-06
1.238998e-06
1.2825954e-06
1.2985982e-06
1.3404809e-06
1.4782892e-06
1.7901739e-06
2.3306812e-06
3.1092137e-06
4.0658092e-06
5.0787174e-06
5.9894707e-06
6.651829e-06
6.9769065e-06
6.9510483e-06
6.6479807e-06
6.1596002e-06
5.6394668e-06
5.1279716e-06
4.8025072e-06
4.5380697e-06
1.4558646e-08
1.859356e-07
3.0895631e-07
6.0314662e-07
8.2220952e-07
1.0697607e-06
1.2491026e-06
1.3776775e-06
1.4362292e-06
1.4487493e-06
1.4619475e-06
1.5468217e-06
1.792248e-06
2.2750769e-06
3.0356731e-06
4.0436319e-06
5.1923603e-06
6.3129189e-06
7.2224542e-06
7.7766584e-06
7.9170277e-06
7.6718203e-06
7.1569262e-06
6.4902858e-06
5.8382317e-06
5.2371637e-06
4.8572423e-06
4.5591449e-06
1.1502093e-08
1.9302173e-07
3.146222e-07
6.3056975e-07
8.6574017e-07
1.1453656e-06
1.3559624e-06
1.5188236e-06
1.5999248e-06
1.6188629e-06
1.6123323e-06
1.6492644e-06
1.8249017e-06
2.234954e-06
2.9510567e-06
3.9787789e-06
5.2387964e-06
6.5660632e-06
7.7498679e-06
8.5925286e-06
8.9702032e-06
8.8682867e-06
8.3658985e-06
7.6208141e-06
6.7727459e-06
5.9938246e-06
5.3114693e-06
4.8845511e-06
4.5585427e-06
1.3412882e-08
2.0090472e-07
3.1802914e-07
6.5231099e-07
9.0331167e-07
1.2140783e-06
1.4575301e-06
1.6586637e-06
1.7696871e-06
1.8052593e-06
1.7894813e-06
1.7865413e-06
1.893364e-06
2.2201095e-06
2.8675276e-06
3.8807228e-06
5.2183956e-06
6.7348978e-06
8.2063929e-06
9.3865722e-06
1.0082265e-05
1.0208013e-05
9.807877e-06
9.0160403e-06
8.0294865e-06
7.0025807e-06
6.1060002e-06
5.3527191e-06
4.8869838e-06
4.5376375e-06
2.1045471e-08
2.0978628e-07
3.179676e-07
6.6803908e-07
9.3439572e-07
1.2750078e-06
1.5516412e-06
1.7933147e-06
1.9412912e-06
2.0033987e-06
1.989907e-06
1.9578764e-06
2.0010058e-06
2.2390364e-06
2.7977577e-06
3.7622691e-06
5.1373289e-06
6.8121499e-06
8.567627e-06
1.0121704e-05
1.1210148e-05
1.1665439e-05
1.1461581e-05
1.0711723e-05
9.6063015e-06
8.3746215e-06
7.1772377e-06
6.1753294e-06
5.3633743e-06
4.8669388e-06
4.4995628e-06
3.5222583e-08
2.1383427e-07
3.1479527e-07
6.8193449e-07
9.5859294e-07
1.3269664e-06
1.6360028e-06
1.919494e-06
2.1103161e-06
2.2080053e-06
2.2089454e-06
2.1607326e-06
2.1491943e-06
2.2983885e-06
2.7538349e-06
3.6382613e-06
5.0070267e-06
6.7976985e-06
8.8157602e-06
1.0761673e-05
1.2308317e-05
1.3195622e-05
1.3308666e-05
1.2699025e-05
1.1556203e-05
1.0122574e-05
8.650193e-06
7.2957134e-06
6.2033884e-06
5.3457779e-06
4.8264654e-06
4.4496027e-06
5.5608708e-08
2.1356623e-07
3.118441e-07
7.0184879e-07
9.7819805e-07
1.3691781e-06
1.7087891e-06
2.0351514e-06
2.2723894e-06
2.4133436e-06
2.4409447e-06
2.3908308e-06
2.3371065e-06
2.4026552e-06
2.7463795e-06
3.5242243e-06
4.8429562e-06
6.6986714e-06
8.9408726e-06
1.1275512e-05
1.3328339e-05
1.4747086e-05
1.5306913e-05
1.4971977e-05
1.3887181e-05
1.2319087e-05
1.0553439e-05
8.8525261e-06
7.358928e-06
6.1928024e-06
5.3025683e-06
4.7692158e-06
4.3911115e-06
8.1373964e-08
2.125588e-07
3.1355695e-07
7.083365e-07
9.9669984e-07
1.4082439e-06
1.7692786e-06
2.1380499e-06
2.4233742e-06
2.6136012e-06
2.6794292e-06
2.6422531e-06
2.5616275e-06
2.5538208e-06
2.7839292e-06
3.43511e-06
4.6631338e-06
6.5285712e-06
8.9419947e-06
1.1639825e-05
1.4224285e-05
1.6260485e-05
1.7403188e-05
1.7496998e-05
1.661126e-05
1.4993086e-05
1.2980934e-05
1.0890526e-05
8.9804596e-06
7.3692658e-06
6.1472551e-06
5.2377907e-06
4.6997528e-06
4.3263016e-06
1.1088977e-07
2.1125816e-07
3.1956638e-07
6.9901362e-07
1.0040707e-06
1.448595e-06
1.8253551e-06
2.2262262e-06
2.5593757e-06
2.8036859e-06
2.9173608e-06
2.9076896e-06
2.8174082e-06
2.7510116e-06
2.872411e-06
3.3843017e-06
4.4865506e-06
6.3058962e-06
8.8269366e-06
1.1841111e-05
1.4955983e-05
1.7674583e-05
1.9530546e-05
2.0225386e-05
1.9710346e-05
1.8180159e-05
1.5986004e-05
1.3525899e-05
1.1128896e-05
9.0352233e-06
7.3305668e-06
6.0712838e-06
5.1558365e-06
4.6215936e-06
4.2578876e-06
1.4185713e-07
2.0988838e-07
3.2752459e-07
6.9240366e-07
1.0050519e-06
1.4669165e-06
1.8820528e-06
2.3106715e-06
2.6776498e-06
2.978729e-06
3.1476806e-06
3.1788555e-06
3.0970354e-06
2.9903477e-06
3.0145123e-06
3.3828096e-06
4.3317653e-06
6.0524013e-06
8.6113558e-06
1.1876678e-05
1.5492782e-05
1.893022e-05
2.1614222e-05
2.3088247e-05
2.3147934e-05
2.1885158e-05
1.9632983e-05
1.6838968e-05
1.3942575e-05
1.1267063e-05
9.0202587e-06
7.247825e-06
5.9697721e-06
5.0608247e-06
4.538011e-06
4.1881923e-06
1.715155e-07
2.0874319e-07
3.3590117e-07
6.8727927e-07
1.0104408e-06
1.4689988e-06
1.910597e-06
2.3951734e-06
2.7924e-06
3.1344326e-06
3.3631153e-06
3.4470442e-06
3.3914393e-06
3.2650427e-06
3.2092236e-06
3.4383486e-06
4.2157272e-06
5.7913399e-06
8.3171446e-06
1.1754596e-05
1.58159e-05
1.997549e-05
2.357576e-05
2.6001726e-05
2.6861219e-05
2.6092789e-05
2.3957065e-05
2.0927058e-05
1.7530275e-05
1.4224333e-05
1.1306912e-05
8.9408889e-06
7.1268494e-06
5.8478316e-06
4.956868e-06
4.4519779e-06
4.1197272e-06
1.9697191e-07
2.0795516e-07
3.4400804e-07
6.8209285e-07
1.0193593e-06
1.4746619e-06
1.9204469e-06
2.441354e-06
2.9077861e-06
3.2883222e-06
3.5574184e-06
3.7031595e-06
3.690355e-06
3.5657864e-06
3.451708e-06
3.5544215e-06
4.1525646e-06
5.5458692e-06
7.9705046e-06
1.1492623e-05
1.5919737e-05
2.0769748e-05
2.5339347e-05
2.8870545e-05
3.0764748e-05
3.0756539e-05
2.8973873e-05
2.5862547e-05
2.2025347e-05
1.8044485e-05
1.4369486e-05
1.1253378e-05
8.8039111e-06
6.9740197e-06
5.7105766e-06
4.8477235e-06
4.3662928e-06
4.054597e-06
2.1558481e-07
2.0750883e-07
3.5127313e-07
6.7718221e-07
1.028288e-06
1.4820766e-06
1.9350457e-06
2.4654779e-06
2.9689369e-06
3.4431173e-06
3.7518635e-06
3.9388076e-06
3.9819692e-06
3.881262e-06
3.7335377e-06
3.7297969e-06
4.1521489e-06
5.3375096e-06
7.6000067e-06
1.1116465e-05
1.5811869e-05
2.128671e-05
2.6837429e-05
3.1594857e-05
3.4752408e-05
3.5799967e-05
3.4665016e-05
3.1701567e-05
2.7542907e-05
2.2898311e-05
1.837303e-05
1.4381078e-05
1.1113967e-05
8.617267e-06
6.7959917e-06
5.5630642e-06
4.736916e-06
4.2833487e-06
3.9944797e-06
2.2538855e-07
2.0729616e-07
3.5717727e-07
6.7298978e-07
1.03637e-06
1.4873287e-06
1.9547705e-06
2.4929989e-06
3.0029095e-06
3.5264162e-06
3.9486183e-06
4.1785266e-06
4.2552204e-06
4.1976893e-06
4.0432165e-06
3.958474e-06
4.2189694e-06
5.1842415e-06
7.2346995e-06
1.065772e-05
1.5512003e-05
2.1516087e-05
2.8015868e-05
3.4077064e-05
3.8703784e-05
4.111605e-05
4.0976452e-05
3.8466502e-05
3.4188298e-05
2.8947554e-05
2.3525531e-05
1.8514387e-05
1.4266427e-05
1.089827e-05
8.3896279e-06
6.5994525e-06
5.4100065e-06
4.6275812e-06
4.2051596e-06
3.9406925e-06
2.0723752e-07
2.2538863e-07
3.6115548e-07
6.697626e-07
1.043263e-06
1.4908805e-06
1.9728147e-06
2.525208e-06
3.04447e-06
3.5800028e-06
4.0539544e-06
4.4232697e-06
4.5375792e-06
4.5013255e-06
4.3655843e-06
4.2300994e-06
4.3516048e-06
5.0985878e-06
6.9018633e-06
1.0151719e-05
1.5050224e-05
2.1463885e-05
2.8837742e-05
3.6229043e-05
4.2491466e-05
4.6571903e-05
4.7814248e-05
4.6141149e-05
4.2037102e-05
3.6353704e-05
3.0037042e-05
2.3896432e-05
1.8473716e-05
1.4036462e-05
1.0617394e-05
8.1300157e-06
6.3908127e-06
5.255674e-06
4.5224123e-06
4.1333276e-06
3.894363e-06
3.6301468e-07
2.0723739e-07
2.1558491e-07
6.6741608e-07
1.0486556e-06
1.4934399e-06
1.9881646e-06
2.5527138e-06
3.0929042e-06
3.6434166e-06
4.1278956e-06
4.5563908e-06
4.8289996e-06
4.8209617e-06
4.6838445e-06
4.5294418e-06
4.5428319e-06
5.0863342e-06
6.6242518e-06
9.6350568e-06
1.4464864e-05
2.1151567e-05
2.928566e-05
3.7978384e-05
4.5989768e-05
5.2015221e-05
5.5046229e-05
5.466218e-05
5.1127319e-05
4.525662e-05
3.8129748e-05
3.0785014e-05
2.4010517e-05
1.8262198e-05
1.3704951e-05
1.0283395e-05
7.8473216e-06
6.1760155e-06
5.1037775e-06
4.4235916e-06
4.0692486e-06
3.8566777e-06
6.6612499e-07
3.6301468e-07
2.072959e-07
1.9697216e-07
1.0518663e-06
1.4953539e-06
2.0007393e-06
2.5751799e-06
3.1349575e-06
3.7151889e-06
4.2163623e-06
4.6594153e-06
4.9891752e-06
5.1559911e-06
5.026587e-06
4.83773e-06
4.779234e-06
5.145998e-06
6.4177339e-06
9.1422232e-06
1.3799978e-05
2.0614475e-05
2.9362646e-05
3.9273356e-05
4.9083403e-05
5.7283577e-05
6.2506106e-05
6.391656e-05
6.1446324e-05
5.5764409e-05
4.8016431e-05
3.9464623e-05
3.1179394e-05
2.3876722e-05
1.789595e-05
1.3287672e-05
9.9085601e-06
7.5499555e-06
5.9603359e-06
4.9574903e-06
4.3329613e-06
4.014228e-06
3.8289117e-06
1.0529712e-06
6.6612478e-07
3.6115544e-07
2.0750832e-07
1.7151575e-07
1.4962184e-06
2.0105461e-06
2.5933774e-06
3.1700813e-06
3.7775868e-06
4.315346e-06
4.7805933e-06
5.1240854e-06
5.3437894e-06
5.3931738e-06
5.1808472e-06
5.0419148e-06
5.2686675e-06
6.2898652e-06
8.7019183e-06
1.3101772e-05
1.9899616e-05
2.9091845e-05
4.0086318e-05
5.167542e-05
6.2214873e-05
7.0001728e-05
7.3741549e-05
7.2923069e-05
6.7936187e-05
5.9889202e-05
5.0226275e-05
4.0325649e-05
3.1222323e-05
2.3512286e-05
1.7394916e-05
1.2801374e-05
9.5047899e-06
7.2455263e-06
5.7483858e-06
4.8194768e-06
4.2521031e-06
3.9695495e-06
3.8122248e-06
1.4964019e-06
1.0529709e-06
6.6741552e-07
3.5717721e-07
2.0795452e-07
1.4185749e-07
2.01669e-06
2.6071015e-06
3.1985739e-06
3.8294116e-06
4.40163e-06
4.9143808e-06
5.2818937e-06
5.5157324e-06
5.6016162e-06
5.5588465e-06
5.3503479e-06
5.4381283e-06
6.2397873e-06
8.3343577e-06
1.2413659e-05
1.9062366e-05
2.8515291e-05
4.0415675e-05
5.3693862e-05
6.6658117e-05
7.732599e-05
8.392998e-05
8.5422559e-05
8.176891e-05
7.3899134e-05
6.3356576e-05
5.1819909e-05
4.0700467e-05
3.0929148e-05
2.2941114e-05
1.6781346e-05
1.2262787e-05
9.083091e-06
6.9408126e-06
5.5441222e-06
4.6920496e-06
4.1824903e-06
3.9363892e-06
3.8074686e-06
2.0193596e-06
1.4964015e-06
1.0518655e-06
6.6976162e-07
3.51273e-07
2.0874234e-07
1.1089012e-07
2.6147384e-06
3.2201843e-06
3.8711606e-06
4.4735268e-06
5.0317949e-06
5.4549909e-06
5.7147264e-06
5.8085415e-06
5.7760407e-06
5.7060005e-06
5.6635238e-06
6.2578837e-06
8.0509281e-06
1.1771828e-05
1.8160832e-05
2.7691436e-05
4.028652e-05
5.5096959e-05
7.0483701e-05
8.4269681e-05
9.4239645e-05
9.8745873e-05
9.7185053e-05
9.013804e-05
7.9115786e-05
6.6049183e-05
5.2758579e-05
4.0596747e-05
3.0326346e-05
2.2191824e-05
1.6078334e-05
1.1687756e-05
8.6534598e-06
6.6417854e-06
5.350971e-06
4.577197e-06
4.1254803e-06
3.91577e-06
3.8152337e-06
2.6167306e-06
2.019359e-06
1.4962169e-06
1.0486542e-06
6.7298844e-07
3.4400783e-07
2.0988742e-07
8.137437e-08
3.2332606e-06
3.9027869e-06
4.5315618e-06
5.129982e-06
5.6081944e-06
5.9320892e-06
6.0477898e-06
6.0099947e-06
5.9077416e-06
5.9487339e-06
6.3385794e-06
7.8539757e-06
1.1204671e-05
1.7249425e-05
2.6689825e-05
3.9749858e-05
5.5876755e-05
7.3592632e-05
9.0635063e-05
0.00010440649
0.00011263558
0.00011402564
0.00010861933
9.7715989e-05
8.3395432e-05
6.7884696e-05
5.3032349e-05
4.0040008e-05
2.9448955e-05
2.1295441e-05
1.5308408e-05
1.1090987e-05
8.2249053e-06
6.353675e-06
5.1718052e-06
4.4767088e-06
4.0823196e-06
3.9084905e-06
3.8362556e-06
3.2384831e-06
2.6167295e-06
2.0166878e-06
1.4953515e-06
1.0432611e-06
6.7718041e-07
3.3590083e-07
2.1125702e-07
5.5609086e-08
3.9221352e-06
4.5754634e-06
5.209255e-06
5.7368394e-06
6.1265513e-06
6.3097783e-06
6.2826493e-06
6.1462805e-06
6.097074e-06
6.4897023e-06
7.7178241e-06
1.0733156e-05
1.6377767e-05
2.5582962e-05
3.8878678e-05
5.606117e-05
7.5924325e-05
9.6249541e-05
0.00011416036
0.00012678666
0.00013204881
0.00012926252
0.00011929562
0.00010421204
8.65887e-05
6.8820075e-05
5.2658639e-05
3.9070235e-05
2.8337331e-05
2.028346e-05
1.4493059e-05
1.0486062e-05
7.8054807e-06
6.0808672e-06
5.0091257e-06
4.3922396e-06
4.0540307e-06
3.9153499e-06
3.8713091e-06
3.9300394e-06
3.2384817e-06
2.6147356e-06
2.0105426e-06
1.4934364e-06
1.0363674e-06
6.8209068e-07
3.2752411e-07
2.1255759e-07
3.5222984e-08
4.6026136e-06
5.269301e-06
5.8409139e-06
6.2907973e-06
6.5472737e-06
6.5843675e-06
6.4336026e-06
6.2984043e-06
6.5273444e-06
7.6563176e-06
1.0304832e-05
1.5593034e-05
2.4444296e-05
3.7759453e-05
5.571269e-05
7.7462776e-05
0.00010097846
0.00012324259
0.00014086218
0.00015093532
0.0001518827
0.00014389544
0.00012879403
0.0001093798
8.8596953e-05
6.8852055e-05
5.1678274e-05
3.7737588e-05
2.703429e-05
1.9186695e-05
1.3652545e-05
9.8853769e-06
7.4020377e-06
5.8271651e-06
4.8653558e-06
4.3253074e-06
4.0414425e-06
3.9371231e-06
3.92074e-06
4.6141776e-06
3.9300378e-06
3.2332567e-06
2.6070966e-06
2.0007342e-06
1.4908759e-06
1.0282848e-06
6.8727664e-07
3.195657e-07
2.1356488e-07
2.10458e-08
5.3069376e-06
5.9197178e-06
6.4241721e-06
6.7496397e-06
6.8628021e-06
6.7600167e-06
6.5644411e-06
6.6194886e-06
7.5020961e-06
9.9420744e-06
1.4808043e-05
2.3354783e-05
3.6488907e-05
5.4921553e-05
7.8239342e-05
0.00010473677
0.0001314241
0.00015451313
0.00017030076
0.00017618712
0.00017143727
0.00015734638
0.00013673496
0.00011303401
8.9376287e-05
6.8013597e-05
5.0149843e-05
3.6098384e-05
2.5583298e-05
1.8035182e-05
1.2805845e-05
9.2997327e-06
7.0205551e-06
5.5962989e-06
4.7427422e-06
4.2767693e-06
4.0452242e-06
3.9744305e-06
3.9849962e-06
5.3235955e-06
4.6141754e-06
3.9221297e-06
3.2201774e-06
2.5933706e-06
1.9881581e-06
1.487323e-06
1.0193553e-06
6.9240065e-07
3.1355606e-07
2.1383291e-07
1.3413192e-08
5.9693758e-06
6.5253046e-06
6.9149062e-06
7.1030822e-06
7.0692433e-06
6.8854385e-06
6.8024205e-06
7.3725533e-06
9.4868122e-06
1.4058356e-05
2.2182664e-05
3.5187917e-05
5.3801922e-05
7.8329867e-05
0.0001074973
0.00013852337
0.00016740088
0.00018971453
0.00020177972
0.00020170871
0.00018995197
0.00016906211
0.00014280649
0.00011506098
8.8936123e-05
6.6367021e-05
4.8144205e-05
3.4212357e-05
2.4027975e-05
1.6857624e-05
1.1969898e-05
8.738665e-06
6.6669038e-06
5.3916151e-06
4.6422288e-06
4.2470534e-06
4.0663622e-06
4.0280964e-06
4.0631521e-06
5.9916756e-06
5.3235924e-06
4.6026062e-06
3.902778e-06
3.1985644e-06
2.5751708e-06
1.9728064e-06
1.4820699e-06
1.0104362e-06
6.9901015e-07
3.1184296e-07
2.0978484e-07
1.1502291e-08
6.5895753e-06
7.0404039e-06
7.3006537e-06
7.3409336e-06
7.2031322e-06
7.0654125e-06
7.3754391e-06
8.9701521e-06
1.3164237e-05
2.0984176e-05
3.3666887e-05
5.2517185e-05
7.7852222e-05
0.00010929441
0.00014442163
0.00017922154
0.00020872407
0.00022817472
0.0002343556
0.00022654269
0.00020665882
0.0001785553
0.00014678467
0.00011542121
8.7331886e-05
6.3996688e-05
4.5740794e-05
3.2141596e-05
2.241119e-05
1.5680416e-05
1.1159946e-05
8.2114647e-06
6.3461545e-06
5.2141023e-06
4.5640663e-06
4.2380947e-06
4.1058768e-06
4.0948597e-06
4.155398e-06
6.6191159e-06
5.9916715e-06
5.3069286e-06
4.5754515e-06
3.8711476e-06
3.1700684e-06
2.5527026e-06
1.9547606e-06
1.4746539e-06
1.0050464e-06
7.0833266e-07
3.1479393e-07
2.0090331e-07
1.4558734e-08
7.1206316e-06
7.4511377e-06
7.566656e-06
7.490232e-06
7.3507992e-06
7.4968019e-06
8.649502e-06
1.2029178e-05
1.9486204e-05
3.2013166e-05
5.0801379e-05
7.7008741e-05
0.00011022524
0.00014907545
0.00018972851
0.00022688412
0.00025481818
0.00026888466
0.00026687615
0.00024966996
0.00022083979
0.00018543897
0.00014854363
0.00011414391
8.4656187e-05
6.1003828e-05
4.3025844e-05
2.994913e-05
2.0773622e-05
1.4527707e-05
1.0390655e-05
7.7259082e-06
6.0593824e-06
5.0637815e-06
4.5118246e-06
4.2517222e-06
4.1576421e-06
4.1763957e-06
4.2622657e-06
7.1579927e-06
6.6191116e-06
5.9693645e-06
5.2692854e-06
4.5315445e-06
3.8293948e-06
3.1349416e-06
2.5251943e-06
1.9350339e-06
1.4689896e-06
1.0040645e-06
7.0184451e-07
3.1796602e-07
1.930203e-07
2.1183839e-08
7.5480399e-06
7.7395661e-06
7.7329398e-06
7.6229255e-06
7.6832375e-06
8.5043316e-06
1.1181939e-05
1.7424537e-05
2.972654e-05
4.8790196e-05
7.5430846e-05
0.00011051839
0.00015252387
0.00019875626
0.00024378566
0.00028111839
0.00030467593
0.00031052165
0.00029804661
0.00027008412
0.00023187987
0.00018944862
0.00014805449
0.00011131699
8.1031727e-05
5.7504282e-05
4.0090116e-05
2.7696585e-05
1.9153227e-05
1.3422622e-05
9.673993e-06
7.2834285e-06
5.8062425e-06
4.9471098e-06
4.4883991e-06
4.2746806e-06
4.2261692e-06
4.2734923e-06
4.3857826e-06
7.593877e-06
7.1579873e-06
6.5895611e-06
5.9196981e-06
5.2092331e-06
4.4735044e-06
3.7775654e-06
3.0928847e-06
2.4929827e-06
1.9204333e-06
1.4669059e-06
9.9669272e-07
6.8192981e-07
3.180273e-07
1.8593425e-07
2.948345e-08
7.851718e-06
7.9208141e-06
7.8604963e-06
7.889435e-06
8.4904348e-06
1.0591843e-05
1.5776024e-05
2.6348417e-05
4.5529225e-05
7.3330238e-05
0.00010966556
0.000154996
0.00020623472
0.00025909245
0.00030647767
0.00034100802
0.00035685582
0.00035151086
0.00032651901
0.00028686728
0.00023930718
0.00019044956
0.00014537651
0.00010707889
7.6608129e-05
5.3625684e-05
3.7025606e-05
2.5443012e-05
1.7586134e-05
1.2383499e-05
9.0122687e-06
6.8834353e-06
5.5976537e-06
4.8683882e-06
4.4690861e-06
4.3192063e-06
4.311055e-06
4.3874211e-06
4.5272122e-06
7.9054237e-06
7.5938709e-06
7.1206159e-06
6.5252813e-06
5.8408864e-06
5.1299527e-06
4.4016016e-06
3.715163e-06
3.044447e-06
2.4654588e-06
1.9105812e-06
1.4485831e-06
9.7819011e-07
6.6803389e-07
3.1461994e-07
1.7771083e-07
3.7430854e-08
8.0438575e-06
8.0480639e-06
8.0839508e-06
8.5518093e-06
1.023068e-05
1.4497164e-05
2.3543079e-05
4.0368525e-05
6.8937411e-05
0.00010799767
0.00015579163
0.00021235119
0.00027256218
0.00033034164
0.00037708558
0.000405074
0.00040952697
0.00039012343
0.00035099294
0.00029925463
0.00024281421
0.00018843249
0.00014064821
0.00010161399
7.1558895e-05
4.9502835e-05
3.3922981e-05
2.3244455e-05
1.6100411e-05
1.1414473e-05
8.4049819e-06
6.5429501e-06
5.4398835e-06
4.7840965e-06
4.4802614e-06
4.3818521e-06
4.4133115e-06
4.5196622e-06
4.687671e-06
8.1035902e-06
7.9054174e-06
7.5480224e-06
7.0403769e-06
6.4241383e-06
5.7368025e-06
5.0317584e-06
4.3153116e-06
3.6433853e-06
3.0028822e-06
2.441332e-06
1.8820349e-06
1.4082304e-06
9.5858394e-07
6.523053e-07
3.089536e-07
1.6794191e-07
4.3398589e-08
8.1725727e-06
8.2449239e-06
8.6439066e-06
1.0031866e-05
1.3585219e-05
2.1255819e-05
3.5965436e-05
6.1471675e-05
0.00010239142
0.00015542432
0.00021614127
0.00028428067
0.00035222384
0.00041209834
0.00045420169
0.00047128871
0.00046056508
0.00042460022
0.00037031041
0.00030667689
0.00024226265
0.00018350607
0.00013408263
9.5150114e-05
6.6077223e-05
4.5273023e-05
3.0868021e-05
2.1143594e-05
1.4703428e-05
1.0515891e-05
7.8775845e-06
6.2715406e-06
5.2612503e-06
4.7453407e-06
4.5112585e-06
4.464259e-06
4.5344365e-06
4.6715885e-06
4.8685838e-06
8.2338802e-06
8.1035837e-06
7.8516986e-06
7.4511074e-06
6.9148677e-06
6.290753e-06
5.6081483e-06
4.9143358e-06
4.2163207e-06
3.5799662e-06
2.9689055e-06
2.3951483e-06
1.8253349e-06
1.369163e-06
9.343856e-07
6.3056337e-07
3.0073792e-07
1.5631155e-07
4.6506715e-08
8.3546147e-06
8.7366477e-06
9.9344283e-06
1.2963587e-05
1.9522529e-05
3.2267689e-05
5.4948497e-05
9.2076541e-05
0.00014865454
0.00021839144
0.00029292208
0.00037203234
0.0004452412
0.00050315644
0.00053569862
0.00053715456
0.00050769227
0.00045328162
0.00038352888
0.00030878143
0.00023768131
0.00017589327
0.00012596642
8.7955779e-05
6.0367912e-05
4.1066379e-05
2.7925292e-05
1.9153514e-05
1.3398109e-05
9.7251091e-06
7.4447379e-06
5.9558381e-06
5.1521166e-06
4.7276062e-06
4.5665733e-06
4.5677414e-06
4.676044e-06
4.8449604e-06
5.0715439e-06
8.4099914e-06
8.2338732e-06
8.0438366e-06
7.7395333e-06
7.3006107e-06
6.7495883e-06
6.1264948e-06
5.4549339e-06
4.7805396e-06
4.1278469e-06
3.5263734e-06
2.90775e-06
2.3106432e-06
1.7692559e-06
1.3269493e-06
9.0330013e-07
6.0313946e-07
2.901627e-07
1.4236923e-07
4.6660658e-08
8.8055678e-06
9.8958596e-06
1.2552093e-05
1.8258029e-05
2.9368028e-05
4.9356907e-05
8.2841822e-05
0.00013500335
0.00021070556
0.00029967434
0.00038795167
0.00047615553
0.00055074806
0.00060142075
0.00061877317
0.00059984564
0.00054864148
0.00047471925
0.00038996711
0.00030544091
0.00022926531
0.00016593471
0.000116662
8.0330439e-05
5.4626269e-05
3.6978971e-05
2.5117499e-05
1.7282844e-05
1.2239005e-05
9.0641961e-06
6.9333675e-06
5.746609e-06
5.0634433e-06
4.741293e-06
4.6469688e-06
4.6941295e-06
4.8402193e-06
5.0416321e-06
5.2983606e-06
8.8429709e-06
8.4099844e-06
8.172552e-06
7.9207793e-06
7.5666083e-06
7.1030241e-06
6.5472085e-06
5.9320201e-06
5.2818255e-06
4.6593515e-06
4.0538972e-06
3.4430685e-06
2.7923595e-06
2.2261941e-06
1.7087635e-06
1.2749887e-06
8.6572708e-07
5.7070389e-07
2.7804366e-07
1.2657485e-07
4.4365489e-08
9.8842175e-06
1.2291985e-05
1.7361689e-05
2.7176476e-05
4.4869206e-05
7.4808599e-05
0.00012244989
0.00019342431
0.00029161507
0.00040174735
0.00050237241
0.00059625941
0.00066683563
0.00070389845
0.0007000713
0.0006563971
0.00058131382
0.00048775896
0.00038923379
0.00029675897
0.00021738761
0.00015410176
0.00010659621
7.2563747e-05
4.8993483e-05
3.3049336e-05
2.2464852e-05
1.5610972e-05
1.1258949e-05
8.2756714e-06
6.5839535e-06
5.5552733e-06
5.0166188e-06
4.7866705e-06
4.7542925e-06
4.8456282e-06
5.0291391e-06
5.2635903e-06
5.5507734e-06
9.8848546e-06
8.8429645e-06
8.3545942e-06
8.0480279e-06
7.7328887e-06
7.34087e-06
6.8627284e-06
6.3096973e-06
5.7146426e-06
5.1240043e-06
4.5563166e-06
3.9485532e-06
3.2882667e-06
2.6776039e-06
2.1380137e-06
1.635974e-06
1.2140567e-06
8.2219457e-07
5.3402708e-07
2.6442094e-07
1.1025022e-07
4.0415115e-08
1.2143079e-05
1.675674e-05
2.5572128e-05
4.1397691e-05
6.8245614e-05
0.00011139086
0.00017701722
0.00027073257
0.00039423346
0.00052647438
0.0006363658
0.00073078822
0.00079047693
0.00080678562
0.00077588484
0.00070391016
0.00060390726
0.00049159967
0.0003812442
0.00028309241
0.00020263245
0.00014098804
9.6191099e-05
6.4861697e-05
4.3533715e-05
2.9320469e-05
2.0083397e-05
1.4185935e-05
1.0081278e-05
7.7321305e-06
6.2469709e-06
5.4213526e-06
5.0111227e-06
4.8657509e-06
4.8910265e-06
5.0245674e-06
5.2450367e-06
5.5125366e-06
5.8301599e-06
1.2080075e-05
9.884849e-06
8.8055481e-06
8.2448882e-06
7.8604441e-06
7.4901636e-06
7.0691613e-06
6.5842753e-06
6.0476918e-06
5.5156333e-06
4.9890808e-06
4.4231846e-06
3.7517895e-06
3.1343702e-06
2.5593244e-06
2.0351105e-06
1.5516087e-06
1.1453413e-06
7.7323801e-07
4.9407072e-07
2.4874291e-07
9.4670251e-08
3.5605278e-08
1.6393055e-05
2.4459663e-05
3.8804196e-05
6.3076265e-05
0.00010222157
0.00016235241
0.00025008164
0.00037029337
0.00052088146
0.00067479067
0.00078885706
0.00087687067
0.00091755412
0.00090564668
0.00084239166
0.0007397416
0.00061502056
0.00048583174
0.00036625353
0.00026512044
0.00018580073
0.00012719694
8.5743897e-05
5.7327764e-05
3.8331597e-05
2.5962392e-05
1.8041048e-05
1.2466299e-05
9.2711228e-06
7.1907434e-06
5.9904195e-06
5.3423221e-06
5.0487865e-06
4.980958e-06
5.0594352e-06
5.2332181e-06
5.4896413e-06
5.7895762e-06
6.1372285e-06
1.6229807e-05
1.2080071e-05
9.8842003e-06
8.7366135e-06
8.0838984e-06
7.6228542e-06
7.2030431e-06
6.7599141e-06
6.282537e-06
5.8084242e-06
5.343673e-06
4.8288912e-06
4.1784304e-06
3.5573354e-06
2.9786588e-06
2.4233164e-06
1.919448e-06
1.4574935e-06
1.0697333e-06
7.1966764e-07
4.5185272e-07
2.3084409e-07
8.0652528e-08
3.055415e-08
2.3776749e-05
3.6976524e-05
5.9153397e-05
9.4885752e-05
0.00015003285
0.00023132403
0.00034528936
0.0004951403
0.00067304668
0.00084633962
0.0009572873
0.001030274
0.0010429899
0.00099567017
0.00089590342
0.00076167953
0.00061373759
0.00047047772
0.00034497906
0.00024388485
0.00016773877
0.00011314895
7.541754e-05
5.0118523e-05
3.3636369e-05
2.3067214e-05
1.5570864e-05
1.1293575e-05
8.4467177e-06
6.7633748e-06
5.8073895e-06
5.3200016e-06
5.1319076e-06
5.1344897e-06
5.2617031e-06
5.47319e-06
5.7639996e-06
6.095371e-06
6.4715617e-06
2.3464172e-05
1.6229806e-05
1.2143065e-05
9.8958285e-06
8.6438552e-06
7.8893626e-06
7.3507061e-06
6.8853264e-06
6.4334762e-06
6.0098597e-06
5.6014787e-06
5.1558579e-06
4.5374568e-06
3.9386992e-06
3.3630219e-06
2.8036074e-06
2.2723248e-06
1.7932629e-06
1.3559213e-06
9.8845865e-07
6.6244102e-07
4.0839966e-07
2.1098849e-07
6.8511905e-08
2.5661381e-08
3.5839487e-05
5.6355286e-05
8.924135e-05
0.00014003396
0.00021536929
0.00032215955
0.00046616756
0.00064773469
0.00085099766
0.0010391723
0.0011374909
0.001185461
0.0011609804
0.001071964
0.00093311555
0.00076806282
0.00059966988
0.00044617646
0.00031871661
0.0002205451
0.00014902962
9.9093485e-05
6.5487683e-05
4.3601119e-05
2.9566962e-05
1.9562611e-05
1.3909757e-05
1.0081038e-05
7.7848254e-06
6.4359493e-06
5.7001438e-06
5.3562657e-06
5.2627385e-06
5.3283387e-06
5.4990987e-06
5.745438e-06
6.0688277e-06
6.4296547e-06
6.8316522e-06
3.5314395e-05
2.3464173e-05
1.6393048e-05
1.2291961e-05
9.9343806e-06
8.5517372e-06
7.6831415e-06
7.0652933e-06
6.5643019e-06
6.1461283e-06
5.7758817e-06
5.3930152e-06
4.8208103e-06
4.2550824e-06
3.7030384e-06
3.1475764e-06
2.6135133e-06
2.1102438e-06