/*--------------------------------*- C++ -*----------------------------------*\
| =========                 |                                                 |
| \\      /  F ield         | OpenFOAM: The Open Source CFD Toolbox           |
|  \\    /   O peration     | Version:  5.0                                   |
|   \\  /    A nd           | Web:      www.OpenFOAM.org                      |
|    \\/     M anipulation  |                                                 |
\*---------------------------------------------------------------------------*/
FoamFile
{
    version     2.0;
    format      ascii;
    class       volVectorField;
    location    "105";
    object      U;
}
// * * * * * * * * * * * * * * * * * * * * * * * * * * * * * * * * * * * * * //

dimensions      [0 1 -1 0 0 0 0];

internalField   nonuniform List<vector> 
9200
(
(1.0238756 -0.00058102678 -2.2491089e-23)
(1.024224 -0.0017015142 -9.4183769e-21)
(1.0254885 -0.00059353703 0)
(1.0246242 -0.0027302497 4.7969304e-21)
(1.0258203 -0.0017396923 -7.3468902e-21)
(1.0262486 -0.00060238296 0)
(1.0250574 -0.0036825915 4.8319477e-22)
(1.0261969 -0.0027872963 -4.8926742e-22)
(1.026575 -0.0017718331 0)
(1.0273563 -0.000616516 0)
(1.0255489 -0.0045391298 -8.8578403e-21)
(1.0265931 -0.0037652703 -4.7445374e-21)
(1.0269416 -0.0028375597 -4.0490272e-21)
(1.0276739 -0.0018244201 -2.5605007e-22)
(1.028282 -0.00062927237 1.9022005e-24)
(1.0260699 -0.0053205522 -8.1334229e-21)
(1.0270401 -0.0046435387 8.5088719e-22)
(1.0273215 -0.0038387768 -1.2812907e-20)
(1.0280292 -0.0029183327 -4.6780157e-21)
(1.028594 -0.0018763339 2.1219805e-22)
(1.0292891 -0.00064315708 1.0893952e-20)
(1.0266041 -0.0060174563 -6.9835374e-21)
(1.0275082 -0.0054501945 -8.7641057e-21)
(1.0277495 -0.0047375094 7.7773823e-21)
(1.0283909 -0.003957335 4.0510828e-22)
(1.0289414 -0.0029984791 -5.2054129e-21)
(1.0295977 -0.0019366668 -4.9898129e-21)
(1.0302369 -0.00065535022 -6.885871e-22)
(1.0271264 -0.0066402146 -2.3160882e-21)
(1.0279808 -0.0061710041 -5.5757096e-21)
(1.0281942 -0.0055674636 -8.0404066e-21)
(1.0287974 -0.0048907637 5.9851761e-22)
(1.0292897 -0.0040755361 1.1718806e-20)
(1.0299423 -0.0030916799 5.0873044e-21)
(1.0305434 -0.0019950617 7.0179408e-21)
(1.0312112 -0.00066626876 -1.0602023e-20)
(1.0276188 -0.0071890282 7.9794924e-21)
(1.0284341 -0.0068188293 -7.044584e-21)
(1.0286398 -0.0063110684 6.3170577e-22)
(1.0292151 -0.005760328 -4.2901389e-21)
(1.0296803 -0.0050442554 1.3134184e-21)
(1.030285 -0.0042145883 1.8602821e-20)
(1.0308869 -0.0031816369 -5.1999441e-21)
(1.0315198 -0.0020540235 1.1861579e-20)
(1.0321487 -0.00067432056 2.2551349e-20)
(1.0280646 -0.0076700202 -5.5431932e-21)
(1.0288507 -0.0073923355 4.1698977e-21)
(1.0290623 -0.0069826362 6.5948938e-23)
(1.0296285 -0.0065438441 -2.1847718e-21)
(1.0300774 -0.0059539884 1.3057055e-21)
(1.0306687 -0.0052271925 2.1067439e-21)
(1.0312263 -0.0043498627 -6.5301433e-21)
(1.0318691 -0.0032725593 -1.1896007e-20)
(1.0324604 -0.002106929 -6.3146198e-21)
(1.0330924 -0.00067930292 -1.5658569e-21)
(1.0284506 -0.0080873195 2.58269e-21)
(1.0292157 -0.0078980571 7.4039422e-22)
(1.0294449 -0.0075797913 -5.7402008e-21)
(1.0300138 -0.0072575412 5.2782064e-21)
(1.0304661 -0.0067780808 -9.7732901e-21)
(1.0310549 -0.0061878442 1.9709794e-20)
(1.0316057 -0.0054060753 6.5723837e-22)
(1.032215 -0.004489228 -2.004996e-20)
(1.0328181 -0.0033538712 1.0022014e-20)
(1.0334118 -0.0021540152 -2.0408853e-20)
(1.0340022 -0.00068031875 3.3178411e-21)
(1.0287644 -0.0084465803 -2.5930889e-22)
(1.0295169 -0.0083395454 -4.5070973e-22)
(1.0297733 -0.0081092446 3.9271472e-21)
(1.0303548 -0.007897486 0)
(1.0308223 -0.0075343267 -1.3374205e-23)
(1.0314286 -0.007064795 -1.9677653e-21)
(1.0319842 -0.0064175946 4.0839685e-21)
(1.0326014 -0.0055935254 1.0022889e-20)
(1.033175 -0.0046163788 -1.5705005e-21)
(1.0337845 -0.0034261427 1.2410582e-20)
(1.0343317 -0.0021907992 8.4532171e-21)
(1.0349013 -0.00067695118 -1.7627745e-21)
(1.028993 -0.0087536147 -1.2798586e-22)
(1.0297442 -0.0087221441 1.2158545e-21)
(1.0300361 -0.008574273 0)
(1.0306376 -0.0084703535 0)
(1.0311304 -0.0082172599 3.3629487e-21)
(1.0317648 -0.0078774836 -6.4237452e-21)
(1.0323461 -0.007347606 1.022929e-20)
(1.0329845 -0.0066626634 -1.0623458e-20)
(1.0335735 -0.0057669031 -7.9208037e-22)
(1.0341615 -0.0047333771 1.5114158e-23)
(1.0347233 -0.0034821468 -1.5320538e-20)
(1.0352455 -0.0022163719 1.7009294e-20)
(1.0357663 -0.00066873997 -3.0356994e-20)
(1.0291172 -0.0090149136 8.5511713e-22)
(1.0298876 -0.0090509515 -2.0349584e-22)
(1.0302242 -0.008980282 3.0195497e-21)
(1.0308517 -0.0089786483 -3.5477776e-21)
(1.031377 -0.0088334089 3.857169e-21)
(1.0320475 -0.008618353 -1.6628836e-21)
(1.032666 -0.0082171454 -2.5730906e-21)
(1.0333476 -0.0076543961 1.6966873e-22)
(1.0339671 -0.0068925453 -9.0247573e-21)
(1.0345831 -0.0059304599 -8.1443432e-21)
(1.0351268 -0.0048290768 -3.985641e-21)
(1.0356619 -0.0035205029 -1.0823474e-20)
(1.0361263 -0.0022280047 -7.2740937e-21)
(1.0366026 -0.00065544216 8.1990404e-21)
(1.0291028 -0.0092384056 2.1941923e-21)
(1.0299332 -0.0093317663 -4.9294904e-21)
(1.0303287 -0.0093324201 6.7474919e-22)
(1.0309889 -0.0094272918 2.08713e-22)
(1.0315523 -0.0093844776 -1.7323805e-22)
(1.032263 -0.0092934409 1.9190385e-21)
(1.032929 -0.0090171183 -2.4024069e-21)
(1.033664 -0.0085914387 3.2760807e-21)
(1.0343379 -0.0079456997 -1.0330456e-21)
(1.0349994 -0.0071149363 7.0183516e-22)
(1.0355786 -0.0060688434 2.4039167e-22)
(1.0361005 -0.0049021752 1.7226063e-24)
(1.0365714 -0.0035368684 1.5045259e-20)
(1.0369838 -0.0022247238 -7.5538921e-21)
(1.037401 -0.00063684441 6.205339e-21)
(1.0288852 -0.0094332718 -1.7793552e-21)
(1.0298547 -0.0095718838 3.5037494e-21)
(1.0303376 -0.009636694 -2.0495511e-21)
(1.0310422 -0.0098207535 3.3211421e-21)
(1.0316491 -0.0098750421 -3.6993612e-21)
(1.0324033 -0.0099037758 7.8622211e-21)
(1.0331218 -0.0097533469 -9.2483041e-21)
(1.0339173 -0.0094620699 4.2215362e-22)
(1.0346577 -0.0089506642 2.7073371e-21)
(1.0353906 -0.0082336898 -2.7021587e-21)
(1.0360263 -0.0073093492 2.6285893e-20)
(1.0365932 -0.0061811969 -9.1808442e-21)
(1.0370522 -0.0049457941 -4.9982805e-21)
(1.0374647 -0.0035293379 -1.8568766e-21)
(1.0378052 -0.0022050277 -1.0501114e-22)
(1.0381591 -0.00061274833 -6.6742677e-21)
(1.0283528 -0.0096102162 0)
(1.0296 -0.0097799784 3.551726e-21)
(1.0302278 -0.0099001597 -1.200218e-21)
(1.0310017 -0.010164443 0)
(1.0316614 -0.010309263 0)
(1.0324621 -0.010453033 0)
(1.0332354 -0.010425292 4.0549127e-22)
(1.0340945 -0.010271375 -5.7337367e-21)
(1.0349104 -0.0098938811 5.3403993e-21)
(1.0357266 -0.0093127518 -7.4993527e-21)
(1.0364473 -0.0084922127 8.4121266e-22)
(1.0370842 -0.0074759919 -5.4966906e-21)
(1.037594 -0.0062579451 6.8865117e-22)
(1.0379957 -0.0049572357 5.5249564e-21)
(1.0383243 -0.003495633 1.1803418e-21)
(1.0385892 -0.0021678592 3.4911854e-21)
(1.038872 -0.0005831919 0)
(1.0273321 -0.0097813399 -7.7248526e-22)
(1.0290731 -0.0099681751 -5.8129308e-21)
(1.0299527 -0.01013111 7.6109056e-21)
(1.0308493 -0.010464528 3.6883989e-21)
(1.0315816 -0.010692361 4.6623933e-21)
(1.0324344 -0.010944506 0)
(1.0332639 -0.011035812 5.8898613e-21)
(1.0341872 -0.011017479 -1.6393111e-21)
(1.0350819 -0.010779543 -1.3951171e-20)
(1.0359898 -0.010335901 6.4849575e-21)
(1.0368099 -0.0096452426 4.3790433e-21)
(1.0375481 -0.0087230986 8.5938828e-22)
(1.0381384 -0.007601953 -1.2519969e-20)
(1.0385965 -0.0062958604 1.8157737e-20)
(1.0389115 -0.0049327793 3.6039853e-21)
(1.0391512 -0.0034344231 2.4953268e-20)
(1.0393303 -0.002112725 9.0640358e-21)
(1.0395362 -0.00054826959 7.676769e-21)
(1.0255853 -0.0099583767 1.3945407e-22)
(1.0281156 -0.010151538 -2.8870243e-21)
(1.029424 -0.010340362 -1.4143617e-21)
(1.0305461 -0.010728821 4.7268827e-21)
(1.0313947 -0.011030149 -5.7717361e-22)
(1.0323145 -0.011382582 2.9027782e-21)
(1.0332036 -0.011587391 -3.5074652e-21)
(1.0341902 -0.011702201 -1.2412356e-20)
(1.0351634 -0.011604192 -4.7407196e-21)
(1.0361654 -0.011306511 6.2321201e-21)
(1.0370952 -0.01074998 -1.3993422e-21)
(1.0379509 -0.0099521515 1.1209781e-20)
(1.0386566 -0.0089097149 -6.3681425e-21)
(1.0392061 -0.0076836991 -3.3980683e-22)
(1.0395796 -0.0062894476 -1.0402385e-21)
(1.0398041 -0.0048701206 -4.1071134e-21)
(1.0399386 -0.0033446625 8.0794999e-21)
(1.0400249 -0.0020393358 -2.2961026e-22)
(1.0401486 -0.00050818198 6.6615164e-21)
(1.0228276 -0.010150495 1.1508644e-21)
(1.0264982 -0.010347082 3.3463512e-21)
(1.0284925 -0.010540995 -1.5746695e-20)
(1.0300147 -0.010967796 -1.9747756e-21)
(1.0310674 -0.011330088 2.2448478e-21)
(1.0320909 -0.011772274 1.1477188e-21)
(1.0330501 -0.012083641 1.108902e-21)
(1.0341004 -0.012326913 5.9742281e-21)
(1.03515 -0.012368432 -1.9557976e-21)
(1.0362447 -0.012219433 -1.520731e-20)
(1.0372871 -0.011808915 1.2822599e-20)
(1.0382714 -0.011142234 -1.0628716e-21)
(1.039112 -0.010212808 -4.4577882e-21)
(1.0397917 -0.009048436 3.5179607e-22)
(1.0402645 -0.007713483 -6.213909e-23)
(1.0405482 -0.0062353461 -1.4453637e-20)
(1.0406608 -0.0047677011 3.3119403e-21)
(1.0406824 -0.0032256684 -1.2943466e-20)
(1.0406692 -0.0019478659 -3.1005284e-21)
(1.0407067 -0.00046320809 -6.4563987e-21)
(1.0187637 -0.01036181 1.9874136e-23)
(1.0239311 -0.010571033 4.8635176e-21)
(1.026937 -0.010747631 5.4942938e-22)
(1.0291187 -0.011194926 4.420296e-21)
(1.0305305 -0.011601943 1.6121204e-22)
(1.0317363 -0.012120368 -3.4645681e-21)
(1.0327947 -0.012528917 8.9623456e-21)
(1.0339151 -0.012894177 1.7017602e-20)
(1.0350391 -0.013072371 -6.4046552e-21)
(1.0362226 -0.01307386 0)
(1.0373761 -0.012815065 -8.2533284e-21)
(1.0384922 -0.012294972 4.4435045e-21)
(1.0394815 -0.011488173 1.2215259e-20)
(1.0403141 -0.010423696 -9.1020661e-21)
(1.0409296 -0.009128899 5.2473237e-21)
(1.0413194 -0.0076870122 -1.1889112e-20)
(1.0414879 -0.0061310121 -9.0088331e-22)
(1.0414795 -0.0046243883 4.5179175e-21)
(1.0413784 -0.0030776638 -7.2633319e-21)
(1.0412604 -0.0018387648 -7.0277833e-22)
(1.0412086 -0.00041369891 -5.4767178e-21)
(1.0131383 -0.010589604 -2.9547055e-21)
(1.0200958 -0.010835081 3.8503206e-21)
(1.0244707 -0.010974241 7.4190205e-21)
(1.0276474 -0.011426114 -8.7908275e-21)
(1.029658 -0.011858325 -6.2563115e-21)
(1.0311907 -0.012435973 1.2710926e-21)
(1.0324148 -0.01292921 0)
(1.0336281 -0.01340752 4.0973196e-21)
(1.0348292 -0.013717467 -2.5430064e-21)
(1.0360971 -0.013868376 -1.5684672e-20)
(1.0373567 -0.013766043 -1.9630815e-21)
(1.0386029 -0.013401446 3.1237741e-21)
(1.0397456 -0.012736631 -7.2310132e-22)
(1.0407474 -0.011784375 -4.2589458e-21)
(1.0415326 -0.010571529 6.7425018e-21)
(1.0420765 -0.0091458666 -6.2578781e-21)
(1.0423548 -0.0076001752 1.5057852e-21)
(1.0423982 -0.0059743931 -8.9177736e-21)
(1.0422544 -0.0044399845 -1.8626743e-21)
(1.042023 -0.0029012618 -3.6391696e-22)
(1.0417962 -0.0017127954 -3.3217155e-21)
(1.0416532 -0.00036006265 0)
(1.0057852 -0.010823937 -1.550688e-21)
(1.0146958 -0.011142723 -1.8751696e-21)
(1.0207696 -0.011230895 2.013024e-24)
(1.0253161 -0.011677451 -9.0253225e-21)
(1.028249 -0.012114306 -4.4640478e-21)
(1.0303397 -0.012731357 3.5348534e-21)
(1.0318582 -0.013292858 -2.8690399e-21)
(1.0332216 -0.013872085 1.0920325e-20)
(1.0345162 -0.014306216 4.000857e-21)
(1.0358677 -0.014603152 8.9980899e-22)
(1.0372271 -0.014658823 -1.9956411e-22)
(1.0385975 -0.014457623 -6.5357875e-21)
(1.0398926 -0.013947322 1.1538287e-21)
(1.04107 -0.013130573 -1.2212378e-21)
(1.0420448 -0.012014583 -1.0102665e-20)
(1.0427745 -0.010650095 -1.0588909e-20)
(1.0432154 -0.0090932764 8.7153606e-22)
(1.0433699 -0.0074498282 1.5835438e-20)
(1.0432689 -0.005765143 5.5736899e-22)
(1.0429812 -0.004214908 -4.4498163e-21)
(1.0426132 -0.0026976201 0)
(1.0422749 -0.0015709711 6.5839746e-21)
(1.0420399 -0.0003027522 1.7352026e-22)
(0.99666175 -0.011048899 1.0274294e-20)
(1.0075106 -0.011486944 -3.7969429e-21)
(1.0155201 -0.011520512 7.7104676e-21)
(1.0217906 -0.011961825 3.8634782e-21)
(1.0260245 -0.012385645 -1.0063335e-20)
(1.0289939 -0.013021737 0)
(1.0310209 -0.013631361 -5.5120549e-22)
(1.0326513 -0.014295398 5.0161743e-21)
(1.0340863 -0.014842741 7.4992444e-21)
(1.0355322 -0.015279432 7.8027958e-21)
(1.0369875 -0.015492048 -7.6392408e-21)
(1.0384742 -0.015458625 -6.8426058e-21)
(1.0399155 -0.015114495 8.7747077e-21)
(1.0412684 -0.014449534 -9.1715877e-21)
(1.0424422 -0.013457634 1.4724463e-20)
(1.0433813 -0.012171535 2.0188918e-20)
(1.0440219 -0.010651001 -4.6992408e-21)
(1.0443452 -0.0089667776 6.2482883e-21)
(1.0443531 -0.0072346482 -1.7616966e-20)
(1.044097 -0.005502845 3.9632166e-21)
(1.0436555 -0.0039504087 8.6926665e-21)
(1.0431466 -0.002468272 -6.4132851e-21)
(1.0426954 -0.0014145256 3.2627085e-21)
(1.0423688 -0.00024225121 1.3894146e-22)
(0.98586104 -0.011245168 2.0089516e-21)
(0.99844017 -0.01185014 -2.2745713e-21)
(1.0084749 -0.011836933 -1.2861137e-21)
(1.0167327 -0.0122852 -1.9826956e-20)
(1.0226458 -0.012685544 6.29788e-21)
(1.0268804 -0.013323562 -1.2309643e-20)
(1.0297244 -0.013959487 -4.2986647e-22)
(1.0318239 -0.014688332 -1.3009721e-20)
(1.0335021 -0.015333588 3.5642366e-21)
(1.0350807 -0.0159002 4.6834745e-21)
(1.0366373 -0.016265525 -5.2909413e-21)
(1.0382334 -0.016401381 1.053212e-20)
(1.0398119 -0.016231314 -5.5930432e-21)
(1.0413344 -0.015733758 -5.9773871e-22)
(1.042709 -0.014886173 7.8740174e-21)
(1.0438702 -0.013709438 2.0439923e-21)
(1.0447389 -0.012244267 -1.0122827e-21)
(1.0452736 -0.010568487 1.0027137e-20)
(1.0454529 -0.008763613 0)
(1.0453003 -0.0069535353 1.7398156e-21)
(1.0448753 -0.0051890373 4.7419643e-22)
(1.0442742 -0.0036482673 -8.1137828e-22)
(1.0436214 -0.0022151302 -3.1606418e-22)
(1.0430575 -0.0012448631 -4.5480898e-21)
(1.0426404 -0.00017906064 -1.4402672e-21)
(0.97359911 -0.011393141 -9.6844025e-21)
(0.98752745 -0.012206357 7.6474117e-22)
(0.99950079 -0.012164961 2.4584712e-21)
(1.0098585 -0.012643776 2.1865545e-21)
(1.0177577 -0.013020834 1.9279934e-20)
(1.0236562 -0.013651276 1.2358564e-21)
(1.027703 -0.014293842 -3.65762e-22)
(1.0305732 -0.015065328 8.7635765e-22)
(1.0326804 -0.01578869 1.0286323e-20)
(1.0344823 -0.01647091 -2.1912618e-21)
(1.0361698 -0.016980878 6.5467627e-21)
(1.0378761 -0.017284052 -1.1222028e-21)
(1.0395826 -0.017292828 -5.2241021e-21)
(1.041265 -0.016974352 2.0196449e-21)
(1.0428354 -0.016291017 -2.0140051e-21)
(1.0442229 -0.015247735 -1.1055596e-20)
(1.0453365 -0.013872312 -1.2474562e-20)
(1.0461159 -0.012225407 -1.4411063e-20)
(1.0465153 -0.010397912 -2.0235105e-20)
(1.0465334 -0.0084816497 -2.3244835e-22)
(1.0462029 -0.0066075151 1.8079123e-20)
(1.0456002 -0.0048251942 2.6512112e-21)
(1.0448344 -0.0033108877 -5.798849e-21)
(1.0440367 -0.0019403885 4.3935885e-21)
(1.0433614 -0.0010635196 -2.5255969e-21)
(1.042856 -0.00011368885 1.4632655e-22)
(0.96018278 -0.011475768 4.263709e-22)
(0.97495492 -0.012525087 -1.5822997e-22)
(0.98860777 -0.01248237 -8.8971481e-21)
(1.0009924 -0.013023229 1.0680142e-20)
(1.0110464 -0.013388952 -1.501628e-20)
(1.0189485 -0.014013467 1.0987827e-20)
(1.0246131 -0.01464983 7.2534257e-21)
(1.0286424 -0.015443232 9.8081397e-21)
(1.0314663 -0.016221852 -1.4847587e-20)
(1.0336637 -0.01700053 -6.4052217e-21)
(1.0355599 -0.017642244 7.2088671e-22)
(1.0373982 -0.01810671 -1.6629122e-20)
(1.0392293 -0.018295341 1.5569241e-20)
(1.0410605 -0.018164334 -4.998336e-21)
(1.042817 -0.017661205 2.7387699e-21)
(1.0444277 -0.016775675 1.2264642e-21)
(1.0457938 -0.015517812 -7.9577242e-21)
(1.0468395 -0.013937077 8.4978862e-21)
(1.0474976 -0.012108047 -8.380799e-21)
(1.0477409 -0.01013576 4.2484513e-22)
(1.0475764 -0.0081209667 0)
(1.0470559 -0.0061977871 6.6921399e-21)
(1.0462671 -0.0044143398 1.3321657e-21)
(1.0453341 -0.0029410935 0)
(1.044392 -0.0016464711 -4.9138661e-21)
(1.0436078 -0.00087212182 -4.9916931e-22)
(1.0430172 -4.6648817e-05 2.2071005e-22)
(0.94596753 -0.011481051 3.3717677e-21)
(0.96101708 -0.012775588 1.2622882e-23)
(0.97595131 -0.012763355 -7.2622489e-21)
(0.9901027 -0.013400426 7.5032427e-22)
(1.0022978 -0.01377684 -3.2475052e-21)
(1.0124122 -0.014409556 -1.1976454e-20)
(1.0200685 -0.015037572 -6.4762179e-22)
(1.0256883 -0.015838308 -9.2471276e-21)
(1.0296128 -0.016649815 1.2814933e-21)
(1.0324821 -0.017502151 1.0867078e-20)
(1.0347435 -0.018257348 -1.0124428e-20)
(1.0367802 -0.018872004 -3.1316607e-21)
(1.0387504 -0.019237147 -6.8616892e-21)
(1.0407233 -0.019297972 2.9173298e-21)
(1.0426538 -0.018987639 -5.3431527e-21)
(1.0444786 -0.018280263 3.7580461e-21)
(1.0460965 -0.017168663 -4.3767272e-21)
(1.0474202 -0.015685272 3.0648311e-20)
(1.0483639 -0.013894247 1.0095832e-20)
(1.0488768 -0.01188694 5.2589412e-21)
(1.0489385 -0.0097806901 1.0311851e-20)
(1.0485753 -0.0076821198 -1.8521103e-21)
(1.0478527 -0.0057273408 -6.5213935e-22)
(1.046873 -0.0039595356 0)
(1.0457719 -0.0025421252 0)
(1.0446877 -0.001335936 4.1962559e-22)
(1.0437981 -0.00067234204 -9.87713e-22)
(1.043126 2.1530704e-05 5.1661837e-22)
(0.93131724 -0.011405354 0)
(0.94607585 -0.012932732 -3.3207211e-22)
(0.96181243 -0.012982007 6.3706614e-21)
(0.97731066 -0.013746906 4.1576282e-21)
(0.99144059 -0.014162254 1.1174567e-20)
(1.003793 -0.014828123 1.4346951e-21)
(1.0136976 -0.015458139 -7.5207834e-21)
(1.0213119 -0.016262042 -1.4729861e-20)
(1.0267788 -0.017089457 1.6097852e-20)
(1.0307012 -0.017992326 -3.6273176e-21)
(1.0335897 -0.018838296 9.1671795e-22)
(1.0359668 -0.019586268 3.5142403e-21)
(1.0381309 -0.020119158 -2.0285809e-20)
(1.0402538 -0.020371576 5.1937814e-21)
(1.0423483 -0.020262401 3.88837e-21)
(1.0443745 -0.019750252 -4.8223167e-21)
(1.0462369 -0.018809981 3.9470059e-21)
(1.0478411 -0.017456815 -6.4795089e-21)
(1.049087 -0.015737827 1.9672804e-20)
(1.049902 -0.013736504 -3.0752217e-21)
(1.0502401 -0.011558866 8.6042689e-21)
(1.0501001 -0.0093322072 5.497717e-21)
(1.0495219 -0.0071676765 -5.9423093e-22)
(1.0485891 -0.0051994245 -1.4626054e-20)
(1.047415 -0.0034648603 -4.5272306e-21)
(1.0461474 -0.002117541 1.1258269e-21)
(1.0449246 -0.0010114204 2.1163369e-21)
(1.0439341 -0.00046587649 1.4781317e-22)
(1.0431844 9.0223102e-05 -2.5268896e-21)
(0.91657479 -0.011239332 -1.0582618e-20)
(0.9305111 -0.01298843 0)
(0.94656227 -0.013112875 0)
(0.9628725 -0.014032056 0)
(0.97856238 -0.014517011 -2.730306e-21)
(0.99297634 -0.015247626 1.0070697e-20)
(1.0052087 -0.015901402 -4.691533e-22)
(1.0151144 -0.016717054 -4.612944e-22)
(1.0225553 -0.017553525 2.2009259e-20)
(1.0279836 -0.018488423 -2.2732197e-20)
(1.0318731 -0.019401156 1.0625215e-20)
(1.0348387 -0.02026045 -3.9362235e-21)
(1.037324 -0.020946049 6.0564187e-21)
(1.0396412 -0.021384121 -6.9825574e-21)
(1.041902 -0.021479625 1.2040399e-20)
(1.0441176 -0.021175435 5.0112e-21)
(1.0462122 -0.020428422 -4.6661814e-21)
(1.048092 -0.019235145 -1.067087e-20)
(1.0496468 -0.017624912 7.8512843e-22)
(1.050786 -0.015665789 -6.6742206e-21)
(1.0514392 -0.013458302 -1.0019403e-20)
(1.0515779 -0.011121838 1.9062089e-21)
(1.0512152 -0.0087920064 1.2072043e-20)
(1.0504099 -0.0065807432 -6.5264247e-21)
(1.0492605 -0.0046185423 -1.1205173e-21)
(1.0478916 -0.0029344547 -1.7710123e-21)
(1.0464602 -0.0016714131 2.6093098e-21)
(1.0451043 -0.00067571465 1.9710825e-21)
(1.044018 -0.00025455745 -2.4493709e-21)
(1.0431952 0.00015778239 -2.3746192e-21)
(0.90083939 -0.010963955 -5.761881e-22)
(0.91471932 -0.012910579 -4.9745659e-22)
(0.93061647 -0.013142354 0)
(0.94714193 -0.014224804 0)
(0.96389835 -0.014810079 0)
(0.98001073 -0.015639212 0)
(0.99444454 -0.016346433 0)
(1.0067648 -0.017194539 8.2121433e-23)
(1.0165197 -0.018046204 -9.1421403e-21)
(1.023912 -0.01900428 2.4790414e-20)
(1.0292611 -0.019963512 -5.571819e-22)
(1.0331822 -0.020909948 1.1853461e-20)
(1.0362214 -0.021727328 -2.1426618e-20)
(1.038846 -0.022338407 9.1841344e-21)
(1.041308 -0.02263611 -8.5572808e-22)
(1.0437105 -0.022547617 7.9289688e-21)
(1.0460239 -0.022011461 -1.2470891e-20)
(1.0481683 -0.021004945 1.9124981e-21)
(1.0500305 -0.019537578 1.2461721e-20)
(1.0515055 -0.017660651 6.0641115e-21)
(1.0525017 -0.015460893 1.3108761e-21)
(1.0529642 -0.013055714 8.7741177e-21)
(1.0528779 -0.010576199 3.4967785e-22)
(1.0522757 -0.0081626647 -4.5703786e-21)
(1.0512329 -0.0059259435 3.811276e-21)
(1.0498637 -0.0039894646 1.0442148e-20)
(1.0483017 -0.0023730587 2.5155703e-21)
(1.0467113 -0.0012076332 -1.0660984e-21)
(1.0452282 -0.00033224933 2.0962621e-22)
(1.044052 -4.113138e-05 3.2437963e-21)
(1.043165 0.00022186271 1.7495616e-21)
(0.88377355 -0.010517419 1.2835176e-20)
(0.89779006 -0.012694387 2.6297225e-23)
(0.91434497 -0.013067914 3.0077385e-21)
(0.93052489 -0.014312549 5.1906365e-21)
(0.94779663 -0.015009108 0)
(0.96510214 -0.015969398 0)
(0.98141421 -0.016764243 -7.7647405e-24)
(0.99606149 -0.017674265 1.1795113e-20)
(1.0083049 -0.018560048 -1.9263881e-20)
(1.0180401 -0.019545423 2.3612256e-20)
(1.0253301 -0.020540088 1.2815767e-21)
(1.0306711 -0.021552374 -1.5728974e-20)
(1.0346215 -0.022477424 2.0531139e-21)
(1.0377714 -0.023242267 -1.5438887e-21)
(1.0405335 -0.023732521 -9.8324854e-21)
(1.0431489 -0.023861239 1.1402076e-21)
(1.0456749 -0.02354847 1.2056186e-20)
(1.0480703 -0.022751412 -8.8124498e-22)
(1.0502313 -0.021458764 -4.0654007e-21)
(1.0520447 -0.019702189 3.1930936e-20)
(1.0534013 -0.017552718 2.5879056e-21)
(1.0542218 -0.015116828 -8.4460386e-21)
(1.054463 -0.012527212 1.6215465e-20)
(1.0541297 -0.0099235421 9.427122e-21)
(1.0532731 -0.0074485499 1.719825e-22)
(1.051986 -0.0052084262 6.1474963e-21)
(1.0503962 -0.0033177095 2.9967586e-21)
(1.0486448 -0.0017854393 -4.8002744e-23)
(1.0469019 -0.00072930032 -4.149869e-22)
(1.0452987 1.6536453e-05 -8.2977511e-22)
(1.0440389 0.00017423143 2.8456879e-21)
(1.043091 0.00029277155 2.2261405e-22)
(0.86658944 -0.0098938626 -4.4631631e-21)
(0.87934952 -0.012301023 1.1350302e-21)
(0.89689901 -0.012858592 -4.4299837e-21)
(0.91345032 -0.014284866 -4.7929805e-21)
(0.93066893 -0.01510615 0)
(0.94858325 -0.016202097 0)
(0.9662935 -0.017120288 0)
(0.98297036 -0.018126992 -1.4927066e-21)
(0.99766532 -0.019075551 1.7734889e-20)
(1.0099638 -0.020105535 1.8641348e-20)
(1.0196125 -0.021137663 1.2536623e-21)
(1.0268765 -0.022203157 -2.9819076e-21)
(1.0322052 -0.023213686 3.1857708e-20)
(1.0362275 -0.024108906 -2.0130617e-20)
(1.0394922 -0.024774721 4.1318325e-21)
(1.0424065 -0.025114606 0)
(1.0451632 -0.025031363 4.0829774e-21)
(1.0478006 -0.024461449 -1.8568548e-21)
(1.0502475 -0.023371525 1.0045891e-20)
(1.052394 -0.021771913 3.4489058e-22)
(1.0541188 -0.019714377 -1.48919e-20)
(1.0553209 -0.017292005 -2.0313771e-21)
(1.0559303 -0.014629685 -1.2821948e-20)
(1.055923 -0.011872904 -1.4253532e-20)
(1.0553226 -0.0091675346 3.3377227e-21)
(1.0542004 -0.0066548832 1.8986259e-21)
(1.0526649 -0.0044343249 -1.1617979e-21)
(1.0508566 -0.0026089463 -1.0415606e-23)
(1.0489215 -0.0011763997 -1.1802323e-22)
(1.0470334 -0.00024057039 -1.0667714e-21)
(1.0453183 0.00036976174 9.933946e-22)
(1.0439819 0.00039236389 -9.7640484e-21)
(1.0429791 0.00036145987 4.1961099e-21)
(0.8498011 -0.0090879421 -4.0955728e-21)
(0.86059099 -0.011691689 -3.2128474e-23)
(0.87784256 -0.012450411 -8.9762069e-21)
(0.89506189 -0.014048908 -6.2101277e-21)
(0.91293475 -0.015083591 2.5736123e-21)
(0.93086765 -0.016334585 4.0202042e-22)
(0.94939828 -0.017375468 1.6141456e-20)
(0.96763298 -0.018516552 -9.3780666e-21)
(0.98452361 -0.019563388 -1.3471919e-21)
(0.99939253 -0.020665652 -3.8410113e-20)
(1.0116689 -0.021751036 1.705559e-20)
(1.0213108 -0.02287011 2.4143102e-20)
(1.0285402 -0.023951995 -1.0952178e-21)
(1.0339036 -0.024955158 -1.1651595e-20)
(1.0380064 -0.025774373 -1.2681187e-20)
(1.0414067 -0.026311353 -3.9992045e-21)
(1.0444679 -0.026455871 1.8662684e-21)
(1.0473589 -0.026124338 1.4161397e-20)
(1.050081 -0.025260339 -1.2602105e-21)
(1.0525497 -0.023850957 -2.4189319e-21)
(1.0546416 -0.021926353 -1.1383159e-23)
(1.0562388 -0.019561879 -2.2244706e-20)
(1.0572468 -0.016871737 1.5468646e-21)
(1.0576127 -0.013997553 1.7763571e-21)
(1.0573311 -0.011095241 -1.8129022e-20)
(1.0564471 -0.0083130721 -5.5038534e-21)
(1.055051 -0.0057881581 -4.2837692e-21)
(1.0532664 -0.0036101477 -2.7929291e-21)
(1.0512439 -0.001869115 -1.6015083e-21)
(1.0491328 -0.00055068881 -3.617999e-22)
(1.0471084 0.00025560426 5.6865863e-22)
(1.0452898 0.00072458471 -1.9156579e-22)
(1.0438844 0.00060947126 4.4910455e-21)
(1.0428316 0.00042874992 -8.7331477e-21)
(0.83396173 -0.0080956279 4.5151903e-21)
(0.84207344 -0.010843648 1.0868937e-23)
(0.85827492 -0.011828287 1.0649253e-20)
(0.87490867 -0.01364722 2.4845488e-21)
(0.89380052 -0.014877384 -8.5647783e-21)
(0.912412 -0.016331708 -1.2882928e-20)
(0.9311383 -0.017528639 -2.0133327e-21)
(0.95034486 -0.018800345 0)
(0.96898514 -0.019986144 -1.0766111e-20)
(0.98620259 -0.021196179 -4.2779816e-20)
(1.0011642 -0.022361774 -4.3686712e-22)
(1.0134991 -0.023548885 -8.8944494e-21)
(1.0231197 -0.02470102 0)
(1.030365 -0.025797126 -1.2026222e-21)
(1.0357744 -0.026747476 2.3378174e-20)
(1.0399842 -0.027461309 5.6647459e-21)
(1.0435218 -0.027823124 -1.637494e-20)
(1.0467287 -0.027733067 0)
(1.0497323 -0.02711182 -2.3652728e-21)
(1.0525122 -0.02592151 -2.3574679e-21)
(1.0549633 -0.024168188 -2.1151104e-20)
(1.0569598 -0.021906386 -1.1870658e-21)
(1.0583864 -0.019234613 0)
(1.0591627 -0.016287441 -1.7126442e-20)
(1.0592534 -0.01322111 4.1045337e-21)
(1.0586752 -0.010198315 -1.8441363e-22)
(1.0574944 -0.0073666582 -7.2442857e-21)
(1.05582 -0.004855535 4.5018947e-21)
(1.0537884 -0.0027428982 3.7435866e-22)
(1.0515584 -0.0011041855 -1.3453692e-21)
(1.0492804 8.7097572e-05 -8.5603488e-22)
(1.0471293 0.00075575208 -8.2840886e-22)
(1.0452165 0.0010791452 0)
(1.0437492 0.00082540795 -1.7729909e-22)
(1.0426515 0.00049458236 -2.8905548e-21)
(0.81964043 -0.0069215176 3.2401629e-21)
(0.82443525 -0.009744997 1.3193141e-21)
(0.83881991 -0.010967442 9.5464858e-21)
(0.85409907 -0.012998384 1.0978516e-21)
(0.8728123 -0.014453235 -1.9825606e-21)
(0.8924028 -0.016102858 -1.5296871e-21)
(0.91197152 -0.017542177 -1.2329673e-20)
(0.93151241 -0.018981927 -3.108964e-23)
(0.95132183 -0.020297688 0)
(0.97046022 -0.021658222 1.3290055e-20)
(0.98792834 -0.02294004 -1.4365002e-20)
(1.0030608 -0.024221264 2.114464e-21)
(1.0154348 -0.02545712 -9.633276e-21)
(1.0250873 -0.026644108 1.3842643e-20)
(1.0323602 -0.027710072 5.9418101e-21)
(1.0378468 -0.02857934 2.0172776e-20)
(1.0421715 -0.029140797 -3.2019021e-20)
(1.0458516 -0.029286035 -6.4440864e-21)
(1.0491889 -0.028916095 1.7965347e-20)
(1.0522822 -0.027967558 -1.852513e-20)
(1.0550823 -0.026420011 1.9053038e-20)
(1.0574744 -0.02430389 -7.2278945e-21)
(1.0593299 -0.021698253 0)
(1.0605436 -0.018725028 -4.5597096e-21)
(1.0610506 -0.015537439 9.3899228e-22)
(1.0608376 -0.012303095 7.6777762e-21)
(1.0599438 -0.0091881908 3.8053371e-21)
(1.058457 -0.0063358169 1.9676425e-21)
(1.0565031 -0.0038649329 2.6373783e-21)
(1.0542297 -0.0018397324 0)
(1.051801 -0.00032008493 1.5687361e-21)
(1.0493666 0.00073247517 -1.0558107e-21)
(1.0470993 0.0012567545 9.4986068e-21)
(1.0451015 0.0014312469 -3.8975385e-21)
(1.0435796 0.0010384693 2.2859662e-22)
(1.0424426 0.00055844927 1.0496688e-20)
(0.80738936 -0.0055804033 -3.1261513e-21)
(0.80835291 -0.008395679 -7.9325315e-24)
(0.82018039 -0.0098564075 -3.0158581e-21)
(0.83326931 -0.012081519 -8.332317e-23)
(0.85093069 -0.013793081 1.0289836e-20)
(0.87035446 -0.015679607 9.4081905e-21)
(0.89115023 -0.017323167 7.5502255e-23)
(0.91161197 -0.019009398 -9.69751e-21)
(0.93193091 -0.020505299 2.5156337e-23)
(0.95241095 -0.022001888 -1.1057077e-20)
(0.9719867 -0.023445583 -1.4415198e-22)
(0.98977746 -0.024856826 7.774926e-21)
(1.0050591 -0.026202133 2.3439496e-22)
(1.0175268 -0.027492906 1.268318e-20)
(1.0272226 -0.028671853 -5.0978994e-20)
(1.0345584 -0.029681156 3.9819067e-21)
(1.0401348 -0.030422291 9.3214871e-21)
(1.0445857 -0.03078848 1.4805851e-20)
(1.0484 -0.030668629 -1.3136992e-20)
(1.0518499 -0.029976322 -4.0008224e-21)
(1.0549988 -0.028663319 1.1881675e-20)
(1.0577787 -0.026732787 -1.7473785e-20)
(1.0600645 -0.024240346 1.2056224e-20)
(1.0617326 -0.021290851 0)
(1.0626903 -0.018028507 1.6076837e-20)
(1.0628932 -0.014622519 1.7195754e-20)
(1.0623509 -0.011248608 -5.1204831e-21)
(1.0611268 -0.0080723701 1.1597389e-20)
(1.0593286 -0.0052291553 4.8624982e-22)
(1.0570977 -0.0028246437 -2.7298796e-21)
(1.05459 -0.00090791982 -4.5468387e-22)
(1.0519733 0.00047739708 -4.7744926e-21)
(1.049394 0.0013812205 -3.3258114e-22)
(1.0470213 0.001755693 1.0306678e-20)
(1.0449481 0.0017790927 -1.2142451e-21)
(1.0433786 0.0012477012 -3.9832017e-22)
(1.0422074 0.00062049676 3.9734461e-21)
(0.79770751 -0.0040969005 3.8062386e-22)
(0.79449737 -0.0068116284 -1.0433407e-21)
(0.8031016 -0.008493349 -4.0003414e-21)
(0.8131795 -0.010884192 -8.5181262e-22)
(0.82885312 -0.012844738 1.6480125e-22)
(0.84724043 -0.014984199 -1.3838585e-22)
(0.8681534 -0.016869391 -5.8306095e-21)
(0.88990002 -0.018784683 2.8974642e-21)
(0.91129339 -0.02055403 0)
(0.93244221 -0.022239665 2.2385361e-21)
(0.95355546 -0.02382458 0)
(0.97363116 -0.025413645 0)
(0.99172496 -0.026904871 8.5448166e-21)
(1.0072109 -0.028325046 -1.1494313e-21)
(1.0197841 -0.029629835 -8.053988e-21)
(1.0295619 -0.030776601 -1.3717926e-20)
(1.0369767 -0.031682681 2.9189975e-20)
(1.0426596 -0.032252027 1.5956229e-21)
(1.0472351 -0.03237195 9.8988957e-21)
(1.0511717 -0.031940202 4.5308171e-21)
(1.0547053 -0.030882466 -1.8460536e-20)
(1.0578715 -0.029172323 2.6730363e-21)
(1.0605833 -0.02683798 4.1983916e-21)
(1.0627134 -0.023962492 4.3946931e-21)
(1.064146 -0.020676076 1.2211127e-21)
(1.0648064 -0.017143271 3.0148327e-21)
(1.0646729 -0.013546221 -3.6532664e-21)
(1.0637803 -0.010064645 -7.3157332e-21)
(1.0622151 -0.0068598217 -7.8362342e-22)
(1.0601042 -0.0040559476 -8.8665429e-21)
(1.057602 -0.0017432608 -4.49842e-21)
(1.0548702 4.5363538e-05 -2.1213397e-21)
(1.0520777 0.0012827191 -2.679368e-21)
(1.0493658 0.002029339 7.4700615e-21)
(1.0468989 0.0022498948 -2.040792e-20)
(1.0447595 0.0021210639 -3.3818019e-21)
(1.0431493 0.0014524021 -3.7225266e-21)
(1.0419492 0.00068047105 0)
(0.79100632 -0.0025041942 2.77654e-21)
(0.78348498 -0.0050246786 -2.2682502e-23)
(0.78832824 -0.0068930495 -1.0726265e-21)
(0.79465943 -0.0094004246 -6.2477097e-22)
(0.8074175 -0.011594006 -5.2590823e-21)
(0.8237695 -0.01397594 -4.0706781e-21)