/*--------------------------------*- C++ -*----------------------------------*\
| =========                 |                                                 |
| \\      /  F ield         | OpenFOAM: The Open Source CFD Toolbox           |
|  \\    /   O peration     | Version:  5.0                                   |
|   \\  /    A nd           | Web:      www.OpenFOAM.org                      |
|    \\/     M anipulation  |                                                 |
\*---------------------------------------------------------------------------*/
FoamFile
{
    version     2.0;
    format      ascii;
    class       volVectorField;
    location    "105";
    object      UMean;
}
// * * * * * * * * * * * * * * * * * * * * * * * * * * * * * * * * * * * * * //

dimensions      [0 1 -1 0 0 0 0];

internalField   nonuniform List<vector> 
9200
(
(1.018213 -0.00047112721 -1.6343913e-23)
(1.0185279 -0.0013711352 -6.9758602e-21)
(1.0195149 -0.00047824669 0)
(1.0187015 -0.0022033678 3.5617979e-21)
(1.0198147 -0.0013910066 -5.3049956e-21)
(1.0201189 -0.00048344312 0)
(1.0187868 -0.002975306 3.5754256e-22)
(1.0199743 -0.0022319842 -3.4343649e-22)
(1.0204134 -0.0014092794 0)
(1.0210008 -0.00049224103 0)
(1.0188341 -0.0036802955 -6.6235493e-21)
(1.0200409 -0.0030163593 -3.4795984e-21)
(1.0205666 -0.0022608611 -2.9396395e-21)
(1.0212862 -0.0014405857 -1.8443073e-22)
(1.0217311 -0.00050050233 1.3927254e-24)
(1.0188377 -0.0043320013 -6.0822954e-21)
(1.0200683 -0.0037312405 5.9469925e-22)
(1.0206242 -0.003058423 -9.3126589e-21)
(1.0214321 -0.0023085444 -3.3834454e-21)
(1.0220102 -0.001472782 1.5058609e-22)
(1.0225212 -0.00050993191 7.8141521e-21)
(1.0187898 -0.0049264495 -5.3907673e-21)
(1.0200496 -0.0043946318 -6.3298009e-21)
(1.0206424 -0.0037844071 5.6412743e-21)
(1.0214799 -0.0031278425 2.9506374e-22)
(1.0221504 -0.0023580857 -3.7370657e-21)
(1.0227947 -0.0015115481 -3.5693321e-21)
(1.0232629 -0.00051861616 -4.843923e-22)
(1.0186722 -0.0054712003 -2.0452319e-21)
(1.0199767 -0.0049995101 -4.0924579e-21)
(1.0206129 -0.0044603119 -5.8729618e-21)
(1.0214883 -0.0038729711 3.992782e-22)
(1.0221905 -0.0032002736 8.4106321e-21)
(1.0229321 -0.0024176078 3.6304447e-21)
(1.0235318 -0.0015503908 5.024966e-21)
(1.0240202 -0.00052703059 -7.5858518e-21)
(1.018469 -0.0059674704 6.3044179e-21)
(1.0198324 -0.0055549958 -5.0536245e-21)
(1.020528 -0.00507695 3.9791975e-22)
(1.021447 -0.0045704281 -3.07482e-21)
(1.0221913 -0.0039658082 8.9027249e-22)
(1.0229685 -0.0032880351 1.3238489e-20)
(1.0236671 -0.0024771577 -3.7594022e-21)
(1.0242866 -0.0015913652 8.4807541e-21)
(1.0247502 -0.00053398185 1.611888e-20)
(1.0181631 -0.0064199976 -4.5659578e-21)
(1.0196012 -0.0060613515 2.8459431e-21)
(1.0203705 -0.0056444344 7.0172553e-23)
(1.0213487 -0.0052079195 -1.4055033e-21)
(1.0221404 -0.0046860981 9.4380658e-22)
(1.022966 -0.0040795324 1.4662511e-21)
(1.0237009 -0.0033764447 -4.6162723e-21)
(1.0244236 -0.0025400647 -8.422848e-21)
(1.0250153 -0.0016300621 -4.4456901e-21)
(1.0254819 -0.00053949797 -1.0932453e-21)
(1.0177375 -0.0068321421 2.1031912e-21)
(1.0192673 -0.0065236773 3.3076358e-22)
(1.0201256 -0.0061623704 -4.0870472e-21)
(1.0211763 -0.0057968482 3.8221254e-21)
(1.022031 -0.0053458009 -6.7997045e-21)
(1.0229102 -0.0048292941 1.3866621e-20)
(1.0236962 -0.0041946704 4.7213146e-22)
(1.02446 -0.0034711874 -1.4173506e-20)
(1.0251557 -0.0025993428 7.1235211e-21)
(1.025748 -0.0016669487 -1.4461604e-20)
(1.0261915 -0.00054279164 2.4031378e-21)
(1.0171742 -0.0072080242 -1.2836252e-22)
(1.0188149 -0.006945147 6.0867827e-23)
(1.0197779 -0.0066360234 2.9820678e-21)
(1.0209156 -0.0063358026 0)
(1.021846 -0.0059574583 -1.9695756e-23)
(1.0227943 -0.0055184029 -1.295634e-21)
(1.0236365 -0.004974937 2.8556826e-21)
(1.024459 -0.0043197351 7.029805e-21)
(1.0251971 -0.0035618678 -1.2916961e-21)
(1.0258955 -0.0026558419 8.790842e-21)
(1.0264605 -0.0016988686 6.0296122e-21)
(1.0268924 -0.00054366351 -1.2417109e-21)
(1.0164524 -0.0075515484 -8.7845517e-23)
(1.0182271 -0.0073300058 7.1350661e-22)
(1.0193123 -0.0070684106 0)
(1.0205517 -0.0068301376 0)
(1.0215718 -0.0065186413 2.3031341e-21)
(1.0226007 -0.006160568 -4.298441e-21)
(1.023515 -0.0056946926 7.0744937e-21)
(1.0244017 -0.0051353467 -7.3617868e-21)
(1.0252024 -0.0044408126 -5.3713958e-22)
(1.0259473 -0.0036503367 1.3648725e-23)
(1.0266176 -0.0027045885 -1.097859e-20)
(1.0271667 -0.0017253114 1.2431725e-20)
(1.0275712 -0.00054163699 -2.1975863e-20)
(1.0155461 -0.007866752 4.2395491e-22)
(1.0174848 -0.0076822983 -1.2476385e-22)
(1.0187126 -0.0074637927 1.9985519e-21)
(1.0200703 -0.0072825061 -2.3390538e-21)
(1.0211941 -0.0070347167 2.571775e-21)
(1.0223158 -0.006751945 -1.0756209e-21)
(1.0233139 -0.0063688394 -1.77257e-21)
(1.0242807 -0.0058915045 1.2026569e-22)
(1.0251502 -0.0052924922 -6.09716e-21)
(1.025965 -0.004561115 -5.4217812e-21)
(1.0266836 -0.0037292601 -2.7983556e-21)
(1.0273373 -0.0027448275 -7.6088858e-21)
(1.0278529 -0.0017441556 -5.1479993e-21)
(1.0282323 -0.00053645891 5.9592764e-21)
(1.0144205 -0.0081576275 2.5105081e-21)
(1.016564 -0.0080064539 -2.7900624e-21)
(1.0179606 -0.0078261585 6.188945e-22)
(1.0194562 -0.0076970679 1.0869622e-22)
(1.0206992 -0.0075079315 -9.1710263e-23)
(1.0219262 -0.0072979278 1.1980331e-21)
(1.0230205 -0.0069924016 -1.6428388e-21)
(1.0240776 -0.0066042321 2.2210358e-21)
(1.0250326 -0.0060863693 -7.6355759e-22)
(1.0259245 -0.0054515421 4.4170103e-22)
(1.0267179 -0.0046709546 1.6668985e-22)
(1.027423 -0.0037979058 -2.1579255e-22)
(1.0280402 -0.0027732248 1.0776068e-20)
(1.0285241 -0.0017544628 -5.5250823e-21)
(1.0288686 -0.00052786339 4.5824592e-21)
(1.0130276 -0.0084279877 -1.3502492e-21)
(1.0154324 -0.0083071988 2.2449359e-21)
(1.0170335 -0.0081597576 -1.1561265e-21)
(1.0186922 -0.0080776589 2.1079148e-21)
(1.0200728 -0.0079423507 -2.385155e-21)
(1.021419 -0.0078001427 5.2991418e-21)
(1.0226213 -0.0075704781 -6.1083393e-21)
(1.0237796 -0.0072668053 2.8506305e-22)
(1.0248304 -0.0068395747 1.823669e-21)
(1.0258168 -0.0062868951 -2.1071921e-21)
(1.0266937 -0.0056001826 1.7966173e-20)
(1.0274803 -0.004769838 -6.7407423e-21)
(1.0281503 -0.0038513525 -3.5579206e-21)
(1.0287319 -0.0027882803 -1.2150296e-21)
(1.0291726 -0.0017548665 8.4499454e-23)
(1.0294793 -0.00051568012 -4.9495899e-21)
(1.0113033 -0.0086812686 0)
(1.0140443 -0.0085898119 1.9187057e-21)
(1.0159006 -0.0084689621 -1.0865923e-21)
(1.017757 -0.0084285686 0)
(1.0192988 -0.0083417256 0)
(1.0207807 -0.0082623486 0)
(1.0221039 -0.0081040267 2.4221014e-22)
(1.0233735 -0.007884001 -3.8037555e-21)
(1.0245312 -0.0075438221 3.7315331e-21)
(1.0256218 -0.0070853651 -4.9841222e-21)
(1.0266007 -0.0064780537 7.0514382e-22)
(1.0274798 -0.0057384444 -3.7113286e-21)
(1.0282359 -0.0048512867 5.7558273e-22)
(1.0288721 -0.0038875712 3.9035016e-21)
(1.0294039 -0.0027878202 7.1352774e-22)
(1.0297981 -0.0017445182 2.5748625e-21)
(1.0300608 -0.00049977654 0)
(1.009168 -0.0089198945 -4.3559031e-22)
(1.0123368 -0.0088599698 -3.3795887e-21)
(1.0145187 -0.0087584587 4.1961874e-21)
(1.0166218 -0.0087543586 1.8653235e-21)
(1.0183572 -0.0087101814 2.7037807e-21)
(1.0199962 -0.0086879335 0)
(1.0214557 -0.0085964436 3.6506669e-21)
(1.0228477 -0.0084559048 -1.0545335e-21)
(1.0241215 -0.0082034221 -9.259129e-21)
(1.0253263 -0.0078367883 4.7255873e-21)
(1.0264178 -0.0073238094 2.8734326e-21)
(1.027409 -0.0066607024 7.9921058e-22)
(1.028265 -0.0058581563 -8.8335566e-21)
(1.0289928 -0.0049128378 1.2509711e-20)
(1.0295793 -0.0039032774 2.1382723e-21)
(1.0300569 -0.0027704127 1.8319399e-20)
(1.0303963 -0.0017225969 6.625871e-21)
(1.0306108 -0.000480072 5.8073431e-21)
(1.0065342 -0.0091445135 1.485558e-22)
(1.0102279 -0.0091231397 -1.4260237e-21)
(1.0128264 -0.0090330478 -9.8200089e-22)
(1.0152455 -0.0090599578 2.6440517e-21)
(1.017221 -0.0090521089 -3.1613888e-22)
(1.0190469 -0.0090808285 2.0344457e-21)
(1.0206625 -0.0090507396 -1.793514e-21)
(1.0221902 -0.0089853909 -7.8780227e-21)
(1.0235904 -0.0088174863 -3.1478201e-21)
(1.0249173 -0.0085448652 3.9327054e-21)
(1.0261312 -0.0081254358 -1.0745415e-21)
(1.0272454 -0.0075569039 7.4154897e-21)
(1.0282228 -0.0068249343 -4.7660401e-21)
(1.0290594 -0.0059564829 -4.2848068e-23)
(1.0297412 -0.0049500937 -4.2451359e-22)
(1.0302731 -0.0038962749 -2.9810889e-21)
(1.0306856 -0.0027347392 6.0012704e-21)
(1.0309651 -0.0016884618 -2.5862875e-22)
(1.0311268 -0.00045657229 5.1576115e-21)
(1.0033196 -0.0093531928 1.3604743e-21)
(1.0076214 -0.0093835718 1.6311871e-21)
(1.0107427 -0.0092970883 -9.029485e-21)
(1.0135691 -0.0093506716 -9.2933273e-22)
(1.0158511 -0.0093723581 1.4432478e-21)
(1.0179075 -0.0094453249 8.1128393e-22)
(1.019707 -0.0094706329 6.4941355e-22)
(1.0213879 -0.0094749366 3.7987724e-21)
(1.0229263 -0.0093882398 -1.2753479e-21)
(1.0243838 -0.0092075378 -1.0120529e-20)
(1.0257276 -0.0088859391 8.1515247e-21)
(1.0269744 -0.0084130303 -4.7666779e-22)
(1.0280853 -0.0077729543 -2.7671e-21)
(1.0290542 -0.0069677566 2.0796164e-22)
(1.029852 -0.0060278175 2.5871756e-22)
(1.0304827 -0.0049601099 -1.0416536e-20)
(1.0309474 -0.0038644533 2.8359803e-21)
(1.031288 -0.0026798017 -9.5416e-21)
(1.0315017 -0.0016417345 -2.3005063e-21)
(1.0316067 -0.00042933897 -5.0553557e-21)
(0.99946511 -0.0095410229 -7.950758e-23)
(1.0044198 -0.0096427097 2.0339291e-21)
(1.0081705 -0.0095540534 -1.7618813e-22)
(1.0115124 -0.0096320968 2.3873961e-21)
(1.014191 -0.0096761762 3.5928288e-22)
(1.0165416 -0.0097862703 -1.9854153e-21)
(1.0185655 -0.0098602157 5.1807947e-21)
(1.0204248 -0.0099279053 1.0342392e-20)
(1.0221172 -0.0099175284 -3.9570217e-21)
(1.0237151 -0.0098261771 0)
(1.0251961 -0.0096019655 -5.1372734e-21)
(1.026582 -0.0092312554 3.4930753e-21)
(1.0278368 -0.0086862322 8.2653829e-21)
(1.0289514 -0.0079690604 -6.904874e-21)
(1.0298917 -0.0070822131 3.3598272e-21)
(1.0306462 -0.0060683818 -8.323514e-21)
(1.031211 -0.0049399032 -1.3463091e-22)
(1.0316007 -0.0038061755 3.5535689e-21)
(1.0318609 -0.0026049329 -5.6194357e-21)
(1.0320038 -0.0015822554 -4.5833736e-22)
(1.0320488 -0.0003984934 -4.3892695e-21)
(0.99495034 -0.009700374 -3.6763688e-21)
(1.0005419 -0.0098979963 1.4328419e-21)
(1.0050067 -0.0098049296 4.2641451e-21)
(1.0089746 -0.0099086293 -4.875771e-21)
(1.0121614 -0.0099688321 -3.3840822e-21)
(1.0148951 -0.010109111 8.4988375e-22)
(1.0172039 -0.010224168 0)
(1.0192792 -0.010348144 2.5956035e-21)
(1.0211482 -0.010408261 -1.6570799e-21)
(1.0229 -0.010401825 -9.9390202e-21)
(1.0245266 -0.010273903 -9.942142e-22)
(1.0260575 -0.010006738 2.2742282e-21)
(1.0274625 -0.0095660753 -6.131411e-22)
(1.0287337 -0.0089424131 -2.6636708e-21)
(1.029832 -0.008136813 4.86817e-21)
(1.0307397 -0.0071638553 -4.6308113e-21)
(1.0314343 -0.0060742105 1.0484887e-21)
(1.0319245 -0.0048870238 -6.5060741e-21)
(1.0322286 -0.003720292 -1.0175264e-21)
(1.0324016 -0.0025097604 -2.0048615e-22)
(1.0324694 -0.0015100926 -2.6475627e-21)
(1.0324517 -0.00036420904 0)
(0.98980292 -0.0098218979 -1.888849e-21)
(0.99594203 -0.010142208 -5.7167167e-22)
(1.0011608 -0.010047288 7.114115e-23)
(1.0058446 -0.0101828 -4.6021045e-21)
(1.009661 -0.010255151 -2.233232e-21)
(1.0128911 -0.010419692 1.9768357e-21)
(1.0155708 -0.01056788 -1.910437e-21)
(1.0179193 -0.010740238 6.4813226e-21)
(1.0199994 -0.010863915 2.4403962e-21)
(1.021925 -0.010936753 5.9661014e-22)
(1.0237086 -0.010901826 -1.4795757e-22)
(1.0253911 -0.010738697 -4.82701e-21)
(1.0269513 -0.010406051 7.1065824e-22)
(1.0283853 -0.0098881812 7.9326698e-22)
(1.0296539 -0.0091717801 -6.1581966e-21)
(1.0307327 -0.008271225 -7.0735063e-21)
(1.0315901 -0.0072074735 3.1117716e-22)
(1.0322157 -0.0060418658 1.1365004e-20)
(1.0326183 -0.0047996705 5.2325147e-22)
(1.0328284 -0.0036060016 -3.4036349e-21)
(1.0329077 -0.0023942969 0)
(1.0328967 -0.0014255125 5.3850149e-21)
(1.0328143 -0.00032670623 1.1154164e-22)
(0.98409777 -0.0098959204 1.0322929e-20)
(0.99062368 -0.010364025 -1.0500259e-21)
(0.99657459 -0.010274554 4.5222964e-21)
(1.0020171 -0.010453487 2.1446308e-21)
(1.0065735 -0.010537938 -5.5628704e-21)
(1.0104274 -0.010723288 0)
(1.0135913 -0.010897266 -3.6933127e-22)
(1.0162969 -0.01110959 2.9906057e-21)
(1.0186413 -0.011288793 4.5603793e-21)
(1.0207719 -0.011433958 5.257e-21)
(1.0227299 -0.011487213 -4.6716278e-21)
(1.024573 -0.011426017 -4.553954e-21)
(1.0262934 -0.011204068 5.9445651e-21)
(1.0278945 -0.010798215 -5.7724922e-21)
(1.0293402 -0.010186558 9.7194867e-21)
(1.0306041 -0.0093689255 1.2653053e-20)
(1.0316454 -0.0083657082 -4.5312024e-21)
(1.0324428 -0.007208713 4.402501e-21)
(1.0329842 -0.0059686955 -1.340874e-20)
(1.0332894 -0.0046763899 3.6865938e-21)
(1.033397 -0.0034630378 6.9497927e-21)
(1.0333772 -0.002258869 -5.4276536e-21)
(1.0332844 -0.0013289743 2.9258914e-21)
(1.0331361 -0.00028624186 9.1267655e-23)
(0.97794733 -0.00991369 2.1653108e-21)
(0.98464255 -0.010549394 -1.2106985e-22)
(0.99123777 -0.010476357 -4.2954446e-22)
(0.99741393 -0.010715029 -9.9495229e-21)
(1.0027837 -0.010816804 3.5451079e-21)
(1.0073827 -0.011023819 -6.7936653e-21)
(1.011164 -0.01121819 -2.911283e-22)
(1.0143399 -0.011462392 -7.5090758e-21)
(1.0170287 -0.011688148 2.0915543e-21)
(1.0194137 -0.011897429 2.9015565e-21)
(1.0215737 -0.012032406 -2.9944321e-21)
(1.023592 -0.012069183 7.2830792e-21)
(1.0254798 -0.011957643 -3.367104e-21)
(1.0272515 -0.011668945 -4.9658351e-22)
(1.0288782 -0.011171239 4.1427055e-21)
(1.0303349 -0.010455503 1.4706489e-21)
(1.0315766 -0.009525872 -9.1554961e-22)
(1.0325707 -0.0084149667 6.9237669e-21)
(1.0332914 -0.0071637477 0)
(1.0337373 -0.005852324 1.17674e-21)
(1.0339337 -0.0045165211 3.3716139e-22)
(1.0339315 -0.0032915528 -6.0480748e-22)
(1.033808 -0.0021041255 -9.2808291e-23)
(1.0336317 -0.001221107 -4.0089689e-21)
(1.0334168 -0.00024310405 -1.4041845e-21)
(0.97148263 -0.0098690097 -8.4924959e-21)
(0.97810067 -0.010682962 -3.8977029e-22)
(0.98519379 -0.01064002 1.3542498e-21)
(0.99200325 -0.010957112 1.0705827e-21)
(0.99819927 -0.011086856 1.0414624e-20)
(1.0036307 -0.011321889 5.5370297e-22)
(1.0081643 -0.011535148 -2.51904e-22)
(1.0119479 -0.011805 5.0118859e-22)
(1.0150925 -0.012068184 6.0481518e-21)
(1.0178082 -0.012332234 -1.1561327e-21)
(1.0202156 -0.012540887 4.0498528e-21)
(1.0224334 -0.012669706 -8.0823534e-22)
(1.0245003 -0.012666077 -3.7787369e-21)
(1.0264475 -0.012496314 1.0580437e-21)
(1.0282579 -0.012120673 -1.8358581e-21)
(1.0299114 -0.011519275 -5.5964598e-21)
(1.0313627 -0.010685724 -4.7177128e-21)
(1.0325727 -0.009636392 -9.7346461e-21)
(1.0335019 -0.0084138043 -1.4206967e-20)
(1.034133 -0.00706921 -9.2213477e-23)
(1.0344696 -0.0056914032 1.3445684e-20)
(1.034548 -0.0043197824 2.5031385e-21)
(1.0344295 -0.0030921582 -5.0907497e-21)
(1.0341989 -0.0019309907 3.997306e-21)
(1.0339378 -0.0011026845 -2.3950328e-21)
(1.0336566 -0.00019761054 1.2821136e-22)
(0.96483302 -0.009759395 3.5761451e-22)
(0.97113287 -0.010750879 -8.0159877e-22)
(0.97853355 -0.010753169 -5.1803328e-21)
(0.98581074 -0.011165891 5.3304842e-21)
(0.99277098 -0.011338631 -8.3032513e-21)
(0.99906194 -0.011613781 5.8399438e-21)
(1.0044576 -0.0118498 3.8540478e-21)
(1.0089938 -0.012142716 5.5697489e-21)
(1.0127344 -0.012435627 -8.6221016e-21)
(1.0158902 -0.01274461 -3.8471633e-21)
(1.0186164 -0.013017375 3.2110292e-22)
(1.0210746 -0.013230422 -1.0468346e-20)
(1.0233415 -0.013329839 9.9323748e-21)
(1.0254734 -0.013278223 -3.8174294e-21)
(1.0274706 -0.013029072 1.5320939e-21)
(1.0293227 -0.012553414 1.2728035e-21)
(1.0309885 -0.01183188 -5.7673336e-21)
(1.0324258 -0.010870115 6.4641403e-21)
(1.033586 -0.0096938107 -6.1215518e-21)
(1.0344361 -0.0083577011 7.1090659e-22)
(1.0349617 -0.0069227054 0)
(1.0351776 -0.0054849456 5.190654e-21)
(1.0351288 -0.0040866368 7.7132616e-22)
(1.0348889 -0.0028658691 0)
(1.0345488 -0.0017406327 -4.5218025e-21)
(1.0342028 -0.00097460532 -3.3527469e-22)
(1.0338559 -0.00015011437 4.9851696e-22)
(0.95810923 -0.0095859193 2.6633486e-21)
(0.96388319 -0.010742366 -1.1179574e-22)
(0.97138155 -0.010804394 -4.3146527e-21)
(0.97891803 -0.011325988 4.3424705e-22)
(0.98650598 -0.011558992 -1.6835331e-21)
(0.99360664 -0.01189062 -6.3211647e-21)
(0.99992039 -0.012159337 -3.5269854e-22)
(1.0053345 -0.012478121 -5.1544525e-21)
(1.0098258 -0.012796514 7.5232051e-22)
(1.0135636 -0.013141576 6.3587659e-21)
(1.0167148 -0.013467941 -6.475499e-21)
(1.0194801 -0.013755586 -2.4547478e-21)
(1.0219833 -0.013950908 -4.7463575e-21)
(1.0243171 -0.014013872 1.6011115e-21)
(1.0265077 -0.01389273 -4.3634688e-21)
(1.0285601 -0.013550254 2.1431638e-21)
(1.0304419 -0.012955818 -5.5474173e-21)
(1.0321127 -0.012101173 1.958077e-20)
(1.0335182 -0.01100049 6.3953534e-21)
(1.0346139 -0.0096923377 1.3354906e-21)
(1.0353672 -0.0082429424 7.5375252e-21)
(1.0357734 -0.0067223374 -9.0302698e-22)
(1.0358566 -0.0052329527 -4.6921808e-22)
(1.0356732 -0.0038179616 0)
(1.0353078 -0.0026140906 0)
(1.034857 -0.0015344178 3.6558319e-22)
(1.0344267 -0.00083786889 -1.4459751e-21)
(1.0340156 -0.00010107153 -2.4221633e-22)
(0.951394 -0.009354633 0)
(0.95648368 -0.010650839 -7.5974543e-22)
(0.96388044 -0.010784605 3.929749e-21)
(0.97144996 -0.011423056 1.873443e-21)
(0.97946965 -0.011732698 6.0385241e-21)
(0.9872524 -0.01213884 6.70136e-22)
(0.99446444 -0.012455764 -4.1061592e-21)
(1.000832 -0.012809505 -8.1224734e-21)
(1.0062172 -0.013154456 9.0863916e-21)
(1.0106995 -0.013529854 -2.0137428e-21)
(1.0144177 -0.013899766 5.6179871e-22)
(1.0175922 -0.014251026 1.8946381e-21)
(1.0203933 -0.014532874 -1.3516309e-20)
(1.0229608 -0.014704178 2.7563192e-21)
(1.0253584 -0.014709359 2.2464623e-21)
(1.0276153 -0.014504281 -4.2879281e-21)
(1.0297138 -0.014047901 2.3620072e-21)
(1.0316199 -0.013319384 -5.1332735e-21)
(1.0332791 -0.012317522 1.4054611e-20)
(1.0346381 -0.011069724 -3.7680337e-21)
(1.03565 -0.0096267194 6.1624513e-21)
(1.0362904 -0.008066456 4.0351543e-21)
(1.0365624 -0.0064672745 -3.0881932e-22)
(1.036503 -0.004935888 -1.2016389e-20)
(1.0361784 -0.0035152514 -3.3743032e-21)
(1.035685 -0.0023385737 7.3350868e-22)
(1.0351234 -0.0013138708 2.5118921e-21)
(1.0346102 -0.00069358049 -3.5809035e-22)
(1.0341371 -5.0751867e-05 -9.5200443e-22)
(0.94472955 -0.0090675202 -7.7182164e-21)
(0.94903364 -0.010478555 0)
(0.95617047 -0.010688547 0)
(0.96355454 -0.011445261 0)
(0.97177647 -0.011844802 -1.5036288e-21)
(0.98005051 -0.012342457 5.3319089e-21)
(0.98805666 -0.012726117 -2.9557181e-22)
(0.99537805 -0.013129569 -2.8047959e-22)
(1.0017577 -0.013508829 1.2327118e-20)
(1.0071425 -0.013914066 -1.3060935e-20)
(1.0115966 -0.014320148 5.9712881e-21)
(1.0153218 -0.014723969 -2.263054e-21)
(1.0185178 -0.015081121 4.2818257e-21)
(1.0213752 -0.01535187 -3.5754653e-21)
(1.0240071 -0.015478562 9.0873031e-21)
(1.0264787 -0.015411481 2.9086858e-21)
(1.0287959 -0.015100651 -4.6451693e-21)
(1.0309375 -0.014513088 -6.4880019e-21)
(1.0328532 -0.013633177 2.4489442e-21)
(1.0344865 -0.012472468 -3.2932896e-21)
(1.035779 -0.011070869 -7.0196727e-21)
(1.0366893 -0.0094924655 7.1138982e-22)
(1.0371992 -0.0078262398 9.3223245e-21)
(1.0373241 -0.0061572912 -5.57822e-21)
(1.0371126 -0.0045950597 -5.1952559e-22)
(1.0366422 -0.0031803756 -1.6518584e-21)
(1.0360194 -0.0020414357 2.9794681e-21)
(1.0353481 -0.0010806838 1.358934e-21)
(1.0347541 -0.00054285042 -8.2056392e-23)
(1.0342213 6.5898601e-07 -1.242854e-21)
(0.93761426 -0.0087005026 -4.4981696e-22)
(0.94160336 -0.010222338 -7.4440338e-22)
(0.94837345 -0.010515914 0)
(0.95538029 -0.01138382 0)
(0.96357181 -0.0118824 0)
(0.97210858 -0.012485096 0)
(0.98072875 -0.012954048 0)
(0.98891864 -0.013425717 5.0583924e-23)
(0.99632105 -0.01385346 -5.0505976e-21)
(1.0027293 -0.014294658 1.4072625e-20)
(1.0080921 -0.014734675 -2.5924799e-22)
(1.0125418 -0.015182188 6.6036133e-21)
(1.0162719 -0.015602753 -1.3180296e-20)
(1.0195108 -0.015961719 6.8832837e-21)
(1.0224274 -0.016201964 -7.0309406e-22)
(1.0251364 -0.016269901 5.2978049e-21)
(1.0276795 -0.016108111 -7.893872e-21)
(1.0300569 -0.015672716 2.2352173e-21)
(1.0322293 -0.014933812 6.7050973e-21)
(1.0341418 -0.013887487 3.5650746e-21)
(1.0357293 -0.012557301 8.9688761e-22)
(1.0369361 -0.010997814 5.1348466e-21)
(1.0377247 -0.009286085 1.4887387e-22)
(1.0380881 -0.0075210474 -3.567568e-21)
(1.0380533 -0.0057931592 2.3106301e-21)
(1.0376824 -0.0042122549 9.0668062e-21)
(1.0370627 -0.0028156816 2.163431e-21)
(1.0363105 -0.0017250278 -1.2313601e-21)
(1.0355316 -0.00083669616 1.4714532e-22)
(1.0348597 -0.00038675861 1.2030294e-21)
(1.0342703 5.2181304e-05 1.0024403e-21)
(0.92995682 -0.0082096711 8.7585081e-21)
(0.93366691 -0.0098675919 -2.5652563e-22)
(0.94057531 -0.010269089 2.1001197e-21)
(0.94705459 -0.011241501 2.2524293e-21)
(0.9550096 -0.011834946 0)
(0.96357164 -0.012551811 0)
(0.97257355 -0.01312211 -2.8276587e-23)
(0.98146678 -0.013681133 6.3975523e-21)
(0.98983066 -0.014176171 -1.0609287e-20)
(0.99731488 -0.014666376 1.3153505e-20)
(1.0037298 -0.015145028 5.690607e-22)
(1.0090892 -0.015632196 -9.4154672e-21)
(1.0135309 -0.016105851 1.6314902e-21)
(1.0172872 -0.016540533 -1.0700972e-21)
(1.0205741 -0.016883483 -6.9659234e-21)
(1.023565 -0.017079805 5.8841396e-22)
(1.0263523 -0.017066516 1.0623457e-20)
(1.0289699 -0.016790177 -6.6565996e-22)
(1.0313984 -0.016207703 -6.1331282e-21)
(1.0335908 -0.015299259 2.0476068e-20)
(1.0354809 -0.014071862 -1.1126786e-21)
(1.0370029 -0.012564155 -5.7499154e-21)
(1.038102 -0.010845298 1.2730554e-20)
(1.0387498 -0.0090049698 6.1300408e-21)
(1.0389508 -0.0071507499 -1.02438e-21)
(1.0387455 -0.0053762955 5.3374359e-21)
(1.0382092 -0.0037899204 2.5903833e-21)
(1.0374386 -0.0024238123 4.1711681e-22)
(1.0365582 -0.0013915047 -9.4309399e-22)
(1.0356748 -0.00058379426 -5.6889168e-22)
(1.0349283 -0.00022669129 1.5666283e-21)
(1.0342857 0.00010407432 1.3777105e-22)
(0.92230567 -0.0076076386 -2.9527394e-21)
(0.92511183 -0.0093829129 9.783596e-22)
(0.93227744 -0.0099297148 -2.9086047e-21)
(0.93868166 -0.011014211 -2.2137529e-21)
(0.94623212 -0.011703781 0)
(0.95459951 -0.012529749 0)
(0.96373066 -0.013213273 0)
(0.97310222 -0.013877326 -8.1607865e-22)
(0.98227737 -0.01446005 9.7948034e-21)
(0.99080059 -0.015017708 1.0388056e-20)
(0.99834698 -0.015547087 5.267357e-22)
(1.0047796 -0.016076836 -1.7305142e-21)
(1.0101296 -0.01659774 1.9407214e-20)
(1.0145828 -0.017096542 -1.1810582e-20)
(1.0183716 -0.017529406 1.9527644e-21)
(1.0217236 -0.017844007 0)
(1.0247936 -0.017974495 3.2821933e-21)
(1.0276654 -0.017859651 -2.3415894e-21)
(1.030352 -0.017444478 4.5244538e-21)
(1.0328234 -0.016693914 8.6857633e-22)
(1.0350185 -0.01559736 -9.2418194e-21)
(1.0368667 -0.014176628 9.2212905e-23)
(1.0382998 -0.012485779 -8.7068916e-21)
(1.0392696 -0.01060902 -1.0584986e-20)
(1.0397572 -0.0086477039 3.3416351e-21)
(1.0397814 -0.0067160468 1.0721776e-21)
(1.0393964 -0.0049089628 -7.1157024e-22)
(1.0386905 -0.0033309067 4.0732942e-23)
(1.0377688 -0.0020076494 -1.1741648e-21)
(1.0367628 -0.0010433736 -1.2392784e-21)
(1.0357786 -0.00032370749 7.1829476e-22)
(1.0349615 -6.3435734e-05 -5.8917869e-21)
(1.0342697 0.00015651449 2.7916034e-21)
(0.9148705 -0.0068940183 -2.6484981e-21)
(0.91648267 -0.008764904 1.4519895e-22)
(0.92330677 -0.00945114 -5.5630329e-21)
(0.92973907 -0.010662578 -3.2943184e-21)
(0.93735385 -0.01148848 1.4691289e-21)
(0.94534378 -0.01242307 1.5937746e-22)
(0.95436337 -0.013212231 8.8294398e-21)
(0.9639578 -0.013996141 -5.0744636e-21)
(0.97372331 -0.014685682 -7.7079789e-22)
(0.98315491 -0.015331707 -2.1173428e-20)
(0.99182224 -0.015930005 9.4948154e-21)
(0.99943318 -0.01651308 1.401698e-20)
(1.0058751 -0.01708244 -4.5237752e-22)
(1.0112316 -0.017637754 -7.8202455e-21)
(1.015702 -0.018147899 -8.5140141e-21)
(1.0195414 -0.018568031 -1.9022942e-21)
(1.0229665 -0.018833465 1.4851744e-21)
(1.0261253 -0.018877851 7.5247583e-21)
(1.0290801 -0.018636045 -1.13458e-21)
(1.0318308 -0.01805871 -1.2342973e-21)
(1.0343304 -0.017117874 1.9570604e-21)
(1.0365098 -0.015816671 -1.4831913e-20)
(1.0382923 -0.014192412 2.1267407e-22)
(1.0396129 -0.012315897 3.3895845e-21)
(1.0404306 -0.010285889 -1.3718602e-20)
(1.0407399 -0.0082138768 -4.4871742e-21)
(1.0405742 -0.0062186731 -3.7934812e-21)
(1.0400022 -0.0043940083 -1.7619448e-21)
(1.0391244 -0.0028385026 -1.7742339e-21)
(1.0380529 -0.0015702314 -1.4084471e-22)
(1.036925 -0.00068308799 1.0951788e-22)
(1.0358446 -5.780242e-05 -1.6207211e-22)
(1.0349611 0.00010239387 2.8554934e-21)
(1.0342235 0.00020988307 -5.9868457e-21)
(0.90788046 -0.0060687736 2.8740435e-21)
(0.90801676 -0.0080034823 -2.1177675e-22)
(0.9141752 -0.0088357611 6.3864428e-21)
(0.92005972 -0.01017769 1.6500158e-21)
(0.92790765 -0.011150298 -5.0233716e-21)
(0.9359369 -0.012221099 -6.7853951e-21)
(0.9446343 -0.013122663 -1.0803459e-21)
(0.95419783 -0.014019662 0)
(0.96429176 -0.014832706 -5.9053846e-21)
(0.97442143 -0.015588128 -2.3544811e-20)
(0.98409984 -0.01627687 -5.6539161e-22)
(0.99290561 -0.016930891 -5.0998779e-21)
(1.0005709 -0.017558159 0)
(1.0070328 -0.018169313 -9.1883547e-23)
(1.0123998 -0.018747472 1.536721e-20)
(1.0169053 -0.019259751 2.5753821e-21)
(1.0208055 -0.019647902 -1.2640727e-20)
(1.0243165 -0.0198445 0)
(1.0275668 -0.019776929 1.0133419e-21)
(1.0306036 -0.019383104 2.3041337e-21)
(1.0334071 -0.018618283 -1.2706054e-20)
(1.0359184 -0.017466506 1.6510285e-21)
(1.0380588 -0.015945662 0)
(1.0397506 -0.014110742 -1.2434671e-20)
(1.0409331 -0.012049382 4.3735981e-21)
(1.0415767 -0.0098739642 -2.6236754e-22)
(1.0416905 -0.0077042903 -5.5653943e-21)
(1.0413238 -0.0056611622 4.1150347e-21)
(1.0405594 -0.0038349189 2.4262137e-22)
(1.0395092 -0.0023162781 -3.0828046e-21)
(1.0382909 -0.0011147152 1.5722566e-21)
(1.0370456 -0.00031306516 1.5954463e-22)
(1.0358744 0.00021220966 0)
(1.0349293 0.00026973185 -1.1504149e-22)
(1.0341496 0.0002626565 -2.0342756e-21)
(0.90157469 -0.0051366426 2.0296066e-21)
(0.89998728 -0.0070948641 5.7344274e-22)
(0.90515398 -0.0080747115 5.6775054e-21)
(0.9101554 -0.0095419328 5.9889689e-22)
(0.91767649 -0.010662357 -1.2857943e-21)
(0.92588564 -0.011882638 -7.5024124e-22)
(0.93469113 -0.012934497 -6.6190321e-21)
(0.94399304 -0.013952998 -7.8064205e-24)
(0.95414618 -0.014880749 0)
(0.9647117 -0.015765254 7.2839145e-21)
(0.97520214 -0.016566764 -7.907822e-21)
(0.98511635 -0.01731354 9.765119e-22)
(0.99404987 -0.01801568 -5.6384005e-21)
(1.0017744 -0.018690642 8.4319384e-21)
(1.0082577 -0.019334302 4.8358514e-21)
(1.0136509 -0.019927976 1.2406515e-20)
(1.0182025 -0.02042511 -2.5471219e-20)
(1.0221788 -0.020762706 -7.9345811e-21)
(1.0257825 -0.020864845 1.1239322e-20)
(1.0291274 -0.020659188 -1.5709706e-20)
(1.0322389 -0.020085479 1.3103338e-20)
(1.0350815 -0.01910871 -8.8846457e-21)
(1.0375829 -0.017726196 0)
(1.0396589 -0.015973542 -3.2289847e-21)
(1.0412325 -0.01392415 1.0104678e-21)
(1.0422513 -0.011682342 6.1700657e-21)
(1.0426993 -0.0093726623 2.1250118e-21)
(1.042602 -0.0071207743 1.1433551e-21)
(1.0420253 -0.0050469107 2.7026211e-21)
(1.0410654 -0.0032356309 0)
(1.039844 -0.0017680506 2.7794094e-21)
(1.0384831 -0.00064428549 1.5632979e-21)
(1.0371261 6.4293088e-05 5.1680626e-21)
(1.0358698 0.00048480725 -2.5794212e-21)
(1.034868 0.00043754384 1.3531595e-22)
(1.0340499 0.00031483857 7.4862654e-21)
(0.89618771 -0.0041076921 -1.9464559e-21)
(0.89268744 -0.0060421184 -7.2098046e-23)
(0.89654871 -0.0071641549 -1.7516631e-21)
(0.90030891 -0.0087435855 -1.7893174e-23)
(0.90710696 -0.010020515 6.1070478e-21)
(0.91496384 -0.011388848 5.5903317e-21)
(0.92407302 -0.012598229 2.7672938e-23)
(0.93350651 -0.013779753 -5.1528843e-21)
(0.94346463 -0.014835613 -1.8265269e-24)
(0.95418579 -0.015839959 -6.0048678e-21)
(0.96522627 -0.016776273 -3.9594557e-23)
(0.9760651 -0.017639548 4.3732127e-21)
(0.98620562 -0.018438511 3.8096318e-22)
(0.99526657 -0.019193447 7.0347862e-21)
(1.0030489 -0.019909044 -3.2028415e-20)
(1.0095658 -0.020579768 1.1164211e-21)
(1.0149954 -0.021173946 8.1120282e-21)
(1.0196098 -0.021638901 1.156376e-20)
(1.0236725 -0.021901194 -1.1646303e-20)
(1.0273761 -0.021882359 -3.7103672e-21)
(1.0308128 -0.02150891 6.7910895e-21)
(1.0339891 -0.020727574 -1.4151403e-20)
(1.0368517 -0.019514476 1.1113641e-20)
(1.0393184 -0.017883812 0)
(1.0413012 -0.01589028 9.1936308e-21)
(1.042728 -0.01362641 1.2927209e-20)
(1.0435574 -0.011212341 -4.9470335e-21)
(1.0437897 -0.0087826528 1.0215748e-20)
(1.0434679 -0.0064662617 2.9322879e-22)
(1.0426744 -0.0043799842 -2.9248334e-21)
(1.0415179 -0.0026004976 -2.4090657e-21)
(1.0401285 -0.0011977642 -2.1157791e-21)
(1.0386304 -0.00016213711 -2.8199856e-22)
(1.037168 0.0004466401 5.9243075e-21)
(1.0358327 0.00075837852 -9.5591552e-22)
(1.0347793 0.00060490052 -2.8746972e-22)
(1.0339266 0.00036612373 2.8805447e-21)
(0.8919334 -0.002997054 2.4326837e-22)
(0.88641035 -0.0048564761 -5.9466281e-22)
(0.88868761 -0.0061062415 -2.2808575e-21)
(0.89085819 -0.0077776115 -4.1570945e-22)
(0.89651896 -0.0092031261 6.8956635e-23)
(0.90362191 -0.010727067 -3.7858827e-23)
(0.9125189 -0.012093922 -3.3993424e-21)
(0.92227901 -0.013445638 1.6277738e-21)
(0.93242472 -0.014679081 0)
(0.94302691 -0.015819459 1.2000655e-21)
(0.95432675 -0.016879341 0)
(0.96583241 -0.017883983 0)
(0.97701317 -0.018804636 4.8900774e-21)
(0.98737621 -0.019661533 -7.2664772e-22)
(0.99656114 -0.020464384 -4.9138576e-21)
(1.0044095 -0.021216988 -9.3321275e-21)
(1.0109682 -0.021902168 1.9435629e-20)
(1.0164503 -0.022481711 5.4844191e-21)
(1.0211398 -0.022891183 9.3493682e-21)
(1.0252999 -0.02305196 4.2442924e-21)
(1.0291056 -0.022881374 -1.1951849e-20)
(1.0326286 -0.022309759 6.4480098e-21)
(1.0358539 -0.021292254 2.1581003e-21)
(1.0387137 -0.019820203 -1.7599204e-21)
(1.0411168 -0.017926648 1.2402126e-22)
(1.0429758 -0.015686999 2.5687898e-21)
(1.0442262 -0.013212775 -1.7205317e-21)
(1.0448413 -0.010638386 -6.2889183e-21)
(1.0448394 -0.0081059513 -5.927412e-22)
(1.044282 -0.0057446131 -9.0109924e-21)
(1.0432674 -0.0036650807 -2.9813607e-21)
(1.0419155 -0.0019341405 -1.32592e-21)
(1.0403627 -0.00060943935 -3.4032416e-21)
(1.038734 0.00032860066 3.8654852e-21)
(1.0371732 0.00083171654 -1.20035e-20)
(1.0357654 0.0010315027 -2.1305765e-21)
(1.0346654 0.00077096228 -2.6193448e-21)
(1.0337819 0.0004164179 0)
(0.88898948 -0.0018242757 1.714002e-21)
(0.88142703 -0.0035572223 -6.6278331e-23)
(0.88190111 -0.004911805 -6.0356633e-22)