/*--------------------------------*- C++ -*----------------------------------*\
| =========                 |                                                 |
| \\      /  F ield         | OpenFOAM: The Open Source CFD Toolbox           |
|  \\    /   O peration     | Version:  5.0                                   |
|   \\  /    A nd           | Web:      www.OpenFOAM.org                      |
|    \\/     M anipulation  |                                                 |
\*---------------------------------------------------------------------------*/
FoamFile
{
    version     2.0;
    format      ascii;
    class       volSymmTensorField;
    location    "105";
    object      UPrime2Mean;
}
// * * * * * * * * * * * * * * * * * * * * * * * * * * * * * * * * * * * * * //

dimensions      [0 2 -2 0 0 0 0];

internalField   nonuniform List<symmTensor> 
9200
(
(2.890607e-05 -4.8223484e-10 8.3025354e-28 6.3922084e-09 3.6683293e-29 3.1200593e-47)
(2.8371558e-05 -5.6162289e-08 -3.0390206e-24 5.4179699e-08 1.8195942e-25 1.1003069e-42)
(2.9044199e-05 -2.7171423e-09 0 6.7178822e-09 0 0)
(3.0062588e-05 -5.4610422e-08 1.5904854e-24 1.376972e-07 -1.4988877e-25 2.8541029e-43)
(2.8526098e-05 -7.9440425e-08 -2.9276161e-24 5.6472166e-08 1.2565343e-25 7.2814227e-43)
(2.9038997e-05 -2.8382765e-09 0 6.8181739e-09 0 0)
(3.3186951e-05 -5.9490953e-08 1.6653691e-25 2.4960252e-07 -2.020131e-26 2.9353982e-45)
(3.0217981e-05 -8.3318467e-08 -1.6316626e-25 1.4340309e-07 6.6339757e-27 7.4461034e-45)
(2.8531247e-05 -9.337315e-08 0 5.7117731e-08 0 0)
(2.91533e-05 -3.9069373e-09 0 7.09502e-09 0 0)
(3.7499144e-05 1.0015589e-08 -3.1932682e-24 3.8271172e-07 4.8881548e-25 1.005012e-42)
(3.3301744e-05 -1.0344415e-07 -2.1766018e-24 2.5968035e-07 2.2021023e-25 3.5776062e-43)
(3.0224963e-05 -1.0237007e-07 -1.6748105e-24 1.4520717e-07 1.176084e-25 2.1337089e-43)
(2.8661231e-05 -1.1679781e-07 -1.0878048e-25 5.9081333e-08 4.6436039e-27 8.7787078e-46)
(2.9230798e-05 -4.6921089e-09 -1.0549282e-28 7.3606455e-09 -7.0550594e-30 5.6407504e-49)
(4.2858016e-05 1.1907999e-07 -3.0494279e-24 5.3199905e-07 5.3790059e-25 8.6451633e-43)
(3.7522584e-05 -3.9580365e-08 3.6052123e-25 3.9799344e-07 -2.3401459e-26 1.7885373e-44)
(3.3281342e-05 -1.3519693e-07 -5.5592983e-24 2.6295674e-07 5.1769252e-25 2.1486066e-42)
(3.0362063e-05 -1.3467327e-07 -2.150785e-24 1.505767e-07 1.4465544e-25 3.0279617e-43)
(2.8755209e-05 -1.3989288e-07 3.9601822e-26 6.1050457e-08 -1.9630686e-27 4.6789976e-45)
(2.9350168e-05 -5.1037479e-09 4.9487256e-24 7.735853e-09 -6.3110997e-26 1.6480439e-42)
(4.9294875e-05 3.0730258e-07 -2.6058537e-24 6.9405337e-07 6.1405761e-25 8.0065915e-43)
(4.2750651e-05 6.0939834e-08 -4.1910908e-24 5.5263575e-07 4.9227472e-25 1.0545534e-42)
(3.7452132e-05 -8.0569721e-08 3.5120786e-24 4.0298591e-07 -3.8466909e-25 7.9821801e-43)
(3.3392215e-05 -1.886862e-07 2.0200885e-25 2.7289045e-07 -1.8713004e-26 2.8082312e-45)
(3.0462328e-05 -1.6771026e-07 -2.3657905e-24 1.5594098e-07 1.5154627e-25 3.6867964e-43)
(2.8899345e-05 -1.6644179e-07 -2.3675389e-24 6.4029147e-08 9.5007647e-26 3.4299682e-43)
(2.9478172e-05 -4.6345678e-09 -3.9698386e-25 8.1518873e-09 3.707613e-27 8.046187e-45)
(5.6850949e-05 5.6876157e-07 -7.0228397e-25 8.6620978e-07 3.593964e-25 3.9855412e-43)
(4.9007886e-05 2.4661897e-07 -2.799763e-24 7.1995955e-07 4.2289395e-25 4.6371348e-43)
(4.2603835e-05 6.2271799e-09 -3.8285357e-24 5.5928964e-07 5.0333402e-25 8.7778943e-43)
(3.7508842e-05 -1.5135166e-07 2.254103e-25 4.1847094e-07 -1.0204168e-26 3.3636045e-44)
(3.3468502e-05 -2.4407558e-07 5.7334466e-24 2.8297282e-07 -4.8464742e-25 1.8707238e-42)
(3.0621953e-05 -2.0630719e-07 2.5572855e-24 1.6409275e-07 -1.540602e-25 3.6288115e-43)
(2.9052859e-05 -1.9221764e-07 3.2514642e-24 6.7476963e-08 -1.3635252e-25 7.4089258e-43)
(2.9624995e-05 -3.0021982e-09 -5.1418922e-24 8.6510937e-09 6.2703676e-26 1.6784421e-42)
(6.5612996e-05 9.2164163e-07 2.855774e-24 1.0478963e-06 -9.9923909e-25 1.3626419e-42)
(5.633901e-05 5.0816461e-07 -3.7587564e-24 8.966715e-07 4.9923095e-25 7.1660224e-43)
(4.8757068e-05 1.7835288e-07 3.2976607e-25 7.2802241e-07 -4.6575851e-27 3.3266867e-44)
(4.2575536e-05 -8.8994269e-08 -2.1737141e-24 5.8081331e-07 2.5760893e-25 2.5434908e-43)
(3.7536985e-05 -2.2691337e-07 4.9032497e-25 4.3433453e-07 -3.9500733e-26 1.6586162e-43)
(3.3617691e-05 -3.1074483e-07 9.512302e-24 2.9855663e-07 -7.825954e-25 4.881362e-42)
(3.0792063e-05 -2.4389487e-07 -2.0330084e-24 1.7345309e-07 1.6743227e-25 7.380689e-43)
(2.9235598e-05 -2.1829744e-07 5.7358166e-24 7.1802047e-08 -2.4292469e-25 2.1821763e-42)
(2.977885e-05 5.1285359e-10 1.1362149e-23 9.1891982e-09 -1.3456958e-25 7.8671186e-42)
(7.5684015e-05 1.3699242e-06 -1.7573657e-24 1.2392558e-06 9.0458919e-25 1.0293816e-42)
(6.482909e-05 8.6856303e-07 2.5150878e-24 1.0818543e-06 -1.9868944e-25 3.9055511e-43)
(5.5951542e-05 4.2420517e-07 1.7769923e-26 9.0558208e-07 -2.0554294e-26 3.0472955e-45)
(4.8610723e-05 5.7825049e-08 -1.1804936e-24 7.557016e-07 4.740665e-26 3.8764316e-43)
(4.252708e-05 -1.9265086e-07 7.185095e-25 6.031592e-07 -8.7462713e-26 2.8166242e-44)
(3.7654616e-05 -3.2134999e-07 7.5877284e-25 4.5925363e-07 -9.3076735e-26 4.4592832e-43)
(3.3780957e-05 -3.768258e-07 -3.5376655e-24 3.1652105e-07 2.8239586e-25 6.237874e-43)
(3.100255e-05 -2.8259705e-07 -6.2771415e-24 1.8520999e-07 3.8108473e-25 2.1353166e-42)
(2.9428048e-05 -2.4050378e-07 -3.4818809e-24 7.6532428e-08 1.29637e-25 6.1583901e-43)
(2.9945848e-05 6.0673067e-09 -9.3569342e-25 9.7860506e-09 8.1760957e-27 4.0668961e-44)
(8.7189759e-05 1.9211607e-06 7.097081e-25 1.442076e-06 -4.6436813e-25 2.0421596e-43)
(7.4589493e-05 1.3342925e-06 7.7518426e-25 1.2750892e-06 1.3581355e-25 1.8470383e-43)
(6.4268435e-05 7.6836551e-07 -3.1389957e-24 1.0908057e-06 4.6296874e-25 4.857162e-43)
(5.5649344e-05 2.7456643e-07 2.8810328e-24 9.390036e-07 -4.627967e-25 4.2472067e-43)
(4.8454637e-05 -7.6365991e-08 -5.4521878e-24 7.8477904e-07 6.1824099e-25 1.8262687e-42)
(4.258764e-05 -3.2647021e-07 1.1015908e-23 6.3906356e-07 -1.2462455e-24 6.0068498e-42)
(3.7791822e-05 -4.1653085e-07 2.18459e-25 4.8804052e-07 -3.8525434e-26 4.6487378e-44)
(3.4002396e-05 -4.4790159e-07 -1.0831611e-23 3.3940467e-07 9.3014038e-25 6.4819814e-42)
(3.1227858e-05 -3.1529221e-07 5.2834149e-24 1.9805633e-07 -3.4403374e-25 1.6402504e-42)
(2.9643717e-05 -2.5951552e-07 -1.1132311e-23 8.1870358e-08 4.4816448e-25 6.745536e-42)
(3.0106372e-05 1.4487716e-08 1.6541943e-24 1.0408776e-08 -2.1492435e-26 1.8845899e-43)
(0.00010026014 2.5777385e-06 -2.1939279e-26 1.6589922e-06 -1.0098715e-26 9.777218e-45)
(8.5763265e-05 1.919146e-06 -1.1271216e-24 1.4778027e-06 -3.7381229e-25 5.4311462e-43)
(7.3815561e-05 1.2166776e-06 1.930609e-24 1.2829279e-06 -5.0883931e-25 3.3122646e-43)
(6.3769098e-05 5.8862669e-07 0 1.1290656e-06 0 0)
(5.5348724e-05 1.0478886e-07 -6.3532316e-28 9.7458984e-07 7.4116687e-27 1.3803445e-45)
(4.8428277e-05 -2.5550234e-07 -1.0674247e-24 8.3273533e-07 1.0230284e-25 4.8105508e-43)
(4.2675151e-05 -4.6298665e-07 2.4088636e-24 6.8074413e-07 -2.7410218e-25 2.7174925e-43)
(3.8010276e-05 -5.2310521e-07 5.8095547e-24 5.2529171e-07 -5.9225238e-25 1.6738327e-42)
(3.4248836e-05 -5.1165587e-07 -2.1018316e-26 3.6443952e-07 1.2531652e-25 4.4600231e-43)
(3.1487637e-05 -3.4351231e-07 6.9078684e-24 2.125867e-07 -4.4269258e-25 2.5896311e-42)
(2.98584e-05 -2.7091817e-07 4.6097111e-24 8.7340335e-08 -1.9715177e-25 1.2204596e-42)
(3.0270412e-05 2.5877384e-08 -1.057019e-24 1.1067323e-08 9.5035899e-27 5.4617355e-44)
(0.0001149899 3.3383058e-06 2.4635124e-26 1.8937806e-06 1.619706e-26 4.7063253e-46)
(9.8516877e-05 2.6339791e-06 1.1921616e-24 1.6923797e-06 4.3312625e-26 9.6282766e-44)
(8.473476e-05 1.7827449e-06 0 1.4829639e-06 0 0)
(7.3075544e-05 1.006617e-06 0 1.3245435e-06 0 0)
(6.3282322e-05 3.8040899e-07 2.1471753e-24 1.1704122e-06 -2.663398e-25 2.1687395e-43)
(5.5197284e-05 -1.2866727e-07 -4.1306801e-24 1.035107e-06 4.5037615e-25 1.746028e-42)
(4.8437976e-05 -4.4035503e-07 6.2840616e-24 8.8880034e-07 -7.9718379e-25 2.3443633e-42)
(4.2872239e-05 -6.2131645e-07 -6.7655833e-24 7.3576575e-07 7.6165652e-25 1.8663961e-42)
(3.826736e-05 -6.2226582e-07 -5.5771207e-25 5.6618578e-07 4.4380195e-26 1.1912195e-44)
(3.4548267e-05 -5.7188232e-07 -3.2602906e-27 3.9298605e-07 -1.5657162e-27 5.884346e-47)
(3.1754241e-05 -3.5971863e-07 -8.3636303e-24 2.2754883e-07 5.9442942e-25 4.2753993e-42)
(3.0085632e-05 -2.7486812e-07 8.5334703e-24 9.300792e-08 -4.4095087e-25 5.4721608e-42)
(3.0413188e-05 4.0855275e-08 -1.638183e-23 1.1748797e-08 1.892796e-25 1.669938e-41)
(0.00013134885 4.1929626e-06 -1.0557658e-24 2.1507894e-06 3.3804495e-26 1.4894658e-43)
(0.00011301375 3.489461e-06 -2.0138478e-25 1.9227987e-06 5.7488527e-29 1.7080239e-45)
(9.7196126e-05 2.4759785e-06 1.9910353e-24 1.6926228e-06 -2.1069745e-25 2.0975558e-43)
(8.3712532e-05 1.5448043e-06 -2.5258079e-24 1.5259499e-06 2.4816662e-25 3.1726419e-43)
(7.2355717e-05 7.5732071e-07 2.7043737e-24 1.3703304e-06 -2.9846006e-25 3.6717466e-43)
(6.2956464e-05 8.6760435e-08 -1.2270296e-24 1.2431449e-06 1.1169813e-25 1.687416e-43)
(5.5093788e-05 -3.7206451e-07 -1.7368947e-24 1.1065924e-06 2.3614846e-25 1.079431e-43)
(4.8589461e-05 -6.618275e-07 9.0887784e-26 9.6442417e-07 -1.6275812e-26 2.6325159e-45)
(4.3125441e-05 -7.7342393e-07 -6.5804656e-24 7.9647289e-07 6.4754149e-25 1.5165593e-42)
(3.8602696e-05 -7.2123974e-07 -6.2045386e-24 6.1331018e-07 4.6605895e-25 1.3751615e-42)
(3.4869121e-05 -6.1620143e-07 -2.4804215e-24 4.2234936e-07 2.166302e-25 2.9122803e-43)
(3.204439e-05 -3.6436655e-07 -6.6984068e-24 2.4313415e-07 4.0445496e-25 2.1324147e-42)
(3.0296844e-05 -2.6767823e-07 -4.4059758e-24 9.8535349e-08 1.7373148e-25 9.7299821e-43)
(3.054096e-05 5.9444414e-08 4.5270891e-24 1.2463564e-08 -4.9971119e-26 1.2653289e-42)
(0.00014901031 5.1183239e-06 -1.2793108e-25 2.4346478e-06 -1.5237324e-24 1.8576208e-42)
(0.00012934515 4.490724e-06 -6.3561922e-24 2.1744337e-06 -3.1195962e-25 1.5080253e-42)
(0.00011137641 3.3043046e-06 3.4757432e-26 1.9148625e-06 -2.4113788e-25 6.3667006e-44)
(9.586075e-05 2.2155921e-06 2.4193516e-25 1.7344839e-06 1.3634691e-26 6.3112708e-45)
(8.2710377e-05 1.252925e-06 -1.9224466e-25 1.5743129e-06 -5.491675e-27 5.6933716e-45)
(7.1804093e-05 3.9649328e-07 1.6459396e-24 1.45431e-06 -1.1488035e-25 2.8716617e-43)
(6.2702911e-05 -2.2513875e-07 -1.6891677e-24 1.3305709e-06 2.5290785e-25 9.7572466e-44)
(5.5165683e-05 -6.7187549e-07 2.3907069e-24 1.2053088e-06 -3.2284939e-25 1.8779853e-43)
(4.8818065e-05 -8.8001205e-07 -5.1725818e-25 1.048457e-06 1.2040201e-25 1.0640052e-43)
(4.3489684e-05 -9.3208679e-07 6.4236254e-25 8.6741325e-07 -4.3660905e-26 1.7583515e-44)
(3.8979069e-05 -8.0181354e-07 1.6364827e-25 6.6198337e-07 -1.6959107e-26 1.10826e-45)
(3.5232714e-05 -6.4599914e-07 7.7669924e-25 4.5297081e-07 5.3814621e-26 1.1229689e-43)
(3.2326616e-05 -3.5108319e-07 8.9634811e-24 2.5846473e-07 -6.116794e-25 4.3509899e-42)
(3.0503163e-05 -2.4919544e-07 -4.1103226e-24 1.0394543e-07 2.0216755e-25 1.1152403e-42)
(3.0637961e-05 8.1880465e-08 3.2881893e-24 1.3216135e-08 -3.9803091e-26 7.613722e-43)
(0.00016708415 6.0701602e-06 6.0251023e-24 2.7488766e-06 5.2100711e-25 4.4810788e-43)
(0.00014738318 5.6318544e-06 3.5803343e-24 2.4537079e-06 -1.9958997e-25 3.1313691e-43)
(0.00012740082 4.2692826e-06 -1.8290087e-24 2.1536848e-06 -5.2886626e-26 2.6410693e-43)
(0.00010972401 3.0305124e-06 2.7449789e-24 1.9528654e-06 -2.1204244e-25 3.2706019e-43)
(9.4528289e-05 1.8803067e-06 -2.9979386e-24 1.7829135e-06 2.9430978e-25 3.8659866e-43)
(8.1878522e-05 8.1939365e-07 5.6908481e-24 1.6677257e-06 -9.0527999e-25 1.1219435e-42)
(7.1350317e-05 7.1836879e-09 -7.3886654e-24 1.5572333e-06 9.5490165e-25 2.5494556e-42)
(6.2648302e-05 -6.1559669e-07 3.2862299e-25 1.4537539e-06 -4.6477633e-26 1.3436906e-44)
(5.5340373e-05 -9.7330367e-07 2.0858096e-24 1.3160607e-06 -2.9315028e-25 1.4385702e-43)
(4.9196819e-05 -1.1156573e-06 -1.1753078e-24 1.1482706e-06 3.7896786e-25 8.3015815e-43)
(4.392039e-05 -1.0716824e-06 1.963355e-23 9.4106325e-07 -2.3313985e-24 1.3923379e-41)
(3.9425219e-05 -8.6683781e-07 -5.2488899e-24 7.1306353e-07 7.9324956e-25 2.1532492e-42)
(3.5604332e-05 -6.5070742e-07 -3.2136181e-24 4.828377e-07 3.0339615e-25 5.0693465e-43)
(3.2615309e-05 -3.1944895e-07 -1.5582942e-24 2.7356381e-07 5.2513474e-26 8.5070721e-44)
(3.0681724e-05 -2.1723135e-07 -6.3419649e-25 1.0911517e-07 -1.7547276e-26 3.5591531e-44)
(3.069867e-05 1.0807377e-07 -3.6147859e-24 1.4020247e-08 4.0741633e-26 9.1168257e-43)
(0.00018379949 6.9758533e-06 0 3.0946782e-06 0 0)
(0.00016652663 6.880289e-06 6.174374e-24 2.7664245e-06 3.8442252e-25 7.6816915e-43)
(0.00014520994 5.3619024e-06 2.3655015e-25 2.4135727e-06 5.2856241e-25 1.8489771e-43)
(0.00012547714 3.9991147e-06 0 2.1847017e-06 0 0)
(0.0001080227 2.6523764e-06 0 1.9980594e-06 0 0)
(9.3361214e-05 1.3700802e-06 0 1.8830566e-06 0 0)
(8.1166596e-05 3.4522593e-07 4.7529315e-25 1.7847151e-06 -2.036671e-26 2.9959599e-44)
(7.1116182e-05 -4.8715971e-07 -4.5846278e-24 1.7054543e-06 7.3505848e-25 6.2296571e-43)
(6.2732929e-05 -1.017085e-06 4.1630186e-24 1.5941088e-06 -7.1582037e-25 2.2395602e-42)
(5.5708599e-05 -1.3079062e-06 -6.2564138e-24 1.450012e-06 8.7941946e-25 1.1599427e-42)
(4.9673368e-05 -1.3340641e-06 2.6510289e-25 1.2527682e-06 -1.4011882e-25 9.8692906e-44)
(4.4457462e-05 -1.1971132e-06 -4.4527515e-24 1.0190613e-06 5.0450654e-25 6.4297566e-43)
(3.9901912e-05 -9.0072715e-07 1.822191e-25 7.62914e-07 -8.1463113e-26 2.781521e-44)
(3.6000309e-05 -6.2970399e-07 3.823663e-24 5.1192019e-07 -3.3202788e-25 6.3710955e-43)
(3.288009e-05 -2.6536467e-07 1.2323507e-24 2.881256e-07 -1.9097263e-26 5.2089446e-44)
(3.0830566e-05 -1.7160872e-07 1.9936334e-24 1.1411447e-07 -9.3698605e-26 2.5346352e-43)
(3.0717631e-05 1.3792586e-07 0 1.4893038e-08 0 0)
(0.00019630049 7.7403262e-06 9.7031891e-24 3.4698624e-06 -1.4641868e-25 1.2058936e-42)
(0.00018534624 8.1593526e-06 -8.8995392e-24 3.1157722e-06 -1.3054579e-25 1.230828e-42)
(0.0001643244 6.550985e-06 7.2474799e-24 2.6981724e-06 3.2673046e-25 3.4750342e-42)
(0.00014316728 5.1210797e-06 5.7904466e-24 2.4342314e-06 4.0915387e-25 1.4870712e-42)
(0.00012340533 3.5772158e-06 5.3907102e-24 2.2228266e-06 -8.3556204e-26 1.2784449e-42)
(0.000106476 2.0634233e-06 0 2.1014358e-06 0 0)
(9.2331376e-05 8.0408531e-07 6.3907747e-24 2.0116774e-06 -5.1055791e-25 2.1818527e-42)
(8.0692657e-05 -2.6540965e-07 -1.8046096e-24 1.9573976e-06 1.7293771e-25 3.1768338e-43)
(7.1061959e-05 -1.0056806e-06 -1.2376286e-23 1.8774207e-06 1.9601866e-24 5.7654218e-42)
(6.3053148e-05 -1.471319e-06 4.9574398e-24 1.7667995e-06 -1.03789e-24 3.5095443e-42)
(5.6213229e-05 -1.6303224e-06 3.9450049e-24 1.5919107e-06 -5.5240121e-25 4.2447902e-43)
(5.0301908e-05 -1.5433762e-06 7.8571766e-26 1.3648219e-06 -1.7299645e-25 1.4264425e-43)
(4.5055683e-05 -1.2870816e-06 -9.3978617e-24 1.095238e-06 1.324946e-24 3.6977944e-42)
(4.0429038e-05 -9.0262224e-07 1.4445607e-23 8.1140907e-07 -1.4033392e-24 7.3213685e-42)
(3.6385654e-05 -5.7554336e-07 4.0428971e-24 5.3931366e-07 -1.0729091e-25 5.1264157e-43)
(3.3125442e-05 -1.8851648e-07 1.5277278e-23 3.0233377e-07 -1.0763613e-24 1.3383064e-41)
(3.094e-05 -1.1177297e-07 5.6165971e-24 1.1901527e-07 -2.2510523e-25 1.750165e-42)
(3.0687472e-05 1.7118998e-07 4.0700132e-24 1.5854956e-08 -4.5381462e-26 1.3271744e-42)
(0.00020083463 8.2742868e-06 -1.580073e-24 3.8690729e-06 -9.14042e-26 1.6930178e-44)
(0.00020125844 9.337415e-06 -6.7887825e-24 3.4997429e-06 -5.4567674e-25 5.8558393e-43)
(0.00018350527 7.7687461e-06 -4.2434741e-25 3.0086201e-06 2.8753051e-25 4.6656681e-44)
(0.00016250077 6.3727191e-06 6.3074808e-24 2.7058075e-06 1.3007496e-25 1.2241549e-42)
(0.00014079501 4.6536869e-06 -8.1425883e-25 2.4608782e-06 -1.6479652e-26 2.5865811e-44)
(0.00012146461 2.9103933e-06 1.2218625e-24 2.3250727e-06 -6.4260403e-25 2.5761589e-43)
(0.00010507343 1.399575e-06 -7.3378036e-24 2.2382879e-06 -2.7942787e-25 5.1209238e-42)
(9.1550851e-05 6.5762661e-08 -1.4071318e-23 2.2070026e-06 1.4730976e-24 9.755793e-42)
(8.0440366e-05 -9.1705645e-07 -4.8826404e-24 2.1617674e-06 6.9792206e-25 1.343922e-42)
(7.1285828e-05 -1.601166e-06 5.9533571e-24 2.0928105e-06 -9.5232355e-25 8.9709697e-43)
(6.3557919e-05 -1.9231365e-06 -1.0132004e-24 1.9526507e-06 2.5986715e-25 1.7938832e-43)
(5.6923479e-05 -1.9535344e-06 1.0513731e-23 1.7463091e-06 -1.5606794e-24 3.0173075e-42)
(5.1030902e-05 -1.7156268e-06 -4.3181054e-24 1.4749634e-06 9.313606e-25 1.4027658e-42)
(4.5741423e-05 -1.3395711e-06 -9.1082557e-25 1.1694272e-06 -2.3358028e-26 5.1458091e-44)
(4.0967322e-05 -8.609264e-07 -1.8587865e-24 8.5662323e-07 -6.5368898e-27 1.37307e-43)
(3.6768844e-05 -4.8699567e-07 -2.8271382e-24 5.6517082e-07 2.6079114e-25 3.7784987e-43)
(3.3332339e-05 -8.7478461e-08 4.9337513e-24 3.163899e-07 -3.5049895e-25 1.456236e-42)
(3.1002954e-05 -3.7643026e-08 1.8410981e-25 1.2396547e-07 2.0985358e-26 1.1295942e-44)
(3.0604005e-05 2.074307e-07 3.2158023e-24 1.6927095e-08 -4.4885673e-26 1.1022495e-42)
(0.00019362059 8.5526385e-06 -1.2371341e-23 4.2857092e-06 -8.8199092e-25 1.0219024e-42)
(0.00021049183 1.0243471e-05 7.899435e-24 3.9100903e-06 6.0391207e-25 7.2225496e-43)
(0.0002003923 8.8943931e-06 -1.4050062e-23 3.3424927e-06 -4.5505576e-27 1.0394759e-41)
(0.00018250224 7.6860793e-06 -4.2472461e-24 3.0020908e-06 -3.9057141e-25 4.6036456e-43)
(0.0001600292 5.8611132e-06 1.7664834e-24 2.7156054e-06 -3.0505073e-25 1.1195031e-43)
(0.00013851423 3.9137259e-06 2.6565995e-25 2.5570252e-06 -3.0955847e-25 5.204908e-44)
(0.00011965458 2.1439827e-06 1.6332946e-24 2.4656515e-06 -5.5259083e-26 1.029914e-43)
(0.00010391982 5.2377919e-07 5.5989257e-24 2.4530266e-06 -9.8644071e-25 8.1900441e-43)
(9.1033647e-05 -7.3445447e-07 -2.2950806e-24 2.4431469e-06 2.9289818e-25 2.4558492e-43)
(8.0508399e-05 -1.674826e-06 -1.5750443e-23 2.4226434e-06 2.6794843e-24 9.2953088e-42)
(7.1749467e-05 -2.209125e-06 1.3181588e-23 2.3289673e-06 -2.1974411e-24 4.0284526e-42)
(6.4327277e-05 -2.3906358e-06 -1.5495613e-24 2.1580596e-06 1.1336998e-25 1.2982146e-43)
(5.7783757e-05 -2.2416121e-06 -4.9191138e-24 1.8998258e-06 6.0942012e-25 5.4677057e-43)
(5.1896256e-05 -1.8477092e-06 4.2390948e-25 1.5828259e-06 -3.6214483e-26 4.2432897e-45)
(4.6470116e-05 -1.3386361e-06 -1.0496462e-24 1.2377006e-06 -8.6444994e-26 1.009553e-43)
(4.1525195e-05 -7.7290399e-07 -1.1051064e-23 8.9854535e-07 1.2322381e-24 4.9582816e-42)
(3.7120101e-05 -3.6047362e-07 8.4201635e-25 5.8974762e-07 -3.3440009e-25 4.57788e-43)
(3.349472e-05 3.7686255e-08 -8.5441186e-24 3.3069467e-07 5.0561348e-25 3.8044334e-42)
(3.1013218e-05 5.0048248e-08 -1.9559696e-24 1.2919416e-07 7.1284454e-26 2.1969212e-43)
(3.046364e-05 2.4610007e-07 -3.0515753e-24 1.8128304e-08 4.3897139e-26 1.1207189e-42)
(0.00017247343 8.6879576e-06 1.8213076e-25 4.7141585e-06 2.744454e-25 2.8455732e-44)
(0.00020869201 1.0728342e-05 1.4344218e-23 4.3352579e-06 1.5025996e-24 2.2721204e-42)
(0.00021136846 9.7675157e-06 4.0482572e-24 3.6919885e-06 1.0573615e-24 6.2486634e-43)
(0.00020110369 8.9380522e-06 7.2577073e-24 3.3206834e-06 2.4544055e-25 1.0503065e-42)
(0.00018034306 7.1424931e-06 -2.2155672e-24 2.9884321e-06 -5.4279657e-25 2.3175662e-43)
(0.00015759511 5.0585586e-06 -5.2042998e-24 2.8003917e-06 1.0206375e-25 6.5618717e-43)
(0.00013631388 3.0421883e-06 1.449593e-23 2.6959105e-06 -3.602837e-25 6.1895853e-42)
(0.00011807629 1.1223557e-06 2.5960955e-23 2.6952058e-06 -1.5923355e-24 2.33761e-41)
(0.00010306812 -4.3972448e-07 -5.4894141e-24 2.718684e-06 1.328046e-24 1.0828112e-42)
(9.0875885e-05 -1.6746678e-06 0 2.7508039e-06 0 0)
(8.0876529e-05 -2.4653464e-06 -9.0080596e-24 2.714551e-06 1.6054886e-24 1.7438479e-42)
(7.25418e-05 -2.8533977e-06 3.8029728e-24 2.5944654e-06 -9.9379577e-25 1.7356531e-42)
(6.5307773e-05 -2.8300209e-06 1.243604e-23 2.3656306e-06 -2.2484909e-24 4.3006578e-42)
(5.8841252e-05 -2.4913022e-06 -7.0649369e-24 2.0515424e-06 1.6715644e-24 3.1170733e-42)
(5.2847729e-05 -1.9182049e-06 5.8237242e-24 1.6818364e-06 -6.3226845e-25 7.806821e-43)
(4.7251678e-05 -1.2782267e-06 -1.0719611e-23 1.299914e-06 1.270096e-24 3.5717615e-42)
(4.2067576e-05 -6.3182096e-07 -2.5193567e-24 9.3717957e-07 -9.8994742e-26 2.768152e-43)
(3.7437332e-05 -1.956131e-07 2.4350835e-24 6.137772e-07 -3.4842224e-25 5.4593833e-43)
(3.3603434e-05 1.8622873e-07 -4.0397807e-24 3.4580188e-07 3.3931989e-25 1.3215665e-42)
(3.0965632e-05 1.5010968e-07 -6.9770949e-25 1.3494756e-07 1.5437366e-28 1.6284043e-44)
(3.0264608e-05 2.8655124e-07 -2.3214659e-24 1.9473443e-08 4.3848051e-26 9.3987194e-43)
(0.00013880458 8.9821949e-06 1.6597504e-23 5.1507526e-06 3.0639884e-24 2.9374638e-42)
(0.000192402 1.0768532e-05 1.1785049e-23 4.765933e-06 1.4120226e-24 1.6967509e-42)
(0.00021201548 1.0237308e-05 7.7497565e-24 4.0469884e-06 -9.9750419e-26 1.9819467e-42)
(0.00021488363 9.9494498e-06 -1.3268947e-23 3.6540666e-06 -6.1340001e-26 3.2263173e-42)
(0.00019994824 8.3825583e-06 -1.1133279e-23 3.277114e-06 -3.1740644e-25 2.3036073e-42)
(0.00017816512 6.2943685e-06 3.6553088e-25 3.056812e-06 -3.4853387e-25 4.8578171e-44)
(0.00015512944 4.0821778e-06 0 2.931568e-06 0 0)
(0.00013430307 1.868809e-06 1.9491175e-24 2.9343913e-06 -1.1067684e-24 6.2600433e-43)
(0.0001168281 -1.8213141e-08 -5.7599326e-24 2.986388e-06 1.0846824e-25 1.8690888e-42)
(0.00010260788 -1.5815265e-06 -1.9095624e-23 3.0725429e-06 3.1744806e-24 8.6947005e-42)
(9.1081914e-05 -2.6736892e-06 -2.0762621e-24 3.1025172e-06 4.3383629e-25 2.8477836e-43)
(8.1641486e-05 -3.3188441e-06 3.3696619e-24 3.0487911e-06 -7.2340519e-25 5.7881488e-43)
(7.3617123e-05 -3.4828398e-06 -5.5219358e-25 2.8680409e-06 1.812336e-25 5.3208293e-44)
(6.6557572e-05 -3.23838e-06 -5.1589867e-24 2.5735416e-06 7.7675273e-25 5.3212766e-43)
(6.0041864e-05 -2.6740707e-06 6.3033431e-24 2.1916017e-06 -1.198825e-24 1.3675379e-42)
(5.3899212e-05 -1.9172035e-06 -5.3101149e-24 1.7709465e-06 9.3986845e-25 1.113746e-42)
(4.8045406e-05 -1.1482314e-06 1.4493026e-24 1.3549153e-06 -1.5344402e-25 5.9409402e-44)
(4.2591896e-05 -4.3564579e-07 -7.2650778e-24 9.7351698e-07 7.1228333e-25 1.9717016e-42)
(3.7701122e-05 7.4985046e-09 -2.6960406e-24 6.383471e-07 -3.1657564e-26 2.1512454e-43)
(3.3651066e-05 3.5657718e-07 -5.121235e-25 3.623489e-07 -1.3145133e-26 8.7824142e-45)
(3.0856848e-05 2.6085831e-07 -1.5895921e-24 1.4147932e-07 1.0208505e-25 3.2254362e-43)
(3.0006249e-05 3.2807264e-07 0 2.0971514e-08 0 0)
(9.918321e-05 9.9133933e-06 6.2434335e-24 5.5918555e-06 1.8800589e-24 7.49814e-43)
(0.00016121423 1.0577357e-05 -5.9539529e-24 5.201022e-06 -8.4783532e-25 5.2968634e-43)
(0.0001984291 1.0253949e-05 -7.0610659e-25 4.3997705e-06 -1.814368e-25 1.0726737e-44)
(0.00021931582 1.0522632e-05 -1.8850066e-23 3.9908907e-06 -9.1667938e-25 4.7196104e-42)
(0.00021568058 9.4029861e-06 -1.0846619e-23 3.5740511e-06 -7.0132635e-25 1.691668e-42)
(0.0001987385 7.513335e-06 6.414435e-24 3.324584e-06 -2.2268071e-26 6.4068425e-43)
(0.0001757485 5.2205308e-06 2.2110521e-25 3.1739507e-06 1.0339274e-24 4.259464e-43)
(0.00015277565 2.7554768e-06 1.8361655e-23 3.1719944e-06 -1.1078683e-24 6.5713384e-42)
(0.00013262733 5.3905993e-07 5.1978163e-24 3.245404e-06 -7.5582156e-25 5.3357243e-43)
(0.000115991 -1.3795545e-06 1.4900158e-24 3.3838002e-06 -1.5602361e-25 7.3437917e-44)
(0.00010257564 -2.8142998e-06 -3.0352068e-25 3.4861838e-06 4.2323083e-26 5.1833178e-45)
(9.175478e-05 -3.7685639e-06 -8.0593107e-24 3.5131743e-06 1.6255923e-24 3.1779857e-42)
(8.2770659e-05 -4.1778631e-06 1.4739924e-24 3.4007196e-06 -2.7361205e-25 4.0097792e-44)
(7.5044803e-05 -4.0954303e-06 -4.9871336e-24 3.1467623e-06 -1.9067643e-26 2.6719924e-42)
(6.8022855e-05 -3.5794215e-06 -1.3426318e-23 2.7680131e-06 1.8950987e-24 3.3093402e-42)
(6.1405363e-05 -2.7761848e-06 -1.2255462e-23 2.3170967e-06 1.7492355e-24 3.2789852e-42)
(5.5003572e-05 -1.8293538e-06 1.8792384e-24 1.8474819e-06 -2.4370897e-26 9.435923e-44)
(4.8845793e-05 -9.4268411e-07 1.4852965e-23 1.4040989e-06 -1.6326264e-24 6.6034546e-42)
(4.3069403e-05 -1.8277157e-07 6.2214854e-26 1.0092171e-06 -8.7577826e-26 1.8719744e-44)
(3.7903009e-05 2.4722142e-07 -3.0655581e-24 6.6474778e-07 2.6287155e-25 4.9859574e-43)
(3.3631648e-05 5.4609382e-07 0 3.8102247e-07 0 0)
(3.0684985e-05 3.8024712e-07 2.8234312e-24 1.4902259e-07 -2.252191e-25 1.4923342e-42)
(2.9689901e-05 3.6993214e-07 1.9512247e-25 2.2624659e-08 2.9469853e-27 1.3222777e-45)
(6.5555192e-05 1.2036152e-05 -2.1601105e-23 6.0291403e-06 -7.9604496e-24 1.1412501e-41)
(0.00011986974 1.0660832e-05 -7.9717102e-24 5.6486081e-06 -1.4256178e-24 2.4782525e-42)
(0.00016932859 9.9734535e-06 8.9717879e-24 4.7489388e-06 -5.3816457e-25 1.6885233e-42)
(0.00020988247 1.0540284e-05 5.2762909e-24 4.3215012e-06 -2.0162581e-25 5.257718e-43)
(0.00022306538 9.9932246e-06 -1.8179402e-23 3.8683906e-06 -1.006996e-25 4.2551279e-42)
(0.00021645216 8.536055e-06 0 3.5978682e-06 0 0)
(0.00019696578 6.3598856e-06 3.0900712e-25 3.4215708e-06 2.4682479e-25 2.1813814e-44)
(0.00017332242 3.745065e-06 6.5259211e-24 3.4090521e-06 -8.8090486e-25 7.6225892e-43)
(0.00015071849 1.2275397e-06 1.4274292e-23 3.4957714e-06 -9.1869998e-25 3.8582752e-42)
(0.00013136183 -1.0582171e-06 1.6724158e-23 3.6814922e-06 -1.0256461e-24 8.5274656e-42)
(0.00011564138 -2.8704027e-06 -1.0303392e-23 3.8591209e-06 1.9467118e-24 1.9157311e-42)
(0.00010307902 -4.1817308e-06 -9.4475886e-24 3.9791352e-06 1.8135864e-24 2.0962151e-42)
(9.2880682e-05 -4.8969784e-06 1.1407964e-23 3.955542e-06 -2.4000945e-24 3.0918617e-42)
(8.4345269e-05 -5.0419997e-06 -1.2338466e-23 3.7663843e-06 2.3772182e-24 2.7105432e-42)
(7.6776149e-05 -4.647185e-06 1.8806805e-23 3.4124319e-06 -3.5152053e-24 6.9306278e-42)
(6.9730757e-05 -3.8354377e-06 2.7469024e-23 2.9433297e-06 -3.9691212e-24 1.3394737e-41)
(6.2879435e-05 -2.774956e-06 -1.3701739e-24 2.4229975e-06 1.1435919e-24 1.6492472e-42)
(5.6153812e-05 -1.6438073e-06 6.7045856e-24 1.9123105e-06 -8.1445085e-25 1.1019725e-42)
(4.9617108e-05 -6.5746513e-07 -1.4708721e-23 1.4491031e-06 1.9627708e-24 8.3250603e-42)
(4.3490708e-05 1.2604174e-07 7.1735403e-25 1.0463905e-06 -6.0465129e-25 8.5430445e-43)
(3.8031827e-05 5.2048169e-07 5.2075342e-24 6.9444029e-07 -5.8475988e-25 2.1073328e-42)
(3.3541064e-05 7.514738e-07 -2.4469035e-24 4.024546e-07 4.1210216e-25 1.5945367e-42)
(3.0449657e-05 5.0596182e-07 5.4688376e-25 1.5776865e-07 -1.8562935e-25 7.0001811e-43)
(2.9317844e-05 4.1136933e-07 1.510184e-25 2.4425456e-08 2.540711e-27 7.9900342e-46)
(5.3673904e-05 1.5821604e-05 -7.9904485e-24 6.4433313e-06 -2.8197432e-24 1.3965458e-42)
(7.9250619e-05 1.1754643e-05 -7.3279044e-24 6.1189931e-06 -1.6235376e-24 1.9550347e-42)
(0.00012834121 9.8208317e-06 -5.3824586e-24 5.0990227e-06 -8.179957e-25 3.4369691e-43)
(0.00018414649 1.0092317e-05 -4.1060846e-23 4.6448855e-06 -1.3408887e-24 1.9764067e-41)
(0.00021721943 1.0000472e-05 1.046139e-23 4.1507793e-06 -2.4027032e-25 1.3779288e-42)
(0.00022696134 9.1435035e-06 -2.5156909e-23 3.8661338e-06 1.1027404e-25 6.8032164e-42)
(0.0002162378 7.3331616e-06 5.4816047e-25 3.6688417e-06 2.4337676e-25 1.9375877e-44)
(0.00019501985 4.7507048e-06 -2.6560387e-23 3.6445076e-06 1.0447381e-24 8.8784933e-42)
(0.00017108413 2.0163684e-06 4.0618977e-24 3.7376429e-06 -8.8319388e-25 3.5384303e-43)
(0.00014903754 -6.1938144e-07 8.5230574e-24 3.9635203e-06 -8.9847652e-25 1.2171903e-42)
(0.00013062902 -2.8302942e-06 -6.6435848e-24 4.2155819e-06 1.5571698e-24 8.4856042e-43)
(0.00011589046 -4.5405419e-06 1.6745737e-23 4.437811e-06 -2.8699624e-24 6.9563472e-42)
(0.00010412927 -5.6187321e-06 -8.1001854e-24 4.522746e-06 1.690599e-24 1.0471898e-42)
(9.4553399e-05 -6.0609451e-06 -6.9394384e-25 4.4251375e-06 1.8199851e-25 2.9166692e-44)
(8.6326985e-05 -5.8603451e-06 1.3017646e-23 4.122973e-06 -2.1027604e-24 2.6605754e-42)
(7.8847574e-05 -5.1164558e-06 2.4571729e-24 3.6555722e-06 -5.2368472e-25 1.4481339e-43)
(7.1626738e-05 -3.9749018e-06 -6.1997023e-25 3.0909603e-06 2.5882452e-25 5.8600129e-44)
(6.4456801e-05 -2.6534627e-06 1.2212733e-23 2.5085981e-06 -1.643412e-24 3.0548075e-42)
(5.7305774e-05 -1.351651e-06 0 1.9670076e-06 0 0)
(5.0343866e-05 -2.9044324e-07 2.0542492e-24 1.4933091e-06 -1.1136578e-25 9.3610699e-44)
(4.3834027e-05 4.8766084e-07 4.7668072e-25 1.0876332e-06 -1.9555765e-26 6.2090899e-45)
(3.8079773e-05 8.2299936e-07 -6.7393549e-25 7.2886434e-07 2.5397947e-26 1.6933009e-44)
(3.337708e-05 9.6882051e-07 -7.6422239e-25 4.2716221e-07 -6.6595017e-26 3.077247e-44)
(3.0152443e-05 6.3552207e-07 -1.18765e-24 1.6784188e-07 2.3025876e-25 1.2612704e-42)
(2.8893722e-05 4.5164519e-07 1.6028078e-25 2.6355972e-08 4.4879928e-26 3.3457934e-43)
(8.0097815e-05 2.1511859e-05 2.7820239e-23 6.8060027e-06 7.9605396e-24 9.9992036e-42)
(5.5464333e-05 1.4635002e-05 5.1439137e-24 6.6089793e-06 1.2416004e-24 6.9549479e-43)
(8.5403306e-05 1.0455727e-05 3.3532309e-24 5.4574595e-06 -8.7493778e-26 2.1620968e-43)
(0.00014423298 9.5702971e-06 4.4727182e-24 4.970918e-06 1.3407192e-25 2.4337812e-43)
(0.00019478398 9.4575105e-06 3.9829742e-23 4.420887e-06 3.1041934e-25 1.5470105e-41)
(0.00022510598 9.1485849e-06 5.6970359e-24 4.1202889e-06 4.7092298e-25 2.5733849e-43)
(0.00022942887 7.916294e-06 8.4642994e-25 3.9069556e-06 2.6586102e-25 2.1618738e-44)
(0.00021567491 5.6164772e-06 1.8419721e-24 3.8740092e-06 -7.8476417e-26 3.553277e-44)
(0.00019305731 2.8290834e-06 2.2114004e-23 3.9700159e-06 -1.2722218e-24 5.713896e-42)
(0.00016913894 -8.8803028e-08 -9.7377496e-25 4.2284804e-06 8.6537552e-25 2.5981523e-43)
(0.00014790427 -2.6937815e-06 1.1521328e-23 4.5507756e-06 -1.6822547e-24 1.9760129e-42)
(0.00013054501 -4.8321374e-06 -2.1347385e-24 4.880429e-06 2.9602638e-25 1.1027932e-43)
(0.00011678104 -6.3243981e-06 -8.4346256e-24 5.0912423e-06 1.6261415e-24 1.7599615e-42)
(0.00010583346 -7.1304552e-06 3.2843799e-24 5.1129255e-06 -6.8326126e-25 1.6214525e-43)
(9.6750617e-05 -7.2041151e-06 -2.092278e-24 4.8947471e-06 6.545102e-25 3.8477991e-43)
(8.8763974e-05 -6.6077562e-06 -2.0143374e-23 4.4564543e-06 3.1178232e-24 5.9234876e-42)
(8.1206549e-05 -5.4619624e-06 -2.7834429e-23 3.8628588e-06 2.6574005e-24 1.3556246e-41)
(7.3704945e-05 -3.9734783e-06 -1.9753763e-23 3.2072989e-06 2.9382136e-24 6.798485e-42)