/*--------------------------------*- C++ -*----------------------------------*\
| =========                 |                                                 |
| \\      /  F ield         | OpenFOAM: The Open Source CFD Toolbox           |
|  \\    /   O peration     | Version:  5.0                                   |
|   \\  /    A nd           | Web:      www.OpenFOAM.org                      |
|    \\/     M anipulation  |                                                 |
\*---------------------------------------------------------------------------*/
FoamFile
{
    version     2.0;
    format      ascii;
    class       volScalarField;
    location    "320";
    object      ddt0(nuTilda);
}
// * * * * * * * * * * * * * * * * * * * * * * * * * * * * * * * * * * * * * //

dimensions      [0 2 -2 0 0 0 0];

internalField   nonuniform List<scalar> 
9520
(
-9.3401525e-37
-1.6512751e-34
-1.1188379e-35
-1.2438683e-32
-1.2817758e-33
-1.4317187e-35
-5.5909474e-31
-7.0076169e-32
-1.5492245e-33
-4.5764283e-36
-1.7519564e-29
-2.4186096e-30
-7.9085674e-32
-3.1054634e-34
1.5184665e-35
-4.1762935e-28
-5.9708277e-29
-2.5172254e-30
-4.6586981e-33
2.0227039e-33
3.5358311e-35
-7.9587572e-27
-1.1422854e-27
-5.6187184e-29
2.8408606e-31
1.25382e-31
4.185263e-33
4.3276332e-35
-1.2349422e-25
-1.7752631e-26
-9.4652837e-28
1.8825526e-29
4.8326087e-30
2.3388455e-31
4.6304309e-33
2.8912611e-35
-1.5705253e-24
-2.2856604e-25
-1.2532092e-26
6.0111739e-28
1.3170299e-28
8.214671e-30
2.3310756e-31
2.3519625e-33
-9.563685e-36
-1.6296863e-23
-2.4425906e-24
-1.3183787e-25
1.3296284e-26
2.74486e-27
2.049464e-28
7.3321254e-30
7.7155241e-32
-2.4517972e-33
-6.1679617e-35
-1.3409302e-22
-2.1122956e-23
-1.1045064e-24
2.2604012e-25
4.6027426e-26
3.9088393e-27
1.6154699e-28
9.3591684e-31
-2.0153193e-31
-8.123767e-33
-1.0527625e-34
-7.5682262e-22
-1.3292623e-22
-7.0951235e-24
3.0357952e-24
6.4178644e-25
5.9815136e-26
2.6449521e-27
-1.9963757e-29
-9.1483159e-30
-4.9014406e-31
-1.1939512e-32
-1.1372465e-34
1.5942518e-20
-7.5305947e-23
-3.2582012e-23
3.2620196e-23
7.5455022e-24
7.6088301e-25
3.301084e-26
-1.239578e-27
-2.7724508e-28
-1.8310772e-29
-6.3413623e-31
-1.1143453e-32
-6.8111534e-35
2.3960401e-18
4.5921527e-20
-1.8187959e-22
2.704846e-22
7.5441946e-23
8.2498306e-24
3.1492327e-25
-3.3368546e-26
-6.2131267e-27
-4.8064951e-28
-2.1066933e-29
-5.0243736e-31
-4.3282931e-33
3.03825e-35
1.7854237e-16
3.3963706e-18
-4.4944875e-21
1.2535336e-21
6.4109522e-22
7.8152795e-23
2.2628936e-24
-6.26072e-25
-1.0991197e-25
-9.5413377e-27
-4.9304659e-28
-1.3625671e-29
-5.83029e-32
7.4363244e-33
1.5476167e-34
8.9609116e-15
1.7595068e-16
-8.6825322e-19
-3.7026717e-20
4.4630644e-21
6.70571e-22
1.1846548e-23
-9.0551213e-24
-1.6003997e-24
-1.5065987e-25
-8.6555392e-27
-2.405239e-28
3.8954852e-30
5.9512771e-31
2.0401807e-32
2.5833528e-34
3.2070148e-13
6.5667908e-15
-1.0428028e-16
-3.8535149e-18
6.8527448e-22
5.4765176e-21
5.6182568e-23
-1.064938e-22
-1.9607741e-23
-1.9649777e-24
-1.1799333e-25
-2.5904452e-27
2.3921696e-28
2.6498294e-29
1.2252631e-30
2.9236154e-32
2.9172737e-34
8.1248251e-12
1.727483e-13
-7.1366138e-15
-2.6145447e-16
-2.2577881e-18
4.3826568e-20
7.5880177e-22
-1.0481113e-21
-2.0677667e-22
-2.1657782e-23
-1.2755828e-24
-5.3829358e-27
7.2545091e-27
7.8903146e-28
4.5373163e-29
1.5471233e-30
2.9090165e-32
2.2327088e-34
1.4777979e-10
3.1735082e-12
-3.2176015e-13
-1.3088736e-14
-1.3629106e-16
7.2130861e-19
3.009607e-20
-8.707535e-21
-1.9184511e-21
-2.0628769e-22
-1.0922769e-23
4.2276491e-25
1.5442808e-25
1.7298122e-26
1.1762864e-27
5.105739e-29
1.340504e-30
1.7691846e-32
5.3314632e-35
1.8298838e-09
3.74477e-11
-9.7938801e-12
-4.797407e-13
-5.4553569e-15
6.5730398e-17
2.3505637e-18
-4.5622794e-20
-1.5990335e-20
-1.7425863e-21
-7.1317922e-23
1.0413178e-23
2.5539114e-24
2.9786498e-25
2.2935227e-26
1.1815674e-27
3.7509903e-29
5.5219974e-31
-3.5086562e-33
-1.8328476e-34
1.5186693e-08
2.7439543e-10
-2.0414663e-10
-1.2715391e-11
-1.4734999e-13
5.2961754e-15
1.8815437e-16
1.6148355e-18
-1.1709659e-19
-1.3492119e-20
-3.0775897e-22
1.5764833e-22
3.4223225e-23
4.1986214e-24
3.53131e-25
2.0386696e-26
6.9742141e-28
5.2017658e-30
-6.6807514e-31
-2.9566447e-32
-4.2644202e-34
8.048066e-08
2.5165893e-10
-2.8038017e-09
-2.3818569e-10
-2.5120076e-12
2.784439e-13
1.1516979e-14
1.5292777e-16
-4.4064526e-19
-1.0143309e-19
-2.0397904e-22
1.8393355e-21
3.8460389e-22
4.944687e-23
4.4441938e-24
2.7051564e-25
8.4918984e-27
-2.0923949e-28
-3.8439049e-29
-2.0084879e-30
-5.3432053e-32
-6.0773574e-34
2.9366804e-07
-9.1762147e-09
-2.6177298e-08
-2.9868518e-09
-2.0895294e-11
9.7905595e-12
5.1003354e-13
8.5172889e-15
6.3508822e-18
-1.1573951e-18
7.7084698e-21
1.7779302e-20
3.7201137e-21
4.963725e-22
4.6484246e-23
2.7897223e-24
4.7659777e-26
-1.04199e-26
-1.304966e-27
-8.1400771e-29
-3.0857303e-30
-6.7943571e-32
-6.6908581e-34
7.5149422e-07
-8.1926635e-08
-1.6136628e-07
-2.5600407e-08
1.5164949e-10
2.2950525e-10
1.6007053e-11
3.3184333e-13
-9.1963734e-16
-5.9742711e-17
-2.4146426e-19
1.4687024e-19
3.1660588e-20
4.3285845e-21
4.0858088e-22
2.1696142e-23
-5.7170117e-25
-2.6283649e-25
-3.10712e-26
-2.2685255e-27
-1.1067264e-28
-3.5516643e-30
-6.7769308e-32
-5.7762281e-34
1.4339122e-06
-3.5947161e-07
-6.7691413e-07
-1.4105346e-07
5.1248308e-09
3.4672924e-09
3.4734574e-10
8.9467613e-12
-1.1293905e-13
-4.4551105e-15
-3.3863627e-17
9.6762042e-19
2.4210429e-19
3.3469823e-20
3.0404815e-21
1.0808161e-22
-2.0130805e-23
-4.7424999e-24
-5.6830962e-25
-4.7050287e-26
-2.7889269e-27
-1.1578421e-28
-3.1852241e-30
-5.0750555e-32
-3.3309541e-34
2.3426392e-06
-9.0963052e-07
-1.9529027e-06
-5.1993938e-07
5.5410714e-08
3.4991607e-08
5.096686e-09
1.6181485e-10
-5.8335619e-12
-2.4180537e-13
-2.3947142e-15
-3.6083717e-18
1.6752415e-18
2.3510121e-19
1.9277403e-20
-3.5047171e-23
-3.3151699e-22
-6.6770118e-23
-8.4014788e-24
-7.6820474e-25
-5.2797071e-26
-2.6473663e-27
-9.1484412e-29
-1.9472612e-30
-1.8361929e-32
3.2781116e-35
3.722612e-06
-1.3135437e-06
-4.0365211e-06
-1.3402604e-06
3.4054859e-07
2.3753058e-07
4.9986193e-08
1.8894733e-09
-1.7528009e-10
-8.9999267e-12
-1.1731502e-13
-6.2216299e-16
9.6315491e-18
1.5409443e-18
1.0502593e-19
-8.0940243e-21
-4.0140325e-21
-7.7178258e-22
-1.0262757e-22
-1.0266165e-23
-7.853149e-25
-4.5005003e-26
-1.7720038e-27
-3.9021402e-29
1.0214591e-32
2.4646032e-32
4.6299493e-34
4.0212074e-06
-1.785833e-06
-6.56995e-06
-2.635878e-06
1.2939862e-06
1.1338835e-06
3.2445691e-07
1.3300921e-08
-3.3009462e-09
-2.2521357e-10
-4.0363851e-12
-2.776505e-14
5.4857602e-17
1.1134337e-17
5.093187e-19
-1.119539e-19
-3.9670692e-20
-7.5560849e-21
-1.0578905e-21
-1.1422042e-22
-9.4854111e-24
-5.8419348e-25
-2.3432734e-26
-2.5642726e-28
3.4049793e-29
2.3743109e-30
7.1140193e-32
8.8510089e-34
3.9816271e-06
-3.1278282e-06
-9.3269324e-06
-4.4786532e-06
3.2459251e-06
3.6429445e-06
1.3840662e-06
4.8497868e-08
-4.002259e-08
-3.7901536e-09
-9.2830883e-11
-7.7992123e-13
6.0342743e-15
2.8747956e-16
4.3037701e-18
-1.0560383e-18
-3.3531586e-19
-6.4103402e-20
-9.3573477e-21
-1.0726429e-21
-9.4138811e-23
-5.8264901e-24
-1.7981667e-25
8.9715982e-27
1.6567483e-27
1.1522035e-28
4.7268211e-30
1.1277344e-31
1.2223909e-33
4.0523438e-06
-3.9108708e-06
-1.1357937e-05
-6.5913224e-06
5.6831819e-06
8.242592e-06
3.9395987e-06
1.3212486e-08
-3.1543733e-07
-4.2916885e-08
-1.4989945e-09
-1.7115224e-11
5.1418132e-13
2.1000151e-14
2.7779427e-16
-7.1030576e-18
-2.4943136e-18
-4.7964867e-19
-7.2059927e-20
-8.586297e-21
-7.6795144e-22
-4.2483386e-23
2.6564787e-25
3.6392229e-25
4.6575739e-26
3.6176215e-27
1.8914414e-28
6.612721e-30
1.41295e-31
1.4057951e-33
3.5160305e-06
-4.3549503e-06
-1.2293375e-05
-7.2994758e-06
7.9082439e-06
1.4159384e-05
7.8106567e-06
-6.3502775e-07
-1.6335186e-06
-3.1584505e-07
-1.6666815e-08
-2.0588905e-10
2.2469985e-11
1.2179091e-12
2.2344255e-14
6.712164e-17
-1.6617481e-17
-3.2191672e-18
-4.8913622e-19
-5.8965275e-20
-5.0657491e-21
-1.7194037e-22
3.3040409e-23
7.7306953e-24
9.4509553e-25
8.20186e-26
5.2276584e-27
2.4023002e-28
7.6165551e-30
1.4995695e-31
1.3862372e-33
2.8637207e-06
-4.6374442e-06
-1.2722858e-05
-7.2300139e-06
1.0278521e-05
1.9467044e-05
1.1753819e-05
-2.7508693e-06
-5.6590209e-06
-1.5672593e-06
-1.2366863e-07
-9.1505279e-10
6.0904358e-10
4.6916739e-11
1.2393889e-12
8.4068139e-15
-1.0897262e-16
-1.9766805e-17
-2.9638128e-18
-3.482279e-19
-2.5484055e-20
7.2915295e-22
6.1507019e-22
1.1824936e-22
1.5071772e-23
1.4416023e-24
1.074929e-25
6.1114969e-27
2.5556502e-28
7.4428613e-30
1.3493793e-31
1.1458899e-33
1.993989e-06
-5.1417175e-06
-1.2241371e-05
-6.9419539e-06
1.1959889e-05
2.3483367e-05
1.480017e-05
-6.0422211e-06
-1.3549838e-05
-5.3249127e-06
-5.9775314e-07
1.0425556e-08
1.0558697e-08
1.1827892e-09
4.5353665e-11
3.956953e-13
-2.6400211e-15
-1.2967017e-16
-1.6279238e-17
-1.760539e-18
-7.6397386e-20
2.2993601e-20
7.7389278e-21
1.4351612e-21
1.9487773e-22
2.0625998e-23
1.7343746e-24
1.1629268e-25
5.9958816e-27
2.2779671e-28
5.9890137e-30
9.6448467e-32
7.0503809e-34
1.0993031e-06
-5.6084534e-06
-1.1707387e-05
-6.0863527e-06
1.2741488e-05
2.5164838e-05
1.6288471e-05
-9.6948127e-06
-2.3841505e-05
-1.2727624e-05
-1.8577048e-06
1.9255007e-07
1.1792958e-07
1.9300726e-08
1.0767092e-09
1.0969239e-11
-2.1275498e-13
-2.7188496e-15
-8.6552904e-17
-7.5324956e-18
1.6779639e-19
2.7802804e-19
7.7032507e-20
1.4466582e-20
2.1002879e-21
2.440668e-22
2.2906209e-23
1.7335578e-24
1.0440818e-25
4.7802251e-27
1.5732164e-28
3.3896265e-30
3.9074753e-32
1.2116605e-34
1.1194086e-07
-6.042629e-06
-1.0950565e-05
-4.8257608e-06
1.3017354e-05
2.5117072e-05
1.5032535e-05
-1.3741375e-05
-3.3688926e-05
-2.2643656e-05
-3.7087536e-06
1.3736484e-06
8.5465756e-07
2.0254505e-07
1.6341318e-08
1.655863e-10
-1.1628992e-11
-1.6001787e-13
-8.8841757e-16
-2.6930029e-17
4.6370858e-18
2.4593808e-18
6.4242429e-19
1.2438477e-19
1.9252919e-20
2.4313334e-21
2.5063845e-22
2.0962355e-23
1.4018876e-24
7.1798843e-26
2.5785336e-27
5.3010214e-29
7.0538513e-33
-2.8900987e-32
-5.2117014e-34
-8.0798214e-07
-6.3380512e-06
-1.0018865e-05
-3.4169537e-06
1.3104081e-05
2.4273554e-05
1.364839e-05
-1.6206005e-05
-4.0215176e-05
-3.1827228e-05
-4.9284839e-06
5.5804041e-06
4.0628349e-06
1.3634142e-06
1.5689711e-07
8.5464337e-10
-3.8382317e-10
-7.495387e-12
-3.5857948e-14
-1.2609393e-16
4.2533855e-17
1.7937973e-17
4.6299382e-18
9.2919568e-19
1.5240752e-19
2.065848e-20
2.3020585e-21
2.0743385e-22
1.4641195e-23
7.6381254e-25
2.28231e-26
-2.879528e-28
-6.9201239e-29
-3.6382861e-30
-9.7174234e-32
-1.1280909e-33
-1.3994776e-06
-6.409625e-06
-8.9647932e-06
-1.9549656e-06
1.302842e-05
2.2964926e-05
1.1768045e-05
-1.6864685e-05
-4.2205762e-05
-3.7184555e-05
-4.3082572e-06
1.4507944e-05
1.2917292e-05
5.9086915e-06
9.4357273e-07
-1.1027526e-08
-7.7735732e-09
-2.3016328e-10
-1.6429081e-12
-5.1710794e-15
2.812019e-16
1.1337449e-16
2.9494898e-17
6.1230956e-18
1.0540962e-18
1.512819e-19
1.7852345e-20
1.6782037e-21
1.166519e-22
4.7235092e-24
-8.6256701e-26
-3.5212054e-26
-3.3549056e-27
-1.8977155e-28
-6.9832486e-30
-1.5574869e-31
-1.6167868e-33
-1.8498877e-06
-6.076287e-06
-7.8636966e-06
-4.7134437e-07
1.2727609e-05
2.1381618e-05
9.9069202e-06
-1.6512866e-05
-4.1617779e-05
-3.8510458e-05
-2.1593546e-06
2.6742897e-05
2.873513e-05
1.6711108e-05
3.5325318e-06
-2.1736495e-07
-9.8311207e-08
-4.3527891e-09
-5.3477194e-11
-2.8878637e-13
1.0209991e-15
6.4030429e-16
1.6938712e-16
3.6090044e-17
6.4403316e-18
9.6114013e-19
1.1703856e-19
1.0897913e-20
6.2856613e-22
-7.8999886e-24
-7.1490737e-24
-1.0041571e-24
-9.245744e-26
-6.1231295e-27
-2.9012746e-28
-9.5507011e-30
-1.9708737e-31
-1.9322352e-33
-2.2072782e-06
-5.1471721e-06
-6.7577234e-06
7.8541974e-07
1.2346801e-05
1.9579928e-05
7.9486736e-06
-1.5928953e-05
-3.8815943e-05
-3.8007587e-05
3.6453485e-07
3.8401482e-05
4.6776476e-05
3.2207053e-05
8.2452422e-06
-1.6193967e-06
-7.8791851e-07
-5.4765067e-08
-1.1627315e-09
-1.0843485e-11
-3.5298435e-14
3.2731496e-15
8.9438496e-16
1.9311982e-16
3.5115351e-17
5.3265665e-18
6.4314238e-19
5.325281e-20
7.7556243e-22
-6.7015824e-22
-1.4426517e-22
-1.8880092e-23
-1.8326848e-24
-1.3952239e-25
-8.1780974e-27
-3.5687116e-28
-1.1049088e-29
-2.1750145e-31
-2.0554523e-33
-1.8902714e-06
-3.6022795e-06
-4.3066706e-06
1.2812158e-06
1.1624776e-05
1.7608359e-05
5.8502033e-06
-1.5057137e-05
-3.5169638e-05
-3.7403288e-05
3.0716423e-06
4.6005997e-05
6.1253692e-05
4.5290323e-05
1.2400381e-05
-6.7005238e-06
-4.0714633e-06
-4.545686e-07
-1.6629142e-08
-2.659131e-10
-1.7997883e-12
1.3248593e-14
4.4907437e-15
9.5603997e-16
1.72652e-16
2.5760577e-17
2.8758587e-18
1.4617693e-19
-2.9938557e-20
-1.0689914e-20
-1.9794933e-21
-2.6782955e-22
-2.8456016e-23
-2.4403888e-24
-1.6973616e-25
-9.2804591e-27
-3.8430727e-28
-1.1414311e-29
-2.1738885e-31
-2.0016175e-33
-1.1369175e-06
8.2686744e-07
-1.7022645e-06
1.0762012e-06
1.0383965e-05
1.5344716e-05
3.4113375e-06
-1.4142071e-05
-3.0590658e-05
-3.5307528e-05
2.2190904e-06
5.019917e-05
6.7370331e-05
5.0572745e-05
1.2040727e-05
-1.7364401e-05
-1.3919515e-05
-2.5055838e-06
-1.5590232e-07
-4.2156459e-09
-4.7587983e-11
6.1693734e-14
2.9527048e-14
4.5931722e-15
7.7723273e-16
1.0781618e-16
9.485179e-18
-4.8114137e-19
-4.4532954e-19
-1.1682358e-19
-2.1340987e-20
-3.0622176e-21
-3.5780714e-22
-3.4453847e-23
-2.7519525e-24
-1.8046252e-25
-9.39941e-27
-3.7458382e-28
-1.0785426e-29
-2.0039201e-31
-1.810156e-33
3.1392996e-07
2.5780007e-06
1.906527e-06
2.6765377e-08
8.7678174e-06
1.2898876e-05
9.1568263e-07
-1.325215e-05
-2.5387181e-05
-3.2585833e-05
9.56789e-07
5.0973462e-05
6.7697825e-05
5.0250223e-05
7.7803178e-06
-3.1307757e-05
-3.2808489e-05
-9.3423709e-06
-9.6339064e-07
-4.2882335e-08
-7.3263428e-10
8.2101273e-12
9.2345431e-13
3.8446501e-14
3.396344e-15
3.8301014e-16
1.1750571e-17
-1.044683e-17
-4.1617402e-18
-1.0162305e-18
-1.908923e-19
-2.9275196e-20
-3.7451332e-21
-4.0233319e-22
-3.6336639e-23
-2.7594755e-24
-1.7311139e-25
-8.6833863e-27
-3.357041e-28
-9.4316284e-30
-1.7190652e-31
-1.530932e-33
-2.3903641e-06
1.7559706e-06
4.7463476e-06
1.7150827e-06
6.6934335e-06
1.0217581e-05
-1.5217452e-06
-1.2150759e-05
-1.9870623e-05
-2.9355279e-05
-2.581452e-07
4.8413201e-05
6.6065571e-05
4.4317676e-05
-1.3336484e-07
-4.3891512e-05
-5.6537746e-05
-2.4424256e-05
-3.9760907e-06
-2.781176e-07
-5.8343491e-09
4.3290525e-10
4.7782624e-11
1.7856019e-12
3.3997971e-14
1.1331518e-15
-1.2987312e-16
-9.3726459e-17
-3.0671456e-17
-7.4382368e-18
-1.4586263e-18
-2.3938836e-19
-3.3338716e-20
-3.9582244e-21
-4.0036274e-22
-3.4447553e-23
-2.5125322e-24
-1.5198848e-25
-7.3868288e-27
-2.7834961e-28
-7.6610507e-30
-1.3746905e-31
-1.2111195e-33
4.0147745e-06
-4.4469817e-06
3.4849527e-06
5.837014e-06
1.233964e-06
7.4725237e-06
-3.8533503e-06
-1.0593188e-05
-1.4205616e-05
-2.5678881e-05
-1.4141887e-06
4.5164462e-05
6.1913925e-05
3.6676124e-05
-6.9402908e-06
-5.1917966e-05
-7.6086904e-05
-4.6904625e-05
-1.1281675e-05
-1.1330196e-06
-9.0113029e-09
1.0964414e-08
1.5923039e-09
9.2002488e-11
1.9519272e-12
1.2050482e-14
-1.461801e-15
-6.3963136e-16
-1.9112179e-16
-4.7170603e-17
-9.7054635e-18
-1.7013662e-18
-2.5643821e-19
-3.3341794e-20
-3.7371695e-21
-3.5997677e-22
-2.9740969e-23
-2.0931862e-24
-1.2248355e-25
-5.783144e-27
-2.1269774e-28
-5.740512e-30
-1.0151117e-31
-8.860861e-34
4.683304e-06
-5.1926212e-07
-4.793891e-06
5.2677423e-06
6.3388105e-06
5.8045925e-07
-5.7636668e-06
-8.4943282e-06
-8.5007271e-06
-2.1780131e-05
-2.5556313e-06
4.1365342e-05
5.7361108e-05
3.234527e-05
-9.6042588e-06
-5.3295901e-05
-8.6570299e-05
-6.9797641e-05
-2.284418e-05
-2.8180307e-06
2.4290561e-07
1.5634326e-07
3.1842859e-08
2.888965e-09
9.8604499e-11
9.1815372e-13
-9.641423e-15
-3.6697338e-15
-1.0439608e-15
-2.6410868e-16
-5.7036113e-17
-1.0641331e-17
-1.7254476e-18
-2.4362545e-19
-2.9937532e-20
-3.1922071e-21
-2.9417073e-22
-2.3384225e-23
-1.5866888e-24
-8.9574445e-26
-4.0924506e-27
-1.4613417e-28
-3.8457857e-30
-6.6697891e-32
-5.753241e-34
-6.6571587e-06
1.4516331e-06
-3.897544e-06
-4.0662333e-06
6.8085189e-06
6.4971355e-06
-3.4583781e-07
-5.6166502e-06
-2.8005683e-06
-1.799832e-05
-3.6851974e-06
3.7331324e-05
5.2361269e-05
2.7231429e-05
-1.1105962e-05
-4.7202632e-05
-8.841128e-05
-8.6202949e-05
-3.4920455e-05
-3.7883916e-06
2.2996981e-06
1.33742e-06
3.8622512e-07
5.3855893e-08
2.9372557e-09
4.505047e-11
-3.8237112e-14
-1.9778551e-14
-5.1449676e-15
-1.3240014e-15
-2.9936808e-16
-5.9172348e-17
-1.0256938e-17
-1.560213e-18
-2.0803759e-19
-2.4249836e-20
-2.4593517e-21
-2.1599509e-22
-1.6384623e-23
-1.0575605e-24
-5.6545268e-26
-2.440877e-27
-8.2241312e-29
-2.0464834e-30
-3.3836679e-32
-2.829067e-34
-6.4585645e-07
-6.4592082e-06
-1.3994609e-06
-6.4509401e-06
-2.8950995e-06
8.084758e-06
6.3122775e-06
-1.3062955e-06
1.7959868e-06
-1.4365832e-05
-4.8589655e-06
3.3069156e-05
4.7375982e-05
2.1595588e-05
-1.3267586e-05
-4.1940915e-05
-7.7371506e-05
-9.4923006e-05
-4.3500609e-05
-8.297886e-07
1.0253644e-05
7.1277231e-06
2.8861406e-06
6.033401e-07
5.12045e-08
1.2304474e-09
-2.3479892e-12
-1.8944561e-13
-2.3527351e-14
-6.0199645e-15
-1.4169276e-15
-2.9504123e-16
-5.4309305e-17
-8.8272774e-18
-1.263987e-18
-1.5885518e-19
-1.7423402e-20
-1.6538523e-21
-1.3476893e-22
-9.349748e-24
-5.3762111e-25
-2.4575662e-26
-8.5372283e-28
-2.0957162e-29
-3.1875057e-31
-2.2110464e-33
-9.1461771e-37
7.8518831e-06
3.2909224e-06
-6.3872759e-06
-5.0314475e-06
-8.3385591e-06
-1.6524216e-06
9.254231e-06
5.8901123e-06
-2.1813769e-06
-1.0546561e-05
-6.6106071e-06
2.8522024e-05
4.2202018e-05
1.5926093e-05
-1.5724013e-05
-3.6485576e-05
-6.667061e-05
-9.7995114e-05
-4.7035735e-05
7.1218208e-06
2.7987588e-05
2.439454e-05
1.3519494e-05
4.1116757e-06
5.2845333e-07
1.8841562e-08
-1.9157436e-10
-7.8308046e-12
-1.1615281e-13
-2.5218588e-14
-6.1001538e-15
-1.3290261e-15
-2.5784513e-16
-4.4376799e-17
-6.7432907e-18
-8.9865416e-19
-1.0395344e-19
-1.0264647e-20
-8.4054878e-22
-5.4284454e-23
-2.4152652e-24
-2.4954194e-26
7.0217518e-27
7.2535426e-28
4.0479709e-29
1.4251404e-30
2.9867221e-32
2.8576678e-34
-8.2642268e-06
1.2659361e-05
6.9724277e-06
-7.1725954e-06
-8.7716751e-06
-9.8635113e-06
-1.5811493e-07
1.0207248e-05
5.4036e-06
-2.9941108e-06
-9.4018529e-06
2.3829129e-05
3.6966585e-05
1.0111315e-05
-1.8743803e-05
-3.1080633e-05
-5.458359e-05
-9.3933092e-05
-5.7770575e-05
1.8098267e-05
5.2693253e-05
5.5941137e-05
4.0473005e-05
1.7271263e-05
3.2538111e-06
1.5974778e-07
-6.2987932e-09
-3.1752804e-10
-1.9240526e-12
-1.0022173e-13
-2.4116979e-14
-5.4447307e-15
-1.1034249e-15
-1.9887878e-16
-3.1574485e-17
-4.3535262e-18
-5.0840251e-19
-4.7675922e-20
-3.0699525e-21
-2.6209159e-23
2.698309e-23
4.6827638e-24
5.064715e-25
4.0177178e-26
2.4005076e-27
1.0620667e-28
3.3008067e-30
6.4442997e-32
5.9443417e-34
-1.2504075e-05
-4.452783e-06
1.6765516e-05
9.6527628e-06
-8.0681521e-06
-1.2618645e-05
-1.1071098e-05
1.4568719e-06
1.0992375e-05
4.8630574e-06
-3.6047511e-06
1.871887e-05
3.1531701e-05
4.4762586e-06
-2.1534566e-05
-2.5738401e-05
-4.1760357e-05
-8.6233123e-05
-6.4917065e-05
1.9580208e-05
7.712207e-05
9.2039312e-05
8.0281504e-05
4.5382347e-05
1.2016096e-05
7.0322563e-07
-1.0637391e-07
-7.7453671e-09
-7.9729223e-11
-5.3184555e-13
-8.8722589e-14
-2.0415534e-14
-4.2723543e-15
-7.9444275e-16
-1.2868089e-16
-1.7540542e-17
-1.8544876e-18
-1.0905481e-19
9.7583349e-21
4.3501431e-21
8.2925686e-22
1.1421643e-22
1.2443448e-23
1.0950899e-24
7.7249536e-26
4.2848422e-27
1.8034253e-28
5.4161397e-30
1.0333601e-31
9.4000508e-34
1.3228966e-05
-1.514046e-05
-4.8224876e-07
2.0490984e-05
1.1808577e-05
-8.9416243e-06
-1.6405795e-05
-1.1780371e-05
2.9448139e-06
1.160246e-05
4.2966751e-06
-4.0391035e-06
2.587764e-05
-1.2727578e-06
-2.410108e-05
-2.0060541e-05
-2.9021612e-05
-7.5722933e-05
-6.910135e-05
1.7380669e-05
9.4061476e-05
0.00011949858
0.0001137064
7.7532394e-05
2.689036e-05
1.1614607e-06
-1.0137441e-06
-1.1257853e-07
-2.2493451e-09
-1.2134063e-11
-3.2196734e-13
-7.0588183e-14
-1.4996142e-14
-2.8127827e-15
-4.4510508e-16
-5.3537051e-17
-2.8978681e-18
7.4287993e-19
3.1083142e-19
7.1391963e-20
1.2500174e-20
1.7895684e-21
2.1383007e-22
2.14007e-23
1.7764673e-24
1.2018581e-25
6.4627945e-27
2.6570475e-28
7.8397239e-30
1.4764329e-31
1.331217e-33
1.9721849e-05
7.4530764e-06
-1.5378836e-05
3.595828e-06
2.401378e-05
1.3570736e-05
-9.1063472e-06
-1.9445099e-05
-1.2167405e-05
4.4336797e-06
1.1900933e-05
3.9565108e-06
-3.8969449e-06
-6.982265e-06
-2.6160133e-05
-1.2935361e-05
-1.6796285e-05
-6.3309688e-05
-7.121996e-05
1.2871179e-05
9.9651022e-05
0.00013925318
0.00012677395
9.3275799e-05
3.8169313e-05
-2.0072089e-06
-5.748041e-06
-9.9821116e-07
-3.7572429e-08
-3.9214321e-10
-2.2897565e-12
-2.2830345e-13
-4.7713887e-14
-8.6833049e-15
-1.2137386e-15
-7.3694875e-17
2.5857101e-17
1.2738978e-17
3.5745942e-18
7.7967041e-19
1.4170793e-19
2.194806e-20
2.9135127e-21
3.3078896e-22
3.1885662e-23
2.5691127e-24
1.6976064e-25
8.9577458e-27
3.627475e-28
1.0575788e-29
1.973565e-31
9.9707719e-36
-1.2737476e-05
1.276168e-05
9.6061849e-07
-1.487373e-05
7.7887213e-06
2.7242911e-05
1.5052385e-05
-9.7536967e-06
-2.1316104e-05
-1.2367794e-05
5.8279555e-06
1.2207744e-05
3.4667764e-06
-3.8470895e-06
-2.7060315e-05
-5.3171509e-06
-4.8661946e-06
-5.0319459e-05
-7.1435461e-05
6.8619869e-06
0.00010025509
0.00014287351
0.00012634286
8.6138108e-05
3.5810422e-05
-1.2270284e-05
-2.0178837e-05
-5.5426518e-06
-3.8186711e-07
-7.9465885e-09
-6.0026389e-11
-8.1568598e-13
-1.3735687e-13
-2.2391316e-14
-1.8796707e-15
4.9639072e-16
3.2738573e-16
1.1333504e-16
3.0374788e-17
6.8351439e-18
1.3272638e-18
2.2437178e-19
3.3049273e-20
4.2262683e-21
4.6606633e-22
4.3860008e-23
3.4627311e-24
2.2498667e-25
1.1708414e-26
4.6883974e-28
1.3548188e-29
1.7038262e-33
3.099245e-38
-2.6697142e-05
-1.822897e-05
4.6029147e-06
-5.5720752e-06
-1.3700349e-05
1.1817046e-05
3.0314631e-05
1.6346491e-05
-1.0732693e-05
-2.2896566e-05
-1.2316448e-05
6.9667234e-06
1.1676906e-05
2.7049821e-06
-3.8351463e-06
2.8152619e-06
7.1577382e-06
-3.7832656e-05
-6.9433456e-05
1.0530619e-08
9.7567526e-05
0.0001430525
0.00012213271
6.9488542e-05
2.2184968e-05
-2.5820772e-05
-4.5984951e-05
-1.9929484e-05
-2.4436976e-06
-9.7414594e-08
-1.4180657e-09
-9.0258538e-12
-3.6569298e-13
-4.2017775e-14
4.733298e-15
5.4983612e-15
2.3896851e-15
7.818625e-16
2.1444058e-16
5.1013466e-17
1.0665239e-17
1.9676148e-18
3.199809e-19
4.5694171e-20
5.6953993e-21
6.1494173e-22
5.6775306e-23
4.410935e-24
2.8279885e-25
1.4558482e-26
5.7802028e-28
1.3313613e-31
6.5016732e-36
2.8847111e-41
1.1144033e-05
-2.5374136e-05
-2.2905948e-05
-4.0600311e-06
-1.1621412e-05
-1.2030138e-05
1.5826423e-05
3.3198844e-05
1.7520054e-05
-1.2086911e-05
-2.4333691e-05
-1.2185694e-05
7.4392307e-06
1.067059e-05
1.4978753e-06
-2.5471189e-06
1.9664927e-05
-2.6483171e-05
-6.5666025e-05
-7.2362242e-06
9.2913472e-05
0.00014035862
0.00011992887
5.9720129e-05
5.2892843e-06
-3.5087526e-05
-7.1967847e-05
-4.8563045e-05
-1.0207567e-05
-7.4766602e-07
-2.0623536e-08
-2.1569556e-10
-1.5473725e-12
-1.6495357e-14
5.9920907e-14
3.4647362e-14
1.3849069e-14
4.576604e-15
1.3128659e-15
3.3272653e-16
7.4964524e-17
1.5040302e-17
2.6835334e-18
4.242494e-19
5.9127584e-20
7.2164519e-21
7.653077e-22
6.9532293e-23
5.3306156e-24
3.3812551e-25
1.7263814e-26
6.4468242e-30
5.9825825e-34
9.0956273e-39
-3.8209399e-45
3.1885722e-05
1.9474288e-05
-2.3335629e-05
-2.6978251e-05
-1.1213989e-05
-1.6358118e-05
-1.0298742e-05
1.9621747e-05
3.6033313e-05
1.8381873e-05
-1.3386955e-05
-2.5480277e-05
-1.1495927e-05
7.8226593e-06
8.345007e-06
1.2058233e-06
-1.5910477e-06
-1.4991674e-05
-6.1039858e-05
-1.412688e-05
8.6745082e-05
0.00013672954
0.00011331524
4.8829585e-05
-6.4786466e-06
-3.907297e-05
-8.2305401e-05
-8.5323212e-05
-2.9198894e-05
-3.7262279e-06
-1.8633497e-07
-3.6440028e-09
-2.7912818e-11
2.7277753e-13
3.4684589e-13
1.7403881e-13
6.9012817e-14
2.3564248e-14
7.1212604e-15
1.9238703e-15
4.6607172e-16
1.0123321e-16
1.9684906e-17
3.4167541e-18
5.2712147e-19
7.1896064e-20
8.6131111e-21
8.9898449e-22
8.0565302e-23
6.1097959e-24
3.8441982e-25
2.1873988e-28
3.3658082e-32
1.0514406e-36
3.2956157e-42
-1.0384156e-47
-3.7029607e-06
4.2834372e-05
2.8007473e-05
-1.9651923e-05
-3.3484032e-05
-1.9794657e-05
-2.0796434e-05
-8.5577919e-06
2.3277954e-05
3.8687521e-05
1.8917839e-05
-1.4361003e-05
-2.5474859e-05
-1.0009759e-05
7.4380556e-06
5.8715456e-06
7.8431343e-07
-8.247721e-07
-5.781389e-05
-2.1139135e-05
7.9115117e-05
0.00013186937
0.00010680359
3.7405322e-05
-2.0773697e-05
-4.3144414e-05
-6.9476949e-05
-0.00011351813
-6.0859743e-05
-1.2643083e-05
-1.0846174e-06
-3.8240712e-08
-5.3652987e-10
-6.2314878e-13
1.5569407e-12
7.567593e-13
3.0581273e-13
1.0875627e-13
3.4657041e-14
9.9567412e-15
2.582159e-15
6.0397457e-16
1.2716716e-16
2.4041572e-17
4.0676546e-18
6.1332105e-19
8.1978193e-20
9.6624398e-21
9.9389792e-22
8.806501e-23
6.6240222e-24
5.5494158e-27
1.3220635e-30
7.09155e-35
5.9885793e-40
-3.6078289e-46
-3.8106659e-51
-5.4955418e-05
7.069197e-06
5.2514733e-05
3.6035509e-05
-1.6538839e-05
-3.9042932e-05
-2.852178e-05
-2.5179275e-05
-7.3044851e-06
2.670295e-05
4.0918809e-05
1.8696209e-05
-1.5177044e-05
-2.4136498e-05
-7.35435e-06
5.0000511e-06
3.5310952e-06
3.0826892e-07
-3.269283e-07
-2.807752e-05
7.0079015e-05
0.00012523008
9.9971025e-05
2.43151e-05
-3.7204571e-05
-4.8388273e-05
-5.7719458e-05
-0.00010724615
-9.856855e-05
-3.0956992e-05
-4.2695056e-06
-2.5628487e-07
-6.5010123e-09
-5.65047e-11
5.8279631e-12
2.9488923e-12
1.2274738e-12
4.5535093e-13
1.5265443e-13
4.6442564e-14
1.2824908e-14
3.2101384e-15
7.2686892e-16
1.485397e-16
2.7320313e-17
4.5077686e-18
6.6465017e-19
8.7131082e-20
1.012016e-20
1.0281135e-21
9.0309141e-23
1.094351e-25
3.8843014e-29
3.2907799e-33
5.119806e-38
9.13459e-44
-3.7720977e-49
-7.3160798e-55
-3.4440962e-05
-5.0689854e-05
1.6995773e-05
6.1253169e-05
4.346479e-05
-1.3616328e-05
-4.4513247e-05
-3.7397605e-05
-2.9702448e-05
-6.2619712e-06
2.9712989e-05
4.1891961e-05
1.7098109e-05
-1.5088939e-05
-2.0553786e-05
-5.2251222e-06
3.2320915e-06
1.6570613e-06
6.3787423e-08
-8.950838e-08
5.8428808e-05
0.00011623632
9.2009813e-05
9.3672502e-06
-5.4348921e-05
-5.6246304e-05
-4.7349286e-05
-8.8857224e-05
-0.0001270802
-5.8372194e-05
-1.2011088e-05
-1.153087e-06
-4.9776464e-08
-8.8847789e-10
1.4543376e-11
1.0494985e-11
4.518103e-12
1.745161e-12
6.1283847e-13
1.9635722e-13
5.7382061e-14
1.5266537e-14
3.689756e-15
8.0836528e-16
1.6019239e-16
2.8639592e-17
4.6051901e-18
6.6382421e-19
8.5466742e-20
9.7892081e-21
9.846419e-22
1.7185041e-24
8.8911768e-28
1.1381121e-31
2.8591002e-36
1.2487601e-41
-8.2917477e-48
-8.9500502e-53
-9.3059136e-59
4.4989845e-05
-4.0285105e-05
-4.4248249e-05
2.6264354e-05
6.9294058e-05
5.0341221e-05
-1.0753775e-05
-4.9425796e-05
-4.6119698e-05
-3.4323492e-05
-5.193298e-06
3.3437696e-05
4.1868451e-05
1.427733e-05
-1.3359893e-05
-1.4822462e-05
-3.103353e-06
1.7167409e-06
5.6101703e-07
9.5265911e-10
-1.6932695e-08
0.00010440877
8.1830964e-05
-6.8536949e-06
-7.4058335e-05
-6.5926846e-05
-3.9421465e-05
-6.2627948e-05
-0.00013290244
-9.4692056e-05
-2.5857024e-05
-3.67728e-06
-2.5347889e-07
-7.9229924e-09
-3.9695417e-11
3.4396461e-11
1.5443961e-11
6.1707868e-12
2.2567594e-12
7.5646036e-13
2.3228664e-13
6.5194988e-14
1.6682455e-14
3.8831651e-15
8.2065247e-16
1.5720283e-16
2.7238926e-17
4.2580407e-18
5.9883693e-19
7.5774223e-20
8.5664724e-21
2.1797049e-23
1.6267762e-26
3.0687388e-30
1.1726903e-34
8.6712542e-40
9.6845454e-46
-4.5537428e-51
-1.2470833e-56
-8.7457632e-63
8.96474e-05
3.0877379e-05
-4.3635603e-05
-3.6258329e-05
3.5104682e-05
7.6622381e-05
5.6283371e-05
-7.6388264e-06
-5.3259083e-05
-5.4203414e-05
-3.8756887e-05
-4.1799851e-06
3.6526021e-05
3.8080079e-05
1.0441159e-05
-9.7823938e-06
-8.9733888e-06
-1.2273112e-06
6.5961669e-07
1.2953485e-07
-2.9560614e-09
-2.0419048e-09
6.9038802e-05
-2.3848781e-05
-9.5196631e-05
-7.5835754e-05
-3.1871173e-05
-3.7035194e-05
-0.00010992084
-0.00012577254
-5.254678e-05
-8.8638748e-06
-9.0604314e-07
-4.5560316e-08
-8.5496919e-10
1.0080719e-10
5.0159441e-11
2.0473224e-11
7.6757288e-12
2.6696228e-12
8.5427626e-13
2.5074768e-13
6.7296228e-14
1.6469248e-14
3.6676132e-15
7.4211944e-16
1.363182e-16
2.2709066e-17
3.4263537e-18
4.666528e-19
5.7993032e-20
2.2446479e-22
2.4177035e-25
6.6319258e-29
3.7421258e-33
4.1831897e-38
1.0930087e-43
-7.7743632e-50
-7.6528963e-55
-1.2327102e-60
-7.2652216e-67
5.3022769e-05
7.2059943e-05
1.6834963e-05
-4.454118e-05
-2.7221554e-05
4.337951e-05
8.3188142e-05
6.1565385e-05
-4.0777119e-06
-5.5729321e-05
-6.1341286e-05
-4.3480764e-05
-1.2516563e-06
3.6379173e-05
3.0949985e-05
6.3753092e-06
-5.9635536e-06
-4.1255603e-06
-3.0539825e-07
1.7234208e-07
2.178016e-08
-5.9616353e-10
-1.6558228e-10
-4.0305254e-05
-0.00011411491
-8.3575898e-05
-2.2958465e-05
-1.1144801e-05
-7.76064e-05
-0.00014437187
-8.4816339e-05
-2.2528464e-05
-2.4005652e-06
-1.7805629e-07
-5.6455117e-09
2.8094306e-10
1.6086447e-10
6.6115485e-11
2.4963304e-11
8.703922e-12
2.8665956e-12
8.7078184e-13
2.4229263e-13
6.1509198e-14
1.4201996e-14
2.9756515e-15
5.650006e-16
9.7203834e-17
1.5165456e-17
2.1513415e-18
2.7860156e-19
1.8643771e-21
2.9440231e-24
1.1690751e-27
9.5969272e-32
1.5496854e-36
6.3861967e-42
4.9873305e-48
-2.6375037e-53
-8.201168e-59
-1.0606949e-64
-5.785e-71
-5.566827e-05
3.4462253e-05
5.240396e-05
3.6852002e-06
-4.3551407e-05
-1.7643351e-05
5.1410836e-05
8.891007e-05
6.6003483e-05
-6.8332208e-07
-5.6342523e-05
-6.8028895e-05
-4.4073361e-05
3.3460129e-06
3.2385092e-05
2.0808419e-05
2.7898878e-06
-2.8656921e-06
-1.3403197e-06
-4.4638747e-08
3.007176e-08
2.417115e-09
-6.3307162e-11
-9.1401493e-12
-0.00012722004
-8.7567808e-05
-1.1448099e-05
1.6313404e-05
-4.1511978e-05
-0.0001421553
-0.00011981921
-4.3596211e-05
-7.6118209e-06
-4.6633988e-07
-1.1839942e-08
2.8181161e-09
7.3136961e-10
2.2447238e-10
8.2362243e-11
2.8316526e-11
8.9493391e-12
2.7359971e-12
7.7724951e-13
2.0078706e-13
4.6846939e-14
9.8051888e-15
1.8268804e-15
3.0022166e-16
4.3024783e-17
5.2981689e-18
5.5122901e-19
1.212146e-20
2.9398447e-23
1.6988921e-26
2.0172566e-30
4.6197081e-35
2.6891897e-40
4.899476e-46
-3.7609831e-52
-3.3452097e-57
-7.396735e-63
-8.6918779e-69
-4.4244972e-75
-0.00013214863
-6.9001964e-05
1.4295409e-05
3.2209032e-05
-8.3487122e-06
-4.0855193e-05
-8.0018922e-06
5.8818655e-05
9.4102178e-05