/*--------------------------------*- C++ -*----------------------------------*\
| =========                 |                                                 |
| \\      /  F ield         | OpenFOAM: The Open Source CFD Toolbox           |
|  \\    /   O peration     | Version:  5.0                                   |
|   \\  /    A nd           | Web:      www.OpenFOAM.org                      |
|    \\/     M anipulation  |                                                 |
\*---------------------------------------------------------------------------*/
FoamFile
{
    version     2.0;
    format      ascii;
    class       surfaceScalarField;
    location    "320";
    object      ddtCorrDdt0(phi);
}
// * * * * * * * * * * * * * * * * * * * * * * * * * * * * * * * * * * * * * //

dimensions      [0 3 -2 0 0 0 0];

internalField   nonuniform List<scalar> 
18820
(
1.2698523e-06
0.0003688282
1.7384334e-06
0.00034217638
3.8252912e-06
0.00036500245
1.6060483e-06
0.00031444444
7.0090616e-06
0.00033899022
-2.5836971e-06
0.00036758452
9.7399556e-07
0.0002860235
9.4313734e-06
0.0003120205
-4.2404805e-06
0.00034064418
-1.4517003e-05
0.00038209945
9.0564489e-08
0.00025743847
1.0363737e-05
0.00028509115
-5.4453221e-06
0.00031322456
-2.7001305e-05
0.00035312682
-2.1504148e-05
0.00040360212
-7.681801e-07
0.00022950225
9.5157632e-06
0.00025828822
-7.0710378e-06
0.00028671891
-3.799433e-05
0.00032421887
-4.1572312e-05
0.00037319564
-2.0185593e-05
0.0004237876
-1.7687429e-06
0.00020251674
7.3855967e-06
0.00023163534
-9.8802542e-06
0.00026110191
-4.7750331e-05
0.00029647971
-6.0439887e-05
0.00034309056
-4.0547642e-05
0.00039356112
-1.1944091e-05
0.00043573327
-3.6890513e-06
0.00017650767
4.0344722e-06
0.00020587113
-1.3890766e-05
0.00023565142
-5.6938001e-05
0.00027029666
-7.7533761e-05
0.0003135811
-6.1141502e-05
0.00036369113
-2.5160027e-05
0.00040678259
-3.9357473e-06
0.00043967188
-8.6478667e-06
0.00015155089
-1.3438108e-06
0.00018188936
-1.8987434e-05
0.00021097339
-6.6390938e-05
0.00024511167
-9.2873812e-05
0.00028564541
-8.1044505e-05
0.00033349318
-3.9726877e-05
0.00037826599
-8.8238738e-06
0.00041167694
-2.1591182e-06
0.00044183438
-2.0899296e-05
0.00012771913
-1.144074e-05
0.00016165206
-2.5170517e-05
0.0001880782
-7.6418181e-05
0.00022100688
-0.0001074744
0.00025971938
-9.9811201e-05
0.00030442022
-5.5555405e-05
0.00034932999
-1.4596836e-05
0.00038404595
-4.1369282e-06
0.00041365956
-7.2662598e-06
0.00044910331
-4.8328511e-05
0.00010549347
-3.1990431e-05
0.00014827519
-3.2370589e-05
0.00016885951
-8.6320807e-05
0.0001979864
-0.00012187088
0.00023540743
-0.00011809095
0.00027800286
-7.1984444e-05
0.00032085362
-2.2605168e-05
0.00035734277
-5.9241327e-06
0.00038583666
-1.3164718e-05
0.00041955957
-1.5758988e-05
0.00046486327
-9.7670492e-05
9.1538127e-05
-7.5282771e-05
0.00014879523
-4.0381497e-05
0.0001562969
-9.2827656e-05
0.00017537303
-0.00013568899
0.00021180628
-0.00013657305
0.00025388736
-8.8684888e-05
0.00029470018
-3.2627737e-05
0.0003308734
-8.5550865e-06
0.00035997156
-1.8549712e-05
0.00039121956
-2.940673e-05
0.00043320434
-2.2618319e-05
0.00048748018
-0.00018060968
0.00010609606
-0.0001533084
0.00016957594
-4.5934983e-05
0.00015436363
-8.9811208e-05
0.00015328973
-0.00014718994
0.00018687548
-0.00015611536
0.00023134136
-0.00010595755
0.00027114846
-4.3056074e-05
0.00030511556
-1.2853156e-05
0.00033515956
-2.338996e-05
0.00036480161
-4.2312991e-05
0.00040411746
-4.3395367e-05
0.00045397386
-2.4374464e-05
0.00051185088
-0.00029112526
0.0001174917
-0.00023607522
0.00018887602
-2.9545506e-05
0.00015320422
-6.1950242e-05
0.00012651425
-0.00015029856
0.00015640116
-0.00017794016
0.00020868995
-0.00012528044
0.00025064592
-5.303777e-05
0.00028110725
-1.7531289e-05
0.00030977084
-2.805157e-05
0.00033980033
-5.4613225e-05
0.00037708427
-6.3096356e-05
0.00042380461
-4.8087827e-05
0.00047767605
-2.0432458e-05
0.00053227768
-0.00044163722
0.00014786949
-0.00030657483
0.00018800277
3.829515e-05
0.00012105307
1.1409891e-05
7.9855606e-05
-0.00013571372
0.00011193327
-0.00020450906
0.00018295802
-0.00015095224
0.00023433936
-6.2711136e-05
0.00026028924
-2.0733725e-05
0.00028427823
-3.270293e-05
0.00031439211
-6.6042381e-05
0.00035120282
-8.216485e-05
0.00039613065
-7.0798185e-05
0.00044649804
-4.1585504e-05
0.00049881621
-1.2628728e-05
0.00054489983
-0.00064691425
0.00019358301
-0.00035831878
0.00019962081
0.00013691445
8.9397931e-05
0.0001201407
1.2330477e-05
-0.00010779172
5.1936656e-05
-0.0002481899
0.00015560029
-0.00019326601
0.00022524733
-7.383611e-05
0.00024543058
-2.0236872e-05
0.00025975686
-3.6575079e-05
0.00028811597
-7.7540185e-05
0.00032585868
-0.00010083313
0.00036984383
-9.2604139e-05
0.00041791415
-6.2966891e-05
0.00046786242
-2.678706e-05
0.00051296203
-4.0839157e-06
0.00054897722
-0.00091782937
0.00026275464
-0.00039567924
0.00023094576
0.00028316941
5.3375086e-05
0.00025263574
-4.3094425e-05
-9.7011584e-05
1.5505859e-06
-0.00032933754
0.00013306812
-0.00026638204
0.00022869065
-8.8568663e-05
0.00023994509
-1.2129692e-05
0.00023728805
-3.7534484e-05
0.00026068346
-8.9887697e-05
0.00030043483
-0.00012000259
0.00034500317
-0.00011448121
0.00039169917
-8.3670798e-05
0.00043859983
-4.3181758e-05
0.00048424311
-9.7370628e-06
0.00051860517
2.099563e-06
0.00054687225
-0.0011979584
0.00031912409
-0.00041688688
0.00028396011
0.00048970206
2.4417219e-05
0.00043109107
-0.00012508298
-0.00010870035
-3.1408762e-05
-0.0004524517
0.00012464669
-0.00038760355
0.00025426352
-0.0001085085
0.00024859657
1.0747379e-05
0.00021703558
-3.1096925e-05
0.00023082365
-0.00010296218
0.00027373814
-0.00014092464
0.00032134245
-0.00013710584
0.00036761599
-0.00010446978
0.00041248712
-6.0514614e-05
0.00045592212
-1.8489373e-05
0.00049298656
2.9710389e-06
0.0005177276
4.1456934e-06
0.00054272297
-0.001609524
0.00045706719
-0.00043317559
0.00033540818
0.00078763719
-1.3974121e-05
0.00068786298
-0.00023236056
-0.00014870698
-8.5081521e-05
-0.00060900798
0.00012512976
-0.00056559138
0.00030260959
-0.00013240939
0.00027813344
5.7974872e-05
0.00020134107
-1.1010847e-05
0.00019693053
-0.00011611965
0.00024397291
-0.00016501164
0.00029782611
-0.0001617576
0.00034599973
-0.00012638108
0.00038953282
-7.8179922e-05
0.00043015471
-3.0880403e-05
0.00046831179
2.401921e-06
0.00049355301
7.3605858e-06
0.00051451142
2.3300934e-06
0.00054039169
-0.0020763664
0.00052803666
-0.00042395577
0.00044784268
0.0011549362
-3.1890444e-05
0.0010556837
-0.00038180075
-0.0001886463
-0.00019242644
-0.00084407529
0.00014997125
-0.0008149116
0.00037442856
-0.00015941322
0.00032958812
0.00014546967
0.00019061649
3.3820375e-05
0.00015649911
-0.00012828236
0.00020909579
-0.00019424602
0.00027322306
-0.00019045124
0.00032654391
-0.00015015016
0.0003697956
-9.6796543e-05
0.00040817231
-4.4588192e-05
0.00044387743
-2.3094064e-06
0.00047303022
1.0650019e-05
0.00049026671
4.1503617e-06
0.00051269471
-1.5617593e-06
0.00054195481
-0.0027093472
0.00070386367
-0.00043950053
0.00054357868
0.0016926071
-8.9826055e-05
0.0015956092
-0.00057181962
-0.00023891691
-0.00033153429
-0.0012239908
0.00018747958
-0.0011372172
0.00047226041
-0.00018222697
0.00039722492
0.00028575892
0.00018928411
0.00011891435
0.00010552007
-0.00013601807
0.00016424574
-0.00023031542
0.00024519107
-0.00022651836
0.00030932734
-0.00017728192
0.00035371972
-0.00011611609
0.00038915883
-5.840451e-05
0.00042202461
-1.0739374e-05
0.00045233139
1.2811231e-05
0.00047088217
5.9607605e-06
0.0004884641
-2.8831987e-06
0.00051402412
-5.4467788e-06
0.00054740547
-0.0033301534
0.00070567943
-0.00044404995
0.00070841331
0.0023434232
-0.00010723241
0.0023393096
-0.00083352726
-0.00029688033
-0.00051386014
-0.0018038424
0.00024831223
-0.0015917687
0.00064201879
-0.00020058207
0.00049060614
0.00051886141
0.00016411573
0.0002699258
3.8278369e-05
-0.00013352179
0.00010304115
-0.00027434234
0.0002083032
-0.00027519284
0.00029390676
-0.00021088066
0.00034297648
-0.00013612865
0.00037378723
-7.1313377e-05
0.00040212
-1.9426001e-05
0.00043075305
1.2266743e-05
0.00045290345
7.6431916e-06
0.00046921559
-5.3631445e-06
0.00049095466
-9.8366579e-06
0.00051842544
-7.8872105e-06
0.00055529871
-0.0042407745
0.0010209505
-0.00053576507
0.00079739784
0.0032379465
-0.00018610247
0.0033505433
-0.0011184649
-0.0003931197
-0.00073729392
-0.0026268164
0.00030911043
-0.0022292969
0.00088582972
-0.00019532517
0.00063675799
0.00087112585
0.00013834213
0.00050898805
-7.493383e-05
-9.6202297e-05
9.8168645e-07
-0.0003249853
0.00015371554
-0.00034588261
0.00027903073
-0.00025702669
0.00034009707
-0.00015748505
0.00036438381
-8.1598467e-05
0.00038412661
-2.5930406e-05
0.00040867508
1.0226986e-05
0.00043283238
7.6438255e-06
0.00045292852
-8.1683786e-06
0.00047203608
-1.6248726e-05
0.00049737841
-1.4514454e-05
0.00052506651
-8.356852e-06
0.00056366329
-0.005133468
0.0012088999
-0.00053074713
0.0010159383
0.004217431
-0.00018207772
0.0047242558
-0.0015598133
-0.00050657231
-0.0010050229
-0.0037735449
0.0004094298
-0.0031400193
0.0012198207
-0.00015335983
0.00084386192
0.0014056994
0.00010219011
0.00089165695
-0.0002443099
-3.2599922e-05
-0.00013850875
-0.00039261545
6.8642239e-05
-0.0004554794
0.00026334329
-0.00032765752
0.00034969181
-0.00018228829
0.00036493399
-8.668178e-05
0.0003695063
-2.7921367e-05
0.00038616045
8.7078533e-06
0.0004102343
6.1339009e-06
0.00043437308
-1.1944231e-05
0.00045672383
-2.3982594e-05
0.00047978201
-2.2770866e-05
0.00050564593
-1.6380968e-05
0.00053310559
-6.9403848e-06
0.00057061243
-0.0064079475
0.0014266244
-0.00037175699
0.0010499172
0.0056732167
-0.00043983825
0.0064145333
-0.0018723541
-0.00077211935
-0.0012942827
-0.005254397
0.00047582071
-0.0043836676
0.001653064
-6.3313508e-05
0.0011297701
0.002187194
6.2377117e-05
0.0014669277
-0.00047306287
5.1937122e-05
-0.00032881593
-0.00052186668
-9.2293452e-06
-0.00063871153
0.00025189854
-0.00044296072
0.00037866099
-0.00021512465
0.00038253917
-8.270167e-05
0.00036096673
-2.0887268e-05
0.00036249166
1.0744776e-05
0.00038414799
3.6493149e-06
0.00041274324
-1.8305205e-05
0.00044075245
-3.2196556e-05
0.00046494878
-3.3674253e-05
0.00049069284
-2.478025e-05
0.00051405463
-1.5199121e-05
0.00054137932
-3.8717652e-06
0.00057449332
-0.0075190915
0.0013784729
-0.00034249559
0.0013973712
0.0073457317
-0.00062258994
0.0083868223
-0.0024121276
-0.0011248886
-0.0015196063
-0.0072260832
0.00067739065
-0.0061249929
0.0022171318
0.00011228882
0.0014774544
0.0033016518
1.532728e-05
0.0022965652
-0.00076724374
0.00018299724
-0.00060408956
-0.00077869634
-7.1961454e-05
-0.00090868397
0.00026076125
-0.00063450084
0.00044343998
-0.00026348459
0.0004270116
-6.3316126e-05
0.00036313949
3.0261741e-06
0.00033704315
2.0639351e-05
0.00035259492
1.1971277e-06
0.00038660572
-2.7426601e-05
0.00042187293
-4.3224383e-05
0.00045178616
-4.577138e-05
0.00047704822
-3.6083502e-05
0.00050199853
-2.3362445e-05
0.00052222492
-1.021183e-05
0.00054773341
6.3850075e-07
0.00057386364
-0.0089475674
0.0022701874
-0.0005565505
0.0015925363
0.0095033049
-0.00076019597
0.010681129
-0.0029168988
-0.0018044609
-0.0017325797
-0.0095250237
0.00077931739
-0.0083422411
0.0028946282
0.0004031198
0.0019262914
0.0048197137
-4.0585652e-05
0.0034634762
-0.0011515678
0.00039108061
-0.00097529265
-0.0011908987
-0.00019186606
-0.0012914981
0.00031086425
-0.00092114389
0.00054739581
-0.0003354758
0.00051540717
-1.8520928e-05
0.00038218282
5.675898e-05
0.00030937228
4.4547594e-05
0.00031310647
6.1710233e-07
0.00035315689
-3.9503968e-05
0.00039867439
-5.8156395e-05
0.00043680094
-6.0099448e-05
0.00046611029
-5.0166257e-05
0.00049112625
-3.2744749e-05
0.00051137887
-1.739818e-05
0.00052941559
-1.0376267e-06
0.00054942193
6.1029619e-06
0.00056776868
-0.010149617
0.0026255359
6.9231643e-05
0.0016444138
0.011768076
-0.00067223088
0.01342889
-0.0035079592
-0.002663118
-0.0020582662
-0.012506107
0.0012484832
-0.011133967
0.0035710389
0.00087445677
0.002423281
0.0068454439
-9.9410251e-05
0.0050551098
-0.0016322019
0.00070565124
-0.0014661056
-0.0017818632
-0.00038430913
-0.0018822903
0.00039892922
-0.0013124124
0.00070211752
-0.00043655077
0.00064843667
7.0135309e-05
0.00042670762
0.00015790552
0.00028098922
9.2405104e-05
0.00026147113
5.5848e-06
0.00030810391
-5.4758011e-05
0.00036838713
-7.8214298e-05
0.0004187177
-7.8436259e-05
0.00045512773
-6.602885e-05
0.00048196338
-4.533378e-05
0.00050370606
-2.400454e-05
0.00051798007
-4.8618743e-06
0.00053324165
1.0576402e-05
0.00054495879
1.1471675e-05
0.00055630376
-0.011092722
0.0025607846
0.00160167
0.0010931061
0.015172063
-0.0017595714
0.016918352
-0.0041616972
-0.0034439898
-0.0027271096
-0.016270702
0.0017063062
-0.014232361
0.0043468794
0.0013797784
0.0030657077
0.0094652434
-0.00019648699
0.0072019234
-0.0022462024
0.0011578963
-0.0020844205
-0.002598716
-0.00064923326
-0.0027878323
0.00052122531
-0.0018677499
0.00095424801
-0.00056680287
0.0008323285
0.00021572664
0.00050280042
0.00033506484
0.00024949998
0.00018135787
0.00019199199
2.1823335e-05
0.00024519487
-7.3620754e-05
0.00032693854
-0.00010538233
0.00039553648
-0.00010263191
0.00044290154
-8.5528783e-05
0.00047461795
-6.0365363e-05
0.00049698452
-3.2863117e-05
0.0005125539
-9.2563002e-06
0.00052236772
1.1503899e-05
0.00053231396
2.144776e-05
0.00053499085
1.565074e-05
0.00054065831
-0.011737196
0.0024588201
0.0033627324
0.00079973101
0.019209116
-0.0029439469
0.020024393
-0.0048656172
-0.0049654788
-0.0026402261
-0.020900893
0.0019030559
-0.017837972
0.0053119237
0.002077503
0.0036491475
0.012836077
-0.00030509827
0.010006659
-0.0030011949
0.0017719547
-0.0028602459
-0.0036923749
-0.00099073977
-0.0041140513
0.0006769674
-0.0026712749
0.0013247311
-0.00073583385
0.0011232352
0.00044211011
0.00060590446
0.00062255329
0.00021527126
0.000335393
9.5431e-05
5.8375769e-05
0.00015541275
-9.6432906e-05
0.00026798807
-0.00014320995
0.00036475462
-0.00013572037
0.0004286195
-0.00011061333
0.00046798316
-7.9067081e-05
0.00049331532
-4.5972724e-05
0.00051008651
-1.5664503e-05
0.0005189525
9.4218774e-06
0.00052444301
2.7855688e-05
0.0005259045
2.9330151e-05
0.00052131758
1.8308002e-05
0.00052235406
-0.01236865
0.0028195185
0.0052886446
0.00053291684
0.023403464
-0.0033946169
0.022268721
-0.0051882806
-0.007132582
-0.0026985268
-0.025214651
0.0016735055
-0.022363924
0.0064290143
0.003151009
0.0042384152
0.017045517
-0.00056027279
0.013631226
-0.0039296298
0.0025603732
-0.0037896116
-0.0051260327
-0.0014265644
-0.0059769642
0.00087214818
-0.0038332736
0.0018389475
-0.00095828491
0.0015471438
0.0008054786
0.00075983517
0.0010546868
0.00017374639
0.00059198949
-4.1341154e-05
0.00012744955
2.6350596e-05
-0.00012390236
0.00018288192
-0.00019751428
0.00032229707
-0.00018256976
0.00041161265
-0.00014440555
0.00046242157
-0.00010298834
0.00049191276
-6.3223119e-05
0.00051056905
-2.5611889e-05
0.00052003153
6.1529433e-06
0.00052221518
3.0171334e-05
0.00052212214
4.075754e-05
0.000514475
3.4525539e-05
0.00050510464
1.9597965e-05
0.00050275843
-0.012907995
0.0029123792
0.0072562887
0.00085188407
0.027692511
-0.0037561309
0.023976881
-0.0051027822
-0.0097195672
-0.0026013032
-0.030197886
0.0022846819
-0.027738163
0.0070477488
0.0045002016
0.005079827
0.022152947
-0.0008690068
0.018123787
-0.0050527898
0.0035324376
-0.0049017
-0.0069779614
-0.0019376609
-0.0085080077
0.0011044568
-0.0054777432
0.0025165968
-0.0012563617
0.0021370012
0.0013653587
0.00098724325
0.0017047955
0.00010972666
0.00099266923
-0.00022692676
0.00023968201
-0.00015355423
-0.00015662135
5.9091814e-05
-0.00027850073
0.00026389264
-0.00025276979
0.0003925218
-0.0001933718
0.00046060305
-0.0001351942
0.00049464954
-8.4672823e-05
0.00051338035
-3.8609687e-05
0.00052357761
9.7767658e-07
0.00052521061
3.0536784e-05
0.000521848
4.8277335e-05
0.00051459973
4.8836393e-05
0.00050016231
3.7295799e-05
0.00048741048
1.9705226e-05
0.00048305435
-0.013330904
0.0028686147
0.0092714548
0.00089722441
0.032630388
-0.0040859931
0.024931387
-0.0047106444
-0.013125352
-0.0016970009
-0.037342132
0.0045429179
-0.033999331
0.0085458504
0.0046402853
0.0069076803
0.028168109
-0.00093533232
0.023592516
-0.0063376856
0.0046108992
-0.0061312539
-0.0093236268
-0.0025560199
-0.011829985
0.0013843072
-0.0077726552
0.0033993398
-0.0016529517
0.0029131853
0.0021949701
0.0013073787
0.0026716913
2.0375817e-05
0.0015861989
-0.00048377233
0.00042763494
-0.00041483226
-0.00021773624
-9.239371e-05
-0.00041030225
0.00019093601
-0.000364242
0.00037540244
-0.00026851475
0.00046769765
-0.00018020198
0.00050564093
-0.00011123874
0.00052124251
-5.4064972e-05
0.00052885814
-6.6908046e-06
0.00053126202
2.8968861e-05
0.00052678797
5.2099131e-05
0.00051802926
6.0455581e-05
0.00050298126
5.3539884e-05
0.00048391744
3.769386e-05
0.00046942534
1.8915746e-05
0.00046413888
-0.013628427
0.0027164777
0.011242943
0.00089713906
0.038021156
-0.0044935433
0.025860104
-0.0050147168
-0.016754321
-0.0010816769
-0.044732274
0.0056931194
-0.039727934
0.010271515
0.0053116928
0.007874468
0.035553065
-0.00047727304
0.030343706
-0.0076864697
0.0057357524
-0.0074625282
-0.012292417
-0.0031624621
-0.016085098
0.0016991021
-0.010898625
0.0045102365
-0.0021762125
0.0039226154
0.0033754339
0.0017327164
0.004077303
-9.8186297e-05
0.002445334
-0.00083870801
0.00071601437
-0.00077208322
-0.00029766349
-0.00033483826
-0.00060222044
9.958147e-05
-0.00053777499
0.00036451501
-0.00038199954
0.00048892133
-0.00024282582
0.0005303492
-0.00014433975
0.00053876688
-7.1390577e-05
0.00053859121
-1.5632014e-05
0.00053782073
2.5341262e-05
0.00053490728
5.350581e-05
0.00052539445
6.8045826e-05
0.00051044626
6.7146203e-05
0.00048937935
5.4826544e-05
0.00046678567
3.6511348e-05
0.00045183376
1.7671153e-05
0.00044646751
-0.013713463
0.0024201249
0.013061982
0.00089745358
0.043612171
-0.0046938755
0.026330113
-0.0049635626
-0.019643854
-0.0021251833
-0.051945385
0.0061314162
-0.043763851
0.0097290256
0.0092660656
0.0063171735
0.044160989
-0.00073345051
0.03909864
-0.0092321604
0.0068814583
-0.0088321496
-0.016085151
-0.0036698091
-0.021351067
0.0021035247
-0.01510861
0.0059090368
-0.0028308731
0.0051649105
0.0050184354
0.0022796149
0.0060579222
-0.00024786098
0.0036607645
-0.0013135534
0.0011340163
-0.001256641
-0.00039635054
-0.0006733179
-0.00089840477
-3.8592778e-05
-0.0007670406
0.00032889701
-0.00054349749
0.00052604272
-0.00033041502
0.00057652872
-0.00018473551
0.00057075661
-8.947302e-05
0.00055685974
-2.5251641e-05
0.00054822302
2.1227879e-05
0.00054194895
5.3846423e-05
0.00053458196
7.0766643e-05
0.00052268791
7.7090353e-05
0.00050051248
6.9545846e-05
0.00047466808
5.3425273e-05
0.00044987473
3.513766e-05
0.00043437246
1.620118e-05
0.00043026605
-0.013690633
0.0020340475
0.014691006
0.0007911162
0.049140202
-0.0046305748
0.026380842
-0.0047446148
-0.022399946
-0.0022074691
-0.059050051
0.0049794692
-0.046824537
0.0091920888
0.014267824
0.0047273003
0.052789605
-0.0023114312
0.04942851
-0.011063288
0.0080823324
-0.010433001
-0.01995757
-0.004959766
-0.027785721
0.0027648554
-0.020651858
0.007646722
-0.003615064
0.0066932181
0.0072394705
0.002943888
0.0087870009
-0.00044945024
0.005342902
-0.0019299325
0.0017181928
-0.0018976865
-0.00052429331
-0.0011286273
-0.0013216608
-0.00025001555
-0.0011352138
0.00032962408
-0.00078848226
0.00057390268
-0.00045706352
0.00065269864
-0.00023529667
0.00062708594
-0.00010659079
0.00058786539
-3.0161516e-05
0.00056176217
1.9228492e-05
0.00055022
5.2876429e-05
0.00054292331
7.4955909e-05
0.00053040193
8.5022723e-05
0.00051476829
8.0830522e-05
0.00048923992
6.8466517e-05
0.00045963796
5.087877e-05
0.00043413875
3.2230223e-05
0.00041835037
1.4648027e-05
0.0004156181
-0.013583343
0.0015847787
0.016049687
0.0006753823
0.054275707
-0.0043443842
0.026237388
-0.0044871326
-0.024984111
-0.0021604477
-0.066446141
0.0051886104
-0.05098692
0.0091418352
0.019113313
0.0043466307
0.061001542
-0.0034846187
0.059913282
-0.012796191
0.0094550374
-0.012435963
-0.024207128
-0.0061834929
-0.036787641
0.004042139
-0.027456156
0.0095691105
-0.004417946
0.0084495615
0.010185029
0.0037476895
0.012445717
-0.0007148456
0.0076072044
-0.0027136911
0.0025103131
-0.0027220439
-0.00069410843
-0.0017278296
-0.0019215214
-0.00052875317
-0.0017189696
0.00033375771
-0.0011353244
0.00067646959
-0.00065517224
0.00077200673
-0.00030155754
0.00071894562
-0.0001185282
0.00063900077
-2.5818703e-05
0.0005834975
2.3666971e-05
0.00055730063
5.4850277e-05
0.00054822934
7.6927697e-05
0.0005409436
8.873095e-05
0.00052669427
8.9801095e-05
0.00050580688
8.0492682e-05
0.00047722601
6.5059025e-05
0.00044547091
4.6920032e-05
0.000419456
2.9153977e-05
0.00040385354
1.3234472e-05
0.00040238445
-0.01343187
0.0011511902
0.017158271
0.00047621015
0.058769056
-0.0038179593
0.025965233
-0.0040722402
-0.027290573
-0.0021806695
-0.073874417
0.0052678203
-0.055056367
0.009258039
0.021150227
0.0071049513
0.069860379
-0.0045121835
0.069676195
-0.013247531
0.010166293
-0.013507427
-0.028511996
-0.0081311505
-0.046922627
0.0039514491
-0.035203233
0.011789191
-0.0052445678
0.010395671
0.014028447
0.0046061896
0.017260123
-0.0010667364
0.010575727
-0.003683317
0.0035452071
-0.0037485862
-0.00091524685
-0.0025009044
-0.0027477418
-0.00090162618
-0.002567539
0.00031978762
-0.001661853
0.00086026165
-0.00092876258
0.00095003405
-0.00039769721
0.00086812625
-0.00011944753
0.00071983974
-3.2664586e-06
0.00061642077
4.2671133e-05
0.00056446188
6.4022778e-05
0.00054809654
8.0475911e-05
0.00054465346
9.1725277e-05
0.00053792947
9.5096432e-05
0.00052139017
9.0281528e-05
0.00049602214
7.7561713e-05
0.00046473395
6.0742808e-05
0.00043166213
4.2926486e-05
0.00040569209
2.6362727e-05
0.00039073686
1.2102936e-05
0.00039028342
-0.013325014
0.0006697991
0.018056739
0.00025273754
0.062397401
-0.0031521254
0.025648305
-0.0035010426
-0.029305642
-0.0020571721
-0.081246027
0.0051909367
-0.058788193
0.008999626
0.022972226
0.0074360668
0.077229014
-0.00026365725
0.079010974
-0.013846972
0.010343443
-0.013424672
-0.034939555
-0.0070799123
-0.058399903
0.003346068
-0.044743372
0.013491583
-0.0057146475
0.012259221
0.01894545
0.0054787186
0.023426446
-0.0015601172
0.01437703
-0.0048680044
0.0048620271
-0.0050001064
-0.001195818
-0.0034680465
-0.0038654227
-0.0013832414
-0.0037622177
0.00029297997
-0.0024589777
0.0011168613
-0.0013074778
0.0012389196
-0.00052716844
0.0010794744
-0.00010352751
0.00085218125
4.9179799e-05
0.0006673768
8.7922255e-05
0.00057114992
8.8728678e-05
0.00053973057
8.9645664e-05
0.0005388962
9.4489975e-05
0.00054185556
9.799355e-05
0.00053500365
9.6153463e-05
0.00051550108
8.7769121e-05
0.0004858129
7.3556807e-05
0.00045192715
5.6099731e-05
0.0004185023
3.9175494e-05
0.00039288896
2.4163443e-05
0.00037869051
1.1408329e-05
0.00037887828
0.00021007596
-0.013377283
0.018562351
0.00016420198
0.065093194
-0.0024430441
0.025241335
-0.0027451643
-0.030924069
-0.0018826203
-0.088309958
0.0050067591
-0.062230103
0.0086328289
0.024500289
0.0074715812
0.084801386
-0.00013627312
0.090818797
-0.012071494
0.0090202473
-0.012523778
-0.042105124
-0.0062591286
-0.069515344
0.0040354772
-0.057139397
0.015742108
-0.0067763924
0.014553318
0.024825672
0.0063790439
0.03113826
-0.0022330261
0.019098716
-0.0062817879
0.0064740641
-0.0064799628
-0.0015444326
-0.0046515311
-0.0053176905
-0.0020157689
-0.0054016027
0.00025606345
-0.0036276163
0.0014615608
-0.0018609197
0.0016702251
-0.00068125093
0.0013929548
-7.1284002e-05
0.0010471996
0.00015440768
0.00074694587
0.00017499001
0.00058031063
0.00014029012
0.00051958833
0.00011117767
0.0005181905
9.9728705e-05
0.00053363592
9.8337447e-05
0.00054147948
9.8142632e-05
0.00053298173
9.367038e-05
0.00050957644
8.3488275e-05
0.00047587311
6.8519482e-05
0.00043950967
5.183198e-05
0.00040585743
3.6175532e-05
0.00038088705
2.2853333e-05
0.00036726221
1.1149159e-05
0.00036773372
8.4219296e-05
0.01868822
-0.00021813213
-0.013475013
0.066708521
-0.0014511127
0.024804179
-0.0020058951
-0.032151705
-0.0015175376
-0.094955014
0.0047624381
-0.065033252
0.0078098956
0.025769333
0.0073637959
0.092284952
-1.1950618e-05
0.10337746
-0.012694954
0.011775117
-0.014826376
-0.049410106
-0.0052188067
-0.08202348
0.0062489717
-0.071234481
0.018130585
-0.0087877038
0.01775345
0.031170865
0.008208158
0.040684342
-0.0031669396
0.024809867
-0.0079441762
0.0083634447
-0.0081710799
-0.0019621361
-0.0060622805
-0.0071636166
-0.0028055793
-0.007610235
0.00019282703
-0.0052860727
0.0019144766
-0.002667789
0.0022683734
-0.00088000818
0.0018689267
1.0623297e-05
0.0013110104
0.00032502239
0.00087657245
0.00033033494
0.00059161237
0.00023742232
0.00048320123
0.00015515583
0.00047563567
0.00011198609
0.00050594689
9.7335712e-05
0.00053463097
9.551164e-05
0.0005440861
9.4706731e-05
0.000531914
8.935574e-05
0.00050368168
7.8464362e-05
0.00046591346
6.3710768e-05
0.00042762724
4.8369566e-05
0.00039367225
3.4312704e-05
0.00036943788
2.2177089e-05
0.00035625332
1.1226196e-05
0.00035651349
-0.00043825883
0.067231012
-7.2950277e-05
0.01854305
-0.00067113341
-0.013703065
0.024572503
-0.0012194411
-0.033051963
-0.0011056509
-0.10083348
0.0043609281
-0.06697865
0.0067078323
0.026738922
0.0068403118
0.099463099
0.00018568191
0.11642498
-0.013059474
0.014038012
-0.014957873
-0.052083431
-0.012153059
-0.096373775
0.0091314712
-0.085314566
0.020329063
-0.011724766
0.021067693
0.038145673
0.010778661
0.052689789
-0.0037972132
0.031514387
-0.0098714636
0.010491874
-0.01007257
-0.0024558173
-0.0076773943
-0.0094389753
-0.0037869308
-0.010536711
0.00012092452
-0.0075901567
0.0024968808
-0.003819857
0.0030665535
-0.0011475951
0.0025359191
0.00018039559
0.0016991337
0.00058840751
0.0010476024
0.00058916556
0.0006177451
0.00040087475
0.00042818035
0.00023626393
0.00040213399
0.00013823567
0.00044943213
9.7039711e-05
0.00050627674
8.7806678e-05
0.00054234749
8.94752e-05
0.00054930626
8.982378e-05
0.0005314205
8.4502288e-05
0.00049761485
7.3599531e-05
0.00045600407
5.996404e-05
0.00041602292
4.6058864e-05
0.00038193161
3.3387778e-05
0.00035823698
2.2245791e-05
0.00034525478
1.1672311e-05
0.0003448484
-0.00038176223
0.024516007
0.0006116813
0.066546392
-0.00010180257
0.017973728
-0.0011707668
-0.013901574
-0.033473988
-0.00079743139
-0.10552646
0.0035873339
-0.067977986
0.0053602677
0.027489853
0.0059569039
0.10590211
0.00040132242
0.12961055
-0.012999878
0.01605147
-0.015072954
-0.054843463
-0.012197851
-0.10876822
0.00024137949
-0.096830889
0.02064779
-0.012444749
0.021049076
0.046973155
0.01224022
0.067595152
-0.0041266801
0.039793391
-0.01207622
0.012703562
-0.012083188
-0.0030133829
-0.0095149904
-0.012172147
-0.0049442936
-0.014285845
-3.7743241e-05
-0.010696754
0.0032274857
-0.0054402236
0.0041173148
-0.0015094351
0.0034283868
0.00046584397
0.0022504917
0.0010230413
0.0012644845
0.00097667146
0.00066009003
0.00067237935
0.00034623641
0.00037475017
0.0002897149
0.00018772104
0.00035269265
0.00010033985
0.00044618581
7.439622e-05
0.00051973627
7.5941818e-05
0.00055591009
8.2868486e-05
0.00055626593
8.4982816e-05
0.00053092335
8.0127566e-05
0.00049105835
6.9971986e-05
0.00044597103
5.7626513e-05
0.00040443947
4.5030228e-05
0.00037029107
3.3502958e-05
0.00034698872
2.3058649e-05
0.00033389104
1.2323771e-05
0.00033253293
-0.00032006907
-0.033535696
0.00056688149
0.024560811
0.0016565212
0.064788078
-0.00026519785
0.017068164
-0.0016363362
-0.013987315
-0.10854299
0.002219091
-0.06840503
0.00401439
0.02807312
0.0047770049
0.11142854
0.00043048882
0.1423469
-0.012335024
0.017546219
-0.014494646
-0.05799688
-0.011919544
-0.1204029
-0.00056315084
-0.1124929
0.015903398
-0.01024634
0.018449394
0.05662554
0.011396708
0.08406317
-0.0042278153
0.050019477
-0.014352772
0.01494224
-0.014314956
-0.0036372767
-0.011459292
-0.01533671
-0.006350514
-0.019010964
-0.00021915624
-0.014868875
0.0041343389
-0.0076692079
0.0054565259
-0.0019968557
0.0046047634
0.00090794841
0.0029863337
0.001700683
0.0015728692
0.0015432686
0.00069788876
0.0010971808
0.00023526671
0.0006019855
0.00011898481
0.00027895399
0.00019848461
0.00011263107
0.00034043078
5.4593153e-05
0.00046603776
5.118038e-05
0.0005445538
6.5202832e-05
0.00057361842
7.7411257e-05
0.00056385759
8.1254496e-05
0.00052978941
7.7115336e-05
0.00048388932
6.7865821e-05
0.00043570382
5.685582e-05
0.00039259286
4.5260054e-05
0.00035853229
3.460961e-05
0.00033544539
2.4182989e-05
0.0003220555
1.3115937e-05
0.00031942618
0.00065104813
-0.10951412
0.00017938891
-0.033148216
0.0011167869
0.025100553
0.0025804142
0.061942472
-0.00050390634
0.015935738
-0.0021122325
-0.013965092
-0.068772601
0.002586678
0.028673289
0.00341423
0.11574431
0.00046122979
0.15401172
-0.011234331
0.018690443
-0.013479255
-0.060353663
-0.01213788
-0.1323525
3.0072257e-05
-0.1300076
0.016951576
-0.016086137
0.021743191
0.06463406
0.010440892
0.099607114
-0.0041472385
0.062175112
-0.016383458
0.017165545
-0.016576087
-0.0043582945
-0.013593944
-0.018903245
-0.0078927859
-0.024824826
-0.00053667995
-0.020320216
0.0052321738
-0.010718148
0.0071832623
-0.0026341195
0.0060938344
0.0015729353
0.0039398072
0.0027021561
0.0019849165
0.0023927956
0.00072336081
0.0017147719
8.0287313e-05
0.0009629605
-0.00012574101
0.00042560793
-2.7712628e-05
0.00013781725
0.00017327442
2.6662354e-05
0.00036836148
1.10838e-05
0.00050617016
3.2169715e-05
0.00057763789
5.7725625e-05
0.00059335551
7.4236746e-05
0.00057090746
7.9464637e-05
0.00052744284
7.6098824e-05
0.00047563553
6.7935639e-05
0.00042459506
5.7546871e-05
0.0003802808
4.6709318e-05
0.00034642742
3.6257181e-05
0.00032337717
2.5734221e-05
0.00030946147
1.3993284e-05
0.00030544274
0.001098376
-0.069219914
-0.00090566228
-0.10842908
0.00071876057
-0.032750197
0.0019898648
0.025691112
0.0032818298
0.058156739
-0.0006669635
0.01449047
-0.0025140575
-0.013803449
0.028928135
0.0023318482
0.11874468
0.00041385472
0.16425977
-0.009786828
0.019240701
-0.01178458
-0.062379532
-0.0114534
-0.14409255
-0.00039782935
-0.14728085
0.017303337
-0.021277492
0.022142902
0.063876023
0.022501226
0.11380456
-0.0037565296
0.075438159
-0.017410292
0.01963576
-0.018853637
-0.0053081114
-0.015626258
-0.022844187
-0.0096529727
-0.031869113
-0.00084851485
-0.027405022
0.0065481531
-0.014779319
0.0092932868
-0.0034342519
0.0079834283