/*--------------------------------*- C++ -*----------------------------------*\
| =========                 |                                                 |
| \\      /  F ield         | OpenFOAM: The Open Source CFD Toolbox           |
|  \\    /   O peration     | Version:  5.0                                   |
|   \\  /    A nd           | Web:      www.OpenFOAM.org                      |
|    \\/     M anipulation  |                                                 |
\*---------------------------------------------------------------------------*/
FoamFile
{
    version     2.0;
    format      ascii;
    class       volVectorField;
    location    "320";
    object      ddtCorrDdt0(U);
}
// * * * * * * * * * * * * * * * * * * * * * * * * * * * * * * * * * * * * * //

dimensions      [0 1 -2 0 0 0 0];

internalField   nonuniform List<vector> 
9520
(
(-0.00027633291 -7.161607e-07 0)
(-0.00027359655 -1.4051734e-06 0)
(-0.00027437351 -1.6588565e-06 0)
(-0.00026839768 -1.4863076e-06 0)
(-0.00027254877 -4.7872686e-06 0)
(-0.00027113606 1.4595569e-06 0)
(-0.00026062261 -1.1545992e-06 0)
(-0.00026817869 -7.1984116e-06 0)
(-0.00026934848 3.2493606e-06 0)
(-0.00027876351 7.1340223e-06 0)
(-0.00025055587 -3.8956243e-07 0)
(-0.00026140266 -8.9756035e-06 0)
(-0.00026533162 4.4973442e-06 0)
(-0.00027571823 1.9691668e-05 0)
(-0.00029166406 1.0455811e-05 0)
(-0.00023880177 3.8599342e-07 0)
(-0.00025221136 -8.8590054e-06 0)
(-0.00025994315 5.4960647e-06 0)
(-0.00027077077 3.0596129e-05 0)
(-0.0002879531 3.0665648e-05 0)
(-0.00030992537 9.7513549e-06 0)
(-0.00022508828 1.1140835e-06 0)
(-0.0002409142 -7.4685691e-06 0)
(-0.00025287248 7.4591563e-06 0)
(-0.00026495835 4.0375278e-05 0)
(-0.00028250707 4.9514137e-05 0)
(-0.00030703079 3.0237804e-05 0)
(-0.00032318786 5.685723e-06 0)
(-0.00020856374 2.2377338e-06 0)
(-0.00022792894 -5.1189038e-06 0)
(-0.00024343715 1.058031e-05 0)
(-0.00025837722 4.8983601e-05 0)
(-0.00027588245 6.7378024e-05 0)
(-0.00030257698 5.082149e-05 0)
(-0.0003216641 1.888391e-05 0)
(-0.00032775058 1.8368027e-06 0)
(-0.00018730372 4.6925725e-06 0)
(-0.00021365935 -1.5285874e-06 0)
(-0.00023237012 1.4787546e-05 0)
(-0.00025009786 5.758774e-05 0)
(-0.00026870072 8.2835534e-05 0)
(-0.0002961181 7.1670982e-05 0)
(-0.00031871447 3.3320893e-05 0)
(-0.00032803601 6.6051643e-06 0)
(-0.00032873131 1.3494514e-06 0)
(-0.00015779602 1.0587658e-05 0)
(-0.00019946707 4.3428735e-06 0)
(-0.00022129653 1.9888774e-05 0)
(-0.00024029863 6.6752197e-05 0)
(-0.00026073739 9.7171684e-05 0)
(-0.00028845009 9.1026465e-05 0)
(-0.00031329642 4.9230468e-05 0)
(-0.00032709524 1.2422829e-05 0)
(-0.00032938863 3.4933493e-06 0)
(-0.00033106665 4.7116271e-06 0)
(-0.00011398592 2.6170295e-05 0)
(-0.00018777793 1.6572052e-05 0)
(-0.00021421189 2.5912158e-05 0)
(-0.00022958079 7.6407703e-05 0)
(-0.00025175939 0.00011114853 0)
(-0.0002807706 0.00010950536 0)
(-0.00030669159 6.6334693e-05 0)
(-0.00032403144 1.926325e-05 0)
(-0.00032885331 5.8226501e-06 0)
(-0.0003312239 1.2057252e-05 0)
(-0.00033947391 1.0047311e-05 0)
(-6.5539437e-05 5.6991102e-05 0)
(-0.00018569766 4.3160029e-05 0)
(-0.0002183797 3.3197043e-05 0)
(-0.0002190741 8.5399316e-05 0)
(-0.00024088633 0.00012511325 0)
(-0.00027275586 0.00012774455 0)
(-0.00030065395 8.3641692e-05 0)
(-0.0003191584 2.9516369e-05 0)
(-0.00032871116 7.624488e-06 0)
(-0.00033018893 1.8519638e-05 0)
(-0.00033868374 2.7533278e-05 0)
(-0.0003544827 1.4401543e-05 0)
(-3.7735315e-05 0.00010813749 0)
(-0.00020802125 8.7780014e-05 0)
(-0.00024952817 4.0365242e-05 0)
(-0.00021151131 8.9090436e-05 0)
(-0.00022524606 0.00013782282 0)
(-0.00026328907 0.00014643619 0)
(-0.00029537699 0.00010117016 0)
(-0.00031427464 4.0946138e-05 0)
(-0.00032701256 1.1655245e-05 0)
(-0.00032908251 2.4539921e-05 0)
(-0.00033775319 4.3112462e-05 0)
(-0.00035290835 4.146606e-05 0)
(-0.00037315307 1.5590505e-05 0)
(-1.0679119e-05 0.00019359787 0)
(-0.00029540687 0.00017286276 0)
(-0.00031711914 4.5394861e-05 0)
(-0.00020829243 7.6482606e-05 0)
(-0.00020166466 0.0001457779 0)
(-0.00024927942 0.00016687965 0)
(-0.00029078387 0.000119599 0)
(-0.00031002979 5.222182e-05 0)
(-0.00032275191 1.718734e-05 0)
(-0.00032796071 2.9927301e-05 0)
(-0.00033679314 5.8719971e-05 0)
(-0.00035218147 6.656862e-05 0)
(-0.00037173123 4.6804086e-05 0)
(-0.00039088389 1.3122207e-05 0)
(8.3055899e-06 0.00028503006 0)
(-0.00036449165 0.00023583554 0)
(-0.00033229593 1.0574209e-05 0)
(-0.00017351713 3.4485913e-05 0)
(-0.00014959919 0.00014310247 0)
(-0.00022101439 0.00018962977 0)
(-0.00028615418 0.00014126 0)
(-0.00030825247 6.2792111e-05 0)
(-0.00031738178 2.2264964e-05 0)
(-0.00032437329 3.5421472e-05 0)
(-0.0003353491 7.2902467e-05 0)
(-0.00035172293 9.0879589e-05 0)
(-0.00037123531 7.7272088e-05 0)
(-0.00039076134 4.1090764e-05 0)
(-0.00040374211 8.0327174e-06 0)
(2.717158e-05 0.00047032452 0)
(-0.00048405016 0.00031251256 0)
(-0.00031675736 -6.551065e-05 0)
(-7.1515017e-05 -5.1678944e-05 0)
(-5.3808739e-05 0.00012585897 0)
(-0.00017170038 0.00022225987 0)
(-0.00028191734 0.00017392632 0)
(-0.00031373025 7.3647848e-05 0)
(-0.00031265347 2.4798234e-05 0)
(-0.00031733761 4.0809693e-05 0)
(-0.00033202503 8.6439993e-05 0)
(-0.00035044779 0.00011444302 0)
(-0.00037129432 0.00010594186 0)
(-0.00039091635 7.0144825e-05 0)
(-0.0004055746 2.6711482e-05 0)
(-0.00040985438 2.2923018e-06 0)
(2.2031495e-05 0.00060385799 0)
(-0.00069969166 0.00028233465 0)
(-0.00032325959 -0.00017555522 0)
(2.8097784e-05 -0.0001614471 0)
(4.5771137e-05 8.5808892e-05 0)
(-0.00010639731 0.0002742066 0)
(-0.00028787576 0.00022988015 0)
(-0.00033707847 8.7754246e-05 0)
(-0.00031216508 2.1754216e-05 0)
(-0.00030718583 4.4451648e-05 0)
(-0.00032615861 0.0001006462 0)
(-0.00034850382 0.00013767333 0)
(-0.00037122048 0.00013407008 0)
(-0.00039142445 9.8833671e-05 0)
(-0.00040782922 4.7644904e-05 0)
(-0.00041346502 9.3772135e-06 0)
(-0.00040993758 -1.9567403e-06 0)
(-8.5928415e-05 0.00091746283 0)
(-0.00096896727 0.00043216992 0)
(-0.0003194811 -0.00033546254 0)
(0.00018278169 -0.0003054393 0)
(0.00011869852 8.0200393e-05 0)
(-4.2049015e-05 0.00038321291 0)
(-0.00031579597 0.00032318364 0)
(-0.00038803773 0.00010505305 0)
(-0.00031768107 7.084278e-06 0)
(-0.00029253141 4.2945499e-05 0)
(-0.00031593417 0.00011598437 0)
(-0.0003449305 0.00016227585 0)
(-0.00037121001 0.00016261109 0)
(-0.00039324319 0.0001260078 0)
(-0.00040970102 7.233445e-05 0)
(-0.00041907124 1.860225e-05 0)
(-0.000414681 -4.2575993e-06 0)
(-0.00040678157 -3.2774309e-06 0)
(-0.00010265516 0.0010966848 0)
(-0.0011326534 0.00026636066 0)
(-0.00040267736 -0.00050621605 0)
(0.00031045045 -0.00047989979 0)
(0.00029171566 0.00012252212 0)
(2.0979615e-05 0.00051835613 0)
(-0.00038538557 0.00047995635 0)
(-0.00049059301 0.00013157892 0)
(-0.00033735431 -2.8821163e-05 0)
(-0.00027098631 2.9941761e-05 0)
(-0.00029826494 0.00013207735 0)
(-0.00033780763 0.00018984587 0)
(-0.0003714866 0.00019273553 0)
(-0.00039604921 0.00015470597 0)
(-0.00041266617 9.6139703e-05 0)
(-0.00042275312 3.4608058e-05 0)
(-0.0004226434 -4.6762824e-06 0)
(-0.00041216121 -9.4497731e-06 0)
(-0.00040376995 -1.5964053e-06 0)
(-0.00015147246 0.0015645783 0)
(-0.0017653985 0.00052701097 0)
(-0.00064078462 -0.00092434337 0)
(0.00055288347 -0.00081934658 0)
(0.00066150638 0.00015589196 0)
(6.3814453e-05 0.00069101031 0)
(-0.00048483459 0.00069926601 0)
(-0.00064410442 0.00015956418 0)
(-0.00037846536 -9.6048467e-05 0)
(-0.00024184214 -3.5634258e-06 0)
(-0.00027002821 0.00014751475 0)
(-0.00032444201 0.00022220316 0)
(-0.00037145112 0.00022648102 0)
(-0.00040076864 0.00018508476 0)
(-0.00041786676 0.00012169862 0)
(-0.00042749291 5.4191377e-05 0)
(-0.00043209824 -2.5934884e-06 0)
(-0.00042028257 -1.34344e-05 0)
(-0.00040957858 -5.805602e-06 0)
(-0.0004032755 1.863015e-06 0)
(-0.00018636995 0.0019510295 0)
(-0.0021950046 0.00019466677 0)
(-0.00081554917 -0.0010665807 0)
(0.00090060178 -0.0011449313 0)
(0.0012128805 0.00019138769 0)
(0.00015451959 0.00098582996 0)
(-0.00066284303 0.00099589963 0)
(-0.00088515064 0.00018894211 0)
(-0.00045885161 -0.00022055872 0)
(-0.00020012586 -7.0918919e-05 0)
(-0.00022215973 0.00016140676 0)
(-0.00029972987 0.00026192833 0)
(-0.00037010977 0.00026683088 0)
(-0.00040808396 0.00021866356 0)
(-0.00042564745 0.00014827451 0)
(-0.00043498267 7.451169e-05 0)
(-0.00043871976 9.0004267e-06 0)
(-0.00043173435 -1.9714762e-05 0)
(-0.00041711795 -7.6092167e-06 0)
(-0.00040925488 3.3283751e-06 0)
(-0.0004060113 5.343544e-06 0)
(-0.00024536358 0.0025277227 0)
(-0.0032192318 0.00059549425 0)
(-0.0012128442 -0.002067028 0)
(0.0014048981 -0.001841516 0)
(0.0019563422 0.00026365427 0)
(0.00026474402 0.001448062 0)
(-0.00096822841 0.0013724709 0)
(-0.0011885818 0.00021506059 0)
(-0.00054602167 -0.00041184372 0)
(-0.0001505403 -0.00020954084 0)
(-0.00014404144 0.00016163404 0)
(-0.0002531727 0.0003112504 0)
(-0.0003648009 0.00031946956 0)
(-0.00041988845 0.00025803777 0)
(-0.0004375211 0.00017573859 0)
(-0.00044401598 9.4430254e-05 0)
(-0.00044518934 2.3010035e-05 0)
(-0.00044389467 -2.0146321e-05 0)
(-0.00042848991 -1.1565661e-05 0)
(-0.00041717407 6.2268984e-06 0)
(-0.00041162964 1.3355437e-05 0)
(-0.00041136155 7.4865081e-06 0)
(-0.00035013622 0.0031189445 0)
(-0.0034027662 0.00014159682 0)
(-0.0015402253 -0.0019277676 0)
(0.0020182232 -0.002523456 0)
(0.0030460007 0.00026551423 0)
(0.00048658791 0.0021365054 0)
(-0.0014434383 0.0019451506 0)
(-0.0017153388 0.00023209323 0)
(-0.00070907403 -0.00073173705 0)
(5.311762e-07 -0.00040387359 0)
(7.4705048e-06 0.00014898495 0)
(-0.00016487358 0.0003699771 0)
(-0.00034842643 0.00039244415 0)
(-0.00043872664 0.00030900481 0)
(-0.0004574313 0.00020436563 0)
(-0.0004559411 0.00011204602 0)
(-0.00045264345 3.5036686e-05 0)
(-0.00045355629 -1.8194963e-05 0)
(-0.00044160494 -1.3146312e-05 0)
(-0.00042854467 1.1611803e-05 0)
(-0.00042125939 2.0658793e-05 0)
(-0.00041617321 2.0582972e-05 0)
(-0.00041787718 7.7358003e-06 0)
(-0.0011069519 0.0039039198 0)
(-0.0055194999 0.00084121792 0)
(-0.0024112807 -0.0040705642 0)
(0.0029341278 -0.0036592239 0)
(0.0043456785 0.00053027414 0)
(0.00073342832 0.0030772049 0)
(-0.0021114433 0.0026872424 0)
(-0.002498983 0.00020694001 0)
(-0.00092533283 -0.0011982796 0)
(0.00023200215 -0.00076328558 0)
(0.00027201911 8.2007736e-05 0)
(1.1186561e-05 0.00045193892 0)
(-0.00030906327 0.00050261848 0)
(-0.00046891721 0.00038200659 0)
(-0.00049241504 0.00023576452 0)
(-0.00047429649 0.00012460481 0)
(-0.00045996928 4.2750475e-05 0)
(-0.00045928151 -1.4077742e-05 0)
(-0.00045179629 -1.1751383e-05 0)
(-0.00044296266 1.5675742e-05 0)
(-0.00043353107 3.5444493e-05 0)
(-0.00042800418 3.1510722e-05 0)
(-0.00042228943 2.3082392e-05 0)
(-0.00042384524 6.0806586e-06 0)
(-0.00057959638 0.0047080693 0)
(-0.0065002231 -2.1930662e-05 0)
(-0.0024006791 -0.0035768335 0)
(0.0039141266 -0.0046168087 0)
(0.0064269272 0.00039179171 0)
(0.0012345854 0.0044867199 0)
(-0.0030981225 0.0038738396 0)
(-0.0036576242 0.0001470577 0)
(-0.0012471437 -0.0019199638 0)
(0.00056489185 -0.0012963595 0)
(0.00075170547 -1.9937596e-07 0)
(0.00021532513 0.00051599436 0)
(-0.00023922925 0.00067725675 0)
(-0.0005180801 0.00049917331 0)
(-0.00055599898 0.00027405237 0)
(-0.00050584001 0.0001275105 0)
(-0.00046766659 4.1433297e-05 0)
(-0.00046117641 -1.3134557e-05 0)
(-0.00045826579 -8.2531869e-06 0)
(-0.00045537229 2.4087743e-05 0)
(-0.00044894573 4.7691759e-05 0)
(-0.0004425632 5.0153909e-05 0)
(-0.00043551471 3.7833606e-05 0)
(-0.0004291423 2.0367521e-05 0)
(-0.00042813096 2.7347399e-06 0)
(-0.0011098171 0.00611178 0)
(-0.009071336 0.00085899577 0)
(-0.0023711599 -0.0065893843 0)
(0.0058129261 -0.0070800134 0)
(0.0082584992 0.001182985 0)
(0.0013870957 0.0060440051 0)
(-0.0043673235 0.0051793283 0)
(-0.0052179782 9.6675985e-06 0)
(-0.0017112511 -0.0029285823 0)
(0.0010372918 -0.0020924589 0)
(0.0014699833 -0.00012564375 0)
(0.00045307902 0.00075565235 0)
(-0.0001651948 0.00097109049 0)
(-0.00060872287 0.00068741791 0)
(-0.00066972311 0.00032788581 0)
(-0.00056308507 0.00011426428 0)
(-0.00047744224 2.2653411e-05 0)
(-0.00045668017 -1.998429e-05 0)
(-0.00045804819 -3.7670533e-06 0)
(-0.00046376462 3.6900443e-05 0)
(-0.00046492311 6.3917217e-05 0)
(-0.00045912 7.082277e-05 0)
(-0.00045354013 5.4500923e-05 0)
(-0.00044250887 3.8170202e-05 0)
(-0.00043534307 1.2441809e-05 0)
(-0.00042977053 -1.9241752e-06 0)
(-0.0036805834 0.006634812 0)
(-0.0089330404 -0.00049553584 0)
(-0.0031234174 -0.00624916 0)
(0.0074172247 -0.0083781508 0)
(0.010935633 0.00085289348 0)
(0.0014932168 0.0087787698 0)
(-0.0061606451 0.0075148425 0)
(-0.0074346068 -0.00022773883 0)
(-0.0023112635 -0.0044006094 0)
(0.0017059369 -0.0032182277 0)
(0.0024674295 -0.00032746775 0)
(0.00093252016 0.0011672332 0)
(-0.00014513526 0.0013693976 0)
(-0.00077139887 0.0010147354 0)
(-0.0008770108 0.00040973291 0)
(-0.00066553376 7.4026132e-05 0)
(-0.00049404433 -2.8661855e-05 0)
(-0.00044233071 -4.3472406e-05 0)
(-0.00044638247 -4.1400817e-07 0)
(-0.00046552334 5.4516354e-05 0)
(-0.00047807575 8.5905065e-05 0)
(-0.00047863125 9.3851175e-05 0)
(-0.00047250231 7.9957386e-05 0)
(-0.00046320684 5.2197106e-05 0)
(-0.00044903722 2.8340678e-05 0)
(-0.00043913663 -8.1483522e-07 0)
(-0.00042734611 -7.454478e-06 0)
(-0.0065972854 0.0080158378 0)
(-0.014540687 0.0014114239 0)
(-0.0058708893 -0.011076426 0)
(0.0093142292 -0.011859911 0)
(0.014066558 0.0027271666 0)
(0.00066638386 0.011211948 0)
(-0.0074370013 0.0097245326 0)
(-0.010240138 -0.00061526038 0)
(-0.0031366756 -0.0063306505 0)
(0.0026000121 -0.0048057078 0)
(0.0038882824 -0.00062375869 0)
(0.0017473421 0.0017783429 0)
(-0.00012812101 0.0019542215 0)
(-0.0010393283 0.0014585564 0)
(-0.0011959087 0.00053063625 0)
(-0.00084883914 -1.3580236e-05 0)
(-0.00052547204 -0.00013699199 0)
(-0.00041074769 -9.4062483e-05 0)
(-0.00041568383 -2.1033e-06 0)
(-0.00045551458 7.7081537e-05 0)
(-0.00048613204 0.00011562659 0)
(-0.00049746348 0.00012242311 0)
(-0.00049488375 0.00010719132 0)
(-0.00048626341 7.4493836e-05 0)
(-0.0004702484 4.1387969e-05 0)
(-0.00045477807 5.1044196e-06 0)
(-0.0004383844 -1.8600224e-05 0)
(-0.00042070135 -1.3289129e-05 0)
(-0.0079851486 0.009043225 0)
(-0.015831192 -0.0012293546 0)
(-0.0022415291 -0.010781718 0)
(0.011883957 -0.013233679 0)
(0.018305225 0.0017287044 0)
(0.00088479447 0.014112512 0)
(-0.0098121085 0.013377039 0)
(-0.014133601 -0.0011693645 0)
(-0.0040713233 -0.0088944682 0)
(0.0038258653 -0.0068973641 0)
(0.0058348443 -0.0010746716 0)
(0.0029562821 0.0026349855 0)
(-7.66261e-05 0.0028930815 0)
(-0.0014861165 0.0020631651 0)
(-0.0016720911 0.00069119028 0)
(-0.0011294153 -0.00017945508 0)
(-0.00057494938 -0.00033087842 0)
(-0.00035461889 -0.00019189393 0)
(-0.00035466535 -1.6453291e-05 0)
(-0.00042514926 0.00010524394 0)
(-0.00048479048 0.0001552953 0)
(-0.00051391875 0.00015971626 0)
(-0.00051909174 0.00013937468 0)
(-0.00051123209 0.00010088452 0)
(-0.00049716528 5.4980832e-05 0)
(-0.0004760138 1.4751349e-05 0)
(-0.00045635638 -2.7080326e-05 0)
(-0.00043219867 -3.7519472e-05 0)
(-0.0004103198 -1.8553888e-05 0)
(-0.0095509323 0.0094485863 0)
(-0.015327957 -0.0014939703 0)
(0.0028117122 -0.016158883 0)
(0.018188361 -0.018039634 0)
(0.02326777 0.0054441733 0)
(0.003115958 0.018847786 0)
(-0.014017689 0.016391052 0)
(-0.01856657 -0.0016746831 0)
(-0.0053522587 -0.012213367 0)
(0.0054686024 -0.009795127 0)
(0.0084894852 -0.001694042 0)
(0.0046395241 0.0038020514 0)
(3.908518e-05 0.0042836699 0)
(-0.0021795897 0.0029515297 0)
(-0.0024566044 0.00090081997 0)
(-0.0015206681 -0.00042723674 0)
(-0.00066330624 -0.00066337964 0)
(-0.00026018051 -0.0003690535 0)
(-0.00024499167 -5.4616339e-05 0)
(-0.00036047953 0.00013953668 0)
(-0.00046730377 0.00020950427 0)
(-0.00052533053 0.00020945493 0)
(-0.00054394717 0.00017990446 0)
(-0.00054035884 0.00013296878 0)
(-0.0005263828 7.6880332e-05 0)
(-0.00050443703 2.3687008e-05 0)
(-0.00047838561 -2.3077755e-05 0)
(-0.00045302624 -5.8478689e-05 0)
(-0.00042245553 -5.3405078e-05 0)
(-0.00039737336 -2.2485076e-05 0)
(-0.010369487 0.010233652 1.1894531e-23)
(-0.01450482 -0.0043154094 0)
(0.0046621597 -0.018672251 0)
(0.024929344 -0.019214777 0)
(0.025891207 0.004683542 0)
(-0.0010305167 0.02311082 0)
(-0.019108333 0.020922524 0)
(-0.023338521 -0.0030054141 0)
(-0.0063081007 -0.016466282 0)
(0.0076980989 -0.013387132 0)
(0.01200696 -0.00256624 0)
(0.0069716731 0.0053574346 0)
(0.00025194604 0.0063116007 0)
(-0.0031963704 0.0042102414 0)
(-0.0036670071 0.0011666988 0)
(-0.0021576078 -0.00082660756 0)
(-0.00078782418 -0.0011851294 0)
(-0.0001078488 -0.00066830528 0)
(-5.8118678e-05 -0.0001347452 0)
(-0.00023879523 0.00018002998 0)
(-0.00042145552 0.00028593906 0)
(-0.00052821634 0.00027875757 0)
(-0.00056909333 0.00023339167 0)
(-0.00057309293 0.00017344308 0)
(-0.00056115097 0.00010773949 0)
(-0.00053936659 4.1268632e-05 0)
(-0.00050902917 -1.7893291e-05 0)
(-0.00047910219 -6.6543966e-05 0)
(-0.00044506017 -8.255608e-05 0)
(-0.00041031276 -6.4802013e-05 0)
(-0.00038295091 -2.4841328e-05 0)
(-0.011218177 0.010668948 -1.5240998e-23)
(-0.015198595 -0.0051761709 -1.2414816e-23)
(0.0067108257 -0.023022034 0)
(0.028774766 -0.022511566 0)
(0.025387486 0.0084488266 0)
(-0.0021796212 0.026880495 0)
(-0.014922559 0.024860516 0)
(-0.029145409 -0.0040042038 0)
(-0.0074736131 -0.021612538 0)
(0.010735653 -0.01824227 0)
(0.016587 -0.0035689495 0)
(0.0099916294 0.0073576513 0)
(0.00059286649 0.0090681086 0)
(-0.0046446972 0.0060876536 0)
(-0.0054667011 0.0015245242 0)
(-0.0031399771 -0.0014701557 0)
(-0.00093819138 -0.0019576104 0)
(0.00012326039 -0.001163663 0)
(0.00025743796 -0.00027424515 0)
(-2.2165097e-05 0.00023147067 0)
(-0.00032999361 0.0003988758 0)
(-0.00051830855 0.0003785408 0)
(-0.00059611308 0.00030624472 0)
(-0.00061180721 0.00022572337 0)
(-0.00060139384 0.0001463569 0)
(-0.00057930522 6.5376124e-05 0)
(-0.00054679889 -9.2541251e-06 0)
(-0.00051061691 -6.932089e-05 0)
(-0.00047468821 -0.00010691734 0)
(-0.00043380781 -0.00010113855 0)
(-0.00039650219 -7.2029481e-05 0)
(-0.0003681055 -2.5733819e-05 0)
(-0.011523718 0.011213512 1.5301145e-23)
(-0.015481763 -0.0073497957 3.3607744e-23)
(0.0077961392 -0.027037816 0)
(0.03172774 -0.022181722 0)
(0.0248746 0.010232277 0)
(-0.00074654473 0.03492131 0)
(-0.01952592 0.033306946 0)
(-0.040724796 -0.0053116316 0)
(-0.010335803 -0.027245027 0)
(0.014637826 -0.023783256 0)
(0.022400412 -0.004924128 0)
(0.013966749 0.0099627131 0)
(0.0010787132 0.012794337 0)
(-0.0066388389 0.0086008992 0)
(-0.0080179961 0.0020025932 0)
(-0.0045974596 -0.0024305766 0)
(-0.0011552853 -0.0031248742 0)
(0.00049478773 -0.0019106906 0)
(0.00074499771 -0.0005012752 0)
(0.00031201664 0.00029081092 0)
(-0.00017728204 0.00056704998 0)
(-0.00049576522 0.000530634 0)
(-0.0006304164 0.00041508944 0)
(-0.00066210977 0.00029818385 0)
(-0.00065076412 0.00019419276 0)
(-0.00062479698 9.5533873e-05 0)
(-0.00059020468 4.7537457e-06 0)
(-0.00054988714 -6.836098e-05 0)
(-0.00050918847 -0.00011846152 0)
(-0.00046537502 -0.00013436223 0)
(-0.00042057799 -0.00011388447 0)
(-0.00038220396 -7.5286443e-05 0)
(-0.00035367987 -2.5419021e-05 0)
(-0.011343412 0.01171553 0)
(-0.015168314 -0.0090019214 -3.3661599e-23)
(0.0090047649 -0.031824374 0)
(0.034333085 -0.024663352 0)
(0.02272386 0.015145014 0)
(-0.0076810095 0.040292753 0)
(-0.042652246 0.037365085 0)
(-0.052755552 -0.0040139255 0)
(-0.017368927 -0.035821455 0)
(0.018844617 -0.031117166 0)
(0.029464254 -0.006079199 0)
(0.018639767 0.013215554 0)
(0.0017849654 0.01761855 0)
(-0.0093482846 0.012294259 0)
(-0.011603496 0.0026256868 0)
(-0.0066620369 -0.003854381 0)
(-0.0014760754 -0.0048445021 0)
(0.0010748257 -0.0030068433 0)
(0.0014812428 -0.00087727199 0)
(0.0008585939 0.00042497944 0)
(-6.2874702e-06 0.00082904545 0)
(-0.00046772754 0.0007728807 0)
(-0.00067924545 0.00058435976 0)
(-0.00073460815 0.00039906216 0)
(-0.00071755255 0.0002535647 0)
(-0.00068018861 0.00013038302 0)
(-0.00063849877 2.4098655e-05 0)
(-0.00059630513 -6.2326825e-05 0)
(-0.00055059379 -0.00012491336 0)
(-0.00050251901 -0.00015788276 0)
(-0.000453768 -0.00015387828 0)
(-0.00040639437 -0.00011970872 0)
(-0.00036809001 -7.5212989e-05 0)
(-0.00033979426 -2.4287343e-05 0)
(-0.010923784 0.011835946 -4.4050497e-24)
(-0.014427034 -0.010936624 0)
(0.0097946 -0.037520953 4.3333439e-23)
(0.034870412 -0.025147328 0)
(0.022314537 0.017995969 0)
(-0.011837362 0.048428651 0)
(-0.049499945 0.045478573 0)
(-0.051696325 -0.0082657967 0)
(-0.019135953 -0.045514362 0)
(0.024038082 -0.039374029 0)
(0.037892154 -0.0078324111 0)
(0.024322018 0.017448314 0)
(0.0024599177 0.02395762 0)
(-0.012952988 0.016940567 0)
(-0.016447215 0.0034634387 0)
(-0.009554398 -0.0058221989 0)
(-0.0019301751 -0.007329429 0)
(0.0019439394 -0.0045750537 0)
(0.0025880686 -0.0014349944 0)
(0.0016915176 0.00056188264 0)
(0.00041785186 0.00125816 0)
(-0.0003499764 0.0011549918 0)
(-0.00074451648 0.00083539879 0)
(-0.00084355296 0.00054022295 0)
(-0.00081207915 0.00032713221 0)
(-0.0007535211 0.00016949259 0)
(-0.00069649063 4.4223867e-05 0)
(-0.00064579993 -5.2467196e-05 0)
(-0.00059842641 -0.00012546614 0)
(-0.00054793143 -0.00017210807 0)
(-0.00049441642 -0.00018298626 0)
(-0.00044021502 -0.00016428579 0)
(-0.00039137204 -0.00012066868 0)
(-0.00035364745 -7.3188812e-05 0)
(-0.0003271573 -2.2681832e-05 0)
(-0.0096324866 0.011833013 -1.6368383e-23)
(-0.012569522 -0.012427701 9.1735131e-23)
(0.009732573 -0.042728845 -4.3310957e-23)
(0.034244439 -0.025090697 7.0430569e-23)
(0.022358337 0.020551758 -9.1328219e-23)
(-0.014780691 0.056459719 0)
(-0.05288378 0.046291102 0)
(-0.047505795 -0.011609701 0)
(-0.010657386 -0.053858707 0)
(0.030420065 -0.051206128 0)
(0.04784058 -0.008394677 0)
(0.031557623 0.022252508 0)
(0.0017883567 0.033654339 0)
(-0.017753355 0.02339022 0)
(-0.022967408 0.0044096179 0)
(-0.013395341 -0.0085835008 0)
(-0.0025117504 -0.0107665 0)
(0.0031778314 -0.0067880754 0)
(0.0041954822 -0.0022272588 0)
(0.0029255794 0.0007493807 0)
(0.0010842482 0.0018484177 0)
(-0.00028834402 0.0016010469 0)
(-0.00080594951 0.0012039674 0)
(-0.0010059928 0.00073931957 0)
(-0.00095499748 0.00041658894 0)
(-0.00085483927 0.00020849458 0)
(-0.00076785826 6.1962009e-05 0)
(-0.00070296933 -4.3559757e-05 0)
(-0.00064906826 -0.00012325226 0)
(-0.0005953108 -0.00017913069 0)
(-0.00054240331 -0.00020393257 0)
(-0.00048378205 -0.00019796764 0)
(-0.00042658528 -0.00016615601 0)
(-0.00037688753 -0.00012204465 0)
(-0.00034026315 -6.9953627e-05 0)
(-0.00031563459 -2.1012356e-05 0)
(-0.0079252004 0.011815564 2.6443151e-23)
(-0.010483362 -0.013741621 -1.3095595e-22)
(0.0092067311 -0.047901453 0)
(0.032515136 -0.025177823 -4.6929191e-23)
(0.021464968 0.023599503 9.090163e-23)
(-0.015433069 0.063668142 -7.1293163e-23)
(-0.054932862 0.051147456 -4.6176553e-23)
(-0.046587343 -0.019513075 0)
(-0.0020297256 -0.063379641 0)
(0.037903595 -0.063742124 0)
(0.06020335 -0.011248729 0)
(0.040356726 0.027682506 0)
(0.0032172266 0.044273703 0)
(-0.023229094 0.032135621 0)
(-0.031553937 0.0056983919 0)
(-0.018507518 -0.012205448 0)
(-0.0032215704 -0.015497065 0)
(0.0049246309 -0.0097964349 0)
(0.0064573694 -0.0033146356 0)
(0.0046974235 0.0009904532 0)
(0.0020433167 0.0027087365 0)
(-0.00010480172 0.0024545274 0)
(-0.00095594118 0.0017278964 0)
(-0.0012421708 0.001036134 0)
(-0.0011741124 0.00053260062 0)
(-0.001003709 0.00024016392 0)
(-0.00086251047 6.7348995e-05 0)
(-0.00076650257 -4.2845766e-05 0)
(-0.00070263218 -0.0001233086 0)
(-0.00064786395 -0.00018318665 0)
(-0.00059049447 -0.00021761478 0)
(-0.00053349003 -0.00022333463 0)
(-0.00047206369 -0.00020385739 0)
(-0.00041344894 -0.00016172476 0)
(-0.00036470513 -0.00011573386 0)
(-0.00032811307 -6.5785151e-05 0)
(-0.00030524718 -1.9594725e-05 0)
(-0.006100744 0.011685321 -4.9941353e-25)
(-0.0079261 -0.014849639 3.1560553e-23)
(0.0080864752 -0.052542135 7.8379937e-24)
(0.029561283 -0.025099969 -2.124491e-23)
(0.020835504 0.025836312 -2.4444398e-23)
(-0.016067516 0.07175367 -1.4304127e-22)
(-0.055192048 0.05646219 -3.7168952e-22)
(-0.046542504 -0.021940034 1.0188511e-22)
(-0.0010361358 -0.073182999 0)
(0.041350363 -0.076198212 0)
(0.072953651 -0.012858593 0)
(0.052855537 0.03154438 0)
(0.0067403299 0.053579741 0)
(-0.033397695 0.041837795 0)
(-0.042506772 0.0066980481 0)
(-0.024723249 -0.017042252 0)
(-0.0040467087 -0.021732294 0)
(0.0073189472 -0.01384269 0)
(0.0095424795 -0.0047651334 0)
(0.0071876215 0.0013082103 0)
(0.0034297816 0.0039230806 0)
(0.00023419111 0.0036998871 0)
(-0.0012452922 0.0024967255 0)
(-0.0016144194 0.0014974681 0)
(-0.001517796 0.00068118824 0)
(-0.0012265091 0.00026032642 0)
(-0.00099256126 4.5604412e-05 0)
(-0.00084208586 -6.3203939e-05 0)
(-0.00075601896 -0.00013237641 0)
(-0.00069814117 -0.00018871846 0)
(-0.00064437842 -0.00022693276 0)
(-0.00058570078 -0.00024117022 0)
(-0.00052320419 -0.00023296716 0)
(-0.00046002967 -0.00020255081 0)
(-0.00040044558 -0.00015578047 0)
(-0.00035211829 -0.00010848948 0)
(-0.00031703968 -6.1699234e-05 0)
(-0.00029585546 -1.869474e-05 0)
(-0.0036340215 0.011529507 -6.7763473e-24)
(-0.005346589 -0.01581182 -3.8176857e-24)
(0.0068626906 -0.0564247 0)
(0.025275789 -0.024876145 1.6187151e-24)
(0.019462679 0.028195221 -3.9552917e-23)
(-0.0154729 0.079630336 0)
(-0.053630137 0.060223329 9.4254811e-23)
(-0.046618392 -0.024049376 2.7761728e-22)
(0.00046377803 -0.08376491 0)
(0.052916422 -0.085440382 0)
(0.082448213 -0.011341452 0)
(0.060849591 0.043412905 0)
(0.014057378 0.069042371 0)
(-0.039580343 0.052449732 0)
(-0.053941989 0.0077444733 0)
(-0.031973842 -0.023342772 0)
(-0.0047514741 -0.029954438 0)
(0.010587676 -0.019005444 0)
(0.013639041 -0.0066758694 0)
(0.010557907 0.0017238662 0)
(0.0053842017 0.0055720987 0)
(0.00076814751 0.0054955927 0)
(-0.001640737 0.0036898623 0)
(-0.0022423569 0.0020967302 0)
(-0.002018549 0.00092159344 0)
(-0.0015839932 0.00024086139 0)
(-0.0011794206 -2.8642404e-05 0)
(-0.00093372284 -0.00012607222 0)
(-0.00080723696 -0.00016535112 0)
(-0.00074177097 -0.0002005903 0)
(-0.00069327336 -0.00023337067 0)
(-0.00064057579 -0.00025315641 0)
(-0.00057901812 -0.00025322585 0)
(-0.00051272858 -0.00023438753 0)
(-0.00044790842 -0.00019661019 0)
(-0.00038824409 -0.00014910422 0)
(-0.00034092858 -0.00010179493 0)
(-0.000307213 -5.841315e-05 0)
(-0.00028718899 -1.8483527e-05 0)
(-0.00073176565 0.011501198 0)
(-0.0026810916 -0.016404925 0)
(0.005492214 -0.059521386 3.9533164e-24)
(0.020089933 -0.024578832 0)
(0.017585833 0.030098278 7.8261112e-24)
(-0.014913124 0.08730036 -2.1906173e-22)
(-0.051556999 0.064752372 -2.1207434e-22)
(-0.044641176 -0.026144433 -1.6057676e-22)
(-0.0010871045 -0.091553724 0)
(0.057372048 -0.099173909 0)
(0.086776191 -0.010463449 0)
(0.059823839 0.043669179 0)
(-0.00036907445 0.081452639 0)
(-0.04539543 0.067657537 0)
(-0.066118529 0.0077917493 0)
(-0.040561504 -0.031266758 0)
(-0.0051559881 -0.040238098 0)
(0.014979091 -0.025713306 0)
(0.018968946 -0.008978958 0)
(0.015050726 0.0022331936 0)
(0.0080975034 0.0077799734 0)
(0.0015388776 0.0079964628 0)
(-0.0021763479 0.0054580805 0)
(-0.0032015892 0.0029657411 0)
(-0.002825662 0.0012007169 0)
(-0.0021031994 0.00020133595 0)
(-0.0014587705 -0.00017899934 0)
(-0.0010522837 -0.000265341 0)
(-0.00085196801 -0.00024635492 0)
(-0.00077052764 -0.00023256885 0)
(-0.0007305521 -0.00024106351 0)
(-0.00069087567 -0.00025715533 0)
(-0.00063740761 -0.00026529519 0)
(-0.00057239952 -0.00025635061 0)
(-0.00050242439 -0.00023038953 0)
(-0.00043515538 -0.00018817489 0)
(-0.00037638878 -0.00014200899 0)
(-0.00033042407 -9.7050782e-05 0)
(-0.00029782824 -5.6944127e-05 0)
(-0.00027879917 -1.9040058e-05 0)
(-0.00048538008 -0.016662013 1.1971223e-25)
(0.0014861459 0.011561194 0)
(0.0025107873 -0.061659972 6.4964756e-24)
(0.014889531 -0.024166793 -3.9933526e-24)
(0.014519111 0.031460531 1.2198029e-22)
(-0.013563981 0.094915297 3.4454997e-22)
(-0.047802338 0.068575011 6.9494477e-23)
(-0.042344296 -0.027706979 3.1262075e-23)
(-0.0019179051 -0.10106252 3.9100506e-22)
(0.057916749 -0.11426591 0)
(0.091517888 -0.013050245 -1.1897079e-21)
(0.05457013 0.059123271 0)
(-0.0030398295 0.098878134 0)
(-0.040546987 0.085316859 0)
(-0.084751051 0.011410217 0)
(-0.054566581 -0.040110389 0)
(-0.0050898784 -0.0528863 0)
(0.02077849 -0.033655276 0)
(0.025698797 -0.011925329 0)
(0.020818861 0.0029128544 0)
(0.011737917 0.010602382 0)
(0.0026954354 0.011442175 0)
(-0.0028945217 0.0080438836 0)
(-0.0046086919 0.0042329759 0)
(-0.004093538 0.001545552 0)
(-0.0028633078 0.00010997241 0)
(-0.0018996836 -0.00048231908 0)
(-0.001211174 -0.0005119378 0)
(-0.00088718414 -0.00040253091 0)
(-0.00077252759 -0.00030358048 0)
(-0.00074369713 -0.0002594764 0)
(-0.0007271448 -0.00025536496 0)
(-0.00069221966 -0.00026503795 0)
(-0.00063565507 -0.00026766093 0)
(-0.00056594113 -0.00025380695 0)
(-0.00049195555 -0.00022325358 0)
(-0.00042344196 -0.0001809157 0)
(-0.00036507273 -0.00013636649 0)
(-0.00032025031 -9.5510377e-05 0)
(-0.0002888428 -5.7450745e-05 0)
(-0.00027054587 -2.0270852e-05 0)
(-0.00024302877 -0.062553928 -6.17562e-24)
(0.0020974801 -0.016665851 0)
(0.0042212142 0.011754171 -4.0897941e-24)
(0.0088804116 -0.023823937 3.9902456e-24)
(0.011307437 0.032742907 -4.1134063e-23)
(-0.011892967 0.10173071 -2.7638188e-22)
(-0.043978749 0.071137095 -2.1982356e-23)
(-0.03752019 -0.029184439 2.580242e-22)
(-0.0026891299 -0.10988907 1.8182928e-22)
(0.056939291 -0.1295889 7.209773e-23)
(0.093280294 -0.016305991 -1.33981e-21)
(0.055711574 0.065700391 1.2447044e-21)
(-0.0033177979 0.11348213 0)
(-0.061570641 0.10651821 0)
(-0.11771256 0.016398116 0)
(-0.073973349 -0.049174047 0)
(-0.0080091451 -0.069062649 0)
(0.028628781 -0.043604754 0)
(0.034068795 -0.014978186 0)
(0.027997875 0.0035954976 0)
(0.016537474 0.014180083 0)
(0.0042805485 0.015968438 0)
(-0.0038433382 0.011613238 0)
(-0.0066252126 0.0060930286 0)
(-0.005970099 0.0020056333 0)
(-0.0040792398 -0.00013899013 0)
(-0.002488832 -0.00090523737 0)
(-0.0014524623 -0.00095903666 0)
(-0.00090900241 -0.00069802133 0)
(-0.00073027612 -0.00044352845 0)
(-0.00071434779 -0.00030185426 0)
(-0.00073426603 -0.00025215395 0)
(-0.00073314853 -0.00025170323 0)