/*--------------------------------*- C++ -*----------------------------------*\
| =========                 |                                                 |
| \\      /  F ield         | OpenFOAM: The Open Source CFD Toolbox           |
|  \\    /   O peration     | Version:  5.0                                   |
|   \\  /    A nd           | Web:      www.OpenFOAM.org                      |
|    \\/     M anipulation  |                                                 |
\*---------------------------------------------------------------------------*/
FoamFile
{
    version     2.0;
    format      ascii;
    class       volScalarField;
    location    "320";
    object      nut;
}
// * * * * * * * * * * * * * * * * * * * * * * * * * * * * * * * * * * * * * //

dimensions      [0 2 -1 0 0 0 0];

internalField   nonuniform List<scalar> 
9520
(
1.5200202e-117
1.9300781e-109
1.334304e-117
1.4046487e-102
1.6965455e-109
1.1663008e-117
1.8231473e-96
1.2355464e-102
1.4841186e-109
1.0224275e-117
6.7769641e-91
1.6045592e-96
1.0813172e-102
1.3027911e-109
9.0814324e-118
9.4144003e-86
5.9671172e-91
1.4052024e-96
9.5033212e-103
1.1609626e-109
8.2283121e-118
5.8334608e-81
8.2909283e-86
5.2304304e-91
1.2368474e-96
8.4934585e-103
1.0575382e-109
7.5986604e-118
1.8165906e-76
5.1383959e-81
7.2733699e-86
4.612199e-91
1.1085413e-96
7.770278e-103
9.8159982e-110
7.0804771e-118
3.0632382e-72
1.6015719e-76
4.5120108e-81
6.4255952e-86
4.1449942e-91
1.0176631e-96
7.2352747e-103
9.1556997e-110
6.5390856e-118
2.9635179e-68
2.7053775e-72
1.4086747e-76
3.9941506e-81
5.7889939e-86
3.8150146e-91
9.490785e-97
6.7387075e-103
8.4059938e-110
5.8702973e-118
1.7353995e-64
2.6242348e-68
2.3853105e-72
1.2502765e-76
3.6071227e-81
5.3373128e-86
3.5579171e-91
8.810664e-97
6.1370004e-103
7.4561924e-110
5.0631264e-118
6.8770189e-61
1.5394815e-64
2.3212525e-68
2.1232223e-72
1.1322477e-76
3.3295825e-81
4.9702053e-86
3.2869867e-91
7.9497065e-97
5.373275e-103
6.34682e-110
4.2210655e-118
3.4564165e-57
5.9997649e-61
1.3657551e-64
2.0716467e-68
1.9278325e-72
1.0464236e-76
3.0925498e-81
4.5622459e-86
2.936139e-91
6.871027e-97
4.5183747e-103
5.2580791e-110
3.5049114e-118
2.2774882e-52
2.6160901e-57
5.2637359e-61
1.2193823e-64
1.8843834e-68
1.7837828e-72
9.6925531e-77
2.8168549e-81
4.0309855e-86
2.5069647e-91
5.7179627e-97
3.7305817e-103
4.403826e-110
3.0464674e-118
2.9607601e-46
1.2747982e-52
2.0346529e-57
4.625645e-61
1.1080754e-64
1.745289e-68
1.6482266e-72
8.7581492e-77
2.4597811e-81
3.4021309e-86
2.0694153e-91
4.7203139e-97
3.1625467e-103
3.9297843e-110
2.9117688e-118
5.0178865e-40
1.7500352e-46
6.8470954e-53
1.5458341e-57
4.1420837e-61
1.0266801e-64
1.6103384e-68
1.4781533e-72
7.5584471e-77
2.0531116e-81
2.7919514e-86
1.7136581e-91
4.0632235e-97
2.9013224e-103
3.8954119e-110
3.1161499e-118
3.9604487e-34
3.6809625e-40
8.2344278e-47
2.7695171e-53
1.2097086e-57
3.8149981e-61
9.4760703e-65
1.4349858e-68
1.2613543e-72
6.2445043e-77
1.6786183e-81
2.3260699e-86
1.5013346e-91
3.8337338e-97
2.9729235e-103
4.29763e-110
3.6224161e-118
1.1552165e-28
3.5336525e-34
1.8460589e-40
2.0062328e-47
1.0234573e-53
1.0284548e-57
3.5220897e-61
8.4060173e-65
1.2113427e-68
1.0323832e-72
5.0974271e-77
1.4112144e-81
2.0772801e-86
1.4552203e-91
4.0431412e-97
3.3544217e-103
5.0424127e-110
4.280385e-118
1.1239087e-23
1.1960351e-28
1.8890912e-34
4.0768526e-41
3.1226136e-48
5.0642919e-54
9.2057484e-58
3.1138785e-61
7.0207439e-65
9.8243418e-69
8.4288393e-73
4.3359512e-77
1.2867002e-81
2.0637445e-86
1.5705385e-91
4.6278594e-97
3.9333021e-103
5.8536219e-110
4.7765422e-118
3.3038217e-19
1.2898675e-23
6.718297e-29
4.0777065e-35
5.3498732e-42
7.2803034e-49
3.6146667e-54
8.0078661e-58
2.5688688e-61
5.6359255e-65
8.0297586e-69
7.2674109e-73
4.0410973e-77
1.3075686e-81
2.2645565e-86
1.8082084e-91
5.3759817e-97
4.4466211e-103
6.2662981e-110
4.7450043e-118
2.7074071e-15
4.0048997e-19
7.4985829e-24
1.4482992e-29
5.6173833e-36
1.3648314e-42
4.3870462e-49
2.8845267e-54
6.4173293e-58
2.0328962e-61
4.6089153e-65
7.0260059e-69
6.9227392e-73
4.1920266e-77
1.4502612e-81
2.6005353e-86
2.0644352e-91
5.8786703e-97
4.5392974e-103
5.8752629e-110
4.0467224e-118
5.6243818e-12
3.3027379e-15
2.439728e-19
1.6736319e-24
2.2475542e-30
2.134954e-36
1.2916847e-42
3.7182705e-49
1.9422673e-54
4.8916691e-58
1.6580963e-61
4.0942538e-65
6.8384e-69
7.3069327e-73
4.676103e-77
1.6484368e-81
2.8965455e-86
2.1723818e-91
5.7009767e-97
4.0072808e-103
4.6950982e-110
2.9293553e-118
2.9092343e-09
6.6613412e-12
2.0823683e-15
6.1262228e-20
3.160739e-25
1.3227549e-30
3.3841349e-36
1.5381773e-42
1.6016853e-49
1.1171593e-54
3.9063485e-58
1.4941835e-61
4.0710089e-65
7.322968e-69
8.1531437e-73
5.2290964e-77
1.7786645e-81
2.9201085e-86
1.9981244e-91
4.7362072e-97
3.0060152e-103
3.1966179e-110
1.8325149e-118
3.7416498e-07
3.3267363e-09
4.4177845e-12
6.0677833e-16
1.6075053e-20
2.7520772e-25
3.1274529e-30
5.2019649e-36
5.962335e-43
2.6871978e-50
7.114394e-55
3.5420381e-58
1.5181885e-61
4.4146282e-65
8.1352684e-69
8.9210894e-73
5.4370513e-77
1.7095662e-81
2.5456618e-86
1.5655449e-91
3.347257e-97
1.9393999e-103
1.9182562e-110
1.051006e-118
1.1149521e-05
4.1226572e-07
2.3003536e-09
1.5420557e-12
2.197372e-16
1.7398017e-20
8.2560682e-25
5.5792136e-30
2.0438253e-36
4.583533e-44
3.7311007e-51
5.8784615e-55
3.6752089e-58
1.6667959e-61
4.8660505e-65
8.6682192e-69
8.9046375e-73
4.9653128e-77
1.4101737e-81
1.8879938e-86
1.0495508e-91
2.0670388e-97
1.1344271e-103
1.1026606e-110
6.2063557e-119
6.3138201e-05
1.186878e-05
2.9948445e-07
9.5616318e-10
7.2914068e-13
2.7807474e-16
5.5182789e-20
1.5634874e-24
2.1898973e-30
1.2933111e-37
1.079814e-45
1.1353678e-51
6.0463435e-55
4.0926378e-58
1.8198648e-61
5.0283455e-65
8.277147e-69
7.7172687e-73
3.8727314e-77
9.9270772e-82
1.211976e-86
6.2886067e-92
1.2018276e-97
6.7139563e-104
7.0105534e-111
4.4632322e-119
0.00013117783
6.5051908e-05
9.4421085e-06
1.4822181e-07
5.6220564e-10
1.0237604e-12
8.5064221e-16
1.0377825e-19
6.0770219e-25
1.2658502e-31
1.8583126e-39
2.7014729e-47
8.1371005e-52
6.8021915e-55
4.4285066e-58
1.8179328e-61
4.5772331e-65
6.8007796e-69
5.7042376e-73
2.5966011e-77
6.1595606e-82
7.1680196e-87
3.7173862e-92
7.5412407e-98
4.7470394e-104
5.8680584e-111
4.543775e-119
0.00018967562
0.00013352102
5.8247955e-05
5.735203e-06
1.0332916e-07
8.4442174e-10
2.8788542e-12
1.5217964e-15
4.0087014e-20
3.4456164e-26
1.5526716e-33
1.6655577e-41
3.2100916e-48
8.4982049e-52
7.299669e-55
4.2658626e-58
1.5715583e-61
3.5604889e-65
4.7773426e-69
3.6687294e-73
1.5727644e-77
3.663547e-82
4.4176699e-87
2.5429768e-92
6.0932203e-98
4.7032735e-104
7.1754113e-111
6.7011566e-119
0.00023543089
0.00019088327
0.00012455227
4.5012674e-05
4.575715e-06
1.5973335e-07
2.1416062e-09
4.7883793e-12
5.8973544e-16
2.3983516e-21
4.6847066e-28
1.320476e-35
6.2401072e-43
2.0647283e-48
8.9413724e-52
6.7637466e-55
3.4861131e-58
1.1547386e-61
2.3835633e-65
2.972421e-69
2.1992877e-73
9.5798999e-78
2.4169702e-82
3.3748003e-87
2.3857668e-92
7.1595379e-98
6.7869396e-104
1.2168403e-110
1.2665138e-118
0.00027298743
0.00023576851
0.00017982217
0.00010730233
4.0132966e-05
6.7651674e-06
3.6052277e-07
3.2459151e-09
1.8877196e-12
3.9511299e-17
4.3882303e-23
6.3585746e-30
1.0302427e-36
4.7070776e-43
2.2286853e-48
7.8619597e-52
5.1924225e-55
2.410955e-58
7.3826832e-62
1.4478171e-65
1.7911496e-69
1.3995006e-73
6.9165563e-78
2.1052848e-82
3.6870319e-87
3.2768573e-92
1.18372e-97
1.2712314e-103
2.4383321e-110
2.5918818e-118
0.00030458652
0.00027223314
0.00022327427
0.00016143953
0.00010080096
5.0772351e-05
1.2387814e-05
4.9369041e-07
1.3175012e-09
1.4940585e-13
1.0363429e-18
1.0787299e-24
1.2298998e-30
2.286232e-36
9.1564434e-43
1.6520847e-48
5.5118477e-52
3.3589077e-55
1.4742114e-58
4.4185276e-62
8.9136663e-66
1.2145018e-69
1.124661e-73
6.9406993e-78
2.6674029e-82
5.7638081e-87
5.9832206e-92
2.3544791e-97
2.6007808e-103
4.9302491e-110
5.0465014e-118
0.00033102996
0.00030240741
0.00025852704
0.00020419684
0.00015561398
0.0001156775
6.9215969e-05
1.4920203e-05
2.1225311e-07
1.2881667e-10
5.7950368e-15
4.8793197e-20
4.5300823e-25
5.3041936e-30
6.9590236e-36
5.396123e-43
7.1177859e-49
3.255233e-52
1.9630161e-55
8.776073e-59
2.824874e-62
6.5565269e-66
1.0988659e-69
1.296829e-73
1.0061334e-77
4.6133743e-82
1.1186114e-86
1.2195187e-91
4.7728967e-97
5.0689647e-103
9.0662426e-110
8.6739413e-118
0.00035158385
0.00032711807
0.00028802771
0.00023901665
0.00019929211
0.00017285642
0.00013858281
7.4570734e-05
7.765879e-06
2.6756415e-08
7.5781831e-12
5.4083699e-16
4.0040467e-20
2.7560284e-24
1.9057577e-29
4.2305801e-36
5.045813e-44
2.6725053e-49
1.8029485e-52
1.1724821e-55
5.9184459e-59
2.2880845e-62
6.713851e-66
1.4404453e-69
2.0975728e-73
1.8743635e-77
9.2119183e-82
2.2661504e-86
2.3928211e-91
8.810325e-97
8.6838062e-103
1.4346872e-109
1.2684336e-117
0.00036663819
0.00034620294
0.00031194631
0.00026884546
0.00023454525
0.00021771853
0.00019787041
0.0001442033
5.2900413e-05
1.4556636e-06
2.455406e-09
1.4065681e-12
7.5992398e-16
2.8053803e-19
1.043393e-23
1.2113131e-29
2.6182803e-37
1.4929124e-45
1.2150659e-49
1.0871013e-52
8.4614145e-56
5.3368433e-59
2.6494527e-62
9.8450496e-66
2.5287513e-69
4.0828725e-73
3.7642724e-77
1.8115208e-81
4.2256517e-86
4.1306035e-91
1.3932951e-96
1.2561072e-102
1.9040064e-109
1.5530446e-117
0.00037692671
0.00036002406
0.00033069201
0.00029351689
0.0002647321
0.00025291258
0.00024251945
0.00020177409
0.0001166327
1.9571372e-05
2.1673842e-07
8.6475853e-10
2.9662861e-12
5.374691e-15
1.0455779e-18
6.8205729e-24
7.6396008e-31
1.6668231e-39
1.0528141e-46
7.2365859e-50
8.4941843e-53
8.5509033e-56
6.942883e-59
4.2632517e-62
1.82697e-65
5.006113e-69
8.0677216e-73
7.0890487e-77
3.1669594e-81
6.7586909e-86
5.9924723e-91
1.8338764e-96
1.5070739e-102
2.0969888e-109
1.5831595e-117
0.0003826439
0.0003693666
0.00034457608
0.00031340819
0.00028998276
0.00028207236
0.00027609022
0.00024419856
0.00017051806
6.8191378e-05
5.4611882e-06
1.3072161e-07
2.3956008e-09
1.9381615e-11
1.8781466e-14
6.9475936e-19
4.6643274e-25
4.5746249e-33
3.5237177e-42
3.8918265e-47
6.1557258e-50
9.641504e-53
1.2368786e-55
1.2010994e-58
8.1653498e-62
3.5979628e-65
9.5648235e-69
1.4367098e-72
1.1512527e-76
4.6581825e-81
8.9626742e-86
7.155345e-91
1.9844795e-96
1.4897557e-102
1.9108429e-109
1.3429235e-117
0.00038446388
0.00037466898
0.00035440733
0.00032888739
0.0003105998
0.0003059974
0.00030267663
0.00027575144
0.00021170348
0.00011914434
3.5417519e-05
4.8638425e-06
4.1447392e-07
1.3612096e-08
6.0977559e-11
1.2587243e-14
5.3262403e-20
3.3118258e-27
6.2897364e-36
5.3884641e-44
3.3497279e-47
7.8214478e-50
1.5320159e-52
2.2564313e-55
2.325367e-58
1.5713959e-61
6.5562022e-65
1.5949102e-68
2.1545203e-72
1.544508e-76
5.609055e-81
9.6984616e-86
6.9729262e-91
1.7581413e-96
1.211637e-102
1.4414822e-109
9.4983115e-118
0.00038373533
0.00037685918
0.00036074374
0.00034070317
0.00032698889
0.00032525904
0.00032375398
0.00030046864
0.00024325549
0.00016094646
8.3814468e-05
3.8117134e-05
1.3653634e-05
1.8879695e-06
3.7266748e-08
4.0934325e-11
1.1142955e-15
4.9503534e-22
7.0388404e-30
8.0394504e-39
1.6737402e-44
4.6788781e-47
1.3502718e-49
2.8989985e-52
4.3415147e-55
4.309718e-58
2.7018851e-61
1.0170392e-64
2.2005419e-68
2.6345321e-72
1.6792324e-76
5.4677555e-81
8.5068979e-86
5.5317809e-91
1.2748723e-96
8.1179794e-103
9.0249281e-110
5.6216722e-118
0.00038110315
0.00037692575
0.0003646466
0.00034932607
0.0003399397
0.00034029262
0.00034013588
0.00031984632
0.00026986496
0.0001940111
0.00012809653
9.313094e-05
7.1127004e-05
3.6295572e-05
4.1840224e-06
2.5014759e-08
4.2943936e-12
1.442009e-17
1.7015425e-24
9.5551277e-33
4.8642851e-41
2.1767808e-44
8.7086311e-47
2.6191292e-49
5.4711664e-52
7.6601043e-55
6.9302482e-58
3.8804116e-61
1.2871629e-64
2.4498847e-68
2.5885221e-72
1.4676385e-76
4.2972767e-81
6.0389329e-86
3.5739848e-91
7.5794592e-97
4.4934675e-103
4.7077917e-110
2.7977283e-118
0.00037657384
0.00037556301
0.00036745868
0.00035570418
0.00034972249
0.00035199787
0.00035234142
0.00033466529
0.00029127175
0.00022408023
0.00016398557
0.00014205507
0.00013749937
0.0001137653
5.3913091e-05
2.903704e-06
3.1887894e-09
7.9914608e-14
7.7228726e-20
3.5110042e-27
1.1217501e-35
1.1593519e-41
4.3041821e-44
1.7219656e-46
4.8017778e-49
9.1068958e-52
1.1435845e-54
9.181916e-58
4.4945853e-61
1.3030948e-64
2.176008e-68
2.0312085e-72
1.0283974e-76
2.7211101e-81
3.4728844e-86
1.8844898e-91
3.7062776e-97
2.0635396e-103
2.0568842e-110
1.1781026e-118
0.00037365097
0.00037403211
0.00036975202
0.00036098606
0.00035684196
0.0003604404
0.00036114616
0.00034536242
0.00030852171
0.00024972711
0.00019460442
0.00018113098
0.00019121411
0.00018527003
0.00013607689
4.3577862e-05
4.8982635e-07
8.6621448e-11
6.4531688e-16
2.4346127e-22
5.2669409e-30
8.9814584e-38
2.0734561e-41
8.7201751e-44
3.0497769e-46
7.479082e-49
1.2535875e-51
1.3912059e-54
9.7170661e-58
4.1334134e-61
1.0459329e-64
1.5347803e-68
1.2705962e-72
5.7784122e-77
1.3900589e-81
1.6223096e-86
8.1387226e-92
1.497779e-97
7.909823e-104
7.582193e-111
4.2335725e-119
0.00037162138
0.00037493805
0.00037538843
0.00036520788
0.00036216777
0.00036606303
0.00036667144
0.00035259714
0.00032194203
0.00027146451
0.00022138512
0.00021154776
0.00023155426
0.0002408534
0.00020687535
0.00012010383
1.4272088e-05
1.9779156e-08
1.0272066e-12
3.0733324e-18
6.5044148e-25
4.3603221e-32
1.2936023e-37
4.9410354e-41
1.4943905e-43
4.4103024e-46
9.4176537e-49
1.3898819e-51
1.3433318e-54
8.1115751e-58
2.9968132e-61
6.6320006e-65
8.5852127e-69
6.3397114e-73
2.6090659e-77
5.7467124e-82
6.1851594e-87
2.8961424e-92
5.0407558e-98
2.5547802e-104
2.3849154e-111
1.3152233e-119
0.00036850173
0.00037606015
0.00037581297
0.00037592187
0.00036555662
0.00036951516
0.0003695112
0.0003567779
0.00033212834
0.00028978887
0.00024446527
0.00023654582
0.00026141751
0.00027963083
0.00026020414
0.00018655861
6.8746579e-05
1.0769365e-06
3.3815081e-10
7.5133733e-15
1.7579621e-20
2.4879417e-26
1.8046904e-31
1.1678104e-36
9.1190917e-41
1.9846209e-43
5.0295799e-46
9.4422814e-49
1.2228418e-51
1.0171927e-54
5.3108555e-58
1.7081551e-61
3.3196405e-65
3.8126984e-69
2.5303997e-73
9.5100794e-78
1.9346924e-82
1.9413812e-87
8.5855308e-93
1.4327327e-98
7.0730801e-105
6.5307239e-112
3.6132157e-120
0.00036686065
0.0003723513
0.00037846629
0.00037517322
0.000375245
0.00037072859
0.00037008635
0.00035857599
0.00033960646
0.00030514563
0.00026431524
0.00025765961
0.00028310917
0.00030520703
0.00029436374
0.00023573396
0.00012851495
1.4113896e-05
2.7479542e-08
4.0481128e-12
1.1725582e-16
3.7417805e-21
2.5567793e-25
3.786455e-30
4.4545547e-36
1.0242398e-40
2.0079162e-43
4.5135298e-46
7.5326851e-49
8.3923907e-52
6.0126478e-55
2.7215845e-58
7.6541411e-62
1.3142008e-65
1.3497694e-69
8.1346499e-74
2.8259424e-78
5.376025e-83
5.1091319e-88
2.1707753e-93
3.5423048e-99
1.7391937e-105
1.6217592e-112
9.1802794e-121
0.00036962513
0.00036643111
0.00037537349
0.00037859113
0.00037305764
0.00037252518
0.00036864073
0.00035855466
0.00034508291
0.00031785558
0.00028134124
0.00027541411
0.00030060589
0.00032294058
0.00031550112
0.00026853368
0.00017536705
5.1274955e-05
6.7806381e-07
6.1001159e-10
2.2171223e-13
1.1489159e-16
5.9870787e-20
5.395853e-24
1.8937669e-29
3.1666736e-36
7.4267315e-41
1.5797074e-43
3.2282282e-46
4.6800305e-49
4.4769828e-52
2.7710139e-55
1.0926697e-58
2.7054348e-62
4.1416955e-66
3.8504464e-70
2.1414981e-74
7.007915e-79
1.2736372e-83
1.1762669e-88
4.9477223e-94
8.1532229e-100
4.1114128e-106
3.9884928e-113
2.3678505e-121
0.00036532396
0.00036571126
0.00036690673
0.00037683997
0.00037664367
0.00036889333
0.00036626475
0.00035726359
0.00034931469
0.00032846286
0.00029587394
0.00029031262
0.00031447916
0.00033629623
0.00033043339
0.00029141901
0.00021018459
9.2890189e-05
6.2052741e-06
3.2750826e-08
1.288833e-10
6.760251e-13
2.0854297e-15
1.0909642e-18
2.5614525e-23
1.2406506e-29
4.0103855e-37
4.3963109e-41
9.9490448e-44
1.8102477e-46
2.2516047e-49
1.8562216e-52
9.9823872e-56
3.4578442e-59
7.6271121e-63
1.0582885e-66
9.1096701e-71
4.819449e-75
1.5404511e-79
2.7928168e-84
2.6348655e-89
1.1592451e-94
2.0374136e-100
1.1084072e-106
1.1632075e-113
7.4309364e-122
0.00035547752
0.0003602146
0.0003618316
0.00036716401
0.00037626438
0.00037246872
0.00036116547
0.00035569067
0.00035264023
0.00033775135
0.00030830711
0.00030268312
0.00032547617
0.00034544732
0.00034035189
0.00030794966
0.00024104664
0.00012774264
2.4537572e-05
7.4160474e-07
2.2415085e-08
7.7012337e-10
1.1452529e-11
3.0953929e-14
4.6582382e-18
1.72919e-23
8.0010194e-31
2.690626e-38
2.3065472e-41
4.9892058e-44
7.8450159e-47
8.4026314e-50
6.0137872e-53
2.841761e-56
8.7944249e-60
1.7714862e-63
2.3085518e-67
1.9335872e-71
1.0382632e-75
3.4983789e-80
6.906705e-85
7.2960674e-90
3.6689219e-95
7.4137723e-101
4.5958698e-107
5.3828234e-114
3.7298889e-122
0.00035597642
0.00035267327
0.00035389352
0.00035776519
0.00036616512
0.00037334225
0.00036478748
0.0003493879
0.00034049964
0.00034579815
0.00031903971
0.00031284993
0.00033377009
0.00035175715
0.00034586324
0.00031915994
0.00026512771
0.00016616877
5.3287895e-05
7.0204891e-06
1.1207509e-06
1.7683761e-07
1.0800899e-08
1.3236951e-10
1.1583168e-13
3.2001315e-18
1.3036517e-24
4.8604104e-33
4.8409296e-39
1.012683e-41
1.9414878e-44
2.6364165e-47
2.457035e-50
1.552197e-53
6.6158219e-57
1.9041767e-60
3.7178315e-64
4.9494867e-68
4.5068902e-72
2.8004984e-76
1.1414748e-80
2.8025102e-85
3.7091371e-90
2.3082638e-95
5.5976167e-101
3.9944857e-107
5.1448152e-114
3.7460567e-122
0.00035355117
0.00035703029
0.00034841929
0.00034701084
0.0003528213
0.00036320376
0.00036729439
0.00035311792
0.00033336786
0.00031990302
0.00032843699
0.00032112362
0.00033975189
0.00035512604
0.00034801151
0.00032565616
0.0002838267
0.00019881252
8.9935775e-05
2.8426065e-05
1.4411729e-05
7.8881607e-06
1.8268668e-06
9.3099556e-08
4.2416716e-10
8.0014168e-14
2.9459631e-19
9.3164953e-27
1.0893568e-35
1.600877e-39
3.5061467e-42
5.8787755e-45
6.9967202e-48
5.8235994e-51
3.3888527e-54
1.3932906e-57
4.122725e-61
8.9650523e-65
1.4512996e-68
1.7393726e-72
1.4890722e-76
8.370761e-81
2.7552225e-85
4.6583556e-90
3.4988692e-95
9.6732082e-101
7.474654e-107
9.9722691e-114
7.2386202e-122
0.00033669518
0.00035886226
0.00035612002
0.00034264996
0.00033902992
0.00034641548
0.00035760277
0.00035742745
0.00033738786
0.00031233503
0.00029374946
0.00032758261
0.00034374219
0.00035623085
0.00034725531
0.00032841018
0.00029776466
0.00022706652
0.00012514617
5.8923688e-05
5.3669869e-05
5.4607928e-05
3.8184075e-05
9.7240203e-06
2.4815147e-07
2.9294215e-10
8.9507019e-15
3.2585741e-21
7.5551354e-30
3.3424048e-37
4.7835119e-40
9.5580049e-43
1.4281007e-45
1.5540555e-48
1.2396036e-51
7.4247675e-55
3.4594377e-58
1.2970299e-61
3.9636327e-65
9.6241401e-69
1.7419719e-72
2.1406423e-76
1.5979455e-80
6.4446756e-85
1.2472034e-89
1.0151583e-94
2.9169535e-100
2.2703677e-106
2.9783823e-113
2.083607e-121
0.0003324875
0.00034354798
0.00036193027
0.00035316078
0.00033496664
0.00032945364
0.00033790497
0.0003486603
0.00034354816
0.00031676535
0.00028610239
0.00026201763
0.0003457271
0.00035516161
0.0003442104
0.00032832593
0.00030770601
0.00025131226
0.00015730674
9.1710784e-05
9.2323132e-05
0.00011787881
0.00011828726
8.2811946e-05
1.8407805e-05
1.719763e-07
4.0024892e-11
1.5211164e-16
4.8998355e-24
5.1726429e-33
5.4729197e-38
1.1667397e-40
2.1524626e-43
3.0668751e-46
3.4217962e-49
3.1150179e-52
2.4300172e-55
1.6739177e-58
1.0046604e-61
4.9335972e-65
1.8036759e-68
4.4416611e-72
6.6951544e-76
5.6479071e-80
2.4225183e-84
4.7962658e-89
3.8925971e-94
1.096708e-99
8.2769853e-106
1.0443758e-112
6.9779578e-121
0.00034579225
0.0003359549
0.00034890767
0.00036286039
0.00034806625
0.00032544434
0.00031778438
0.0003268734
0.0003359443
0.00032490767
0.00029099915
0.00025467997
0.00022521735
0.00035199809
0.00033910433
0.00032628857
0.00031459508
0.00027171599
0.00018656085
0.00012222843
0.00012485979
0.00016643005
0.00018912861
0.00017232074
0.0001049502
1.3922026e-05
2.9337326e-08
1.0404551e-12
4.5233802e-19
3.3310764e-27
2.1510719e-35
1.1157786e-38
2.4769121e-41
4.6797156e-44
7.5933722e-47
1.1165609e-49
1.5556041e-52
2.0450221e-55
2.37977e-58
2.2220527e-61
1.501791e-64
6.712657e-68
1.8421014e-71
2.9048718e-75
2.4617515e-79
1.0354896e-83
1.9862155e-88
1.5518935e-93
4.1972123e-99
3.0376095e-105
3.6739418e-112
2.2278967e-129
0.00034663883
0.00034379308
0.00033803327
0.0003526448
0.00036163917
0.0003409615
0.0003136853
0.00030371682
0.00031274296
0.00031878838
0.00030112492
0.00026025665
0.00021834764
0.00018060091
0.00033219091
0.00032278203
0.00031947565
0.0002886426
0.00021318496
0.00014988291
0.00015278008
0.0001994595
0.00024267066
0.00024257432
0.0001950633
9.2371588e-05
3.6699917e-06
1.178712e-09
5.9216778e-15
5.9613105e-22
1.6524859e-30
1.1093894e-36
2.2639385e-39
5.8046246e-42
1.4471583e-44
3.6616419e-47
9.4502527e-50
2.3340544e-52
4.9430612e-55
8.0261383e-58
9.1370035e-61
6.804732e-64
3.1372069e-67
8.5341565e-71
1.3058501e-74
1.0583579e-78
4.2405409e-83
7.7474444e-88
5.7758144e-93
1.4944524e-98
1.0377547e-104
1.6170955e-120
3.6797682e-139
0.00032358469
0.00033883685
0.00033969346
0.0003390855
0.00035465689
0.00035826993
0.00033149855
0.00029925388
0.00028686021
0.00029470539
0.00029680394
0.00027209843
0.00022394627
0.00017401596
0.00012479662
0.00031816598
0.00032314143
0.00030295786
0.00023729411
0.00017514047
0.00017693755
0.00022645276
0.00027585267
0.000291541
0.00026167679
0.00018006219
5.1042539e-05
2.5221582e-07
1.2549991e-11
1.509764e-17
4.2548636e-25
1.6428233e-33
1.7700429e-37
6.168233e-40
2.5067113e-42
1.1363743e-44
5.3652287e-47
2.3366455e-49
8.2689439e-52
2.1487913e-54
3.8244668e-57
4.4455753e-60
3.2452769e-63
1.4352908e-66
3.7078445e-70
5.3672122e-74
4.1040827e-78
1.5568132e-82
2.7044769e-87
1.9260549e-92
4.7828782e-98
6.7852329e-113
3.3714187e-130
3.0512755e-150
0.00031268173
0.00031329247
0.00032871909
0.00033420533
0.00033929498
0.00035466147
0.00035256032
0.00031930336
0.00028186389
0.00026662288
0.00027224102
0.00026953604
0.00023655138
0.00017907191
0.00011815342
5.8761226e-05
0.00032612976
0.00031571022
0.00025916129
0.00019845611
0.00019835397
0.00024869688
0.00030220055
0.0003230501
0.0003034219
0.00024571477
0.00013215676
1.0179001e-05
4.9663864e-09
5.9552272e-14
1.9699679e-20
1.8638607e-28
2.2896126e-35
5.9018369e-38
4.0751922e-40
3.3057107e-42
2.6994275e-44
1.9097357e-46
1.0422452e-48
4.0582625e-51
1.0711899e-53
1.8533689e-56
2.048049e-59
1.4070859e-62
5.8396106e-66
1.417135e-69
1.9289624e-73
1.3913577e-77
5.0077205e-82
8.302655e-87
5.6755403e-92
4.8089487e-106
2.1034522e-122
2.6120458e-141
1.4328543e-162
0.00032823338
0.00030597972
0.00030142799
0.00031709517
0.00032841435
0.00033823287
0.00035240178
0.0003440074
0.00030417976
0.00026090997
0.00024220169
0.00024461592
0.00023557643
0.00019174765
0.00012184138
5.3933466e-05
9.7770334e-06
0.00032805
0.00027904456
0.00022013394
0.00021761267
0.00026771623
0.00032292091
0.00034683369
0.00033107482
0.00028517702
0.000200096
6.291253e-05
4.3952696e-07
4.2201324e-11
1.3867427e-16
1.3523062e-23
1.0096019e-31
5.6172686e-36
6.2170932e-38
8.6547245e-40
1.1333545e-41
1.2062795e-43
9.5301094e-46
5.2894064e-48
1.9912646e-50
4.9574371e-53
8.0068569e-56
8.2347179e-59
5.2712222e-62
2.0454267e-65
4.6650068e-69
5.9766785e-73
4.0839407e-77
1.4018656e-81
2.2310833e-86
8.9172364e-100
2.3969636e-115
2.0700127e-133
8.0648956e-154
5.4177861e-176
0.00033928419
0.00032868036
0.00029784609
0.00028819504
0.0003049883
0.0003209643
0.00033514528
0.0003472831
0.00033261516
0.00028534217
0.00023580796
0.00021316434
0.00021138886
0.00019242919
0.00013346913
5.6844656e-05
8.230794e-06
3.221357e-07
0.00029767925
0.00024036267
0.00023497403
0.00028398159
0.00034032442
0.00036448966
0.00034989088
0.00031124244
0.00024820039
0.00012906972
9.3512127e-06
6.5759653e-09
1.6877126e-13
1.628217e-19
5.4736441e-27
1.1349677e-33
8.7019057e-36
1.9416764e-37
3.789624e-39
5.7047693e-41
6.2218889e-43
4.742583e-45
2.4670198e-47
8.5993782e-50
1.9759204e-52
2.9493959e-55
2.8131991e-58
1.678344e-61
6.1051771e-65
1.3124091e-68
1.590654e-72
1.0359016e-76
3.4131846e-81
5.5222731e-94
7.3967298e-109
3.6300372e-126
5.4704566e-146
1.9733072e-167
2.8016463e-190
0.00031497616
0.00034804202
0.00032697709
0.00028825831
0.00027357203
0.00029067145
0.00031160199
0.00032932029
0.00033904062
0.00031743317
0.00026220407
0.00020603999
0.00017926221
0.00016946971
0.00013577151
6.5758324e-05
9.0685351e-06
2.453819e-07
2.596156e-09
0.00025923176
0.00025058492
0.0002974245
0.00035460554
0.00037827443
0.00036180009
0.00032664848
0.00027993112
0.00019072685
4.7280464e-05
2.8104738e-07
4.3631592e-11
3.2950025e-16
1.0031017e-22
3.4625387e-30
1.1398202e-33
3.584865e-35
9.8167475e-37
1.9942287e-38
2.8959032e-40
2.9436383e-42
2.0616168e-44
9.8123788e-47
3.1327579e-49
6.6188453e-52
9.1316645e-55
8.0972204e-58
4.5198981e-61
1.5490617e-64
3.1518433e-68
3.6377926e-72
2.2735565e-76
1.3367037e-88
7.7383669e-103
1.8941239e-119
1.14563e-138
7.9135356e-160
8.2335225e-182
2.9464484e-205
0.00027671007
0.00033032468
0.0003536675
0.00032325346
0.00027699471
0.00025728649
0.00027432218
0.00029948672
0.00032011016
0.00032688976
0.00029772005
0.0002333639
0.00017056312
0.00013711487
0.00011536757
6.7696652e-05
1.2038376e-05
2.7144811e-07
1.7560288e-09
5.3546508e-12
0.00026429099
0.00030788944
0.00036515374
0.00038842503
0.00036857386
0.00033359752
0.0002980449
0.00023573565
0.0001113453
3.9890844e-06
3.012651e-09
1.3683051e-13
3.2611946e-19
4.1742247e-26
1.9858306e-31
5.3260785e-33
1.94786e-34
5.1532603e-36
9.6787725e-38
1.2795318e-39
1.1791644e-41
7.4942304e-44
3.2486213e-46
9.4961645e-49
1.8487142e-51
2.3659271e-54
1.9593498e-57
1.0288978e-60
3.3429727e-64
6.4714894e-68
7.1650949e-72
1.4114693e-83
3.1845125e-97
3.4981549e-113
8.9444874e-132
1.2309332e-152
1.9926898e-174
8.3613573e-197
8.4896812e-221
0.00027625261
0.00029268606
0.0003428458
0.00035642539
0.00031735025
0.00026400048
0.00023906077
0.00025516592
0.0002839084
0.00030675335
0.00031003219
0.00027192398
0.00019730379
0.00012643241
8.4297586e-05
5.145683e-05
1.2820636e-05
3.9975052e-07
1.8800014e-09
3.1229642e-12
2.8284832e-15
0.00031495668
0.00037106064
0.00039418869
0.00037033862
0.00033372931
0.00030601495
0.00026660712
0.00016866723
3.2607938e-05
7.1918245e-08
1.4613078e-11
2.1219139e-16
1.8165729e-22
1.0828492e-28
6.480138e-31
2.9671641e-32
9.924978e-34
2.352274e-35
3.9530855e-37
4.6913439e-39
3.8986195e-41
2.2462798e-43
8.8816179e-46
2.3844002e-48
4.2953784e-51
5.1252655e-54
3.9871818e-57
1.9821939e-60
6.1389134e-64
1.1392572e-67
7.0518472e-79
5.729276e-92
2.5922116e-107
2.7844631e-125
9.9616389e-146
1.6550102e-167
1.5656544e-189
2.5132568e-212
8.4713658e-237
0.00031885082
0.0002865461
0.00030719731
0.00035237915
0.00035635643
0.00030931788
0.00024898432
0.00021847853
0.00023282635
0.00026428523
0.00028877835
0.00028774961
0.00023761189
0.00015063263
7.2338047e-05
2.8539423e-05
7.4780576e-06
4.4962196e-07
2.9456902e-09
3.1437189e-12
1.3713724e-15
3.9690684e-19
0.00037146505
0.00039390885
0.00036666874
0.00032783922
0.00030635673
0.00028519923
0.0002171957
8.5289534e-05
2.0033147e-06
5.1320581e-10
3.4205673e-14
1.7618697e-19
1.4646063e-25
7.3140994e-29
3.5505357e-30
1.4515864e-31
4.2245424e-33
8.8294191e-35
1.3210248e-36
1.4061889e-38
1.0550647e-40
5.525115e-43
1.999835e-45
4.9530685e-48
8.3003156e-51
9.2902139e-54
6.8346199e-57
3.2401758e-60
9.6231634e-64
1.7745777e-74
4.8743983e-87
8.4774187e-102
3.6941684e-119
4.1110936e-139
8.6291924e-161
7.5290565e-183
4.4036036e-205
2.6660431e-228
5.649483e-253
0.00036625183
0.0003195512
0.00029580842
0.0003200595
0.00035890943
0.0003535022
0.00029879943
0.00023160699
0.0001952244
0.00020699888
0.00024006205
0.00026522344
0.0002568046
0.00018929624
9.1984247e-05
2.0286244e-05
2.5590403e-06
2.1792922e-07
3.5054495e-09
5.2266679e-12
1.2557732e-15
1.615087e-19
1.5964656e-23
0.00038654827
0.00035686773
0.00031648707
0.00030066047
0.00029526458
0.00025384852
0.00014084298
1.7118847e-05
3.3277348e-08
1.7189591e-12
4.2996002e-17
1.4151368e-22
1.0621945e-26
3.5333535e-28
1.6870899e-29
5.7986649e-31
1.4536927e-32
2.6820759e-34
3.5814622e-36
3.4288969e-38
2.3302406e-40
1.1133956e-42
3.7062082e-45
8.5140673e-48
1.3353558e-50
1.4115489e-53
9.8945554e-57
4.5071679e-60
2.3643695e-70
2.0835209e-82
1.3165065e-96
2.2347871e-113
8.3377296e-133
3.1511388e-154
1.9601031e-176
1.6015814e-198
4.7569301e-221
1.8998757e-244
3.3682102e-269
0.0003716933
0.00035574424
0.00031850102
0.00030435382
0.00033082096
0.00036226443
0.00034770299
0.00028546799
0.00021138812
0.0001689414
0.00017739317
0.00021025491
0.00023489498
0.00021072765
0.00012684768
3.012784e-05
1.3404987e-06
5.2400358e-08
1.562168e-09
6.5904879e-12
2.2018748e-15
1.2570448e-19
5.6113694e-24
2.0191302e-28
0.00034090209
0.00030034014
0.00029040859
0.00029929833
0.00028160554
0.00019253158
5.7415131e-05
6.8766851e-07
2.5102404e-10
3.549855e-15
8.0937624e-20
5.7250338e-24
4.1992533e-26
1.7016733e-27
6.5447255e-29
1.8747035e-30
4.0179009e-32
6.5652668e-34
7.856272e-36
6.7900818e-38
4.1960637e-40
1.8376969e-42
5.6559841e-45
1.2125638e-47
1.7920512e-50
1.8024606e-53
1.2139406e-56
1.7375982e-66
4.6948069e-78
1.0279854e-91
6.5478041e-108
8.369996e-127
7.2299409e-148
4.1667865e-170
2.3644932e-192
1.5886289e-214
3.5729244e-237
1.2070107e-260
1.7986992e-285
0.00031910629
0.00035027007
0.00034204671
0.00031671391
0.00031172449
0.00033893342
0.00036236837
0.00033863126
0.00026892057
0.00018774878
0.00013941439
0.00014374571
0.00017807791
0.00019178303
0.00014769441
5.446597e-05
2.2047642e-06
1.9978872e-08
2.844232e-10
2.7737499e-12
2.8900602e-15
2.1840914e-19
3.616618e-24
6.3660533e-29
8.4492961e-34
0.00028037763
0.00027684045
0.00029939376
0.00030342693
0.00023936238
0.00010928612
6.7060376e-06
9.7510395e-09
1.2888906e-12
6.3017211e-17
4.8051514e-20
6.53666e-23
3.2403078e-25
7.0792548e-27
2.036198e-28
4.7799026e-30
8.8656373e-32
1.2937457e-33
1.3931639e-35
1.0912768e-37
6.1601063e-40
2.485889e-42
7.1172312e-45
1.4337215e-47
2.0117126e-50
1.9410408e-53
7.2917117e-63
5.7989166e-74
4.2233551e-87
9.7699102e-103
4.2925411e-121
9.4968479e-142
7.5174325e-164
2.4076196e-186
1.7561228e-208
1.2068e-230
2.4127567e-253
6.8312459e-277
8.6389562e-302