/*--------------------------------*- C++ -*----------------------------------*\
| =========                 |                                                 |
| \\      /  F ield         | OpenFOAM: The Open Source CFD Toolbox           |
|  \\    /   O peration     | Version:  5.0                                   |
|   \\  /    A nd           | Web:      www.OpenFOAM.org                      |
|    \\/     M anipulation  |                                                 |
\*---------------------------------------------------------------------------*/
FoamFile
{
    version     2.0;
    format      ascii;
    class       volScalarField;
    location    "320";
    object      nuTilda_0;
}
// * * * * * * * * * * * * * * * * * * * * * * * * * * * * * * * * * * * * * //

dimensions      [0 2 -1 0 0 0 0];

internalField   nonuniform List<scalar> 
9520
(
4.8295538e-33
5.1267115e-31
4.6748391e-33
2.6627944e-29
4.9641519e-31
4.5202068e-33
8.9877656e-28
2.5788076e-29
4.8009038e-31
4.3737646e-33
2.2192474e-26
8.7054922e-28
2.4942724e-29
4.6469124e-31
4.245884e-33
4.2844569e-25
2.1497874e-26
8.421503e-28
2.4149759e-29
4.5147181e-31
4.1422713e-33
6.7597391e-24
4.1505441e-25
2.0801187e-26
8.1568204e-28
2.3479777e-29
4.4104338e-31
4.0605754e-33
8.9797317e-23
6.5487881e-24
4.0168567e-25
2.015657e-26
7.9361152e-28
2.2962219e-29
4.3289936e-31
3.9896302e-33
1.0232809e-21
8.7014236e-23
6.3393318e-24
3.8941767e-25
1.9624502e-26
7.7679128e-28
2.2556339e-29
4.2544813e-31
3.9114132e-33
1.0148499e-20
9.9199621e-22
8.4265933e-23
6.14881e-24
3.7937307e-25
1.9221052e-26
7.6336687e-28
2.2160309e-29
4.1649988e-31
3.8077796e-33
8.8776773e-20
9.8446999e-21
9.6124478e-22
8.1786985e-23
5.9938286e-24
3.7173583e-25
1.8889082e-26
7.4936332e-28
2.1650588e-29
4.0425066e-31
3.6699332e-33
7.0436497e-19
8.6157505e-20
9.5472175e-21
9.3364056e-22
7.9780753e-23
5.8749285e-24
3.6518302e-25
1.8520328e-26
7.3043341e-28
2.0945638e-29
3.8832907e-31
3.5068847e-33
5.9304706e-18
6.8073424e-19
8.3615757e-20
9.2791627e-21
9.1133754e-22
7.8222889e-23
5.7676917e-24
3.5748101e-25
1.8007269e-26
7.0436674e-28
2.0058998e-29
3.7047861e-31
3.3472414e-33
9.499677e-17
5.5312758e-18
6.5882206e-19
8.1276612e-20
9.0615841e-21
8.9380842e-22
7.674298e-23
5.6351926e-24
3.4662987e-25
1.7311588e-26
6.7277891e-28
1.9119892e-29
3.5435926e-31
3.2311126e-33
3.2068534e-15
8.2157695e-17
5.1948174e-18
6.3786524e-19
7.9351492e-20
8.8895038e-21
8.7637342e-22
7.4830734e-23
5.4481076e-24
3.3226981e-25
1.6501294e-26
6.4123073e-28
1.8342591e-29
3.4430925e-31
3.1936983e-33
1.1568484e-13
2.8117175e-15
7.0367521e-17
4.8502425e-18
6.2047002e-19
7.7852069e-20
8.7130249e-21
8.5293379e-22
7.2133524e-23
5.2078288e-24
3.1624454e-25
1.5739085e-26
6.1749407e-28
1.7945754e-29
3.43441e-31
3.247459e-33
3.4476603e-12
1.0707983e-13
2.3309434e-15
5.614456e-17
4.5615519e-18
6.0783172e-19
7.6313108e-20
8.466517e-21
8.1986932e-22
6.8774318e-23
4.9518803e-24
3.0208438e-25
1.5222944e-26
6.083858e-28
1.8050051e-29
3.5191219e-31
3.3718352e-33
8.0116832e-11
3.3520668e-12
9.0223021e-14
1.6392649e-15
4.376764e-17
4.379773e-18
5.9585438e-19
7.4070697e-20
8.1162956e-21
7.7984554e-22
6.5366172e-23
4.7406979e-24
2.9357491e-25
1.5099872e-26
6.1636997e-28
1.8600837e-29
3.6627295e-31
3.5162458e-33
1.4149153e-09
8.0861371e-11
2.8704205e-12
6.1920069e-14
1.0293515e-15
3.6685263e-17
4.2602232e-18
5.7786693e-19
7.0817868e-20
7.7022937e-21
7.4120557e-22
6.2760303e-23
4.6310762e-24
2.9300834e-25
1.5387364e-26
6.3750879e-28
1.935863e-29
3.8030359e-31
3.6155596e-33
1.8527815e-08
1.465529e-09
7.0113587e-11
1.9587523e-12
3.7244732e-14
7.1384737e-16
3.370475e-17
4.1149688e-18
5.5079482e-19
6.7031997e-20
7.3223923e-21
7.1405056e-22
6.164631e-23
4.6485102e-24
2.9984637e-25
1.593959e-26
6.6198593e-28
1.9968915e-29
3.8702681e-31
3.6116616e-33
1.7630186e-07
1.9455819e-08
1.2817586e-09
4.7826329e-11
1.1919768e-12
2.6388527e-14
6.2781652e-16
3.1861876e-17
3.8940102e-18
5.1948044e-19
6.3732071e-20
7.0799789e-21
7.0522102e-22
6.2200171e-23
4.770073e-24
3.1043018e-25
1.6481249e-26
6.7724123e-28
2.0082964e-29
3.8107169e-31
3.4729419e-33
1.1904416e-06
1.8542481e-07
1.7215081e-08
8.8182186e-10
2.996775e-11
9.3243627e-13
2.5973829e-14
6.026629e-16
2.8879061e-17
3.6384107e-18
4.9356419e-19
6.185434e-20
7.0302611e-21
7.1468371e-22
6.3922347e-23
4.9261566e-24
3.1902178e-25
1.6700711e-26
6.7244834e-28
1.9478653e-29
3.6051922e-31
3.2052797e-33
5.6787053e-06
1.2427167e-06
1.6546026e-07
1.2194556e-08
5.8008321e-10
2.6143052e-11
1.044588e-12
2.7165922e-14
4.8928405e-16
2.5156308e-17
3.4385351e-18
4.807286e-19
6.1750131e-20
7.1507561e-21
7.3457769e-22
6.5749908e-23
5.0227257e-24
3.1983584e-25
1.6364883e-26
6.4238166e-28
1.8138311e-29
3.2765034e-31
2.85167e-33
1.9217404e-05
5.8758512e-06
1.1227894e-06
1.2161665e-07
8.7072606e-09
5.5816997e-10
3.2386505e-11
1.1652797e-12
2.1502821e-14
3.1369303e-16
2.24654e-17
3.35418e-18
4.8252959e-19
6.3009694e-20
7.342254e-21
7.5152819e-22
6.6424154e-23
4.9759478e-24
3.0923297e-25
1.5405607e-26
5.8930009e-28
1.6262733e-29
2.8844342e-31
2.4815299e-33
4.7750961e-05
1.970657e-05
5.3631962e-06
8.631281e-07
9.4120382e-08
8.8522434e-09
7.3425125e-10
3.7515578e-11
9.258872e-13
1.1356895e-14
1.9145643e-16
2.1408347e-17
3.3844725e-18
4.9392259e-19
6.4574945e-20
7.4624014e-21
7.5155127e-22
6.4970688e-23
4.7448918e-24
2.8712711e-25
1.3946296e-26
5.2254311e-28
1.4222666e-29
2.5107613e-31
2.1737438e-33
9.2039943e-05
4.8694332e-05
1.8186886e-05
4.3057355e-06
7.1421385e-07
9.956916e-08
1.1810348e-08
8.6355223e-10
2.9808194e-11
4.6598235e-13
4.4547472e-15
1.4200876e-16
2.1553625e-17
3.4768865e-18
5.0502682e-19
6.5134351e-20
7.3806354e-21
7.2555215e-22
6.1091229e-23
4.348366e-24
2.5709817e-25
1.2271481e-26
4.5619714e-28
1.2466892e-29
2.2395456e-31
1.9987236e-33
0.00014610336
9.3544459e-05
4.5488317e-05
1.5225121e-05
3.7633108e-06
7.7592097e-07
1.3165808e-07
1.3867137e-08
6.8451398e-10
1.4668956e-11
1.6161456e-13
1.7686941e-15
1.3054986e-16
2.2199632e-17
3.5473371e-18
5.0513525e-19
6.3656576e-20
7.030872e-21
6.7309956e-22
5.530364e-23
3.8601312e-24
2.2544582e-25
1.0754979e-26
4.0563949e-28
1.1415846e-29
2.1383919e-31
2.0039123e-33
0.00019825023
0.00014825471
8.8527686e-05
3.9395798e-05
1.3881533e-05
4.1597122e-06
1.0046916e-06
1.5266368e-07
1.0974368e-08
3.3522761e-10
4.8903815e-12
4.9648446e-14
1.0347369e-15
1.319643e-16
2.2604336e-17
3.5162168e-18
4.8735424e-19
5.9814842e-20
6.4397592e-21
6.029662e-22
4.8791274e-23
3.3889041e-24
1.9960121e-25
9.7688824e-27
3.8395376e-28
1.1368697e-29
2.2447431e-31
2.2051059e-33
0.00024129272
0.00019959185
0.00014083864
7.8486022e-05
3.6941892e-05
1.5470732e-05
5.2502817e-06
1.1438327e-06
1.208943e-07
5.4461568e-09
1.1459832e-10
1.4809484e-12
2.1679759e-14
9.2457716e-16
1.3371488e-16
2.2191227e-17
3.3451757e-18
4.5145132e-19
5.4126548e-20
5.7204628e-21
5.3049102e-22
4.3080221e-23
3.0510982e-24
1.863316e-25
9.5974693e-27
3.9905602e-28
1.2442071e-29
2.5589452e-31
2.5839924e-33
0.00027742504
0.00024187589
0.00018965661
0.00012649839
7.4568467e-05
4.1170879e-05
1.9009271e-05
5.8392849e-06
9.0945639e-07
6.1700201e-08
2.0037269e-09
3.8981166e-11
7.744633e-13
2.00715e-14
9.425991e-16
1.2958224e-16
2.078505e-17
3.0520637e-18
4.0380899e-19
4.7785792e-20
5.0383811e-21
4.734276e-22
3.9660525e-23
2.9428337e-24
1.9017282e-25
1.0374242e-26
4.520109e-28
1.4546723e-29
3.0440675e-31
3.0912027e-33
0.00030819117
0.00027697838
0.00023025323
0.00017287063
0.00012091863
8.2562668e-05
4.9245115e-05
2.0634022e-05
4.6748905e-06
4.8363347e-07
2.4822348e-08
7.8986078e-10
2.5552148e-11
9.4027203e-13
2.3730395e-14
8.7635163e-16
1.1866137e-16
1.8648896e-17
2.6994177e-18
3.551274e-19
4.2305206e-20
4.5672888e-21
4.4759504e-22
3.962963e-23
3.1173542e-24
2.1239042e-25
1.2050927e-26
5.3668202e-28
1.7400607e-29
3.6316656e-31
3.6539981e-33
0.00033411017
0.00030634152
0.00026400341
0.00021209925
0.00016716361
0.00013270732
9.6436543e-05
5.2317954e-05
1.6706148e-05
2.6194831e-06
2.144677e-07
1.1500591e-08
6.2902758e-10
3.6703996e-11
1.2454611e-12
2.0892765e-14
7.114277e-16
1.040671e-16
1.6306478e-17
2.3703543e-18
3.1730425e-19
3.9130137e-20
4.4475608e-21
4.6308974e-22
4.3427821e-23
3.5719369e-24
2.5060067e-25
1.4400752e-26
6.4067377e-28
2.0573938e-29
4.2326427e-31
4.1877779e-33
0.00035434616
0.00033054625
0.00029257447
0.0002450615
0.00020691093
0.00018225167
0.00015215574
0.00010083331
4.3059811e-05
9.945588e-06
1.2884067e-06
1.1783246e-07
1.0845983e-08
9.8615074e-10
5.0711066e-11
1.1060198e-12
1.1617348e-14
5.5726288e-16
8.9767718e-17
1.4327469e-17
2.1458776e-18
3.006009e-19
3.9301437e-20
4.7522232e-21
5.2172268e-22
5.0711644e-23
4.2460371e-24
2.99089e-25
1.7055056e-26
7.4740443e-28
2.3560299e-29
4.7521478e-31
4.610094e-33
0.00036921089
0.0003493122
0.00031589804
0.00027373697
0.000240146
0.00022378841
0.00020547949
0.00015772138
8.4797036e-05
2.7353236e-05
5.4609073e-06
8.4046362e-07
1.2736111e-07
1.7631076e-08
1.3808269e-09
4.5543377e-11
5.5525151e-13
4.8318013e-15
4.5740444e-16
7.9040872e-17
1.3189481e-17
2.0879908e-18
3.113626e-19
4.3197436e-20
5.4664174e-21
6.1614373e-22
6.0385466e-23
5.0310787e-24
3.4978716e-25
1.9567876e-26
8.390151e-28
2.5866194e-29
5.106249e-31
4.8548781e-33
0.00037939698
0.00036293496
0.00033424416
0.00029765654
0.00026912456
0.00025734357
0.00024772176
0.00021007272
0.00013484867
5.7397759e-05
1.6773999e-05
4.1818186e-06
1.0074209e-06
2.0764942e-07
2.4592799e-08
1.2487573e-09
2.297319e-11
1.5769464e-13
2.4852209e-15
4.0138087e-16
7.4208997e-17
1.3204147e-17
2.2269516e-18
3.5036289e-19
5.0399155e-20
6.4848697e-21
7.3087371e-22
7.0792097e-23
5.7903872e-24
3.9377052e-25
2.1499038e-26
8.9969208e-28
2.7102511e-29
5.2370525e-31
4.8838905e-33
0.00038507436
0.00037215638
0.00034785494
0.00031703529
0.00029361279
0.00028555823
0.00028012678
0.00025036301
0.00018205405
9.6473208e-05
3.8877807e-05
1.4688777e-05
5.3756052e-06
1.6109724e-06
2.8499402e-07
2.2327373e-08
6.4267767e-10
6.427028e-12
3.3820953e-14
1.9328559e-15
3.8486822e-16
7.6482552e-17
1.4464123e-17
2.5524e-18
4.1213119e-19
5.9724798e-20
7.6292819e-21
8.4503584e-22
7.9995644e-23
6.383683e-24
4.2303718e-25
2.2500004e-26
9.1870397e-28
2.7056309e-29
5.1227922e-31
4.6925262e-33
0.0003868923
0.00037739049
0.00035749459
0.00033215563
0.00031373333
0.00030890974
0.00030606365
0.00028082468
0.00022028269
0.00013700897
7.0982301e-05
3.7458415e-05
1.9613504e-05
8.3063892e-06
2.1534035e-06
2.5921765e-07
1.1820176e-08
1.8754973e-10
1.2391499e-12
1.1828048e-14
1.8581886e-15
4.0802394e-16
8.5790789e-17
1.6804017e-17
3.0112306e-18
4.8567539e-19
6.9446424e-20
8.677945e-21
9.3612737e-22
8.6191109e-23
6.6949362e-24
4.3197849e-25
2.2382136e-26
8.9238157e-28
2.5724942e-29
4.7799212e-31
4.3084214e-33
0.00038618742
0.00037954053
0.00036369917
0.00034371083
0.00032979707
0.00032781694
0.00032674949
0.00030486621
0.00025027892
0.00017333631
0.00010779815
7.2682506e-05
5.0525779e-05
2.900226e-05
1.0726184e-05
1.9586655e-06
1.4219696e-07
3.6862771e-09
4.0304175e-11
2.3409814e-13
8.7878525e-15
2.0172081e-15
4.6737289e-16
1.00611e-16
1.9798359e-17
3.5158843e-18
5.5665165e-19
7.7583604e-20
9.41566e-21
9.855541e-22
8.8117405e-23
6.6604284e-24
4.1856241e-25
2.114927e-26
8.2448597e-28
2.330232e-29
4.2569651e-31
3.7834409e-33
0.00038359873
0.0003795732
0.0003675088
0.00035215019
0.00034252755
0.00034263781
0.00034289897
0.0003237975
0.00027583869
0.00020355435
0.00014354121
0.00011415685
9.7197889e-05
7.1185706e-05
3.6001638e-05
9.7491831e-06
1.1204808e-06
4.8140531e-08
8.9349305e-10
7.7411273e-12
6.488979e-14
9.3658117e-15
2.354958e-15
5.516445e-16
1.1799055e-16
2.2836837e-17
3.9631267e-18
6.1003995e-19
8.2384505e-20
9.6833173e-21
9.8241978e-22
8.530468e-23
6.2789252e-24
3.8467739e-25
1.8984706e-26
7.2486843e-28
2.0123822e-29
3.6221344e-31
3.1815192e-33
0.0003791141
0.0003781742
0.00037019972
0.00035841365
0.00035217505
0.00035422001
0.00035497717
0.00033830449
0.00029651072
0.00023181088
0.00017481605
0.00015425744
0.00014994246
0.00013051181
8.4966511e-05
3.2747437e-05
5.849413e-06
4.1520956e-07
1.3038532e-08
1.9058229e-10
1.4309192e-12
4.5009284e-14
1.1101333e-14
2.7935689e-15
6.4237751e-16
1.3414627e-16
2.5269906e-17
4.2567126e-18
6.336151e-19
8.2738964e-20
9.4121867e-21
9.2579514e-22
7.814502e-23
5.6081256e-24
3.3540782e-25
1.6197692e-26
6.0690088e-28
1.6586117e-29
2.9483567e-31
2.565873e-33
0.00037620134
0.00037651008
0.0003723751
0.0003636254
0.00035922856
0.00036261397
0.00036373313
0.000348786
0.00031319496
0.00025626098
0.00020282456
0.00018894935
0.00019770522
0.00019278919
0.0001501025
7.7597655e-05
2.0711977e-05
2.3815724e-06
1.2463368e-07
3.091757e-09
3.7458083e-11
4.2252629e-13
5.192761e-14
1.325161e-14
3.2256363e-15
7.1838895e-16
1.4546588e-16
2.6569836e-17
4.3226417e-18
6.2125088e-19
7.8412672e-20
8.6364542e-21
8.2438077e-22
6.7742506e-23
4.7471982e-24
2.7763801e-25
1.3147119e-26
4.8447753e-28
1.3066245e-29
2.3000147e-31
1.988864e-33
0.00037415182
0.00037734488
0.00037781061
0.00036782379
0.00036453289
0.00036824138
0.00036926494
0.00035587269
0.00032615904
0.00027715912
0.0002279892
0.0002171263
0.00023552789
0.00024498437
0.00021419385
0.00013770692
5.1922141e-05
9.2594787e-06
7.8705328e-07
3.2755097e-08
7.00697e-10
1.1089871e-11
4.5531345e-13
6.4503166e-14
1.5178585e-14
3.5414105e-15
7.6190096e-16
1.494455e-16
2.6370581e-17
4.136994e-18
5.739901e-19
7.0060764e-20
7.4785331e-21
6.9373919e-22
5.5600519e-23
3.8113536e-24
2.1843428e-25
1.0166475e-26
3.6944051e-28
9.8613871e-30
1.7243261e-31
1.4863606e-33
0.00037115926
0.00037848577
0.00037813406
0.00037834317
0.00036794572
0.00037173892
0.00037214814
0.00035994542
0.00033596513
0.00029485669
0.0002500285
0.00024087707
0.00026418483
0.00028255708
0.0002652592
0.00019689533
9.7384458e-05
2.5411489e-05
3.3514345e-06
2.3010417e-07
8.9514492e-09
3.0299942e-10
1.5507119e-11
7.8791615e-13
7.5283826e-14
1.6316543e-14
3.664298e-15
7.6332343e-16
1.4491757e-16
2.4630501e-17
3.7260939e-18
4.9937683e-19
5.9005721e-20
6.1128249e-21
5.5210856e-22
4.3255556e-23
2.906731e-24
1.6368917e-25
7.5099964e-27
2.7003141e-28
7.1601027e-30
1.2484497e-31
1.0769337e-33
0.00036932392
0.00037503683
0.00038080284
0.00037746451
0.00037769115
0.0003730308
0.00037279358
0.00036165997
0.00034311856
0.00030971858
0.00026917506
0.00026122285
0.0002853123
0.00030771352
0.00029861901
0.00024345819
0.00014598832
5.1891403e-05
1.0063375e-05
1.1067027e-06
8.0502222e-08
5.9471835e-09
5.356279e-10
3.3298119e-11
1.1064144e-12
7.7711596e-14
1.6387033e-14
3.5709474e-15
7.2229908e-16
1.3206966e-16
2.1624508e-17
3.156656e-18
4.0909921e-19
4.6864044e-20
4.7210782e-21
4.1623246e-22
3.19732e-23
2.1126883e-24
1.1735491e-25
5.3298779e-27
1.9054372e-28
5.0446719e-30
8.8162606e-32
7.6475291e-34
0.00037203775
0.00036905603
0.00037803398
0.00038086473
0.00037535857
0.00037502898
0.0003714303
0.00036156345
0.00034830801
0.00032202608
0.00028571099
0.00027850223
0.00030249425
0.0003252097
0.00031935163
0.00027507347
0.00018789327
8.4314575e-05
2.2568421e-05
3.867192e-06
5.2820712e-07
7.8649185e-08
1.1813046e-08
1.1531965e-09
5.0160282e-11
1.0239701e-12
7.189423e-14
1.5453291e-14
3.2879215e-15
6.4209459e-16
1.1301533e-16
1.7840145e-17
2.5159297e-18
3.158333e-19
3.5155557e-20
3.4541996e-21
2.9845254e-22
2.2582547e-23
1.4749518e-24
8.1325276e-26
3.6831548e-27
1.3195277e-28
3.5157165e-30
6.2034106e-32
5.4441951e-34
0.00036818566
0.00036828696
0.00036964175
0.0003794588
0.00037888859
0.00037124367
0.00036888471
0.00036018803
0.00035227457
0.00033230144
0.00029989517
0.00029310719
0.00031621716
0.00033848693
0.00033403655
0.00029709527
0.00022035168
0.00011676739
4.0592623e-05
1.0441708e-05
2.5843206e-06
6.8927135e-07
1.6183793e-07
2.4521455e-08
1.7144779e-09
4.5524785e-11
6.1604514e-13
6.3159364e-14
1.3782781e-14
2.8488761e-15
5.3545064e-16
9.0803728e-17
1.38386e-17
1.8893055e-18
2.3039745e-19
2.501966e-20
2.41094e-21
2.0566358e-22
1.5464411e-23
1.0089325e-24
5.5894808e-26
2.5584339e-27
9.3089404e-29
2.5263777e-30
4.5442995e-32
4.0608467e-34
0.00035825654
0.00036313954
0.00036455803
0.00036998455
0.00037885188
0.00037472333
0.00036362939
0.00035849582
0.00035538893
0.00034130297
0.00031207707
0.0003053093
0.0003271571
0.00034767276
0.00034384051
0.00031304005
0.00024936047
0.00014579625
6.2308068e-05
2.2882486e-05
9.3753269e-06
4.0109496e-06
1.3972234e-06
3.191234e-07
3.5489933e-08
1.567019e-09
2.3163817e-11
3.1495954e-13
5.3811272e-14
1.161314e-14
2.3144348e-15
4.190314e-16
6.8589645e-17
1.0119698e-17
1.3429943e-18
1.600614e-19
1.7104677e-20
1.6361068e-21
1.3998365e-22
1.0656126e-23
7.094942e-25
4.0391539e-26
1.9098523e-27
7.1903993e-29
2.0151487e-30
3.7245939e-32
3.3964751e-34
0.00035846741
0.00035535928
0.0003569074
0.00036067435
0.00036906576
0.00037592606
0.00036710504
0.0003520424
0.00034357727
0.00034908897
0.00032264244
0.00031539947
0.00033547125
0.00035407553
0.00034933802
0.00032382118
0.00027220711
0.0001798232
8.5439534e-05
4.1602269e-05
2.5189656e-05
1.568689e-05
7.7680938e-06
2.5875986e-06
4.4668362e-07
3.2560001e-08
8.2850779e-10
6.5286817e-12
2.050432e-13
4.3855482e-14
9.1838662e-15
1.764328e-15
3.0848609e-16
4.8936024e-17
7.0342614e-18
9.163444e-19
1.0829051e-19
1.162303e-20
1.1338453e-21
1.0047814e-22
8.0106989e-24
5.6256709e-25
3.385517e-26
1.6876115e-27
6.6492141e-29
1.930392e-30
3.6544818e-32
3.3749448e-34
0.00035664624
0.00035934031
0.00035104575
0.00035015599
0.00035593134
0.00036619986
0.00036990893
0.00035557316
0.00033630938
0.00032338984
0.00033195246
0.00032366034
0.00034152582
0.00035759108
0.00035154788
0.00032999841
0.00028994312
0.00020981616
0.00011374684
6.4908632e-05
5.11162e-05
4.2542466e-05
2.8530442e-05
1.3383009e-05
3.4824653e-06
4.1010341e-07
1.808175e-08
2.4315014e-10
1.4217684e-12
1.5559804e-13
3.3681638e-14
6.8204561e-15
1.2675912e-15
2.1539603e-16
3.3458363e-17
4.7626777e-18
6.2403174e-19
7.5645688e-20
8.5113044e-21
8.8786154e-22
8.5139647e-23
7.3514482e-24
5.5550511e-25
3.5554669e-26
1.8587764e-27
7.5723865e-29
2.2438283e-30
4.287208e-32
3.9572533e-34
0.00034016919
0.0003617513
0.00035830424
0.00034527808
0.00034233384
0.00034975602
0.00036072301
0.00036012791
0.00034007434
0.00031571066
0.00029785121
0.00033016395
0.00034563447
0.00035887197
0.00035089147
0.00033251024
0.00030308809
0.00023627175
0.00014274191
8.8527036e-05
8.3674746e-05
8.4136795e-05
7.1979535e-05
4.5378443e-05
1.7222777e-05
3.1947588e-06
2.3891733e-07
5.9130797e-09
4.1238885e-11
5.9273906e-13
1.1516608e-13
2.4362794e-14
4.7919546e-15
8.7045107e-16
1.4622952e-16
2.2850868e-17
3.3504403e-18
4.6484583e-19
6.1242157e-20
7.6170729e-21
8.8067358e-22
9.249265e-23
8.5818054e-24
6.8302518e-25
4.5264002e-26
2.4163921e-27
9.9454953e-29
2.9535698e-30
5.6208547e-32
5.1409818e-34
0.00033516006
0.00034700474
0.00036463999
0.00035526382
0.00033765259
0.00033294009
0.00034151505
0.00035194322
0.0003464156
0.00031982486
0.00029013771
0.00026707845
0.0003477804
0.0003580152
0.00034797481
0.0003322218
0.00031236413
0.00025916704
0.00017093121
0.00011345721
0.00011227856
0.00013198951
0.00013249022
0.00010541985
5.5676089e-05
1.5788043e-05
1.9549163e-06
8.6900861e-08
1.1702021e-09
6.6639753e-12
3.7692201e-13
8.1002001e-14
1.6789773e-14
3.2608495e-15
5.9528954e-16
1.0317881e-16
1.7188114e-17
2.7736867e-18
4.3242469e-19
6.415459e-20
8.8487152e-21
1.1066048e-21
1.2248781e-22
1.1731493e-23
9.4904433e-25
6.3293118e-26
3.3778859e-27
1.3838453e-28
4.0787521e-30
7.6873811e-32
6.9504458e-34
0.00034805552
0.00033876422
0.00035229306
0.00036541762
0.00035013007
0.00032824346
0.00032150399
0.00033078633
0.0003394536
0.000328059
0.00029465215
0.0002597363
0.00023182117
0.00035509437
0.00034301502
0.00032997413
0.00031868549
0.00027848136
0.00019764502
0.00013821853
0.00013820165
0.00017301676
0.0001939804
0.00017973541
0.00012358543
5.1187517e-05
1.0182962e-05
7.9004447e-07
2.0384114e-08
1.8919982e-10
1.6854745e-12
2.5336401e-13
5.4975276e-14
1.1449197e-14
2.2929177e-15
4.4750147e-16
8.6097086e-17
1.6325455e-17
3.0047294e-18
5.2393275e-19
8.4344327e-20
1.2252969e-20
1.5763629e-21
1.7661794e-22
1.6945102e-23
1.3646632e-24
9.0315703e-26
4.7751873e-27
1.9365449e-28
5.6483767e-30
1.053337e-31
5.2240854e-36
0.00035001402
0.00034632759
0.00034102989
0.00035596087
0.00036407033
0.00034303188
0.00031667176
0.00030776518
0.0003170032
0.00032262964
0.00030474112
0.0002648416
0.00022507353
0.00019013673
0.00033625599
0.00032627063
0.00032305723
0.00029449986
0.00022256256
0.00016210623
0.0001620242
0.00020297102
0.00024425595
0.00024550965
0.00020233384
0.00011475463
3.5009608e-05
4.5815112e-06
2.1787381e-07
3.8904997e-09
2.824809e-11
8.0082416e-13
1.6988181e-13
3.814726e-14
8.4954409e-15
1.8971154e-15
4.2570485e-16
9.4554768e-17
2.0232899e-17
4.0554009e-18
7.4434371e-19
1.2292538e-19
1.8011784e-20
2.3134217e-21
2.573402e-22
2.4420604e-23
1.9431739e-24
1.2705502e-25
6.6394984e-27
2.6629558e-28
7.687045e-30
8.5702193e-34
1.8764821e-38
0.0003277905
0.00034252483
0.00034257596
0.00034229672
0.00035790804
0.00036061212
0.00033363163
0.0003025267
0.00029136441
0.0002994366
0.00030113724
0.00027647343
0.00023011331
0.00018392518
0.00014089686
0.00032146536
0.00032623885
0.00030804543
0.00024544108
0.00018492242
0.00018364377
0.00022824132
0.00027632564
0.00029333689
0.00026597367
0.00019039639
8.3771378e-05
1.757547e-05
1.4770503e-06
4.9055897e-08
6.3690316e-10
5.0014251e-12
5.0473622e-13
1.222041e-13
3.0716618e-14
7.9327664e-15
2.0712473e-15
5.3067106e-16
1.29236e-16
2.915843e-17
5.9877589e-18
1.1056768e-18
1.8177986e-19
2.6368265e-20
3.3438523e-21
3.6687041e-22
3.4313543e-23
2.6933182e-24
1.7389813e-25
8.9838785e-27
3.5663003e-28
6.9018762e-32
3.2557348e-36
3.2042276e-41
0.00031580874
0.00031765385
0.00033274003
0.00033747731
0.00034271634
0.00035786031
0.00035485159
0.00032157583
0.00028555841
0.00027177724
0.00027764702
0.00027463456
0.00024225584
0.00018829606
0.00013520551
8.8841795e-05
0.0003287412
0.0003201379
0.00026635741
0.00020663058
0.00020342936
0.00024950014
0.00030201432
0.0003244484
0.00030707412
0.00025249104
0.00014903199
4.6990113e-05
6.5833804e-06
3.8856614e-07
9.3412208e-09
9.2226293e-11
1.7046517e-12
3.8116133e-13
1.0930334e-13
3.2658985e-14
9.7885848e-15
2.834262e-15
7.6981141e-16
1.9226882e-16
4.3586255e-17
8.8919101e-18
1.6217715e-18
2.6265933e-19
3.7502627e-20
4.6822875e-21
5.0588095e-22
4.6629655e-23
3.612211e-24
2.3051662e-25
1.1787137e-26
3.5651302e-30
2.8922321e-34
5.4455162e-39
2.6769226e-44
0.00033038681
0.00030896936
0.0003059568
0.00032147522
0.00033203706
0.00034183901
0.00035558031
0.00034630624
0.00030668917
0.00026524464
0.00024830971
0.000251044
0.00024194705
0.00020005411
0.00013810302
8.5152062e-05
4.5935187e-05
0.0003318512
0.0002854774
0.00022723056
0.00022162496
0.00026790238
0.00032247836
0.00034817692
0.0003345497
0.00029074802
0.00021071232
9.3476765e-05
2.0285848e-05
2.0037351e-06
8.5542798e-08
1.5145661e-09
1.4023334e-11
1.1876136e-12
3.829653e-13
1.3108034e-13
4.4258531e-14
1.4204748e-14
4.2343699e-15
1.1559861e-15
2.8644323e-16
6.4011001e-17
1.2838002e-17
2.3000266e-18
3.6599616e-19
5.1387315e-20
6.3170249e-21
6.7222814e-22
6.1128984e-23
4.679527e-24
2.9557936e-25
1.3173572e-28
1.6815671e-32
5.1222641e-37
4.0887755e-42
1.1884367e-47
0.00034250691
0.00033045154
0.00030073948
0.00029292968
0.00030984302
0.00032502224
0.00033896131
0.00035048679
0.00033498853
0.00028824749
0.00024113772
0.0002207396
0.00021944305
0.00020124465
0.00014796169
8.725944e-05
4.3642014e-05
1.8515246e-05
0.00030352698
0.00024671912
0.00023831227
0.0002838028
0.00033977837
0.00036596609
0.00035351229
0.00031629548
0.00025599123
0.00014748366
4.5949124e-05
7.0768116e-06
5.0512563e-07
1.5866091e-08
2.1497236e-10
4.491086e-12
1.3141484e-12
5.0662474e-13
1.8918115e-13
6.625641e-14
2.1417048e-14
6.3309829e-15
1.7011015e-15
4.1355327e-16
9.0589968e-17
1.7814913e-17
3.1321998e-18
4.8972267e-19
6.7657059e-20
8.1946993e-21
8.6000457e-22
7.726779e-23
5.8545168e-24
3.7008779e-27
7.0562541e-31
3.3127995e-35
3.6850697e-40
1.6318934e-45
3.1967953e-51
0.00032035325
0.00035075581
0.00032845086
0.00029112984
0.00027861704
0.00029605335
0.00031614986
0.00033339541
0.00034234233
0.00031998769
0.00026576497
0.00021299007
0.00018924117
0.00018061259
0.00015034217
9.3960107e-05
4.4870891e-05
1.7273596e-05
5.5245982e-06
0.00026508499
0.0002535335
0.00029709267
0.00035406297
0.00038002516
0.00036582713
0.00033156719
0.00028626286
0.00020274451
8.1712394e-05
1.8152532e-05
2.0248355e-06
1.0641529e-07
2.5035438e-09
3.3828939e-11
4.441063e-12
1.8662557e-12
7.5901007e-13
2.8663868e-13
9.9555334e-14
3.1630029e-14
9.1558204e-15
2.4063047e-15
5.7232036e-16
1.2276873e-16
2.3672669e-17
4.0868865e-18
6.2844473e-19
8.5536801e-20
1.0218506e-20
1.0593335e-21
9.4198818e-23
8.2212764e-26
2.2598875e-29
1.5843815e-33
2.4841615e-38
1.2879486e-43
4.1739039e-49
5.7617395e-55
0.00028221749
0.0003352721
0.00035595323
0.00032450316
0.00027994119
0.00026277298
0.00028033533
0.00030460902
0.00032452046
0.00033037974
0.00030062393
0.00023807865
0.00018034418
0.00015168678
0.0001334605
9.5610668e-05
4.886205e-05
1.7708401e-05
5.0067805e-06
1.1773742e-06
0.00026711413
0.00030760095
0.00036473311
0.00039057972
0.000373099
0.00033863599
0.00030352634
0.00024468564
0.00013280433
3.6166306e-05
5.8351691e-06
4.8035477e-07
1.8910559e-08
3.5714006e-10
1.6189519e-11
6.514231e-12
2.8496162e-12
1.1499992e-12
4.2603703e-13
1.4456765e-13
4.4823703e-14
1.2664489e-14
3.2516694e-15
7.565303e-16
1.589988e-16
3.0087958e-17
5.1063926e-18
7.7329903e-19
1.038545e-19
1.2252819e-20
1.2570452e-21
1.4842961e-24
5.7324618e-28
5.8478438e-32
1.3120491e-36
8.0306033e-42
2.9107652e-47
7.4723742e-53
7.5053925e-59
0.00027913429
0.00029797355
0.00034736666
0.00035835155
0.00031844864
0.00026713949
0.00024517328
0.00026196604
0.00028972184
0.00031160912
0.00031383751
0.00027543334
0.00020413024
0.00014178356
0.00010842272
8.35528e-05
4.9889252e-05
1.9534476e-05
5.0886321e-06
1.0281885e-06
1.7852214e-07
0.00031490762
0.00037091303
0.00039685236
0.00037551431
0.00033907137
0.00031101109
0.00027352736
0.0001831854
6.9958674e-05
1.2909693e-05
1.5439691e-06
9.5527027e-08
2.9071273e-09
7.9162919e-11
2.1639157e-11
1.0015165e-11
4.2871439e-12
1.6836323e-12
6.0670174e-13
2.0040458e-13
6.0552457e-14
1.6694398e-14
4.1889811e-15
9.5409011e-16
1.9666655e-16
3.6569583e-17
6.1100197e-18
9.1268323e-19
1.2110841e-19
1.4137838e-20
2.2226099e-23
1.1824628e-26
1.7182485e-30
5.5144174e-35
4.2667445e-40
1.549983e-45
4.9025995e-51
9.846426e-57
7.4968345e-63
0.00031921988
0.00028959684
0.00031226831
0.00035648235
0.00035797871
0.00031034517
0.0002524891
0.00022548967
0.00024065103
0.00027095738
0.00029422743
0.00029206855
0.00024232935
0.00016197458
9.8798482e-05
6.5395532e-05
4.2546128e-05
2.0153849e-05
5.6932899e-06
1.0287793e-06
1.4886593e-07
1.9431913e-08
0.00037175527
0.00039717401
0.00037260844
0.00033359597
0.0003110555
0.00029069028
0.00022776462
0.00011161632
3.0095884e-05
3.758027e-06
3.4040841e-07
1.6235052e-08
4.8540637e-10
7.0620536e-11
3.3132082e-11
1.4917658e-11
6.1686828e-12
2.3477353e-12
8.2181314e-13
2.6418426e-13
7.781127e-14
2.0946551e-14
5.1411187e-15
1.1475867e-15
2.3231211e-16
4.2511608e-17
7.0041084e-18
1.03386e-18
1.3575087e-19
2.803858e-22
2.0227533e-25
4.115446e-29
1.8737836e-33
1.9210959e-38
7.3524414e-44
2.2832625e-49
6.3659632e-55
9.9906946e-61
6.7693475e-67
0.00036716529
0.0003205046
0.00029910047
0.00032490822
0.00036261079
0.00035488207
0.00029985792
0.00023571847
0.00020356939
0.00021624861
0.00024786875
0.00027152638
0.0002620013
0.00019691096
0.00011344063
5.7748914e-05
3.1650277e-05
1.6803337e-05
5.9553446e-06
1.1680107e-06
1.4540949e-07
1.55105e-08
1.5475389e-09
0.00039046772
0.00036357431
0.00032269391
0.00030515529
0.00029959749
0.00026174547
0.00015856166
5.5625912e-05
1.0650636e-05
9.0620887e-07
6.4139422e-08
2.7125789e-09
2.4555302e-10
1.0461355e-10
4.8988336e-11
2.1125566e-11
8.4174027e-12
3.105358e-12
1.0565549e-12
3.3076541e-13
9.504111e-14
2.5005156e-14
6.0100856e-15
1.3165478e-15
2.6213572e-16
4.7287206e-17
7.6970979e-18
1.124802e-18
3.0172671e-21
2.9132415e-24
8.1831147e-28
5.233534e-32
7.2532884e-37
3.2008276e-42
9.0989316e-48
2.7732219e-53
6.4944092e-59
9.1734449e-65
5.9432078e-71
0.00037631411
0.00035744621
0.00032014706
0.00030789809
0.00033544812
0.00036559279
0.00034889669
0.00028669355
0.00021647231
0.00017936309
0.0001887692
0.00021974278
0.00024238188
0.00021793756
0.00014168563
6.6333528e-05
2.6632688e-05
1.1740236e-05
4.8749407e-06
1.2397417e-06
1.6728846e-07
1.4542497e-08
1.1909684e-09
9.2281316e-11
0.00034828371
0.00030699019
0.0002947402
0.00030257905
0.00028741861
0.00020553168
8.9867066e-05
2.2835224e-05
3.1441428e-06
1.925987e-07
1.3099816e-08
1.1663811e-09
3.4319023e-10
1.5508432e-10
6.8843462e-11
2.8374016e-11
1.0873535e-11
3.8918437e-12
1.2883425e-12
3.9314526e-13
1.1031293e-13
2.8398149e-14
6.6930915e-15
1.4410336e-15
2.8268387e-16
5.036283e-17
8.1158843e-18
2.7982151e-20
3.5752614e-23
1.3702259e-26
1.2195887e-30
2.2986462e-35
1.2442279e-40
3.4485126e-46
9.6163347e-52
2.7745129e-57
6.0443271e-63
8.1833418e-69
5.076077e-75
0.00032702126
0.00035562982
0.00034465252
0.0003190872
0.0003155221
0.00034335011
0.00036536857
0.00033972209
0.00027048976
0.00019441031
0.0001531441
0.00015850577
0.00018979317
0.00020159713
0.00016032824
8.5168388e-05
3.0269294e-05
9.1936014e-06
3.1849863e-06
1.0008092e-06
1.7937221e-07
1.669068e-08
1.0651024e-09
6.9128679e-11
4.1732589e-12
0.00028750833
0.0002810508
0.00030165425
0.00030734377
0.00024931123
0.00013167538
4.1869835e-05
7.8369726e-06
8.3798701e-07
6.7360185e-08
1.0882348e-08
2.0922129e-09
5.6786607e-10
2.2144692e-10
9.1609184e-11
3.5931064e-11
1.3279647e-11
4.6202802e-12
1.4896815e-12
4.435432e-13
1.2166939e-13
3.0687284e-14
7.1029545e-15
1.5056271e-15
2.9153895e-16
5.140188e-17
2.2558724e-19
3.7755201e-22
1.9541555e-25
2.4010376e-29
6.1605841e-34
4.2140353e-39
1.258354e-44
3.0310633e-50
8.9757854e-56
2.5917317e-61
5.4756658e-67
7.091762e-73
4.2220224e-79
0.00026524716
0.00030093941
0.00033153382
0.00033067899
0.0003173688
0.00032137003
0.00034800561
0.00036148692
0.00032726181
0.00025045214
0.00016963168
0.00012564745
0.00012944258
0.00015234411
0.00014858721
9.945262e-05
4.0024467e-05
1.0146209e-05
2.2761744e-06