/*--------------------------------*- C++ -*----------------------------------*\
| =========                 |                                                 |
| \\      /  F ield         | OpenFOAM: The Open Source CFD Toolbox           |
|  \\    /   O peration     | Version:  5.0                                   |
|   \\  /    A nd           | Web:      www.OpenFOAM.org                      |
|    \\/     M anipulation  |                                                 |
\*---------------------------------------------------------------------------*/
FoamFile
{
    version     2.0;
    format      ascii;
    class       volScalarField;
    location    "320";
    object      nuTilda;
}
// * * * * * * * * * * * * * * * * * * * * * * * * * * * * * * * * * * * * * //

dimensions      [0 2 -1 0 0 0 0];

internalField   nonuniform List<scalar> 
9520
(
4.8295135e-33
5.1266454e-31
4.6744425e-33
2.6627466e-29
4.9636983e-31
4.5197114e-33
8.9875559e-28
2.5785601e-29
4.8003691e-31
4.3736231e-33
2.2191828e-26
8.7046398e-28
2.4940003e-29
4.6468256e-31
4.2464403e-33
4.284305e-25
2.1495774e-26
8.4206401e-28
2.4149717e-29
4.5154533e-31
4.1435271e-33
6.7594526e-24
4.1501436e-25
2.0799271e-26
8.1569626e-28
2.3484306e-29
4.4119156e-31
4.0620882e-33
8.9792905e-23
6.5481676e-24
4.0165363e-25
2.0157337e-26
7.937853e-28
2.2970477e-29
4.3306061e-31
3.9906133e-33
1.0232252e-21
8.7006272e-23
6.338912e-24
3.894408e-25
1.962922e-26
7.7708058e-28
2.2564423e-29
4.2552663e-31
3.9110285e-33
1.0147924e-20
9.919114e-22
8.4261589e-23
6.1493083e-24
3.7947105e-25
1.9228252e-26
7.6361994e-28
2.2162778e-29
4.1640839e-31
3.8055701e-33
8.877209e-20
9.84397e-21
9.6120935e-22
8.1795329e-23
5.9954667e-24
3.718728e-25
1.8894626e-26
7.4938742e-28
2.1643232e-29
4.0396146e-31
3.666227e-33
7.0433945e-19
8.6152955e-20
9.5470013e-21
9.3375163e-22
7.9803529e-23
5.8770187e-24
3.6527307e-25
1.8519402e-26
7.301032e-28
2.0928271e-29
3.8791048e-31
3.5029399e-33
5.9310779e-18
6.807325e-19
8.361487e-20
9.2803502e-21
9.1160471e-22
7.8249399e-23
5.7688019e-24
3.5743312e-25
1.7997331e-26
7.0372047e-28
2.0036855e-29
3.7009459e-31
3.3449604e-33
9.5083392e-17
5.5328869e-18
6.5881691e-19
8.1286452e-20
9.0642511e-21
8.9409504e-22
7.6753336e-23
5.6339532e-24
3.4640832e-25
1.7294681e-26
6.720464e-28
1.9102725e-29
3.5422061e-31
3.2323273e-33
3.2132235e-15
8.2275732e-17
5.1946287e-18
6.3791164e-19
7.9374147e-20
8.8922126e-21
8.7644442e-22
7.4807883e-23
5.4442052e-24
3.3193529e-25
1.6484231e-26
6.4077115e-28
1.8341292e-29
3.4458604e-31
3.1992654e-33
1.1600229e-13
2.8177779e-15
7.0333894e-17
4.8489485e-18
6.2062823e-19
7.7875296e-20
8.7133536e-21
8.5260638e-22
7.2076912e-23
5.2025648e-24
3.1594667e-25
1.573116e-26
6.1765701e-28
1.7967428e-29
3.4416919e-31
3.2565845e-33
3.4589638e-12
1.0730339e-13
2.3270904e-15
5.6008772e-17
4.5616079e-18
6.0802199e-19
7.6314296e-20
8.4626876e-21
8.1917789e-22
6.8705917e-23
4.9478509e-24
3.0200421e-25
1.5231989e-26
6.0934016e-28
1.8093538e-29
3.529402e-31
3.3820057e-33
8.0402055e-11
3.3578468e-12
8.9963951e-14
1.6300801e-15
4.3690336e-17
4.381325e-18
5.9587483e-19
7.4033116e-20
8.1090225e-21
7.790946e-22
6.5323117e-23
4.7406861e-24
2.9384163e-25
1.5128087e-26
6.1797307e-28
1.8654999e-29
3.6728137e-31
3.5238725e-33
1.4200863e-09
8.0964694e-11
2.8588502e-12
6.1461868e-14
1.0247129e-15
3.6712915e-17
4.2612508e-18
5.775548e-19
7.0750519e-20
7.6951712e-21
7.4084404e-22
6.2777546e-23
4.6366746e-24
2.9362366e-25
1.5428758e-26
6.3928818e-28
1.9404769e-29
3.8089779e-31
3.617113e-33
1.8591697e-08
1.4666852e-09
6.9763407e-11
1.9420145e-12
3.7061584e-14
7.1632225e-16
3.3788583e-17
4.1133172e-18
5.5023403e-19
6.6972086e-20
7.3201261e-21
7.1444347e-22
6.1738078e-23
4.6590585e-24
3.0065042e-25
1.5980565e-26
6.6326419e-28
1.998673e-29
3.8686812e-31
3.6048775e-33
1.7683082e-07
1.9463373e-08
1.2744875e-09
4.7384052e-11
1.1871501e-12
2.6583284e-14
6.3452543e-16
3.1917993e-17
3.889897e-18
5.1901827e-19
6.3723508e-20
7.0857802e-21
7.0644323e-22
6.2348261e-23
4.7824032e-24
3.1113294e-25
1.6504634e-26
6.7736692e-28
2.0057659e-29
3.7999885e-31
3.4576888e-33
1.1932395e-06
1.8541534e-07
1.7115485e-08
8.7355932e-10
2.9889787e-11
9.4255367e-13
2.6382966e-14
6.0798473e-16
2.8862559e-17
3.6349375e-18
4.9357582e-19
6.1921186e-20
7.0439323e-21
7.1642132e-22
6.4076824e-23
4.9354041e-24
3.1929667e-25
1.669192e-26
6.7103866e-28
1.9406537e-29
3.5861995e-31
3.1838257e-33
5.6888946e-06
1.242289e-06
1.6453243e-07
1.2091213e-08
5.795525e-10
2.6496321e-11
1.0626435e-12
2.7460478e-14
4.8940576e-16
2.511594e-17
3.4389483e-18
4.8137007e-19
6.1881872e-20
7.1681368e-21
7.3618495e-22
6.5844004e-23
5.0240125e-24
3.1944245e-25
1.6317697e-26
6.3947907e-28
1.8029168e-29
3.2526243e-31
2.8282953e-33
1.9243389e-05
5.8725557e-06
1.1170855e-06
1.20733e-07
8.71531e-09
5.6641698e-10
3.2951378e-11
1.1766624e-12
2.1463725e-14
3.1157318e-16
2.245797e-17
3.3594578e-18
4.8364745e-19
6.3160719e-20
7.3562879e-21
7.522412e-22
6.6398822e-23
4.9663065e-24
3.0811892e-25
1.532513e-26
5.8540251e-28
1.6138449e-29
2.8608807e-31
2.4616239e-33
4.7800443e-05
1.9692805e-05
5.3393175e-06
8.5832174e-07
9.4325168e-08
8.9766596e-09
7.4647322e-10
3.7819267e-11
9.2160447e-13
1.1199448e-14
1.9028393e-16
2.1443186e-17
3.3930021e-18
4.9508618e-19
6.4678438e-20
7.4656754e-21
7.5078477e-22
6.4799143e-23
4.7246401e-24
2.8546508e-25
1.3848472e-26
5.185102e-28
1.4112651e-29
2.4934497e-31
2.1626521e-33
9.2120861e-05
4.8660145e-05
1.8118113e-05
4.2880701e-06
7.1631164e-07
1.0082357e-07
1.1989211e-08
8.6896765e-10
2.9593192e-11
4.574774e-13
4.3717448e-15
1.4189471e-16
2.1612594e-17
3.4850323e-18
5.0567425e-19
6.5128323e-20
7.3684215e-21
7.2315728e-22
6.0793317e-23
4.3213373e-24
2.5525374e-25
1.2179755e-26
4.5306398e-28
1.2401635e-29
2.2338172e-31
2.0006278e-33
0.00014623193
9.3495267e-05
4.5346239e-05
1.517981e-05
3.7759364e-06
7.8437088e-07
1.3340725e-07
1.3929033e-08
6.7813925e-10
1.4353562e-11
1.5756232e-13
1.7475011e-15
1.3089274e-16
2.2252896e-17
3.5507898e-18
5.048122e-19
6.3510897e-20
7.0033555e-21
6.6947555e-22
5.4943854e-23
3.8328215e-24
2.2389667e-25
1.0695079e-26
4.0438699e-28
1.1420197e-29
2.147868e-31
2.0209507e-33
0.00019838817
0.0001481866
8.829615e-05
3.9306966e-05
1.3928981e-05
4.199832e-06
1.0160091e-06
1.5308209e-07
1.0855259e-08
3.2735775e-10
4.7514529e-12
4.8709956e-14
1.0370572e-15
1.3235271e-16
2.2620539e-17
3.5120039e-18
4.859273e-19
5.9546715e-20
6.4025436e-21
5.9897932e-22
4.8463218e-23
3.3689844e-24
1.9882858e-25
9.7629888e-27
3.852877e-28
1.1456268e-29
2.270502e-31
2.2368478e-33
0.00024142888
0.00019947567
0.00014050963
7.8334816e-05
3.7060246e-05
1.5599404e-05
5.2983717e-06
1.1451907e-06
1.1945789e-07
5.3139502e-09
1.1140963e-10
1.4550762e-12
2.1918141e-14
9.3499327e-16
1.3385667e-16
2.2152281e-17
3.3331874e-18
4.4918574e-19
5.3798571e-20
5.683186e-21
5.2725777e-22
4.2884688e-23
3.0456345e-24
1.8670829e-25
9.6590149e-27
4.0323521e-28
1.2611625e-29
2.5991159e-31
2.6273096e-33
0.00027756337
0.00024173177
0.00018925657
0.00012627503
7.4775579e-05
4.1461469e-05
1.914553e-05
5.8381432e-06
8.9818919e-07
6.0205564e-08
1.9523104e-09
3.8421149e-11
7.9380177e-13
2.0834683e-14
9.5245123e-16
1.2932109e-16
2.069626e-17
3.0351724e-18
4.0129277e-19
4.748893e-20
5.0122631e-21
4.7204936e-22
3.9681637e-23
2.956574e-24
1.9186979e-25
1.0504211e-26
4.5875131e-28
1.4781011e-29
3.0938914e-31
3.1405649e-33
0.00030831065
0.00027681855
0.00022982058
0.00017262415
0.00012120707
8.3061096e-05
4.9513994e-05
2.0606747e-05
4.6167429e-06
4.7270885e-07
2.4252132e-08
7.8349479e-10
2.6385329e-11
9.8431655e-13
2.4523754e-14
8.7856148e-16
1.1807125e-16
1.8535902e-17
2.6824062e-18
3.5310193e-19
4.2135679e-20
4.5624464e-21
4.4889098e-22
3.9913353e-23
3.1514123e-24
2.1531773e-25
1.2236259e-26
5.4515343e-28
1.7667927e-29
3.684057e-31
3.7022051e-33
0.00033420664
0.00030617228
0.00026355571
0.00021185645
0.00016753733
0.00013339242
9.6838054e-05
5.2210644e-05
1.6505218e-05
2.5652052e-06
2.1025464e-07
1.1480845e-08
6.5143647e-10
3.8393206e-11
1.2892373e-12
2.1177229e-14
7.0750198e-16
1.0337528e-16
1.6203856e-17
2.3584979e-18
3.1648014e-19
3.9166501e-20
4.4704789e-21
4.6737153e-22
4.3966967e-23
3.6231173e-24
2.5439444e-25
1.4615309e-26
6.4960033e-28
2.0832531e-29
4.279249e-31
4.2270812e-33
0.00035441212
0.00033035985
0.00029214394
0.00024482935
0.00020734431
0.0001830763
0.00015266336
0.00010060417
4.257951e-05
9.7612099e-06
1.2681885e-06
1.1831684e-07
1.1232268e-08
1.0285581e-09
5.2303952e-11
1.1191449e-12
1.1518217e-14
5.5273031e-16
8.9206772e-17
1.4268319e-17
2.1437191e-18
3.0149233e-19
3.9584161e-20
4.8037605e-21
5.2865571e-22
5.1440572e-23
4.3069889e-24
3.0315339e-25
1.7263378e-26
7.5526605e-28
2.3765272e-29
4.7847854e-31
4.6335456e-33
0.00036924548
0.00034911007
0.00031548802
0.00027353659
0.00024060669
0.00022467129
0.00020603343
0.00015735792
8.3952593e-05
2.6912822e-05
5.3988531e-06
8.4796858e-07
1.3165418e-07
1.8320205e-08
1.4184213e-09
4.5893986e-11
5.4742161e-13
4.7367685e-15
4.5443706e-16
7.8793409e-17
1.3198812e-17
2.0983297e-18
3.1414626e-19
4.3713848e-20
5.5408041e-21
6.2473345e-22
6.1186952e-23
5.0913744e-24
3.5339235e-25
1.9731381e-26
8.4432342e-28
2.5977907e-29
5.1184384e-31
4.8576252e-33
0.00037939702
0.00036271944
0.00033386163
0.00029750037
0.00026959305
0.00025822393
0.00024822936
0.00020956398
0.00013365646
5.6614828e-05
1.6652926e-05
4.2331443e-06
1.0383802e-06
2.148505e-07
2.5159822e-08
1.2536081e-09
2.2551832e-11
1.521296e-13
2.4548883e-15
4.0053341e-16
7.4392139e-17
1.3294011e-17
2.2500002e-18
3.5478213e-19
5.1078331e-20
6.5700992e-21
7.3960345e-22
7.1516899e-23
5.8384117e-24
3.9619413e-25
2.1583606e-26
9.0128761e-28
2.709449e-29
5.2252896e-31
4.8640939e-33
0.00038504238
0.00037193142
0.00034750607
0.00031692835
0.00029408312
0.00028640798
0.00028058556
0.00024976795
0.00018063255
9.5373563e-05
3.8723844e-05
1.4893412e-05
5.5219931e-06
1.6592268e-06
2.9040049e-07
2.2340689e-08
6.2890413e-10
6.1673693e-12
3.2600078e-14
1.9289904e-15
3.8647213e-16
7.7131669e-17
1.4629375e-17
2.5852814e-18
4.174874e-19
6.0446012e-20
7.7090529e-21
8.5215524e-22
8.0490885e-23
6.408813e-24
4.2371812e-25
2.2483184e-26
9.1599876e-28
2.6920581e-29
5.0872115e-31
4.6516411e-33
0.00038683995
0.00037716386
0.00035718364
0.00033209955
0.00031419973
0.00030971274
0.00030645512
0.00028020787
0.00021879211
0.00013572498
7.0861538e-05
3.7985064e-05
2.0075522e-05
8.514479e-06
2.1856516e-06
2.5864972e-07
1.1543141e-08
1.7967729e-10
1.1831394e-12
1.1654692e-14
1.8685952e-15
4.1210251e-16
8.6839303e-17
1.7019931e-17
3.0481372e-18
4.9093319e-19
7.0061226e-20
8.7349533e-21
9.3998476e-22
8.6333194e-23
6.6899892e-24
4.3061735e-25
2.225797e-26
8.8547649e-28
2.5473251e-29
4.7241332e-31
4.2507633e-33
0.00038611991
0.00037932624
0.00036342752
0.00034370628
0.00033025152
0.00032856357
0.00032707557
0.00030426394
0.00024880896
0.00017200729
0.00010776197
7.3647984e-05
5.1540113e-05
2.9587634e-05
1.0845652e-05
1.9498041e-06
1.3870895e-07
3.5370999e-09
3.8479202e-11
2.2428875e-13
8.8270344e-15
2.040162e-15
4.7337538e-16
1.0187947e-16
2.0022981e-17
3.5491158e-18
5.6064946e-19
7.7947621e-20
9.4352274e-21
9.8500203e-22
8.7841702e-23
6.6233489e-24
4.1520789e-25
2.092926e-26
8.1412655e-28
2.2962836e-29
4.1871502e-31
3.7151788e-33
0.00038351965
0.00037939261
0.00036727592
0.00035218907
0.00034296725
0.00034332038
0.00034315534
0.00032321838
0.00027446705
0.00020224415
0.00014359835
0.00011553688
9.884993e-05
7.2307825e-05
3.6276429e-05
9.687007e-06
1.0926103e-06
4.6260508e-08
8.5377672e-10
7.3722306e-12
6.3718413e-14
9.4831689e-15
2.3865769e-15
5.5841117e-16
1.1921015e-16
2.3019816e-17
3.9848315e-18
6.1175568e-19
8.2389514e-20
9.657133e-21
9.7709238e-22
8.4620494e-23
6.2131586e-24
3.7970409e-25
1.8694597e-26
7.1225534e-28
1.9734459e-29
3.5456723e-31
3.1094024e-33
0.00037904736
0.00037804833
0.00037005092
0.00035846928
0.00035258814
0.00035483249
0.0003551607
0.00033775888
0.00029527076
0.00023051861
0.0001749715
0.00015590646
0.00015209765
0.0001320815
8.5370716e-05
3.2497144e-05
5.705672e-06
3.9957589e-07
1.2470038e-08
1.8153432e-10
1.3703321e-12
4.5507608e-14
1.1260049e-14
2.826971e-15
6.4834493e-16
1.3502357e-16
2.5364856e-17
4.2607434e-18
6.3239455e-19
8.2341891e-20
9.3403669e-21
9.1618856e-22
7.7131557e-23
5.5216384e-24
3.2941684e-25
1.5871189e-26
5.9341659e-28
1.6186527e-29
2.8723992e-31
2.4960464e-33
0.00037616274
0.00037654027
0.00037231499
0.00036367328
0.00035959706
0.00036314607
0.00036383218
0.00034827564
0.00031211602
0.00025503831
0.00020295211
0.00019074116
0.00020007017
0.00019452409
0.00015047799
7.6958541e-05
2.0220981e-05
2.2952263e-06
1.1930037e-07
2.9484167e-09
3.5867149e-11
4.2614824e-13
5.2999881e-14
1.3412024e-14
3.2523474e-15
7.22012e-16
1.4576265e-16
2.6546047e-17
4.3058857e-18
6.169967e-19
7.764618e-20
8.5273651e-21
8.1170653e-22
6.6527282e-23
4.6504626e-24
2.7131388e-25
1.2818568e-26
4.7141333e-28
1.2690813e-29
2.2303759e-31
1.9260467e-33
0.00037416078
0.00037743563
0.00037787977
0.00036783449
0.0003648437
0.00036868684
0.00036927782
0.00035539721
0.000325263
0.00027602804
0.00022807134
0.0002189446
0.00023789735
0.00024671631
0.00021440999
0.00013656515
5.0764686e-05
8.9368699e-06
7.540863e-07
3.1300258e-08
6.7669427e-10
1.1442321e-11
4.9050605e-13
6.5894615e-14
1.5294852e-14
3.5539769e-15
7.6211796e-16
1.4904055e-16
2.6217982e-17
4.1003937e-18
5.6718081e-19
6.9023184e-20
7.3464386e-21
6.7960386e-22
5.4327979e-23
3.7149824e-24
2.1240442e-25
9.8646968e-27
3.5779739e-28
9.5348654e-30
1.6649063e-31
1.4335142e-33
0.00037108122
0.00037854262
0.00037830074
0.00037840623
0.00036818312
0.00037208966
0.00037207719
0.00035951608
0.00033526306
0.00029383485
0.00025006315
0.00024260347
0.00026649192
0.00028406734
0.00026519388
0.00019530611
9.5387988e-05
2.4566492e-05
3.2154291e-06
2.207174e-07
8.7721189e-09
3.2010308e-10
1.7321457e-11
8.5449075e-13
7.6492979e-14
1.6351896e-14
3.658764e-15
7.5984708e-16
1.4380772e-16
2.4364557e-17
3.6743299e-18
4.9092731e-19
5.7834067e-20
5.9742257e-21
5.3813435e-22
4.2056536e-23
2.8195022e-24
1.5842584e-25
7.2547592e-27
2.6043381e-28
6.8964544e-30
1.2012218e-31
1.0353854e-33
0.00036946712
0.00037487773
0.00038091932
0.00037766999
0.00037773776
0.0003732848
0.000372643
0.00036128902
0.00034261543
0.00030882167
0.00026916581
0.00026283316
0.00028747199
0.00030895615
0.00029832021
0.00024158084
0.00014329835
5.0266178e-05
9.6780622e-06
1.0688982e-06
8.0442554e-08
6.3667726e-09
5.9549579e-10
3.6706989e-11
1.1771339e-12
7.8112259e-14
1.6331258e-14
3.5476519e-15
7.1544075e-16
1.3039217e-16
2.1281493e-17
3.0968138e-18
4.0011569e-19
4.5700137e-20
4.5910395e-21
4.0374399e-22
3.0944254e-23
2.0404692e-24
1.1314056e-25
5.1314268e-27
1.8326397e-28
4.8486877e-30
8.470483e-32
7.3462807e-34
0.0003721942
0.00036904021
0.00037786032
0.00038104377
0.00037558235
0.00037505294
0.00037121555
0.00036126971
0.00034800577
0.00032126226
0.0002856587
0.00027997737
0.00030449295
0.00032630111
0.00031896824
0.0002731514
0.00018482919
8.189264e-05
2.1790681e-05
3.7756879e-06
5.3845837e-07
8.4524112e-08
1.2998832e-08
1.2592883e-09
5.3705858e-11
1.0556418e-12
7.1530402e-14
1.5321059e-14
3.2506855e-15
6.3274206e-16
1.1100651e-16
1.7467013e-17
2.4556611e-18
3.0735363e-19
3.4117034e-20
3.3438272e-21
2.8831479e-22
2.1779359e-23
1.4206505e-24
7.8271613e-26
3.5442181e-27
1.2701319e-28
3.3862935e-30
5.9798775e-32
5.2520432e-34
0.00036794367
0.00036833158
0.00036950682
0.0003793085
0.00037912207
0.0003714738
0.0003688763
0.00035999997
0.00035217457
0.00033166665
0.00029980014
0.00029443892
0.00031803884
0.00033939987
0.00033360644
0.00029539647
0.00021721575
0.00011377258
3.9409601e-05
1.0329086e-05
2.67272e-06
7.3886922e-07
1.7608797e-07
2.6481757e-08
1.8191382e-09
4.7063133e-11
6.1393663e-13
6.2452555e-14
1.3600218e-14
2.8021564e-15
5.2493903e-16
8.8734773e-17
1.3481338e-17
1.8351599e-18
2.2320409e-19
2.4184377e-20
2.3265828e-21
1.9828975e-22
1.4908119e-23
9.7326525e-25
5.4003151e-26
2.4775801e-27
9.0396892e-29
2.4602515e-30
4.4364071e-32
3.9716302e-34
0.00035824449
0.00036290685
0.00036450449
0.00036975869
0.000378741
0.00037500229
0.00036385394
0.00035845376
0.0003554521
0.0003407919
0.00031193766
0.00030648977
0.00032880296
0.00034838934
0.00034334851
0.00031154264
0.00024661072
0.00014249536
6.0843187e-05
2.2894878e-05
9.7578682e-06
4.2724012e-06
1.5027343e-06
3.4089051e-07
3.7297628e-08
1.6084032e-09
2.3040398e-11
3.0822232e-13
5.2980692e-14
1.1401381e-14
2.2648217e-15
4.0874331e-16
6.6703317e-17
9.8143136e-18
1.2994513e-18
1.5461547e-19
1.6510873e-20
1.5801702e-21
1.3547232e-22
1.0347702e-23
6.9214868e-25
3.9627137e-26
1.8850123e-27
7.1376504e-29
2.0101176e-30
3.7286222e-32
3.4071058e-34
0.00035874239
0.00035548611
0.00035667952
0.00036049434
0.00036877212
0.00037585747
0.00036742651
0.00035225404
0.00034350446
0.00034870746
0.00032243953
0.00031641878
0.00033693424
0.0003545933
0.00034876687
0.00032252403
0.00026983241
0.00017639669
8.3867157e-05
4.1917753e-05
2.6217497e-05
1.6572882e-05
8.2577172e-06
2.7345967e-06
4.6516006e-07
3.3181015e-08
8.2043999e-10
6.2513168e-12
2.0098686e-13
4.2971143e-14
8.9708392e-15
1.7181105e-15
2.995571e-16
4.7406277e-17
6.8030448e-18
8.857397e-19
1.0478365e-19
1.1281767e-20
1.1065998e-21
9.8808803e-23
7.9474929e-24
5.6337723e-25
3.4211565e-26
1.7188701e-27
6.8150219e-29
1.9874645e-30
3.7728314e-32
3.4877823e-34
0.00035634059
0.00035978428
0.0003513019
0.00034990374
0.00035562177
0.00036585086
0.00036989158
0.00035592923
0.00033650463
0.00032328846
0.00033165065
0.00032451346
0.00034280447
0.00035790574
0.00035087842
0.00032889955
0.00028799433
0.00020651627
0.00011180782
6.5629618e-05
5.3032014e-05
4.4555789e-05
2.9981924e-05
1.3994591e-05
3.5950334e-06
4.1520432e-07
1.7835324e-08
2.3195516e-10
1.3566214e-12
1.52097e-13
3.2841692e-14
6.6316512e-15
1.2295095e-15
2.0857078e-16
3.2382745e-17
4.615972e-18
6.0721064e-19
7.4126814e-20
8.4244925e-21
8.8947127e-22
8.6356546e-23
7.5408671e-24
5.7526447e-25
3.7095204e-26
1.9499404e-27
7.9734681e-29
2.368085e-30
4.5294491e-32
4.1807028e-34
0.00033975663
0.00036157541
0.00035889089
0.00034562929
0.00034205449
0.00034931334
0.00036032958
0.00036016645
0.00034045817
0.00031588748
0.00029772828
0.00033084028
0.00034672178
0.00035898945
0.00035013209
0.00033160743
0.00030159239
0.00023322811
0.00014054678
8.932114e-05
8.6458432e-05
8.7422962e-05
7.4830381e-05
4.6969376e-05
1.7633458e-05
3.2157498e-06
2.3490334e-07
5.6410694e-09
3.8556408e-11
5.7443839e-13
1.1208516e-13
2.3657074e-14
4.6451079e-15
8.4335125e-16
1.418903e-16
2.2271518e-17
3.2921144e-18
4.6216624e-19
6.1761383e-20
7.7942198e-21
9.1279089e-22
9.6827224e-23
9.0490094e-24
7.2387897e-25
4.8134172e-26
2.5751741e-27
1.0612686e-28
3.1537664e-30
6.0027246e-32
5.4884872e-34
0.00033564828
0.00034649075
0.00036460209
0.00035597978
0.00033808099
0.00033264864
0.00034094124
0.0003515229
0.00034650597
0.00032023093
0.00029029499
0.00026694017
0.00034866877
0.00035793172
0.00034713425
0.00033153069
0.00031131951
0.00025647939
0.00016858022
0.00011418575
0.0001156682
0.00013622697
0.00013649104
0.0001081108
5.6582088e-05
1.5812769e-05
1.9174752e-06
8.2959337e-08
1.0943946e-09
6.2558657e-12
3.6579658e-13
7.8570906e-14
1.6277067e-14
3.1657665e-15
5.8055642e-16
1.0149952e-16
1.7127726e-17
2.807611e-18
4.4469565e-19
6.6873727e-20
9.3173606e-21
1.1731209e-21
1.3039382e-22
1.2519955e-23
1.0143378e-24
6.7703142e-26
3.6147608e-27
1.4811651e-28
4.3658148e-30
8.2280437e-32
7.4381581e-34
0.0003487275
0.00033904778
0.00035176377
0.00036552201
0.00035096859
0.00032873788
0.00032120692
0.00033010571
0.00033901828
0.00032820134
0.00029507049
0.00025988199
0.00023168755
0.00035481183
0.00034211158
0.00032953898
0.00031807396
0.00027621899
0.0001952093
0.00013879561
0.00014178984
0.00017793123
0.00019840243
0.00018294287
0.00012485036
5.1074292e-05
9.9736136e-06
7.5516936e-07
1.9114487e-08
1.7603438e-10
1.6079161e-12
2.4553778e-13
5.3356016e-14
1.1160135e-14
2.2544693e-15
4.4593757e-16
8.7238615e-17
1.6821981e-17
3.1397418e-18
5.5297151e-19
8.958121e-20
1.306007e-20
1.6831388e-21
1.8871114e-22
1.8108675e-23
1.4582915e-24
9.6496514e-26
5.1011225e-27
2.0684892e-28
6.0330377e-30
1.1251366e-31
5.5929286e-36
0.00034953215
0.00034675526
0.00034108367
0.00035544318
0.00036432139
0.00034398477
0.00031722073
0.00030744576
0.00031625672
0.00032218592
0.00030493319
0.00026527104
0.00022520174
0.00019000457
0.00033531809
0.00032610825
0.00032286701
0.00029268724
0.00022010606
0.00016247588
0.00016563597
0.00020799694
0.0002486308
0.00024844129
0.0002034917
0.00011424935
3.4281054e-05
4.3880661e-06
2.0492962e-07
3.6232695e-09
2.6238895e-11
7.7312117e-13
1.6527191e-13
3.7424771e-14
8.4475994e-15
1.9194186e-15
4.3842235e-16
9.8817926e-17
2.1359775e-17
4.3070539e-18
7.9297276e-19
1.3111772e-19
1.9215337e-20
2.4670117e-21
2.7424925e-22
2.6009883e-23
2.0685275e-24
1.3519419e-25
7.0628903e-27
2.8324696e-28
8.1769525e-30
9.194644e-34
1.9932523e-38
0.00032687301
0.00034185464
0.00034271753
0.00034211155
0.00035742555
0.00036100434
0.00033469344
0.00030312221
0.00029101105
0.00029863409
0.00030069396
0.00027670673
0.00023052427
0.0001840261
0.00014076548
0.00032159387
0.00032647232
0.00030666733
0.00024303819
0.00018505319
0.00018716262
0.00023326939
0.00028053205
0.00029567504
0.00026665444
0.0001893995
8.2118197e-05
1.6879699e-05
1.3939156e-06
4.5773113e-08
5.8944118e-10
4.6998562e-12
4.9268057e-13
1.2097023e-13
3.0957023e-14
8.1474639e-15
2.161063e-15
5.5961796e-16
1.3711171e-16
3.1022506e-17
6.3760692e-18
1.1771137e-18
1.933702e-19
2.802014e-20
3.5494028e-21
3.8903239e-22
3.6357539e-23
2.8519937e-24
1.8406601e-25
9.5071884e-27
3.7740759e-28
7.3864934e-32
3.4965574e-36
3.3196049e-41
0.00031623481
0.00031679082
0.00033191273
0.00033731744
0.00034231179
0.00035743127
0.00035538435
0.00032273995
0.00028619631
0.0002713766
0.00027679352
0.00027419325
0.00024250632
0.00018867208
0.00013526295
8.8753812e-05
0.00032941527
0.00031915413
0.00026406982
0.00020650722
0.00020678683
0.00025442792
0.00030612689
0.00032643549
0.00030717243
0.00025117823
0.00014644655
4.5291419e-05
6.234689e-06
3.6331103e-07
8.6501427e-09
8.5040195e-11
1.6543602e-12
3.8144835e-13
1.1169219e-13
3.3965017e-14
1.0301181e-14
3.0021222e-15
8.1769607e-16
2.0435657e-16
4.6301265e-17
9.4352134e-18
1.7184875e-18
2.7791832e-19
3.9625418e-20
4.9409681e-21
5.3327819e-22
4.9116482e-23
3.8027327e-24
2.4259693e-25
1.2403871e-26
3.7983851e-30
3.1117754e-34
5.7894682e-39
2.6734351e-44
0.00033149092
0.00030969269
0.00030519484
0.0003205112
0.00033162533
0.00034126345
0.00035520721
0.00034697197
0.00030795384
0.00026591407
0.00024786371
0.00025014955
0.00024152956
0.00020031926
0.00013839756
8.5197705e-05
4.5880232e-05
0.0003312628
0.00028333728
0.00022684918
0.00022476756
0.00027269956
0.00032636734
0.0003497747
0.00033423942
0.00028932981
0.00020775097
9.0480271e-05
1.9283872e-05
1.8775433e-06
7.9290395e-08
1.39311e-09
1.310302e-11
1.2002584e-12
3.9617234e-13
1.3753577e-13
4.6789651e-14
1.5063379e-14
4.4926911e-15
1.2255306e-15
3.0324128e-16
6.7650095e-17
1.3543934e-17
2.4222848e-18
3.8481924e-19
5.3949967e-20
6.6235309e-21
7.0418193e-22
6.3990122e-23
4.8963849e-24
3.0922066e-25
1.3960298e-28
1.8042383e-32
5.512672e-37
4.2227368e-42
1.1552306e-47
0.00034230644
0.00033194042
0.00030176528
0.0002922987
0.00030865802
0.00032431005
0.00033822533
0.00035017008
0.00033578201
0.00028960643
0.00024182715
0.00022025765
0.00021854851
0.0002008795
0.00014821627
8.7466224e-05
4.3671505e-05
1.848672e-05
0.00030148931
0.00024609107
0.0002411878
0.00028842805
0.00034342956
0.00036715123
0.0003527255
0.00031476287
0.00025349583
0.0001434699
4.385059e-05
6.6473952e-06
4.6867898e-07
1.4590747e-08
1.9719855e-10
4.484401e-12
1.3723226e-12
5.3443232e-13
2.0032613e-13
7.0198757e-14
2.2668274e-14
6.6892367e-15
1.7937297e-15
4.3515873e-16
9.512708e-17
1.8670547e-17
3.276628e-18
5.1145263e-19
7.0556003e-20
8.5358194e-21
8.9505245e-22
8.0370764e-23
6.0878179e-24
3.8992282e-27
7.5351545e-31
3.5735567e-35
3.9125643e-40
1.6251534e-45
3.069332e-51
0.00031840514
0.00035092866
0.00033027989
0.00029243947
0.00027809916
0.00029468074
0.00031513135
0.00033250094
0.00034206506
0.00032090076
0.00026720351
0.00021367217
0.00018872931
0.00017976463
0.00015007168
9.4130671e-05
4.49953e-05
1.7285369e-05
5.5132577e-06
0.00026421266
0.00025608823
0.00030148403
0.00035746497
0.00038074129
0.00036444503
0.00032985579
0.00028420214
0.0001989179
7.8296977e-05
1.7097832e-05
1.881122e-06
9.7863026e-08
2.2879916e-09
3.2011391e-11
4.6574757e-12
1.9739421e-12
8.0352622e-13
3.0307185e-13
1.0504261e-13
3.3293596e-14
9.613714e-15
2.5205626e-15
5.9811445e-16
1.2802478e-16
2.4636744e-17
4.2455433e-18
6.5178211e-19
8.8590009e-20
1.0572494e-20
1.0952542e-21
9.7351901e-23
8.6097877e-26
2.3997383e-29
1.7045279e-33
2.6747301e-38
1.3257144e-43
4.0525967e-49
5.513318e-55
0.00028111611
0.00033346175
0.00035647417
0.00032663927
0.00028151375
0.00026236165
0.00027877877
0.00030327921
0.0003234625
0.00033013417
0.00030164209
0.00023955329
0.0001809708
0.00015117588
0.0001327376
9.5418564e-05
4.8972509e-05
1.7766846e-05
5.009372e-06
1.1742609e-06
0.00026925425
0.00031167567
0.00036784729
0.00039075824
0.00037111382
0.00033667219
0.00030185966
0.00024149502
0.00012835944
3.4170236e-05
5.4300591e-06
4.4184688e-07
1.7259916e-08
3.2797078e-10
1.6750022e-11
6.8959348e-12
3.0128235e-12
1.212731e-12
4.4797447e-13
1.5156985e-13
4.686258e-14
1.3205019e-14
3.3818551e-15
7.8495415e-16
1.6461268e-16
3.1088392e-17
5.2667707e-18
7.9635168e-19
1.0681493e-19
1.2591319e-20
1.2910538e-21
1.5448449e-24
6.050545e-28
6.2607563e-32
1.4173604e-36
8.5067766e-42
2.8919663e-47
7.1725898e-53
7.186976e-59
0.00028079874
0.00029664559
0.00034577338
0.00035919754
0.00032086744
0.00026895687
0.00024486659
0.00026024591
0.0002880868
0.0003103819
0.00031362197
0.00027658169
0.0002056059
0.00014230895
0.00010796928
8.3031226e-05
4.9774822e-05
1.9593453e-05
5.1084589e-06
1.0283125e-06
1.7793133e-07
0.00031856643
0.00037366322
0.00039644601
0.00037284181
0.00033679336
0.00030965569
0.00027126989
0.00017848772
6.6693753e-05
1.2035642e-05
1.4210372e-06
8.7121233e-08
2.6462796e-09
7.8122768e-11
2.2889605e-11
1.0571638e-11
4.5081714e-12
1.7640918e-12
6.3355675e-13
2.0861686e-13
6.2847875e-14
1.727932e-14
4.3245599e-15
9.8262093e-16
2.0210868e-16
3.7508646e-17
6.256238e-18
9.3317042e-19
1.2369259e-19
1.4429385e-20
2.2987314e-23
1.240259e-26
1.8288901e-30
5.9431626e-35
4.5900344e-40
1.5907243e-45
4.755451e-51
9.4227149e-57
7.196059e-63
0.00032235909
0.00029076878
0.00031080815
0.00035516316
0.00035913671
0.00031302166
0.00025452062
0.00022529883
0.00023880556
0.00026904017
0.00029283615
0.00029188327
0.00024358809
0.00016331947
9.9184753e-05
6.5063228e-05
4.2230371e-05
2.0108041e-05
5.7160508e-06
1.0333643e-06
1.4877998e-07
1.9360517e-08
0.0003740528
0.00039615908
0.00036920557
0.00033099985
0.00030999998
0.00028935481
0.00022377482
0.00010724222
2.8306172e-05
3.4613961e-06
3.1036475e-07
1.4736277e-08
4.5833131e-10
7.4326361e-11
3.4939987e-11
1.565006e-11
6.4413575e-12
2.4420796e-12
8.5185717e-13
2.7295929e-13
8.0154261e-14
2.1516856e-14
5.2674001e-15
1.172986e-15
2.3694857e-16
4.3279095e-17
7.1191942e-18
1.049442e-18
1.3767814e-19
2.8813896e-22
2.1079838e-25
4.3529928e-29
2.0097103e-33
2.0753209e-38
7.7705271e-44
2.2638523e-49
6.1092921e-55
9.5687492e-61
6.5184349e-67
0.00036890015
0.00032302507
0.00029976513
0.00032339933
0.00036160368
0.00035633303
0.00030276594
0.00023793615
0.00020350709
0.00021432515
0.00024570405
0.00026996533
0.00026191514
0.00019816999
0.00011453612
5.798658e-05
3.1447184e-05
1.6658009e-05
5.9436644e-06
1.1739819e-06
1.4618675e-07
1.5491504e-08
1.5417354e-09
0.0003888722
0.00035952541
0.00031985807
0.00030444741
0.0002991944
0.00025891507
0.00015348789
5.2716233e-05
9.8914659e-06
8.267164e-07
5.8321407e-08
2.5376185e-09
2.5676939e-10
1.1045829e-10
5.1361205e-11
2.2012938e-11
8.7239536e-12
3.2056129e-12
1.086824e-12
3.3913235e-13
9.7149668e-14
2.5488004e-14
6.1103048e-15
1.3353719e-15
2.6533432e-16
4.7779325e-17
7.7658732e-18
1.1335758e-18
3.0806979e-21
3.016084e-24
8.5988851e-28
5.5798953e-32
7.8202027e-37
3.4391865e-42
9.3128532e-48
2.6876345e-53
6.2155972e-59
8.8085185e-65
5.7426386e-71
0.00037418967
0.00035853216
0.00032197508
0.00030808574
0.0003339578
0.00036491787
0.00035063316
0.00028980389
0.00021884657
0.00017942021
0.000186832
0.00021734705
0.00024079901
0.00021801384
0.00014280942
6.7071825e-05
2.6738319e-05
1.1642277e-05
4.8276448e-06
1.2379447e-06
1.6833319e-07
1.4628807e-08
1.1888942e-09
9.1959801e-11
0.00034379014
0.00030405562
0.00029446803
0.00030316523
0.00028585048
0.00020046829
8.5729032e-05
2.1357567e-05
2.8908216e-06
1.7783843e-07
1.288635e-08
1.2913135e-09
3.7182825e-10
1.6328549e-10
7.1792384e-11
2.9372789e-11
1.118567e-11
3.98622e-12
1.3149147e-12
3.9993637e-13
1.1187624e-13
2.8719629e-14
6.7515416e-15
1.4502983e-15
2.8393724e-16
5.050222e-17
8.1276493e-18
2.8384492e-20
3.6767946e-23
1.4301627e-26
1.2919048e-30
2.4665158e-35
1.3434143e-40
3.6364769e-46
9.5166567e-52
2.6621789e-57
5.7910189e-63
7.8830463e-69
4.9220835e-75
0.00032237204
0.00035305737
0.00034503702
0.00032020301
0.00031527635
0.00034193036
0.00036502746
0.00034172248
0.00027378404
0.000196894
0.00015330694
0.00015666489
0.00018740065
0.00020016087
0.00016052094
8.602074e-05
3.0657912e-05
9.2221223e-06
3.1510591e-06
9.9035225e-07
1.7923238e-07
1.6812171e-08
1.0712814e-09
6.8971637e-11
4.1607306e-12
0.00028460011
0.00028130369
0.00030329758
0.00030716766
0.00024489086
0.00012641884
3.940525e-05
7.2604682e-06
7.8393482e-07
7.3794572e-08
1.3344869e-08
2.5545436e-09
6.3332051e-10
2.3332091e-10
9.479338e-11
3.68794e-11
1.3549568e-11
4.6948209e-12
1.5083322e-12
4.4761247e-13
1.2241068e-13
3.0787995e-14
7.1083537e-15
1.5034451e-15
2.905703e-16
5.1153187e-17
2.273322e-19
3.856484e-22
2.0256073e-25
2.5262057e-29
6.5708846e-34
4.5421346e-39
1.350318e-44
3.0944103e-50
8.6918563e-56
2.4810769e-61
5.2599034e-67
6.8550796e-73
4.1084189e-79
0.00026255842
0.0002963451
0.00032859089
0.00033034344
0.00031779192
0.00032073662
0.00034666835
0.00036146621
0.00032952557
0.00025390301
0.00017216056
0.0001258878
0.00012762862
0.00015011329
0.00014747165