/*--------------------------------*- C++ -*----------------------------------*\
| =========                 |                                                 |
| \\      /  F ield         | OpenFOAM: The Open Source CFD Toolbox           |
|  \\    /   O peration     | Version:  5.0                                   |
|   \\  /    A nd           | Web:      www.OpenFOAM.org                      |
|    \\/     M anipulation  |                                                 |
\*---------------------------------------------------------------------------*/
FoamFile
{
    version     2.0;
    format      ascii;
    class       volScalarField;
    location    "320";
    object      p;
}
// * * * * * * * * * * * * * * * * * * * * * * * * * * * * * * * * * * * * * //

dimensions      [0 2 -2 0 0 0 0];

internalField   nonuniform List<scalar> 
9520
(
3.8217549e-05
3.8680434e-05
-2.1826721e-05
3.9252511e-05
-1.9427876e-05
-3.9839948e-05
3.9550509e-05
-1.5371246e-05
-3.545985e-05
-7.4457649e-05
3.9281059e-05
-1.046044e-05
-2.8017855e-05
-6.7553532e-05
-0.00010251956
3.8170468e-05
-5.536755e-06
-1.9026217e-05
-5.567438e-05
-9.2792546e-05
-0.00013934052
3.5925916e-05
-1.5030007e-06
-9.9182912e-06
-4.1050822e-05
-7.6017944e-05
-0.00012604547
-0.00017880399
3.2115141e-05
1.0837288e-06
-2.0876492e-06
-2.5699976e-05
-5.509103e-05
-0.00010308834
-0.0001618305
-0.00022645836
2.6366379e-05
1.7758761e-06
3.363831e-06
-1.1466459e-05
-3.26905e-05
-7.4099057e-05
-0.0001320504
-0.00020557907
-0.00028125827
1.896783e-05
4.848358e-07
5.6293594e-06
-4.0798899e-08
-1.1303409e-05
-4.2478246e-05
-9.3586971e-05
-0.00016843161
-0.00025592928
-0.00034570972
1.1008364e-05
-2.999138e-06
4.5141899e-06
7.2254821e-06
6.7827116e-06
-1.1247103e-05
-5.0432768e-05
-0.00011952524
-0.0002105423
-0.00031584441
-0.00042024807
1.7772643e-06
-9.9607852e-06
-1.714857e-07
9.4441291e-06
1.9679017e-05
1.6773388e-05
-6.3605213e-06
-6.2880929e-05
-0.00015009106
-0.00026191744
-0.00038590238
-0.00050558135
-1.038013e-05
-1.693555e-05
-7.6484046e-06
6.1146298e-06
2.6055993e-05
3.8842642e-05
3.5303818e-05
-2.9820446e-06
-7.9034044e-05
-0.000189315
-0.00032345196
-0.00046698018
-0.00060200876
-2.3359992e-05
-1.7513708e-05
-1.6579222e-05
-5.8832387e-07
2.4727959e-05
5.1987082e-05
7.1307965e-05
5.6247241e-05
-1.9317819e-06
-0.00010304601
-0.00023849784
-0.00039633524
-0.00055954069
-0.00070955919
-3.2159958e-05
-1.9094437e-05
-2.3213641e-05
-1.1721745e-05
1.2440119e-05
5.3329258e-05
9.8530551e-05
0.00011133723
7.7087046e-05
-7.6383071e-06
-0.00013603127
-0.00029931463
-0.00048134254
-0.00066376788
-0.0008279239
-4.87844e-05
-2.6473266e-05
-2.8098123e-05
-3.6839825e-05
-1.7348557e-05
3.9229436e-05
0.00011373194
0.00015938697
0.00015440176
9.2743224e-05
-2.0788558e-05
-0.0001808533
-0.00037304491
-0.00057897108
-0.00077951178
-0.00095649306
-4.3564898e-05
-2.9006228e-05
-1.8743033e-05
-7.3806337e-05
-5.6584717e-05
7.9241632e-06
0.00011409983
0.000198545
0.00022741968
0.00019435919
0.0001029952
-4.5549612e-05
-0.00023935244
-0.00046054754
-0.00068930952
-0.00090633292
-0.0010943774
-6.3566194e-05
-4.4462275e-05
5.9321595e-06
-9.5693187e-05
-0.00010616751
-3.9760851e-05
0.00010001664
0.00022912218
0.00029478905
0.00029401556
0.00023128493
0.00010223589
-8.4569339e-05
-0.00031263472
-0.00056197085
-0.00081220151
-0.0010434807
-0.0012404448
-4.8061688e-05
-6.6938362e-05
3.6319202e-05
-0.00010920922
-0.00018389776
-0.00010733147
6.9241409e-05
0.00025054038
0.00035656556
0.00038896506
0.00036014609
0.00025790744
8.6723891e-05
-0.00013926045
-0.00040121485
-0.00067809851
-0.00094731498
-0.0011898927
-0.0013933788
-0.00010778337
-7.6305722e-05
0.00011395934
-8.7166576e-05
-0.0002886517
-0.0002077013
1.5703255e-05
0.00026266917
0.00041339262
0.0004778344
0.0004860946
0.00041693586
0.00026966905
5.5103251e-05
-0.00021069763
-0.00050674463
-0.00080902759
-0.0010936591
-0.0013443056
-0.0015517641
-8.8574681e-05
-9.3723428e-05
0.0001944506
-3.9130566e-05
-0.00041141519
-0.0003532585
-6.1659782e-05
0.00026703663
0.00046888935
0.00055982884
0.00060634653
0.00057468632
0.00045922298
0.00026578803
5.6613077e-06
-0.00030146262
-0.00063051472
-0.00095395732
-0.00125005
-0.0015053222
-0.00171416
-0.00017290636
-0.00010572155
0.00038317577
2.6368328e-05
-0.00056917429
-0.00055568891
-0.0001707196
0.00026227499
0.00053099963
0.00064124666
0.00071896179
0.00072560372
0.00064982166
0.0004877743
0.00024370475
-6.5387765e-05
-0.00041409647
-0.00077184232
-0.00111168
-0.0014151874
-0.0016715042
-0.0018790684
-0.00018774952
-0.00013362422
0.00054919499
0.00014000379
-0.00074341267
-0.00084087899
-0.00031213862
0.00024922484
0.00059907734
0.00071534157
0.00081876814
0.00086335878
0.00083505426
0.00071556527
0.00049885775
0.00019805002
-0.00016174006
-0.00054780012
-0.00092873056
-0.0012811537
-0.0015876915
-0.0018413841
-0.0020449157
-0.00023895923
-0.00019590701
0.00091241333
0.00023104721
-0.00096546033
-0.0012130149
-0.00049239384
0.00022927482
0.00068240054
0.00079731889
0.00088155392
0.00097890217
0.0010080365
0.00094324019
0.00076620464
0.00048484402
0.00012361552
-0.00028305588
-0.00070069791
-0.0011011824
-0.0014610835
-0.0017660968
-0.0020133524
-0.0022102112
-0.00024757155
-0.00024627304
0.00120358
0.00060923676
-0.0011822087
-0.0017363793
-0.0007154137
0.00020116846
0.00079037375
0.00090168429
0.00092243259
0.0010763921
0.0011608894
0.0011648331
0.0010409153
0.00079061568
0.00043834202
1.996945e-05
-0.00042773602
-0.00087338869
-0.0012880564
-0.0016499916
-0.001948709
-0.0021857498
-0.0023735993
-0.00033310202
-0.00037247495
0.0016423588
0.00082842729
-0.0014489419
-0.0023353191
-0.0009862241
0.00016763098
0.0009358918
0.0010443512
0.00095871642
0.0011404615
0.0012943
0.0013749372
0.001318555
0.0011114496
0.00077837695
0.00035831667
-0.00011099899
-0.00059657571
-0.001065138
-0.0014878114
-0.0018461937
-0.0021337974
-0.0023571355
-0.0025337257
-0.0003579016
-0.00051173322
0.0019988636
0.0011838135
-0.0016658735
-0.0031358639
-0.0013386932
0.00012171438
0.0011488288
0.0012318233
0.0010007964
0.001144257
0.0013941868
0.0015670683
0.0015952986
0.0014442063
0.001140741
0.00072883326
0.00024717091
-0.00027088468
-0.00078957999
-0.0012745053
-0.0016988415
-0.0020479879
-0.0023198683
-0.0025261946
-0.0026893306
-0.00023645503
-0.00063211098
0.0026125753
0.0016980682
-0.0019694909
-0.0034386047
-0.0018152381
5.1110728e-05
0.0014502535
0.0014856489
0.0010402634
0.0010874463
0.0014366813
0.0017320256
0.0018700429
0.0017889464
0.0015234679
0.0011281988
0.00064333668
0.00010199947
-0.00046023037
-0.0010055146
-0.0014999219
-0.001919544
-0.0022535881
-0.0025052482
-0.0026915172
-0.0028393257
-0.00014044489
-0.0006026083
0.0032550802
0.0022056799
-0.0022469176
-0.0046486813
-0.0024484987
-6.3488035e-05
0.0018540342
0.0018074724
0.0010935589
0.00095382402
0.0014015535
0.0018561443
0.0021402788
0.0021475203
0.0019268784
0.0015529666
0.0010728609
0.000518571
-7.7784019e-05
-0.00067807332
-0.001243064
-0.0017399041
-0.0021478785
-0.0024606639
-0.0026881425
-0.0028518287
-0.0029827372
-1.5540409e-05
-0.00051398922
0.0037131723
0.0024927451
-0.0029080353
-0.0060723127
-0.0032897057
-0.00018641027
0.0023900661
0.002227187
0.0011515623
0.00074166903
0.0012574911
0.0019261393
0.002395565
0.002521897
0.0023512788
0.0020008252
0.0015308283
0.00097365713
0.00035469982
-0.00029162666
-0.00092355318
-0.0015010236
-0.0019924632
-0.0023814431
-0.0026676874
-0.0028672916
-0.0030060351
-0.0031187496
1.4628911e-05
-0.00031034822
0.0039273129
0.0027277665
-0.0035244119
-0.0076041905
-0.004022315
-0.00027342567
0.0030599388
0.0027423831
0.0012397797
0.00040769189
0.00098264412
0.0019210658
0.0026371887
0.0029127714
0.0028008646
0.0024704188
0.0020119905
0.0014603354
0.0008319552
0.0001518323
-0.00053916798
-0.0011958998
-0.0017774778
-0.0022551912
-0.0026185512
-0.002873508
-0.0030416658
-0.0031532694
-0.0032466866
1.5699497e-05
-9.0666127e-05
0.0038359371
0.0031167239
-0.0040378884
-0.0088663858
-0.0049954747
-0.00044900117
0.0038641393
0.0033637994
0.0013542305
-6.2158616e-05
0.00051485813
0.0018191979
0.0028578903
0.0033321217
0.0032819816
0.0029636475
0.002510697
0.0019689811
0.0013462214
0.00064826752
-8.9619872e-05
-0.00081992793
-0.0014934655
-0.0020700207
-0.0025258122
-0.002856917
-0.0030760579
-0.0032099133
-0.0032927209
-0.003365911
-7.9571801e-05
9.8132866e-05
0.0036211707
0.0035442067
-0.0047731092
-0.010625546
-0.006651342
-0.001092642
0.0047608345
0.0040623315
0.0015368441
-0.00073135897
-0.0001781361
0.0015943567
0.0030519703
0.0037850596
0.0038066702
0.0034832855
0.0030272383
0.002491328
0.0018906473
0.0011923191
0.00042313762
-0.00037091155
-0.0011336407
-0.0018138225
-0.0023757431
-0.0028015872
-0.003094115
-0.00327367
-0.0033708675
-0.0034234598
-0.0034758991
-0.00024606745
0.00030722055
0.0032385389
0.0041931503
-0.0057821946
-0.0121151
-0.0083144181
-0.0018690596
0.0060752653
0.0047656262
0.0017736571
-0.0016319138
-0.0012009685
0.0012188854
0.0032029495
0.0042879347
0.0043846942
0.0040400741
0.0035547621
0.0030228874
0.0024583316
0.0017762784
0.00099312327
0.00015059575
-0.00069385742
-0.0014782769
-0.0021540175
-0.0026918591
-0.003079766
-0.0033289502
-0.0034650311
-0.0035232642
-0.0035447877
-0.0035765714
-0.00042122877
0.00048703085
0.0029291608
0.0048306362
-0.0068307652
-0.013220774
-0.0096651723
-0.0021148499
0.0076236286
0.0054839518
0.0021282992
-0.0028567097
-0.0025234051
0.00067243529
0.0032849825
0.0048470764
0.0050389658
0.0046388387
0.004097254
0.0035461787
0.0030055016
0.0023844747
0.0016098505
0.00073898225
-0.00017254189
-0.0010569942
-0.0018511226
-0.0025119887
-0.0030158442
-0.0033582095
-0.0035594926
-0.0036494509
-0.0036664191
-0.0036569182
-0.0036679424
-0.00052534162
0.00056531599
0.0025949881
0.0050282685
-0.0076553127
-0.014378346
-0.010966422
-0.0022370206
0.008538031
0.0060516634
0.0025241503
-0.0044644773
-0.0042040313
-0.00014966052
0.0032586334
0.0054764959
0.0057797615
0.0053004271
0.0046467727
0.0040559326
0.003529195
0.0029863183
0.002255138
0.0013857689
0.00042736303
-0.00054555134
-0.001458164
-0.0022504525
-0.0028845285
-0.0033451501
-0.003636529
-0.0037839088
-0.0038258771
-0.0038006909
-0.0037596775
-0.0037499334
-0.0005526168
0.00046069776
0.0021598658
0.0048523994
-0.0084107317
-0.015293294
-0.012384083
-0.0022484133
0.0085017022
0.006558951
0.0030167519
-0.0065911955
-0.0063365736
-0.0013896311
0.0030351678
0.0061765181
0.0066298881
0.0060224385
0.0052241396
0.0045346797
0.0040221351
0.0035658638
0.002925898
0.0020777185
0.0011007402
5.6468174e-05
-0.0009667303
-0.0018944571
-0.0026718034
-0.0032678901
-0.0036760281
-0.0039107447
-0.0040012136
-0.0039918029
-0.0039253231
-0.0038527757
-0.0038225962
-0.00051144255
0.0001803821
0.0015789118
0.0043304564
-0.0090521282
-0.016002781
-0.013927234
-0.0028138061
0.0085037307
0.0067622453
0.0034662756
-0.0089379326
-0.0092980345
-0.0030026461
0.0025700946
0.006942271
0.0075997065
0.0068208594
0.0058123968
0.0049803247
0.0044503803
0.0040952816
0.0035918492
0.0028148125
0.0018394221
0.0007463408
-0.00037416215
-0.0014342085
-0.002362795
-0.0031116653
-0.0036589443
-0.0040071198
-0.0041792642
-0.0042097629
-0.0041469375
-0.004039408
-0.0039361297
-0.0038860695
-0.00040767629
-0.00025661696
0.00083202955
0.0034835711
-0.0094644818
-0.016586124
-0.015244315
-0.0037520349
0.0077083912
0.0065650018
0.003036531
-0.012726919
-0.01297726
-0.0048231961
0.0017563188
0.0078006101
0.0086763683
0.0076904629
0.0064345801
0.005363245
0.0047911412
0.0045426744
0.0042265869
0.003573713
0.0026423429
0.001522782
0.00032000263
-0.0008639068
-0.0019452416
-0.002859179
-0.0035665669
-0.0040545939
-0.0043352529
-0.0044399134
-0.0044075157
-0.0042915317
-0.0041430336
-0.0040097929
-0.0039405603
-0.00026380384
-0.00082894354
-5.6861141e-05
0.0023396823
-0.0096422837
-0.016817307
-0.01631861
-0.0047453397
0.006404168
0.0060095806
0.0018032538
-0.015534535
-0.017629613
-0.0071390147
0.00047551709
0.0086599455
0.0098289799
0.0086110967
0.0070600995
0.0056869317
0.0049922647
0.0048795369
0.0047991564
0.004335121
0.0034964613
0.0023798366
0.001116934
-0.0001790849
-0.0014099457
-0.0024956008
-0.0033797861
-0.004032636
-0.0044513235
-0.0046576599
-0.0046899106
-0.0045933273
-0.0044249781
-0.0042361205
-0.004073908
-0.0039863616
-0.0014789134
-0.0001106676
-0.0010756672
0.00093964685
-0.0095227461
-0.016666891
-0.016948587
-0.0057963718
0.004502756
0.0051260399
0.0014940479
-0.018325248
-0.022416518
-0.01076716
-0.0017309649
0.0093808527
0.01092736
0.0095314801
0.0077006995
0.0058952602
0.0050352932
0.0050388871
0.0052804136
0.0050773424
0.0043858757
0.0033153429
0.0020128593
0.00061993328
-0.00075083542
-0.002008872
-0.0030813258
-0.0039201935
-0.004505613
-0.0048455854
-0.0049713629
-0.0049278381
-0.0047670658
-0.0045470589
-0.0043188048
-0.0041287893
-0.0040238266
-0.0021976566
-0.0021159426
-2.6948309e-06
-0.00065802225
-0.0091115256
-0.015986185
-0.017001916
-0.0068412711
0.0020427631
0.0032844285
0.0019152243
-0.021477241
-0.027726984
-0.015498385
-0.0052692309
0.0099241734
0.012034186
0.010361854
0.0082919176
0.0059973568
0.0048249071
0.0050403947
0.0056181809
0.0057765001
0.0052981292
0.0043217609
0.0030043323
0.0015360283
3.5725938e-05
-0.0013903505
-0.0026563918
-0.0036976118
-0.0044753572
-0.0049810535
-0.0052337247
-0.0052737576
-0.0051527953
-0.0049282377
-0.0046575813
-0.004391317
-0.0041747463
-0.0040533305
-0.0023957756
-0.0033263072
-0.002673451
4.6495074e-05
-0.0083682745
-0.014740755
-0.016363483
-0.0078891128
-0.0010117616
0.00077498707
0.0021359366
-0.023926878
-0.032985032
-0.020400317
-0.0081812446
0.010364379
0.013020793
0.011003994
0.0088222697
0.0058992777
0.0043425585
0.0046674785
0.0057748807
0.006399082
0.0062255928
0.0053888003
0.0040911891
0.0025648744
0.00094922107
-0.00063406325
-0.0020930518
-0.0033471797
-0.0043386479
-0.0050399381
-0.0054544245
-0.0056123286
-0.0055628926
-0.0053641172
-0.0050764729
-0.0047565425
-0.0044537924
-0.0042121191
-0.004075307
-0.0072699296
-0.0042262388
-0.0043928162
-0.0030501965
2.7277245e-05
-0.012946183
-0.014999347
-0.0090004928
-0.0045660077
-0.0022213173
0.0016728731
-0.026119606
-0.038812576
-0.025393173
-0.010256448
0.0094419486
0.013867609
0.011215611
0.0091565077
0.0056119654
0.0034405918
0.0039478753
0.0056414227
0.0069080437
0.0071456292
0.0065144637
0.0052700465
0.003698961
0.0019908493
0.00025984177
-0.0013850347
-0.0028544936
-0.0040750071
-0.0049983286
-0.0056084914
-0.005921399
-0.0059784843
-0.0058374266
-0.0055611532
-0.0052115208
-0.0048440339
-0.004506615
-0.0042413974
-0.0040902037
-0.010710439
-0.0059732124
-0.0058997721
-0.0052387482
-0.0032454404
-6.2471057e-05
-0.01297293
-0.010233504
-0.0085391493
-0.0057393303
0.00046834859
-0.028782174
-0.043868322
-0.031140501
-0.014566783
0.0080209808
0.01367561
0.01089646
0.0092862109
0.0049643773
0.0021077178
0.0026270527
0.0051561857
0.0072441957
0.0080500801
0.007689406
0.0065393129
0.0049334744
0.0031495914
0.0012866972
-0.00052843248
-0.00220918
-0.0036668898
-0.0048329207
-0.0056703308
-0.0061756815
-0.0063780491
-0.0063298886
-0.0060962328
-0.0057432825
-0.0053332844
-0.0049203105
-0.0045502826
-0.0042630197
-0.0040984711
-0.010313805
-0.0080635299
-0.0046431151
-0.0073226968
-0.0058547485
-0.0032602809
-0.00022491717
-0.011566684
-0.012832991
-0.0097706045
-0.001570119
-0.031311177
-0.048783404
-0.036403626
-0.020403842
0.0040676701
0.013630084
0.0097511859
0.0089257827
0.0040437001
0.00010485935
0.00069244577
0.0041239633
0.0073483122
0.0089012691
0.0089238877
0.0078919068
0.006275355
0.0044114078
0.0024431808
0.00047084384
-0.0014081852
-0.003100684
-0.0045229002
-0.0056140652
-0.0063483422
-0.006736464
-0.0068209856
-0.0066646698
-0.0063382418
-0.0059100525
-0.0054419503
-0.0049859145
-0.0045851941
-0.0042774373
-0.004100533
-0.012658789
-0.007213983
-0.0052732931
-0.0033574481
-0.0084295804
-0.0062557154
-0.0030732901
-0.00040887551
-0.017158848
-0.014025733
-0.004402025
-0.033367636
-0.053054262
-0.041756245
-0.026597111
-0.0005885119
0.011269278
0.0079523746
0.0082429605
0.0024486502
-0.0025333889
-0.0022821019
0.002434167
0.0071368305
0.009678561
0.010197031
0.009330243
0.0077057368
0.0057758569
0.0037099085
0.001603017
-0.00045287787
-0.0023691206
-0.0040506001
-0.0054151465
-0.0064113147
-0.0070261865
-0.0072862588
-0.0072473216
-0.0069811108
-0.0065625962
-0.0060614602
-0.0055380169
-0.0050412561
-0.0046117352
-0.00428496
-0.0040968334
-0.021286488
-0.013471556
-0.0042453698
-0.002584336
-0.0022338033
-0.0091998926
-0.0064051308
-0.0027566331
-0.00053666317
-0.018255139
-0.0079588495
-0.034838703
-0.056270886
-0.046652622
-0.03279729
-0.0061351386
0.0080622875
0.0052911038
0.0067395768
0.00060757683
-0.0063284018
-0.0062311227
-0.00017434486
0.0064645712
0.010292912
0.011507533
0.010825913
0.0092272785
0.0072174833
0.0050719787
0.0028513041
0.00064388581
-0.0014728619
-0.0034043316
-0.0050518795
-0.0063362722
-0.0072174268
-0.0076980307
-0.0078209574
-0.0076544224
-0.0072776945
-0.0067690405
-0.0061979441
-0.0056217599
-0.0050862636
-0.0046299089
-0.0042860078
-0.0040880216
-0.022039254
-0.024964742
-0.013962073
-0.0015587253
-0.00018539235
-0.0012971495
-0.0096177682
-0.0064339894
-0.0023948853
-0.00057995057
-0.012336218
-0.03547958
-0.058023976
-0.050828248
-0.038159041
-0.012186252
0.0024588932
0.0032152298
0.0043109499
-0.0025331572
-0.010717085
-0.011822974
-0.0037618707
0.0051676334
0.010657093
0.012784868
0.012379885
0.010792809
0.0087374902
0.0064992849
0.0041910996
0.0018628124
-0.0004219715
-0.0025808256
-0.0045072107
-0.0060974504
-0.0072788517
-0.008025445
-0.0083584276
-0.0083367015
-0.0080398871
-0.0075536548
-0.0069578736
-0.0063195522
-0.0056925803
-0.0051206953
-0.0046404249
-0.0042817733
-0.0040747024
-0.01720726
-0.02507151
-0.02779421
-0.013947387
0.00080748133
0.0018573287
-0.00054817062
-0.0096801081
-0.0063560141
-0.0020263482
-0.00054029709
-0.035012831
-0.057994589
-0.053643459
-0.042438712
-0.018680654
-0.0049776139
-0.0010054622
0.0014107539
-0.005183488
-0.01694833
-0.018422808
-0.0086652444
0.0028909354
0.010577229
0.013964181
0.013943684
0.012390901
0.010274106
0.0079764576
0.0055860486
0.0031749359
0.00076279617
-0.0015863204
-0.0037714716
-0.0056712902
-0.0071796275
-0.0082347732
-0.0088285102
-0.0090020654
-0.0088299264
-0.0084022123
-0.0078090631
-0.0071288263
-0.0064250258
-0.0057499109
-0.0051459633
-0.00464556
-0.0042733264
-0.0040566694
-0.03326593
-0.022128003
-0.027344153
-0.029757996
-0.013472156
0.00274677
0.0035365417
-2.1580346e-05
-0.0094066298
-0.0062502357
-0.0017076633
-0.00048509622
-0.055816872
-0.05487902
-0.045050304
-0.025276249
-0.014439248
-0.0080045505
-0.0026559769
-0.0070340136
-0.022699477
-0.027577512
-0.015363432
-0.00046581099
0.0097915948
0.014943083
0.015420513
0.013955014
0.011809988
0.0094332174
0.0070081838
0.0045378107
0.0020502556
-0.00043884531
-0.0028451302
-0.0050408853
-0.0068903655
-0.0082903819
-0.0091957556
-0.0096197258
-0.0096238745
-0.009298139
-0.0087410127
-0.0080432309
-0.0072797842
-0.0065133227
-0.0057961843
-0.0051659978
-0.004646785
-0.0042591458
-0.0040321744
-0.051576939
-0.030257478
-0.025870551
-0.028898912
-0.030777617
-0.012661966
0.004191873
0.0048494287
0.00029652301
-0.0088014017
-0.0063209011
-0.0013478274
-0.00032149772
-0.054094699
-0.045544065
-0.031776818
-0.025216584
-0.016994987
-0.0081690942
-0.0094124354
-0.028220637
-0.037036638
-0.02531209
-0.0055451186
0.0080172229
0.015549245
0.016764067
0.015368736
0.013242377
0.010856304
0.0083817736
0.0059131607
0.0033943671
0.00083067617
-0.0017400106
-0.0041980161
-0.0063855505
-0.008157484
-0.009421057
-0.010153483
-0.010392254
-0.010219981
-0.0097402078
-0.0090550998
-0.0082529719
-0.0074089952
-0.0065881126
-0.0058375643
-0.0051823944
-0.0046397425
-0.0042346914
-0.0040019383
-0.050821678
-0.045266341
-0.02639028
-0.027644541
-0.029572046
-0.030924032
-0.011716632
0.0051643798
0.0058276662
0.00038641005
-0.0078564593
-0.0061772359
-0.0010700833
-0.00021312528
-0.043709128
-0.03806685
-0.036580931
-0.027722273
-0.015515646
-0.013275814
-0.033086185
-0.049582789
-0.038276624
-0.013481704
0.0047088474
0.015327674
0.017736763
0.016618015
0.014481937
0.012122006
0.0096884712
0.0072197824
0.0047481192
0.0021764662
-0.00048251574
-0.0031453983
-0.0056464939
-0.0078012487
-0.0094639466
-0.010562021
-0.011099256
-0.011140489
-0.010788256
-0.010154021
-0.0093398862
-0.0084355244
-0.0075216076
-0.0066585017
-0.0058754938
-0.0051860224
-0.0046151259
-0.0042042789
-0.0039663375
-0.039338233
-0.045070774
-0.037707801
-0.02196928
-0.027900303
-0.02924443
-0.030248999
-0.010714873
0.0057270085
0.0065774921
0.00033316336
-0.0068837018
-0.0059875266
-0.00095953966
0.00011439877
-0.043634875
-0.048209304
-0.040164894
-0.025155259
-0.01827946
-0.039180318
-0.06090253
-0.057013589
-0.023737255
0.00020413414
0.013865899
0.018089017
0.017268189
0.015484223
0.013181913
0.010795493
0.0084318204
0.006024335
0.0035448522
0.00088613201
-0.0019000817
-0.004663966
-0.0071917076
-0.0092814157
-0.010799175
-0.011702507
-0.012025375
-0.011860813
-0.011325501
-0.010533322
-0.0095911077
-0.0085975813
-0.0076305003
-0.0067257953
-0.0058940893
-0.0051612062
-0.0045837575
-0.0041682561
-0.0039253067
-0.04770878
-0.033185265
-0.037991804
-0.029613625
-0.017596688
-0.027029915
-0.027992568
-0.028877634
-0.0097199327
0.0058176277
0.0070667609
3.4070582e-05
-0.0060799411
-0.0053533277
-0.00090557937
0.00018663397
-0.059765512
-0.053698332
-0.037228424
-0.024006778
-0.046202456
-0.073867999
-0.071594844
-0.039041331
-0.0093554155
0.012611961
0.017407487
0.017499693
0.015842581
0.013923055
0.011684026
0.0094045595
0.0071873258
0.0048459048
0.0023101862
-0.000493833
-0.003441413
-0.0063056834
-0.0088318908
-0.010816074
-0.012152184
-0.012832697
-0.012926315
-0.012548454
-0.011823091
-0.010872125
-0.0098171393
-0.0087566613
-0.0077368643
-0.0067648155
-0.0058694114
-0.0051282571
-0.0045464825
-0.0041266428
-0.0038788029
-0.070346269
-0.05031331
-0.026449453
-0.030700207
-0.021487664
-0.013453721
-0.02523472
-0.026092607
-0.026997778
-0.0089841601
0.0054311256
0.0072436855
-0.00042761418
-0.0053959861
-0.0046716913
-0.00098450688
0.00019575391
-0.067400388
-0.050309406
-0.029927037
-0.053889832
-0.086533789
-0.0929185
-0.057615469
-0.024029923
0.0058890681
0.017215065
0.016396863
0.015783097
0.014116223
0.012198482
0.010138931
0.0080749945
0.0060299585
0.0037026336
0.0010225606
-0.0019962405
-0.0051298568
-0.0080776649
-0.010560194
-0.012393703
-0.013511912
-0.013944842
-0.013795218
-0.013192127
-0.012272241
-0.011180295
-0.010041129
-0.0089138514
-0.007803317
-0.0067410676
-0.0058343895
-0.0050889307
-0.0045032515
-0.0040792422
-0.003826695
-0.079943724
-0.078956798
-0.050762608
-0.019220884
-0.023444628
-0.013808216
-0.0093760365
-0.02273041
-0.023712831
-0.024946377
-0.0082560687
0.0052222063
0.0071055344
-0.00071079418
-0.0046384407
-0.0040623989
-0.00093782448
0.00018864187
-0.06269407
-0.036592479
-0.06179145
-0.09824489
-0.11309193
-0.080670486
-0.040857728
-0.0020578671
0.013004046
0.015226536
0.014451677
0.013824029
0.012246531
0.010437053
0.0086986117
0.0069178097
0.004998525
0.0025723921
-0.00036609924
-0.0036630481
-0.0069870124
-0.0099792308
-0.012366603
-0.014004112
-0.014866936
-0.015029214
-0.014617307
-0.013779647
-0.01268436
-0.011487296
-0.010263789
-0.0090167415
-0.007782012
-0.0067036174
-0.0057924128
-0.0050432701
-0.0044540877
-0.0040259682
-0.0037690653
-0.073046391
-0.093638908
-0.083916779
-0.048834545
-0.012613178
-0.016126786
-0.0068576863
-0.0054826485
-0.019722801
-0.021184667
-0.022427181
-0.0070288353
0.00519577
0.0067715942
-0.00077232484
-0.0035776255
-0.0033497548
-0.0008741775
0.0001193057
-0.044470485
-0.06929518
-0.10788062
-0.13064071
-0.10528929
-0.057691174
-0.013758462
0.0079355573
0.011165673
0.012375082
0.012524527
0.011762907
0.01031215
0.0088072582
0.0075188757
0.0060104832
0.0040805813
0.0013908112
-0.001922219
-0.0055375302
-0.0090226882
-0.012005067
-0.014243538
-0.015633146
-0.016203529
-0.016066861
-0.015375906
-0.014323086
-0.013096914
-0.011793661
-0.010414181
-0.009000744
-0.0077420701
-0.0066585809
-0.0057437227
-0.0049915171
-0.0043989005
-0.0039670637
-0.0037057664
-0.05322792
-0.080614329
-0.098411284
-0.085336274
-0.045442268
-0.0073636624
-0.0093210031
-0.0007713777
-0.0018536137
-0.016546005
-0.018410285
-0.019844289
-0.0056784292
0.0049517509
0.0061047336
-0.00044454006
-0.002748094
-0.0028765681
-0.00081975841
0.00011092118
-0.074928319
-0.1140318
-0.14367649
-0.12730997
-0.075465192
-0.02770619
-0.0017237558
0.0077462691
0.008207124
0.010594373
0.010501794
0.0095265445
0.0084804754
0.0075187627
0.0067311308
0.0053665172
0.0032004813
5.913756e-05
-0.0037198074
-0.0076527485
-0.011241419
-0.014158531
-0.016173726
-0.017260016
-0.017498364
-0.017035595
-0.016083452
-0.014868713
-0.013510342
-0.012006699
-0.010407729
-0.0089588338
-0.0076937103
-0.0066063932
-0.0056887297
-0.0049334802
-0.0043378101
-0.0039021588
-0.0036369519
-0.076134931
-0.06203291
-0.083800689
-0.099320656
-0.08336257
-0.041158133
-0.003367319
-0.0031101702
0.0042467502
0.0015072821
-0.013163853
-0.01590134
-0.017435153
-0.0046065454
0.0044574604
0.0051312927
-8.7749731e-05
-0.0021464695
-0.0018714488
-0.0007004811
4.5547694e-05
-0.11529238
-0.14998827
-0.14456248
-0.093874888
-0.044094761
-0.013302698
0.00041911415
0.0044974028
0.0068607655
0.0086060014
0.0081391334
0.0072796619
0.0070149537
0.0067759088
0.0063983486
0.0049054674
0.0022218821
-0.0015401978
-0.0058257436
-0.010022711
-0.013667107
-0.016409457
-0.018127414
-0.01885698
-0.018722356
-0.017946667
-0.016796006
-0.015418121
-0.013805396
-0.012015947
-0.010365533
-0.0089074153
-0.0076378574
-0.006547607
-0.005627106
-0.0048692725
-0.0042705862
-0.0038316913
-0.0035624586
-0.11105509
-0.073347111
-0.067277813
-0.083332022
-0.096200146
-0.078685163
-0.036531888
-0.00075935389
0.0020975435
0.008149046
0.0044942381
-0.010298838
-0.013450447
-0.014742545
-0.0034738398
0.0037159279
0.0040774478
7.3419403e-05
-0.0015588778
-0.0020130961
-0.00052346299
4.8523562e-05
-0.14814854
-0.1546514
-0.10875678
-0.061201415
-0.027726447
-0.010777175
-0.002193687
0.0029233073
0.0055047538
0.005820848
0.0055988709
0.0054453966
0.006258358
0.0067478183
0.0064570457
0.0044500108
0.00096631431
-0.0035196409
-0.0082762763
-0.012651644
-0.016245464
-0.018718972
-0.020072807
-0.020387111
-0.019882816
-0.018866961
-0.017515694
-0.015820281
-0.013838876
-0.011975761
-0.010312202
-0.0088480205
-0.0075750072
-0.0064818948
-0.0055590418
-0.0047988524
-0.0041977023
-0.0037553336
-0.0034824171
-0.13850511
-0.10092546
-0.067726931
-0.067028553
-0.079808237
-0.089974932
-0.071888304
-0.032043545
0.00075230145
0.005504393
0.010609452
0.006762511
-0.0085970399
-0.010621173
-0.011955098
-0.002607501
0.0030498824
0.0034123469
0.0001448003
-0.0010395494
-0.0013557567
-0.00034635891
1.3162575e-05
-0.15554911
-0.1174395
-0.076990712
-0.044133497
-0.026361454
-0.011855533
-0.0041460201
0.0023459174
0.0029622311
0.0025141498
0.0034071434
0.0044912471
0.0065473385
0.0074370301
0.0066958813
0.0037348641
-0.00073892944
-0.0059547054
-0.011075178
-0.015550143
-0.018930289
-0.021058708
-0.021965398
-0.0218503
-0.021058368
-0.019801514
-0.018054309
-0.015890288
-0.013804272
-0.011922462
-0.010249872
-0.0087810448
-0.007504809
-0.0064093048
-0.0054846744
-0.0047226579
-0.0041187505
-0.0036731448
-0.0033968412
-0.1459822
-0.12196891
-0.086968419
-0.058799686
-0.062144229
-0.073838361
-0.081225581
-0.063604071
-0.028005114
0.0013904104
0.0072848332
0.012377611
0.0077708219
-0.0070139181
-0.0074411261
-0.0093402624
-0.0018260012
0.0025590085
0.0028861844
0.00031876572
-0.00063701609
-0.0010335789
-0.00023291414
3.8800471e-05
-0.11961793
-0.088856576
-0.061210626
-0.044907724
-0.026351967
-0.01503289
-0.0037366715
0.00031447404
-0.00059683742
-0.0006355058
0.0020765473
0.0049118919
0.0079658344
0.0085860252
0.0067406318
0.0025023098
-0.0030259421
-0.0088652483
-0.014254114
-0.018667717
-0.021714852
-0.023375363
-0.023792706
-0.023336679
-0.022260372
-0.020519501
-0.018180386
-0.015866607
-0.013754386
-0.011858617
-0.010179158
-0.0087061275
-0.0074271991
-0.0063302339
-0.0054044017
-0.0046401746
-0.004033447
-0.0035853659
-0.0033058966
-0.11543811
-0.12759979
-0.10184589
-0.070444491
-0.047963201
-0.053482781
-0.065457887
-0.071086744
-0.054418823
-0.024682249
0.0017136696
0.0089620314
0.012511698
0.0087224061
-0.0046315276
-0.0051380686
-0.0066006018
-0.0011807189
0.0020912359
0.002375907
0.0004558247
-0.00037620172
-0.00053212623
-0.00010228989
5.5321348e-05
-0.092730492
-0.076839962
-0.065544943
-0.046635066
-0.030199192
-0.014002051
-0.0040293165
-0.004057048
-0.0041932313
-0.0029435086
0.0023539797
0.0070296013
0.010246897
0.0096714335
0.0061548956
0.00053138322
-0.0059478682
-0.012275554
-0.017799903
-0.021942095
-0.024521463
-0.025636245
-0.025653647
-0.024870116
-0.023209753
-0.020724955
-0.018176647
-0.01582568
-0.013691545
-0.011785182
-0.010099564
-0.0086231585
-0.0073427745
-0.006245162
-0.0053175208
-0.0045506098
-0.0039424604
-0.0034922061
-0.003209614
-0.088041916
-0.10417068
-0.10529853
-0.080297246
-0.053188676
-0.036020469
-0.042414234
-0.055082391
-0.059899455
-0.045819754
-0.020573353
0.002883141
0.010021
0.012811296
0.0084428117
-0.0021919336
-0.0037335406
-0.0045398933
-0.00055270953
0.0018330734
0.0019729417
0.00058533765
-0.00011486071
-0.00024782034
1.315669e-05
8.7887675e-05
-0.088852777
-0.086240472
-0.071333597
-0.051128394
-0.029002345
-0.011824109
-0.0081606428
-0.009418395
-0.0072203826
-0.0030949468
0.0050189633
0.0105518
0.012515843
0.010053935
0.0046733355
-0.0022733893
-0.0095323024
-0.016211608
-0.021607704
-0.025299908
-0.027292409
-0.027946088
-0.027595837
-0.026118017
-0.023529799
-0.020751653
-0.018154075
-0.015767895
-0.013617327
-0.011701466
-0.010011035
-0.0085328528
-0.0072521655
-0.0061529834
-0.0052225685
-0.0044552372
-0.0038459931
-0.0033937752
-0.0031081299
-0.094588579
-0.078800692
-0.087010106
-0.082030664
-0.059441443
-0.036710458
-0.023674752
-0.030839131
-0.043521882
-0.048940657
-0.037115305
-0.015641677
0.00473305