/*--------------------------------*- C++ -*----------------------------------*\
| =========                 |                                                 |
| \\      /  F ield         | OpenFOAM: The Open Source CFD Toolbox           |
|  \\    /   O peration     | Version:  5.0                                   |
|   \\  /    A nd           | Web:      www.OpenFOAM.org                      |
|    \\/     M anipulation  |                                                 |
\*---------------------------------------------------------------------------*/
FoamFile
{
    version     2.0;
    format      ascii;
    class       surfaceScalarField;
    location    "320";
    object      phi;
}
// * * * * * * * * * * * * * * * * * * * * * * * * * * * * * * * * * * * * * //

dimensions      [0 3 -1 0 0 0 0];

internalField   nonuniform List<scalar> 
18820
(
-0.00039686128
-1.3580201
-0.00076611376
-1.2700115
-0.00037837005
-1.3576418
-0.0011075128
-1.1877967
-0.00073188586
-1.269658
-0.00036045215
-1.3572813
-0.0014204315
-1.1109685
-0.0010604582
-1.1874682
-0.00069740099
-1.2693211
-0.00035082671
-1.3569305
-0.0017043293
-1.0391603
-0.0013636941
-1.1106653
-0.0010112982
-1.1871543
-0.0006783402
-1.2689936
-0.00034991887
-1.3565806
-0.0019590409
-0.97202528
-0.0016409046
-1.0388831
-0.0013028999
-1.1103737
-0.00098399235
-1.1868486
-0.00067648084
-1.268667
-0.00035041491
-1.3562302
-0.0021841086
-0.90924795
-0.0018916627
-0.97177452
-0.0015722151
-1.0386138
-0.0012696263
-1.1100881
-0.0009819699
-1.1865431
-0.00067885819
-1.2683386
-0.00034300854
-1.3558872
-0.0023784125
-0.85053788
-0.0021159585
-0.90902366
-0.0018183434
-0.9715284
-0.001536363
-1.0383471
-0.0012682672
-1.1098018
-0.00098824083
-1.1862337
-0.00066697795
-1.2680146
-0.00032578581
-1.3555614
-0.0025399893
-0.79562707
-0.0023142548
-0.85033959
-0.0020408585
-0.90880114
-0.00178382
-0.97128094
-0.0015369225
-1.0380784
-0.0012800688
-1.1095099
-0.00097514613
-1.1859256
-0.00063575733
-1.2677046
-0.00030249841
-1.3552589
-0.0026661703
-0.74426511
-0.0024880718
-0.79545325
-0.0022404494
-0.85013999
-0.0020115455
-0.90857342
-0.0017886403
-0.97102922
-0.0015560149
-1.0378025
-0.0012687168
-1.1092164
-0.00093354724
-1.1856278
-0.00059139737
-1.2674157
-0.00027968868
-1.3549792
-0.0027551289
-0.69622412
-0.0026395385
-0.74411364
-0.0024204408
-0.79527326
-0.0022194385
-0.8499321
-0.0020235055
-0.90833855
-0.0018180106
-0.97076722
-0.0015490159
-1.0375222
-0.0012212496
-1.1089287
-0.00087047838
-1.1853487
-0.00054686958
-1.2671485
-0.00026192825
-1.3547172
-0.0028055238
-0.65129131
-0.0027709057
-0.69609276
-0.0025883051
-0.74394578
-0.002408062
-0.79508464
-0.0022408965
-0.84971471
-0.0020669709
-0.90808959
-0.0018183648
-0.97049788
-0.0015000044
-1.0372434
-0.0011432778
-1.1086559
-0.00080560517
-1.18509
-0.00051150287
-1.266899
-0.00024971652
-1.3544675
-0.0028324598
-0.60924668
-0.0029035146
-0.6511587
-0.0027597656
-0.6959213
-0.0025794935
-0.74377435
-0.0024385057
-0.79488703
-0.0023020665
-0.84947961
-0.0020785169
-0.90782944
-0.0017717444
-0.97022614
-0.0014116931
-1.036975
-0.001059924
-1.1084015
-0.0007536354
-1.1848478
-0.00048690293
-1.2666618
-0.0002401086
-1.3542274
-0.0028419884
-0.56989479
-0.0030643863
-0.60908581
-0.0029511516
-0.65096732
-0.002737101
-0.69576369
-0.0026107991
-0.74360205
-0.0025191544
-0.79466994
-0.0023306731
-0.84922746
-0.0020385172
-0.90756266
-0.0016763728
-0.96996145
-0.0013127606
-1.0367222
-0.00099240614
-1.1081628
-0.00071714423
-1.1846176
-0.00046795428
-1.2664339
-0.00022905739
-1.3539984
-0.0028432054
-0.5330796
-0.0032405211
-0.56971866
-0.003142634
-0.60889433
-0.0028622029
-0.65084221
-0.0027417379
-0.69563275
-0.0027096731
-0.74341153
-0.0025759446
-0.79442467
-0.0023029841
-0.84896299
-0.0019381781
-0.90730086
-0.0015645471
-0.96970967
-0.0012307861
-1.0364838
-0.00094465739
-1.1079353
-0.0006889169
-1.1843966
-0.0004469275
-1.2662161
-0.0002136115
-1.3537848
-0.0028420913
-0.49864093
-0.003451215
-0.5328689
-0.0033093471
-0.56955195
-0.002930533
-0.608826
-0.0028091197
-0.65077483
-0.0028627079
-0.69547972
-0.0028159998
-0.74317148
-0.0025700529
-0.7941576
-0.0021987248
-0.84870244
-0.0018150131
-0.90705039
-0.0014699335
-0.96947052
-0.0011723892
-1.0362561
-0.00090729172
-1.1077169
-0.0006580588
-1.1841855
-0.00041767014
-1.266012
-0.00019303448
-1.3535917
-0.0028553395
-0.46642502
-0.0037054461
-0.4983867
-0.0034610143
-0.53271723
-0.0029571053
-0.56952537
-0.0028066103
-0.60882851
-0.0029732252
-0.65066431
-0.0030556429
-0.69524007
-0.0028483706
-0.74289316
-0.0024612372
-0.79389509
-0.002063547
-0.84845391
-0.0017098024
-0.90681052
-0.0014024952
-0.96924041
-0.0011264306
-1.0360369
-0.00086627104
-1.1075087
-0.00061590772
-1.1839873
-0.00037811198
-1.2658269
-0.0001688479
-1.3534229
-0.0028628917
-0.43629508
-0.0040453749
-0.46608509
-0.0036272987
-0.49822041
-0.0029168913
-0.53275745
-0.0027460856
-0.5695859
-0.0030475901
-0.60875414
-0.0033066236
-0.65041333
-0.0031508761
-0.69493757
-0.0027311008
-0.7426233
-0.0023086898
-0.79364994
-0.0019489472
-0.84821476
-0.0016361718
-0.90657685
-0.0013494095
-0.96901744
-0.0010755316
-1.0358277
-0.00081103475
-1.1073135
-0.00055892856
-1.1838064
-0.00033087064
-1.2656649
-0.00014399656
-1.3532789
-0.0029237172
-0.40809512
-0.0044852529
-0.4358552
-0.0038249679
-0.46588742
-0.0028146918
-0.49832261
-0.0025874947
-0.53291604
-0.0030926509
-0.56954084
-0.0035811776
-0.60847959
-0.0034990452
-0.65006516
-0.0030171556
-0.69465151
-0.0025477184
-0.74238427
-0.0021836496
-0.79341524
-0.001873074
-0.84797786
-0.0015788554
-0.9063474
-0.0012897818
-0.96880318
-0.0010071144
-1.0356316
-0.0007374856
-1.107135
-0.00048951835
-1.1836478
-0.0002817915
-1.2655271
-0.00012149304
-1.3531574
-0.0029574667
-0.38171322
-0.0050919436
-0.40748843
-0.0040978966
-0.43558227
-0.0026022259
-0.46609989
-0.0022793218
-0.49863079
-0.0031170005
-0.53289169
-0.0038887552
-0.56923326
-0.003913074
-0.60806556
-0.0033298368
-0.64975248
-0.0027776394
-0.69442159
-0.0024076411
-0.74216028
-0.0021106113
-0.7931777
-0.0018163751
-0.84774034
-0.0015128837
-0.9061243
-0.0012088322
-0.96860147
-0.0009167329
-1.0354523
-0.00064741056
-1.1069771
-0.00041555823
-1.183514
-0.00023696286
-1.2654116
-0.00010325514
-1.3530541
-0.0030837071
-0.35695945
-0.0058241959
-0.38098096
-0.0044303125
-0.40715601
-0.0022662795
-0.43591822
-0.0017675315
-0.46661168
-0.0030817728
-0.49866601
-0.0042614165
-0.53251903
-0.0044144338
-0.5687319
-0.003683699
-0.6077117
-0.0029922356
-0.64953789
-0.002610373
-0.69421886
-0.0023432052
-0.74192768
-0.0020624133
-0.79293166
-0.001748446
-0.84750478
-0.0014205016
-0.90591263
-0.0011012838
-0.96841692
-0.00080636325
-1.0352934
-0.00054848054
-1.1068442
-0.0003469736
-1.183404
-0.00020013466
-1.2653148
-8.9722858e-05
-1.3529644
-0.0031272366
-0.33377583
-0.0067730302
-0.35601062
-0.0049076812
-0.3805036
-0.0017456575
-0.40767664
-0.00099629567
-0.43668946
-0.0029747273
-0.46671872
-0.0047427432
-0.49818469
-0.0050318633
-0.5319016
-0.0040748947
-0.5683407
-0.0031865621
-0.60751737
-0.002775781
-0.64937248
-0.0025600044
-0.69400206
-0.0023154993
-0.7416746
-0.0020004031
-0.79267971
-0.0016467562
-0.84727853
-0.0012950655
-0.90571885
-0.00096924358
-0.96825404
-0.00068274709
-1.0351591
-0.00045444123
-1.1067367
-0.00029031069
-1.1833138
-0.00017212137
-1.2652324
-8.0212711e-05
-1.3528842
-0.0033626725
-0.31185634
-0.0077867737
-0.33276209
-0.0054815539
-0.35543674
-0.0010702404
-0.38117901
9.7031263e-05
-0.40876996
-0.002752049
-0.43691213
-0.0053844527
-0.46607701
-0.0058338328
-0.49738272
-0.0045243802
-0.53145211
-0.0033293154
-0.56819795
-0.0028731521
-0.60742
-0.0027427258
-0.64918976
-0.0025707257
-0.69374683
-0.0022731581
-0.74140184
-0.0018935605
-0.7924329
-0.0015023954
-0.8470712
-0.0011390569
-0.90554903
-0.00081967459
-0.96811711
-0.00056205121
-1.0350515
-0.00037575954
-1.1066513
-0.00024702445
-1.1832389
-0.00015176726
-1.2651608
-7.3557379e-05
-1.3528106
-0.0038033241
-0.29115045
-0.0091509368
-0.31049217
-0.0062621118
-0.33198153
-8.9913483e-05
-0.35641707
0.0015784018
-0.38266038
-0.0024081011
-0.40911391
-0.0062375145
-0.43605907
-0.0068929934
-0.46501785
-0.0050529667
-0.49685413
-0.0033950074
-0.53138642
-0.0028683383
-0.56820276
-0.0028566853
-0.60730604
-0.0028188073
-0.64894167
-0.0025725366
-0.69344745
-0.0021692584
-0.74112614
-0.0017287449
-0.79220655
-0.0013188387
-0.84689141
-0.00096094207
-0.90540777
-0.00067061025
-0.96800855
-0.00045939361
-1.0349679
-0.00031515526
-1.1065831
-0.00021504446
-1.1831757
-0.00013726042
-1.2650971
-6.8608343e-05
-1.352742
-0.0042547483
-0.27231688
-0.010713124
-0.28958827
-0.0071081936
-0.30964609
0.0010102364
-0.33308168
0.0035432318
-0.3583819
-0.0018534341
-0.38321505
-0.007374491
-0.40797693
-0.0083014593
-0.43465061
-0.0056940341
-0.46437678
-0.0033492361
-0.4968999
-0.0026986383
-0.53155612
-0.0028905844
-0.56816886
-0.0030472536
-0.60707759
-0.0029066579
-0.64860755
-0.0024869421
-0.69312977
-0.0019818228
-0.74087307
-0.0015116315
-0.79201376
-0.0011078403
-0.84674452
-0.00078136478
-0.90529701
-0.00054238687
-0.96792556
-0.0003788938
-1.0349041
-0.00026996493
-1.1065282
-0.00019131835
-1.1831216
-0.00012682084
-1.2650389
-6.4434194e-05
-1.3526776
-0.0046511214
-0.25442478
-0.012494453
-0.27053556
-0.0079618565
-0.2887346
0.0026671657
-0.31130302
0.0059808026
-0.33551925
-0.0011554284
-0.35907991
-0.0088648258
-0.38172472
-0.010144853
-0.40613354
-0.0064886947
-0.43385595
-0.0031589428
-0.46456708
-0.0022965234
-0.49730202
-0.0028203886
-0.53162632
-0.0032599572
-0.56795616
-0.0032917689
-0.60669248
-0.0028662254
-0.64822827
-0.0022735122
-0.69283808
-0.0017209404
-0.74066376
-0.0012605602
-0.79186104
-0.00089483576
-0.84663105
-0.00062597059
-0.90521343
-0.00044041764
-0.96786403
-0.00031768655
-1.0348564
-0.00023578672
-1.1064837
-0.00017344389
-1.183075
-0.00011862813
-1.2649847
-6.0314945e-05
-1.3526173
-0.005815462
-0.23589514
-0.014272799
-0.25264643
-0.0092010784
-0.26929633
0.0046654344
-0.29073287
0.0089301157
-0.31425233
-0.00011547467
-0.3365592
-0.010836753
-0.35710798
-0.012546124
-0.37932344
-0.007477893
-0.40514434
-0.0027815174
-0.43423337
-0.0015807564
-0.46528284
-0.0025699611
-0.49755244
-0.0034788145
-0.53140746
-0.0037461319
-0.5675018
-0.0033397336
-0.60621897
-0.0026214966
-0.64788028
-0.0019508732
-0.69260815
-0.0014177931
-0.74050652
-0.0010098021
-0.79174607
-0.00071084672
-0.84654617
-0.00050138647
-0.90515246
-0.00036114207
-0.96782058
-0.00027070945
-1.0348215
-0.00020885738
-1.1064483
-0.00015945506
-1.1830342
-0.00011073873
-1.2649343
-5.5746322e-05
-1.3525615
-0.007448835
-0.21735047
-0.016810134
-0.23335781
-0.010675593
-0.25117192
0.0070970734
-0.27172797
0.01242925
-0.29423201
0.00097743791
-0.31534525
-0.013300229
-0.33409573
-0.015588189
-0.35406591
-0.0087267494
-0.37807459
-0.0021703323
-0.40575553
-0.00044727098
-0.43536686
-0.0020554011
-0.4657974
-0.0036957635
-0.4973355
-0.004304736
-0.53084885
-0.0039372703
-0.56690426
-0.0030526572
-0.60578781
-0.0022073381
-0.64762382
-0.001575879
-0.69245006
-0.0011221245
-0.7403942
-0.00079594678
-0.79166097
-0.00056330974
-0.84648425
-0.0004027731
-0.90511083
-0.00029871368
-0.96779257
-0.00023291424
-1.0347974
-0.00018650888
-1.1064213
-0.00014678331
-1.1829981
-0.0001016512
-1.2648884
-5.0585023e-05
-1.3525109
-0.0091706921
-0.20040726
-0.019403793
-0.21475681
-0.011586711
-0.23244669
0.0096929112
-0.25376776
0.016607935
-0.27590666
0.0022046401
-0.29545921
-0.016372511
-0.31227296
-0.019440691
-0.33024323
-0.010262563
-0.3525301
-0.0012636157
-0.3789813
0.0012153702
-0.40741817
-0.0011811112
-0.43624115
-0.0038885018
-0.46560466
-0.0050236756
-0.49661656
-0.0046988568
-0.53008727
-0.0035942029
-0.56636271
-0.0024976236
-0.60549753
-0.0017285346
-0.64747116
-0.0012233377
-0.69234885
-0.00087705689
-0.74031309
-0.0006264624
-0.79159782
-0.00044528447
-0.84644173
-0.00032306963
-0.90508647
-0.00024722662
-0.96777826
-0.00020025695
-1.0347837
-0.00016630335
-1.1064017
-0.00013299334
-1.1829668
-9.1107065e-05
-1.2648478
-4.5183652e-05
-1.3524658
-0.010977995
-0.18451541
-0.021827653
-0.1979834
-0.011519956
-0.21482357
0.013632859
-0.23638664
0.021175116
-0.25833494
0.0037547286
-0.27745675
-0.020251364
-0.29158035
-0.024118102
-0.30759555
-0.012178281
-0.32832751
1.9115844e-05
-0.35381283
0.0035540886
-0.38132002
0.00015973795
-0.40875902
-0.0040290908
-0.43610056
-0.0059652077
-0.46466313
-0.0057086643
-0.49560675
-0.0042747827
-0.52940669
-0.0028323478
-0.56602799
-0.0018634369
-0.60536263
-0.0012990701
-0.64739543
-0.00094532266
-0.69228058
-0.00068898538
-0.74025057
-0.00049100445
-0.7915521
-0.00034768813
-0.84641712
-0.00025557553
-0.90507812
-0.00020197713
-0.96777654
-0.00017035081
-1.0347796
-0.00014624988
-1.1063885
-0.00011719011
-1.1829407
-8.0220524e-05
-1.2648128
-4.015141e-05
-1.3524256
-0.014693451
-0.19948429
-0.024077846
-0.18226521
-0.01098631
-0.19851704
0.018726631
-0.21991734
0.026296403
-0.24150792
0.0062533381
-0.26083355
-0.024928822
-0.27277929
-0.029607108
-0.28609135
-0.014389228
-0.30538461
0.0017783392
-0.33008673
0.0067055005
-0.35696425
0.0020946407
-0.38325493
-0.0040880369
-0.40870007
-0.0072023137
-0.43486345
-0.0070674328
-0.46330436
-0.0051566898
-0.49472484
-0.0032164423
-0.52902259
-0.0019642516
-0.56592718
-0.0013263636
-0.60533533
-0.00098523385
-0.64735552
-0.00074547142
-0.6922241
-0.00054157934
-0.74019999
-0.00037704945
-0.79152274
-0.00026273771
-0.84640995
-0.00019536583
-0.90508473
-0.00016039198
-0.9677865
-0.00014135153
-1.0347845
-0.000124547
-1.1063811
-0.00010034358
-1.1829206
-7.0260867e-05
-1.2647827
-3.5995588e-05
-1.3523896
-0.017969419
-0.19603702
-0.028157008
-0.19540513
-0.0099181093
-0.18333341
0.02415937
-0.20394978
0.031561765
-0.2251827
0.0086274308
-0.24388202
-0.029409804
-0.25635257
-0.036135195
-0.2662512
-0.016908784
-0.28357179
0.0041751274
-0.30778139
0.010840542
-0.33422177
0.0047441828
-0.35961379
-0.0040250591
-0.3833179
-0.0088191284
-0.40708325
-0.0089014952
-0.43302939
-0.006321319
-0.46213973
-0.003656197
-0.49428509
-0.0020090504
-0.52897779
-0.0012716817
-0.56598186
-0.00097230935
-0.60534826
-0.00078559418
-0.6473154
-0.00059736444
-0.69216831
-0.00041660515
-0.74016044
-0.00027505965
-0.79151042
-0.00018538551
-0.84641993
-0.0001391746
-0.90510595
-0.0001194605
-0.96780839
-0.00011108591
-1.034798
-0.00010152355
-1.1063799
-8.4963578e-05
-1.1829059
-6.2046831e-05
-1.2647566
-3.3042287e-05
-1.3523566
-0.02077735
-0.19227023
-0.031771275
-0.19242275
-0.010438806
-0.19488444
0.029722774
-0.18889682
0.036402518
-0.20879054
0.0092925639
-0.22584784
-0.034589053
-0.23870277
-0.044290398
-0.24819736
-0.020080758
-0.26307923
0.0073003075
-0.28669697
0.01609249
-0.31303334
0.0082575928
-0.33773518
-0.0038157582
-0.35982309
-0.010916786
-0.38122025
-0.011352526
-0.40463222
-0.0078700812
-0.43148063
-0.0041684042
-0.46162753
-0.0019596995
-0.49433444
-0.0010894566
-0.52916002
-0.00087620769
-0.56607796
-0.00079340446
-0.60534045
-0.00065756404
-0.6472552
-0.00047358
-0.69211134
-0.00030130166
-0.7401342
-0.00017908898
-0.79151671
-0.00011113798
-0.84644797
-8.3018262e-05
-0.90514239
-7.7727672e-05
-0.96784175
-8.0638196e-05
-1.0348189
-8.0121102e-05
-1.1063848
-7.2277315e-05
-1.1828956
-5.6202141e-05
-1.2647335
-3.1461443e-05
-1.3523251
-0.023101213
-0.18844224
-0.034882646
-0.18915886
-0.01023889
-0.19262266
0.03386823
-0.19902989
0.040715878
-0.19321018
0.0087854396
-0.20828341
-0.041848026
-0.21858886
-0.053385026
-0.22960814
-0.024745718
-0.2435324
0.011122529
-0.26690145
0.02259579
-0.29320027
0.01271541
-0.31749116
-0.0033999092
-0.33815103
-0.013612386
-0.35712749
-0.014598786
-0.37797398
-0.0099176389
-0.40258467
-0.0047746401
-0.43087439
-0.0017673158
-0.46181991
-0.00071839152
-0.4947055
-0.00064361989
-0.52939261
-0.00075069151
-0.56612067
-0.00072154914
-0.60527646
-0.00055675862
-0.64717202
-0.00035314623
-0.69205949
-0.00018654918
-0.74012674
-8.3257155e-05
-0.79154459
-3.5710147e-05
-0.84649528
-2.6529551e-05
-0.90519359
-3.7355932e-05
-0.96788503
-5.2487075e-05
-1.0348465
-6.2374259e-05
-1.1063947
-6.3018232e-05
-1.1828888
-5.3059312e-05
-1.2647119
-3.1235956e-05
-1.3522939
-0.024896918
-0.18463964
-0.037485562
-0.18583933
-0.0094437276
-0.18995402
0.038728856
-0.19748329
0.043990214
-0.20230423
0.007655302
-0.19208004
-0.049875833
-0.2002556
-0.061834344
-0.21013955
-0.029701613
-0.22465225
0.015584991
-0.24799487
0.030363391
-0.27466905
0.018201886
-0.29868675
-0.0027963878
-0.31809468
-0.017043878
-0.33471954
-0.018822632
-0.35290364
-0.012606561
-0.37528506
-0.0055006417
-0.40185867
-0.0013724207
-0.43126929
-7.730392e-05
-0.462461
-0.00020763668
-0.49514149
-0.00062194979
-0.52952135
-0.00077807945
-0.56606414
-0.00067527109
-0.60515795
-0.00044560581
-0.64707956
-0.00022127641
-0.69202476
-6.5385092e-05
-0.74014461
1.6748614e-05
-0.79159705
4.0540785e-05
-0.84656235
2.7452616e-05
-0.9052584
-7.9637373e-07
-0.96793672
-2.9042661e-05
-1.0348798
-4.953144e-05
-1.1064082
-5.7791471e-05
-1.1828841
-5.2243475e-05
-1.2646909
-3.2271469e-05
-1.3522616
-0.026126378
-0.18107501
-0.039517026
-0.18260817
-0.0082287607
-0.18705429
0.044021751
-0.19524692
0.047875366
-0.20136844
0.0064928703
-0.2011418
-0.058020443
-0.18393543
-0.06943535
-0.1926546
-0.032953446
-0.20688771
0.021080363
-0.23014762
0.039622395
-0.25725387
0.024747384
-0.28121455
-0.0020058923
-0.29947724
-0.021391444
-0.31374711
-0.024247739
-0.32929443
-0.016074991
-0.34943521
-0.006369228
-0.37441648
-0.00070825728
-0.40252283
0.00093457429
-0.43228116
0.0005162152
-0.46318485
-0.00035154457
-0.49541189
-0.00082799084
-0.52947144
-0.0008319621
-0.56590745
-0.00059760447
-0.60500595
-0.0003016857
-0.64699915
-7.0368356e-05
-0.69201978
6.6404632e-05
-0.74019426
0.00011916052
-0.79167567
0.00011326459
-0.84664816
7.6623582e-05
-0.90533582
3.0075376e-05
-0.96799584
-1.2164527e-05
-1.0349172
-4.2236145e-05
-1.1064237
-5.6489805e-05
-1.1828798
-5.4097834e-05
-1.264669
-3.4442787e-05
-1.3522272
-0.026786331
-0.17795501
-0.040939961
-0.17965208
-0.0067099007
-0.18412703
0.049485743
-0.19251829
0.052124211
-0.19949577
0.00574453
-0.2006201
-0.066159941
-0.1930023
-0.076546436
-0.17682435
-0.035146469
-0.19046158
0.02798334
-0.21379069
0.050612789
-0.24113801
0.032689887
-0.26519637
-0.0011132625
-0.28210718
-0.026885313
-0.29398337
-0.031071111
-0.30692374
-0.020494112
-0.32487531
-0.0074013307
-0.34840311
0.00031322032
-0.37543795
0.0024340569
-0.40402231
0.0016305502
-0.4333955
0.00012238955
-0.46365878
-0.00085316315
-0.49538672
-0.0010527499
-0.52925065
-0.00083200175
-0.56567305
-0.00045239925
-0.60485524
-0.00011671596
-0.6469528
0.00010132969
-0.69205471
0.00020299896
-0.7402781
0.00021678016
-0.79177919
0.00017866349
-0.8467502
0.00011740187
-0.90542315
5.2557004e-05
-0.96806056
-2.4506458e-06
-1.034957
-4.0463029e-05
-1.1064398
-5.9484832e-05
-1.1828745
-5.8360971e-05
-1.2646451
-3.7518453e-05
-1.3521896
-0.026928151
-0.17547873
-0.041719152
-0.17717582
-0.005053093
-0.18130888
0.054835661
-0.18947695
0.056641211
-0.19703529
0.0053102207
-0.19906146
-0.073969748
-0.19281029
-0.085441099
-0.18410764
-0.036437987
-0.17553283
0.035955116
-0.19843335
0.062910295
-0.22608819
0.042445286
-0.25089341
0.00043502385
-0.26674466
-0.033639365
-0.27535313
-0.039504843
-0.28554964
-0.025951763
-0.30146609
-0.0086168889
-0.32365975
0.0017909711
-0.34988086
0.004555183
-0.37755908
0.0032588451
-0.40565061
0.00087757741
-0.43415069
-0.00082666705
-0.46368528
-0.0013701664
-0.4950693
-0.0011792106
-0.52890344
-0.00070841288
-0.56541704
-0.00022821818
-0.60474373
0.00010674189
-0.64695822
0.00028424839
-0.69213596
0.00033499801
-0.74039632
0.00030496498
-0.79190549
0.00023321503
-0.84686601
0.00014733717
-0.90551792
6.5759569e-05
-0.96812877
1.3356502e-08
-1.0349975
-4.4134505e-05
-1.1064551
-6.6012379e-05
-1.1828668
-6.4439237e-05
-1.2646182
-4.1226009e-05
-1.3521484
-0.02651294
-0.1737542
-0.041907389
-0.17529049
-0.0033151702
-0.17891374
0.059772167
-0.18624539
0.061134727
-0.19397047
0.0052686357
-0.1969937
-0.081327013
-0.19170419
-0.094026468
-0.18422492
-0.042425996
-0.17811963
0.044778283
-0.18435599
0.075759922
-0.21128298
0.052691069
-0.23633398
0.0031378164
-0.2535962
-0.041344912
-0.25903911
-0.049588059
-0.26526991
-0.032517343
-0.27898406
-0.0099815245
-0.30010145
0.0038497343
-0.32571852
0.0074419291
-0.35276761
0.005537359
-0.37983759
0.0020099763
-0.406783
-0.00071484975
-0.4342625
-0.0018037011
-0.46325175
-0.0016998936
-0.49454862
-0.0011019243
-0.52850993
-0.00044048111
-0.56520478
6.4097823e-05
-0.60470109
0.00035364042
-0.64702761
0.00046406149
-0.69226502
0.00045473921
-0.74054609
0.00037873287
-0.79205101
0.00027379698
-0.84699247
0.00016536826
-0.90561753
6.9565634e-05
-0.96819832
-4.2381565e-06
-1.0350374
-5.2781808e-05
-1.1064683
-7.5279483e-05
-1.182856
-7.1862243e-05
-1.2645876
-4.5306078e-05
-1.3521031
-0.17294821
-0.025625176
-0.041524085
-0.1741375
-0.0015651469
-0.17704051
0.064084613
-0.18322619
0.06538229
-0.19049295
0.0054689692
-0.1941708
-0.088111713
-0.190209
-0.10205028
-0.18368038
-0.048102267
-0.17854865
0.048764208
-0.18210555
0.088534774
-0.19713085
0.062638362
-0.22123027
0.006844019
-0.24004018
-0.049895317
-0.2450458
-0.061481002
-0.24714617
-0.040309048
-0.25747821
-0.011417119
-0.27754847
0.0066316443
-0.30288337
0.011254631
-0.32953122
0.0086147012
-0.35584495
0.0036310325
-0.38145865
-0.00048098375
-0.40701687
-0.0023778914
-0.43368831
-0.0024591713
-0.46249247
-0.0016956274
-0.49395491
-0.00078812521
-0.52816228
-5.2906439e-05
-0.56508777
0.00039854624
-0.604746
0.00059988397
-0.64716343
0.00062766396
-0.69243794
0.00055508349
-0.74072244
0.00043407393
-0.79221128
0.00029894606
-0.84712605
0.00017140234
-0.90571937
6.4597744e-05
-0.96826716
-1.4860419e-05
-1.0350753
-6.5375191e-05
-1.1064782
-8.6607512e-05
-1.1828412
-8.0016199e-05
-1.2645529
-4.9457181e-05
-1.3520537
-0.17372883
-0.04074346
-0.17327049
-0.024264979
-0.00013470252
-0.17556795
0.067653859
-0.18060976
0.069095771
-0.18693967
0.0059055779
-0.19092956
-0.094155528
-0.18812698
-0.10945592
-0.18280336
-0.05340193
-0.17838072
0.053253281
-0.18303773
0.099234373
-0.19280515
0.071919414
-0.2064119
0.0097236858
-0.22410994
-0.058771546
-0.23116395
-0.075607788
-0.23091901
-0.050043707
-0.23741151
-0.012882771
-0.25601256
0.010299804
-0.28121663
0.016144069
-0.3077728
0.012645554
-0.33356207
0.0058660452
-0.35807996
-7.0078547e-05
-0.38186956
-0.0031246927
-0.40627007
-0.0035348628
-0.43261262
-0.0025771752
-0.46161092
-0.00131658
-0.49342646
-0.00027744281
-0.52793775
0.00040634677
-0.56509557
0.00073823424
-0.60488435
0.00082430151
-0.64736007
0.00076451331
-0.69264737
0.00063071274
-0.74091908
0.00046921304
-0.79238155
0.00030861101
-0.84726326
0.00016616651
-0.90582094
5.1708795e-05
-0.96833372
-3.0881561e-05
-1.0351098
-8.0833445e-05
-1.106484
-9.9137883e-05
-1.1828221
-8.8385325e-05
-1.2645139
-5.3510626e-05
-1.3520001
-0.17480112
0.00093758601
-0.17453724
-0.039476703
-0.17488379
-0.0224511
0.070126141
-0.17804023
0.072093087
-0.18360708
0.0064615596
-0.18749565
-0.099272335
-0.18581275
-0.115919
-0.1816639
-0.058300886
-0.17790441
0.058122452
-0.18324989
0.11049464
-0.19429799
0.083241329
-0.20412707
0.010259057
-0.20694727
-0.0689451
-0.21393638
-0.092094108
-0.21467763
-0.062133035
-0.21882968
-0.014937294
-0.23535699
0.015067877
-0.26078063
0.022272074
-0.28734463
0.017767008
-0.31289426
0.0088575055
-0.33655353
0.00057688104
-0.35872692
-0.0040729963
-0.38092125
-0.0050180514
-0.40478688
-0.0038473514
-0.43134244
-0.0021054706
-0.46082203
-0.00063629412
-0.49306761
0.00035441968
-0.52788582
0.0008764005
-0.56523374
0.0010481167
-0.60510816
0.0010113878
-0.64760694
0.0008676719
-0.69288433
0.00067956964
-0.74112944
0.00048431541
-0.79255726
0.0003038317
-0.84740092
0.00015087677
-0.90592011
3.2010404e-05
-0.96839662
-5.0902252e-05
-1.0351397
-9.8162565e-05
-1.106485
-0.00011214183
-1.1827983
-9.6691927e-05
-1.2644708
-5.7298956e-05
-1.3519428
-0.17630819
0.07163321
-0.17529482
0.0016951607
-0.17656165
-0.037798851
-0.17723787
-0.020229432
0.074339511
-0.18028665
0.0070572121
-0.18420273
-0.10330926
-0.18345872
-0.1212683
-0.18046345
-0.062643507
-0.17732128
0.063127811
-0.18290977
0.12220987
-0.19496512
0.095110349
-0.20616701
0.016498533
-0.21036654
-0.080492269
-0.1954001
-0.10868963
-0.19734087
-0.075654595
-0.20115607
-0.017889096
-0.21587788
0.020981255
-0.24127036
0.029761126
-0.26826968
0.024122699
-0.29370032
0.012732758
-0.31676951
0.0015477546
-0.33752441
-0.0052684327
-0.35753148
-0.0070245445
-0.37891476
-0.005624974
-0.40300926
-0.0032482014
-0.43019971
-0.0011741669
-0.46028415
0.00022544454
-0.49293863
0.0010112027
-0.52802062
0.0013032369
-0.56548886
0.0013029196
-0.60539969
0.0011511735
-0.64789044
0.00093468634
-0.69313945
0.00070223608
-0.74134736
0.00048091083
-0.79273433
0.00028627702
-0.84753632
0.00012704124
-0.90601514
6.9056187e-06
-0.96845442
-7.3572913e-05
-1.0351643
-0.0001163744
-1.1064808
-0.00012511662
-1.1827699
-0.00010447156
-1.2644236
-6.0681594e-05
-1.3518822
-0.17773665
0.075767972
-0.17563075
0.071969142
-0.17688766
0.0020211721
-0.17938549
-0.035651227
-0.18004553
-0.017775979
0.0079280842
-0.18115753
-0.10614662
-0.18136537
-0.12533793
-0.17938909
-0.066223466
-0.17688349
0.067983182
-0.18217665
0.13388627
-0.19458617
0.10747901
-0.20733377
0.023764403
-0.21343288
-0.086337637
-0.20452117
-0.12326194
-0.18082779
-0.088161805
-0.18483366
-0.021241295
-0.19780387
0.0280049
-0.22290153
0.038810859
-0.2503201
0.031777189
-0.27592417
0.017650814
-0.29861838
0.0029200417
-0.3181418
-0.0067336574
-0.33605918
-0.0096820569
-0.35487397
-0.0080614267
-0.37647831
-0.0048509894
-0.40140647
-0.0019533548
-0.42942053
1.4064285e-05
-0.46007277
0.0011400037
-0.49306743
0.0016027221
-0.52832011
0.0016512832
-0.56583722
0.0014907427
-0.60573926
0.0012412466
-0.648197
0.00096697704
-0.69340419
0.00070103716
-0.74156749
0.00046128449
-0.79290934
0.00025794259
-0.84766722
9.6393072e-05
-0.90610462
-2.1724722e-05
-0.96850627
-9.7655265e-05
-1.035183
-0.00013467389
-1.1064712
-0.00013744955
-1.1827369
-0.00011154552
-1.2643727
-6.3635524e-05
-1.3518185
-0.17871928
0.0089107092
-0.17604332
0.076180544
-0.17627015
0.071351635
-0.17938089
0.002016573
-0.18254488
-0.033151882
-0.18348731
-0.015166751
-0.10751246
-0.17979169
-0.12804677
-0.17865654
-0.068993533
-0.17661902
0.072564784
-0.18146509
0.14507011
-0.19336049
0.11990686
-0.20701403
0.030762745
-0.21433212
-0.091500224
-0.20827029
-0.13682439
-0.19095872
-0.098935872
-0.17005372
-0.024565304
-0.18150965
0.035816789
-0.20561576
0.04947032
-0.23356099
0.040851592
-0.2593945
0.023697212
-0.28197057
0.0048199703
-0.30051831
-0.0085213798
-0.31635407
-0.013158773
-0.33258246
-0.011323513
-0.35161189
-0.007042974
-0.37428632
-0.0030433207
-0.4003165
-0.00029817569
-0.42910829
0.0012705384
-0.46020331
0.001963921
-0.49342863
0.0020759028
-0.52874473
0.0019019086
-0.56624839
0.0016092549
-0.60610727
0.0012846757
-0.6485147
0.00096825451
-0.69367141
0.00067921434
-0.74178542
0.00042807994
-0.79307948
0.00022101042
-0.84779184
6.0854116e-05
-0.9061872
-5.2570762e-05
-0.96855136
-0.00012207726
-1.0351956
-0.00015235722
-1.1064563
-0.00014882173
-1.1826997
-0.00011781507
-1.2643185
-6.609055e-05
-1.3517524
-0.17895
-0.10728174
-0.17721033
0.010077721
-0.17599373
0.075904118
-0.1776416
0.069612342
-0.18235056
0.0018222568
-0.18624084
-0.030398353
-0.18729651
-0.012566165
-0.12955752
-0.17828093
-0.070928672
-0.1767214
0.076653871
-0.18070811
0.1552288
-0.19162379
0.13191759
-0.20537121
0.038222446
-0.21447373
-0.09668219
-0.20915015
-0.15049512
-0.19459956
-0.11565086
-0.17424373
-0.027757868
-0.16686116
0.043973493
-0.18966635
0.061675852
-0.21782129
0.051343064
-0.24405246
0.031007498
-0.26670479
0.007333149
-0.28448375
-0.010635736
-0.29840395
-0.01762993
-0.31188292
-0.015631155
-0.32827482
-0.0099625299
-0.34869233
-0.004518166
-0.37281148
-0.00073328481
-0.3998814
0.001425455
-0.4292632
0.0024094558
-0.46064884
0.002604464
-0.49395719
0.0024059227
-0.52924874
0.0020531292
-0.56669226
0.0016637479
-0.60648634
0.0012873548
-0.6488338
0.00094329312
-0.69393549
0.00064038582
-0.74199772
0.00038408825
-0.79324256
0.00017776031
-0.84790875
2.2284307e-05
-0.90626206
-8.4126428e-05
-0.96858931
-0.00014597981
-1.035202
-0.00016887645
-1.1064362
-0.00015903958
-1.1826584
-0.00012308758
-1.2642615
-6.806869e-05
-1.3516844
-0.17894866
-0.12955885
-0.17934097
-0.10515111
-0.17688989
0.010973883
-0.17649435
0.074756865
-0.17964588
0.066907659
-0.18576608
0.0013474954
-0.19013267
-0.027562188
-0.19118892
-0.010170864
-0.071664482
-0.17754512
0.080028381
-0.18009591
0.163989
-0.1894683
0.14291301
-0.20261921
0.045412854
-0.21256162
-0.10140906
-0.20974686
-0.163206
-0.19643927
-0.13206712
-0.1781833
-0.042464581
-0.15953702
0.052381798
-0.17526946
0.074913666
-0.20290416
0.063279725
-0.22975795
0.039504378
-0.25254934
0.010558022
-0.26992966
-0.013153696
-0.28196579
-0.023316155
-0.29271773
-0.021190038
-0.30632403
-0.0137743
-0.32446305
-0.0064527301
-0.34675777
-0.0013059864
-0.37223877
0.0016272781
-0.40008322
0.0029752298
-0.42982898
0.0032755717
-0.46131995
0.0030338359
-0.49458511
0.0025938871
-0.5297895
0.002116118
-0.56714463
0.0016643818
-0.60686337
0.0012566721
-0.64914718
0.0008972258
-0.69419233
0.00058822277
-0.74220186
0.00033210498
-0.7933969
0.00013042984
-0.84801689
-1.752335e-05
-0.90632866
-0.00011536478
-0.96861992
-0.00016868306
-1.0352022
-0.00018399464
-1.1064113
-0.00016786629
-1.1826137
-0.00012747463
-1.2642021
-6.9584348e-05
-1.3516148
-0.17961799
-0.07099516
-0.18118571
-0.12771411
-0.18030798
-0.10173301
-0.17753664
0.012016177
-0.17761394
0.072724929
-0.1821207
0.063262282
-0.18934253
0.00055735125
-0.19391806
-0.024833048
-0.19501953
-0.0081750665
0.082975251
-0.18049199
0.17109695
-0.18720386
0.15236871
-0.19892401
0.052262069
-0.20946843
-0.10572114
-0.20824954
-0.17556979
-0.19738307
-0.14776253
-0.18074386
-0.05737237
-0.16327552
0.050292816
-0.15744804
0.089224692
-0.18958049
0.076516922
-0.21614136
0.049253486