/*--------------------------------*- C++ -*----------------------------------*\
| =========                 |                                                 |
| \\      /  F ield         | OpenFOAM: The Open Source CFD Toolbox           |
|  \\    /   O peration     | Version:  5.0                                   |
|   \\  /    A nd           | Web:      www.OpenFOAM.org                      |
|    \\/     M anipulation  |                                                 |
\*---------------------------------------------------------------------------*/
FoamFile
{
    version     2.0;
    format      ascii;
    class       surfaceScalarField;
    location    "320";
    object      phi_0;
}
// * * * * * * * * * * * * * * * * * * * * * * * * * * * * * * * * * * * * * //

dimensions      [0 3 -1 0 0 0 0];

internalField   nonuniform List<scalar> 
18820
(
-0.00039690784
-1.3580329
-0.00076617858
-1.2700234
-0.0003785004
-1.3576544
-0.0011075745
-1.1878076
-0.00073212497
-1.2696698
-0.00036035105
-1.3572941
-0.0014204718
-1.1109784
-0.0010607802
-1.187479
-0.00069723242
-1.2693329
-0.00035030496
-1.3569438
-0.0017043386
-1.0391692
-0.001364047
-1.1106752
-0.0010110792
-1.1871651
-0.00067736818
-1.2690058
-0.00034915702
-1.3565946
-0.0019590193
-0.97203321
-0.0016412257
-1.0388921
-0.001302617
-1.1103836
-0.00098262288
-1.1868599
-0.00067500646
-1.26868
-0.00034970627
-1.3562449
-0.0021840505
-0.90925494
-0.0018919069
-0.97178253
-0.0015718279
-1.0386229
-0.0012679039
-1.1100983
-0.00097982442
-1.186555
-0.00067743335
-1.2683522
-0.0003425921
-1.3559023
-0.002378285
-0.85054396
-0.0021160834
-0.90903076
-0.0018178106
-0.97153654
-0.0015343094
-1.0383565
-0.0012655127
-1.1098126
-0.00098609036
-1.1862464
-0.00066610007
-1.2680287
-0.00032564713
-1.3555767
-0.0025396848
-0.79563228
-0.0023141904
-0.85034585
-0.0020401421
-0.90880843
-0.0017814271
-0.97128942
-0.0015336211
-1.0380883
-0.0012772155
-1.1095215
-0.00097375905
-1.1859387
-0.00063544735
-1.2677189
-0.00030241511
-1.3552742
-0.0026654314
-0.74426949
-0.0024876548
-0.79545881
-0.0022395123
-0.85014648
-0.002008794
-0.90858106
-0.0017848187
-0.97103823
-0.0015524978
-1.0378131
-0.0012667744
-1.1092285
-0.00093303569
-1.1856411
-0.0005912385
-1.2674301
-0.00027942029
-1.3549948
-0.002753423
-0.69622774
-0.002638405
-0.74411874
-0.0024192502
-0.79527908
-0.0022163333
-0.84993894
-0.0020191718
-0.90834671
-0.0018138467
-0.97077688
-0.0015464958
-1.0375333
-0.0012204585
-1.1089411
-0.00087025104
-1.1853621
-0.00054638222
-1.2671631
-0.00026136047
-1.3547335
-0.0028020833
-0.65129446
-0.0027682598
-0.69609789
-0.0025868401
-0.74395115
-0.0024047233
-0.79509069
-0.0022360719
-0.84972204
-0.0020621533
-0.9080984
-0.001815257
-0.97050812
-0.0014988617
-1.0372549
-0.0011429541
-1.1086684
-0.00080491689
-1.1851036
-0.00051044211
-1.2669141
-0.00024891172
-1.3544845
-0.0028261184
-0.60925036
-0.0028981466
-0.65116457
-0.0027581313
-0.6959266
-0.0025762576
-0.74377962
-0.0024332707
-0.79489349
-0.0022965571
-0.84948764
-0.0020748017
-0.90783886
-0.001770236
-0.97023674
-0.0014112152
-1.0369867
-0.0010590538
-1.1084142
-0.0007521079
-1.1848619
-0.00048535755
-1.2666776
-0.00023924884
-1.3542453
-0.0028318166
-0.56989887
-0.003056176
-0.60909233
-0.0029501472
-0.65097256
-0.0027348467
-0.69576801
-0.0026054463
-0.74360744
-0.0025128687
-0.79467718
-0.0023262791
-0.84923616
-0.0020366601
-0.90757243
-0.0016757276
-0.96997223
-0.0013117159
-1.036734
-0.00099043278
-1.1081759
-0.00071489622
-1.1846324
-0.00046625687
-1.2664506
-0.00022834271
-1.354017
-0.0028278572
-0.53308472
-0.0032299194
-0.56972512
-0.0031440753
-0.60889841
-0.0028625287
-0.65084487
-0.0027368745
-0.69563658
-0.0027024336
-0.74341788
-0.0025706509
-0.7944328
-0.0023007922
-0.84897203
-0.0019374176
-0.90731074
-0.0015633278
-0.96972062
-0.0012283967
-1.036496
-0.00094172899
-1.1079491
-0.00068641616
-1.1844122
-0.00044547191
-1.2662335
-0.00021317498
-1.3538038
-0.0028197364
-0.49864764
-0.0034389081
-0.53287573
-0.003314283
-0.56955492
-0.0029346421
-0.60882629
-0.0028051735
-0.65077657
-0.0028538928
-0.69548512
-0.0028092203
-0.74317931
-0.002567483
-0.79416611
-0.0021979793
-0.84871147
-0.0018136439
-0.90706043
-0.0014671239
-0.96948189
-0.0011687931
-1.036269
-0.00090401933
-1.1077315
-0.00065585189
-1.1842019
-0.00041674327
-1.2660299
-0.00019289827
-1.3536109
-0.0028237759
-0.46643412
-0.0036919885
-0.49839456
-0.0034710958
-0.53271892
-0.0029658383
-0.56952372
-0.0028029559
-0.60882851
-0.0029615014
-0.65066897
-0.0030462994
-0.69524804
-0.0028453125
-0.74290148
-0.0024607772
-0.79390332
-0.0020621278
-0.84846298
-0.0017065402
-0.90682101
-0.0013982121
-0.96925247
-0.001122383
-1.0360506
-0.00086333512
-1.107524
-0.00061440988
-1.1840042
-0.00037778498
-1.265845
-0.00016892549
-1.353442
-0.0028214567
-0.43630632
-0.0040314162
-0.4660947
-0.0036445279
-0.49822113
-0.0029318651
-0.53275289
-0.0027419038
-0.56958477
-0.0030314614
-0.60875855
-0.0032930367
-0.65042223
-0.0031471741
-0.69494618
-0.0027314537
-0.7426308
-0.0023074761
-0.79365797
-0.0019452027
-0.84822432
-0.0016311388
-0.90658808
-0.001344559
-0.9690303
-0.0010718627
-1.0358421
-0.00080892917
-1.1073295
-0.00055830297
-1.1838237
-0.00033098327
-1.265683
-0.00014414111
-1.3532978
-0.0028678368
-0.40811116
-0.00447108
-0.43586665
-0.0038524542
-0.46588677
-0.0028387653
-0.49831423
-0.0025816722
-0.53291313
-0.0030709261
-0.56954531
-0.0035613797
-0.60849021
-0.0034945995
-0.6500748
-0.0030191945
-0.69465844
-0.0025471825
-0.7423911
-0.0021794124
-0.79342376
-0.0018671759
-0.84798828
-0.0015731281
-0.90635951
-0.0012853389
-0.96881682
-0.0010043883
-1.0356466
-0.00073643091
-1.1071514
-0.0004896182
-1.183665
-0.0002820485
-1.2655451
-0.00012156988
-1.3531762
-0.0028851369
-0.38173177
-0.0050783088
-0.40750393
-0.0041383373
-0.43558077
-0.0026393044
-0.46608623
-0.002271676
-0.49862422
-0.0030869611
-0.53289709
-0.0038602692
-0.56924642
-0.0039078237
-0.60807698
-0.0033350006
-0.649759
-0.002778639
-0.69442698
-0.0024029367
-0.74216757
-0.0021036623
-0.79318727
-0.0018096259
-0.84775179
-0.0015075999
-0.90613725
-0.0012054511
-0.96861576
-0.00091519852
-1.0354679
-0.00064735563
-1.1069936
-0.00041593156
-1.1835312
-0.0002370997
-1.2654295
-0.00010319378
-1.3530731
-0.0029889893
-0.35698422
-0.0058101705
-0.38099991
-0.0044900363
-0.40715223
-0.0023222658
-0.43589781
-0.0017575212
-0.46660039
-0.0030383286
-0.49867285
-0.0042216961
-0.53253566
-0.0044086678
-0.56874557
-0.0036938761
-0.60771811
-0.0029961768
-0.64954146
-0.0026053384
-0.69422458
-0.0023349557
-0.74193628
-0.0020543791
-0.79294252
-0.0017422019
-0.84751718
-0.0014164407
-0.90592626
-0.001099266
-0.96843169
-0.00080602097
-1.0353092
-0.00054893314
-1.1068606
-0.00034716946
-1.1834211
-0.00020002189
-1.2653327
-8.9525917e-05
-1.3529835
-0.0030102897
-0.33380081
-0.0067590186
-0.35603537
-0.0049909302
-0.38049901
-0.0018275506
-0.40764694
-0.00098336142
-0.43667197
-0.0029108922
-0.46672782
-0.004687056
-0.49820749
-0.0050257645
-0.53191857
-0.0040932967
-0.56834615
-0.0031957754
-0.60751851
-0.0027707553
-0.64937604
-0.0025501626
-0.69400937
-0.0023057292
-0.74168493
-0.0019929713
-0.79269175
-0.0016419922
-0.84729163
-0.0012925971
-0.90573293
-0.00096860068
-0.96826911
-0.00068318674
-1.0351749
-0.0004546927
-1.1067531
-0.00029010489
-1.183331
-0.00017176574
-1.2652505
-7.993236e-05
-1.3529036
-0.003213056
-0.31189255
-0.00776982
-0.33279001
-0.0055971367
-0.35542917
-0.001187465
-0.3811391
0.0001146199
-0.40874493
-0.0026593037
-0.43692356
-0.0053065672
-0.46610831
-0.0058285666
-0.49740469
-0.0045553396
-0.53145652
-0.0033468142
-0.56819511
-0.0028693026
-0.60741996
-0.0027310282
-0.64919518
-0.0025584313
-0.69375667
-0.0022640986
-0.7414138
-0.0018880503
-0.79244569
-0.0014995698
-0.84708466
-0.0011381877
-0.90556334
-0.00082005055
-0.96813225
-0.0005623008
-1.0350673
-0.00037544925
-1.1066677
-0.00024643981
-1.1832563
-0.00015125034
-1.2651791
-7.3263258e-05
-1.3528303
-0.0036225368
-0.29119333
-0.0091347129
-0.31052765
-0.0064135187
-0.33197362
-0.00025518872
-0.35636144
0.0016018719
-0.38262635
-0.002275182
-0.40912905
-0.0061278637
-0.43610226
-0.0068899073
-0.46504697
-0.0051031151
-0.49685692
-0.0034258136
-0.53137752
-0.002866565
-0.56819785
-0.0028424655
-0.60730852
-0.0028025927
-0.64895102
-0.0025609915
-0.69345978
-0.0021628903
-0.74113896
-0.0017257498
-0.79221951
-0.0013179033
-0.84690494
-0.00096126979
-0.90542213
-0.00067080358
-0.96802374
-0.00045894675
-1.0349838
-0.00031429421
-1.1065999
-0.00021423657
-1.1831933
-0.00013668161
-1.2651157
-6.8366706e-05
-1.352762
-0.0040304207
-0.27236685
-0.010703833
-0.28962421
-0.0073126219
-0.30962855
0.00078630349
-0.33301511
0.0035785211
-0.35833809
-0.0016685199
-0.38323301
-0.0072213714
-0.40803554
-0.0083026623
-0.43468951
-0.0057720223
-0.46437806
-0.0033999522
-0.49688278
-0.0026995064
-0.53154458
-0.0028716396
-0.56816868
-0.0030244978
-0.60708662
-0.0028910638
-0.64862094
-0.0024794532
-0.69314322
-0.001978987
-0.74088572
-0.0015109487
-0.79202647
-0.0011082402
-0.84675797
-0.0007814664
-0.90531146
-0.00054171269
-0.96794098
-0.00037774048
-1.0349204
-0.00026877306
-1.1065454
-0.00019044441
-1.1831396
-0.00012628889
-1.2650578
-6.4303131e-05
-1.3526977
-0.0043873154
-0.25447421
-0.012487118
-0.27058357
-0.0082265103
-0.28871032
0.0023753286
-0.31121758
0.0060319858
-0.33546858
-0.00090096512
-0.35910565
-0.008651253
-0.38180313
-0.010153883
-0.40618432
-0.0066062763
-0.43385525
-0.0032385434
-0.46453947
-0.0023014288
-0.49728086
-0.002792255
-0.53162397
-0.0032275769
-0.5679656
-0.0032694663
-0.60670822
-0.0028571083
-0.64824329
-0.002271396
-0.69285081
-0.0017211092
-0.74067556
-0.0012613022
-0.7918734
-0.00089484352
-0.8466446
-0.00062497153
-0.9052282
-0.00043887529
-0.96787984
-0.00031606795
-1.0348731
-0.00023451909
-1.1065013
-0.0001726255
-1.1830932
-0.00011827898
-1.2650038
-6.0344834e-05
-1.3526373
-0.0055016635
-0.23597594
-0.014259811
-0.25270152
-0.0095430904
-0.26926699
0.0042948308
-0.29062983
0.0090060955
-0.31419169
0.00021928281
-0.33658883
-0.010546815
-0.35721009
-0.012567409
-0.37938961
-0.0076492911
-0.4051413
-0.0029017364
-0.43419206
-0.001592238
-0.46524866
-0.0025269808
-0.49754613
-0.0034327837
-0.53141876
-0.003713801
-0.56752126
-0.003328223
-0.6062371
-0.0026210312
-0.64789365
-0.0019529455
-0.69261897
-0.0014193554
-0.74051751
-0.0010097759
-0.79175847
-0.00070941695
-0.84656015
-0.00049931911
-0.90516776
-0.00035902131
-0.96783689
-0.00026895069
-1.0348387
-0.00020771542
-1.1064662
-0.00015885737
-1.1830527
-0.00011071882
-1.2649535
-5.5969294e-05
-1.3525813
-0.0070943542
-0.21744283
-0.016822216
-0.23341353
-0.0111001
-0.25114451
0.0066322153
-0.27160437
0.01253741
-0.29416114
0.0014210683
-0.31539347
-0.012914352
-0.33422129
-0.015628388
-0.35414911
-0.0089699632
-0.37806893
-0.002345968
-0.40569707
-0.00046881997
-0.43531548
-0.0019910584
-0.46578458
-0.0036288271
-0.49735009
-0.0042587135
-0.53087385
-0.0039224314
-0.56692706
-0.0030554421
-0.60580269
-0.002212975
-0.64763362
-0.0015790922
-0.69245924
-0.0011222502
-0.74040504
-0.00079397019
-0.79167392
-0.00056053748
-0.84649893
-0.000400012
-0.90512677
-0.00029640308
-0.96780944
-0.00023133922
-1.034815
-0.00018568567
-1.1064394
-0.00014663701
-1.1830167
-0.0001020408
-1.2649074
-5.099551e-05
-1.3525304
-0.0087849416
-0.20049664
-0.019472305
-0.21479274
-0.012133075
-0.23238055
0.0091100517
-0.25362234
0.016746019
-0.27581298
0.0027836994
-0.29552377
-0.01588032
-0.3124275
-0.019501187
-0.33034849
-0.010598665
-0.3525204
-0.0015139398
-0.37890096
0.0011792348
-0.40734513
-0.0010872141
-0.43621932
-0.0037895606
-0.46562385
-0.0049582582
-0.49665054
-0.0046797724
-0.53011651
-0.0036023126
-0.56638019
-0.0025095028
-0.60550617
-0.0017348289
-0.64747789
-0.0012239928
-0.69235749
-0.00087439756
-0.74032461
-0.00062273369
-0.79161172
-0.00044167945
-0.84645727
-0.00032008184
-0.90510309
-0.00024513275
-0.96779564
-0.00019913176
-1.0348016
-0.00016600728
-1.10642
-0.00013342397
-1.1829854
-9.1875156e-05
-1.2648665
-4.5738452e-05
-1.3524846
-0.010571349
-0.184601
-0.021959491
-0.19800945
-0.012209638
-0.21471618
0.012946491
-0.23621699
0.021367832
-0.25824416
0.0044999717
-0.27752925
-0.019635879
-0.29176821
-0.024207848
-0.30772084
-0.012633971
-0.32831318
-0.00032873432
-0.35370561
0.0034980899
-0.38121982
0.00029319543
-0.40872554
-0.0038832359
-0.43612565
-0.0058717847
-0.46471033
-0.005684154
-0.49564616
-0.0042911556
-0.52942767
-0.0028543744
-0.56603532
-0.0018750685
-0.60536593
-0.0013009403
-0.64740094
-0.00094182373
-0.69229007
-0.00068392071
-0.74026342
-0.00048624477
-0.79156716
-0.00034383071
-0.84643352
-0.00025283495
-0.90509539
-0.00020040059
-0.96779437
-0.00016983679
-1.0347978
-0.00014661471
-1.1064068
-0.00011819245
-1.182959
-8.1260824e-05
-1.264831
-4.0796786e-05
-1.3524438
-0.01426668
-0.19958236
-0.024278311
-0.18228218
-0.011825364
-0.19839372
0.017966353
-0.21973604
0.026565899
-0.24141506
0.0071529414
-0.26089713
-0.024158913
-0.27300622
-0.029739274
-0.28623678
-0.0149944
-0.30536041
0.0013045792
-0.3299465
0.0066240321
-0.35683155
0.0022798824
-0.3832065
-0.0038761642
-0.40873261
-0.0070684493
-0.43492898
-0.0070358875
-0.46335859
-0.0051862901
-0.49475103
-0.0032537407
-0.5290283
-0.0019847752
-0.56592561
-0.0013305483
-0.60533632
-0.00098070123
-0.64736206
-0.00073847909
-0.69223551
-0.00053518136
-0.74021449
-0.00037201899
-0.79153897
-0.00025916904
-0.84642718
-0.00019319485
-0.9051026
-0.00015954129
-0.96780467
-0.00014161131
-1.0348028
-0.00012564107
-1.1063994
-0.00010179282
-1.1829385
-7.1478909e-05
-1.2648003
-3.6683515e-05
-1.3524071
-0.01752592
-0.19613818
-0.028427835
-0.19543284
-0.010910463
-0.18319708
0.023345543
-0.20377291
0.031925023
-0.22509517
0.0097060357
-0.24396815
-0.028453717
-0.25660232
-0.036319685
-0.26642581
-0.017695449
-0.28353574
0.0035455175
-0.30760135
0.01072781
-0.33405028
0.0049960721
-0.35954774
-0.0037232586
-0.38335941
-0.0086280958
-0.40717296
-0.0088606414
-0.43310423
-0.0063712755
-0.46217361
-0.0037164555
-0.49428831
-0.0020434779
-0.5289696
-0.0012795923
-0.56597656
-0.00096649975
-0.60535052
-0.00077571053
-0.64732483
-0.000588498
-0.69218219
-0.00040986774
-0.74017664
-0.00027037737
-0.79152776
-0.00018247847
-0.8464379
-0.00013788242
-0.90512425
-0.00011955184
-0.96782673
-0.00011220293
-1.0348162
-0.00010324644
-1.1063979
-8.668856e-05
-1.1829233
-6.3356768e-05
-1.2647736
-3.3731438e-05
-1.3523734
-0.020321427
-0.19236959
-0.032114109
-0.19245191
-0.011607962
-0.19473534
0.028883001
-0.18873453
0.036887271
-0.20873516
0.010626064
-0.22601519
-0.033415378
-0.23900649
-0.044485945
-0.24843606
-0.021081808
-0.26303945
0.0064811657
-0.28647138
0.015945661
-0.3128192
0.0085934175
-0.33764762
-0.003395496
-0.3598755
-0.010646042
-0.38134146
-0.011299426
-0.40473418
-0.0079501912
-0.43152531
-0.0042627867
-0.46162728
-0.0020147316
-0.49431706
-0.0011036436
-0.52914554
-0.00086804131
-0.56607502
-0.00077876925
-0.60534746
-0.00064475756
-0.64726857
-0.00046422508
-0.69212784
-0.00029506891
-0.74015195
-0.00017527487
-0.79153496
-0.00010932353
-0.84646646
-8.285431e-05
-0.90516095
-7.8802073e-05
-0.96786013
-8.2504645e-05
-1.034837
-8.2260947e-05
-1.1064023
-7.4159737e-05
-1.1829125
-5.7521139e-05
-1.2647498
-3.2120904e-05
-1.3523413
-0.022638032
-0.18853603
-0.035295963
-0.18918773
-0.011600486
-0.19245938
0.033005471
-0.19885781
0.041328858
-0.19317612
0.010381088
-0.20849018
-0.04048152
-0.21894905
-0.053612506
-0.22987993
-0.026011412
-0.24350646
0.010069703
-0.26662799
0.022414615
-0.29294034
0.013156796
-0.31738258
-0.0028271318
-0.33821599
-0.013233187
-0.35728836
-0.014529709
-0.37811118
-0.010040648
-0.40264372
-0.0049186037
-0.4308695
-0.0018521652
-0.46178984
-0.00074224656
-0.49467845
-0.00063231039
-0.52938128
-0.00072921753
-0.56612457
-0.00070268046
-0.60528954
-0.00054346955
-0.64718933
-0.00034476529
-0.69207814
-0.00018161382
-0.74014561
-8.0862842e-05
-0.79156342
-3.5251206e-05
-0.84651406
-2.7486905e-05
-0.90521227
-3.9285538e-05
-0.96790335
-5.4900497e-05
-1.0348643
-6.4737922e-05
-1.1064117
-6.4938115e-05
-1.1829051
-5.4333892e-05
-1.2647276
-3.1850614e-05
-1.3523094
-0.024431784
-0.18472312
-0.037964186
-0.1858678
-0.011003363
-0.18978486
0.037858721
-0.19731263
0.044703878
-0.20223283
0.0095067624
-0.1923018
-0.048377247
-0.20059446
-0.062207933
-0.21035363
-0.0312759
-0.22461544
0.014229594
-0.24766635
0.030149301
-0.27436267
0.018772765
-0.29855631
-0.0020326204
-0.31817709
-0.016518834
-0.33493034
-0.018733907
-0.35308416
-0.012789262
-0.37536257
-0.005714458
-0.40184787
-0.0014994096
-0.43122225
-0.00011518256
-0.46241691
-0.00019237856
-0.49511839
-0.00058989437
-0.5295206
-0.00075119138
-0.56607606
-0.00065636866
-0.60517664
-0.00043422688
-0.64709987
-0.00021498431
-0.69204477
-6.2398092e-05
-0.74016407
1.751661e-05
-0.79161619
3.9710458e-05
-0.84658126
2.5505635e-05
-0.90527706
-3.2903881e-06
-0.96795496
-3.1761083e-05
-1.0348973
-5.1969487e-05
-1.1064247
-5.9656071e-05
-1.1828998
-5.3468679e-05
-1.264706
-3.2833855e-05
-1.3522766
-0.025662913
-0.18114518
-0.040053406
-0.1826339
-0.0099829664
-0.1868882
0.043156957
-0.19508309
0.048685385
-0.20129414
0.008598336
-0.2013244
-0.056423822
-0.18425522
-0.069988212
-0.19281418
-0.034834194
-0.20679533
0.019369615
-0.22975546
0.039375219
-0.25689227
0.025462873
-0.28105278
-0.0010019732
-0.29958695
-0.020677835
-0.31401809
-0.024136059
-0.32952819
-0.016338321
-0.3495351
-0.0066792674
-0.37439776
-0.00089352229
-0.40245375
0.00087706966
-0.4322145
0.00053666297
-0.46314595
-0.00030427021
-0.49540401
-0.00078818919
-0.5294836
-0.00080447246
-0.56592796
-0.00058187962
-0.60502898
-0.00029370946
-0.64702114
-6.6844081e-05
-0.69204032
6.7305429e-05
-0.74021386
0.00011837774
-0.79169486
0.00011133728
-0.84666709
7.3952782e-05
-0.9053543
2.70695e-05
-0.96801379
-1.5003569e-05
-1.0349343
-4.4627539e-05
-1.1064397
-5.8262566e-05
-1.182895
-5.5217673e-05
-1.2646836
-3.4950321e-05
-1.3522416
-0.026327279
-0.17800964
-0.0415247
-0.17967389
-0.0086451365
-0.18397173
0.048631527
-0.19236277
0.053025198
-0.1994229
0.0081152817
-0.20081108
-0.064426207
-0.19332202
-0.077272776
-0.17697066
-0.037320142
-0.19032823
0.025913771
-0.21333949
0.050324756
-0.240705
0.033558885
-0.26498828
0.00019900835
-0.28225376
-0.025939902
-0.29432489
-0.030935674
-0.30721848
-0.020864257
-0.32500225
-0.007840295
-0.34837407
4.9596684e-05
-0.37534087
0.0023499542
-0.40392664
0.0016579319
-0.43333577
0.0001912429
-0.46364146
-0.00079282781
-0.49539937
-0.0010131484
-0.52927492
-0.00080946378
-0.56570038
-0.00044223267
-0.60488046
-0.00011286585
-0.64697512
0.00010202162
-0.69207504
0.0002020289
-0.74029751
0.00021476584
-0.79179829
0.000175911
-0.84676905
0.00011426375
-0.90544149
4.9399237e-05
-0.96807819
-5.2615992e-06
-1.0349736
-4.2729181e-05
-1.1064553
-6.1115024e-05
-1.1828891
-5.9371916e-05
-1.2646592
-3.7976492e-05
-1.3522037
-0.026474908
-0.17551837
-0.042343406
-0.17719093
-0.007146304
-0.18117272
0.053995243
-0.18933545
0.057624146
-0.19696172
0.0079484507
-0.19925607
-0.072104015
-0.19313328
-0.086239265
-0.18435553
-0.038927464
-0.17536334
0.033552155
-0.19796661
0.062607389
-0.22562212
0.043469624
-0.25061574
0.0021034667
-0.26689274
-0.032425593
-0.27576807
-0.039348759
-0.2859118
-0.026460981
-0.30162175
-0.0092254843
-0.32361706
0.0014246224
-0.3497491
0.0044363344
-0.37742726
0.0032953078
-0.40556401
0.00097618591
-0.43412071
-0.00073639186
-0.4636979
-0.001312251
-0.49510027
-0.0011472639
-0.52893713
-0.00069508369
-0.56544752
-0.00022447436
-0.60476885
0.00010655936
-0.64697966
0.00028256808
-0.69215558
0.00033264065
-0.74041539
0.00030207652
-0.79192445
0.0002299648
-0.84688475
0.00014399215
-0.90553609
6.2597826e-05
-0.96814605
-2.6774756e-06
-1.0350137
-4.6246408e-05
-1.1064701
-6.7501278e-05
-1.1828809
-6.5352428e-05
-1.2646318
-4.1644908e-05
-1.352162
-0.0260638
-0.17377721
-0.042563693
-0.17529808
-0.0055356428
-0.17880159
0.058945983
-0.18612346
0.062190189
-0.19390149
0.008173198
-0.19718646
-0.079342847
-0.19201724
-0.094890348
-0.18448219
-0.04518608
-0.17809691
0.042059126
-0.18387031
0.075460727
-0.21081995
0.053939561
-0.23609206
0.0052158165
-0.25372809
-0.039803187
-0.25951514
-0.049420358
-0.26569647
-0.033204081
-0.2791687
-0.010807268
-0.30003997
0.0033520795
-0.32554452
0.0072789331
-0.3525917
0.005585405
-0.37971735
0.002148871
-0.4067367
-0.00058234931
-0.43427476
-0.0017180531
-0.46329209
-0.0016549561
-0.49459258
-0.0010843452
-0.52854786
-0.00043751347
-0.56523449
6.1955361e-05
-0.60472425
0.00035031297
-0.6470474
0.00046081216
-0.69228375
0.00045151881
-0.74056483
0.00037538087
-0.79206987
0.00027034715
-0.84701111
0.00016199938
-0.90563549
6.650217e-05
-0.96821523
-6.7997466e-06
-1.0350531
-5.4729628e-05
-1.1064829
-7.6636768e-05
-1.1828696
-7.2699465e-05
-1.2646008
-4.5701519e-05
-1.3521163
-0.1729554
-0.025174554
-0.042198476
-0.17414243
-0.0038799492
-0.17695377
0.063274831
-0.18313044
0.0664972
-0.19043047
0.0086310936
-0.19435939
-0.086021107
-0.1905082
-0.10296898
-0.18393861
-0.05113873
-0.17852954
0.045639359
-0.18167715
0.088285688
-0.19669527
0.064137613
-0.221018
0.0093172101
-0.24019345
-0.047927598
-0.24560368
-0.061281656
-0.24765385
-0.041207814
-0.25769274
-0.012514244
-0.27746173
0.0059711771
-0.30265907
0.011037631
-0.32930322
0.0086771481
-0.35568344
0.0038225187
-0.381391
-0.00029049251
-0.40702856
-0.0022515299
-0.43374128
-0.0023952744
-0.46255178
-0.001673065
-0.49400386
-0.00078659972
-0.52819878
-5.891674e-05
-0.56511361
0.00039207932
-0.60476602
0.00059479639
-0.64718139
0.00062368149
-0.69245591
0.00055154768
-0.740741
0.00043061256
-0.79223014
0.00029550744
-0.84714461
0.00016813108
-0.90573712
6.1690059e-05
-0.96828372
-1.7243834e-05
-1.0350906
-6.717343e-05
-1.1064924
-8.7860941e-05
-1.1828545
-8.0809032e-05
-1.2645657
-4.9844492e-05
-1.3520665
-0.17373151
-0.04142236
-0.17326297
-0.023810931
-0.0025053382
-0.17551704
0.066860777
-0.18053972
0.070256469
-0.18688971
0.0093089482
-0.19110833
-0.091983547
-0.18839695
-0.11041951
-0.18305767
-0.056711038
-0.1783663
0.04970029
-0.18259047
0.098893025
-0.19228448
0.073678315
-0.20623597
0.012645156
-0.22434595
-0.056314858
-0.23180619
-0.075345434
-0.2315399
-0.05117318
-0.23768848
-0.014315792
-0.25589119
0.0094427622
-0.28093331
0.015863857
-0.30748529
0.012725286
-0.33335135
0.0061241731
-0.3579851
0.0001982997
-0.38187979
-0.002940468
-0.40633962
-0.0034433323
-0.43269322
-0.0025482734
-0.46167657
-0.0013183548
-0.4934721
-0.00028971028
-0.52796798
0.00039431606
-0.56511585
0.00072970249
-0.60490092
0.00081877528
-0.64737648
0.00076055612
-0.69266492
0.00062729403
-0.74093768
0.00046587065
-0.7924005
0.00030530488
-0.84728179
0.0001630536
-0.90583848
4.8980645e-05
-0.96834995
-3.3095311e-05
-1.0351247
-8.2511561e-05
-1.1064977
-0.00010032802
-1.182835
-8.9156191e-05
-1.2645264
-5.3901672e-05
-1.3520126
-0.17478568
-0.001451173
-0.1745349
-0.040150422
-0.17486069
-0.021989262
0.069341264
-0.17799752
0.073287814
-0.18357107
0.010072865
-0.18765362
-0.097047247
-0.18604462
-0.11691883
-0.18189762
-0.061871283
-0.17789743
0.054123777
-0.18278979
0.1100754
-0.19377285
0.085105664
-0.20371183
0.013694524
-0.20728534
-0.066003979
-0.21465683
-0.09173753
-0.21541409
-0.063518511
-0.21919457
-0.01679353
-0.23521074
0.013980748
-0.26042918
0.021920777
-0.28699023
0.017867162
-0.31262717
0.0091980484
-0.33642523
0.00094933636
-0.35873613
-0.0038081166
-0.38101214
-0.004887052
-0.4048959
-0.0038099871
-0.43143151
-0.0021138263
-0.4608811
-0.00065816244
-0.49310365
0.00033313879
-0.52790681
0.00086208846
-0.56524824
0.0010397557
-0.6051219
0.0010065323
-0.64762246
0.00086428298
-0.69290191
0.00067650951
-0.74114832
0.00048119843
-0.79257639
0.00030070454
-0.84741944
0.00014793788
-0.90593744
2.945363e-05
-0.9684125
-5.2985702e-05
-1.0351542
-9.9762075e-05
-1.1064983
-0.00011330197
-1.1828108
-9.7467373e-05
-1.2644828
-5.770663e-05
-1.3519549
-0.17629481
0.070850392
-0.1753164
-0.00066967951
-0.17655883
-0.038452277
-0.17719749
-0.019760452
0.075550147
-0.18025986
0.01083274
-0.18433094
-0.10105609
-0.18364478
-0.12229748
-0.18066597
-0.066446055
-0.17732285
0.058677828
-0.18245148
0.12172266
-0.19443705
0.097074411
-0.2057416
0.020376721
-0.21039403
-0.077157294
-0.19613202
-0.10832454
-0.19806982
-0.077362565
-0.20157004
-0.020271495
-0.21571661
0.019610902
-0.2408409
0.029336228
-0.26784463
0.024245897
-0.29336896
0.01317251
-0.31660163
0.0020535518
-0.33752945
-0.0048950093
-0.35764924
-0.0068380014
-0.37906119
-0.0055762392
-0.40312965
-0.0032674704
-0.43027787
-0.0012117522
-0.46032751
0.00019031562
-0.49296083
0.00098731415
-0.52803203
0.0012900326
-0.56549851
0.0012963635
-0.60541173
0.0011477051
-0.64790588
0.00093212177
-0.69315752
0.00069960754
-0.74136673
0.00047803382
-0.79275372
0.00028332363
-0.84755482
0.00012425649
-0.90603224
4.4715387e-06
-0.96846995
-7.5576814e-05
-1.0351784
-0.00011794099
-1.1064937
-0.00012628372
-1.182782
-0.00010527738
-1.2644352
-6.1112892e-05
-1.3518938
-0.17772591
0.076981249
-0.17565048
0.071184476
-0.17694581
-0.00028269823
-0.17937749
-0.036272277
-0.17998909
-0.017303022
0.011809654
-0.18123677
-0.10388217
-0.18150486
-0.12638682
-0.17955544
-0.070224496
-0.17688753
0.063096377
-0.1817414
0.13334895
-0.19407777
0.10956273
-0.20692537
0.028070979
-0.21343586
-0.08246942
-0.2050819
-0.12299197
-0.18146459
-0.090215981
-0.1852164
-0.024204903
-0.19763663
0.026285754
-0.22239146
0.038312044
-0.24981671
0.031926001
-0.27552473
0.018205817
-0.29840227
0.0035941862
-0.31814226
-0.006214184
-0.33621027
-0.0094191237
-0.35506812
-0.0079974749
-0.37663996
-0.0048870326
-0.40151008
-0.0020153463
-0.42947427
-4.1229836e-05
-0.46009596
0.001101115
-0.49307463
0.0015815789
-0.52832358
0.0016416029
-0.56584375
0.0014869126
-0.60575094
0.0012394228
-0.64821318
0.00096524355
-0.69342316
0.000698793
-0.74158748
0.00045860244
-0.792929
0.00025512057
-0.84768569
9.3711941e-05
-0.90612148
-2.4086171e-05
-0.96852144
-9.9635523e-05
-1.0351967
-0.00013625219
-1.1064837
-0.00013865813
-1.1827486
-0.00011239242
-1.2643839
-6.409527e-05
-1.3518297
-0.178743
0.012826752
-0.17604892
0.077379691
-0.17630906
0.070547726
-0.17947189
-0.00018830215
-0.18252905
-0.033732318
-0.18341452
-0.014692999
-0.10523684
-0.1798821
-0.12911426
-0.17877743
-0.073154143
-0.17662579
0.067277601
-0.18106875
0.14449522
-0.19288767
0.12208159
-0.20659663
0.035501361
-0.21435575
-0.087033032
-0.20887224
-0.13635174
-0.19172214
-0.10127219
-0.17040838
-0.028076287
-0.18134502
0.033682492
-0.20503337
0.048898954
-0.23297837
0.041029474
-0.25892019
0.024382565
-0.28170148
0.0057017311
-0.30050982
-0.007810879
-0.31654557
-0.012791321
-0.33283807
-0.011239858
-0.35182573
-0.0071040929
-0.3744229
-0.0031413298
-0.4003841
-0.00038365628
-0.42913184
0.0012098076
-0.46020465
0.001930215
-0.49342326
0.0020612129
-0.52874319
0.001897312
-0.56625415
0.0016084901
-0.60612001
0.0012843943
-0.64853233
0.00096719284
-0.69369156
0.00067723374
-0.74180612
0.00042550873
-0.79309939
0.00021824887
-0.84781023
5.8204817e-05
-0.90620377
-5.4939006e-05
-0.96856614
-0.00012408561
-1.0352089
-0.00015398978
-1.1064684
-0.00015009052
-1.1827109
-0.00011871788
-1.2643293
-6.6581509e-05
-1.3517631
-0.17898894
-0.1049909
-0.17717788
0.013955707
-0.17601852
0.077089147
-0.17771094
0.068786782
-0.18246707
-0.00025028265
-0.18621961
-0.030927227
-0.18720991
-0.012095817
-0.13063331
-0.17836305
-0.075202119
-0.17672945
0.071014648
-0.18036284
0.15463609
-0.19120963
0.13417114
-0.20497723
0.043386201
-0.21448147
-0.091632627
-0.20975615
-0.14984556
-0.19537842
-0.11796275
-0.17503158
-0.031776226
-0.16670844
0.041388426
-0.18905095
0.061024418
-0.21715883
0.051558171
-0.24350706
0.031837688
-0.26637531
0.0084671574
-0.28446691
-0.0096765556
-0.29864414
-0.01712335
-0.31221354
-0.015523108
-0.32855482
-0.01005998
-0.34886985
-0.004667737
-0.37289649
-0.00086238332
-0.39990537
0.001334085
-0.42925612
0.0023570868
-0.46063153
0.0025821902
-0.49394424
0.0023998761
-0.52924575
0.0020538178
-0.56669948
0.0016657073
-0.60650132
0.0012882613
-0.6488534
0.00094264823
-0.69395697
0.00063850669
-0.74201911
0.00038151905
-0.79326266
0.00017497045
-0.84792699
1.9583016e-05
-0.9062783
-8.6556927e-05
-0.96860367
-0.0001480608
-1.0352148
-0.00017058869
-1.1064479
-0.00016038812
-1.1826693
-0.00012405052
-1.2642718
-6.8589535e-05
-1.3516945
-0.17898358
-0.13063868
-0.17931105
-0.10285773
-0.17681447
0.01475166
-0.17653237
0.075910577
-0.17974255
0.066062262
-0.1859052
-0.00056469801
-0.19010795
-0.028029191
-0.19109231
-0.0097094832
-0.076023893
-0.17754127
0.074110463
-0.17982527
0.1634002
-0.18912695
0.14521537
-0.20225385
0.050980513
-0.21257154
-0.095747294
-0.2103668
-0.16242147
-0.19718024
-0.13436332
-0.17897785
-0.046862311
-0.1599455
0.049274173
-0.17459419
0.07415091
-0.20217745
0.063540586
-0.22914125
0.040498113
-0.25216749
0.011996253
-0.2699044
-0.011878358
-0.2822651
-0.022626519
-0.29314097
-0.021053845
-0.3066828
-0.013924771
-0.32469003
-0.0066739474
-0.34686364
-0.0014962704
-0.3722626
0.001493392
-0.40006468
0.0028969422
-0.42979598
0.0032419792
-0.46129131
0.0030253094
-0.49456968
0.0025964624
-0.5297884
0.0021213603
-0.56715513
0.001668366
-0.60688143
0.0012582843
-0.64916903
0.00089670064
-0.69421517
0.00058626665
-0.74222386
0.00032941781
-0.79341711
0.00012751936
-0.84803493
-2.0333806e-05
-0.90634452
-0.00011790124
-0.96863383
-0.0001708652
-1.0352145
-0.00018580423
-1.1064224
-0.00016930143
-1.182624
-0.00012849661
-1.2642119
-7.0133841e-05
-1.3516244
-0.17960198
-0.075405487
-0.18115157
-0.12879816
-0.18021451
-0.099457688
-0.17741471
0.015633997
-0.17766272
0.073830748
-0.18224165
0.062398718
-0.18949924
-0.0011734098
-0.19389063
-0.025230868
-0.19491803
-0.0077274779
0.076880848
-0.18031166
0.17052032
-0.18694538
0.15469816
-0.19860975
0.058194752
-0.20946809
-0.099480768
-0.20883806
-0.17468091
-0.19810737
-0.15001226
-0.1815313
-0.062079506
-0.16376065
0.04639486
-0.15706618
0.088355824
-0.1887991
0.076819127
-0.21545599
0.050420643
-0.23906378