/*--------------------------------*- C++ -*----------------------------------*\
| =========                 |                                                 |
| \\      /  F ield         | OpenFOAM: The Open Source CFD Toolbox           |
|  \\    /   O peration     | Version:  5.0                                   |
|   \\  /    A nd           | Web:      www.OpenFOAM.org                      |
|    \\/     M anipulation  |                                                 |
\*---------------------------------------------------------------------------*/
FoamFile
{
    version     2.0;
    format      ascii;
    class       volScalarField;
    location    "320";
    object      pMean;
}
// * * * * * * * * * * * * * * * * * * * * * * * * * * * * * * * * * * * * * //

dimensions      [0 2 -2 0 0 0 0];

internalField   nonuniform List<scalar> 
9520
(
9.7407113e-05
9.7308739e-05
0.0002416011
9.6963188e-05
0.00024174289
0.00039487199
9.6130995e-05
0.00024163236
0.00039537201
0.00053663418
9.4614678e-05
0.00024073533
0.00039576785
0.00053805509
0.00067675318
9.2186498e-05
0.00023853045
0.00039516448
0.00053993316
0.00067949542
0.0008088055
8.8696418e-05
0.00023445843
0.0003926774
0.0005410205
0.00068366553
0.0008133919
0.00093488001
8.3956319e-05
0.0002280832
0.00038739827
0.00054006518
0.00068761728
0.00082086426
0.00094176433
0.0010524315
7.7923614e-05
0.00021903887
0.00037859076
0.00053579905
0.00068971199
0.00082918263
0.00095341336
0.001061994
0.0011614529
7.0600643e-05
0.00020718559
0.00036556912
0.00052715426
0.00068830779
0.00083634948
0.00096740426
0.0010786065
0.0011740486
0.0012605987
6.2574757e-05
0.00019216185
0.00034798962
0.00051321137
0.00068200024
0.00084036781
0.00098140132
0.0010995184
0.0011963176
0.0012763991
0.001349483
5.2822129e-05
0.00017379605
0.00032556217
0.00049333885
0.00066958172
0.00083948298
0.00099308175
0.0011221068
0.0012251974
0.0013047092
0.0013685828
0.0014275334
4.1076613e-05
0.0001508542
0.00029844333
0.00046676375
0.0006501802
0.00083210287
0.0010003641
0.0011437522
0.0012578193
0.0013422477
0.0014031865
0.0014498423
0.0014944833
2.512291e-05
0.00012535164
0.00026578711
0.00043318859
0.000622999
0.00081690394
0.0010013574
0.0011620269
0.0012913072
0.0013859972
0.00144987
0.0014906349
0.0015198016
0.0015502478
1.0316143e-05
9.5948308e-05
0.0002280424
0.00039254704
0.00058761041
0.00079273214
0.00099450302
0.0011746699
0.0013230127
0.0014329147
0.0015055458
0.0015464449
0.0015664813
0.0015782127
0.0015949401
-8.5519944e-06
6.6777957e-05
0.00018363436
0.00034644566
0.00054328669
0.00075955961
0.00097850935
0.0011797927
0.0013504428
0.0014801457
0.0015670827
0.0016142371
0.0016311397
0.0016301681
0.0016250626
0.0016289531
-2.3179241e-05
3.1558221e-05
0.00013717449
0.00029294429
0.00049161972
0.00071678274
0.00095245043
0.0011759405
0.0013714237
0.0015249418
0.0016314865
0.0016909148
0.0017109178
0.0017029414
0.0016814517
0.0016606218
0.0016527908
-4.5576226e-05
2.6841429e-08
8.3874506e-05
0.00023527425
0.00043105896
0.00066526985
0.00091571123
0.0011620699
0.0013839984
0.0015648428
0.0016958173
0.0017734698
0.0018028774
0.0017939865
0.0017612972
0.0017203564
0.0016853168
0.0016672457
-6.0535366e-05
-4.0592179e-05
3.2029374e-05
0.00016873758
0.00036489002
0.0006031418
0.00086902678
0.0011370268
0.0013867503
0.0015976287
0.0017573323
0.0018588654
0.0019040718
0.0019006633
0.0018625063
0.0018058533
0.001747132
0.0016998504
0.0016731816
-8.4864717e-05
-6.9041669e-05
-2.8506704e-05
0.00010203332
0.00028885088
0.00053345481
0.0008103197
0.001101184
0.0013784098
0.0016214942
0.0018134876
0.0019441524
0.0020114214
0.0020202435
0.0019828787
0.0019156227
0.0018365847
0.001762308
0.0017050097
0.0016716734
-0.00010094073
-0.00011545853
-8.1182163e-05
2.6436823e-05
0.00021090635
0.00045259283
0.00074216795
0.0010524789
0.0013590358
0.0016348663
0.0018622108
0.0020264897
0.0021218298
0.0021497464
0.0021200334
0.0020480528
0.0019529321
0.0018537552
0.0017665631
0.0017018297
0.0016637558
-0.00012464556
-0.00014428176
-0.00015014253
-4.4991759e-05
0.00012146911
0.00036752241
0.0006616007
0.00099266456
0.001326583
0.0016373911
0.0019016189
0.0021034446
0.0022322719
0.0022860374
0.0022711926
0.0022012674
0.0020953055
0.0019743244
0.0018578591
0.0017608381
0.0016913456
0.0016506103
-0.00014297434
-0.00019307079
-0.0001999353
-0.00012923477
3.4315703e-05
0.00026869594
0.00057486679
0.00091901871
0.0012820497
0.0016270645
0.0019308438
0.0021727568
0.0023399621
0.0024258852
0.0024332727
0.0023728508
0.0022624853
0.0021240255
0.0019800131
0.0018496724
0.0017461391
0.0016747704
0.0016333628
-0.00015675212
-0.0002267686
-0.00027613216
-0.00020177941
-6.5937953e-05
0.00017005693
0.00047215388
0.00083788974
0.001222698
0.0016047007
0.0019476647
0.0022330562
0.0024422571
0.0025661484
0.0026029454
0.0025599019
0.0024525608
0.0023024488
0.0021340416
0.0019705301
0.0018301271
0.0017236787
0.0016532506
0.0016132212
-0.00017794205
-0.00028132219
-0.00032533422
-0.00029748182
-0.00015857066
5.5734801e-05
0.00036739107
0.00073906713
0.0011549427
0.0015669966
0.0019530934
0.0022819787
0.0025372748
0.0027038528
0.0027768073
0.0027590701
0.0026629491
0.0025083679
0.0023204988
0.0021255422
0.0019466553
0.0018004057
0.0016946496
0.0016280422
0.001591287
-0.0001971187
-0.00031677647
-0.00041358241
-0.00037056141
-0.00027389746
-5.4830605e-05
0.00024397435
0.00063596769
0.00106844
0.0015201439
0.0019431742
0.0023199855
0.002622465
0.0028365769
0.0029515235
0.0029667539
0.0028904134
0.0027396915
0.0025390037
0.0023163544
0.0020990596
0.0019094823
0.001761751
0.0016604062
0.0016003293
0.0015686234
-0.00021125745
-0.00037822439
-0.00047562812
-0.00048427613
-0.00037323903
-0.00019087431
0.00012018794
0.00051125123
0.00097574251
0.0014540873
0.001923613
0.0023428974
0.0026973465
0.0029613765
0.0031241079
0.0031792703
0.0031312653
0.0029934434
0.0027881207
0.0025436015
0.0022901999
0.0020554995
0.0018602578
0.0017155972
0.0016222452
0.0015712823
0.0015461767
-0.00023174118
-0.0004206641
-0.00056155542
-0.00057710761
-0.00050821027
-0.00031798944
-3.2997125e-05
0.00038224897
0.00085899697
0.0013802948
0.0018845739
0.002355827
0.0027576233
0.0030769091
0.003291251
0.003393109
0.0033815242
0.0032659673
0.0030653174
0.0028066905
0.0025218643
0.0022426156
0.001996021
0.0018004545
0.0016633433
0.0015814943
0.0015419059
0.0015248279
-0.00024876516
-0.00045708483
-0.00064553608
-0.00070144674
-0.00063623583
-0.00048011964
-0.00018570787
0.00021990083
0.00073529949
0.0012798428
0.0018372371
0.0023484719
0.002807651
0.003178729
0.0034506671
0.0036046078
0.0036371817
0.0035530464
0.0033671344
0.003103728
0.002794488
0.0024739135
0.0021745628
0.0019220699
0.001731547
0.0016064726
0.0015392825
0.0015131488
0.0015053609
-0.00026495704
-0.00050418927
-0.00072342235
-0.00083861369
-0.00080681791
-0.00065087813
-0.00037964423
4.8915239e-05
0.00057523187
0.0011697657
0.001760332
0.0023327182
0.0028367458
0.0032703004
0.0035976382
0.0038106084
0.0038942431
0.0038502715
0.0036892618
0.0034316141
0.0031070184
0.002751049
0.0024003808
0.002087355
0.0018352088
0.0016551873
0.0015463588
0.00149674
0.0014859101
0.0014884649
-0.00027725935
-0.00054542656
-0.00081080716
-0.00097407249
-0.00099925622
-0.0008730477
-0.00059107474
-0.00017313808
0.00039738407
0.0010198031
0.0016703123
0.0022860268
0.0028561808
0.0033406155
0.0037347246
0.0040058688
0.0041487642
0.004153286
0.0040269998
0.0037861354
0.003456941
0.0030740318
0.002676517
0.0023023224
0.0019826003
0.0017372659
0.0015731277
0.0014845184
0.0014549691
0.0014610067
0.001474725
-0.0002856177
-0.00059995813
-0.00089206194
-0.0011153709
-0.0012060725
-0.001135103
-0.00087032498
-0.00042203794
0.00015956104
0.00084369338
0.0015356158
0.0022224181
0.0028429755
0.0034003344
0.0038507533
0.0041920834
0.0043947637
0.0044574647
0.0043755105
0.0041624282
0.00384032
0.0034411518
0.0030042497
0.0025715104
0.0021812407
0.0018622268
0.0016302546
0.0014872656
0.0014223393
0.0014150202
0.0014391431
0.0014646102
-0.00029570275
-0.00064787946
-0.00099559635
-0.0012501208
-0.0014153002
-0.00142991
-0.0012104416
-0.00076236588
-0.00011434929
0.0005997618
0.0013667501
0.0021084762
0.0028112071
0.0034248444
0.0039553743
0.0043579176
0.0046330898
0.0047560041
0.0047296199
0.0045552169
0.0042523087
0.0038489851
0.0033829192
0.0028976873
0.0024372027
0.0020389784
0.0017283869
0.0015163361
0.0013992195
0.0013610492
0.001377779
0.0014208804
0.0014584591
-0.00030004533
-0.00071533996
-0.001094915
-0.0014156808
-0.0016238346
-0.0017293446
-0.0016079307
-0.0011814121
-0.00051261373
0.00030179399
0.001118198
0.0019512201
0.0027231741
0.0034292429
0.0040230527
0.0045118376
0.0048521556
0.0050487361
0.005081819
0.0049587691
0.0046873571
0.0042929134
0.0038099311
0.0032814387
0.002754953
0.0022752655
0.0018777964
0.0015834769
0.0013974508
0.0013104911
0.0013017283
0.0013440189
0.0014066397
0.0014565055
-0.0003041457
-0.00078618376
-0.0012172557
-0.0015805914
-0.0018756448
-0.0020342745
-0.0020236306
-0.001704817
-0.0010100067
-0.00013912305
0.00079428926
0.0017012791
0.0025842148
0.0033720931
0.0040692176
0.0046277118
0.0050592341
0.0053237112
0.0054305861
0.0053649724
0.0051391187
0.0047672588
0.0042811031
0.003721404
0.0031367049
0.0025773557
0.0020878055
0.0017001134
0.0014298048
0.0012756188
0.0012225184
0.0012453594
0.0013144028
0.0013967254
0.0014589075
-0.00030751079
-0.00085744998
-0.0013477391
-0.0017732115
-0.0021294662
-0.0024058502
-0.0024434641
-0.0022604211
-0.001662523
-0.00070633432
0.00031806387
0.0013541412
0.0023406473
0.0032582894
0.004048605
0.0047213122
0.0052276657
0.0055870635
0.0057633984
0.0057707545
0.0055988317
0.0052652459
0.0047907317
0.0042140922
0.0035824788
0.0029493283
0.0023667587
0.0018775318
0.0015087807
0.00126983
0.0011526989
0.0011366769
0.0011929324
0.001289329
0.0013913869
0.0014657426
-0.00030705842
-0.00092826784
-0.0014768654
-0.0019840616
-0.0024156109
-0.0027804182
-0.0029679012
-0.002812505
-0.002370125
-0.0014930711
-0.00032340102
0.00084489776
0.0019805634
0.003028484
0.0039662253
0.00474374
0.005373069
0.0058114329
0.0060856544
0.0061632445
0.0060622091
0.0057774016
0.0053320481
0.0047540585
0.0040899247
0.0033929287
0.0027207381
0.0021257549
0.0016473691
0.0013067161
0.001105939
0.0010305121
0.0010542485
0.0011453869
0.001269108
0.0013907534
0.0014770192
-0.00030447425
-0.00098854222
-0.0016042867
-0.0021919789
-0.0027318721
-0.0031910575
-0.0034974866
-0.0035209754
-0.0030748533
-0.002376892
-0.0012486968
0.00011645042
0.0014350238
0.0026641572
0.003756624
0.0047009325
0.0054439381
0.006012005
0.0063689836
0.0065463861
0.0065156119
0.0062983442
0.005895071
0.0053349214
0.0046541199
0.0039072202
0.003153383
0.0024530074
0.0018572376
0.0014004689
0.0010967308
0.00094050889
0.00091073277
0.00097651854
0.0011031692
0.0012540574
0.0013949028
0.0014926791
-0.0002994878
-0.0010369063
-0.0017139773
-0.0023964754
-0.0030433282
-0.00364887
-0.0040678765
-0.0042436831
-0.003999092
-0.0032670504
-0.0023120871
-0.0009471153
0.00063495958
0.0020861336
0.0033949262
0.0045204556
0.0054472138
0.0061346542
0.0066278735
0.0068911991
0.0069613003
0.0068136804
0.0064729576
0.005946184
0.0052695586
0.0044884177
0.0036655455
0.002865149
0.0021488282
0.0015645315
0.0011401661
0.00088172801
0.00077575835
0.00079506954
0.00090449957
0.0010666668
0.0012443767
0.0014038016
0.0015126059
-0.00029161805
-0.0010692412
-0.0018019807
-0.0025762709
-0.0033470556
-0.0040999795
-0.0047084317
-0.0050123243
-0.0049582719
-0.004427893
-0.0034060962
-0.0021957369
-0.00055864438
0.0012339785
0.0027916881
0.004173861
0.0053041812
0.0061874434
0.0068055745
0.0072111391
0.0073697762
0.0073236047
0.0070508784
0.0065797454
0.005925377
0.0051320062
0.0042553399
0.0033652641
0.0025304284
0.0018114757
0.0012513168
0.000869936
0.00066455968
0.00061394378
0.00068498134
0.00083889672
0.0010362571
0.001240123
0.0014173807
0.0015366308
-0.0010797947
-0.0002899808
-0.0018634181
-0.0027246394
-0.0036159943
-0.0045359264
-0.0053409887
-0.0058809954
-0.0059683579
-0.0056585983
-0.0048239391
-0.0035137929
-0.0020107555
-7.2342853e-05
0.001897992
0.0035603105
0.0049855132
0.0060860246
0.0069117083
0.0074472084
0.0077531189
0.0077979257
0.0076269298
0.0072205633
0.0066123843
0.0058273348
0.0049188067
0.0039536266
0.0030076621
0.0021521155
0.0014447758
0.00092156063
0.00059330275
0.00044813352
0.0004570425
0.00058170499
0.00078022598
0.001012176
0.0012413013
0.0014354891
0.0015645475
-0.0018894559
-0.0010763443
-0.00029473164
-0.0028332269
-0.0038408494
-0.0049246108
-0.0059492768
-0.0067432161
-0.0071128361
-0.0069526455
-0.0063517075
-0.0052147697
-0.0035776046
-0.0017368872
0.00049101268
0.0026390882
0.0043796561
0.0058024445
0.0068554571
0.0076105627
0.008050272
0.0082474307
0.0081700295
0.0078643491
0.0073154695
0.006564285
0.0056470205
0.0046273515
0.0035832269
0.0025948587
0.0017338825
0.0010530257
0.00057942502
0.00031389211
0.00023511774
0.00030688886
0.00048617703
0.0007289276
0.00099454714
0.0012478243
0.0014579519
0.0015961295
-0.0028857395
-0.0018890284
-0.0010588505
-0.00029783928
-0.0040074436
-0.0052497746
-0.0064962285
-0.007571798
-0.0082594666
-0.0084204869
-0.0079670516
-0.0070684658
-0.0055899159
-0.0035618277
-0.0013667062
0.0011647994
0.0034404657
0.0052120658
0.0066108679
0.0076037705
0.0082739402
0.0086086762
0.008689174
0.0084794624
0.0080281927
0.007328026
0.0064289228
0.005379875
0.0042559494
0.003145074
0.0021299527
0.0012800835
0.00064091985
0.00022926899
3.5188473e-05
2.8038283e-05
0.00016495721
0.00039916754
0.00068532493
0.0009834139
0.001259567
0.0014845394
0.001631124
-0.0040892846
-0.002890637
-0.0018618103
-0.0010193309
-0.00029908353
-0.0054871122
-0.0069543622
-0.0083248495
-0.0093676709
-0.0099055417
-0.0098010906
-0.0090397382
-0.0078005047
-0.0058928317
-0.0034442429
-0.00085450196
0.0019387386
0.004258475
0.0060411403
0.0074044942
0.0083202325
0.0088957496
0.0091187068
0.0090728658
0.008718522
0.00810991
0.0072502316
0.0061999492
0.0050222669
0.0038042625
0.0026413777
0.0016169684
0.00079573412
0.00021347466
-0.00012452122
-0.00023945716
-0.00017094602
3.2517347e-05
0.00032125259
0.000649652
0.00097872922
0.0012763112
0.0015149873
0.0016692601
-0.0056045855
-0.0040968799
-0.0028479168
-0.0017989472
-0.0009643172
-0.00029838921
-0.007288109
-0.0089600275
-0.010384966
-0.011351717
-0.011674593
-0.011284389
-0.010165296
-0.0084807848
-0.0060955872
-0.0031743621
-0.00020944471
0.0027386971
0.0050807722
0.0068659821
0.0081710535
0.0089985444
0.0094740934
0.0095768184
0.0093910555
0.0088779102
0.0081002824
0.0070738712
0.0058716678
0.0045717165
0.0032729837
0.0020753814
0.0010609084
0.00028637297
-0.00022402986
-0.00047764575
-0.00050701271
-0.00035988739
-8.9454028e-05
0.00025293266
0.00062199652
0.00098030137
0.0012977546
0.0015489966
0.0017102699
-0.0074544624
-0.0056062673
-0.0040290391
-0.0027477422
-0.0017099067
-0.00089919081
-0.00029401037
-0.0094251292
-0.011249505
-0.012687391
-0.013512736
-0.013592251
-0.012865687
-0.011269201
-0.0090696795
-0.0061477904
-0.0027648818
0.00048917785
0.0035477237
0.0059140219
0.007671974
0.0089035644
0.009639621
0.010008177
0.0099763042
0.0096342809
0.008947407
0.007989239
0.0067908024
0.0054389058
0.0040268478
0.0026638862
0.0014516183
0.00046759635
-0.00024197959
-0.00066625614
-0.00082604021
-0.00076471197
-0.00053718584
-0.00020003105
0.00019449747
0.00060221586
0.00098778055
0.0013235882
0.0015863313
0.0017539072
-0.0096575387
-0.0074483402
-0.0054914907
-0.0038752732
-0.0026056516
-0.0015999019
-0.00082501983
-0.00028862628
-0.011891295
-0.013831686
-0.015216983
-0.01586874
-0.01565761
-0.014464542
-0.012297478
-0.0095126785
-0.0060525992
-0.002267067
0.0012309578
0.0043724384
0.0067423794
0.0084500278
0.0096062833
0.010245434
0.01049257
0.010307287
0.009791135
0.0089153742
0.0077666419
0.0063934025
0.0048976351
0.0033875139
0.0019802423
0.00077565807
-0.00015640816
-0.00078295846
-0.0011079817
-0.0011659163
-0.0010101569
-0.00070135986
-0.00029859637
0.00014593464
0.00058993124
0.0010008928
0.0013536896
0.0016268335
0.001799897
-0.012221788
-0.0096430456
-0.0072688485
-0.0052560908
-0.003660893
-0.002430698
-0.0014727414
-0.00075186837
-0.00028276603
-0.014695315
-0.016686698
-0.017985915
-0.018422108
-0.017783499
-0.01601684
-0.01319904
-0.0098110853
-0.0058520907
-0.0016884337
0.0020308364
0.0052032809
0.0075513043
0.0092048131
0.01028414
0.010812191
0.010917209
0.010558173
0.0098486723
0.0087695283
0.0074220917
0.0058748755
0.0042452511
0.0026552126
0.0012268392
5.4243067e-05
-0.00080393249
-0.0013301015
-0.0015442056
-0.0014938416
-0.0012411002
-0.00085128559
-0.00038498449
0.000106849
0.00058494856
0.0010197491
0.0013880751
0.0016701945
0.0018478274
-0.015151043
-0.012214251
-0.0093843083
-0.0069218586
-0.0049324114
-0.0034001209
-0.0022294025
-0.00134381
-0.00068067031
-0.00027111315
-0.017807609
-0.019820032
-0.020997429
-0.021081267
-0.019895539
-0.017465329
-0.013959916
-0.0099975226
-0.0055485118
-0.0010057094
0.002862891
0.0060202538
0.0083501869
0.0099483962
0.010937114
0.011329562
0.011269514
0.010715072
0.0097926521
0.0084970207
0.0069457134
0.0052294868
0.0034809296
0.0018336606
0.00041011559
-0.00070486874
-0.001467348
-0.0018770499
-0.0019702331
-0.0018065682
-0.0014556784
-0.00098642589
-0.00045952853
7.7174152e-05
0.00058774281
0.0010445951
0.0014262037
0.0017155703
0.0018972938
-0.018406408
-0.015155451
-0.011869113
-0.008895377
-0.0064528249
-0.0045446817
-0.0031023714
-0.0020231221
-0.0012132503
-0.00061390804
-0.00026155795
-0.021223687
-0.023231123
-0.02415827
-0.023761823
-0.021936917
-0.018792562
-0.014602537
-0.010069975
-0.005129522
-0.00026364685
0.0036940951
0.0068403607
0.0091583628
0.010682928
0.011554938
0.011784455
0.01153515
0.010762214
0.0096075566
0.0080846292
0.0063283811
0.0044531622
0.0026060491
0.00092845682
-0.00046199924
-0.0014931117
-0.0021388333
-0.0024176349
-0.0023815381
-0.0021012351
-0.0016527866
-0.0011070307
-0.00052210564
5.7874906e-05
0.00059884306
0.001074367
0.0014663039
0.0017621661
0.0019484642
-0.021974926
-0.01842342
-0.014707905
-0.011214233
-0.008241087
-0.005897824
-0.0041099623
-0.0027943443
-0.0018121815
-0.0010908686
-0.00056706331
-0.00024921626
-0.024941235
-0.026832415
-0.027376867
-0.026410527
-0.023887823
-0.020006906
-0.015119434
-0.010010743
-0.0046003891
0.00051029113
0.0045367136
0.0076924405
0.0099815394
0.011397858
0.012122531
0.012162062
0.011697915
0.010682359
0.0092775339
0.0075194843
0.0055624459
0.0035441247
0.0016240906
-5.3362644e-05
-0.0013804313
-0.0023013752
-0.0028105909
-0.0029457738
-0.0027739551
-0.0023759288
-0.0018323622
-0.0012127092
-0.00057111425
4.9901123e-05
0.00061640953
0.0011058719
0.0015071519
0.0018112274
0.0020044804
-0.025852206
-0.0219943
-0.017855901
-0.013851688
-0.010339674
-0.0074741476
-0.0052848788
-0.0036594155
-0.002478898
-0.0016182129
-0.00099073914
-0.00051445014
-0.00023331686
-0.028876919
-0.030525521
-0.030606355
-0.02900794
-0.025750204
-0.02109365
-0.01548991
-0.0098361124
-0.0039857048
0.0013341765
0.0054245753
0.0085855863
0.01080633
0.012076432
0.012625716
0.012445935
0.01173848
0.010456516
0.0087863102
0.0067897362
0.0046420548
0.0025029016
0.00054044718
-0.001102915
-0.0023350094
-0.0031201833
-0.0034747432
-0.0034556577
-0.0031444382
-0.0026300798
-0.0019936954
-0.0013010174
-0.0006049808
5.0417248e-05
0.00063529703
0.0011375975
0.0015524684
0.0018678762
0.0020655592
-0.029961838
-0.025858421
-0.021278617
-0.016762086
-0.012714202
-0.0093159397
-0.0066379927
-0.0046499723
-0.0032013557
-0.0021922113
-0.0014511308
-0.0008855268
-0.00047403298
-0.00021734552
-0.032931848
-0.034268512
-0.033828396
-0.031553931
-0.027502779
-0.022027236
-0.015730813
-0.0095390594
-0.0032769743
0.0022387251
0.0063781586
0.0095094399
0.011607352
0.012702784
0.013047347
0.012615662
0.011635167
0.010064547
0.0081174028
0.0058850229
0.0035638279
0.0013326401
-0.00063657252
-0.0022095601
-0.0033147583
-0.0039396546
-0.0041234951
-0.00394273
-0.0034916374
-0.0028624337
-0.0021332251
-0.0013694704
-0.00062771365
5.1703458e-05
0.00065381503
0.0011772206
0.0016110752
0.0019292274
0.0021302709
-0.034206567
-0.029952779
-0.024960092
-0.019904137
-0.015314099
-0.01138354
-0.0082056725
-0.0057733351
-0.0040097512
-0.0027905169
-0.0019356519
-0.0012819673
-0.00080207985
-0.00042900701
-0.0001984491
-0.037066019
-0.038045842
-0.037044409
-0.034022482
-0.029111962
-0.022822359
-0.015857855
-0.0090995284
-0.0024655275
0.0032510047
0.0073948831
0.010434657
0.012371979
0.013262212
0.013367106
0.012647939
0.01136417
0.0094857084
0.007255571
0.0047971934
0.0023274191
3.9645036e-05
-0.0018960358
-0.0033610108
-0.0043078051
-0.0047496902
-0.0047503583
-0.0044045266
-0.0038135264
-0.0030680269
-0.0022472443
-0.0014233851
-0.00065035275
5.1858963e-05
0.00068527541
0.0012388789
0.0016739691
0.0019946716
0.0021986316
-0.038548146
-0.034184356
-0.028850488
-0.023258856
-0.018092491
-0.013625512
-0.0099427896
-0.0070601772
-0.0049072918
-0.003440513
-0.0024144738
-0.0016794194
-0.0011439126
-0.00071292837
-0.00039549625
-0.00018558019
-0.041271979
-0.041855714
-0.040219412
-0.036370778
-0.030595687
-0.023496055
-0.015840382
-0.0084965644
-0.0014789558
0.0043692189
0.008435486
0.011345437
0.013087092
0.013733723
0.013559825
0.012517042
0.010900415
0.0087000231
0.0061873763
0.0035212468
0.00093598635
-0.0013668398
-0.0032252803
-0.0045435932
-0.0053015763
-0.005541477
-0.0053513566
-0.0048379452
-0.0041033192
-0.0032414013
-0.0023425101
-0.0014780316
-0.00067514221
7.1873711e-05
0.00075092778
0.0013044388
0.0017415605
0.0020641047
0.002270654
-0.042989701
-0.038517292
-0.032867017
-0.026788681
-0.021028818
-0.015989852
-0.011798489
-0.0084630695
-0.0059194782
-0.0041426562
-0.0029126398
-0.0020421569
-0.0014675788
-0.00099870528
-0.00063412684
-0.00035529871
-0.00016701925
-0.045538799
-0.045656571
-0.043305458
-0.038620206
-0.031967597
-0.024025589
-0.015647664
-0.0076993586
-0.00030685606
0.0055204981
0.0094832005
0.012225602
0.013732607
0.014089825
0.013597372
0.012194177
0.010218734
0.0076880331
0.0049019093
0.0020557421
-0.00060406676
-0.0028748869
-0.0046095462
-0.0057422444
-0.0062845878
-0.0063091072
-0.0059219473
-0.0052338241
-0.0043531973
-0.0033908348
-0.0024395604
-0.0015361791
-0.00067098931
0.00014229886
0.0008202098
0.0013755279
0.0018133892
0.0021375442
0.0023463456
-0.047511298
-0.042971378
-0.036981033
-0.030420624
-0.024097104
-0.018454543
-0.013721844
-0.0099329534
-0.0069997097
-0.0049141838
-0.0034265267
-0.0023925978
-0.0017390241
-0.0012532835
-0.00085990571
-0.00055077284
-0.00029846473
-0.00014694326
-0.04981599
-0.049392952
-0.046325626
-0.04078885
-0.03320581
-0.02437089
-0.015228618
-0.0066585724
0.00095651885
0.0066870651
0.010534945
0.013057048
0.014281791
0.014301147
0.013448328
0.011648725
0.0092938328
0.0064318944
0.003391842
0.00040289618
-0.002282366
-0.0044682812
-0.0060315946
-0.0069427392
-0.0072485659
-0.0070461644
-0.0064500028
-0.0055812441
-0.0045729927
-0.0035434285
-0.0025418736
-0.0015538037
-0.00059528197
0.00021638359
0.0008960817
0.0014511071
0.0018895548
0.0022149638
0.002425692
-0.052054738
-0.04751308
-0.041219802
-0.034136412
-0.027235598
-0.0210057
-0.015689313
-0.011418189
-0.0081014153
-0.0057084835
-0.0039608956
-0.0027257974
-0.0019783398
-0.0014406588
-0.0010403548
-0.00071925571
-0.0004658166
-0.00026554531
-0.00013457491
-0.054040679
-0.053088943
-0.049304531
-0.042854708
-0.034262423
-0.024463414
-0.014553099
-0.0054114742
0.0022561549
0.0078775775
0.011580362
0.01381041
0.01470506
0.014333693
0.013076932
0.01084981
0.0081008448
0.0049170815
0.001654454
-0.0014297842
-0.0040836686
-0.006127698
-0.0074743052
-0.0081341742
-0.0081847752
-0.0077368265
-0.0069204065
-0.005891449
-0.0047978234
-0.0037036713
-0.002589011
-0.0014726619
-0.00051535359
0.00029836717
0.00097668932
0.0015314228
0.0019699719
0.0022963369
0.0025086647
-0.056546366
-0.052077341
-0.045545543
-0.037967159
-0.030435898
-0.023594074
-0.017699084
-0.012896484
-0.0091725283
-0.0064842896
-0.0044776569
-0.0030409335
-0.002181023
-0.0015683339
-0.0011448742
-0.0008401597
-0.0005903962
-0.00040396683
-0.00021464966
-0.00011701278
-0.058233837
-0.056776313
-0.052222353
-0.044758825
-0.035057442
-0.024284618
-0.01362403
-0.0040688524
0.0036006784
0.0090948638
0.012569621
0.01445261
0.014968839
0.014148974
0.012444773
0.0097659369
0.0066175851
0.0031331457
-0.0003082957
-0.0034293266
-0.005988313
-0.0078341008
-0.008924231
-0.0093048811
-0.009072809
-0.0083605645
-0.0073456615
-0.0062093301
-0.0050334776
-0.0037905014
-0.0025028298
-0.00138592
-0.00042593338
0.00038536008
0.0010624903
0.0016162955
0.0020546227
0.0023815606
0.0025952258
-0.061004389
-0.056587886
-0.049881414
-0.041867057
-0.033726065
-0.026213638
-0.019712511
-0.014377126
-0.010192069
-0.0071941403
-0.0049472043
-0.0033146211
-0.0023378625
-0.001633628
-0.0011770301
-0.0008799482
-0.00066188783
-0.00049527815
-0.00031720627
-0.00018261122
-9.4484881e-05
-0.062434695
-0.060437385
-0.055019508
-0.046414202
-0.035565117
-0.023837966
-0.012487561
-0.0026685147
0.0050154471
0.010296906
0.013467641
0.014947979
0.015030051
0.013703694
0.011513209
0.0083661418
0.0048255183
0.0010752054
-0.0024876614
-0.0055769748
-0.0079753909
-0.0095718228
-0.010366347
-0.01042903
-0.0098853704
-0.0089306191
-0.007782336
-0.0065425773
-0.0051732866
-0.0037005112
-0.002408499
-0.0012877703
-0.00033118626
0.00047805649
0.0011532023
0.0017057274
0.0021433355
0.0024705568
0.0026853527
-0.065466751
-0.061053677
-0.054155712
-0.045756629
-0.037055932
-0.028889593
-0.021728246
-0.015829806
-0.011179027
-0.0078198135
-0.005325857
-0.003520768
-0.0024179676
-0.0016337308
-0.0011224566
-0.00084157329
-0.00065676816
-0.00052819714
-0.00037778277
-0.00026922781
-0.00013656072
-7.9472171e-05
-0.066628556
-0.064019337
-0.057600109
-0.047779264
-0.035781318
-0.023150701
-0.011184992
-0.0011413387
0.0064416006
0.011451956
0.014240717
0.015253434
0.014842052
0.012953468
0.010243794
0.0066227113
0.0027111117
-0.00125312
-0.00486692
-0.0078518095
-0.010026413
-0.011322352
-0.011768604
-0.011471012
-0.010635679
-0.0095176041
-0.0082408876
-0.006752802
-0.0050818197
-0.0035981738
-0.0023004727
-0.0011838813
-0.00023012306
0.0005760952
0.0012488417
0.0017994436
0.0022359782
0.0025632906
0.0027790223
-0.069925862
-0.065508284
-0.058370376
-0.049568293
-0.040342024
-0.031566967
-0.023765505
-0.017259152
-0.012112529
-0.008388985
-0.0055995915
-0.0036139089
-0.0024143058
-0.0015309121
-0.00098654239
-0.00071468513
-0.00056809518
-0.00048447167
-0.0003875153
-0.00030340738
-0.00019384437
-0.00010965884
-5.650439e-05
-0.070771167
-0.067429743
-0.059915364
-0.048842125
-0.03573468
-0.022237657
-0.0097152235
0.00049400624
0.007854358
0.012536889
0.014849687
0.015319189
0.014353151
0.011853558
0.0085969829
0.0045117436
0.00026940615
-0.0038404593
-0.0074267262
-0.010235313
-0.0121203
-0.013046541
-0.013085239
-0.012442979
-0.011410799
-0.010135762
-0.0085439681
-0.0066638847
-0.0049715977
-0.0034793828
-0.0021860893
-0.0010729232
-0.00012319046
0.00067947424
0.0013490214
0.0018972547
0.0023325927
0.0026598099
0.0028760918
-0.074340899
-0.069946407
-0.062547259
-0.053292303
-0.043519775
-0.034158916
-0.025765074
-0.018678118
-0.013003833
-0.0088924798
-0.0058066737
-0.0035845203
-0.0022867913
-0.0013376443
-0.00073783046
-0.00049425031
-0.00038412267
-0.00036037559
-0.0003209852
-0.00028424359
-0.00020493032
-0.00014487277
-6.4322731e-05
-4.2689229e-05
-0.074778871
-0.070611253
-0.061954824
-0.04962453
-0.035435572
-0.021089824
-0.0080739316
0.0021608612
0.0092387098
0.013501169
0.015245452
0.01508614
0.013508472
0.010355898
0.0065370933
0.0020171655
-0.0024945538
-0.0066713651
-0.010150526
-0.0127037
-0.014210216
-0.014686728
-0.014326175
-0.01345111
-0.012230613
-0.010560376
-0.0084640702
-0.0065467832
-0.00484167
-0.0033533095
-0.0020637
-0.00095542986
-1.0400609e-05
0.00078769333
0.0014534912
0.0019993351
0.0024334265
0.0027597703
0.0029764793
-0.078643334
-0.074332813
-0.066682507
-0.056940626
-0.046567829
-0.036604962
-0.027643304
-0.020028005
-0.01385919
-0.0093371037
-0.0059379146
-0.0034815638
-0.0020193998
-0.0010254301
-0.00039474417
-0.00016609694
-9.9624177e-05
-0.00014280088
-0.00017047855
-0.00019242414
-0.00016501334
-0.00013151412
-7.6470335e-05
-3.656218e-05
-2.0865809e-05
-0.07859266
-0.073567092
-0.063738606
-0.050141056
-0.034876506
-0.019714632
-0.0063334848
0.0038279845
0.010539846
0.014277319
0.015366866
0.014490546
0.012249753
0.0084117954
0.0040353443
-0.000866736
-0.0055708145
-0.0097324388
-0.013014737
-0.015200721
-0.016224927
-0.016249369
-0.015619509
-0.014523164
-0.01281307
-0.010499383
-0.008342487
-0.0064061778
-0.0047030397
-0.0032180244
-0.0019338904
-0.00083140779
0.00010759392
0.0009004473
0.0015626388
0.0021062485
0.0025378198
0.0028630504
0.0030800787
-0.08277362
-0.078607743
-0.07074481
-0.06051065
-0.049495509
-0.03887628
-0.029346366
-0.021234158
-0.014630414
-0.0097301217
-0.006000915
-0.0033024082
-0.0016724879
-0.00056503963
5.4443021e-05
0.00026108515
0.00028170065
0.00017166506
7.2390418e-05
-2.0490612e-05
-5.5135709e-05
-6.9893786e-05
-4.5473895e-05
-2.461323e-05
3.6235499e-06
-6.7701685e-06
-0.082234135
-0.076320416
-0.065275085
-0.050382112
-0.034058716
-0.018137244
-0.0044958575
0.0054613566
0.011697659
0.014783378
0.01514833
0.013465293
0.010516138
0.0059802089
0.0010748245
-0.0041400609
-0.0089534156
-0.013002163
-0.015955384
-0.017641165
-0.018166418
-0.017887157
-0.01700385
-0.015309148
-0.012785511
-0.010377764
-0.0081930068
-0.0062546839
-0.0045536029
-0.0030741117
-0.001796669
-0.00070170013
0.0002304523
0.0010184525
0.0016774542
0.0022168699
0.0026456335
0.0029694554
0.0031867887
-0.086761966
-0.082717282
-0.074678695
-0.063972038
-0.052298001
-0.04098259
-0.030842786
-0.022249708
-0.015256672
-0.010038361
-0.0059978099
-0.0030469867
-0.0012498781
-1.8454999e-05
0.00062938525
0.0007970809
0.00074962237
0.00058342841
0.00040740713
0.00023794154
0.00013037776
5.6075956e-05
3.2740101e-05
2.6148406e-05
3.5619407e-05
3.4752968e-05
1.1612646e-05
-0.085730359
-0.078882853
-0.066553277
-0.05035137