/*--------------------------------*- C++ -*----------------------------------*\
| =========                 |                                                 |
| \\      /  F ield         | OpenFOAM: The Open Source CFD Toolbox           |
|  \\    /   O peration     | Version:  5.0                                   |
|   \\  /    A nd           | Web:      www.OpenFOAM.org                      |
|    \\/     M anipulation  |                                                 |
\*---------------------------------------------------------------------------*/
FoamFile
{
    version     2.0;
    format      ascii;
    class       volScalarField;
    location    "320";
    object      pPrime2Mean;
}
// * * * * * * * * * * * * * * * * * * * * * * * * * * * * * * * * * * * * * //

dimensions      [0 4 -4 0 0 0 0];

internalField   nonuniform List<scalar> 
9520
(
2.0223998e-07
1.8824115e-07
1.3685376e-06
1.6462512e-07
1.2731788e-06
3.7026671e-06
1.3595474e-07
1.112181e-06
3.4458618e-06
7.2635393e-06
1.0622046e-07
9.1647453e-07
3.0120689e-06
6.7607482e-06
1.2238086e-05
7.8507008e-08
7.1325143e-07
2.4843988e-06
5.9110393e-06
1.1394609e-05
1.8841535e-05
5.4923447e-08
5.235533e-07
1.9359519e-06
4.8767225e-06
9.9682257e-06
1.754929e-05
2.7374641e-05
3.6698979e-08
3.6158377e-07
1.4233428e-06
3.8007373e-06
8.2301665e-06
1.5362409e-05
2.5509196e-05
3.8182189e-05
2.4382486e-08
2.3530709e-07
9.849862e-07
2.7940049e-06
6.4197977e-06
1.269442e-05
2.2348808e-05
3.5600301e-05
5.1669581e-05
1.8029662e-08
1.4762446e-07
6.4255449e-07
1.9321827e-06
4.7235287e-06
9.9111825e-06
1.848691e-05
3.1220457e-05
4.8207119e-05
6.8292859e-05
1.745542e-08
9.7839472e-08
4.0385415e-07
1.2581442e-06
3.2692395e-06
7.2988913e-06
1.4450206e-05
2.5858033e-05
4.2325087e-05
6.3764542e-05
8.8559212e-05
2.2661981e-08
8.313819e-08
2.6674447e-07
7.8768351e-07
2.130118e-06
5.0552086e-06
1.0653174e-05
2.0239385e-05
3.510783e-05
5.605942e-05
8.2758489e-05
0.00011301547
3.4025729e-08
9.9255447e-08
2.2218747e-07
5.1600729e-07
1.3339839e-06
3.2948164e-06
7.3843821e-06
1.4939963e-05
2.7524786e-05
4.6582106e-05
7.2870619e-05
0.00010571588
0.00014224452
5.2701081e-08
1.4081404e-07
2.5631174e-07
4.2360244e-07
8.7444905e-07
2.0630614e-06
4.8137366e-06
1.036419e-05
2.0349231e-05
3.659325e-05
6.0675012e-05
9.3248312e-05
0.00013320192
0.00017685493
8.0563051e-08
2.0461243e-07
3.5484321e-07
4.846782e-07
7.2193081e-07
1.3529335e-06
3.0110031e-06
6.7537417e-06
1.4130777e-05
2.7106053e-05
4.7775882e-05
7.7823993e-05
0.00011772385
0.00016581088
0.00021747182
1.2122347e-07
2.894422e-07
5.0464722e-07
6.7273169e-07
8.3532823e-07
1.1234578e-06
1.9696442e-06
4.2116057e-06
9.2037308e-06
1.8849393e-05
3.5473325e-05
6.1446091e-05
9.8511421e-05
0.00014686285
0.00020415819
0.00026472313
1.7788521e-07
3.9669835e-07
6.9460606e-07
9.585843e-07
1.1658538e-06
1.3120218e-06
1.6309811e-06
2.7333976e-06
5.7165635e-06
1.2275562e-05
2.4715334e-05
4.5752851e-05
7.8023492e-05
0.00012325862
0.00018125939
0.00024886795
0.00031922813
2.5693571e-07
5.2046036e-07
9.1571386e-07
1.3102444e-06
1.6649164e-06
1.8427529e-06
1.9031777e-06
2.2379943e-06
3.6708653e-06
7.5949928e-06
1.6103327e-05
3.1956393e-05
5.8291218e-05
9.796965e-05
0.00015262377
0.00022152586
0.000300562
0.00038158195
3.6436252e-07
6.8919871e-07
1.1660224e-06
1.7092285e-06
2.2846474e-06
2.6415451e-06
2.6789948e-06
2.5975178e-06
2.9628191e-06
4.8250299e-06
9.9316495e-06
2.0843912e-05
4.0840294e-05
7.347659e-05
0.00012179065
0.00018719416
0.00026828309
0.00035984548
0.00045234427
5.0849843e-07
8.5875155e-07
1.4483284e-06
2.1379496e-06
2.9861188e-06
3.6436168e-06
3.8472468e-06
3.6625142e-06
3.4221368e-06
3.8405879e-06
6.2453678e-06
1.2820738e-05
2.6685749e-05
5.1672674e-05
9.174693e-05
0.00015003114
0.00022757854
0.00032214794
0.00042729457
0.0005320239
6.8644127e-07
1.1566142e-06
1.7557923e-06
2.5856516e-06
3.7369955e-06
4.7892129e-06
5.3153705e-06
5.2745959e-06
4.8446995e-06
4.4255122e-06
4.9034591e-06
7.9766917e-06
1.6376472e-05
3.3848986e-05
6.4810176e-05
0.00011358516
0.00018327011
0.00027439745
0.00038372149
0.0005034425
0.00062106825
9.0381367e-07
1.3876874e-06
2.1543743e-06
3.0610864e-06
4.5286782e-06
6.0356328e-06
7.0061596e-06
7.293774e-06
7.0187033e-06
6.3132062e-06
5.6426301e-06
6.1625658e-06
1.0069198e-05
2.0737128e-05
4.2600941e-05
8.065688e-05
0.00013951916
0.00022211433
0.00032827284
0.00045357404
0.00058876842
0.00071984875
1.1507075e-06
1.9253903e-06
2.5600919e-06
3.5846835e-06
5.3510383e-06
7.3642233e-06
8.8532151e-06
9.6056886e-06
9.737766e-06
9.2285405e-06
8.1287112e-06
7.0659757e-06
7.6167813e-06
1.25881e-05
2.6079878e-05
5.3255184e-05
9.9668122e-05
0.00017011826
0.00026719003
0.00038981333
0.00053223632
0.00068368253
0.00082865395
1.4330144e-06
2.2218388e-06
3.2624004e-06
4.1677662e-06
6.2445609e-06
8.7606796e-06
1.0816019e-05
1.2108038e-05
1.2822567e-05
1.288673e-05
1.2008697e-05
1.0278644e-05
8.6572841e-06
9.2714415e-06
1.5628279e-05
3.2624085e-05
6.6177006e-05
0.00012234983
0.00020598789
0.00031913259
0.0004596052
0.00062018313
0.00078851808
0.00094767944
1.6903689e-06
3.1161512e-06
3.8863427e-06
4.9779209e-06
7.2086157e-06
1.0279526e-05
1.2884172e-05
1.4732902e-05
1.6122476e-05
1.7033565e-05
1.6914054e-05
1.5353657e-05
1.2698634e-05
1.0377867e-05
1.1154624e-05
1.9320232e-05
4.0635258e-05
8.178544e-05
0.00014925656
0.00024776321
0.00037857376
0.00053819817
0.00071782387
0.00090351989
0.0010770248
1.9738727e-06
3.7394363e-06
5.1285663e-06
5.8627364e-06
8.4513357e-06
1.191658e-05
1.5103966e-05
1.745524e-05
1.9535338e-05
2.1455467e-05
2.2515618e-05
2.1834365e-05
1.9181471e-05
1.5321332e-05
1.2211358e-05
1.3323524e-05
2.3830573e-05
5.0428886e-05
0.00010055425
0.00018099024
0.0002961014
0.00044613209
0.00062609377
0.00082548892
0.0010288404
0.0012166895
2.2885664e-06
4.9626489e-06
6.2813042e-06
7.3173464e-06
9.8462493e-06
1.3935942e-05
1.7508866e-05
2.0302591e-05
2.2998676e-05
2.6004131e-05
2.85273e-05
2.9305186e-05
2.7545582e-05
2.3413401e-05
1.8111666e-05
1.4166784e-05
1.5859314e-05
2.9365205e-05
6.2373322e-05
0.00012301611
0.00021819581
0.00035166763
0.00052240084
0.00072373069
0.00094342425
0.0011645337
0.001366573
2.8112739e-06
6.1681529e-06
8.3117013e-06
8.9318493e-06
1.1937815e-05
1.623367e-05
2.0357309e-05
2.3352804e-05
2.6521412e-05
3.0570159e-05
3.4743817e-05
3.7400203e-05
3.7268372e-05
3.3959473e-05
2.8024955e-05
2.1064405e-05
1.6264385e-05
1.8865199e-05
3.6172469e-05
7.6898662e-05
0.00014976252
0.00026155484
0.0004151289
0.00060793261
0.00083147633
0.0010717829
0.0013105553
0.0015264767
3.3563861e-06
7.4254754e-06
1.038995e-05
1.1621376e-05
1.4389271e-05
1.9409677e-05
2.3644042e-05
2.6831565e-05
3.0193495e-05
3.514695e-05
4.1001316e-05
4.58482e-05
4.7884417e-05
4.6302119e-05
4.1086797e-05
3.3037854e-05
2.4177226e-05
1.8525388e-05
2.2467779e-05
4.4555002e-05
9.4501826e-05
0.00018144364
0.00031177372
0.00048713919
0.00070322859
0.00094961369
0.001210622
0.0014667604
0.0016961078
3.9075036e-06
8.6509785e-06
1.2384159e-05
1.4607101e-05
1.8299608e-05
2.3185042e-05
2.7995547e-05
3.087182e-05
3.4226781e-05
3.9800913e-05
4.727678e-05
5.4424208e-05
5.9035051e-05
5.9843499e-05
5.6471484e-05
4.9024514e-05
3.8472745e-05
2.7424643e-05
2.0967932e-05
2.6829765e-05
5.4880109e-05
0.00011575303
0.00021876294
0.0003695771
0.00056832733
0.00080872168
0.0010783368
0.0013598965
0.0016329076
0.0018750869
4.4471954e-06
9.3842008e-06
1.4430858e-05
1.7715338e-05
2.2788271e-05
2.8926624e-05
3.3151898e-05
3.6105102e-05
3.8876101e-05
4.4758916e-05
5.3599931e-05
6.3072598e-05
7.0424733e-05
7.4103737e-05
7.3409427e-05
6.7994456e-05
5.7879181e-05
4.4299961e-05
3.0743092e-05
2.3618176e-05
3.2165174e-05
6.7592576e-05
0.00014129589
0.00026246993
0.00043569566
0.00065927832
0.00092476744
0.0012177427
0.0015194618
0.0018086653
0.0020629549
4.7911688e-06
1.0452033e-05
1.5864463e-05
2.073363e-05
2.7729448e-05
3.5729976e-05
4.088691e-05
4.2373662e-05
4.476924e-05
5.0332183e-05
6.0222205e-05
7.1776971e-05
8.1945283e-05
8.868867e-05
9.1257915e-05
8.8969344e-05
8.1126885e-05
6.7676159e-05
5.0411849e-05
3.4038584e-05
2.6528433e-05
3.8758066e-05
8.3221299e-05
0.00017184848
0.00031335081
0.00051084626
0.00076051882
0.0010516329
0.0013678282
0.0016890787
0.0019936174
0.0022591826
4.9672576e-06
1.0889892e-05
1.776631e-05
2.321644e-05
3.2286156e-05
4.326165e-05
5.036569e-05
5.1772275e-05
5.1942721e-05
5.7185424e-05
6.7457551e-05
8.0798123e-05
9.3526627e-05
0.00010340773
0.00010948665
0.00011110403
0.00010699668
9.6018787e-05
7.8306252e-05
5.6624712e-05
3.7207998e-05
2.9801678e-05
4.6975581e-05
0.00010238766
0.0002081946
0.00037221334
0.0005957151
0.00087250211
0.0011894913
0.0015284876
0.0018684176
0.0021872722
0.0024631812
4.7978212e-06
1.1170745e-05
1.8887682e-05
2.6154717e-05
3.6379116e-05
4.9858252e-05
6.1038944e-05
6.3541347e-05
6.2670132e-05
6.5549726e-05
7.6022615e-05
9.0432591e-05
0.00010541274
0.00011813003
0.00012777887
0.00013368749
0.00013440718
0.00012783788
0.00011261863
8.9528088e-05
6.2703502e-05
4.0171135e-05
3.3610898e-05
5.7283697e-05
0.00012580348
0.00025117353
0.00043987308
0.00069094523
0.00099560271
0.0013384116
0.0016995163
0.0020570619
0.0023890726
0.0026743135
4.306973e-06
1.0877882e-05
1.9587627e-05
2.8185234e-05
4.0846421e-05
5.616026e-05
7.0284121e-05
7.7764394e-05
7.6404243e-05
7.7638588e-05
8.6305061e-05
0.00010142115
0.00011787337
0.00013305433
0.00014591722
0.00015624109
0.00016242448
0.00016178545
0.00015156188
0.00013066917
0.00010100596
6.8402276e-05
4.289541e-05
3.8221007e-05
7.0251987e-05
0.00015426966
0.00030167174
0.00051713847
0.00079712301
0.0011300999
0.0014983591
0.001880614
0.0022545168
0.0025984063
0.0028919034
3.5491936e-06
1.0000209e-05
1.9417753e-05
2.9513262e-05
4.4152147e-05
6.2680608e-05
7.938117e-05
9.0288766e-05
9.4181582e-05
9.3297197e-05
0.00010036399
0.00011427142
0.00013168342
0.00014841434
0.00016402427
0.00017841647
0.00019037948
0.00019666713
0.00019349013
0.00017794251
0.00014976913
0.00011235932
7.3494608e-05
4.5422198e-05
4.3999424e-05
8.6558512e-05
0.00018866542
0.00036061046
0.00060479127
0.00091475517
0.0012761693
0.0016691934
0.0020713887
0.0024602197
0.0028146136
0.0031152474
2.6492527e-06
8.5697649e-06
1.8216156e-05
2.9719384e-05
4.6249034e-05
6.779302e-05
8.8674854e-05
0.00010271051
0.00011037759
0.00011474057
0.000118554
0.00013082662
0.00014739635
0.00016500002
0.00018229841
0.00020023479
0.00021774895
0.00023159513
0.00023691035
0.00022936562
0.00020654607
0.0001694412
0.00012320211
7.780203e-05
4.7880643e-05
5.1428178e-05
0.00010699147
0.00022994846
0.0004289275
0.00070356538
0.0010442574
0.001433875
0.0018506701
0.0022713615
0.0026735516
0.0030370021
0.0033436249
1.7875728e-06
6.713811e-06
1.6030131e-05
2.8405769e-05
4.6800046e-05
7.0903852e-05
9.6543874e-05
0.0001156168
0.00012683108
0.00013523698
0.00014426131
0.00015229224
0.00016674353
0.00018340341
0.00020150394
0.00022183192
0.00024443084
0.00026582801
0.00028067951
0.00028310596
0.00026897415
0.00023683961
0.00018918826
0.00013317025
8.120494e-05
5.0500298e-05
6.1111029e-05
0.00013245051
0.0002791421
0.00050755703
0.00081413023
0.0011859397
0.0016031695
0.0020424419
0.0024799827
0.0028938462
0.0032648551
0.0035763075
1.1102782e-06
4.7578656e-06
1.3080899e-05
2.563011e-05
4.5067916e-05
7.1874742e-05
0.0001013795
0.00012746345
0.00014401378
0.00015695211
0.00016964062
0.00018266656
0.00019139931
0.0002053416
0.00022228763
0.00024391223
0.00027044356
0.0002991231
0.00032379668
0.00033771433
0.00033483383
0.00031176228
0.00026827221
0.00020852151
0.00014192958
8.3656115e-05
5.3622441e-05
7.3787116e-05
0.00016394457
0.00033731748
0.00059740697
0.00093706881
0.0013399997
0.0017838873
0.0022440676
0.0026966399
0.0031204009
0.0034974423
0.0038125691
7.323711e-07
3.086825e-06
9.9094742e-06
2.1686689e-05
4.1142992e-05
6.9485941e-05
0.0001034462
0.00013516944
0.00016102721
0.00017880144
0.00019754627
0.00021326819
0.00022598565
0.00023258313
0.00024640975
0.00026718354
0.00029643723
0.0003313163
0.0003658477
0.00039188463
0.0004022994
0.0003915429
0.0003571866
0.00030030933
0.00022695436
0.00014917446
8.5188315e-05
5.7722783e-05
9.0335764e-05
0.00020258492
0.00040557217
0.00069933496
0.001072863
0.001506509
0.0019757507
0.0024550235
0.0029206654
0.0033524886
0.0037340304
0.0040516934
2.1149596e-06
7.2336065e-07
7.1640798e-06
1.7333357e-05
3.5458256e-05
6.3875224e-05
0.00010090194
0.00013961416
0.00017278645
0.00020187444
0.00022437361
0.00024830623
0.00026248973
0.00027050345
0.00027555222
0.00029340595
0.00032309719
0.00036299987
0.00040642828
0.00044498906
0.00046970841
0.00047389537
0.00045274356
0.00040475825
0.00033240951
0.00024397959
0.00015462096
8.5941031e-05
6.3430687e-05
0.00011178247
0.00024957005
0.00048500591
0.00081412659
0.0012218738
0.0016854142
0.0021783752
0.0026747112
0.0031513496
0.0035893684
0.0039738905
0.0042929809
5.5627678e-06
2.1184232e-06
1.0840116e-06
1.3528462e-05
2.9116939e-05
5.5673234e-05
9.387254e-05
0.00013819951
0.00018100212
0.00021852846
0.00025433793
0.00028071176
0.00030586961
0.00031284474
0.00031585384
0.00032410959
0.00035217555
0.0003947465
0.00044605571
0.00049632046
0.00053615142
0.00055673149
0.00055210678
0.00051808868
0.0004540037
0.00036396789
0.00025904303
0.00015802121
8.6180388e-05
7.1549433e-05
0.00013929974
0.00030616612
0.00057669468
0.00094246898
0.0013843324
0.0018765328
0.0023912779
0.0029024669
0.0033879522
0.0038302928
0.004216307
0.0045357553
1.1306421e-05
5.5645473e-06
3.0944706e-06
1.7437867e-06
2.3585246e-05
4.6482018e-05
8.3147407e-05
0.00013088455
0.00018223666
0.00023160579
0.00027671042
0.00031860681
0.00034480399
0.00036464815
0.00036297738
0.00036578592
0.00038517339
0.00042830975
0.00048508633
0.00054630674
0.00060058328
0.00063877115
0.00065267009
0.0006368169
0.00058731105
0.00050436205
0.00039425261
0.00027153656
0.00015920203
8.6338163e-05
8.306613e-05
0.00017419759
0.00037368185
0.00068166031
0.0010849312
0.0015603296
0.0020795608
0.002613885
0.0031375743
0.003629713
0.0040745204
0.0044605834
0.0047793682
2.0337769e-05
1.1316645e-05
7.1681713e-06
4.7672637e-06
2.5906926e-06
3.8470034e-05
7.0943088e-05
0.00011850697
0.00017609035
0.00023672348
0.00029563702
0.00034775095
0.00039262679
0.00041073417
0.00042247207
0.00041622545
0.00042801793
0.00046506599
0.00052527862
0.00059496969
0.00066330238
0.00071859328
0.00075266587
0.00075770962
0.00072811206
0.00066006572
0.00055507014
0.00042237019
0.00028082504
0.00015811788
8.7053952e-05
9.9169992e-05
0.00021790751
0.00045343885
0.00080084079
0.0012419453
0.0017498146
0.0022940742
0.0028455431
0.0033792759
0.0038758623
0.0043213212
0.0047060492
0.0050232037
3.3709795e-05
2.0353606e-05
1.3555616e-05
9.9163771e-06
6.7228653e-06
3.482434e-06
6.020412e-05
0.00010391101
0.00016331128
0.00023295528
0.00030575111
0.00037407344
0.00043061255
0.00047033355
0.00047588117
0.00048274193
0.00048103823
0.00051038674
0.00056773007
0.0006441287
0.00072392859
0.00079628825
0.00085024418
0.00087837598
0.00087243178
0.00082605168
0.00073574304
0.00060507958
0.00044726523
0.0002863049
0.00015490052
8.9206435e-05
0.00012125221
0.00027195981
0.00054673624
0.00093506166
0.0014137935
0.0019525911
0.0025195401
0.00308553
0.0036267855
0.0041256315
0.0045699853
0.0049520636
0.0052666811
5.3727247e-05
3.3667796e-05
2.3627057e-05
1.737331e-05
1.3089497e-05
8.5757291e-06
4.2403232e-06
9.0753687e-05
0.00014733552
0.00022085825
0.00030553996
0.00039088823
0.00046691482
0.00051968177
0.00054829229
0.00054335707
0.00055471774
0.00056636244
0.00061769616
0.00069439363
0.00078437375
0.00087109002
0.00094517357
0.00099644687
0.0010171143
0.00099749281
0.00093039108
0.00081332236
0.00065302074
0.00046776987
0.00028746564
0.00014991658
9.3938198e-05
0.00015089871
0.00033795048
0.00065481324
0.0010850118
0.0016005962
0.0021683228
0.0027553236
0.0033330698
0.0038793004
0.0043782619
0.004819828
0.0051980193
0.0055092572
8.2683481e-05
5.3611674e-05
3.8346986e-05
2.9179105e-05
2.173776e-05
1.6040333e-05
1.0003601e-05
4.7385627e-06
0.00013240029
0.00020430629
0.00029516738
0.00039607014
0.00049330663
0.00056928615
0.00061097162
0.00062938878
0.00062216056
0.00064704301
0.00067782044
0.00075123841
0.00084464641
0.00094497423
0.0010362999
0.0011112161
0.0011591517
0.0011703453
0.00113324
0.0010403642
0.0008912915
0.00069723089
0.00048267502
0.00028397602
0.00014382475
0.00010267598
0.00018986821
0.000417501
0.00077881424
0.0012512188
0.0018023078
0.0023965358
0.003000704
0.0035873445
0.0041360132
0.0046330116
0.0050701938
0.0054433453
0.0057504281
0.00012314079
8.250922e-05
5.9875444e-05
4.6294508e-05
3.5535918e-05
2.5687515e-05
1.8231919e-05
1.0877416e-05
4.9198016e-06
0.00018813159
0.00027880073
0.00038912266
0.00050680383
0.00060887367
0.00067735741
0.00070718635
0.00072169498
0.00072038046
0.00076535826
0.00081618508
0.0009105975
0.0010174358
0.0011255658
0.001221139
0.0012971914
0.0013408
0.0013392383
0.0012794029
0.0011545374
0.00096764126
0.00073582452
0.00049083736
0.00027578054
0.00013762808
0.00011713206
0.00024005998
0.00051221367
0.00091975051
0.0014340318
0.0020187115
0.0026366331
0.0032548874
0.0038475108
0.0043961194
0.00488916
0.005320461
0.0056875105
0.0059897308
0.00017809439
0.00012305147
9.0249056e-05
7.0436532e-05
5.5449576e-05
4.1230388e-05
2.8466638e-05
1.943651e-05
1.1168334e-05
4.7568004e-06
0.00026184003
0.00037427417
0.00050575951
0.00063475174
0.00073415178
0.0007936489
0.00081530373
0.00083270887
0.00084412547
0.00091083159
0.00098232769
0.0010946547
0.0012122081
0.001327944
0.001429253
0.0015067237
0.0015436048
0.0015242576
0.0014348808
0.0012707653
0.0010399135
0.00076680165
0.00049129427
0.0002632045
0.00013272224
0.00013929407
0.00030346918
0.00062362435
0.0010784673
0.0016336051
0.0022494279
0.0028879061
0.0035170238
0.0041127069
0.0046588231
0.0051460153
0.0055700485
0.005930027
0.0062267428
0.00025125408
0.0001782667
0.00013212604
0.00010312843
8.252975e-05
6.3638763e-05
4.5162973e-05
2.9777469e-05
1.9607604e-05
1.08928e-05
4.4254384e-06
0.00035748568
0.00049436057
0.00064337666
0.00077697982
0.00087207166
0.00092458823
0.00094210446
0.00096852501
0.00099529723
0.0010854298
0.0011755584
0.0013024647
0.0014307325
0.0015565728
0.0016655689
0.0017432738
0.0017689964
0.0017249012
0.0015976599
0.0013862115
0.0011053082
0.00078817922
0.00048340239
0.00024701314
0.00013091244
0.00017139283
0.00038213313
0.00075315147
0.0012556116
0.0018498953
0.0024939228
0.0031495522
0.0037862152
0.0043820609
0.0049233486
0.005402928
0.0058184229
0.0061704469
0.0064610788
0.00034686395
0.00025161327
0.0001885902
0.00014690029
0.00011754957
9.3213202e-05
6.9259026e-05
4.6894938e-05
2.9566237e-05
1.8907903e-05
1.0454154e-05
3.8963103e-06
0.00047898751
0.00063861976
0.00079995715
0.00093721746
0.0010284588
0.0010759098
0.0010933613
0.0011328277
0.001175049
0.001288766
0.0013946104
0.0015356027
0.0016781787
0.0018178746
0.0019349502
0.0020094596
0.0020173265
0.0019395694
0.0017647927
0.0014974361
0.0011608168
0.00079815386
0.00046695319
0.00022846633
0.00013440201
0.00021585511
0.00047806849
0.00090204558
0.0014516126
0.0020826621
0.0027515222
0.0034206794
0.0040615259
0.0046547063
0.0051889624
0.0056592997
0.0060650863
0.0064083504
0.0067036181
0.00046883059
0.00034731895
0.00026279851
0.00020494282
0.0001627665
0.00012985459
0.00010026117
7.1667062e-05
4.6337647e-05
2.8233975e-05
1.7784786e-05
9.3888293e-06
3.3544981e-06
0.00062690395
0.00080598505
0.00097996867
0.0011207978
0.0012080473
0.0012528336
0.001273309
0.0013271399
0.0013837592
0.0015183191
0.0016407328
0.0017997688
0.0019625011
0.0021183381
0.0022413297
0.0023067087
0.0022876964
0.0021655245
0.0019324646
0.0016005134
0.0012033808
0.00079525526
0.00044228982
0.00020937626
0.00014577838
0.00027523653
0.00059320312
0.0010713494
0.0016666711
0.0023314751
0.0030214128
0.0037003195
0.0043420038
0.0049298165
0.0054549854
0.0059145605
0.0063095538
0.0066534763
0.0069596809
0.00061821323
0.00046888175
0.0003587308
0.00028015482
0.0002215527
0.00017549308
0.00013719777
0.00010286218
7.0724774e-05
4.423334e-05
2.619496e-05
1.588388e-05
8.6530867e-06
2.8137615e-06
0.00080122056
0.001001575
0.0011884941
0.0013315589
0.0014155041
0.0014601519
0.0014841288
0.0015515127
0.0016193433
0.0017751747
0.0019195472
0.0021045272
0.0022919658
0.002463367
0.0025874038
0.0026351039
0.0025779276
0.0023989085
0.0020960726
0.0016911828
0.0012300801
0.00077852526
0.00041042434
0.00019214511
0.00016795922
0.00035214174
0.00072931301
0.0012618692
0.0019007507
0.0025957052
0.0033026519
0.0039874578
0.0046267293
0.00520662
0.0057207545
0.0061681292
0.006561002
0.006911381
0.0072223379
0.00079596338
0.00061757565
0.00047916914
0.00037604184
0.00029669279
0.00023362491
0.00018165984
0.00013870113
0.00010088769
6.764314e-05
4.0922488e-05
2.3246239e-05
1.4443734e-05
7.4309895e-06
2.293533e-06
0.001007275
0.0012302473
0.0014286511
0.0015736008
0.0016564691
0.0017010632
0.0017283749
0.0018014078
0.0018830712
0.0020645213
0.0022423842
0.0024601049
0.0026734463
0.0028570864
0.0029744732
0.0029933363
0.0028845176
0.0026347879
0.0022503468
0.0017650308
0.001238349
0.00074769095
0.00037311088
0.00017973741
0.00020411345
0.00044914354
0.0008879719
0.0014741438
0.0021535525
0.002874529
0.0035942084
0.0042810979
0.0049148342
0.0054843413
0.0059855605
0.0064291435
0.0068251471
0.0071769448
0.0074914951
0.0010073541
0.00079498863
0.00062513471
0.00049451226
0.00039108683
0.00030701633
0.0002373146
0.00018048195
0.00013440598
9.6135203e-05
6.256222e-05
3.6445469e-05
2.0753476e-05
1.2395067e-05
6.178106e-06
1.9811101e-06
0.001249715
0.0014942939
0.0017036095
0.0018528194
0.0019355568
0.0019786346
0.0020024783
0.0020745021
0.0021764147
0.0023996216
0.0026214848
0.0028748771
0.0031125583
0.0033022115
0.003402429
0.0033786826
0.0032026637
0.0028672377
0.0023895068
0.0018177156
0.0012261997
0.00070331539
0.00033288038
0.00017561498
0.00025757297
0.00056870981
0.0010704914
0.0017083922
0.0024245088
0.003166981
0.0038950474
0.0045802831
0.0052054146
0.0057621099
0.0062590207
0.0067034037
0.0070980706
0.0074500342
0.0077670369
0.0012570663
0.00100612
0.00079849322
0.00063591947
0.00050573836
0.00039793267
0.0003070463
0.00023210121
0.00017235584
0.00012683211
8.8363032e-05
5.6073662e-05
3.2340991e-05
1.7728781e-05
1.0402619e-05
4.9664574e-06
1.7009705e-06
0.0015300469
0.0017955052
0.0020196011
0.0021757658
0.0022573371
0.0022907514
0.0022990196
0.0023729764
0.0025136784
0.0027961843
0.0030665162
0.0033561539
0.0036135273
0.0038001048
0.0038697106
0.0037869303
0.0035262539
0.003089432
0.0025074543
0.0018452198
0.0011924475
0.00064692032
0.0002930522
0.00018368478
0.00033174673
0.00071311142
0.0012778291
0.0019644853
0.002712845
0.0034720599
0.0042041519
0.0048839725
0.0054974052
0.0060505811
0.0065469359
0.0069876545
0.0073796102
0.007730482
0.0080488238
0.0015462465
0.0012563002
0.0010040218
0.00080187209
0.0006400286
0.00050653781
0.0003924761
0.00029670519
0.00021892551
0.00016068867
0.00011513783
7.9160647e-05
4.9797653e-05
2.7770555e-05
1.4621478e-05
8.3212973e-06
3.7397417e-06
1.4437155e-06
0.0018482965
0.0021397595
0.0023849242
0.0025489606
0.0026215159
0.0026291954
0.002617287
0.0027074145
0.0029143332
0.0032650906
0.0035861757
0.0039097852
0.0041793977
0.0043507655
0.0043732454
0.0042123349
0.0038478909
0.0032937664
0.0025980191
0.0018441266
0.0011369323
0.00058108456
0.00025772709
0.00020820482
0.0004299942
0.00088427756
0.0015105264
0.0022420208
0.0030177096
0.0037887447
0.0045203491
0.0051908761
0.0058031202
0.0063554653
0.0068461834
0.007281715
0.0076695628
0.0080180784
0.0083366952
0.0018734029
0.0015470131
0.0012476428
0.00099680151
0.00079495141
0.00063110702
0.00049281057
0.00037530176
0.00027751024
0.0002021615
0.00014378681
0.00010236375
7.0119052e-05
4.3228688e-05
2.2821214e-05
1.1633952e-05
6.2844343e-06
3.1180098e-06
1.1601937e-06
0.0022092167
0.0025367736
0.0028080835
0.002974558
0.0030193241
0.0029879962
0.0029675622
0.0030986838
0.003389899
0.0038166841
0.0041879258
0.0045408203
0.0048121258
0.0049527067
0.0049082731
0.0046475432
0.004158942
0.0034720581
0.0026552692
0.0018119474
0.0010607236
0.00050948813
0.00023171729
0.00025363844
0.00055542465
0.0010836872
0.0017687904
0.0025404713
0.0033381782
0.0041157567
0.0048421031
0.0055156516
0.0061280795
0.0066731958
0.0071565758
0.00758536
0.007967667
0.008312581
0.0086304659
0.0022415673
0.0018757073
0.0015321539
0.0012273258
0.00097424303
0.00077166178
0.00060526273
0.00046629905
0.00034867663
0.00025493429
0.00017900721
0.00012666397
9.0024405e-05
6.0938306e-05
3.5700714e-05
1.8322397e-05
8.9401767e-06
5.133565e-06
2.2252577e-06
9.1293126e-07
0.0026235411
0.0029964765
0.003293943
0.0034439768
0.0034408635
0.0033749194
0.0033688649
0.0035613825
0.0039529506
0.0044595212
0.0048791202
0.0052534048
0.005512315
0.0056027108
0.0054682148
0.0050835686
0.004449633
0.0036157984
0.0026738393
0.0017474181
0.00096629339
0.00043695634
0.00022041562
0.0003243979
0.0007107275
0.0013124533
0.0020526653
0.0028591654
0.0036729327
0.0044513076
0.0051871812
0.0058635213
0.0064676239
0.0070035903
0.0074778797
0.0078982921
0.0082736168
0.0086137052
0.0089299311
0.0026624047
0.002244812
0.0018547356
0.0014975144
0.0011849797
0.00093121288
0.00072898699
0.00056598241
0.00042999703
0.00031930802
0.00022481426
0.00015707298
0.00011025333
7.760295e-05
5.0312043e-05
2.8900315e-05
1.4400631e-05
7.3247233e-06
3.8920921e-06
1.9261661e-06
6.9322498e-07
0.0031016712
0.0035253665
0.0038358647
0.0039458359
0.0038918706
0.0038056413
0.0038327218
0.004114913
0.0046113725
0.0052032206
0.0056662939
0.006050567
0.0062788708
0.0062956753
0.0060445848
0.0055097286
0.0047091781
0.0037164877
0.0026493529
0.0016508221
0.00085767278
0.00036938321
0.00022950816
0.00042461529
0.00089825863
0.0015715098
0.0023619592
0.0031968591
0.0040199501
0.0048171286
0.0055604307
0.0062280123
0.0068215889
0.0073464221
0.0078097768
0.0082201573
0.0085870498
0.0089211355
0.0092348624
0.0031459673
0.0026660706
0.0022179138
0.0018048491
0.0014322086
0.0011170443
0.00086628468
0.00067275101
0.00051693577
0.00039213819
0.00028113048
0.00019781049
0.00013534419
9.4118513e-05
6.3459921e-05
4.0836483e-05
2.3164808e-05
1.1948329e-05
5.8672586e-06
3.2664507e-06
1.3901411e-06
5.1340514e-07
0.0036501516
0.0041196903
0.0044220309
0.0044845598
0.0043859366
0.004305226
0.0043797498
0.0047624856
0.0053772321
0.0060574321
0.0065551869
0.0069337744
0.0071088531
0.0070244533
0.006626735
0.0059136301
0.0049260095
0.0037660956
0.0025789056
0.0015243276
0.00074048832
0.00031343458
0.00026467735
0.00055822423
0.0011202295
0.0018614609
0.0026956845
0.0035513574
0.0044058269
0.0052176774
0.0059527415
0.0066089964
0.0071897737
0.0077013669
0.008151881
0.0085505335
0.0089075603
0.0092345166
0.0095450107
0.003697915
0.0031495826
0.0026338189
0.0021522157
0.0017140179
0.0013349245
0.0010247704
0.0007885396
0.00060728744
0.00046831036
0.00034444602
0.00024859359
0.00016980035
0.00011476461
7.6378664e-05
5.1696619e-05
3.3117161e-05
1.9394293e-05
9.8510344e-06
4.9822894e-06
2.564729e-06
1.1567277e-06
3.679604e-07
0.0042670074
0.0047695285
0.0050572479
0.0050748589
0.0049481352
0.0048809318
0.0050167329
0.0055172484
0.0062624185
0.0070315264
0.0075503248
0.0079027975
0.0079973046
0.0077794944
0.0072016588
0.0062811917
0.0050881841
0.0037575851
0.0024615501
0.0013722054
0.00062175288
0.00027624005
0.00033169942
0.00072914269
0.0013784411
0.0021818406
0.0030515996
0.0039550239
0.0048347291
0.0056402783
0.0063640417
0.0070063219
0.0075718665
0.0080680236
0.0085037265
0.0088889418
0.0092346893
0.009553479
0.0098601528
0.0043165545
0.0036995913
0.0031118159
0.0025514477
0.002033503
0.001583463
0.0012105103
0.00092127775
0.00070315563
0.00054559656
0.00040940627
0.00030563649
0.00021343119
0.00014433452
9.3320668e-05
6.2650188e-05
4.2326159e-05
2.797345e-05
1.6223698e-05
8.45444e-06
4.1710417e-06
2.1576903e-06
8.5982613e-07
2.5940671e-07
0.004945507
0.0054817274
0.0057586517
0.0057344476
0.0055847207
0.0055398637
0.0057563604
0.0063956144
0.0072791869
0.0081334587
0.008654829
0.0089556417
0.0089369358
0.0085484203
0.0077537459
0.0065968637
0.005183939
0.0036856107
0.0022987782
0.0012007839
0.00050961399
0.00026551003
0.00043661714
0.00094085353
0.0016733278
0.0025305774
0.0034686438
0.0044120342
0.0052894331
0.0060849299
0.0067942493
0.007419711
0.0079674692
0.0084459006
0.0088647779
0.0092348378
0.009567967
0.0098776774
0.010180007
0.004998317
0.0043144725
0.003654884
0.0030109047
0.0024012419
0.0018660162
0.0014234431
0.0010775833
0.00081269908
0.00062652955
0.00047415671
0.00036380914
0.00026236919
0.00018271037
0.00011855066
7.7644709e-05
5.1927796e-05
3.6076052e-05
2.3627316e-05
1.3926633e-05
7.2092348e-06
3.5875949e-06
1.7588291e-06
6.8973732e-07
1.7958591e-07
0.0056945856
0.0062771703
0.0065432688
0.006473402
0.0063083885
0.006290325
0.0066204425
0.0074118835
0.0084386456
0.0093695245
0.0098702228
0.010088276
0.0099174892
0.0093154429
0.0082646569
0.0068440354
0.0052024439
0.0035472803
0.0020947715
0.0010183144
0.00041349387
0.00028971949
0.00058512167
0.0011951735
0.0020033115
0.0029537119
0.0039516139
0.0048996465
0.0057700132
0.006551642
0.0072431443
0.0078487914
0.0083760831
0.0088344224
0.0092344208
0.0095876686
0.0099069398
0.010206695
0.010504278
0.0057534545
0.0049932832
0.0042616619
0.0035321995
0.0028239709
0.0021911064
0.0016670591
0.0012586325
0.00094328903
0.00071992463
0.00054160783
0.00042140634
0.00031241817
0.00022590766
0.00015226235
0.00010033777
6.5527726e-05
4.4755655e-05
3.0854023e-05
2.0344776e-05
1.1910181e-05
6.2446097e-06
3.0636285e-06
1.4508257e-06
5.2125066e-07
1.2244896e-07
0.0065380634
0.0071744862
0.007419945
0.0072983008
0.0071169883
0.0071546504
0.0076235751
0.0085796003
0.009751018
0.01074482
0.01119675
0.011294052
0.010924828
0.010060882
0.0087134449
0.0070057229
0.0051347897
0.0033427455
0.0018564806
0.0008352709
0.00034436658
0.00035726645
0.00078099527
0.0014914852
0.0024215077
0.0034577472
0.0044714339
0.0054180006
0.006276586
0.0070402741
0.0077104033
0.0082930764
0.0087971121
0.0092329226
0.0096120356
0.0099468812
0.01025108
0.010540073
0.010832659
0.0066057634
0.0057469768
0.0049323875
0.0041129099
0.0033013469
0.0025636277
0.0019477704