/*--------------------------------*- C++ -*----------------------------------*\
| =========                 |                                                 |
| \\      /  F ield         | OpenFOAM: The Open Source CFD Toolbox           |
|  \\    /   O peration     | Version:  5.0                                   |
|   \\  /    A nd           | Web:      www.OpenFOAM.org                      |
|    \\/     M anipulation  |                                                 |
\*---------------------------------------------------------------------------*/
FoamFile
{
    version     2.0;
    format      ascii;
    class       volVectorField;
    location    "320";
    object      U;
}
// * * * * * * * * * * * * * * * * * * * * * * * * * * * * * * * * * * * * * //

dimensions      [0 1 -1 0 0 0 0];

internalField   nonuniform List<vector> 
9520
(
(1.0143483 0.00016656899 0)
(1.0144465 0.00048804567 0)
(1.0138532 0.00016438673 0)
(1.0146194 0.00078645684 0)
(1.0139535 0.00048281698 0)
(1.0136639 0.00016248644 0)
(1.014851 0.0010612892 0)
(1.0141317 0.0007798837 0)
(1.0137637 0.00047694833 0)
(1.0133571 0.00016431235 0)
(1.0151267 0.0013119195 0)
(1.0143724 0.0010549078 0)
(1.0139422 0.00077084784 0)
(1.0134573 0.00048123021 0)
(1.0131188 0.00017009955 0)
(1.0154338 0.0015380567 0)
(1.0146619 0.0013078956 0)
(1.0141844 0.0010437807 0)
(1.0136366 0.00077755437 0)
(1.0132197 0.00049771725 0)
(1.0128447 0.0001763645 0)
(1.0157614 0.0017396511 0)
(1.0149874 0.0015378549 0)
(1.0144771 0.0012973719 0)
(1.0138794 0.0010536916 0)
(1.0133997 0.00080431136 0)
(1.0129455 0.00051722599 0)
(1.0125907 0.00017848489 0)
(1.0160996 0.0019160658 0)
(1.0153385 0.0017447377 0)
(1.0148079 0.0015302763 0)
(1.0141734 0.0013124244 0)
(1.0136429 0.0010911179 0)
(1.0131243 0.00083795608 0)
(1.0126905 0.00052575047 0)
(1.0123354 0.00017533022 0)
(1.0164412 0.002066346 0)
(1.0157072 0.0019287512 0)
(1.0151661 0.0017420008 0)
(1.0145081 0.0015532672 0)
(1.0139374 0.0013603608 0)
(1.0133657 0.0011405222 0)
(1.0128668 0.0008552839 0)
(1.0124312 0.00051853464 0)
(1.0121016 0.00016869536 0)
(1.0167811 0.0021885599 0)
(1.0160884 0.0020900712 0)
(1.0155427 0.0019325372 0)
(1.0148728 0.0017759504 0)
(1.0142739 0.0016129586 0)
(1.0136576 0.0014258395 0)
(1.0131054 0.0011695427 0)
(1.0126011 0.00084696406 0)
(1.0121927 0.00049963307 0)
(1.0118844 0.00016198502 0)
(1.0171194 0.0022763271 0)
(1.0164806 0.0022300272 0)
(1.0159295 0.0021027059 0)
(1.0152574 0.0019800124 0)
(1.0146422 0.0018494312 0)
(1.0139907 0.001696308 0)
(1.0133939 0.0014685957 0)
(1.0128324 0.0011636756 0)
(1.0123553 0.00081796056 0)
(1.0119706 0.0004790755 0)
(1.0116834 0.00015778011 0)
(1.0174608 0.0023367195 0)
(1.0168886 0.0023539601 0)
(1.0163197 0.0022580233 0)
(1.0156506 0.0021655818 0)
(1.0150326 0.0020694182 0)
(1.0143559 0.0019535063 0)
(1.0137224 0.0017550116 0)
(1.0131124 0.0014700413 0)
(1.0125772 0.0011267761 0)
(1.0121253 0.00078481323 0)
(1.0117655 0.00046510779 0)
(1.0114932 0.00015641337 0)
(1.0178005 0.0023653246 0)
(1.0173165 0.0024661461 0)
(1.0167045 0.002406391 0)
(1.0160396 0.0023350914 0)
(1.0154343 0.0022719704 0)
(1.0147457 0.0021976541 0)
(1.0140825 0.0020310643 0)
(1.0134296 0.0017675924 0)
(1.0128473 0.0014306293 0)
(1.0123352 0.0010821902 0)
(1.0119127 0.00076132613 0)
(1.011572 0.0004597417 0)
(1.0113104 0.00015611331 0)
(1.0181075 0.0023876813 0)
(1.0176902 0.0025779328 0)
(1.01703 0.0025669528 0)
(1.0164034 0.0024887665 0)
(1.0158354 0.0024536927 0)
(1.0151556 0.0024269608 0)
(1.014468 0.0022982456 0)
(1.0137754 0.0020585467 0)
(1.0131529 0.0017298262 0)
(1.0125896 0.0013773268 0)
(1.0121116 0.0010505534 0)
(1.0117118 0.00075148238 0)
(1.0113866 0.0004585812 0)
(1.0111346 0.00015429416 0)
(1.0184183 0.0023707745 0)
(1.0180052 0.0027410987 0)
(1.0172833 0.002749478 0)
(1.0167298 0.0026259533 0)
(1.016225 0.0026050744 0)
(1.0155846 0.0026349327 0)
(1.0148765 0.0025574512 0)
(1.0141431 0.0023452431 0)
(1.0134845 0.0020251691 0)
(1.0128786 0.0016712067 0)
(1.0123515 0.0013383139 0)
(1.0118993 0.001037213 0)
(1.0115194 0.00074915388 0)
(1.0112081 0.0004541088 0)
(1.0109683 0.00014891477 0)
(1.0187357 0.0024093105 0)
(1.0183013 0.0028850806 0)
(1.0175515 0.0029150205 0)
(1.0170484 0.0027255389 0)
(1.0166291 0.0027124526 0)
(1.0160441 0.0028101312 0)
(1.0153095 0.0028092671 0)
(1.014528 0.0026311622 0)
(1.0138336 0.0023179399 0)
(1.013193 0.0019638933 0)
(1.0126244 0.0016265474 0)
(1.0121244 0.0013217777 0)
(1.0116958 0.0010335107 0)
(1.0113344 0.0007425804 0)
(1.0110386 0.00043974993 0)
(1.0108155 0.000139283 0)
(1.0190841 0.0023225523 0)
(1.0185827 0.0031200298 0)
(1.0177383 0.0030524087 0)
(1.0173885 0.0027727044 0)
(1.0170601 0.0027352854 0)
(1.0165429 0.0029485532 0)
(1.0157715 0.0030595259 0)
(1.0149275 0.0029236993 0)
(1.0141903 0.00261057 0)
(1.0135239 0.0022549181 0)
(1.0129221 0.001916113 0)
(1.0123797 0.0016079631 0)
(1.0119065 0.001316984 0)
(1.0115006 0.0010240743 0)
(1.0111587 0.00072055346 0)
(1.0108821 0.00041267595 0)
(1.0106799 0.00012624347 0)
(1.0194011 0.0025154722 0)
(1.0188324 0.0032948576 0)
(1.0178663 0.0031870983 0)
(1.0176571 0.0027559963 0)
(1.0174866 0.0027155783 0)
(1.0170766 0.0030309679 0)
(1.0162776 0.0033095432 0)
(1.0153378 0.0032331184 0)
(1.0145429 0.0029081723 0)
(1.0138615 0.0025432458 0)
(1.0132368 0.002206208 0)
(1.0126579 0.0018982884 0)
(1.0121436 0.0016031523 0)
(1.0116966 0.0013042281 0)
(1.0113154 0.00099492014 0)
(1.0109957 0.00067722213 0)
(1.0107429 0.00037476565 0)
(1.0105631 0.00011178344 0)
(1.0198222 0.0022028865 0)
(1.0191285 0.0037618743 0)
(1.0178148 0.0033646929 0)
(1.0178 0.002716489 0)
(1.0179839 0.0026203703 0)
(1.0176098 0.003092083 0)
(1.0168127 0.0035801973 0)
(1.0157468 0.0035768731 0)
(1.0148808 0.0032168801 0)
(1.0141956 0.0028267551 0)
(1.013561 0.0024941507 0)
(1.0129531 0.0021934074 0)
(1.0124001 0.0018962676 0)
(1.0119142 0.0015882149 0)
(1.0114975 0.0012666117 0)
(1.0111439 0.00093792456 0)
(1.0108498 0.00061489017 0)
(1.0106232 0.00033165386 0)
(1.0104646 9.8197323e-05 0)
(1.0200369 0.0027980086 0)
(1.019249 0.0039788779 0)
(1.0175911 0.0035210004 0)
(1.0177978 0.0025733692 0)
(1.0184372 0.0024202409 0)
(1.0182428 0.003125687 0)
(1.0173471 0.003879163 0)
(1.0161365 0.0039838556 0)
(1.0151807 0.0035504933 0)
(1.0145092 0.0031009993 0)
(1.0138877 0.002774023 0)
(1.0132619 0.0024918587 0)
(1.0126713 0.0021991327 0)
(1.0121457 0.0018815014 0)
(1.0116956 0.0015431812 0)
(1.0113131 0.0011955283 0)
(1.0109892 0.00085283041 0)
(1.0107246 0.00054303367 0)
(1.0105226 0.00029015211 0)
(1.0103815 8.7190427e-05 0)
(1.0203609 0.0020422455 0)
(1.0195464 0.0048922128 0)
(1.0170921 0.0038997462 0)
(1.0176238 0.002302304 0)
(1.0189661 0.0020102803 0)
(1.0190264 0.003139944 0)
(1.0179311 0.0042161081 0)
(1.0164703 0.0044712308 0)
(1.0154145 0.0039200228 0)
(1.0147811 0.0033658392 0)
(1.0142078 0.00303631 0)
(1.0135826 0.0027886338 0)
(1.0129555 0.002513058 0)
(1.0123862 0.0021891036 0)
(1.011901 0.0018303802 0)
(1.0114923 0.0014579517 0)
(1.0111474 0.0010903173 0)
(1.0108556 0.00074998476 0)
(1.0106211 0.00047325146 0)
(1.0104386 0.00025542891 0)
(1.0103103 7.9377958e-05 0)
(1.0200822 0.0032321611 0)
(1.0193535 0.005163182 0)
(1.0164197 0.0040477943 0)
(1.0172327 0.0020017279 0)
(1.0194759 0.0014550928 0)
(1.0200237 0.0030443943 0)
(1.0186366 0.0046529236 0)
(1.0167566 0.0050600776 0)
(1.0155256 0.0043386769 0)
(1.0149705 0.0036021678 0)
(1.014509 0.0032667483 0)
(1.0139149 0.0030749614 0)
(1.0132552 0.0028377873 0)
(1.0126339 0.0025156568 0)
(1.0121075 0.0021344564 0)
(1.0116722 0.0017305915 0)
(1.0113102 0.0013312895 0)
(1.0110029 0.00095830725 0)
(1.0107461 0.00064736227 0)
(1.0105365 0.00041381298 0)
(1.0103677 0.00022966325 0)
(1.0102475 7.4384347e-05 0)
(1.0198753 0.0019324957 0)
(1.0195272 0.0066050154 0)
(1.015208 0.0048643218 0)
(1.0165612 0.0012402887 0)
(1.0201116 0.00050687249 0)
(1.021252 0.002947095 0)
(1.0194866 0.005210169 0)
(1.0169709 0.0058063454 0)
(1.0155275 0.0048024768 0)
(1.0150931 0.0038198644 0)
(1.0147667 0.0034284134 0)
(1.0142622 0.0033318213 0)
(1.0135796 0.0031700456 0)
(1.0128915 0.0028670572 0)
(1.0123103 0.0024620871 0)
(1.0118449 0.0020194745 0)
(1.0114681 0.001580209 0)
(1.0111524 0.001169206 0)
(1.0108847 0.00082165989 0)
(1.010659 0.00055952962 0)
(1.0104669 0.00036779577 0)
(1.0103069 0.00021237176 0)
(1.0101905 7.1338935e-05 0)
(1.0190155 0.003767466 0)
(1.0181478 0.0069228865 0)
(1.0140687 0.0049090242 0)
(1.0154962 0.00089606004 0)
(1.0205882 -0.00064803314 0)
(1.0228051 0.0025496243 0)
(1.0205463 0.0059904171 0)
(1.0170978 0.0067818633 0)
(1.0152943 0.0053499487 0)
(1.0150569 0.0039439864 0)
(1.015046 0.0035245822 0)
(1.0146452 0.0035315329 0)
(1.0139465 0.0034994885 0)
(1.013169 0.0032494533 0)
(1.0125078 0.0028232585 0)
(1.0120023 0.0023311214 0)
(1.0116121 0.0018418218 0)
(1.0112935 0.0013856091 0)
(1.0110238 0.00099608208 0)
(1.0107922 0.00070140324 0)
(1.0105899 0.00049197374 0)
(1.0104085 0.00033448277 0)
(1.0102535 0.00020155475 0)
(1.0101376 6.9318626e-05 0)
(1.0193925 0.0024990335 0)
(1.015892 0.0088741207 0)
(1.0109885 0.0065559365 0)
(1.0140464 -0.00076968122 0)
(1.0214964 -0.0023761191 0)
(1.0247029 0.0023403422 0)
(1.0218181 0.006964461 0)
(1.0171136 0.0080889731 0)
(1.0147656 0.0059812591 0)
(1.0148235 0.0039825182 0)
(1.0153406 0.0034244166 0)
(1.0150912 0.0036253767 0)
(1.0143963 0.0038187935 0)
(1.013485 0.0036719885 0)
(1.0127017 0.0032312871 0)
(1.0121367 0.0026750024 0)
(1.011732 0.0021205525 0)
(1.0114163 0.0016098769 0)
(1.0111521 0.001173158 0)
(1.0109249 0.00084087129 0)
(1.0107212 0.00060602396 0)
(1.0105344 0.00044244945 0)
(1.0103588 0.00031179258 0)
(1.0102051 0.00019476767 0)
(1.010088 6.7533187e-05 0)
(1.0184147 0.0046556714 0)
(1.0162148 0.0096730091 0)
(1.0077312 0.0060730344 0)
(1.0117755 -0.0010405462 0)
(1.0217301 -0.0044026736 0)
(1.027129 0.0013438368 0)
(1.0234249 0.0083911341 0)
(1.0169432 0.0098118099 0)
(1.0138342 0.0067997397 0)
(1.0142974 0.0038415846 0)
(1.0155751 0.0031196102 0)
(1.0156818 0.0036186803 0)
(1.0149359 0.0040873849 0)
(1.0138754 0.0041495107 0)
(1.0128981 0.0037091067 0)
(1.0122386 0.0030637779 0)
(1.0118165 0.0024213962 0)
(1.011511 0.0018437997 0)
(1.0112605 0.0013545051 0)
(1.011045 0.00098026121 0)
(1.0108504 0.00071463089 0)
(1.0106676 0.0005340859 0)
(1.0104895 0.00040571897 0)
(1.0103161 0.00029739689 0)
(1.0101603 0.00018969976 0)
(1.0100413 6.5409762e-05 0)
(1.0131828 0.003291051 0)
(1.0157437 0.01221766 0)
(1.005248 0.0083549277 0)
(1.0091487 -0.0039149405 0)
(1.0228642 -0.0071306051 0)
(1.0295924 0.0010927541 0)
(1.0252313 0.0099736022 0)
(1.0165735 0.012054615 0)
(1.0124007 0.0077572268 0)
(1.0133753 0.0035565915 0)
(1.0157275 0.0024610261 0)
(1.0164693 0.0034601985 0)
(1.0156072 0.0043647838 0)
(1.0143317 0.0047028032 0)
(1.0131055 0.0042892351 0)
(1.0122974 0.0035195905 0)
(1.01185 0.0027497476 0)
(1.0115663 0.0020864675 0)
(1.0113407 0.001540343 0)
(1.0111439 0.001121491 0)
(1.0109654 0.00082060857 0)
(1.0107963 0.00061575871 0)
(1.0106278 0.0004797482 0)
(1.0104532 0.00037784847 0)
(1.0102791 0.00028791269 0)
(1.0101185 0.00018427729 0)
(1.0099978 6.2641649e-05 0)
(1.0008806 0.0063031752 0)
(1.003984 0.012673698 0)
(1.0027731 0.0082381899 0)
(1.0063223 -0.0046880388 0)
(1.0228531 -0.010072678 0)
(1.0319952 -0.00094667169 0)
(1.0275039 0.012573035 0)
(1.0157515 0.014975071 0)
(1.01026 0.0090126879 0)
(1.0119599 0.0029665829 0)
(1.0157834 0.0014197975 0)
(1.0174714 0.0029910656 0)
(1.0165701 0.0046598542 0)
(1.0148579 0.0053651611 0)
(1.0133035 0.0050259263 0)
(1.0122901 0.0040715156 0)
(1.0118115 0.003113601 0)
(1.011568 0.0023346945 0)
(1.0113853 0.0017266368 0)
(1.0112159 0.0012650371 0)
(1.0110577 0.00092701025 0)
(1.0109087 0.00069152813 0)
(1.0107594 0.00053781894 0)
(1.0105993 0.00043645196 0)
(1.0104248 0.0003564326 0)
(1.0102465 0.00027830238 0)
(1.0100799 0.00017670834 0)
(1.009958 5.915076e-05 0)
(0.98796053 0.0062421091 0)
(0.98677674 0.016201971 0)
(0.98952254 0.011118615 0)
(1.0032849 -0.0087239874 0)
(1.0243794 -0.014041023 0)
(1.0350267 -0.00090526963 0)
(1.0293029 0.015048095 0)
(1.0146044 0.018617214 0)
(1.0072748 0.010552469 0)
(1.009859 0.002156457 0)
(1.0156991 -0.00028024972 0)
(1.0187722 0.0021933116 0)
(1.0179216 0.0049160234 0)
(1.0155992 0.0062020714 0)
(1.0134568 0.0059490417 0)
(1.0121905 0.0047659366 0)
(1.0116642 0.0035210474 0)
(1.0114965 0.0025809202 0)
(1.0113863 0.0019043432 0)
(1.0112583 0.0014070399 0)
(1.0111233 0.0010359468 0)
(1.0109959 0.00076627647 0)
(1.0108721 0.00058536712 0)
(1.0107376 0.00047283229 0)
(1.010581 0.00039861484 0)
(1.0104037 0.00033714695 0)
(1.0102176 0.00026387394 0)
(1.0100452 0.00016616191 0)
(1.0099222 5.5139452e-05 0)
(0.97390635 0.0088722428 0)
(0.97206317 0.017730226 0)
(0.97466372 0.0095317975 0)
(0.99562177 -0.0093329741 0)
(1.0248264 -0.017934305 0)
(1.039887 -0.0035110061 0)
(1.0303085 0.019286822 0)
(1.012055 0.023319675 0)
(1.0030624 0.012447911 0)
(1.0069774 0.00085700129 0)
(1.015422 -0.0025600882 0)
(1.020442 0.00079171883 0)
(1.0198006 0.0051673216 0)
(1.0166383 0.0072841408 0)
(1.0136158 0.0071493263 0)
(1.0119339 0.0056330484 0)
(1.011367 0.0039867869 0)
(1.0113211 0.0028124351 0)
(1.0113334 0.0020554687 0)
(1.0112716 0.0015374326 0)
(1.0111636 0.001146508 0)
(1.0110544 0.00084472602 0)
(1.0109557 0.00062932657 0)
(1.010854 0.00049310879 0)
(1.0107296 0.00041349284 0)
(1.0105724 0.00036201469 0)
(1.0103889 0.00031458894 0)
(1.0101927 0.0002434906 0)
(1.010015 0.00015360939 0)
(1.0098904 5.113688e-05 0)
(0.95789165 0.0097577539 -1.9362002e-25)
(0.95599012 0.019954446 0)
(0.96121203 0.011097867 0)
(0.98738396 -0.015733599 0)
(1.0244117 -0.02311929 0)
(1.0426494 -0.0037210422 0)
(1.0338946 0.022368709 0)
(1.0082637 0.028735723 0)
(0.99736099 0.014867814 0)
(1.0029862 -0.00082786425 0)
(1.0149835 -0.0059089279 0)
(1.0226036 -0.0011315617 0)
(1.0223339 0.0052518998 0)
(1.0180979 0.0087286202 0)
(1.0137898 0.0087516205 0)
(1.0114461 0.0067388815 0)
(1.0108565 0.0045257922 0)
(1.0109973 0.0030052295 0)
(1.0112129 0.0021517131 0)
(1.0112595 0.0016366675 0)
(1.0111865 0.0012530479 0)
(1.0110873 0.00093076812 0)
(1.0110061 0.00067738638 0)
(1.0109368 0.00050572627 0)
(1.0108536 0.00040693025 0)
(1.0107341 0.000355852 0)
(1.010573 0.00032403054 0)
(1.0103796 0.00028550623 0)
(1.010173 0.0002206149 0)
(1.0099891 0.00014123272 0)
(1.0098622 4.7818932e-05 0)
(0.93957106 0.01205764 3.1814347e-25)
(0.93860228 0.02209543 2.021218e-25)
(0.94699584 0.0087726506 0)
(0.97777704 -0.019313227 0)
(1.0218286 -0.027950554 0)
(1.042906 -0.0092049701 0)
(1.0418829 0.029201876 0)
(1.006028 0.034788912 0)
(0.98999065 0.017327129 0)
(0.99790431 -0.0032232865 0)
(1.0142284 -0.010113959 0)
(1.0253546 -0.0040607739 0)
(1.0257449 0.0053484809 0)
(1.0200821 0.010583774 0)
(1.0139994 0.010928427 0)
(1.0106579 0.0081764851 0)
(1.0100128 0.0051468621 0)
(1.0104724 0.0031307929 0)
(1.0110062 0.0021485733 0)
(1.0112308 0.0016734241 0)
(1.0112086 0.0013427523 0)
(1.0111065 0.0010264275 0)
(1.0110249 0.00073865808 0)
(1.010979 0.00052091624 0)
(1.0109389 0.00038745544 0)
(1.010869 0.00032203806 0)
(1.0107503 0.00029532519 0)
(1.010582 0.00027944363 0)
(1.0103755 0.00024970303 0)
(1.0101583 0.00019885896 0)
(1.0099669 0.00013100813 0)
(1.0098366 4.5767068e-05 0)
(0.91961278 0.013816066 -3.1939745e-25)
(0.91930151 0.024474572 2.1004896e-24)
(0.9296957 0.0089136088 0)
(0.96789149 -0.025417194 0)
(1.0146025 -0.033305761 0)
(1.0401347 -0.0079393873 0)
(1.0416653 0.032611736 0)
(1.0087251 0.043269787 0)
(0.98222277 0.020542574 0)
(0.99128955 -0.006478708 0)
(1.0133844 -0.015899977 0)
(1.0287804 -0.0077231867 0)
(1.0301614 0.0050580922 0)
(1.022779 0.013074216 0)
(1.0142307 0.013844602 0)
(1.0094651 0.010106771 0)
(1.0087013 0.0058459717 0)
(1.0096606 0.0031543119 0)
(1.0106846 0.001980193 0)
(1.0111968 0.001597986 0)
(1.0112569 0.0013943391 0)
(1.0111335 0.0011315075 0)
(1.0110223 0.00082414915 0)
(1.0109784 0.00055287906 0)
(1.0109747 0.00036676472 0)
(1.0109608 0.00026779095 0)
(1.0109007 0.00023095645 0)
(1.0107796 0.00022722568 0)
(1.0105989 0.00022878701 0)
(1.0103772 0.00021458741 0)
(1.0101479 0.00018056785 0)
(1.0099475 0.00012441676 0)
(1.0098127 4.5373287e-05 0)
(0.89929228 0.015814137 0)
(0.89925829 0.026893922 -2.1038656e-24)
(0.91107546 0.0074533006 0)
(0.9533132 -0.030643485 0)
(1.0054719 -0.036812813 0)
(1.0306703 -0.01045585 0)
(1.024628 0.03997438 0)
(1.0006198 0.052846557 0)
(0.97275987 0.024375719 0)
(0.98353246 -0.010275215 0)
(1.0120014 -0.022749684 0)
(1.033035 -0.012893878 0)
(1.0358716 0.0048563724 0)
(1.026271 0.016185701 0)
(1.0145173 0.017742762 0)
(1.0077381 0.012641444 0)
(1.0067615 0.006693658 0)
(1.0084392 0.0029827094 0)
(1.0102146 0.0015717525 0)
(1.0111723 0.0013530028 0)
(1.0113486 0.0013668642 0)
(1.0111991 0.0012419744 0)
(1.0110182 0.00094990969 0)
(1.0109391 0.00062091467 0)
(1.0109535 0.00036144436 0)
(1.0109952 0.00020506935 0)
(1.0110051 0.00013780927 0)
(1.01095 0.00013126097 0)
(1.0108198 0.00015487309 0)
(1.0106228 0.00017815672 0)
(1.0103841 0.00018450969 0)
(1.0101407 0.00016814961 0)
(1.0099296 0.000122546 0)
(1.0097896 4.6836033e-05 0)
(0.87888291 0.017677361 -2.0389134e-25)
(0.87968143 0.029217752 0)
(0.89183873 0.0065351257 -2.9900242e-23)
(0.93615621 -0.036151665 0)
(0.99231298 -0.042223693 0)
(1.0190007 -0.0072519387 0)
(1.0055443 0.046696482 0)
(0.97557572 0.062599562 0)
(0.95888441 0.030939794 0)
(0.97329716 -0.015656267 0)
(1.010429 -0.031601017 0)
(1.0379354 -0.018828943 0)
(1.0428085 0.0039684464 0)
(1.0307983 0.020330767 0)
(1.0147585 0.022866105 0)
(1.005288 0.016020267 0)
(1.0040006 0.0076622945 0)
(1.0066643 0.0025725083 0)
(1.0095421 0.00078795856 0)
(1.0111796 0.00082988626 0)
(1.0115775 0.0012492684 0)
(1.011338 0.0013530112 0)
(1.0110432 0.0011309863 0)
(1.010874 0.00075149427 0)
(1.0108717 0.00039492005 0)
(1.0109582 0.00015048436 0)
(1.0110455 2.573284e-05 0)
(1.0110739 -2.8752224e-06 0)
(1.011015 2.8546475e-05 0)
(1.0108696 8.3415604e-05 0)
(1.0106529 0.00013370872 0)
(1.0103953 0.00016238193 0)
(1.0101357 0.00016350929 0)
(1.009913 0.00012586624 0)
(1.0097661 5.025352e-05 0)
(0.85941195 0.019287257 -1.0878956e-23)
(0.86106804 0.03142327 1.0897361e-23)
(0.87305337 0.0052135699 2.98971e-23)
(0.91747709 -0.041951706 5.5418859e-23)
(0.97557894 -0.047072606 -9.395831e-23)
(1.0047957 -0.0077506006 0)
(0.98908054 0.056753175 0)
(0.95421895 0.07099567 0)
(0.94135931 0.035124117 0)
(0.96105995 -0.020577034 0)
(1.0075946 -0.041458979 0)
(1.0434826 -0.026722527 0)
(1.0508707 0.0033521633 0)
(1.0361604 0.025345462 0)
(1.0149886 0.02947762 0)
(1.0019029 0.020394554 0)
(1.0001497 0.0088810842 0)
(1.0041629 0.0017555304 0)
(1.0086055 -0.00048005038 0)
(1.0112453 -0.0001034779 0)
(1.0120066 0.00092677856 0)
(1.0116509 0.0014504267 0)
(1.0111529 0.0013880198 0)
(1.0108053 0.00097422935 0)
(1.0107302 0.00049867842 0)
(1.0108383 0.00012814425 0)
(1.0110023 -8.9800774e-05 0)
(1.0111292 -0.0001683622 0)
(1.0111656 -0.00014678132 0)
(1.0110948 -7.1653875e-05 0)
(1.010928 1.9760971e-05 0)
(1.0106877 0.00010045003 0)
(1.0104094 0.00015132047 0)
(1.0101329 0.00016608317 0)
(1.0098962 0.00013460698 0)
(1.0097413 5.5566217e-05 0)
(0.84201751 0.020566301 1.5830563e-23)
(0.84438901 0.033307424 -1.9411568e-23)
(0.8555044 0.0040040056 0)
(0.89792705 -0.047676992 -5.4115853e-24)
(0.95603193 -0.051832084 9.3492831e-23)
(0.98813452 -0.0086030206 1.6572738e-22)
(0.97148083 0.065042577 8.4088689e-23)
(0.93589182 0.078396744 0)
(0.92462519 0.039456488 0)
(0.94961889 -0.028526399 0)
(1.0042972 -0.054075396 0)
(1.0498054 -0.03495166 0)
(1.0600026 0.0018295238 0)
(1.0421161 0.032090324 0)
(1.014656 0.037941219 0)
(0.99728829 0.026021064 0)
(0.99493943 0.010264831 0)
(1.0007368 0.00052581551 0)
(1.007311 -0.0024767757 0)
(1.0114004 -0.0015766303 0)
(1.0127189 0.00030814797 0)
(1.0122725 0.0015331883 0)
(1.0113876 0.0017130451 0)
(1.0107819 0.0013401141 0)
(1.0105352 0.0007136169 0)
(1.0106231 0.00016932742 0)
(1.0108562 -0.00018846331 0)
(1.0110929 -0.00035413971 0)
(1.0112458 -0.00036736048 0)
(1.0112781 -0.00028652552 0)
(1.0111877 -0.00016172627 0)
(1.010993 -2.9483857e-05 0)
(1.0107261 8.1318243e-05 0)
(1.010423 0.00015263146 0)
(1.0101287 0.00017882706 0)
(1.0098781 0.00014892623 0)
(1.0097146 6.2574343e-05 0)
(0.82789609 0.021568416 -7.3429444e-25)
(0.83042875 0.034819397 3.8150664e-24)
(0.8399494 0.0027428203 -2.2010209e-23)
(0.87864655 -0.053028491 -3.0057316e-23)
(0.93493805 -0.056978064 -5.1656308e-23)
(0.96790148 -0.0080038538 1.901459e-22)
(0.95439935 0.071474213 1.7440801e-22)
(0.91727913 0.087863255 -2.183663e-23)
(0.9078861 0.038338114 0)
(0.9373877 -0.036183832 0)
(1.0018743 -0.068254938 0)
(1.0582173 -0.047351368 0)
(1.0721958 0.0011453646 0)
(1.0482188 0.040021239 0)
(1.0131098 0.048471179 0)
(0.99097693 0.03317331 0)
(0.98796152 0.011959688 0)
(0.99616646 -0.0014264584 0)
(1.0055828 -0.0052885265 0)
(1.0116679 -0.003836324 0)
(1.0138315 -0.0007082858 0)
(1.0133102 0.0015369752 0)
(1.0118948 0.0022077314 0)
(1.0108149 0.001872051 0)
(1.0103132 0.0011044067 0)
(1.010302 0.00031916679 0)
(1.0105843 -0.00024246155 0)
(1.0109394 -0.00054463339 0)
(1.0112312 -0.00062726837 0)
(1.0113933 -0.00056159263 0)
(1.0114092 -0.00041337656 0)
(1.01129 -0.00023392734 0)
(1.0110632 -6.0776896e-05 0)
(1.0107656 7.8467487e-05 0)
(1.0104383 0.0001681976 0)
(1.0101234 0.0002014208 0)
(1.009858 0.00016834386 0)
(1.0096853 7.0963048e-05 0)
(0.81713182 0.02215095 -4.6617476e-24)
(0.81980976 0.035875694 4.0472391e-25)
(0.82743926 0.00164627 0)
(0.86015556 -0.057940371 2.8392057e-23)
(0.91273373 -0.061627411 -7.9218812e-23)
(0.94674479 -0.0085748925 0)
(0.93418977 0.079943965 -3.8061858e-22)
(0.90062469 0.096223588 -3.8242895e-22)
(0.8895333 0.044075461 0)
(0.92726794 -0.047652945 0)
(0.99860677 -0.083518914 0)
(1.0666395 -0.057946628 0)
(1.0894048 -0.0025808187 0)
(1.0589104 0.050063854 0)
(1.0107449 0.061453329 0)
(0.98217067 0.04170729 0)
(0.9789362 0.013915028 0)
(0.99015334 -0.0040742404 0)
(1.0033145 -0.0093332271 0)
(1.012086 -0.0069931119 0)
(1.0154799 -0.0023254126 0)
(1.0149339 0.0014413167 0)
(1.0128168 0.0028894273 0)
(1.0109874 0.0026798304 0)
(1.0100593 0.0017311625 0)
(1.0098664 0.00063144366 0)
(1.010162 -0.0002138529 0)
(1.0106393 -0.00071956395 0)
(1.0110932 -0.00091724326 0)
(1.0114153 -0.0008946795 0)
(1.0115682 -0.00073901796 0)
(1.0115549 -0.00051804179 0)
(1.0113993 -0.00028342226 0)
(1.0111358 -7.1531703e-05 0)
(1.0108047 9.2532855e-05 0)
(1.0104515 0.00019713314 0)
(1.0101157 0.00023247424 0)
(1.0098351 0.00019211536 0)
(1.0096531 8.0388611e-05 0)
(0.81109378 0.022270896 0)
(0.81338481 0.036467741 0)
(0.81832213 0.00050560062 -4.1948777e-25)
(0.84425387 -0.062092337 0)
(0.89002308 -0.065986178 -3.3947076e-25)
(0.92376474 -0.0085803959 2.0135494e-22)
(0.91450372 0.087175151 6.7562221e-22)
(0.88263292 0.10537477 -5.3383202e-23)
(0.87292196 0.049445739 0)
(0.91072897 -0.05625256 0)
(0.99567353 -0.098519396 0)
(1.0689506 -0.074467213 0)
(1.0973959 -0.0048118084 0)
(1.0764465 0.060230939 0)
(1.0130722 0.076382559 0)
(0.97119969 0.052083933 0)
(0.96718094 0.015956755 0)
(0.98257409 -0.0078262516 0)
(1.0003873 -0.014584401 0)
(1.0126824 -0.011488642 0)
(1.0178137 -0.0046150972 0)
(1.0173376 0.001121735 0)
(1.0143248 0.0038240861 0)
(1.0114269 0.0038776919 0)
(1.0097689 0.0026790902 0)
(1.0093112 0.0011981149 0)
(1.0095539 -6.305297e-05 0)
(1.0101572 -0.00085797481 0)
(1.0107997 -0.00122823 0)
(1.0113155 -0.0012837761 0)
(1.0116399 -0.0011401804 0)
(1.011765 -0.00088792718 0)
(1.0117113 -0.0005939874 0)
(1.0115126 -0.00030712073 0)
(1.0112083 -6.0793743e-05 0)
(1.0108432 0.00012463718 0)
(1.0104623 0.00023809146 0)
(1.0101049 0.00027108966 0)
(1.009809 0.00021938903 0)
(1.0096177 9.0468629e-05 0)
(0.81135602 0.036605618 -6.026641e-25)
(0.81037484 0.022063637 0)
(0.81302272 -0.00031396034 -8.8609767e-24)
(0.83146343 -0.065434126 7.8559562e-25)
(0.86868612 -0.069707175 -3.7087842e-23)
(0.90024626 -0.0086917593 7.2489303e-24)
(0.89343506 0.094566626 4.236202e-24)
(0.86563186 0.11407038 -2.3569952e-22)
(0.85619745 0.055411904 -1.8840153e-24)
(0.89341568 -0.061556288 0)
(0.98403944 -0.11542748 -6.1562339e-22)
(1.067586 -0.08144167 0)
(1.0979059 -0.013336515 0)
(1.094126 0.073976455 0)
(1.0203919 0.094130891 0)
(0.96142673 0.064202256 0)
(0.95252548 0.018303093 0)
(0.97294803 -0.012803328 0)
(0.99680728 -0.021665272 0)
(1.0134789 -0.017255063 0)
(1.0209991 -0.0079884651 0)
(1.020774 0.00061162098 0)
(1.016612 0.0050129739 0)
(1.0122554 0.0056106471 0)
(1.0095076 0.0041078926 0)
(1.0085584 0.0020724292 0)
(1.0087317 0.00028814842 0)
(1.0094481 -0.00092278716 0)
(1.0103108 -0.0015505309 0)
(1.0110623 -0.0017292836 0)
(1.0115977 -0.0016207478 0)
(1.0118969 -0.0013483811 0)
(1.0119777 -0.0010000316 0)
(1.011874 -0.00063721475 0)
(1.0116269 -0.00030370998 0)
(1.0112793 -2.8219909e-05 0)
(1.010879 0.00017347832 0)
(1.0104697 0.0002896885 0)
(1.0100905 0.00031521005 0)
(1.0097797 0.00024886708 0)
(1.0095792 0.00010087066 0)
(0.81140249 -0.0007395917 7.9305419e-24)
(0.81489543 0.036487962 0)
(0.81583248 0.021371654 2.2220197e-25)
(0.82019801 -0.067815615 -7.8501618e-25)
(0.84989039 -0.07252692 1.8546871e-23)
(0.87733973 -0.008830018 3.4803543e-22)
(0.87304404 0.10110926 -6.2200472e-22)
(0.84931635 0.12226769 -9.3976161e-23)
(0.84086073 0.061218575 -4.1441013e-23)
(0.87570987 -0.068277119 2.8803193e-23)
(0.966882 -0.13009875 -6.6513685e-22)
(1.0581481 -0.09825436 6.4168738e-22)
(1.0949661 -0.011206222 0)
(1.0902955 0.084955052 0)
(1.0222868 0.1174179 0)
(0.95236476 0.080187276 0)
(0.93512908 0.020287516 0)
(0.9614772 -0.019197373 0)
(0.99229254 -0.030390199 0)
(1.0145605 -0.025037932 0)
(1.0251818 -0.012334152 0)
(1.0254934 -0.00040246768 0)
(1.0199616 0.0066193651 0)
(1.0136028 0.0080233148 0)
(1.0093175 0.0062100234 0)
(1.0075691 0.0033938746 0)
(1.0076142 0.0009034721 0)
(1.0084487 -0.00089722873 0)
(1.0095781 -0.0018729369 0)
(1.0106178 -0.0022329304 0)
(1.0114132 -0.0021879714 0)
(1.0119272 -0.0019074793 0)
(1.0121771 -0.0015088984 0)
(1.0122001 -0.0010706582 0)
(1.0120391 -0.0006461945 0)
(1.0117394 -0.00027307071 0)
(1.0113473 2.5730674e-05 0)
(1.0109107 0.00023646286 0)
(1.0104729 0.00034993644 0)
(1.0100723 0.00036334349 0)
(1.0097469 0.00027987148 0)
(1.0095378 0.00011133857 0)
(0.8132964 -0.069006756 4.9766855e-24)
(0.8162338 -0.00090626542 2.3462535e-23)
(0.8249057 0.035869595 0)
(0.8250021 0.020244918 1.5194086e-25)
(0.83186286 -0.07467148 -1.1207111e-23)
(0.85646454 -0.0088007309 -1.5386169e-22)
(0.854081 0.10670946 0)
(0.83499704 0.12944368 9.3326661e-23)
(0.82778471 0.06688387 -5.0301348e-23)
(0.85842198 -0.074862691 -2.8436778e-23)
(0.94777672 -0.1453005 7.1214457e-22)
(1.0421259 -0.11592668 6.9181617e-22)
(1.0847985 -0.015545794 0)
(1.0663616 0.10051448 0)
(1.0047793 0.1403161 0)
(0.93845079 0.099404423 0)
(0.91647444 0.024379116 0)
(0.94693897 -0.027829576 0)
(0.98727333 -0.041492158 0)
(1.0158028 -0.034366769 0)
(1.0305371 -0.018451607 0)
(1.0318238 -0.0016908911 0)
(1.0246217 0.008517159 0)
(1.0156812 0.0113448 0)
(1.0092247 0.0091905574 0)
(1.0063166 0.0053531016 0)
(1.0060641 0.0018351609 0)
(1.0070854 -0.00069670474 0)
(1.0085311 -0.0021952442 0)
(1.0099379 -0.00281077 0)
(1.0110561 -0.0028566722 0)
(1.0118329 -0.0025778365 0)
(1.0122899 -0.0021311894 0)
(1.0124717 -0.0016164517 0)
(1.0124266 -0.0010983068 0)
(1.0122029 -0.00062118168 0)
(1.0118482 -0.00021614198 0)
(1.0114107 9.8816198e-05 0)
(1.0109375 0.00031133497 0)
(1.0104715 0.00041646702 0)
(1.0100499 0.00041455436 0)
(1.0097107 0.00031146943 0)
(1.0094937 0.00012162881 0)
(0.81910243 -0.075835577 -9.9409473e-24)
(0.8131854 -0.069125835 -6.1728042e-24)
(0.82682412 -0.00067444835 -2.0899511e-23)
(0.83871599 0.034752415 -1.0876247e-23)
(0.83714362 0.01873961 4.1279444e-24)
(0.83734759 -0.0088698024 1.4605031e-22)
(0.83796038 0.11121054 8.5236443e-23)
(0.82344612 0.13542656 0)
(0.81751812 0.071854595 4.9926628e-23)
(0.84242288 -0.081095732 2.1392479e-23)
(0.92718158 -0.160907 0)
(1.0233191 -0.1314319 -9.4622794e-22)
(1.0709037 -0.030225639 0)
(1.0480109 0.11579726 0)
(0.97987397 0.161758 0)
(0.92196314 0.12023001 0)
(0.89797613 0.028348246 0)
(0.93043586 -0.03729404 0)
(0.98095197 -0.054639964 0)
(1.017489 -0.046431764 0)
(1.0370999 -0.025725649 0)
(1.0399841 -0.0040096572 0)
(1.0310213 0.011097684 0)
(1.0186351 0.015751068 0)
(1.0092794 0.013340163 0)
(1.004724 0.0081394422 0)
(1.0039758 0.0032229141 0)
(1.0052203 -0.0003252046 0)
(1.0070809 -0.0025052793 0)
(1.0089582 -0.0034647933 0)
(1.0104882 -0.0036473675 0)
(1.0115915 -0.0033790895 0)
(1.0122988 -0.0028816639 0)
(1.0126726 -0.0022860104 0)
(1.0127726 -0.0016697718 0)
(1.0126525 -0.0010836737 0)
(1.0123625 -0.00056373857 0)
(1.0119517 -0.00013510713 0)
(1.0114683 0.00018770742 0)
(1.0109588 0.00039545077 0)
(1.0104652 0.00048738971 0)
(1.0100237 0.00046656724 0)
(1.0096716 0.00034275394 0)
(1.0094472 0.00013160906 0)
(0.82241154 -0.0091754552 6.7065402e-24)
(0.81180331 -0.075842702 8.6933253e-24)
(0.8183829 -0.068311763 3.669533e-23)
(0.84203383 -0.00017909875 1.1271772e-23)
(0.85441533 0.033235874 -3.8239862e-23)
(0.85263664 0.016974468 -3.5534478e-25)
(0.82571583 0.11443881 -1.5961443e-22)
(0.8157305 0.14015529 -6.8425115e-23)
(0.81072858 0.076185905 -1.5462952e-22)
(0.82938023 -0.086726824 -4.2259349e-23)
(0.90549254 -0.17587495 -8.713218e-22)
(1.000622 -0.14851006 6.4898381e-22)
(1.0535091 -0.038277445 0)
(1.0393978 0.11713259 -1.4243451e-21)
(0.95982923 0.1832734 7.1358387e-22)
(0.90750199 0.13269258 0)
(0.88201089 0.036191424 0)
(0.91269061 -0.050396471 0)
(0.97395978 -0.070743986 0)
(1.0192802 -0.059906719 0)
(1.0450508 -0.035685455 0)
(1.050336 -0.0065568094 0)
(1.0393636 0.0138858 0)
(1.0227974 0.021632237 0)
(1.0094745 0.018943622 0)
(1.0026755 0.01202812 0)
(1.0012099 0.0051942078 0)
(1.0026802 0.00025292136 0)
(1.0051216 -0.0027953067 0)
(1.0076071 -0.0042572093 0)
(1.0096703 -0.0046020979 0)
(1.0111802 -0.0043412106 0)
(1.0121901 -0.0037815411 0)
(1.0127907 -0.0030939104 0)
(1.0130635 -0.0023715744 0)
(1.0130732 -0.0016703668 0)
(1.0128737 -0.0010289889 0)
(1.0125156 -0.00047659638 0)