/*--------------------------------*- C++ -*----------------------------------*\
| =========                 |                                                 |
| \\      /  F ield         | OpenFOAM: The Open Source CFD Toolbox           |
|  \\    /   O peration     | Version:  5.0                                   |
|   \\  /    A nd           | Web:      www.OpenFOAM.org                      |
|    \\/     M anipulation  |                                                 |
\*---------------------------------------------------------------------------*/
FoamFile
{
    version     2.0;
    format      ascii;
    class       volVectorField;
    location    "320";
    object      U_0;
}
// * * * * * * * * * * * * * * * * * * * * * * * * * * * * * * * * * * * * * //

dimensions      [0 1 -1 0 0 0 0];

internalField   nonuniform List<vector> 
9520
(
(1.0143579 0.00016659494 0)
(1.0144559 0.00048809746 0)
(1.0138627 0.00016444303 0)
(1.0146287 0.00078651289 0)
(1.013963 0.00048298017 0)
(1.0136733 0.00016243039 0)
(1.01486 0.0010613347 0)
(1.014141 0.00078012935 0)
(1.013773 0.00047682057 0)
(1.0133668 0.00016405641 0)
(1.0151353 0.0013119385 0)
(1.0143815 0.0010552142 0)
(1.0139514 0.00077066844 0)
(1.0134668 0.00048052207 0)
(1.013129 0.00016972949 0)
(1.0154421 0.0015380482 0)
(1.0146707 0.0013081963 0)
(1.0141934 0.0010435594 0)
(1.0136459 0.00077645242 0)
(1.0132297 0.00049663042 0)
(1.0128554 0.00017602245 0)
(1.0157691 0.0017396162 0)
(1.0149957 0.0015381051 0)
(1.0144859 0.0012970762 0)
(1.0138886 0.0010522357 0)
(1.0134095 0.00080255471 0)
(1.0129562 0.00051616407 0)
(1.0126019 0.00017828674 0)
(1.0161068 0.0019159902 0)
(1.0153464 0.0017449038 0)
(1.0148163 0.0015298664 0)
(1.0141824 0.0013106576 0)
(1.0136525 0.0010887254 0)
(1.0131348 0.00083616957 0)
(1.0127017 0.00052509186 0)
(1.0123468 0.00017526512 0)
(1.0164476 0.0020661828 0)
(1.0157146 0.0019287901 0)
(1.0151741 0.001741439 0)
(1.0145167 0.0015511908 0)
(1.0139467 0.0013574171 0)
(1.013376 0.0011380006 0)
(1.0128779 0.00085412091 0)
(1.0124426 0.00051830219 0)
(1.012113 0.00016864338 0)
(1.0167865 0.0021881877 0)
(1.0160952 0.0020899041 0)
(1.0155503 0.0019317924 0)
(1.0148811 0.0017735459 0)
(1.0142829 0.0016095039 0)
(1.0136676 0.0014226335 0)
(1.0131162 0.0011678232 0)
(1.0126124 0.00084652793 0)
(1.0122042 0.00049949839 0)
(1.0118959 0.00016181167 0)
(1.0171232 0.0022754028 0)
(1.0164871 0.0022294328 0)
(1.0159369 0.0021017469 0)
(1.0152653 0.0019772629 0)
(1.0146509 0.001845479 0)
(1.0140004 0.0016924481 0)
(1.0134046 0.0014662751 0)
(1.0128437 0.0011630013 0)
(1.0123667 0.0008177376 0)
(1.0119821 0.00047862966 0)
(1.0116952 0.00015741877 0)
(1.017463 0.0023347124 0)
(1.016895 0.0023524393 0)
(1.0163272 0.0022568093 0)
(1.0156582 0.0021625114 0)
(1.0150409 0.0020649697 0)
(1.0143653 0.0019490011 0)
(1.0137329 0.0017520818 0)
(1.0131234 0.0014690079 0)
(1.0125886 0.0011264837 0)
(1.0121368 0.00078412712 0)
(1.0117773 0.00046411532 0)
(1.0115055 0.00015590152 0)
(1.0178018 0.0023615214 0)
(1.0173237 0.0024630658 0)
(1.0167131 0.002404937 0)
(1.0160469 0.0023318883 0)
(1.0154421 0.0022670705 0)
(1.0147549 0.002192488 0)
(1.0140927 0.0020275177 0)
(1.0134405 0.001766158 0)
(1.0128586 0.0014301919 0)
(1.0123467 0.0010812783 0)
(1.0119245 0.00075977015 0)
(1.0115843 0.00045826586 0)
(1.0113234 0.00015556388 0)
(1.0181079 0.0023809052 0)
(1.0177006 0.0025718892 0)
(1.0170409 0.0025653528 0)
(1.0164105 0.0024860068 0)
(1.0158423 0.0024485062 0)
(1.0151642 0.0024210699 0)
(1.0144781 0.0022940513 0)
(1.0137862 0.0020567173 0)
(1.0131641 0.0017291912 0)
(1.012601 0.0013762126 0)
(1.0121233 0.0010484329 0)
(1.0117241 0.00074911079 0)
(1.0113996 0.00045693 0)
(1.0111482 0.0001538356 0)
(1.0184181 0.0023607754 0)
(1.0180179 0.0027329183 0)
(1.0172946 0.0027491688 0)
(1.0167357 0.0026246603 0)
(1.0162301 0.0025999679 0)
(1.0155923 0.0026282301 0)
(1.0148865 0.0025524969 0)
(1.0141538 0.0023430453 0)
(1.0134955 0.0020243525 0)
(1.0128899 0.0016698872 0)
(1.0123632 0.0013356782 0)
(1.0119116 0.0010339747 0)
(1.0115323 0.00074642535 0)
(1.0112218 0.00045267134 0)
(1.0109824 0.00014863758 0)
(1.018735 0.0023931219 0)
(1.0183182 0.0028743493 0)
(1.0175622 0.0029174218 0)
(1.0170506 0.0027273053 0)
(1.0166308 0.0027079331 0)
(1.0160501 0.0028022546 0)
(1.0153193 0.0028031659 0)
(1.0145389 0.0026285907 0)
(1.0138445 0.0023170309 0)
(1.0132041 0.0019623702 0)
(1.012636 0.0016234176 0)
(1.0121366 0.0013176976 0)
(1.0117088 0.0010297674 0)
(1.0113481 0.00074012427 0)
(1.0110528 0.00043882636 0)
(1.0108298 0.00013920747 0)
(1.0190837 0.0023016275 0)
(1.0186069 0.0031103254 0)
(1.0177491 0.0030586968 0)
(1.0173873 0.0027782561 0)
(1.0170583 0.0027320505 0)
(1.0165466 0.0029388047 0)
(1.0157816 0.0030514618 0)
(1.0149392 0.0029206525 0)
(1.0142012 0.0026097664 0)
(1.0135346 0.0022532503 0)
(1.0129335 0.0019124635 0)
(1.0123919 0.001603051 0)
(1.0119194 0.0013122452 0)
(1.0115142 0.0010206078 0)
(1.011173 0.00071890419 0)
(1.0108966 0.00041236244 0)
(1.0106942 0.0001263147 0)
(1.019404 0.0024840749 0)
(1.0188657 0.003280246 0)
(1.0178772 0.0031990377 0)
(1.0176503 0.002766572 0)
(1.0174822 0.0027124853 0)
(1.017078 0.0030173149 0)
(1.0162887 0.0032982074 0)
(1.0153513 0.0032295058 0)
(1.0145538 0.0029078882 0)
(1.0138717 0.0025416101 0)
(1.0132478 0.0022019948 0)
(1.0126699 0.0018924942 0)
(1.0121566 0.0015974009 0)
(1.0117104 0.0012998047 0)
(1.0113298 0.00099240756 0)
(1.0110104 0.00067659614 0)
(1.0107574 0.00037492426 0)
(1.0105773 0.00011189727 0)
(1.0198258 0.0021644357 0)
(1.0191687 0.003752794 0)
(1.0178284 0.0033823666 0)
(1.0177885 0.0027331271 0)
(1.0179736 0.0026156501 0)
(1.0176091 0.0030735862 0)
(1.0168263 0.0035633815 0)
(1.0157639 0.0035724022 0)
(1.0148924 0.0032178762 0)
(1.014205 0.0028255503 0)
(1.0135714 0.0024893414 0)
(1.0129649 0.0021866239 0)
(1.0124131 0.0018894456 0)
(1.0119281 0.0015827786 0)
(1.0115119 0.0012632624 0)
(1.0111587 0.0009367505 0)
(1.0108645 0.00061507032 0)
(1.0106376 0.00033198391 0)
(1.0104787 9.8248897e-05 0)
(1.0200421 0.0027441587 0)
(1.0193117 0.0039620732 0)
(1.0176122 0.0035534957 0)
(1.0177777 0.0026021887 0)
(1.018414 0.0024140265 0)
(1.0182407 0.0031010433 0)
(1.0173644 0.0038547076 0)
(1.016159 0.0039785331 0)
(1.0151937 0.0035538896 0)
(1.0145175 0.0031009319 0)
(1.0138971 0.0027686298 0)
(1.0132733 0.0024839122 0)
(1.0126843 0.0021911093 0)
(1.0121597 0.0018749907 0)
(1.0117102 0.0015389332 0)
(1.011328 0.0011936691 0)
(1.0110043 0.00085295186 0)
(1.0107393 0.00054350301 0)
(1.0105369 0.0002903447 0)
(1.0103956 8.7119272e-05 0)
(1.0203673 0.0019734268 0)
(1.0196247 0.0048860438 0)
(1.0171189 0.0039367562 0)
(1.017591 0.002342513 0)
(1.0189237 0.0020023153 0)
(1.0190215 0.0031049017 0)
(1.0179548 0.0041813017 0)
(1.0165012 0.0044650948 0)
(1.0154302 0.0039278773 0)
(1.0147879 0.0033680936 0)
(1.0142155 0.0030303726 0)
(1.0135931 0.0027792566 0)
(1.0129685 0.0025035967 0)
(1.0124005 0.002181404 0)
(1.0119159 0.0018251966 0)
(1.0115075 0.0014553813 0)
(1.0111628 0.0010900483 0)
(1.0108706 0.00075067752 0)
(1.0106356 0.00047350183 0)
(1.0104529 0.0002552963 0)
(1.0103245 7.918552e-05 0)
(1.0200904 0.0031445024 0)
(1.0194684 0.0051438255 0)
(1.0164601 0.0041212577 0)
(1.0171816 0.0020665238 0)
(1.0194074 0.0014439352 0)
(1.0200153 0.0029930685 0)
(1.0186714 0.0046049187 0)
(1.0167981 0.0050533429 0)
(1.0155439 0.0043532969 0)
(1.0149754 0.0036092343 0)
(1.0145139 0.0032607211 0)
(1.0139238 0.0030638045 0)
(1.013268 0.0028264493 0)
(1.0126486 0.0025065634 0)
(1.0121228 0.0021283063 0)
(1.0116878 0.0017273244 0)
(1.0113258 0.0013305395 0)
(1.0110184 0.00095902319 0)
(1.0107611 0.00064774252 0)
(1.0105511 0.00041357223 0)
(1.0103821 0.00022917969 0)
(1.0102619 7.411895e-05 0)
(1.0198871 0.0018220564 0)
(1.0196494 0.0066017532 0)
(1.0152591 0.0049331967 0)
(1.0164877 0.0013282676 0)
(1.0200053 0.00049454374 0)
(1.0212365 0.0028716003 0)
(1.0195385 0.0051421482 0)
(1.0170316 0.0057995051 0)
(1.0155515 0.0048284602 0)
(1.0150929 0.0038337007 0)
(1.0147662 0.0034226902 0)
(1.0142679 0.0033185311 0)
(1.0135919 0.0031561039 0)
(1.012907 0.0028561633 0)
(1.0123264 0.0024549323 0)
(1.0118609 0.0020155928 0)
(1.011484 0.0015790374 0)
(1.0111683 0.0011698633 0)
(1.0109002 0.00082209318 0)
(1.010674 0.00055908661 0)
(1.0104816 0.00036705031 0)
(1.0103214 0.00021163955 0)
(1.0102051 7.1067512e-05 0)
(1.0190572 0.0036308561 0)
(1.0183452 0.0068948754 0)
(1.014149 0.0050539483 0)
(1.0153893 0.001023785 0)
(1.0204361 -0.00067097122 0)
(1.0227818 0.0024406327 0)
(1.0206223 0.0058965203 0)
(1.0171852 0.0067767019 0)
(1.0153247 0.0053926492 0)
(1.0150478 0.0039702991 0)
(1.0150361 0.0035211089 0)
(1.0146448 0.003515248 0)
(1.0139575 0.0034816086 0)
(1.0131856 0.003235986 0)
(1.0125251 0.0028150101 0)
(1.0120189 0.0023268066 0)
(1.0116282 0.0018403851 0)
(1.0113096 0.0013861362 0)
(1.0110396 0.0009964624 0)
(1.0108077 0.00070081032 0)
(1.010605 0.0004907015 0)
(1.0104235 0.00033336067 0)
(1.0102682 0.00020074175 0)
(1.0101524 6.9108058e-05 0)
(1.0194173 0.0023312613 0)
(1.0161204 0.0088768667 0)
(1.0110665 0.0066855627 0)
(1.0139038 -0.000611037 0)
(1.0212717 -0.0023965585 0)
(1.0246642 0.0021828159 0)
(1.0219296 0.0068295957 0)
(1.0172415 0.0080866455 0)
(1.0148075 0.0060496682 0)
(1.0148022 0.0040273136 0)
(1.0153142 0.0034235582 0)
(1.0150837 0.0036065855 0)
(1.0144049 0.0037946804 0)
(1.0135034 0.0036544018 0)
(1.0127213 0.0032217205 0)
(1.0121544 0.0026706028 0)
(1.0117484 0.0021191686 0)
(1.0114325 0.0016103744 0)
(1.0111682 0.00117341 0)
(1.0109408 0.00083997689 0)
(1.0107369 0.00060431262 0)
(1.0105499 0.00044067529 0)
(1.0103741 0.00031045436 0)
(1.0102201 0.00019405773 0)
(1.0101029 6.7442589e-05 0)
(1.0184557 0.0044441826 0)
(1.0165285 0.0096486621 0)
(1.0078061 0.0063097314 0)
(1.0115638 -0.00079241887 0)
(1.0214423 -0.0044534672 0)
(1.0270873 0.0011321641 0)
(1.0235816 0.0082100365 0)
(1.0171255 0.0098159612 0)
(1.0138913 0.0069042867 0)
(1.0142589 0.0039140354 0)
(1.015523 0.003122561 0)
(1.0156659 0.003591262 0)
(1.0149422 0.0040527605 0)
(1.0138972 0.0041253144 0)
(1.0129217 0.0036977118 0)
(1.0122584 0.0030598812 0)
(1.0118332 0.0024206782 0)
(1.011527 0.001844535 0)
(1.0112765 0.0013545905 0)
(1.0110612 0.00097891034 0)
(1.0108667 0.00071234552 0)
(1.0106837 0.00053157981 0)
(1.0105054 0.00040380215 0)
(1.0103316 0.00029605936 0)
(1.0101756 0.00018927705 0)
(1.0100564 6.5484711e-05 0)
(1.0133172 0.0030573144 0)
(1.0160625 0.012237785 0)
(1.0053516 0.0085799482 0)
(1.0088806 -0.0036251485 0)
(1.022483 -0.0071726885 0)
(1.0295518 0.00077241897 0)
(1.0254522 0.0097108562 0)
(1.0168334 0.012069044 0)
(1.0124776 0.0079138401 0)
(1.0133123 0.0036682196 0)
(1.0156402 0.0024703376 0)
(1.0164372 0.0034181056 0)
(1.0156129 0.0043159338 0)
(1.0143594 0.0046671567 0)
(1.0131365 0.0042750925 0)
(1.0123207 0.0035171786 0)
(1.0118673 0.0027508629 0)
(1.0115818 0.0020880164 0)
(1.0113564 0.001540295 0)
(1.0111603 0.0011195129 0)
(1.0109821 0.00081754951 0)
(1.010813 0.00061244335 0)
(1.0106444 0.00047694309 0)
(1.0104694 0.00037602208 0)
(1.0102948 0.00028694222 0)
(1.0101339 0.00018432943 0)
(1.0100128 6.2911943e-05 0)
(1.0011198 0.0060226926 0)
(1.0044949 0.012627907 0)
(1.0029655 0.0086369838 0)
(1.0059846 -0.0042740573 0)
(1.0223622 -0.010180835 0)
(1.0319753 -0.0013538095 0)
(1.0277684 0.012236377 0)
(1.016109 0.015005492 0)
(1.0103639 0.0092377037 0)
(1.0118643 0.0031334959 0)
(1.0156458 0.0014385164 0)
(1.0174113 0.002926875 0)
(1.0165756 0.0045902354 0)
(1.0148953 0.0053139782 0)
(1.0133458 0.0050077851 0)
(1.0123199 0.0040723345 0)
(1.0118299 0.0031185417 0)
(1.0115824 0.0023379721 0)
(1.0113999 0.0017266212 0)
(1.0112319 0.0012622533 0)
(1.0110748 0.00092290709 0)
(1.0109261 0.0006872138 0)
(1.0107767 0.00053406502 0)
(1.0106163 0.00043386187 0)
(1.0104413 0.00035500983 0)
(1.0102624 0.00027816934 0)
(1.0100952 0.00017739028 0)
(1.0099727 5.9625635e-05 0)
(0.98824714 0.0059266437 0)
(0.98732363 0.016258902 0)
(0.98958368 0.011510575 0)
(1.002854 -0.0082705252 0)
(1.0237413 -0.014119358 0)
(1.0350065 -0.0014073305 0)
(1.0296663 0.014584912 0)
(1.015098 0.018669573 0)
(1.0074093 0.010868453 0)
(1.0097188 0.0023961422 0)
(1.0154927 -0.000247039 0)
(1.0186702 0.0020981368 0)
(1.0179261 0.0048132031 0)
(1.0156528 0.0061297316 0)
(1.0135159 0.0059256282 0)
(1.0122299 0.0047728194 0)
(1.0116841 0.0035328122 0)
(1.0115088 0.0025875843 0)
(1.0113988 0.0019047837 0)
(1.0112733 0.0014032435 0)
(1.0111403 0.0010304494 0)
(1.0110139 0.00076066148 0)
(1.0108902 0.00058049516 0)
(1.0107554 0.00046933145 0)
(1.0105984 0.00039673463 0)
(1.0104203 0.00033668682 0)
(1.0102335 0.00026487584 0)
(1.0100603 0.00016750561 0)
(1.0099365 5.5797107e-05 0)
(0.97424677 0.008544574 0)
(0.9725895 0.017794248 0)
(0.97454918 0.010110144 0)
(0.99496639 -0.0087094442 0)
(1.0240251 -0.018140901 0)
(1.0397951 -0.004178562 0)
(1.0308175 0.018721915 0)
(1.012703 0.023393967 0)
(1.0032386 0.012881597 0)
(1.0067774 0.0011975732 0)
(1.0151217 -0.0025068682 0)
(1.0202817 0.00065432123 0)
(1.019802 0.00501535 0)
(1.016717 0.0071808054 0)
(1.0137026 0.0071191014 0)
(1.011987 0.0056490036 0)
(1.0113898 0.0040102731 0)
(1.0113301 0.0028252393 0)
(1.011342 0.0020571682 0)
(1.0112843 0.0015323878 0)
(1.01118 0.0011390996 0)
(1.0110729 0.00083737618 0)
(1.0109748 0.00062304769 0)
(1.010873 0.00048850029 0)
(1.010748 0.00041086115 0)
(1.0105901 0.00036124797 0)
(1.0104056 0.0003154653 0)
(1.0102085 0.00024558555 0)
(1.0100297 0.00015550314 0)
(1.0099043 5.1929387e-05 0)
(0.95826091 0.0094037473 -6.3923325e-25)
(0.95648793 0.020117407 0)
(0.96103322 0.011767513 0)
(0.98649402 -0.015079668 0)
(1.0235259 -0.023299967 0)
(1.0426935 -0.0045466931 0)
(1.0345833 0.021645315 0)
(1.0090776 0.028861764 0)
(0.99756734 0.015452458 0)
(1.0027052 -0.00036257192 0)
(1.0145591 -0.0058274419 0)
(1.0223624 -0.0013251726 0)
(1.0223294 0.0050280741 0)
(1.0182134 0.0085814368 0)
(1.0139194 0.0087129266 0)
(1.0115212 0.0067694015 0)
(1.0108834 0.0045677138 0)
(1.0110007 0.0030284004 0)
(1.011215 0.0021560867 0)
(1.0112681 0.0016301155 0)
(1.0112015 0.0012429353 0)
(1.0111059 0.0009209972 0)
(1.0110261 0.00066925508 0)
(1.0109569 0.00049971767 0)
(1.0108733 0.00040323326 0)
(1.0107529 0.00035449071 0)
(1.0105907 0.00032474212 0)
(1.0103964 0.00028791127 0)
(1.0101885 0.00022354398 0)
(1.0100034 0.00014351773 0)
(1.0098755 4.869065e-05 0)
(0.93997007 0.011690433 8.645067e-25)
(0.93912403 0.022290297 6.6726312e-25)
(0.94674245 0.0095971721 0)
(0.97675318 -0.018544511 0)
(1.0209526 -0.028269243 0)
(1.0429829 -0.010170372 0)
(1.0424282 0.028347466 0)
(1.0070459 0.034954973 0)
(0.9902338 0.018094456 0)
(0.99751332 -0.0025892553 0)
(1.0136423 -0.010000212 0)
(1.0250086 -0.0043264858 0)
(1.0257305 0.0050268538 0)
(1.0202501 0.010371283 0)
(1.0141925 0.010878452 0)
(1.0107669 0.0082304101 0)
(1.0100444 0.0052160853 0)
(1.0104673 0.003171136 0)
(1.0109971 0.0021576158 0)
(1.0112317 0.0016649185 0)
(1.0112204 0.0013286051 0)
(1.0111249 0.001013165 0)
(1.0110459 0.00072799575 0)
(1.0110004 0.00051309767 0)
(1.0109599 0.000382431 0)
(1.0108893 0.00031985929 0)
(1.0107694 0.00029575899 0)
(1.0105998 0.00028196735 0)
(1.0103921 0.00025351255 0)
(1.0101734 0.0002024287 0)
(1.0099808 0.00013353735 0)
(1.0098494 4.666667e-05 0)
(0.92002219 0.013430939 -8.6791569e-25)
(0.9198329 0.024747628 7.0675682e-25)
(0.92939704 0.0098793001 0)
(0.9667662 -0.024665886 0)
(1.0137523 -0.033687646 0)
(1.0401901 -0.0091795498 0)
(1.0423921 0.03146307 0)
(1.0101572 0.043486929 0)
(0.98256064 0.021510732 0)
(0.99075748 -0.0056529423 0)
(1.0125938 -0.015742785 0)
(1.0282961 -0.0080824113 0)
(1.0301327 0.0046036223 0)
(1.0230195 0.012774403 0)
(1.0145139 0.0137798 0)
(1.0096244 0.010195626 0)
(1.0087396 0.0059564105 0)
(1.009642 0.0032205906 0)
(1.0106582 0.001996764 0)
(1.0111862 0.0015871312 0)
(1.0112636 0.0013742328 0)
(1.0111512 0.0011128992 0)
(1.0110446 0.00080968696 0)
(1.0110017 0.00054255874 0)
(1.0109975 0.00036010194 0)
(1.0109827 0.00026458879 0)
(1.0109214 0.00023092809 0)
(1.0107988 0.000229741 0)
(1.0106167 0.00023302224 0)
(1.0103935 0.00021933703 0)
(1.0101626 0.00018456885 0)
(1.0099608 0.0001270508 0)
(1.009825 4.6258865e-05 0)
(0.89969835 0.015413893 0)
(0.89977772 0.027226597 -7.0788802e-25)
(0.91073371 0.0085984181 0)
(0.952102 -0.029809769 0)
(1.0046995 -0.037368708 0)
(1.0309732 -0.011897195 0)
(1.0261577 0.038684211 0)
(1.0024694 0.053028834 0)
(0.97333266 0.025649998 0)
(0.98284693 -0.0091945006 0)
(1.0109626 -0.022557033 0)
(1.0323873 -0.013368908 0)
(1.0358218 0.0042269283 0)
(1.0266101 0.015757629 0)
(1.0149272 0.017658788 0)
(1.0079686 0.01278204 0)
(1.0068097 0.0068647759 0)
(1.0083995 0.0030870443 0)
(1.0101622 0.0016009221 0)
(1.0111427 0.0013369758 0)
(1.0113496 0.0013371865 0)
(1.011216 0.0012147464 0)
(1.0110423 0.00092956233 0)
(1.010965 0.00060712468 0)
(1.0109787 0.00035276103 0)
(1.011019 0.00020069427 0)
(1.0110274 0.00013713672 0)
(1.0109709 0.00013359009 0)
(1.010839 0.00015936354 0)
(1.0106403 0.00018375143 0)
(1.0103999 0.00018992354 0)
(1.0101548 0.00017233892 0)
(1.0099424 0.00012516971 0)
(1.0098014 4.7679791e-05 0)
(0.87926482 0.017276615 -1.812796e-27)
(0.88017117 0.02961963 0)
(0.89147124 0.0078777857 -3.1052236e-23)
(0.93492637 -0.035324338 0)
(0.99155791 -0.0428813 0)
(1.0194512 -0.0089783379 0)
(1.0073022 0.045135801 0)
(0.97736434 0.062937896 0)
(0.95951075 0.032560205 0)
(0.97242135 -0.014291358 0)
(1.0090958 -0.031354708 0)
(1.0370906 -0.019451229 0)
(1.0427467 0.0031194752 0)
(1.0312689 0.019744441 0)
(1.0153393 0.022756745 0)
(1.0056182 0.016232396 0)
(1.0040628 0.0079210605 0)
(1.0065929 0.0027312483 0)
(1.0094505 0.00083586369 0)
(1.0111208 0.00080840244 0)
(1.0115641 0.001204493 0)
(1.0113508 0.0013125739 0)
(1.0110698 0.0011019406 0)
(1.0109038 0.00073287003 0)
(1.0109002 0.00038375232 0)
(1.0109846 0.00014480898 0)
(1.0110698 2.4403035e-05 0)
(1.0110964 -8.6267603e-07 0)
(1.0110359 3.3077665e-05 0)
(1.0108887 8.9540896e-05 0)
(1.0106701 0.00014015694 0)
(1.0104107 0.00016813751 0)
(1.0101493 0.00016772208 0)
(1.0099253 0.0001284138 0)
(1.0097775 5.1039657e-05 0)
(0.8597484 0.018886254 -1.0356025e-23)
(0.86150254 0.031876469 7.2798268e-24)
(0.87269035 0.0067400595 3.1048368e-23)
(0.9162701 -0.041125764 5.3753168e-23)
(0.9748214 -0.047814372 -9.1114661e-23)
(1.0053507 -0.0097625669 0)
(0.99095362 0.055173057 0)
(0.9558518 0.071458795 0)
(0.94167536 0.037040964 0)
(0.95995249 -0.018804596 0)
(1.0059131 -0.041196023 0)
(1.0424068 -0.027516573 0)
(1.0508163 0.0022050671 0)
(1.0368007 0.024528892 0)
(1.0157995 0.029340307 0)
(1.0023654 0.020706958 0)
(1.0002294 0.0092610785 0)
(1.0040466 0.0019909778 0)
(1.0084569 -0.0004055348 0)
(1.0111433 -0.0001325051 0)
(1.0119702 0.00086072698 0)
(1.011662 0.001394276 0)
(1.011182 0.0013461256 0)
(1.010841 0.00094878665 0)
(1.0107638 0.00048451921 0)
(1.0108682 0.00012120652 0)
(1.0110291 -9.1682688e-05 0)
(1.0111538 -0.00016661906 0)
(1.0111882 -0.00014230579 0)
(1.0111156 -6.5265721e-05 0)
(1.0109469 2.6964919e-05 0)
(1.0107045 0.00010740103 0)
(1.0104243 0.00015711925 0)
(1.0101461 0.0001703409 0)
(1.009908 0.00013703702 0)
(1.0097523 5.6293373e-05 0)
(0.84229386 0.020166592 1.4895331e-23)
(0.84475134 0.033808628 -1.4225343e-23)
(0.85516239 0.0057128747 0)
(0.89678095 -0.046854226 -5.3174911e-24)
(0.95530273 -0.052684209 9.0662336e-23)
(0.98871439 -0.010871252 1.6526358e-22)
(0.97342425 0.063300955 8.4460653e-23)
(0.93749237 0.079138321 0)
(0.92465254 0.041717243 0)
(0.94826071 -0.026318451 0)
(1.0021864 -0.053740891 0)
(1.0484203 -0.035951501 0)
(1.0599313 0.00032297066 0)
(1.0429824 0.030990428 0)
(1.0157682 0.037764889 0)
(0.99792653 0.026465002 0)
(0.99504026 0.010811582 0)
(1.000557 0.00086562333 0)
(1.0070823 -0.0023657717 0)
(1.0112365 -0.0016154969 0)
(1.0126496 0.00021116766 0)
(1.0122782 0.0014471319 0)
(1.0114224 0.0016527405 0)
(1.010826 0.0013044846 0)
(1.0105765 0.00069560042 0)
(1.0106582 0.00016143339 0)
(1.0108863 -0.00019043326 0)
(1.0111196 -0.0003523613 0)
(1.0112703 -0.00036284525 0)
(1.0113007 -0.00027998333 0)
(1.0112082 -0.00015402668 0)
(1.0110116 -2.1628692e-05 0)
(1.0107425 8.8454348e-05 0)
(1.0104374 0.00015826219 0)
(1.0101414 0.00018284735 0)
(1.0098895 0.00015120702 0)
(1.0097252 6.3252089e-05 0)
(0.82810864 0.021173811 -7.7196357e-25)
(0.83070258 0.035360107 2.5622645e-24)
(0.83964983 0.0046151582 -2.2561946e-23)
(0.8776044 -0.05221352 -2.8848381e-23)
(0.93422845 -0.057909308 -5.0022695e-23)
(0.96850517 -0.010563834 1.9681759e-22)
(0.9563517 0.069554344 1.8017358e-22)
(0.91887527 0.088694416 -2.5021028e-23)
(0.90787584 0.040945681 0)
(0.93589488 -0.033556497 0)
(0.99931009 -0.067849811 0)
(1.0563838 -0.048474505 0)
(1.0719998 -0.00076665553 0)
(1.0494035 0.038570316 0)
(1.0146037 0.048268767 0)
(0.99182811 0.03379252 0)
(0.98808605 0.012726065 0)
(0.99589967 -0.00094658829 0)
(1.0052449 -0.0051288208 0)
(1.0114169 -0.0038882091 0)
(1.0137144 -0.00084897393 0)
(1.0133051 0.0014070156 0)
(1.0119403 0.0021206719 0)
(1.0108725 0.0018205304 0)
(1.0103667 0.0010815104 0)
(1.010345 0.0003107972 0)
(1.0106189 -0.00024352372 0)
(1.0109687 -0.0005420587 0)
(1.0112575 -0.00062238977 0)
(1.0114176 -0.00055482637 0)
(1.0114316 -0.000405341 0)
(1.0113104 -0.00022544371 0)
(1.0110815 -5.2611462e-05 0)
(1.0107817 8.5539158e-05 0)
(1.0104522 0.0001736115 0)
(1.0101356 0.00020518191 0)
(1.009869 0.00017048032 0)
(1.0096956 7.1610199e-05 0)
(0.81725828 0.021762218 -4.3243055e-24)
(0.81999414 0.036450731 5.652049e-25)
(0.82718619 0.0036549894 0)
(0.8592639 -0.057136902 2.8533554e-23)
(0.9120707 -0.062642893 -7.7846491e-23)
(0.94732804 -0.011417551 0)
(0.93608581 0.077906079 -3.7821568e-22)
(0.90222264 0.097129845 -3.8586254e-22)
(0.88949482 0.047063706 0)
(0.92536797 -0.044711238 0)
(0.9957168 -0.08319703 0)
(1.0645791 -0.059512006 0)
(1.0889642 -0.0050345748 0)
(1.0603319 0.048260094 0)
(1.012636 0.061224141 0)
(0.98326984 0.042554052 0)
(0.97907887 0.014971175 0)
(0.98976807 -0.0034161084 0)
(1.0028314 -0.0091093851 0)
(1.0117169 -0.0070621422 0)
(1.0152955 -0.0025255069 0)
(1.0149116 0.001247978 0)
(1.0128772 0.0027608779 0)
(1.0110676 0.0026077208 0)
(1.0101306 0.0017003318 0)
(1.0099219 0.00062410287 0)
(1.010203 -0.00021209252 0)
(1.0106717 -0.00071466872 0)
(1.0111213 -0.00091115319 0)
(1.011441 -0.00088746918 0)
(1.0115924 -0.00073074056 0)
(1.0115772 -0.00050913022 0)
(1.0114195 -0.00027455011 0)
(1.0111536 -6.3340489e-05 0)
(1.0108203 9.9379821e-05 0)
(1.0104651 0.00020230766 0)
(1.0101276 0.00023599971 0)
(1.0098458 0.00019413787 0)
(1.0096631 8.1029793e-05 0)
(0.81111969 0.02188344 0)
(0.8134769 0.037063983 0)
(0.81812062 0.0026229388 -5.8573072e-25)
(0.8435449 -0.061302014 0)
(0.88942384 -0.067070876 -4.2731052e-25)
(0.92432693 -0.011709703 2.0589613e-22)
(0.91633027 0.084989839 6.7807378e-22)
(0.88416219 0.10635691 -4.503453e-23)
(0.87291389 0.052720925 0)
(0.90864292 -0.052830384 0)
(0.99264157 -0.098233848 0)
(1.0669319 -0.076015608 0)
(1.0974049 -0.0077094607 0)
(1.0780949 0.057901873 0)
(1.0153949 0.07615794 0)
(0.97259326 0.053216246 0)
(0.96732967 0.017374893 0)
(0.98203017 -0.0069364681 0)
(0.99971567 -0.014283448 0)
(1.0121558 -0.011578798 0)
(1.017536 -0.0048949744 0)
(1.0172903 0.00084025747 0)
(1.0144056 0.003634004 0)
(1.0115414 0.0037757998 0)
(1.0098686 0.0026391429 0)
(1.0093848 0.001192724 0)
(1.0096045 -5.5722666e-05 0)
(1.0101936 -0.00084804103 0)
(1.0108292 -0.0012192336 0)
(1.0113422 -0.0012754207 0)
(1.0116653 -0.0011316245 0)
(1.0117891 -0.00087887101 0)
(1.0117335 -0.00058468961 0)
(1.0115325 -0.00029816868 0)
(1.0112258 -5.2763749e-05 0)
(1.0108584 0.00013117801 0)
(1.0104754 0.00024301427 0)
(1.0101164 0.00027445193 0)
(1.0098194 0.00022136338 0)
(1.0096274 9.1130949e-05 0)
(0.81137196 0.037211049 -6.0882644e-25)
(0.81032259 0.021674291 0)
(0.81292977 0.0018783784 -9.157032e-24)
(0.83093746 -0.064660522 1.0683653e-24)
(0.86819102 -0.070842348 -3.9766658e-23)
(0.90075818 -0.012092488 2.5718482e-24)
(0.89515643 0.092274609 5.153039e-24)
(0.86707531 0.11511072 -2.3382706e-22)
(0.85621332 0.059032968 -1.8020927e-23)
(0.89133504 -0.057632189 0)
(0.98084586 -0.11506137 -5.6056509e-22)
(1.0657165 -0.083546729 0)
(1.0980106 -0.016862919 0)
(1.0956328 0.071031241 0)
(1.0233816 0.093785774 0)
(0.96330726 0.065654076 0)
(0.95266131 0.020166492 0)
(0.97219524 -0.011640158 0)
(0.99589787 -0.021265504 0)
(1.0127501 -0.017373043 0)
(1.0205952 -0.0083703645 0)
(1.020689 0.00020728118 0)
(1.0167202 0.0047326972 0)
(1.0124205 0.0054653414 0)
(1.0096521 0.0040568684 0)
(1.0086586 0.0020709615 0)
(1.0087976 0.00030660579 0)
(1.0094898 -0.00090396717 0)
(1.0103413 -0.001535982 0)
(1.0110889 -0.0017184267 0)
(1.0116235 -0.0016115533 0)
(1.0119222 -0.0013393951 0)
(1.0120018 -0.00099074653 0)
(1.0118962 -0.00062786632 0)
(1.0116466 -0.00029486754 0)
(1.0112964 -2.0454643e-05 0)
(1.0108938 0.00017976112 0)
(1.0104824 0.00029441557 0)
(1.0101017 0.00031852263 0)
(1.0097898 0.00025086313 0)
(1.0095887 0.00010157774 0)
(0.81141135 0.0014841183 8.2185222e-24)
(0.81482337 0.037093538 0)
(0.81568643 0.020975448 7.9993071e-25)
(0.81988845 -0.067053601 -1.0675724e-24)
(0.84950461 -0.073709248 1.9515719e-23)
(0.87778857 -0.01247473 3.5131258e-22)
(0.87463212 0.098739554 -6.2425861e-22)
(0.85056105 0.12335904 -1.027918e-22)
(0.84090578 0.065161089 -4.9602744e-23)
(0.87367134 -0.063826181 2.5425163e-23)
(0.96362684 -0.12960904 -6.0616484e-22)
(1.0562432 -0.10060201 5.8411901e-22)
(1.0951118 -0.01524732 0)
(1.0925974 0.081286846 0)
(1.0264283 0.11693456 0)
(0.95491718 0.081976071 0)
(0.93535137 0.022720218 0)
(0.96044321 -0.017691592 0)
(0.99108775 -0.029888696 0)
(1.01358 -0.025184711 0)
(1.0246119 -0.012845367 0)
(1.0253564 -0.00096751258 0)
(1.0201061 0.0062143992 0)
(1.0138404 0.0078143188 0)
(1.0095284 0.0061443651 0)
(1.0077117 0.0034021993 0)
(1.0077004 0.00093745856 0)
(1.0084984 -0.00086245838 0)
(1.0096091 -0.0018479183 0)
(1.0106428 -0.0022171653 0)
(1.0114379 -0.0021773236 0)
(1.0119526 -0.0018986365 0)
(1.0122026 -0.0015000991 0)
(1.0122244 -0.0010614697 0)
(1.0120612 -0.00063697184 0)
(1.0117589 -0.00026443184 0)
(1.0113641 3.3225497e-05 0)
(1.0109251 0.00024257501 0)
(1.0104852 0.00035459032 0)
(1.0100832 0.00036667868 0)
(1.0097567 0.00028194975 0)
(1.0095469 0.00011211148 0)
(0.81319852 -0.068251589 4.9509999e-24)
(0.81632277 0.0013209262 2.363784e-23)
(0.82475913 0.036465797 0)
(0.82477786 0.019841103 2.3488379e-25)
(0.8315781 -0.075880164 -1.2164021e-23)
(0.85683451 -0.012644017 -1.5481086e-22)
(0.85544895 0.10429465 0)
(0.83597749 0.13057698 1.0208151e-22)
(0.82784024 0.071127834 -5.2178781e-23)
(0.85649591 -0.069841669 -2.5103048e-23)
(0.9445412 -0.14471819 6.5321786e-22)
(1.040189 -0.1183044 6.3027256e-22)
(1.0851387 -0.020418255 0)
(1.0698355 0.096247482 0)
(1.0093641 0.13984282 0)
(0.94141354 0.10173134 0)
(0.916869 0.027504709 0)
(0.94556044 -0.025950155 0)
(0.98571696 -0.040858166 0)
(1.0145143 -0.034555475 0)
(1.0297556 -0.019118421 0)
(1.0316095 -0.0024663484 0)
(1.0248145 0.0079373738 0)
(1.0160203 0.011047332 0)
(1.0095307 0.0091055094 0)
(1.0065225 0.0053787099 0)
(1.0061793 0.0018949741 0)
(1.0071469 -0.00063668026 0)
(1.0085617 -0.0021540483 0)
(1.0099589 -0.0027862914 0)
(1.0110771 -0.002842976 0)
(1.0118567 -0.002568998 0)
(1.0123158 -0.002123405 0)
(1.0124977 -0.0016081349 0)
(1.0124512 -0.0010893405 0)
(1.012225 -0.00061213246 0)
(1.0118675 -0.00020769894 0)
(1.0114272 0.00010615698 0)
(1.0109515 0.00031739231 0)
(1.0104835 0.00042118471 0)
(1.0100604 0.00041803829 0)
(1.0097202 0.00031370969 0)
(1.0095025 0.00012248351 0)
(0.81895539 -0.077042308 -9.903187e-24)
(0.81331416 -0.068376613 -6.1839385e-24)
(0.82702618 0.0015104694 -2.1053153e-23)
(0.83847391 0.035325733 -1.068461e-23)
(0.83685883 0.018331423 1.7647416e-24)
(0.83758278 -0.012862817 1.4698733e-22)
(0.83904672 0.10877314 8.5874875e-23)
(0.82415497 0.13658525 0)
(0.81758835 0.076359627 5.1599078e-23)
(0.84071228 -0.075514252 3.1744324e-23)
(0.92406191 -0.16025425 0)
(1.0213132 -0.13402361 -8.7627288e-22)
(1.0711226 -0.035579247 0)
(1.051769 0.1110322 0)
(0.98403273 0.16138295 0)
(0.92484833 0.12284322 0)
(0.89853137 0.032367409 0)
(0.92867998 -0.034893714 0)
(0.97895828 -0.053910208 0)
(1.015844 -0.046652718 0)
(1.0360487 -0.026582242 0)
(1.0396689 -0.0050521877 0)
(1.0312732 0.010288433 0)
(1.0191141 0.015326213 0)
(1.0097208 0.013228415 0)
(1.0050202 0.0081928165 0)
(1.0041348 0.0033244709 0)
(1.0052954 -0.00022890551 0)
(1.0071105 -0.0024358629 0)
(1.0089715 -0.0034256432 0)
(1.0105018 -0.0036282694 0)
(1.0116107 -0.0033698398 0)
(1.0123232 -0.0028755107 0)
(1.0126995 -0.0022795241 0)
(1.0127994 -0.0016619699 0)
(1.0126775 -0.0010749054 0)
(1.0123846 -0.00055480132 0)
(1.0119707 -0.0001267455 0)
(1.0114843 0.00019507786 0)
(1.0109723 0.00040161243 0)
(1.0104768 0.00049230748 0)
(1.0100339 0.00047032115 0)
(1.0096807 0.00034520627 0)
(1.0094557 0.00013255579 0)
(0.82251763 -0.013251903 6.709921e-24)
(0.81182689 -0.077046415 8.6981054e-24)
(0.81871988 -0.067545805 3.6998184e-23)
(0.84231874 0.0019255833 1.1071293e-23)
(0.85408193 0.033772961 -3.5528171e-23)
(0.8522903 0.016564985 9.9940617e-25)
(0.82640997 0.11199208 -1.6074697e-22)
(0.8161925 0.14133447 -6.9363379e-23)
(0.81082097 0.080910698 -1.5640408e-22)
(0.8279007 -0.080627999 -5.1165524e-23)
(0.90259184 -0.17517167 -8.1467652e-22)
(0.9986266 -0.15123956 6.2320322e-22)
(1.0539735 -0.044248651 0)
(1.0432207 0.11141768 -1.459489e-21)
(0.96395735 0.18281277 8.6295583e-22)
(0.91020728 0.13598931 0)
(0.88258133 0.041036482 0)
(0.91061484 -0.047461163 0)
(0.97145736 -0.069853121 0)
(1.0172143 -0.060187879 0)
(1.0436766 -0.036750511 0)
(1.0498745 -0.0079381651 0)
(1.0396894 0.012761274 0)
(1.0234667 0.021040381 0)
(1.0101024 0.018797218 0)
(1.0030985 0.01212299 0)
(1.0014316 0.005359135 0)
(1.0027726 0.00040370366 0)
(1.0051486 -0.0026842498 0)
(1.007607 -0.0041947932 0)
(1.0096704 -0.0045728009 0)
(1.01119 -0.0043304502 0)
(1.0122099 -0.0037777225 0)
(1.0128168 -0.003090551 0)
(1.013092 -0.0023662417 0)
(1.013101 -0.001662917 0)
(1.012899 -0.0010202715 0)