/*--------------------------------*- C++ -*----------------------------------*\
| =========                 |                                                 |
| \\      /  F ield         | OpenFOAM: The Open Source CFD Toolbox           |
|  \\    /   O peration     | Version:  5.0                                   |
|   \\  /    A nd           | Web:      www.OpenFOAM.org                      |
|    \\/     M anipulation  |                                                 |
\*---------------------------------------------------------------------------*/
FoamFile
{
    version     2.0;
    format      ascii;
    class       volVectorField;
    location    "320";
    object      UMean;
}
// * * * * * * * * * * * * * * * * * * * * * * * * * * * * * * * * * * * * * //

dimensions      [0 1 -1 0 0 0 0];

internalField   nonuniform List<vector> 
9520
(
(1.0109926 5.9626873e-05 0)
(1.0110827 0.00017456283 0)
(1.0108152 6.0494913e-05 0)
(1.0112427 0.00028178909 0)
(1.0109058 0.00017737799 0)
(1.0107438 6.0847337e-05 0)
(1.0114577 0.0003807704 0)
(1.011067 0.00028684479 0)
(1.0108344 0.00017843476 0)
(1.010629 6.1000289e-05 0)
(1.0117143 0.0004717002 0)
(1.0112844 0.00038853722 0)
(1.0109956 0.00028907655 0)
(1.0107189 0.00017931371 0)
(1.0105404 6.0811405e-05 0)
(1.0120011 0.00055397249 0)
(1.0115452 0.00048276348 0)
(1.0112133 0.0003925355 0)
(1.0108791 0.00029146655 0)
(1.0106295 0.00017896162 0)
(1.0104454 5.9890748e-05 0)
(1.0123074 0.00062729259 0)
(1.0118382 0.00056898269 0)
(1.0114748 0.00048927755 0)
(1.0110959 0.00039757452 0)
(1.0107885 0.00029178869 0)
(1.0105329 0.00017664692 0)
(1.0103594 5.8457447e-05 0)
(1.0126243 0.00069137188 0)
(1.0121534 0.00064692327 0)
(1.0117693 0.00057885065 0)
(1.0113569 0.00049833873 0)
(1.0110037 0.00039975447 0)
(1.0106888 0.00028916499 0)
(1.0104452 0.00017272783 0)
(1.0102783 5.6012952e-05 0)
(1.0129441 0.00074546441 0)
(1.0124823 0.00071610627 0)
(1.0120869 0.0006610797 0)
(1.0116517 0.00059347397 0)
(1.0112632 0.00050384009 0)
(1.0109001 0.00039831455 0)
(1.0105981 0.00028383798 0)
(1.0103616 0.00016585273 0)
(1.010203 5.2850081e-05 0)
(1.01326 0.00079036948 0)
(1.0128168 0.00077600733 0)
(1.012419 0.0007357198 0)
(1.0119707 0.00068287427 0)
(1.0115567 0.00060390347 0)
(1.011155 0.0005054218 0)
(1.0108051 0.00039306214 0)
(1.0105098 0.00027369542 0)
(1.0102838 0.00015679803 0)
(1.0101369 4.8610206e-05 0)
(1.0135669 0.00082301612 0)
(1.013151 0.00082711508 0)
(1.0127581 0.00080188456 0)
(1.0123057 0.00076610965 0)
(1.0118751 0.00069995084 0)
(1.0114437 0.00061065409 0)
(1.0110549 0.00050204653 0)
(1.0107102 0.00038122555 0)
(1.0104272 0.00025985049 0)
(1.0102147 0.00014449629 0)
(1.010077 4.3621342e-05 0)
(1.0138603 0.0008505912 0)
(1.0134793 0.00086674903 0)
(1.0130981 0.00085984628 0)
(1.0126494 0.00084239773 0)
(1.0122102 0.00079163362 0)
(1.0117573 0.00071420121 0)
(1.011338 0.00061121024 0)
(1.0109519 0.0004904539 0)
(1.010621 0.0003640452 0)
(1.0103526 0.0002405106 0)
(1.0101519 0.00012990309 0)
(1.0100279 3.7702304e-05 0)
(1.0141372 0.00086115077 0)
(1.013801 0.00090007006 0)
(1.0134329 0.00090808241 0)
(1.0129959 0.00091215608 0)
(1.0125549 0.00087839967 0)
(1.0120881 0.00081578651 0)
(1.0116457 0.00072094363 0)
(1.0112254 0.00060216088 0)
(1.0108544 0.00047171965 0)
(1.0105382 0.00033898493 0)
(1.0102842 0.00021720285 0)
(1.0101 0.00011244267 0)
(1.0099863 3.1187678e-05 0)
(1.0143948 0.00087632469 0)
(1.0141085 0.00091346182 0)
(1.0137577 0.00095015751 0)
(1.0133419 0.00097296105 0)
(1.0129037 0.00096030439 0)
(1.0124295 0.00091480794 0)
(1.0119704 0.00083115065 0)
(1.0115226 0.00071702462 0)
(1.0111182 0.00058397848 0)
(1.010761 0.00044259739 0)
(1.0104618 0.00030805897 0)
(1.0102267 0.00018887435 0)
(1.0100556 9.3118516e-05 0)
(1.0099555 2.403172e-05 0)
(1.0146313 0.00085347319 0)
(1.0143946 0.00093609997 0)
(1.0140668 0.00097946992 0)
(1.0136842 0.0010275475 0)
(1.0132496 0.0010359949 0)
(1.0127764 0.0010111526 0)
(1.0123057 0.00094151599 0)
(1.0118364 0.00083515203 0)
(1.0114042 0.00070179119 0)
(1.0110118 0.00055282885 0)
(1.0106742 0.00040543532 0)
(1.0103959 0.00026963292 0)
(1.010177 0.00015719526 0)
(1.0100226 7.1763246e-05 0)
(1.0099327 1.6550418e-05 0)
(1.0148441 0.00086690423 0)
(1.0146639 0.00092318466 0)
(1.0143638 0.0010122002 0)
(1.0140102 0.0010671722 0)
(1.0135905 0.0011077924 0)
(1.0131258 0.0011022188 0)
(1.0126456 0.0010516864 0)
(1.0121609 0.00095619709 0)
(1.0117053 0.00082552466 0)
(1.0112827 0.00067099338 0)
(1.0109122 0.00051113825 0)
(1.0105969 0.00035791427 0)
(1.0103382 0.00022603677 0)
(1.0101394 0.00012179159 0)
(1.0099979 4.9331279e-05 0)
(1.0099201 8.7957214e-06 0)
(1.0150311 0.00080289152 0)
(1.0149125 0.00094856723 0)
(1.0146459 0.0010120458 0)
(1.0143188 0.0011121524 0)
(1.013919 0.0011683876 0)
(1.0134701 0.0011914885 0)
(1.0129859 0.0011606363 0)
(1.0124918 0.0010796858 0)
(1.0120155 0.00095508792 0)
(1.0115673 0.00079775338 0)
(1.011168 0.00062680883 0)
(1.0108205 0.00045588544 0)
(1.0105283 0.00030299738 0)
(1.0102933 0.00017657878 0)
(1.0101107 8.4275312e-05 0)
(1.0099841 2.5949259e-05 0)
(1.009915 1.0558912e-06 0)
(1.0151847 0.00083395625 0)
(1.0151336 0.0008958572 0)
(1.0149094 0.0010440778 0)
(1.0146136 0.0011292349 0)
(1.0142345 0.001232246 0)
(1.0138027 0.0012704537 0)
(1.0133243 0.0012691725 0)
(1.0128241 0.0012044355 0)
(1.0123301 0.0010903098 0)
(1.0118605 0.00093321231 0)
(1.0114348 0.00075343805 0)
(1.0110588 0.0005655856 0)
(1.0107381 0.00039055689 0)
(1.0104731 0.00023954877 0)
(1.0102582 0.00012353995 0)
(1.0100941 4.4779016e-05 0)
(1.0099783 2.4939744e-06 0)
(1.0099187 -6.5540388e-06 0)
(1.0153014 0.00071851593 0)
(1.0153203 0.00094071631 0)
(1.0151432 0.0010066485 0)
(1.0148899 0.0011757796 0)
(1.0145395 0.0012692576 0)
(1.0141222 0.001354369 0)
(1.0136535 0.0013703301 0)
(1.0131541 0.0013312724 0)
(1.012646 0.0012301396 0)
(1.0121577 0.0010773049 0)
(1.0117074 0.00089150375 0)
(1.0113057 0.0006884375 0)
(1.0109594 0.00049111775 0)
(1.010669 0.00031347174 0)
(1.0104288 0.00017052162 0)
(1.0102368 6.6990132e-05 0)
(1.0100867 4.7965142e-06 0)
(1.0099823 -2.071377e-05 0)
(1.0099288 -1.3785562e-05 0)
(1.0153468 0.00077728258 0)
(1.0154703 0.00083079886 0)
(1.0153485 0.0010542876 0)
(1.01514 0.0011584384 0)
(1.0148234 0.0013314891 0)
(1.0144339 0.0014143916 0)
(1.0139712 0.0014766362 0)
(1.0134758 0.0014542095 0)
(1.0129604 0.0013748878 0)
(1.0124551 0.0012289964 0)
(1.0119818 0.0010411919 0)
(1.0115563 0.00082528385 0)
(1.0111859 0.00060651135 0)
(1.0108729 0.00040115147 0)
(1.0106122 0.00022821899 0)
(1.0103997 9.5831014e-05 0)
(1.010226 9.0770196e-06 0)
(1.0100905 -3.5181877e-05 0)
(1.0099934 -4.2899283e-05 0)
(1.0099457 -2.0498665e-05 0)
(1.0153257 0.00060774544 0)
(1.0155727 0.00092257064 0)
(1.0155178 0.00096030215 0)
(1.0153603 0.0012171859 0)
(1.0150871 0.0013349181 0)
(1.0147239 0.0014981329 0)
(1.014282 0.0015628268 0)
(1.0137859 0.0015831533 0)
(1.0132677 0.0015195074 0)
(1.0127496 0.0013887018 0)
(1.0122551 0.0012017428 0)
(1.0118065 0.00097653511 0)
(1.0114125 0.00073801606 0)
(1.0110784 0.00050493874 0)
(1.0107998 0.00029980813 0)
(1.010572 0.00013447337 0)
(1.0103831 1.8298973e-05 0)
(1.0102286 -4.9604854e-05 0)
(1.0101029 -7.3812844e-05 0)
(1.0100122 -6.3649069e-05 0)
(1.0099675 -2.6484936e-05 0)
(1.0150786 0.00069567905 0)
(1.0155683 0.00074694603 0)
(1.0156155 0.001049144 0)
(1.015549 0.0011517177 0)
(1.015322 0.0014104531 0)
(1.0149984 0.0015251738 0)
(1.0145772 0.0016712637 0)
(1.0140881 0.0016976435 0)
(1.0135639 0.0016714676 0)
(1.0130371 0.0015519681 0)
(1.0125249 0.0013732444 0)
(1.0120535 0.0011416447 0)
(1.0116358 0.00088643259 0)
(1.0112806 0.00062661882 0)
(1.010985 0.00038812509 0)
(1.0107447 0.00018645279 0)
(1.0105464 3.5710974e-05 0)
(1.0103822 -6.1398424e-05 0)
(1.0102415 -0.00010706963 0)
(1.0101247 -0.00011041808 0)
(1.0100366 -8.2338049e-05 0)
(1.0099937 -3.1624083e-05 0)
(1.0144229 0.00048688086 0)
(1.0154185 0.00087923548 0)
(1.015648 0.00088033512 0)
(1.0156664 0.001245998 0)
(1.0155216 0.0013609564 0)
(1.0152471 0.0016222953 0)
(1.0148551 0.0017269999 0)
(1.0143799 0.001833931 0)
(1.0138499 0.001813754 0)
(1.0133135 0.0017245551 0)
(1.0127876 0.0015517888 0)
(1.0122951 0.0013206444 0)
(1.0118534 0.0010517148 0)
(1.011476 0.00076743133 0)
(1.0111626 0.00049550126 0)
(1.0109105 0.00025513734 0)
(1.0107062 6.5161698e-05 0)
(1.0105391 -6.7325438e-05 0)
(1.0103942 -0.00014061349 0)
(1.0102664 -0.00016239753 0)
(1.0101536 -0.00014388672 0)
(1.0100664 -9.8561737e-05 0)
(1.0100227 -3.5758704e-05 0)
(1.0134216 0.0005465481 0)
(1.0147807 0.00067066401 0)
(1.0154953 0.001024922 0)
(1.0157127 0.0011080348 0)
(1.0156532 0.0014685834 0)
(1.015458 0.0015970896 0)
(1.0151127 0.001850741 0)
(1.0146546 0.001923098 0)
(1.0141291 0.0019778865 0)
(1.0135767 0.0018919847 0)
(1.0130379 0.0017421822 0)
(1.0125286 0.0015101966 0)
(1.0120637 0.0012337308 0)
(1.0116626 0.00092774971 0)
(1.0113295 0.00062375278 0)
(1.0110644 0.00034347554 0)
(1.0108547 0.00011052435 0)
(1.0106885 -6.3323504e-05 0)
(1.0105474 -0.0001713617 0)
(1.010421 -0.00021817866 0)
(1.0103005 -0.00021389706 0)
(1.0101896 -0.0001735391 0)
(1.0100999 -0.00011187544 0)
(1.0100539 -3.8801873e-05 0)
(1.0128861 0.00041895244 0)
(1.0137768 0.00075373756 0)
(1.0149374 0.0008121103 0)
(1.0155894 0.0012584153 0)
(1.0157149 0.001347795 0)
(1.0156109 0.0017227109 0)
(1.0153333 0.0018561866 0)
(1.0149116 0.0020788452 0)
(1.0143918 0.0021007067 0)
(1.0138352 0.0020813341 0)
(1.0132751 0.0019301522 0)
(1.0127482 0.0017137279 0)
(1.0122647 0.0014297626 0)
(1.0118392 0.0011075674 0)
(1.0114838 0.00077383578 0)
(1.011203 0.00045393379 0)
(1.0109864 0.00017536913 0)
(1.0108222 -4.5033264e-05 0)
(1.0106897 -0.00019509227 0)
(1.010574 -0.0002749361 0)
(1.0104599 -0.00029176147 0)
(1.0103443 -0.00026058775 0)
(1.0102308 -0.00019856857 0)
(1.0101363 -0.000121991 0)
(1.010086 -4.0678883e-05 0)
(1.0111385 0.00040918653 0)
(1.0133365 0.00057654454 0)
(1.013914 0.00092386484 0)
(1.0150643 0.0010690173 0)
(1.0156058 0.0015057699 0)
(1.0156882 0.0016257486 0)
(1.0155038 0.0020071685 0)
(1.015133 0.0021228494 0)
(1.0146375 0.0022891084 0)
(1.0140763 0.0022351377 0)
(1.0135074 0.0021405267 0)
(1.0129562 0.0019183384 0)
(1.0124509 0.0016416157 0)
(1.0120047 0.0013049284 0)
(1.0116249 0.00094616311 0)
(1.0113247 0.00058805441 0)
(1.0110978 0.00026287054 0)
(1.010934 -8.2255795e-06 0)
(1.0108117 -0.00020702456 0)
(1.0107127 -0.00032844224 0)
(1.010616 -0.00037506844 0)
(1.0105117 -0.00036003338 0)
(1.0103953 -0.0003012003 0)
(1.0102765 -0.00021844447 0)
(1.0101742 -0.00012865557 0)
(1.0101182 -4.1351598e-05 0)
(1.0056373 0.00025723151 0)
(1.0117758 0.00071880682 0)
(1.0134773 0.00071791435 0)
(1.014043 0.0012124639 0)
(1.015113 0.0013309848 0)
(1.015601 0.0017944404 0)
(1.0155977 0.0019448347 0)
(1.0153106 0.0023082962 0)
(1.014848 0.0023728724 0)
(1.0143025 0.0024521485 0)
(1.0137214 0.0023200767 0)
(1.0131575 0.002145655 0)
(1.012625 0.0018589936 0)
(1.0121541 0.0015206146 0)
(1.0117526 0.0011393847 0)
(1.0114292 0.00074687483 0)
(1.0111874 0.00037531898 0)
(1.0110202 5.1035302e-05 0)
(1.0109066 -0.00020228882 0)
(1.0108268 -0.00037356592 0)
(1.010755 -0.00045967739 0)
(1.0106748 -0.00046999452 0)
(1.0105735 -0.00042115957 0)
(1.0104533 -0.00033491552 0)
(1.010325 -0.00023268307 0)
(1.0102128 -0.00013172728 0)
(1.0101493 -4.0805479e-05 0)
(0.99722694 0.00025806353 0)
(1.0061782 0.00036337282 0)
(1.0121313 0.00090790191 0)
(1.0136002 0.00097319816 0)
(1.014112 0.001495752 0)
(1.0151457 0.0016322487 0)
(1.0155362 0.0021375013 0)
(1.0154101 0.0022935786 0)
(1.0150179 0.0025945187 0)
(1.0144923 0.0025716154 0)
(1.0139225 0.0025598926 0)
(1.0133411 0.0023466769 0)
(1.0127918 0.0020996081 0)
(1.01229 0.0017459284 0)
(1.0118627 0.0013536437 0)
(1.011517 0.0009297723 0)
(1.0112552 0.00051441633 0)
(1.011079 0.00013582997 0)
(1.0109703 -0.0001761874 0)
(1.0109087 -0.00040483501 0)
(1.0108654 -0.00054021893 0)
(1.0108184 -0.00058659971 0)
(1.0107473 -0.0005572631 0)
(1.0106456 -0.00047394746 0)
(1.010516 -0.00036092994 0)
(1.0103755 -0.00024098625 0)
(1.010251 -0.00013115078 0)
(1.0101787 -3.9039717e-05 0)
(0.9878209 0.00013258363 0)
(0.99786509 0.00049107014 0)
(1.0065346 0.00056794775 0)
(1.0124563 0.0012267744 0)
(1.0136423 0.0012277238 0)
(1.0141773 0.0018149558 0)
(1.0151257 0.0019977549 0)
(1.0153652 0.0025213335 0)
(1.0151097 0.0026269357 0)
(1.0146433 0.0028248928 0)
(1.0140874 0.0027078962 0)
(1.0135123 0.0026059787 0)
(1.0129422 0.0023190081 0)
(1.0124181 0.0019961266 0)
(1.0119567 0.0015820298 0)
(1.0115852 0.0011366255 0)
(1.0113022 0.00068047045 0)
(1.0111107 0.00024872357 0)
(1.0110008 -0.0001247694 0)
(1.0109534 -0.00041674389 0)
(1.0109385 -0.00061069379 0)
(1.0109299 -0.00070437155 0)
(1.0109 -0.00070603655 0)
(1.0108339 -0.00063518784 0)
(1.0107251 -0.00051714089 0)
(1.0105828 -0.00037871563 0)
(1.0104266 -0.00024320899 0)
(1.0102879 -0.00012689603 0)
(1.0102056 -3.6074911e-05 0)
(0.97755068 0.00010765388 0)
(0.9884685 0.00028168299 0)
(0.99819726 0.00064061621 0)
(1.007038 0.00087912258 0)
(1.0127466 0.0015287048 0)
(1.0136877 0.0015344902 0)
(1.0141914 0.0022166377 0)
(1.0149894 0.0024283946 0)
(1.015062 0.0028930034 0)
(1.0147172 0.0028938751 0)
(1.0142152 0.0029866756 0)
(1.0136517 0.0027752425 0)
(1.0130822 0.0025942661 0)
(1.012531 0.0022309833 0)
(1.0120416 0.0018371948 0)
(1.0116337 0.0013621506 0)
(1.0113269 0.00087323736 0)
(1.0111168 0.00039079766 0)
(1.0109982 -4.452416e-05 0)
(1.0109586 -0.00040430151 0)
(1.0109686 -0.00066484372 0)
(1.0109992 -0.00081689505 0)
(1.0110174 -0.00086206844 0)
(1.0110003 -0.00081577041 0)
(1.0109316 -0.00070199038 0)
(1.0108116 -0.00054984659 0)
(1.0106518 -0.00038800678 0)
(1.0104774 -0.00023927837 0)
(1.0103226 -0.00011901321 0)
(1.0102295 -3.1952525e-05 0)
(0.96522691 -3.8981369e-06 -2.2326723e-24)
(0.97826857 0.00029336683 0)
(0.98886787 0.00046094584 0)
(0.99863366 0.00087270168 0)
(1.0077202 0.0011599293 0)
(1.0130465 0.0018570737 0)
(1.0136692 0.0019406324 0)
(1.0140798 0.0026946481 0)
(1.0147033 0.0028530657 0)
(1.0146561 0.0031916666 0)
(1.0142686 0.0030808504 0)
(1.0137572 0.0030754879 0)
(1.0131916 0.0027849329 0)
(1.0126349 0.0025209414 0)
(1.0121117 0.0020837514 0)
(1.0116709 0.0016167744 0)
(1.0113276 0.0010888646 0)
(1.0110969 0.00056218392 0)
(1.0109645 6.649005e-05 0)
(1.0109244 -0.00036316354 0)
(1.0109525 -0.00069671783 0)
(1.0110196 -0.00091719067 0)
(1.0110883 -0.0010186737 0)
(1.0111291 -0.0010105428 0)
(1.0111161 -0.00091337795 0)
(1.01104 -0.00075632782 0)
(1.0109024 -0.00057139502 0)
(1.0107218 -0.00038820325 0)
(1.0105266 -0.00022908111 0)
(1.0103545 -0.0001076053 0)
(1.0102497 -2.6732975e-05 0)
(0.95077251 -5.2845801e-05 2.9204889e-24)
(0.9659834 0.00015036479 2.3302502e-24)
(0.97872155 0.00044549565 0)
(0.98933394 0.00069438959 0)
(0.99920316 0.001097059 0)
(1.0085587 0.0015042564 0)
(1.0132519 0.002313186 0)
(1.0134772 0.0024545794 0)
(1.013804 0.0031647561 0)
(1.0143038 0.0031913255 0)
(1.0141953 0.0033985849 0)
(1.013792 0.0031901425 0)
(1.0132748 0.003102169 0)
(1.0127114 0.0027331596 0)
(1.0121735 0.0023851776 0)
(1.0116922 0.0018694525 0)
(1.0113141 0.0013360367 0)
(1.0110487 0.00076018998 0)
(1.0109004 0.00020928081 0)
(1.0108526 -0.00029029133 0)
(1.0108902 -0.0007007219 0)
(1.0109871 -0.00099825658 0)
(1.0111046 -0.0011682679 0)
(1.0112075 -0.001212726 0)
(1.0112615 -0.0011466 0)
(1.0112472 -0.0009969462 0)
(1.0111558 -0.00079715582 0)
(1.0109967 -0.0005814967 0)
(1.0107916 -0.00037951943 0)
(1.0105734 -0.00021280413 0)
(1.0103828 -9.2858877e-05 0)
(1.0102658 -2.049746e-05 0)
(0.93520198 -0.00011080904 -2.9337721e-24)
(0.95164195 7.4100445e-05 -7.2357861e-24)
(0.96645268 0.00031948741 0)
(0.97929014 0.00064358272 0)
(0.98992951 0.0008726636 0)
(0.99999808 0.0013968913 0)
(1.0093676 0.0019763543 0)
(1.0132369 0.0028869016 0)
(1.013094 0.002972211 0)
(1.0134123 0.0035252719 0)
(1.0138517 0.0034185732 0)
(1.013712 0.0035242504 0)
(1.0132929 0.0032366227 0)
(1.0127658 0.0030706095 0)
(1.0122096 0.0026183002 0)
(1.0117046 0.0021775816 0)
(1.011282 0.0015871444 0)
(1.0109822 0.00099203293 0)
(1.0108034 0.00038160867 0)
(1.0107454 -0.00018375881 0)
(1.0107836 -0.0006728493 0)
(1.010901 -0.0010534832 0)
(1.0110612 -0.0013029265 0)
(1.0112259 -0.0014142496 0)
(1.0113535 -0.0013949891 0)
(1.0114148 -0.0012676405 0)
(1.0113899 -0.0010648734 0)
(1.0112783 -0.00082364338 0)
(1.0110924 -0.00057968793 0)
(1.0108599 -0.00036205633 0)
(1.0106171 -0.00019076854 0)
(1.0104071 -7.4987447e-05 0)
(1.0102777 -1.333734e-05 0)
(0.91930113 -0.00017491089 0)
(0.93609471 3.0984394e-05 7.2470236e-24)
(0.95220993 0.00019332411 0)
(0.96704964 0.00051643478 0)
(0.98002309 0.00079943598 0)
(0.99070841 0.0010882763 0)
(1.0009837 0.0019237277 0)
(1.0100285 0.0025949035 0)
(1.0129456 0.0034513373 0)
(1.012582 0.0033924353 0)
(1.0129796 0.0037567019 0)
(1.0133861 0.0035580182 0)
(1.0132115 0.0035911467 0)
(1.0127607 0.003228244 0)
(1.012228 0.0029760852 0)
(1.0116918 0.0024274897 0)
(1.0112393 0.0018942572 0)
(1.0108944 0.0012333777 0)
(1.0106835 0.00058993352 0)
(1.0106004 -4.4978857e-05 0)
(1.0106355 -0.00060996083 0)
(1.0107631 -0.0010773984 0)
(1.0109566 -0.0014147741 0)
(1.011178 -0.0016063153 0)
(1.0113806 -0.0016501825 0)
(1.0115267 -0.0015621253 0)
(1.0115849 -0.0013712948 0)
(1.0115436 -0.0011156132 0)
(1.0114048 -0.00083511847 0)
(1.0111883 -0.00056587522 0)
(1.0109257 -0.00033607963 0)
(1.0106569 -0.00016331321 0)
(1.0104271 -5.4219956e-05 0)
(1.0102849 -5.3061859e-06 0)
(0.90343323 -0.00017251496 1.5049027e-24)
(0.9201491 -9.71187e-05 0)
(0.93666171 0.00018042353 1.4284164e-23)
(0.95292033 0.00031071958 0)
(0.9678314 0.00065553142 0)
(0.98095491 0.0010238324 0)
(0.99161129 0.0014711244 0)
(1.0020386 0.0026552497 0)
(1.010465 0.0032377466 0)
(1.0124195 0.0038471646 0)
(1.0120519 0.0036665486 0)
(1.0125522 0.0039004982 0)
(1.0129063 0.0036415314 0)
(1.0126709 0.0036104767 0)
(1.0121903 0.0031598997 0)
(1.0116626 0.0028015364 0)
(1.0111706 0.0021529724 0)
(1.0107929 0.001530232 0)
(1.0105392 0.00081292699 0)
(1.0104276 0.00013184707 0)
(1.0104442 -0.00051242462 0)
(1.0105769 -0.0010655628 0)
(1.0107921 -0.0014970309 0)
(1.0110609 -0.0017800151 0)
(1.0113351 -0.0019027991 0)
(1.0115697 -0.0018720594 0)
(1.0117231 -0.001710914 0)
(1.0117714 -0.0014553306 0)
(1.0117047 -0.0011481974 0)
(1.0115338 -0.00083118778 0)
(1.0112828 -0.00054040037 0)
(1.0109881 -0.00030198691 0)
(1.0106922 -0.00013083838 0)
(1.0104423 -3.0810604e-05 0)
(1.0102875 3.4773492e-06 0)
(0.88823829 -0.00021594081 -6.2146423e-24)
(0.90414936 -0.00010181558 -2.0644539e-23)
(0.92068242 2.3727362e-05 -1.4276598e-23)
(0.93737022 0.00031017323 -2.1765616e-23)
(0.95382386 0.00035218875 -2.7332142e-23)
(0.96881531 0.00085728162 0)
(0.98201058 0.0014714985 0)
(0.99251545 0.0020263033 0)
(1.0030899 0.0033833576 0)
(1.0107128 0.0037395055 0)
(1.011813 0.0040501125 0)
(1.0115494 0.0038333991 0)
(1.0121191 0.0039989636 0)
(1.0123859 0.0036844427 0)
(1.0120798 0.0035749238 0)
(1.0115786 0.0030096266 0)
(1.0110852 0.0025337441 0)
(1.0106641 0.0017878676 0)
(1.0103783 0.0010908543 0)
(1.0102269 0.00032851223 0)
(1.0102198 -0.00037475863 0)
(1.0103415 -0.0010171103 0)
(1.0105719 -0.0015433952 0)
(1.0108754 -0.0019269324 0)
(1.0112126 -0.0021427707 0)
(1.0115341 -0.0021875858 0)
(1.0117893 -0.0020756642 0)
(1.0119423 -0.0018382758 0)
(1.01197 -0.0015182797 0)
(1.0118719 -0.0011617519 0)
(1.0116632 -0.0008120152 0)
(1.0113746 -0.00050356909 0)
(1.011046 -0.00026028315 0)
(1.0107227 -9.3712877e-05 0)
(1.0104526 -5.0207778e-06 0)
(1.0102854 1.2936539e-05 0)
(0.87447429 -0.00020284578 7.6337141e-24)
(0.88875499 -0.00016988146 3.6212262e-23)
(0.90459006 2.6032744e-05 0)
(0.92135765 8.8792553e-05 7.6256512e-23)
(0.93827977 0.00035789817 2.7194924e-23)
(0.95494461 0.00043803495 4.1390475e-23)
(0.96989377 0.0012982841 2.1228769e-23)
(0.98306552 0.0021107332 0)
(0.99344934 0.0026264457 0)
(1.0041537 0.0039411454 0)
(1.0108102 0.0040343462 0)
(1.0111896 0.0041665226 0)
(1.0110646 0.0039444593 0)
(1.0116456 0.0040741398 0)
(1.0117987 0.003679971 0)
(1.0114295 0.0034553812 0)
(1.0109446 0.0027571586 0)
(1.0105179 0.0021642708 0)
(1.0101885 0.0013376361 0)
(1.0100068 0.00057956969 0)
(1.0099637 -0.00021218527 0)
(1.0100669 -0.00092625679 0)
(1.0102954 -0.0015519658 0)
(1.0106254 -0.0020389937 0)
(1.0110127 -0.0023602272 0)
(1.011414 -0.0024978362 0)
(1.0117717 -0.0024555844 0)
(1.0120391 -0.0022571349 0)
(1.0121795 -0.0019420682 0)
(1.0121793 -0.0015585134 0)
(1.012042 -0.0011562292 0)
(1.0117914 -0.0007777161 0)
(1.0114625 -0.00045598558 0)
(1.0110987 -0.0002115493 0)
(1.010748 -5.2078312e-05 0)
(1.010458 2.2840177e-05 0)
(1.0102786 2.2978743e-05 0)
(0.86272396 -0.00019697052 -4.4469105e-26)
(0.8747195 -0.00017034529 -8.5318332e-24)
(0.88906289 -4.0534404e-05 1.5302663e-23)
(0.90514766 6.2228297e-05 -3.0221586e-23)
(0.92225431 6.5243426e-05 -5.6527639e-23)
(0.93941806 0.00045964951 3.7073646e-23)
(0.95617155 0.00076108136 1.4816665e-22)
(0.97094418 0.0019627756 -2.653184e-23)
(0.98410199 0.0027231388 0)
(0.9945271 0.0031259143 0)
(1.0052091 0.0042946694 0)
(1.0106754 0.0042075339 0)
(1.0105812 0.0042848869 0)
(1.0105568 0.0040352134 0)
(1.0110981 0.0041171339 0)
(1.011129 0.0035909493 0)
(1.0107433 0.0032223901 0)
(1.0103163 0.0023904207 0)
(1.0099809 0.0016991818 0)
(1.0097563 0.00080726892 0)
(1.0096851 4.7856116e-06 0)
(1.0097562 -0.00080525191 0)
(1.0099723 -0.0015160469 0)
(1.0103116 -0.002112767 0)
(1.0107387 -0.0025452104 0)
(1.0112072 -0.0027913353 0)
(1.0116625 -0.0028390371 0)
(1.0120481 -0.0027019191 0)
(1.0123144 -0.0024131105 0)
(1.0124334 -0.0020197453 0)
(1.0123951 -0.0015756168 0)
(1.0122134 -0.0011312641 0)
(1.0119164 -0.00072894899 0)
(1.0115452 -0.00039827418 0)
(1.0111461 -0.00015602564 0)
(1.0107677 -6.9682975e-06 0)
(1.0104582 5.2525185e-05 0)
(1.0102671 3.3488142e-05 0)
(0.85293177 -0.00015198217 -3.0566759e-24)
(0.86266664 -0.00016295438 3.8380613e-24)
(0.87488503 -4.5844121e-05 0)
(0.88946071 -4.1113732e-05 -2.3120011e-23)
(0.90593823 -5.0236835e-06 -6.7136429e-24)
(0.92338811 9.8289431e-05 0)
(0.94066965 0.0008245973 -1.0550493e-22)
(0.95737964 0.0013090767 -1.2102261e-22)
(0.97196558 0.0026363615 0)
(0.98523636 0.0031196498 0)
(0.99587388 0.0034192917 0)
(1.0062504 0.0045414836 0)
(1.0103663 0.0043021924 0)
(1.0099578 0.0044313046 0)
(1.0099738 0.0041087439 0)
(1.0104493 0.0040781203 0)
(1.0104044 0.0033758061 0)
(1.0100577 0.0028597078 0)
(1.0097185 0.0019175715 0)
(1.0094883 0.0011458396 0)
(1.0093749 0.00020676281 0)
(1.0094193 -0.00062899561 0)
(1.009608 -0.0014442055 0)
(1.0099421 -0.0021401519 0)
(1.0103923 -0.0026924979 0)
(1.010916 -0.0030566697 0)
(1.0114576 -0.0032133684 0)
(1.011959 -0.0031607254 0)
(1.0123587 -0.0029220829 0)
(1.0126138 -0.0025402018 0)
(1.0126992 -0.0020701628 0)
(1.0126159 -0.0015686057 0)
(1.0123831 -0.0010875855 0)
(1.012037 -0.00066628004 0)
(1.0116221 -0.00033120117 0)
(1.0111873 -9.4690996e-05 0)
(1.0107818 4.1681103e-05 0)
(1.0104535 8.3686473e-05 0)
(1.0102511 4.4359195e-05 0)
(0.8458269 -0.00010905036 0)
(0.85250217 -0.00010817215 0)
(0.8626524 -3.9600508e-05 -3.9593299e-24)
(0.87509919 -8.6679984e-05 0)
(0.89010442 -0.00015830845 -3.4063759e-24)
(0.9069532 -2.1856872e-05 5.3142619e-23)
(0.92465828 0.0004158018 2.5678137e-22)
(0.94190991 0.0014232512 2.32942e-22)
(0.9585792 0.0018602301 0)
(0.97309196 0.0030884534 0)
(0.98665003 0.0032667615 0)
(0.99758358 0.0036009287 0)
(1.007298 0.004770369 0)
(1.0099207 0.0043909666 0)
(1.009221 0.0045741377 0)
(1.0092899 0.0041025528 0)
(1.0097291 0.0039000954 0)
(1.0096725 0.0030138431 0)
(1.0094039 0.0023779966 0)
(1.009167 0.0013492513 0)
(1.0090479 0.00051590567 0)
(1.0090496 -0.0004585801 0)
(1.0092128 -0.0013155861 0)
(1.0095247 -0.002126356 0)
(1.0099798 -0.0027924461 0)
(1.010543 -0.0032858795 0)
(1.0111574 -0.0035658399 0)
(1.0117656 -0.0036200393 0)
(1.0122996 -0.0034571219 0)
(1.0127023 -0.0031115668 0)
(1.012932 -0.0026362158 0)
(1.0129748 -0.002091611 0)
(1.0128377 -0.0015380359 0)
(1.0125497 -0.0010253929 0)
(1.0121517 -0.00059068111 0)
(1.0116924 -0.0002554375 0)
(1.0112223 -2.7994794e-05 0)
(1.0107903 9.2902626e-05 0)
(1.0104439 0.00011609614 0)
(1.0102308 5.556654e-05 0)
(0.84488987 -3.6272778e-05 -5.0192977e-25)
(0.84578612 4.5477882e-05 0)
(0.85222614 2.4069924e-05 -1.0428195e-23)
(0.86259746 -0.00010712551 -1.5976764e-23)
(0.87557255 -0.00025139596 -9.4925797e-24)
(0.89095913 -0.00022947414 1.8093924e-23)
(0.90810897 0.00025663527 7.9903254e-24)
(0.9259356 0.00098679873 3.1954054e-23)
(0.94316197 0.0020145294 -3.0586651e-22)
(0.95989802 0.0021801571 0)
(0.97450654 0.0032302432 -3.1144701e-22)
(0.98844438 0.0033073323 0)
(0.99952161 0.0037962552 0)
(1.0081577 0.005050325 0)
(1.009251 0.0045194726 0)
(1.0083278 0.0046320613 0)
(1.0085404 0.0039413205 0)
(1.0089955 0.0035534471 0)
(1.0089724 0.0025192619 0)
(1.0087996 0.0017921807 0)
(1.00867 0.00069943177 0)
(1.0086636 -0.00018343812 0)
(1.0087823 -0.0011824581 0)
(1.0090704 -0.0020531308 0)
(1.0095107 -0.0028462954 0)
(1.0100916 -0.0034680594 0)
(1.0107652 -0.0038852771 0)
(1.011466 -0.0040656393 0)
(1.0121284 -0.0040041985 0)
(1.0126835 -0.0037225117 0)
(1.0130734 -0.003266912 0)
(1.0132667 -0.0026985545 0)
(1.0132555 -0.0020841543 0)
(1.0130586 -0.0014836242 0)
(1.0127109 -0.00094596811 0)
(1.0122594 -0.00050294856 0)
(1.0117555 -0.0001718807 0)
(1.0112505 4.3072688e-05 0)
(1.010793 0.00014659454 0)
(1.0104295 0.00014946004 0)
(1.0102064 6.6982453e-05 0)
(0.84436573 0.00010293741 9.2795054e-24)
(0.84486375 0.00017838801 0)
(0.85284669 8.545993e-05 -3.0121612e-24)
(0.85179668 -5.4049561e-05 1.5968231e-23)
(0.8627654 -0.00030588644 3.7538057e-24)
(0.87622036 -0.00036127794 1.1015446e-22)
(0.89196149 1.1914854e-05 -2.0504867e-22)
(0.90927612 0.00079163246 -9.4333565e-23)
(0.92723949 0.0015547779 -2.8491717e-22)
(0.94454335 0.0023308275 -1.1147842e-22)
(0.96152013 0.0021780038 -4.0952533e-22)
(0.97629119 0.0032436466 3.2382641e-22)
(0.99054081 0.003400782 0)
(1.0014484 0.0041605408 0)
(1.008485 0.0053609247 0)
(1.0082776 0.0046018778 0)
(1.0073458 0.00450456 0)
(1.0077992 0.0035833629 0)
(1.0082951 0.003059274 0)
(1.0083237 0.0019126657 0)
(1.0082529 0.0011195553 0)
(1.0082296 -2.2434661e-05 0)
(1.0083356 -0.0009457414 0)
(1.0085771 -0.001964107 0)
(1.0089966 -0.0028380828 0)
(1.0095732 -0.0036006069 0)
(1.0102816 -0.0041599231 0)
(1.0110631 -0.0044832756 0)
(1.0118405 -0.0045480954 0)
(1.0125458 -0.0043590115 0)
(1.0131054 -0.0039519294 0)
(1.0134694 -0.0033843709 0)
(1.0136123 -0.002726408 0)
(1.013539 -0.0020469336 0)
(1.0132754 -0.0014067753 0)
(1.0128652 -0.00084990092 0)
(1.0123591 -0.00040418769 0)
(1.0118109 -8.146612e-05 0)
(1.0112721 0.00011800392 0)
(1.0107903 0.000201996 0)
(1.0104105 0.00018354205 0)
(1.0101781 7.8545342e-05 0)
(0.84364554 1.709199e-05 4.2226793e-24)
(0.84434421 0.00030419528 1.208075e-23)
(0.85243849 0.00024522825 0)
(0.86260316 0.00013079766 -3.4759921e-26)
(0.85154301 -0.00026774044 -4.9505809e-24)
(0.86300681 -0.00045298219 -6.0560182e-23)
(0.87698951 -0.0001444321 0)
(0.89300886 0.0005240757 9.3704748e-23)
(0.91048656 0.0013181481 -1.4399942e-22)
(0.92867695 0.0018267255 1.1004239e-22)
(0.94622062 0.0022751436 5.1113203e-22)
(0.96354744 0.0020325052 4.2512897e-22)
(0.97837735 0.0033176686 0)
(0.99276787 0.0036985472 0)
(1.0030349 0.0046840844 0)
(1.0082218 0.0055473912 0)
(1.0071229 0.0045090269 0)
(1.0063954 0.0041519344 0)
(1.0071213 0.0030604334 0)
(1.0076464 0.0024474071 0)
(1.0077353 0.001215959 0)
(1.0077646 0.00037253383 0)
(1.0078435 -0.00080874103 0)
(1.008065 -0.0017713267 0)
(1.0084378 -0.0028019026 0)
(1.0089993 -0.0036686089 0)
(1.0097181 -0.0043829692 0)
(1.0105555 -0.0048612175 0)
(1.0114371 -0.0050717446 0)
(1.012282 -0.0050049952 0)
(1.0130133 -0.0046778112 0)
(1.0135626 -0.0041403117 0)
(1.0138841 -0.0034619305 0)
(1.0139659 -0.002718188 0)
(1.0138208 -0.0019811459 0)
(1.0134862 -0.0013077654 0)
(1.0130109 -0.0007387753 0)
(1.0124501 -0.00029548037 0)
(1.0118584 1.4775247e-05 0)
(1.011287 0.0001959841 0)
(1.010782 0.00025891207 0)
(1.0103873 0.00021808826 0)
(1.0101463 9.0165168e-05 0)
(0.84323082 -0.00022980696 -6.1686255e-24)
(0.843647 0.00019890683 -4.2273106e-24)
(0.85221744 0.00037786725 -1.0414013e-23)
(0.86255065 0.00028975431 -3.8072752e-24)
(0.87431213 0.00013516226 1.0798361e-23)
(0.85136885 -0.00042877523 6.1708363e-23)
(0.86334654 -0.00026335767 4.4978531e-23)
(0.87776109 0.00035037524 0)
(0.89412108 0.0010360001 1.4789562e-22)
(0.91181735 0.0015328525 -4.899579e-23)
(0.93039577 0.0016869968 0)
(0.94829641 0.0020635419 -6.0877024e-22)
(0.96591443 0.0019480929 0)
(0.98063135 0.0036314395 0)
(0.99496007 0.0041778851 0)
(1.0042014 0.0051643723 0)
(1.0074137 0.0054196459 0)
(1.005934 0.0041533333 0)
(1.0055615 0.0036173824 0)
(1.0065204 0.0024200885 0)
(1.0070563 0.0017400831 0)
(1.0072071 0.00044595655 0)
(1.0073285 -0.0004386596 0)
(1.0075092 -0.0016604095 0)
(1.0078551 -0.0026615074 0)
(1.0083727 -0.0036971252 0)
(1.0090863 -0.0045402521 0)
(1.0099533 -0.0051873973 0)
(1.0109164 -0.0055629044 0)
(1.01189 -0.0056420893 0)
(1.0127869 -0.0054281279 0)
(1.0135286 -0.0049539478 0)
(1.0140486 -0.0042839994 0)
(1.0143142 -0.0034969951 0)
(1.0143219 -0.0026744685 0)
(1.0140987 -0.00188671 0)
(1.0136885 -0.0011885607 0)
(1.0131471 -0.0006135259 0)
(1.0125318 -0.00017811137 0)
(1.0118978 0.00011594355 0)
(1.0112952 0.00027643785 0)
(1.0107687 0.00031671682 0)
(1.01036 0.0002528916 0)
(1.0101111 0.00010179031 0)
(0.84292983 -0.0004393334 3.6983821e-24)
(0.84322838 -8.0156516e-05 6.1764275e-24)
(0.85182584 0.00026747458 1.6044287e-23)
(0.86264225 0.00042798926 3.9276858e-24)
(0.87454987 0.00028753077 -1.1712281e-23)
(0.88801772 0.00014943952 -6.0935533e-24)
(0.85140075 -0.00024796224 -9.7589572e-23)
(0.86369894 0.00021630941 -5.9750083e-23)
(0.87855858 0.00084478548 -1.7880125e-22)
(0.89532378 0.0012269955 5.88881e-23)
(0.91339019 0.0013074208 -6.0834072e-22)
(0.93248768 0.0013671968 2.6791031e-22)
(0.95071501 0.0019161073 0)
(0.96848023 0.0021170591 -5.1561266e-22)
(0.98287991 0.0041638001 8.8759262e-22)
(0.99698353 0.0046156974 0)