/*--------------------------------*- C++ -*----------------------------------*\
| =========                 |                                                 |
| \\      /  F ield         | OpenFOAM: The Open Source CFD Toolbox           |
|  \\    /   O peration     | Version:  5.0                                   |
|   \\  /    A nd           | Web:      www.OpenFOAM.org                      |
|    \\/     M anipulation  |                                                 |
\*---------------------------------------------------------------------------*/
FoamFile
{
    version     2.0;
    format      ascii;
    class       volSymmTensorField;
    location    "320";
    object      UPrime2Mean;
}
// * * * * * * * * * * * * * * * * * * * * * * * * * * * * * * * * * * * * * //

dimensions      [0 2 -2 0 0 0 0];

internalField   nonuniform List<symmTensor> 
9520
(
(2.6376751e-05 6.4223243e-07 0 2.0828155e-08 0 0)
(2.6690927e-05 1.8864461e-06 0 1.7918911e-07 0 0)
(2.2705284e-05 6.0134968e-07 0 2.1325455e-08 0 0)
(2.7258593e-05 3.0527472e-06 0 4.6668794e-07 0 0)
(2.3029706e-05 1.7685224e-06 0 1.8349526e-07 0 0)
(2.1300819e-05 5.8961664e-07 0 2.1773846e-08 0 0)
(2.8041958e-05 4.1451685e-06 0 8.5491026e-07 0 0)
(2.3620801e-05 2.868352e-06 0 4.7819711e-07 0 0)
(2.1626438e-05 1.7356666e-06 0 1.874805e-07 0 0)
(1.9120326e-05 5.6935573e-07 0 2.2698876e-08 0 0)
(2.9011481e-05 5.166391e-06 0 1.3190088e-06 0 0)
(2.4443093e-05 3.9069875e-06 0 8.7685652e-07 0 0)
(2.2219782e-05 2.8190399e-06 0 4.8897821e-07 0 0)
(1.9444185e-05 1.6780801e-06 0 1.9558037e-07 0 0)
(1.7509159e-05 5.5435001e-07 0 2.357902e-08 0 0)
(3.0140299e-05 6.1169336e-06 0 1.8375886e-06 0 0)
(2.5470162e-05 4.8884405e-06 0 1.3545599e-06 0 0)
(2.3047273e-05 3.8471435e-06 0 8.9753872e-07 0 0)
(2.0037184e-05 2.7318281e-06 0 5.1084377e-07 0 0)
(1.7828606e-05 1.6355544e-06 0 2.0334953e-07 0 0)
(1.5774215e-05 5.3808963e-07 0 2.476434e-08 0 0)
(3.1401679e-05 6.9966914e-06 0 2.3925735e-06 0 0)
(2.6678213e-05 5.8141437e-06 0 1.8898551e-06 0 0)
(2.408403e-05 4.8247704e-06 0 1.3881444e-06 0 0)
(2.0867829e-05 3.7398288e-06 0 9.3947165e-07 0 0)
(1.8415108e-05 2.6677049e-06 0 5.3190491e-07 0 0)
(1.6084431e-05 1.5893047e-06 0 2.1380382e-07 0 0)
(1.4278397e-05 5.2183275e-07 0 2.5860699e-08 0 0)
(3.2769086e-05 7.8046405e-06 0 2.9688744e-06 0 0)
(2.8043639e-05 6.6844945e-06 0 2.464772e-06 0 0)
(2.5307715e-05 5.753763e-06 0 1.9391262e-06 0 0)
(2.1913655e-05 4.7085525e-06 0 1.4564621e-06 0 0)
(1.9239173e-05 3.6616848e-06 0 9.8005506e-07 0 0)
(1.6655365e-05 2.5978734e-06 0 5.6032526e-07 0 0)
(1.4579024e-05 1.5428905e-06 0 2.2350059e-07 0 0)
(1.2799017e-05 5.0438386e-07 0 2.7132109e-08 0 0)
(3.4215785e-05 8.5395196e-06 0 3.5548985e-06 0 0)
(2.9543082e-05 7.498395e-06 0 3.0644903e-06 0 0)
(2.6696192e-05 6.6347051e-06 0 2.5320144e-06 0 0)
(2.3154755e-05 5.6409474e-06 0 2.0403475e-06 0 0)
(2.02807e-05 4.6253975e-06 0 1.5227794e-06 0 0)
(1.7459989e-05 3.5765637e-06 0 1.0350817e-06 0 0)
(1.5133398e-05 2.5269359e-06 0 5.8679934e-07 0 0)
(1.308524e-05 1.4929524e-06 0 2.3473902e-07 0 0)
(1.1479511e-05 4.8465903e-07 0 2.8293448e-08 0 0)
(3.5716219e-05 9.2006518e-06 0 4.1406243e-06 0 0)
(3.1151913e-05 8.253795e-06 0 3.6762224e-06 0 0)
(2.8227037e-05 7.4667465e-06 0 3.1510602e-06 0 0)
(2.4571423e-05 6.5383045e-06 0 2.6728714e-06 0 0)
(2.152194e-05 5.562621e-06 0 2.1386176e-06 0 0)
(1.8480512e-05 4.5347088e-06 0 1.6132984e-06 0 0)
(1.5916437e-05 3.4883895e-06 0 1.0866075e-06 0 0)
(1.3613551e-05 2.4499332e-06 0 6.1752248e-07 0 0)
(1.1751528e-05 1.4361853e-06 0 2.4500968e-07 0 0)
(1.0218575e-05 4.6260334e-07 0 2.9525863e-08 0 0)
(3.7245332e-05 9.784464e-06 0 4.7207885e-06 0 0)
(3.2846015e-05 8.9477929e-06 0 4.2888896e-06 0 0)
(2.9877985e-05 8.2487743e-06 0 3.7849668e-06 0 0)
(2.6143697e-05 7.3999501e-06 0 3.3384475e-06 0 0)
(2.2944784e-05 6.4751671e-06 0 2.8092511e-06 0 0)
(1.9701933e-05 5.4772789e-06 0 2.2738402e-06 0 0)
(1.6912476e-05 4.4377177e-06 0 1.6985667e-06 0 0)
(1.4361891e-05 3.3911412e-06 0 1.1465092e-06 0 0)
(1.2254522e-05 2.3611713e-06 0 6.4568809e-07 0 0)
(1.0472873e-05 1.3722935e-06 0 2.5594659e-07 0 0)
(9.0940193e-06 4.3805449e-07 0 3.0598638e-08 0 0)
(3.8781382e-05 1.0298169e-05 0 5.2897082e-06 0 0)
(3.4603134e-05 9.5770916e-06 0 4.8988426e-06 0 0)
(3.1626827e-05 8.9787062e-06 0 4.4232148e-06 0 0)
(2.7850072e-05 8.2237727e-06 0 4.0237208e-06 0 0)
(2.4530085e-05 7.3627044e-06 0 3.5190299e-06 0 0)
(2.1108652e-05 6.4069786e-06 0 2.9986643e-06 0 0)
(1.8108709e-05 5.3809756e-06 0 2.4018613e-06 0 0)
(1.5316853e-05 4.3279913e-06 0 1.7979469e-06 0 0)
(1.2968839e-05 3.2765418e-06 0 1.2017184e-06 0 0)
(1.0943878e-05 2.2600659e-06 0 6.758253e-07 0 0)
(9.3312046e-06 1.3006205e-06 0 2.6550593e-07 0 0)
(8.0455882e-06 4.1163261e-07 0 3.1621813e-08 0 0)
(4.0308327e-05 1.0736457e-05 0 5.8668922e-06 0 0)
(3.6431174e-05 1.0148276e-05 0 5.4990289e-06 0 0)
(3.3449514e-05 9.6537558e-06 0 5.0598533e-06 0 0)
(2.9669391e-05 9.0086452e-06 0 4.7179802e-06 0 0)
(2.6256937e-05 8.2241704e-06 0 4.2550945e-06 0 0)
(2.2683858e-05 7.3239736e-06 0 3.7721879e-06 0 0)
(1.949136e-05 6.3215722e-06 0 3.178699e-06 0 0)
(1.6467928e-05 5.2677499e-06 0 2.5517085e-06 0 0)
(1.3882843e-05 4.1945753e-06 0 1.8901282e-06 0 0)
(1.1614695e-05 3.1434534e-06 0 1.2610509e-06 0 0)
(9.7716154e-06 2.1452697e-06 0 7.0232174e-07 0 0)
(8.264136e-06 1.2229147e-06 0 2.7470211e-07 0 0)
(7.1194915e-06 3.8402768e-07 0 3.2404495e-08 0 0)
(4.1809096e-05 1.1104384e-05 0 6.4074121e-06 0 0)
(3.8288199e-05 1.063542e-05 0 6.0912004e-06 0 0)
(3.5320977e-05 1.0270978e-05 0 5.686209e-06 0 0)
(3.1595237e-05 9.7544945e-06 0 5.4139152e-06 0 0)
(2.8105361e-05 9.0589115e-06 0 5.0071219e-06 0 0)
(2.4409331e-05 8.2272399e-06 0 4.5815026e-06 0 0)
(2.1045355e-05 7.2603084e-06 0 4.0138354e-06 0 0)
(1.7803829e-05 6.2149124e-06 0 3.3905224e-06 0 0)
(1.498756e-05 5.1234482e-06 0 2.6915594e-06 0 0)
(1.2475868e-05 4.0354928e-06 0 1.9895067e-06 0 0)
(1.0400617e-05 2.9898826e-06 0 1.313688e-06 0 0)
(8.671028e-06 2.0195563e-06 0 7.280908e-07 0 0)
(7.3209777e-06 1.1412712e-06 0 2.8180727e-07 0 0)
(6.272724e-06 3.5565272e-07 0 3.3036038e-08 0 0)
(4.3264152e-05 1.1376377e-05 0 6.9971992e-06 0 0)
(4.0104097e-05 1.1071288e-05 0 6.6765006e-06 0 0)
(3.7203913e-05 1.0831193e-05 0 6.3213515e-06 0 0)
(3.3610797e-05 1.04618e-05 0 6.1009115e-06 0 0)
(3.0043597e-05 9.8635462e-06 0 5.7684371e-06 0 0)
(2.6268618e-05 9.1158208e-06 0 5.4155943e-06 0 0)
(2.2753696e-05 8.1964511e-06 0 4.8946771e-06 0 0)
(1.9312645e-05 7.1711428e-06 0 4.2993556e-06 0 0)
(1.6272912e-05 6.0683156e-06 0 3.5893819e-06 0 0)
(1.3519519e-05 4.9449327e-06 0 2.8428381e-06 0 0)
(1.1210508e-05 3.8482263e-06 0 2.0786428e-06 0 0)
(9.2538432e-06 2.8193292e-06 0 1.3654204e-06 0 0)
(7.6969587e-06 1.8863214e-06 0 7.4828807e-07 0 0)
(6.4571466e-06 1.0569904e-06 0 2.8763706e-07 0 0)
(5.5324316e-06 3.2712726e-07 0 3.3392002e-08 0 0)
(4.4668226e-05 1.1607091e-05 0 7.5189761e-06 0 0)
(4.1954965e-05 1.1421527e-05 0 7.3021375e-06 0 0)
(3.9112438e-05 1.1343812e-05 0 6.9349703e-06 0 0)
(3.5641071e-05 1.1107489e-05 0 6.7868325e-06 0 0)
(3.2061926e-05 1.0639144e-05 0 6.5332638e-06 0 0)
(2.8252437e-05 9.9868637e-06 0 6.2655096e-06 0 0)
(2.459596e-05 9.1261513e-06 0 5.8111348e-06 0 0)
(2.0981536e-05 8.1361334e-06 0 5.2653942e-06 0 0)
(1.7727581e-05 7.0314238e-06 0 4.5689999e-06 0 0)
(1.4737851e-05 5.8778459e-06 0 3.8053059e-06 0 0)
(1.2195028e-05 4.7295381e-06 0 2.980051e-06 0 0)
(1.000688e-05 3.636403e-06 0 2.1670065e-06 0 0)
(8.2366602e-06 2.6365873e-06 0 1.4067339e-06 0 0)
(6.8018842e-06 1.7477679e-06 0 7.6527668e-07 0 0)
(5.7020183e-06 9.7211913e-07 0 2.9103252e-07 0 0)
(4.8676719e-06 2.9828829e-07 0 3.3562803e-08 0 0)
(4.6001716e-05 1.1697813e-05 0 8.1926513e-06 0 0)
(4.3806238e-05 1.1749809e-05 0 7.8983995e-06 0 0)
(4.1073262e-05 1.178216e-05 0 7.5893302e-06 0 0)
(3.7669743e-05 1.17047e-05 0 7.4717441e-06 0 0)
(3.4125892e-05 1.1369095e-05 0 7.313389e-06 0 0)
(3.0325486e-05 1.0836056e-05 0 7.1315458e-06 0 0)
(2.6558347e-05 1.0046842e-05 0 6.7581607e-06 0 0)
(2.2800323e-05 9.1083695e-06 0 6.2774002e-06 0 0)
(1.9338226e-05 8.0126852e-06 0 5.617453e-06 0 0)
(1.6122121e-05 6.8376372e-06 0 4.8628771e-06 0 0)
(1.3347085e-05 5.6401056e-06 0 4.0032469e-06 0 0)
(1.0925372e-05 4.4801997e-06 0 3.1171212e-06 0 0)
(8.9359678e-06 3.4063169e-06 0 2.2391508e-06 0 0)
(7.2981778e-06 2.4446988e-06 0 1.4423506e-06 0 0)
(6.019259e-06 1.6075352e-06 0 7.7568491e-07 0 0)
(5.0230494e-06 8.8617387e-07 0 2.9282287e-07 0 0)
(4.2938665e-06 2.6960114e-07 0 3.3479926e-08 0 0)
(4.7248501e-05 1.1840026e-05 0 8.830757e-06 0 0)
(4.5711617e-05 1.1901212e-05 0 8.6521946e-06 0 0)
(4.3066079e-05 1.2181593e-05 0 8.2085778e-06 0 0)
(3.9760868e-05 1.2245675e-05 0 8.2173344e-06 0 0)
(3.6231108e-05 1.2053321e-05 0 8.1055016e-06 0 0)
(3.2463283e-05 1.1639222e-05 0 8.0214668e-06 0 0)
(2.863678e-05 1.0955515e-05 0 7.7314163e-06 0 0)
(2.4752444e-05 1.0084007e-05 0 7.3281445e-06 0 0)
(2.1091075e-05 9.0106492e-06 0 6.7240023e-06 0 0)
(1.7662191e-05 7.8259216e-06 0 6.0027404e-06 0 0)
(1.4657685e-05 6.5833637e-06 0 5.1351326e-06 0 0)
(1.2003958e-05 5.3574364e-06 0 4.20249e-06 0 0)
(9.7919488e-06 4.2050871e-06 0 3.2315682e-06 0 0)
(7.9434821e-06 3.1617036e-06 0 2.3027678e-06 0 0)
(6.4767504e-06 2.2490736e-06 0 1.4654116e-06 0 0)
(5.3138203e-06 1.4647941e-06 0 7.8191573e-07 0 0)
(4.4373226e-06 8.0070232e-07 0 2.9235479e-07 0 0)
(3.7898948e-06 2.4082221e-07 0 3.3213039e-08 0 0)
(4.8401639e-05 1.1630034e-05 0 9.6849082e-06 0 0)
(4.763024e-05 1.2148841e-05 0 9.4427908e-06 0 0)
(4.5133021e-05 1.2430506e-05 0 9.0350621e-06 0 0)
(4.1903404e-05 1.273975e-05 0 8.9537684e-06 0 0)
(3.8433206e-05 1.2679727e-05 0 8.9694751e-06 0 0)
(3.465814e-05 1.239872e-05 0 8.9480814e-06 0 0)
(3.0809072e-05 1.1828666e-05 0 8.7426679e-06 0 0)
(2.6828567e-05 1.1057122e-05 0 8.414735e-06 0 0)
(2.2979739e-05 1.0025012e-05 0 7.8804032e-06 0 0)
(1.934573e-05 8.8425972e-06 0 7.2130531e-06 0 0)
(1.6114966e-05 7.5606167e-06 0 6.3636268e-06 0 0)
(1.3235798e-05 6.2722104e-06 0 5.411249e-06 0 0)
(1.0800611e-05 5.039808e-06 0 4.372184e-06 0 0)
(8.7365776e-06 3.9084953e-06 0 3.3344018e-06 0 0)
(7.0730509e-06 2.9099156e-06 0 2.3463179e-06 0 0)
(5.7344286e-06 2.0485272e-06 0 1.4808034e-06 0 0)
(4.7058664e-06 1.3225023e-06 0 7.8196208e-07 0 0)
(3.9222989e-06 7.1479515e-07 0 2.9028838e-07 0 0)
(3.3629285e-06 2.1258748e-07 0 3.2723681e-08 0 0)
(4.9220763e-05 1.173839e-05 0 1.0797283e-05 0 0)
(4.989295e-05 1.1814635e-05 0 1.0554503e-05 0 0)
(4.7344625e-05 1.2731745e-05 0 9.8934153e-06 0 0)
(4.419081e-05 1.3113714e-05 0 9.963085e-06 0 0)
(4.0703584e-05 1.3241288e-05 0 9.8714469e-06 0 0)
(3.69961e-05 1.3101038e-05 0 9.9706675e-06 0 0)
(3.306482e-05 1.2661788e-05 0 9.8081082e-06 0 0)
(2.9015907e-05 1.200957e-05 0 9.5478929e-06 0 0)
(2.4997738e-05 1.1052448e-05 0 9.0816578e-06 0 0)
(2.1159516e-05 9.8866753e-06 0 8.4851694e-06 0 0)
(1.7707356e-05 8.5725433e-06 0 7.6779307e-06 0 0)
(1.4611639e-05 7.2266236e-06 0 6.7323804e-06 0 0)
(1.1955959e-05 5.914453e-06 0 5.6504046e-06 0 0)
(9.6749654e-06 4.692346e-06 0 4.5271142e-06 0 0)
(7.8081975e-06 3.5997754e-06 0 3.4084593e-06 0 0)
(6.2844878e-06 2.6495889e-06 0 2.3779164e-06 0 0)
(5.0950908e-06 1.8477273e-06 0 1.4842541e-06 0 0)
(4.1704228e-06 1.1788447e-06 0 7.777959e-07 0 0)
(3.4864821e-06 6.304585e-07 0 2.8624732e-07 0 0)
(2.9984598e-06 1.849714e-07 0 3.2053965e-08 0 0)
(4.9955272e-05 1.0845311e-05 0 1.1919856e-05 0 0)
(5.2151555e-05 1.237087e-05 0 1.2255217e-05 0 0)
(5.0051709e-05 1.2483871e-05 0 1.1286167e-05 0 0)
(4.6734756e-05 1.3458652e-05 0 1.1071285e-05 0 0)
(4.3246793e-05 1.3692333e-05 0 1.1139166e-05 0 0)
(3.9466043e-05 1.3724335e-05 0 1.1094757e-05 0 0)
(3.5502893e-05 1.3442276e-05 0 1.0997486e-05 0 0)
(3.129884e-05 1.2928219e-05 0 1.0746657e-05 0 0)
(2.7135101e-05 1.2080442e-05 0 1.0336438e-05 0 0)
(2.3092892e-05 1.0957159e-05 0 9.8133094e-06 0 0)
(1.9422959e-05 9.6200804e-06 0 9.0705276e-06 0 0)
(1.6119319e-05 8.2207228e-06 0 8.1561397e-06 0 0)
(1.3249508e-05 6.8305615e-06 0 7.0561831e-06 0 0)
(1.0754588e-05 5.5178112e-06 0 5.8716375e-06 0 0)
(8.6808924e-06 4.3262832e-06 0 4.6435439e-06 0 0)
(6.9649115e-06 3.277692e-06 0 3.4656222e-06 0 0)
(5.6052052e-06 2.3873045e-06 0 2.3901038e-06 0 0)
(4.5313016e-06 1.6437266e-06 0 1.4798804e-06 0 0)
(3.7185578e-06 1.0375962e-06 0 7.6818797e-07 0 0)
(3.1143217e-06 5.4765667e-07 0 2.8063913e-07 0 0)
(2.6971087e-06 1.5872704e-07 0 3.1190487e-08 0 0)
(4.9038895e-05 1.0968599e-05 0 1.4238852e-05 0 0)
(5.5139202e-05 1.0578843e-05 0 1.4164462e-05 0 0)
(5.294142e-05 1.2971111e-05 0 1.3364302e-05 0 0)
(5.0024174e-05 1.3368884e-05 0 1.3055748e-05 0 0)
(4.6236156e-05 1.4065088e-05 0 1.2665339e-05 0 0)
(4.2373626e-05 1.4218722e-05 0 1.2690897e-05 0 0)
(3.820452e-05 1.4139718e-05 0 1.2349172e-05 0 0)
(3.3783794e-05 1.3806127e-05 0 1.2096904e-05 0 0)
(2.9377815e-05 1.3090046e-05 0 1.1665685e-05 0 0)
(2.5141518e-05 1.2046244e-05 0 1.1205454e-05 0 0)
(2.1251157e-05 1.0703816e-05 0 1.0536398e-05 0 0)
(1.7745387e-05 9.2535597e-06 0 9.6767061e-06 0 0)
(1.467176e-05 7.7877316e-06 0 8.5815782e-06 0 0)
(1.1969638e-05 6.3868903e-06 0 7.358915e-06 0 0)
(9.6884611e-06 5.0945136e-06 0 6.0436024e-06 0 0)
(7.7752507e-06 3.9408449e-06 0 4.7376929e-06 0 0)
(6.2373382e-06 2.9505392e-06 0 3.4944716e-06 0 0)
(5.0058139e-06 2.1190525e-06 0 2.3899526e-06 0 0)
(4.0569698e-06 1.4425452e-06 0 1.4648723e-06 0 0)
(3.3326603e-06 8.9820455e-07 0 7.5440526e-07 0 0)
(2.8074352e-06 4.688059e-07 0 2.733067e-07 0 0)
(2.448165e-06 1.3411098e-07 0 3.016293e-08 0 0)
(4.6736525e-05 8.3445374e-06 0 1.5520778e-05 0 0)
(5.6516133e-05 1.2196051e-05 0 1.8273326e-05 0 0)
(5.74848e-05 1.099657e-05 0 1.6301074e-05 0 0)
(5.4019495e-05 1.3718611e-05 0 1.5905098e-05 0 0)
(5.026737e-05 1.3998925e-05 0 1.5418613e-05 0 0)
(4.6011595e-05 1.4589474e-05 0 1.4759296e-05 0 0)
(4.1486011e-05 1.4691657e-05 0 1.4294234e-05 0 0)
(3.6645292e-05 1.4609941e-05 0 1.3658654e-05 0 0)
(3.1821563e-05 1.4072014e-05 0 1.3167757e-05 0 0)
(2.7299137e-05 1.3134194e-05 0 1.2685973e-05 0 0)
(2.3187692e-05 1.1817671e-05 0 1.2087389e-05 0 0)
(1.9479781e-05 1.0324482e-05 0 1.1292709e-05 0 0)
(1.6213132e-05 8.7844175e-06 0 1.0221832e-05 0 0)
(1.3313052e-05 7.2989145e-06 0 8.9813064e-06 0 0)
(1.0826733e-05 5.9069894e-06 0 7.6000674e-06 0 0)
(8.7137565e-06 4.6449548e-06 0 6.1877022e-06 0 0)
(6.9916087e-06 3.5456023e-06 0 4.7935469e-06 0 0)
(5.595314e-06 2.6135826e-06 0 3.5057107e-06 0 0)
(4.5028485e-06 1.8533061e-06 0 2.372301e-06 0 0)
(3.6523508e-06 1.2427286e-06 0 1.4419494e-06 0 0)
(3.0163253e-06 7.6526271e-07 0 7.3583011e-07 0 0)
(2.5543884e-06 3.9453083e-07 0 2.6452975e-07 0 0)
(2.2478833e-06 1.1166781e-07 0 2.8985052e-08 0 0)
(4.3120564e-05 7.4216917e-06 0 2.023242e-05 0 0)
(5.9203416e-05 6.6834617e-06 0 2.1538911e-05 0 0)
(6.087325e-05 1.2764781e-05 0 2.207979e-05 0 0)
(6.0538106e-05 1.1741784e-05 0 2.0692603e-05 0 0)
(5.5810852e-05 1.4160099e-05 0 1.9511566e-05 0 0)
(5.1117607e-05 1.4497427e-05 0 1.8521565e-05 0 0)
(4.583785e-05 1.5081766e-05 0 1.6948738e-05 0 0)
(4.0234439e-05 1.5277823e-05 0 1.59278e-05 0 0)
(3.4712876e-05 1.5005393e-05 0 1.4928926e-05 0 0)
(2.9649667e-05 1.4205616e-05 0 1.4367097e-05 0 0)
(2.5234797e-05 1.2940364e-05 0 1.3755947e-05 0 0)
(2.1321818e-05 1.1427221e-05 0 1.3023092e-05 0 0)
(1.7867264e-05 9.8170814e-06 0 1.1980152e-05 0 0)
(1.4778851e-05 8.2505871e-06 0 1.0734003e-05 0 0)
(1.2091387e-05 6.7637028e-06 0 9.3051855e-06 0 0)
(9.7775585e-06 5.3938144e-06 0 7.8078915e-06 0 0)
(7.866787e-06 4.1791593e-06 0 6.2828388e-06 0 0)
(6.300031e-06 3.1353395e-06 0 4.8260881e-06 0 0)
(5.0574636e-06 2.2775139e-06 0 3.4910902e-06 0 0)
(4.0750117e-06 1.587564e-06 0 2.3418916e-06 0 0)
(3.3231363e-06 1.0516828e-06 0 1.4095147e-06 0 0)
(2.7564291e-06 6.3932443e-07 0 7.1331191e-07 0 0)
(2.3520015e-06 3.2667322e-07 0 2.5439239e-07 0 0)
(2.0879625e-06 9.1538913e-08 0 2.7688887e-08 0 0)
(4.4413588e-05 4.7551646e-06 0 2.2054924e-05 0 0)
(6.0371805e-05 7.5925326e-06 0 2.9988086e-05 0 0)
(6.7348773e-05 5.7421825e-06 0 2.8685821e-05 0 0)
(6.7497556e-05 1.3180513e-05 0 2.9067688e-05 0 0)
(6.5012827e-05 1.206435e-05 0 2.6804916e-05 0 0)
(5.8811758e-05 1.4387636e-05 0 2.42445e-05 0 0)
(5.2213104e-05 1.4998976e-05 0 2.1805802e-05 0 0)
(4.5222879e-05 1.5764999e-05 0 1.9154534e-05 0 0)
(3.8458855e-05 1.5825612e-05 0 1.749963e-05 0 0)
(3.2486544e-05 1.5257837e-05 0 1.6367297e-05 0 0)
(2.7485748e-05 1.4051089e-05 0 1.5666859e-05 0 0)
(2.3284858e-05 1.2534846e-05 0 1.4909974e-05 0 0)
(1.9640111e-05 1.0877297e-05 0 1.388071e-05 0 0)
(1.6366038e-05 9.2359515e-06 0 1.2621911e-05 0 0)
(1.3480443e-05 7.6620458e-06 0 1.1152957e-05 0 0)
(1.0963667e-05 6.1891235e-06 0 9.5897889e-06 0 0)
(8.8600462e-06 4.8563311e-06 0 7.9556554e-06 0 0)
(7.1186145e-06 3.6915077e-06 0 6.3491276e-06 0 0)
(5.7213023e-06 2.7226816e-06 0 4.8232724e-06 0 0)
(4.6022413e-06 1.9390411e-06 0 3.4578636e-06 0 0)
(3.7297637e-06 1.3324498e-06 0 2.295505e-06 0 0)
(3.0543812e-06 8.6943064e-07 0 1.369396e-06 0 0)
(2.5510251e-06 5.2415094e-07 0 6.8691982e-07 0 0)
(2.191425e-06 2.6564759e-07 0 2.4317368e-07 0 0)
(1.9629301e-06 7.3882618e-08 0 2.6303612e-08 0 0)
(4.4596467e-05 3.6005443e-06 0 3.0651723e-05 0 0)
(7.1448475e-05 -5.1375139e-07 0 3.6383141e-05 0 0)
(7.3066122e-05 6.3263973e-06 0 4.133473e-05 0 0)
(7.9222337e-05 4.9676199e-06 0 4.124744e-05 0 0)
(7.7276278e-05 1.2779786e-05 0 3.9014364e-05 0 0)
(7.1494284e-05 1.2048787e-05 0 3.4801568e-05 0 0)
(6.2359828e-05 1.4668952e-05 0 2.9402124e-05 0 0)
(5.2824075e-05 1.5792136e-05 0 2.5115414e-05 0 0)
(4.3909747e-05 1.6469853e-05 0 2.12811e-05 0 0)
(3.6282577e-05 1.6225441e-05 0 1.9295064e-05 0 0)
(3.025083e-05 1.5158931e-05 0 1.7992583e-05 0 0)
(2.5487697e-05 1.3622244e-05 0 1.7099773e-05 0 0)
(2.1558592e-05 1.1930575e-05 0 1.5977151e-05 0 0)
(1.8091063e-05 1.0244773e-05 0 1.4669682e-05 0 0)
(1.4998132e-05 8.5956573e-06 0 1.314571e-05 0 0)
(1.2271789e-05 7.0298894e-06 0 1.1525e-05 0 0)
(9.9683638e-06 5.5809151e-06 0 9.8035114e-06 0 0)
(8.04776e-06 4.2884719e-06 0 8.070193e-06 0 0)
(6.4929334e-06 3.1960427e-06 0 6.3699797e-06 0 0)
(5.2345151e-06 2.3036824e-06 0 4.7952884e-06 0 0)
(4.2380802e-06 1.6120483e-06 0 3.400502e-06 0 0)
(3.4508475e-06 1.0872484e-06 0 2.2363185e-06 0 0)
(2.8454651e-06 7.0248805e-07 0 1.321389e-06 0 0)
(2.3899238e-06 4.2008947e-07 0 6.574555e-07 0 0)
(2.0672984e-06 2.1210499e-07 0 2.3112326e-07 0 0)
(1.8665157e-06 5.8623755e-08 0 2.4859805e-08 0 0)
(5.0964939e-05 -1.1835616e-05 0 3.2723605e-05 0 0)
(7.7932467e-05 3.4513877e-06 0 5.37598e-05 0 0)
(9.2777048e-05 -5.4794597e-06 0 5.6557332e-05 0 0)
(9.2576709e-05 4.1777244e-06 0 6.0698667e-05 0 0)
(9.6435697e-05 3.3961111e-06 0 5.8744821e-05 0 0)
(9.0745603e-05 1.1520687e-05 0 5.1978809e-05 0 0)
(7.9163908e-05 1.220095e-05 0 4.3684268e-05 0 0)
(6.5402554e-05 1.539344e-05 0 3.4727793e-05 0 0)
(5.2575393e-05 1.6672369e-05 0 2.8323576e-05 0 0)
(4.2079296e-05 1.7048221e-05 0 2.3706794e-05 0 0)
(3.4075829e-05 1.6197162e-05 0 2.141055e-05 0 0)
(2.8250742e-05 1.4695196e-05 0 1.9819714e-05 0 0)
(2.376407e-05 1.2944713e-05 0 1.8434813e-05 0 0)
(1.9992172e-05 1.1237855e-05 0 1.6939204e-05 0 0)
(1.6669669e-05 9.5545803e-06 0 1.5306131e-05 0 0)
(1.3709242e-05 7.912336e-06 0 1.3611077e-05 0 0)
(1.1190781e-05 6.3549394e-06 0 1.181616e-05 0 0)
(9.0831191e-06 4.9321598e-06 0 9.9817581e-06 0 0)
(7.3683192e-06 3.704768e-06 0 8.1294759e-06 0 0)
(5.9701845e-06 2.688361e-06 0 6.3590081e-06 0 0)
(4.8490538e-06 1.8957583e-06 0 4.7334191e-06 0 0)
(3.9485824e-06 1.2953638e-06 0 3.3237462e-06 0 0)
(3.238498e-06 8.6188677e-07 0 2.1634517e-06 0 0)
(2.684585e-06 5.5066963e-07 0 1.2670798e-06 0 0)
(2.2681836e-06 3.2880156e-07 0 6.2551858e-07 0 0)
(1.9728868e-06 1.6584251e-07 0 2.1851927e-07 0 0)
(1.7936411e-06 4.5622466e-08 0 2.3385486e-08 0 0)
(8.210331e-05 -2.8686216e-05 0 4.6221878e-05 0 0)
(0.0001127472 -3.1242603e-05 0 6.1755209e-05 0 0)
(0.00010684313 1.993495e-06 0 8.3914588e-05 0 0)
(0.00012504185 -1.0233454e-05 0 8.8433532e-05 0 0)
(0.00012159664 2.9697871e-07 0 8.885699e-05 0 0)
(0.00011994434 8.1038532e-07 0 8.1425581e-05 0 0)
(0.00010644001 1.0433794e-05 0 6.6785099e-05 0 0)
(8.6510598e-05 1.29936e-05 0 5.3049872e-05 0 0)
(6.7426672e-05 1.632755e-05 0 4.0011088e-05 0 0)
(5.1696179e-05 1.7467627e-05 0 3.1942405e-05 0 0)
(4.0179104e-05 1.7118607e-05 0 2.666158e-05 0 0)
(3.2203514e-05 1.5678921e-05 0 2.3830534e-05 0 0)
(2.6610607e-05 1.3914973e-05 0 2.1529379e-05 0 0)
(2.2230048e-05 1.2175399e-05 0 1.959997e-05 0 0)
(1.8543051e-05 1.0500659e-05 0 1.7694451e-05 0 0)
(1.5305598e-05 8.8292809e-06 0 1.5864933e-05 0 0)
(1.253411e-05 7.1788628e-06 0 1.3987733e-05 0 0)
(1.0221473e-05 5.6275749e-06 0 1.2073401e-05 0 0)
(8.3416441e-06 4.2560463e-06 0 1.0096836e-05 0 0)
(6.8047594e-06 3.1004225e-06 0 8.1511602e-06 0 0)
(5.5613151e-06 2.1894825e-06 0 6.303128e-06 0 0)
(4.5488963e-06 1.4973295e-06 0 4.6441808e-06 0 0)
(3.733669e-06 1.0026653e-06 0 3.225544e-06 0 0)
(3.0796163e-06 6.5540955e-07 0 2.0795603e-06 0 0)
(2.5673984e-06 4.1762729e-07 0 1.2074358e-06 0 0)
(2.1780869e-06 2.4979324e-07 0 5.9188706e-07 0 0)
(1.9030011e-06 1.2655e-07 0 2.056115e-07 0 0)
(1.7397046e-06 3.4670786e-08 0 2.1905425e-08 0 0)
(0.00015138335 -4.4445038e-05 0 5.0516161e-05 0 0)
(0.00016503471 -5.6825828e-05 0 9.2524204e-05 0 0)
(0.00015970122 -5.1614066e-05 0 0.00011008292 0 0)
(0.00015497382 1.6948469e-07 0 0.00013261374 0 0)
(0.00017139188 -1.6018581e-05 0 0.00013269174 0 0)
(0.00016115995 -5.6146483e-06 0 0.00012592801 0 0)
(0.0001481115 -1.3833601e-06 0 0.00010741111 0 0)
(0.00012205854 1.0247819e-05 0 8.2882828e-05 0 0)
(9.2894565e-05 1.4071994e-05 0 6.2451036e-05 0 0)
(6.8715068e-05 1.7321435e-05 0 4.5882901e-05 0 0)
(5.070459e-05 1.7667015e-05 0 3.6404236e-05 0 0)
(3.8717395e-05 1.6527115e-05 0 3.0076337e-05 0 0)
(3.0814915e-05 1.4752209e-05 0 2.6095217e-05 0 0)
(2.5205224e-05 1.304226e-05 0 2.2966409e-05 0 0)
(2.0783407e-05 1.1389892e-05 0 2.0477136e-05 0 0)
(1.7115534e-05 9.7502271e-06 0 1.8338434e-05 0 0)
(1.4026605e-05 8.0506723e-06 0 1.6326802e-05 0 0)
(1.1466327e-05 6.3799365e-06 0 1.4337399e-05 0 0)
(9.4066458e-06 4.8570023e-06 0 1.2264037e-05 0 0)
(7.7313818e-06 3.5476214e-06 0 1.0170769e-05 0 0)
(6.3704412e-06 2.5000723e-06 0 8.1162911e-06 0 0)
(5.2508153e-06 1.6978359e-06 0 6.2107847e-06 0 0)
(4.3331332e-06 1.1266169e-06 0 4.5235305e-06 0 0)
(3.5800217e-06 7.3249965e-07 0 3.1097099e-06 0 0)
(2.9699584e-06 4.7430074e-07 0 1.9859138e-06 0 0)
(2.4848237e-06 3.0209088e-07 0 1.1439532e-06 0 0)
(2.1143578e-06 1.8290818e-07 0 5.5723103e-07 0 0)
(1.852732e-06 9.3618705e-08 0 1.9262982e-07 0 0)
(1.7008686e-06 2.5553829e-08 0 2.0440358e-08 0 0)
(0.00027586354 -6.1441681e-05 0 6.477849e-05 0 0)
(0.00024487658 -9.0885659e-05 0 0.00011337828 0 0)
(0.00023262587 -9.253797e-05 0 0.00015968042 0 0)
(0.00022883834 -7.0881119e-05 0 0.00018577354 0 0)
(0.0002300273 -2.6757541e-06 0 0.00020421559 0 0)
(0.00023398093 -2.4257732e-05 0 0.00019048504 0 0)
(0.00020894758 -1.1041877e-05 0 0.00016950883 0 0)
(0.00017762823 -2.3990893e-06 0 0.00013615399 0 0)
(0.00013684543 1.0556022e-05 0 9.9467593e-05 0 0)
(9.8600199e-05 1.5369089e-05 0 7.264142e-05 0 0)
(6.9820708e-05 1.7687272e-05 0 5.3076318e-05 0 0)
(5.0280592e-05 1.6961818e-05 0 4.1553969e-05 0 0)
(3.7912548e-05 1.5397664e-05 0 3.3271753e-05 0 0)
(2.9714218e-05 1.3738402e-05 0 2.7918348e-05 0 0)
(2.3838455e-05 1.2200957e-05 0 2.3987223e-05 0 0)
(1.9296385e-05 1.0632234e-05 0 2.1189987e-05 0 0)
(1.5725896e-05 8.9521141e-06 0 1.8878108e-05 0 0)
(1.2839882e-05 7.1931821e-06 0 1.6778227e-05 0 0)
(1.0562489e-05 5.5160687e-06 0 1.4625349e-05 0 0)
(8.7424694e-06 4.0383416e-06 0 1.2414012e-05 0 0)
(7.2696504e-06 2.8348795e-06 0 1.0176928e-05 0 0)
(6.0506262e-06 1.9028209e-06 0 8.035118e-06 0 0)
(5.0368754e-06 1.2366321e-06 0 6.0747502e-06 0 0)
(4.1887933e-06 7.8150418e-07 0 4.3765109e-06 0 0)
(3.4820246e-06 4.9464947e-07 0 2.9776522e-06 0 0)
(2.8992497e-06 3.1617075e-07 0 1.8849918e-06 0 0)
(2.4313566e-06 2.0472366e-07 0 1.0779098e-06 0 0)
(2.071454e-06 1.2705759e-07 0 5.221754e-07 0 0)
(1.8179517e-06 6.6413976e-08 0 1.7976282e-07 0 0)
(1.6739057e-06 1.8058584e-08 0 1.9005323e-08 0 0)
(0.00048201796 -7.6127058e-05 -4.1461747e-26 7.4379035e-05 8.4722093e-26 1.6797089e-46)
(0.00038095592 -0.00011717374 0 0.00015033236 0 0)
(0.00032494921 -0.00014684465 0 0.00020953209 0 0)
(0.00032939676 -0.00013400836 0 0.00026126542 0 0)
(0.00033030492 -8.8256249e-05 0 0.00029378192 0 0)
(0.00033671923 -7.7558772e-06 0 0.00029972474 0 0)
(0.00031027544 -3.270664e-05 0 0.00025972419 0 0)
(0.00026056233 -1.5078289e-05 0 0.0002184044 0 0)
(0.00020737653 -2.8127519e-06 0 0.00016616782 0 0)
(0.00015108601 1.1623808e-05 0 0.00011735672 0 0)
(0.00010403489 1.5979808e-05 0 8.4838981e-05 0 0)
(7.1625201e-05 1.6821727e-05 0 6.1304293e-05 0 0)
(5.0695133e-05 1.5546944e-05 0 4.6346121e-05 0 0)
(3.7448228e-05 1.4194468e-05 0 3.5764194e-05 0 0)
(2.8570243e-05 1.2835177e-05 0 2.9125195e-05 0 0)
(2.2327899e-05 1.1454223e-05 0 2.4755555e-05 0 0)
(1.7777727e-05 9.8450752e-06 0 2.1790657e-05 0 0)
(1.440012e-05 8.0613798e-06 0 1.9436827e-05 0 0)
(1.1824526e-05 6.241767e-06 0 1.7187092e-05 0 0)
(9.8339861e-06 4.5815231e-06 0 1.4880577e-05 0 0)
(8.2513278e-06 3.20175e-06 0 1.2487077e-05 0 0)
(6.942723e-06 2.1188154e-06 0 1.0126695e-05 0 0)
(5.8424168e-06 1.3372593e-06 0 7.895741e-06 0 0)
(4.9068111e-06 8.0347402e-07 0 5.9013599e-06 0 0)
(4.1078516e-06 4.7603082e-07 0 4.204278e-06 0 0)
(3.4292942e-06 2.8565985e-07 0 2.8328693e-06 0 0)
(2.8614075e-06 1.8332764e-07 0 1.7791342e-06 0 0)
(2.4003023e-06 1.2361189e-07 0 1.0109921e-06 0 0)
(2.0446874e-06 8.1320719e-08 0 4.8740267e-07 0 0)
(1.7951565e-06 4.4266841e-08 0 1.6715203e-07 0 0)
(1.6561288e-06 1.1991974e-08 0 1.7611268e-08 0 0)
(0.00077522976 -9.0717553e-05 6.7759611e-26 9.2448617e-05 -1.3791705e-25 5.0827494e-46)
(0.00059433909 -0.00014877509 1.1169682e-25 0.00018819612 9.0623096e-27 1.8342783e-46)
(0.00046747079 -0.00018340802 0 0.00027222146 0 0)
(0.00043715308 -0.00021370692 0 0.00035216345 0 0)
(0.00046638133 -0.00018433665 0 0.00041216183 0 0)
(0.00047461099 -0.00010479116 0 0.0004386601 0 0)
(0.00047206278 -1.1675178e-05 0 0.00041433301 0 0)
(0.00039324191 -4.0892794e-05 0 0.0003409982 0 0)
(0.00031519008 -1.8590383e-05 0 0.00026987958 0 0)
(0.00023719824 -1.719844e-06 0 0.00019807312 0 0)
(0.00016485302 1.2311596e-05 0 0.00013835038 0 0)
(0.00011026734 1.4879802e-05 0 9.8596935e-05 0 0)
(7.4493483e-05 1.5013751e-05 0 6.8967881e-05 0 0)
(5.1497929e-05 1.409319e-05 0 5.0011078e-05 0 0)
(3.6796438e-05 1.321856e-05 0 3.7333099e-05 0 0)
(2.7121682e-05 1.2127307e-05 0 2.9936054e-05 0 0)
(2.0668507e-05 1.0719269e-05 0 2.5401143e-05 0 0)
(1.6284474e-05 8.9535251e-06 0 2.2456583e-05 0 0)
(1.3248259e-05 7.0379085e-06 0 1.9993071e-05 0 0)
(1.1016312e-05 5.1875624e-06 0 1.7582692e-05 0 0)
(9.3119662e-06 3.6092608e-06 0 1.5053334e-05 0 0)
(7.9214613e-06 2.3528825e-06 0 1.2494024e-05 0 0)
(6.7461885e-06 1.4339053e-06 0 1.0001661e-05 0 0)
(5.7330758e-06 8.0140696e-07 0 7.7057374e-06 0 0)
(4.8498421e-06 4.1715178e-07 0 5.6907498e-06 0 0)
(4.0808863e-06 2.0543435e-07 0 4.0114018e-06 0 0)
(3.4139226e-06 1.1019511e-07 0 2.6787918e-06 0 0)
(2.8488022e-06 7.2528349e-08 0 1.6699023e-06 0 0)
(2.3869938e-06 5.7899266e-08 0 9.4401709e-07 0 0)
(2.0302963e-06 4.4598848e-08 0 4.5323159e-07 0 0)
(1.7814868e-06 2.6554656e-08 0 1.548907e-07 0 0)
(1.645319e-06 7.185093e-09 0 1.6266367e-08 0 0)
(0.0011778033 -9.8372431e-05 -5.4752792e-26 0.00011071284 1.4755816e-25 5.1240716e-46)
(0.00088230309 -0.00017457519 -2.6082469e-25 0.00024250042 -6.1788637e-27 1.1357983e-45)
(0.00068683343 -0.00023205358 0 0.00035014346 0 0)
(0.00058799701 -0.00026220194 0 0.00045186582 0 0)
(0.00059546477 -0.00029707218 0 0.00056075493 0 0)
(0.00064789966 -0.00024252073 0 0.00062016241 0 0)
(0.00066191706 -0.00011601069 0 0.00061739996 0 0)
(0.00061985159 -1.59588e-05 0 0.00054514174 0 0)
(0.00048187972 -4.9261303e-05 0 0.00043014222 0 0)
(0.00037204879 -1.9973144e-05 0 0.00032420912 0 0)
(0.00026625481 -6.7099777e-07 0 0.0002345441 0 0)
(0.00017942921 1.0833613e-05 0 0.00016162649 0 0)
(0.00011782999 1.2512089e-05 0 0.00011143217 0 0)
(7.7721724e-05 1.3261913e-05 0 7.4837404e-05 0 0)
(5.1852501e-05 1.3036584e-05 0 5.2285766e-05 0 0)
(3.5591173e-05 1.2578993e-05 0 3.8277457e-05 0 0)
(2.5348218e-05 1.1501345e-05 0 3.0595667e-05 0 0)
(1.8963024e-05 9.8748753e-06 0 2.618465e-05 0 0)
(1.4969595e-05 7.8783898e-06 0 2.319145e-05 0 0)
(1.2342348e-05 5.8639506e-06 0 2.05774e-05 0 0)
(1.0462124e-05 4.0653406e-06 0 1.7897339e-05 0 0)
(8.9860133e-06 2.6115592e-06 0 1.5150803e-05 0 0)
(7.7456995e-06 1.5324338e-06 0 1.2407291e-05 0 0)
(6.6660174e-06 7.7952986e-07 0 9.8104793e-06 0 0)
(5.708553e-06 3.1909504e-07 0 7.4632009e-06 0 0)
(4.8575854e-06 7.1882249e-08 0 5.4489301e-06 0 0)
(4.0964375e-06 -2.2375752e-08 0 3.8027071e-06 0 0)
(3.4282602e-06 -3.6527495e-08 0 2.5179519e-06 0 0)
(2.8559692e-06 -1.6253639e-08 0 1.5599896e-06 0 0)
(2.3868601e-06 5.6183214e-09 0 8.7775565e-07 0 0)
(2.0251416e-06 1.5710351e-08 0 4.1990204e-07 0 0)
(1.77456e-06 1.2731098e-08 0 1.4305577e-07 0 0)
(1.6396311e-06 3.4980836e-09 0 1.4977864e-08 0 0)
(0.001681766 -0.00010357793 0 0.00013269385 0 0)
(0.0012644345 -0.0001948951 2.1831227e-25 0.00030439514 3.174163e-26 1.1396062e-45)
(0.00096660245 -0.00026656639 0 0.00044381121 0 0)
(0.00081259445 -0.00032998426 0 0.00058541664 0 0)
(0.00075939255 -0.00036364391 0 0.00071703396 0 0)
(0.00080511164 -0.00039817128 0 0.00084466823 0 0)
(0.00087068977 -0.00029091613 0 0.00088393715 0 0)
(0.00088181801 -0.00012045053 0 0.0008307564 0 0)
(0.00077170379 -2.339198e-05 0 0.00068320182 0 0)
(0.00057556594 -5.3768564e-05 0 0.0005261781 0 0)
(0.00042836104 -2.1074193e-05 0 0.00038556833 0 0)
(0.00029597824 -2.5756275e-06 0 0.00027428685 0 0)
(0.000195641 7.7342017e-06 0 0.00018338703 0 0)
(0.00012560665 1.0408646e-05 0 0.00012145377 0 0)
(8.0062181e-05 1.2133383e-05 0 7.8633024e-05 0 0)
(5.1272657e-05 1.2509218e-05 0 5.3562181e-05 0 0)
(3.3802207e-05 1.2137055e-05 0 3.9003113e-05 0 0)
(2.3406224e-05 1.0777139e-05 0 3.1503061e-05 0 0)
(1.7433641e-05 8.7796916e-06 0 2.7154217e-05 0 0)