# Forces       
# CofR         : (0.00000000e+00 0.00000000e+00 0.00000000e+00)
# Time         forces(pressure viscous porous) moment(pressure viscous porous)
1.06058433e+02	((9.78542329e-01 4.55644934e-03 -2.09366944e-19) (2.24582019e-01 1.21140518e-02 -8.17995232e-20) (0.00000000e+00 0.00000000e+00 0.00000000e+00)) ((-1.29230862e-20 1.53701757e-19 -5.35867920e-09) (-6.16906119e-19 3.51840548e-20 4.06537100e-03) (0.00000000e+00 0.00000000e+00 0.00000000e+00))
1.06121339e+02	((9.78366300e-01 -2.82090977e-03 -2.09175219e-19) (2.24600245e-01 1.14313108e-02 -8.67508303e-20) (0.00000000e+00 0.00000000e+00 0.00000000e+00)) ((-1.17766843e-20 1.53668750e-19 -5.08393700e-09) (-6.14902272e-19 4.00083721e-20 4.14808533e-03) (0.00000000e+00 0.00000000e+00 0.00000000e+00))
1.06184275e+02	((9.78435982e-01 -1.06752872e-02 -2.09107216e-19) (2.24619386e-01 1.07269731e-02 -9.16520728e-20) (0.00000000e+00 0.00000000e+00 0.00000000e+00)) ((-1.05560393e-20 1.53673136e-19 -4.79367861e-09) (-6.12738987e-19 4.47515831e-20 4.22514564e-03) (0.00000000e+00 0.00000000e+00 0.00000000e+00))
1.06247242e+02	((9.78331580e-01 -1.87852054e-02 -2.08783852e-19) (2.24637945e-01 9.99959208e-03 -9.55837614e-20) (0.00000000e+00 0.00000000e+00 0.00000000e+00)) ((-9.29509009e-21 1.53651461e-19 -4.49868595e-09) (-6.10971136e-19 4.87440606e-20 4.29722718e-03) (0.00000000e+00 0.00000000e+00 0.00000000e+00))
1.06310241e+02	((9.78166983e-01 -2.66407281e-02 -2.08570942e-19) (2.24654645e-01 9.25175880e-03 -9.94074556e-20) (0.00000000e+00 0.00000000e+00 0.00000000e+00)) ((-8.07212617e-21 1.53619894e-19 -4.18832030e-09) (-6.09296316e-19 5.27757720e-20 4.36390697e-03) (0.00000000e+00 0.00000000e+00 0.00000000e+00))
1.06373274e+02	((9.78065602e-01 -3.42822682e-02 -2.08127996e-19) (2.24668992e-01 8.48813509e-03 -1.03314890e-19) (0.00000000e+00 0.00000000e+00 0.00000000e+00)) ((-6.88338067e-21 1.53598101e-19 -3.87976038e-09) (-6.07827287e-19 5.71651716e-20 4.42502288e-03) (0.00000000e+00 0.00000000e+00 0.00000000e+00))
1.06436342e+02	((9.78034636e-01 -4.26959794e-02 -2.07916362e-19) (2.24682217e-01 7.70292832e-03 -1.07241019e-19) (0.00000000e+00 0.00000000e+00 0.00000000e+00)) ((-5.57423718e-21 1.53585240e-19 -3.54765429e-09) (-6.06403987e-19 6.17508305e-20 4.48074800e-03) (0.00000000e+00 0.00000000e+00 0.00000000e+00))
1.06499447e+02	((9.78053255e-01 -5.03475637e-02 -2.07439905e-19) (2.24695552e-01 6.90246873e-03 -1.09854293e-19) (0.00000000e+00 0.00000000e+00 0.00000000e+00)) ((-4.38073905e-21 1.53585087e-19 -3.20844554e-09) (-6.05236114e-19 6.51417800e-20 4.53084002e-03) (0.00000000e+00 0.00000000e+00 0.00000000e+00))
1.06562591e+02	((9.78117237e-01 -5.88604433e-02 -2.07352308e-19) (2.24709841e-01 6.07852621e-03 -1.11531097e-19) (0.00000000e+00 0.00000000e+00 0.00000000e+00)) ((-3.05541173e-21 1.53587371e-19 -2.85638209e-09) (-6.04303257e-19 6.77935013e-20 4.57325836e-03) (0.00000000e+00 0.00000000e+00 0.00000000e+00))
1.06625774e+02	((9.78148585e-01 -6.66178070e-02 -2.07008144e-19) (2.24724874e-01 5.24291582e-03 -1.10699023e-19) (0.00000000e+00 0.00000000e+00 0.00000000e+00)) ((-1.84665679e-21 1.53583124e-19 -2.50119874e-09) (-6.03600745e-19 6.80728328e-20 4.61272613e-03) (0.00000000e+00 0.00000000e+00 0.00000000e+00))
1.06688999e+02	((9.78337398e-01 -7.45591398e-02 -2.06631928e-19) (2.24741516e-01 4.39179207e-03 -1.09557008e-19) (0.00000000e+00 0.00000000e+00 0.00000000e+00)) ((-6.09241423e-22 1.53601603e-19 -2.13309867e-09) (-6.03002895e-19 6.81600309e-20 4.64441727e-03) (0.00000000e+00 0.00000000e+00 0.00000000e+00))
1.06752266e+02	((9.78462786e-01 -8.23521328e-02 -2.06288539e-19) (2.24759250e-01 3.52894481e-03 -1.08121363e-19) (0.00000000e+00 0.00000000e+00 0.00000000e+00)) ((6.06775476e-22 1.53613827e-19 -1.76031082e-09) (-6.02510366e-19 6.80666517e-20 4.66991134e-03) (0.00000000e+00 0.00000000e+00 0.00000000e+00))
1.06815577e+02	((9.78682664e-01 -9.05840466e-02 -2.06058480e-19) (2.24777873e-01 2.65092803e-03 -1.06423478e-19) (0.00000000e+00 0.00000000e+00 0.00000000e+00)) ((1.89066139e-21 1.53638502e-19 -1.37972773e-09) (-6.02125167e-19 6.79087335e-20 4.68899414e-03) (0.00000000e+00 0.00000000e+00 0.00000000e+00))
1.06878932e+02	((9.79091463e-01 -9.81048681e-02 -2.05870602e-19) (2.24799553e-01 1.76406548e-03 -1.03356750e-19) (0.00000000e+00 0.00000000e+00 0.00000000e+00)) ((3.06406496e-21 1.53691379e-19 -9.93497755e-10) (-6.02616333e-19 6.72642361e-20 4.70189788e-03) (0.00000000e+00 0.00000000e+00 0.00000000e+00))
1.06942334e+02	((9.78776865e-01 -1.05597501e-01 -2.05413731e-19) (2.24817859e-01 8.70106677e-04 -9.91581890e-20) (0.00000000e+00 0.00000000e+00 0.00000000e+00)) ((4.23116635e-21 1.53628843e-19 -6.06537806e-10) (-6.03146369e-19 6.56524530e-20 4.70779395e-03) (0.00000000e+00 0.00000000e+00 0.00000000e+00))
1.07005783e+02	((9.79116456e-01 -1.13392951e-01 -2.04891102e-19) (2.24838166e-01 -3.42731307e-05 -9.49314130e-20) (0.00000000e+00 0.00000000e+00 0.00000000e+00)) ((5.44497792e-21 1.53665548e-19 -2.04700545e-10) (-6.03814987e-19 6.40865704e-20 4.70614675e-03) (0.00000000e+00 0.00000000e+00 0.00000000e+00))
1.07069280e+02	((9.79380318e-01 -1.21044406e-01 -2.04692209e-19) (2.24860192e-01 -9.48148233e-04 -8.95819760e-20) (0.00000000e+00 0.00000000e+00 0.00000000e+00)) ((6.63657959e-21 1.53688869e-19 2.00321373e-10) (-6.04635026e-19 6.14091163e-20 4.69737484e-03) (0.00000000e+00 0.00000000e+00 0.00000000e+00))
1.07132826e+02	((9.79637612e-01 -1.27890403e-01 -2.04234153e-19) (2.24883623e-01 -1.86307110e-03 -8.47617879e-20) (0.00000000e+00 0.00000000e+00 0.00000000e+00)) ((7.70270142e-21 1.53711144e-19 6.18037449e-10) (-6.05913438e-19 5.89609119e-20 4.68221195e-03) (0.00000000e+00 0.00000000e+00 0.00000000e+00))
1.07196422e+02	((9.80203486e-01 -1.35856931e-01 -2.04127576e-19) (2.24911568e-01 -2.78873392e-03 -8.13922288e-20) (0.00000000e+00 0.00000000e+00 0.00000000e+00)) ((8.94347425e-21 1.53779755e-19 1.05210116e-09) (-6.06973608e-19 5.78525665e-20 4.66017383e-03) (0.00000000e+00 0.00000000e+00 0.00000000e+00))
1.07260068e+02	((9.80708691e-01 -1.42956267e-01 -2.03748185e-19) (2.24944022e-01 -3.71925340e-03 -8.06296115e-20) (0.00000000e+00 0.00000000e+00 0.00000000e+00)) ((1.00509146e-20 1.53843572e-19 1.47701390e-09) (-6.07408237e-19 5.92324613e-20 4.63074538e-03) (0.00000000e+00 0.00000000e+00 0.00000000e+00))
1.07323754e+02	((9.81130476e-01 -1.50181566e-01 -2.03452240e-19) (2.24980015e-01 -4.65404823e-03 -8.22133071e-20) (0.00000000e+00 0.00000000e+00 0.00000000e+00)) ((1.11757119e-20 1.53889023e-19 1.91788788e-09) (-6.07317930e-19 6.29175321e-20 4.59458401e-03) (0.00000000e+00 0.00000000e+00 0.00000000e+00))
1.07387381e+02	((9.81779094e-01 -1.56442847e-01 -2.02879988e-19) (2.25021428e-01 -5.58252980e-03 -8.46067606e-20) (0.00000000e+00 0.00000000e+00 0.00000000e+00)) ((1.21495716e-20 1.53964217e-19 2.36906047e-09) (-6.07221974e-19 6.73524081e-20 4.55211519e-03) (0.00000000e+00 0.00000000e+00 0.00000000e+00))
1.07450949e+02	((9.82247162e-01 -1.63728315e-01 -2.02543638e-19) (2.25065563e-01 -6.51392432e-03 -8.71417683e-20) (0.00000000e+00 0.00000000e+00 0.00000000e+00)) ((1.32820488e-20 1.54013081e-19 2.81277844e-09) (-6.07146454e-19 7.19836206e-20 4.50282217e-03) (0.00000000e+00 0.00000000e+00 0.00000000e+00))
1.07514458e+02	((9.82812472e-01 -1.70118642e-01 -2.02212407e-19) (2.25112417e-01 -7.44262343e-03 -8.44622471e-20) (0.00000000e+00 0.00000000e+00 0.00000000e+00)) ((1.42757829e-20 1.54079253e-19 3.25528900e-09) (-6.08142649e-19 7.15053136e-20 4.44705453e-03) (0.00000000e+00 0.00000000e+00 0.00000000e+00))
1.07577907e+02	((9.83480535e-01 -1.76172472e-01 -2.01727506e-19) (2.25163887e-01 -8.36376983e-03 -8.06293277e-20) (0.00000000e+00 0.00000000e+00 0.00000000e+00)) ((1.52196855e-20 1.54162055e-19 3.69958285e-09) (-6.09327983e-19 6.98733662e-20 4.38488193e-03) (0.00000000e+00 0.00000000e+00 0.00000000e+00))
1.07641296e+02	((9.84080695e-01 -1.82544476e-01 -2.01431826e-19) (2.25218388e-01 -9.28100815e-03 -7.21051850e-20) (0.00000000e+00 0.00000000e+00 0.00000000e+00)) ((1.62131602e-20 1.54238285e-19 4.14177971e-09) (-6.09765868e-19 6.36751330e-20 4.31614887e-03) (0.00000000e+00 0.00000000e+00 0.00000000e+00))
1.07704625e+02	((9.84731321e-01 -1.88712829e-01 -2.01074584e-19) (2.25276055e-01 -1.01945616e-02 -6.28899468e-20) (0.00000000e+00 0.00000000e+00 0.00000000e+00)) ((1.71737349e-20 1.54318724e-19 4.58055491e-09) (-6.10120367e-19 5.68509516e-20 4.24106767e-03) (0.00000000e+00 0.00000000e+00 0.00000000e+00))
1.07767894e+02	((9.85621474e-01 -1.93910099e-01 -2.00767871e-19) (2.25339132e-01 -1.10955252e-02 -5.57180228e-20) (0.00000000e+00 0.00000000e+00 0.00000000e+00)) ((1.79843810e-20 1.54433221e-19 5.02516496e-09) (-6.10411228e-19 5.20973999e-20 4.16008869e-03) (0.00000000e+00 0.00000000e+00 0.00000000e+00))
1.07831103e+02	((9.86416105e-01 -1.99072893e-01 -2.00343988e-19) (2.25406703e-01 -1.19827720e-02 -4.94657551e-20) (0.00000000e+00 0.00000000e+00 0.00000000e+00)) ((1.87890482e-20 1.54531945e-19 5.45202964e-09) (-6.10226959e-19 4.86150959e-20 4.07290137e-03) (0.00000000e+00 0.00000000e+00 0.00000000e+00))
1.07894255e+02	((9.87273780e-01 -2.04877636e-01 -2.00010493e-19) (2.25479044e-01 -1.28660563e-02 -4.35143148e-20) (0.00000000e+00 0.00000000e+00 0.00000000e+00)) ((1.96926872e-20 1.54634493e-19 5.88374494e-09) (-6.09917977e-19 4.57412881e-20 3.97800025e-03) (0.00000000e+00 0.00000000e+00 0.00000000e+00))
1.07957348e+02	((9.88078383e-01 -2.09716776e-01 -1.99651618e-19) (2.25555013e-01 -1.37380233e-02 -3.99725966e-20) (0.00000000e+00 0.00000000e+00 0.00000000e+00)) ((2.04439248e-20 1.54730974e-19 6.31909435e-09) (-6.09912606e-19 4.54052276e-20 3.87675036e-03) (0.00000000e+00 0.00000000e+00 0.00000000e+00))
1.08020383e+02	((9.88932140e-01 -2.14223764e-01 -1.99338402e-19) (2.25633860e-01 -1.45905600e-02 -3.93628387e-20) (0.00000000e+00 0.00000000e+00 0.00000000e+00)) ((2.11417151e-20 1.54838493e-19 6.73565828e-09) (-6.10125518e-19 4.79939459e-20 3.77357129e-03) (0.00000000e+00 0.00000000e+00 0.00000000e+00))
1.08083362e+02	((9.89521136e-01 -2.18375875e-01 -1.98923757e-19) (2.25712502e-01 -1.54277375e-02 -3.87650898e-20) (0.00000000e+00 0.00000000e+00 0.00000000e+00)) ((2.17859586e-20 1.54901858e-19 7.14964864e-09) (-6.10146618e-19 5.05980329e-20 3.66207057e-03) (0.00000000e+00 0.00000000e+00 0.00000000e+00))
1.08146285e+02	((9.90567400e-01 -2.22767882e-01 -1.98671406e-19) (2.25794777e-01 -1.62511806e-02 -3.78986126e-20) (0.00000000e+00 0.00000000e+00 0.00000000e+00)) ((2.24667343e-20 1.55036675e-19 7.54991505e-09) (-6.10144482e-19 5.29925449e-20 3.54482742e-03) (0.00000000e+00 0.00000000e+00 0.00000000e+00))
1.08209152e+02	((9.92002000e-01 -2.26547068e-01 -1.98649658e-19) (2.25885289e-01 -1.70557598e-02 -3.83885054e-20) (0.00000000e+00 0.00000000e+00 0.00000000e+00)) ((2.30515345e-20 1.55231117e-19 7.93678521e-09) (-6.10568174e-19 5.66981302e-20 3.42344611e-03) (0.00000000e+00 0.00000000e+00 0.00000000e+00))
1.08271965e+02	((9.92780533e-01 -2.29589416e-01 -1.98301511e-19) (2.25977280e-01 -1.78382563e-02 -4.28948795e-20) (0.00000000e+00 0.00000000e+00 0.00000000e+00)) ((2.35227857e-20 1.55323797e-19 8.28691807e-09) (-6.12983333e-19 6.41183479e-20 3.29467010e-03) (0.00000000e+00 0.00000000e+00 0.00000000e+00))
1.08334724e+02	((9.93429322e-01 -2.33032812e-01 -1.97888869e-19) (2.26068085e-01 -1.86030005e-02 -4.57770504e-20) (0.00000000e+00 0.00000000e+00 0.00000000e+00)) ((2.40558854e-20 1.55396816e-19 8.62314666e-09) (-6.15020313e-19 7.00340999e-20 3.15938251e-03) (0.00000000e+00 0.00000000e+00 0.00000000e+00))
1.08397431e+02	((9.94574599e-01 -2.35942485e-01 -1.97825627e-19) (2.26162499e-01 -1.93462506e-02 -4.70935112e-20) (0.00000000e+00 0.00000000e+00 0.00000000e+00)) ((2.45062314e-20 1.55548042e-19 8.94793181e-09) (-6.16248405e-19 7.45699829e-20 3.01982368e-03) (0.00000000e+00 0.00000000e+00 0.00000000e+00))
1.08460086e+02	((9.95533646e-01 -2.38485719e-01 -1.97518979e-19) (2.26259688e-01 -2.00672521e-02 -4.58638035e-20) (0.00000000e+00 0.00000000e+00 0.00000000e+00)) ((2.49004110e-20 1.55668236e-19 9.26381006e-09) (-6.17293355e-19 7.65621878e-20 2.87497034e-03) (0.00000000e+00 0.00000000e+00 0.00000000e+00))
1.08522690e+02	((9.96319474e-01 -2.40275155e-01 -1.97189647e-19) (2.26357428e-01 -2.07620654e-02 -4.30606927e-20) (0.00000000e+00 0.00000000e+00 0.00000000e+00)) ((2.51776045e-20 1.55764435e-19 9.56139700e-09) (-6.17743489e-19 7.69732850e-20 2.72330233e-03) (0.00000000e+00 0.00000000e+00 0.00000000e+00))
1.08585246e+02	((9.97319523e-01 -2.42551906e-01 -1.97150041e-19) (2.26457549e-01 -2.14379379e-02 -3.88392337e-20) (0.00000000e+00 0.00000000e+00 0.00000000e+00)) ((2.55289139e-20 1.55893356e-19 9.85681964e-09) (-6.15932180e-19 7.51998538e-20 2.56390141e-03) (0.00000000e+00 0.00000000e+00 0.00000000e+00))
1.08647753e+02	((9.98218644e-01 -2.44082626e-01 -1.96918084e-19) (2.26559019e-01 -2.20887292e-02 -3.57820116e-20) (0.00000000e+00 0.00000000e+00 0.00000000e+00)) ((2.57643719e-20 1.56007189e-19 1.01404390e-08) (-6.13871156e-19 7.44126195e-20 2.39988028e-03) (0.00000000e+00 0.00000000e+00 0.00000000e+00))
1.08710215e+02	((9.99197298e-01 -2.45182573e-01 -1.96518875e-19) (2.26662708e-01 -2.27100518e-02 -2.57580649e-20) (0.00000000e+00 0.00000000e+00 0.00000000e+00)) ((2.59323116e-20 1.56135917e-19 1.04114460e-08) (-6.11675348e-19 6.72607993e-20 2.23331536e-03) (0.00000000e+00 0.00000000e+00 0.00000000e+00))
1.08772631e+02	((1.00013258e+00 -2.45603283e-01 -1.96345519e-19) (2.26768482e-01 -2.32975743e-02 -1.60986111e-20) (0.00000000e+00 0.00000000e+00 0.00000000e+00)) ((2.59931540e-20 1.56258032e-19 1.06699973e-08) (-6.09817563e-19 6.05271007e-20 2.06344901e-03) (0.00000000e+00 0.00000000e+00 0.00000000e+00))
1.08835005e+02	((1.00108093e+00 -2.46502054e-01 -1.96277146e-19) (2.26876407e-01 -2.38579321e-02 -9.25297127e-21) (0.00000000e+00 0.00000000e+00 0.00000000e+00)) ((2.61293424e-20 1.56386125e-19 1.09021578e-08) (-6.08567221e-19 5.65294778e-20 1.89028897e-03) (0.00000000e+00 0.00000000e+00 0.00000000e+00))
1.08897336e+02	((1.00191317e+00 -2.46723780e-01 -1.96159962e-19) (2.26985162e-01 -2.43898775e-02 -2.89909355e-21) (0.00000000e+00 0.00000000e+00 0.00000000e+00)) ((2.61611478e-20 1.56491626e-19 1.11382512e-08) (-6.07574048e-19 5.29278710e-20 1.71308062e-03) (0.00000000e+00 0.00000000e+00 0.00000000e+00))
1.08959626e+02	((1.00278153e+00 -2.46472580e-01 -1.96066455e-19) (2.27094350e-01 -2.48908800e-02 1.70874112e-21) (0.00000000e+00 0.00000000e+00 0.00000000e+00)) ((2.61206558e-20 1.56602505e-19 1.13565793e-08) (-6.07549463e-19 5.04559252e-20 1.53219520e-03) (0.00000000e+00 0.00000000e+00 0.00000000e+00))
1.09021876e+02	((1.00346413e+00 -2.46326251e-01 -1.95908095e-19) (2.27202498e-01 -2.53648004e-02 6.58406856e-21) (0.00000000e+00 0.00000000e+00 0.00000000e+00)) ((2.60926457e-20 1.56685327e-19 1.15526625e-08) (-6.07670672e-19 4.75816678e-20 1.34672274e-03) (0.00000000e+00 0.00000000e+00 0.00000000e+00))
1.09084089e+02	((1.00428980e+00 -2.45467010e-01 -1.95840360e-19) (2.27310687e-01 -2.58071777e-02 1.18655452e-20) (0.00000000e+00 0.00000000e+00 0.00000000e+00)) ((2.59566937e-20 1.56792104e-19 1.17221671e-08) (-6.07645275e-19 4.42003431e-20 1.15787971e-03) (0.00000000e+00 0.00000000e+00 0.00000000e+00))
1.09146264e+02	((1.00518228e+00 -2.43853904e-01 -1.95698252e-19) (2.27419863e-01 -2.62097127e-02 1.74186660e-20) (0.00000000e+00 0.00000000e+00 0.00000000e+00)) ((2.57056907e-20 1.56906960e-19 1.18752448e-08) (-6.07158115e-19 4.03186736e-20 9.68767152e-04) (0.00000000e+00 0.00000000e+00 0.00000000e+00))
1.09208405e+02	((1.00614885e+00 -2.42193498e-01 -1.95808179e-19) (2.27531196e-01 -2.65765197e-02 2.29731891e-20) (0.00000000e+00 0.00000000e+00 0.00000000e+00)) ((2.54474972e-20 1.57031582e-19 1.20277327e-08) (-6.06682101e-19 3.64825497e-20 7.76576258e-04) (0.00000000e+00 0.00000000e+00 0.00000000e+00))
1.09270512e+02	((1.00660824e+00 -2.40431579e-01 -1.95495652e-19) (2.27640078e-01 -2.69100266e-02 2.76101652e-20) (0.00000000e+00 0.00000000e+00 0.00000000e+00)) ((2.51740977e-20 1.57081115e-19 1.21463146e-08) (-6.06305359e-19 3.34677300e-20 5.81804116e-04) (0.00000000e+00 0.00000000e+00 0.00000000e+00))
1.09332588e+02	((1.00708413e+00 -2.38226074e-01 -1.95371312e-19) (2.27745961e-01 -2.72089190e-02 3.08780522e-20) (0.00000000e+00 0.00000000e+00 0.00000000e+00)) ((2.48314656e-20 1.57136072e-19 1.22499834e-08) (-6.06629309e-19 3.15610140e-20 3.85480338e-04) (0.00000000e+00 0.00000000e+00 0.00000000e+00))
1.09394633e+02	((1.00775175e+00 -2.35428938e-01 -1.95506680e-19) (2.27851071e-01 -2.74693940e-02 3.39418847e-20) (0.00000000e+00 0.00000000e+00 0.00000000e+00)) ((2.43967581e-20 1.57221181e-19 1.23284585e-08) (-6.07040939e-19 2.97433898e-20 1.87967480e-04) (0.00000000e+00 0.00000000e+00 0.00000000e+00))
1.09456649e+02	((1.00795518e+00 -2.32376716e-01 -1.95253519e-19) (2.27951190e-01 -2.76914134e-02 3.75699855e-20) (0.00000000e+00 0.00000000e+00 0.00000000e+00)) ((2.39227602e-20 1.57235021e-19 1.23979355e-08) (-6.07134527e-19 2.75696815e-20 -1.06630759e-05) (0.00000000e+00 0.00000000e+00 0.00000000e+00))
1.09518639e+02	((1.00863754e+00 -2.29373784e-01 -1.95479387e-19) (2.28050627e-01 -2.78787047e-02 4.11336029e-20) (0.00000000e+00 0.00000000e+00 0.00000000e+00)) ((2.34560296e-20 1.57322329e-19 1.24572495e-08) (-6.07059084e-19 2.53589488e-20 -2.10368074e-04) (0.00000000e+00 0.00000000e+00 0.00000000e+00))
1.09580604e+02	((1.00907451e+00 -2.25388914e-01 -1.95302778e-19) (2.28148324e-01 -2.80260959e-02 4.41507700e-20) (0.00000000e+00 0.00000000e+00 0.00000000e+00)) ((2.28373139e-20 1.57373467e-19 1.24917251e-08) (-6.06804563e-19 2.33083405e-20 -4.11355602e-04) (0.00000000e+00 0.00000000e+00 0.00000000e+00))
1.09642546e+02	((1.00958669e+00 -2.21491666e-01 -1.95202810e-19) (2.28244747e-01 -2.81354990e-02 4.68081357e-20) (0.00000000e+00 0.00000000e+00 0.00000000e+00)) ((2.22324833e-20 1.57436070e-19 1.25166107e-08) (-6.06465253e-19 2.13741174e-20 -6.13200195e-04) (0.00000000e+00 0.00000000e+00 0.00000000e+00))
1.09704467e+02	((1.01000634e+00 -2.17039464e-01 -1.95343219e-19) (2.28339153e-01 -2.82052686e-02 4.91673629e-20) (0.00000000e+00 0.00000000e+00 0.00000000e+00)) ((2.15422911e-20 1.57484962e-19 1.25252808e-08) (-6.06132014e-19 1.95376073e-20 -8.15554407e-04) (0.00000000e+00 0.00000000e+00 0.00000000e+00))
1.09766368e+02	((1.01006135e+00 -2.12704797e-01 -1.95263428e-19) (2.28427937e-01 -2.82390995e-02 5.12826381e-20) (0.00000000e+00 0.00000000e+00 0.00000000e+00)) ((2.08711969e-20 1.57477392e-19 1.25211547e-08) (-6.05880668e-19 1.78274460e-20 -1.01821702e-03) (0.00000000e+00 0.00000000e+00 0.00000000e+00))
1.09828252e+02	((1.01032200e+00 -2.07723344e-01 -1.95370964e-19) (2.28512885e-01 -2.82343446e-02 5.47519780e-20) (0.00000000e+00 0.00000000e+00 0.00000000e+00)) ((2.01001422e-20 1.57503561e-19 1.24952508e-08) (-6.04715209e-19 1.49873873e-20 -1.22071441e-03) (0.00000000e+00 0.00000000e+00 0.00000000e+00))
1.09890120e+02	((1.01058460e+00 -2.02342275e-01 -1.95567019e-19) (2.28595242e-01 -2.81894186e-02 5.90076308e-20) (0.00000000e+00 0.00000000e+00 0.00000000e+00)) ((1.92686018e-20 1.57530670e-19 1.24616594e-08) (-6.03379561e-19 1.15425151e-20 -1.42271828e-03) (0.00000000e+00 0.00000000e+00 0.00000000e+00))
1.09951975e+02	((1.01055246e+00 -1.97233863e-01 -1.95432340e-19) (2.28672008e-01 -2.81132157e-02 6.35318724e-20) (0.00000000e+00 0.00000000e+00 0.00000000e+00)) ((1.84805527e-20 1.57511299e-19 1.24243695e-08) (-6.02350267e-19 7.97215500e-21 -1.62659914e-03) (0.00000000e+00 0.00000000e+00 0.00000000e+00))
1.10013818e+02	((1.01088279e+00 -1.90685709e-01 -1.95568420e-19) (2.28747673e-01 -2.79880172e-02 6.80790527e-20) (0.00000000e+00 0.00000000e+00 0.00000000e+00)) ((1.74680668e-20 1.57551412e-19 1.23494015e-08) (-6.01383477e-19 4.31268112e-21 -1.82676976e-03) (0.00000000e+00 0.00000000e+00 0.00000000e+00))
1.10075650e+02	((1.01120110e+00 -1.84310348e-01 -1.96011569e-19) (2.28821865e-01 -2.78198487e-02 7.26773356e-20) (0.00000000e+00 0.00000000e+00 0.00000000e+00)) ((1.64828401e-20 1.57588916e-19 1.22731796e-08) (-6.00440091e-19 5.71414001e-22 -2.02638256e-03) (0.00000000e+00 0.00000000e+00 0.00000000e+00))
1.10137475e+02	((1.01091922e+00 -1.78108417e-01 -1.96114067e-19) (2.28889629e-01 -2.76148511e-02 7.74177807e-20) (0.00000000e+00 0.00000000e+00 0.00000000e+00)) ((1.55260076e-20 1.57532717e-19 1.21913230e-08) (-5.99539334e-19 -3.30852680e-21 -2.22497306e-03) (0.00000000e+00 0.00000000e+00 0.00000000e+00))
1.10199295e+02	((1.01077156e+00 -1.71099717e-01 -1.96007370e-19) (2.28951946e-01 -2.73714224e-02 8.13092180e-20) (0.00000000e+00 0.00000000e+00 0.00000000e+00)) ((1.44445508e-20 1.57500162e-19 1.20796035e-08) (-5.99428921e-19 -6.87289275e-21 -2.42359965e-03) (0.00000000e+00 0.00000000e+00 0.00000000e+00))
1.10261110e+02	((1.01055750e+00 -1.64061796e-01 -1.96143986e-19) (2.29008899e-01 -2.70912671e-02 8.38162345e-20) (0.00000000e+00 0.00000000e+00 0.00000000e+00)) ((1.33608503e-20 1.57457545e-19 1.19518980e-08) (-6.00262927e-19 -9.54173410e-21 -2.62220425e-03) (0.00000000e+00 0.00000000e+00 0.00000000e+00))
1.10322924e+02	((1.01026540e+00 -1.56475383e-01 -1.96262918e-19) (2.29058953e-01 -2.67660044e-02 9.24241737e-20) (0.00000000e+00 0.00000000e+00 0.00000000e+00)) ((1.21929440e-20 1.57402223e-19 1.18218679e-08) (-5.97275529e-19 -1.70748088e-20 -2.81593473e-03) (0.00000000e+00 0.00000000e+00 0.00000000e+00))
1.10384738e+02	((1.01007735e+00 -1.49154915e-01 -1.96395039e-19) (2.29103794e-01 -2.64016606e-02 1.01966175e-19) (0.00000000e+00 0.00000000e+00 0.00000000e+00)) ((1.10676746e-20 1.57363773e-19 1.16830235e-08) (-5.93836390e-19 -2.56628610e-20 -3.00523735e-03) (0.00000000e+00 0.00000000e+00 0.00000000e+00))
1.10446555e+02	((1.01005031e+00 -1.41258440e-01 -1.96736926e-19) (2.29146652e-01 -2.59996072e-02 1.12404187e-19) (0.00000000e+00 0.00000000e+00 0.00000000e+00)) ((9.85370271e-21 1.57350588e-19 1.15313136e-08) (-5.89637246e-19 -3.48144395e-20 -3.19219536e-03) (0.00000000e+00 0.00000000e+00 0.00000000e+00))
1.10508377e+02	((1.00962987e+00 -1.32975366e-01 -1.96745196e-19) (2.29186486e-01 -2.55577369e-02 1.26503160e-19) (0.00000000e+00 0.00000000e+00 0.00000000e+00)) ((8.58118212e-21 1.57276324e-19 1.13676021e-08) (-5.83147771e-19 -4.67566471e-20 -3.37421348e-03) (0.00000000e+00 0.00000000e+00 0.00000000e+00))
1.10570205e+02	((1.00935918e+00 -1.24376578e-01 -1.96944413e-19) (2.29221526e-01 -2.50753814e-02 1.30811152e-19) (0.00000000e+00 0.00000000e+00 0.00000000e+00)) ((7.25849509e-21 1.57228750e-19 1.11825754e-08) (-5.82435524e-19 -5.09729937e-20 -3.55337033e-03) (0.00000000e+00 0.00000000e+00 0.00000000e+00))
1.10632041e+02	((1.00909130e+00 -1.15705386e-01 -1.97140514e-19) (2.29250615e-01 -2.45545986e-02 1.33381832e-19) (0.00000000e+00 0.00000000e+00 0.00000000e+00)) ((5.92680295e-21 1.57180827e-19 1.09866793e-08) (-5.82540942e-19 -5.37675965e-20 -3.73057002e-03) (0.00000000e+00 0.00000000e+00 0.00000000e+00))
1.10693889e+02	((1.00871645e+00 -1.06894979e-01 -1.97257063e-19) (2.29276436e-01 -2.39962096e-02 1.37227029e-19) (0.00000000e+00 0.00000000e+00 0.00000000e+00)) ((4.57416982e-21 1.57117283e-19 1.07826683e-08) (-5.80731478e-19 -5.59312710e-20 -3.90460548e-03) (0.00000000e+00 0.00000000e+00 0.00000000e+00))
1.10755750e+02	((1.00831208e+00 -9.80519829e-02 -1.97521416e-19) (2.29298030e-01 -2.34026066e-02 1.40721041e-19) (0.00000000e+00 0.00000000e+00 0.00000000e+00)) ((3.21800580e-21 1.57049515e-19 1.05705155e-08) (-5.79006611e-19 -5.78986033e-20 -4.07436485e-03) (0.00000000e+00 0.00000000e+00 0.00000000e+00))
1.10817626e+02	((1.00785083e+00 -8.91884721e-02 -1.97812330e-19) (2.29314211e-01 -2.27766664e-02 1.44053822e-19) (0.00000000e+00 0.00000000e+00 0.00000000e+00)) ((1.85816286e-21 1.56973276e-19 1.03494808e-08) (-5.77251475e-19 -5.98164790e-20 -4.23920482e-03) (0.00000000e+00 0.00000000e+00 0.00000000e+00))
1.10879518e+02	((1.00751847e+00 -7.94161396e-02 -1.97986900e-19) (2.29327294e-01 -2.21125299e-02 1.45746088e-19) (0.00000000e+00 0.00000000e+00 0.00000000e+00)) ((3.57560829e-22 1.56923029e-19 1.00891717e-08) (-5.76084533e-19 -6.04955765e-20 -4.39906948e-03) (0.00000000e+00 0.00000000e+00 0.00000000e+00))
1.10941431e+02	((1.00733781e+00 -6.93507506e-02 -1.98358120e-19) (2.29339977e-01 -2.14078960e-02 1.46236938e-19) (0.00000000e+00 0.00000000e+00 0.00000000e+00)) ((-1.18746353e-21 1.56896030e-19 9.82470531e-09) (-5.75198641e-19 -6.01656760e-20 -4.55413872e-03) (0.00000000e+00 0.00000000e+00 0.00000000e+00))
1.11003364e+02	((1.00666979e+00 -5.93582857e-02 -1.98482231e-19) (2.29347612e-01 -2.06649229e-02 1.42748763e-19) (0.00000000e+00 0.00000000e+00 0.00000000e+00)) ((-2.71896647e-21 1.56793421e-19 9.55298268e-09) (-5.76509149e-19 -5.66330859e-20 -4.70386187e-03) (0.00000000e+00 0.00000000e+00 0.00000000e+00))
1.11065321e+02	((1.00619730e+00 -4.98346153e-02 -1.98675017e-19) (2.29350441e-01 -1.98917786e-02 1.36970342e-19) (0.00000000e+00 0.00000000e+00 0.00000000e+00)) ((-4.18199188e-21 1.56721616e-19 9.27833522e-09) (-5.78899546e-19 -5.12935333e-20 -4.84825056e-03) (0.00000000e+00 0.00000000e+00 0.00000000e+00))
1.11127303e+02	((1.00561229e+00 -3.94542594e-02 -1.98736762e-19) (2.29347462e-01 -1.90842856e-02 1.30488714e-19) (0.00000000e+00 0.00000000e+00 0.00000000e+00)) ((-5.77568296e-21 1.56638204e-19 8.96982886e-09) (-5.81558219e-19 -4.54738198e-20 -4.98690907e-03) (0.00000000e+00 0.00000000e+00 0.00000000e+00))
1.11189314e+02	((1.00530732e+00 -2.92826049e-02 -1.99123201e-19) (2.29342037e-01 -1.82443944e-02 1.24172353e-19) (0.00000000e+00 0.00000000e+00 0.00000000e+00)) ((-7.33671913e-21 1.56598043e-19 8.65779939e-09) (-5.84826393e-19 -4.10954580e-20 -5.11929498e-03) (0.00000000e+00 0.00000000e+00 0.00000000e+00))
1.11251354e+02	((1.00500569e+00 -1.82956115e-02 -1.99531661e-19) (2.29336397e-01 -1.73661184e-02 1.19927558e-19) (0.00000000e+00 0.00000000e+00 0.00000000e+00)) ((-9.02478955e-21 1.56560722e-19 8.31744750e-09) (-5.87303913e-19 -3.91938576e-20 -5.24525200e-03) (0.00000000e+00 0.00000000e+00 0.00000000e+00))
1.11313428e+02	((1.00429821e+00 -7.66660303e-03 -1.99553280e-19) (2.29327388e-01 -1.64534487e-02 1.15607374e-19) (0.00000000e+00 0.00000000e+00 0.00000000e+00)) ((-1.06562630e-20 1.56460988e-19 7.97636441e-09) (-5.89763157e-19 -3.74086342e-20 -5.36426527e-03) (0.00000000e+00 0.00000000e+00 0.00000000e+00))
1.11375536e+02	((1.00412157e+00 2.48348598e-03 -1.99869310e-19) (2.29319656e-01 -1.55153971e-02 1.10133900e-19) (0.00000000e+00 0.00000000e+00 0.00000000e+00)) ((-1.22180696e-20 1.56449231e-19 7.60243131e-09) (-5.91978521e-19 -3.49181161e-20 -5.47762272e-03) (0.00000000e+00 0.00000000e+00 0.00000000e+00))
1.11437682e+02	((1.00382340e+00 1.34341194e-02 -2.00220856e-19) (2.29312549e-01 -1.45478751e-02 1.07936325e-19) (0.00000000e+00 0.00000000e+00 0.00000000e+00)) ((-1.39056851e-20 1.56418249e-19 7.21725584e-09) (-5.92166282e-19 -3.50542991e-20 -5.58472476e-03) (0.00000000e+00 0.00000000e+00 0.00000000e+00))
1.11499867e+02	((1.00330554e+00 2.41314306e-02 -2.00300632e-19) (2.29302765e-01 -1.35538122e-02 1.11224998e-19) (0.00000000e+00 0.00000000e+00 0.00000000e+00)) ((-1.55431093e-20 1.56351153e-19 6.83599269e-09) (-5.90874110e-19 -4.04632140e-20 -5.68549337e-03) (0.00000000e+00 0.00000000e+00 0.00000000e+00))
1.11562094e+02	((1.00318021e+00 3.50871377e-02 -2.00884208e-19) (2.29292291e-01 -1.25326702e-02 1.16538097e-19) (0.00000000e+00 0.00000000e+00 0.00000000e+00)) ((-1.72304152e-20 1.56360570e-19 6.41076100e-09) (-5.89779867e-19 -4.76009866e-20 -5.77993967e-03) (0.00000000e+00 0.00000000e+00 0.00000000e+00))
1.11624364e+02	((1.00281986e+00 4.67484484e-02 -2.01280702e-19) (2.29281193e-01 -1.14774222e-02 1.20276912e-19) (0.00000000e+00 0.00000000e+00 0.00000000e+00)) ((-1.90235843e-20 1.56328679e-19 5.97270419e-09) (-5.88660363e-19 -5.32875025e-20 -5.86691462e-03) (0.00000000e+00 0.00000000e+00 0.00000000e+00))
1.11686680e+02	((1.00267993e+00 5.67053037e-02 -2.01594415e-19) (2.29271914e-01 -1.04053325e-02 1.24201490e-19) (0.00000000e+00 0.00000000e+00 0.00000000e+00)) ((-2.05554824e-20 1.56331873e-19 5.53328307e-09) (-5.87538340e-19 -5.92267939e-20 -5.94683793e-03) (0.00000000e+00 0.00000000e+00 0.00000000e+00))
1.11749043e+02	((1.00256252e+00 6.75155287e-02 -2.01834206e-19) (2.29264631e-01 -9.31387479e-03 1.27975162e-19) (0.00000000e+00 0.00000000e+00 0.00000000e+00)) ((-2.22225363e-20 1.56344337e-19 5.07374421e-09) (-5.86493691e-19 -6.50974735e-20 -6.01984202e-03) (0.00000000e+00 0.00000000e+00 0.00000000e+00))
1.11811455e+02	((1.00235579e+00 7.94533965e-02 -2.02343282e-19) (2.29257494e-01 -8.19076994e-03 1.32245911e-19) (0.00000000e+00 0.00000000e+00 0.00000000e+00)) ((-2.40630979e-20 1.56347182e-19 4.58830778e-09) (-5.85812604e-19 -7.17755885e-20 -6.08481875e-03) (0.00000000e+00 0.00000000e+00 0.00000000e+00))
1.11873918e+02	((1.00236371e+00 9.01931910e-02 -2.02710697e-19) (2.29252118e-01 -7.04618644e-03 1.35128039e-19) (0.00000000e+00 0.00000000e+00 0.00000000e+00)) ((-2.57168073e-20 1.56373103e-19 4.08582596e-09) (-5.85943642e-19 -7.73769688e-20 -6.14224936e-03) (0.00000000e+00 0.00000000e+00 0.00000000e+00))
1.11936433e+02	((1.00243330e+00 1.00545858e-01 -2.03026153e-19) (2.29247680e-01 -5.88597580e-03 1.36633625e-19) (0.00000000e+00 0.00000000e+00 0.00000000e+00)) ((-2.73119024e-20 1.56413411e-19 3.58446541e-09) (-5.86834041e-19 -8.15902178e-20 -6.18932250e-03) (0.00000000e+00 0.00000000e+00 0.00000000e+00))
1.11999004e+02	((1.00237674e+00 1.12528378e-01 -2.03241845e-19) (2.29244063e-01 -4.69981656e-03 1.36796092e-19) (0.00000000e+00 0.00000000e+00 0.00000000e+00)) ((-2.91636411e-20 1.56446194e-19 3.05169543e-09) (-5.87974979e-19 -8.46323462e-20 -6.22958781e-03) (0.00000000e+00 0.00000000e+00 0.00000000e+00))
1.12061631e+02	((1.00259033e+00 1.22802103e-01 -2.03857364e-19) (2.29244351e-01 -3.50166052e-03 1.34045884e-19) (0.00000000e+00 0.00000000e+00 0.00000000e+00)) ((-3.07517631e-20 1.56520316e-19 2.51229535e-09) (-5.89336839e-19 -8.48428028e-20 -6.26282738e-03) (0.00000000e+00 0.00000000e+00 0.00000000e+00))