# Forces       
# CofR         : (0.00000000e+00 0.00000000e+00 0.00000000e+00)
# Time         forces(pressure viscous porous) moment(pressure viscous porous)
1.06058433e+02	((9.78887668e-01 4.58274221e-03 -2.09310037e-19) (2.24581459e-01 1.21307225e-02 -8.22839679e-20) (0.00000000e+00 0.00000000e+00 0.00000000e+00)) ((-1.29277867e-20 1.53753367e-19 -5.37257419e-09) (-6.16860411e-19 3.51946970e-20 4.05195143e-03) (0.00000000e+00 0.00000000e+00 0.00000000e+00))
1.06121336e+02	((9.78697345e-01 -2.49463697e-03 -2.09128556e-19) (2.24598678e-01 1.14716615e-02 -8.78193449e-20) (0.00000000e+00 0.00000000e+00 0.00000000e+00)) ((-1.18279665e-20 1.53718127e-19 -5.10184780e-09) (-6.14744091e-19 4.00229522e-20 4.11717691e-03) (0.00000000e+00 0.00000000e+00 0.00000000e+00))
