/*--------------------------------*- C++ -*----------------------------------*\
| =========                 |                                                 |
| \\      /  F ield         | OpenFOAM: The Open Source CFD Toolbox           |
|  \\    /   O peration     | Version:  5.0                                   |
|   \\  /    A nd           | Web:      www.OpenFOAM.org                      |
|    \\/     M anipulation  |                                                 |
\*---------------------------------------------------------------------------*/
FoamFile
{
    version     2.0;
    format      ascii;
    class       volScalarField;
    location    "360";
    object      ddt0(nuTilda);
}
// * * * * * * * * * * * * * * * * * * * * * * * * * * * * * * * * * * * * * //

dimensions      [0 2 -2 0 0 0 0];

internalField   nonuniform List<scalar> 
9520
(
8.3338718e-38
-5.4771178e-35
-1.0749469e-35
-6.8147442e-33
-1.2428931e-33
-1.5614161e-35
-3.8240117e-31
-6.872206e-32
-1.709936e-33
-7.7056912e-36
-1.3692514e-29
-2.4045934e-30
-8.8678298e-32
-6.7176366e-34
1.1496561e-35
-3.5668612e-28
-6.0352296e-29
-2.8819981e-30
-2.4588216e-32
1.624443e-33
3.3164067e-35
-7.2465139e-27
-1.176782e-27
-6.6183109e-29
-4.1339663e-31
1.0497586e-31
3.9982475e-33
4.4540722e-35
-1.1808282e-25
-1.8688665e-26
-1.1591393e-27
1.3189009e-30
4.1737764e-30
2.2706068e-31
4.865947e-33
3.4373703e-35
-1.5687157e-24
-2.4655211e-25
-1.6209951e-26
2.6121568e-28
1.1660267e-28
8.0919355e-30
2.5045457e-31
3.0421441e-33
-1.2663125e-36
-1.7089171e-23
-2.7122428e-24
-1.8476999e-25
7.9370563e-27
2.4813491e-27
2.0469218e-28
8.0731537e-30
1.1762163e-31
-1.5337335e-33
-5.4075504e-35
-1.51732e-22
-2.4426884e-23
-1.7441507e-24
1.554381e-25
4.237179e-26
3.9586672e-27
1.831278e-28
2.4106532e-30
-1.5389458e-31
-7.4242934e-33
-1.0305241e-34
-1.0893886e-21
-1.671989e-22
-1.3583837e-23
2.2447291e-24
6.0040439e-25
6.1472749e-26
3.1154297e-27
1.7888275e-29
-7.6027696e-30
-4.6144762e-31
-1.1966196e-32
-1.2074877e-34
3.8809293e-21
-4.015754e-22
-8.6619244e-23
2.499893e-23
7.1502674e-24
7.9430863e-25
4.1157553e-26
-5.0226188e-28
-2.4204005e-28
-1.764744e-29
-6.4985936e-31
-1.2226675e-32
-8.5134265e-35
1.7573772e-18
4.1731466e-20
-5.1845855e-22
2.0695943e-22
7.2112358e-23
8.7430761e-24
4.3152718e-25
-2.1912242e-26
-5.615086e-27
-4.7254566e-28
-2.2080484e-29
-5.7441759e-31
-6.3906822e-33
7.3009562e-36
1.5045293e-16
3.3810799e-18
-2.4985549e-21
7.8387055e-22
6.1343724e-22
8.3825806e-23
3.6679447e-24
-4.7845851e-25
-1.0210933e-25
-9.5555607e-27
-5.2931944e-28
-1.6507132e-29
-1.7427628e-31
4.9876113e-33
1.3397054e-34
8.0501249e-15
1.8517085e-16
-4.8512643e-19
-3.9498662e-20
4.1782959e-21
7.2153847e-22
2.6339719e-23
-7.4366246e-24
-1.5210085e-24
-1.5376473e-25
-9.5549365e-27
-3.2040277e-28
-1.6573527e-31
4.7377025e-31
1.8560728e-32
2.5001822e-34
3.0032696e-13
7.3436642e-15
-7.8062751e-17
-3.8209626e-18
-5.0776313e-21
5.7975044e-21
1.8649047e-22
-9.097555e-23
-1.8983712e-23
-2.0454364e-24
-1.3510936e-25
-4.2504494e-27
1.3906135e-28
2.2775528e-29
1.1535531e-30
2.9053696e-32
3.0386541e-34
7.844389e-12
2.0927739e-13
-5.8880399e-15
-2.6181642e-16
-2.5894087e-18
4.1537143e-20
1.7854433e-21
-9.1322503e-22
-2.0318414e-22
-2.3009446e-23
-1.5384956e-24
-3.273473e-26
5.3929363e-27
7.1004e-28
4.3879796e-29
1.5757514e-30
3.1227955e-32
2.5793534e-34
1.4622201e-10
4.2865731e-12
-2.7931528e-13
-1.3316786e-14
-1.601063e-16
3.4246551e-19
3.4806207e-20
-7.6050207e-21
-1.9056362e-21
-2.2383438e-22
-1.4273971e-23
5.2364305e-26
1.271751e-25
1.608161e-26
1.164018e-27
5.3294858e-29
1.492392e-30
2.2078979e-32
1.0495431e-34
1.8421765e-09
6.0381998e-11
-8.772345e-12
-4.963093e-13
-6.7971462e-15
3.8791152e-17
2.127146e-18
-3.7309586e-20
-1.5975949e-20
-1.9305769e-21
-1.0768939e-22
6.2017982e-24
2.2308461e-24
2.8436638e-25
2.3186687e-26
1.2661803e-27
4.3833068e-29
8.078246e-31
2.2408045e-33
-1.2694018e-34
1.553526e-08
5.8544801e-10
-1.8694813e-10
-1.33576e-11
-2.0249293e-13
3.8816289e-15
1.705757e-16
1.6842299e-18
-1.1599834e-19
-1.5211983e-20
-6.515664e-22
1.1668008e-22
3.107828e-23
4.1032558e-24
3.6497126e-25
2.2529171e-26
8.7680822e-28
1.4440047e-29
-3.6894689e-31
-2.3960942e-32
-3.8132626e-34
8.3311291e-08
3.0592905e-09
-2.60915e-09
-2.5370236e-10
-4.1346943e-12
2.2375728e-13
1.069135e-14
1.5849632e-16
-2.7475098e-19
-1.1460012e-19
-3.09215e-21
1.4916307e-21
3.5941424e-22
4.9355374e-23
4.7064074e-24
3.1149458e-25
1.2271453e-26
2.4831961e-29
-2.8732817e-29
-1.7512317e-30
-4.9704375e-32
-5.8931528e-34
3.0748219e-07
7.0301626e-09
-2.4705313e-08
-3.2255172e-09
-5.3637414e-11
8.2664189e-12
4.8380484e-13
9.120488e-15
2.2500136e-17
-1.1874969e-18
-1.4245105e-20
1.5146854e-20
3.5552566e-21
5.0552153e-22
5.0604515e-23
3.4183208e-24
1.1038926e-25
-5.9643173e-27
-1.0843012e-27
-7.4241394e-29
-2.9581672e-30
-6.7598994e-32
-6.8837916e-34
8.0143457e-07
-1.6024912e-08
-1.54284e-07
-2.8010165e-08
-2.8203477e-10
1.9908582e-10
1.5475746e-11
3.7030359e-13
1.8579661e-16
-5.5443649e-17
-4.0172259e-19
1.2843704e-19
3.0793111e-20
4.496393e-21
4.5997505e-22
2.9637357e-23
2.8086235e-25
-1.9606751e-25
-2.7346259e-26
-2.136146e-27
-1.0883394e-28
-3.6211082e-30
-7.1691424e-32
-6.3838201e-34
1.5460064e-06
-1.8057018e-07
-6.5679495e-07
-1.6452996e-07
1.2339849e-09
3.0316731e-09
3.4160143e-10
1.0496384e-11
-6.0482708e-14
-4.2432802e-15
-3.636173e-17
8.3579829e-19
2.384618e-19
3.5445953e-20
3.5763585e-21
1.9281737e-22
-1.0462219e-23
-3.9295332e-24
-5.203601e-25
-4.5452318e-26
-2.8063544e-27
-1.2107872e-28
-3.4807791e-30
-5.8962881e-32
-4.3065244e-34
2.5179081e-06
-5.5164356e-07
-1.9161384e-06
-6.1640987e-07
3.0916506e-08
3.0851068e-08
5.0887717e-09
2.0223536e-10
-4.1261819e-12
-2.3730282e-13
-2.5664955e-15
-5.6110412e-18
1.6590227e-18
2.5346735e-19
2.4101665e-20
7.450197e-22
-2.3856783e-22
-5.8615866e-23
-7.9313299e-24
-7.5949602e-25
-5.4334856e-26
-2.846818e-27
-1.0427467e-28
-2.4506014e-30
-2.9973546e-32
-8.8903816e-35
4.0283973e-06
-8.3035281e-07
-3.9760718e-06
-1.6222133e-06
2.3349647e-07
2.2382528e-07
5.0707472e-08
2.5753401e-09
-1.3785762e-10
-9.0359547e-12
-1.2832117e-13
-7.2841261e-16
8.9820217e-18
1.6824767e-18
1.4347639e-19
-1.7765867e-21
-3.2462122e-21
-7.0430229e-22
-9.9328121e-23
-1.037948e-23
-8.283064e-25
-5.0039067e-26
-2.146849e-27
-5.8027037e-29
-6.3507285e-31
1.1341025e-32
3.3628672e-34
4.50512e-06
-9.314048e-07
-6.4334283e-06
-3.2311858e-06
9.7191576e-07
1.077147e-06
3.3483701e-07
2.0892404e-08
-2.7508403e-09
-2.3021477e-10
-4.5051256e-12
-3.369827e-14
-1.8727411e-18
1.1666721e-17
7.8417819e-19
-6.6090759e-20
-3.4153882e-20
-7.1012873e-21
-1.0467282e-21
-1.1808033e-22
-1.0296069e-23
-6.8011998e-25
-3.1540143e-26
-7.5911832e-28
1.1662441e-29
1.6927014e-30
5.8451354e-32
7.7650255e-34
4.5323763e-06
-2.1279428e-06
-9.0806578e-06
-5.4382606e-06
2.5471401e-06
3.5158318e-06
1.4584721e-06
1.0303674e-07
-3.4647085e-08
-3.9195066e-09
-1.0513985e-10
-1.0248123e-12
2.2642738e-15
2.4485879e-16
5.8785982e-18
-7.5209295e-19
-3.0047139e-19
-6.1724916e-20
-9.454402e-21
-1.1354719e-21
-1.0583422e-22
-7.290425e-24
-3.1733604e-25
-1.0084348e-27
1.1100106e-27
9.3500734e-29
4.1404048e-30
1.033057e-31
1.155829e-33
4.6549255e-06
-2.8247289e-06
-1.1134887e-05
-7.8557776e-06
4.4795891e-06
8.0352108e-06
4.2523541e-06
2.6880109e-07
-2.8123362e-07
-4.4729614e-08
-1.708167e-09
-2.3622636e-11
3.3289557e-13
1.7475943e-14
2.6633826e-16
-5.1805994e-18
-2.2976453e-18
-4.7172711e-19
-7.4353111e-20
-9.3376424e-21
-9.0507616e-22
-6.0839741e-23
-1.6417992e-24
2.0790514e-25
3.656689e-26
3.1362564e-27
1.7278941e-28
6.2594707e-30
1.3753591e-31
1.4018771e-33
4.1296861e-06
-3.2440321e-06
-1.2109323e-05
-8.8341562e-06
6.1752801e-06
1.3892612e-05
8.6399436e-06
1.6359943e-07
-1.493503e-06
-3.4083713e-07
-1.9213901e-08
-3.4053651e-10
1.6190299e-11
1.0409459e-12
2.1148613e-14
9.1321457e-17
-1.5531951e-17
-3.2265582e-18
-5.158786e-19
-6.6269477e-20
-6.4174652e-21
-3.6534944e-22
1.1030225e-23
5.7351071e-24
8.0245264e-25
7.4210895e-26
4.9298989e-27
2.3378994e-28
7.6154149e-30
1.5376936e-31
1.4576094e-33
3.5030128e-06
-3.6070641e-06
-1.2560139e-05
-8.9631884e-06
8.2006108e-06
1.9323929e-05
1.3305927e-05
-1.0252679e-06
-5.2686057e-06
-1.7021563e-06
-1.4531142e-07
-2.8156402e-09
4.617816e-10
4.1047264e-11
1.2040098e-12
1.0135844e-14
-9.2229502e-17
-2.0141221e-17
-3.2004251e-18
-4.084878e-19
-3.6941174e-20
-1.0142898e-21
4.0057345e-22
9.7093458e-23
1.3438842e-23
1.3478776e-24
1.0411192e-25
6.1012028e-27
2.6244772e-28
7.8647467e-30
1.4704164e-31
1.2931274e-33
2.63582e-06
-4.185703e-06
-1.2117427e-05
-8.7505765e-06
9.7839124e-06
2.3452494e-05
1.7009618e-05
-3.3063441e-06
-1.2765912e-05
-5.7631975e-06
-7.2510516e-07
-7.475013e-09
8.2865891e-09
1.0577224e-09
4.5329567e-11
5.1900931e-13
-1.5333461e-15
-1.3311017e-16
-1.8028401e-17
-2.1941683e-18
-1.6130723e-19
9.3611879e-21
5.950879e-21
1.2476554e-21
1.7988563e-22
1.9821218e-23
1.7215583e-24
1.190506e-25
6.3359161e-27
2.4927188e-28
6.831814e-30
1.1606157e-31
9.1460629e-34
1.7376487e-06
-4.7549904e-06
-1.173004e-05
-7.9059023e-06
1.0577447e-05
2.5228788e-05
1.9158533e-05
-5.9803186e-06
-2.2591907e-05
-1.3796444e-05
-2.3768233e-06
8.0718989e-08
9.5236862e-08
1.7638105e-08
1.1081767e-09
1.6527419e-11
-1.499303e-13
-2.7984265e-15
-9.8509885e-17
-1.0301032e-17
-3.8963908e-19
1.8442933e-19
6.4166359e-20
1.3073771e-20
1.9923516e-21
2.4026969e-22
2.3301965e-23
1.8217937e-24
1.1397366e-25
5.4695568e-27
1.918403e-28
4.5667051e-30
6.3879383e-32
3.6667042e-34
7.3273158e-07
-5.316209e-06
-1.1153557e-05
-6.7407545e-06
1.0963818e-05
2.5375166e-05
1.8267811e-05
-9.5035846e-06
-3.2042899e-05
-2.4600358e-05
-5.1932841e-06
9.025628e-07
7.2494686e-07
1.8926448e-07
1.7349232e-08
3.2155068e-10
-9.311191e-12
-1.6986019e-13
-1.0495806e-15
-4.2892364e-17
1.3457983e-18
1.8892133e-18
5.6195411e-19
1.1576921e-19
1.8699369e-20
2.4480604e-21
2.6144124e-22
2.2725412e-23
1.5923994e-24
8.7422014e-26
3.5418137e-27
9.6164468e-29
1.3572766e-30
-2.3891357e-33
-2.7419602e-34
-2.2136684e-07
-5.8343464e-06
-1.044436e-05
-5.4416957e-06
1.1286119e-05
2.4674486e-05
1.6924455e-05
-1.199355e-05
-3.8580004e-05
-3.4648456e-05
-8.0099392e-06
4.227595e-06
3.6432007e-06
1.3046206e-06
1.7235922e-07
3.581457e-09
-3.2938976e-10
-8.1385905e-12
-4.3867792e-14
-2.2192372e-16
2.4682965e-17
1.48049e-17
4.1888337e-18
8.8601047e-19
1.5126992e-19
2.1277894e-20
2.4676507e-21
2.3347561e-22
1.7660944e-23
1.0364145e-24
4.2369382e-26
8.0888793e-28
-2.3912007e-29
-2.3186522e-30
-7.2886198e-32
-9.1489941e-34
-8.6559372e-07
-6.1296646e-06
-9.5387782e-06
-4.0306294e-06
1.1485905e-05
2.3492431e-05
1.4974869e-05
-1.2875928e-05
-4.067897e-05
-4.056277e-05
-9.2176494e-06
1.1774542e-05
1.2029474e-05
5.8027094e-06
1.0788041e-06
1.8752729e-08
-6.9894779e-09
-2.5414374e-10
-1.9922117e-12
-6.7964212e-15
1.9497148e-16
9.7468627e-17
2.7364615e-17
5.9612267e-18
1.0684893e-18
1.5963939e-19
1.975686e-20
1.9849701e-21
1.5512874e-22
8.5843564e-24
2.2723465e-25
-1.4708398e-26
-2.300737e-27
-1.4949848e-28
-5.8949597e-30
-1.3717494e-31
-1.4658052e-33
-1.4181255e-06
-5.9134766e-06
-8.5395705e-06
-2.47239e-06
1.1484753e-05
2.2022105e-05
1.2983358e-05
-1.2874203e-05
-4.018842e-05
-4.2091036e-05
-8.5374276e-06
2.2593294e-05
2.724129e-05
1.6881821e-05
4.2431587e-06
-1.3229429e-08
-9.128121e-08
-5.1010826e-09
-6.4315135e-11
-3.5729376e-13
4.4794334e-16
5.6352315e-16
1.6020868e-16
3.5797465e-17
6.6681562e-18
1.0422722e-18
1.3486209e-19
1.389856e-20
1.0346545e-21
3.6971134e-23
-3.0908747e-24
-7.0295548e-25
-7.4465645e-26
-5.2818971e-27
-2.6099337e-28
-8.8457578e-30
-1.8653618e-31
-1.8594968e-33
-1.9309255e-06
-5.1819053e-06
-7.4310992e-06
-1.1118967e-06
1.1323717e-05
2.0345606e-05
1.0907301e-05
-1.2674276e-05
-3.7405531e-05
-4.1704489e-05
-6.7762187e-06
3.3323098e-05
4.5234907e-05
3.3480746e-05
1.0571789e-05
-7.3185364e-07
-7.4735389e-07
-6.3328022e-08
-1.3873358e-09
-1.3274473e-11
-4.8579263e-14
2.8742864e-15
8.5788684e-16
1.9489729e-16
3.7179925e-17
5.9680687e-18
7.8407814e-19
7.8205091e-20
4.3996789e-21
-2.3448205e-22
-1.0096882e-22
-1.5342417e-23
-1.5954305e-24
-1.2698235e-25
-7.6734743e-27
-3.4260615e-28
-1.0800248e-29
-2.157102e-31
-2.0626387e-33
-1.8106094e-06
-3.7704413e-06
-4.7108928e-06
-5.2051062e-07
1.0797434e-05
1.8497103e-05
8.6925764e-06
-1.2276444e-05
-3.4221322e-05
-4.0517263e-05
-4.6468308e-06
4.0890805e-05
6.0108683e-05
4.8389334e-05
1.7392821e-05
-4.1873975e-06
-3.9158333e-06
-5.1858799e-07
-1.9695357e-08
-3.2415785e-10
-2.3079953e-12
8.6379759e-15
4.3224073e-15
9.8003744e-16
1.8743336e-16
3.0099571e-17
3.8479811e-18
3.2544884e-19
-2.1925531e-21
-7.1058156e-21
-1.5948903e-21
-2.3395418e-22
-2.6044767e-23
-2.3044547e-24
-1.6436646e-25
-9.1639018e-27
-3.856319e-28
-1.1608428e-29
-2.2358435e-31
-2.0779282e-33
-1.4298933e-06
6.3668065e-07
-1.6288054e-06
-6.4815264e-07
9.7058499e-06
1.6363969e-05
6.1720057e-06
-1.1892892e-05
-3.022172e-05
-3.7779398e-05
-5.6280672e-06
4.5308787e-05
6.7719383e-05
5.6209259e-05
1.9684773e-05
-1.2463556e-05
-1.3480488e-05
-2.817268e-06
-1.8342479e-07
-5.1373531e-09
-6.2372016e-11
-1.3703879e-13
2.5019531e-14
4.7278762e-15
8.6801715e-16
1.3388882e-16
1.5363504e-17
6.454398e-19
-2.6114162e-19
-9.1600333e-20
-1.8477429e-20
-2.7986128e-21
-3.3900344e-22
-3.3513162e-23
-2.7321712e-24
-1.824668e-25
-9.6471994e-27
-3.8948403e-28
-1.1340555e-29
-2.1272663e-31
-1.9369474e-33
6.851797e-07
2.4953971e-06
1.5337028e-06
-1.6706746e-06
8.2324717e-06
1.4027005e-05
3.5469246e-06
-1.1556144e-05
-2.5239833e-05
-3.440182e-05
-6.4347368e-06
4.616103e-05
6.8976743e-05
5.5800775e-05
1.7007336e-05
-2.4296627e-05
-3.1792336e-05
-1.0351819e-05
-1.127938e-06
-5.2598117e-08
-1.0303417e-09
-6.76945e-13
5.7635656e-13
3.315959e-14
3.8684774e-15
5.2468335e-16
4.3681736e-17
-4.1925046e-18
-3.0929497e-18
-8.6351164e-19
-1.7302737e-19
-2.7642926e-20
-3.643431e-21
-4.0074185e-22
-3.6889383e-23
-2.8473054e-24
-1.8135395e-25
-9.2152065e-27
-3.6041236e-28
-1.0229362e-29
-1.8809168e-31
-1.6874124e-33
-2.0410813e-06
2.4966792e-06
4.7165279e-06
1.2498623e-06
6.2444927e-06
1.1423761e-05
9.5079257e-07
-1.1005757e-05
-1.9964881e-05
-3.0486516e-05
-7.2645138e-06
4.3915338e-05
6.8014407e-05
5.1694822e-05
9.7064866e-06
-3.5675706e-05
-5.4542837e-05
-2.6688722e-05
-4.6478941e-06
-3.4769969e-07
-9.9812128e-09
1.7313592e-10
3.01505e-11
1.2604128e-12
3.1751673e-14
1.846512e-15
2.9278156e-17
-6.3333588e-17
-2.5219216e-17
-6.6419851e-18
-1.3664305e-18
-2.3190966e-19
-3.3151517e-20
-4.0223564e-21
-4.1451836e-22
-3.6241156e-23
-2.6823247e-24
-1.6455699e-25
-8.097161e-27
-3.0863021e-28
-8.5823869e-30
-1.553955e-31
-1.3793806e-33
3.5697322e-06
-3.8296179e-06
4.3452931e-06
5.7294744e-06
7.0404155e-07
8.7238037e-06
-1.6226711e-06
-1.0177581e-05
-1.4474202e-05
-2.6137858e-05
-7.9626059e-06
4.0949444e-05
6.4128641e-05
4.4131084e-05
2.1372557e-06
-4.4121545e-05
-7.296881e-05
-5.0634323e-05
-1.3235112e-05
-1.4812419e-06
-4.8783009e-08
6.2222978e-09
1.0645954e-09
6.6869419e-11
1.6000032e-12
1.5224934e-14
-7.3016629e-16
-4.9826361e-16
-1.6658411e-16
-4.3618682e-17
-9.3286962e-18
-1.6836812e-18
-2.5990224e-19
-3.44966e-20
-3.938898e-21
-3.8586641e-22
-3.2370928e-23
-2.3125951e-24
-1.3730935e-25
-6.5740065e-27
-2.4501268e-28
-6.6947873e-30
-1.1969656e-31
-1.0544068e-33
5.8775195e-06
-1.0193283e-06
-3.794824e-06
6.1305553e-06
6.1219597e-06
1.0801957e-08
-3.8452138e-06
-8.8174463e-06
-8.9060006e-06
-2.1623247e-05
-8.6391191e-06
3.741563e-05
5.9734489e-05
3.963857e-05
-2.4227471e-06
-4.6597094e-05
-8.2581833e-05
-7.4511609e-05
-2.7102205e-05
-4.0759399e-06
-1.6787592e-08
1.0278443e-07
2.2507317e-08
2.2071533e-09
8.4085735e-11
9.6474515e-13
-5.5285548e-15
-3.1112973e-15
-9.4743793e-16
-2.508466e-16
-5.5997915e-17
-1.0727242e-17
-1.7791155e-18
-2.5634922e-19
-3.2101923e-20
-3.4857237e-21
-3.269385e-22
-2.6442942e-23
-1.8274077e-24
-1.051297e-25
-4.8979626e-27
-1.7840381e-28
-4.7868859e-30
-8.4500318e-32
-7.3944582e-34
-5.3372862e-06
2.3718352e-06
-4.308411e-06
-2.7230678e-06
7.623911e-06
6.0953711e-06
-9.3759302e-07
-6.7544336e-06
-3.0384525e-06
-1.7226207e-05
-9.2787607e-06
3.3633213e-05
5.4938874e-05
3.4477292e-05
-5.1606638e-06
-4.2224083e-05
-8.3486051e-05
-9.1115566e-05
-4.2238523e-05
-7.1367602e-06
1.1546119e-06
9.6309163e-07
2.8779106e-07
4.3249346e-08
2.6348293e-09
4.9792216e-11
8.3468301e-14
-1.7658777e-14
-4.8296332e-15
-1.2851799e-15
-2.9935895e-16
-6.0654742e-17
-1.0748311e-17
-1.6690111e-18
-2.2706304e-19
-2.7013291e-20
-2.7992858e-21
-2.5162523e-22
-1.9584953e-23
-1.3027848e-24
-7.2100665e-26
-3.2390442e-27
-1.1410743e-28
-2.9758654e-30
-5.1447145e-32
-4.4556949e-34
-2.5744907e-06
-5.6251738e-06
-8.0450132e-07
-6.6368027e-06
-1.2772973e-06
8.8087581e-06
5.6900959e-06
-1.9055983e-06
1.5893964e-06
-1.256462e-05
-1.0023887e-05
2.961619e-05
5.0073764e-05
2.8665967e-05
-8.8178004e-06
-3.8167021e-05
-7.2477766e-05
-9.9572927e-05
-5.3847082e-05
-7.5554639e-06
6.8607938e-06
5.4998182e-06
2.2652754e-06
5.0934027e-07
4.8356294e-08
1.4626421e-09
4.3780593e-12
-1.695531e-13
-2.2823404e-14
-5.9558287e-15
-1.440439e-15
-3.0720781e-16
-5.7819935e-17
-9.6049858e-18
-1.4067092e-18
-1.8120488e-19
-2.0450487e-20
-2.0101809e-21
-1.7122563e-22
-1.2593386e-23
-7.8491782e-25
-4.0304801e-26
-1.6656306e-27
-5.3614961e-29
-1.2779952e-30
-2.0486197e-32
-1.7022149e-34
7.8322988e-06
1.3200015e-06
-6.0076372e-06
-4.6492836e-06
-8.2585335e-06
1.7785735e-07
9.8513207e-06
5.1078598e-06
-2.776516e-06
-9.007629e-06
-1.1962355e-05
2.5318643e-05
4.4985598e-05
2.296614e-05
-1.240571e-05
-3.4060658e-05
-6.1799277e-05
-9.9530582e-05
-5.9945875e-05
-3.4506558e-06
2.106186e-05
1.9978527e-05
1.1188066e-05
3.6533395e-06
5.2636666e-07
2.4495727e-08
3.6249417e-11
-7.0590941e-12
-1.2100923e-13
-2.5422405e-14
-6.297647e-15
-1.4051752e-15
-2.7902861e-16
-4.9200508e-17
-7.6816315e-18
-1.0577201e-18
-1.2769664e-19
-1.339946e-20
-1.2063795e-21
-9.1889212e-23
-5.7999079e-24
-2.8603595e-25
-9.8061352e-27
-1.541119e-28
4.7482472e-30
3.68419e-31
9.6667282e-33
9.8633937e-35
-5.3046579e-06
1.2603451e-05
4.7396061e-06
-7.3488907e-06
-8.6619019e-06
-9.4670613e-06
1.8533422e-06
1.0611227e-05
4.5125014e-06
-3.5845896e-06
-1.5028021e-05
2.0822039e-05
3.9794905e-05
1.7103106e-05
-1.6692628e-05
-3.0019931e-05
-5.0066039e-05
-9.2996549e-05
-7.1592902e-05
4.2267884e-06
4.2394161e-05
4.8308274e-05
3.5403246e-05
1.6196669e-05
3.4323197e-06
2.3506218e-07
-1.8741012e-09
-2.9612368e-10
-2.4071107e-12
-1.0343292e-13
-2.5281938e-14
-5.8473713e-15
-1.2155304e-15
-2.2546485e-16
-3.7091134e-17
-5.369557e-18
-6.7590658e-19
-7.248728e-20
-6.3686476e-21
-4.1757152e-22
-1.4116925e-23
9.1053365e-25
2.1087184e-25
2.0883726e-26
1.3833058e-27
6.4673201e-29
2.0706158e-30
4.0960645e-32
3.7778354e-34
-1.610621e-05
-1.0291281e-06
1.6699497e-05
7.0858314e-06
-8.7656002e-06
-1.2755289e-05
-1.0315224e-05
3.540059e-06
1.1193727e-05
3.8881036e-06
-4.1834096e-06
1.5820453e-05
3.4410921e-05
1.1366929e-05
-2.0126125e-05
-2.6174322e-05
-3.7820546e-05
-8.3086294e-05
-7.7669167e-05
2.2486608e-06
6.493398e-05
8.3225849e-05
7.4331459e-05
4.5040088e-05
1.3519237e-05
1.2777259e-06
-5.6153569e-08
-7.4482706e-09
-1.0291431e-10
-6.0469971e-13
-9.4577096e-14
-2.2296339e-14
-4.8049447e-15
-9.2696684e-16
-1.5815546e-16
-2.346082e-17
-2.9350693e-18
-2.8868468e-19
-1.7366178e-20
6.5610157e-22
3.8030841e-22
6.6104279e-23
7.9708054e-24
7.4155063e-25
5.4086666e-26
3.0630823e-27
1.305603e-28
3.9473552e-30
7.5444784e-32
6.8428078e-34
1.0271531e-05
-1.6380025e-05
3.1590456e-06
2.03575e-05
8.8503883e-06
-1.0408649e-05
-1.6788793e-05
-1.0691742e-05
4.9623791e-06
1.160966e-05
3.269387e-06
-4.596082e-06
2.878046e-05
5.4379562e-06
-2.3386283e-05
-2.2132231e-05
-2.5757273e-05
-7.0596201e-05
-8.0335839e-05
-1.8980013e-06
7.9665201e-05
0.00011231995
0.00011102317
8.1445058e-05
3.2544698e-05
3.7461761e-06
-6.7379963e-07
-1.1097179e-07
-2.8712283e-09
-1.5713902e-11
-3.5356102e-13
-7.85837e-14
-1.7305828e-14
-3.41871e-15
-5.9011034e-16
-8.5401246e-17
-9.3461355e-18
-4.5792557e-19
1.0603801e-19
3.9687306e-20
8.0941828e-21
1.2465735e-21
1.5521936e-22
1.5946174e-23
1.3465961e-24
9.2166163e-26
4.9941432e-27
2.0626269e-28
6.0974978e-30
1.1476609e-31
1.0315538e-33
2.2608232e-05
4.7665443e-06
-1.6018353e-05
7.3708966e-06
2.379997e-05
1.0367053e-05
-1.2083555e-05
-1.9740738e-05
-1.0798622e-05
6.3506772e-06
1.1829282e-05
2.878211e-06
-4.3981714e-06
-5.411939e-07
-2.6128058e-05
-1.6729842e-05
-1.4145992e-05
-5.647052e-05
-8.0511199e-05
-7.534386e-06
8.4460586e-05
0.00013459332
0.00013003772
0.00010322641
4.9974572e-05
5.0444013e-06
-4.3427541e-06
-1.0020649e-06
-4.717013e-08
-5.1182412e-10
-2.8455877e-12
-2.6034328e-13
-5.6983978e-14
-1.1253191e-14
-1.8773392e-15
-2.3343173e-16
-9.9412023e-18
5.3061625e-18
2.1554387e-18
5.3288725e-19
1.0305347e-19
1.6554135e-20
2.250152e-21
2.596587e-22
2.5326258e-23
2.0576607e-24
1.3676971e-25
7.2448503e-27
2.9397886e-28
8.5732442e-30
1.5975173e-31
7.2346116e-36
-6.6863524e-06
1.5578904e-05
-1.1558301e-06
-1.5029588e-05
1.1619637e-05
2.7076791e-05
1.1665855e-05
-1.2888531e-05
-2.1594126e-05
-1.0662067e-05
7.6361964e-06
1.2088813e-05
2.4397912e-06
-4.5132822e-06
-2.8159968e-05
-9.9369724e-06
-2.636848e-06
-4.2108505e-05
-7.808755e-05
-1.4118412e-05
8.4530369e-05
0.00013993699
0.00013642617
0.0001010387
5.2127733e-05
1.1561795e-07
-1.6445397e-05
-5.6276746e-06
-4.7008658e-07
-1.0258972e-08
-7.9757804e-11
-9.8194678e-13
-1.7224134e-13
-3.2591384e-14
-4.7245109e-15
-2.5274377e-16
1.4234827e-16
7.0831221e-17
2.1386245e-17
5.1022306e-18
1.0256668e-18
1.774378e-19
2.6575826e-20
3.4418979e-21
3.833694e-22
3.6341398e-23
2.8849576e-24
1.8817493e-25
9.8156368e-27
3.9337249e-28
1.1359633e-29
1.3184307e-33
1.9416481e-38
-2.9186786e-05
-1.2836786e-05
7.4118148e-06
-7.2513555e-06
-1.3282065e-05
1.5663733e-05
3.0153065e-05
1.2763267e-05
-1.3938793e-05
-2.3098979e-05
-1.0344719e-05
8.7573928e-06
1.1512161e-05
1.7600786e-06
-4.1674844e-06
-2.5910362e-06
9.1555393e-06
-2.940524e-05
-7.3239329e-05
-2.0650505e-05
8.1370998e-05
0.00014093008
0.00013656449
8.6438986e-05
3.8786732e-05
-1.080838e-05
-3.8997749e-05
-2.0290632e-05
-2.9411759e-06
-1.2406823e-07
-1.8820359e-09
-1.2066237e-11
-4.9406004e-13
-8.0165383e-14
-6.7379918e-15
2.2079814e-15
1.5008641e-15
5.5835468e-16
1.6269269e-16
4.0092802e-17
8.5820044e-18
1.6111732e-18
2.6566878e-19
3.8373009e-20
4.8285259e-21
5.2546038e-22
4.87965e-23
3.8075352e-24
2.4481445e-25
1.2620564e-26
5.0102561e-28
1.0742659e-31
4.6812875e-36
8.0016504e-42
4.91161e-06
-2.9037838e-05
-1.8578879e-05
-1.3296395e-06
-1.2559436e-05
-1.0880567e-05
1.9688729e-05
3.3050044e-05
1.3733381e-05
-1.5370984e-05
-2.445327e-05
-9.9938877e-06
9.1404554e-06
1.0458984e-05
7.3369837e-07
-2.7667427e-06
2.1432662e-05
-1.7427239e-05
-6.6730724e-05
-2.6845714e-05
7.6248785e-05
0.00013908495
0.00013245771
7.810607e-05
2.0720898e-05
-2.1639111e-05
-6.1965376e-05
-4.9071025e-05
-1.1968391e-05
-9.3783e-07
-2.7153118e-08
-2.9393658e-10
-2.2646116e-12
-1.5191305e-13
1.6324258e-14
2.1122034e-14
9.8931444e-15
3.5002603e-15
1.0434388e-15
2.7125036e-16
6.2275524e-17
1.268589e-17
2.2930858e-18
3.6667297e-19
5.1614977e-20
6.3523676e-21
6.7858767e-22
6.1970874e-23
4.7682199e-24
3.0308174e-25
1.5482153e-26
5.3859351e-30
4.5922389e-34
5.5299937e-39
-1.9081219e-44
3.3511065e-05
1.2433067e-05
-2.8068316e-05
-2.4411445e-05
-8.9215708e-06
-1.650866e-05
-8.361925e-06
2.3491826e-05
3.5892935e-05
1.4399268e-05
-1.6826637e-05
-2.550141e-05
-9.2422806e-06
9.3291571e-06
8.1400283e-06
7.0034987e-07
-1.727786e-06
-5.0158203e-06
-5.9734797e-05
-3.3301661e-05
6.9717282e-05
0.00013566706
0.00012725381
6.8666422e-05
6.2323911e-06
-3.048946e-05
-7.0981543e-05
-8.4408076e-05
-3.3274411e-05
-4.5972642e-06
-2.4309175e-07
-4.9505191e-09
-3.9843229e-11
-2.0964041e-13
1.904899e-13
1.2205908e-13
5.2737815e-14
1.8832193e-14
5.856839e-15
1.6160053e-15
3.982356e-16
8.7781773e-17
1.7296779e-17
3.0388769e-18
4.740209e-19
6.5294539e-20
7.8902246e-21
8.2871407e-22
7.461526e-23
5.6754191e-24
3.5752365e-25
1.8892629e-28
2.6949238e-32
7.446473e-37
5.9466586e-43
-1.5628279e-47
7.0765301e-06
4.4439882e-05
2.0537132e-05
-2.705562e-05
-3.0619677e-05
-1.7476782e-05
-2.0174746e-05
-5.8501407e-06
2.7188244e-05
3.8407204e-05
1.4763464e-05
-1.7856333e-05
-2.5421069e-05
-7.7939372e-06
8.4939722e-06
5.7778202e-06
4.7825442e-07
-8.883275e-07
-5.4809263e-05
-3.8722954e-05
6.1915061e-05
0.00013085316
0.00012215454
5.8300095e-05
-7.5119082e-06
-3.6996541e-05
-6.1171883e-05
-0.00010829527
-6.7297026e-05
-1.5307408e-05
-1.4009779e-06
-5.1729374e-08
-7.5401694e-10
-3.2808954e-12
1.0251828e-12
5.6999344e-13
2.4397711e-13
8.9794982e-14
2.9322102e-14
8.5905113e-15
2.2659378e-15
5.3822554e-16
1.1494942e-16
2.202445e-17
3.7734008e-18
5.7552968e-19
7.7724018e-20
9.2392522e-21
9.5615755e-22
8.5075958e-23
6.4131426e-24
4.9600567e-27
1.0965858e-30
5.3758225e-35
3.4932406e-40
-1.2743881e-45
-4.8734762e-51
-5.0111882e-05
1.820779e-05
5.4111859e-05
2.8180506e-05
-2.6316179e-05
-3.7979811e-05
-2.6154387e-05
-2.3776795e-05
-3.8648541e-06
3.0683962e-05
4.0499271e-05
1.4447973e-05
-1.8538752e-05
-2.4028552e-05
-5.3858398e-06
5.7903323e-06
3.4985294e-06
1.6198926e-07
-3.4638641e-07
-4.334418e-05
5.2933832e-05
0.00012420873
0.00011649785
4.675739e-05
-2.1545102e-05
-4.5685471e-05
-5.3272471e-05
-9.7923827e-05
-0.00010578536
-3.6730002e-05
-5.452696e-06
-3.4508868e-07
-9.1008738e-09
-8.965919e-11
4.016299e-12
2.3202652e-12
1.0102705e-12
3.8611704e-13
1.3246411e-13
4.1101225e-14
1.155462e-14
2.9411576e-15
6.7671399e-16
1.4041603e-16
2.620365e-17
4.3830882e-18
6.5438791e-19
8.6738281e-20
1.0162122e-20
1.03849e-21
9.1545482e-23
1.0147099e-25
3.3330156e-29
2.6067789e-33
3.5618952e-38
6.8894676e-45
-5.5710033e-49
-8.7723768e-55
-4.767081e-05
-4.3930216e-05
2.8363019e-05
6.2832758e-05
3.4742288e-05
-2.4827746e-05
-4.4768481e-05
-3.5028928e-05
-2.7534746e-05
-2.028322e-06
3.379961e-05
4.120489e-05
1.2771739e-05
-1.8149364e-05
-2.028015e-05
-3.8416123e-06
3.7116087e-06
1.6199457e-06
9.2700893e-09
-9.3429107e-08
4.2431104e-05
0.00011525701
0.00010955558
3.4120508e-05
-3.8684217e-05
-5.6835369e-05
-4.7872047e-05
-7.8484488e-05
-0.00012904771
-6.7707275e-05
-1.5140303e-05
-1.5439943e-06
-6.9585844e-08
-1.3070245e-09
6.1396482e-12
8.4898494e-12
3.8103057e-12
1.5145037e-12
5.4450415e-13
1.7815602e-13
5.3094656e-14
1.4395556e-14
3.5440285e-15
7.9054551e-16
1.5941231e-16
2.8977834e-17
4.7331711e-18
6.9203764e-19
9.0254573e-20
1.042669e-20
1.0547829e-21
1.6594795e-24
7.9011029e-28
9.3501712e-32
2.1428375e-36
7.0174406e-42
-2.4234373e-47
-1.1380418e-52
-1.0758253e-58
2.9717918e-05
-5.1570805e-05
-3.6035274e-05
3.7725648e-05
7.0820042e-05
4.0996669e-05
-2.2012676e-05
-5.1108401e-05
-4.3833534e-05
-3.1422491e-05
-3.3792801e-07
3.751551e-05
4.0658311e-05
1.0326593e-05
-1.5939439e-05
-1.4635857e-05
-2.2276345e-06
1.9239171e-06
5.4279634e-07
-1.3084736e-08
-1.733369e-08
0.0001034899
0.00010015413
2.0630966e-05
-5.9333352e-05
-7.0220237e-05
-4.5533926e-05
-5.5604103e-05
-0.00012082399
-0.00010465469
-3.2127362e-05
-4.8886736e-06
-3.5395299e-07
-1.1524433e-08
-1.0766472e-10
2.7924212e-11
1.3253732e-11
5.4671193e-12
2.0509098e-12
7.0359542e-13
2.2090112e-13
6.3367169e-14
1.6571683e-14
3.9423452e-15
8.5143909e-16
1.6661878e-16
2.9469895e-17
4.6966379e-18
6.7232874e-19
8.6367358e-20
9.8587805e-21
2.2051216e-23
1.5010174e-26
2.6106916e-30
9.2083124e-35
5.9552845e-40
-3.3665171e-47
-6.6163533e-51
-1.4910588e-56
-9.8479433e-63
8.8908688e-05
1.6771646e-05
-5.3483315e-05
-2.7119064e-05
4.6607886e-05
7.8097597e-05
4.6764269e-05
-1.9531734e-05
-5.6440207e-05
-5.212955e-05
-3.4992777e-05
2.011725e-06
4.0229993e-05
3.6697174e-05
7.1999561e-06
-1.1652608e-05
-8.8630942e-06
-7.9163083e-07
7.2380508e-07
1.2441118e-07
-5.689086e-09
-2.0671372e-09
8.7733737e-05
5.7744471e-06
-8.2009467e-05
-8.4600679e-05
-4.3973312e-05
-3.3715722e-05
-9.4839832e-05
-0.00013193299
-6.236379e-05
-1.169378e-05
-1.2631917e-06
-6.6379314e-08
-1.4382361e-09
7.542264e-11
4.3218555e-11
1.8348915e-11
7.1255403e-12
2.5457649e-12
8.358636e-13
2.5175996e-13
6.9375203e-14
1.7447101e-14
3.9964606e-15
8.3245373e-16
1.5747571e-16
2.7007499e-17
4.188375e-18
5.862244e-19
7.4206463e-20
2.4019145e-22
2.3257419e-25
5.8489744e-29
3.0518649e-33
3.1147049e-38
5.9435666e-44
-1.9998657e-49
-9.6775425e-55
-1.422442e-60
-7.9937031e-67
7.165664e-05
7.1449966e-05
4.3318119e-06
-5.3127914e-05
-1.7453469e-05
5.4859371e-05
8.4550003e-05
5.1935686e-05
-1.6758696e-05
-6.0382214e-05
-5.9694521e-05
-3.8952207e-05
5.4419504e-06
3.9170284e-05
2.9331285e-05
4.0915629e-06
-7.0362509e-06
-4.0481738e-06
-1.5174583e-07
1.8559782e-07
1.9931327e-08
-8.8447751e-10
-1.6495267e-10
-9.9991457e-06
-0.00010309855
-9.8363532e-05
-4.1029259e-05
-1.1837348e-05
-6.2121358e-05
-0.00014194781
-9.6500787e-05
-2.8499707e-05
-3.3535109e-06
-2.6405819e-07
-9.7255123e-09
1.0810139e-10
1.3485783e-10
5.8774231e-11
2.318587e-11
8.4881438e-12
2.8897706e-12
9.0576956e-13
2.6051293e-13
6.8538048e-14
1.6453289e-14
3.5979406e-15
7.1596621e-16
1.2960849e-16
2.1340058e-17
3.1936549e-18
4.3544885e-19
2.1466944e-21
2.9710464e-24
1.0717772e-27
8.1133617e-32
1.2120017e-36
4.3453523e-42
-8.00611e-49
-3.7764777e-53
-9.7777133e-59
-1.1918128e-64
-6.2258607e-71
-2.662136e-05
5.2621336e-05
5.2168115e-05
-7.2055747e-06
-4.9429228e-05
-7.4685134e-06
6.2719749e-05
9.0186194e-05
5.6316212e-05
-1.3427315e-05
-6.2383225e-05
-6.6817378e-05
-3.9064977e-05
1.0026343e-05
3.4335607e-05
1.9503694e-05
1.5125502e-06
-3.3268667e-06
-1.301057e-06
-7.619344e-09
3.1991387e-08
2.2134321e-09
-8.4894354e-11
-8.886409e-12
-0.00011923812
-0.00010921141
-3.4836679e-05
1.1252738e-05
-2.5965874e-05
-0.00012899756
-0.00013087619
-5.3207391e-05
-1.0275196e-05
-7.5167712e-07
-3.9065116e-08
2.7462185e-10
4.6160744e-10
1.8700421e-10
7.3955211e-11
2.7090317e-11
9.1756307e-12
2.9603919e-12
8.7829855e-13
2.3849256e-13
5.9024636e-14
1.3277132e-14
2.7085428e-15
5.0061139e-16
8.3886013e-17
1.2776229e-17
1.7774096e-18
1.5570793e-20
3.1441412e-23
1.6259294e-26
1.7697341e-30
3.7577008e-35
1.995457e-40
2.5787021e-46
-8.7931969e-52
-4.2080661e-57
-8.5131153e-63
-9.5435348e-69
-4.6558754e-75
-0.0001284669
-4.2930721e-05
3.1461092e-05
3.2555313e-05
-1.7486936e-05
-4.3944731e-05
2.6013053e-06
6.9938697e-05