/*--------------------------------*- C++ -*----------------------------------*\
| =========                 |                                                 |
| \\      /  F ield         | OpenFOAM: The Open Source CFD Toolbox           |
|  \\    /   O peration     | Version:  5.0                                   |
|   \\  /    A nd           | Web:      www.OpenFOAM.org                      |
|    \\/     M anipulation  |                                                 |
\*---------------------------------------------------------------------------*/
FoamFile
{
    version     2.0;
    format      ascii;
    class       surfaceScalarField;
    location    "360";
    object      ddtCorrDdt0(phi);
}
// * * * * * * * * * * * * * * * * * * * * * * * * * * * * * * * * * * * * * //

dimensions      [0 3 -2 0 0 0 0];

internalField   nonuniform List<scalar> 
18820
(
9.0104904e-07
0.00038378905
1.0361452e-06
0.00035609237
4.2789352e-06
0.00037950722
6.5418555e-07
0.00032740878
7.7806129e-06
0.00035257148
-1.2532602e-06
0.00038074858
-6.6818289e-08
0.00029810925
1.0480142e-05
0.00032469231
-1.731365e-06
0.00035301914
-1.3090783e-05
0.00039382092
-8.2975589e-07
0.00026877564
1.174636e-05
0.00029682765
-1.8264214e-06
0.00032476167
-2.4142069e-05
0.00036403499
-2.1125487e-05
0.00041492502
-1.3743448e-06
0.00024028234
1.1386416e-05
0.00026912228
-2.4135188e-06
0.00029739234
-3.3650132e-05
0.00033424064
-4.0603218e-05
0.00038347776
-2.1139137e-05
0.00043604309
-1.8526393e-06
0.00021284997
9.9174473e-06
0.00024174023
-4.1963227e-06
0.00027088661
-4.1944628e-05
0.00030566275
-5.864028e-05
0.00035225033
-4.2186106e-05
0.00040449491
-1.3583281e-05
0.00044960839
-2.9836203e-06
0.00018638321
7.3451084e-06
0.00021541326
-7.0656207e-06
0.00024459491
-4.9722233e-05
0.00027864559
-7.4713496e-05
0.00032171487
-6.3142847e-05
0.00037318522
-2.8329557e-05
0.00041921919
-5.2361186e-06
0.00045483113
-6.7479304e-06
0.00016072
2.716255e-06
0.00019100501
-1.0847651e-05
0.00021918433
-5.7698815e-05
0.00025255821
-8.8884274e-05
0.0002928019
-8.302683e-05
0.000341584
-4.4282719e-05
0.00038912412
-1.1502245e-05
0.00042547227
-2.4920506e-06
0.00045731509
-1.7267374e-05
0.00013565988
-6.8838687e-06
0.00017031523
-1.5619551e-05
0.00019576961
-6.6079276e-05
0.00022755657
-0.00010213556
0.00026580116
-0.00010142245
0.00031118945
-6.1064969e-05
0.00035835846
-1.8739911e-05
0.00039635504
-4.9602168e-06
0.00042793547
-6.7641198e-06
0.00046407584
-4.2489813e-05
0.00011132057
-2.7407673e-05
0.00015618111
-2.1740749e-05
0.00017643271
-7.4072557e-05
0.00020375957
-0.00011497328
0.00024039128
-0.00011900613
0.00028338258
-7.8070908e-05
0.00032819311
-2.8202313e-05
0.00036781891
-7.3089405e-06
0.00039870291
-1.2321464e-05
0.00043349422
-1.5095043e-05
0.00047917137
-8.9440046e-05
9.4494656e-05
-7.1181924e-05
0.0001550943
-2.9939952e-05
0.00016437954
-7.8495872e-05
0.00018085726
-0.00012700065
0.00021578824
-0.00013643974
0.00025782711
-9.5000975e-05
0.00030031382
-3.9343045e-05
0.00033933456
-1.0786685e-05
0.00037129734
-1.7399086e-05
0.00040378294
-2.8123338e-05
0.0004465279
-2.2540967e-05
0.00050171534
-0.00017116976
0.0001046675
-0.00015182535
0.00017513877
-3.9138026e-05
0.00016429297
-7.331088e-05
0.0001591993
-0.00013620037
0.00019006092
-0.00015436276
0.00023371642
-0.00011220921
0.00027503765
-5.0747506e-05
0.00031171914
-1.6019181e-05
0.00034456639
-2.198031e-05
0.00037587879
-4.0495599e-05
0.00041615837
-4.3109689e-05
0.00046710402
-2.530099e-05
0.00052702089
-0.00028530537
0.00011580065
-0.00024650201
0.00019934487
-3.1804341e-05
0.00016780489
-4.3727899e-05
0.00013471638
-0.00013648834
0.00015949159
-0.00017328856
0.00020899307
-0.00013112074
0.00025262916
-6.1663421e-05
0.00028595221
-2.1629719e-05
0.00031732478
-2.6683536e-05
0.00034926437
-5.2304168e-05
0.00038768442
-6.2716848e-05
0.00043576759
-4.9700313e-05
0.00049151113
-2.2318807e-05
0.00054934486
-0.00044629982
0.0001462935
-0.00033468671
0.00020398484
2.3966459e-05
0.00014357118
3.2273783e-05
9.1809027e-05
-0.00011707797
0.00011530853
-0.00019452306
0.00018073176
-0.00015609135
0.00023396198
-7.2457351e-05
0.00026341794
-2.5723405e-05
0.00029003516
-3.1429457e-05
0.00032205816
-6.3328447e-05
0.00036027706
-8.1839414e-05
0.00040680012
-7.3072582e-05
0.00045914012
-4.5147567e-05
0.00051434721
-1.5048683e-05
0.0005643989
-0.00066673819
0.00018498067
-0.00041238193
0.00022398608
0.00011582142
0.00011212356
0.00014969799
2.6150313e-05
-7.895608e-05
5.3686658e-05
-0.00022834215
0.00014913131
-0.00019657439
0.00022120962
-8.5510377e-05
0.00024700576
-2.6111943e-05
0.00026379006
-3.5137805e-05
0.00029372408
-7.4387492e-05
0.00033309712
-0.00010058888
0.00037900964
-9.5715322e-05
0.00042943262
-6.793888e-05
0.00048192985
-3.1555411e-05
0.0005308603
-6.407459e-06
0.00057081136
-0.00097920659
0.00026946284
-0.00049389911
0.00026649251
0.00025866076
8.113747e-05
0.00028799859
-2.617716e-05
-5.1413137e-05
-1.3956248e-06
-0.00029498516
0.00012033116
-0.00026729939
0.00021984873
-0.00010426675
0.00023995397
-1.9160343e-05
0.00024003417
-3.5667118e-05
0.00026429569
-8.621761e-05
0.00030552893
-0.00011993694
0.0003524213
-0.00011854505
0.00040182008
-9.0051532e-05
0.00045153339
-5.0018126e-05
0.00050038992
-1.4436041e-05
0.00053889412
4.6173679e-07
0.00057035421
-0.0013148795
0.00029950896
-0.00055707008
0.00033262552
0.0004605703
6.4572088e-05
0.00047301993
-0.00010388761
-3.9279435e-05
-3.8314761e-05
-0.00040027451
0.0001038941
-0.00038612844
0.00023915275
-0.00013183572
0.00024740576
9.2660088e-07
0.00021984711
-2.8256641e-05
0.00023260016
-9.8481951e-05
0.00027653494
-0.00014128826
0.00032685557
-0.00014235986
0.00037621365
-0.00011246861
0.0004242189
-6.9073837e-05
0.00047057758
-2.5711446e-05
0.00051166226
-3.9977072e-07
0.00053975971
3.4649424e-06
0.00056689312
-0.0017732453
0.00045013371
-0.00067708235
0.00041950998
0.00076830299
2.4881495e-05
0.00073800715
-0.00020042201
-3.7874949e-05
-0.00010529524
-0.00053567992
9.7091765e-05
-0.0005631046
0.00028086562
-0.00016896673
0.00027627555
4.3221369e-05
0.00020509539
-5.7199938e-06
0.00019729204
-0.00011011472
0.00024421374
-0.00016580689
0.00030103511
-0.00016837472
0.00035285316
-0.00013618641
0.00039991506
-8.8574737e-05
0.00044370576
-4.0279229e-05
0.00048513578
-3.2825005e-06
0.0005145423
5.8994036e-06
0.00053732825
2.4610152e-06
0.00056443535
-0.0022202574
0.00049531877
-0.00075024995
0.00052328733
0.0011555327
3.226909e-05
0.001109619
-0.0003467396
-1.1231815e-05
-0.00022706706
-0.00075503175
0.0001140601
-0.00081119823
0.00034518516
-0.00021641605
0.00032831358
0.00012216838
0.0001973204
4.295524e-05
0.00015641088
-0.00011912516
0.00020629337
-0.00019525079
0.00027365068
-0.00019866708
0.00033132227
-0.00016208732
0.00037874841
-0.00010937144
0.00042070439
-5.5946202e-05
0.00045936444
-1.0766666e-05
0.00049261311
8.1609987e-06
0.00051227873
4.2397352e-06
0.0005355516
-1.0199769e-06
0.00056545793
-0.0028830565
0.00072326215
-0.00086702694
0.00061207964
0.0016933622
-1.4553381e-05
0.0016620951
-0.00052021792
2.7660242e-05
-0.00038563309
-0.0011171461
0.00013505386
-0.0011317046
0.00043457009
-0.0002828207
0.00041159662
0.00024867367
0.00020180864
0.00013369952
0.00010657771
-0.00012136103
0.00015864912
-0.00023119804
0.00024224681
-0.00023648807
0.0003114811
-0.00019188381
0.00036112845
-0.00013136665
0.00040075043
-7.2198549e-05
0.00043695848
-2.16589e-05
0.00047025427
8.6613676e-06
0.00049210874
6.0919753e-06
0.00051042563
-2.0558511e-06
0.00053658889
-4.9087332e-06
0.00057036911
-0.00346955
0.0006500066
-0.00091080745
0.00076702535
0.0023062261
-7.9568107e-07
0.0024110062
-0.00076347596
9.9127082e-05
-0.00059168723
-0.0016761186
0.00017334877
-0.0015909796
0.00059433438
-0.00034770264
0.00049946579
0.00047312384
0.00018715387
0.00028901167
4.6507749e-05
-0.00011027922
9.5508352e-05
-0.00027383645
0.0002013047
-0.00028670948
0.00029248992
-0.000228923
0.0003485439
-0.00015487743
0.00038466133
-8.8004012e-05
0.00041657239
-3.2575234e-05
0.00044788355
5.5986497e-06
0.00047331918
7.5566528e-06
0.00049064237
-4.0509552e-06
0.00051242112
-8.9834539e-06
0.00054066475
-7.6170844e-06
0.00057798883
-0.0043769077
0.00095222976
-0.0011342182
0.00087340013
0.0031734457
-0.0001002062
0.0034256303
-0.001015431
0.00018443214
-0.00084878554
-0.0024696024
0.00020180722
-0.0022430613
0.00082543576
-0.00041212557
0.00065877475
0.00079221531
0.00018038618
0.00054775721
-7.157451e-05
-5.6240128e-05
-7.512344e-06
-0.00031979707
0.0001414921
-0.00035761988
0.00027224317
-0.0002795375
0.00034313508
-0.00018110234
0.00037480009
-0.00010198695
0.00039867216
-4.1784653e-05
0.00042580297
1.0437684e-06
0.00045245091
7.0989743e-06
0.00047378189
-6.3790494e-06
0.00049297032
-1.5070754e-05
0.00051851034
-1.3966925e-05
0.00054701579
-8.4435656e-06
0.00058643584
-0.0053021381
0.0011326879
-0.0013126062
0.0011306018
0.0040438644
2.9692369e-06
0.0047305782
-0.0014051642
0.00032638127
-0.001157387
-0.003583715
0.00026533726
-0.0031853358
0.0011440854
-0.00046967994
0.00088300728
0.001280111
0.00017089283
0.00095153945
-0.00022337792
2.9310503e-05
-0.00015710346
-0.00037314276
4.5856617e-05
-0.00046407183
0.00024797194
-0.00035603472
0.00034876962
-0.00021305387
0.00037511756
-0.00011212697
0.00038497
-4.68807e-05
0.00040379489
-2.7079013e-06
0.00042957547
5.0756271e-06
0.00045448703
-9.9705912e-06
0.00047737939
-2.2270324e-05
0.0005001705
-2.2263481e-05
0.00052681046
-1.6244646e-05
0.00055481827
-7.387427e-06
0.00059382785
-0.0065940955
0.0014496376
-0.0013987994
0.0012188675
0.0053040652
-0.00012961159
0.0064534126
-0.0017198739
0.00042746566
-0.0015062573
-0.0050204696
0.00027937572
-0.0044813176
0.0015613214
-0.00051563909
0.001190058
0.0019953984
0.00016773431
0.0015557612
-0.00043331388
0.00016762081
-0.00036166686
-0.0004868011
-4.3426413e-05
-0.00064034879
0.00022215618
-0.00047935709
0.00037131518
-0.00025700259
0.00039274017
-0.00011550045
0.00037851246
-4.3572256e-05
0.00038168287
-2.5790949e-06
0.00040368617
2.3201502e-06
0.00043234746
-1.6173356e-05
0.00046070037
-3.006874e-05
0.0004851834
-3.3019717e-05
0.00051092738
-2.4768842e-05
0.00053534
-1.5700969e-05
0.00056313321
-4.6925715e-06
0.00059852644
-0.0075333888
0.0012022157
-0.0014373917
0.001488219
0.0068062155
-0.00028329574
0.0085829552
-0.0022591619
0.00050788015
-0.0018002984
-0.0069074984
0.00038077556
-0.0062973077
0.0020953676
-0.00051666138
0.0015623516
0.0030128162
0.00017265543
0.0024288
-0.00070529407
0.00038147859
-0.00064715171
-0.00072329076
-0.00012516483
-0.00089830024
0.00021454002
-0.00068328393
0.00042609243
-0.00032344039
0.00043776142
-0.00010740235
0.00038464867
-2.4748364e-05
0.00035969594
6.1486496e-06
0.00037296464
1.2260871e-07
0.00040589491
-2.4924965e-05
0.00044110981
-4.0896818e-05
0.00047153556
-4.4713193e-05
0.00049688124
-3.6485867e-05
0.00052264455
-2.3904014e-05
0.00054355003
-1.1738523e-05
0.00057017993
-5.4351162e-07
0.0005990773
-0.0089710753
0.0020994427
-0.0019191653
0.001683981
0.0087104901
-0.00041606901
0.011119162
-0.0028195097
0.00029738828
-0.0020486809
-0.0090777218
0.00036992376
-0.0086654214
0.0027488907
-0.00047839468
0.0020571031
0.0043901415
0.00018504233
0.0036598875
-0.0010584248
0.00070563696
-0.001029434
-0.0010825345
-0.00028790039
-0.0012704721
0.0002470147
-0.00098700946
0.00051826465
-0.00042516641
0.0005278139
-8.0885027e-05
0.00041123562
2.234843e-05
0.00033754324
3.0663126e-05
0.00033517556
7.7501116e-07
0.00037231109
-3.6162787e-05
0.00041713598
-5.5611955e-05
0.00045583021
-5.8946206e-05
0.00048577211
-5.0751577e-05
0.00051115005
-3.4038464e-05
0.00053277816
-1.9386502e-05
0.0005512064
-3.6450465e-06
0.00057328066
4.7371181e-06
0.00059434869
-0.01030741
0.0025103806
-0.0017526955
0.0019329666
0.010500868
-0.00010641117
0.014112851
-0.0034097669
-4.1636337e-06
-0.0025179693
-0.011797614
0.0006712039
-0.011746311
0.0034508147
-0.00037399566
0.0026444895
0.0062341086
0.00021315177
0.0053439859
-0.0014990486
0.0011833082
-0.0015360792
-0.0015829867
-0.00052897463
-0.0018620498
0.00030367937
-0.0014005055
0.000660504
-0.00057087044
0.00066395508
-2.1098775e-05
0.00046800897
0.00011617734
0.00031738653
8.0918807e-05
0.0002872691
8.4858502e-06
0.00032745119
-4.9680053e-05
0.00038582123
-7.5230086e-05
0.00043675262
-7.7367098e-05
0.00047425269
-6.6899964e-05
0.00050192126
-4.7647205e-05
0.0005247609
-2.6803838e-05
0.00054019329
-8.6199189e-06
0.00055619079
7.6678723e-06
0.00057034643
1.0265965e-05
0.00058409202
-0.011496101
0.0025804911
-0.00072826151
0.0014859416
0.013546363
-0.0011125423
0.018123561
-0.0041171304
-0.00029985494
-0.0031140871
-0.015406324
0.0010907283
-0.015218808
0.0041437008
-0.00032468766
0.0034015028
0.0086617663
0.0002168465
0.0076182509
-0.0020611016
0.001858417
-0.002174143
-0.0022655876
-0.00085346747
-0.0027690409
0.00037801464
-0.0019912978
0.00089446456
-0.00076438307
0.00085399887
8.2806772e-05
0.000560028
0.00028414001
0.00030002243
0.00017414188
0.00022414073
3.0284033e-05
0.00026545172
-6.5174655e-05
0.00034293202
-0.00010139061
0.00041197427
-0.0001017291
0.00046111193
-8.68515e-05
0.00049420437
-6.3495127e-05
0.0005177684
-3.6700491e-05
0.00053465938
-1.3449277e-05
0.00054501883
7.418913e-06
0.00055645026
1.9096932e-05
0.00056150831
1.4856255e-05
0.0005692456
-0.012421495
0.0025729338
0.00075220686
0.0011000184
0.017335651
-0.0023033612
0.021899987
-0.0048889803
-0.0012937862
-0.0031232099
-0.019651277
0.0011308498
-0.019341551
0.0052134724
-0.00028190407
0.0041009146
0.011841124
0.00022215787
0.010592227
-0.0027571121
0.0027738567
-0.0029765297
-0.0031709859
-0.0012687285
-0.0040890507
0.00046653738
-0.0028519611
0.0012386738
-0.0010257733
0.0011558368
0.00025114335
0.00068564456
0.00055588708
0.00028826069
0.00033665633
0.00013749057
7.6777897e-05
0.0001776317
-8.1718997e-05
0.00028198475
-0.0001370729
0.00037860668
-0.0001349149
0.00044515655
-0.00011256327
0.0004868227
-8.2921094e-05
0.00051363118
-5.04729e-05
0.00053153964
-2.0372127e-05
0.00054158455
4.6314329e-06
0.00054780094
2.4248316e-05
0.00055131056
2.7800995e-05
0.00054855193
1.7973517e-05
0.00055128237
-0.013371039
0.0029517496
0.0025409136
0.0007842229
0.021197612
-0.0027619561
0.025013211
-0.0054165986
-0.0029924306
-0.0031903449
-0.023661492
0.00088698712
-0.02439781
0.0061871088
0.00016761238
0.0047639576
0.015815537
0.00012651352
0.014429563
-0.0036151532
0.0039586766
-0.0039419219
-0.004351383
-0.001796114
-0.0059296722
0.00057188652
-0.0041010976
0.0017156713
-0.0013824305
0.001595315
0.00053059217
0.00087637682
0.00096506194
0.00027645769
0.00060851416
1.6397493e-05
0.00016245472
5.1810163e-05
-9.8087668e-05
0.00019400038
-0.00018694949
0.00033186162
-0.00018160333
0.00042529659
-0.00014719362
0.00047978887
-0.00010764533
0.00051154907
-6.8513795e-05
0.0005316746
-3.1413819e-05
0.00054258064
4.6618029e-07
0.00054575364
2.534806e-05
0.00054669455
3.8173066e-05
0.00054095178
3.3782085e-05
0.00053272687
1.9715114e-05
0.00053157816
-0.014249387
0.0030675545
0.0043831897
0.0011094691
0.025131507
-0.0031496851
0.027676418
-0.0054251767
-0.0053568189
-0.0030522177
-0.028138896
0.0012870432
-0.030285917
0.0067750967
0.00073709306
0.0056176357
0.020597554
-1.8047462e-05
0.019221994
-0.0046658875
0.0054448186
-0.0051012842
-0.0058756917
-0.0024175968
-0.0084158659
0.00069007374
-0.005872941
0.0023437239
-0.0018740196
0.0022072474
0.00096933016
0.0011565708
0.0015881308
0.00025330525
0.0010308722
-0.00014589202
0.00030744466
-0.00012858171
-0.00011238904
6.612743e-05
-0.00025883462
0.00026589861
-0.0002497966
0.00040006684
-0.00019645006
0.00047456145
-0.0001408466
0.00051299701
-9.1257299e-05
0.00053429723
-4.5794181e-05
0.00054605928
-5.9031447e-06
0.00054895016
2.4721324e-05
0.00054638666
4.4529196e-05
0.0005403309
4.7570169e-05
0.00052717942
3.7428572e-05
0.00051499204
2.0243541e-05
0.00051134652
-0.015033025
0.0030497337
0.0062384694
0.0012122697
0.029536624
-0.0032956612
0.029663542
-0.0051368228
-0.008553593
-0.002228409
-0.034653535
0.0034624066
-0.037034197
0.0080353243
4.2236043e-05
0.0074699668
0.026035092
0.00018011018
0.025063381
-0.0058594036
0.0071771196
-0.0063981756
-0.0078074271
-0.0031695396
-0.011661401
0.00082793433
-0.0083428878
0.0031600066
-0.0025430287
0.0030127229
0.0016279339
0.0015486387
0.0025215407
0.000223166
0.0016567256
-0.00037252915
0.00054409962
-0.00038252366
-0.00013690669
-0.00010403387
-0.00036869039
0.00017600884
-0.00035530252
0.00037142739
-0.0002721257
0.00047575859
-0.00018803136
0.00052175778
-0.00012000032
0.00054174842
-6.3063179e-05
0.00055157115
-1.4936937e-05
0.00055509832
2.2183975e-05
0.00055148859
4.7444092e-05
0.0005434812
5.8407326e-05
0.00052948558
5.3518848e-05
0.00051110823
3.8655221e-05
0.00049655446
1.9782886e-05
0.00049157704
-0.015713193
0.0029242864
0.008085643
0.0012025549
0.034351051
-0.0036021707
0.03186549
-0.0054976234
-0.011985968
-0.0017044525
-0.04161516
0.004733204
-0.043557912
0.0099861214
-0.00063947776
0.0087170547
0.032583639
0.00092143094
0.032357964
-0.0071144454
0.0091328929
-0.0078151639
-0.010082789
-0.004122814
-0.015805897
0.00097495047
-0.011704179
0.0041892039
-0.0034437283
0.0040606964
0.002572535
0.002068117
0.0038852401
0.00018494914
0.002567175
-0.00068725786
0.00090261749
-0.00073101561
-0.00016413467
-0.00035525695
-0.00054039321
6.7702272e-05
-0.00052581322
0.00034654883
-0.00038968655
0.0004890086
-0.00025588529
0.00054362648
-0.00015701567
0.00055878221
-8.3003298e-05
0.00056169378
-2.5452602e-05
0.00056208948
1.7571206e-05
0.00055971601
4.7891951e-05
0.00055104205
6.5242412e-05
0.00053665872
6.6891406e-05
0.00051610429
5.6036683e-05
0.00049375028
3.8007455e-05
0.00047829987
1.8726171e-05
0.00047286643
-0.016245389
0.0026495955
0.0098159183
0.0011940059
0.039335234
-0.0037816407
0.033866821
-0.0056035174
-0.014785131
-0.0026984656
-0.048577633
0.0052580126
-0.048666971
0.009842259
0.0018831387
0.007463522
0.040296378
0.0010043245
0.041807471
-0.0085280552
0.011255068
-0.0092366108
-0.012910733
-0.0049872315
-0.021287039
0.0013583168
-0.016209334
0.0054800799
-0.0046117465
0.0053572077
0.0038962532
0.0027369769
0.0058121676
0.00014120025
0.0038627511
-0.0011105972
0.0014214307
-0.0012060365
-0.00018609572
-0.00070901412
-0.00079815223
-9.7463057e-05
-0.00076500647
0.00030692415
-0.00055961099
0.0005164921
-0.00035249929
0.00058563316
-0.00020431777
0.00059093465
-0.00010562237
0.00058140179
-3.7795398e-05
0.00057403564
1.20146e-05
0.00056764383
4.770988e-05
0.00055990102
6.8110036e-05
0.00054817475
7.6607896e-05
0.00052695748
7.082167e-05
0.0005013098
5.563929e-05
0.0004761471
3.6789419e-05
0.00046020298
1.7360027e-05
0.00045552469
-0.016546226
0.0022484462
0.011353337
0.0011121719
0.044314638
-0.0037854093
0.035493991
-0.0054088272
-0.017580905
-0.0028077487
-0.055314893
0.0040387883
-0.052968175
0.0095592141
0.0057258837
0.0059995305
0.048243177
-0.00048326838
0.053041243
-0.010229438
0.013629134
-0.010902114
-0.016300909
-0.0058464563
-0.028005222
0.0017309304
-0.021964072
0.0071130299
-0.0060897456
0.0069580568
0.0057016104
0.0035518568
0.0084749161
7.423785e-05
0.0056650275
-0.0016610429
0.002145813
-0.0018349446
-0.00020457224
-0.0011875236
-0.0011635231
-0.00034361166
-0.0011334364
0.00027098841
-0.00079979039
0.00054711582
-0.0004913979
0.00065539311
-0.00026564377
0.00064695805
-0.00012917797
0.00061448318
-4.6455666e-05
0.00059005313
8.2298501e-06
0.00057781121
4.5706596e-05
0.00056963829
7.1102141e-05
0.00055690854
8.4107414e-05
0.00054067264
8.209193e-05
0.00051570423
7.1039167e-05
0.00048589914
5.3472052e-05
0.00045949867
3.4357337e-05
0.00044316869
1.5850168e-05
0.0004396961
-0.016526904
0.0017545162
0.012649343
0.00095243521
0.049146662
-0.0037198612
0.03678013
-0.0050715643
-0.020219359
-0.0027703782
-0.062367821
0.0042451763
-0.058120377
0.0091909866
0.0098278552
0.0054572552
0.055905492
-0.0016627732
0.064548787
-0.01199081
0.016347549
-0.012947848
-0.019969721
-0.0072333272
-0.036005454
0.0021537491
-0.029390014
0.0091568515
-0.0078077909
0.0088310488
0.0081194162
0.0045402641
0.012051646
-2.4861199e-05
0.0081029343
-0.0023636356
0.0031299764
-0.0026451704
-0.00022349359
-0.0018159964
-0.0016809082
-0.00067011255
-0.0016972326
0.00022019424
-0.0011546107
0.00062581189
-0.00070549966
0.00076120983
-0.00034884635
0.00073858667
-0.00015215336
0.00066991818
-4.8061119e-05
0.00061607262
1.0095856e-05
0.00058816948
4.6599464e-05
0.0005769012
7.2502056e-05
0.00056822298
8.7534498e-05
0.00055347618
9.0954637e-05
0.00053180263
8.345423e-05
0.00050330702
6.8453051e-05
0.00047090511
5.0046131e-05
0.00044384952
3.1433299e-05
0.00042754553
1.4408787e-05
0.00042531255
-0.016433794
0.0012771306
0.013756692
0.00064716246
0.053478307
-0.0033792186
0.037566803
-0.0045065493
-0.022487154
-0.0028037733
-0.06948231
0.0043441116
-0.063171516
0.009296311
0.011206323
0.0078125283
0.063959634
-0.0025968773
0.075936815
-0.013050803
0.018925816
-0.014569069
-0.02364696
-0.0092706305
-0.045080357
0.0018415497
-0.038446092
0.011209814
-0.009598617
0.010947658
0.011333569
0.0056169109
0.016765139
-0.00017320582
0.011315986
-0.0032378859
0.0044212923
-0.0036549102
-0.00023730473
-0.0026313464
-0.0023966691
-0.0011002148
-0.0025053382
0.00013798725
-0.0017065948
0.00077217166
-0.0010036296
0.0009239241
-0.0004733174
0.00088566588
-0.00017030724
0.00075672063
-3.4509924e-05
0.00065634811
2.5255959e-05
0.00060089265
5.465733e-05
0.00058008884
7.5825735e-05
0.00057355591
9.0480036e-05
0.00056525592
9.6387951e-05
0.00054803195
9.3160614e-05
0.00052208318
8.1724473e-05
0.00049005332
6.4648255e-05
0.00045628646
4.6210719e-05
0.00042911686
2.8600136e-05
0.00041331117
1.3178399e-05
0.00041216324
-0.016353134
0.00074447304
0.014631977
0.00040184087
0.057001809
-0.0028763471
0.037982893
-0.0037953221
-0.024397816
-0.0025958925
-0.076542956
0.0042568734
-0.067884796
0.0090573863
0.01240429
0.0080983534
0.069695632
0.0020765422
0.087376561
-0.014036625
0.020492153
-0.014617134
-0.029588923
-0.0086271158
-0.055182512
0.00083150325
-0.049374029
0.012769484
-0.011379165
0.012990358
0.015548612
0.0067326286
0.02281487
-0.00043278015
0.015459901
-0.0043171036
0.0060674293
-0.0048839743
-0.00025093041
-0.0036412855
-0.0033338447
-0.0016941556
-0.0036213491
1.577592e-05
-0.0025409199
0.00097229443
-0.0014261107
0.001194626
-0.00064303585
0.0010936229
-0.00018306677
0.0008984051
4.0153117e-06
0.00071817983
6.4978461e-05
0.00061661133
7.8182745e-05
0.00057734936
8.5351835e-05
0.00057054225
9.3852257e-05
0.0005701612
9.9715347e-05
0.00056190217
9.9411305e-05
0.00054176536
9.1986183e-05
0.00051180253
7.8080757e-05
0.00047663736
6.0187434e-05
0.00044228844
4.2426139e-05
0.00041534015
2.6189247e-05
0.00040025433
1.2326573e-05
0.00039986963
0.00022684825
-0.016424156
0.015117643
0.00025880173
0.059722026
-0.0023183811
0.03804642
-0.0029398866
-0.025838436
-0.0023547079
-0.083209059
0.0040702122
-0.072371788
0.0087438578
0.013424525
0.008037154
0.075537793
0.0022562066
0.1011679
-0.011714797
0.020049003
-0.013593472
-0.036434477
-0.0077715829
-0.065144624
0.0013349772
-0.063190857
0.014648338
-0.013884735
0.015275063
0.020668254
0.0078707265
0.03040198
-0.00085442682
0.020649844
-0.0056227158
0.0080951256
-0.0063447509
-0.00026177859
-0.0048731328
-0.004557516
-0.0024176088
-0.0052101538
-0.00010537628
-0.0037604386
0.0012352643
-0.0020490729
0.001595225
-0.00085790056
0.0014094645
-0.00019330714
0.0011038431
8.74799e-05
0.00081493042
0.00014357456
0.00063958026
0.00012867266
0.00056611647
0.00010826614
0.00055442841
0.00010071783
0.0005636638
0.00010125623
0.00056860028
0.00010217374
0.00055911118
9.8395305e-05
0.00053533766
8.8563082e-05
0.00050129561
7.3287767e-05
0.00046355154
5.5862495e-05
0.00042882501
3.9166202e-05
0.00040241642
2.4599736e-05
0.00038793211
1.1901583e-05
0.00038800474
0.00011027499
0.01523421
-0.00025461973
-0.016501748
0.061375099
-0.0013942762
0.037865046
-0.0021370158
-0.026870044
-0.001908287
-0.08925954
0.0036957751
-0.076336787
0.0080352047
0.01434044
0.0078279434
0.081216881
0.0023580791
0.11558966
-0.012165553
0.023242821
-0.014908612
-0.04299468
-0.0070332669
-0.075933756
0.0030175274
-0.078990237
0.017134363
-0.017732879
0.018496495
0.026041707
0.0099016199
0.039766861
-0.0014941024
0.026970986
-0.0071755622
0.010494003
-0.00802156
-0.00027607626
-0.0063304547
-0.0061050598
-0.0033256019
-0.0073052102
-0.00032256914
-0.0054536378
0.0015877808
-0.0029633448
0.00214951
-0.0011507669
0.0018880582
-0.00017102305
0.0013871605
0.00022257658
0.00096873737
0.00028707286
0.00067143622
0.00022457096
0.00054368953
0.00015519656
0.00051919728
0.00011630194
0.00053885236
0.00010268154
0.00056223582
0.000101003
0.00056975672
0.00010028599
0.00055719355
9.4998835e-05
0.0005288834
8.3945096e-05
0.00049060842
6.8444364e-05
0.00045098177
5.2137382e-05
0.00041582036
3.6931056e-05
0.0003901416
2.3622929e-05
0.00037615862
1.1803768e-05
0.00037624113
-0.00039472855
0.061880099
-9.6461025e-05
0.015076046
-0.0007680257
-0.016697061
0.037758528
-0.0012877654
-0.02762889
-0.0013781803
-0.094348981
0.0031811537
-0.079709712
0.007068696
0.015205773
0.0071698718
0.086609625
0.0024352146
0.13047148
-0.012523738
0.026157623
-0.015080358
-0.045089006
-0.012814283
-0.089152296
0.0061852632
-0.095632099
0.019659383
-0.022918887
0.022320379
0.031795449
0.012742758
0.051354973
-0.0016864558
0.034500341
-0.0090234506
0.013228866
-0.0099104188
-0.00029886083
-0.0079987673
-0.0079923145
-0.0044432367
-0.010042645
-0.00058817045
-0.0078001569
0.0020239012
-0.0042630411
0.0028874664
-0.0015597505
0.0025584606
-9.3003556e-05
0.0018100227
0.00043953314
0.0011701925
0.00052591384
0.00072989911
0.0003870619
0.0005089546
0.00024199863
0.00045690764
0.00014868168
0.00048684258
0.00010686622
0.00053468864
9.6009512e-05
0.00056723764
9.6493294e-05
0.0005735436
9.6250042e-05
0.000555921
9.0551521e-05
0.00052226068
7.9197927e-05
0.0004798204
6.4374406e-05
0.00043875457
4.9392127e-05
0.00040331925
3.5584082e-05
0.00037823973
2.332545e-05
0.0003645817
1.2082429e-05
0.00036420198
-0.00039417168
0.037757967
0.00058772393
0.06119591
-0.00018651854
0.014494531
-0.0013214524
-0.016827566
-0.027949677
-0.00096698932
-0.098236108
0.0025089446
-0.082355252
0.0058266936
0.015996271
0.0062781968
0.09141262
0.0023668902
0.14522805
-0.012321356
0.028833924
-0.015200038
-0.04736444
-0.01280493
-0.098416747
-0.0035498436
-0.11088307
0.021436233
-0.025862129
0.022602636
0.03973646
0.014379367
0.065558985
-0.0014612363
0.043919344
-0.011105451
0.01613598
-0.011930585
-0.00033489946
-0.0098743683
-0.0102409
-0.0057502356
-0.01351642
-0.00096946164
-0.010964084
0.0025757118
-0.0060940007
0.0038548613
-0.0021266617
0.0034543589
5.6811299e-05
0.0024086402
0.00081022173
0.0014393275
0.00088088354
0.00081522028
0.000658527
0.00045843398
0.00038891265
0.00036205286
0.00020801723
0.00039759611
0.00011782825
0.00047591136
8.7430836e-05
0.00054329691
8.5535724e-05
0.00057821259
9.0532316e-05
0.00057926643
9.1671109e-05
0.00055478787
8.6104538e-05
0.00051534128
7.4667811e-05
0.00046948906
6.1543379e-05
0.00042661135
4.7827832e-05
0.00039102914
3.52026e-05
0.00036642419
2.3821064e-05
0.00035278478
1.2601631e-05
0.00035164635
-0.00039428261
-0.027949576
0.00061611765
0.037729571
0.0016116291
0.059397758
-0.00038957812
0.01356265
-0.0018345436
-0.016696879
-0.10071861
0.0015155097
-0.084375024
0.0045287181
0.016699272
0.0051236922
0.095690626
0.0020001995
0.15900557
-0.011410625
0.031175372
-0.0146628
-0.049418513
-0.013145959
-0.10677693
-0.0044447477
-0.12944464
0.015011723
-0.023736973
0.019311082
0.048642517
0.013696588
0.081141149
-0.0012027886
0.055686991
-0.013228876
0.019222205
-0.014191706
-0.00041410786
-0.011851367
-0.012802131
-0.0073131936
-0.017855013
-0.0014116557
-0.015167534
0.0032339564
-0.0086015138
0.0050832181
-0.0029092296
0.0046374338
0.00030421343
0.00320696
0.0013970432
0.0018218307
0.0014138359
0.00090637353
0.0010796268
0.00039411454
0.00062988872
0.00021745277
0.00031489325
0.00025518122
0.00014273148
0.00037270938
7.5816281e-05
0.0004875546
6.5273269e-05
0.00056359
7.4995688e-05
0.00059377363
8.5019175e-05
0.00058593462
8.7701188e-05
0.00055318527
8.2601282e-05
0.00050739971
7.229842e-05
0.00045869375
6.0163627e-05
0.0004142826
4.7447385e-05
0.0003787323
3.5858931e-05
0.00035444981
2.4669176e-05
0.00034065607
1.3280845e-05
0.00033841378
0.00048540964
-0.10159831
0.00027621868
-0.027609686
0.0012218597
0.038119339
0.0024452569
0.056562918
-0.00069346841
0.012421567
-0.0023399618
-0.016317573
-0.085804915
0.0029454014
0.017513977
0.0037140137
0.099191749
0.0016225734
0.17108753
-0.010081748
0.033475781
-0.01371103
-0.051311913
-0.012769397
-0.11648607
-0.0034368334
-0.14911861
0.015229238
-0.029735118
0.021009869
0.055896711
0.012056894
0.095853696
-0.0010159534
0.069533486
-0.015049272
0.022500132
-0.01650683
-0.00060827104
-0.013997538
-0.015640198
-0.0090133459
-0.023104454
-0.0020637757
-0.020606428
0.0040272218
-0.012032109
0.0066645274
-0.0039654082
0.0061394172
0.00069441282
0.0042472367
0.0022700401
0.0023339954
0.0022236428
0.0010120298
0.0016863844
0.00029961929
0.0010143427
9.6478915e-06
0.0004876248
4.4705949e-05
0.00018963417
0.0002082662
6.1958367e-05
0.00038657103
3.2813772e-05
0.00052003088
4.5615128e-05
0.00059299626
6.6808513e-05
0.00061201323
8.1216112e-05
0.00059244374
8.5230702e-05
0.00055055679
8.085283e-05
0.00049884247
7.1576144e-05
0.0004472398
6.0184786e-05
0.00040155227
4.8321691e-05
0.00036621252
3.7105801e-05
0.00034207804
2.5968104e-05
0.000327905
1.4082156e-05
0.00032438176
0.0011435414
-0.086463046
-0.00071432724
-0.10060777
0.00079437673
-0.02718221
0.0021375401
0.038427057
0.0030062771
0.052863168
-0.00091460096
0.010996199
-0.0027323853
-0.015779209
0.017896472
0.002562909
0.10171111
0.0011946505
0.18117536
-0.008465258
0.035489148
-0.01209511
-0.052336189
-0.012686749
-0.12566406
-0.0035914177
-0.16843272
0.015877277
-0.036286813
0.021780928
0.053892002
0.023014575
0.10850629
-0.0005956999
0.084534212
-0.016016669
0.02628179
-0.018830954
-0.0010312385
-0.016083861
-0.0186977
-0.010940072
-0.029334596
-0.0027832247
-0.02761542
0.0049452096
-0.016608054
0.0086031402
-0.0053599709
0.0080591087