/*--------------------------------*- C++ -*----------------------------------*\
| =========                 |                                                 |
| \\      /  F ield         | OpenFOAM: The Open Source CFD Toolbox           |
|  \\    /   O peration     | Version:  5.0                                   |
|   \\  /    A nd           | Web:      www.OpenFOAM.org                      |
|    \\/     M anipulation  |                                                 |
\*---------------------------------------------------------------------------*/
FoamFile
{
    version     2.0;
    format      ascii;
    class       volVectorField;
    location    "360";
    object      ddtCorrDdt0(U);
}
// * * * * * * * * * * * * * * * * * * * * * * * * * * * * * * * * * * * * * //

dimensions      [0 1 -2 0 0 0 0];

internalField   nonuniform List<vector> 
9520
(
(-0.00028724859 -5.6533386e-07 0)
(-0.00028446763 -9.4719352e-07 0)
(-0.00028555826 -1.8914712e-06 0)
(-0.00027928177 -7.8008035e-07 0)
(-0.00028367905 -5.3370506e-06 0)
(-0.00028175884 8.3985704e-07 0)
(-0.00027160694 -2.7478836e-07 0)
(-0.00027923683 -7.9922962e-06 0)
(-0.00028003452 1.5032607e-06 0)
(-0.00028794074 6.4943067e-06 0)
(-0.00026177708 4.7513103e-07 0)
(-0.00027233296 -1.0013921e-05 0)
(-0.00027601238 1.729948e-06 0)
(-0.00028494194 1.7705983e-05 0)
(-0.00030003175 1.0331488e-05 0)
(-0.00025042469 1.0670916e-06 0)
(-0.00026302663 -1.0231578e-05 0)
(-0.00027050009 1.7382159e-06 0)
(-0.00027995747 2.7247122e-05 0)
(-0.00029619141 3.0066163e-05 0)
(-0.0003185996 1.0276802e-05 0)
(-0.00023725585 1.463602e-06 0)
(-0.00025175633 -9.3323092e-06 0)
(-0.00026321067 2.80406e-06 0)
(-0.00027407921 3.5599969e-05 0)
(-0.00029047809 4.8222991e-05 0)
(-0.00031534835 3.1592291e-05 0)
(-0.00033281379 6.5352282e-06 0)
(-0.00022135635 2.062949e-06 0)
(-0.00023889578 -7.6117711e-06 0)
(-0.00025361138 4.9707797e-06 0)
(-0.00026734911 4.2883653e-05 0)
(-0.00028358157 6.5159865e-05 0)
(-0.00031036299 5.2710988e-05 0)
(-0.0003308179 2.1397581e-05 0)
(-0.00033882433 2.4865403e-06 0)
(-0.0002006154 3.8034762e-06 0)
(-0.00022473449 -4.716666e-06 0)
(-0.00024248271 8.0794003e-06 0)
(-0.00025881952 5.0151484e-05 0)
(-0.00027609136 7.9549063e-05 0)
(-0.00030331537 7.3761906e-05 0)
(-0.00032718653 3.736081e-05 0)
(-0.00033872406 8.7291265e-06 0)
(-0.00034039521 1.4733523e-06 0)
(-0.00017112416 8.6530802e-06 0)
(-0.00021026533 5.5025531e-07 0)
(-0.00023149526 1.1927923e-05 0)
(-0.00024874418 5.7869949e-05 0)
(-0.00026762059 9.2664696e-05 0)
(-0.00029501106 9.2877554e-05 0)
(-0.00032100176 5.458923e-05 0)
(-0.00033715955 1.6054805e-05 0)
(-0.00034083574 4.1147557e-06 0)
(-0.00034256658 4.3864956e-06 0)
(-0.00012593056 2.2254779e-05 0)
(-0.00019725778 1.2371863e-05 0)
(-0.00022462989 1.6706027e-05 0)
(-0.0002379137 6.5847675e-05 0)
(-0.00025800963 0.0001052392 0)
(-0.00028649712 0.0001108033 0)
(-0.00031343114 7.24324e-05 0)
(-0.00033283654 2.4573149e-05 0)
(-0.00033991575 7.0536125e-06 0)
(-0.00034263429 1.1253461e-05 0)
(-0.00035038032 9.6710442e-06 0)
(-7.4295526e-05 5.1712955e-05 0)
(-0.00019142261 3.9520644e-05 0)
(-0.00022912416 2.3245294e-05 0)
(-0.00022788684 7.2963274e-05 0)
(-0.00024654125 0.00011757662 0)
(-0.00027745542 0.00012815699 0)
(-0.00030622101 9.0121956e-05 0)
(-0.00032699529 3.618855e-05 0)
(-0.00033913442 9.5389695e-06 0)
(-0.00034119517 1.7410631e-05 0)
(-0.00034957636 2.6365386e-05 0)
(-0.00036498042 1.4429111e-05 0)
(-3.813864e-05 0.00010038064 0)
(-0.00020769055 8.4870841e-05 0)
(-0.00026064583 3.1593476e-05 0)
(-0.00022206881 7.4767241e-05 0)
(-0.00023106191 0.0001284267 0)
(-0.00026676959 0.00014561708 0)
(-0.00029947635 0.00010770469 0)
(-0.0003208205 4.8729744e-05 0)
(-0.00033582306 1.4676757e-05 0)
(-0.00033949037 2.3002251e-05 0)
(-0.00034825516 4.1262576e-05 0)
(-0.00036333891 4.129465e-05 0)
(-0.00038392474 1.6279997e-05 0)
(-2.6078299e-06 0.00018745473 0)
(-0.00028721623 0.00017424618 0)
(-0.00033298137 4.1362968e-05 0)
(-0.00022434399 6.0592229e-05 0)
(-0.00020881763 0.0001339036 0)
(-0.00025089131 0.00016388569 0)
(-0.00029284847 0.00012588649 0)
(-0.00031513282 6.0974525e-05 0)
(-0.00033017268 2.1275201e-05 0)
(-0.00033753186 2.8288377e-05 0)
(-0.00034666816 5.6270398e-05 0)
(-0.00036229998 6.6116711e-05 0)
(-0.00038228897 4.8541901e-05 0)
(-0.00040274934 1.444978e-05 0)
(2.8984396e-05 0.00028341359 0)
(-0.00036085031 0.00025173735 0)
(-0.0003714739 1.8617178e-05 0)
(-0.00020143522 1.6624009e-05 0)
(-0.00016074578 0.00012760744 0)
(-0.00022073329 0.00018293059 0)
(-0.00028490169 0.00014694518 0)
(-0.00031159973 7.2521924e-05 0)
(-0.00032342071 2.7369357e-05 0)
(-0.00033272704 3.3934429e-05 0)
(-0.00034442828 6.9900527e-05 0)
(-0.0003612818 9.0492717e-05 0)
(-0.00038157992 7.98063e-05 0)
(-0.00040228442 4.4830403e-05 0)
(-0.00041732321 9.7298011e-06 0)
(7.7209419e-05 0.00048006382 0)
(-0.00048701254 0.00034430139 0)
(-0.00036941271 -4.9882405e-05 0)
(-0.0001089683 -7.2282858e-05 0)
(-6.701044e-05 0.00010457922 0)
(-0.00016734234 0.00020846948 0)
(-0.00027564912 0.00017819697 0)
(-0.00031492307 8.4731287e-05 0)
(-0.00031744741 3.0828285e-05 0)
(-0.00032422757 3.9345463e-05 0)
(-0.00033989667 8.2967717e-05 0)
(-0.00035920848 0.00011413827 0)
(-0.00038130495 0.00010942147 0)
(-0.0004021615 7.6046002e-05 0)
(-0.00041881673 3.1732282e-05 0)
(-0.00042533981 3.9375374e-06 0)
(0.00010048361 0.00060816095 0)
(-0.00068969252 0.00035314308 0)
(-0.00039620019 -0.00015402705 0)
(-9.4281854e-06 -0.00019228217 0)
(3.6067373e-05 4.9361087e-05 0)
(-9.4392046e-05 0.00024876441 0)
(-0.00027229882 0.00023189123 0)
(-0.00033328856 0.00010165555 0)
(-0.00031611222 2.8814795e-05 0)
(-0.00031198033 4.2753151e-05 0)
(-0.00033186904 9.6697037e-05 0)
(-0.00035593139 0.00013753318 0)
(-0.0003804902 0.00013879146 0)
(-0.00040242492 0.00010644044 0)
(-0.0004205564 5.5969055e-05 0)
(-0.00042875673 1.4425972e-05 0)
(-0.00042700143 -7.8587221e-07 0)
(8.2042126e-05 0.0010609788 0)
(-0.0010398953 0.00054867722 0)
(-0.00044542424 -0.00030449777 0)
(0.00012240456 -0.00034224891 0)
(0.00010511659 2.8401765e-05 0)
(-2.006572e-05 0.0003403565 0)
(-0.00028569073 0.00032209168 0)
(-0.00037930631 0.0001244847 0)
(-0.00032303062 1.6118723e-05 0)
(-0.00029552576 4.0610134e-05 0)
(-0.00031975661 0.00011131541 0)
(-0.00035095222 0.00016251413 0)
(-0.00037940697 0.00016868172 0)
(-0.00040366727 0.0001357483 0)
(-0.0004221871 8.3227041e-05 0)
(-0.00043387151 2.7228631e-05 0)
(-0.00043173548 -5.0333973e-07 0)
(-0.00042472855 -2.8156953e-06 0)
(2.0704789e-05 0.0011050793 0)
(-0.0012153396 0.00033711114 0)
(-0.00050805883 -0.00049974778 0)
(0.00021997125 -0.00053339397 0)
(0.0003002635 4.1842651e-05 0)
(5.2391957e-05 0.00045436326 0)
(-0.00033175953 0.00047741933 0)
(-0.00047575933 0.00016093671 0)
(-0.0003452165 -1.5668825e-05 0)
(-0.00027382956 2.5832959e-05 0)
(-0.00029972605 0.00012620104 0)
(-0.00034144989 0.000190683 0)
(-0.00037805252 0.00020045161 0)
(-0.00040575228 0.00016668753 0)
(-0.00042497522 0.0001093438 0)
(-0.00043714657 4.6952535e-05 0)
(-0.0004397421 1.7628136e-06 0)
(-0.00043022915 -7.7524745e-06 0)
(-0.00042186802 -1.774182e-06 0)
(-0.00012977347 0.0018234661 0)
(-0.0018176284 0.0009151861 0)
(-0.00085363218 -0.00087623806 0)
(0.00043025301 -0.00084159548 0)
(0.0006750556 2.3489232e-05 0)
(0.00011237321 0.00060800681 0)
(-0.00040227844 0.00069581045 0)
(-0.00062752046 0.00020664552 0)
(-0.00039243254 -7.6205736e-05 0)
(-0.00024569464 -1.1259198e-05 0)
(-0.00026770594 0.00013910604 0)
(-0.00032483714 0.00022355874 0)
(-0.00037566898 0.00023612869 0)
(-0.00040931932 0.00019966479 0)
(-0.00042971241 0.00013769207 0)
(-0.00044192471 6.9209813e-05 0)
(-0.00044846454 8.0557679e-06 0)
(-0.00043890128 -1.0497068e-05 0)
(-0.00042789704 -5.978364e-06 0)
(-0.00042104595 1.3624878e-06 0)
(-0.00017228645 0.0019269258 0)
(-0.0020129189 0.00033507276 0)
(-0.0010376598 -0.0011256186 0)
(0.00071379981 -0.001215747 0)
(0.0012427291 -1.8559554e-05 0)
(0.00024574887 0.00088902501 0)
(-0.00054906798 0.00098863668 0)
(-0.0008619187 0.00026963848 0)
(-0.00048106781 -0.00018717167 0)
(-0.00020751778 -8.3345313e-05 0)
(-0.00021695824 0.0001482393 0)
(-0.00029608083 0.00026344998 0)
(-0.00037086623 0.00027870245 0)
(-0.00041495842 0.00023639924 0)
(-0.00043695597 0.0001675728 0)
(-0.00044934939 9.2660128e-05 0)
(-0.00045437913 2.4006121e-05 0)
(-0.00045082671 -1.4714227e-05 0)
(-0.00043604458 -7.608743e-06 0)
(-0.00042739531 2.1063839e-06 0)
(-0.00042330809 4.8922665e-06 0)
(-0.0001967728 0.00284889 0)
(-0.0032536222 0.0012083361 0)
(-0.0016093599 -0.0019713653 0)
(0.0011197542 -0.0018845096 0)
(0.0019854059 -4.064823e-05 0)
(0.00042092912 0.0013313593 0)
(-0.00080509519 0.0013642662 0)
(-0.0011636072 0.00034352534 0)
(-0.00064052251 -0.00036940601 0)
(-0.00017011667 -0.00022861597 0)
(-0.00013805334 0.00014038075 0)
(-0.00024466295 0.00031220875 0)
(-0.00036035604 0.0003336615 0)
(-0.00042413759 0.00027977511 0)
(-0.00044821079 0.00019920605 0)
(-0.00045858972 0.00011638377 0)
(-0.00046218572 4.0908634e-05 0)
(-0.00046316769 -1.2080434e-05 0)
(-0.00044819872 -1.1796988e-05 0)
(-0.00043571773 4.794475e-06 0)
(-0.00042949465 1.203084e-05 0)
(-0.00042830622 7.3285094e-06 0)
(-0.00014425184 0.0030408909 0)
(-0.0030466553 0.0003900288 0)
(-0.0017238637 -0.002005013 0)
(0.0016376445 -0.0026079861 0)
(0.0030992095 -0.00020609047 0)
(0.00074717518 0.0019987879 0)
(-0.0012104303 0.0019471173 0)
(-0.0016931333 0.00041871431 0)
(-0.00078549883 -0.00066520203 0)
(6.0002974e-06 -0.00043409884 0)
(2.8866117e-06 0.00010893071 0)
(-0.00015118611 0.00036788421 0)
(-0.0003359327 0.00040833166 0)
(-0.00043855258 0.00033597921 0)
(-0.00046727238 0.00023340533 0)
(-0.0004712152 0.00013863668 0)
(-0.0004707767 5.6811005e-05 0)
(-0.0004723885 -5.5151614e-06 0)
(-0.00046205705 -1.2542568e-05 0)
(-0.00044793109 8.8530506e-06 0)
(-0.00043935475 1.9123638e-05 0)
(-0.00043378107 1.9849595e-05 0)
(-0.00043476501 7.9526314e-06 0)
(-0.00073037962 0.0042370468 0)
(-0.0052282648 0.0015987879 0)
(-0.0031034092 -0.0038950286 0)
(0.0023721898 -0.003752705 0)
(0.0043736122 -0.00010287177 0)
(0.0011263831 0.0028999608 0)
(-0.0017775458 0.0027089319 0)
(-0.0024821159 0.00048055536 0)
(-0.0010587644 -0.0010877856 0)
(0.00013582521 -0.00081786933 0)
(0.00027704181 3.8355936e-05 0)
(3.9332969e-05 0.00044300088 0)
(-0.00028322598 0.00051734686 0)
(-0.00046065877 0.00041575251 0)
(-0.00050073547 0.00027276051 0)
(-0.00049108443 0.00015726277 0)
(-0.00047997732 6.8844041e-05 0)
(-0.00047918619 2.133231e-06 0)
(-0.0004732525 -1.031734e-05 0)
(-0.00046326118 1.2585692e-05 0)
(-0.00045234956 3.3057431e-05 0)
(-0.00044594842 3.0374736e-05 0)
(-0.00043966469 2.3262258e-05 0)
(-0.00044094853 6.6719333e-06 0)
(-0.00059654525 0.0045468078 0)
(-0.0063428979 0.00058825255 0)
(-0.003369457 -0.003271412 0)
(0.0031817438 -0.0052912776 0)
(0.0063723635 -0.00061671668 0)
(0.0018377984 0.0042048385 0)
(-0.0026332798 0.0039369363 0)
(-0.0036510696 0.00054956851 0)
(-0.0014663635 -0.001745253 0)
(0.00040556482 -0.0013777667 0)
(0.00078935348 -0.00010148235 0)
(0.00025775539 0.00047428604 0)
(-0.00018907089 0.00068826884 0)
(-0.00049498838 0.00054207954 0)
(-0.00056130841 0.00032294865 0)
(-0.00052541843 0.0001686749 0)
(-0.00049102937 7.257283e-05 0)
(-0.00048293489 6.4012722e-06 0)
(-0.00048087045 -6.0588976e-06 0)
(-0.00047627518 2.0797589e-05 0)
(-0.00046892183 4.431207e-05 0)
(-0.00046093192 4.9579987e-05 0)
(-0.00045361976 3.7250216e-05 0)
(-0.00044641024 2.1566694e-05 0)
(-0.00044562541 3.6623573e-06 0)
(-0.0010595371 0.0065732424 0)
(-0.0092022163 0.0020625738 0)
(-0.0036848669 -0.0062126783 0)
(0.0046622805 -0.0074968556 0)
(0.0083022587 -6.2305214e-05 0)
(0.0024672816 0.0056192731 0)
(-0.0037041451 0.0053622419 0)
(-0.0052308834 0.000600834 0)
(-0.0020590256 -0.0026708737 0)
(0.00078515996 -0.002214393 0)
(0.0014740577 -0.00030715803 0)
(0.00052918772 0.00070950635 0)
(-8.2219647e-05 0.00096367592 0)
(-0.00055938726 0.00074251023 0)
(-0.000669444 0.00039582983 0)
(-0.00058808157 0.00016796207 0)
(-0.00050683678 5.9554917e-05 0)
(-0.00048172372 2.1195957e-06 0)
(-0.00048224427 -1.4254635e-06 0)
(-0.00048540585 3.3267102e-05 0)
(-0.00048559203 6.0105918e-05 0)
(-0.00047860594 6.9215511e-05 0)
(-0.00047202518 5.5139972e-05 0)
(-0.00046075486 3.8997393e-05 0)
(-0.00045281044 1.4822124e-05 0)
(-0.00044807648 -7.395397e-07 0)
(-0.0028570266 0.0064142328 0)
(-0.0077389473 0.00029964196 0)
(-0.0038824508 -0.0059324831 0)
(0.0062937795 -0.0088683042 0)
(0.011049705 -0.0010870959 0)
(0.0032077239 0.0078415614 0)
(-0.0053270029 0.0076530626 0)
(-0.0074817536 0.00058692493 0)
(-0.0028355029 -0.0040274865 0)
(0.0013169108 -0.0034036141 0)
(0.0024446696 -0.00062184608 0)
(0.0011143232 0.0010804723 0)
(-2.4150869e-05 0.0013459823 0)
(-0.00068547379 0.0010909267 0)
(-0.00086760182 0.00050808826 0)
(-0.00070028258 0.00014748657 0)
(-0.00053239578 1.7900928e-05 0)
(-0.00047318445 -1.9968966e-05 0)
(-0.00047277537 9.9875404e-07 0)
(-0.00048796897 5.0004796e-05 0)
(-0.000499295 8.1824758e-05 0)
(-0.00049910643 9.1845489e-05 0)
(-0.00049172767 8.094331e-05 0)
(-0.00048246758 5.356744e-05 0)
(-0.00046724401 3.2121601e-05 0)
(-0.00045740993 2.8905729e-06 0)
(-0.00044665107 -6.1234031e-06 0)
(-0.0054371776 0.0082382978 0)
(-0.014410956 0.0025492918 0)
(-0.0079475617 -0.0099930141 0)
(0.0077385908 -0.011878207 0)
(0.014504629 0.00061847938 0)
(0.0029092081 0.01009971 0)
(-0.0066532382 0.010131206 0)
(-0.010334485 0.00045763202 0)
(-0.0039292073 -0.0057909597 0)
(0.0020226514 -0.0050779013 0)
(0.0038316098 -0.0010818473 0)
(0.0020348776 0.0016011085 0)
(6.506741e-05 0.0019260614 0)
(-0.00090705786 0.0015592544 0)
(-0.0011770993 0.00068121965 0)
(-0.00089945568 9.2955282e-05 0)
(-0.00058048356 -7.9632942e-05 0)
(-0.00045265678 -7.3514536e-05 0)
(-0.00044529948 -3.5154685e-06 0)
(-0.00047868658 7.0658607e-05 0)
(-0.00050765031 0.00011108758 0)
(-0.00051861761 0.0001204537 0)
(-0.00051545436 0.00010856705 0)
(-0.00050613932 7.8235917e-05 0)
(-0.00049004418 4.5724085e-05 0)
(-0.00047357455 1.2256399e-05 0)
(-0.0004580945 -1.4067632e-05 0)
(-0.00044103873 -1.2015635e-05 0)
(-0.0069145217 0.0091319491 0)
(-0.016480808 0.00054538596 0)
(-0.0047770167 -0.0091105342 0)
(0.0097288705 -0.014587562 0)
(0.018946189 -0.0011166208 0)
(0.0039304922 0.013464842 0)
(-0.0083855005 0.01440664 0)
(-0.014303777 0.00032418016 0)
(-0.0052924016 -0.008053441 0)
(0.0029919976 -0.0072969481 0)
(0.0057267853 -0.0017663053 0)
(0.003374195 0.0023208116 0)
(0.00024146985 0.0028678987 0)
(-0.0012814011 0.0021979508 0)
(-0.001642438 0.00091403427 0)
(-0.0012019372 -2.2210487e-05 0)
(-0.00066119537 -0.00026229447 0)
(-0.00041264089 -0.00017626786 0)
(-0.00038938747 -2.4038501e-05 0)
(-0.00044889928 9.4998068e-05 0)
(-0.00050597328 0.00014969472 0)
(-0.00053533765 0.00015806037 0)
(-0.00054065629 0.00014142641 0)
(-0.0005324277 0.00010621264 0)
(-0.00051823913 6.1969523e-05 0)
(-0.00049640462 2.3424399e-05 0)
(-0.00047657301 -1.9015159e-05 0)
(-0.00045302096 -3.3401301e-05 0)
(-0.00043143201 -1.7624327e-05 0)
(-0.0087248436 0.0099616866 0)
(-0.016767337 0.001365576 0)
(-0.00030250696 -0.014767888 0)
(0.015495493 -0.019177705 0)
(0.024671794 0.0023604507 0)
(0.0058699349 0.017824589 0)
(-0.012868082 0.017572075 0)
(-0.018836438 0.00045817577 0)
(-0.0071237169 -0.011176792 0)
(0.0043152467 -0.010358613 0)
(0.008308814 -0.0026916466 0)
(0.0052274109 0.0032917488 0)
(0.00054914629 0.0042605653 0)
(-0.0018642734 0.0031464988 0)
(-0.002407383 0.0012266599 0)
(-0.0016320207 -0.00020143729 0)
(-0.00079616219 -0.00057939537 0)
(-0.00034295491 -0.00036174099 0)
(-0.00028864603 -7.3619211e-05 0)
(-0.00038491722 0.0001219475 0)
(-0.00048703611 0.00020146512 0)
(-0.00054607331 0.00020805641 0)
(-0.00056606757 0.00018301103 0)
(-0.00056261313 0.00013993133 0)
(-0.00054825848 8.5478836e-05 0)
(-0.000526383 3.2582807e-05 0)
(-0.00049952952 -1.3437422e-05 0)
(-0.00047417757 -5.2093166e-05 0)
(-0.0004439507 -5.0633986e-05 0)
(-0.00041891514 -2.2087929e-05 0)
(-0.0095434054 0.010918702 1.2395787e-23)
(-0.016365614 -0.0023578361 0)
(0.0022188297 -0.017185692 0)
(0.02288037 -0.0213634 0)
(0.027973836 0.00029296441 0)
(0.0022508898 0.021688868 0)
(-0.016589768 0.022502503 0)
(-0.02385503 -6.0671524e-05 0)
(-0.0088237294 -0.015173688 0)
(0.0061401017 -0.014180109 0)
(0.011742615 -0.003981532 0)
(0.0077874249 0.0045739656 0)
(0.0010348421 0.006267561 0)
(-0.0027178489 0.0044984431 0)
(-0.0035890846 0.0016460525 0)
(-0.0023400693 -0.0005025534 0)
(-0.00098364812 -0.0010697275 0)
(-0.00023448284 -0.00067897536 0)
(-0.00011707016 -0.0001740621 0)
(-0.0002646613 0.00014922549 0)
(-0.00043806369 0.0002727651 0)
(-0.00054661371 0.00027715339 0)
(-0.00059068033 0.0002376315 0)
(-0.00059593899 0.00018163531 0)
(-0.00058392066 0.00011742358 0)
(-0.00056226677 5.2154384e-05 0)
(-0.00053148702 -6.705454e-06 0)
(-0.00050062616 -5.6776074e-05 0)
(-0.00046724976 -7.8294297e-05 0)
(-0.00043227018 -6.3565538e-05 0)
(-0.00040458734 -2.5028895e-05 0)
(-0.010414849 0.011693796 -3.7507355e-23)
(-0.017085647 -0.0027137113 -1.2932532e-23)
(0.0043449769 -0.020723305 0)
(0.02645617 -0.025579597 0)
(0.028245169 0.0047251932 0)
(0.0013525254 0.025347641 0)
(-0.012635734 0.027404352 0)
(-0.029422912 -0.00022670652 0)
(-0.010663704 -0.020181169 0)
(0.0086568638 -0.019214126 0)
(0.016216027 -0.0055165949 0)
(0.011114981 0.0062225305 0)
(0.0017532501 0.0089959714 0)
(-0.0039254795 0.0065138554 0)
(-0.0053448545 0.0022214752 0)
(-0.0034276302 -0.0010018771 0)
(-0.001235152 -0.0018034413 0)
(-7.104103e-05 -0.0012028196 0)
(0.00017463338 -0.00034886271 0)
(-5.1730904e-05 0.00017647959 0)
(-0.00033920991 0.00037376329 0)
(-0.00052939733 0.00037652563 0)
(-0.0006145015 0.0003127238 0)
(-0.00063428242 0.00023589815 0)
(-0.00062516851 0.0001581539 0)
(-0.00060357012 7.8866978e-05 0)
(-0.00057105639 4.3203188e-06 0)
(-0.00053386964 -5.7245476e-05 0)
(-0.00049780212 -9.9168348e-05 0)
(-0.00045672101 -9.8844336e-05 0)
(-0.00041861832 -7.2380078e-05 0)
(-0.00038946885 -2.6492753e-05 0)
(-0.010763339 0.012509394 3.7656024e-23)
(-0.017378866 -0.0047768586 2.3915585e-23)
(0.004893905 -0.024594036 0)
(0.029881594 -0.026071009 0)
(0.028570527 0.0056728091 0)
(0.0023227384 0.032040991 0)
(-0.015437384 0.036270283 0)
(-0.040315099 -0.00084229319 0)
(-0.014587368 -0.02538345 0)
(0.011876372 -0.025212143 0)
(0.021937551 -0.0075891047 0)
(0.015490801 0.0083698434 0)
(0.0027285967 0.012650348 0)
(-0.0055861848 0.0092346725 0)
(-0.0078392386 0.0030214012 0)
(-0.0050428103 -0.001757774 0)
(-0.0016138532 -0.0029281031 0)
(0.00020700608 -0.001989117 0)
(0.00062655456 -0.00064203664 0)
(0.00029526959 0.00019745719 0)
(-0.00016295233 0.00052259262 0)
(-0.00049001604 0.00052362713 0)
(-0.00064062479 0.00042108363 0)
(-0.00068199543 0.00031045543 0)
(-0.00067507528 0.00020924098 0)
(-0.0006507925 0.00011221003 0)
(-0.00061616339 2.1102263e-05 0)
(-0.00057513216 -5.4205855e-05 0)
(-0.00053363036 -0.00010860915 0)
(-0.00048927736 -0.00013056581 0)
(-0.00044374681 -0.00011423288 0)
(-0.00040406925 -7.7236444e-05 0)
(-0.0003745322 -2.6675507e-05 0)
(-0.010637666 0.013208529 0)
(-0.017063422 -0.0062621968 -2.3952577e-23)
(0.005222638 -0.02890159 0)
(0.032675525 -0.029440276 0)
(0.026722546 0.010804046 0)
(-0.0039850744 0.037969166 0)
(-0.036877012 0.041135535 0)
(-0.052279581 0.00085296549 0)
(-0.022934702 -0.033119471 0)
(0.015119162 -0.033047199 0)
(0.028883715 -0.0096062466 0)
(0.02098383 0.01093451 0)
(0.0040833746 0.018073357 0)
(-0.007823262 0.013178967 0)
(-0.01133497 0.0040771954 0)
(-0.0073286383 -0.0028942286 0)
(-0.0021714501 -0.0045905874 0)
(0.00064993551 -0.0031458238 0)
(0.0013126252 -0.0011101243 0)
(0.00084518648 0.00025216216 0)
(8.1905181e-05 0.00074379382 0)
(-0.00043527093 0.00074936756 0)
(-0.00067512941 0.00059281369 0)
(-0.00074918453 0.00041762913 0)
(-0.00074162934 0.00027438806 0)
(-0.00070798123 0.00015169918 0)
(-0.00066671623 4.3698908e-05 0)
(-0.00062336746 -4.5903675e-05 0)
(-0.0005767256 -0.00011273516 0)
(-0.00052795677 -0.00015176429 0)
(-0.00047821287 -0.00015350737 0)
(-0.00042950991 -0.00012278815 0)
(-0.00038949662 -7.8489747e-05 0)
(-0.00035993187 -2.5898995e-05 0)
(-0.010008229 0.013783647 -7.7266433e-24)
(-0.016276949 -0.0079413656 0)
(0.0059803064 -0.033780093 7.5245757e-23)
(0.033852754 -0.031228029 0)
(0.026958828 0.013130758 0)
(-0.0068133233 0.044854218 0)
(-0.04521427 0.049350374 0)
(-0.054482518 -0.00044913912 0)
(-0.027123714 -0.040585107 0)
(0.019001763 -0.042221835 0)
(0.037145927 -0.012486492 0)
(0.027402283 0.014143809 0)
(0.0056454839 0.024266549 0)
(-0.01080809 0.018241839 0)
(-0.016083195 0.005540749 0)
(-0.010538862 -0.004470939 0)
(-0.0029636441 -0.0070047914 0)
(0.0013231356 -0.0048124244 0)
(0.0023494268 -0.0017998153 0)
(0.0016833515 0.00028864995 0)
(0.00052864044 0.001121945 0)
(-0.00034565783 0.0011312113 0)
(-0.0007220041 0.00085682268 0)
(-0.00084895428 0.00057194696 0)
(-0.00083603109 0.00035820996 0)
(-0.00078397951 0.0001975918 0)
(-0.00072794624 6.8188518e-05 0)
(-0.00067563402 -3.3526888e-05 0)
(-0.00062645446 -0.0001116372 0)
(-0.00057488449 -0.00016378844 0)
(-0.00052007473 -0.00018188036 0)
(-0.0004646486 -0.0001676033 0)
(-0.00041443354 -0.00012564068 0)
(-0.0003746004 -7.733843e-05 0)
(-0.00034644991 -2.4507081e-05 0)
(-0.0091755875 0.014271821 2.067696e-23)
(-0.014665293 -0.0094387611 9.5607599e-23)
(0.0061273932 -0.038548355 -7.5210359e-23)
(0.033322328 -0.033036229 6.5623667e-23)
(0.027284231 0.01564751 -1.3229219e-22)
(-0.0097447312 0.052913379 0)
(-0.050329924 0.052519706 0)
(-0.051817181 -0.0026280221 0)
(-0.019319368 -0.050262297 0)
(0.024031023 -0.055067962 0)
(0.046961429 -0.014324274 0)
(0.034541829 0.017970479 0)
(0.0073186301 0.031527078 0)
(-0.015141882 0.025243126 0)
(-0.022454384 0.0072875418 0)
(-0.014815036 -0.0067079173 0)
(-0.004016959 -0.010350286 0)
(0.0022812072 -0.0071760176 0)
(0.0038623574 -0.0027783376 0)
(0.0029317048 0.00032379963 0)
(0.0012423839 0.0016349329 0)
(-0.00018584042 0.0016134258 0)
(-0.00074037796 0.001234779 0)
(-0.00099521499 0.00079201992 0)
(-0.0009769038 0.00046465367 0)
(-0.0008889529 0.0002478767 0)
(-0.0008042679 9.2262436e-05 0)
(-0.00073715749 -2.12965e-05 0)
(-0.00068040186 -0.00010764568 0)
(-0.0006244195 -0.00016986485 0)
(-0.00056905533 -0.00020166833 0)
(-0.00050967785 -0.00020094299 0)
(-0.00045062156 -0.00017299402 0)
(-0.00039881128 -0.00012739793 0)
(-0.00036052163 -7.4719952e-05 0)
(-0.00033405974 -2.2902553e-05 0)
(-0.0083441206 0.014357267 -2.2332424e-23)
(-0.012090243 -0.010842208 -1.1747967e-22)
(0.0060326704 -0.043056169 0)
(0.031609863 -0.034827393 6.3636305e-24)
(0.026369819 0.018799273 1.3165125e-22)
(-0.010363228 0.059642882 -1.0840745e-22)
(-0.052752239 0.058024943 -5.233011e-23)
(-0.051686533 -0.010260857 0)
(-0.01248442 -0.057627241 0)
(0.031179879 -0.067880298 0)
(0.059231816 -0.018648282 0)
(0.044091255 0.022825747 0)
(0.0090185677 0.040993413 0)
(-0.020856138 0.033734423 0)
(-0.030954247 0.0096928075 0)
(-0.020533441 -0.0096560808 0)
(-0.0053636824 -0.014968427 0)
(0.003658245 -0.010403904 0)
(0.0059990788 -0.004129616 0)
(0.004723385 0.00035046161 0)
(0.0022893342 0.0023775411 0)
(0.0001333243 0.0024420159 0)
(-0.00084318403 0.0017451323 0)
(-0.0012000701 0.0011161566 0)
(-0.0011917563 0.00060674496 0)
(-0.0010433859 0.0002969867 0)
(-0.00090622832 0.00010765578 0)
(-0.00080721633 -1.5752452e-05 0)
(-0.00073872573 -0.00010534273 0)
(-0.0006802375 -0.00017295298 0)
(-0.00062040508 -0.00021416573 0)
(-0.00056080639 -0.00022570635 0)
(-0.0004977974 -0.0002105725 0)
(-0.00043723789 -0.00017062381 0)
(-0.00038591728 -0.00012344219 0)
(-0.00034750014 -7.0991995e-05 0)
(-0.00032278641 -2.1426311e-05 0)
(-0.0064564984 0.0142596 1.6562599e-24)
(-0.0085000991 -0.011833525 3.784095e-23)
(0.0054903345 -0.047690299 -1.3099502e-23)
(0.029383033 -0.036054587 -1.7994536e-23)
(0.025418458 0.021349134 -7.4577244e-23)
(-0.011038937 0.067458097 -4.2992028e-23)
(-0.053140616 0.064584272 -5.2840394e-22)
(-0.051836006 -0.011338596 1.0473088e-22)
(-0.010750148 -0.067573002 0)
(0.037089982 -0.083261451 0)
(0.07180796 -0.021052906 0)
(0.056913183 0.026036195 0)
(0.013681252 0.051909338 0)
(-0.027566877 0.045327837 0)
(-0.042044101 0.011969927 0)
(-0.027603825 -0.013649954 0)
(-0.0070402089 -0.021070805 0)
(0.0055724919 -0.014764319 0)
(0.0089227791 -0.0059397767 0)
(0.0072483957 0.0003741787 0)
(0.0037964137 0.0034287163 0)
(0.00063701757 0.003634891 0)
(-0.0010407948 0.0025509313 0)
(-0.0015264744 0.0016129372 0)
(-0.0015217106 0.00079787503 0)
(-0.0012742516 0.00034430964 0)
(-0.001048771 0.00010118332 0)
(-0.00089325872 -2.9283195e-05 0)
(-0.0007993248 -0.00011187209 0)
(-0.00073516907 -0.00017748313 0)
(-0.00067710349 -0.00022348192 0)
(-0.00061537899 -0.00024383346 0)
(-0.00055038738 -0.0002397346 0)
(-0.00048507845 -0.00021233487 0)
(-0.00042329503 -0.00016612778 0)
(-0.0003725628 -0.00011708768 0)
(-0.00033548254 -6.7037423e-05 0)
(-0.00031255429 -2.036048e-05 0)
(-0.0038923728 0.014146827 5.9094616e-24)
(-0.0057886565 -0.012735503 1.0457841e-25)
(0.0048441666 -0.051453721 0)
(0.025303344 -0.036393206 -1.8988641e-24)
(0.022753682 0.023426046 -1.2623774e-22)
(-0.010449671 0.074996852 0)
(-0.05190484 0.069321297 2.1653668e-22)
(-0.051650684 -0.012808483 3.3249906e-22)
(-0.0096220116 -0.075882862 0)
(0.047603667 -0.09202357 0)
(0.082340388 -0.024403458 0)
(0.069611647 0.035102115 0)
(0.02263874 0.065738864 0)
(-0.032505783 0.057769464 0)
(-0.054025042 0.014775728 0)
(-0.035995851 -0.019011423 0)
(-0.0088111154 -0.029120479 0)
(0.0082347218 -0.020382008 0)
(0.012818244 -0.0083169324 0)
(0.010653758 0.00040145949 0)
(0.0059762919 0.0048311117 0)
(0.0013962007 0.0054147231 0)
(-0.0012792253 0.0038019122 0)
(-0.0020848282 0.0022706198 0)
(-0.0020048381 0.0011061243 0)
(-0.0016429455 0.00036856371 0)
(-0.0012540099 5.1220163e-05 0)
(-0.0010019299 -8.1786734e-05 0)
(-0.00086213111 -0.00014210618 0)
(-0.00078570976 -0.00018929057 0)
(-0.00073001544 -0.00023052863 0)
(-0.00067304282 -0.00025661438 0)
(-0.00060865176 -0.00026105017 0)
(-0.00053992529 -0.0002448986 0)
(-0.00047237918 -0.00020868602 0)
(-0.00041033191 -0.00016023201 0)
(-0.00036047804 -0.00011051852 0)
(-0.0003247989 -6.3521652e-05 0)
(-0.00030316633 -1.9906454e-05 0)
(-0.00074910413 0.014132824 0)
(-0.0029286306 -0.013311282 0)
(0.004006659 -0.054523424 -1.1211129e-25)
(0.02035188 -0.036715581 0)
(0.020005445 0.025077494 1.7766623e-23)
(-0.0098818884 0.082449651 -1.19091e-23)
(-0.049996886 0.074990124 -5.2366832e-22)
(-0.049235488 -0.014228547 -2.8691542e-22)
(-0.010849994 -0.082317034 0)
(0.051476809 -0.11133034 0)
(0.088858284 -0.023802041 0)
(0.070935233 0.038787067 0)
(0.0090698535 0.077304939 0)
(-0.036176655 0.074567452 0)
(-0.065596577 0.016654942 0)
(-0.045669444 -0.025912031 0)
(-0.010476576 -0.039216981 0)
(0.011891284 -0.027685521 0)
(0.017914428 -0.011222411 0)
(0.015162498 0.00039925839 0)
(0.0089115267 0.0066856777 0)
(0.0024743528 0.0077930921 0)
(-0.0015649165 0.0056609555 0)
(-0.002933923 0.0032470309 0)
(-0.0027936629 0.0014804804 0)
(-0.0021710207 0.00040541954 0)
(-0.0015643226 -6.4415059e-05 0)
(-0.0011471198 -0.00020667701 0)
(-0.00092542663 -0.0002202693 0)
(-0.00082531527 -0.00022291566 0)
(-0.00077302827 -0.00024062079 0)
(-0.00072638395 -0.0002625846 0)
(-0.00066911608 -0.00027475276 0)
(-0.00060149235 -0.00026845226 0)
(-0.00052923751 -0.00024383221 0)
(-0.00045901429 -0.00020156385 0)
(-0.00039773192 -0.00015353387 0)
(-0.00034922667 -0.00010520586 0)
(-0.00031469563 -6.1485516e-05 0)
(-0.00029417466 -2.0189797e-05 0)
(-0.00060533417 -0.013558666 -2.0595039e-25)
(0.0015392684 0.014195859 0)
(0.0017061461 -0.056661351 -5.676471e-24)
(0.015566577 -0.036611896 5.0605442e-24)
(0.016132655 0.02628424 7.1801124e-23)
(-0.0086751501 0.089347845 -5.9529431e-23)
(-0.046669361 0.079705945 1.5443823e-23)
(-0.046739601 -0.015223536 1.15124e-22)
(-0.011152737 -0.089493518 5.2250661e-22)
(0.05118278 -0.12752241 0)
(0.094294187 -0.026029253 -1.160377e-21)
(0.065775262 0.051165123 0)
(0.0042182744 0.091794037 0)
(-0.030061562 0.094700534 0)
(-0.082375079 0.022243648 0)
(-0.060308354 -0.033626153 0)
(-0.012059433 -0.051616238 0)
(0.016833852 -0.036500756 0)
(0.024405527 -0.014908518 0)
(0.020974753 0.00046376898 0)
(0.012868339 0.0090625577 0)
(0.0040448111 0.010981148 0)
(-0.0019816651 0.0083169514 0)
(-0.0041680149 0.0046747372 0)
(-0.0040200941 0.0019741783 0)
(-0.0029653328 0.00041199135 0)
(-0.0020463305 -0.00030510496 0)
(-0.0013470899 -0.00042881585 0)
(-0.00098998105 -0.00037436886 0)
(-0.00084428309 -0.00029895559 0)
(-0.00079479406 -0.00026465358 0)
(-0.00076666304 -0.00026501311 0)
(-0.00072593797 -0.00027726561 0)
(-0.00066631915 -0.00028180351 0)
(-0.00059438004 -0.0002690771 0)
(-0.00051816961 -0.00023861839 0)
(-0.00044655683 -0.00019458437 0)
(-0.00038566464 -0.00014750503 0)
(-0.00033826123 -0.00010289303 0)
(-0.00030499359 -6.1334641e-05 0)
(-0.00028544227 -2.1153509e-05 0)
(-0.00021359563 -0.057572658 5.6444724e-24)
(0.002233581 -0.013542998 0)
(0.0045018144 0.014362432 1.7250866e-24)
(0.0092334823 -0.036491594 -5.0568331e-24)
(0.011997062 0.027332185 -2.1507504e-23)
(-0.0073988055 0.095363293 5.08954e-23)
(-0.041948433 0.083890252 1.7157689e-22)
(-0.04165028 -0.016302881 2.0379754e-22)
(-0.010834374 -0.096169225 1.9896903e-22)
(0.049695337 -0.14505684 -1.4762552e-22)
(0.095430688 -0.030777703 -1.045327e-21)
(0.06466567 0.05702519 1.211559e-21)
(0.0064728004 0.10416484 0)
(-0.04329758 0.11895899 0)
(-0.11632753 0.028197759 0)
(-0.08132015 -0.040668811 0)
(-0.017414782 -0.067472341 0)
(0.023741974 -0.047468826 0)
(0.032538132 -0.018872929 0)
(0.028205702 0.00040957024 0)
(0.018004099 0.012054255 0)
(0.0061888849 0.01525014 0)
(-0.0024214909 0.011983572 0)
(-0.0059370752 0.0067822762 0)
(-0.0058361241 0.0026603728 0)
(-0.0042372923 0.0003155047 0)
(-0.0026933748 -0.00063887694 0)
(-0.0016577959 -0.00084934278 0)
(-0.0010576172 -0.00066578502 0)
(-0.00082898433 -0.00044764424 0)
(-0.00077862283 -0.00031797083 0)
(-0.00077930479 -0.00027003745 0)
(-0.00076898935 -0.00026900719 0)