/*--------------------------------*- C++ -*----------------------------------*\
| =========                 |                                                 |
| \\      /  F ield         | OpenFOAM: The Open Source CFD Toolbox           |
|  \\    /   O peration     | Version:  5.0                                   |
|   \\  /    A nd           | Web:      www.OpenFOAM.org                      |
|    \\/     M anipulation  |                                                 |
\*---------------------------------------------------------------------------*/
FoamFile
{
    version     2.0;
    format      ascii;
    class       volScalarField;
    location    "360";
    object      nut;
}
// * * * * * * * * * * * * * * * * * * * * * * * * * * * * * * * * * * * * * //

dimensions      [0 2 -1 0 0 0 0];

internalField   nonuniform List<scalar> 
9520
(
1.5222645e-117
1.933055e-109
1.337561e-117
1.40696e-102
1.7008521e-109
1.1694705e-117
1.8264025e-96
1.2387913e-102
1.4881991e-109
1.0239945e-117
6.7902843e-91
1.6088835e-96
1.0842647e-102
1.3045282e-109
9.0729695e-118
9.4350014e-86
5.9835341e-91
1.4089144e-96
9.5135452e-103
1.1593177e-109
8.1990525e-118
5.8477928e-81
8.3142544e-86
5.2435359e-91
1.2378063e-96
8.47737e-103
1.0532189e-109
7.5632266e-118
1.8215744e-76
5.1532216e-81
7.2904047e-86
4.6142333e-91
1.1059579e-96
7.7353466e-103
9.7696283e-110
7.0607492e-118
3.0725267e-72
1.6062752e-76
4.5217532e-81
6.4261175e-86
4.1337248e-91
1.0128147e-96
7.2020783e-103
9.138228e-110
6.5559204e-118
2.9733061e-68
2.7133291e-72
1.4114163e-76
3.9929497e-81
5.7711694e-86
3.7963366e-91
9.45023e-97
6.7328962e-103
8.4431791e-110
5.9312079e-118
1.7416379e-64
2.6317302e-68
2.3893762e-72
1.2494086e-76
3.594768e-81
5.3109942e-86
3.5443736e-91
8.8130863e-97
6.1754704e-103
7.5499373e-110
5.1535845e-118
6.909008e-61
1.5435617e-64
2.3245933e-68
2.1209711e-72
1.1280011e-76
3.3132625e-81
4.9541596e-86
3.2917483e-91
8.0133238e-97
5.4509981e-103
6.46865e-110
4.3096564e-118
3.4931241e-57
6.0144201e-61
1.36736e-64
2.0688766e-68
1.9200531e-72
1.0413753e-76
3.084594e-81
4.5742846e-86
2.9641533e-91
6.98079e-97
4.6082376e-103
5.3633668e-110
3.5601062e-118
2.3171685e-52
2.6202475e-57
5.2698188e-61
1.217671e-64
1.8763908e-68
1.7753205e-72
9.6744129e-77
2.8276507e-81
4.0748609e-86
2.5496396e-91
5.8319858e-97
3.7987243e-103
4.455271e-110
3.049344e-118
2.9733851e-46
1.2637586e-52
2.0387301e-57
4.6216578e-61
1.1032968e-64
1.7370702e-68
1.6461889e-72
8.8021431e-77
2.4894188e-81
3.4620579e-86
2.1094585e-91
4.794993e-97
3.1850203e-103
3.9087483e-110
2.8561455e-118
4.9468503e-40
1.7099063e-46
6.8911306e-53
1.5511313e-57
4.1251194e-61
1.0217245e-64
1.6090881e-68
1.4871717e-72
7.6574416e-77
2.0895972e-81
2.8426215e-86
1.7356317e-91
4.0723835e-97
2.8684079e-103
3.7985468e-110
3.0057063e-118
3.8414331e-34
3.5727191e-40
8.3753122e-47
2.8537013e-53
1.2080476e-57
3.7947811e-61
9.4698254e-65
1.4450374e-68
1.2789999e-72
6.3546393e-77
1.7060321e-81
2.3478895e-86
1.4974159e-91
3.7695023e-97
2.8856231e-103
4.1364623e-110
3.4784054e-118
1.1077002e-28
3.4267354e-34
1.902107e-40
2.1511533e-47
1.0440761e-53
1.0215672e-57
3.5177867e-61
8.4704597e-65
1.2292385e-68
1.0502061e-72
5.1694057e-77
1.4189144e-81
2.0620813e-86
1.4241797e-91
3.9118886e-97
3.2276642e-103
4.8588799e-110
4.1574892e-118
1.0699626e-23
1.1624773e-28
1.9745716e-34
4.4793388e-41
3.296151e-48
4.9786408e-54
9.158781e-58
3.1384649e-61
7.129957e-65
9.9891822e-69
8.5271058e-73
4.3417265e-77
1.2713188e-81
2.0122197e-86
1.5169866e-91
4.4593118e-97
3.8098544e-103
5.7360939e-110
4.7586853e-118
3.1420506e-19
1.2598055e-23
7.1159079e-29
4.5589817e-35
5.6858312e-42
6.8225883e-49
3.4601636e-54
8.0474295e-58
2.6111019e-61
5.7282798e-65
8.102644e-69
7.2471989e-73
3.9754011e-77
1.2711604e-81
2.1868006e-86
1.7475202e-91
5.2413564e-97
4.4008302e-103
6.3222465e-110
4.8939392e-118
2.5843662e-15
3.9317862e-19
8.0267227e-24
1.639255e-29
5.9151735e-36
1.2060062e-42
3.6625086e-49
2.7872949e-54
6.5221171e-58
2.0661606e-61
4.6390427e-65
6.9782119e-69
6.7839927e-73
4.0670346e-77
1.4017831e-81
2.5240571e-86
2.0278827e-91
5.8800139e-97
4.639381e-103
6.1476356e-110
4.3377778e-118
5.4156488e-12
3.2654384e-15
2.6198585e-19
1.9032693e-24
2.3263506e-30
1.7946666e-36
9.9366415e-43
3.1603175e-49
1.9462689e-54
4.9752424e-58
1.6651438e-61
4.0504067e-65
6.678855e-69
7.0813762e-73
4.5294988e-77
1.6085999e-81
2.8687883e-86
2.1963147e-91
5.901841e-97
4.2513334e-103
5.1031132e-110
3.2563324e-118
2.8245441e-09
6.6253554e-12
2.2352114e-15
6.8948858e-20
3.2043097e-25
1.0704469e-30
2.5449006e-36
1.2586302e-42
1.546354e-49
1.142903e-54
3.9172945e-58
1.4725273e-61
3.9640303e-65
7.0950012e-69
7.9222784e-73
5.1357558e-77
1.7773354e-81
2.9839553e-86
2.093761e-91
5.0896619e-97
3.3071437e-103
3.5897166e-110
2.0902094e-118
3.6593438e-07
3.3257735e-09
4.717401e-12
6.7250299e-16
1.5877935e-20
2.1912095e-25
2.3503991e-30
4.3329026e-36
5.8879672e-43
2.9126676e-50
7.1744026e-55
3.4781196e-58
1.473975e-61
4.2783072e-65
7.9361258e-69
8.8243147e-73
5.4851252e-77
1.7656995e-81
2.6975196e-86
1.701386e-91
3.7195852e-97
2.1926689e-103
2.1911686e-110
1.2015352e-118
1.0991286e-05
4.1380576e-07
2.4400559e-09
1.6745052e-12
2.1309583e-16
1.4043838e-20
6.2955532e-25
4.7804134e-30
2.1105523e-36
5.4693723e-44
4.06856e-51
5.766606e-55
3.5568053e-58
1.6159694e-61
4.7682698e-65
8.6399028e-69
9.0708014e-73
5.1840201e-77
1.509863e-81
2.0708204e-86
1.1746163e-91
2.3434335e-97
1.2901729e-103
1.2425334e-110
6.8321541e-119
6.270001e-05
1.1922323e-05
3.1505776e-07
1.0168446e-09
6.9920897e-13
2.299832e-16
4.3163583e-20
1.3817372e-24
2.3605283e-30
1.6530926e-37
1.404633e-45
1.1531937e-51
5.8322565e-55
3.9678961e-58
1.7917018e-61
5.0523534e-65
8.5143003e-69
8.1405643e-73
4.186946e-77
1.0967031e-81
1.3612944e-86
7.1152822e-92
1.3520671e-97
7.3965826e-104
7.4428228e-111
4.5042626e-119
0.00013057928
6.5192154e-05
9.7903417e-06
1.5510488e-07
5.3608699e-10
8.6572795e-13
6.8620471e-16
9.4585879e-20
6.7903825e-25
1.7072357e-31
2.6695758e-39
3.2365218e-47
7.8656649e-52
6.5887639e-55
4.3798583e-58
1.8418728e-61
4.7549524e-65
7.2438894e-69
6.2187225e-73
2.8839771e-77
6.9169671e-82
8.0506479e-87
4.1093606e-92
8.0593784e-98
4.8267034e-104
5.616268e-111
4.0830772e-119
0.00018909603
0.0001337117
5.9327766e-05
5.9179699e-06
9.8490723e-08
7.2839508e-10
2.3999946e-12
1.4284563e-15
4.6044629e-20
4.8144993e-26
2.3621281e-33
2.2325865e-41
3.1575773e-48
8.1740983e-52
7.2472254e-55
4.3590692e-58
1.6489932e-61
3.8275054e-65
5.2437778e-69
4.085965e-73
1.7594121e-77
4.060246e-82
4.7679113e-87
2.6206942e-92
5.9118766e-98
4.2754831e-104
6.1400997e-111
5.4609706e-119
0.00023488068
0.00019127657
0.00012595115
4.5793775e-05
4.3921137e-06
1.4080756e-07
1.8471031e-09
4.6173082e-12
6.9085975e-16
3.4092381e-21
7.131737e-28
1.7656985e-35
5.5962458e-43
1.786805e-48
8.8417549e-52
6.9709046e-55
3.6958374e-58
1.2523215e-61
2.6300186e-65
3.3099123e-69
2.4408607e-73
1.0421802e-77
2.5307778e-82
3.3429932e-87
2.2107678e-92
6.2205683e-98
5.5955032e-104
9.6724607e-111
9.8589463e-119
0.00027243612
0.00023626963
0.00018143189
0.00010839276
3.9208774e-05
6.1534781e-06
3.2150368e-07
3.2065595e-09
2.2380399e-12
5.6396858e-17
6.5074066e-23
8.2213869e-30
7.6542152e-37
2.8224305e-43
1.9461411e-48
8.1411952e-52
5.5650577e-55
2.6373201e-58
8.1765611e-62
1.6070904e-65
1.9637614e-69
1.4875699e-73
6.9961947e-78
2.0013665e-82
3.2803025e-87
2.7487294e-92
9.5266668e-98
9.9967084e-104
1.9017611e-110
2.0270244e-118
0.0003041177
0.00027279262
0.0002249748
0.000162556
9.9546248e-05
4.8288717e-05
1.1522349e-05
4.9752543e-07
1.5692418e-09
2.1047377e-13
1.4854456e-18
1.2826409e-24
8.158035e-31
1.192858e-36
5.7632548e-43
1.6129235e-48
5.9750753e-52
3.7071203e-55
1.6365256e-58
4.8743607e-62
9.6145922e-66
1.2564848e-69
1.0974075e-73
6.3416126e-78
2.2939025e-82
4.7239355e-87
4.7612701e-92
1.853561e-97
2.0531781e-103
3.9372061e-110
4.0980412e-118
0.00033065429
0.00030301628
0.00026026683
0.00020526978
0.00015414466
0.00011253943
6.7063269e-05
1.5178373e-05
2.516846e-07
1.7673185e-10
7.9469921e-15
5.3018133e-20
2.8527802e-25
2.7717328e-30
4.2336862e-36
4.5198509e-43
7.8225265e-49
3.6290989e-52
2.1820104e-55
9.5936218e-59
2.9865608e-62
6.5847938e-66
1.035127e-69
1.1450002e-73
8.4274157e-78
3.7342806e-82
8.9024344e-87
9.7019494e-92
3.8416381e-97
4.1562795e-103
7.5998532e-110
7.4443099e-118
0.00035133042
0.00032780752
0.00028970119
0.00024003618
0.00019766308
0.00016942865
0.00013624918
7.5512153e-05
8.920971e-06
3.5573116e-08
9.8434905e-12
5.3802187e-16
2.4976677e-20
1.4925271e-24
1.2160014e-29
3.6198558e-36
5.91378e-44
3.0602891e-49
2.0058665e-52
1.2668566e-55
6.1141727e-59
2.2278007e-62
6.1213528e-66
1.2376084e-69
1.727518e-73
1.5107638e-77
7.3961738e-82
1.8349947e-86
1.9735379e-91
7.4431393e-97
7.5324005e-103
1.2784397e-109
1.1605399e-117
0.00036650693
0.00034696456
0.00031355928
0.00026974386
0.00023285189
0.0002142021
0.00019550103
0.00014559661
5.7071586e-05
1.8491444e-06
2.9986325e-09
1.2941656e-12
4.8294522e-16
1.5976584e-19
7.0366905e-24
1.0960479e-29
3.340618e-37
2.0926755e-45
1.3604625e-49
1.1586934e-52
8.5230311e-56
5.0382701e-59
2.3473193e-62
8.2916644e-66
2.065845e-69
3.3028904e-73
3.0650722e-77
1.5003052e-81
3.5836095e-86
3.6031311e-91
1.2521882e-96
1.1630597e-102
1.8145782e-109
1.5210964e-117
0.00037692781
0.00036085065
0.00033221249
0.00029425631
0.00026302602
0.00024947397
0.00024039964
0.00020367111
0.00012200056
2.2866148e-05
2.4855193e-07
7.5025577e-10
1.9482531e-12
3.246093e-15
7.4592354e-19
6.4970909e-24
1.0334485e-30
3.0065041e-39
1.3112444e-46
7.6066631e-50
8.333228e-53
7.8391107e-56
6.0060004e-59
3.5442692e-62
1.4913395e-65
4.0897744e-69
6.6910696e-73
6.0208727e-77
2.7665015e-81
6.0935115e-86
5.583209e-91
1.7647068e-96
1.4960198e-102
2.1436936e-109
1.66323e-117
0.00038277021
0.00037024288
0.00034597594
0.00031396476
0.00028827605
0.00027878563
0.00027419685
0.00024640949
0.00017642734
7.3993744e-05
5.9029965e-06
1.0972209e-07
1.6342221e-09
1.2484727e-11
1.4168831e-14
6.9202123e-19
6.5762502e-25
8.8804291e-33
6.6284428e-42
4.1024685e-47
5.8863355e-50
8.6033357e-53
1.0500104e-55
9.9176014e-59
6.6982665e-62
2.9820808e-65
8.1036393e-69
1.2531606e-72
1.0376453e-76
4.3416741e-81
8.650991e-86
7.1544919e-91
2.0511193e-96
1.5888236e-102
2.098419e-109
1.5148894e-117
0.0003846762
0.0003755624
0.00035566903
0.00032924447
0.00030891182
0.0003029098
0.00030106131
0.00027804327
0.00021770365
0.00012526306
3.6512884e-05
4.1045336e-06
2.9622415e-07
9.3900577e-09
4.863716e-11
1.302444e-14
7.7110127e-20
6.5962039e-27
1.3551933e-35
7.1470807e-44
3.1336788e-47
6.8114074e-50
1.281868e-52
1.8597014e-55
1.925392e-58
1.3255219e-61
5.6862416e-65
1.4300574e-68
2.0031871e-72
1.490155e-76
5.6098844e-81
1.0060863e-85
7.50003e-91
1.9550022e-96
1.3899224e-102
1.7018703e-109
1.1511017e-117
0.00038401803
0.00037771641
0.00036186235
0.00034085804
0.00032534087
0.0003223993
0.00032240417
0.00030271156
0.00024908456
0.00016686652
8.4634688e-05
3.4022919e-05
1.0726168e-05
1.4126748e-06
3.1403304e-08
4.3745414e-11
1.6342126e-15
9.6902077e-22
1.5028702e-29
1.6551796e-38
1.6085317e-44
3.9855481e-47
1.1168008e-49
2.3932323e-52
3.6391519e-55
3.7080539e-58
2.4020189e-61
9.379452e-65
2.1100841e-68
2.6284585e-72
1.7417397e-76
5.88523e-81
9.5042386e-86
6.4088005e-91
1.5265685e-96
1.0023377e-102
1.1460447e-109
7.3209942e-118
0.00038143775
0.00037766766
0.00036561962
0.00034931132
0.00033834203
0.00033768168
0.00033905875
0.00032201084
0.00027525721
0.00019966583
0.00012845115
8.6981114e-05
6.3116472e-05
3.1145365e-05
3.7454907e-06
2.7428045e-08
6.3092207e-12
2.7340295e-17
3.5522224e-24
2.126902e-32
6.9381526e-41
1.8240269e-44
7.1268803e-47
2.1696597e-49
4.6508557e-52
6.7308688e-55
6.3199501e-58
3.6815275e-61
1.2726389e-64
2.5254541e-68
2.7807103e-72
1.6402614e-76
4.9861493e-81
7.2753453e-86
4.4634249e-91
9.7788079e-97
5.9737222e-103
6.4308881e-110
3.9147405e-118
0.00037687027
0.00037610564
0.00036809796
0.00035562156
0.00034822128
0.00034965486
0.00035155152
0.0003367202
0.00029615423
0.00022951659
0.00016392243
0.00013529369
0.00012818305
0.00010650953
5.175811e-05
3.2173767e-06
4.6470572e-09
1.4692113e-13
1.5776027e-19
7.729426e-27
2.3494957e-35
1.0225557e-41
3.4740226e-44
1.4310521e-46
4.142669e-49
8.177538e-52
1.0701131e-54
8.9611113e-58
4.5805151e-61
1.3870643e-64
2.4181526e-68
2.3539133e-72
1.2400998e-76
3.4072152e-81
4.5149949e-86
2.538029e-91
5.1531128e-97
2.9535696e-103
3.0214093e-110
1.7700533e-118
0.00037387124
0.00037399116
0.00037003909
0.00036093237
0.000355503
0.00035840001
0.00036067961
0.00034730369
0.00031276631
0.00025479238
0.00019466035
0.00017410803
0.0001816658
0.0001780349
0.0001342901
4.6649567e-05
6.9724414e-07
1.5446599e-10
1.291613e-15
5.237081e-22
1.1125016e-29
9.4937752e-38
1.5535557e-41
7.2273839e-44
2.6689361e-46
6.8660346e-49
1.2037793e-51
1.3963393e-54
1.020259e-57
4.5403642e-61
1.2013724e-64
1.84165e-68
1.5902858e-72
7.524096e-77
1.8794759e-81
2.2766422e-86
1.1819758e-91
2.2432071e-97
1.2178555e-103
1.196074e-110
6.8173782e-119
0.00037162671
0.00037465386
0.00037520958
0.00036530366
0.00036104689
0.00036434803
0.00036653794
0.00035442476
0.00032547204
0.00027609902
0.00022159076
0.00020460005
0.00022221705
0.00023399317
0.00020586676
0.00012517987
1.8496065e-05
3.4215367e-08
2.0147629e-12
6.4065203e-18
1.2353752e-24
3.6060239e-32
4.7516338e-38
3.6384894e-41
1.319527e-43
4.139041e-46
9.2864852e-49
1.4341681e-51
1.4523877e-54
9.1888013e-58
3.5550789e-61
8.2314998e-65
1.1134674e-68
8.5748308e-73
3.6693431e-77
8.3896144e-82
9.3634992e-87
4.5298206e-92
8.1161889e-98
4.2195202e-104
4.0253285e-111
2.2596318e-119
0.00036886473
0.00037586004
0.00037523477
0.00037576625
0.00036472369
0.00036816146
0.00036970725
0.00035846027
0.00033490897
0.00029394173
0.00024482153
0.00023005228
0.00025241424
0.00027359666
0.00026028394
0.00019299719
7.8835456e-05
1.7715185e-06
6.4739471e-10
1.4878671e-14
2.7687708e-20
1.3836647e-26
3.5007172e-32
3.5208126e-37
7.1978778e-41
1.900684e-43
5.0948623e-46
1.0024185e-48
1.3607152e-51
1.1875086e-54
6.501584e-58
2.190944e-61
4.4556601e-65
5.3463284e-69
3.6975452e-73
1.4433033e-77
3.0444742e-82
3.1615647e-87
1.4401026e-92
2.4655232e-98
1.2435976e-104
1.1683055e-111
6.5501118e-120
0.00036639178
0.00037299101
0.00037803443
0.00037445026
0.00037515057
0.00036975093
0.00037060459
0.00036007381
0.00034162251
0.0003087652
0.0002648119
0.0002516648
0.00027473434
0.00030024241
0.00029535483
0.00024306116
0.00014048874
2.0396771e-05
5.0664678e-08
7.3307066e-12
1.4086515e-16
1.5658669e-21
5.0895942e-26
8.1741744e-31
1.7033154e-36
9.3755519e-41
2.0926261e-43
4.9362613e-46
8.6225357e-49
1.0090772e-51
7.5898341e-55
3.603816e-58
1.0618969e-61
1.9070613e-65
2.0440395e-69
1.2811297e-73
4.6100233e-78
9.0634923e-83
8.8685379e-88
3.8574444e-93
6.4117077e-99
3.1911015e-105
3.0034334e-112
1.7100512e-120
0.00036902932
0.00036657236
0.00037605269
0.00037792177
0.00037226628
0.00037251296
0.00036943067
0.00035979191
0.00034633251
0.00032091746
0.00028197693
0.00026996701
0.00029287752
0.00031857524
0.00031686901
0.00027596427
0.00018807608
6.4042658e-05
1.164912e-06
9.5641228e-10
1.9517852e-13
4.205704e-17
1.3728386e-20
1.3343703e-24
6.2646677e-30
1.9010316e-36
7.9096837e-41
1.782511e-43
3.801388e-46
5.7923587e-49
5.8226965e-52
3.7840023e-55
1.5646716e-58
4.0548583e-62
6.4800626e-66
6.2657914e-70
3.605156e-74
1.2136803e-78
2.259325e-83
2.1224813e-88
9.0119841e-94
1.489303e-99
7.4930129e-106
7.2302377e-113
4.2664203e-121
0.00036625466
0.00036555593
0.00036750091
0.00037741769
0.00037576734
0.00036808057
0.00036636879
0.00035813442
0.00034978049
0.00033098718
0.00029664606
0.00028543035
0.00030744044
0.00033261886
0.00033202115
0.00029800531
0.00022276222
0.00010758714
9.3876178e-06
4.2604506e-08
8.7524276e-11
2.4455597e-13
5.6404253e-16
3.1992878e-19
9.7164261e-24
6.9411623e-30
4.0094961e-37
5.1633643e-41
1.2071931e-43
2.3053578e-46
3.014974e-49
2.6110266e-52
1.4728594e-55
5.3389743e-59
1.2280198e-62
1.7678657e-66
1.5676443e-70
8.461707e-75
2.7329767e-79
4.9603322e-84
4.6288779e-89
1.9938448e-94
3.4073128e-100
1.7981057e-106
1.8351654e-113
1.1482884e-121
0.0003556832
0.00036112615
0.00036206406
0.00036809861
0.00037667869
0.00037142308
0.00036037809
0.0003559222
0.00035248481
0.00033975551
0.00030922101
0.00029838629
0.00031911953
0.00034253204
0.0003422549
0.00031380813
0.00025189017
0.0001427656
3.1980183e-05
8.0725887e-07
1.3198277e-08
2.979126e-10
3.6848281e-12
1.0748752e-14
2.0514218e-18
1.0814485e-23
8.0266643e-31
3.6508011e-38
2.8972854e-41
6.53866e-44
1.0808348e-46
1.2159036e-49
9.1221281e-53
4.5035598e-56
1.4484243e-59
3.008014e-63
3.9956997e-67
3.3588994e-71
1.776586e-75
5.7939269e-80
1.088791e-84
1.0778717e-89
5.0398063e-95
9.4745976e-101
5.5129078e-107
6.1554096e-114
4.1484591e-122
0.00035498756
0.00035234207
0.0003547986
0.00035849356
0.00036735014
0.00037358652
0.00036358634
0.00034866018
0.00034085018
0.00034728383
0.00032017792
0.000309172
0.00032811233
0.00034959946
0.00034811216
0.00032428362
0.00027440455
0.0001807456
6.2461683e-05
6.8105561e-06
6.4639406e-07
7.6701943e-08
4.148212e-09
5.4309017e-11
5.8894951e-14
2.243972e-18
1.4042432e-24
8.7823395e-33
6.5395558e-39
1.3681922e-41
2.7507884e-44
3.9186967e-47
3.8200441e-50
2.5111503e-53
1.1041734e-56
3.2350426e-60
6.3060637e-64
8.1676327e-68
7.014815e-72
3.9897422e-76
1.4571878e-80
3.1630472e-85
3.6930706e-90
2.0492533e-95
4.5187945e-101
3.0053969e-107
3.7054411e-114
2.6539823e-122
0.00035468371
0.0003553843
0.00034758477
0.0003480345
0.0003540625
0.00036459116
0.00036733828
0.00035178993
0.00033270461
0.00032036523
0.00032995241
0.00031807733
0.00033479886
0.00035374262
0.00035068552
0.0003300617
0.00029140008
0.00021233895
0.00010043007
2.645319e-05
9.2601433e-06
4.1596974e-06
8.5855657e-07
4.5155099e-08
2.4748743e-10
6.2333279e-14
3.3905448e-19
1.7768738e-26
2.2735489e-35
2.2456259e-39
5.1089858e-42
8.9588627e-45
1.11024e-47
9.5395003e-51
5.647933e-54
2.3097021e-57
6.5821273e-61
1.3232938e-64
1.8957111e-68
1.938892e-72
1.3939314e-76
6.6160179e-81
1.8705225e-85
2.7892562e-90
1.9032661e-95
4.9171671e-101
3.6412817e-107
4.7609478e-114
3.4578041e-122
0.00033863516
0.00035945682
0.00035391643
0.00034146005
0.00034019
0.00034818688
0.00035915061
0.0003572539
0.00033595212
0.00031174348
0.00029430078
0.00032521859
0.00033951338
0.00035559562
0.00035032222
0.00033211243
0.00030357317
0.00023923163
0.0001359186
5.6517203e-05
4.0721464e-05
3.8780482e-05
2.5397185e-05
5.9493789e-06
1.6573205e-07
2.5095921e-10
1.089232e-14
6.2553679e-21
2.113024e-29
5.4117539e-37
7.1807066e-40
1.4899595e-42
2.2988245e-45
2.5460673e-48
2.017349e-51
1.1567698e-54
4.9122668e-58
1.5892008e-61
4.0028713e-65
7.8419047e-69
1.1561959e-72
1.1969892e-76
7.8323184e-81
2.8655483e-85
5.1817186e-90
4.0323789e-95
1.1270841e-100
8.6474282e-107
1.1305797e-113
7.9641713e-122
0.00033086753
0.00034574073
0.0003619788
0.00035045252
0.00033350087
0.00033075523
0.00034020315
0.00035030438
0.00034317113
0.0003152471
0.00028558803
0.00026263432
0.00034225002
0.00035529011
0.00034763894
0.00033128439
0.0003117799
0.00026185214
0.00016809048
8.9774501e-05
7.6570446e-05
9.8194099e-05
9.9400833e-05
6.8777524e-05
1.4755005e-05
1.6019112e-07
5.0875064e-11
2.9118119e-16
1.3564826e-23
1.3712664e-32
8.6107014e-38
1.8558311e-40
3.484346e-43
4.935396e-46
5.264877e-49
4.3367798e-52
2.8721425e-55
1.5918959e-58
7.5150938e-62
2.9494433e-65
8.9942289e-69
1.943572e-72
2.6875696e-76
2.1454184e-80
8.8865948e-85
1.7230439e-89
1.3819169e-94
3.8700401e-100
2.9147876e-106
3.6820784e-113
2.4713437e-121
0.0003431331
0.00033510523
0.00035111745
0.00036234959
0.00034487763
0.00032374123
0.0003191739
0.00032959173
0.0003376411
0.00032432818
0.00028943483
0.00025421238
0.00022582243
0.00035288913
0.00034279712
0.00032831713
0.00031701653
0.00028044984
0.00019725517
0.0001211021
0.0001092399
0.00014537201
0.00017031352
0.00015798706
9.79891e-05
1.3867524e-05
3.8364541e-08
1.9671627e-12
1.1974895e-18
9.9832092e-27
4.4814698e-35
1.8095323e-38
3.9837843e-41
7.212382e-44
1.058739e-46
1.3122585e-49
1.4483403e-52
1.4708425e-55
1.351353e-58
1.0497071e-61
6.2562561e-65
2.5880939e-68
6.802827e-72
1.0499305e-75
8.8067232e-80
3.6893286e-84
7.0717285e-89
5.5289617e-94
1.4965621e-99
1.0835052e-105
1.3102819e-112
8.1362872e-130
0.00034830066
0.00034206273
0.00033803331
0.00035476273
0.00036055218
0.00033732245
0.00031177706
0.00030519681
0.00031572562
0.00032051054
0.00030036175
0.00025864118
0.00021794166
0.00018122681
0.00033602165
0.00032379336
0.00032028355
0.00029554107
0.00022362436
0.00014968787
0.00013790023
0.00017867591
0.00022457673
0.0002299943
0.0001893408
9.3868476e-05
4.7385234e-06
2.1748946e-09
1.4894498e-14
1.7514294e-21
5.1101384e-30
1.9310434e-36
3.5624542e-39
8.292617e-42
1.7431544e-44
3.4654653e-47
6.8081538e-50
1.310779e-52
2.2997081e-55
3.304228e-58
3.5075457e-61
2.5239731e-64
1.1489979e-67
3.1244831e-71
4.8073483e-75
3.9206689e-79
1.5809433e-83
2.9037821e-88
2.1725348e-93
5.629274e-99
3.9055821e-105
5.4826042e-121
1.6296521e-139
0.00032740086
0.00034124468
0.00033905869
0.00033996066
0.00035658583
0.00035663219
0.00032742803
0.00029716446
0.00028847833
0.00029791571
0.00029851836
0.00027117728
0.00022238452
0.00017370652
0.00012546171
0.00031808924
0.0003223257
0.00030810937
0.00024725101
0.00017592323
0.00016299149
0.00020610579
0.0002583845
0.00028142692
0.00025806268
0.00018330541
5.876856e-05
4.4508659e-07
2.9888704e-11
4.2925083e-17
1.3771885e-24
4.36409e-33
2.6983173e-37
7.8722485e-40
2.5017365e-42
8.5093589e-45
3.0800451e-47
1.0996939e-49
3.4371608e-52
8.3623006e-55
1.4469186e-57
1.6717693e-60
1.2279859e-63
5.4976545e-67
1.4409275e-70
2.1141926e-74
1.6345425e-78
6.2545774e-83
1.0930499e-87
7.8077159e-93
1.9386084e-98
2.3419754e-113
1.1723752e-130
2.1455403e-150
0.00031148918
0.00031695061
0.00033178213
0.00033475361
0.00034097224
0.00035633663
0.00035037205
0.00031482242
0.00027960459
0.00026843568
0.00027566465
0.00027124249
0.00023555942
0.00017760538
0.00011800892
5.926698e-05
0.00032362586
0.00031929446
0.0002684463
0.00020019369
0.00018541952
0.00022897461
0.0002853018
0.00031428446
0.00030217942
0.00025013649
0.00014283747
1.5538605e-05
1.1142916e-08
1.6341809e-13
6.2948386e-20
6.4277261e-28
3.9263647e-35
6.5110135e-38
3.298767e-40
1.9987459e-42
1.312054e-44
8.1243138e-47
4.1468703e-49
1.5752102e-51
4.1540502e-54
7.2699527e-57
8.1752589e-60
5.7294602e-63
2.425674e-66
5.9971555e-70
8.2849036e-74
6.0447037e-78
2.1934592e-82
3.6539304e-87
2.5006797e-92
1.7620241e-106
6.8127975e-123
1.1549081e-141
1.7393964e-162
0.00032407235
0.00030366195
0.00030481668
0.00032074943
0.00032992941
0.00034052632
0.00035381283
0.00034129214
0.00029928817
0.00025851488
0.00024421362
0.00024823141
0.00023721207
0.00019068241
0.00012061334
5.3812473e-05
9.9472781e-06
0.0003300576
0.00028758582
0.00022279203
0.00020577317
0.00024866016
0.00030693398
0.00033952704
0.00033145941
0.0002902242
0.00021138282
7.7711899e-05
9.1221657e-07
1.1162418e-10
4.3512936e-16
4.7972801e-23
3.0105723e-31
5.419292e-36
4.1129664e-38
4.4316869e-40
4.9798672e-42
4.924653e-44
3.7971973e-46
2.1130546e-48
8.0848369e-51
2.0583799e-53
3.4074213e-56
3.5927989e-59
2.355369e-62
9.3410052e-66
2.1710256e-69
2.820498e-73
1.947292e-77
6.7284135e-82
1.0737487e-86
3.5321327e-100
7.9360115e-116
7.0124736e-134
5.998968e-154
9.1914111e-176
0.0003397501
0.00032302407
0.00029435872
0.00029123306
0.00030954269
0.00032364312
0.00033801278
0.00034843
0.00032938571
0.00028005328
0.00023330545
0.00021534743
0.00021507085
0.00019391032
0.00013239553
5.5903497e-05
8.1942403e-06
3.3046107e-07
0.00030570902
0.00024392713
0.00022434634
0.00026570844
0.00032522237
0.0003586947
0.00035226298
0.00031682451
0.00025750107
0.00014622891
1.6226057e-05
1.6667035e-08
5.1926947e-13
5.7744618e-19
2.0561789e-26
1.3758119e-33
4.8724034e-36
8.8970701e-38
1.5875085e-39
2.3257179e-41
2.5494039e-43
1.9835264e-45
1.060362e-47
3.8075294e-50
9.012889e-53
1.3844507e-55
1.3566505e-58
8.2955558e-62
3.083776e-65
6.7449092e-69
8.2778603e-73
5.4370642e-77
1.7994296e-81
2.3845836e-94
2.6103977e-109
1.1310269e-126
2.5039792e-146
2.4878044e-167
5.4108058e-190
0.00032254885
0.00034703707
0.00031998816
0.00028366129
0.00027621717
0.00029603109
0.00031546231
0.00033275265
0.00033998604
0.00031370404
0.00025655322
0.00020351465
0.00018162719
0.00017310263
0.00013697015
6.4957137e-05
8.7850145e-06
2.4440042e-07
2.6830461e-09
0.00026366443
0.00024130251
0.00028013975
0.00034042343
0.00037420459
0.0003662631
0.0003330213
0.00028761615
0.00020568953
6.4841737e-05
6.7086437e-07
1.3117829e-10
1.1639847e-15
3.9370337e-22
9.171394e-30
5.9059409e-34
1.5414696e-35
4.0655614e-37
8.312874e-39
1.2380326e-40
1.3002855e-42
9.4319896e-45
4.6496486e-47
1.5356946e-49
3.3499703e-52
4.7612018e-55
4.3384236e-58
2.4810663e-61
8.6825997e-65
1.7931633e-68
2.0917052e-72
1.3155696e-76
6.32039e-89
2.9640192e-103
6.0119808e-120
3.8902414e-139
6.2096526e-160
1.414287e-181
5.8168907e-205
0.00028191851
0.0003372439
0.00035129529
0.00031505372
0.00027136902
0.00025953997
0.00028048286
0.00030455542
0.0003241272
0.00032765172
0.00029353665
0.00022748837
0.00016818399
0.00013960711
0.0001187692
6.8685805e-05
1.1732204e-05
2.6002827e-07
1.7551584e-09
5.5745189e-12
0.00025664222
0.00029188187
0.00035203257
0.00038630624
0.00037533013
0.00034111496
0.000304409
0.00024770806
0.00013140801
8.34686e-06
8.7929235e-09
4.8014065e-13
1.2982707e-18
1.5967664e-25
1.3494209e-31
2.227576e-33
8.1508567e-35
2.2243441e-36
4.347983e-38
5.9936365e-40
5.7560004e-42
3.8062814e-44
1.7132404e-46
5.1877707e-49
1.0433205e-51
1.3754059e-54
1.1698486e-57
6.2870692e-61
2.0814926e-64
4.0814608e-68
4.5568122e-72
7.3282122e-84
1.3348818e-97
1.1846796e-113
2.7356622e-132
5.8938565e-153
2.5882058e-174
1.6171494e-196
1.6361943e-220
0.00027047929
0.00029862086
0.00034882867
0.00035277473
0.00030802953
0.00025741972
0.0002409518
0.00026207291
0.00029017599
0.00031137629
0.000310612
0.00026717104
0.00019127213
0.00012431915
8.6782568e-05
5.4179395e-05
1.319601e-05
3.837918e-07
1.7872619e-09
3.1415878e-12
2.9658059e-15
0.00030060335
0.00035929423
0.00039416884
0.00037975219
0.00034265679
0.00031144141
0.00027493133
0.00018757271
4.9080467e-05
2.0214294e-07
5.0665428e-11
8.518576e-16
7.6958569e-22
1.6461973e-28
2.7417941e-31
1.2670618e-32
4.4605621e-34
1.1133028e-35
1.9660352e-37
2.4447517e-39
2.1228711e-41
1.2746383e-43
5.2377065e-46
1.4571037e-48
2.7112571e-51
3.3303438e-54
2.6579837e-57
1.3503995e-60
4.2501211e-64
7.9708847e-68
4.0281753e-79
2.6399481e-92
9.5550897e-108
8.6015107e-126
3.4574328e-146
1.3584135e-167
2.7165527e-189
4.9502352e-212
1.5652187e-236
0.00030653207
0.0002826916
0.00031355102
0.00035723221
0.00035148101
0.00029896063
0.00024152712
0.00021996621
0.00024036252
0.00027169565
0.00029397697
0.00028812792
0.00023232958
0.00014480665
7.0658038e-05
3.0238814e-05
8.268984e-06
4.6605578e-07
2.7901773e-09
2.9681118e-12
1.3939654e-15
4.1677291e-19
0.00036143172
0.00039611454
0.0003789644
0.00033823893
0.00031091825
0.00029008813
0.00023203733
0.00010636705
4.6319657e-06
1.7537465e-09
1.3768682e-13
7.7459684e-19
4.1665584e-25
3.483671e-29
1.540812e-30
6.7710804e-32
2.1056748e-33
4.6593472e-35
7.3442317e-37
8.2039658e-39
6.438321e-41
3.5157594e-43
1.3228514e-45
3.3946777e-48
5.8727788e-51
6.759611e-54
5.0936904e-57
2.4635782e-60
7.4115272e-64
1.1169747e-74
2.4760523e-87
3.4323956e-102
1.2155068e-119
1.2622511e-139
4.3078476e-161
1.0031447e-182
8.5238476e-205
5.1208141e-228
9.9214676e-253
0.00035838908
0.00030963706
0.00029385063
0.00032645782
0.00036250067
0.00034747439
0.000287495
0.00022333548
0.00019626381
0.00021503521
0.00024851947
0.00027106075
0.00025672462
0.00018382968
8.6665274e-05
1.9519677e-05
2.8372079e-06
2.4946733e-07
3.6242944e-09
4.878092e-12
1.173054e-15
1.6527401e-19
1.6696578e-23
0.00039097151
0.00037178441
0.00032809398
0.00030418252
0.00029672446
0.00026405779
0.00016231076
2.9849739e-05
9.9523086e-08
6.8879081e-12
1.8849453e-16
4.8309543e-22
6.5775714e-27
1.5285689e-28
8.0068803e-30
3.0023466e-31
8.1177854e-33
1.588104e-34
2.2357184e-36
2.2476562e-38
1.5984559e-40
7.9659814e-43
2.756284e-45
6.5574646e-48
1.0608103e-50
1.1515451e-53
8.2510334e-57
3.8222452e-60
1.6418411e-70
1.1692916e-82
5.8839092e-97
8.0145991e-114
2.5637947e-133
1.1214156e-154
1.6745246e-176
2.8032066e-198
9.3455487e-221
3.4910405e-244
5.6074877e-269
0.00037823173
0.00035038851
0.00031126663
0.00030415943
0.00033699263
0.00036452804
0.0003405545
0.00027331897
0.00020236548
0.00016952351
0.00018575039
0.00021977929
0.00024083317
0.00020993924
0.00012148145
2.6867069e-05
1.2816044e-06
6.038818e-08
1.8225009e-09
6.7738891e-12
2.0236744e-15
1.1628536e-19
5.7624626e-24
2.0910276e-28
0.00035770469
0.00031273172
0.00029252211
0.00029713308
0.00028680827
0.00021226955
7.8677859e-05
1.7882813e-06
8.9257541e-10
1.3856184e-14
1.8688311e-19
2.47614e-24
1.4558548e-26
7.7994563e-28
3.3979376e-29
1.0737298e-30
2.5191997e-32
4.3761423e-34
5.522479e-36
5.0138488e-38
3.2432424e-40
1.481492e-42
4.7378345e-45
1.0510903e-47
1.6002739e-50
1.6501213e-53
1.1335103e-56
1.3324213e-66
2.9161384e-78
5.0880931e-92
2.5865274e-108
2.734609e-127
2.2452271e-148
2.1633046e-170
3.2232898e-192
3.0763567e-214
6.8246996e-237
2.1073664e-260
2.8368571e-285
0.00033678905
0.00035867424
0.00033945657
0.00031223292
0.0003131266
0.00034465352
0.00036328281
0.00033046388
0.00025597364
0.00017806709
0.00013954481
0.00015210926
0.0001878381
0.00019724813
0.00014636568
4.9932936e-05
1.8315315e-06
1.9397788e-08
3.4075097e-10
3.2792121e-12
2.9462755e-15
1.9793562e-19
3.3472816e-24
6.5527297e-29
8.6336623e-34
0.00029298721
0.00027712883
0.00029333938
0.00030323933
0.00025562356
0.00013311434
1.4106154e-05
3.1010115e-08
4.2801271e-12
4.0006547e-17
4.095733e-21
5.0391946e-24
8.4817359e-26
3.3278903e-27
1.1718557e-28
3.090647e-30
6.2751043e-32
9.7301875e-34
1.1052356e-35
9.0970437e-38
5.3756288e-40
2.2620722e-42
6.7250987e-45
1.4003311e-47
2.0209418e-50
1.9949888e-53
6.1787597e-63
3.9927299e-74
2.3208754e-87
4.2749974e-103
1.5292187e-121
2.9361529e-142
2.7442203e-164
2.1344973e-186
3.0976385e-208
2.3597116e-230
4.4066097e-253
1.1306947e-276
1.2909645e-301
0.00026956374
0.000310255
0.00033546784