/*--------------------------------*- C++ -*----------------------------------*\
| =========                 |                                                 |
| \\      /  F ield         | OpenFOAM: The Open Source CFD Toolbox           |
|  \\    /   O peration     | Version:  5.0                                   |
|   \\  /    A nd           | Web:      www.OpenFOAM.org                      |
|    \\/     M anipulation  |                                                 |
\*---------------------------------------------------------------------------*/
FoamFile
{
    version     2.0;
    format      ascii;
    class       volScalarField;
    location    "360";
    object      nuTilda_0;
}
// * * * * * * * * * * * * * * * * * * * * * * * * * * * * * * * * * * * * * //

dimensions      [0 2 -1 0 0 0 0];

internalField   nonuniform List<scalar> 
9520
(
4.8313266e-33
5.1286776e-31
4.6776857e-33
2.6638843e-29
4.967296e-31
4.5232865e-33
8.9917594e-28
2.580498e-29
4.8042148e-31
4.3754671e-33
2.2203337e-26
8.7113507e-28
2.495979e-29
4.6484925e-31
4.2449267e-33
4.2867936e-25
2.1512651e-26
8.4270915e-28
2.4156427e-29
4.5131528e-31
4.1386025e-33
6.7638812e-24
4.1534635e-25
2.0814294e-26
8.1584623e-28
2.3468827e-29
4.405939e-31
4.0558211e-33
8.9858798e-23
6.5535153e-24
4.0192255e-25
2.0158947e-26
7.9315445e-28
2.2936423e-29
4.3238502e-31
3.9867997e-33
1.0240557e-21
8.707821e-23
6.3427836e-24
3.8942857e-25
1.961128e-26
7.758653e-28
2.2530263e-29
4.252389e-31
3.9138554e-33
1.0156875e-20
9.9272673e-22
8.4307372e-23
6.1483947e-24
3.7908297e-25
1.919748e-26
7.6254339e-28
2.2155173e-29
4.1695167e-31
3.8175514e-33
8.8856606e-20
9.8517514e-21
9.6165977e-22
8.1773406e-23
5.9887209e-24
3.7127619e-25
1.8870887e-26
7.4940183e-28
2.1684019e-29
4.0550909e-31
3.6861941e-33
7.0518558e-19
8.6214839e-20
9.5507081e-21
9.333999e-22
7.9706192e-23
5.8677002e-24
3.6488373e-25
1.8526699e-26
7.3187674e-28
2.1020713e-29
3.9017925e-31
3.5252003e-33
5.9462597e-18
6.8115243e-19
8.3640787e-20
9.2761258e-21
9.1042008e-22
7.8128063e-23
5.7639064e-24
3.5771013e-25
1.8049757e-26
7.0715685e-28
2.0158118e-29
3.7232867e-31
3.3604907e-33
9.5413509e-17
5.5335081e-18
6.5901529e-19
8.1248635e-20
9.0519878e-21
8.9274195e-22
7.6706016e-23
5.6404836e-24
3.4756395e-25
1.7384712e-26
6.7611643e-28
1.9207231e-29
3.5540774e-31
3.2320774e-33
3.2105103e-15
8.1979244e-17
5.1974005e-18
6.3773186e-19
7.9266031e-20
8.8789682e-21
8.7609004e-22
7.4923234e-23
5.4643749e-24
3.3372333e-25
1.6580852e-26
6.4377709e-28
1.8376111e-29
3.4386885e-31
3.1785089e-33
1.152807e-13
2.7953651e-15
7.047702e-17
4.8544144e-18
6.1983615e-19
7.7757491e-20
8.7112055e-21
8.5421756e-22
7.2367838e-23
5.2308368e-24
3.1767743e-25
1.5789998e-26
6.1787743e-28
1.7895679e-29
3.4130045e-31
3.2183425e-33
3.4216105e-12
1.0627639e-13
2.3406175e-15
5.6565948e-17
4.560036e-18
6.070219e-19
7.6299386e-20
8.4811679e-21
8.2271597e-22
6.9076238e-23
4.9721231e-24
3.028049e-25
1.5213875e-26
6.0585262e-28
1.7916584e-29
3.4856414e-31
3.337675e-33
7.9281469e-11
3.3260821e-12
9.0888841e-14
1.6680646e-15
4.3989285e-17
4.3724408e-18
5.9566328e-19
7.4211062e-20
8.1460721e-21
7.8320114e-22
6.5598004e-23
4.7473917e-24
2.9305253e-25
1.5019341e-26
6.1131468e-28
1.8422163e-29
3.6287206e-31
3.490409e-33
1.3976165e-09
8.0278048e-11
2.901956e-12
6.3394247e-14
1.0435603e-15
3.6532476e-17
4.2547371e-18
5.7899451e-19
7.1091533e-20
7.734551e-21
7.4338584e-22
6.2784439e-23
4.6174063e-24
2.9117154e-25
1.5254483e-26
6.3159871e-28
1.920347e-29
3.783406e-31
3.611721e-33
1.8296376e-08
1.4567099e-09
7.1118664e-11
2.0141862e-12
3.7827385e-14
7.0258036e-16
3.3340393e-17
4.1199691e-18
5.5304435e-19
6.7306551e-20
7.3392714e-21
7.1359031e-22
6.1396923e-23
4.6159035e-24
2.9723436e-25
1.5803281e-26
6.5774398e-28
1.9915042e-29
3.8783725e-31
3.6391682e-33
1.7425881e-07
1.9363661e-08
1.3035764e-09
4.9332664e-11
1.2079428e-12
2.5595788e-14
6.0019389e-16
3.1589149e-17
3.9097979e-18
5.2160744e-19
6.3838987e-20
7.0682625e-21
7.0168614e-22
6.1731738e-23
4.7295654e-24
3.0810181e-25
1.6406195e-26
6.7719868e-28
2.0190104e-29
3.8536149e-31
3.5333132e-33
1.1792063e-06
1.848744e-07
1.7522291e-08
9.1069951e-10
3.0241217e-11
8.931997e-13
2.4325897e-14
5.7855308e-16
2.8892471e-17
3.653966e-18
4.9411316e-19
6.1691043e-20
6.9890871e-21
7.0909997e-22
6.3412651e-23
4.8957431e-24
3.1822124e-25
1.674446e-26
6.7820688e-28
1.9766178e-29
3.6806655e-31
3.2909081e-33
5.6367562e-06
1.2408924e-06
1.6839955e-07
1.256164e-08
5.8235897e-10
2.4804533e-11
9.7266556e-13
2.5828259e-14
4.8486051e-16
2.5300227e-17
3.4411339e-18
4.7899942e-19
6.1341572e-20
7.0943208e-21
7.292817e-22
6.5448842e-23
5.0212351e-24
3.2153039e-25
1.655522e-26
6.5396995e-28
1.857469e-29
3.3726994e-31
2.9470161e-33
1.910878e-05
5.8748483e-06
1.1412785e-06
1.2479966e-07
8.6842508e-09
5.2740747e-10
3.01493e-11
1.1127538e-12
2.1425809e-14
3.2002849e-16
2.2514026e-17
3.3390979e-18
4.7898251e-19
6.2515699e-20
7.2964238e-21
7.4941115e-22
6.6562998e-23
5.0156972e-24
3.1370854e-25
1.5727877e-26
6.0500451e-28
1.6769188e-29
2.9821248e-31
2.5663509e-33
4.7543516e-05
1.9723642e-05
5.4426042e-06
8.812773e-07
9.3434886e-08
8.3928836e-09
6.8598307e-10
3.6077299e-11
9.3288695e-13
1.186625e-14
1.9566163e-16
2.130687e-17
3.3568885e-18
4.9009328e-19
6.4243188e-20
7.4555527e-21
7.5494743e-22
6.5667055e-23
4.8261121e-24
2.93816e-25
1.4343882e-26
5.3921407e-28
1.4689293e-29
2.587457e-31
2.2273815e-33
9.1707965e-05
4.8757619e-05
1.8421303e-05
4.3732693e-06
7.0697667e-07
9.497471e-08
1.1104216e-08
8.3688131e-10
3.0356714e-11
4.9529983e-13
4.7575709e-15
1.4258015e-16
2.1360232e-17
3.4499041e-18
5.0301821e-19
6.5205099e-20
7.4321088e-21
7.3522414e-22
6.2288886e-23
4.4577937e-24
2.6467607e-25
1.2657371e-26
4.6992194e-28
1.2776445e-29
2.2743036e-31
2.0043737e-33
0.00014558562
9.364102e-05
4.5979155e-05
1.5402559e-05
3.7197113e-06
7.4410555e-07
1.2474427e-07
1.3542869e-08
7.0340369e-10
1.5802288e-11
1.769339e-13
1.8511111e-15
1.2945211e-16
2.2022038e-17
3.5372127e-18
5.067344e-19
6.4258626e-20
7.1420082e-21
6.8774155e-22
5.6772866e-23
3.9738762e-24
2.3212037e-25
1.1030883e-26
4.1259759e-28
1.1469131e-29
2.1162135e-31
1.9520541e-33
0.00019769947
0.00014839477
8.9336323e-05
3.9750435e-05
1.3717873e-05
4.0088948e-06
9.5979853e-07
1.5019813e-07
1.1355357e-08
3.6434306e-10
5.4314741e-12
5.3455956e-14
1.03098e-15
1.30682e-16
2.2561195e-17
3.5348607e-18
4.9319742e-19
6.0900938e-20
6.591195e-21
6.1943203e-22
5.0183521e-23
3.4778647e-24
2.0351317e-25
9.847104e-27
3.8125829e-28
1.110629e-29
2.1598339e-31
2.0956629e-33
0.00024074947
0.00019992463
0.00014201167
7.9098199e-05
3.653437e-05
1.498715e-05
5.0584826e-06
1.1329923e-06
1.2571243e-07
5.9448197e-09
1.2731155e-10
1.594196e-12
2.1129385e-14
8.9204454e-16
1.3332688e-16
2.2356494e-17
3.3940444e-18
4.6066915e-19
5.5473443e-20
5.8766669e-21
5.4457759e-22
4.4009009e-23
3.0875973e-24
1.8597843e-25
9.4208929e-27
3.8542659e-28
1.1858942e-29
2.4164733e-31
2.427057e-33
0.00027687052
0.0002423189
0.00019112577
0.00012741559
7.3864927e-05
4.007898e-05
1.8461531e-05
5.8192442e-06
9.4858063e-07
6.7421852e-08
2.2116365e-09
4.1615541e-11
7.2027755e-13
1.7670651e-14
9.1120221e-16
1.3070042e-16
2.1146243e-17
3.1211522e-18
4.1425745e-19
4.905383e-20
5.1566827e-21
4.8086345e-22
3.9791007e-23
2.9071472e-24
1.8477079e-25
9.9310593e-27
4.2817746e-28
1.3698092e-29
2.8602456e-31
2.9062377e-33
0.00030771221
0.00027748338
0.00023186156
0.00017391696
0.00011995823
8.0692778e-05
4.8154901e-05
2.0667544e-05
4.8819797e-06
5.2688994e-07
2.7168921e-08
8.2592365e-10
2.30949e-11
7.9905791e-13
2.1125357e-14
8.7088972e-16
1.2106727e-16
1.9113899e-17
2.7709666e-18
3.6400485e-19
4.3124615e-20
4.6079548e-21
4.4504942e-22
3.8761097e-23
3.0028976e-24
2.0211626e-25
1.1381928e-26
5.0545809e-28
1.6398017e-29
3.4320261e-31
3.467432e-33
0.00033371938
0.00030690134
0.00026567681
0.00021315965
0.00016592134
0.00013013505
9.4788304e-05
5.2585244e-05
1.7435298e-05
2.8350318e-06
2.3218932e-07
1.1758595e-08
5.6103486e-10
3.1195536e-11
1.0989648e-12
1.9968784e-14
7.2825084e-16
1.0693328e-16
1.6744833e-17
2.4241982e-18
3.2184886e-19
3.9187588e-20
4.383402e-21
4.490467e-22
4.1554068e-23
3.3881982e-24
2.3667079e-25
1.3597467e-26
6.0665369e-28
1.9570883e-29
4.0484308e-31
4.0290757e-33
0.00035407449
0.0003311903
0.00029419982
0.00024609676
0.00020546198
0.00017914977
0.00015008861
0.00010149509
4.4825177e-05
1.0681766e-05
1.3762442e-06
1.1783717e-07
9.6480889e-09
8.4556743e-10
4.5280138e-11
1.0625171e-12
1.2077062e-14
5.7645642e-16
9.2205277e-17
1.4611026e-17
2.1641482e-18
2.9871904e-19
3.8418016e-20
4.5764266e-21
4.9705723e-22
4.8047188e-23
4.0185542e-24
2.8364026e-25
1.624763e-26
7.1627839e-28
2.2727934e-29
4.6151528e-31
4.5067939e-33
0.0003690594
0.00035003261
0.00031747907
0.00027466962
0.00023860167
0.00022046882
0.00020318648
0.00015883426
8.7924834e-05
2.9122561e-05
5.7445906e-06
8.2409293e-07
1.1379859e-07
1.5308264e-08
1.2501404e-09
4.4367576e-11
5.8946128e-13
5.2561576e-15
4.7059874e-16
8.0334777e-17
1.3218337e-17
2.0589342e-18
3.0216964e-19
4.138877e-20
5.1969731e-21
5.8425712e-22
5.734796e-23
4.7980038e-24
3.3554713e-25
1.8903349e-26
8.1657478e-28
2.5362377e-29
5.0429901e-31
4.827559e-33
0.0003793766
0.00036372609
0.00033574608
0.00029844415
0.00026754328
0.00025403017
0.0002455862
0.00021171312
0.00013929418
6.0562271e-05
1.737662e-05
4.0395844e-06
9.0735267e-07
1.8295824e-07
2.2581014e-08
1.2322897e-09
2.4747676e-11
1.8261888e-13
2.6264013e-15
4.065554e-16
7.3883583e-17
1.2924822e-17
2.148182e-18
3.3457634e-19
4.7901582e-20
6.1640253e-21
6.9727739e-22
6.7936945e-23
5.5958742e-24
3.8354915e-25
2.1113325e-26
8.9070321e-28
2.7040849e-29
5.2636368e-31
4.9422861e-33
0.0003851789
0.00037300518
0.00034924742
0.00031765113
0.00029201079
0.00028235317
0.00027818083
0.00025234552
0.00018739088
0.0001009426
3.9765152e-05
1.4065377e-05
4.8858687e-06
1.4424776e-06
2.6537322e-07
2.2281379e-08
6.995413e-10
7.5802547e-12
3.9624699e-14
1.9593212e-15
3.8073839e-16
7.4357545e-17
1.3885946e-17
2.4330559e-18
3.9216561e-19
5.6972335e-20
7.3172634e-21
8.1635693e-22
7.791477e-23
6.26986e-24
4.191373e-25
2.2489727e-26
9.2591974e-28
2.7483246e-29
5.2418037e-31
4.8338635e-33
0.00038708381
0.0003782633
0.00035875781
0.00033257655
0.00031213272
0.00030587541
0.00030437581
0.00028291515
0.00022590343
0.00014224534
7.1926334e-05
3.5770437e-05
1.8011518e-05
7.5655386e-06
2.0333896e-06
2.6117775e-07
1.2952474e-08
2.2266483e-10
1.501297e-12
1.2704273e-14
1.8281838e-15
3.9426343e-16
8.2058125e-17
1.600978e-17
2.8718745e-18
4.6531843e-19
6.6995986e-20
8.4413556e-21
9.1888144e-22
8.5388396e-23
6.6924373e-24
4.3577617e-25
2.2783862e-26
9.1597935e-28
2.6611458e-29
4.980328e-31
4.5184671e-33
0.00038645206
0.00038038165
0.00036482575
0.00034393098
0.00032822233
0.00032499061
0.0003253183
0.00030693354
0.00025583051
0.00017877673
0.00010856678
6.9490779e-05
4.6921349e-05
2.6873024e-05
1.0268147e-05
1.98964e-06
1.5633719e-07
4.3598483e-09
4.8716449e-11
2.8051456e-13
8.7058518e-15
1.9383637e-15
4.4571812e-16
9.5889659e-17
1.8939375e-17
3.3851418e-18
5.4033239e-19
7.6000863e-20
9.3137521e-21
9.8459255e-22
8.8890102e-23
6.781276e-24
4.301449e-25
2.1932483e-26
8.6210139e-28
2.4552833e-29
4.5169865e-31
4.0399008e-33
0.00038391994
0.00038030699
0.00036849211
0.00035219999
0.00034099159
0.00034004481
0.00034173405
0.00032580903
0.00028101998
0.00020894384
0.00014403134
0.00010949337
9.1248718e-05
6.7014349e-05
3.4906383e-05
9.9686072e-06
1.2325582e-06
5.6481143e-08
1.0739045e-09
9.4556411e-12
7.100166e-14
8.9630253e-15
2.2397789e-15
5.2618527e-16
1.1326424e-16
2.2103178e-17
3.8714705e-18
6.0184352e-19
8.2119342e-20
9.7532813e-21
9.9976632e-22
8.767381e-23
6.5140238e-24
4.028459e-25
2.0060821e-26
7.7221011e-28
2.1599278e-29
3.9141686e-31
3.4587501e-33
0.00037940423
0.00037871508
0.00037084423
0.00035839329
0.00035072524
0.00035188221
0.00035409676
0.00034022923
0.0003012432
0.0002370866
0.00017498709
0.00014858499
0.00014206272
0.00012455422
8.3265722e-05
3.3637136e-05
6.4223412e-06
4.8338775e-07
1.5586036e-08
2.3214761e-10
1.7227225e-12
4.3656849e-14
1.0521659e-14
2.6666694e-15
6.1891265e-16
1.3054032e-16
2.4844921e-17
4.2293085e-18
6.3637779e-19
8.4007949e-20
9.6599337e-21
9.6017403e-22
8.1855892e-23
5.9299842e-24
3.5800228e-25
1.7442042e-26
6.5874624e-28
1.8134057e-29
3.244487e-31
2.8395641e-33
0.00037642796
0.00037647618
0.00037265602
0.00036363079
0.00035793207
0.00036056732
0.00036317329
0.00035061976
0.00031733055
0.00026122209
0.00020312373
0.00018270086
0.00018893061
0.00018599348
0.00014836277
7.9878274e-05
2.2650204e-05
2.7514335e-06
1.482253e-07
3.7445939e-09
4.5204935e-11
4.302681e-13
4.8335262e-14
1.2640883e-14
3.1188177e-15
7.0294312e-16
1.4394652e-16
2.6584437e-17
4.3739938e-18
6.3576268e-19
8.1144729e-20
9.0355529e-21
8.7161106e-22
7.2335224e-23
5.1169784e-24
3.0206048e-25
1.4426709e-26
5.3573869e-28
1.4548992e-29
2.5766041e-31
2.2395496e-33
0.00037414447
0.00037706673
0.00037764674
0.00036797541
0.00036344558
0.00036651038
0.00036903772
0.0003576153
0.00032961011
0.00028171782
0.00022842526
0.00021076747
0.00022663144
0.00023826141
0.00021295516
0.00014179402
5.6440743e-05
1.0618949e-05
9.3131533e-07
3.936805e-08
8.2418021e-10
1.065224e-11
3.5572315e-13
5.9775961e-14
1.4708553e-14
3.4843552e-15
7.5895406e-16
1.5056648e-16
2.6880151e-17
4.2663702e-18
5.988051e-19
7.3920688e-20
7.9777382e-21
7.4785421e-22
6.0525247e-23
4.1878548e-24
2.4220105e-25
1.1365044e-26
4.1600464e-28
1.1175326e-29
1.9647281e-31
1.7011445e-33
0.00037151392
0.0003782623
0.00037756393
0.00037820546
0.00036713895
0.00037036086
0.00037225163
0.00036156851
0.00033869296
0.00029894528
0.00025060099
0.00023483705
0.00025545365
0.00027645903
0.0002650094
0.00020260841
0.00010508315
2.8917146e-05
3.9421058e-06
2.7313199e-07
1.0059848e-08
2.6341707e-10
1.0302658e-11
5.8434103e-13
7.096274e-14
1.6134842e-14
3.6747325e-15
7.7454259e-16
1.4878519e-16
2.5592914e-17
3.9179113e-18
5.312402e-19
6.348716e-20
6.6494415e-21
6.0679971e-22
4.7993051e-23
3.2544497e-24
1.8485169e-25
8.5440129e-27
3.0919289e-28
8.2429428e-30
1.4435515e-31
1.2494158e-33
0.0003688758
0.00037564839
0.00038034596
0.0003767542
0.00037761617
0.00037202192
0.00037322359
0.00036312658
0.00034510286
0.00031327649
0.00026987308
0.00025559233
0.0002771136
0.0003026153
0.0002992804
0.00025021196
0.0001562546
5.8541349e-05
1.1732306e-05
1.2853714e-06
8.463673e-08
4.8054183e-09
3.5769943e-10
2.2657829e-11
8.6937248e-13
7.5981196e-14
1.6550659e-14
3.6504141e-15
7.4684415e-16
1.3824642e-16
2.2912835e-17
3.3849619e-18
4.4383113e-19
5.1417506e-20
5.2353961e-21
4.6613257e-22
3.6123793e-23
2.4067649e-24
1.3467626e-25
6.1529476e-27
2.2100313e-28
5.8715637e-30
1.0286227e-31
8.9363516e-34
0.00037140771
0.00036921143
0.00037867161
0.00038017316
0.00037458462
0.0003750366
0.00037213959
0.00036279854
0.00034954443
0.00032502464
0.00028653279
0.00027335632
0.0002948795
0.00032068466
0.00032044241
0.00028204411
0.00019948422
9.4123025e-05
2.5950036e-05
4.3358703e-06
5.1387121e-07
6.1331953e-08
8.1692049e-09
8.1164561e-10
3.7955777e-11
8.9988571e-13
7.2998005e-14
1.5921155e-14
3.4238153e-15
6.7700993e-16
1.2064723e-16
1.9278524e-17
2.7512682e-18
3.493413e-19
3.9306351e-20
3.9003207e-21
3.398921e-22
2.5903211e-23
1.7022143e-24
9.4271155e-26
4.2802799e-27
1.5348607e-28
4.0879693e-30
7.2048887e-32
6.3145013e-34
0.00036905443
0.00036810104
0.0003702411
0.00037998435
0.00037799446
0.00037045416
0.00036900777
0.00036109106
0.00035273642
0.0003347563
0.00030083699
0.00028847903
0.0003092449
0.00033462958
0.00033538863
0.00030334063
0.00023210348
0.00012878822
4.5800006e-05
1.1181245e-05
2.3540716e-06
5.3514653e-07
1.1661573e-07
1.8011798e-08
1.3425181e-09
3.927545e-11
6.1493388e-13
6.5724954e-14
1.4460574e-14
3.0253197e-15
5.757949e-16
9.8856214e-17
1.5247067e-17
2.105429e-18
2.5946924e-19
2.8439659e-20
2.7612644e-21
2.3677451e-22
1.7854381e-23
1.1655323e-24
6.4416947e-26
2.9340824e-27
1.0605285e-28
2.8573938e-30
5.1055034e-32
4.5396294e-34
0.00035852284
0.00036400528
0.00036476573
0.00037091231
0.00037920652
0.00037366569
0.00036287326
0.00035874465
0.0003552412
0.00034321765
0.00031314417
0.00030122959
0.00032083358
0.00034456587
0.00034556191
0.00031864631
0.00025961888
0.00015896119
6.8861881e-05
2.3446737e-05
8.2290397e-06
3.1639726e-06
1.0514117e-06
2.4455267e-07
2.8851124e-08
1.3902444e-09
2.3123338e-11
3.3963449e-13
5.6949607e-14
1.242126e-14
2.5066472e-15
4.5944434e-16
7.6098316e-17
1.1351754e-17
1.521211e-18
1.827173e-19
1.9623873e-20
1.8794027e-21
1.6026415e-22
1.2107206e-23
7.9669349e-25
4.4652314e-26
2.074383e-27
7.6735464e-29
2.1174498e-30
3.8679688e-32
3.5031944e-34
0.00035749228
0.00035509911
0.00035778154
0.00036137768
0.00037023158
0.00037610532
0.00036589992
0.0003513527
0.00034394248
0.00035049921
0.00032392906
0.00031190745
0.00032982008
0.00035171271
0.00035144009
0.00032876495
0.00028103003
0.00019320769
9.2623543e-05
4.1348332e-05
2.1897743e-05
1.2712139e-05
6.1089908e-06
2.0676475e-06
3.7647418e-07
2.9730938e-08
8.4202482e-10
7.552124e-12
2.2101624e-13
4.7266171e-14
1.0016621e-14
1.9475623e-15
3.4439351e-16
5.5183306e-17
7.9955866e-18
1.046488e-18
1.2366945e-19
1.3190149e-20
1.2689327e-21
1.100728e-22
8.5443154e-24
5.8218761e-25
3.3968196e-26
1.6457113e-27
6.3321442e-29
1.8062178e-30
3.3821188e-32
3.1105211e-34
0.00035766412
0.00035771896
0.00035029522
0.00035116556
0.00035714893
0.00036755429
0.000369884
0.00035425047
0.0003356883
0.00032386311
0.00033362136
0.00032077445
0.00033655935
0.00035599239
0.00035411218
0.00033428911
0.00029715995
0.00022251476
0.00012244518
6.3389706e-05
4.4733234e-05
3.5550853e-05
2.3440605e-05
1.1144493e-05
3.0383514e-06
3.8453472e-07
1.8687886e-08
2.8508406e-10
1.7096651e-12
1.692865e-13
3.6995241e-14
7.5762858e-15
1.4225056e-15
2.4369032e-16
3.802787e-17
5.4082666e-18
7.02434e-19
8.3563383e-20
9.127219e-21
9.1580369e-22
8.4106153e-23
6.9622149e-24
5.0639348e-25
3.1399568e-26
1.6020659e-27
6.4149699e-29
1.8803326e-30
3.5742021e-32
3.2995899e-34
0.000342216
0.00036222163
0.00035613273
0.0003441906
0.00034349592
0.00035150347
0.0003622227
0.00035988508
0.00033865477
0.00031516488
0.00029840831
0.00032794335
0.00034137463
0.00035801335
0.00035387953
0.00033616092
0.00030862016
0.00024780125
0.00015233562
8.7024228e-05
7.4134994e-05
7.239009e-05
6.1611554e-05
3.9338679e-05
1.5531315e-05
3.0682806e-06
2.5045298e-07
6.9459136e-09
5.3327684e-11
6.6865774e-13
1.2744522e-13
2.7218327e-14
5.3976263e-15
9.8507448e-16
1.6528341e-16
2.5565554e-17
3.6657464e-18
4.9063864e-19
6.1635075e-20
7.2673841e-21
7.9807466e-22
8.0259482e-23
7.200992e-24
5.5900368e-25
3.6404303e-26
1.9210234e-27
7.8502928e-29
2.3226785e-30
4.4163294e-32
4.0465325e-34
0.00033367542
0.00034921784
0.00036456452
0.00035259684
0.00033630907
0.00033428131
0.00034378752
0.00035352473
0.00034597333
0.00031833637
0.00028967197
0.00026769272
0.00034425714
0.00035791496
0.00035134388
0.00033519728
0.00031623073
0.00026917261
0.0001809957
0.00011236868
0.000100599
0.00011645411
0.00011744121
9.4814456e-05
5.1749658e-05
1.5485121e-05
2.0722401e-06
1.0203404e-07
1.5091699e-09
8.5051361e-12
4.2208021e-13
9.0963065e-14
1.8942302e-14
3.6750981e-15
6.6387521e-16
1.1232681e-16
1.7978678e-17
2.7496311e-18
4.0374386e-19
5.6609073e-20
7.4560108e-21
9.017328e-22
9.7615428e-23
9.2163347e-24
7.388208e-25
4.9003536e-26
2.6070812e-27
1.06635e-28
3.1412311e-30
5.9221932e-32
5.360918e-34
0.00034533659
0.00033802636
0.0003545024
0.00036478609
0.00034699358
0.00032668036
0.00032297508
0.00033346531
0.00034107571
0.00032742293
0.00029313125
0.00025932187
0.00023241218
0.00035575439
0.00034666581
0.00033208721
0.00032095823
0.00028674037
0.00020789198
0.00013780447
0.00012580944
0.0001546716
0.00017679002
0.00016663688
0.00011777294
5.104712e-05
1.087541e-05
9.2497542e-07
2.5994405e-08
2.488996e-10
2.025744e-12
2.8594874e-13
6.1941594e-14
1.2771452e-14
2.4967102e-15
4.6735118e-16
8.4885617e-17
1.5089963e-17
2.6163711e-18
4.3530172e-19
6.7847113e-20
9.6605971e-21
1.2289141e-21
1.369041e-22
1.3098119e-23
1.0536148e-24
6.9710991e-26
3.6861519e-27
1.4951538e-28
4.3613619e-30
8.1331572e-32
4.0650242e-36
0.00035144625
0.00034452454
0.00034110774
0.00035806381
0.00036286875
0.00033945495
0.00031491873
0.00030932266
0.00031993389
0.00032426139
0.00030393331
0.00026328736
0.0002247229
0.00019072981
0.00034006582
0.00032741285
0.00032376404
0.00030095634
0.00023268863
0.00016253314
0.00014957744
0.00018399909
0.00022675941
0.00023303836
0.0001965366
0.0001156577
3.7500603e-05
5.3327661e-06
2.7428263e-07
5.0922135e-09
3.7460554e-11
9.2026046e-13
1.9044152e-13
4.1779992e-14
8.9249e-15
1.8777517e-15
3.9357731e-16
8.2084256e-17
1.6740358e-17
3.25132e-18
5.8600754e-19
9.5902623e-20
1.4003434e-20
1.7980655e-21
2.0026271e-22
1.9032299e-23
1.5167523e-24
9.9301927e-26
5.1937381e-27
2.0838211e-28
6.0140051e-30
6.5374127e-34
1.5356481e-38
0.00033162728
0.00034471257
0.0003418509
0.00034321321
0.00035979753
0.00035886762
0.00032963716
0.00030060871
0.000293052
0.00030257586
0.00030274511
0.00027552082
0.00022863799
0.00018367236
0.00014146681
0.00032156779
0.00032536188
0.00031279336
0.00025513809
0.00018627074
0.00017157734
0.00020919265
0.0002589723
0.00028294128
0.00026194341
0.0001929174
8.9512512e-05
2.0273893e-05
1.834069e-06
6.3678829e-08
8.5409811e-10
6.3899292e-12
5.616534e-13
1.302105e-13
3.0803294e-14
7.4045984e-15
1.8078114e-15
4.4026631e-16
1.0384158e-16
2.3029818e-17
4.6937971e-18
8.6517593e-19
1.4243463e-19
2.0721698e-20
2.6371219e-21
2.9029676e-22
2.7225603e-23
2.1415886e-24
1.3847993e-25
7.1594247e-27
2.8419663e-28
5.2851361e-32
2.5024622e-36
2.9502032e-41
0.00031484711
0.00032136922
0.00033560514
0.00033792648
0.00034439439
0.00035947208
0.00035256566
0.0003171885
0.00028349056
0.00027364483
0.0002809718
0.00027621425
0.00024125273
0.00018696292
0.00013510504
8.9225243e-05
0.00032621617
0.00032334014
0.0002753936
0.00020887965
0.00019200787
0.00023074356
0.00028512714
0.00031524583
0.00030535021
0.0002562993
0.00015803262
5.3526712e-05
8.0540303e-06
4.998957e-07
1.248547e-08
1.2567945e-10
1.9551699e-12
3.91846e-13
1.0403128e-13
2.8879057e-14
8.1868664e-15
2.2904641e-15
6.1133708e-16
1.5167471e-16
3.4366251e-17
7.029812e-18
1.2876248e-18
2.0956591e-19
3.0070031e-20
3.7717256e-21
4.0900248e-22
3.7807412e-23
2.9347582e-24
1.8750502e-25
9.5905945e-27
2.7703634e-30
2.1809622e-34
4.4561869e-39
2.8235312e-44
0.000326241
0.00030693676
0.0003094583
0.00032497244
0.00033343738
0.00034409614
0.00035690448
0.00034350429
0.00030191549
0.00026306624
0.00025035459
0.00025451669
0.00024343619
0.00019902102
0.00013708342
8.5069558e-05
4.6173395e-05
0.0003334784
0.00029376151
0.00023036814
0.00021104834
0.00024960232
0.00030636578
0.00034032042
0.00033448398
0.00029538813
0.00022095992
0.00010483098
2.4434865e-05
2.5540096e-06
1.1380854e-07
2.0781342e-09
1.8456598e-11
1.1812382e-12
3.4643187e-13
1.110918e-13
3.6060314e-14
1.1353538e-14
3.3622318e-15
9.1822388e-16
2.2841244e-16
5.1324245e-17
1.035644e-17
1.8669449e-18
2.988495e-19
4.2187872e-20
5.2105907e-21
5.5641619e-22
5.0728089e-23
3.8896905e-24
2.4585649e-25
1.0437041e-28
1.2742246e-32
3.9121911e-37
3.8187574e-42
1.3598702e-47
0.00034259028
0.00032484107
0.00029758529
0.00029616269
0.00031420933
0.00032756598
0.00034175564
0.0003515237
0.00033168517
0.00028311623
0.00023888601
0.00022291245
0.0002229151
0.00020254993
0.00014701597
8.6555231e-05
4.3588599e-05
1.8635851e-05
0.00031128885
0.00025073017
0.00022876684
0.00026614141
0.00032442966
0.00035953715
0.00035543763
0.00032157553
0.00026467089
0.00016231009
5.4475473e-05
8.9258123e-06
6.6868677e-07
2.1766465e-08
2.9934569e-10
4.7353972e-12
1.1394812e-12
4.1724224e-13
1.5220294e-13
5.2914278e-14
1.7120402e-14
5.0859691e-15
1.3757886e-15
3.3693656e-16
7.4354512e-17
1.4726836e-17
2.6067262e-18
4.1007417e-19
5.6960533e-20
6.9289734e-21
7.2944507e-22
6.5677154e-23
4.9818231e-24
2.9959067e-27
5.431568e-31
2.474091e-35
3.0430695e-40
1.7373268e-45
3.7722798e-51
0.00032763068
0.00034937717
0.00032153764
0.00028691618
0.00028152856
0.00030125096
0.00031984558
0.00033671594
0.00034315487
0.00031620163
0.00026033114
0.00021076081
0.00019151328
0.00018390893
0.00015132021
9.334379e-05
4.4453854e-05
1.7257398e-05
5.5704223e-06
0.00026990318
0.00024519082
0.00028031333
0.00033953974
0.00037523538
0.00036972223
0.00033774084
0.00029358063
0.0002164489
9.5316219e-05
2.2633421e-05
2.6648329e-06
1.4583578e-07
3.523364e-09
4.3314833e-11
3.7755375e-12
1.5117075e-12
6.0862235e-13
2.3013035e-13
8.0418969e-14
2.5757059e-14
7.5209857e-15
1.9939816e-15
4.7827589e-16
1.0341563e-16
2.0089253e-17
3.4918799e-18
5.402026e-19
7.391064e-20
8.8624548e-21
9.2118998e-22
8.2044088e-23
6.8077759e-26
1.7753448e-29
1.1879297e-33
1.8989991e-38
1.2191416e-43
4.7901346e-49
6.8308986e-55
0.00028775383
0.00034185866
0.00035322073
0.00031641109
0.00027477024
0.00026530945
0.00028633386
0.00030947779
0.00032838386
0.0003309837
0.00029640809
0.00023251289
0.00017832373
0.00015392715
0.0001362797
9.6330548e-05
4.8473006e-05
1.7517134e-05
5.0066342e-06
1.1893061e-06
0.00026025538
0.0002920134
0.00035119438
0.00038763507
0.00037925292
0.00034605982
0.0003097503
0.00025581973
0.00014989887
4.4520851e-05
7.6233974e-06
6.5714774e-07
2.6705334e-08
5.0005439e-10
1.4757641e-11
5.2378327e-12
2.2902508e-12
9.3122182e-13
3.4840486e-13
1.1945917e-13
3.7420771e-14
1.0677874e-14
2.7674394e-15
6.4955603e-16
1.3762733e-16
2.6237188e-17
4.4826059e-18
6.8276972e-19
9.2127194e-20
1.0904076e-20
1.1210099e-21
1.2581584e-24
4.6058422e-28
4.454934e-32
9.7545153e-37
6.7085596e-42
3.121435e-47
8.8201051e-53
8.8415805e-59
0.00027404034
0.00030416725
0.00035299193
0.00035435614
0.00030927306
0.00026109426
0.00024735474
0.00026869684
0.00029574517
0.00031602917
0.0003142369
0.00027069778
0.00019857773
0.00014010947
0.00011040658
8.5605674e-05
5.0328564e-05
1.9331473e-05
5.0247522e-06
1.02984e-06
1.8065265e-07
0.00030090239
0.00035866856
0.00039588952
0.00038432064
0.00034801457
0.00031651407
0.00028134092
0.00020026799
8.3199e-05
1.6732785e-05
2.1057349e-06
1.3517649e-07
4.1722257e-09
8.8454199e-11
1.7449511e-11
8.0890259e-12
3.5064739e-12
1.3948566e-12
5.0888408e-13
1.700619e-13
5.1950302e-14
1.4470859e-14
3.6661005e-15
8.4244754e-16
1.7506182e-16
3.278886e-17
5.5134523e-18
8.2804738e-19
1.1031966e-19
1.2912311e-20
1.9295012e-23
9.727921e-27
1.3368495e-30
4.1066692e-35
3.2804218e-40
1.483736e-45
5.6398132e-51
1.1666483e-56
8.7374764e-63
0.00030718078
0.00028632182
0.00031884201
0.00036096776
0.00035277757
0.0003001773
0.00024565318
0.00022728473
0.0002479714
0.00027806343
0.00029915915
0.00029222629
0.00023717083
0.00015692092
9.7592553e-05
6.6855483e-05
4.3800808e-05
2.0334693e-05
5.6159279e-06
1.0141275e-06
1.4949906e-07
1.9670665e-08
0.0003612022
0.00039834059
0.00038431909
0.00034413698
0.00031591149
0.00029531641
0.00024135783
0.00012879031
3.7700053e-05
5.1067304e-06
4.8199842e-07
2.3513137e-08
6.3338289e-10
5.8733731e-11
2.6869072e-11
1.2315667e-11
5.1771521e-12
1.9985954e-12
7.0875792e-13
2.3059915e-13
6.8685039e-14
1.8683984e-14
4.6303774e-15
1.0427712e-15
2.1277734e-16
3.9209652e-17
6.4989238e-18
9.6408589e-19
1.2699672e-19
2.4938646e-22
1.7051275e-25
3.2778214e-29
1.4171594e-33
1.4298289e-38
6.2076381e-44
2.4637301e-49
7.5151782e-55
1.175925e-60
7.7895121e-67
0.00035875702
0.00031080632
0.00029760735
0.00033148475
0.00036583097
0.00034855132
0.00028880012
0.00022817629
0.00020493748
0.00022398061
0.00025593356
0.00027702063
0.0002617001
0.0001917952
0.00010934815
5.7028984e-05
3.2542783e-05
1.7385047e-05
6.003838e-06
1.1478845e-06
1.4296593e-07
1.5602631e-08
1.5649603e-09
0.00039380573
0.00037794701
0.00033459333
0.00030918764
0.00030101974
0.0002710754
0.00017767787
6.7660015e-05
1.4011294e-05
1.2818218e-06
9.2880827e-08
3.7074815e-09
2.1908715e-10
8.4807488e-11
4.0627229e-11
1.7902448e-11
7.2679602e-12
2.7207175e-12
9.3797655e-13
2.9724585e-13
8.6383277e-14
2.2967417e-14
5.5738725e-15
1.2317081e-15
2.4714533e-16
4.4879873e-17
7.3453882e-18
1.0779189e-18
2.7504153e-21
2.5177355e-24
6.680445e-28
4.0437968e-32
5.3956745e-37
2.4768693e-42
8.797156e-48
3.1967806e-53
7.6897383e-59
1.0676784e-64
6.747918e-71
0.000381785
0.00035153184
0.00031305603
0.00030806476
0.0003417193
0.00036748785
0.00034147676
0.00027486493
0.0002083337
0.00018027447
0.00019665003
0.00022871079
0.00024789478
0.00021698331
0.00013714261
6.3582733e-05
2.6335126e-05
1.2168875e-05
5.0657227e-06
1.2479494e-06
1.637731e-07
1.4263401e-08
1.1990928e-09
9.3089311e-11
0.00036459755
0.00031985952
0.00029756605
0.00030061017
0.0002919335
0.00022367886
0.00010651361
2.9228402e-05
4.3164146e-06
2.7172193e-07
1.639411e-08
9.6493263e-10
2.6442499e-10
1.2759966e-10
5.8405108e-11
2.4661222e-11
9.6652415e-12
3.5122273e-12
1.1782021e-12
3.6397999e-13
1.0330062e-13
2.6873917e-14
6.3947345e-15
1.3886092e-15
2.7442858e-16
4.9196733e-17
7.9671692e-18
2.614789e-20
3.1692577e-23
1.1475098e-26
9.6533778e-31
1.7354252e-35
9.2879198e-41
2.9406626e-46
1.043416e-51
3.2755303e-57
7.1043398e-63
9.4028376e-69
5.6858636e-75
0.00034429901
0.00036303326
0.00034150169
0.00031467102
0.00031719241
0.00034908208
0.00036591489
0.0003313336
0.0002579697
0.00018584394
0.00015360161
0.00016608843
0.00019876888
0.00020651658
0.00015900999
8.175297e-05
2.8829682e-05
9.1305092e-06
3.3330264e-06
1.0433689e-06
1.8018548e-07
1.6282669e-08
1.0448104e-09
6.9639222e-11
4.1956465e-12
0.0003006749
0.00028222658
0.00029603772
0.00030665036
0.00026420981
0.00015210412
5.2306537e-05
1.0468791e-05
1.1365076e-06
6.1739688e-08
6.0016642e-09
1.1177478e-09
4.0954723e-10
1.8353522e-10
7.9712157e-11
3.2182406e-11
1.2166275e-11
4.2973802e-12
1.4041563e-12
4.2327986e-13
1.1744485e-13
2.9932972e-14
6.9938277e-15
1.4947989e-15
2.9148301e-16
5.1685909e-17
2.1613139e-19
3.4340826e-22
1.6798819e-25
1.9496736e-29
4.7521338e-34
3.1392017e-39
9.8012917e-45
2.9576056e-50
1.03655e-55
3.0650403e-61
6.3633148e-67
8.0403e-73
4.6658126e-79
0.00027775345
0.00031832093
0.00034068578
0.00033038721
0.00031553721
0.00032434685
0.00035309768
0.00036074573
0.00031791925
0.00023737406
0.00016086894
0.00012571571
0.0001368666
0.00016068503
0.00015229039
9.8115433e-05
3.8013933e-05
9.6058809e-06