/*--------------------------------*- C++ -*----------------------------------*\
| =========                 |                                                 |
| \\      /  F ield         | OpenFOAM: The Open Source CFD Toolbox           |
|  \\    /   O peration     | Version:  5.0                                   |
|   \\  /    A nd           | Web:      www.OpenFOAM.org                      |
|    \\/     M anipulation  |                                                 |
\*---------------------------------------------------------------------------*/
FoamFile
{
    version     2.0;
    format      ascii;
    class       volScalarField;
    location    "360";
    object      nuTilda;
}
// * * * * * * * * * * * * * * * * * * * * * * * * * * * * * * * * * * * * * //

dimensions      [0 2 -1 0 0 0 0];

internalField   nonuniform List<scalar> 
9520
(
4.8313218e-33
5.12865e-31
4.6773035e-33
2.663856e-29
4.9668549e-31
4.5227444e-33
8.991611e-28
2.5802547e-29
4.8036222e-31
4.375215e-33
2.2202824e-26
8.7105012e-28
2.4956725e-29
4.6482781e-31
4.2453539e-33
4.2866626e-25
2.1510524e-26
8.4260982e-28
2.4155683e-29
4.5137488e-31
4.139783e-33
6.7636188e-24
4.1530499e-25
2.0812021e-26
8.1583589e-28
2.3472645e-29
4.4073574e-31
4.0573809e-33
8.9854563e-23
6.5528603e-24
4.0188294e-25
2.0159098e-26
7.933053e-28
2.2944454e-29
4.3255482e-31
3.9879765e-33
1.0239999e-21
8.7069594e-23
6.3422333e-24
3.8943976e-25
1.9615473e-26
7.7615074e-28
2.2538971e-29
4.2534181e-31
3.9137619e-33
1.0156271e-20
9.9263224e-22
8.4301152e-23
6.148705e-24
3.7917183e-25
1.9204682e-26
7.6282295e-28
2.215907e-29
4.1689232e-31
3.8156058e-33
8.8851293e-20
9.8509036e-21
9.6160172e-22
8.1779276e-23
5.9902327e-24
3.7141513e-25
1.88772e-26
7.4947787e-28
2.1678327e-29
4.0524402e-31
3.6825602e-33
7.0514833e-19
8.6209072e-20
9.5502627e-21
9.3348328e-22
7.9727545e-23
5.869852e-24
3.6499049e-25
1.8527104e-26
7.3160035e-28
2.1004327e-29
3.8975904e-31
3.5210021e-33
5.9464455e-18
6.8113921e-19
8.3637993e-20
9.2770468e-21
9.1067374e-22
7.815579e-23
5.7653051e-24
3.576881e-25
1.8041042e-26
7.0653286e-28
2.0135386e-29
3.7190593e-31
3.3576075e-33
9.5477944e-17
5.5349757e-18
6.5899826e-19
8.1256252e-20
9.0545415e-21
8.9304634e-22
7.6720492e-23
5.6396453e-24
3.4736308e-25
1.7368063e-26
6.753471e-28
1.9187506e-29
3.5519637e-31
3.2324828e-33
3.215911e-15
8.2097032e-17
5.1972816e-18
6.3776178e-19
7.9287745e-20
8.8818804e-21
8.7621057e-22
7.4905539e-23
5.4607406e-24
3.3338777e-25
1.6562486e-26
6.4321547e-28
1.8370732e-29
3.4406005e-31
3.183355e-33
1.1556704e-13
2.8017654e-15
7.0456803e-17
4.853031e-18
6.1998456e-19
7.7782542e-20
8.7120445e-21
8.5394655e-22
7.2313926e-23
5.2254551e-24
3.1734746e-25
1.5779252e-26
6.1789789e-28
1.7913126e-29
3.4196522e-31
3.227192e-33
3.4322317e-12
1.0652794e-13
2.3376781e-15
5.6431079e-17
4.5598892e-18
6.0722369e-19
7.6305158e-20
8.4778781e-21
8.2204535e-22
6.9004897e-23
4.9674856e-24
3.0266625e-25
1.5219415e-26
6.0667778e-28
1.7957629e-29
3.4958758e-31
3.3482904e-33
7.95577e-11
3.3331644e-12
9.0673066e-14
1.6588526e-15
4.3900202e-17
4.3739131e-18
5.9571984e-19
7.4178164e-20
8.1389134e-21
7.8240145e-22
6.5545638e-23
4.7464187e-24
2.9325429e-25
1.5044829e-26
6.1286815e-28
1.8477429e-29
3.6395745e-31
3.499268e-33
1.4027478e-09
8.0420933e-11
2.891848e-12
6.2927347e-14
1.038077e-15
3.6546728e-17
4.2559306e-18
5.7872065e-19
7.1024521e-20
7.7267999e-21
7.4290596e-22
6.2788695e-23
4.6220564e-24
2.9174517e-25
1.5295521e-26
6.3345998e-28
1.9255033e-29
3.7909012e-31
3.6150929e-33
1.8360858e-08
1.4586776e-09
7.0803479e-11
1.9968434e-12
3.7596729e-14
7.0410302e-16
3.341639e-17
4.118607e-18
5.5248311e-19
6.7239933e-20
7.3357236e-21
7.1383592e-22
6.1477496e-23
4.6259958e-24
2.9804869e-25
1.5847306e-26
6.5924688e-28
1.9941876e-29
3.8788047e-31
3.6343541e-33
1.7480139e-07
1.9382175e-08
1.2968919e-09
4.8867244e-11
1.201167e-12
2.5740625e-14
6.0628803e-16
3.1647847e-17
3.9057163e-18
5.2108406e-19
6.3818333e-20
7.0726342e-21
7.0279994e-22
6.1876737e-23
4.7423341e-24
3.0888118e-25
1.643593e-26
6.7764945e-28
2.0175274e-29
3.8448397e-31
3.5196212e-33
1.1821107e-06
1.8496359e-07
1.7429311e-08
9.0188252e-10
3.0105956e-11
9.0139079e-13
2.470632e-14
5.8408512e-16
2.8881771e-17
3.6500244e-18
4.940234e-19
6.1745788e-20
7.0018967e-21
7.1083745e-22
6.3576625e-23
4.9064484e-24
3.1862955e-25
1.6743884e-26
6.7713611e-28
1.9702988e-29
3.6629518e-31
3.2700659e-33
5.6474569e-06
1.2410354e-06
1.6752162e-07
1.244982e-08
5.8068048e-10
2.5104235e-11
9.8981779e-13
2.6144949e-14
4.8554954e-16
2.5258708e-17
3.4407772e-18
4.7954949e-19
6.1467748e-20
7.1120541e-21
7.3103674e-22
6.5565217e-23
5.0247306e-24
3.2129301e-25
1.6515713e-26
6.5131427e-28
1.8469851e-29
3.348901e-31
2.9229226e-33
1.9136588e-05
5.8738614e-06
1.1358075e-06
1.238309e-07
8.677048e-09
5.3458911e-10
3.0696224e-11
1.125529e-12
2.1425389e-14
3.1805342e-16
2.2500972e-17
3.3437369e-18
4.8007181e-19
6.2672894e-20
7.3122905e-21
7.5040477e-22
6.6567611e-23
5.0083874e-24
3.1272357e-25
1.565192e-26
6.0116504e-28
1.6642249e-29
2.9571504e-31
2.5442713e-33
4.7597067e-05
1.9716159e-05
5.4193867e-06
8.7563803e-07
9.3502411e-08
8.5021205e-09
6.9802142e-10
3.6436652e-11
9.3043088e-13
1.1715802e-14
1.9440111e-16
2.1337147e-17
3.3653047e-18
4.9132846e-19
6.4365718e-20
7.4618133e-21
7.5451969e-22
6.5523806e-23
4.807512e-24
2.9220736e-25
1.4245279e-26
5.3498797e-28
1.4568683e-29
2.5672235e-31
2.2128341e-33
9.179522e-05
4.8735939e-05
1.8353715e-05
4.3522362e-06
7.0821843e-07
9.608315e-08
1.128311e-08
8.437405e-10
3.0200905e-11
4.869313e-13
4.6685509e-15
1.4239675e-16
2.1418731e-17
3.4587108e-18
5.0383654e-19
6.5226502e-20
7.4231431e-21
7.3311193e-22
6.2006999e-23
4.4310254e-24
2.627744e-25
1.2558468e-26
4.66333e-28
1.2693345e-29
2.2644744e-31
2.0019935e-33
0.00014572514
9.3608745e-05
4.5839069e-05
1.5347346e-05
3.7285936e-06
7.520615e-07
1.2652225e-07
1.3629169e-08
6.983214e-10
1.5484908e-11
1.7249803e-13
1.8262327e-15
1.2977263e-16
2.2080377e-17
3.5420248e-18
5.0663303e-19
6.4139699e-20
7.1168174e-21
6.8422736e-22
5.640848e-23
3.9450069e-24
2.3039133e-25
1.0957678e-26
4.1067337e-28
1.1450754e-29
2.1210183e-31
1.9646585e-33
0.00019785476
0.00014835668
8.9109421e-05
3.9640654e-05
1.3754068e-05
4.0471216e-06
9.7150746e-07
1.5088582e-07
1.125516e-08
3.5628264e-10
5.2762499e-12
5.2311242e-14
1.0312841e-15
1.3108941e-16
2.2587103e-17
3.5322537e-18
4.9196198e-19
6.064834e-20
6.5543081e-21
6.1530253e-22
4.982637e-23
3.4545331e-24
2.0245366e-25
9.8234905e-27
3.8180578e-28
1.1170002e-29
2.1811695e-31
2.1236386e-33
0.00024090526
0.00019984375
0.00014169117
7.8913117e-05
3.6628309e-05
1.5111569e-05
5.1093121e-06
1.1362784e-06
1.2446014e-07
5.8078623e-09
1.2369922e-10
1.559791e-12
2.1232994e-14
9.0093321e-16
1.3352432e-16
2.2328169e-17
3.3832598e-18
4.5848328e-19
5.514149e-20
5.8371157e-21
5.4092709e-22
4.3761588e-23
3.0772805e-24
1.8600421e-25
9.4632863e-27
3.8884821e-28
1.2008157e-29
2.4533868e-31
2.4681162e-33
0.00027703032
0.00024221284
0.00019073291
0.00012714735
7.4029956e-05
4.0362899e-05
1.8609151e-05
5.8271158e-06
9.3847164e-07
6.5860939e-08
2.1529886e-09
4.0827566e-11
7.3312171e-13
1.830799e-14
9.2067232e-16
1.3050655e-16
2.1064205e-17
3.10451e-18
4.1165628e-19
4.8730021e-20
5.1256923e-21
4.7883636e-22
3.9744969e-23
2.9154164e-24
1.8611827e-25
1.0044315e-26
4.343548e-28
1.3920405e-29
2.9088479e-31
2.9555658e-33
0.00030785349
0.00027736242
0.00023143465
0.00017361592
0.00012018625
8.1182718e-05
4.8453649e-05
2.0668354e-05
4.828566e-06
5.1500743e-07
2.6510301e-08
8.1481765e-10
2.3703492e-11
8.3681419e-13
2.1879164e-14
8.7397562e-16
1.205142e-16
1.9000448e-17
2.7529859e-18
3.617189e-19
4.2907205e-20
4.5962923e-21
4.4557238e-22
3.897504e-23
3.0319946e-24
2.0477419e-25
1.155714e-26
5.1372001e-28
1.6665857e-29
3.485872e-31
3.5182564e-33
0.00033383853
0.00030676812
0.00026523427
0.0002128553
0.0001662227
0.00013081609
9.5246807e-05
5.2538522e-05
1.7247561e-05
2.776155e-06
2.272224e-07
1.1671676e-08
5.781943e-10
3.2677516e-11
1.1416746e-12
2.0316287e-14
7.2490167e-16
1.0622707e-16
1.6633719e-17
2.4102011e-18
3.2061991e-19
3.916261e-20
4.3988057e-21
4.5259119e-22
4.2036721e-23
3.4361773e-24
2.4035317e-25
1.3812108e-26
6.1584153e-28
1.9844884e-29
4.0993981e-31
4.0736452e-33
0.00035416316
0.00033103721
0.0002937731
0.00024580032
0.00020581962
0.00017997527
0.00015067252
0.00010136193
4.437137e-05
1.0482e-05
1.3515773e-06
1.1768688e-07
9.953729e-09
8.8359353e-10
4.6879817e-11
1.0800865e-12
1.2015901e-14
5.71792e-16
9.1581919e-17
1.4536516e-17
2.1589956e-18
2.9913185e-19
3.863827e-20
4.6214558e-21
5.0347563e-22
4.874922e-23
4.079178e-24
2.8781023e-25
1.6468365e-26
7.249126e-28
2.2962996e-29
4.654757e-31
4.5376609e-33
0.0003691165
0.00034986013
0.00031706639
0.00027440288
0.00023898717
0.00022135624
0.00020384244
0.00015860112
8.7122683e-05
2.8644356e-05
5.664362e-06
8.2763152e-07
1.1729035e-07
1.5939737e-08
1.2890421e-09
4.4916663e-11
5.8376227e-13
5.1578869e-15
4.6720701e-16
7.9989467e-17
1.3208049e-17
2.0659942e-18
3.0450521e-19
4.1857106e-20
5.2677041e-21
5.9273035e-22
5.8165014e-23
4.8615295e-24
3.3949638e-25
1.9091447e-26
8.2310786e-28
2.5515682e-29
5.0639146e-31
4.8389264e-33
0.00037939852
0.00036353463
0.00033535414
0.00029821828
0.00026794179
0.00025492081
0.00024620859
0.00021135288
0.00013815672
5.970971e-05
1.7203491e-05
4.0743121e-06
9.334541e-07
1.8970556e-07
2.3186704e-08
1.2426691e-09
2.4403978e-11
1.7668507e-13
2.5904512e-15
4.0514459e-16
7.395107e-17
1.2994757e-17
2.1684387e-18
3.3870067e-19
4.8562609e-20
6.2500163e-21
7.0640512e-22
6.8725268e-23
5.6506983e-24
3.8652679e-25
2.1231908e-26
8.9381687e-28
2.7080171e-29
5.261142e-31
4.931099e-33
0.00038516752
0.00037279627
0.00034888278
0.0003174707
0.00029241973
0.00028321832
0.0002787557
0.00025189789
0.00018602346
9.9741931e-05
3.9503025e-05
1.4222582e-05
5.0165167e-06
1.4887801e-06
2.7135498e-07
2.2390731e-08
6.8756427e-10
7.2972228e-12
3.8131917e-14
1.952106e-15
3.8171574e-16
7.4897408e-17
1.4035965e-17
2.4644807e-18
3.9749249e-19
5.7716821e-20
7.4030227e-21
8.2440673e-22
7.8517164e-23
6.3046175e-24
4.2050579e-25
2.2511338e-26
9.2479596e-28
2.7393445e-29
5.2146481e-31
4.8003491e-33
0.00038705006
0.00037804596
0.0003584259
0.00033244792
0.00031254756
0.00030669819
0.00030488251
0.00028243787
0.00022446249
0.00014084007
7.1633119e-05
3.6201659e-05
1.8440705e-05
7.7704985e-06
2.0705782e-06
2.6165294e-07
1.2700719e-08
2.1385246e-10
1.4334299e-12
1.2475396e-14
1.8355658e-15
3.9778867e-16
8.3033548e-17
1.6220422e-17
2.9093625e-18
4.7088104e-19
6.7679012e-20
8.5092625e-21
9.2409822e-22
8.5666285e-23
6.6984762e-24
4.3513085e-25
2.2696351e-26
9.1046916e-28
2.6397305e-29
4.9309168e-31
4.4659656e-33
0.00038639947
0.00038017271
0.00036452959
0.00034385675
0.000328634
0.00032576098
0.00032575575
0.00030645845
0.00025440889
0.0001773188
0.00010830656
7.0311089e-05
4.7888947e-05
2.7466267e-05
1.0413239e-05
1.987896e-06
1.5307233e-07
4.1849858e-09
4.6523208e-11
2.6838235e-13
8.7251091e-15
1.9586522e-15
4.5140867e-16
9.7150397e-17
1.917248e-17
3.4212949e-18
5.449648e-19
7.6471029e-20
9.3476145e-21
9.8561326e-22
8.8756075e-23
6.7546713e-24
4.274133e-25
2.1741443e-26
8.5273937e-28
2.4237302e-29
4.4507198e-31
3.9740471e-33
0.0003838503
0.00038012509
0.00036823491
0.00035217299
0.00034139624
0.00034075547
0.00034209954
0.00032534323
0.00027969638
0.00020749995
0.00014383773
0.00011069685
9.2849384e-05
6.818486e-05
3.5264257e-05
9.9372637e-06
1.2059538e-06
5.4308502e-08
1.0265455e-09
9.0042923e-12
6.9376658e-14
9.0665572e-15
2.2701735e-15
5.3302872e-16
1.1455907e-16
2.2309099e-17
3.8981707e-18
6.044388e-19
8.2251508e-20
9.7423174e-21
9.9594484e-22
8.7112098e-23
6.4564278e-24
3.9830138e-25
1.9787784e-26
7.6007162e-28
2.1217897e-29
3.8381982e-31
3.3862613e-33
0.00037934006
0.0003785839
0.0003706812
0.00035838649
0.00035111015
0.00035252711
0.00035438551
0.00033978026
0.00030003163
0.00023568067
0.00017487196
0.00015005509
0.00014418472
0.00012623776
8.3847e-05
3.3473962e-05
6.2833934e-06
4.6555662e-07
1.4913022e-08
2.2112081e-10
1.6447646e-12
4.3985025e-14
1.0674683e-14
2.7009899e-15
6.2541344e-16
1.3157202e-16
2.4974215e-17
4.2396386e-18
6.3612774e-19
8.3735668e-20
9.6014385e-21
9.5173412e-22
8.0924838e-23
5.8480893e-24
3.521883e-25
1.7119051e-26
6.4519388e-28
1.7727084e-29
3.1662594e-31
2.7669821e-33
0.00037637996
0.00037649972
0.00037259826
0.00036361907
0.00035827771
0.00036113644
0.00036337459
0.00035018755
0.00031626946
0.0002599084
0.00020297359
0.00018432618
0.00019130722
0.00018793836
0.00014900795
7.940902e-05
2.2172758e-05
2.6543376e-06
1.4195164e-07
3.5698517e-09
4.3104055e-11
4.2657612e-13
4.9239047e-14
1.2806309e-14
3.1487867e-15
7.0749029e-16
1.444503e-16
2.660012e-17
4.3636608e-18
6.3238365e-19
8.0476997e-20
8.9354814e-21
8.5957155e-22
7.1150816e-23
5.0207785e-24
2.9565696e-25
1.4089054e-26
5.2213809e-28
1.4153768e-29
2.5025919e-31
2.1722529e-33
0.0003741663
0.00037715508
0.00037770298
0.00036792771
0.00036373855
0.00036699673
0.00036914819
0.00035719841
0.00032872507
0.00028051876
0.00022824494
0.00021242119
0.00022904974
0.00024018497
0.00021349627
0.00014089565
5.5315423e-05
1.0261294e-05
8.9270859e-07
3.7580759e-08
7.8978229e-10
1.0677777e-11
3.7781711e-13
6.0970036e-14
1.4841693e-14
3.5019304e-15
7.6029117e-16
1.5038005e-16
2.6764706e-17
4.2350477e-18
5.9260841e-19
7.2938365e-20
7.8489795e-21
7.337528e-22
5.9231626e-23
4.0882947e-24
2.3587677e-25
1.1044414e-26
4.0348991e-28
1.0820754e-29
1.8996299e-31
1.6428167e-33
0.00037143937
0.00037834558
0.00037772998
0.0003782523
0.00036736153
0.00037075527
0.00037227246
0.00036117449
0.00033799417
0.0002978796
0.00025038924
0.00023641001
0.00025783366
0.00027823106
0.00026528933
0.00020130245
0.00010315175
2.7992832e-05
3.7829768e-06
2.613494e-07
9.7339215e-09
2.7094064e-10
1.1457351e-11
6.3156609e-13
7.2092219e-14
1.6195369e-14
3.6747712e-15
7.7212605e-16
1.4786424e-16
2.5354356e-17
3.8692823e-18
5.2303833e-19
6.2320281e-20
6.5084139e-21
5.9231461e-22
4.6730195e-23
3.1612196e-24
1.7914588e-25
8.2638572e-27
2.9853527e-28
7.9470884e-30
1.3900634e-31
1.2019954e-33
0.00036900442
0.00037550944
0.0003804935
0.00037695634
0.00037764418
0.0003723212
0.00037315599
0.0003627653
0.00034459743
0.00031235955
0.00026963398
0.00025705933
0.00027935511
0.00030412011
0.00029929835
0.00024861466
0.00015366882
5.6783941e-05
1.1279383e-05
1.2354851e-06
8.3157609e-08
5.0505223e-09
3.9801867e-10
2.5151511e-11
9.2779593e-13
7.6498604e-14
1.652041e-14
3.6320078e-15
7.4083261e-16
1.3669032e-16
2.2582438e-17
3.3256482e-18
4.3471449e-19
5.0211904e-20
5.0981863e-21
4.5273055e-22
3.5002425e-23
2.3268566e-24
1.299433e-25
5.9268656e-27
2.125952e-28
5.6422761e-30
9.8769925e-32
8.5763683e-34
0.00037160732
0.00036917917
0.00037853146
0.00038038346
0.00037480128
0.00037504049
0.00037199628
0.0003624886
0.00034923493
0.00032426264
0.00028626701
0.00027469741
0.00029696567
0.00032203266
0.00032031572
0.00028036654
0.00019655583
9.1531521e-05
2.5024024e-05
4.2003961e-06
5.1480692e-07
6.5245921e-08
9.0127054e-09
8.9320689e-10
4.1005246e-11
9.3368916e-13
7.277818e-14
1.580824e-14
3.389895e-15
6.6810602e-16
1.1867168e-16
1.8901884e-17
2.6890537e-18
3.4040891e-19
3.8191442e-20
3.7796366e-21
3.2860631e-22
2.4993011e-23
1.6394987e-24
9.0673929e-26
4.1131918e-27
1.4741824e-28
3.9256235e-30
6.9190392e-32
6.0648702e-34
0.00036886253
0.0003681791
0.00037009258
0.00037987976
0.00037825756
0.00037067186
0.00036897847
0.00036085694
0.00035263295
0.00033414509
0.00030054566
0.00028968567
0.00031116117
0.00033579594
0.00033517105
0.00030182657
0.00022913857
0.00012561346
4.4360694e-05
1.095098e-05
2.4013774e-06
5.711305e-07
1.2729622e-07
1.9595535e-08
1.437213e-09
4.1005652e-11
6.1713414e-13
6.5090401e-14
1.4288782e-14
2.9798855e-15
5.6526901e-16
9.6732949e-17
1.4872276e-17
2.0474394e-18
2.5160704e-19
2.7507502e-20
2.6650086e-21
2.2815406e-22
1.7186071e-23
1.1212769e-24
6.1979828e-26
2.8252019e-27
1.0223981e-28
2.7585442e-30
4.9355386e-32
4.3930365e-34
0.0003584456
0.000363806
0.0003647341
0.00037068043
0.00037915109
0.00037397105
0.0003630775
0.00035868134
0.00035529894
0.0003427632
0.00031282523
0.00030229345
0.00032257804
0.00034552885
0.00034522346
0.0003172796
0.00025704219
0.00015548672
6.7032711e-05
2.3222358e-05
8.4902495e-06
3.3666984e-06
1.1346849e-06
2.6303643e-07
3.0573265e-08
1.4404806e-09
2.323585e-11
3.335246e-13
5.6142809e-14
1.221144e-14
2.4561491e-15
4.4872005e-16
7.4087695e-17
1.1018996e-17
1.4726601e-18
1.7648829e-19
1.8924034e-20
1.8109753e-21
1.5447283e-22
1.1684666e-23
7.7062975e-25
4.3332147e-26
2.0207942e-27
7.5049438e-29
2.078339e-30
3.8070021e-32
3.4535771e-34
0.00035776847
0.00035515845
0.0003575713
0.00036121233
0.00036994094
0.00037609978
0.00036624275
0.00035153723
0.00034384852
0.00035017051
0.00032354937
0.00031281869
0.00033138548
0.00035247541
0.00035098254
0.00032754983
0.0002788295
0.00018971513
9.0595234e-05
4.1291856e-05
2.2679431e-05
1.3440364e-05
6.516346e-06
2.1990152e-06
3.9504592e-07
3.0560936e-08
8.4186546e-10
7.2975644e-12
2.1679574e-13
4.637361e-14
9.7964445e-15
1.8986399e-15
3.3471759e-16
5.3484089e-17
7.7314565e-18
1.0103046e-18
1.1932903e-19
1.2738612e-20
1.2287838e-21
1.0707298e-22
8.3610103e-24
5.7370924e-25
3.3724476e-26
1.6455449e-27
6.3700854e-29
1.8254356e-30
3.4280598e-32
3.1562662e-34
0.00035745824
0.00035816303
0.000350479
0.00035091098
0.00035684418
0.00036721911
0.00036993631
0.00035462215
0.00033585254
0.00032374071
0.00033313269
0.00032152645
0.00033794207
0.00035654896
0.00035351216
0.000333224
0.00029537468
0.00021923703
0.00012001012
6.3623559e-05
4.6285723e-05
3.7294677e-05
2.4716746e-05
1.1721338e-05
3.1582624e-06
3.9236332e-07
1.8593621e-08
2.7448133e-10
1.6283441e-12
1.656706e-13
3.6113713e-14
7.3732488e-15
1.3804794e-15
2.3593145e-16
3.6758567e-17
5.2258477e-18
6.7971172e-19
8.1167708e-20
8.9234292e-21
9.0348616e-22
8.3855809e-23
7.0166441e-24
5.155534e-25
3.2247232e-26
1.6566603e-27
6.6666269e-29
1.9603123e-30
3.7319099e-32
3.44505e-34
0.00034165933
0.00036216389
0.00035672083
0.00034445727
0.00034319422
0.00035105633
0.00036185535
0.00035999712
0.00033904797
0.00031530766
0.00029826478
0.0003285189
0.00034256787
0.00035836916
0.00035315151
0.00033524152
0.00030726945
0.00024485871
0.00014967959
8.7209908e-05
7.6492263e-05
7.5369512e-05
6.426357e-05
4.0926766e-05
1.5998502e-05
3.1097682e-06
2.4815147e-07
6.6809739e-09
4.9867925e-11
6.4789028e-13
1.2415711e-13
2.6446319e-14
5.2320564e-15
9.5331784e-16
1.5990729e-16
2.4777435e-17
3.5691906e-18
4.8158017e-19
6.1187524e-20
7.312439e-21
8.1409655e-22
8.286597e-23
7.5073801e-24
5.8713609e-25
3.844065e-26
2.0358155e-27
8.3382287e-29
2.4699873e-30
4.6977712e-32
4.3019616e-34
0.00033405507
0.00034864633
0.00036465264
0.00035331386
0.00033663889
0.0003339244
0.00034319985
0.00035314204
0.00034613704
0.00031874468
0.00028979332
0.00026753455
0.00034525242
0.00035806355
0.00035050778
0.00033443268
0.00031530857
0.00026665764
0.00017823691
0.00011242054
0.00010348922
0.00012044748
0.00012136443
9.7657572e-05
5.2860883e-05
1.5600987e-05
2.046306e-06
9.8107706e-08
1.4124559e-09
7.9772479e-12
4.0985345e-13
8.8250715e-14
1.8348393e-14
3.5586908e-15
6.4402677e-16
1.0951969e-16
1.7689184e-17
2.7407311e-18
4.0868779e-19
5.8191155e-20
7.7663935e-21
9.487288e-22
1.0341401e-22
9.8087201e-24
7.8866592e-25
5.2406982e-26
2.7912149e-27
1.1423291e-28
3.3657535e-30
6.3448354e-32
5.7410416e-34
0.00034611512
0.00033821054
0.00035393824
0.00036502129
0.00034783207
0.00032706479
0.00032256465
0.00033277299
0.00034068674
0.00032763517
0.00029354765
0.00025942978
0.00023226065
0.00035569432
0.00034574208
0.0003315257
0.00032044825
0.00028470743
0.00020511278
0.00013766501
0.00012887426
0.00015943326
0.00018134544
0.0001702074
0.00011945832
5.1180532e-05
1.071337e-05
8.8966338e-07
2.4400972e-08
2.3172487e-10
1.9294869e-12
2.7699812e-13
5.9996198e-14
1.2391758e-14
2.4347792e-15
4.6011289e-16
8.4750707e-17
1.5320632e-17
2.70051e-18
4.5548284e-19
7.1696087e-20
1.0274086e-20
1.3118974e-21
1.4644895e-22
1.4026929e-23
1.1289554e-24
7.4713118e-26
3.9509264e-27
1.602552e-28
4.6745488e-30
8.7169047e-32
4.3352278e-36
0.00035117245
0.00034505652
0.00034108162
0.0003575286
0.000363253
0.000340409
0.00031534998
0.00030888761
0.0003191763
0.00032387513
0.00030419075
0.00026371322
0.00022481508
0.00019057531
0.00033907976
0.0003270952
0.00032366127
0.00029942152
0.00022997721
0.0001621656
0.00015264852
0.00018894174
0.00023147029
0.00023649874
0.00019826746
0.00011558404
3.689758e-05
5.1349906e-06
2.5834854e-07
4.7473129e-09
3.4792458e-11
8.868186e-13
1.8460327e-13
4.0696925e-14
8.7760852e-15
1.8733638e-15
3.9968167e-16
8.4825205e-17
1.7545008e-17
3.4408512e-18
6.2383361e-19
1.0241612e-19
1.4975822e-20
1.9236972e-21
2.1423006e-22
2.0354549e-23
1.6216135e-24
1.0613681e-25
5.5501108e-27
2.2266202e-28
6.4264248e-30
7.0233488e-34
1.6106263e-38
0.00033061381
0.00034422642
0.00034209636
0.00034297028
0.00035932592
0.00035939399
0.0003306998
0.00030107978
0.00029258088
0.00030176487
0.00030236884
0.00027581778
0.00022904391
0.00018374019
0.00014132242
0.00032151302
0.00032567512
0.00031171273
0.00025257929
0.0001856656
0.00017454091
0.00021416377
0.00026370904
0.00028587376
0.00026320167
0.0001924431
8.8095643e-05
1.9561574e-05
1.733974e-06
5.9497811e-08
7.9112508e-10
5.9866051e-12
5.4508331e-13
1.2762501e-13
3.0635512e-14
7.5018325e-15
1.8658329e-15
4.6121191e-16
1.0986542e-16
2.4503566e-17
5.0077911e-18
9.2392798e-19
1.5209734e-19
2.2114465e-20
2.8120729e-21
3.0930932e-22
2.898937e-23
2.2791078e-24
1.4731758e-25
7.6149081e-27
3.0227927e-28
5.6779144e-32
2.6775592e-36
2.9905834e-41
0.00031506124
0.00032036847
0.00033492367
0.00033785841
0.00034395986
0.00035908224
0.00035323349
0.00031835335
0.000283997
0.00027312439
0.00028011268
0.00027584924
0.00024156367
0.00018733206
0.00013513568
8.9129375e-05
0.00032696244
0.00032267502
0.00027304644
0.00020805577
0.00019479456
0.00023564535
0.00028970698
0.00031787492
0.00030597821
0.00025545402
0.00015579066
5.1802577e-05
7.6448263e-06
4.6820617e-07
1.1575637e-08
1.1588831e-10
1.8802351e-12
3.8732666e-13
1.0486603e-13
2.9701857e-14
8.5580267e-15
2.4198657e-15
6.4961089e-16
1.6157494e-16
3.6631129e-17
7.489891e-18
1.3705931e-18
2.2280598e-19
3.1930511e-20
4.0003692e-21
4.3339577e-22
4.0033099e-23
3.1059012e-24
1.9837943e-25
1.0146039e-26
2.9660377e-30
2.3504775e-34
4.6712412e-39
2.7656411e-44
0.00032741278
0.00030742048
0.00030849804
0.00032409447
0.00033311473
0.0003435178
0.00035659826
0.00034430588
0.00030318049
0.00026359724
0.00024978392
0.0002536201
0.0002430972
0.00019933984
0.00013737109
8.5097424e-05
4.6113562e-05
0.00033324298
0.00029164612
0.00022931443
0.00021360779
0.00025438332
0.0003107543
0.00034261013
0.00033462955
0.00029425443
0.00021839582
0.00010185503
2.3291346e-05
2.3982032e-06
1.0564986e-07
1.9131514e-09
1.7138355e-11
1.1768067e-12
3.5405987e-13
1.1569061e-13
3.8010563e-14
1.204362e-14
3.5756521e-15
9.7687731e-16
2.4282145e-16
5.4492014e-17
1.0979168e-17
1.9761206e-18
3.1584674e-19
4.4525193e-20
5.4926143e-21
5.8600535e-22
5.3390088e-23
4.0920656e-24
2.5860248e-25
1.1119363e-28
1.3729015e-32
4.1916607e-37
3.8555414e-42
1.3081721e-47
0.00034277429
0.00032639692
0.00029835649
0.00029524564
0.00031311409
0.0003269388
0.00034104361
0.00035130096
0.00033261645
0.00028447022
0.00023943076
0.00022230587
0.0002220201
0.00020226211
0.00014730818
8.6759101e-05
4.3607426e-05
1.8605051e-05
0.0003093364
0.00024946592
0.00023105313
0.00027075323
0.00032863111
0.00036145698
0.00035507068
0.00032023444
0.00026247198
0.00015846863
5.2150085e-05
8.4052801e-06
6.2158426e-07
2.0041161e-08
2.7435756e-10
4.6372964e-12
1.1786825e-12
4.3838659e-13
1.6114692e-13
5.6184103e-14
1.8183263e-14
5.3962477e-15
1.4573844e-15
3.562656e-16
7.8472427e-17
1.5514013e-17
2.7413013e-18
4.305596e-19
5.9722191e-20
7.2567887e-21
7.6333534e-22
6.8690475e-23
5.2088878e-24
3.1739693e-27
5.8305036e-31
2.6730124e-35
3.1803151e-40
1.6980353e-45
3.6076575e-51
0.00032583144
0.00034994958
0.00032343335
0.00028795973
0.00028064773
0.00029990659
0.00031891296
0.0003358723
0.00034299742
0.00031725547
0.00026175766
0.00021129504
0.00019088182
0.00018306288
0.00015111865
9.3542626e-05
4.4577286e-05
1.7264066e-05
5.5583834e-06
0.000268464
0.00024716152
0.00028469192
0.00034353602
0.00037673956
0.00036885693
0.00033611513
0.00029168439
0.00021294927
9.1641395e-05
2.1379866e-05
2.4811331e-06
1.343167e-07
3.2216001e-09
4.0392474e-11
3.9276048e-12
1.5970064e-12
6.4543405e-13
2.4412067e-13
8.519844e-14
2.7234848e-14
7.9351306e-15
2.0990933e-15
5.0239398e-16
1.0840704e-16
2.101843e-17
3.6469442e-18
5.6330475e-19
7.6966888e-20
9.2200397e-21
9.5769651e-22
8.5260331e-23
7.1697361e-26
1.8958673e-29
1.2835726e-33
2.033187e-38
1.2265349e-43
4.6054221e-49
6.5317933e-55
0.00028615334
0.0003402651
0.00035414834
0.00031861335
0.00027605096
0.00026451414
0.00028475912
0.00030823293
0.00032740321
0.00033088593
0.00029757094
0.00023396566
0.00017879929
0.00015330763
0.00013556441
9.6186897e-05
4.8600645e-05
1.7574388e-05
5.007328e-06
1.1860516e-06
0.00026185302
0.00029607728
0.00035494138
0.00038868001
0.00037779278
0.00034406089
0.00030807504
0.00025300363
0.00014537175
4.2200689e-05
7.1121338e-06
6.055567e-07
2.4397552e-08
4.5705104e-10
1.5026979e-11
5.5482076e-12
2.4284502e-12
9.858653e-13
3.679682e-13
1.258366e-13
3.9314945e-14
1.1189779e-14
2.8930703e-15
6.7749478e-16
1.4324474e-16
2.7255494e-17
4.6485021e-18
7.0696925e-19
9.5276632e-20
1.126741e-20
1.1577314e-21
1.3169435e-24
4.8897953e-28
4.7957015e-32
1.0549222e-36
6.9869359e-42
3.0458673e-47
8.4353655e-53
8.4726684e-59
0.00027518327
0.00030241888
0.0003516672
0.00035561234
0.00031175637
0.00026259608
0.00024665009
0.00026690806
0.00029419098
0.00031490714
0.0003141948
0.00027199174
0.00020001462
0.00014049662
0.00010986187
8.5089577e-05
5.0244805e-05
1.9397899e-05
5.0439785e-06
1.0294763e-06
1.8004654e-07
0.0003045524
0.00036208129
0.00039644255
0.00038214657
0.00034556645
0.00031495679
0.00027935009
0.00019593086
7.9582544e-05
1.5645047e-05
1.942169e-06
1.2343507e-07
3.7925267e-09
8.513371e-11
1.8469712e-11
8.5680927e-12
3.7029922e-12
1.4682489e-12
5.3396124e-13
1.7790524e-13
5.4191909e-14
1.505494e-14
3.8045483e-15
8.722418e-16
1.8087204e-16
3.3813115e-17
5.6761843e-18
8.5127867e-19
1.1329681e-19
1.3251642e-20
2.007004e-23
1.0263851e-26
1.4314041e-30
4.4450906e-35
3.5054174e-40
1.4884599e-45
5.4199968e-51
1.1157862e-56
8.3983121e-63
0.00031031709
0.00028700207
0.00031701325
0.00035995065
0.00035434633
0.00030291663
0.00024735853
0.00022667154
0.00024600457
0.00027621864
0.00029790687
0.00029226033
0.00023856256
0.0001582195
9.7865409e-05
6.6457167e-05
4.3488294e-05
2.0304157e-05
5.6410135e-06
1.018542e-06
1.4931783e-07
1.9598255e-08
0.00036417677
0.00039835755
0.00038135384
0.00034120926
0.00031444784
0.0002941194
0.00023794408
0.00012418807
3.557155e-05
4.7149236e-06
4.4007906e-07
2.1326473e-08
5.8688573e-10
6.1538855e-11
2.8429335e-11
1.2973562e-11
5.431172e-12
2.0889376e-12
7.3829112e-13
2.3945603e-13
7.1115001e-14
1.9292376e-14
4.7691055e-15
1.0715355e-15
2.1819387e-16
4.0134494e-17
6.6417611e-18
9.8399804e-19
1.2951058e-19
2.5775064e-22
1.7875751e-25
3.4883217e-29
1.5285385e-33
1.5454986e-38
6.4454938e-44
2.4008182e-49
7.1877485e-55
1.127133e-60
7.5131177e-67
0.00036116705
0.00031332819
0.00029784061
0.00032966565
0.00036515065
0.00035041135
0.00029176682
0.00023006402
0.00020442496
0.00022188463
0.0002538253
0.00027562432
0.00026185124
0.00019315529
0.00011038916
5.7186655e-05
3.2301916e-05
1.7242118e-05
5.9975537e-06
1.1543363e-06
1.436797e-07
1.5573495e-08
1.5591667e-09
0.00039326277
0.00037424916
0.00033122886
0.00030786587
0.00030061799
0.00026880243
0.00017266748
6.4341814e-05
1.3049355e-05
1.1705285e-06
8.41968e-08
3.3928994e-09
2.2386691e-10
8.9692775e-11
4.2735302e-11
1.872831e-11
7.567893e-12
2.822303e-12
9.6965272e-13
3.0630743e-13
8.8753744e-14
2.3533031e-14
5.6967599e-15
1.2559941e-15
2.5151017e-16
4.5593311e-17
7.4514216e-18
1.0922834e-18
2.8243035e-21
2.6222106e-24
7.0635793e-28
4.3379934e-32
5.8414553e-37
2.6413888e-42
8.8031827e-48
3.0710836e-53
7.3560584e-59
1.0266172e-64
6.5318167e-71
0.00038066437
0.00035327541
0.00031489776
0.00030788292
0.00034001528
0.00036715696
0.0003436156
0.00027802969
0.00021037549
0.00017987975
0.00019449262
0.00022635438
0.00024649151
0.00021729436
0.00013833797
6.4276211e-05
2.6396005e-05
1.2054711e-05
5.0196825e-06
1.247454e-06
1.6488759e-07
1.4342696e-08
1.1962577e-09
9.277594e-11
0.00036034624
0.00031615205
0.00029649571
0.00030104793
0.00029093414
0.00021905827
0.00010198088
2.7421059e-05
3.97327e-06
2.4719781e-07
1.5180342e-08
9.8641409e-10
2.8182897e-10
1.3436644e-10
6.1043294e-11
2.5622783e-11
9.9861827e-12
3.6150859e-12
1.2085087e-12
3.7214634e-13
1.0530418e-13
2.7320048e-14
6.4846624e-15
1.4049955e-15
2.7712859e-16
4.9600051e-17
8.0221063e-18
2.6675137e-20
3.2787667e-23
1.2052049e-26
1.029092e-30
1.8726327e-35
1.0029516e-40
3.0447886e-46
1.0155515e-51
3.1330467e-57
6.8122002e-63
9.0727362e-69
5.5236125e-75
0.00033974247
0.00036135733
0.00034250713
0.00031581953
0.00031663837
0.00034755337
0.00036593668
0.00033371553
0.00026131023
0.00018799627
0.00015332646
0.00016399189
0.00019639888
0.0002052635
0.00015939558
8.2640751e-05
2.9188622e-05
9.1403937e-06
3.2941307e-06
1.0333138e-06
1.8025573e-07
1.6410514e-08
1.0504002e-09
6.9444133e-11
4.1838241e-12
0.00029684494
0.00028154111
0.00029738612
0.00030700316
0.00026058411
0.00014665303
4.9385114e-05
9.7046264e-06
1.0435577e-06
6.0843309e-08
6.7809665e-09
1.2915305e-09
4.4192423e-10
1.9265744e-10
8.2808608e-11
3.318707e-11
1.2471626e-11
4.3881849e-12
1.4288398e-12
4.2933127e-13
1.1876881e-13
3.0187837e-14
7.03605e-15
1.5005743e-15
2.9207145e-16
5.1712917e-17
2.190397e-19
3.528684e-22
1.752228e-25
2.0645488e-29
5.1000995e-34
3.397004e-39
1.0431435e-44
2.9529078e-50
9.9548557e-56
2.93309e-61
6.1210992e-67
7.7858072e-73
4.5489114e-79
0.00027406628
0.00031369769
0.00033850428
0.00033063258
0.00031601771
0.00032347133
0.00035177736
0.00036110306
0.00032053343
0.00024085162
0.00016307014
0.00012554977
0.00013481279
0.00015847555
0.00015134891
9.8489458e-05
3.8529553e-05
9.7389284e-06
2.2757084e-06