/*--------------------------------*- C++ -*----------------------------------*\
| =========                 |                                                 |
| \\      /  F ield         | OpenFOAM: The Open Source CFD Toolbox           |
|  \\    /   O peration     | Version:  5.0                                   |
|   \\  /    A nd           | Web:      www.OpenFOAM.org                      |
|    \\/     M anipulation  |                                                 |
\*---------------------------------------------------------------------------*/
FoamFile
{
    version     2.0;
    format      ascii;
    class       volScalarField;
    location    "360";
    object      p;
}
// * * * * * * * * * * * * * * * * * * * * * * * * * * * * * * * * * * * * * //

dimensions      [0 2 -2 0 0 0 0];

internalField   nonuniform List<scalar> 
9520
(
2.8583106e-05
2.9039911e-05
-5.0746584e-05
2.9603395e-05
-4.8314553e-05
-8.7136869e-05
2.9896233e-05
-4.4244123e-05
-8.2728061e-05
-0.00013949141
2.9628011e-05
-3.9333519e-05
-7.5279246e-05
-0.0001325592
-0.00018459348
2.8527695e-05
-3.4428607e-05
-6.6298817e-05
-0.00012065779
-0.00017483009
-0.00023777118
2.62966e-05
-3.0426561e-05
-5.7225524e-05
-0.00010601936
-0.00015801324
-0.0002244427
-0.00029332182
2.249633e-05
-2.7849621e-05
-4.9461498e-05
-9.067503e-05
-0.00013704622
-0.00020145362
-0.00027628414
-0.00035660021
1.6749341e-05
-2.7082894e-05
-4.4104344e-05
-7.6483492e-05
-0.00011462142
-0.00017246144
-0.00024640676
-0.00033561282
-0.00042641466
9.3537223e-06
-2.8146657e-05
-4.1962532e-05
-6.5150857e-05
-9.3237926e-05
-0.00014085707
-0.00020783688
-0.00029826629
-0.00040094777
-0.00050541646
1.7536949e-06
-3.123175e-05
-4.3227024e-05
-5.8059046e-05
-7.518233e-05
-0.00010965174
-0.00016465317
-0.00024908559
-0.00035528815
-0.00047537442
-0.00059404385
-6.7994617e-06
-3.7913725e-05
-4.803166e-05
-5.617765e-05
-6.2296145e-05
-8.1717087e-05
-0.00012057568
-0.00019210326
-0.00029444953
-0.00042109037
-0.00055948609
-0.00069301325
-1.7736716e-05
-4.5656957e-05
-5.5680733e-05
-6.0029212e-05
-5.5853307e-05
-5.9832671e-05
-7.9036649e-05
-0.00013197315
-0.00022287193
-0.00034798431
-0.00049659884
-0.00065416928
-0.00080263819
-2.8845398e-05
-4.750488e-05
-6.4711313e-05
-6.7272271e-05
-5.6947838e-05
-4.6918328e-05
-4.3401791e-05
-7.2648166e-05
-0.00014527009
-0.00026112327
-0.00041101141
-0.00058301847
-0.00075990634
-0.00092296576
-3.2935469e-05
-4.9201567e-05
-7.2307656e-05
-7.7512884e-05
-6.8267355e-05
-4.5951939e-05
-1.6920712e-05
-1.7678593e-05
-6.5749376e-05
-0.00016497575
-0.00030774345
-0.00048524589
-0.00068115017
-0.0008769053
-0.0010537037
-4.5346096e-05
-5.6694292e-05
-7.881062e-05
-9.9373536e-05
-9.6507812e-05
-6.0561295e-05
-2.8398385e-06
2.9835236e-05
1.2050701e-05
-6.3755277e-05
-0.00019153125
-0.0003657864
-0.00057199144
-0.00079153216
-0.0010050304
-0.0011942557
-3.3351416e-05
-5.6669332e-05
-7.4886786e-05
-0.00013007436
-0.000134518
-9.2931355e-05
-4.883005e-06
6.7703528e-05
8.5339324e-05
3.8628559e-05
-6.6743257e-05
-0.00022928549
-0.00043714982
-0.00067223502
-0.00091428368
-0.0011438563
-0.0013437457
-5.0237134e-05
-6.1010057e-05
-5.9786914e-05
-0.00014000585
-0.00018543813
-0.00014076932
-2.3306387e-05
9.5857868e-05
0.00015252715
0.00013917268
6.2654985e-05
-8.0107461e-05
-0.00028099161
-0.00052316157
-0.00078613477
-0.0010492279
-0.0012926525
-0.0015010494
-1.2610138e-05
-6.352598e-05
-3.3514915e-05
-0.00013827661
-0.00026422719
-0.00020701742
-6.0681986e-05
0.00011321406
0.00021399312
0.00023544479
0.00019288689
7.7334922e-05
-0.00010795145
-0.00034830194
-0.0006242605
-0.00091428755
-0.0011960378
-0.0014503738
-0.0016648465
-7.0800105e-05
-8.1192014e-05
2.6002303e-05
-0.00011170724
-0.00036778781
-0.00030546934
-0.00012260701
0.00011783713
0.00027061817
0.00032613568
0.00032062473
0.00023845759
7.7044099e-05
-0.00015210692
-0.0004322
-0.00074175703
-0.0010569584
-0.0013538344
-0.00161575
-0.0018337073
-4.7212923e-05
-0.0001115352
9.9183795e-05
-4.902461e-05
-0.00048674059
-0.00044580304
-0.00021077966
0.00010915778
0.00032557328
0.00041075731
0.0004431795
0.0003987227
0.00026895313
6.0679427e-05
-0.00021394088
-0.00053494921
-0.00087731779
-0.0012135443
-0.0015213745
-0.001787369
-0.0020061794
-0.00016551373
-0.0001525846
0.00026964219
4.5832381e-05
-0.00063850472
-0.00063743518
-0.00033540006
9.2048005e-05
0.00038730127
0.00049631005
0.00055885253
0.00055292175
0.00046225961
0.0002849642
2.6285647e-05
-0.00029688582
-0.00065918027
-0.0010303284
-0.0013826337
-0.0016973398
-0.0019637727
-0.0021807664
-0.00020911064
-0.00022076769
0.00043310196
0.00022144311
-0.00080840401
-0.0009008492
-0.00050322006
5.8325686e-05
0.00044596212
0.00057986315
0.00066384893
0.00069517959
0.00065058082
0.00051516451
0.00028378436
-3.1084302e-05
-0.00040460068
-0.00080458514
-0.0011988968
-0.0015632178
-0.0018803282
-0.0021434938
-0.0023558801
-0.00031668751
-0.00029059299
0.00075812195
0.00041388631
-0.0010364337
-0.0012319968
-0.00072223233
1.1800163e-05
0.00051787503
0.00066875567
0.00072969496
0.00081685158
0.00082712939
0.00074518686
0.00055347619
0.00025833516
-0.00011659241
-0.00053771483
-0.0009696158
-0.0013827644
-0.0017539822
-0.0020688786
-0.0023249266
-0.0025299997
-0.00034205394
-0.00034106232
0.00099114331
0.0008280812
-0.001282251
-0.0016983913
-0.0010007923
-5.4587695e-05
0.00061516117
0.00078129631
0.00078457616
0.00092109521
0.00098375196
0.00096889096
0.00083020112
0.00056687717
0.00020120841
-0.00023195473
-0.00069471085
-0.0011539518
-0.0015808672
-0.0019534428
-0.0022612984
-0.0025063719
-0.0027017818
-0.00050517944
-0.00045649244
0.001456515
0.00048830467
-0.0016233503
-0.0022597257
-0.0013420442
-0.00014124754
0.00074669386
0.00093231655
0.00084747151
0.00099290054
0.0011239615
0.001180588
0.0011091299
0.00089026908
0.00054477051
0.00010971426
-0.00037523857
-0.00087535828
-0.0013572727
-0.0017916384
-0.002159896
-0.0024557855
-0.0026863564
-0.0028698757
-0.00066316401
-0.00054821839
0.0019048043
0.0008981816
-0.0019095768
-0.003671725
-0.0017410653
-0.00021695505
0.00094298372
0.0011322447
0.00092187757
0.0010094507
0.0012325114
0.0013740133
0.001385952
0.0012247192
0.00091014838
0.00048376792
-1.3507636e-05
-0.00054696375
-0.0010802217
-0.001578124
-0.0020134155
-0.0023715593
-0.0026508375
-0.0028636005
-0.0030329998
-0.00062649383
-0.00052462338
0.0024901629
0.0013224626
-0.0022165658
-0.0043097713
-0.0023387341
-0.00031513392
0.0011883696
0.0013988785
0.0010006195
0.00097407299
0.0012810101
0.0015393949
0.0016581246
0.0015689763
0.0012950876
0.00088712758
0.00038704407
-0.00017034195
-0.00074837364
-0.0013080711
-0.0018148422
-0.0022445873
-0.0025867288
-0.0028448962
-0.0030367022
-0.0031900674
-0.0005729575
-0.000573852
0.0030448306
0.0018542409
-0.002471339
-0.005444244
-0.0031356814
-0.00049503901
0.0015164026
0.0017331445
0.0011018191
0.00087671552
0.0012553323
0.0016617674
0.0019215991
0.001924389
0.0017000228
0.0013165847
0.00082214883
0.00025108252
-0.00036224765
-0.00097852171
-0.0015574679
-0.0020659286
-0.0024832189
-0.002803183
-0.0030360889
-0.003204334
-0.0033401103
-0.00045593145
-0.0007319695
0.0036731825
0.0021524242
-0.0030142881
-0.0069078976
-0.0041039665
-0.00074794022
0.0019949948
0.0021653027
0.0012179522
0.00071815885
0.0011252426
0.0017264988
0.0021648423
0.0022919985
0.0021251916
0.0017694122
0.0012866909
0.00071233985
7.5244217e-05
-0.00058864968
-0.0012364054
-0.0018272062
-0.0023295795
-0.0027268363
-0.0030190145
-0.0032229622
-0.0033654086
-0.0034823114
-0.00041259095
-0.00065216608
0.0042424314
0.0023075776
-0.0034238673
-0.0085309625
-0.0048357305
-0.00098709949
0.0026242006
0.0026949224
0.0013775502
0.00046279802
0.00087215146
0.0017098499
0.0023869466
0.002670354
0.0025735491
0.0022441035
0.0017759445
0.0012067366
0.00055896433
-0.00014027158
-0.00084914415
-0.0015212964
-0.002115562
-0.0026031407
-0.0029735163
-0.0032331873
-0.0034046068
-0.0035190618
-0.0036160013
-0.00035239287
-0.00047900208
0.0044492788
0.0025444151
-0.003714319
-0.0099090434
-0.0058780845
-0.0013317761
0.0034113567
0.0033175275
0.0015751082
0.0001003696
0.00043817361
0.0015888155
0.002577733
0.003069067
0.0030500188
0.0027421209
0.0022849742
0.0017254695
0.0010810016
0.00036220061
-0.00039547814
-0.00114328
-0.0018315838
-0.0024198425
-0.0028842618
-0.0032212025
-0.0034437502
-0.0035797442
-0.0036645032
-0.0037405714
-0.00034881171
-0.00035240175
0.0044546844
0.002711109
-0.0042372912
-0.01169613
-0.0076687614
-0.0021045663
0.0043006275
0.0040239279
0.0018503188
-0.00041945967
-0.00020259541
0.0013306672
0.0027275784
0.0034906441
0.0035658412
0.0032662718
0.0028116093
0.0022604384
0.0016310736
0.00091294943
0.00012283698
-0.00069067882
-0.0014704441
-0.0021646446
-0.0027370271
-0.0031702822
-0.003467363
-0.0036488873
-0.0037471701
-0.0038008416
-0.0038555086
-0.00037298809
-0.00023702964
0.0041964877
0.0030415907
-0.0050265083
-0.013326441
-0.0094624269
-0.0030242652
0.0055458737
0.0046867137
0.0021813887
-0.0011198285
-0.0011436085
0.00090526383
0.0028170182
0.0039479766
0.0041303905
0.0038268097
0.0033513712
0.0028074895
0.0022051569
0.0015070368
0.00070081683
-0.00016362528
-0.0010277669
-0.0018287574
-0.002517339
-0.003064305
-0.0034585099
-0.0037105511
-0.0038473445
-0.0039056258
-0.0039273528
-0.0039607048
-0.00043324803
-0.00017075841
0.003813108
0.0034783517
-0.0058436951
-0.014562775
-0.010797131
-0.0035397327
0.0069866829
0.0053929295
0.0026120138
-0.0020882164
-0.0023991489
0.00027282956
0.0028173535
0.004442779
0.0047654409
0.0044289847
0.0039089429
0.0033504216
0.0027725827
0.0021273704
0.0013293475
0.00043306979
-0.00050151794
-0.0014055854
-0.0022153653
-0.0028875814
-0.0033989524
-0.0037466717
-0.0039490538
-0.0040383631
-0.004054278
-0.0040441563
-0.004056195
-0.00049033343
-0.00013158799
0.003244469
0.003799572
-0.0064799674
-0.015725584
-0.012098734
-0.0039542253
0.0081500405
0.0059418698
0.0030502208
-0.0033536933
-0.0041348578
-0.00059452306
0.0026905408
0.0049827009
0.0054816266
0.0050928954
0.0044798308
0.0038848129
0.003321318
0.002741305
0.0019905667
0.0010906855
0.00010586038
-0.00089024199
-0.0018217651
-0.0026284683
-0.0032723633
-0.0037382105
-0.0040332922
-0.0041810769
-0.0042209883
-0.0041935826
-0.0041512118
-0.004141939
-0.00050712652
-0.00014443775
0.0025465257
0.0040139659
-0.0071769707
-0.016664534
-0.013539953
-0.0041319054
0.0084204757
0.0061757905
0.0036287711
-0.0050338429
-0.0063091377
-0.0017281802
0.0023562482
0.0055571822
0.0063024991
0.0058169393
0.0050804236
0.0043953996
0.0038443969
0.0033355722
0.002672973
0.0017945237
0.00078851578
-0.00028192073
-0.0013277064
-0.0022732781
-0.0030635516
-0.0036676417
-0.0040794135
-0.0043155936
-0.0044055099
-0.0043927127
-0.0043229659
-0.0042482405
-0.0042180039
-0.00045654718
-0.00028309639
0.0017603257
0.0039067635
-0.0078863618
-0.017400642
-0.014989451
-0.0047909119
0.0085447743
0.0060695773
0.0041515579
-0.0069466547
-0.0092529025
-0.0031238662
0.0017417352
0.0061519734
0.0072398603
0.0066205599
0.005697272
0.0048818993
0.0043090622
0.0038855129
0.0033514672
0.0025442276
0.0015372071
0.00041614189
-0.0007303364
-0.0018119749
-0.0027570266
-0.0035169654
-0.0040702527
-0.0044203168
-0.0045916813
-0.0046206187
-0.004553101
-0.0044414209
-0.0043351802
-0.0042845517
-0.00034675412
-0.00056920136
0.0008707021
0.0033208176
-0.0084203962
-0.017959952
-0.016128143
-0.005872496
0.0077864136
0.0055496056
0.0042236808
-0.010004506
-0.012969057
-0.0047930045
0.00069960599
0.0067761952
0.0082842746
0.0074882382
0.0063524565
0.005316961
0.0046976772
0.0043590286
0.0040000559
0.0033168746
0.0023524138
0.001201975
-2.9347758e-05
-0.0012385431
-0.0023402096
-0.0032687797
-0.0039850854
-0.0044770359
-0.0047577812
-0.0048596068
-0.0048241981
-0.0047025451
-0.004549015
-0.0044121042
-0.0043418064
-0.00019927346
-0.00097522532
-0.00011729906
0.0023171532
-0.0087024025
-0.018106804
-0.016967957
-0.0069993488
0.006481523
0.0047016626
0.0038768675
-0.012706166
-0.017549772
-0.0070087811
-0.00084031878
0.0073070595
0.0094065441
0.0084051085
0.0070176382
0.005708796
0.0049599627
0.0047444631
0.0045875793
0.0040919946
0.0032186672
0.0020712311
0.00077696026
-0.00054831171
-0.0018036898
-0.0029079544
-0.0038045012
-0.0044639785
-0.0048844492
-0.0050889661
-0.0051168335
-0.0050153913
-0.0048404289
-0.0046456966
-0.0044791515
-0.0043900734
-0.0014445744
-4.0262264e-05
-0.0012091035
0.000959936
-0.0087001844
-0.017799873
-0.017361536
-0.0081851297
0.004650394
0.0039922206
0.0039929456
-0.015784691
-0.022044312
-0.010498778
-0.0032589007
0.0075492544
0.010488057
0.0093237804
0.0077001569
0.0060040317
0.0050763956
0.0049538972
0.0050874658
0.0048458415
0.0041203338
0.0030206462
0.0016844014
0.00025887665
-0.0011408606
-0.0024220872
-0.0035109314
-0.0043596989
-0.0049493421
-0.005288911
-0.0054110013
-0.0053614979
-0.005194111
-0.0049665424
-0.0047315951
-0.0045366461
-0.0044297252
-0.0023771888
-0.0018999151
7.637805e-05
-0.00066621454
-0.0084271
-0.016950696
-0.01723078
-0.0093219799
0.0022758352
0.0025127544
0.0043775873
-0.0188578
-0.026984817
-0.015154958
-0.0071180146
0.0073863086
0.011612062
0.010142662
0.0083366713
0.0062129316
0.0049635308
0.0049708567
0.0054399598
0.0055527633
0.0050430191
0.004039863
0.0026904943
0.001186317
-0.00034816708
-0.0018022663
-0.0030892365
-0.0041442643
-0.004929273
-0.0054366951
-0.0056867747
-0.0057212628
-0.0055925983
-0.0053598986
-0.0050807151
-0.0048069954
-0.0045849304
-0.0044611533
-0.002449098
-0.0035303768
-0.0022830722
0.0001389558
-0.0078352688
-0.015538749
-0.016484722
-0.010320982
-0.00066634872
0.00034207928
0.0042807426
-0.021220776
-0.032090853
-0.019862959
-0.011068032
0.0069736336
0.012687205
0.010790124
0.0089041645
0.0062459732
0.0046046055
0.0046695794
0.0056085818
0.0061754788
0.0059763665
0.0051175381
0.0037942845
0.0022286084
0.00057538342
-0.0010417759
-0.0025271606
-0.0037995851
-0.0048020696
-0.0055078028
-0.0059214656
-0.0060745917
-0.006017723
-0.0058095222
-0.0055123685
-0.0051829593
-0.0048720519
-0.0046243488
-0.0044848071
-0.006928207
-0.0043221993
-0.0045880009
-0.0024950135
0.00012862326
-0.013602246
-0.015138749
-0.011127534
-0.0041081649
-0.0023541176
0.0034041911
-0.023300605
-0.037944571
-0.024685998
-0.014487989
0.0057825153
0.013584408
0.010979139
0.0092685655
0.0061156586
0.0038686204
0.0040182217
0.0054831426
0.0066740802
0.0068946278
0.0062513924
0.0049911348
0.0033791324
0.0016307573
-0.00014037697
-0.0018175354
-0.003310891
-0.0045469394
-0.0054780914
-0.0060897525
-0.0063992677
-0.0064493854
-0.0062989694
-0.0060117341
-0.0056512616
-0.0052733934
-0.0049271383
-0.0046554105
-0.0045011529
-0.011230532
-0.0058734873
-0.006035999
-0.005492551
-0.0025278797
7.1818123e-05
-0.01321937
-0.011756728
-0.008014971
-0.005542505
0.0016847619
-0.025827298
-0.043262827
-0.030861299
-0.019459635
0.004514156
0.01340682
0.010647713
0.0093789454
0.0056552515
0.0027461135
0.0028130315
0.0050075073
0.0069877767
0.0077832281
0.0074279615
0.006276987
0.004638871
0.0028070626
0.00089932286
-0.00095611834
-0.0026673833
-0.0041458216
-0.0053240365
-0.0061658516
-0.0066696994
-0.0068661132
-0.0068087822
-0.0065638062
-0.0061985237
-0.0057764834
-0.0053522765
-0.0049727988
-0.004678579
-0.0045106567
-0.010781873
-0.0084797053
-0.0047633506
-0.0074696091
-0.0062138066
-0.0024153698
1.0934146e-05
-0.012263409
-0.012307753
-0.0092170468
-0.0010379823
-0.028158699
-0.048429548
-0.037154189
-0.02535756
0.00061185748
0.013181924
0.009430377
0.0089759988
0.0049565973
0.0010059958
0.0010209448
0.0039947956
0.0070501121
0.0086008493
0.0086544849
0.0076443011
0.0060071865
0.0040937528
0.0020728104
5.1818918e-05
-0.0018650757
-0.0035850711
-0.0050244086
-0.0061237153
-0.0068588983
-0.0072425227
-0.0073185521
-0.0071508825
-0.0068113318
-0.0063694753
-0.0058882302
-0.0054201664
-0.0050094413
-0.0046943136
-0.0045137596
-0.012335968
-0.0079338022
-0.0056245523
-0.0036947936
-0.0085124993
-0.006764488
-0.0022218929
-1.5458202e-05
-0.01669564
-0.01345497
-0.0047001382
-0.030189917
-0.053100128
-0.043858736
-0.030922285
-0.0040358917
0.01040971
0.0076674263
0.0081563709
0.003643681
-0.0013000324
-0.0017735843
0.0023600534
0.0067736186
0.009319261
0.0099065885
0.0090973726
0.0074691805
0.0054892435
0.0033619997
0.001198818
-0.00090513731
-0.0028571601
-0.0045617149
-0.0059386498
-0.0069387026
-0.0075509462
-0.0078035733
-0.0077536531
-0.0074739918
-0.0070407082
-0.0065246189
-0.0059870198
-0.0054775117
-0.005037469
-0.0047029524
-0.0045109191
-0.020952478
-0.012033835
-0.0050221722
-0.0027835774
-0.0027684332
-0.0091160326
-0.0071495431
-0.0019994167
-8.8606991e-06
-0.018146227
-0.0088291444
-0.031771481
-0.056552794
-0.050470735
-0.036207335
-0.0093655034
0.0066592029
0.0051757155
0.0065710134
0.0021044354
-0.0046844499
-0.0055405873
-0.00027856384
0.0060242596
0.009838022
0.011182833
0.010608384
0.0090276283
0.0069688257
0.0047553833
0.0024680817
0.00020061087
-0.0019617029
-0.003923781
-0.0055889397
-0.0068808361
-0.0077615802
-0.0082360652
-0.0083486953
-0.0081687805
-0.0077766201
-0.0072516614
-0.0066644174
-0.0060731678
-0.0055242723
-0.0050569185
-0.0047049191
-0.0045027984
-0.022882221
-0.024787873
-0.011572394
-0.002244793
-0.00019003599
-0.0020050526
-0.0092473286
-0.0074254788
-0.0017399494
3.1396472e-05
-0.013261162
-0.032656928
-0.058358178
-0.056123296
-0.040346019
-0.015114495
0.00054684333
0.0028124074
0.0036489402
-0.0005961865
-0.0086084337
-0.010925977
-0.003902291
0.0046729136
0.01005748
0.01240044
0.012174619
0.010633439
0.008535226
0.0062241417
0.0038368046
0.0014346358
-0.0009082812
-0.0031072275
-0.0050575763
-0.0066593717
-0.0078432134
-0.0085852401
-0.0089087459
-0.0088740205
-0.0085615687
-0.0080580504
-0.0074445257
-0.0067889624
-0.0061461051
-0.0055602057
-0.0050684706
-0.0047014258
-0.0044900232
-0.01776367
-0.027076162
-0.02782293
-0.010964504
0.0002880341
0.0020753203
-0.001410422
-0.0089185022
-0.0075342199
-0.0014444073
0.00011662735
-0.03258354
-0.058242004
-0.059596653
-0.043601411
-0.020969947
-0.0072828546
-0.0021565496
0.00062343894
-0.0029409626
-0.014301899
-0.017314047
-0.008965236
0.002412613
0.0097714618
0.01349055
0.013746534
0.0122741
0.010129055
0.0077537005
0.0052705106
0.0027691054
0.00028332859
-0.0021178234
-0.0043349717
-0.0062512242
-0.0077649093
-0.0088174677
-0.0094027742
-0.0095636485
-0.0093760102
-0.0089305477
-0.0083183881
-0.0076190769
-0.0068970248
-0.0062052448
-0.0055866899
-0.0050744569
-0.0046935789
-0.0044723973
-0.031121689
-0.02212681
-0.03018306
-0.02992469
-0.010207832
0.0024504629
0.0039795033
-0.0010324347
-0.0082851434
-0.0074764013
-0.0011790969
0.00016875549
-0.055885422
-0.060567388
-0.045805096
-0.02675629
-0.016583055
-0.0092313142
-0.0033767216
-0.0045700236
-0.019331096
-0.026201082
-0.015374091
-0.00088115763
0.0086966319
0.014323572
0.015230792
0.013900515
0.011731121
0.0092733898
0.0067428239
0.0041633608
0.0015831793
-0.00097338188
-0.0034218472
-0.0056398873
-0.0074979031
-0.0088972762
-0.0097954023
-0.010207257
-0.010195703
-0.0098522341
-0.0092753823
-0.0085569785
-0.0077732134
-0.0069875349
-0.006252995
-0.0056077279
-0.005076393
-0.0046798332
-0.0044481678
-0.051430178
-0.028542449
-0.025457319
-0.032013005
-0.031010878
-0.0094058113
0.0041298728
0.0054748265
-0.00085403544
-0.007562409
-0.0074008157
-0.00088190611
0.00032027211
-0.058908141
-0.046467268
-0.032411322
-0.026455388
-0.018383982
-0.0096472933
-0.0068009171
-0.023649853
-0.036001465
-0.024742822
-0.0058257141
0.0065616148
0.014721606
0.016563154
0.015384632
0.013248526
0.010771887
0.0081780934
0.0055809532
0.0029465622
0.00029589518
-0.0023303482
-0.0048179671
-0.0070174979
-0.0087903581
-0.010047777
-0.010768635
-0.010991864
-0.010801066
-0.010301672
-0.0095949271
-0.0087706208
-0.0079051379
-0.0070641474
-0.0062956182
-0.0056250218
-0.0050698666
-0.0046556075
-0.0044180758
-0.054827868
-0.044946972
-0.025288639
-0.02734411
-0.03231899
-0.031174136
-0.0086538974
0.0053218021
0.0065783792
-0.00078806758
-0.0067829556
-0.0070277233
-0.00075134721
0.00038660774
-0.045128047
-0.037824634
-0.036832204
-0.029859525
-0.018396315
-0.010500033
-0.027548275
-0.048278134
-0.036772856
-0.013789144
0.0027179559
0.014240854
0.01754896
0.016703517
0.014576958
0.012123587
0.0095597011
0.0069421829
0.0043285879
0.0016448783
-0.0010871662
-0.0037892035
-0.006306147
-0.0084629345
-0.01011984
-0.011206675
-0.011728471
-0.011751063
-0.011377645
-0.010722324
-0.0098845444
-0.0089564949
-0.0080199921
-0.0071360991
-0.0063346896
-0.0056293044
-0.0050454416
-0.0046252929
-0.0043825024
-0.041342224
-0.048366432
-0.037321238
-0.021296107
-0.028194711
-0.031289022
-0.030455555
-0.0079105206
0.0060615967
0.0073503528
-0.00072447281
-0.0060936845
-0.0064766558
-0.00085163262
0.0004779857
-0.042483298
-0.047764452
-0.042932081
-0.029700925
-0.015285353
-0.032702553
-0.058200687
-0.057598932
-0.023406293
-0.0031600286
0.012418099
0.017844364
0.017444478
0.015685338
0.013271607
0.010752989
0.0082225568
0.0056441449
0.0030217856
0.00026610405
-0.0025720231
-0.0053563612
-0.0078864533
-0.0099694508
-0.011475694
-0.012363232
-0.01266735
-0.012481374
-0.011922224
-0.011108003
-0.010139882
-0.0091213341
-0.0081308391
-0.0072048471
-0.0063541339
-0.0056046084
-0.0050140419
-0.0045892248
-0.0043413593
-0.04532415
-0.035348552
-0.040296399
-0.029264204
-0.017374195
-0.028027709
-0.029378644
-0.028916156
-0.0071843165
0.0063518497
0.0078350868
-0.0008596347
-0.0055942821
-0.0054938459
-0.00087815052
0.00041610637
-0.058656129
-0.056893839
-0.042160524
-0.02102836
-0.03892781
-0.068788468
-0.07399866
-0.041578527
-0.013711124
0.010673237
0.017097957
0.017695115
0.01611599
0.014113627
0.011733469
0.0092789556
0.0068602818
0.0043382836
0.0016744346
-0.0011999116
-0.0041739483
-0.0070398731
-0.0095566747
-0.011527314
-0.012846543
-0.01350785
-0.013579992
-0.013178055
-0.012425976
-0.011452749
-0.010369285
-0.0092829074
-0.0082390779
-0.0072449762
-0.0063294995
-0.0055714736
-0.0049766211
-0.0045474429
-0.0042946245
-0.068324694
-0.046523181
-0.028660156
-0.031798165
-0.02126805
-0.013745972
-0.02676098
-0.027001451
-0.026736088
-0.0067029716
0.0061357897
0.0079744702
-0.0011360377
-0.0051347728
-0.004620301
-0.00090546808
0.00032527753
-0.070865579
-0.054692067
-0.02873864
-0.045899342
-0.079498969
-0.092359004
-0.065036698
-0.027635542
0.0037879655
0.016985651
0.016753712
0.016153593
0.01437837
0.012353442
0.010108973
0.0078193776
0.0055491484
0.0030509855
0.00027503239
-0.0027792121
-0.0059129044
-0.0088458764
-0.011310595
-0.013124752
-0.014221855
-0.014633306
-0.014459636
-0.013829635
-0.012879885
-0.01176412
-0.010596343
-0.0094425396
-0.0083069733
-0.0072211896
-0.0062941005
-0.0055318692
-0.0049331544
-0.0044997858
-0.0042421467
-0.083657431
-0.075894604
-0.045825793
-0.021847203
-0.023662029
-0.013773403
-0.010151775
-0.024666912
-0.024248338
-0.024495264
-0.0062289836
0.0060009114
0.0077543217
-0.001245168
-0.0045008598
-0.0039550245
-0.0008439079
0.00026703861
-0.067399196
-0.038160689
-0.053324007
-0.090036724
-0.11032521
-0.089549002
-0.043175422
-0.0048702378
0.012196083
0.015639471
0.014860553
0.014182816
0.01248566
0.010524563
0.0085326094
0.0064807618
0.0043353115
0.0017739117
-0.001213592
-0.004508065
-0.0078087108
-0.010775374
-0.013138008
-0.014750787
-0.015591373
-0.015730061
-0.015291259
-0.014423893
-0.013298328
-0.01207461
-0.010822186
-0.0095472594
-0.008285506
-0.0071830958
-0.0062516699
-0.0054858112
-0.004883624
-0.0044460701
-0.0041840214
-0.079278671
-0.093848734
-0.080082575
-0.042872759
-0.015244711
-0.016278212
-0.0071156168
-0.0066464968
-0.022010589
-0.021275668
-0.022066516
-0.0051489594
0.0060060203
0.007525717
-0.0011185446
-0.0034876418
-0.0032393299
-0.00076214151
0.00016130909
-0.047588431
-0.060723113
-0.099317955
-0.12666547
-0.1126075
-0.062354775
-0.017609995
0.0065789758
0.011676197
0.012942168
0.012896274
0.012105791
0.010507878
0.0087609447
0.0071474514
0.0053440727
0.0032234726
0.00045974322
-0.0028483972
-0.0064262984
-0.0098750871
-0.012822354
-0.015028176
-0.01639393
-0.016941841
-0.016778701
-0.016058174
-0.014973504
-0.013716571
-0.012384776
-0.010974998
-0.0095308215
-0.008244621
-0.0071373521
-0.0062023828
-0.005433546
-0.0048278904
-0.0043866286
-0.0041200934
-0.056194382
-0.088494166
-0.099747406
-0.081028817
-0.038643696
-0.0089858283
-0.010274915
-0.0013653382
-0.003335197
-0.019103268
-0.017715074
-0.019375672
-0.0038429314
0.005521532
0.006856775
-0.00059756083
-0.0026218864
-0.0026954134
-0.00070194268
0.00011758795
-0.067155633
-0.10584126
-0.13917572
-0.13317107
-0.083652181
-0.03327006
-0.0035652501
0.0083190295
0.0089050682
0.010973544
0.010872718
0.0098853847
0.0085718689
0.0072514074
0.0060793996
0.0044430653
0.0021638875
-0.00097389657
-0.0046968109
-0.0085680079
-0.012113476
-0.014979353
-0.016970524
-0.018036296
-0.018248987
-0.017757009
-0.016773732
-0.015525331
-0.014135343
-0.012600425
-0.01096772
-0.0094876193
-0.0081952714
-0.0070843418
-0.006146706
-0.0053748638
-0.004766185
-0.0043210567
-0.0040505185
-0.069924252
-0.064049439
-0.092957961
-0.1013063
-0.078957114
-0.033973573
-0.0031136434
-0.0051497726
0.0034058196
-0.00032824431
-0.016069767
-0.015124692
-0.016727718
-0.0028994513
0.0048920849
0.0055985033
-0.00016831265
-0.0020705907
-0.0018266641
-0.00058967591
3.5172042e-05
-0.10788809
-0.14571475
-0.14959594
-0.10380879
-0.051684175
-0.015474257
0.00034377895
0.0054716082
0.0071201642
0.0090430138
0.0086016292
0.0075885656
0.0068968316
0.0061801597
0.0054088998
0.0037359336
0.0010486411
-0.00263285
-0.0068252925
-0.010950989
-0.014526665
-0.017242769
-0.018942342
-0.019647137
-0.019483817
-0.018677547
-0.017494639
-0.016081098
-0.014433957
-0.012608618
-0.010923686
-0.0094348773
-0.0081383198
-0.0070246627
-0.0060842939
-0.0053099112
-0.0046982051
-0.0042497698
-0.0039751364
-0.10477226
-0.069159325
-0.068513516
-0.092143035
-0.098630295
-0.074404067
-0.029302917
0.0015433017
-0.00033391376
0.0072595603
0.0023754244
-0.013151475
-0.013105558
-0.014001419
-0.0022225112
0.0043243584
0.0043958625
6.2342357e-05
-0.0015222895
-0.0017743958
-0.00044918247
3.8656276e-05
-0.14470436
-0.15876582
-0.11978979
-0.070675594
-0.030481924
-0.011350175
-0.001122465
0.0030886286
0.005784871
0.0065076667
0.0060857663
0.0055465438
0.0057670143
0.0057109716
0.0051252214
0.0030905044
-0.00027781762
-0.0046281274
-0.0092808377
-0.01358751
-0.017122253
-0.019576438
-0.020903508
-0.021189216
-0.02065546
-0.019608008
-0.01822239
-0.01648715
-0.014466506
-0.01256625
-0.010868641
-0.0093740754
-0.0080742798
-0.0069579888
-0.0060153044
-0.0052386122
-0.0046244164
-0.0041724861
-0.0038940714
-0.13623266
-0.095983391
-0.065223893
-0.069263824
-0.086928692
-0.092602214
-0.067863609
-0.024941912
0.0043742626
0.0035843383
0.0098785538
0.0045469941
-0.010898076
-0.010374019
-0.011155255
-0.0017391964
0.0036741926
0.0036081355
0.00019720971
-0.00096823334
-0.0011654008
-0.0002762626
-1.1418158e-05
-0.15846347
-0.13075255
-0.086850037
-0.047197101
-0.026699805
-0.011183185
-0.0040469705
0.0024013549
0.0036598031
0.0033482361
0.0037484292
0.0042013004
0.005491457
0.005911318
0.0050899472
0.0022883739
-0.0019907209
-0.0070481298
-0.012077015
-0.016482871
-0.019834032
-0.021931313
-0.022808423
-0.022665211
-0.021843417
-0.020551867
-0.018766095
-0.016556265
-0.014429714
-0.012510839
-0.01080455
-0.0093056134
-0.0080028646
-0.0068842966
-0.0059398999
-0.005161402
-0.0045444599
-0.0040892227
-0.0038073483
-0.14860604
-0.12059889
-0.08360287
-0.057678582
-0.066317359
-0.078937321
-0.084178337
-0.060047586
-0.021212244
0.0052320665
0.0061386927
0.011764503
0.005508145
-0.0085518216
-0.0071923449
-0.0085881098
-0.0010775951
0.003219606
0.0029630413
0.00042160642
-0.00054292108
-0.00083189006
-0.00016056512
3.4859393e-05
-0.13448749
-0.096296661
-0.063900186
-0.044818478
-0.026413443
-0.014610082
-0.004152504
0.0010066585
0.00039859137
0.00016421573
0.0020853119
0.0039568098
0.0062203407
0.0066582853
0.0050095144
0.0010597508
-0.0042328744
-0.00993209
-0.015225542
-0.019597263
-0.022623224
-0.024258152
-0.024649632
-0.024166502
-0.023055948
-0.021274606
-0.018889765
-0.016530432
-0.014377439
-0.012444879
-0.010732023
-0.0092291626
-0.007923984
-0.0068039818
-0.0058584627
-0.0050778059
-0.0044579994
-0.0040002451
-0.003715122
-0.12866177
-0.13090002
-0.10083789
-0.068659912
-0.048217352
-0.059436381
-0.069014835
-0.074673139
-0.051252755
-0.018328609
0.0052239896
0.0082739072
0.01206391
0.0062272781
-0.0054498369
-0.0048164379
-0.0059206065
-0.00053178999
0.0027642736
0.002430763
0.00057491129
-0.00029508222
-0.00036470127
-4.275372e-05
6.6775255e-05
-0.097838711
-0.078109799
-0.064301516
-0.046677639
-0.029434178
-0.014927594
-0.0037870126
-0.0026397517
-0.0031270521
-0.0024197146
0.0016602616
0.0051580563
0.0078469208
0.0075853286
0.0044787081
-0.00082839704
-0.007084173
-0.013295935
-0.018750064
-0.022871353
-0.025435674
-0.026532668
-0.02652749
-0.025711237
-0.024009829
-0.021478207
-0.01888335
-0.016486607
-0.014312244
-0.012369292
-0.010650579
-0.009144673
-0.0078381056
-0.0067175419
-0.0057703268
-0.0049869735
-0.004365727
-0.0039057592
-0.00361744
-0.093041832
-0.11406476
-0.10898873
-0.079575647
-0.052778376
-0.037585985
-0.049414539
-0.058309338
-0.05771017
-0.042806296
-0.01523225
0.0060578846
0.0094813567
0.012385402
0.0060888596
-0.0028551098
-0.003495951
-0.0039216645
1.9122228e-05
0.0024404183
0.0020533699
0.00072144101
-1.0146863e-05
-8.7860012e-05
6.9146027e-05
0.00010885379
-0.087856683
-0.083448325
-0.070692747
-0.050242462
-0.030502403
-0.012445923
-0.0066120847
-0.0076311398
-0.0062184928
-0.0034394321
0.0031746202
0.007821409
0.010023581
0.0080771273
0.0031429629
-0.0035212297
-0.010595066
-0.017175683
-0.02255206
-0.026232759
-0.028220018
-0.028859204
-0.028480714
-0.026962926
-0.024328683
-0.021503153
-0.018856783
-0.016426224
-0.014235602
-0.012283402
-0.010560227
-0.0090527124
-0.0077458865
-0.0066239371
-0.0056739673
-0.0048902028
-0.0042678551
-0.003805876
-0.0035144254
-0.091140687
-0.083443116
-0.094669055
-0.085288344
-0.058997726
-0.037106683
-0.026268182
-0.037338237