/*--------------------------------*- C++ -*----------------------------------*\
| =========                 |                                                 |
| \\      /  F ield         | OpenFOAM: The Open Source CFD Toolbox           |
|  \\    /   O peration     | Version:  5.0                                   |
|   \\  /    A nd           | Web:      www.OpenFOAM.org                      |
|    \\/     M anipulation  |                                                 |
\*---------------------------------------------------------------------------*/
FoamFile
{
    version     2.0;
    format      ascii;
    class       surfaceScalarField;
    location    "360";
    object      phi;
}
// * * * * * * * * * * * * * * * * * * * * * * * * * * * * * * * * * * * * * //

dimensions      [0 3 -1 0 0 0 0];

internalField   nonuniform List<scalar> 
18820
(
-0.00039706083
-1.3580703
-0.00076643248
-1.270058
-0.00037885185
-1.3576914
-0.00110792
-1.1878394
-0.00073277479
-1.2697041
-0.00036004493
-1.3573314
-0.0014209337
-1.1110072
-0.0010616724
-1.1875105
-0.00069671284
-1.2693674
-0.00034877845
-1.3569826
-0.0017049886
-1.039195
-0.0013650657
-1.1107038
-0.0010103917
-1.1871968
-0.00067451359
-1.2690417
-0.00034688688
-1.3566357
-0.0019599787
-0.97205595
-0.0016422325
-1.0389178
-0.0013017212
-1.1104125
-0.00097857521
-1.1868928
-0.00067060906
-1.268718
-0.00034750929
-1.3562882
-0.0021854476
-0.90927467
-0.0018928184
-0.97180536
-0.0015706053
-1.038649
-0.0012627608
-1.1101283
-0.00097340545
-1.18659
-0.00067302273
-1.2683925
-0.0003411862
-1.355947
-0.002380192
-0.85056072
-0.0021168096
-0.90905068
-0.0018161424
-0.97155982
-0.001528089
-1.0383836
-0.0012572194
-1.1098445
-0.00097942795
-1.1862836
-0.00066315715
-1.2680705
-0.00032505902
-1.355622
-0.0025419812
-0.79564604
-0.0023145569
-0.85036298
-0.0020378998
-0.90882893
-0.0017740592
-0.97131385
-0.0015235817
-1.0381173
-0.0012683407
-1.1095556
-0.0009691224
-1.1859776
-0.00063416415
-1.2677614
-0.00030206793
-1.3553199
-0.0026675288
-0.74428031
-0.0024871841
-0.79547341
-0.0022365511
-0.85016433
-0.0020001555
-0.90860283
-0.0017730498
-0.97106439
-0.0015414752
-1.0378441
-0.0012602905
-1.1092644
-0.00093093749
-1.1856808
-0.00059054584
-1.2674729
-0.0002786433
-1.3550413
-0.0027538512
-0.69623563
-0.002636034
-0.74413146
-0.0024153497
-0.79529461
-0.0022063546
-0.84995813
-0.0020056229
-0.90837026
-0.0018006598
-0.9708052
-0.0015380583
-1.0375664
-0.0012172817
-1.1089781
-0.00086920122
-1.1854022
-0.0005449467
-1.2672066
-0.0002598028
-1.3547815
-0.002798897
-0.65130007
-0.0027616217
-0.69611004
-0.0025817013
-0.74396511
-0.0023936183
-0.79510735
-0.0022207165
-0.84974303
-0.0020467065
-0.90812421
-0.0018047757
-0.97053848
-0.0014943605
-1.0372893
-0.001141412
-1.1087059
-0.00080284963
-1.1851443
-0.00050752261
-1.2669589
-0.00024670692
-1.3545348
-0.0028155116
-0.60925719
-0.0028830504
-0.65117864
-0.0027515542
-0.69594019
-0.0025648522
-0.74379388
-0.0024162392
-0.79491183
-0.0022786688
-0.84951107
-0.0020621492
-0.90786684
-0.0017643044
-0.97026854
-0.0014089605
-1.0370217
-0.0010563697
-1.1084523
-0.00074787948
-1.1849039
-0.00048112479
-1.2667245
-0.00023687829
-1.3542979
-0.0028110792
-0.56990647
-0.0030315921
-0.60910865
-0.0029440041
-0.65098619
-0.0027255191
-0.69577952
-0.0025875067
-0.74362261
-0.0024922695
-0.79469823
-0.0023111764
-0.84926205
-0.002029264
-0.90760188
-0.0016726592
-0.97000484
-0.0013083776
-1.0367697
-0.00098492833
-1.1082153
-0.00070872488
-1.1846763
-0.00046158338
-1.2664998
-0.00022635989
-1.3540715
-0.0027927905
-0.53309453
-0.0031969589
-0.56974111
-0.0031437231
-0.60890893
-0.0028599613
-0.65085175
-0.0027198023
-0.69564722
-0.0026787007
-0.74343618
-0.0025523922
-0.79445701
-0.0022918652
-0.84899944
-0.0019336053
-0.90734093
-0.0015592818
-0.96975394
-0.0012216665
-1.036533
-0.0009336647
-1.1079904
-0.00067953193
-1.1844584
-0.00044144049
-1.2662847
-0.00021196559
-1.3538596
-0.0027648491
-0.49866136
-0.0033991319
-0.53289235
-0.0033227454
-0.56956209
-0.0029424284
-0.60882646
-0.0027904375
-0.65078112
-0.0028254312
-0.69550049
-0.0027861077
-0.74320246
-0.0025567735
-0.7941921
-0.0021937026
-0.84873935
-0.0018089104
-0.9070913
-0.001459125
-0.96951648
-0.0011588588
-1.0363078
-0.00089500606
-1.1077749
-0.00064975858
-1.18425
-0.00041417656
-1.2660825
-0.00019254883
-1.353667
-0.0027415119
-0.46645459
-0.0036461727
-0.49841432
-0.0034929148
-0.53272219
-0.0029861714
-0.56951834
-0.0027892272
-0.60882767
-0.0029247905
-0.65068176
-0.0030152411
-0.69527136
-0.0028322923
-0.74292694
-0.0024566919
-0.79392911
-0.0020569258
-0.84849133
-0.0016971471
-0.90685328
-0.0013863336
-0.969289
-0.0011112297
-1.0360916
-0.00085525183
-1.1075694
-0.00061028382
-1.1840539
-0.00037693062
-1.2658981
-0.00016921738
-1.3534978
-0.0027107194
-0.43633074
-0.0039810442
-0.46611972
-0.0036857069
-0.49822153
-0.002969002
-0.53273935
-0.0027271734
-0.5695804
-0.0029825605
-0.6087699
-0.0032492973
-0.6504477
-0.0031311506
-0.6949725
-0.0027288437
-0.74265479
-0.0023024635
-0.79368358
-0.0019342972
-0.84825418
-0.0016171101
-0.9066225
-0.0013311769
-0.96906906
-0.001061783
-1.035885
-0.00080317332
-1.1073765
-0.00055664747
-1.1838742
-0.00033144444
-1.2657359
-0.00014467201
-1.3533531
-0.0027166678
-0.40814907
-0.0044145414
-0.43589725
-0.0039222144
-0.46588321
-0.0029004528
-0.49829008
-0.0025634629
-0.53290307
-0.0030068027
-0.56955616
-0.0034992007
-0.60852
-0.003474893
-0.65010396
-0.0030202881
-0.69468106
-0.0025436474
-0.74241361
-0.0021669419
-0.79345093
-0.0018506534
-0.84802064
-0.0015573063
-0.90639637
-0.0012731557
-0.96885768
-0.00099698228
-1.0356912
-0.00073364193
-1.1071995
-0.00049010319
-1.1837156
-0.00028301856
-1.2655975
-0.00012195229
-1.3532312
-0.0026894295
-0.38177545
-0.005018909
-0.4075447
-0.0042430612
-0.4355764
-0.0027361806
-0.46604749
-0.0022507793
-0.49860276
-0.0029997264
-0.53291014
-0.003772691
-0.56928266
-0.003883763
-0.60811113
-0.0033434671
-0.64978078
-0.0027789527
-0.69444575
-0.002388975
-0.74219157
-0.0020840968
-0.79321749
-0.0017909482
-0.84778699
-0.0014931355
-0.90617639
-0.0011963129
-0.96865835
-0.00091117823
-1.0355137
-0.00064745944
-1.1070421
-0.00041735109
-1.1835812
-0.00023781385
-1.2654817
-0.00010320869
-1.353128
-0.0027303082
-0.3570464
-0.0057445507
-0.38104981
-0.0046451494
-0.40714261
-0.0024718033
-0.43584078
-0.0017336714
-0.46656459
-0.0029136436
-0.49868884
-0.0041017127
-0.53258112
-0.0043796583
-0.56878677
-0.0037146768
-0.60773992
-0.0030041909
-0.64955554
-0.0025902902
-0.69424444
-0.0023116166
-0.74196405
-0.0020320919
-0.79297634
-0.0017251232
-0.84755501
-0.001405518
-0.90596719
-0.0010940192
-0.96847551
-0.00080541457
-1.0353557
-0.0005506931
-1.1069088
-0.00034822798
-1.1834708
-0.00020007173
-1.2653848
-8.9159626e-05
-1.3530388
-0.0026928822
-0.33386019
-0.0066900293
-0.35610092
-0.0052057997
-0.38048916
-0.0020492027
-0.40756521
-0.00095705012
-0.4366174
-0.0027294892
-0.46674875
-0.0045214532
-0.4982691
-0.0049921148
-0.53196866
-0.0041352702
-0.56836618
-0.0032177787
-0.60752633
-0.0027556123
-0.64939022
-0.00252218
-0.69403387
-0.0022785583
-0.74171759
-0.0019726355
-0.79272883
-0.0016292294
-0.8473313
-0.0012862429
-0.90577496
-0.00096730311
-0.96831362
-0.00068502282
-1.0352214
-0.00045609435
-1.1068009
-0.00029009468
-1.1833808
-0.00017113157
-1.2653028
-7.9317509e-05
-1.3529595
-0.0028073477
-0.31198327
-0.0076861481
-0.33286407
-0.0058955262
-0.3554112
-0.0015079952
-0.38103036
0.00014551299
-0.40866778
-0.0023978286
-0.43694906
-0.0050771104
-0.46619309
-0.0057918154
-0.4974694
-0.0046292927
-0.53147464
-0.0033915229
-0.56819243
-0.002857381
-0.60742456
-0.0026976613
-0.64921474
-0.0025241637
-0.69378827
-0.0022392608
-0.74145096
-0.0018733327
-0.79248473
-0.0014923957
-0.84712514
-0.0011364503
-0.90560582
-0.00082185416
-0.96817679
-0.00056390154
-1.0351136
-0.00037536394
-1.1067157
-0.0002453517
-1.1833066
-0.00015014374
-1.265232
-7.2589173e-05
-1.3528869
-0.0031263017
-0.29130238
-0.009044885
-0.31062453
-0.0067994192
-0.33196017
-0.00070826522
-0.35621093
0.0016354555
-0.38252031
-0.001902788
-0.40916282
-0.0058070821
-0.43621909
-0.0068524857
-0.46513242
-0.005226408
-0.49687229
-0.0035072718
-0.53135889
-0.0028604226
-0.56818939
-0.0028020115
-0.60732021
-0.0027574056
-0.64898149
-0.0025292213
-0.69349831
-0.0021458863
-0.74117841
-0.0017183113
-0.79225881
-0.00131622
-0.84694537
-0.00096315367
-0.90546452
-0.00067249274
-0.9680682
-0.00045870612
-1.0350303
-0.00031264676
-1.1066484
-0.00021247547
-1.1832442
-0.00013537464
-1.2651692
-6.7816362e-05
-1.3528191
-0.0034097997
-0.27249763
-0.010619776
-0.28972749
-0.0078311688
-0.30959278
0.00016583189
-0.33283427
0.0036283563
-0.35820383
-0.0011521391
-0.38327095
-0.0067763418
-0.40819356
-0.0082680136
-0.43480356
-0.0059681348
-0.46439069
-0.0035369593
-0.4968426
-0.0027017886
-0.53151753
-0.0028184191
-0.56817298
-0.0029612662
-0.60711635
-0.0028479823
-0.64866273
-0.0024593688
-0.69318482
-0.0019722093
-0.74092451
-0.0015102801
-0.79206475
-0.0011106307
-0.8467979
-0.00078320204
-0.90535381
-0.00054109787
-0.96798581
-0.00037550197
-1.0349674
-0.0002661232
-1.1065947
-0.0001884571
-1.1831911
-0.00012506988
-1.265112
-6.4036196e-05
-1.352755
-0.0036597727
-0.25459898
-0.012402268
-0.27071514
-0.0089001519
-0.28865851
0.0015583169
-0.31098527
0.0061013418
-0.33530726
-0.00019589806
-0.35916007
-0.0080320257
-0.38201527
-0.010128151
-0.40633342
-0.006907013
-0.43386468
-0.0034565393
-0.46447111
-0.0023173969
-0.49722699
-0.0027134821
-0.53162246
-0.003138097
-0.56799615
-0.0032075678
-0.60675677
-0.0028323794
-0.64828972
-0.0022668394
-0.69289019
-0.0017231748
-0.74071162
-0.0012650812
-0.7919103
-0.00089670795
-0.84668439
-0.00062375863
-0.90527115
-0.00043579176
-0.96792552
-0.00031243715
-1.0349211
-0.00023157526
-1.1065516
-0.00017074572
-1.1831455
-0.00011750372
-1.2650585
-6.0502074e-05
-1.3526945
-0.0046301757
-0.23619344
-0.014141261
-0.25285998
-0.010412624
-0.26920267
0.0032442644
-0.29034446
0.0091304762
-0.3140144
0.001146054
-0.33664921
-0.0097047134
-0.35748738
-0.012558206
-0.37958522
-0.0080933907
-0.40514704
-0.0032341907
-0.43408703
-0.0016302341
-0.46515828
-0.0024080099
-0.49753246
-0.0033059467
-0.53145461
-0.0036237132
-0.56758001
-0.0032963793
-0.60629277
-0.0026211634
-0.6479354
-0.0019608005
-0.69265257
-0.0014260619
-0.74055064
-0.0010120499
-0.79179496
-0.00070738251
-0.84660077
-0.00049504249
-0.9052119
-0.00035420363
-0.96788375
-0.00026480291
-1.0348879
-0.00020504454
-1.1065173
-0.00015750095
-1.1831055
-0.00011079444
-1.2650082
-5.6650062e-05
-1.3526379
-0.0060958006
-0.21769806
-0.016745938
-0.23358877
-0.012174142
-0.25109847
0.0053028737
-0.27126127
0.012728771
-0.29394275
0.0026268577
-0.3154952
-0.011786673
-0.33456725
-0.015650115
-0.35439547
-0.0096073175
-0.37807129
-0.0028354554
-0.40554578
-0.00054037307
-0.43517689
-0.0018150075
-0.46575128
-0.003443512
-0.4973949
-0.0041300876
-0.53094824
-0.0038802524
-0.56699613
-0.0030645049
-0.60584943
-0.0022314399
-0.64766476
-0.0015912611
-0.69248737
-0.0011256163
-0.74043707
-0.00079087374
-0.79171147
-0.00055460919
-0.8465412
-0.00039363382
-0.90517247
-0.00029089269
-0.96785766
-0.00022757317
-1.0348653
-0.00018379953
-1.106491
-0.00014643746
-1.1830698
-0.00010323281
-1.2649616
-5.2201491e-05
-1.3525857
-0.0076827763
-0.20074939
-0.019528282
-0.21491572
-0.013529097
-0.23223381
0.0074196462
-0.25321524
0.017000769
-0.27553327
0.0043549802
-0.29567087
-0.014440632
-0.31284125
-0.019556315
-0.33066105
-0.011486946
-0.35251584
-0.0022151222
-0.37869162
0.0010590672
-0.40714522
-0.00083265755
-0.43615924
-0.0035144162
-0.46568037
-0.0047747197
-0.49675027
-0.0046240866
-0.5302044
-0.0036256186
-0.56643502
-0.0025462335
-0.60553463
-0.0017566936
-0.64749932
-0.0012297327
-0.69238325
-0.00087000843
-0.74035793
-0.00061450235
-0.79165157
-0.00043318571
-0.84650165
-0.00031286149
-0.9051505
-0.00024005703
-0.96784518
-0.00019650191
-1.0348526
-0.00016550113
-1.1064719
-0.00013479765
-1.1830383
-9.4138977e-05
-1.2649197
-4.736012e-05
-1.3525383
-0.0093955519
-0.18484608
-0.022179067
-0.19809861
-0.013994454
-0.21445036
0.010926952
-0.23574112
0.021756183
-0.25797065
0.0065132327
-0.27769152
-0.017824985
-0.29228652
-0.024306375
-0.30809119
-0.013846376
-0.32830162
-0.0013079419
-0.35342302
0.0033103877
-0.38094294
0.00065253534
-0.40863041
-0.0034766325
-0.43619702
-0.0056083234
-0.46484677
-0.0056108045
-0.49576355
-0.0043365573
-0.52949346
-0.0029201833
-0.56606107
-0.0019133391
-0.60537799
-0.0013112957
-0.64741776
-0.00093588976
-0.69231737
-0.00067242207
-0.74030001
-0.00047478955
-0.79160997
-0.00033435942
-0.84648015
-0.00024609546
-0.90514446
-0.00019663721
-0.96784504
-0.00016882721
-1.0348493
-0.00014788836
-1.1064588
-0.00012116139
-1.1830112
-8.43097e-05
-1.2648827
-4.2685366e-05
-1.3524956
-0.013015874
-0.19986644
-0.024680837
-0.18234431
-0.014012007
-0.19808105
0.01569954
-0.21922295
0.027152129
-0.24113706
0.0095812454
-0.26103867
-0.021887152
-0.27362936
-0.029924723
-0.28666817
-0.016609037
-0.30532852
-3.445641e-05
-0.32957511
0.0063495585
-0.3564622
0.0027760866
-0.38306649
-0.0032851691
-0.40882187
-0.0066891515
-0.43511619
-0.006938664
-0.46351891
-0.0052670577
-0.49483305
-0.0033629362
-0.52905071
-0.0020499507
-0.56592446
-0.0013490019
-0.60534028
-0.00097298999
-0.64738066
-0.00072217732
-0.69226761
-0.00051945023
-0.74025535
-0.0003594539
-0.79158488
-0.0002502642
-0.84647598
-0.00018788325
-0.90515321
-0.000157673
-0.9678562
-0.00014267284
-1.0348545
-0.00012892249
-1.1064511
-0.000106037
-1.1829895
-7.504636e-05
-1.2648504
-3.8704186e-05
-1.3524569
-0.016209487
-0.19643171
-0.029018932
-0.19552835
-0.013507175
-0.18284914
0.020883221
-0.20326474
0.032757221
-0.22482804
0.012610687
-0.2441665
-0.025640315
-0.2572855
-0.036612676
-0.26694141
-0.019799672
-0.28347754
0.0017587026
-0.30712168
0.010345092
-0.33357064
0.0056675177
-0.35935363
-0.0028821079
-0.38346956
-0.0080840866
-0.40742694
-0.0087308675
-0.43332399
-0.006506152
-0.46227982
-0.0038906111
-0.49430537
-0.002150127
-0.52895053
-0.0013110488
-0.56596241
-0.00095676941
-0.6053565
-0.00075216453
-0.64735067
-0.00056623245
-0.69222083
-0.00039274688
-0.74022206
-0.00025848871
-0.79157665
-0.00017520942
-0.84648865
-0.00013484918
-0.90517604
-0.00012020366
-0.96787867
-0.00011561978
-1.0348678
-0.00010830462
-1.1064488
-9.1745927e-05
-1.1829728
-6.7206732e-05
-1.2648219
-3.5767044e-05
-1.3524212
-0.018950281
-0.19266036
-0.032898187
-0.19255246
-0.014671127
-0.1943644
0.026295885
-0.1882618
0.038048314
-0.20855583
0.014210343
-0.2264277
-0.029976745
-0.23983007
-0.04476369
-0.24913449
-0.023760801
-0.26298028
0.0041476904
-0.28586653
0.015439553
-0.31221614
0.0094856297
-0.33738875
-0.0022232238
-0.36001251
-0.0098724855
-0.38168116
-0.01112575
-0.40503206
-0.0081648948
-0.43166525
-0.0045335428
-0.46163688
-0.0021822822
-0.49427322
-0.0011561726
-0.52910541
-0.00085401773
-0.56606516
-0.00074350222
-0.60536516
-0.00061203531
-0.64730487
-0.00043992724
-0.69217365
-0.00027887931
-0.74020167
-0.00016551957
-0.79158634
-0.00010488185
-0.84651862
-8.2861325e-05
-0.90521338
-8.2149184e-05
-0.96791214
-8.8024052e-05
-1.0348881
-8.853694e-05
-1.106452
-7.9691069e-05
-1.1829603
-6.1418237e-05
-1.2647962
-3.4080556e-05
-1.3523871
-0.021224126
-0.18881324
-0.036271821
-0.18928673
-0.01517265
-0.19205093
0.030281993
-0.19835051
0.042840522
-0.19305401
0.014675894
-0.20902138
-0.036449407
-0.21995504
-0.053916413
-0.23067735
-0.029390245
-0.24350504
0.0070627162
-0.2658953
0.021777169
-0.29220414
0.014321536
-0.31705205
-0.0012311083
-0.33838087
-0.012147498
-0.3577375
-0.014297184
-0.37850972
-0.010368688
-0.40282826
-0.0053293642
-0.43086943
-0.0021075264
-0.46171164
-0.000826593
-0.49460279
-0.00061276568
-0.52934666
-0.00067612074
-0.56613254
-0.0006530477
-0.60532415
-0.00050809376
-0.6472367
-0.00032244517
-0.69213008
-0.00016868381
-0.7401985
-7.480477e-05
-0.79161642
-3.4479601e-05
-0.846567
-3.058665e-05
-0.90526494
-4.5024358e-05
-0.96795514
-6.2004022e-05
-1.0349146
-7.168945e-05
-1.10646
-7.0608049e-05
-1.1829511
-5.8113914e-05
-1.2647722
-3.3685883e-05
-1.3523534
-0.02299727
-0.18497192
-0.03911826
-0.1859668
-0.015106325
-0.18935305
0.035038394
-0.19680733
0.046500056
-0.20201004
0.014499939
-0.19287806
-0.043913802
-0.20155699
-0.062866499
-0.21100495
-0.035464857
-0.22460274
0.010341075
-0.2467834
0.029372429
-0.27349056
0.020278791
-0.2981614
9.9887151e-05
-0.31838305
-0.015015108
-0.33551326
-0.01842708
-0.3536076
-0.013274052
-0.37560436
-0.0063220831
-0.40183554
-0.0018786569
-0.4310983
-0.00024510644
-0.46229313
-0.00016631725
-0.49504924
-0.00050888549
-0.5295139
-0.00067906525
-0.56610652
-0.00060512871
-0.60522711
-0.00040317342
-0.64715597
-0.00019803526
-0.69210073
-5.4495809e-05
-0.74021881
1.9166349e-05
-0.79167006
3.6918423e-05
-0.84663451
1.9612133e-05
-0.90532958
-1.0772689e-05
-0.96800637
-3.977253e-05
-1.0349466
-5.916966e-05
-1.1064715
-6.519296e-05
-1.1829441
-5.7106018e-05
-1.2647488
-3.4520427e-05
-1.3523189
-0.024226134
-0.1813562
-0.041367721
-0.18272246
-0.014617722
-0.1864554
0.040285253
-0.19459991
0.050755754
-0.20106303
0.014274273
-0.20178437
-0.051620436
-0.18517142
-0.071109689
-0.19331379
-0.039851969
-0.20661784
0.014429373
-0.22869104
0.038449284
-0.25586026
0.027349178
-0.28056095
0.0017937731
-0.29985528
-0.018625326
-0.31477283
-0.023735709
-0.33020463
-0.01703523
-0.34984642
-0.007557439
-0.374369
-0.0014444689
-0.40226973
0.00068354358
-0.43202695
0.00057136965
-0.46303081
-0.00018352262
-0.49537461
-0.00068017741
-0.52951279
-0.00072928075
-0.56598237
-0.00053811018
-0.60509218
-0.00027158678
-0.64708242
-5.7324898e-05
-0.6920979
6.9398118e-05
-0.74026904
0.00011572144
-0.79174887
0.00010547212
-0.84672037
6.5996587e-05
-0.90540635
1.8204587e-05
-0.96806435
-2.3387922e-05
-1.0349823
-5.1727531e-05
-1.1064849
-6.3539325e-05
-1.1829376
-5.8567996e-05
-1.2647247
-3.6478202e-05
-1.3522824
-0.024900039
-0.17817555
-0.04297525
-0.17974868
-0.013777933
-0.18356225
0.045738638
-0.19190879
0.055352223
-0.19919638
0.014503054
-0.20129181
-0.059182627
-0.19422218
-0.078849667
-0.17743145
-0.043120125
-0.19004564
0.019923754
-0.21211222
0.049232336
-0.23947409
0.035860791
-0.26437187
0.0038396515
-0.28260683
-0.023207159
-0.29527345
-0.030435386
-0.30807315
-0.021841754
-0.3253981
-0.009080867
-0.34832299
-0.00073202436
-0.37508145
0.0020718529
-0.40365804
0.0017040658
-0.43315964
0.00036800038
-0.46358234
-0.00062821793
-0.49542657
-0.00090373992
-0.52933833
-0.00074575754
-0.56577472
-0.00041314533
-0.60495062
-0.00010190369
-0.64703784
0.00010378963
-0.69213229
0.00019887578
-0.7403522
0.00020862258
-0.79185202
0.0001676774
-0.84682205
0.00010494303
-0.90549309
4.0041313e-05
-0.96812777
-1.3626797e-05
-1.0350204
-4.9486782e-05
-1.106499
-6.5993617e-05
-1.1829302
-6.2408636e-05
-1.2646988
-3.9357535e-05
-1.352243
-0.025061944
-0.17564083
-0.043906317
-0.17724448
-0.012716115
-0.18081049
0.051103203
-0.18892681
0.060176504
-0.19673307
0.015051673
-0.199745
-0.066429061
-0.19404538
-0.088000041
-0.18507181
-0.045571636
-0.17497994
0.026541409
-0.19666329
0.061374921
-0.2242548
0.046190727
-0.24980403
0.0067055562
-0.26723778
-0.028882029
-0.27693196
-0.038747926
-0.28696091
-0.027807452
-0.30210745
-0.010942309
-0.32353666
0.00034066803
-0.34939569
0.0040473483
-0.37705694
0.0033561349
-0.40531011
0.0012302951
-0.43402194
-0.00048872026
-0.46372183
-0.0011499638
-0.49518034
-0.0010558969
-0.52902819
-0.0006556134
-0.56553226
-0.00021292003
-0.6048396
0.00010628091
-0.64704034
0.00027758319
-0.692211
0.00032551355
-0.74046909
0.00029339768
-0.79197774
0.00022025688
-0.84693736
0.00013403399
-0.90558708
5.3184532e-05
-0.96819459
-1.0755845e-05
-1.0350592
-5.2561872e-05
-1.1065124
-7.196899e-05
-1.1829206
-6.8099529e-05
-1.26467
-4.2905187e-05
-1.3522001
-0.024662166
-0.17385123
-0.0442167
-0.17533045
-0.011462928
-0.17849767
0.056067154
-0.18577444
0.064935217
-0.19368552
0.015984225
-0.19766562
-0.073265843
-0.19290822
-0.096813996
-0.18523143
-0.052505882
-0.17813756
0.034062547
-0.18250107
0.074165657
-0.20945403
0.057291459
-0.23535554
0.010903931
-0.2540024
-0.035274751
-0.26084505
-0.048742223
-0.26693766
-0.035023246
-0.27974511
-0.013134484
-0.29991528
0.0018810978
-0.32507709
0.0067493799
-0.35209772
0.0056650178
-0.37936582
0.0025077084
-0.40658752
-0.00021805967
-0.4342926
-0.0014762997
-0.4633955
-0.0015243159
-0.49471192
-0.0010307323
-0.52865307
-0.00042676069
-0.56531842
5.6894328e-05
-0.60479022
0.00034094734
-0.6471037
0.00045119876
-0.69233669
0.00044182451
-0.74061752
0.00036529029
-0.79212277
0.00026000928
-0.84706334
0.00015194368
-0.90568584
5.7345975e-05
-0.96826269
-1.4449927e-05
-1.0350973
-6.0563906e-05
-1.1065238
-8.0714396e-05
-1.182908
-7.5211001e-05
-1.2646377
-4.6882525e-05
-1.3521533
-0.17298422
-0.023769118
-0.043903278
-0.17416465
-0.010076515
-0.17671686
0.060426216
-0.18285673
0.069395358
-0.19023459
0.017115209
-0.19481651
-0.079566244
-0.19136522
-0.10503367
-0.18468854
-0.059153976
-0.17858333
0.036418086
-0.1804931
0.087097867
-0.19543328
0.06819659
-0.22035916
0.0160679
-0.2405195
-0.042133953
-0.2471432
-0.060465521
-0.24912175
-0.043595302
-0.2583656
-0.015603222
-0.27727638
0.00401892
-0.3020531
0.01033591
-0.32866362
0.0087803951
-0.35521309
0.0043170519
-0.38117517
0.00023326191
-0.40703884
-0.0018931778
-0.43387572
-0.0022079278
-0.46271188
-0.0016024744
-0.49414018
-0.00077759319
-0.52830224
-7.3723355e-05
-0.5651878
0.0003742991
-0.60482357
0.00058004285
-0.64723254
0.00061173283
-0.6925066
0.00054080145
-0.74079303
0.00042012359
-0.79228288
0.00028515736
-0.84719655
0.00015833089
-0.90578682
5.2979062e-05
-0.96833012
-2.4367076e-05
-1.0351335
-7.255952e-05
-1.106532
-9.1616505e-05
-1.1828916
-8.3171306e-05
-1.2646014
-5.0989614e-05
-1.3521023
-0.17374582
-0.043141677
-0.17324958
-0.022400351
-0.0088650881
-0.17537608
0.06405323
-0.18034388
0.073270384
-0.18673176
0.018410473
-0.19152985
-0.085203961
-0.18917879
-0.11260408
-0.18379482
-0.065414012
-0.1784285
0.039176654
-0.1813419
0.097420895
-0.19081613
0.078423054
-0.20565975
0.020564665
-0.22485593
-0.049092123
-0.23356133
-0.074285939
-0.23332278
-0.054170634
-0.23854642
-0.0183478
-0.25562102
0.0069110159
-0.28016847
0.014961053
-0.30667824
0.012856349
-0.33273957
0.0067916334
-0.35768768
0.0009372413
-0.38187915
-0.0024163376
-0.40651568
-0.0031720032
-0.43291164
-0.002454713
-0.46185965
-0.0013157167
-0.49360206
-0.00032027133
-0.52805569
0.00036161587
-0.56517512
0.00070535069
-0.60494888
0.00080231256
-0.64742312
0.0007484138
-0.69271421
0.00061674847
-0.74098965
0.00045566532
-0.79245339
0.00029531622
-0.84733354
0.00015370402
-0.90588755
4.0809517e-05
-0.96839529
-3.9709433e-05
-1.0351663
-8.7523642e-05
-1.1065361
-0.00010387186
-1.1828709
-9.1432293e-05
-1.264561
-5.5043994e-05
-1.3520472
-0.17474322
-0.0078676815
-0.17452858
-0.041862681
-0.1747991
-0.020561174
0.066553848
-0.1778767
0.076386576
-0.18346007
0.019706959
-0.18802824
-0.0900073
-0.18672651
-0.11920407
-0.1825788
-0.071231803
-0.17797702
0.042255677
-0.18150753
0.10836512
-0.19228613
0.090078796
-0.20247187
0.022974211
-0.20806929
-0.057341066
-0.21660698
-0.090326242
-0.21752103
-0.06718264
-0.22031077
-0.022007132
-0.23488709
0.010762291
-0.2594723
0.020789208
-0.28599663
0.018032777
-0.31185467
0.010076887
-0.33602483
0.0019700455
-0.35872048
-0.0030558767
-0.38123961
-0.0044974231
-0.40519026
-0.0036855371
-0.43168082
-0.0021247561
-0.46105061
-0.00071332621
-0.493209
0.00027563535
-0.52796971
0.00082162187
-0.56529139
0.0010150449
-0.60516161
0.00099152705
-0.64766624
0.000853549
-0.69295101
0.00066690868
-0.74120089
0.00047162044
-0.7926297
0.00029123655
-0.84747107
0.00013910766
-0.90598585
2.1777033e-05
-0.96845678
-5.9183582e-05
-1.0351947
-0.00010451171
-1.1065354
-0.00011672629
-1.1828456
-9.9729432e-05
-1.2645163
-5.8883366e-05
-1.3519883
-0.17625362
0.068064244
-0.17537143
-0.0070248252
-0.17654541
-0.040116368
-0.17708553
-0.018320856
0.078690426
-0.18018055
0.020892155
-0.18464527
-0.093837475
-0.18419807
-0.12466288
-0.18126771
-0.076392091
-0.17741851
0.045452099
-0.18117345
0.11979021
-0.19293261
0.10229455
-0.20450188
0.030784151
-0.21028181
-0.067259975
-0.19815038
-0.10675984
-0.20017339
-0.081873758
-0.20282991
-0.026943617
-0.21537429
0.015545185
-0.23966999
0.027967643
-0.26665073
0.024449445
-0.29241329
0.014305042
-0.31608282
0.0034355126
-0.3374903
-0.0038309212
-0.35794544
-0.0062793964
-0.37945763
-0.0054091398
-0.40346666
-0.003302298
-0.43050328
-0.0013075639
-0.46045637
9.6093572e-05
-0.49302946
0.0009200615
-0.52806815
0.0012513402
-0.56552768
0.0012760978
-0.60544618
0.0011363297
-0.64794902
0.00092362026
-0.69320772
0.00069122182
-0.7414205
0.00046916101
-0.79280762
0.00027438512
-0.84760635
0.00011591102
-0.90607998
-2.6570419e-06
-0.96851331
-8.1506776e-05
-1.0352177
-0.00012255236
-1.1065296
-0.00012969
-1.1828157
-0.000107601
-1.2644676
-6.2345762e-05
-1.351926
-0.17769199
0.080128795
-0.17570333
0.068396142
-0.17710131
-0.0064689299
-0.17934582
-0.037856071
-0.17982842
-0.015864067
0.022157574
-0.18144596
-0.09655714
-0.1819256
-0.12880926
-0.18005169
-0.080680338
-0.17697946
0.048564217
-0.18053063
0.13124306
-0.19262629
0.11503778
-0.20567584
0.039511051
-0.21322878
-0.070939594
-0.20660219
-0.12162918
-0.18328104
-0.095644417
-0.18640273
-0.032474348
-0.19729918
0.021174113
-0.22100322
0.036699698
-0.24840204
0.03217409
-0.27437538
0.019630127
-0.29773838
0.0054317902
-0.3180791
-0.0047338756
-0.33658734
-0.0086323051
-0.35559253
-0.0077729778
-0.3770938
-0.0049588962
-0.40181006
-0.0021750494
-0.42963579
-0.00019067466
-0.4601696
0.00099191085
-0.49310131
0.0015199792
-0.52833679
0.001611758
-0.56586334
0.0014738324
-0.60578368
0.0012325363
-0.64825793
0.00095909352
-0.69347559
0.00069154306
-0.74164288
0.00045033843
-0.79298357
0.00024661397
-0.84773705
8.5727036e-05
-0.90616836
-3.1080781e-05
-0.96856373
-0.00010544791
-1.0352348
-0.00014084952
-1.1065184
-0.00014214682
-1.1827811
-0.00011481076
-1.2644151
-6.539919e-05
-1.3518606
-0.17880749
0.023273071
-0.17606646
0.080491921
-0.17641473
0.067709565
-0.1797155
-0.0060992485
-0.18247204
-0.035212446
-0.18320596
-0.013270861
-0.097850008
-0.1801531
-0.13160603
-0.17912883
-0.08401883
-0.17671319
0.051553873
-0.17996912
0.14224459
-0.19153216
0.12776486
-0.20535338
0.048051149
-0.21421594
-0.073702317
-0.21046606
-0.13441661
-0.19381476
-0.10746042
-0.17146504
-0.03785545
-0.18102163
0.027326388
-0.20345146
0.04703778
-0.2313413
0.041333007
-0.25756096
0.026134359
-0.28087961
0.0080975583
-0.30040415
-0.0057940434
-0.31701893
-0.011689695
-0.33352995
-0.010938857
-0.35242665
-0.0072329608
-0.37481973
-0.0033956972
-0.40058942
-0.00061559755
-0.42921087
0.0010404077
-0.4602181
0.0018322292
-0.49341356
0.0020159714
-0.528741
0.0018809627
-0.56627047
0.0016038221
-0.60615497
0.0012818841
-0.64858073
0.00096302826
-0.69374708
0.00067082116
-0.74186336
0.00041764198
-0.7931546
0.00020999284
-0.84786132
5.0376412e-05
-0.90624982
-6.1880281e-05
-0.9686073
-0.00012992253
-1.0352457
-0.00015869569
-1.1065019
-0.00015371795
-1.1827422
-0.00012127436
-1.2643593
-6.7966513e-05
-1.3517926
-0.17910467
-0.097552826
-0.17709623
0.024302845
-0.17608698
0.080164174
-0.17790231
0.065896369
-0.18277524
-0.0057960532
-0.18614502
-0.032273385
-0.1869603
-0.010706465
-0.13316201
-0.17859712
-0.086352404
-0.17679525
0.05425448
-0.1794138
0.15229627
-0.19002079
0.14000244
-0.20376973
0.056983723
-0.21428595
-0.076532056
-0.2113862
-0.14737355
-0.19750912
-0.12402641
-0.17724877
-0.042900046
-0.16642044
0.033656513
-0.18735175
0.058880857
-0.21529453
0.051940932
-0.24194922
0.0339452
-0.2653718
0.011529033
-0.28431109
-0.0069635024
-0.29923469
-0.015601452
-0.31310718
-0.015125054
-0.32934376
-0.010272136
-0.34938747
-0.0050581246
-0.3731573
-0.0012140457
-0.39999097
0.0010792381
-0.4292497
0.0022049198
-0.46059079
0.0025135635
-0.49391115
0.0023778088
-0.52923784
0.0020521244
-0.56671877
0.0016688145
-0.6065419
0.001289261
-0.64890696
0.00093981158
-0.69401607
0.00063250615
-0.74207823
0.00037376277
-0.79331837
0.00016672475
-0.84797766
1.1729731e-05
-0.90632343
-9.3609052e-05
-0.96864361
-0.00015405347
-1.0352503
-0.00017548139
-1.1064801
-0.00016421267
-1.1826993
-0.00012676244
-1.2643005
-7.005352e-05
-1.3517226
-0.17909504
-0.13317163
-0.17922596
-0.095423094
-0.17663177
0.024847638
-0.17665072
0.078912587
-0.18001146
0.063132593
-0.18627073
-0.005670347
-0.190022
-0.029211691
-0.19081501
-0.0083668366
-0.087398479
-0.17755105
0.056560042
-0.17910082
0.16102299
-0.18814052
0.15112228
-0.20114064
0.065621607
-0.21240762
-0.078829044
-0.21198896
-0.15954041
-0.19921934
-0.1403342
-0.18120132
-0.058880648
-0.16126817
0.040005802
-0.17276973
0.071660817
-0.20013171
0.064025964
-0.22737956
0.043005095
-0.25100912
0.015851034
-0.2696938
-0.0082691946
-0.28300539
-0.020547878
-0.29428826
-0.020535863
-0.30769637
-0.014261586
-0.3253543
-0.0072544968
-0.3471911
-0.0020164721
-0.37235488
0.0011191248
-0.40003085
0.0026695112
-0.42971429
0.0031385542
-0.46121578
0.002993961
-0.4945273
0.0025984122
-0.52978413
0.0021326704
-0.56718263
0.0016774547
-0.60693009
0.0012615213
-0.64922867
0.0008943953
-0.69427796
0.00058019557
-0.74228466
0.00032144573
-0.79347309
0.0001190309
-0.84808497
-2.8468215e-05
-0.90638857
-0.00012519219
-0.96867247
-0.00017709891
-1.0352487
-0.00019093647
-1.1064534
-0.000173348
-1.1826527
-0.00013136343
-1.2642392
-7.1675258e-05
-1.3516509
-0.17957193
-0.086921595
-0.18107025
-0.13132734
-0.17994651
-0.092108357
-0.17712377
0.025320685
-0.17781593
0.076717053
-0.18258216
0.059444025
-0.18990721
-0.0057851319
-0.19379851
-0.026228185
-0.19462689
-0.0064435645
0.058828243
-0.17981925
0.16810813
-0.18618595
0.16063401
-0.19765224
0.073781281
-0.20930031
-0.080854247
-0.21038241
-0.17145905
-0.20007032
-0.15582266
-0.18373088
-0.074814418
-0.16526755
0.034919538
-0.1561819
0.085496984
-0.1866059
0.07740134
-0.21350709
0.053350466
-0.23772493
0.020989589
-0.25614767