/*--------------------------------*- C++ -*----------------------------------*\
| =========                 |                                                 |
| \\      /  F ield         | OpenFOAM: The Open Source CFD Toolbox           |
|  \\    /   O peration     | Version:  5.0                                   |
|   \\  /    A nd           | Web:      www.OpenFOAM.org                      |
|    \\/     M anipulation  |                                                 |
\*---------------------------------------------------------------------------*/
FoamFile
{
    version     2.0;
    format      ascii;
    class       surfaceScalarField;
    location    "360";
    object      phi_0;
}
// * * * * * * * * * * * * * * * * * * * * * * * * * * * * * * * * * * * * * //

dimensions      [0 3 -1 0 0 0 0];

internalField   nonuniform List<scalar> 
18820
(
-0.00039709432
-1.3580838
-0.00076647245
-1.2700705
-0.0003789982
-1.3577048
-0.0011079475
-1.1878509
-0.00073304135
-1.2697165
-0.0003599908
-1.3573448
-0.0014209356
-1.1110177
-0.0010620305
-1.1875219
-0.00069663308
-1.2693798
-0.00034830761
-1.3569965
-0.0017049617
-1.0392044
-0.0013654637
-1.1107142
-0.0010102991
-1.1872082
-0.00067364372
-1.2690545
-0.00034614068
-1.3566503
-0.0019599293
-0.97206436
-0.0016426112
-1.0389273
-0.0013015974
-1.1104229
-0.00097735888
-1.1869045
-0.00066917321
-1.2687315
-0.00034677189
-1.3563036
-0.0021853765
-0.90928211
-0.0018931367
-0.97181383
-0.0015704067
-1.0386585
-0.001261239
-1.1101391
-0.00097132768
-1.1866024
-0.00067154919
-1.2684067
-0.00034071997
-1.3559628
-0.0023800745
-0.85056723
-0.0021170268
-0.90905822
-0.0018158281
-0.97156841
-0.0015262781
-1.0383934
-0.0012545657
-1.1098558
-0.00097721807
-1.1862967
-0.00066218261
-1.2680852
-0.00032488552
-1.3556379
-0.0025417226
-0.79565163
-0.0023146
-0.85036965
-0.0020374343
-0.90883662
-0.0017719491
-0.97132274
-0.0015204157
-1.0381276
-0.001265428
-1.1095676
-0.00096759502
-1.1859913
-0.00063378076
-1.2677763
-0.00030198624
-1.355336
-0.0026668891
-0.74428502
-0.0024868794
-0.79547935
-0.0022358968
-0.85017119
-0.0019977276
-0.90861084
-0.0017693998
-0.97107376
-0.0015379077
-1.0378551
-0.0012581768
-1.109277
-0.00093030965
-1.1856947
-0.0005903835
-1.2674879
-0.00027840746
-1.3550576
-0.0027523111
-0.69623948
-0.0026350006
-0.7441369
-0.0024144588
-0.79530079
-0.0022036171
-0.8499653
-0.0020014986
-0.90837874
-0.0017964614
-0.9708152
-0.0015353464
-1.0375779
-0.0012163299
-1.108991
-0.00086896222
-1.1854162
-0.00054451764
-1.2672218
-0.00025927411
-1.3547983
-0.0027956913
-0.65130334
-0.0027590469
-0.69611543
-0.0025805064
-0.74397085
-0.0023906908
-0.79511372
-0.0022161405
-0.84975066
-0.0020418769
-0.90813332
-0.0018014639
-0.97054908
-0.0014930224
-1.0373012
-0.0011410577
-1.1087189
-0.00080224402
-1.1851584
-0.00050653743
-1.2669746
-0.00024592098
-1.3545524
-0.0028094193
-0.60926083
-0.0028776542
-0.65118473
-0.0027500393
-0.6959459
-0.0025620662
-0.74379947
-0.0024113028
-0.79491855
-0.0022731835
-0.84951935
-0.0020582236
-0.90787656
-0.0017625683
-0.97027954
-0.0014084291
-1.0370339
-0.001055605
-1.1084655
-0.00074646128
-1.1849185
-0.00047962076
-1.2667409
-0.00023600221
-1.3543164
-0.0028009793
-0.5699105
-0.0030229459
-0.60911554
-0.0029427815
-0.65099199
-0.0027237283
-0.69578424
-0.0025825134
-0.74362826
-0.0024860808
-0.79470566
-0.0023065721
-0.849271
-0.0020271454
-0.90761199
-0.0016719367
-0.97001603
-0.0013074514
-1.036782
-0.00098309725
-1.1082289
-0.00070653749
-1.1846916
-0.00045986089
-1.266517
-0.0002255951
-1.3540908
-0.0027770631
-0.53309962
-0.0031853443
-0.56974811
-0.0031445173
-0.6089138
-0.0028607864
-0.65085493
-0.0027154255
-0.69565132
-0.0026717065
-0.74344264
-0.0025468914
-0.79446534
-0.0022893682
-0.84900878
-0.001932744
-0.90735118
-0.0015581928
-0.96976529
-0.0012194509
-1.0365457
-0.0009308123
-1.1080046
-0.00067699946
-1.1844745
-0.00043989125
-1.2663027
-0.00021146001
-1.3538793
-0.0027414665
-0.49866785
-0.0033849889
-0.53289998
-0.0033267959
-0.56956583
-0.0029472756
-0.60882731
-0.0027872933
-0.65078306
-0.0028171531
-0.69550588
-0.0027791547
-0.74321037
-0.0025538223
-0.79420088
-0.0021928325
-0.84874869
-0.0018076937
-0.90710168
-0.0014565241
-0.96952821
-0.0011553553
-1.0363211
-0.00089169113
-1.1077899
-0.00064742519
-1.1842669
-0.00041311342
-1.2661011
-0.00019234661
-1.353687
-0.0027073475
-0.46646403
-0.0036294739
-0.49842337
-0.0035019914
-0.53272478
-0.0029957751
-0.56951733
-0.0027868928
-0.60882771
-0.0029140333
-0.65068618
-0.003005766
-0.69527927
-0.0028286983
-0.7429355
-0.002456073
-0.79393764
-0.0020556908
-0.84850069
-0.0016941337
-0.90686407
-0.0013821593
-0.96930141
-0.0011071274
-1.0361057
-0.00085215925
-1.1075852
-0.00060859319
-1.1840714
-0.0003764694
-1.2659169
-0.00016925244
-1.3535177
-0.0026652374
-0.43634131
-0.0039625031
-0.46613101
-0.0037019674
-0.49822339
-0.0029849812
-0.53273558
-0.0027250584
-0.56957916
-0.0029679412
-0.60877381
-0.003235607
-0.65045634
-0.0031266265
-0.69498134
-0.0027289479
-0.74266262
-0.0023014862
-0.79369185
-0.0019308541
-0.84826397
-0.0016121965
-0.90663403
-0.001326255
-0.96908228
-0.0010579229
-1.0358999
-0.00080083353
-1.107393
-0.00055581446
-1.1838921
-0.00033146861
-1.2657547
-0.00014480654
-1.3533729
-0.0026557108
-0.40816479
-0.0043925278
-0.43591128
-0.003949417
-0.46588356
-0.0029255261
-0.49828285
-0.0025610893
-0.53289955
-0.0029872136
-0.56955989
-0.0034792435
-0.60853017
-0.00346914
-0.65011382
-0.0030219104
-0.69468837
-0.0025434516
-0.74242066
-0.0021630865
-0.79345962
-0.0018448903
-0.84803128
-0.0015514897
-0.9064088
-0.0012684847
-0.96887172
-0.0009939795
-1.0357068
-0.0007323201
-1.1072165
-0.00049004987
-1.1837335
-0.00028325198
-1.2656163
-0.00012204615
-1.3532508
-0.0026126126
-0.38179308
-0.0049949606
-0.40756235
-0.004283785
-0.43557692
-0.0027740019
-0.46603508
-0.0022489162
-0.49859502
-0.0029722102
-0.53291455
-0.0037439605
-0.56929517
-0.0038764655
-0.60812284
-0.0033479196
-0.64978781
-0.0027804496
-0.69445138
-0.0023847899
-0.74219895
-0.0020773104
-0.7932272
-0.0017840886
-0.84779868
-0.0014875799
-0.9061897
-0.0011926049
-0.9686731
-0.00090932915
-1.0355298
-0.0006471701
-1.1070593
-0.00041767949
-1.1835991
-0.00023797861
-1.2655003
-0.00010317719
-1.3531477
-0.0026304284
-0.35707171
-0.0057173466
-0.38107069
-0.0047047876
-0.40714135
-0.0025286677
-0.43582225
-0.001732663
-0.46655133
-0.0028730932
-0.49869413
-0.0040616682
-0.53259684
-0.0043702878
-0.56880135
-0.0037236711
-0.60774709
-0.0030088491
-0.64955941
-0.0025859994
-0.69425017
-0.0023035758
-0.74197269
-0.0020239263
-0.79298736
-0.0017185503
-0.84756771
-0.0014010668
-0.90598124
-0.0010916263
-0.9684908
-0.00080476829
-1.0353722
-0.00055105955
-1.106926
-0.00034846614
-1.1834886
-0.00020000974
-1.2654035
-8.899096e-05
-1.3530587
-0.0025723926
-0.33388348
-0.0066617641
-0.35612729
-0.0052875981
-0.38048788
-0.0021318449
-0.40753817
-0.00095799371
-0.43659692
-0.0026688267
-0.4667556
-0.0044652674
-0.49829054
-0.0049807657
-0.53198636
-0.0041522573
-0.56837276
-0.0032278798
-0.60752806
-0.0027516665
-0.64939375
-0.0025126426
-0.6940411
-0.0022686494
-0.74172796
-0.0019647964
-0.79274111
-0.0016239881
-0.84734479
-0.0012833259
-0.90578954
-0.00096629872
-0.96832927
-0.00068530791
-1.0352379
-0.0004563947
-1.106818
-0.00028996739
-1.1833986
-0.00017082502
-1.2653217
-7.9054835e-05
-1.3529796
-0.0026551229
-0.31201726
-0.0076512576
-0.33289398
-0.0060085939
-0.35540629
-0.001625182
-0.38099454
0.00014206652
-0.40863824
-0.0023085095
-0.43695724
-0.0049981054
-0.46622276
-0.0057786516
-0.49749265
-0.0046577357
-0.53148088
-0.0034106334
-0.56819001
-0.0028552494
-0.60742448
-0.002686491
-0.6492199
-0.0025117748
-0.69379797
-0.002229685
-0.74146307
-0.0018672161
-0.79249788
-0.0014890254
-0.84713909
-0.0011351521
-0.90562069
-0.0008220062
-0.96819257
-0.00056419846
-1.0351301
-0.00037516026
-1.1067328
-0.00024483634
-1.1833246
-0.00014966304
-1.2652511
-7.2299203e-05
-1.3529073
-0.0029416842
-0.29134276
-0.0090050255
-0.31066349
-0.0069447536
-0.33195782
-0.00087013467
-0.35616134
0.0016272615
-0.38247974
-0.0017730628
-0.40917368
-0.0056952488
-0.43626009
-0.0068379393
-0.46516347
-0.0052723462
-0.49687804
-0.0035404918
-0.53135103
-0.0028611503
-0.56818411
-0.0027888817
-0.60732209
-0.0027412618
-0.64899041
-0.0025170071
-0.69351065
-0.0021387091
-0.74119158
-0.0017146337
-0.79227227
-0.0013147774
-0.84695946
-0.00096320051
-0.90547949
-0.00067273218
-0.96808404
-0.00045838376
-1.0350469
-0.00031188254
-1.1066658
-0.00021171012
-1.1832626
-0.00013481548
-1.2651885
-6.7565251e-05
-1.3528398
-0.003179989
-0.2725484
-0.010578291
-0.2897695
-0.0080204839
-0.30958776
-5.3359469e-05
-0.3327746
0.0036165333
-0.35815061
-0.00096979237
-0.38328301
-0.0066195878
-0.40824934
-0.0082527383
-0.43484529
-0.0060397073
-0.46439611
-0.0035912965
-0.49682723
-0.0027070459
-0.53150513
-0.0028012006
-0.56817179
-0.0029388815
-0.60712447
-0.0028314947
-0.64867592
-0.0024507359
-0.69319862
-0.0019684804
-0.74093773
-0.0015089952
-0.79207806
-0.0011107091
-0.84681195
-0.00078335784
-0.90536886
-0.00054056554
-0.96800185
-0.0003744688
-1.0349843
-0.00026498558
-1.1066125
-0.00018760538
-1.1832098
-0.00012453266
-1.2651316
-6.3881585e-05
-1.3527759
-0.0033954256
-0.25464226
-0.012359634
-0.27076706
-0.0091425169
-0.28864747
0.0012624541
-0.31090358
0.0060893656
-0.33524743
5.6668276e-05
-0.35917707
-0.0078128775
-0.38208972
-0.010113969
-0.40638811
-0.00701504
-0.43386996
-0.0035413828
-0.46444603
-0.0023296895
-0.49720459
-0.0026877888
-0.53161854
-0.0031065547
-0.56800412
-0.003183997
-0.60677196
-0.0028215445
-0.64830511
-0.0022634922
-0.69290361
-0.0017226036
-0.74072413
-0.0012654929
-0.79192327
-0.00089679839
-0.84669851
-0.00062292618
-0.9052865
-0.00043438463
-0.96794194
-0.00031089262
-1.0349384
-0.0002303204
-1.1065698
-0.00016992584
-1.1831644
-0.00011711099
-1.2650783
-6.0495048e-05
-1.3527154
-0.0043154855
-0.23626811
-0.014082645
-0.25291925
-0.010722712
-0.26918686
0.0028589605
-0.29024397
0.0091318836
-0.31394609
0.0014719088
-0.33666267
-0.0094050637
-0.35758489
-0.012546094
-0.37965759
-0.008250802
-0.40515235
-0.0033620421
-0.4340493
-0.0016532441
-0.46512247
-0.0023693064
-0.49752307
-0.003261244
-0.53146385
-0.0035895744
-0.56759854
-0.0032821779
-0.60631133
-0.0026188912
-0.64794971
-0.0019619555
-0.69266426
-0.0014273593
-0.74056226
-0.001012172
-0.7918079
-0.00070616113
-0.84661528
-0.00049312508
-0.90522776
-0.00035216491
-0.96790067
-0.00026305323
-1.0349057
-0.00020387874
-1.1065359
-0.00015684674
-1.1831247
-0.00011069221
-1.2650282
-5.6829442e-05
-1.3526586
-0.0057344605
-0.21778707
-0.016695284
-0.23365547
-0.012550196
-0.25109176
0.0048121896
-0.27114009
0.012745225
-0.29385731
0.0030471216
-0.31552131
-0.011378546
-0.33468919
-0.015642841
-0.35448814
-0.0098316109
-0.37807678
-0.003022118
-0.40549227
-0.0005792258
-0.43512332
-0.0017580857
-0.46573369
-0.0033779631
-0.49740635
-0.0040815493
-0.53097188
-0.0038612321
-0.56701948
-0.0030645508
-0.60586567
-0.002235985
-0.64767569
-0.0015943373
-0.69249728
-0.0011260114
-0.74044842
-0.00078917988
-0.79172488
-0.00055200865
-0.84655639
-0.00039095497
-0.90518897
-0.00028858262
-0.96787514
-0.0002259404
-1.0348836
-0.00018289435
-1.1065098
-0.0001461719
-1.1830892
-0.0001035298
-1.2649815
-5.2573929e-05
-1.352606
-0.0072805602
-0.20084074
-0.019516623
-0.21496573
-0.014014622
-0.23219105
0.0067900624
-0.25306964
0.01703151
-0.27542638
0.0049023086
-0.2957125
-0.013912283
-0.31298757
-0.019552898
-0.33077913
-0.01179894
-0.35252081
-0.0024809077
-0.37861799
0.00099776903
-0.40706927
-0.00075083635
-0.43613057
-0.0034168667
-0.46569479
-0.0047056212
-0.49678228
-0.0045986882
-0.53023442
-0.0036296223
-0.56645441
-0.00255679
-0.60554487
-0.0017630515
-0.64750697
-0.0012308854
-0.69239241
-0.00086776517
-0.74036983
-0.00061098629
-0.7916659
-0.00042965876
-0.84651769
-0.00030985846
-0.9051677
-0.00023787716
-0.9678632
-0.00019526018
-1.0348712
-0.00016507385
-1.1064909
-0.00013509716
-1.1830576
-9.4833729e-05
-1.2649392
-4.789101e-05
-1.3525581
-0.0089625485
-0.18493598
-0.022221906
-0.19813546
-0.014614468
-0.21436589
0.010167807
-0.23556879
0.021825957
-0.25786408
0.007212031
-0.2777361
-0.017154022
-0.29247076
-0.024308015
-0.30823245
-0.014271714
-0.32830636
-0.0016771648
-0.35332455
0.0032186304
-0.38083886
0.00076739947
-0.4085875
-0.0033323912
-0.43621504
-0.0055093064
-0.4648911
-0.0055768221
-0.49580415
-0.0043468922
-0.52951715
-0.0029404585
-0.56607074
-0.0019254016
-0.60538252
-0.0013140503
-0.64742381
-0.00093304657
-0.69232713
-0.00066765007
-0.74031317
-0.00047010396
-0.79162546
-0.000330462
-0.84649709
-0.00024324166
-0.90516233
-0.00019492008
-0.96786354
-0.00016816344
-1.0348681
-0.00014809811
-1.1064779
-0.00012204844
-1.1830304
-8.5304675e-05
-1.2649018
-4.3322616e-05
-1.3525148
-0.012551388
-0.19996955
-0.0247876
-0.18237028
-0.014769838
-0.19798009
0.01483636
-0.21903444
0.027285183
-0.24102802
0.010422769
-0.26107482
-0.021041577
-0.27384854
-0.029946413
-0.28683236
-0.017175249
-0.30532892
-0.00053745424
-0.32944607
0.0062183879
-0.35632431
0.0029339708
-0.38300543
-0.0030756117
-0.40884428
-0.0065467577
-0.43517759
-0.0068930144
-0.46357491
-0.005287819
-0.49486322
-0.003397815
-0.52905979
-0.0020715285
-0.56592462
-0.0013546986
-0.60534187
-0.00096952787
-0.64738733
-0.00071563908
-0.69227914
-0.00051312896
-0.74027015
-0.00035434981
-0.79160157
-0.00024654996
-0.84649378
-0.00018554004
-0.90517171
-0.0001566305
-0.96787507
-0.00014274468
-1.0348735
-0.00012985928
-1.1064701
-0.00010740625
-1.1830083
-7.6246253e-05
-1.2648689
-3.9399529e-05
-1.3524754
-0.015716057
-0.19653878
-0.029191252
-0.1955659
-0.014404837
-0.18273528
0.01993179
-0.20307552
0.032974273
-0.22472353
0.013612975
-0.24421822
-0.024591601
-0.2575248
-0.036659096
-0.26713586
-0.020535777
-0.28347183
0.0010889397
-0.30695531
0.010164582
-0.33339226
0.0058806818
-0.35927102
-0.0025839645
-0.38349707
-0.0078802432
-0.4075108
-0.0086691918
-0.43340141
-0.0065431922
-0.46231954
-0.0039476468
-0.49431339
-0.0021864938
-0.52894483
-0.0013216843
-0.56595763
-0.00095271605
-0.60535868
-0.0007430646
-0.6473599
-0.00055750729
-0.69223476
-0.00038591836
-0.74023858
-0.00025361616
-0.7915945
-0.00017207698
-0.84650724
-0.00013331186
-0.90519503
-0.00012006155
-0.96789775
-0.00011654336
-1.0348868
-0.00010990807
-1.1064676
-9.343649e-05
-1.1829911
-6.8529015e-05
-1.2648397
-3.647802e-05
-1.3524389
-0.018431309
-0.19276667
-0.033136865
-0.19259316
-0.015726359
-0.19424438
0.02528005
-0.18808354
0.038379636
-0.20848088
0.015445111
-0.22655566
-0.028694607
-0.24011522
-0.044790178
-0.24939372
-0.024692311
-0.26297933
0.0032745706
-0.28565746
0.015201939
-0.31199267
0.0097683329
-0.33727991
-0.0018087771
-0.36004621
-0.0095831203
-0.3817942
-0.011042321
-0.40513767
-0.0082262708
-0.43171834
-0.0046237104
-0.46164347
-0.0022405431
-0.49425934
-0.0011748916
-0.52909162
-0.00084888366
-0.56606146
-0.00073047789
-0.60537127
-0.00059956017
-0.64731785
-0.00043044085
-0.69219024
-0.00027236192
-0.74021983
-0.00016139096
-0.79160519
-0.00010274999
-0.8465378
-8.2411831e-05
-0.90523268
-8.2991415e-05
-0.96793131
-8.9737757e-05
-1.034907
-9.0616746e-05
-1.1064704
-8.1582242e-05
-1.1829781
-6.2778061e-05
-1.2648134
-3.4772963e-05
-1.3524041
-0.020683302
-0.18891502
-0.036576282
-0.18932725
-0.016399993
-0.19191953
0.029195296
-0.19815962
0.043294108
-0.19299802
0.016158048
-0.20919382
-0.034940957
-0.22030931
-0.053927807
-0.23097759
-0.03055656
-0.24352947
0.0059369124
-0.26564167
0.021475738
-0.29193126
0.014689098
-0.31691343
-0.00066713149
-0.33842156
-0.011742067
-0.35788726
-0.014184532
-0.37865199
-0.010464877
-0.40289906
-0.0054678724
-0.43087417
-0.0021975856
-0.46168643
-0.00085755954
-0.49457667
-0.00060641454
-0.52933409
-0.00065695239
-0.56613499
-0.0006344747
-0.60533635
-0.00049449425
-0.64725379
-0.00031357255
-0.69214903
-0.00016327776
-0.74021794
-7.1987915e-05
-0.79163595
-3.3670974e-05
-0.84658654
-3.1274524e-05
-0.9052844
-4.6760983e-05
-0.96797428
-6.433082e-05
-1.0349333
-7.4055274e-05
-1.1064779
-7.2579368e-05
-1.1829683
-5.9447046e-05
-1.2647888
-3.4339632e-05
-1.3523698
-0.022439799
-0.18506395
-0.039483879
-0.18600742
-0.016512416
-0.18921483
0.033889503
-0.19661374
0.047053358
-0.20191887
0.016228406
-0.19306837
-0.042231641
-0.20190314
-0.062978163
-0.21125896
-0.036904967
-0.22462918
0.0088866685
-0.24647922
0.029002285
-0.27316822
0.020750662
-0.29799283
0.00085521321
-0.31843578
-0.014454649
-0.33570898
-0.018276632
-0.35379516
-0.01341892
-0.37569794
-0.0065288363
-0.4018381
-0.002013894
-0.43105787
-0.00029378514
-0.4622502
-0.00015876986
-0.49502432
-0.00048033393
-0.52951071
-0.0006521951
-0.56611727
-0.00058562774
-0.60524522
-0.00039095774
-0.64717641
-0.00019100616
-0.6921213
-5.0908651e-05
-0.74023902
2.0392797e-05
-0.79169001
3.641663e-05
-0.84665423
1.7877049e-05
-0.90534903
-1.3204405e-05
-0.96802541
-4.2482666e-05
-1.0349648
-6.1663233e-05
-1.1064889
-6.7143156e-05
-1.1829606
-5.8394928e-05
-1.2647647
-3.5125211e-05
-1.3523346
-0.023662926
-0.18143395
-0.041787281
-0.18276054
-0.016203604
-0.18631624
0.039088427
-0.19441375
0.051407898
-0.20096828
0.01624166
-0.20193213
-0.049794647
-0.18550537
-0.071365297
-0.193516
-0.041573416
-0.20659051
0.01258365
-0.22832616
0.038002712
-0.25547965
0.027944954
-0.28036251
0.0027860578
-0.29992367
-0.017864026
-0.3150264
-0.023537545
-0.33044806
-0.017246323
-0.34996776
-0.0078584141
-0.37436837
-0.0016424778
-0.40220951
0.00061015749
-0.43196181
0.00058017523
-0.46298915
-0.00014177617
-0.49536287
-0.00064039472
-0.52952251
-0.00070127288
-0.56600162
-0.00052108361
-0.60511509
-0.00026246321
-0.64710495
-5.2948225e-05
-0.69211926
7.0906876e-05
-0.74028954
0.00011534226
-0.79176894
0.00010380099
-0.84674016
6.345489e-05
-0.90542569
1.5227667e-05
-0.96808312
-2.6278752e-05
-1.0350002
-5.4219834e-05
-1.1065018
-6.5410033e-05
-1.1829535
-5.9768417e-05
-1.2647401
-3.7029373e-05
-1.3522976
-0.024337966
-0.17823624
-0.043441552
-0.17977968
-0.015537318
-0.18342683
0.044507124
-0.19173493
0.056097042
-0.19910289
0.0167201
-0.20144672
-0.057181321
-0.19454545
-0.079254632
-0.17761603
-0.045112352
-0.18997707
0.017678023
-0.21168488
0.048698244
-0.23902169
0.036590532
-0.26412523
0.0051160205
-0.28269247
-0.022188468
-0.29559923
-0.030182158
-0.30838179
-0.022141308
-0.32555308
-0.0095083311
-0.34831784
-0.0010148392
-0.374996
0.0019649363
-0.40356429
0.0017143797
-0.43309601
0.00042839847
-0.46355932
-0.00056843902
-0.49543483
-0.00086329898
-0.52936048
-0.00072127865
-0.56580143
-0.00040119178
-0.60497636
-9.6780401e-05
-0.64706112
0.00010532263
-0.69215367
0.00019841684
-0.74037261
0.00020691387
-0.79187205
0.00016508297
-0.84684179
0.00010184201
-0.90551231
3.6836986e-05
-0.96814623
-1.6554875e-05
-1.0350379
-5.1882143e-05
-1.1065153
-6.774009e-05
-1.1829456
-6.3504928e-05
-1.2647136
-3.9857932e-05
-1.3522578
-0.024503463
-0.17568503
-0.044411068
-0.17726672
-0.014628663
-0.18068833
0.04985243
-0.18877214
0.061000654
-0.19663855
0.017520244
-0.19990304
-0.064255422
-0.19437261
-0.088457981
-0.1853421
-0.047850576
-0.17487781
0.02390328
-0.19620232
0.060761057
-0.2237477
0.047054904
-0.24948606
0.008305509
-0.26731472
-0.027550723
-0.27733022
-0.038438376
-0.28734301
-0.028224116
-0.30229898
-0.01153637
-0.32352504
-5.3783349e-05
-0.3492789
0.0038964789
-0.37692755
0.0033681463
-0.40521806
0.0013163795
-0.43398399
-0.00040013227
-0.46372763
-0.0010902662
-0.49520786
-0.0010210654
-0.52906069
-0.00063943935
-0.56556318
-0.00020725434
-0.60486589
0.00010728813
-0.64706308
0.00027657137
-0.69223183
0.00032351629
-0.74048921
0.00029068534
-0.79199765
0.0002170514
-0.846957
0.00013063819
-0.90560611
4.9913822e-05
-0.9682127
-1.3615336e-05
-1.0350762
-5.4819467e-05
-1.1065282
-7.3578909e-05
-1.1829355
-6.9096104e-05
-1.2646843
-4.3362665e-05
-1.3522144
-0.024106634
-0.17387702
-0.044752078
-0.17534402
-0.013500966
-0.17839442
0.054807819
-0.18564372
0.065825732
-0.19359722
0.018702077
-0.19782038
-0.070931439
-0.19322702
-0.097317969
-0.18551263
-0.054996154
-0.17819652
0.031033389
-0.18200792
0.073504022
-0.20894529
0.05837016
-0.23506295
0.012866123
-0.25404668
-0.033566616
-0.26129882
-0.04837792
-0.26739067
-0.035592728
-0.2799744
-0.013942273
-0.29989308
0.0013428602
-0.32492168
0.0065425049
-0.35192492
0.0056790558
-0.37923846
0.0026279512
-0.40652963
-8.9385797e-05
-0.43429474
-0.0013874984
-0.4634304
-0.0014748722
-0.49475405
-0.0010088168
-0.52869132
-0.00042080884
-0.56534962
5.6471274e-05
-0.60481507
0.00033851089
-0.64712502
0.00044837051
-0.69235668
0.00043878082
-0.74063731
0.00036197014
-0.79214257
0.00025649858
-0.84708286
0.0001484549
-0.90570465
5.4125513e-05
-0.96828044
-1.7176666e-05
-1.0351138
-6.2662834e-05
-1.1065391
-8.2190784e-05
-1.1829224
-7.6123797e-05
-1.2646516
-4.7310768e-05
-1.3521671
-0.17299219
-0.023211167
-0.044455689
-0.17417341
-0.01221083
-0.17663416
0.059168649
-0.18275525
0.07033666
-0.19015465
0.020069135
-0.19496427
-0.07707899
-0.19167283
-0.10557645
-0.18496854
-0.061861079
-0.1786477
0.032915138
-0.18007827
0.086458948
-0.19496284
0.069521167
-0.2200963
0.018387573
-0.2405844
-0.039948097
-0.2476652
-0.060021643
-0.2496551
-0.04434986
-0.25863354
-0.016678917
-0.27723776
0.0033008901
-0.30185111
0.010060126
-0.3284393
0.0087967553
-0.35504262
0.0044817089
-0.38109221
0.00041786418
-0.40703688
-0.0017618943
-0.43392034
-0.0021369898
-0.46276828
-0.001573351
-0.49418952
-0.0007715223
-0.5283406
-7.7202728e-05
-0.56521595
0.00036905629
-0.60484562
0.00057543834
-0.64725209
0.00060789508
-0.6925258
0.0005372512
-0.74081259
0.0004165662
-0.79230264
0.00028157547
-0.84721598
0.00015488768
-0.90580541
4.9884965e-05
-0.96834751
-2.6922695e-05
-1.0351495
-7.4506156e-05
-1.1065468
-9.2979254e-05
-1.1829055
-8.4029656e-05
-1.2646149
-5.14037e-05
-1.3521157
-0.17374966
-0.043698215
-0.173241
-0.021839553
-0.011057732
-0.17532651
0.062804535
-0.18027004
0.074248487
-0.18666707
0.021578481
-0.191664
-0.082582185
-0.18946108
-0.11318125
-0.18406803
-0.068333806
-0.17849581
0.035176976
-0.18090954
0.096674496
-0.19029382
0.079981675
-0.20542335
0.023275617
-0.22498434
-0.046362015
-0.23417048
-0.073717409
-0.23396943
-0.055120254
-0.23888471
-0.019754376
-0.25555808
0.0059743484
-0.27991122
0.014603854
-0.30639483
0.012875518
-0.33251807
0.00701249
-0.3575734
0.0011961836
-0.38187053
-0.0022255231
-0.40657325
-0.0030695406
-0.43298779
-0.0024158382
-0.46192579
-0.0013107753
-0.49365027
-0.00032870035
-0.52808911
0.00035126703
-0.56519816
0.00069737449
-0.60496755
0.00079684784
-0.64744104
0.000744339
-0.69273289
0.00061315718
-0.74100918
0.00045213375
-0.7924732
0.00029181105
-0.8473529
0.00015038652
-0.90590591
3.788104e-05
-0.96841231
-4.2094397e-05
-1.035182
-8.93404e-05
-1.1065505
-0.00010515777
-1.1828844
-9.225786e-05
-1.264574
-5.5455492e-05
-1.3520602
-0.17472907
-0.010078323
-0.17452537
-0.042413838
-0.17477286
-0.01999328
0.065310137
-0.17783211
0.077391887
-0.18341344
0.023055183
-0.18814378
-0.087271877
-0.18697431
-0.11981296
-0.18282937
-0.074353938
-0.1780479
0.037744693
-0.18106353
0.10752318
-0.19175822
0.091710992
-0.20202314
0.026158352
-0.20830609
-0.054044735
-0.21730162
-0.089589064
-0.21829883
-0.068342168
-0.22074752
-0.023824482
-0.2348146
0.0095658663
-0.2591496
0.020339356
-0.28564672
0.01805541
-0.31157472
0.010366374
-0.33587195
0.0023264163
-0.35870364
-0.002782674
-0.38131338
-0.0043500726
-0.40529272
-0.0036331074
-0.43177052
-0.0021230945
-0.46111347
-0.00072964622
-0.49324932
0.00025677783
-0.52799462
0.00080793737
-0.56530872
0.0010065702
-0.60517727
0.00098635575
-0.64768306
0.00084984101
-0.69296957
0.00066357067
-0.74122062
0.0004682578
-0.79264964
0.0002878792
-0.84749039
0.00013594962
-0.90600398
1.9016179e-05
-0.96847342
-6.1426872e-05
-1.0352099
-0.00010623417
-1.1065494
-0.00011796692
-1.1828587
-0.00010054654
-1.2645289
-5.9305493e-05
-1.3520009
-0.17623995
0.066821014
-0.1753924
-0.0092112933
-0.17653934
-0.040647353
-0.1770402
-0.017748004
0.079707393
-0.18014762
0.02437859
-0.18473685
-0.091014369
-0.18440128
-0.12529976
-0.1814875
-0.079693609
-0.1774897
0.04043149
-0.1807347
0.11886038
-0.19240073
0.10400672
-0.20405395
0.034317084
-0.21018187
-0.063450848
-0.19889997
-0.10593135
-0.20095933
-0.083318048
-0.20332295
-0.029265879
-0.21530612
0.014024631
-0.23927336
0.027419598
-0.26622984
0.024476248
-0.29206756
0.014676404
-0.31588476
0.003915805
-0.33746134
-0.0034465651
-0.35803975
-0.0060688146
-0.37959464
-0.0053379751
-0.40358785
-0.0033067087
-0.43058691
-0.0013372884
-0.46050583
6.4573528e-05
-0.49305712
0.00089684284
-0.52808352
0.0012377605
-0.56553991
0.0012689076
-0.60545983
0.0011322884
-0.64796551
0.00092061601
-0.69322661
0.00068826165
-0.74144062
0.00046601283
-0.79282778
0.00027119103
-0.84762563
0.00011290951
-0.90609787
-5.2595713e-06
-0.96852959
-8.3653352e-05
-1.0352324
-0.00012422273
-1.1065431
-0.00013091982
-1.1828283
-0.00010843725
-1.2644798
-6.2786775e-05
-1.3519381
-0.17767856
0.081146002
-0.17572464
0.067153252
-0.17715859
-0.0085920485
-0.17933274
-0.038354816
-0.17976535
-0.015292729
0.025732867
-0.1815019
-0.093668515
-0.1820827
-0.12946886
-0.18023219
-0.084139756
-0.17704135
0.043062636
-0.18012084
0.13023991
-0.19211423
0.1168284
-0.20522241
0.04335894
-0.21309581
-0.066495969
-0.20713675
-0.12087609
-0.18395524
-0.097405722
-0.18687166
-0.035351059
-0.19723777
0.019249597
-0.22053109
0.036048056
-0.24790182
0.032206654
-0.27396025
0.020094931
-0.29748608
0.0060671498
-0.3180361
-0.0042015887
-0.33670632
-0.0083351221
-0.35577344
-0.0076760412
-0.37725657
-0.0049731711
-0.40192139
-0.0022259449
-0.42969825
-0.00024111515
-0.46020014
0.00095387811
-0.49311415
0.0014980238
-0.52834378
0.0016009087
-0.56587191
0.0014689943
-0.60579653
0.0012299928
-0.64827488
0.00095687547
-0.69349523
0.00068895562
-0.74166357
0.00044738462
-0.79300397
0.00024355864
-0.84775628
8.2846308e-05
-0.90618598
-3.3605336e-05
-0.96857964
-0.00010754951
-1.0352491
-0.00014250994
-1.1065315
-0.00014340209
-1.1827934
-0.0001156783
-1.2644269
-6.5864612e-05
-1.3518723
-0.17882557
0.026879871
-0.17607547
0.081496827
-0.17645679
0.066451453
-0.1798029
-0.0081218862
-0.18244941
-0.035670758
-0.18312506
-0.012710794
-0.094916139
-0.18025427
-0.13229287
-0.17925869
-0.08760695
-0.17676499
0.045624509
-0.17960323
0.14117299
-0.19105392
0.12962741
-0.20491324
0.052252025
-0.2141155
-0.068574753
-0.21101702
-0.13345479
-0.19455804
-0.10948248
-0.17187848
-0.041256691
-0.18096603
0.024926005
-0.20291418
0.046276932
-0.23075996
0.041375261
-0.25707043
0.026702913
-0.28056823
0.0089211054
-0.30034004
-0.0050700122
-0.31716768
-0.011273972
-0.33376747
-0.010807278
-0.3526422
-0.0072626288
-0.37496712
-0.0034780543
-0.40066928
-0.0006947273
-0.42924464
0.00098100309
-0.46022727
0.0017969023
-0.49341303
0.0019992084
-0.52874208
0.001874611
-0.56627753
0.0016018539
-0.60616839
0.0012808559
-0.64859886
0.00096149781
-0.69376777
0.00066851809
-0.7418847
0.00041481892
-0.79317523
0.00020702088
-0.84788046
4.7552782e-05
-0.90626714
-6.4383801e-05
-0.9686228
-0.00013202872
-1.0352596
-0.00016039016
-1.1065146
-0.00015501916
-1.182754
-0.00012218893
-1.2643706
-6.8460431e-05
-1.3518038
-0.17914434
-0.094597368
-0.17706992
0.027874328
-0.17611429
0.081154327
-0.17797618
0.064624735
-0.18288337
-0.0076879258
-0.18611406
-0.032681752
-0.18686546
-0.010163333
-0.13386028
-0.17868686
-0.090033776
-0.17683186
0.047965201
-0.17910568
0.15116989
-0.18960012
0.14190377
-0.20333028
0.061515531
-0.21417675
-0.070733579
-0.21195667
-0.14619598
-0.19827583
-0.12598402
-0.1780565
-0.046754606
-0.16638056
0.030739401
-0.18677942
0.057994386
-0.21463163
0.052000952
-0.24138565
0.034625823
-0.26499334
0.012576677
-0.2842238
-0.0059919196
-0.29941813
-0.01502761
-0.31341404
-0.014948052
-0.32962669
-0.010324912
-0.34957992
-0.005185925
-0.37325925
-0.0013350268
-0.40002898
0.00098948483
-0.42925312
0.0021496642
-0.46058003
0.0024877378
-0.49390156
0.0023688635
-0.52923634
0.0020508683
-0.56672654
0.0016696004
-0.60655714
0.001289489
-0.64892685
0.00093875806
-0.69403801
0.00063034945
-0.74210023
0.00037097766
-0.79333919
0.0001637582
-0.84799666
8.8897421e-06
-0.90634041
-9.614902e-05
-0.96865868
-0.00015621045
-1.0352638
-0.00017723896
-1.1064923
-0.00016558112
-1.1827106
-0.00012773149
-1.2643113
-7.057553e-05
-1.3517332
-0.17913368
-0.13387094
-0.17918921
-0.092478084
-0.17658311
0.028343148
-0.17670037
0.079878515
-0.18011432
0.061855683
-0.18639644
-0.0074055508
-0.18998699
-0.029560224
-0.19071096
-0.0078461056
-0.091159544
-0.1775611
0.050004875
-0.17887154
0.15985364
-0.18778944
0.15304411
-0.20074046
0.070505955
-0.2123207
-0.072378952
-0.21253138
-0.15819523
-0.19995742
-0.14224136
-0.1820185
-0.063005293
-0.16180581
0.036514255
-0.17215542
0.070620322
-0.19940536
0.064112971
-0.22674365
0.043810927
-0.25057076
0.017162849
-0.26957951
-0.0069841374
-0.28323158
-0.019764185
-0.29468156
-0.020302047
-0.30806004
-0.014349561
-0.32560204
-0.0074460516
-0.34731979
-0.0021965327
-0.37239774
0.00098666788
-0.40002616
0.0025865345
-0.42968999
0.0030992193
-0.46119151
0.002980911
-0.49451361
0.0025979236
-0.52978339
0.0021360796
-0.56719302
0.0016804233
-0.60694807
0.0012625823
-0.64925068
0.00089355059
-0.69430121
0.00057802286
-0.74230727
0.00031858917
-0.79349402
0.00011598181
-0.84810376
-3.1391126e-05
-0.90640517
-0.00012781458
-0.96868708
-0.00017933887
-1.0352617
-0.00019277626
-1.1064651
-0.00017479392
-1.1826636
-0.00013238714
-1.2642495
-7.222516e-05
-1.351661
-0.17956343
-0.090729796
-0.18104046
-0.13201968
-0.17984374
-0.089217456
-0.17703992
0.028682697
-0.17787984
0.077644034
-0.18271212
0.058171367
-0.19004475
-0.0073477907
-0.19376053
-0.026510647
-0.1945188
-0.0059494608
0.052103494
-0.17965971
0.16690077
-0.18591867
0.16256569
-0.19731102
0.078990561
-0.20922506
-0.073798543
-0.21090111
-0.16993774
-0.20078887
-0.15765765
-0.18454113
-0.079156903
-0.16586689
0.030650954
-0.15594251
0.084288171
-0.18582327
0.077511379
-0.21280376
0.054289524