/*--------------------------------*- C++ -*----------------------------------*\
| =========                 |                                                 |
| \\      /  F ield         | OpenFOAM: The Open Source CFD Toolbox           |
|  \\    /   O peration     | Version:  5.0                                   |
|   \\  /    A nd           | Web:      www.OpenFOAM.org                      |
|    \\/     M anipulation  |                                                 |
\*---------------------------------------------------------------------------*/
FoamFile
{
    version     2.0;
    format      ascii;
    class       volScalarField;
    location    "360";
    object      pMean;
}
// * * * * * * * * * * * * * * * * * * * * * * * * * * * * * * * * * * * * * //

dimensions      [0 2 -2 0 0 0 0];

internalField   nonuniform List<scalar> 
9520
(
0.00010851853
0.00010830851
0.00026534696
0.00010775323
0.00026522841
0.00043378191
0.00010662473
0.00026463166
0.0004338791
0.00058940453
0.00010473022
0.00026304454
0.00043351447
0.00059030561
0.00074403678
0.00010184568
0.00025995947
0.00043182666
0.00059120853
0.00074616529
0.00089025996
9.7823992e-05
0.00025482911
0.00042795164
0.00059090564
0.00074918337
0.00089417103
0.0010305939
9.2483377e-05
0.00024722744
0.00042099722
0.00058817128
0.00075149001
0.00090037515
0.0010367659
0.0011622334
8.5785965e-05
0.00023679514
0.0004102394
0.00058175674
0.00075147379
0.00090687887
0.0010470756
0.0011710772
0.0012852403
7.7748556e-05
0.00022339735
0.00039500979
0.0005706091
0.00074751114
0.00091171153
0.0010591467
0.0011863353
0.0012971399
0.0013981837
6.8975247e-05
0.00020670262
0.00037497933
0.00055382457
0.00073821275
0.00091289464
0.0010706696
0.0012053006
0.0013180932
0.0014133371
0.0015006613
5.8442978e-05
0.00018650971
0.00034988892
0.00053078534
0.00072239073
0.00090868989
0.0010793398
0.0012253743
0.001345074
0.0014404171
0.0015191871
0.001592054
4.5697153e-05
0.00016153923
0.00031991182
0.00050072981
0.00069919577
0.0008975239
0.0010830914
0.0012439535
0.0013752315
0.0014761695
0.0015526927
0.0016138838
0.0016720586
2.8640364e-05
0.00013385931
0.00028422008
0.00046334096
0.00066785704
0.00087808082
0.0010800518
0.0012586225
0.0014056991
0.0015175871
0.0015977686
0.00165375
0.001697012
0.0017405447
1.2578967e-05
0.00010227762
0.00024316834
0.00041862944
0.00062795224
0.00084922504
0.001068682
0.0012671338
0.0014338397
0.0015616298
0.0016513267
0.0017081844
0.0017429725
0.001768277
0.001797591
-7.3277e-06
7.0758626e-05
0.00019528114
0.0003682666
0.00057878119
0.00081098352
0.0010477207
0.0012676146
0.0014571759
0.00160545
0.0017102287
0.0017741369
0.0018065376
0.0018197529
0.001827628
0.0018435521
-2.3236064e-05
3.3254385e-05
0.00014509446
0.00031034735
0.00052199363
0.00076280895
0.0010162563
0.001258648
0.0014735546
0.001646311
0.0017714785
0.0018484923
0.0018848177
0.0018917588
0.0018838038
0.0018752955
0.0018789084
-4.6839147e-05
-9.0856215e-07
8.8092759e-05
0.00024790987
0.00045610355
0.00070559852
0.00097374135
0.001239229
0.0014810429
0.0016817704
0.0018321425
0.0019282334
0.001974843
0.0019817
0.0019632449
0.0019351077
0.0019116779
0.001904421
-6.309879e-05
-4.3862727e-05
3.2203991e-05
0.00017651233
0.00038427527
0.00063749881
0.00092095496
0.0012082452
0.001478255
0.0017096389
0.0018894938
0.0020103249
0.0020736459
0.0020868895
0.0020637914
0.0020205977
0.0019738804
0.0019374454
0.001920936
-8.8758802e-05
-7.4682064e-05
-3.2151297e-05
0.00010461323
0.0003025374
0.00056148462
0.00085584331
0.0011661081
0.0014639727
0.001728134
0.0019410173
0.0020918299
0.0021781377
0.002204565
0.0021831792
0.0021301874
0.0020637517
0.0020006167
0.0019533675
0.0019295049
-0.00010621914
-0.00012365682
-8.8840422e-05
2.4053625e-05
0.00021854623
0.00047426674
0.0007809033
0.0011107983
0.0014382952
0.0017357347
0.0019846641
0.0021699324
0.002285228
0.002331727
0.0023189776
0.0022621826
0.0021804388
0.002092933
0.0020159727
0.0019604545
0.0019311575
-0.00013142779
-0.00015452437
-0.00016191033
-5.2633726e-05
0.0001231867
0.00038244766
0.00069351747
0.0010439575
0.0013992356
0.001732128
0.0020186086
0.0022422245
0.0023919138
0.0024652395
0.0024683755
0.00241464
0.0023229701
0.0022143934
0.0021086065
0.0020208628
0.0019597339
0.0019270634
-0.00015110874
-0.00020584104
-0.00021521662
-0.00014204015
2.9731993e-05
0.00027697286
0.00059952418
0.00096319866
0.0013476722
0.0017153822
0.0020420253
0.0023065045
0.0024954381
0.0026018854
0.0026282754
0.0025850951
0.0024900387
0.0023648833
0.0022322282
0.0021115186
0.0020162807
0.0019524028
0.0019183503
-0.00016575002
-0.00024148464
-0.00029593627
-0.00021965878
-7.6599809e-05
0.00017124344
0.00048959135
0.00087452822
0.0012811493
0.0016862212
0.00205277
0.0023614479
0.0025932157
0.0027385498
0.0027953548
0.0027706188
0.0026796673
0.0025438847
0.0023877082
0.0022344416
0.0021025831
0.0020034203
0.0019396078
0.001906224
-0.00018847922
-0.00029891988
-0.0003481717
-0.00032116067
-0.00017553839
5.0102662e-05
0.00037710473
0.00076816988
0.0012057993
0.0016415405
0.0020518237
0.0024047651
0.0026834133
0.002872312
0.0029662344
0.0029678539
0.0028892274
0.0027500845
0.0025754706
0.0023915961
0.0022217897
0.0020829605
0.0019834716
0.0019226009
0.001891796
-0.00020965699
-0.00033594967
-0.00044190538
-0.00039886244
-0.00029764605
-6.7675015e-05
0.00024614194
0.00065696711
0.0011116946
0.0015872865
0.0020353617
0.0024369103
0.0027635702
0.0030008025
0.0031376263
0.003173214
0.0031154607
0.0029813251
0.0027950258
0.0025844768
0.0023770506
0.0021953407
0.0020538857
0.0019577797
0.0019025752
0.0018761352
-0.00022486199
-0.00040095166
-0.00050695716
-0.00051952798
-0.00040302105
-0.00021127894
0.00011430134
0.00052430137
0.001010731
0.0015138467
0.0020088663
0.0024538369
0.0028331797
0.0031211751
0.0033065922
0.0033830539
0.0033546823
0.0032345902
0.0030448499
0.0028135865
0.0025710536
0.0023449481
0.0021563272
0.00201678
0.0019276484
0.0018807072
0.001860199
-0.00024740907
-0.00044490601
-0.00059807872
-0.00061713175
-0.00054589027
-0.00034570243
-4.7301481e-05
0.00038663193
0.00088572947
0.0014319161
0.0019629603
0.0024604602
0.0028880805
0.0032320578
0.0034699245
0.0035939016
0.0036029344
0.0035062099
0.0033223482
0.0030782196
0.0028054326
0.0025357504
0.0022964266
0.0021062026
0.0019730427
0.001894407
0.00185801
0.0018448813
-0.00026594199
-0.00048329605
-0.00068644748
-0.00074895295
-0.00068065529
-0.00051630909
-0.00020859052
0.00021524082
0.00075290959
0.0013232661
0.001908027
0.002446901
0.0029324693
0.0033291345
0.0036253038
0.003802199
0.0038562414
0.0037919756
0.0036240267
0.0033763956
0.0030804843
0.0027706545
0.0024794992
0.0022329066
0.0020464318
0.0019241485
0.0018591886
0.0018354402
0.0018309817
-0.00028421722
-0.00053223972
-0.00076883322
-0.00089344301
-0.00086066751
-0.00069539768
-0.00041231022
3.4585184e-05
0.00058326381
0.0012039721
0.0018234186
0.002424327
0.0029560534
0.003415739
0.0037681348
0.004004755
0.0041107093
0.0040875049
0.0039455653
0.0037049566
0.0033950438
0.0030511524
0.0027098491
0.0024035849
0.002155933
0.0019786502
0.0018714732
0.0018231265
0.0018139127
0.0018192077
-0.0002984233
-0.00057567464
-0.00086056545
-0.0010366692
-0.0010632526
-0.00092855708
-0.00063405509
-0.00019876998
0.00039465045
0.0010442416
0.0017244954
0.0023708369
0.0029694184
0.003481212
0.0039008787
0.0041964372
0.0043623631
0.0043885286
0.0042822786
0.0040596549
0.0037465102
0.0033771133
0.0029903311
0.0026240425
0.0023095917
0.002067314
0.0019046179
0.0018165422
0.0017873394
0.0017942637
0.0018101652
-0.0003088768
-0.00063261495
-0.00094611793
-0.0011853391
-0.0012818307
-0.0012035599
-0.0009271083
-0.00045989712
0.00014414318
0.0008566952
0.0015802092
0.0022991095
0.002950291
0.0035355347
0.0040126595
0.0043788589
0.0046053124
0.004690405
0.004629405
0.0044356253
0.0041308855
0.0037467117
0.0033220533
0.0028986067
0.0025147064
0.0021994236
0.0019690634
0.0018262398
0.0017607625
0.0017528985
0.0017772189
0.0018043445
-0.00032143508
-0.00068256862
-0.0010549917
-0.0013271507
-0.0015016753
-0.0015138179
-0.0012830196
-0.00081678865
-0.00014361183
0.00059924433
0.0013995921
0.0021763187
0.0029113597
0.003554856
0.0041124886
0.004540946
0.0048403455
0.0049864
0.0049817689
0.0048276513
0.0045432986
0.004156427
0.0037042073
0.0032298493
0.0027771136
0.0023836502
0.002075219
0.0018633394
0.0017451426
0.0017053685
0.001720708
0.0017633599
0.0018021051
-0.00032792625
-0.00075335963
-0.0011591728
-0.0015014323
-0.0017207456
-0.0018275896
-0.0017007482
-0.001254958
-0.00056271669
0.00028535292
0.0011365922
0.0020077207
0.0028154594
0.0035527629
0.0041755691
0.0046905544
0.005056105
0.0052762961
0.0053319086
0.0052300105
0.0049782298
0.0046015892
0.0041340686
0.0036181696
0.0031010682
0.0026274906
0.0022331117
0.0019393609
0.0017520807
0.0016628216
0.0016514521
0.0016915605
0.0017531276
0.001803701
-0.00033440145
-0.00082748243
-0.0012879601
-0.0016749313
-0.0019855197
-0.0021476585
-0.0021365443
-0.0018052093
-0.001084384
-0.00017817942
0.0007950093
0.001743615
0.0026659749
0.0034884801
0.0042157595
0.004802272
0.0052592962
0.0055483659
0.0056782644
0.0056346126
0.0054293634
0.0050765167
0.0046073731
0.0040620496
0.0034885593
0.0029369806
0.0024518022
0.0020654742
0.0017941451
0.0016373005
0.0015807247
0.0016000061
0.0016661433
0.001746846
0.0018093131
-0.00033999814
-0.00090229204
-0.0014252057
-0.0018777784
-0.0022521336
-0.0025378637
-0.0025770066
-0.0023885643
-0.0017709605
-0.00077323168
0.00029408202
0.0013781223
0.002408926
0.0033645387
0.0041885157
0.0048901262
0.0054238735
0.0058082099
0.0060085132
0.0060383621
0.0058879315
0.0055744589
0.0051183629
0.0045578738
0.0039394202
0.0033159494
0.0027394015
0.0022527299
0.0018835794
0.0016420166
0.0015208648
0.0015002348
0.0015520459
0.0016448712
0.0017447881
0.0018190411
-0.00034153951
-0.00097672825
-0.0015611876
-0.0020995373
-0.0025531018
-0.0029314611
-0.0031278354
-0.0029683516
-0.0025148383
-0.0016020799
-0.00037984664
0.00084368523
0.0020301217
0.0031214603
0.0040963289
0.0049061228
0.0055638565
0.0060290173
0.0063275838
0.0064285948
0.0063496197
0.006085925
0.0056602753
0.0051000963
0.0044511326
0.0037659278
0.0031017261
0.002510893
0.0020331659
0.0016903282
0.0014853622
0.0014045922
0.0014226528
0.0015085479
0.0016280711
0.0017471047
0.0018329153
-0.00034082428
-0.001040137
-0.0016953309
-0.0023180199
-0.002885728
-0.003363421
-0.0036839345
-0.0037127297
-0.0032557579
-0.0025306221
-0.0013540524
7.9548019e-05
0.0014591518
0.0027381104
0.0038736087
0.004853588
0.0056284853
0.0062243726
0.0066075961
0.0068087951
0.0068009947
0.0066055031
0.0062231031
0.005682312
0.005018614
0.004285753
0.0035421539
0.0028479104
0.0022542955
0.001796224
0.0014885114
0.0013265509
0.001290172
0.0013492949
0.0014699692
0.001616086
0.0017538983
0.0018508982
-0.00033736148
-0.001091124
-0.0018107677
-0.0025326758
-0.0032133953
-0.0038450351
-0.0042836446
-0.0044720507
-0.0042271496
-0.0034675547
-0.0024721774
-0.0010375594
0.00062212207
0.0021329223
0.0034922688
0.0046595714
0.0056218917
0.0063410454
0.0068614344
0.007150479
0.0072439144
0.0071189759
0.0067999562
0.0062939537
0.0056363156
0.0048714382
0.004061272
0.0032693509
0.0025571293
0.0019728806
0.0015452065
0.0012810116
0.0011678096
0.0011793311
0.0012812036
0.0014367134
0.0016091412
0.0017651553
0.0018728943
-0.00033046745
-0.0011254562
-0.0019034152
-0.0027209359
-0.0035327918
-0.0043199888
-0.0049576595
-0.005280431
-0.0052352093
-0.0046878457
-0.0036233856
-0.0023492372
-0.00062946203
0.0012418487
0.0028604923
0.0042919826
0.0054650373
0.0063838856
0.0070332822
0.0074655246
0.0076493582
0.0076262042
0.0073761404
0.0069268807
0.0062932332
0.005518396
0.0046569606
0.0037780017
0.0029496463
0.0022325894
0.0016702764
0.0012835561
0.0010706762
0.0010114049
0.0010735589
0.0012191005
0.0014091838
0.0016073152
0.0017808285
0.0018987547
-0.0011370769
-0.00032906721
-0.0019680316
-0.0028759918
-0.0038154176
-0.0047790613
-0.0056239272
-0.0061944726
-0.0062969639
-0.0059817915
-0.0051146676
-0.0037345952
-0.00215295
-0.00012723963
0.0019263798
0.003647909
0.0051246274
0.0062684986
0.0071293451
0.0076958943
0.0080279086
0.0080974615
0.007949466
0.0075661037
0.0069801135
0.0062157457
0.0053251037
0.0043738676
0.0034371491
0.00258585
0.0018780425
0.0013503991
0.0010147755
0.00086041425
0.00085933939
0.00097411279
0.0011635197
0.0013876417
0.0016106373
0.0018007866
0.0019282928
-0.0019954303
-0.0011337477
-0.00033331379
-0.0029890907
-0.0040516762
-0.0051884903
-0.0062649803
-0.0071025483
-0.0075005528
-0.0073424132
-0.0067217476
-0.0055220033
-0.0037988093
-0.0018715421
0.00045376279
0.0026838365
0.0044864663
0.0059627354
0.0070588271
0.007849136
0.0083194762
0.008541967
0.008489206
0.0082070926
0.0076818559
0.0069532621
0.0060565149
0.0050538106
0.004022024
0.0030407327
0.0021815355
0.0014977131
0.0010173674
0.00074247866
0.00065290999
0.00071346406
0.00088195378
0.0011149246
0.0013722352
0.0016190399
0.0018248752
0.0019612998
-0.003043151
-0.0019946763
-0.0011156306
-0.00033513792
-0.0042266175
-0.0055313497
-0.0068418196
-0.0079755973
-0.0087070233
-0.0088861127
-0.0084212208
-0.0074708502
-0.0059105957
-0.0037870462
-0.0014934761
0.0011395234
0.0035016016
0.005338662
0.0067917632
0.0078282689
0.0085331117
0.0088974821
0.009003019
0.0088185312
0.0083917875
0.0077160873
0.0068399441
0.0058110034
0.0047027581
0.0036022526
0.0025917283
0.0017409571
0.0010962253
0.00067550806
0.00047015197
0.00045070034
0.00057528128
0.00079787272
0.0010736652
0.0013630318
0.0016324199
0.0018528833
0.0019975396
-0.0043123532
-0.0030469028
-0.001965408
-0.0010746309
-0.00033469662
-0.0057818714
-0.0073257449
-0.0087697739
-0.0098732546
-0.010448089
-0.010350755
-0.0095441727
-0.0082316468
-0.0062320548
-0.0036739181
-0.00097730398
0.0019285218
0.0043373295
0.0061872844
0.007606092
0.0085654826
0.0091741244
0.0094262507
0.0094060316
0.009078092
0.0084953149
0.0076610259
0.0066338995
0.0054755385
0.004271526
0.0031166322
0.0020940299
0.0012690292
0.00067853445
0.0003291911
0.00020114914
0.00025596892
0.00044607972
0.00072247333
0.0010400017
0.0013600068
0.0016505801
0.0018845656
0.002036757
-0.0059066126
-0.0043195577
-0.0030003233
-0.0018988426
-0.0010175466
-0.00033208571
-0.0076791696
-0.0094405868
-0.010944019
-0.011969301
-0.012322271
-0.011905215
-0.010716996
-0.0089472328
-0.0064538112
-0.0034122183
-0.00032340488
0.0027456794
0.0051771241
0.0070322138
0.0083932116
0.0092631511
0.0097705905
0.0099029277
0.0097441643
0.0092591129
0.0085088457
0.0075086581
0.0063294547
0.005047574
0.0037606662
0.0025682452
0.0015525028
0.00077119527
0.00024987698
-1.7295166e-05
-6.148141e-05
7.068378e-05
0.0003268655
0.00065628099
0.0010140474
0.0013629926
0.0016732395
0.0019196391
0.0020786987
-0.0078571799
-0.0059091496
-0.0042471834
-0.0028935528
-0.0018047199
-0.00094982308
-0.00032553123
-0.0099324693
-0.011854262
-0.013374021
-0.01425621
-0.014333399
-0.013555484
-0.011875834
-0.0095723014
-0.0065306227
-0.0030076909
0.00038761893
0.0035698015
0.0060293474
0.0078591729
0.0091448382
0.0099218079
0.010322185
0.010321448
0.010008529
0.0093517981
0.0084225597
0.0072508849
0.0059213753
0.0045255721
0.0031717535
0.00196145
0.00097283718
0.00025339165
-0.0001844419
-0.00035988372
-0.00031495665
-0.00010352392
0.00021858786
0.00059961668
0.00099568631
0.0013716638
0.0017001063
0.0019578814
0.0021231315
-0.010179715
-0.0078531592
-0.005788724
-0.0040844635
-0.0027431561
-0.0016885828
-0.00087244894
-0.00031782662
-0.01253036
-0.01457721
-0.016048572
-0.016729137
-0.016491787
-0.015233447
-0.01296204
-0.010058137
-0.006454599
-0.0025072969
0.0011412904
0.0044124499
0.0068778218
0.0086564272
0.0098639815
0.01054416
0.010824479
0.010672711
0.010188304
0.0093449517
0.0082265184
0.0068801152
0.0054054824
0.0039091731
0.0025078323
0.0013016302
0.00036146247
-0.00027808047
-0.00061921794
-0.00069477715
-0.00055685093
-0.00026514964
0.00012189919
0.00055249499
0.00098456931
0.0013857663
0.0017310688
0.0019991459
0.0021697935
-0.012879254
-0.010166947
-0.0076656977
-0.005541778
-0.0038580332
-0.0025585918
-0.0015544035
-0.00079612365
-0.00030991757
-0.015485149
-0.017593499
-0.018956691
-0.019400627
-0.018722777
-0.016868092
-0.013927293
-0.01039674
-0.0062651866
-0.0019240939
0.0019587915
0.0052621183
0.0077051284
0.0094273437
0.010556904
0.011127508
0.011268193
0.010945827
0.01027107
0.0092265242
0.0079103667
0.0063894512
0.0047789626
0.0031996065
0.0017734515
0.00059534379
-0.00027456132
-0.00081680573
-0.0010494558
-0.0010185228
-0.00078489366
-0.00041303317
3.6999942e-05
0.00051455804
0.00098052496
0.0014054195
0.001766154
0.0020431419
0.0022182869
-0.01596386
-0.012871392
-0.0098962027
-0.0073022251
-0.00520174
-0.0035830656
-0.0023464699
-0.0014183706
-0.0007218488
-0.00029592505
-0.01877061
-0.020886752
-0.022111019
-0.022191537
-0.020945173
-0.018407312
-0.014748688
-0.010612089
-0.0059707476
-0.0012282473
0.0028124082
0.0060974258
0.0085191147
0.010185084
0.011224821
0.011662556
0.011641716
0.011127624
0.010243038
0.0089838627
0.0074641917
0.0057729353
0.0040407009
0.002400327
0.00097480608
-0.00014981986
-0.00092769674
-0.0013564554
-0.0014704536
-0.0013278523
-0.00099718393
-0.00054659868
-3.6400569e-05
0.00048576466
0.00098403604
0.0014308779
0.001804848
0.0020890509
0.0022682201
-0.019397678
-0.015966998
-0.012507354
-0.009382832
-0.0068099908
-0.0047942852
-0.0032693176
-0.0021293519
-0.0012808786
-0.0006518548
-0.00028444459
-0.022363506
-0.024462692
-0.025429194
-0.025011895
-0.023105513
-0.019821181
-0.015443487
-0.010711345
-0.0055524198
-0.00046702612
0.0036639238
0.0069311366
0.009339943
0.010933485
0.011858745
0.012137526
0.011931494
0.01120289
0.010088953
0.0086037816
0.0068787098
0.0050261972
0.0031917531
0.001516634
0.00011959227
-0.00092544634
-0.0015901861
-0.0018908746
-0.0018776727
-0.0016198688
-0.0011925701
-0.00066604156
-9.8152498e-05
0.00046708618
0.00099563571
0.0014611143
0.0018454246
0.0021360936
0.0023197678
-0.023153562
-0.019411338
-0.015493635
-0.011817321
-0.0086950143
-0.0062270576
-0.0043372216
-0.0029448103
-0.0019077745
-0.0011520618
-0.00060303514
-0.00027026461
-0.026264079
-0.028245165
-0.028815957
-0.027809091
-0.025171433
-0.021115129
-0.016008182
-0.010670926
-0.0050121253
0.00032614359
0.0045211675
0.0077943337
0.010175469
0.011662892
0.012444784
0.012538282
0.012122178
0.011154818
0.0097931317
0.0080733289
0.0061460025
0.0041470924
0.0022352204
0.00055523227
-0.00078334442
-0.0017225451
-0.0022542779
-0.0024139844
-0.0022669167
-0.0018926046
-0.0013709268
-0.00077094473
-0.00014665132
0.00045947147
0.0010135329
0.0014930086
0.0018866771
0.0021854931
0.0023760834
-0.027225133
-0.023172605
-0.018809611
-0.014590351
-0.010896356
-0.0078886746
-0.0055826421
-0.0038633437
-0.0026128053
-0.0017041452
-0.0010470566
-0.00054780797
-0.00025232953
-0.030399287
-0.032132864
-0.032222047
-0.030551018
-0.027144401
-0.022276631
-0.016419606
-0.010501613
-0.0043801525
0.0011658903
0.0054192568
0.0086982967
0.011013298
0.012358351
0.012969754
0.01284957
0.012194825
0.010964638
0.0093393098
0.0073804035
0.005259799
0.0031356975
0.0011760645
-0.00047532386
-0.0017240236
-0.002531733
-0.0029121258
-0.0029199558
-0.0026350797
-0.0021454181
-0.0015315127
-0.00085886711
-0.00018032808
0.00046015185
0.0010326908
0.0015250716
0.0019322507
0.0022423367
0.0024374011
-0.031545179
-0.027233594
-0.022416852
-0.017654578
-0.013391618
-0.0098185754
-0.00700911
-0.0049145967
-0.0033817621
-0.0023111275
-0.0015292383
-0.00093671515
-0.00050547784
-0.00023481019
-0.034669478
-0.036076627
-0.035617699
-0.033239807
-0.029003989
-0.023279145
-0.016684828
-0.010195937
-0.0036576381
0.0020809955
0.0063826004
0.0096330673
0.011828957
0.013005236
0.013417416
0.013051421
0.012128192
0.010612355
0.0087108089
0.0065142688
0.0042162169
0.0019946461
2.2174505e-05
-0.0015646852
-0.0026916344
-0.0033432004
-0.0035559363
-0.0034041703
-0.0029807296
-0.0023770214
-0.0016707848
-0.00092732963
-0.00020309743
0.00046156005
0.0010514543
0.0015648308
0.0019908576
0.0023038247
0.0025022798
-0.036017391
-0.031540232
-0.026289345
-0.020968149
-0.016127657
-0.011990197
-0.0086497368
-0.006098967
-0.0042408264
-0.0029496988
-0.0020418914
-0.0013523464
-0.00084941551
-0.00045838051
-0.0002136995
-0.039022855
-0.040052105
-0.039006718
-0.035850031
-0.030715703
-0.024123866
-0.016822102
-0.0097485634
-0.0028375484
0.0031042244
0.0074090272
0.010572651
0.012613065
0.013590338
0.013768815
0.013121118
0.011898826
0.010077127
0.0078920306
0.0054662301
0.0030143207
0.00072970303
-0.0012158895
-0.0027008103
-0.0036744381
-0.0041468832
-0.0041791632
-0.0038640699
-0.0033018062
-0.0025824838
-0.0017850421
-0.00098151754
-0.00022579261
0.00046184094
0.0010828877
0.0016262105
0.0020536925
0.0023693372
0.0025707377
-0.04058698
-0.036000787
-0.030384566
-0.024500448
-0.01905977
-0.014348523
-0.010473276
-0.007443931
-0.00518732
-0.0036417904
-0.0025546502
-0.0017728457
-0.001207911
-0.00075635833
-0.00042259824
-0.00019972503
-0.043444621
-0.044061372
-0.042356822
-0.038339304
-0.032283185
-0.02483121
-0.016810802
-0.0091432771
-0.0018398975
0.0042316037
0.0084609938
0.011501763
0.01335215
0.014093268
0.013999128
0.013033554
0.011481777
0.0093387676
0.0068690442
0.0042306322
0.0016566201
-0.00065041523
-0.0025258272
-0.003870246
-0.0046599512
-0.0049339293
-0.0047777278
-0.0042965215
-0.0035915725
-0.0027563488
-0.0018808581
-0.0010364278
-0.00025060632
0.00048161566
0.001147891
0.0016914283
0.0021211639
0.0024387735
0.0026427877
-0.045252594
-0.040560127
-0.034620835
-0.028219299
-0.022155104
-0.016846223
-0.012424372
-0.0089159977
-0.0062438139
-0.0043823996
-0.0030866143
-0.0021634682
-0.0015504609
-0.0010562379
-0.00067366434
-0.00038053368
-0.00017909539
-0.047930658
-0.048067125
-0.045622573
-0.040710711
-0.033719997
-0.025387307
-0.016628853
-0.008339971
-0.00065509127
0.0053918452
0.0095245788
0.012405108
0.014027231
0.014487101
0.014080728
0.012760015
0.010851755
0.0083773838
0.0056302366
0.0028052735
0.00014882696
-0.0021343158
-0.0038932404
-0.0050581017
-0.005636685
-0.0056983261
-0.0053470585
-0.004692442
-0.003842217
-0.0029066502
-0.0019784158
-0.0010947817
-0.0002469678
0.0005509153
0.001216457
0.0017621203
0.0021928136
0.0025121505
0.0027184397
-0.050001638
-0.045234602
-0.038948999
-0.032052993
-0.025390204
-0.019448082
-0.014458966
-0.010460848
-0.0073767752
-0.0051864688
-0.0036289397
-0.0025392019
-0.0018446622
-0.0013258394
-0.00091049306
-0.00058647683
-0.00031957731
-0.00015736601
-0.052433874
-0.052016926
-0.048804207
-0.042982595
-0.035013527
-0.025764264
-0.016219961
-0.0072925012
0.00062276628
0.0065735161
0.010599503
0.013267032
0.014613275
0.014743777
0.013983062
0.012270062
0.0099830683
0.0071744132
0.0041673815
0.0011914857
-0.0014993943
-0.0037062515
-0.0053011812
-0.0062502155
-0.0065962711
-0.0064336339
-0.0058751441
-0.0050409098
-0.0040632429
-0.0030600289
-0.0020811549
-0.0011132719
-0.00017298634
0.00062380948
0.0012915615
0.0018372528
0.0022687427
0.0025894423
0.0027976799
-0.05478292
-0.050001139
-0.043393975
-0.035961791
-0.028706924
-0.022141289
-0.016540006
-0.012035376
-0.0085346678
-0.0060191942
-0.0041841873
-0.0028918047
-0.0021031279
-0.0015308496
-0.001101782
-0.00076337323
-0.00049661108
-0.00028473136
-0.00014391536
-0.056896544
-0.055907918
-0.051926262
-0.045141083
-0.036130173
-0.025890078
-0.015556346
-0.006032599
0.0019383018
0.007783764
0.011674076
0.014057598
0.01508164
0.014830046
0.013670537
0.011532574
0.0088502208
0.0057144354
0.0024768127
-0.0006040735
-0.0032734644
-0.0053473014
-0.0067326802
-0.0074356207
-0.0075299643
-0.0071241917
-0.0063468728
-0.0053527417
-0.0042891807
-0.0032209567
-0.0021295999
-0.0010346025
-9.4840726e-05
0.00070455369
0.0013713657
0.0019170738
0.0023488631
0.0026706245
0.0028804821
-0.059524227
-0.05480271
-0.047931063
-0.03997577
-0.032072397
-0.024880694
-0.018665337
-0.013603741
-0.0096737105
-0.0068348677
-0.004725914
-0.0032172869
-0.0023186952
-0.0016717094
-0.0012191078
-0.00089216837
-0.00062803924
-0.00043193448
-0.00023069139
-0.00012484631
-0.061309646
-0.059775316
-0.054978368
-0.047142579
-0.036990903
-0.025744437
-0.014628329
-0.0046745241
0.0033052968
0.0090283153
0.012700356
0.014746471
0.015399867
0.014707675
0.013104763
0.010515566
0.0074300997
0.0039858953
0.00055940946
-0.0025693189
-0.0051543528
-0.0070387519
-0.008174303
-0.0086026562
-0.008417571
-0.0077494892
-0.0067741847
-0.0056720922
-0.0045258283
-0.0033096416
-0.0020468139
-0.00095037269
-7.2486852e-06
0.00079028583
0.0014563257
0.002001399
0.0024331603
0.0027555941
0.00296681
-0.06421799
-0.059560333
-0.052489739
-0.044062676
-0.03551757
-0.027635318
-0.020800475
-0.0151734
-0.01076187
-0.0075945077
-0.0052213342
-0.0035043537
-0.0024789217
-0.0017431234
-0.0012588984
-0.00094046978
-0.0007050419
-0.0005287394
-0.00034014109
-0.00019644742
-0.00010059531
-0.065719835
-0.063609019
-0.057914175
-0.048903182
-0.037562361
-0.025322215
-0.013484086
-0.0032558547
0.004748516
0.01026525
0.013643867
0.015298484
0.015525559
0.014333911
0.012246732
0.0091871238
0.005702987
0.0019826211
-0.0015772494
-0.004686406
-0.0071216744
-0.0087650766
-0.0096110604
-0.0097257751
-0.0092318406
-0.0083220544
-0.0072127281
-0.0060067011
-0.0046681658
-0.0032241848
-0.0019558863
-0.00085477787
8.5665775e-05
0.00088169769
0.0015461545
0.0020902345
0.0025214613
0.0028442765
0.0030566426
-0.06890533
-0.064265301
-0.056997119
-0.048152478
-0.039005197
-0.030434467
-0.022920562
-0.016719023
-0.011813832
-0.0082698287
-0.0056331185
-0.0037228244
-0.0025624409
-0.0017392845
-0.0012040374
-0.00090577943
-0.00070535792
-0.00056518326
-0.00040497882
-0.00028903236
-0.00014766726
-8.4068299e-05
-0.070116844
-0.067368447
-0.060645363
-0.05037242
-0.037832811
-0.024650515
-0.012168308
-0.0017022846
0.0062083919
0.0114657
0.014473346
0.015672414
0.015412637
0.013664014
0.011057477
0.0075184451
0.0036539363
-0.00029311138
-0.0039175873
-0.0069352195
-0.009157172
-0.010507857
-0.011011284
-0.010769466
-0.0099851026
-0.0089113372
-0.0076730796
-0.0062202977
-0.0045826257
-0.0031263371
-0.0018513072
-0.00075342668
0.00018489011
0.00097842297
0.0016408711
0.002183304
0.0026136383
0.002936636
0.0031499586
-0.073585757
-0.068948357
-0.061440142
-0.052170582
-0.042460204
-0.033237306
-0.025049107
-0.018223398
-0.012813439
-0.0088829935
-0.0059391397
-0.0038356859
-0.00256143
-0.001631774
-0.0010585937
-0.00077567354
-0.00061724889
-0.00052394074
-0.00041707639
-0.0003263545
-0.00020942335
-0.00011854665
-5.9577354e-05
-0.074466077
-0.070970782
-0.063109677
-0.051529569
-0.03782899
-0.023744522
-0.010675016
-3.222632e-05
0.0076648509
0.012611097
0.01515121
0.01581894
0.015009703
0.012653234
0.0094963613
0.0054841913
0.0012763495
-0.002831436
-0.0064434133
-0.0092977523
-0.011239998
-0.012228444
-0.012329383
-0.011744781
-0.010762977
-0.0095318025
-0.007980574
-0.0061390118
-0.0044782105
-0.0030120842
-0.0017403235
-0.00064499082
0.00028997059
0.0010804612
0.0017400883
0.0022804225
0.0027097296
0.0030327216
0.0032466187
-0.078225768
-0.073612842
-0.065836736
-0.056101648
-0.045811515
-0.035963476
-0.027141535
-0.019704464
-0.013751987
-0.0094287995
-0.0061715716
-0.0038233127
-0.0024416326
-0.0014316262
-0.00079880953
-0.00054270422
-0.00042719783
-0.00039840801
-0.00035143587
-0.00030815164
-0.00022261018
-0.00015702105
-7.0575301e-05
-4.4347245e-05
-0.078697785
-0.074345643
-0.065290735
-0.052390944
-0.037565015
-0.022591791
-0.0090029767
0.0016740242
0.0091072662
0.013650312
0.015629126
0.015679167
0.014261902
0.011252328
0.0075261831
0.0030664055
-0.0014265962
-0.0056185001
-0.0091390647
-0.011750604
-0.013323966
-0.013869468
-0.013573964
-0.012756117
-0.011585691
-0.0099621182
-0.0079103909
-0.0060293102
-0.0043541519
-0.0028904605
-0.0016212928
-0.00053001382
0.00040089698
0.0011873126
0.0018435594
0.0023817582
0.0028099811
0.0031321939
0.0033465432
-0.08276825
-0.078227903
-0.070188977
-0.059947288
-0.049035113
-0.038546336
-0.029119296
-0.021117418
-0.014644366
-0.0098994396
-0.0063253165
-0.003730591
-0.0021771765
-0.0011177136
-0.0004424597
-0.00020039286
-0.00012822947
-0.00017267054
-0.0001975828
-0.00021532848
-0.00018241968
-0.00014434387
-8.4681137e-05
-4.0407983e-05
-2.1254672e-05
-0.082737619
-0.077486864
-0.067200857
-0.052978318
-0.037029783
-0.021203941
-0.0072288749
0.0033906307
0.01048232
0.014517589
0.015847757
0.015190066
0.013110378
0.0094112565
0.0051162313
0.00025726699
-0.0044468962
-0.0086421982
-0.011981632
-0.014238292
-0.015338317
-0.015435865
-0.01487091
-0.013831743
-0.012175429
-0.0099133871
-0.0077981332
-0.005896196
-0.0042212462
-0.0027595525
-0.0014948108
-0.00040850003
0.00051701708
0.0012986742
0.0019516639
0.0024878684
0.002913741
0.0032349344
0.0034496283
-0.087143864
-0.082743592
-0.074469185
-0.063711289
-0.052127865
-0.040955744
-0.030923703
-0.022391292
-0.015452629
-0.010309494
-0.0063966418
-0.0035580953
-0.0018276203
-0.00065005319
1.6076547e-05
0.00024343447
0.00026928008
0.00015645689
5.4395111e-05
-3.8430791e-05
-7.0145871e-05
-8.1235611e-05
-5.3415898e-05
-2.885878e-05
2.1334468e-06
-5.8333025e-06
-0.086598001
-0.080412348
-0.068854837
-0.053281975
-0.036227837
-0.01960548
-0.0053426001
0.0050877392
0.011730626
0.015131529
0.0157411
0.014284357
0.01149294
0.0070867831
0.0022470439
-0.0029458147
-0.0077805043
-0.011882103
-0.01490821
-0.016676394
-0.017283374
-0.017077578
-0.016259555
-0.014626941
-0.012163243
-0.0098034228
-0.0076581219
-0.0057519716
-0.0040774237
-0.0026199539
-0.0013608857
-0.00028129218
0.00063799105
0.0014152519
0.0020653785
0.0025976412
0.0030208736
0.003340751
0.003555775
-0.091367362
-0.087101388
-0.078630358
-0.067365832
-0.055090495
-0.043189363
-0.032520891
-0.023476963
-0.01612093
-0.010634172
-0.0063935311
-0.0032961595
-0.0013991343
-9.067629e-05
0.00060486361
0.00079418805
0.00075496253
0.00058564672
0.00040450405
0.00023023762
0.00012141093
4.8548158e-05
2.7301735e-05
2.3360366e-05
3.5116668e-05
3.5897151e-05
1.3631154e-05
-0.090300847
-0.083139679
-0.070240449
-0.053304675
-0.035172305
-0.017807783
-0.0033694342
0.0067385543