/*--------------------------------*- C++ -*----------------------------------*\
| =========                 |                                                 |
| \\      /  F ield         | OpenFOAM: The Open Source CFD Toolbox           |
|  \\    /   O peration     | Version:  5.0                                   |
|   \\  /    A nd           | Web:      www.OpenFOAM.org                      |
|    \\/     M anipulation  |                                                 |
\*---------------------------------------------------------------------------*/
FoamFile
{
    version     2.0;
    format      ascii;
    class       volScalarField;
    location    "360";
    object      pPrime2Mean;
}
// * * * * * * * * * * * * * * * * * * * * * * * * * * * * * * * * * * * * * //

dimensions      [0 4 -4 0 0 0 0];

internalField   nonuniform List<scalar> 
9520
(
1.8270153e-07
1.7020561e-07
1.2384869e-06
1.4911882e-07
1.1533185e-06
3.3506659e-06
1.2350716e-07
1.0094772e-06
3.1213242e-06
6.5692062e-06
9.6925564e-08
8.345207e-07
2.733785e-06
6.120309e-06
1.1061218e-05
7.2123849e-08
6.5268577e-07
2.2621036e-06
5.3614191e-06
1.030835e-05
1.7016734e-05
5.0988424e-08
4.8274234e-07
1.7714221e-06
4.4371458e-06
9.0348033e-06
1.5863621e-05
2.4703436e-05
3.4628944e-08
3.3736736e-07
1.3122196e-06
3.474832e-06
7.482185e-06
1.3911697e-05
2.3039406e-05
3.4427238e-05
2.3558225e-08
2.2368908e-07
9.1877598e-07
2.5733332e-06
5.8637092e-06
1.1529274e-05
2.021957e-05
3.2124944e-05
4.6547922e-05
1.7855713e-08
1.4433333e-07
6.1047984e-07
1.80015e-06
4.345466e-06
9.0421857e-06
1.677236e-05
2.8218495e-05
4.3461443e-05
6.1470521e-05
1.740004e-08
9.8753907e-08
3.9437501e-07
1.1936157e-06
3.0415037e-06
6.7053689e-06
1.3166788e-05
2.3433767e-05
3.8217036e-05
5.7435223e-05
7.9645614e-05
2.2302949e-08
8.4611886e-08
2.6870582e-07
7.6795139e-07
2.0172089e-06
4.6950352e-06
9.772028e-06
1.8417429e-05
3.1779838e-05
5.0567708e-05
7.4478002e-05
0.00010155868
3.3092467e-08
9.8250145e-08
2.2553761e-07
5.1898377e-07
1.2975968e-06
3.1136098e-06
6.8452666e-06
1.3681967e-05
2.5012726e-05
4.2117973e-05
6.5667873e-05
9.5057644e-05
0.00012772715
5.1062119e-08
1.3482353e-07
2.5242974e-07
4.2917471e-07
8.7718607e-07
2.0018672e-06
4.5381888e-06
9.5877183e-06
1.8604143e-05
3.3207847e-05
5.4798487e-05
8.3952344e-05
0.0001196759
0.00015869115
7.8227907e-08
1.9182189e-07
3.3679773e-07
4.7560895e-07
7.2987492e-07
1.3540534e-06
2.9134402e-06
6.3502857e-06
1.3043613e-05
2.4739108e-05
4.3297156e-05
7.0209947e-05
0.00010589292
0.00014886026
0.00019500546
1.1840547e-07
2.6890171e-07
4.6720988e-07
6.3533945e-07
8.1963269e-07
1.1345305e-06
1.9659286e-06
4.0619397e-06
8.629176e-06
1.7360688e-05
3.2320708e-05
5.5612456e-05
8.87808e-05
0.00013199168
0.00018315692
0.00023722718
1.7497475e-07
3.6813529e-07
6.3421856e-07
8.824481e-07
1.1032209e-06
1.2883887e-06
1.6443533e-06
2.719476e-06
5.4935615e-06
1.1475573e-05
2.2712937e-05
4.1617287e-05
7.0526578e-05
0.00011097384
0.00016277597
0.00022311965
0.00028590566
2.5458771e-07
4.8387536e-07
8.3021972e-07
1.1875212e-06
1.5375846e-06
1.748191e-06
1.8676196e-06
2.2511993e-06
3.6386896e-06
7.2715861e-06
1.5009509e-05
2.9303115e-05
5.293695e-05
8.84493e-05
0.00013728467
0.00019878924
0.00026930011
0.00034156861
3.6371486e-07
6.464507e-07
1.0547868e-06
1.5350417e-06
2.0798305e-06
2.4484492e-06
2.5409049e-06
2.5438124e-06
2.9724903e-06
4.7647655e-06
9.4730192e-06
1.93709e-05
3.7369359e-05
6.6624259e-05
0.00010983014
0.00016823456
0.00024058234
0.00032223497
0.00040471222
5.1127589e-07
8.0985085e-07
1.311984e-06
1.909598e-06
2.695409e-06
3.332887e-06
3.5654325e-06
3.4650115e-06
3.3437007e-06
3.8441358e-06
6.1443587e-06
1.2182154e-05
2.4727393e-05
4.7182878e-05
8.3068464e-05
0.00013515267
0.00020436375
0.00028870243
0.00038243511
0.00047578735
6.9428397e-07
1.1079866e-06
1.595615e-06
2.3023791e-06
3.3559089e-06
4.3486048e-06
4.8613209e-06
4.8737696e-06
4.5708257e-06
4.3177502e-06
4.898806e-06
7.8179257e-06
1.5500405e-05
3.1274189e-05
5.9060895e-05
0.00010269849
0.00016493086
0.00024622282
0.00034368258
0.00045037312
0.00055519033
9.1881804e-07
1.335941e-06
1.9753175e-06
2.7245323e-06
4.0567003e-06
5.4596971e-06
6.3624887e-06
6.6474005e-06
6.4659635e-06
5.9483917e-06
5.5030901e-06
6.1469136e-06
9.829326e-06
1.9550077e-05
3.9249256e-05
7.3362534e-05
0.00012598318
0.00019970327
0.00029436355
0.00040602842
0.00052647355
0.00064324995
1.1748839e-06
1.8865045e-06
2.363538e-06
3.1986152e-06
4.7903976e-06
6.653193e-06
8.0123702e-06
8.6872583e-06
8.8455808e-06
8.4927931e-06
7.6606388e-06
6.8928813e-06
7.5852521e-06
1.2235415e-05
2.448899e-05
4.8931626e-05
9.0492487e-05
0.00015342801
0.00024002555
0.00034932567
0.00047621036
0.00061109961
0.00074022133
1.4688599e-06
2.1809839e-06
3.0645424e-06
3.7377272e-06
5.6019228e-06
7.9195292e-06
9.7782586e-06
1.0904689e-05
1.1550742e-05
1.1696059e-05
1.1059602e-05
9.6946193e-06
8.4484503e-06
9.2162993e-06
1.5120745e-05
3.0512934e-05
6.0646396e-05
0.00011090017
0.00018557029
0.00028646135
0.00041162901
0.00055464906
0.00070454622
0.00084627699
1.7370857e-06
3.109322e-06
3.6828086e-06
4.5178921e-06
6.4922698e-06
9.3195556e-06
1.165765e-05
1.3242702e-05
1.4449276e-05
1.5330755e-05
1.5370493e-05
1.4157042e-05
1.198415e-05
1.013103e-05
1.1065013e-05
1.8602758e-05
3.7858901e-05
7.4766096e-05
0.00013507782
0.00022297355
0.00033957094
0.00048176079
0.00064170709
0.0008070296
0.00096150421
2.0313146e-06
3.7488045e-06
4.9524281e-06
5.3792089e-06
7.6813157e-06
1.0851291e-05
1.3704685e-05
1.5687123e-05
1.7454181e-05
1.9207692e-05
2.0300124e-05
1.987447e-05
1.7696824e-05
1.4461353e-05
1.1925773e-05
1.3184634e-05
2.2831403e-05
4.6807866e-05
9.1711328e-05
0.00016355951
0.00026622074
0.00039990275
0.00056016541
0.00073767663
0.00091868388
0.0010859014
2.3600102e-06
5.0241289e-06
6.1269567e-06
6.8403449e-06
9.0354288e-06
1.2793787e-05
1.595836e-05
1.827493e-05
2.0516977e-05
2.319901e-05
2.5594846e-05
2.6478889e-05
2.5091649e-05
2.159624e-05
1.7094345e-05
1.3844597e-05
1.5650584e-05
2.7990971e-05
5.768697e-05
0.00011195471
0.00019691741
0.00031590181
0.00046798269
0.00064723136
0.00084277493
0.0010395561
0.0012193781
2.9106982e-06
6.2835369e-06
8.2346034e-06
8.473253e-06
1.112608e-05
1.503932e-05
1.8692575e-05
2.1094089e-05
2.3658143e-05
2.7213713e-05
3.1076627e-05
3.3647514e-05
3.3707677e-05
3.0922454e-05
2.5832509e-05
1.9884868e-05
1.5910951e-05
1.8557013e-05
3.430226e-05
7.0877677e-05
0.00013602095
0.00023575616
0.00037260829
0.00054430058
0.00074328386
0.00095713682
0.0011696056
0.0013617568
3.4850022e-06
7.600421e-06
1.039354e-05
1.124844e-05
1.3602592e-05
1.8211889e-05
2.1902241e-05
2.4384919e-05
2.6981634e-05
3.1260416e-05
3.6606032e-05
4.1145633e-05
4.3135663e-05
4.1860759e-05
3.7374532e-05
3.0435309e-05
2.2840039e-05
1.8147925e-05
2.2016962e-05
4.2033405e-05
8.682063e-05
0.00016448691
0.00028070243
0.00043692015
0.0006293007
0.00084857312
0.0010808123
0.0013087027
0.0015127764
4.0652411e-06
8.8810281e-06
1.2462464e-05
1.4340308e-05
1.7629502e-05
2.2021734e-05
2.6241442e-05
2.8288106e-05
3.071398e-05
3.5422097e-05
4.2180645e-05
4.8780501e-05
5.3064884e-05
5.3884863e-05
5.0991858e-05
4.4550897e-05
3.5437647e-05
2.5944499e-05
2.057289e-05
2.617396e-05
5.1509658e-05
0.00010602171
0.00019797685
0.00033239927
0.00050939532
0.00072336655
0.00096327042
0.0012137599
0.0014566317
0.0016720987
4.6336624e-06
9.6441648e-06
1.4590294e-05
1.7563482e-05
2.2273681e-05
2.7922196e-05
3.1437693e-05
3.3463974e-05
3.5125359e-05
3.9942917e-05
4.7850489e-05
5.6523223e-05
6.3242516e-05
6.657666e-05
6.6004357e-05
6.1320253e-05
5.2570722e-05
4.0824588e-05
2.9144094e-05
2.3207564e-05
3.1216451e-05
6.3125303e-05
0.00012905222
0.00023715627
0.00039149533
0.00059055267
0.00082681258
0.0010874607
0.0013558496
0.001613097
0.0018393149
4.9954515e-06
1.076696e-05
1.6074483e-05
2.0694885e-05
2.740093e-05
3.49575e-05
3.9373483e-05
3.9743696e-05
4.0871227e-05
4.5154745e-05
5.3888511e-05
6.4383187e-05
7.3594551e-05
7.9597351e-05
8.1847596e-05
7.9875586e-05
7.3111925e-05
6.1475092e-05
4.6504072e-05
3.2352597e-05
2.6095498e-05
3.7395404e-05
7.7349815e-05
0.00015655011
0.00028272341
0.00045862661
0.00068085855
0.00093987466
0.0012211402
0.0015068681
0.0017777279
0.002013954
5.1803109e-06
1.1223069e-05
1.806492e-05
2.3264993e-05
3.212407e-05
4.2757416e-05
4.9169954e-05
4.9347302e-05
4.7984329e-05
5.1750311e-05
6.0632207e-05
7.2646692e-05
8.4082838e-05
9.2799775e-05
9.80614e-05
9.946973e-05
9.5977406e-05
8.6530327e-05
7.1171434e-05
5.2308301e-05
3.5472945e-05
2.9325546e-05
4.5036455e-05
9.4735611e-05
0.00018921177
0.00033539501
0.00053440102
0.00078071384
0.0010627056
0.0013642135
0.0016665216
0.0019500865
0.0021954922
4.9983627e-06
1.1518584e-05
1.9233436e-05
2.6330603e-05
3.6362398e-05
4.9565793e-05
6.0221274e-05
6.1479449e-05
5.8871488e-05
5.9973602e-05
6.8830824e-05
8.1636871e-05
9.4981613e-05
0.00010609504
0.00011438357
0.00011947916
0.00012020781
0.00011466458
0.00010153685
8.1436338e-05
5.8019076e-05
3.8428822e-05
3.3050161e-05
5.4554306e-05
0.00011591572
0.00022778249
0.00039589432
0.00061938832
0.00089045012
0.0011953655
0.001516498
0.0018344395
0.0021296775
0.002383363
4.4759842e-06
1.1207805e-05
1.9963003e-05
2.8439214e-05
4.1012534e-05
5.6076067e-05
6.9751814e-05
7.6201161e-05
7.2952925e-05
7.214229e-05
7.8889728e-05
9.2130433e-05
0.00010659052
0.00011971649
0.00013065088
0.0001394948
0.00014497826
0.00014468115
0.00013601078
0.00011788772
9.1955541e-05
6.3408843e-05
4.1188643e-05
3.7505568e-05
6.6456391e-05
0.00014160192
0.00027304883
0.00046493854
0.00071410859
0.0010103146
0.0013378224
0.0016777261
0.0020101808
0.0023159562
0.0025769649
3.6709011e-06
1.0280635e-05
1.9773714e-05
2.9810053e-05
4.4442988e-05
6.2827699e-05
7.9135832e-05
8.909962e-05
9.1305414e-05
8.8116432e-05
9.2963633e-05
0.00010465517
0.00011972188
0.00013393517
0.00014702669
0.00015923512
0.00016970755
0.00017552117
0.00017313368
0.00015979226
0.00013519985
0.00010237565
6.8271436e-05
4.3790209e-05
4.3020628e-05
8.1346259e-05
0.00017257497
0.00032582815
0.00054322086
0.00081901081
0.0011404621
0.0014899505
0.0018475485
0.0021932451
0.002508336
0.0027756727
2.7159966e-06
8.7702637e-06
1.8495919e-05
2.9996008e-05
4.6593811e-05
6.8111689e-05
8.8738404e-05
0.00010189972
0.00010795722
0.0001101912
0.00011143895
0.00012113594
0.00013495795
0.00014958063
0.00016375497
0.0001787702
0.00019395581
0.00020640921
0.00021158023
0.00020539412
0.00018558147
0.00015302349
0.00011234478
7.2449102e-05
4.6352336e-05
5.0026377e-05
9.9924687e-05
0.0002096848
0.00038695244
0.00063139182
0.00093446288
0.0012809484
0.0016515319
0.0020255381
0.0023830819
0.0027062011
0.0029788455
1.8031211e-06
6.810681e-06
1.6178455e-05
2.857591e-05
4.7104173e-05
7.1273585e-05
9.6847141e-05
0.00011521109
0.00012488451
0.00013125585
0.00013785768
0.00014286475
0.0001540846
0.00016727433
0.00018164468
0.00019829185
0.00021768002
0.00023670659
0.0002503508
0.00025306783
0.00024101
0.00021286357
0.00017090184
0.00012154016
7.5841501e-05
4.9084155e-05
5.9061334e-05
0.00012299098
0.00025383986
0.00045725046
0.00073004489
0.0010607389
0.0014317302
0.0018222563
0.0022112059
0.0025790984
0.0029089144
0.0031858362
1.0863226e-06
4.7451558e-06
1.3054589e-05
2.5611242e-05
4.5194392e-05
7.2154798e-05
0.00010173249
0.00012741671
0.00014257518
0.0001535596
0.00016389773
0.00017398557
0.00017887984
0.00018879814
0.00020137819
0.00021855291
0.00024096731
0.00026624613
0.00028857217
0.00030154562
0.00029951962
0.00027942617
0.00024112413
0.00018840082
0.00012967431
7.8415345e-05
5.2293285e-05
7.0783552e-05
0.0001514412
0.0003059907
0.00053752744
0.00083969664
0.0011980132
0.0015926589
0.0020017306
0.0024040074
0.0027806699
0.0031158265
0.0033959992
6.8662534e-07
2.9791712e-06
9.6964336e-06
2.1412896e-05
4.0961403e-05
6.9476635e-05
0.00010365177
0.00013520123
0.00016009853
0.00017601129
0.00019255765
0.00020532703
0.00021415307
0.00021600646
0.0002247819
0.00024030992
0.00026452097
0.0002949461
0.00032592767
0.00034968023
0.00035951101
0.00035035196
0.00032012033
0.00026988703
0.00020510237
0.00013649026
8.0208127e-05
5.6405594e-05
8.5974523e-05
0.00018626178
0.00036711103
0.00062854379
0.00096077384
0.0013463479
0.0017634864
0.0021894885
0.0026033486
0.0029871501
0.0033262859
0.003608698
1.9500966e-06
6.7797703e-07
6.7878615e-06
1.6783464e-05
3.4867892e-05
6.3388053e-05
0.00010067413
0.00013945532
0.0001719829
0.00019973668
0.00022005426
0.00024129618
0.00025140733
0.00025449955
0.00025361213
0.00026538758
0.00028908586
0.00032346024
0.0003621113
0.00039697043
0.00041952008
0.00042363402
0.00040506949
0.00036265398
0.00029869178
0.00022057809
0.00014175021
8.1350955e-05
6.1982044e-05
0.00010554487
0.00022851611
0.00043817622
0.00073099589
0.0010935954
0.0015056936
0.0019438695
0.0023849979
0.0028085988
0.0031978802
0.0035396445
0.003823311
5.0884843e-06
1.9512471e-06
1.0612095e-06
1.2735868e-05
2.8085081e-05
5.4564974e-05
9.2946007e-05
0.00013746384
0.00017998368
0.00021656279
0.00025080495
0.00027442111
0.0002958063
0.00029759132
0.00029422636
0.00029536563
0.000316475
0.0003524303
0.0003977148
0.00044282675
0.00047880028
0.00049743197
0.00049347494
0.00046335479
0.00040663613
0.00032703468
0.00023435879
0.0001452441
8.2083727e-05
6.9736397e-05
0.00013053496
0.00027932722
0.00052014037
0.00084549229
0.0012383648
0.0016758867
0.0021333783
0.0025876684
0.0030190996
0.003412196
0.0037552664
0.0040392373
1.0368162e-05
5.0859646e-06
2.9808929e-06
1.7614868e-06
2.2171114e-05
4.4711771e-05
8.132046e-05
0.00012920779
0.00018050932
0.00022938451
0.00027332982
0.0003132564
0.00033544846
0.00035051491
0.00034200406
0.00033696433
0.00034823215
0.00038367617
0.00043316736
0.00048777022
0.00053644889
0.0005706705
0.00058303707
0.00056891339
0.00052501105
0.00045161756
0.00035430073
0.00024592192
0.00014682386
8.2789981e-05
8.0543984e-05
0.00016210652
0.00033985567
0.00061390925
0.00097253636
0.0013951609
0.0018566557
0.0023315023
0.002796863
0.0032341753
0.0036294384
0.003972533
0.0042559007
1.8696992e-05
1.0370221e-05
6.779219e-06
4.7465025e-06
2.6604326e-06
3.6137685e-05
6.8162965e-05
0.00011560267
0.00017317353
0.0002336045
0.00029185796
0.00034255989
0.00038427718
0.00039733015
0.0004026209
0.00038779919
0.00039047614
0.0004186122
0.00047031146
0.00053190298
0.00059287966
0.00064210823
0.00067224591
0.00067647335
0.00065008195
0.00058980268
0.00049697259
0.00037972432
0.00025471319
0.00014645075
8.403603e-05
9.5458633e-05
0.00020152864
0.00041127328
0.00072031373
0.0011125097
0.0015639367
0.0020476226
0.0025376604
0.0030119082
0.0034531417
0.0038489588
0.0041908483
0.0044727541
3.1047938e-05
1.8702435e-05
1.2739802e-05
9.6847401e-06
6.8107919e-06
3.6077895e-06
5.6614842e-05
9.9702262e-05
0.0001588082
0.00022831954
0.00030080339
0.00036834158
0.00042232081
0.0004581432
0.00045680724
0.00045539896
0.0004434779
0.00046275926
0.00051025314
0.00057713532
0.00064780609
0.00071197928
0.00075947712
0.00078396245
0.0007783309
0.00073713193
0.00065726333
0.00054181217
0.00040238366
0.00026019889
0.00014423985
8.6599133e-05
0.00011571294
0.00025015804
0.00049473156
0.00084008468
0.001265661
0.0017445163
0.0022483134
0.0027512102
0.0032321051
0.0036753157
0.0040701265
0.004409643
0.0046892817
4.9663232e-05
3.100598e-05
2.2184424e-05
1.678792e-05
1.3041346e-05
8.7677302e-06
4.4132574e-06
8.5430694e-05
0.00014112392
0.00021418045
0.00029862133
0.00038361932
0.00045779976
0.00050748473
0.00053065301
0.00051685023
0.00051802498
0.0005182001
0.00055838146
0.0006240697
0.0007032401
0.00077962274
0.00084467903
0.00088929894
0.00090699485
0.000889327
0.00082995192
0.00072654702
0.00058494351
0.00042124511
0.00026192093
0.00014051153
9.1489831e-05
0.0001427122
0.00030940966
0.0005913285
0.00097383171
0.0014320953
0.0019365995
0.002458163
0.0029714617
0.0034567403
0.0039000231
0.0042923331
0.0046283777
0.0049050008
7.6707543e-05
4.9553948e-05
3.6015176e-05
2.8104272e-05
2.1421797e-05
1.6165786e-05
1.0276964e-05
4.9427096e-06
0.00012469225
0.00019540533
0.00028562398
0.00038626102
0.00048214627
0.0005560621
0.000593458
0.00060454501
0.00058626384
0.00059947152
0.00061735943
0.00067834121
0.00075918317
0.00084713695
0.00092683552
0.00099199778
0.0010334263
0.0010428258
0.0010099153
0.00092794737
0.00079634637
0.00062489492
0.00043522757
0.00025957529
0.00013584357
9.9970743e-05
0.00017801529
0.00038072087
0.00070207802
0.0011220211
0.0016117704
0.0021397643
0.0026765302
0.0031976878
0.0036850961
0.0041266049
0.0045149961
0.004846545
0.005119464
0.0001145292
7.6548214e-05
5.63024e-05
4.4525681e-05
3.4894906e-05
2.5624303e-05
1.8489963e-05
1.1202246e-05
5.1359421e-06
0.00017724103
0.00026637855
0.00037592508
0.00049239249
0.00059310609
0.00065860209
0.0006825847
0.00068787808
0.00067350955
0.00070505984
0.00074136303
0.00082160866
0.00091399731
0.0010080404
0.0010906977
0.0011565463
0.0011942685
0.0011926886
0.0011399718
0.0010298938
0.00086488408
0.00065998117
0.00044330126
0.00025310132
0.00013111933
0.00011355816
0.00022330602
0.00046551196
0.00082787589
0.0012849611
0.0018044921
0.0023534792
0.002902709
0.003429139
0.0039164577
0.0043544205
0.004737563
0.0050636732
0.0053322601
0.0001659842
0.00011440798
8.4966426e-05
6.7682051e-05
5.4345506e-05
4.0996487e-05
2.8595142e-05
1.9772937e-05
1.1512935e-05
4.9635261e-06
0.00024682263
0.00035734923
0.0004870814
0.00061488803
0.00071235772
0.00076781497
0.00078177818
0.00078805813
0.00078436122
0.00083556631
0.00089045745
0.00098652959
0.0010874892
0.0011873001
0.0012746203
0.0013418613
0.0013740474
0.0013571501
0.0012785869
0.0011338969
0.00092996119
0.00068840457
0.00044459358
0.00024277916
0.00012757265
0.00013401372
0.0002803536
0.00056514451
0.00096947057
0.0014627867
0.0020099218
0.0025771137
0.0031359443
0.0036650493
0.0041501175
0.0045828549
0.0049595179
0.0052793294
0.0055430139
0.00023465308
0.00016608703
0.00012433341
9.8979735e-05
8.0738168e-05
6.3160096e-05
4.5241284e-05
3.0017539e-05
1.996628e-05
1.122341e-05
4.613707e-06
0.00033718463
0.00047102867
0.00061818694
0.00075031425
0.00084275124
0.00088985275
0.00089806563
0.00091150839
0.00092034408
0.00099233658
0.0010634104
0.0011716365
0.0012809106
0.0013890767
0.0014833807
0.0015513503
0.0015742323
0.0015358529
0.0014239868
0.0012374155
0.00098905994
0.00070837784
0.00043851688
0.00022928119
0.00012680291
0.00016331588
0.00035096487
0.00068087592
0.0011274343
0.0016554573
0.0022275838
0.0028099545
0.0033754374
0.0039046433
0.0043853856
0.0048113315
0.0051803877
0.0054931159
0.0057513831
0.00032453598
0.00023490878
0.00017750117
0.00014056155
0.00011472275
9.2330363e-05
6.9264557e-05
4.7158347e-05
2.9834159e-05
1.924086e-05
1.076759e-05
4.0549336e-06
0.00045149724
0.00060760886
0.00076687956
0.00090221394
0.0009898613
0.0010306643
0.0010369137
0.001060993
0.0010819931
0.0011744052
0.0012583503
0.0013778298
0.0014990091
0.0016195828
0.0017217229
0.0017875917
0.001795247
0.0017273963
0.001573524
0.0013373501
0.0010394708
0.00071827401
0.00042487254
0.00021371911
0.00013076343
0.0002036178
0.00043692861
0.00081381435
0.0013021461
0.0018627583
0.0024568789
0.0030512081
0.0036203558
0.00414715
0.004621611
0.0050393204
0.0053997309
0.005704659
0.0059670409
0.00043893284
0.00032489373
0.00024750508
0.00019574718
0.00015811391
0.00012826894
0.00010008539
7.1967848e-05
4.6651188e-05
2.8466272e-05
1.8074824e-05
9.6482434e-06
3.4831082e-06
0.00059071839
0.00076584772
0.00093731561
0.0010756679
0.0011584786
0.0011950879
0.0012022966
0.0012376345
0.0012687734
0.0013785738
0.0014758227
0.001610311
0.0017494699
0.0018851257
0.0019934497
0.0020519907
0.0020363158
0.0019293087
0.0017237509
0.0014301599
0.0010784388
0.0007167657
0.0004039559
0.00019769733
0.00014175035
0.00025718741
0.00053995466
0.00096488349
0.0014937828
0.0020843065
0.0026970834
0.0033000124
0.0038698518
0.0043918362
0.0048581935
0.0052663162
0.005617114
0.0059226158
0.0061947183
0.00057907934
0.00043903086
0.0003381445
0.00026733106
0.00021453007
0.00017242389
0.00013656318
0.00010312444
7.1120739e-05
4.4501042e-05
2.6351934e-05
1.6088264e-05
8.8841807e-06
2.9129487e-06
0.00075474709
0.00095039853
0.0011344642
0.0012745475
0.0013529645
0.0013878626
0.0013957451
0.0014401977
0.0014783219
0.001605248
0.0017207719
0.0018782751
0.002040316
0.0021908893
0.0023011183
0.0023446458
0.002295454
0.0021380845
0.0018705045
0.0015120067
0.0011033384
0.00070298717
0.00037666262
0.00018334886
0.00016235422
0.00032633602
0.00066161789
0.0011347976
0.001702311
0.0023195411
0.0029473564
0.0035554637
0.0041231106
0.0046380211
0.0050945447
0.0054917972
0.0058406913
0.0061519294
0.0064282538
0.00074586505
0.00057859725
0.00045181046
0.0003586945
0.00028668338
0.0002286362
0.00017979676
0.00013864606
0.00010129691
6.7990349e-05
4.1073626e-05
2.3283535e-05
1.4601324e-05
7.6078348e-06
2.3641059e-06
0.00094841681
0.0011660486
0.0013612028
0.0015025399
0.0015788907
0.001611552
0.0016183231
0.0016639224
0.0017111465
0.0018587602
0.0020041453
0.002191731
0.0023781142
0.0025407209
0.0026459123
0.0026643315
0.0025694525
0.0023492404
0.0020090279
0.0015789241
0.0011118687
0.00067669013
0.00034455125
0.00017330808
0.00019538871
0.0004133466
0.00080331461
0.0013240347
0.0019274628
0.0025677264
0.0032067795
0.0038166798
0.0043793672
0.0048850163
0.0053300256
0.0057238791
0.0060755506
0.0063880481
0.0066675637
0.00094408488
0.00074504571
0.00058937289
0.00047138727
0.00037740828
0.0002996281
0.00023387926
0.00017935428
0.00013453914
9.6496462e-05
6.2738464e-05
3.642e-05
2.0707066e-05
1.2472193e-05
6.295311e-06
2.0375721e-06
0.0011761881
0.0014147098
0.0016203798
0.0017655105
0.0018404457
0.001867641
0.0018662135
0.0019062695
0.0019676314
0.0021518436
0.0023378533
0.002558619
0.0027680508
0.0029370607
0.0030276589
0.0030085082
0.0028539181
0.0025574129
0.0021341227
0.0016270239
0.001102255
0.00063837664
0.00030987192
0.00017064959
0.0002438121
0.00052041016
0.0009662091
0.001532786
0.0021687281
0.0028280015
0.0034744373
0.0040828195
0.0046378187
0.0051320343
0.0055731727
0.005967728
0.0063182105
0.006630853
0.0069125452
0.0011780399
0.00094308564
0.00075247327
0.00060551647
0.00048731519
0.0003876475
0.00030167164
0.00022961821
0.00017148098
0.00012688237
8.8481683e-05
5.6020065e-05
3.2174586e-05
1.7571698e-05
1.0407776e-05
5.0292065e-06
1.7465845e-06
0.0014391479
0.0016979637
0.0019181474
0.0020698542
0.0021404128
0.0021532939
0.0021323589
0.0021678552
0.0022615325
0.0024999135
0.002731129
0.0029856541
0.0032139046
0.0033810366
0.003444824
0.0033732743
0.00314329
0.0027564514
0.0022403259
0.001652723
0.0010734465
0.00058940559
0.00027557594
0.00017884536
0.00031065281
0.00064954378
0.0011511481
0.0017609292
0.0024254146
0.0030994825
0.0037494377
0.004352957
0.0048974979
0.0053885278
0.0058291574
0.0062204556
0.0065685259
0.0068801952
0.007163074
0.0014484297
0.001177246
0.0009457762
0.00076241171
0.000615543
0.00049242332
0.00038480616
0.00029258239
0.00021677796
0.00015971982
0.00011482046
7.8962863e-05
4.9529828e-05
2.7440352e-05
1.4354553e-05
8.2458051e-06
3.7500789e-06
1.4784695e-06
0.0017371739
0.0020214934
0.0022629122
0.0024201063
0.0024775299
0.00246146
0.0024144043
0.0024586892
0.0026120099
0.0029134548
0.0031918151
0.0034780695
0.0037182836
0.0038724803
0.0038944967
0.0037533598
0.0034308788
0.0029395362
0.002322133
0.001652987
0.001025312
0.00053207702
0.00024531206
0.00020168098
0.00039889604
0.00080245681
0.0013586032
0.0020081018
0.0026967738
0.0033812766
0.0040307362
0.0046259172
0.005169324
0.0056595937
0.0060952141
0.0064818998
0.0068263166
0.0071358881
0.0074190075
0.0017539321
0.0014488225
0.0011740738
0.00094651693
0.00076269711
0.00061196367
0.00048196728
0.0003692721
0.00027388067
0.00019991293
0.00014233383
0.00010163502
6.962744e-05
4.2746224e-05
2.2310431e-05
1.1262137e-05
6.1319954e-06
3.1119998e-06
1.1834796e-06
0.0020748702
0.0023949779
0.0026609317
0.0028172442
0.0028447122
0.0027844403
0.0027216284
0.0027989214
0.0030304486
0.003401721
0.0037266056
0.0040402771
0.0042827596
0.004409858
0.0043722435
0.0041420779
0.0037089283
0.003099366
0.0023742777
0.0016256221
0.00095881887
0.00046966966
0.0002233621
0.00024312442
0.00051129919
0.00098045118
0.0015887519
0.0022738455
0.0029820018
0.0036722432
0.0043169289
0.0049146932
0.0054582319
0.0059420785
0.0063711746
0.0067518611
0.0070913496
0.0073977163
0.0076801809
0.0020972445
0.0017557939
0.0014402598
0.001163072
0.00093260598
0.00074585137
0.00059016214
0.00045749789
0.0003432733
0.00025122911
0.00017615894
0.00012472701
8.8907863e-05
6.0157064e-05
3.4943187e-05
1.765573e-05
8.4831422e-06
4.9581908e-06
2.1848461e-06
9.2713495e-07
0.0024625839
0.002826463
0.003115961
0.0032545787
0.0032309152
0.0031287642
0.0030720272
0.0032040104
0.0035279219
0.0039723525
0.004342002
0.0046757841
0.0049076392
0.0049900639
0.0048720276
0.0045313294
0.0039687099
0.0032283818
0.0023920147
0.0015695313
0.00087618425
0.00040648386
0.00021452329
0.00030709032
0.00065023687
0.0011845082
0.0018416466
0.0025575852
0.0032799201
0.003970741
0.0046237621
0.0052239633
0.0057601054
0.0062358172
0.006656832
0.0070300741
0.0073633531
0.0076654264
0.007946412
0.0024894865
0.002099933
0.0017422995
0.0014165087
0.0011308999
0.0008972292
0.00070798659
0.00055334638
0.00042200687
0.00031383032
0.00022038278
0.00015366163
0.00010785267
7.6098004e-05
4.9151651e-05
2.7912567e-05
1.3616019e-05
6.8488123e-06
3.6890453e-06
1.8878059e-06
7.0035287e-07
0.0029093894
0.0033212229
0.0036231309
0.0037206809
0.0036397562
0.0035094635
0.0034777072
0.0036915197
0.0041112864
0.004633841
0.0050436594
0.0053870324
0.0055916718
0.0056083266
0.0053861583
0.0049115582
0.0042006377
0.0033190617
0.0023714926
0.0014849996
0.00078101377
0.00034776938
0.0002238437
0.00039723321
0.00081779449
0.0014154742
0.0021171418
0.0028582038
0.0035886638
0.0042960277
0.0049555899
0.0055480102
0.0060747945
0.0065406099
0.0069519026
0.0073162247
0.0076420046
0.0079387381
0.0082174978
0.0029397284
0.0024925181
0.0020821127
0.0017054603
0.0013631882
0.0010718813
0.00083792646
0.00065468188
0.00050525706
0.00038406341
0.00027480463
0.00019277517
0.00013136584
9.127009e-05
6.1440657e-05
3.9349806e-05
2.2013732e-05
1.1138576e-05
5.3838837e-06
3.0686536e-06
1.3384545e-06
5.1572737e-07
0.0034205091
0.0038770724
0.0041716464
0.0042169881
0.0040842766
0.0039507177
0.0039581064
0.0042634028
0.0047914633
0.0053946944
0.0058364318
0.0061750347
0.0063319555
0.0062581024
0.0059050874
0.0052717451
0.004394469
0.0033643235
0.0023101806
0.0013739928
0.00067832558
0.00029944692
0.00025635422
0.00051704089
0.0010159565
0.0016739138
0.0024143429
0.0031736659
0.0039318003
0.0046521206
0.0053043649
0.0058867152
0.0064021226
0.0068561671
0.0072560433
0.0076099369
0.0079269435
0.0082173352
0.0084932169
0.0034525525
0.0029429452
0.0024711125
0.0020318989
0.0016287784
0.001276394
0.00098612576
0.00076351629
0.00059033438
0.00045650501
0.00033531306
0.00024158665
0.00016403855
0.00011024339
7.2953278e-05
4.9305114e-05
3.1419959e-05
1.8203965e-05
9.0411486e-06
4.52258e-06
2.3679097e-06
1.1083955e-06
3.6700754e-07
0.0039949544
0.0044855059
0.0047625365
0.0047574499
0.0045885077
0.004459488
0.0045186099
0.0049316088
0.0055788867
0.0062631428
0.0067240147
0.0070392077
0.0071238346
0.0069307852
0.0064172462
0.0055994242
0.0045396611
0.0033579841
0.0022072934
0.0012403397
0.00057435392
0.00026783507
0.00031718186
0.00067001671
0.0012463524
0.0019593885
0.0027311527
0.0035326481
0.0043130972
0.0050278206
0.005670017
0.0062399459
0.0067418111
0.0071821324
0.0075688397
0.0079107855
0.0082177614
0.0085008895
0.0087733708
0.0040265715
0.0034546143
0.0029184932
0.0024072211
0.0019298747
0.0015105184
0.0011596223
0.00088650141
0.00067918132
0.00052842434
0.0003963015
0.00029575298
0.00020551426
0.00013794028
8.8169303e-05
5.8868145e-05
3.9719316e-05
2.623013e-05
1.5033574e-05
7.6849805e-06
3.7409314e-06
1.9785817e-06
8.109448e-07
2.5685589e-07
0.0046275406
0.0051498277
0.005412623
0.0053590714
0.0051586359
0.0050413185
0.0051707906
0.0057112834
0.0064844913
0.0072459642
0.0077088079
0.007977472
0.0079606866
0.0076153489
0.006908813
0.0058808677
0.0046258549
0.0032953708
0.0020642092
0.0010896764
0.00047633024
0.000259784
0.00041172018
0.00085928339
0.0015093347
0.0022699311
0.0031020745
0.0039389346
0.0047173357
0.0054231189
0.0060524765
0.0066074536
0.0070935065
0.0075180683
0.007889816
0.0082182857
0.0085140406
0.0087890936
0.0090577088
0.0046591312
0.0040255793
0.003426316
0.0028395724
0.0022766658
0.0017766545
0.0013593249
0.0010312465
0.00077915425
0.00060217828
0.00045544522
0.00034989988
0.00025143124
0.00017407322
0.00011146075
7.2174066e-05
4.7982978e-05
3.3450501e-05
2.1893408e-05
1.2788188e-05
6.4933421e-06
3.2014001e-06
1.5985466e-06
6.4706317e-07
1.7652269e-07
0.0053240497
0.0058903933
0.0061382879
0.0060316531
0.0058049956
0.0057036184
0.0059352895
0.0066150642
0.0075178056
0.0083482236
0.0087917744
0.008986046
0.0088333461
0.0082978199
0.0073636049
0.0061014414
0.0046435303
0.0031739857
0.0018846767
0.00092933418
0.0003926326
0.00028284935
0.00054504792
0.0010864114
0.0018033536
0.0026463377
0.0035314464
0.0043724311
0.0051445729
0.0058380283
0.0064515458
0.0069889075
0.0074567649
0.0078634635
0.0082184253
0.0085319458
0.0088153779
0.0090815772
0.0093459692
0.0053582565
0.0046551485
0.0039926572
0.0033297731
0.0026755826
0.0020829486
0.0015878457
0.0011996776
0.00089842731
0.00068601202
0.00051539475
0.00040181846
0.00029731204
0.0002141898
0.00014287118
9.2957699e-05
5.9965113e-05
4.0865973e-05
2.8279233e-05
1.868488e-05
1.0847202e-05
5.6023014e-06
2.7269058e-06
1.3143679e-06
4.8466842e-07
1.1952268e-07
0.0061078904
0.0067255422
0.006947671
0.0067801984
0.0065249456
0.0064669553
0.0068244653
0.0076548253
0.0086874886
0.0095738595
0.0099728565
0.010058956
0.0097293117
0.0089608465
0.007763163
0.0062461887
0.0045848696
0.0029940204
0.001674894
0.00076864137
0.0003330373
0.00034450151
0.00072047136
0.0013506878
0.0021754756
0.003094453
0.0039935842
0.0048332508
0.0055949173
0.0062724214
0.0068669376
0.0073838747
0.0078310564
0.0082177246
0.008554116
0.0088512743
0.0091213042
0.0093779331
0.0096378791
0.0061473548
0.0053530914
0.0046175291
0.0038745616
0.0031255172
0.0024338961
0.0018509587