/*--------------------------------*- C++ -*----------------------------------*\
| =========                 |                                                 |
| \\      /  F ield         | OpenFOAM: The Open Source CFD Toolbox           |
|  \\    /   O peration     | Version:  5.0                                   |
|   \\  /    A nd           | Web:      www.OpenFOAM.org                      |
|    \\/     M anipulation  |                                                 |
\*---------------------------------------------------------------------------*/
FoamFile
{
    version     2.0;
    format      ascii;
    class       volVectorField;
    location    "360";
    object      U;
}
// * * * * * * * * * * * * * * * * * * * * * * * * * * * * * * * * * * * * * //

dimensions      [0 1 -1 0 0 0 0];

internalField   nonuniform List<vector> 
9520
(
(1.0143859 0.000166675 0)
(1.0144837 0.00048827306 0)
(1.0138905 0.00016459597 0)
(1.0146559 0.00078675999 0)
(1.0139906 0.00048341969 0)
(1.0137008 0.00016226481 0)
(1.0148864 0.0010616606 0)
(1.014168 0.00078080101 0)
(1.0138003 0.00047643174 0)
(1.0133952 0.00016330961 0)
(1.0151607 0.001312375 0)
(1.0144077 0.0010560733 0)
(1.0139782 0.00077011338 0)
(1.0134948 0.00047844944 0)
(1.0131586 0.00016862613 0)
(1.0154662 0.0015386833 0)
(1.0146958 0.0013090911 0)
(1.0142196 0.0010428615 0)
(1.0136734 0.00077321148 0)
(1.013259 0.00049339373 0)
(1.0128871 0.00017495763 0)
(1.0157917 0.0017405594 0)
(1.0150194 0.0015389398 0)
(1.0145111 0.0012961435 0)
(1.0139153 0.0010479207 0)
(1.0134382 0.00079731281 0)
(1.0129875 0.00051287716 0)
(1.012635 0.00017760939 0)
(1.0161274 0.0019173449 0)
(1.0153683 0.0017456288 0)
(1.0148403 0.0015285782 0)
(1.0142083 0.0013053561 0)
(1.0136804 0.0010815569 0)
(1.0131656 0.00083064134 0)
(1.0127346 0.00052287788 0)
(1.0123805 0.00017497988 0)
(1.0164657 0.0020679146 0)
(1.0157345 0.0019292982 0)
(1.0151966 0.0017396937 0)
(1.0145415 0.0015448596 0)
(1.0139738 0.0013485257 0)
(1.0134061 0.0011301836 0)
(1.0129105 0.00085023059 0)
(1.0124764 0.00051732829 0)
(1.0121469 0.00016843955 0)
(1.016801 0.0021902207 0)
(1.0161129 0.0020899981 0)
(1.0155712 0.0019294576 0)
(1.0149046 0.0017660927 0)
(1.014309 0.0015989464 0)
(1.0136969 0.0014126403 0)
(1.0131483 0.0011620821 0)
(1.0126461 0.00084473756 0)
(1.0122382 0.00049892705 0)
(1.0119301 0.0001613153 0)
(1.0171323 0.0022767633 0)
(1.0165025 0.0022284797 0)
(1.0159564 0.0020986983 0)
(1.0152873 0.0019685491 0)
(1.0146759 0.0018332381 0)
(1.0140289 0.0016803044 0)
(1.013436 0.0014585314 0)
(1.0128771 0.001160248 0)
(1.0124008 0.00081675453 0)
(1.0120165 0.00047733252 0)
(1.0117303 0.0001564266 0)
(1.0174661 0.0023338475 0)
(1.0169088 0.0023486344 0)
(1.0163464 0.002252753 0)
(1.0156786 0.0021525404 0)
(1.0150645 0.0020509537 0)
(1.0143928 0.0019346647 0)
(1.0137636 0.0017422549 0)
(1.0131564 0.0014649103 0)
(1.0126228 0.0011250987 0)
(1.0121711 0.00078208951 0)
(1.0118123 0.00046139111 0)
(1.0115421 0.00015449535 0)
(1.0178007 0.0023565192 0)
(1.017338 0.0024553617 0)
(1.0167349 0.0023996778 0)
(1.0160661 0.0023210174 0)
(1.0154638 0.002251343 0)
(1.0147813 0.0021758249 0)
(1.0141229 0.0020155155 0)
(1.0134731 0.0017605397 0)
(1.0128927 0.0014281149 0)
(1.012381 0.0010785164 0)
(1.0119596 0.00075547778 0)
(1.0116208 0.00045422383 0)
(1.0113618 0.00015404419 0)
(1.0181033 0.0023683028 0)
(1.0177242 0.0025541281 0)
(1.0170699 0.0025584697 0)
(1.0164291 0.0024757379 0)
(1.0158614 0.0024314072 0)
(1.0151891 0.0024018491 0)
(1.0145078 0.0022797044 0)
(1.0138185 0.0020495146 0)
(1.0131979 0.0017262147 0)
(1.0126354 0.0013727241 0)
(1.0121585 0.0010425457 0)
(1.0117606 0.00074261114 0)
(1.0114379 0.00045237887 0)
(1.0111884 0.0001525593 0)
(1.0184093 0.0023397601 0)
(1.0180473 0.0027081824 0)
(1.0173247 0.0027447999 0)
(1.0167507 0.0026181175 0)
(1.016244 0.0025825674 0)
(1.0156141 0.0026061796 0)
(1.0149156 0.0025354096 0)
(1.014186 0.0023342381 0)
(1.013529 0.0020204395 0)
(1.0129242 0.0016656019 0)
(1.0123985 0.0013282953 0)
(1.0119483 0.0010250698 0)
(1.0115707 0.00073891302 0)
(1.0112619 0.00044868403 0)
(1.0110237 0.0001478675 0)
(1.0187223 0.002353416 0)
(1.0183574 0.0028400355 0)
(1.0175902 0.0029198692 0)
(1.0170559 0.0027286321 0)
(1.0166351 0.0026917033 0)
(1.0160666 0.0027765579 0)
(1.0153478 0.002782183 0)
(1.0145717 0.0026180359 0)
(1.0138778 0.0023123488 0)
(1.013238 0.0019572316 0)
(1.0126713 0.0016145608 0)
(1.0121735 0.0013064452 0)
(1.0117474 0.0010194587 0)
(1.0113884 0.00073332317 0)
(1.0110944 0.00043626676 0)
(1.0108717 0.00013901809 0)
(1.0190683 0.0022507053 0)
(1.0186659 0.003078272 0)
(1.017777 0.0030708946 0)
(1.017382 0.0027901674 0)
(1.0170521 0.0027195539 0)
(1.0165562 0.0029075521 0)
(1.0158104 0.0030242155 0)
(1.0149743 0.0029078966 0)
(1.0142346 0.0026047569 0)
(1.0135679 0.002247358 0)
(1.0129685 0.0019020164 0)
(1.0124289 0.0015894574 0)
(1.0119583 0.0012991865 0)
(1.0115548 0.0010110497 0)
(1.0112149 0.000714334 0)
(1.0109389 0.0004115508 0)
(1.0107361 0.00012657039 0)
(1.0193944 0.0023977889 0)
(1.0189524 0.0032298612 0)
(1.0179049 0.0032260463 0)
(1.0176294 0.0027921087 0)
(1.0174687 0.0027006196 0)
(1.0170804 0.0029751378 0)
(1.0163197 0.0032609827 0)
(1.0153914 0.0032140199 0)
(1.0145883 0.0029035769 0)
(1.0139039 0.0025353876 0)
(1.0132823 0.0021897945 0)
(1.012707 0.0018763857 0)
(1.0121958 0.0015815435 0)
(1.0117514 0.0012876314 0)
(1.0113721 0.00098550583 0)
(1.0110534 0.00067494771 0)
(1.0107998 0.00037553003 0)
(1.0106188 0.00011231526 0)
(1.0198188 0.0020663297 0)
(1.0192679 0.0037195567 0)
(1.0178625 0.0034262829 0)
(1.0177551 0.0027756213 0)
(1.0179421 0.0025996055 0)
(1.0176044 0.0030183894 0)
(1.0168628 0.0035098828 0)
(1.0158138 0.0035531077 0)
(1.0149292 0.0032161018 0)
(1.0142357 0.0028200603 0)
(1.0136047 0.0024752599 0)
(1.0130017 0.0021676689 0)
(1.0124528 0.0018706099 0)
(1.0119697 0.0015678556 0)
(1.0115548 0.0012541283 0)
(1.0112022 0.00093362769 0)
(1.0109078 0.0006158418 0)
(1.0106796 0.00033319343 0)
(1.0105198 9.8529363e-05 0)
(1.020039 0.0025920685 0)
(1.0194675 0.0038922329 0)
(1.0176731 0.0036351402 0)
(1.0177209 0.0026757167 0)
(1.0183446 0.0023956352 0)
(1.0182314 0.0030287839 0)
(1.0174091 0.0037786457 0)
(1.0162239 0.0039548235 0)
(1.015235 0.0035576265 0)
(1.0145459 0.0030981116 0)
(1.0139282 0.0027526707 0)
(1.0133094 0.0024616007 0)
(1.0127245 0.0021689264 0)
(1.0122023 0.0018571472 0)
(1.0117539 0.0015274198 0)
(1.0113723 0.0011887671 0)
(1.0110487 0.00085363451 0)
(1.0107823 0.00054530064 0)
(1.0105786 0.00029127781 0)
(1.0104365 8.707494e-05 0)
(1.0203638 0.0017941387 0)
(1.0198148 0.0048552311 0)
(1.0171976 0.0040357883 0)
(1.0175016 0.0024478481 0)
(1.0187995 0.0019819497 0)
(1.0190015 0.0030038934 0)
(1.0180159 0.0040751872 0)
(1.0165891 0.0044362459 0)
(1.0154799 0.003942194 0)
(1.014813 0.0033712243 0)
(1.0142425 0.0030126975 0)
(1.0136275 0.0027527716 0)
(1.0130092 0.0024773911 0)
(1.0124443 0.0021603379 0)
(1.0119608 0.0018112126 0)
(1.0115528 0.0014486652 0)
(1.011208 0.0010897164 0)
(1.0109149 0.0007532879 0)
(1.0106782 0.00047486521 0)
(1.0104944 0.00025538412 0)
(1.0103655 7.8801119e-05 0)
(1.0200915 0.0028966133 0)
(1.0197649 0.005058168 0)
(1.0165826 0.0043079442 0)
(1.0170455 0.00224282 0)
(1.0192095 0.001418607 0)
(1.0199817 0.0028459911 0)
(1.0187603 0.0044613891 0)
(1.0169156 0.0050188005 0)
(1.0156049 0.0043849912 0)
(1.0149963 0.0036250151 0)
(1.0145341 0.0032425465 0)
(1.0139544 0.0030321847 0)
(1.013309 0.0027949407 0)
(1.0126943 0.0024816976 0)
(1.0121694 0.0021117955 0)
(1.0117343 0.0017188545 0)
(1.0113719 0.0013290618 0)
(1.011064 0.0009618787 0)
(1.0108049 0.00064977845 0)
(1.0105935 0.00041365073 0)
(1.0104237 0.00022830281 0)
(1.0103033 7.3518119e-05 0)
(1.0198945 0.0015307731 0)
(1.0199442 0.0065685033 0)
(1.0154057 0.005112943 0)
(1.0162958 0.0015637038 0)
(1.0197005 0.00047533193 0)
(1.0211771 0.0026581278 0)
(1.0196711 0.0049405162 0)
(1.0172006 0.0057600069 0)
(1.0156282 0.0048888297 0)
(1.0150995 0.0038678523 0)
(1.0147727 0.0034054798 0)
(1.0142909 0.0032806137 0)
(1.0136321 0.0031173169 0)
(1.0129553 0.0028263241 0)
(1.0123756 0.002435798 0)
(1.0119091 0.0020056484 0)
(1.0115312 0.0015766358 0)
(1.011215 0.0011727333 0)
(1.0109454 0.00082457756 0)
(1.0107176 0.000558973 0)
(1.0105242 0.00036572979 0)
(1.0103634 0.00021004859 0)
(1.0102471 7.0433949e-05 0)
(1.0191225 0.0032502794 0)
(1.0188493 0.006779002 0)
(1.0143992 0.0054289097 0)
(1.0151125 0.0013793685 0)
(1.0200013 -0.00071564471 0)
(1.0226941 0.0021348934 0)
(1.0208164 0.0056215428 0)
(1.0174306 0.0067353582 0)
(1.0154244 0.0054957861 0)
(1.0150357 0.0040384614 0)
(1.0150188 0.0035096296 0)
(1.0146518 0.003468763 0)
(1.013995 0.0034316857 0)
(1.0132378 0.0031990522 0)
(1.0125785 0.002792989 0)
(1.0120695 0.002315933 0)
(1.0116765 0.0018375607 0)
(1.0113571 0.0013889098 0)
(1.011086 0.0009991532 0)
(1.0108529 0.00070063583 0)
(1.0106489 0.00048826309 0)
(1.0104666 0.00033097481 0)
(1.0103107 0.00019888578 0)
(1.0101948 6.862803e-05 0)
(1.0194424 0.0018807936 0)
(1.0167338 0.0088449782 0)
(1.0113228 0.0070054451 0)
(1.0135394 -0.00015911121 0)
(1.0206392 -0.0024141228 0)
(1.0245173 0.0017460431 0)
(1.0222144 0.0064345553 0)
(1.0176007 0.0080447093 0)
(1.0149417 0.0062197048 0)
(1.0147601 0.0041470696 0)
(1.0152495 0.0034196057 0)
(1.0150721 0.0035534377 0)
(1.0144368 0.0037274974 0)
(1.0135615 0.0036058546 0)
(1.0127819 0.0031961876 0)
(1.0122089 0.0026598087 0)
(1.011798 0.0021168948 0)
(1.0114805 0.0016134666 0)
(1.0112154 0.0011761808 0)
(1.0109873 0.00083935557 0)
(1.0107825 0.00060103556 0)
(1.0105945 0.00043674298 0)
(1.0104178 0.00030744656 0)
(1.0102631 0.00019243864 0)
(1.0101457 6.7281386e-05 0)
(1.0185304 0.0038485534 0)
(1.0173789 0.0095146772 0)
(1.0080714 0.0069218664 0)
(1.0110264 -9.8737047e-05 0)
(1.0206219 -0.0045387874 0)
(1.0269123 0.00053243843 0)
(1.0239835 0.0076844165 0)
(1.0176374 0.0097803665 0)
(1.0140749 0.0071690276 0)
(1.014174 0.0041109143 0)
(1.0153907 0.0031321629 0)
(1.0156327 0.0035143548 0)
(1.0149674 0.0039566336 0)
(1.0139652 0.0040584895 0)
(1.0129946 0.0036670159 0)
(1.0123194 0.0030508374 0)
(1.0118845 0.0024208087 0)
(1.011575 0.0018488471 0)
(1.011324 0.0013574406 0)
(1.0111086 0.00097749205 0)
(1.0109138 0.00070785736 0)
(1.01073 0.0005259892 0)
(1.0105509 0.0003994009 0)
(1.0103759 0.00029298324 0)
(1.0102191 0.00018839519 0)
(1.0100992 6.5771511e-05 0)
(1.0136388 0.002425438 0)
(1.0168957 0.012245786 0)
(1.0056697 0.0091483664 0)
(1.0081814 -0.0028066024 0)
(1.0214004 -0.0072075696 0)
(1.0293397 -6.2137258e-05 0)
(1.0260233 0.0089563297 0)
(1.0175649 0.012046522 0)
(1.0127257 0.008316914 0)
(1.0131661 0.0039746583 0)
(1.0154116 0.0025006848 0)
(1.0163559 0.0033004399 0)
(1.0156375 0.0041816478 0)
(1.0144437 0.0045678238 0)
(1.013231 0.0042365988 0)
(1.012393 0.0035125337 0)
(1.0119209 0.0027566378 0)
(1.0116289 0.0020953747 0)
(1.0114029 0.0015434814 0)
(1.0112079 0.0011169053 0)
(1.0110306 0.00081134836 0)
(1.0108613 0.00060496508 0)
(1.0106918 0.00047037306 0)
(1.0105157 0.00037182006 0)
(1.0103396 0.00028472898 0)
(1.0101777 0.00018470013 0)
(1.0100553 6.3734289e-05 0)
(1.0017141 0.0052477891 0)
(1.0059358 0.012441447 0)
(1.0036101 0.0096588447 0)
(1.0051224 -0.0031119766 0)
(1.0209632 -0.010400465 0)
(1.0318632 -0.0024272437 0)
(1.0284673 0.011256999 0)
(1.0171148 0.015007936 0)
(1.0107027 0.0098216064 0)
(1.0116365 0.0035976959 0)
(1.0152806 0.0014993578 0)
(1.0172489 0.0027498432 0)
(1.0165998 0.0043980586 0)
(1.0150069 0.0051713811 0)
(1.0134724 0.0049569501 0)
(1.0124117 0.004076736 0)
(1.0118877 0.0031358513 0)
(1.011627 0.0023513587 0)
(1.0114436 0.0017308213 0)
(1.0112787 0.0012581006 0)
(1.0111241 0.00091429207 0)
(1.0109762 0.00067734808 0)
(1.0108263 0.00052515934 0)
(1.0106649 0.00042772923 0)
(1.0104882 0.00035177913 0)
(1.0103077 0.00027811257 0)
(1.0101389 0.00017947373 0)
(1.0100146 6.1019433e-05 0)
(0.98898396 0.0050275019 0)
(0.98892772 0.01627925 0)
(0.98990603 0.012469472 0)
(1.0017643 -0.0069440977 0)
(1.0219133 -0.014210505 0)
(1.0348116 -0.0027611723 0)
(1.0305479 0.013229409 0)
(1.0164922 0.018707346 0)
(1.0078518 0.01170237 0)
(1.00938 0.0030654171 0)
(1.0149378 -0.00013253403 0)
(1.0183881 0.0018382658 0)
(1.0179449 0.0045279252 0)
(1.0158097 0.0059272623 0)
(1.0136911 0.0058584679 0)
(1.0123508 0.0047936064 0)
(1.0117482 0.0035703428 0)
(1.0115486 0.002611918 0)
(1.0114366 0.0019114909 0)
(1.0113171 0.0013971328 0)
(1.0111894 0.0010185347 0)
(1.0110656 0.0007475834 0)
(1.0109422 0.00056880767 0)
(1.0108065 0.00046089645 0)
(1.0106479 0.00039239524 0)
(1.0104677 0.0003359413 0)
(1.0102789 0.00026793503 0)
(1.0101032 0.000171452 0)
(1.0099773 5.7714956e-05 0)
(0.97515013 0.007602281 0)
(0.9741561 0.017835802 0)
(0.97437375 0.011622174 0)
(0.9932868 -0.0069367111 0)
(1.0216932 -0.018594729 0)
(1.0394092 -0.0060165866 0)
(1.0321613 0.017049476 0)
(1.0145245 0.023459768 0)
(1.0038225 0.014026924 0)
(1.0062854 0.0021529971 0)
(1.0143096 -0.0023275514 0)
(1.0198317 0.00028479574 0)
(1.0198085 0.0045918109 0)
(1.0169425 0.0068903969 0)
(1.0139571 0.0070299662 0)
(1.0121487 0.0056940466 0)
(1.0114644 0.0040818282 0)
(1.0113613 0.0028686168 0)
(1.0113693 0.0020690518 0)
(1.0113216 0.0015239497 0)
(1.0112272 0.001122547 0)
(1.0111255 0.00081990992 0)
(1.0110292 0.0006077821 0)
(1.0109268 0.00047724797 0)
(1.0108004 0.00040464486 0)
(1.0106402 0.00035989901 0)
(1.0104532 0.00031838158 0)
(1.0102535 0.00025176954 0)
(1.0100717 0.0001610402 0)
(1.0099437 5.4244969e-05 0)
(0.95925328 0.0083713786 -2.2114913e-24)
(0.9579795 0.020452579 0)
(0.96065006 0.013510877 0)
(0.98412887 -0.013112141 0)
(1.0209244 -0.023654181 0)
(1.0427028 -0.0067489408 0)
(1.0363714 0.019538069 0)
(1.0113853 0.029034405 0)
(0.99826324 0.01701224 0)
(1.0020075 0.00094990514 0)
(1.0134038 -0.0055523468 0)
(1.0216788 -0.0018467874 0)
(1.0223112 0.004406052 0)
(1.018539 0.0081653839 0)
(1.014295 0.0085958777 0)
(1.0117486 0.0068533088 0)
(1.0109725 0.0046918065 0)
(1.0110182 0.0031034714 0)
(1.0112241 0.0021776942 0)
(1.0112932 0.0016190134 0)
(1.0112439 0.0012197247 0)
(1.0111586 0.00089727173 0)
(1.0110827 0.00064914478 0)
(1.0110139 0.0004848637 0)
(1.010929 0.00039431578 0)
(1.0108064 0.00035165071 0)
(1.0106412 0.00032735646 0)
(1.0104439 0.00029504858 0)
(1.0102327 0.00023214071 0)
(1.0100441 0.00015020588 0)
(1.0099135 5.1249667e-05 0)
(0.94104979 0.010594408 3.488256e-24)
(0.94069617 0.022691535 2.3081211e-24)
(0.94616854 0.01174935 0)
(0.97401336 -0.01626853 0)
(1.0183943 -0.028981312 0)
(1.0431075 -0.012771496 0)
(1.0438161 0.025857143 0)
(1.0099289 0.0351984 0)
(0.99105889 0.020147404 0)
(0.99653514 -0.00079291153 0)
(1.0120423 -0.0096156364 0)
(1.0240185 -0.0050347917 0)
(1.0256735 0.0041219439 0)
(1.0207168 0.0097689721 0)
(1.0147476 0.010723029 0)
(1.0110962 0.0083769517 0)
(1.0101513 0.005417511 0)
(1.0104639 0.0032979219 0)
(1.0109754 0.0021953992 0)
(1.0112353 0.0016504946 0)
(1.0112532 0.0012954309 0)
(1.0111761 0.00098023869 0)
(1.0111048 0.00070113522 0)
(1.011061 0.00049342997 0)
(1.0110195 0.00037003058 0)
(1.0109466 0.00031491664 0)
(1.0108236 0.00029776596 0)
(1.0106503 0.00028959765 0)
(1.0104391 0.00026464427 0)
(1.0102164 0.00021288716 0)
(1.01002 0.00014096625 0)
(1.0098859 4.9324358e-05 0)
(0.92113794 0.012280691 -3.5020335e-24)
(0.92143128 0.025360224 -3.0529292e-24)
(0.92875443 0.012421994 0)
(0.96372218 -0.022363867 0)
(1.0112113 -0.034562905 0)
(1.0401603 -0.012534388 0)
(1.0441901 0.028078156 0)
(1.0141575 0.043841238 0)
(0.98368939 0.02409768 0)
(0.9894126 -0.0033093538 0)
(1.010426 -0.015203799 0)
(1.0269073 -0.0090415486 0)
(1.0300213 0.0033361763 0)
(1.0236779 0.011916916 0)
(1.0153233 0.013570991 0)
(1.0101034 0.010434755 0)
(1.0088728 0.0062744092 0)
(1.0096043 0.0034242383 0)
(1.0105889 0.0020607392 0)
(1.0111556 0.0015691528 0)
(1.0112799 0.0013255726 0)
(1.0111992 0.0010656787 0)
(1.0111065 0.00077265024 0)
(1.0110668 0.00051612742 0)
(1.0110617 0.0003432253 0)
(1.0110444 0.00025692041 0)
(1.0109797 0.00023178314 0)
(1.0108531 0.00023748786 0)
(1.010667 0.00024549665 0)
(1.0104395 0.00023326503 0)
(1.0102042 0.00019633208 0)
(1.0099986 0.00013482879 0)
(1.0098599 4.8893913e-05 0)
(0.9008026 0.014209452 0)
(0.90133931 0.028001152 3.0577604e-24)
(0.90998662 0.011596061 0)
(0.9487876 -0.027224023 0)
(1.0023621 -0.038741746 0)
(1.031628 -0.015778274 0)
(1.0301814 0.034857226 0)
(1.0076285 0.053213982 0)
(0.97521643 0.029050714 0)
(0.98111717 -0.0061109044 0)
(1.0081024 -0.021882755 0)
(1.0305099 -0.014624497 0)
(1.0356263 0.0024548597 0)
(1.0275328 0.014534755 0)
(1.0160894 0.017381974 0)
(1.0086592 0.013157658 0)
(1.0069814 0.0073546126 0)
(1.0083075 0.0034029525 0)
(1.0100208 0.0017063406 0)
(1.0110573 0.0013094367 0)
(1.0113468 0.0012659652 0)
(1.0112599 0.0011449223 0)
(1.011108 0.00087615804 0)
(1.011037 0.00057095685 0)
(1.0110492 0.00033031803 0)
(1.011086 0.00018974288 0)
(1.0110903 0.00013632267 0)
(1.0110296 0.00014095859 0)
(1.0108934 0.00017264692 0)
(1.0106899 0.00020016225 0)
(1.0104447 0.0002058235 0)
(1.010195 0.00018472232 0)
(1.0099788 0.00013295923 0)
(1.0098349 5.0207352e-05 0)
(0.88033634 0.016042425 7.0310851e-25)
(0.88166125 0.030570348 0)
(0.89063439 0.011390264 -3.8144924e-23)
(0.93155156 -0.032672725 0)
(0.98924018 -0.044512299 0)
(1.0204691 -0.013621593 0)
(1.0120369 0.0405325 0)
(0.98254486 0.063485123 0)
(0.96165077 0.036870839 0)
(0.97022065 -0.010354654 0)
(1.0054214 -0.03048931 0)
(1.0346317 -0.021098093 0)
(1.0424609 0.00071546335 0)
(1.032534 0.01804458 0)
(1.0169833 0.022380527 0)
(1.006604 0.016797399 0)
(1.0042884 0.0086576744 0)
(1.0064203 0.00320736 0)
(1.0092006 0.0010025923 0)
(1.0109518 0.00077147328 0)
(1.0115173 0.0010921137 0)
(1.0113829 0.0012048262 0)
(1.0111408 0.00102384 0)
(1.0109856 0.00068270282 0)
(1.0109797 0.00035403661 0)
(1.0110586 0.00013030239 0)
(1.0111383 2.1762755e-05 0)
(1.0111599 5.7744676e-06 0)
(1.0110947 4.6662926e-05 0)
(1.0109427 0.00010753661 0)
(1.0107188 0.00015912677 0)
(1.0104541 0.00018512583 0)
(1.0101879 0.00018021917 0)
(1.0099601 0.00013601015 0)
(1.0098096 5.3408618e-05 0)
(0.86072756 0.017642452 -1.005819e-23)
(0.86280607 0.032986255 -3.5986664e-24)
(0.87183972 0.010762931 3.813821e-23)
(0.91294491 -0.038395804 4.3797173e-23)
(0.97249509 -0.049701056 -7.9772307e-23)
(1.0066521 -0.015182484 0)
(0.99607644 0.050436461 0)
(0.96066593 0.072306525 0)
(0.94295914 0.042196393 0)
(0.95716758 -0.013735996 0)
(1.0012558 -0.040224745 0)
(1.0392685 -0.029607829 0)
(1.0505256 -0.00098472924 0)
(1.0385425 0.022200068 0)
(1.0180821 0.028860302 0)
(1.0037439 0.021533142 0)
(1.0005255 0.01033986 0)
(1.0037581 0.0026923894 0)
(1.0080497 -0.00015384292 0)
(1.0108508 -0.00018171059 0)
(1.0118546 0.0006930864 0)
(1.0116849 0.0012428804 0)
(1.0112571 0.0012322344 0)
(1.0109378 0.00087875291 0)
(1.0108569 0.00044567239 0)
(1.0109519 0.00010276876 0)
(1.0111046 -9.5935199e-05 0)
(1.0112228 -0.00016069186 0)
(1.011252 -0.00012874915 0)
(1.011174 -4.6390334e-05 0)
(1.0110003 4.8174682e-05 0)
(1.0107521 0.00012790534 0)
(1.0104663 0.00017434541 0)
(1.0101831 0.00018296412 0)
(1.0099415 0.00014431311 0)
(1.0097833 5.8492555e-05 0)
(0.84311686 0.01892399 1.3957186e-23)
(0.84582417 0.035047112 8.0421581e-25)
(0.8543489 0.010241177 0)
(0.89361302 -0.044086535 2.0797818e-24)
(0.95306542 -0.054883785 7.9373973e-23)
(0.99008443 -0.017000802 1.7814546e-22)
(0.9787503 0.058072576 9.1158259e-23)
(0.94222589 0.080749668 0)
(0.92516494 0.047716398 0)
(0.94472989 -0.020001956 0)
(0.99628543 -0.05242913 0)
(1.044398 -0.038574015 0)
(1.0595058 -0.0038827546 0)
(1.0452979 0.027797905 0)
(1.0189062 0.037133033 0)
(0.99982956 0.027641514 0)
(0.99542286 0.012356742 0)
(1.0001054 0.0018744379 0)
(1.0064538 -0.0019973077 0)
(1.0107661 -0.0016804814 0)
(1.0124354 -3.6907352e-05 0)
(1.0122768 0.0012116978 0)
(1.01151 0.0014867965 0)
(1.0109447 0.0012048709 0)
(1.0106906 0.0006449566 0)
(1.0107565 0.00013939117 0)
(1.0109709 -0.00019523264 0)
(1.0111949 -0.00034634645 0)
(1.0113392 -0.0003490692 0)
(1.0113643 -0.00026046175 0)
(1.0112661 -0.00013129126 0)
(1.011064 1.5360767e-06 0)
(1.0107889 0.00010958488 0)
(1.010478 0.00017506405 0)
(1.0101772 0.00019487895 0)
(1.0099217 0.00015806318 0)
(1.0097552 6.5302257e-05 0)
(0.82875014 0.019945654 -8.1180409e-25)
(0.83151375 0.036704568 -1.2036739e-24)
(0.83893104 0.0095897643 -2.3146881e-23)
(0.87472787 -0.049427129 -2.6432215e-23)
(0.93207044 -0.060323552 -4.7372506e-23)
(0.9699389 -0.017458111 2.0655424e-22)
(0.96171198 0.063738538 2.300028e-22)
(0.92360651 0.090509389 -3.5427572e-23)
(0.90829293 0.047916749 0)
(0.93194452 -0.025829245 0)
(0.99218629 -0.066409705 0)
(1.0511389 -0.051481953 0)
(1.0712205 -0.0060517482 0)
(1.0525878 0.034398543 0)
(1.018823 0.047501997 0)
(0.99436956 0.035424023 0)
(0.98857256 0.014894191 0)
(0.99522212 0.00047258545 0)
(1.0043147 -0.0046040459 0)
(1.0106988 -0.0039744504 0)
(1.0133568 -0.00121038 0)
(1.0132648 0.0010501271 0)
(1.0120522 0.0018790727 0)
(1.0110256 0.0016739084 0)
(1.0105141 0.0010151917 0)
(1.0104652 0.00028653649 0)
(1.0107165 -0.00024644733 0)
(1.0110514 -0.0005340048 0)
(1.0113316 -0.00060753173 0)
(1.011486 -0.00053454752 0)
(1.0114947 -0.00038142108 0)
(1.0113677 -0.00020027958 0)
(1.0111327 -2.8448482e-05 0)
(1.0108267 0.00010656525 0)
(1.0104915 0.00018981262 0)
(1.0101701 0.00021648309 0)
(1.0099 0.00017691469 0)
(1.0097246 7.3559006e-05 0)
(0.81765866 0.02054543 -4.0709943e-24)
(0.82055363 0.037894652 8.8492583e-25)
(0.82656416 0.0090045896 0)
(0.85680301 -0.05435548 2.8447025e-23)
(0.91006518 -0.065281407 -7.1405611e-23)
(0.94869963 -0.019079641 0)
(0.94131588 0.071688194 -4.0238501e-22)
(0.90696411 0.099140357 -4.2384444e-22)
(0.88975241 0.055015223 0)
(0.92031288 -0.036144437 0)
(0.98760563 -0.081754038 0)
(1.0582827 -0.063617426 0)
(1.0874141 -0.01177377 0)
(1.0641097 0.042932419 0)
(1.0180186 0.060315285 0)
(0.98654863 0.044798881 0)
(0.97965922 0.017941242 0)
(0.98878421 -0.0014670397 0)
(1.0014998 -0.008379972 0)
(1.0106626 -0.0071771465 0)
(1.014738 -0.0030413724 0)
(1.0148088 0.00071703601 0)
(1.0130229 0.0023983799 0)
(1.0112805 0.0024004859 0)
(1.0103257 0.001608044 0)
(1.0100772 0.00060027473 0)
(1.0103193 -0.00020824933 0)
(1.0107637 -0.00070053411 0)
(1.0112005 -0.00089289544 0)
(1.0115137 -0.00086577141 0)
(1.0116601 -0.00070594334 0)
(1.0116398 -0.00048254188 0)
(1.0114761 -0.0002481671 0)
(1.0112037 -3.9009279e-05 0)
(1.0108641 0.00011981692 0)
(1.010503 0.00021782024 0)
(1.0101609 0.00024660704 0)
(1.0098758 0.00020021867 0)
(1.0096911 8.2942638e-05 0)
(0.81123702 0.020675889 0)
(0.81376882 0.038568461 0)
(0.8176266 0.0082909395 -9.1666887e-25)
(0.84156891 -0.058533934 0)
(0.88762937 -0.06988925 -1.6125582e-24)
(0.92563296 -0.020113848 2.1544723e-22)
(0.92135475 0.078294656 7.2989259e-22)
(0.88870566 0.10855157 -2.8176083e-23)
(0.87331332 0.061387253 0)
(0.90315765 -0.042770553 0)
(0.98404455 -0.096811232 0)
(1.0606134 -0.080285567 0)
(1.0972477 -0.015651757 0)
(1.0823933 0.051085646 0)
(1.0219748 0.075201611 0)
(0.97676051 0.056219088 0)
(0.96797879 0.021377056 0)
(0.9806259 -0.0043162511 0)
(0.99786446 -0.013306495 0)
(1.0106554 -0.011725758 0)
(1.0167003 -0.0056181399 0)
(1.0171011 6.5893071e-05 0)
(1.0145952 0.0030952347 0)
(1.0118438 0.0034783003 0)
(1.0101435 0.0025162621 0)
(1.0095913 0.0011705152 0)
(1.0097488 -3.8211783e-05 0)
(1.0102979 -0.00082046194 0)
(1.0109132 -0.0011928628 0)
(1.0114177 -0.0012502966 0)
(1.0117367 -0.0011057703 0)
(1.0118565 -0.00085162512 0)
(1.0117956 -0.00055684317 0)
(1.0115884 -0.0002714477 0)
(1.0112749 -2.8819942e-05 0)
(1.0109009 0.00015074751 0)
(1.0105122 0.00025778816 0)
(1.0101486 0.00028453631 0)
(1.0098484 0.00022725846 0)
(1.0096546 9.3082761e-05 0)
(0.81145251 0.038741907 -6.2623812e-25)
(0.81023598 0.020458654 0)
(0.81271382 0.0077492806 -9.6905296e-24)
(0.82946303 -0.061921873 8.1881923e-25)
(0.86672177 -0.073795284 -4.8141826e-23)
(0.90193365 -0.021200442 -3.7031268e-24)
(0.89982149 0.085175132 1.6372853e-24)
(0.87138851 0.11745014 -2.4774164e-22)
(0.85666135 0.068573272 -5.7770685e-23)
(0.88579382 -0.045989994 0)
(0.97175296 -0.11340158 -4.6109347e-22)
(1.0600192 -0.089226303 0)
(1.0982066 -0.026434797 0)
(1.099322 0.062343953 0)
(1.0317441 0.092438852 0)
(0.968876 0.06952069 0)
(0.95334789 0.025407907 0)
(0.97024502 -0.0081907785 0)
(0.993383 -0.019977253 0)
(1.0106772 -0.017568687 0)
(1.0193879 -0.0093568245 0)
(1.0203693 -0.00090256849 0)
(1.0169693 0.0039349622 0)
(1.0128564 0.0050390106 0)
(1.010049 0.0038949374 0)
(1.0089403 0.0020545834 0)
(1.0089864 0.00035223772 0)
(1.0096107 -0.0008526453 0)
(1.0104294 -0.0014940907 0)
(1.0111649 -0.0016859174 0)
(1.0116961 -0.0015834904 0)
(1.011993 -0.0013119913 0)
(1.0120692 -0.00096266345 0)
(1.0119581 -0.00059976992 0)
(1.0117017 -0.0002683977 0)
(1.0113443 2.7673862e-06 0)
(1.010935 0.0001985512 0)
(1.010518 0.00030856824 0)
(1.0101328 0.00032839404 0)
(1.0098179 0.00025676657 0)
(1.009615 0.0001036353 0)
(0.81145139 0.0074493949 8.7089546e-24)
(0.81464145 0.03862735 0)
(0.81531556 0.019746234 1.091599e-24)
(0.81900309 -0.06434711 -8.1820207e-25)
(0.84840605 -0.076772886 2.2406095e-23)
(0.87881356 -0.022205665 3.6073982e-22)
(0.87884129 0.091306769 -6.4249049e-22)
(0.85439347 0.1258346 -1.2515008e-22)
(0.84140145 0.075515011 -6.5706813e-23)
(0.86823441 -0.050628962 2.0301759e-23)
(0.95433556 -0.12765153 -5.1202521e-22)
(1.0504238 -0.10688514 4.8004445e-22)
(1.09507 -0.026161287 0)
(1.0979365 0.070424744 0)
(1.0379674 0.11507464 0)
(0.96243486 0.086684797 0)
(0.93637848 0.02955278 0)
(0.95773128 -0.013241583 0)
(0.98775818 -0.028266975 0)
(1.0107942 -0.025422693 0)
(1.0229162 -0.014167545 0)
(1.0248604 -0.0025161808 0)
(1.0204309 0.0050555552 0)
(1.0144663 0.0071927648 0)
(1.0101098 0.0059295926 0)
(1.0081156 0.0034054299 0)
(1.0079488 0.0010221892 0)
(1.0086451 -0.00076814005 0)
(1.0097006 -0.0017769524 0)
(1.0107152 -0.0021704081 0)
(1.0115077 -0.0021445264 0)
(1.012024 -0.0018710776 0)
(1.0122738 -0.0014729888 0)
(1.0122921 -0.0010335571 0)
(1.012123 -0.00060919535 0)
(1.0118133 -0.00023853408 0)
(1.0114109 5.5656586e-05 0)
(1.0109652 0.00026079603 0)
(1.0105197 0.00036843944 0)
(1.0101134 0.00037653171 0)
(1.0097839 0.00028802336 0)
(1.0095724 0.0001143352 0)
(0.81293036 -0.065565906 4.951442e-24)
(0.81653375 0.007298254 2.4598915e-23)
(0.82435315 0.037980431 0)
(0.82419892 0.018600606 2.6462405e-25)
(0.83078075 -0.079012816 -1.5084033e-23)
(0.85768415 -0.022881502 -1.5822235e-22)
(0.85909239 0.0966 0)
(0.83918202 0.13317091 1.242856e-22)
(0.82829593 0.082246184 -5.129785e-23)
(0.85138079 -0.054926767 -2.0047736e-23)
(0.93531812 -0.14241207 5.6736378e-22)
(1.0342713 -0.12463397 5.3189055e-22)
(1.0854753 -0.033606573 0)
(1.0785686 0.083674026 0)
(1.0223822 0.13787358 0)
(0.95016366 0.10791149 0)
(0.91850303 0.036262273 0)
(0.94193444 -0.020395995 0)
(0.98139286 -0.038824459 0)
(1.0108613 -0.034871753 0)
(1.0274466 -0.020834853 0)
(1.0308528 -0.004588203 0)
(1.0252406 0.0062822738 0)
(1.0169115 0.010163519 0)
(1.0103719 0.0088187409 0)
(1.0071074 0.0054188394 0)
(1.0065147 0.0020463283 0)
(1.0073308 -0.00047416344 0)
(1.0086558 -0.00203776 0)
(1.0100219 -0.0027141372 0)
(1.0111376 -0.0028005955 0)
(1.0119237 -0.0025405954 0)
(1.0123878 -0.0020985213 0)
(1.0125702 -0.0015822774 0)
(1.0125196 -0.0010620378 0)
(1.0122866 -0.00058487811 0)
(1.0119212 -0.00018241275 0)
(1.0114729 0.00012804834 0)
(1.0109904 0.00033536085 0)
(1.0105168 0.00043510081 0)
(1.0100897 0.00042820703 0)
(1.0097465 0.00032017744 0)
(1.0095271 0.00012492097 0)
(0.81850932 -0.080171784 -9.8905396e-24)
(0.81367554 -0.065704516 -6.2700723e-24)
(0.82751168 0.0073691651 -2.1940051e-23)
(0.83777807 0.036786297 -1.0488875e-23)
(0.83610864 0.017080627 -2.8751933e-25)
(0.83812412 -0.023504459 1.5042952e-22)
(0.84201142 0.10090998 8.6420775e-23)
(0.82655452 0.13925692 0)
(0.81801425 0.088129709 4.7698071e-23)
(0.83620708 -0.058929684 3.3916226e-23)
(0.9151344 -0.15770226 0)
(1.0151216 -0.14087969 -7.7306064e-22)
(1.0713604 -0.049827428 0)
(1.0614605 0.096964211 0)
(0.99600511 0.15947528 0)
(0.93338413 0.12970399 0)
(0.90070013 0.043672627 0)
(0.92409483 -0.027756739 0)
(0.97340893 -0.051558864 0)
(1.0111846 -0.04701444 0)
(1.0329558 -0.028789143 0)
(1.0385896 -0.0078898078 0)
(1.0318155 0.0079990932 0)
(1.0203738 0.014056538 0)
(1.0109393 0.012841931 0)
(1.0058636 0.0082936345 0)
(1.0046024 0.0035846191 0)
(1.0055235 3.142809e-05 0)
(1.0072076 -0.0022407593 0)
(1.0090164 -0.0033113827 0)
(1.0105432 -0.0035692903 0)
(1.0116652 -0.0033389831 0)
(1.012391 -0.0028542709 0)
(1.012774 -0.0022581955 0)
(1.0128739 -0.0016375746 0)
(1.0127467 -0.0010482248 0)
(1.0124461 -0.00052796653 0)
(1.0120236 -0.00010178969 0)
(1.0115291 0.0002168981 0)
(1.0110101 0.0004197371 0)
(1.0105091 0.00050665873 0)
(1.0100621 0.00048115598 0)
(1.0097061 0.00035221557 0)
(1.0094793 0.00013523841 0)
(0.82277204 -0.024117324 6.7614276e-24)
(0.81188457 -0.08016991 8.7946647e-24)
(0.81968128 -0.064833664 3.745911e-23)
(0.84301332 0.0075733718 1.0863456e-23)
(0.85310815 0.035144823 -2.8965676e-23)
(0.8513904 0.015321561 2.0230514e-24)
(0.82843729 0.10406038 -1.6370228e-22)
(0.81781423 0.14408675 -7.5292754e-23)
(0.8112341 0.093253435 -1.4652171e-22)
(0.82404359 -0.062492348 -4.3497013e-23)
(0.89428719 -0.1724324 -7.499347e-22)
(0.99251257 -0.15839411 5.8129723e-22)
(1.0544282 -0.060096202 0)
(1.0525981 0.094524877 -1.5833441e-21)
(0.97593204 0.18061919 1.2978481e-21)
(0.91792733 0.14474218 0)
(0.88501362 0.054500389 0)
(0.90525481 -0.038543603 0)
(0.96448149 -0.066961145 0)
(1.0113766 -0.060673864 0)
(1.0396498 -0.039479456 0)
(1.0483205 -0.011704291 0)
(1.0403732 0.0095820375 0)
(1.0252258 0.0192703 0)
(1.0118316 0.018278414 0)
(1.0043055 0.012317001 0)
(1.0020876 0.0057849657 0)
(1.0030597 0.00081158618 0)
(1.0052456 -0.0023728444 0)
(1.0076196 -0.0040130895 0)
(1.0096763 -0.0044826336 0)
(1.0112188 -0.004293074 0)
(1.0122647 -0.0037614519 0)
(1.0128888 -0.00307707 0)
(1.0131706 -0.0023482471 0)
(1.0131778 -0.0016396359 0)
(1.0129692 -0.00099387766 0)
(1.0125989 -0.00044079504 0)