/*--------------------------------*- C++ -*----------------------------------*\
| =========                 |                                                 |
| \\      /  F ield         | OpenFOAM: The Open Source CFD Toolbox           |
|  \\    /   O peration     | Version:  5.0                                   |
|   \\  /    A nd           | Web:      www.OpenFOAM.org                      |
|    \\/     M anipulation  |                                                 |
\*---------------------------------------------------------------------------*/
FoamFile
{
    version     2.0;
    format      ascii;
    class       volVectorField;
    location    "360";
    object      U_0;
}
// * * * * * * * * * * * * * * * * * * * * * * * * * * * * * * * * * * * * * //

dimensions      [0 1 -1 0 0 0 0];

internalField   nonuniform List<vector> 
9520
(
(1.014396 0.00016669561 0)
(1.0144937 0.00048830865 0)
(1.0139005 0.00016466047 0)
(1.0146657 0.00078679086 0)
(1.0140005 0.00048360238 0)
(1.0137107 0.00016223062 0)
(1.0148959 0.0010616742 0)
(1.0141778 0.00078107439 0)
(1.0138102 0.00047636572 0)
(1.0134053 0.00016307649 0)
(1.0151698 0.0013123612 0)
(1.0144173 0.0010564143 0)
(1.0139879 0.00077003118 0)
(1.0135048 0.00047781221 0)
(1.0131692 0.00016826158 0)
(1.0154749 0.0015386465 0)
(1.014705 0.0013094351 0)
(1.0142291 0.0010427699 0)
(1.0136832 0.00077222821 0)
(1.0132694 0.00049233126 0)
(1.0128983 0.00017459953 0)
(1.0157999 0.0017405053 0)
(1.0150282 0.0015392455 0)
(1.0145204 0.0012960044 0)
(1.0139249 0.0010466313 0)
(1.0134484 0.00079560584 0)
(1.0129986 0.00051177452 0)
(1.0126467 0.0001773855 0)
(1.0161351 0.0019172651 0)
(1.0153766 0.0017458655 0)
(1.0148492 0.0015283509 0)
(1.0142177 0.001303797 0)
(1.0136904 0.0010792452 0)
(1.0131766 0.00082879841 0)
(1.0127463 0.00052214273 0)
(1.0123924 0.00017489786 0)
(1.0164726 0.0020677678 0)
(1.0157423 0.0019294235 0)
(1.0152051 0.0017393422 0)
(1.0145506 0.0015430288 0)
(1.0139835 0.001345696 0)
(1.0134168 0.0011275991 0)
(1.012922 0.00084894372 0)
(1.0124883 0.00051703832 0)
(1.0121589 0.00016839069 0)
(1.016807 0.002189896 0)
(1.0161202 0.0020899283 0)
(1.0155793 0.0019289529 0)
(1.0149133 0.001763971 0)
(1.0143184 0.0015956399 0)
(1.0137073 0.0014093776 0)
(1.0131596 0.0011601963 0)
(1.012658 0.00084420089 0)
(1.0122502 0.00049879232 0)
(1.0119422 0.00016116203 0)
(1.0171366 0.0022759483 0)
(1.0165093 0.0022279858 0)
(1.0159642 0.0020980057 0)
(1.0152957 0.0019661227 0)
(1.014685 0.0018294697 0)
(1.014039 0.0016764008 0)
(1.013447 0.0014560197 0)
(1.0128888 0.0011594227 0)
(1.0124127 0.00081652333 0)
(1.0120285 0.00047694031 0)
(1.0117426 0.00015608797 0)
(1.0174686 0.0023319869 0)
(1.0169154 0.0023471837 0)
(1.0163544 0.0022518117 0)
(1.0156866 0.0021498344 0)
(1.0150732 0.0020467264 0)
(1.0144026 0.0019301354 0)
(1.0137744 0.0017391184 0)
(1.013168 0.001463684 0)
(1.0126347 0.0011247867 0)
(1.0121831 0.00078148372 0)
(1.0118246 0.0004604676 0)
(1.0115549 0.00015399264 0)
(1.017802 0.0023529323 0)
(1.0173453 0.0024523189 0)
(1.016744 0.0023984342 0)
(1.0160739 0.0023182135 0)
(1.015472 0.0022467031 0)
(1.0147907 0.0021706603 0)
(1.0141335 0.0020117536 0)
(1.0134844 0.0017588768 0)
(1.0129045 0.0014276308 0)
(1.012393 0.0010777157 0)
(1.0119718 0.00075403279 0)
(1.0116335 0.00045278374 0)
(1.0113753 0.00015348112 0)
(1.0181033 0.0023616533 0)
(1.0177342 0.0025479689 0)
(1.0170814 0.0025568939 0)
(1.0164369 0.0024733945 0)
(1.0158688 0.0024265342 0)
(1.015198 0.0023960108 0)
(1.0145182 0.0022752914 0)
(1.0138296 0.0020474232 0)
(1.0132096 0.001725506 0)
(1.0126473 0.0013717411 0)
(1.0121707 0.0010405757 0)
(1.0117733 0.00074030474 0)
(1.0114513 0.00045069771 0)
(1.0112025 0.00015206504 0)
(1.0184083 0.0023298224 0)
(1.0180599 0.0026994014 0)
(1.0173374 0.0027440793 0)
(1.0167576 0.0026172706 0)
(1.0162496 0.0025778605 0)
(1.0156219 0.0025996255 0)
(1.0149257 0.0025302392 0)
(1.0141971 0.0023317411 0)
(1.0135405 0.0020195227 0)
(1.0129359 0.0016644254 0)
(1.0124106 0.0013258493 0)
(1.011961 0.0010219154 0)
(1.0115841 0.0007361472 0)
(1.011276 0.00044714739 0)
(1.0110384 0.00014754189 0)
(1.0187198 0.0023363958 0)
(1.0183744 0.0028280484 0)
(1.0176028 0.0029215878 0)
(1.0170594 0.002730854 0)
(1.0166374 0.0026877339 0)
(1.0160726 0.0027690322 0)
(1.0153577 0.0027758884 0)
(1.0145829 0.002615111 0)
(1.013889 0.0023113156 0)
(1.0132494 0.0019558694 0)
(1.0126833 0.0016116597 0)
(1.0121861 0.001302469 0)
(1.0117608 0.001015668 0)
(1.0114025 0.00073071333 0)
(1.011109 0.00043519991 0)
(1.0108866 0.00013889613 0)
(1.0190651 0.0022293009 0)
(1.0186901 0.0030664759 0)
(1.0177903 0.0030763001 0)
(1.0173821 0.0027964853 0)
(1.0170509 0.0027173815 0)
(1.0165597 0.0028984974 0)
(1.0158202 0.0030159993 0)
(1.0149862 0.0029043857 0)
(1.0142459 0.0026038002 0)
(1.0135789 0.0022458783 0)
(1.0129803 0.0018986372 0)
(1.0124414 0.0015846698 0)
(1.0119717 0.0012943825 0)
(1.0115689 0.0010073939 0)
(1.0112297 0.00071244747 0)
(1.0109539 0.00041109366 0)
(1.010751 0.0001266118 0)
(1.0193927 0.0023614339 0)
(1.0189888 0.0032113649 0)
(1.0179195 0.0032367544 0)
(1.0176246 0.0028035881 0)
(1.017465 0.0026990375 0)
(1.0170814 0.0029627056 0)
(1.0163301 0.0032495507 0)
(1.015405 0.0032097319 0)
(1.0145998 0.0029030783 0)
(1.0139144 0.0025339828 0)
(1.0132936 0.002185905 0)
(1.0127193 0.0018707328 0)
(1.0122092 0.0015757097 0)
(1.0117655 0.0012829721 0)
(1.0113869 0.00098268998 0)
(1.0110686 0.00067407562 0)
(1.0108148 0.00037559056 0)
(1.0106337 0.00011242375 0)
(1.0198194 0.0020275555 0)
(1.0193095 0.0037082424 0)
(1.0178789 0.0034439913 0)
(1.0177467 0.0027936666 0)
(1.0179317 0.0025973111 0)
(1.017603 0.0030017539 0)
(1.016875 0.0034929576 0)
(1.0158309 0.0035475942 0)
(1.0149415 0.0032167465 0)
(1.0142454 0.0028191687 0)
(1.0136153 0.0024708474 0)
(1.0130138 0.0021610409 0)
(1.0124662 0.0018636836 0)
(1.011984 0.0015621375 0)
(1.0115697 0.0012504237 0)
(1.0112175 0.00093209837 0)
(1.0109232 0.00061585284 0)
(1.0106947 0.00033349639 0)
(1.0105345 9.8597256e-05 0)
(1.0200436 0.0025300186 0)
(1.0195296 0.0038629663 0)
(1.0177015 0.0036662887 0)
(1.0177048 0.0027043768 0)
(1.018321 0.0023936379 0)
(1.018228 0.0030065312 0)
(1.017424 0.0037539849 0)
(1.0162463 0.0039477995 0)
(1.015249 0.0035604422 0)
(1.0145547 0.0030985071 0)
(1.0139377 0.0027477964 0)
(1.013321 0.0024538329 0)
(1.0127378 0.0021607731 0)
(1.0122167 0.0018503024 0)
(1.011769 0.0015227523 0)
(1.0113877 0.0011864875 0)
(1.0110644 0.00085346561 0)
(1.0107976 0.00054572133 0)
(1.0105935 0.00029150672 0)
(1.0104512 8.703043e-05 0)
(1.02037 0.001726377 0)
(1.0198864 0.0048444667 0)
(1.0172326 0.0040749862 0)
(1.0174752 0.0024892634 0)
(1.0187559 0.0019809644 0)
(1.0189937 0.002971517 0)
(1.0180362 0.0040401682 0)
(1.0166198 0.0044272188 0)
(1.0154969 0.0039490002 0)
(1.0148204 0.0033741316 0)
(1.0142504 0.0030074808 0)
(1.0136381 0.0027436153 0)
(1.0130224 0.002467771 0)
(1.0124589 0.0021522392 0)
(1.0119762 0.0018055331 0)
(1.0115685 0.001445598 0)
(1.0112239 0.0010890288 0)
(1.0109306 0.00075388486 0)
(1.0106934 0.00047516587 0)
(1.0105093 0.00025532193 0)
(1.0103803 7.8632643e-05 0)
(1.0200997 0.0027990832 0)
(1.0198785 0.0050203739 0)
(1.0166356 0.0043782878 0)
(1.0170042 0.0023074857 0)
(1.0191397 0.0014179467 0)
(1.0199682 0.0027976812 0)
(1.0187901 0.0044131305 0)
(1.016957 0.0050074727 0)
(1.0156272 0.0043982923 0)
(1.0150025 0.0036329998 0)
(1.0145392 0.0032375674 0)
(1.0139632 0.0030213236 0)
(1.0133218 0.0027834194 0)
(1.0127093 0.0024721178 0)
(1.0121852 0.0021050497 0)
(1.0117504 0.0017149956 0)
(1.0113881 0.0013278149 0)
(1.0110802 0.00096241834 0)
(1.0108205 0.00065023949 0)
(1.0106087 0.00041350582 0)
(1.0104387 0.00022789058 0)
(1.0103182 7.326562e-05 0)
(1.0199017 0.0014237464 0)
(1.0200526 0.0065566622 0)
(1.0154638 0.005183477 0)
(1.0162358 0.0016527258 0)
(1.0195916 0.00047987639 0)
(1.0211528 0.0025857548 0)
(1.0197157 0.0048718203 0)
(1.0172607 0.0057464132 0)
(1.0156557 0.0049127258 0)
(1.0150995 0.0038830092 0)
(1.0147728 0.003401495 0)
(1.0142965 0.0032677889 0)
(1.0136442 0.0031031968 0)
(1.0129708 0.0028148209 0)
(1.012392 0.0024279063 0)
(1.0119256 0.002001057 0)
(1.0115476 0.0015748728 0)
(1.0112315 0.001173088 0)
(1.0109615 0.00082508545 0)
(1.0107332 0.00055869071 0)
(1.0105395 0.00036507978 0)
(1.0103785 0.00020936463 0)
(1.0102622 7.0161615e-05 0)
(1.0191505 0.0031043018 0)
(1.0190344 0.0067295992 0)
(1.0145017 0.0055689107 0)
(1.0150258 0.0015075655 0)
(1.0198473 -0.00071486532 0)
(1.0226573 0.0020297918 0)
(1.0208819 0.005526262 0)
(1.0175186 0.0067201702 0)
(1.0154612 0.0055348579 0)
(1.0150306 0.0040670133 0)
(1.0150094 0.0035081437 0)
(1.0146508 0.0034532729 0)
(1.0140053 0.0034137387 0)
(1.0132541 0.0031848069 0)
(1.0125962 0.0027837875 0)
(1.0120867 0.0023107485 0)
(1.0116933 0.0018354229 0)
(1.0113738 0.0013890365 0)
(1.0111025 0.00099960452 0)
(1.010869 0.00070023478 0)
(1.0106647 0.00048713046 0)
(1.0104822 0.00032993094 0)
(1.010326 0.00019808695 0)
(1.0102102 6.8402777e-05 0)
(1.0194633 0.0017203135 0)
(1.0169583 0.0088281079 0)
(1.0114377 0.007122516 0)
(1.0134238 3.7211156e-05 0)
(1.0204127 -0.0023957315 0)
(1.0244568 0.0015932494 0)
(1.022311 0.0062965459 0)
(1.0177298 0.0080278691 0)
(1.0149923 0.0062823409 0)
(1.0147451 0.0041951948 0)
(1.0152221 0.00342261 0)
(1.0150635 0.0035366292 0)
(1.014444 0.0037035233 0)
(1.0135792 0.0035872432 0)
(1.0128017 0.003185323 0)
(1.0122273 0.0026543046 0)
(1.0118151 0.0021146825 0)
(1.0114974 0.0016134857 0)
(1.0112322 0.0011765049 0)
(1.0110039 0.0008386795 0)
(1.0107988 0.00059951467 0)
(1.0106106 0.00043503961 0)
(1.0104336 0.00030616313 0)
(1.0102787 0.00019170497 0)
(1.0101612 6.7163735e-05 0)
(1.0185658 0.0036211321 0)
(1.0177016 0.0094518114 0)
(1.0081953 0.0071445285 0)
(1.0108563 0.00017686463 0)
(1.0203357 -0.0045400578 0)
(1.0268332 0.00034617994 0)
(1.0241192 0.0074974106 0)
(1.017822 0.0097621809 0)
(1.0141457 0.007264876 0)
(1.0141451 0.0041882797 0)
(1.015339 0.0031419645 0)
(1.0156148 0.0034892768 0)
(1.0149711 0.0039228475 0)
(1.0139853 0.0040329229 0)
(1.0130182 0.0036537367 0)
(1.01234 0.0030454708 0)
(1.0119021 0.0024191235 0)
(1.0115918 0.0018490596 0)
(1.0113407 0.001357623 0)
(1.0111255 0.00097639137 0)
(1.0109307 0.00070579225 0)
(1.0107467 0.00052360116 0)
(1.0105673 0.00039750847 0)
(1.0103919 0.00029164516 0)
(1.0102348 0.00018790493 0)
(1.0101148 6.5809887e-05 0)
(1.0137442 0.002198285 0)
(1.0171779 0.012239997 0)
(1.0058036 0.0093568687 0)
(1.0079533 -0.0025024488 0)
(1.0210107 -0.0071787838 0)
(1.0292364 -0.00032532866 0)
(1.0262185 0.0086917275 0)
(1.0178288 0.012033091 0)
(1.0128228 0.0084620613 0)
(1.0131177 0.0040935641 0)
(1.0153257 0.0025208812 0)
(1.0163181 0.0032619728 0)
(1.0156394 0.0041343093 0)
(1.0144685 0.004530146 0)
(1.0132618 0.0042195942 0)
(1.0124175 0.0035080539 0)
(1.0119394 0.0027565005 0)
(1.0116453 0.0020964038 0)
(1.0114193 0.0015435969 0)
(1.0112249 0.0011152285 0)
(1.011048 0.00080853227 0)
(1.0108787 0.00060179118 0)
(1.0107089 0.00046758614 0)
(1.0105325 0.00036998435 0)
(1.0103559 0.00028364882 0)
(1.0101936 0.00018463662 0)
(1.0100709 6.3962538e-05 0)
(1.0019108 0.0049612931 0)
(1.0064439 0.012364059 0)
(1.0038785 0.010016708 0)
(1.0048423 -0.00269589 0)
(1.0204556 -0.010434546 0)
(1.0317805 -0.0027929119 0)
(1.0287031 0.010903729 0)
(1.0174786 0.014995944 0)
(1.010837 0.010026919 0)
(1.0115621 0.0037750978 0)
(1.0151456 0.0015347723 0)
(1.0171793 0.0026924462 0)
(1.016599 0.0043302587 0)
(1.01504 0.0051173945 0)
(1.0135141 0.0049342195 0)
(1.0124431 0.0040744165 0)
(1.0119077 0.003139276 0)
(1.0116426 0.0023543095 0)
(1.011459 0.0017311067 0)
(1.0112953 0.0012557067 0)
(1.0111417 0.00091045973 0)
(1.0109943 0.00067318112 0)
(1.0108442 0.0005214142 0)
(1.0106826 0.00042505122 0)
(1.0105053 0.00035023365 0)
(1.0103241 0.0002777509 0)
(1.0101548 0.00018001111 0)
(1.0100299 6.1454239e-05 0)
(0.9892344 0.0047059308 0)
(0.98950491 0.016260748 0)
(0.99006029 0.012795922 0)
(1.0014094 -0.0064405508 0)
(1.021248 -0.014188832 0)
(1.0346899 -0.0032365234 0)
(1.0308448 0.012732252 0)
(1.0169946 0.018702277 0)
(1.0080319 0.011994066 0)
(1.0092696 0.0033200976 0)
(1.0147357 -7.4389823e-05 0)
(1.0182721 0.0017546392 0)
(1.0179388 0.0044269173 0)
(1.0158564 0.0058510258 0)
(1.0137493 0.0058280447 0)
(1.0123928 0.0047957313 0)
(1.011771 0.0035803376 0)
(1.0115627 0.002618481 0)
(1.01145 0.0019124955 0)
(1.0113326 0.0013938844 0)
(1.011207 0.0010133557 0)
(1.0110842 0.00074210908 0)
(1.010961 0.00056392185 0)
(1.010825 0.00045725456 0)
(1.010666 0.00039030392 0)
(1.010485 0.00033520616 0)
(1.0102955 0.00026867846 0)
(1.010119 0.00017266622 0)
(1.0099923 5.834459e-05 0)
(0.9754624 0.0072548547 0)
(0.97474128 0.017811828 0)
(0.97436579 0.012154306 0)
(0.9927257 -0.0062701035 0)
(1.020832 -0.018698028 0)
(1.0392217 -0.0066519648 0)
(1.0326217 0.016436073 0)
(1.0151861 0.023452623 0)
(1.0040633 0.014429768 0)
(1.0061263 0.0025142681 0)
(1.0140161 -0.002238623 0)
(1.0196514 0.00016574476 0)
(1.0197928 0.0044416175 0)
(1.0170105 0.006781169 0)
(1.0140424 0.0069892342 0)
(1.0122055 0.0057029451 0)
(1.0114916 0.0041031328 0)
(1.0113728 0.0028817112 0)
(1.0113791 0.0020717729 0)
(1.0113349 0.001519739 0)
(1.0112442 0.0011155524 0)
(1.0111445 0.00081269312 0)
(1.0110489 0.00060145162 0)
(1.0109464 0.00047244024 0)
(1.0108195 0.0004017482 0)
(1.0106585 0.00035885482 0)
(1.0104705 0.00031894705 0)
(1.01027 0.0002536644 0)
(1.0100871 0.00016285132 0)
(1.0099583 5.5027964e-05 0)
(0.95959416 0.0079912278 -2.713909e-24)
(0.95854334 0.020546743 0)
(0.96055582 0.014121332 0)
(0.98331367 -0.012370164 0)
(1.0199499 -0.023695286 0)
(1.0426464 -0.0075197858 0)
(1.0369688 0.018758164 0)
(1.0122232 0.029053008 0)
(0.9985568 0.017558049 0)
(1.0017823 0.0014441996 0)
(1.012989 -0.0054204817 0)
(1.0214095 -0.0020125871 0)
(1.0222802 0.0041846972 0)
(1.0186382 0.0080091927 0)
(1.0144222 0.0085414065 0)
(1.01183 0.0068735025 0)
(1.0110059 0.0047306769 0)
(1.0110256 0.0031276817 0)
(1.0112277 0.0021838701 0)
(1.0113022 0.0016138002 0)
(1.011259 0.0012102138 0)
(1.0111776 0.00088763799 0)
(1.0111033 0.00064091149 0)
(1.0110346 0.00047860548 0)
(1.0109493 0.00039031032 0)
(1.010826 0.00034993537 0)
(1.0106597 0.00032770192 0)
(1.0104613 0.00029713653 0)
(1.0102489 0.00023494203 0)
(1.0100591 0.0001524615 0)
(1.0099275 5.2132154e-05 0)
(0.94142103 0.010189013 4.7175912e-24)
(0.94128517 0.02280259 2.8323455e-24)
(0.94600303 0.012490892 0)
(0.97306695 -0.015391107 0)
(1.017423 -0.029170037 0)
(1.0430855 -0.01367109 0)
(1.0442732 0.024909379 0)
(1.0109677 0.035228625 0)
(0.99141169 0.020867163 0)
(0.99621877 -0.0001214478 0)
(1.0114694 -0.0094327884 0)
(1.0236335 -0.0052605004 0)
(1.0256197 0.0038035643 0)
(1.0208602 0.0095428348 0)
(1.014937 0.010649743 0)
(1.0112152 0.008415746 0)
(1.010193 0.0054825339 0)
(1.0104651 0.0033404713 0)
(1.0109687 0.0022075642 0)
(1.0112368 0.0016442161 0)
(1.0112649 0.0012823346 0)
(1.0111945 0.0009671157 0)
(1.0111262 0.00069028474 0)
(1.0110831 0.00048528291 0)
(1.0110412 0.00036461191 0)
(1.0109676 0.00031228421 0)
(1.0108434 0.00029774473 0)
(1.0106689 0.00029172337 0)
(1.0104564 0.00026820909 0)
(1.0102323 0.00021639802 0)
(1.0100345 0.00014352145 0)
(1.0098994 5.0254481e-05 0)
(0.92152114 0.011848165 -4.7362374e-24)
(0.92203082 0.025544537 -3.9940542e-24)
(0.92856802 0.013299638 0)
(0.96266071 -0.021468642 0)
(1.0102293 -0.03479383 0)
(1.0400934 -0.013680456 0)
(1.0447575 0.026822727 0)
(1.0155763 0.04389562 0)
(0.98417048 0.025002797 0)
(0.98897897 -0.0024298637 0)
(1.0096517 -0.014952233 0)
(1.0263698 -0.0093447898 0)
(1.0299365 0.0028872687 0)
(1.0238823 0.011596555 0)
(1.015601 0.013471677 0)
(1.0102784 0.010501542 0)
(1.0089268 0.0063793626 0)
(1.0095952 0.0034943198 0)
(1.0105659 0.0020828915 0)
(1.0111448 0.0015619258 0)
(1.0112855 0.0013070804 0)
(1.0112163 0.0010473538 0)
(1.0111288 0.00075799806 0)
(1.0110905 0.00050537557 0)
(1.0110852 0.00033603415 0)
(1.011067 0.00025313903 0)
(1.0110011 0.00023119401 0)
(1.0108731 0.00023952479 0)
(1.0106856 0.000249413 0)
(1.0104565 0.00023790786 0)
(1.0102196 0.00020036704 0)
(1.0100126 0.0001375443 0)
(1.0098729 4.9827059e-05 0)
(0.90118105 0.013754159 0)
(0.90192786 0.028238766 4.0003501e-24)
(0.9097819 0.012630085 0)
(0.94762734 -0.026216093 0)
(1.0014472 -0.039150496 0)
(1.0317918 -0.0171261 0)
(1.0315141 0.033433673 0)
(1.0094631 0.053203628 0)
(0.97598996 0.030234449 0)
(0.98056352 -0.0049600073 0)
(1.007083 -0.021565307 0)
(1.029787 -0.015021956 0)
(1.0354981 0.0018273422 0)
(1.0278196 0.014077898 0)
(1.0164907 0.017248337 0)
(1.0089133 0.013266372 0)
(1.0070536 0.0075185611 0)
(1.0082819 0.0035134751 0)
(1.0099734 0.001744493 0)
(1.0110272 0.0012998621 0)
(1.0113444 0.0012398928 0)
(1.0112752 0.0011186147 0)
(1.0111316 0.00085547237 0)
(1.0110631 0.00055647448 0)
(1.011075 0.00032087196 0)
(1.0111106 0.00018460326 0)
(1.0111134 0.00013496177 0)
(1.0110513 0.00014272141 0)
(1.0109134 0.00017672624 0)
(1.0107082 0.00020557146 0)
(1.0104613 0.00021125029 0)
(1.0102099 0.0001890402 0)
(1.0099923 0.00013570991 0)
(1.0098474 5.1110642e-05 0)
(0.88069204 0.015567435 9.4700944e-25)
(0.88222324 0.030867487 0)
(0.89040243 0.012597534 -4.1857285e-23)
(0.93035499 -0.031611618 0)
(0.98832116 -0.045006339 0)
(1.0207397 -0.015221004 0)
(1.0136531 0.038819943 0)
(0.98445024 0.063551663 0)
(0.96256034 0.038334539 0)
(0.96952269 -0.0088867995 0)
(1.0041112 -0.030077297 0)
(1.0336855 -0.021614405 0)
(1.0422831 -0.00013191127 0)
(1.0329306 0.017413558 0)
(1.0175524 0.022199454 0)
(1.0069692 0.016964187 0)
(1.0043864 0.0089071647 0)
(1.0063698 0.0033760536 0)
(1.0091162 0.001064308 0)
(1.0108922 0.00076008776 0)
(1.011499 0.001051971 0)
(1.0113946 0.0011646703 0)
(1.0111662 0.0009939631 0)
(1.0110153 0.00066287131 0)
(1.0110089 0.00034170277 0)
(1.0110859 0.00012359084 0)
(1.0111636 1.9568633e-05 0)
(1.0111834 7.1202481e-06 0)
(1.0111165 5.0717382e-05 0)
(1.0109627 0.00011338455 0)
(1.0107369 0.00016556109 0)
(1.0104702 0.00019102445 0)
(1.0102023 0.000184624 0)
(1.0099731 0.00013871428 0)
(1.0098216 5.4261296e-05 0)
(0.86106647 0.01715491 -1.0472201e-23)
(0.86331292 0.033337907 -6.793274e-24)
(0.87160241 0.01213552 4.1849197e-23)
(0.91176743 -0.037275795 4.1143696e-23)
(0.97156645 -0.050284525 -7.4374345e-23)
(1.0070257 -0.017064362 0)
(0.99786246 0.048627358 0)
(0.96246524 0.072456026 0)
(0.94358028 0.043987272 0)
(0.95628585 -0.011819672 0)
(0.99959905 -0.039756016 0)
(1.038075 -0.030265079 0)
(1.0502969 -0.0021024059 0)
(1.0390921 0.021326308 0)
(1.0188762 0.028622775 0)
(1.0042569 0.021782073 0)
(1.0006577 0.010707809 0)
(1.0036721 0.0029434605 0)
(1.0079114 -5.8722187e-05 0)
(1.0107472 -0.00019517083 0)
(1.0118114 0.00063453731 0)
(1.0116918 0.0011865017 0)
(1.0112832 0.001189122 0)
(1.0109727 0.00085131044 0)
(1.010891 0.00042969408 0)
(1.0109829 9.4352744e-05 0)
(1.0111325 -9.893813e-05 0)
(1.0112484 -0.00015975571 0)
(1.0112756 -0.00012482183 0)
(1.0111957 -4.0320069e-05 0)
(1.01102 5.5314609e-05 0)
(1.0107698 0.00013498236 0)
(1.0104819 0.00018041031 0)
(1.0101969 0.00018742723 0)
(1.009954 0.00014692094 0)
(1.0097949 5.9288063e-05 0)
(0.84340744 0.018436238 1.4283982e-23)
(0.84622695 0.03544678 4.742391e-24)
(0.85411599 0.011787946 0)
(0.89249425 -0.042910248 2.0779302e-24)
(0.95216962 -0.055580957 7.4002197e-23)
(0.99047995 -0.019121935 1.8090379e-22)
(0.98061912 0.056073376 9.2472755e-23)
(0.94400974 0.081169027 0)
(0.9255388 0.049765799 0)
(0.94359103 -0.017642557 0)
(0.99419563 -0.051816458 0)
(1.0428726 -0.039407206 0)
(1.0592239 -0.0053367006 0)
(1.0460556 0.02662811 0)
(1.0199995 0.036817698 0)
(1.0005401 0.027998497 0)
(0.99559845 0.012888063 0)
(0.99996865 0.0022378835 0)
(1.0062396 -0.0018561266 0)
(1.0105995 -0.0016960714 0)
(1.0123557 -0.00012224412 0)
(1.0122732 0.001125825 0)
(1.01154 0.001425611 0)
(1.0109869 0.0011661807 0)
(1.0107322 0.00062413032 0)
(1.0107928 0.0001293452 0)
(1.0110024 -0.00019872164 0)
(1.0112229 -0.00034557815 0)
(1.0113649 -0.00034520876 0)
(1.0113879 -0.00025427417 0)
(1.0112877 -0.00012370219 0)
(1.0110835 9.4900497e-06 0)
(1.0108062 0.00011697543 0)
(1.0104932 0.00018103089 0)
(1.0101906 0.00019918895 0)
(1.0099337 0.0001605368 0)
(1.0097663 6.6045868e-05 0)
(0.82897488 0.0194609 -8.6113702e-25)
(0.83181037 0.037138903 -2.3983512e-24)
(0.83872126 0.011296625 -2.3335762e-23)
(0.87369857 -0.04823029 -2.5267669e-23)
(0.93120894 -0.06110669 -4.4621683e-23)
(0.9703573 -0.019855223 2.0741783e-22)
(0.96359361 0.061515566 2.4239365e-22)
(0.92539724 0.09097593 -3.7769517e-23)
(0.90861588 0.050324311 0)
(0.93061241 -0.022934151 0)
(0.98965254 -0.065719015 0)
(1.0491649 -0.052433202 0)
(1.070783 -0.007892312 0)
(1.0535906 0.032827985 0)
(1.0203058 0.047114564 0)
(0.99532366 0.035926991 0)
(0.98880186 0.015641272 0)
(0.99501505 0.00098767114 0)
(1.0039965 -0.0044012239 0)
(1.0104436 -0.0039925615 0)
(1.0132246 -0.0013335208 0)
(1.0132444 0.00092185138 0)
(1.0120897 0.0017897799 0)
(1.0110795 0.0016179136 0)
(1.0105673 0.00098788284 0)
(1.0105095 0.00027497893 0)
(1.0107529 -0.00024962661 0)
(1.0110824 -0.00053272473 0)
(1.0113593 -0.00060342862 0)
(1.0115115 -0.00052819487 0)
(1.0115182 -0.00037350114 0)
(1.0113891 -0.00019168556 0)
(1.0111518 -2.0030076e-05 0)
(1.0108436 0.00011399715 0)
(1.0105062 0.00019561114 0)
(1.010183 0.00022056285 0)
(1.0099116 0.00017924792 0)
(1.0097354 7.42658e-05 0)
(0.81779399 0.020064832 -4.0906228e-24)
(0.82075541 0.038361331 8.0958994e-25)
(0.82638104 0.010844452 0)
(0.85591717 -0.053146724 2.9038433e-23)
(0.90928343 -0.066136345 -6.7414371e-23)
(0.94909648 -0.02174321 0)
(0.94315196 0.069303671 -4.0815298e-22)
(0.90875235 0.099663205 -4.3190197e-22)
(0.89003401 0.057723868 0)
(0.91860332 -0.032939206 0)
(0.98470766 -0.080975301 0)
(1.0558815 -0.064907457 0)
(1.0866714 -0.014110228 0)
(1.0652953 0.040933361 0)
(1.0199212 0.059840335 0)
(0.98779101 0.045496465 0)
(0.97994424 0.018972818 0)
(0.98847973 -0.00075690044 0)
(1.0010433 -0.0080962149 0)
(1.0102877 -0.007198481 0)
(1.0145307 -0.003215292 0)
(1.0147629 0.00052669631 0)
(1.0130697 0.002265452 0)
(1.0113545 0.0023216905 0)
(1.010396 0.0015702749 0)
(1.0101344 0.00058810908 0)
(1.0103628 -0.00020953805 0)
(1.0107984 -0.00069735538 0)
(1.0112304 -0.00088771835 0)
(1.0115409 -0.00085900538 0)
(1.0116855 -0.00069777921 0)
(1.0116631 -0.00047350149 0)
(1.0114972 -0.00023900128 0)
(1.0112225 -3.0433585e-05 0)
(1.0108805 0.00012710518 0)
(1.0105173 0.0002234055 0)
(1.0101734 0.0002504539 0)
(1.0098871 0.00020242908 0)
(1.0097016 8.36346e-05 0)
(0.81126347 0.020195871 0)
(0.81387092 0.039055319 0)
(0.81747636 0.010239713 -8.3850534e-25)
(0.84085783 -0.057318369 0)
(0.88694014 -0.070803843 -2.2304826e-24)
(0.92600916 -0.02304117 2.1550281e-22)
(0.92312275 0.075716531 7.4323037e-22)
(0.8904127 0.1091281 -3.2487156e-23)
(0.87363887 0.064328608 0)
(0.90130273 -0.038924775 0)
(0.98093197 -0.096049805 0)
(1.0581701 -0.081688511 0)
(1.0970012 -0.018399451 0)
(1.0837221 0.048503964 0)
(1.0242865 0.074671901 0)
(0.97833667 0.057166134 0)
(0.96831455 0.022765261 0)
(0.98018823 -0.0033527564 0)
(0.99722719 -0.01292399 0)
(1.0101218 -0.011749952 0)
(1.0163909 -0.0058594859 0)
(1.017019 -0.00020888473 0)
(1.0146536 0.002897569 0)
(1.0119482 0.0033657826 0)
(1.0102417 0.0024658635 0)
(1.009667 0.001157484 0)
(1.009803 -3.5250413e-05 0)
(1.0103375 -0.00081282019 0)
(1.0109452 -0.0011849303 0)
(1.0114463 -0.0012423639 0)
(1.0117635 -0.0010972678 0)
(1.0118817 -0.00084238638 0)
(1.0118189 -0.00054720341 0)
(1.0116093 -0.00026204891 0)
(1.0112932 -2.0300613e-05 0)
(1.0109168 0.00015777627 0)
(1.010526 0.00026313429 0)
(1.0101607 0.00028819893 0)
(1.0098593 0.00022940016 0)
(1.0096647 9.3786007e-05 0)
(0.81147355 0.039237437 -6.1683169e-25)
(0.81018278 0.019976395 0)
(0.81264911 0.0097737056 -9.4454435e-24)
(0.82892037 -0.060713053 7.7268078e-25)
(0.86616412 -0.074752581 -5.057946e-23)
(0.90226605 -0.024371884 -1.6658238e-24)
(0.90146974 0.082436626 1.2910021e-24)
(0.87300918 0.11806514 -2.564225e-22)
(0.85699811 0.071784881 -5.8212058e-23)
(0.88394206 -0.041570849 0)
(0.96846081 -0.1125609 -4.1604527e-22)
(1.0577832 -0.091087808 0)
(1.0981313 -0.029703382 0)
(1.1004444 0.059073221 0)
(1.0346567 0.091723524 0)
(0.97096423 0.070746216 0)
(0.95372929 0.027234169 0)
(0.96962814 -0.0069223264 0)
(0.9925159 -0.019469426 0)
(1.0099392 -0.017598673 0)
(1.0189409 -0.0096844485 0)
(1.0202342 -0.0012917568 0)
(1.0170437 0.0036442297 0)
(1.0130052 0.004877249 0)
(1.0101905 0.0038280363 0)
(1.0090437 0.0020418819 0)
(1.0090573 0.00036402058 0)
(1.0096571 -0.00083706867 0)
(1.0104634 -0.0014807437 0)
(1.011194 -0.0016753516 0)
(1.0117237 -0.0015741829 0)
(1.0120196 -0.001302695 0)
(1.0120944 -0.00095295174 0)
(1.0119812 -0.00058991199 0)
(1.0117224 -0.00025899703 0)
(1.0113623 1.1091022e-05 0)
(1.0109505 0.00020533209 0)
(1.0105313 0.00031370354 0)
(1.0101446 0.00033197927 0)
(1.0098284 0.00025890641 0)
(1.0096249 0.00010437372 0)
(0.81145939 0.009506035 8.4737019e-24)
(0.81456406 0.039122477 0)
(0.81515953 0.019257963 1.1937751e-24)
(0.81868088 -0.0631444 -7.7209554e-25)
(0.84799007 -0.077767662 2.3134195e-23)
(0.87909851 -0.025590112 3.5841995e-22)
(0.88032063 0.088426656 -6.4727357e-22)
(0.85583636 0.12648962 -1.296193e-22)
(0.84173188 0.078977525 -5.8891777e-23)
(0.86643236 -0.045611321 2.1005859e-23)
(0.95099687 -0.12666612 -4.721105e-22)
(1.0482038 -0.10894953 4.3300568e-22)
(1.0948996 -0.029890897 0)
(1.0995644 0.066317866 0)
(1.0420704 0.11415324 0)
(0.96525409 0.088170834 0)
(0.93693327 0.031939473 0)
(0.95686555 -0.011593637 0)
(0.98660363 -0.027624945 0)
(1.009802 -0.025454985 0)
(1.0222903 -0.014603817 0)
(1.024653 -0.0030570806 0)
(1.0205239 0.0046360852 0)
(1.0146787 0.0069582707 0)
(1.0103155 0.0058398764 0)
(1.0082633 0.0033970032 0)
(1.008042 0.0010462026 0)
(1.008702 -0.00073764123 0)
(1.0097367 -0.0017533528 0)
(1.0107436 -0.0021546826 0)
(1.0115346 -0.0021334203 0)
(1.012051 -0.0018616607 0)
(1.0123005 -0.0014636008 0)
(1.0123175 -0.0010237662 0)
(1.0121461 -0.00059934858 0)
(1.0118337 -0.00022926574 0)
(1.0114285 6.3737349e-05 0)
(1.0109802 0.00026739506 0)
(1.0105326 0.00037346464 0)
(1.0101247 0.0003801047 0)
(1.0097941 0.00029021669 0)
(1.0095819 0.00011513067 0)
(0.81285214 -0.064366329 4.8575316e-24)
(0.81660612 0.0093566304 2.4742417e-23)
(0.82419563 0.038466014 0)
(0.82396338 0.018105724 3.6307706e-25)
(0.83048723 -0.080026983 -1.6021839e-23)
(0.85791437 -0.026436331 -1.5726192e-22)
(0.86035061 0.093604863 0)
(0.84040222 0.13386371 1.2872408e-22)
(0.82858096 0.085942462 -4.6189192e-23)
(0.84970621 -0.049264453 -2.0744253e-23)
(0.93198442 -0.1412978 5.3210659e-22)
(1.0320059 -0.12671926 4.9025963e-22)
(1.0855235 -0.038126602 0)
(1.0815196 0.07890689 0)
(1.0271817 0.13675849 0)
(0.95349955 0.1098402 0)
(0.91933588 0.03932172 0)
(0.94077466 -0.018317487 0)
(0.97989003 -0.038012615 0)
(1.0095594 -0.03491609 0)
(1.0265934 -0.02139993 0)
(1.030542 -0.005327268 0)
(1.025357 0.0056851968 0)
(1.0172121 0.009828641 0)
(1.0106698 0.008697391 0)
(1.0073212 0.0054194827 0)
(1.0066412 0.002092101 0)
(1.0074026 -0.00042069085 0)
(1.0086942 -0.0019980971 0)
(1.0100478 -0.0026890944 0)
(1.0111616 -0.0027858078 0)
(1.0119494 -0.0025306888 0)
(1.012415 -0.0020898365 0)
(1.0125973 -0.0015731911 0)
(1.0125452 -0.0010523589 0)
(1.0123097 -0.00057514048 0)
(1.0119413 -0.00017331633 0)
(1.0114901 0.0001359575 0)
(1.0110051 0.00034187337 0)
(1.0105294 0.00044014298 0)
(1.0101007 0.00043187864 0)
(1.0097564 0.00032250268 0)
(1.0095363 0.00012579123 0)
(0.8183468 -0.081182502 -9.7614748e-24)
(0.81382429 -0.064511937 -6.2019361e-24)
(0.82767374 0.00938389 -2.2099745e-23)
(0.83751574 0.0372498 -1.0385474e-23)
(0.83581988 0.016581381 -1.7273081e-24)
(0.83825718 -0.027186204 1.4968948e-22)
(0.84299796 0.0978272 8.6308752e-23)
(0.82750136 0.13997744 0)
(0.81824795 0.092031666 3.8910238e-23)
(0.83475313 -0.052636754 2.4678067e-23)
(0.91191501 -0.15648819 0)
(1.0128146 -0.14312065 -7.2925125e-22)
(1.0713872 -0.054655182 0)
(1.0646298 0.091483784 0)
(1.0005548 0.15838739 0)
(0.93664762 0.131964 0)
(0.90173788 0.047588729 0)
(0.92262922 -0.025087229 0)
(0.9714688 -0.050609332 0)
(1.0095246 -0.047057272 0)
(1.0318179 -0.029510476 0)
(1.038146 -0.0088760244 0)
(1.0319575 0.0071680536 0)
(1.0207955 0.013576772 0)
(1.011368 0.012676707 0)
(1.0061714 0.0083101752 0)
(1.0047792 0.0036663238 0)
(1.0056135 0.00011824669 0)
(1.0072491 -0.0021729357 0)
(1.0090371 -0.0032710345 0)
(1.0105611 -0.0035481412 0)
(1.0116868 -0.0033278505 0)
(1.0124168 -0.002846667 0)
(1.012802 -0.0022506293 0)
(1.0129017 -0.0016289111 0)
(1.0127726 -0.0010386932 0)
(1.0124691 -0.00051832501 0)
(1.0120434 -9.2793069e-05 0)
(1.0115459 0.00022478565 0)
(1.0110244 0.00042630011 0)
(1.0105213 0.00051184364 0)
(1.0100728 0.00048505551 0)
(1.0097157 0.00035472766 0)
(1.0094882 0.00013619541 0)
(0.82283504 -0.027866359 6.7057502e-24)
(0.81191538 -0.081178773 8.726161e-24)
(0.82006131 -0.063628505 3.6892634e-23)
(0.84323968 0.0095085908 1.0754628e-23)
(0.85274012 0.035575847 -2.6342437e-23)
(0.85106242 0.014830129 2.9403949e-24)
(0.82908536 0.10091837 -1.640353e-22)
(0.8185118 0.14483789 -7.6762838e-23)
(0.81141597 0.097332115 -1.391604e-22)
(0.82282005 -0.055630821 -3.0809058e-23)
(0.89130757 -0.1711351 -7.3653824e-22)
(0.99026262 -0.16073403 5.6039509e-22)
(1.054443 -0.065405336 0)
(1.0556324 0.087990499 -1.6086494e-21)
(0.98048462 0.17949583 1.3909325e-21)
(0.92079283 0.14759206 0)
(0.88615758 0.059194746 0)
(0.90356059 -0.035223141 0)
(0.96202957 -0.065794775 0)
(1.0092941 -0.060746088 0)
(1.0381733 -0.040366983 0)
(1.047689 -0.013001071 0)
(1.0405448 0.0084353419 0)
(1.0258103 0.018601737 0)
(1.0124407 0.01805321 0)
(1.0047462 0.012358145 0)
(1.0023363 0.005921775 0)
(1.0031746 0.00094981481 0)
(1.00529 -0.0022642502 0)
(1.0076307 -0.0039479847 0)
(1.0096825 -0.0044495639 0)
(1.0112317 -0.0042789941 0)
(1.0122861 -0.0037552172 0)
(1.012916 -0.0030720933 0)
(1.0131999 -0.0023417864 0)
(1.0132065 -0.00163131 0)
(1.0129954 -0.00098440341 0)
(1.0126218 -0.00043113425 0)
(1.0121383 9.2409895e-06 0)