/*--------------------------------*- C++ -*----------------------------------*\
| =========                 |                                                 |
| \\      /  F ield         | OpenFOAM: The Open Source CFD Toolbox           |
|  \\    /   O peration     | Version:  5.0                                   |
|   \\  /    A nd           | Web:      www.OpenFOAM.org                      |
|    \\/     M anipulation  |                                                 |
\*---------------------------------------------------------------------------*/
FoamFile
{
    version     2.0;
    format      ascii;
    class       volVectorField;
    location    "360";
    object      UMean;
}
// * * * * * * * * * * * * * * * * * * * * * * * * * * * * * * * * * * * * * //

dimensions      [0 1 -1 0 0 0 0];

internalField   nonuniform List<vector> 
9520
(
(1.011381 7.1405329e-05 0)
(1.011472 0.00020906927 0)
(1.0111685 7.2276866e-05 0)
(1.0116332 0.00033736695 0)
(1.0112601 0.00021189163 0)
(1.0110835 7.2688679e-05 0)
(1.0118499 0.00045578224 0)
(1.011423 0.00034245619 0)
(1.0111751 0.00021314806 0)
(1.0109461 7.2988736e-05 0)
(1.0121086 0.00056454159 0)
(1.0116426 0.00046363613 0)
(1.0113381 0.00034503458 0)
(1.0110371 0.00021446148 0)
(1.0108402 7.2935583e-05 0)
(1.0123976 0.00066307757 0)
(1.0119061 0.0005757794 0)
(1.0115582 0.00046814925 0)
(1.0111993 0.0003481704 0)
(1.0109306 0.0002145342 0)
(1.0107259 7.2209319e-05 0)
(1.0127064 0.00075114819 0)
(1.0122023 0.0006783864 0)
(1.0118228 0.00058300038 0)
(1.0114188 0.0004742808 0)
(1.0110916 0.0003492276 0)
(1.0108146 0.00021280512 0)
(1.0106223 7.0945834e-05 0)
(1.0130258 0.00082850799 0)
(1.0125211 0.000771242 0)
(1.0121207 0.00068917721 0)
(1.0116832 0.00059354879 0)
(1.0113096 0.00047754114 0)
(1.0109727 0.00034760588 0)
(1.0107093 0.00020940598 0)
(1.0105232 6.869914e-05 0)
(1.0133482 0.00089450435 0)
(1.0128538 0.00085392802 0)
(1.0124422 0.00078655669 0)
(1.0119818 0.0007057419 0)
(1.0115727 0.00060051861 0)
(1.0111868 0.0004775656 0)
(1.0108643 0.00034317613 0)
(1.0106077 0.00020313058 0)
(1.0104308 6.5702939e-05 0)
(1.0136667 0.00094994699 0)
(1.0131923 0.00092596818 0)
(1.0127785 0.00087492792 0)
(1.0123052 0.00081081424 0)
(1.0118703 0.0007180758 0)
(1.0114453 0.00060408814 0)
(1.0110742 0.00047363475 0)
(1.0107579 0.00033406219 0)
(1.0105127 0.00019458453 0)
(1.0103476 6.1629094e-05 0)
(1.0139761 0.00099189271 0)
(1.0135307 0.00098782653 0)
(1.0131221 0.00095349794 0)
(1.012645 0.00090838647 0)
(1.0121934 0.00083027672 0)
(1.0117383 0.00072740883 0)
(1.0113278 0.00060251786 0)
(1.0109611 0.00046330377 0)
(1.0106581 0.00032109684 0)
(1.0104264 0.00018279124 0)
(1.0102714 5.676372e-05 0)
(1.0142718 0.0010274861 0)
(1.0138631 0.0010370435 0)
(1.0134668 0.0010225804 0)
(1.0129938 0.00099774084 0)
(1.0125337 0.00093681826 0)
(1.0120567 0.00084778195 0)
(1.0116152 0.0007303152 0)
(1.0112063 0.00059297005 0)
(1.0108546 0.00044742394 0)
(1.0105661 0.00030264029 0)
(1.0103472 0.00016858092 0)
(1.0102061 5.0947234e-05 0)
(1.0145509 0.0010454102 0)
(1.0141893 0.0010786725 0)
(1.0138064 0.0010807688 0)
(1.0133457 0.0010793017 0)
(1.012884 0.0010372132 0)
(1.0123928 0.00096498316 0)
(1.0119277 0.00085748079 0)
(1.0114841 0.00072392444 0)
(1.0110914 0.00057601904 0)
(1.0107542 0.00042367318 0)
(1.010481 0.00028000888 0)
(1.0102789 0.00015144299 0)
(1.0101489 4.448611e-05 0)
(1.0148105 0.0010660107 0)
(1.0145013 0.0010991613 0)
(1.0141359 0.0011315347 0)
(1.0136976 0.0011507958 0)
(1.0132387 0.0011315793 0)
(1.01274 0.0010784884 0)
(1.012258 0.00098397514 0)
(1.0117861 0.00085691545 0)
(1.0113592 0.00070807633 0)
(1.0109801 0.00054869458 0)
(1.0106609 0.00039377098 0)
(1.010407 0.00025226158 0)
(1.0102189 0.00013229485 0)
(1.010103 3.735292e-05 0)
(1.0150486 0.0010488346 0)
(1.0147909 0.0011278406 0)
(1.0144496 0.0011688896 0)
(1.0140461 0.0012147382 0)
(1.0135908 0.0012186632 0)
(1.0130932 0.0011881979 0)
(1.0125992 0.0011095485 0)
(1.0121052 0.00099210917 0)
(1.0116499 0.00084463799 0)
(1.0112346 0.00067928378 0)
(1.0108761 0.00051297106 0)
(1.0105781 0.00035623995 0)
(1.0103414 0.00022092078 0)
(1.0101706 0.0001110254 0)
(1.0100657 2.9846179e-05 0)
(1.0152628 0.0010649526 0)
(1.0150643 0.0011207143 0)
(1.0147513 0.0012080765 0)
(1.0143782 0.0012626717 0)
(1.0139381 0.0013007854 0)
(1.0134494 0.0012915661 0)
(1.0129455 0.0012338938 0)
(1.0124356 0.0011292231 0)
(1.0119563 0.00098612997 0)
(1.0115099 0.00081683185 0)
(1.0111176 0.00063951796 0)
(1.0107815 0.00046672417 0)
(1.0105041 0.00031320227 0)
(1.0102881 0.00018571087 0)
(1.0101312 8.8535002e-05 0)
(1.0100391 2.2032219e-05 0)
(1.0154507 0.0010055062 0)
(1.0153164 0.0011498155 0)
(1.0150386 0.0012141691 0)
(1.0146923 0.0013147971 0)
(1.0142729 0.0013708832 0)
(1.0138007 0.0013921445 0)
(1.0132925 0.0013561057 0)
(1.0127729 0.0012677974 0)
(1.0122722 0.0011325081 0)
(1.0117995 0.00096206179 0)
(1.0113774 0.00077512837 0)
(1.0110081 0.00058598836 0)
(1.0106964 0.00041265574 0)
(1.0104432 0.00026410731 0)
(1.0102445 0.0001481484 0)
(1.0101031 6.4995639e-05 0)
(1.0100206 1.4188781e-05 0)
(1.0156042 0.0010374197 0)
(1.015541 0.0011018195 0)
(1.0153069 0.0012500883 0)
(1.0149932 0.0013390359 0)
(1.0145945 0.0014430192 0)
(1.0141403 0.0014815119 0)
(1.0136379 0.001476954 0)
(1.0131122 0.0014067202 0)
(1.012593 0.001283651 0)
(1.0120981 0.0011151287 0)
(1.0116488 0.00092085162 0)
(1.01125 0.00071614856 0)
(1.0109086 0.00052187278 0)
(1.0106246 0.00034980945 0)
(1.0103928 0.00021109609 0)
(1.0102133 0.0001084467 0)
(1.0100839 4.1250681e-05 0)
(1.0100115 6.4401656e-06 0)
(1.0157197 0.00092523149 0)
(1.0157288 0.0011482434 0)
(1.0155446 0.0012181767 0)
(1.0152751 0.0013905504 0)
(1.0149064 0.0014881064 0)
(1.0144664 0.0015748386 0)
(1.0139742 0.0015895629 0)
(1.0134494 0.0015468059 0)
(1.0129155 0.0014385709 0)
(1.0124013 0.0012759867 0)
(1.0119264 0.0010772089 0)
(1.011501 0.00085868593 0)
(1.011133 0.00064332898 0)
(1.0108225 0.00044570086 0)
(1.0105644 0.00028095649 0)
(1.0103563 0.00015435696 0)
(1.0101921 6.803894e-05 0)
(1.0100748 1.7651088e-05 0)
(1.0100094 -9.7072914e-07 0)
(1.0157611 0.00098357809 0)
(1.0158804 0.0010419605 0)
(1.0157532 0.0012672263 0)
(1.0155305 0.0013797046 0)
(1.0151962 0.0015563063 0)
(1.0147854 0.0016439987 0)
(1.0142987 0.0017063471 0)
(1.0137783 0.0016821673 0)
(1.013237 0.0015975425 0)
(1.0127051 0.0014436692 0)
(1.0122063 0.0012444212 0)
(1.0117561 0.0010144848 0)
(1.011363 0.00077890714 0)
(1.0110289 0.00055465658 0)
(1.0107492 0.00036084527 0)
(1.0105197 0.00020616739 0)
(1.0103312 9.5945692e-05 0)
(1.0101825 2.7469634e-05 0)
(1.0100735 -5.0485894e-06 0)
(1.0100147 -7.8979482e-06 0)
(1.015733 0.00081539564 0)
(1.015982 0.0011345338 0)
(1.0159252 0.0011775819 0)
(1.0157553 0.001440607 0)
(1.0154662 0.0015674157 0)
(1.0150816 0.0017349416 0)
(1.0146169 0.001802719 0)
(1.0140954 0.0018225087 0)
(1.0135514 0.0017556324 0)
(1.0130064 0.0016185651 0)
(1.0124856 0.0014217994 0)
(1.0120114 0.0011839774 0)
(1.0115936 0.00092991433 0)
(1.0112373 0.00067907392 0)
(1.0109387 0.000454007 0)
(1.0106928 0.00026716915 0)
(1.0104882 0.00012813843 0)
(1.0103198 3.6543024e-05 0)
(1.0101821 -1.1956869e-05 0)
(1.0100805 -2.6416014e-05 0)
(1.0100255 -1.4135734e-05 0)
(1.0154663 0.00090304276 0)
(1.0159722 0.00096065032 0)
(1.0160221 0.0012662463 0)
(1.0159486 0.0013813024 0)
(1.0157064 0.0016465931 0)
(1.0153628 0.001770625 0)
(1.0149187 0.0019194516 0)
(1.014405 0.0019481714 0)
(1.0138547 0.0019200356 0)
(1.0133009 0.001796335 0)
(1.0127617 0.001609401 0)
(1.0122638 0.0013666755 0)
(1.0118212 0.0010971784 0)
(1.0114428 0.00082076169 0)
(1.0111261 0.00056331651 0)
(1.0108666 0.00034096407 0)
(1.0106517 0.00016799299 0)
(1.0104728 4.7665347e-05 0)
(1.0103195 -2.1930066e-05 0)
(1.0101917 -4.9527728e-05 0)
(1.0100938 -4.5833377e-05 0)
(1.0100414 -1.9558204e-05 0)
(1.0147638 0.00069209255 0)
(1.0158092 0.0010939081 0)
(1.0160518 0.0010995625 0)
(1.0160669 0.0014759402 0)
(1.015911 0.0016044521 0)
(1.0156172 0.001872619 0)
(1.0152036 0.0019847432 0)
(1.0147038 0.0020937661 0)
(1.0141479 0.0020745475 0)
(1.0135843 0.0019824932 0)
(1.0130309 0.0018034363 0)
(1.0125112 0.0015625913 0)
(1.0120436 0.0012806884 0)
(1.011642 0.00098096977 0)
(1.0113064 0.00069111436 0)
(1.011034 0.00043095312 0)
(1.0108119 0.00021942312 0)
(1.0106291 6.4207621e-05 0)
(1.0104709 -3.2694703e-05 0)
(1.0103316 -7.8499995e-05 0)
(1.010209 -8.4148513e-05 0)
(1.010113 -6.2883288e-05 0)
(1.0100607 -2.4008519e-05 0)
(1.0137171 0.00075017615 0)
(1.0151255 0.00088563321 0)
(1.0158869 0.0012447017 0)
(1.0161124 0.0013421999 0)
(1.0160445 0.0017138632 0)
(1.015833 0.0018560851 0)
(1.015467 0.0021143313 0)
(1.0149858 0.0021932948 0)
(1.0144344 0.0022491481 0)
(1.0138544 0.0021633055 0)
(1.0132877 0.0020085287 0)
(1.0127507 0.0017685136 0)
(1.012259 0.0014803079 0)
(1.0118327 0.0011600812 0)
(1.0114763 0.00083921634 0)
(1.0111898 0.00054008719 0)
(1.0109612 0.0002863307 0)
(1.0107782 9.0300934e-05 0)
(1.0106229 -4.1023891e-05 0)
(1.0104843 -0.00011170055 0)
(1.0103537 -0.00013150869 0)
(1.0102341 -0.00011511454 0)
(1.0101365 -7.7118568e-05 0)
(1.0100828 -2.7394881e-05 0)
(1.0132218 0.00062337738 0)
(1.0140755 0.00096504013 0)
(1.0152902 0.0010310743 0)
(1.0159797 0.0014936635 0)
(1.016106 0.00159957 0)
(1.0159881 0.0019844106 0)
(1.0156927 0.0021291203 0)
(1.0152492 0.0023557298 0)
(1.0147047 0.0023833668 0)
(1.0141201 0.0023644837 0)
(1.0135313 0.0022109524 0)
(1.0129761 0.0019876972 0)
(1.0124654 0.0016934171 0)
(1.0120136 0.0013580852 0)
(1.011634 0.0010085683 0)
(1.0113308 0.00067081649 0)
(1.011094 0.00037227809 0)
(1.0109119 0.00013033093 0)
(1.010764 -4.2625854e-05 0)
(1.0106353 -0.00014615225 0)
(1.0105104 -0.00018707266 0)
(1.0103859 -0.0001799358 0)
(1.010265 -0.00014161782 0)
(1.0101636 -8.8238317e-05 0)
(1.0101064 -2.9639217e-05 0)
(1.0114985 0.00061187426 0)
(1.0136813 0.00078974792 0)
(1.0142181 0.0011398611 0)
(1.0154191 0.0013060994 0)
(1.0159885 0.0017596262 0)
(1.0160648 0.0018960589 0)
(1.0158655 0.0022832719 0)
(1.0154762 0.002409646 0)
(1.0149574 0.0025796756 0)
(1.0143689 0.0025310433 0)
(1.0137703 0.0024345358 0)
(1.0131898 0.002207677 0)
(1.0126566 0.0019216447 0)
(1.0121838 0.0015730794 0)
(1.0117788 0.0011995561 0)
(1.0114551 0.00082465013 0)
(1.011207 0.00048041244 0)
(1.011024 0.00018851477 0)
(1.0108851 -3.2692724e-05 0)
(1.010772 -0.00017755028 0)
(1.0106638 -0.00024826707 0)
(1.01055 -0.00025742812 0)
(1.0104261 -0.00022251529 0)
(1.0103009 -0.0001631077 0)
(1.0101928 -9.5981307e-05 0)
(1.0101305 -3.0699602e-05 0)
(1.0057979 0.00045253793 0)
(1.0121552 0.00093683763 0)
(1.013827 0.00093124771 0)
(1.0143494 0.0014486895 0)
(1.0154623 0.0015899342 0)
(1.0159689 0.0020669194 0)
(1.0159587 0.0022303587 0)
(1.0156571 0.0025984614 0)
(1.0151744 0.0026743914 0)
(1.0146023 0.0027575174 0)
(1.0139913 0.0026282162 0)
(1.013397 0.0024492993 0)
(1.0128356 0.002155104 0)
(1.0123375 0.0018056687 0)
(1.0119104 0.0014108639 0)
(1.0115627 0.0010025788 0)
(1.0112985 0.00061297537 0)
(1.011111 0.00026874992 0)
(1.0109796 -6.370844e-06 0)
(1.0108844 -0.00020073328 0)
(1.0108 -0.0003108686 0)
(1.0107096 -0.0003455396 0)
(1.0106004 -0.00032094471 0)
(1.0104739 -0.00025839779 0)
(1.0103404 -0.00017908835 0)
(1.0102233 -0.00010019451 0)
(1.0101543 -3.0558079e-05 0)
(0.99702513 0.00045499257 0)
(1.0063575 0.00056556145 0)
(1.0125305 0.0011298511 0)
(1.0139502 0.001205571 0)
(1.0144124 0.0017561253 0)
(1.0154816 0.0019127738 0)
(1.0158886 0.0024243388 0)
(1.0157571 0.0025935578 0)
(1.0153489 0.0029004766 0)
(1.014799 0.0028898085 0)
(1.0141991 0.0028792478 0)
(1.0135865 0.0026654701 0)
(1.0130073 0.0024107644 0)
(1.0124777 0.0020474855 0)
(1.0120243 0.0016424064 0)
(1.0116538 0.0012039917 0)
(1.0113686 0.00077161822 0)
(1.0111709 0.00037405788 0)
(1.0110432 4.0993714e-05 0)
(1.0109649 -0.00021024466 0)
(1.0109078 -0.00036947084 0)
(1.0108496 -0.00044030456 0)
(1.0107698 -0.00043553868 0)
(1.0106615 -0.00037638861 0)
(1.010527 -0.00028676664 0)
(1.0103824 -0.00018924315 0)
(1.0102539 -0.0001008117 0)
(1.0101769 -2.9210173e-05 0)
(0.98727634 0.00031897264 0)
(0.99769777 0.00069986318 0)
(1.0067386 0.00077089724 0)
(1.0128706 0.0014743262 0)
(1.0139787 0.0014850722 0)
(1.0144629 0.0020972523 0)
(1.0154482 0.0022927118 0)
(1.0157051 0.0028218758 0)
(1.0154429 0.0029439812 0)
(1.0149553 0.0031493675 0)
(1.0143704 0.0030420586 0)
(1.0137631 0.002937391 0)
(1.0131626 0.0026458456 0)
(1.0126098 0.0023131538 0)
(1.0121219 0.0018875745 0)
(1.0117253 0.0014285169 0)
(1.0114184 0.00095661677 0)
(1.0112043 0.00050694134 0)
(1.011074 0.00011329101 0)
(1.0110086 -0.00020062938 0)
(1.0109786 -0.00041808685 0)
(1.0109574 -0.0005361992 0)
(1.0109179 -0.00056271943 0)
(1.0108447 -0.00051653085 0)
(1.0107308 -0.00042248986 0)
(1.0105848 -0.00030707024 0)
(1.0104256 -0.00019341151 0)
(1.0102838 -9.7792236e-05 0)
(1.0101975 -2.667226e-05 0)
(0.97664965 0.00029513837 0)
(0.98796495 0.00047736578 0)
(0.99806027 0.00084754742 0)
(1.0072736 0.0011085554 0)
(1.0131634 0.0018060923 0)
(1.0139995 0.0018153232 0)
(1.0144639 0.0025122751 0)
(1.0153036 0.0027368271 0)
(1.0153908 0.0032108675 0)
(1.0150327 0.0032316913 0)
(1.014503 0.0033295379 0)
(1.0139077 0.0031227001 0)
(1.0133066 0.0029344067 0)
(1.0127266 0.0025637904 0)
(1.0122103 0.0021584292 0)
(1.0117769 0.0016711217 0)
(1.0114459 0.0011675169 0)
(1.0112124 0.00066843133 0)
(1.0110723 0.00021395824 0)
(1.0110133 -0.00016697041 0)
(1.0110067 -0.00045051038 0)
(1.0110235 -0.0006268144 0)
(1.0110308 -0.00069701642 0)
(1.0110056 -0.00067584126 0)
(1.0109313 -0.00058672474 0)
(1.0108076 -0.00045832334 0)
(1.0106454 -0.00031902885 0)
(1.0104691 -0.00019150563 0)
(1.0103121 -9.1173229e-05 0)
(1.0102155 -2.2982481e-05 0)
(0.96390658 0.00017097103 -2.3708019e-24)
(0.97741744 0.0004910549 0)
(0.98839954 0.00065286172 0)
(0.99852636 0.0011030613 0)
(1.0079836 0.0014220848 0)
(1.0134505 0.0021576929 0)
(1.0139582 0.0022332696 0)
(1.014347 0.0030017107 0)
(1.0150114 0.0031803504 0)
(1.014969 0.0035322187 0)
(1.0145596 0.0034398394 0)
(1.0140165 0.0034334004 0)
(1.0134194 0.0031415644 0)
(1.0128335 0.0028671951 0)
(1.0122836 0.0024206597 0)
(1.0118172 0.0019416892 0)
(1.0114493 0.0014006375 0)
(1.0111948 0.00085849091 0)
(1.0110398 0.00034487317 0)
(1.0109791 -0.00010498772 0)
(1.0109892 -0.00046086199 0)
(1.0110409 -0.00070522302 0)
(1.0110974 -0.00083173975 0)
(1.0111288 -0.00084909307 0)
(1.0111094 -0.00077724133 0)
(1.0110292 -0.00064474657 0)
(1.0108894 -0.00048319131 0)
(1.0107076 -0.00032198826 0)
(1.0105115 -0.00018337754 0)
(1.010338 -8.1047289e-05 0)
(1.0102304 -1.8198726e-05 0)
(0.94901493 0.00012012792 3.1747063e-24)
(0.9647261 0.00033465734 2.4744349e-24)
(0.97791176 0.00063948909 0)
(0.98889682 0.00091306275 0)
(0.9991119 0.001359461 0)
(1.0088455 0.0017978615 0)
(1.0136365 0.0026228272 0)
(1.0137522 0.002758447 0)
(1.0140692 0.0034908493 0)
(1.0145997 0.0035447408 0)
(1.0144838 0.0037630297 0)
(1.0140527 0.0035662503 0)
(1.0135041 0.0034696265 0)
(1.0129123 0.0030955356 0)
(1.012348 0.0027354339 0)
(1.0118416 0.0022100436 0)
(1.0114386 0.0016642084 0)
(1.0111488 0.0010745175 0)
(1.0109775 0.00050689365 0)
(1.0109078 -1.1732075e-05 0)
(1.010926 -0.00044363986 0)
(1.0110059 -0.00076450003 0)
(1.0111097 -0.00095935151 0)
(1.0112018 -0.0010294867 0)
(1.0112483 -0.00098924267 0)
(1.0112291 -0.00086497661 0)
(1.0111353 -0.00068951963 0)
(1.0109752 -0.00049679497 0)
(1.0107702 -0.00031615432 0)
(1.0105521 -0.00016920284 0)
(1.0103608 -6.7593232e-05 0)
(1.0102417 -1.2399396e-05 0)
(0.9329725 4.7617702e-05 -3.1889682e-24)
(0.94996945 0.00025515707 -7.622639e-24)
(0.96524313 0.00049800138 0)
(0.97851682 0.00086665501 0)
(0.98950638 0.0011236095 0)
(0.99992399 0.0016861833 0)
(1.0096745 0.0022809121 0)
(1.0136073 0.0032038991 0)
(1.0133607 0.0032967375 0)
(1.013669 0.0038789325 0)
(1.0141246 0.0038000883 0)
(1.0139686 0.003907885 0)
(1.0135215 0.0036228034 0)
(1.0129668 0.0034431663 0)
(1.0123861 0.0029839571 0)
(1.0118567 0.0025315836 0)
(1.0114095 0.0019312933 0)
(1.0110848 0.0013233846 0)
(1.0108821 0.00069781908 0)
(1.0108016 0.00011460252 0)
(1.010819 -0.00039492721 0)
(1.010918 -0.00079812533 0)
(1.0110628 -0.0010719977 0)
(1.0112151 -0.0012089879 0)
(1.0113337 -0.0012160208 0)
(1.0113891 -0.0011148321 0)
(1.0113612 -0.00093740721 0)
(1.0112486 -0.00072019537 0)
(1.0110632 -0.00049861083 0)
(1.0108319 -0.00030160837 0)
(1.01059 -0.00014929449 0)
(1.0103802 -5.1019116e-05 0)
(1.0102491 -5.6729016e-06 0)
(0.91660248 -2.5691488e-05 0)
(0.93397394 0.00019863671 7.6346298e-24)
(0.95059759 0.0003657264 0)
(0.96588241 0.00072819951 0)
(0.97926918 0.0010561209 0)
(0.99029949 0.0013632603 0)
(1.0009473 0.0022231716 0)
(1.0103682 0.0029038586 0)
(1.0133124 0.0037863406 0)
(1.0128339 0.0037519781 0)
(1.0132146 0.0041417999 0)
(1.013626 0.0039621173 0)
(1.0134338 0.0039848996 0)
(1.0129595 0.0036185182 0)
(1.0124043 0.0033510319 0)
(1.0118462 0.0027964237 0)
(1.0113696 0.00225232 0)
(1.0109998 0.0015812922 0)
(1.0107643 0.00092387802 0)
(1.0106577 0.00027255391 0)
(1.0106711 -0.00031169858 0)
(1.0107788 -0.00080076228 0)
(1.0109553 -0.0011619143 0)
(1.0111626 -0.0013788665 0)
(1.0113545 -0.0014492304 0)
(1.0114933 -0.0013879654 0)
(1.0115475 -0.001223453 0)
(1.0115048 -0.00099296457 0)
(1.0113666 -0.00073603476 0)
(1.0111519 -0.00048852223 0)
(1.0108916 -0.0002785944 0)
(1.0106246 -0.00012398054 0)
(1.0103955 -3.1547492e-05 0)
(1.0102523 1.9258259e-06 0)
(0.90029208 -3.9739931e-05 1.6031202e-24)
(0.91758882 5.6732244e-05 0)
(0.93461115 0.0003413097 1.5115864e-23)
(0.95136293 0.00051592107 0)
(0.96668869 0.00090323562 0)
(0.98022166 0.0013042972 0)
(0.99123916 0.0017418398 0)
(1.0020763 0.0029609247 0)
(1.0108526 0.0035660352 0)
(1.0127682 0.0042160189 0)
(1.012274 0.0040647444 0)
(1.0127533 0.0043094862 0)
(1.0131103 0.0040566041 0)
(1.012862 0.0040065895 0)
(1.0123645 0.0035508782 0)
(1.0118176 0.003179357 0)
(1.0113036 0.0025261797 0)
(1.010901 0.0018928745 0)
(1.0106223 0.0011641384 0)
(1.0104862 0.00046779613 0)
(1.0104802 -0.0001944465 0)
(1.010592 -0.00076806276 0)
(1.0107886 -0.0012224663 0)
(1.0110415 -0.0015303225 0)
(1.0113032 -0.0016795429 0)
(1.0115288 -0.001676029 0)
(1.0116769 -0.0015420733 0)
(1.0117229 -0.0013128556 0)
(1.0116565 -0.0010306055 0)
(1.0114877 -0.00073662729 0)
(1.0112398 -0.0004668459 0)
(1.0109483 -0.00024749449 0)
(1.0106551 -9.3652748e-05 0)
(1.0104066 -9.4241985e-06 0)
(1.0102512 1.0283889e-05 0)
(0.88470345 -0.00010067964 -6.9274847e-24)
(0.90117543 3.5093089e-05 -2.1743805e-23)
(0.91820343 0.00016943234 -1.5108001e-23)
(0.93538652 0.00050857144 -2.3050711e-23)
(0.95230188 0.00059097705 -2.8918143e-23)
(0.96769814 0.0011280038 0)
(0.98132192 0.0017461407 0)
(0.9922134 0.0022859611 0)
(1.0032228 0.0037118702 0)
(1.0111323 0.0041118667 0)
(1.0121207 0.0044561339 0)
(1.0117268 0.0042620178 0)
(1.0122823 0.0044179735 0)
(1.0125587 0.0041000206 0)
(1.0122469 0.0039696152 0)
(1.0117328 0.0034025904 0)
(1.0112198 0.002916482 0)
(1.0107751 0.0021664313 0)
(1.0104638 0.0014577553 0)
(1.0102873 0.00068240894 0)
(1.0102565 -3.7756913e-05 0)
(1.0103563 -0.00069935342 0)
(1.0105668 -0.0012474466 0)
(1.0108527 -0.0016551024 0)
(1.0111756 -0.0018970062 0)
(1.0114862 -0.0019692055 0)
(1.0117343 -0.0018851651 0)
(1.0118837 -0.0016752456 0)
(1.0119111 -0.0013814986 0)
(1.011815 -0.0010494573 0)
(1.0116099 -0.0007220897 0)
(1.0113256 -0.0004338684 0)
(1.0110012 -0.00020879789 0)
(1.0106813 -5.8673799e-05 0)
(1.0104132 1.5095219e-05 0)
(1.0102457 1.9323257e-05 0)
(0.8706375 -0.00011038657 8.6135395e-24)
(0.88541413 -5.3673996e-05 3.8125705e-23)
(0.9017061 0.00015518868 0)
(0.91896349 0.00027244391 8.0682913e-23)
(0.93634281 0.00059438875 2.8773378e-23)
(0.953459 0.00069466273 4.3619716e-23)
(0.9688259 0.00155758 2.2376644e-23)
(0.98245397 0.0023757396 0)
(0.99323754 0.0028986266 0)
(1.0043772 0.0043209741 0)
(1.0112241 0.0044607276 0)
(1.011434 0.0046018877 0)
(1.0111936 0.0043851221 0)
(1.0117772 0.0044899881 0)
(1.01195 0.0040915321 0)
(1.0115789 0.0038507154 0)
(1.01108 0.0031554681 0)
(1.0106311 0.0025535608 0)
(1.0102765 0.0017213663 0)
(1.010069 0.00095004623 0)
(1.0100014 0.00014332557 0)
(1.0100817 -0.00058894211 0)
(1.0102893 -0.0012352165 0)
(1.0106003 -0.001745253 0)
(1.0109712 -0.0020919016 0)
(1.0113596 -0.0022567198 0)
(1.0117084 -0.0022427774 0)
(1.0119705 -0.0020727633 0)
(1.0121094 -0.0017852869 0)
(1.0121107 -0.0014277585 0)
(1.0119771 -0.0010493958 0)
(1.0117314 -0.00069252301 0)
(1.011408 -0.00039016789 0)
(1.0110492 -0.00016307615 0)
(1.0107027 -1.9134248e-05 0)
(1.0104151 4.1703587e-05 0)
(1.0102359 2.8954106e-05 0)
(0.85872769 -0.0001271837 -2.5121238e-26)
(0.87110176 -8.0345161e-05 -8.9511834e-24)
(0.88581965 6.8772185e-05 1.6189822e-23)
(0.90236636 0.00023176625 -3.1944831e-23)
(0.91992406 0.0002862846 -5.9786422e-23)
(0.93752924 0.00071565921 3.9101066e-23)
(0.95474534 0.00099692397 1.5610276e-22)
(0.96995674 0.0022088693 -2.7974728e-23)
(0.98358188 0.003000856 0)
(0.99440586 0.0034524277 0)
(1.0054896 0.0047365479 0)
(1.0110397 0.0046738809 0)
(1.0107567 0.0047309314 0)
(1.0106467 0.0044692523 0)
(1.0112122 0.0045243287 0)
(1.0112669 0.0040016704 0)
(1.0108763 0.0036231928 0)
(1.0104312 0.0027965973 0)
(1.0100709 0.0020952048 0)
(1.0098204 0.0011953548 0)
(1.0097238 0.00037757617 0)
(1.0097714 -0.00044897501 0)
(1.0099656 -0.001179182 0)
(1.0102847 -0.001797627 0)
(1.0106938 -0.0022544065 0)
(1.0111472 -0.0025272362 0)
(1.0115913 -0.0026033413 0)
(1.0119697 -0.0024953831 0)
(1.012233 -0.0022354173 0)
(1.0123525 -0.0018696522 0)
(1.0123176 -0.0014511288 0)
(1.0121411 -0.0010300591 0)
(1.0118505 -0.00064854362 0)
(1.0114857 -0.00033635344 0)
(1.0110926 -0.000110525 0)
(1.0107189 2.3878952e-05 0)
(1.0104123 7.0163106e-05 0)
(1.0102217 3.9062087e-05 0)
(0.84891292 -0.00011155135 -3.4560679e-24)
(0.85891539 -9.8896661e-05 4.0496331e-24)
(0.87137404 3.8298836e-05 0)
(0.88633768 0.0001096399 -2.4441317e-23)
(0.90323716 0.00020275093 -7.0642384e-24)
(0.92112432 0.00033660438 0)
(0.93885116 0.00105719 -1.1113979e-22)
(0.95604238 0.0015209091 -1.2754218e-22)
(0.97107057 0.0028956576 0)
(0.98480179 0.0034495672 0)
(0.99582503 0.0038153032 0)
(1.0065503 0.0050297886 0)
(1.0106595 0.0047779997 0)
(1.0100778 0.0048658077 0)
(1.0100433 0.0045296486 0)
(1.0105564 0.0044820431 0)
(1.0105299 0.0037927931 0)
(1.0101715 0.0032702052 0)
(1.0098101 0.0023319122 0)
(1.0095536 0.0015475333 0)
(1.0094147 0.00059763797 0)
(1.0094348 -0.00025496467 0)
(1.009601 -0.0010879788 0)
(1.009914 -0.0018042805 0)
(1.0103448 -0.0023796527 0)
(1.0108514 -0.0027695 0)
(1.0113794 -0.00295431 0)
(1.0118713 -0.0029312285 0)
(1.012266 -0.0027224903 0)
(1.0125201 -0.0023697468 0)
(1.0126081 -0.0019270992 0)
(1.0125301 -0.0014506405 0)
(1.0123042 -0.00099209803 0)
(1.0119656 -0.0005907046 0)
(1.0115581 -0.00027316702 0)
(1.01113 -5.2134012e-05 0)
(1.0107298 7.0498166e-05 0)
(1.0104048 0.00010012546 0)
(1.0102032 4.9545893e-05 0)
(0.84195617 -9.721052e-05 0)
(0.84875098 -7.7694784e-05 0)
(0.85901811 1.9585051e-05 -4.1775385e-24)
(0.87172769 3.843125e-05 0)
(0.88707878 3.0387492e-05 -3.5793668e-24)
(0.90433692 0.00020152458 5.6005612e-23)
(0.92248231 0.00062499477 2.7045706e-22)
(0.94018831 0.0016304749 2.4567793e-22)
(0.95734214 0.0020764542 0)
(0.97228232 0.0034086513 0)
(0.98627854 0.0036650288 0)
(0.99759232 0.0040518711 0)
(1.0076056 0.0052742782 0)
(1.0101507 0.0048452202 0)
(1.0093071 0.0049898907 0)
(1.0093536 0.0045180445 0)
(1.0098306 0.0043111165 0)
(1.0097817 0.0034430476 0)
(1.0094946 0.0027986729 0)
(1.0092331 0.0017704394 0)
(1.0090878 0.00092124845 0)
(1.0090652 -6.6343155e-05 0)
(1.0092056 -0.00094123914 0)
(1.0094959 -0.0017706022 0)
(1.0099305 -0.0024581177 0)
(1.0104748 -0.00297591 0)
(1.0110732 -0.003283117 0)
(1.0116693 -0.0033668641 0)
(1.012196 -0.0032346248 0)
(1.0125958 -0.0029196122 0)
(1.0128269 -0.0024734714 0)
(1.0128744 -0.0019559393 0)
(1.0127443 -0.0014267419 0)
(1.0124647 -0.00093572139 0)
(1.0120754 -0.00051993852 0)
(1.0116244 -0.0002012531 0)
(1.0111616 1.1679881e-05 0)
(1.0107354 0.00011971154 0)
(1.0103927 0.00013136962 0)
(1.0101808 6.0372725e-05 0)
(0.84130414 -3.921571e-05 -5.2971758e-25)
(0.8419089 2.5469768e-05 0)
(0.84859931 5.104574e-05 -1.1017554e-23)
(0.85912008 -7.1683774e-06 -1.6863907e-23)
(0.87231779 -8.8550663e-05 -9.9588723e-24)
(0.8880378 -2.7725328e-05 1.9021646e-23)
(0.90559725 0.00044525504 8.4159389e-24)
(0.92387278 0.0011658416 3.3784441e-23)
(0.94154747 0.0022253078 -3.225376e-22)
(0.9587546 0.0024525559 0)
(0.97375701 0.0036264261 -3.3033474e-22)
(0.98812217 0.0037540765 0)
(0.99959135 0.0042686751 0)
(1.0084661 0.0055344529 0)
(1.0094405 0.0049461757 0)
(1.0083972 0.0050387268 0)
(1.0086016 0.0043650566 0)
(1.0090858 0.0039791946 0)
(1.0090594 0.0029615899 0)
(1.0088639 0.0022214109 0)
(1.0087095 0.0011247476 0)
(1.0086785 0.00022354259 0)
(1.0087749 -0.00078999938 0)
(1.0090412 -0.0016788294 0)
(1.0094603 -0.0024913837 0)
(1.0100209 -0.0031356921 0)
(1.0106764 -0.0035788918 0)
(1.0113623 -0.0037882147 0)
(1.0120145 -0.003757815 0)
(1.0125644 -0.0035078435 0)
(1.0129539 -0.0030832212 0)
(1.0131509 -0.0025440125 0)
(1.0131465 -0.0019561145 0)
(1.0129584 -0.0013791758 0)
(1.0126204 -0.00086213132 0)
(1.0121787 -0.00043702339 0)
(1.0116839 -0.0001214867 0)
(1.0111869 7.9913768e-05 0)
(1.0107356 0.00017146226 0)
(1.0103761 0.00016360005 0)
(1.0101545 7.1421572e-05 0)
(0.840912 9.8581506e-05 9.8051586e-24)
(0.8412675 0.00013868703 0)
(0.84881278 3.7649742e-05 -3.4221363e-24)
(0.8483402 1.3129291e-05 1.6854965e-23)
(0.85941818 -0.00016871492 3.9413702e-24)
(0.87309108 -0.00018687397 1.1611396e-22)
(0.88916223 0.00017294777 -2.1599041e-22)
(0.90689206 0.0009446955 -9.936342e-23)
(0.92529848 0.0017336817 -3.0034746e-22)
(0.94302817 0.002601418 -1.1770486e-22)
(0.96044429 0.0025267772 -4.3337892e-22)
(0.97558508 0.0036931374 3.4347602e-22)
(0.99027922 0.0038599075 0)
(1.0015846 0.0046158837 0)
(1.0087994 0.005812254 0)
(1.0084465 0.0050148198 0)
(1.0074035 0.0049192146 0)
(1.0078514 0.0040259757 0)
(1.0083663 0.0035008959 0)
(1.0083838 0.0023659804 0)
(1.0082892 0.0015538723 0)
(1.0082431 0.00040421689 0)
(1.0083269 -0.0005385358 0)
(1.0085476 -0.0015716539 0)
(1.0089458 -0.0024639137 0)
(1.0095012 -0.0032466578 0)
(1.0101893 -0.0038300736 0)
(1.0109535 -0.0041812353 0)
(1.0117175 -0.0042769541 0)
(1.0124146 -0.0041203913 0)
(1.0129715 -0.0037458978 0)
(1.0133376 -0.0032095939 0)
(1.0134866 -0.0025804389 0)
(1.0134221 -0.0019267958 0)
(1.013169 -0.0013092291 0)
(1.0127698 -0.00077192665 0)
(1.0122745 -0.00034302095 0)
(1.0117362 -3.4790638e-05 0)
(1.0112059 0.0001520844 0)
(1.0107307 0.00022496452 0)
(1.0103553 0.00019658632 0)
(1.0101245 8.262888e-05 0)
(0.8403851 5.1565257e-05 4.4551888e-24)
(0.84087916 0.00026263406 1.2758126e-23)
(0.84866548 0.00017327967 0)
(0.85858731 5.421284e-05 -1.8502889e-26)
(0.84822664 -0.00016343375 -5.2010254e-24)
(0.85979761 -0.0003067833 -6.3832126e-23)
(0.87399903 -1.4956229e-05 0)
(0.89035536 0.00064504238 9.870082e-23)
(0.90823799 0.0014671261 -1.5187173e-22)
(0.92685064 0.0020671878 1.161887e-22)
(0.94477727 0.0026281135 5.4017478e-22)
(0.96252325 0.0024347191 4.4990128e-22)
(0.97772578 0.0037793053 0)
(0.99259441 0.0041272084 0)
(1.0032624 0.0051087937 0)
(1.0085536 0.0059794844 0)
(1.0072752 0.0049342155 0)
(1.0064327 0.0045884604 0)
(1.0071561 0.0035235039 0)
(1.0076921 0.0029015028 0)
(1.007766 0.0016755459 0)
(1.0077734 0.00080806767 0)
(1.0078328 -0.00038279447 0)
(1.0080344 -0.0013642449 0)
(1.008387 -0.0024092618 0)
(1.0089268 -0.0032943351 0)
(1.0096239 -0.0040302562 0)
(1.0104412 -0.0045345419 0)
(1.0113064 -0.0047750608 0)
(1.0121397 -0.0047412194 0)
(1.0128655 -0.0044479543 0)
(1.0134146 -0.0039437517 0)
(1.013741 -0.0032966069 0)
(1.0138311 -0.0025811857 0)
(1.0136969 -0.0018690384 0)
(1.0133743 -0.0012172083 0)
(1.0129112 -0.00066660523 0)
(1.0123621 -0.00023900481 0)
(1.011781 5.7814331e-05 0)
(1.0112185 0.00022737625 0)
(1.0107204 0.00028005259 0)
(1.0103303 0.00023007384 0)
(1.0100911 9.39078e-05 0)
(0.84013732 -0.00016065036 -6.5048227e-24)
(0.84037521 0.00019251129 -4.4585976e-24)
(0.84856105 0.00030578384 -1.0999444e-23)
(0.85877104 0.00018573295 -4.0187602e-24)
(0.87045178 3.6991144e-05 1.2055177e-23)
(0.84820701 -0.00031704524 6.5040688e-23)
(0.860284 -0.00016702768 4.7388936e-23)
(0.8749269 0.00043559836 0)
(0.89162031 0.001149562 1.5595585e-22)
(0.909698 0.0017446947 -5.1885057e-23)
(0.92865604 0.0020136592 0)
(0.94690539 0.0024738084 -6.4328766e-22)
(0.96495238 0.0023612533 0)
(0.98006824 0.0040509894 0)
(0.99492289 0.0045639123 0)
(1.0045356 0.0055797043 0)
(1.007744 0.0058576486 0)
(1.0060551 0.0046075 0)
(1.0055681 0.0040765568 0)
(1.0065312 0.002899805 0)
(1.0070721 0.0022010885 0)
(1.0072088 0.00090651278 0)
(1.0073126 -4.6692278e-06 0)
(1.0074769 -0.0012356349 0)
(1.0078039 -0.0022538886 0)
(1.0083007 -0.0033034534 0)
(1.0089915 -0.0041656855 0)
(1.0098361 -0.0048363207 0)
(1.0107796 -0.0052403376 0)
(1.0117381 -0.005351998 0)
(1.0126258 -0.0051729117 0)
(1.0133646 -0.0047339011 0)
(1.0138875 -0.004097662 0)
(1.0141605 -0.0033416798 0)
(1.014179 -0.002546674 0)
(1.0139685 -0.0017827961 0)
(1.0135717 -0.0011049501 0)
(1.0130437 -0.00054711763 0)
(1.0124408 -0.00012622504 0)
(1.011818 0.00015544109 0)
(1.0112247 0.00030522699 0)
(1.0107054 0.00033608306 0)
(1.0103015 0.00026385946 0)
(1.0100546 0.00010520496 0)
(0.84003216 -0.00036752671 3.8991379e-24)
(0.84012941 -5.5101705e-05 6.5120521e-24)
(0.84834122 0.00022764527 1.6903319e-23)
(0.85896528 0.0003245103 4.1457708e-24)
(0.87089873 0.00015984622 -1.2399091e-23)
(0.88445731 2.9537165e-05 -6.837909e-24)
(0.84840582 -0.00018965783 -1.0282882e-22)
(0.8607996 0.00026491934 -6.2959111e-23)
(0.87588244 0.00091986835 -1.8845512e-22)
(0.89296962 0.0014062014 6.2279725e-23)
(0.91137254 0.0016101066 -6.4186518e-22)
(0.93081264 0.001754053 2.8271028e-22)
(0.94938337 0.0023365836 0)
(0.96761169 0.0024805375 -5.4448014e-22)
(0.98245536 0.0045311931 9.4255458e-22)
(0.99710432 0.0049856399 0)
(1.0053437 0.0058282882 0)
(1.0067261 0.0054549546 0)
(1.0048572 0.0040593207 0)