/*--------------------------------*- C++ -*----------------------------------*\
| =========                 |                                                 |
| \\      /  F ield         | OpenFOAM: The Open Source CFD Toolbox           |
|  \\    /   O peration     | Version:  5.0                                   |
|   \\  /    A nd           | Web:      www.OpenFOAM.org                      |
|    \\/     M anipulation  |                                                 |
\*---------------------------------------------------------------------------*/
FoamFile
{
    version     2.0;
    format      ascii;
    class       volSymmTensorField;
    location    "360";
    object      UPrime2Mean;
}
// * * * * * * * * * * * * * * * * * * * * * * * * * * * * * * * * * * * * * //

dimensions      [0 2 -2 0 0 0 0];

internalField   nonuniform List<symmTensor> 
9520
(
(2.4659069e-05 6.0746435e-07 0 1.9623562e-08 0 0)
(2.4942985e-05 1.7842368e-06 0 1.6880295e-07 0 0)
(2.1187185e-05 5.6786373e-07 0 2.0066406e-08 0 0)
(2.5455458e-05 2.8870945e-06 0 4.3954006e-07 0 0)
(2.1480942e-05 1.669914e-06 0 1.726353e-07 0 0)
(1.9863101e-05 5.562767e-07 0 2.0477207e-08 0 0)
(2.6162098e-05 3.9198238e-06 0 8.0492533e-07 0 0)
(2.2015747e-05 2.7081133e-06 0 4.4980127e-07 0 0)
(2.0158083e-05 1.6374322e-06 0 1.7629604e-07 0 0)
(1.7806454e-05 5.3639069e-07 0 2.1330755e-08 0 0)
(2.7036245e-05 4.8849841e-06 0 1.2413931e-06 0 0)
(2.2759292e-05 3.688211e-06 0 8.2453869e-07 0 0)
(2.0695202e-05 2.6591554e-06 0 4.5971265e-07 0 0)
(1.8099942e-05 1.5808018e-06 0 1.837662e-07 0 0)
(1.628977e-05 5.2162076e-07 0 2.2142205e-08 0 0)
(2.805361e-05 5.7831624e-06 0 1.7286202e-06 0 0)
(2.3687733e-05 4.6139955e-06 0 1.2732543e-06 0 0)
(2.1443911e-05 3.6283702e-06 0 8.4357697e-07 0 0)
(1.8636954e-05 2.5730943e-06 0 4.7989166e-07 0 0)
(1.6579158e-05 1.5388695e-06 0 1.9093962e-07 0 0)
(1.4658512e-05 5.0568843e-07 0 2.3234616e-08 0 0)
(2.918999e-05 6.6143764e-06 0 2.2494216e-06 0 0)
(2.4779557e-05 5.4869199e-06 0 1.7756029e-06 0 0)
(2.2381744e-05 4.5495755e-06 0 1.3042128e-06 0 0)
(1.9388878e-05 3.5218658e-06 0 8.8231205e-07 0 0)
(1.7110238e-05 2.5095958e-06 0 4.9935818e-07 0 0)
(1.4939426e-05 1.4934302e-06 0 2.0057895e-07 0 0)
(1.3253222e-05 4.8992179e-07 0 2.4240201e-08 0 0)
(3.0421355e-05 7.3777523e-06 0 2.7894104e-06 0 0)
(2.6013414e-05 6.3074854e-06 0 2.3145228e-06 0 0)
(2.3488489e-05 5.4245954e-06 0 1.8210911e-06 0 0)
(2.0335451e-05 4.4331849e-06 0 1.367383e-06 0 0)
(1.7856215e-05 3.4439273e-06 0 9.1986414e-07 0 0)
(1.5456195e-05 2.440657e-06 0 5.2558432e-07 0 0)
(1.3525305e-05 1.4483317e-06 0 2.0948081e-07 0 0)
(1.1865431e-05 4.7309138e-07 0 2.5406417e-08 0 0)
(3.1723488e-05 8.072337e-06 0 3.3375736e-06 0 0)
(2.7368117e-05 7.074801e-06 0 2.875923e-06 0 0)
(2.4744163e-05 6.2540945e-06 0 2.3767036e-06 0 0)
(2.1458669e-05 5.3098929e-06 0 1.9147898e-06 0 0)
(1.8799009e-05 4.3492813e-06 0 1.428808e-06 0 0)
(1.6184246e-05 3.3592391e-06 0 9.7069217e-07 0 0)
(1.4026839e-05 2.3714964e-06 0 5.4991341e-07 0 0)
(1.2124277e-05 1.4000964e-06 0 2.1979144e-07 0 0)
(1.0628021e-05 4.5417162e-07 0 2.6471208e-08 0 0)
(3.3073243e-05 8.697426e-06 0 3.8842661e-06 0 0)
(2.8821658e-05 7.7870962e-06 0 3.4476415e-06 0 0)
(2.6128651e-05 7.0373644e-06 0 2.9560737e-06 0 0)
(2.2740761e-05 6.153317e-06 0 2.5072499e-06 0 0)
(1.9922594e-05 5.2292599e-06 0 2.0058995e-06 0 0)
(1.7107602e-05 4.2579254e-06 0 1.5125081e-06 0 0)
(1.4735011e-05 3.2728103e-06 0 1.0180998e-06 0 0)
(1.2601781e-05 2.2969136e-06 0 5.7811708e-07 0 0)
(1.0873776e-05 1.3456175e-06 0 2.292081e-07 0 0)
(9.4473322e-06 4.3304176e-07 0 2.760377e-08 0 0)
(3.4447926e-05 9.2501044e-06 0 4.4245523e-06 0 0)
(3.035193e-05 8.4414276e-06 0 4.018987e-06 0 0)
(2.7621895e-05 7.7735473e-06 0 3.5484518e-06 0 0)
(2.4163727e-05 6.9629566e-06 0 3.1299832e-06 0 0)
(2.1210654e-05 6.0856581e-06 0 2.6338077e-06 0 0)
(1.8212786e-05 5.1414228e-06 0 2.1310688e-06 0 0)
(1.5635796e-05 4.1620499e-06 0 1.5910675e-06 0 0)
(1.3277909e-05 3.1782048e-06 0 1.0731331e-06 0 0)
(1.132795e-05 2.2116056e-06 0 6.0395317e-07 0 0)
(9.6767269e-06 1.2843933e-06 0 2.3925766e-07 0 0)
(8.3949935e-06 4.0957698e-07 0 2.8589537e-08 0 0)
(3.5827929e-05 9.7364e-06 0 4.9529366e-06 0 0)
(3.193895e-05 9.0352075e-06 0 4.5866509e-06 0 0)
(2.9203931e-05 8.4606797e-06 0 4.1437846e-06 0 0)
(2.5708251e-05 7.737039e-06 0 3.7703444e-06 0 0)
(2.2645938e-05 6.9182923e-06 0 3.2976912e-06 0 0)
(1.9485759e-05 6.0123521e-06 0 2.8093281e-06 0 0)
(1.6717772e-05 5.0449374e-06 0 2.2491673e-06 0 0)
(1.414067e-05 4.0545784e-06 0 1.6824643e-06 0 0)
(1.1972742e-05 3.0677997e-06 0 1.1238126e-06 0 0)
(1.0101364e-05 2.1146228e-06 0 6.3165397e-07 0 0)
(8.6085565e-06 1.2158741e-06 0 2.480435e-07 0 0)
(7.4155637e-06 3.8438503e-07 0 2.9527603e-08 0 0)
(3.7199069e-05 1.0153297e-05 0 5.4885434e-06 0 0)
(3.359256e-05 9.5740063e-06 0 5.1436999e-06 0 0)
(3.0853493e-05 9.0963694e-06 0 4.7363818e-06 0 0)
(2.7355412e-05 8.4745238e-06 0 4.4179517e-06 0 0)
(2.4209627e-05 7.726376e-06 0 3.9853468e-06 0 0)
(2.0911335e-05 6.8709929e-06 0 3.532553e-06 0 0)
(1.7968563e-05 5.9247499e-06 0 2.975593e-06 0 0)
(1.5180731e-05 4.9328949e-06 0 2.3871296e-06 0 0)
(1.2797743e-05 3.9255674e-06 0 1.7671577e-06 0 0)
(1.0706003e-05 2.9399185e-06 0 1.1783757e-06 0 0)
(9.0049383e-06 2.0048079e-06 0 6.5601917e-07 0 0)
(7.6119022e-06 1.1417621e-06 0 2.5648105e-07 0 0)
(6.5511821e-06 3.5817718e-07 0 3.0238734e-08 0 0)
(3.8545693e-05 1.0501156e-05 0 5.9877703e-06 0 0)
(3.5273536e-05 1.0033828e-05 0 5.6919879e-06 0 0)
(3.2548015e-05 9.6772832e-06 0 5.3177532e-06 0 0)
(2.9100639e-05 9.1760286e-06 0 5.0659068e-06 0 0)
(2.5883607e-05 8.5095018e-06 0 4.6869095e-06 0 0)
(2.2473049e-05 7.7166172e-06 0 4.2885838e-06 0 0)
(1.937461e-05 6.8023589e-06 0 3.7559424e-06 0 0)
(1.6388011e-05 5.8174527e-06 0 3.1708303e-06 0 0)
(1.3794975e-05 4.7926127e-06 0 2.5157427e-06 0 0)
(1.1482203e-05 3.7723276e-06 0 1.8585946e-06 0 0)
(9.5709934e-06 2.7928535e-06 0 1.2268133e-06 0 0)
(7.9773682e-06 1.8848407e-06 0 6.7968315e-07 0 0)
(6.731786e-06 1.0642135e-06 0 2.6294824e-07 0 0)
(5.7620398e-06 3.3136819e-07 0 3.0804281e-08 0 0)
(3.9850307e-05 1.0764074e-05 0 6.5338901e-06 0 0)
(3.6912343e-05 1.0443986e-05 0 6.2326296e-06 0 0)
(3.4252066e-05 1.020582e-05 0 5.906522e-06 0 0)
(3.092941e-05 9.8416466e-06 0 5.7035542e-06 0 0)
(2.7638699e-05 9.2649357e-06 0 5.3960215e-06 0 0)
(2.4156226e-05 8.548509e-06 0 5.0669252e-06 0 0)
(2.0920633e-05 7.6772378e-06 0 4.5783469e-06 0 0)
(1.7751885e-05 6.709927e-06 0 4.0193834e-06 0 0)
(1.4955445e-05 5.6738459e-06 0 3.3538795e-06 0 0)
(1.2422874e-05 4.6200473e-06 0 2.6550162e-06 0 0)
(1.0299877e-05 3.5927382e-06 0 1.9406689e-06 0 0)
(8.5008236e-06 2.6299586e-06 0 1.2743656e-06 0 0)
(7.0687852e-06 1.7582242e-06 0 6.9810128e-07 0 0)
(5.9269722e-06 9.845422e-07 0 2.6818502e-07 0 0)
(5.0725686e-06 3.0453947e-07 0 3.1110503e-08 0 0)
(4.1107954e-05 1.097985e-05 0 7.0140902e-06 0 0)
(3.8589082e-05 1.0776716e-05 0 6.8108091e-06 0 0)
(3.5979709e-05 1.0688397e-05 0 6.4731158e-06 0 0)
(3.2770057e-05 1.0450258e-05 0 6.338976e-06 0 0)
(2.946659e-05 9.9936976e-06 0 6.1072448e-06 0 0)
(2.5953203e-05 9.364465e-06 0 5.8592938e-06 0 0)
(2.2587978e-05 8.5458085e-06 0 5.4333403e-06 0 0)
(1.9260991e-05 7.6101683e-06 0 4.9207445e-06 0 0)
(1.6269077e-05 6.5714957e-06 0 4.2677914e-06 0 0)
(1.3521096e-05 5.4888251e-06 0 3.5528036e-06 0 0)
(1.1185958e-05 4.4130764e-06 0 2.7814387e-06 0 0)
(9.1772623e-06 3.3902199e-06 0 2.0219555e-06 0 0)
(7.552518e-06 2.4561832e-06 0 1.3121146e-06 0 0)
(6.2352822e-06 1.6271879e-06 0 7.1341454e-07 0 0)
(5.223937e-06 9.0468553e-07 0 2.7112914e-07 0 0)
(4.454081e-06 2.7750417e-07 0 3.1243285e-08 0 0)
(4.230203e-05 1.1075245e-05 0 7.6397902e-06 0 0)
(4.0268555e-05 1.108313e-05 0 7.3596432e-06 0 0)
(3.7761374e-05 1.1104341e-05 0 7.0779591e-06 0 0)
(3.4606627e-05 1.1011938e-05 0 6.9728323e-06 0 0)
(3.133621e-05 1.0680504e-05 0 6.8328141e-06 0 0)
(2.7831601e-05 1.0160057e-05 0 6.6662226e-06 0 0)
(2.4364695e-05 9.4058315e-06 0 6.3165132e-06 0 0)
(2.0906792e-05 8.5168379e-06 0 5.864338e-06 0 0)
(1.7724046e-05 7.4856093e-06 0 5.2452421e-06 0 0)
(1.4769136e-05 6.3819845e-06 0 4.5387274e-06 0 0)
(1.2222897e-05 5.2597763e-06 0 3.7353035e-06 0 0)
(1.0002398e-05 4.1743513e-06 0 2.9076259e-06 0 0)
(8.1794451e-06 3.1712606e-06 0 2.0879925e-06 0 0)
(6.6791278e-06 2.2746134e-06 0 1.3443298e-06 0 0)
(5.5070674e-06 1.4951937e-06 0 7.2252698e-07 0 0)
(4.5925058e-06 8.2410569e-07 0 2.7256574e-07 0 0)
(3.9204138e-06 2.5064614e-07 0 3.1142311e-08 0 0)
(4.3417097e-05 1.1206058e-05 0 8.2399692e-06 0 0)
(4.2011896e-05 1.1227303e-05 0 8.0604393e-06 0 0)
(3.9577021e-05 1.1478345e-05 0 7.6480614e-06 0 0)
(3.6506716e-05 1.1524294e-05 0 7.6650556e-06 0 0)
(3.324396e-05 1.1322606e-05 0 7.5701183e-06 0 0)
(2.9770209e-05 1.091253e-05 0 7.4965651e-06 0 0)
(2.6248518e-05 1.0254306e-05 0 7.2241373e-06 0 0)
(2.2674698e-05 9.4264781e-06 0 6.8435481e-06 0 0)
(1.9308066e-05 8.4149563e-06 0 6.2761059e-06 0 0)
(1.6158069e-05 7.3012439e-06 0 5.6007199e-06 0 0)
(1.3402633e-05 6.1361617e-06 0 4.7899349e-06 0 0)
(1.0971468e-05 4.988612e-06 0 3.9188707e-06 0 0)
(8.9470304e-06 3.9122942e-06 0 3.0125499e-06 0 0)
(7.2564142e-06 2.9396565e-06 0 2.1457172e-06 0 0)
(5.9153483e-06 2.0904139e-06 0 1.3647036e-06 0 0)
(4.8514644e-06 1.3613442e-06 0 7.2770564e-07 0 0)
(4.0480126e-06 7.4410007e-07 0 2.7191812e-07 0 0)
(3.4521401e-06 2.2369728e-07 0 3.0873357e-08 0 0)
(4.4454475e-05 1.1014047e-05 0 9.0382981e-06 0 0)
(4.3772291e-05 1.1457724e-05 0 8.8049097e-06 0 0)
(4.1476155e-05 1.1715175e-05 0 8.4207796e-06 0 0)
(3.8460575e-05 1.1987421e-05 0 8.3496123e-06 0 0)
(3.52475e-05 1.1912602e-05 0 8.378093e-06 0 0)
(3.1762176e-05 1.1621696e-05 0 8.3637577e-06 0 0)
(2.8221157e-05 1.106887e-05 0 8.1691695e-06 0 0)
(2.455766e-05 1.0333157e-05 0 7.8560299e-06 0 0)
(2.1016517e-05 9.3595202e-06 0 7.3527299e-06 0 0)
(1.7677056e-05 8.2467331e-06 0 6.7275652e-06 0 0)
(1.4714454e-05 7.0436206e-06 0 5.9339783e-06 0 0)
(1.2078354e-05 5.8368963e-06 0 5.044556e-06 0 0)
(9.8517651e-06 4.685687e-06 0 4.0746564e-06 0 0)
(7.9662281e-06 3.6312568e-06 0 3.1061059e-06 0 0)
(6.4476928e-06 2.7024557e-06 0 2.1845038e-06 0 0)
(5.2260431e-06 1.9023283e-06 0 1.377832e-06 0 0)
(4.2867281e-06 1.228164e-06 0 7.2717143e-07 0 0)
(3.5697037e-06 6.6369479e-07 0 2.6981031e-07 0 0)
(3.0557253e-06 1.9722479e-07 0 3.040153e-08 0 0)
(4.517759e-05 1.111986e-05 0 1.0130893e-05 0 0)
(4.5912416e-05 1.1120555e-05 0 9.8549394e-06 0 0)
(4.3534595e-05 1.199619e-05 0 9.2333488e-06 0 0)
(4.0571359e-05 1.2342782e-05 0 9.3041251e-06 0 0)
(3.7322758e-05 1.2436533e-05 0 9.2273643e-06 0 0)
(3.3895044e-05 1.2277936e-05 0 9.3268525e-06 0 0)
(3.0272887e-05 1.1842934e-05 0 9.1686499e-06 0 0)
(2.6546554e-05 1.121988e-05 0 8.9136486e-06 0 0)
(2.2844964e-05 1.0316072e-05 0 8.4705888e-06 0 0)
(1.9314697e-05 9.2179359e-06 0 7.9112057e-06 0 0)
(1.6147959e-05 7.9830426e-06 0 7.1573074e-06 0 0)
(1.3314733e-05 6.7213116e-06 0 6.2744022e-06 0 0)
(1.0888302e-05 5.4951626e-06 0 5.2643794e-06 0 0)
(8.8064464e-06 4.3561356e-06 0 4.2159016e-06 0 0)
(7.1043705e-06 3.3402641e-06 0 3.1724787e-06 0 0)
(5.7161126e-06 2.4582268e-06 0 2.2119619e-06 0 0)
(4.6327181e-06 1.7143934e-06 0 1.3799193e-06 0 0)
(3.7898584e-06 1.0937514e-06 0 7.2278486e-07 0 0)
(3.165255e-06 5.846662e-07 0 2.6590181e-07 0 0)
(2.7178834e-06 1.7130206e-07 0 2.9764829e-08 0 0)
(4.5857106e-05 1.025201e-05 0 1.1183742e-05 0 0)
(4.8044713e-05 1.1681082e-05 0 1.15327e-05 0 0)
(4.6124223e-05 1.1737373e-05 0 1.0573927e-05 0 0)
(4.2955606e-05 1.266082e-05 0 1.0369576e-05 0 0)
(3.9684209e-05 1.2860279e-05 0 1.0443269e-05 0 0)
(3.6164726e-05 1.2853444e-05 0 1.0397474e-05 0 0)
(3.2504816e-05 1.2566909e-05 0 1.029277e-05 0 0)
(2.8626601e-05 1.2071774e-05 0 1.0036509e-05 0 0)
(2.478698e-05 1.1273434e-05 0 9.6393366e-06 0 0)
(2.1062224e-05 1.0214149e-05 0 9.1462649e-06 0 0)
(1.7692767e-05 8.9558255e-06 0 8.4530713e-06 0 0)
(1.4669603e-05 7.6420931e-06 0 7.5994197e-06 0 0)
(1.2049028e-05 6.3421916e-06 0 6.5723888e-06 0 0)
(9.7735417e-06 5.1185192e-06 0 5.4663945e-06 0 0)
(7.8843719e-06 4.0108995e-06 0 4.3207266e-06 0 0)
(6.32272e-06 3.0379939e-06 0 3.2227816e-06 0 0)
(5.0863692e-06 2.2127237e-06 0 2.2214462e-06 0 0)
(4.1101028e-06 1.5235754e-06 0 1.3748512e-06 0 0)
(3.3708664e-06 9.6145219e-07 0 7.1343605e-07 0 0)
(2.8204365e-06 5.0698324e-07 0 2.6056228e-07 0 0)
(2.4390742e-06 1.4664776e-07 0 2.8949719e-08 0 0)
(4.4935738e-05 1.0407704e-05 0 1.3521387e-05 0 0)
(5.1015005e-05 9.8551933e-06 0 1.3365565e-05 0 0)
(4.8927778e-05 1.2229786e-05 0 1.2640613e-05 0 0)
(4.6129249e-05 1.2552095e-05 0 1.2315023e-05 0 0)
(4.25169e-05 1.3197549e-05 0 1.1936547e-05 0 0)
(3.8887381e-05 1.3307369e-05 0 1.1946755e-05 0 0)
(3.5007271e-05 1.3203859e-05 0 1.1586773e-05 0 0)
(3.0907263e-05 1.2884315e-05 0 1.1311152e-05 0 0)
(2.6829975e-05 1.2211363e-05 0 1.0881094e-05 0 0)
(2.2918352e-05 1.1229032e-05 0 1.0441807e-05 0 0)
(1.9339935e-05 9.9629883e-06 0 9.8168345e-06 0 0)
(1.613086e-05 8.5987422e-06 0 9.014615e-06 0 0)
(1.3325441e-05 7.2264425e-06 0 7.9915307e-06 0 0)
(1.0862486e-05 5.9202532e-06 0 6.8491805e-06 0 0)
(8.7854817e-06 4.7190727e-06 0 5.6217007e-06 0 0)
(7.0456206e-06 3.6490559e-06 0 4.4042752e-06 0 0)
(5.6488659e-06 2.7317492e-06 0 3.246835e-06 0 0)
(4.5314011e-06 1.9618567e-06 0 2.2196358e-06 0 0)
(3.6707867e-06 1.335221e-06 0 1.3600871e-06 0 0)
(3.0136416e-06 8.3074541e-07 0 7.0027819e-07 0 0)
(2.5366279e-06 4.3293446e-07 0 2.5363845e-07 0 0)
(2.2093975e-06 1.2353196e-07 0 2.7982926e-08 0 0)
(4.2835231e-05 7.8346692e-06 0 1.4714602e-05 0 0)
(5.2321221e-05 1.1571049e-05 0 1.7526627e-05 0 0)
(5.3491471e-05 1.0200517e-05 0 1.5548367e-05 0 0)
(5.0060363e-05 1.2893614e-05 0 1.517905e-05 0 0)
(4.6446041e-05 1.3104483e-05 0 1.4677621e-05 0 0)
(4.2372328e-05 1.3628172e-05 0 1.3997057e-05 0 0)
(3.8109382e-05 1.3699663e-05 0 1.3486335e-05 0 0)
(3.3573846e-05 1.3617247e-05 0 1.2805041e-05 0 0)
(2.9073533e-05 1.3122697e-05 0 1.2295651e-05 0 0)
(2.487896e-05 1.2241981e-05 0 1.1823426e-05 0 0)
(2.1087901e-05 1.1000017e-05 0 1.126186e-05 0 0)
(1.7689944e-05 9.5910362e-06 0 1.0519535e-05 0 0)
(1.4709155e-05 8.1466314e-06 0 9.5180497e-06 0 0)
(1.2067223e-05 6.760652e-06 0 8.3574055e-06 0 0)
(9.8042695e-06 5.4670937e-06 0 7.0673786e-06 0 0)
(7.8834468e-06 4.2969223e-06 0 5.7502711e-06 0 0)
(6.3204459e-06 3.2790602e-06 0 4.4522856e-06 0 0)
(5.0550551e-06 2.4166833e-06 0 3.2547461e-06 0 0)
(4.0661688e-06 1.7131605e-06 0 2.2018718e-06 0 0)
(3.296706e-06 1.147958e-06 0 1.3381076e-06 0 0)
(2.7213779e-06 7.0595383e-07 0 6.8272181e-07 0 0)
(2.3032889e-06 3.6319345e-07 0 2.4537872e-07 0 0)
(2.0252259e-06 1.0248555e-07 0 2.6876524e-08 0 0)
(3.9592246e-05 6.9924268e-06 0 1.9536734e-05 0 0)
(5.5401677e-05 5.9429025e-06 0 2.0689788e-05 0 0)
(5.6897032e-05 1.2088326e-05 0 2.1433455e-05 0 0)
(5.6667283e-05 1.0847295e-05 0 2.0003336e-05 0 0)
(5.1978314e-05 1.3243227e-05 0 1.8828147e-05 0 0)
(4.7393625e-05 1.34946e-05 0 1.7783488e-05 0 0)
(4.2323334e-05 1.4020348e-05 0 1.6133677e-05 0 0)
(3.6994338e-05 1.4217066e-05 0 1.5020999e-05 0 0)
(3.1775002e-05 1.3980237e-05 0 1.3976963e-05 0 0)
(2.7032993e-05 1.323947e-05 0 1.3406138e-05 0 0)
(2.2942035e-05 1.2045071e-05 0 1.2822001e-05 0 0)
(1.9348537e-05 1.0614149e-05 0 1.2135037e-05 0 0)
(1.6195253e-05 9.099536e-06 0 1.1156366e-05 0 0)
(1.3382949e-05 7.636533e-06 0 9.9873125e-06 0 0)
(1.093736e-05 6.2548604e-06 0 8.6506872e-06 0 0)
(8.8339723e-06 4.9851308e-06 0 7.2534078e-06 0 0)
(7.1001678e-06 3.8609052e-06 0 5.8333758e-06 0 0)
(5.681352e-06 2.8955096e-06 0 4.4789137e-06 0 0)
(4.5581643e-06 2.102304e-06 0 3.2390955e-06 0 0)
(3.6711919e-06 1.464268e-06 0 2.1724876e-06 0 0)
(2.992971e-06 9.687169e-07 0 1.3074036e-06 0 0)
(2.4820092e-06 5.8774909e-07 0 6.6152208e-07 0 0)
(2.1173127e-06 2.995483e-07 0 2.3585721e-07 0 0)
(1.8787657e-06 8.3657709e-08 0 2.5660662e-08 0 0)
(4.1286895e-05 4.4434766e-06 0 2.1243583e-05 0 0)
(5.7121828e-05 7.054416e-06 0 2.9343233e-05 0 0)
(6.3859626e-05 4.8500402e-06 0 2.8080696e-05 0 0)
(6.3760639e-05 1.2386583e-05 0 2.8587926e-05 0 0)
(6.1365585e-05 1.10658e-05 0 2.6258157e-05 0 0)
(5.513287e-05 1.333773e-05 0 2.3629917e-05 0 0)
(4.8649336e-05 1.3871128e-05 0 2.1047831e-05 0 0)
(4.1869723e-05 1.4621032e-05 0 1.824037e-05 0 0)
(3.5362745e-05 1.4727764e-05 0 1.6485382e-05 0 0)
(2.9683842e-05 1.4213599e-05 0 1.5316929e-05 0 0)
(2.5000704e-05 1.3078796e-05 0 1.4626753e-05 0 0)
(2.1124029e-05 1.1640948e-05 0 1.3905433e-05 0 0)
(1.7792004e-05 1.0077795e-05 0 1.2933018e-05 0 0)
(1.4810175e-05 8.5420818e-06 0 1.1745167e-05 0 0)
(1.2183983e-05 7.0797516e-06 0 1.0366585e-05 0 0)
(9.8951108e-06 5.7152585e-06 0 8.9057609e-06 0 0)
(7.9857539e-06 4.4821232e-06 0 7.38365e-06 0 0)
(6.4091565e-06 3.405083e-06 0 5.89004e-06 0 0)
(5.1472433e-06 2.5096115e-06 0 4.4733522e-06 0 0)
(4.1385047e-06 1.7854671e-06 0 3.2065123e-06 0 0)
(3.3531993e-06 1.2250763e-06 0 2.1284611e-06 0 0)
(2.7458641e-06 7.9774066e-07 0 1.2696055e-06 0 0)
(2.2935594e-06 4.797489e-07 0 6.367318e-07 0 0)
(1.9704185e-06 2.4244713e-07 0 2.2533431e-07 0 0)
(1.7647824e-06 6.7198028e-08 0 2.436315e-08 0 0)
(4.1801358e-05 3.7371501e-06 0 3.0138514e-05 0 0)
(6.8867812e-05 -1.1410969e-06 0 3.570107e-05 0 0)
(7.0361983e-05 5.6247658e-06 0 4.1062933e-05 0 0)
(7.6143791e-05 3.8706484e-06 0 4.1048397e-05 0 0)
(7.3995975e-05 1.1851693e-05 0 3.8826675e-05 0 0)
(6.81039e-05 1.0900654e-05 0 3.4465852e-05 0 0)
(5.8923121e-05 1.3453027e-05 0 2.8836353e-05 0 0)
(4.9472836e-05 1.4565792e-05 0 2.4274422e-05 0 0)
(4.0724222e-05 1.5285651e-05 0 2.0259215e-05 0 0)
(3.3330026e-05 1.5106599e-05 0 1.8177897e-05 0 0)
(2.7585061e-05 1.4106398e-05 0 1.6857988e-05 0 0)
(2.3139954e-05 1.2646606e-05 0 1.5983551e-05 0 0)
(1.9530847e-05 1.1046805e-05 0 1.4904975e-05 0 0)
(1.6367797e-05 9.4676269e-06 0 1.3658193e-05 0 0)
(1.3549932e-05 7.9354407e-06 0 1.2218727e-05 0 0)
(1.106775e-05 6.4862823e-06 0 1.0699755e-05 0 0)
(8.9749544e-06 5.1463737e-06 0 9.0950118e-06 0 0)
(7.2355834e-06 3.9514698e-06 0 7.4835413e-06 0 0)
(5.8321023e-06 2.9418648e-06 0 5.9054093e-06 0 0)
(4.6990685e-06 2.1175657e-06 0 4.4449235e-06 0 0)
(3.8037144e-06 1.4790742e-06 0 3.1518365e-06 0 0)
(3.0972872e-06 9.9520297e-07 0 2.0726269e-06 0 0)
(2.5546201e-06 6.4124648e-07 0 1.2245019e-06 0 0)
(2.1465309e-06 3.8239234e-07 0 6.0909248e-07 0 0)
(1.8574653e-06 1.9250874e-07 0 2.14047e-07 0 0)
(1.6773552e-06 5.302711e-08 0 2.3013183e-08 0 0)
(4.8600218e-05 -1.1482541e-05 0 3.2093393e-05 0 0)
(7.5570237e-05 3.7054085e-06 0 5.3633335e-05 0 0)
(9.1179029e-05 -6.4027296e-06 0 5.6662231e-05 0 0)
(9.0618945e-05 3.1652955e-06 0 6.1076962e-05 0 0)
(9.4079758e-05 2.1010739e-06 0 5.9163622e-05 0 0)
(8.7993959e-05 1.0377421e-05 0 5.2227091e-05 0 0)
(7.6164892e-05 1.0841177e-05 0 4.354728e-05 0 0)
(6.2283995e-05 1.4053757e-05 0 3.4131695e-05 0 0)
(4.9439139e-05 1.5404193e-05 0 2.7394371e-05 0 0)
(3.9057559e-05 1.5842263e-05 0 2.2588959e-05 0 0)
(3.1270314e-05 1.5068381e-05 0 2.0211446e-05 0 0)
(2.5729331e-05 1.3634649e-05 0 1.8607681e-05 0 0)
(2.1558546e-05 1.1973679e-05 0 1.7244707e-05 0 0)
(1.8098758e-05 1.0373803e-05 0 1.5792295e-05 0 0)
(1.5063193e-05 8.8122253e-06 0 1.4232074e-05 0 0)
(1.2360741e-05 7.2944465e-06 0 1.2634126e-05 0 0)
(1.0067865e-05 5.855664e-06 0 1.0957907e-05 0 0)
(8.1569134e-06 4.5404199e-06 0 9.2521509e-06 0 0)
(6.6090108e-06 3.4058647e-06 0 7.5333826e-06 0 0)
(5.351322e-06 2.4669739e-06 0 5.8919437e-06 0 0)
(4.345378e-06 1.7355323e-06 0 4.3855099e-06 0 0)
(3.5387613e-06 1.1823787e-06 0 3.0792832e-06 0 0)
(2.9034676e-06 7.8406215e-07 0 2.0041297e-06 0 0)
(2.4082764e-06 4.9924935e-07 0 1.1735507e-06 0 0)
(2.0361446e-06 2.9724788e-07 0 5.7917499e-07 0 0)
(1.7720959e-06 1.4952433e-07 0 2.0226069e-07 0 0)
(1.6116827e-06 4.0995584e-08 0 2.1637279e-08 0 0)
(7.793142e-05 -2.8003049e-05 0 4.6145214e-05 0 0)
(0.00011286547 -3.1617678e-05 0 6.1558668e-05 0 0)
(0.00010562207 2.3010695e-06 0 8.494962e-05 0 0)
(0.00012483121 -1.1524227e-05 0 8.9768637e-05 0 0)
(0.00012086549 -1.0437292e-06 0 9.02569e-05 0 0)
(0.0001184424 -7.4083113e-07 0 8.2729934e-05 0 0)
(0.00010440733 8.9600567e-06 0 6.7482446e-05 0 0)
(8.4023822e-05 1.1489315e-05 0 5.3003248e-05 0 0)
(6.4618635e-05 1.4945001e-05 0 3.9393101e-05 0 0)
(4.8768821e-05 1.6176529e-05 0 3.0948751e-05 0 0)
(3.732663e-05 1.5902768e-05 0 2.5477351e-05 0 0)
(2.9553004e-05 1.4536958e-05 0 2.2563088e-05 0 0)
(2.4242988e-05 1.285151e-05 0 2.024112e-05 0 0)
(2.0170197e-05 1.1219563e-05 0 1.832425e-05 0 0)
(1.6776491e-05 9.6719069e-06 0 1.6470985e-05 0 0)
(1.3806526e-05 8.1328255e-06 0 1.472765e-05 0 0)
(1.1272704e-05 6.6105687e-06 0 1.2967442e-05 0 0)
(9.1707492e-06 5.176911e-06 0 1.1186059e-05 0 0)
(7.4726094e-06 3.9085535e-06 0 9.3524706e-06 0 0)
(6.0910006e-06 2.8406098e-06 0 7.5493304e-06 0 0)
(4.9768601e-06 1.999908e-06 0 5.8374622e-06 0 0)
(4.0714694e-06 1.3624618e-06 0 4.3008859e-06 0 0)
(3.3433664e-06 9.0831375e-07 0 2.9868894e-06 0 0)
(2.7595933e-06 5.9103388e-07 0 1.9253995e-06 0 0)
(2.302592e-06 3.75181e-07 0 1.117672e-06 0 0)
(1.9551366e-06 2.2383636e-07 0 5.4772091e-07 0 0)
(1.7094023e-06 1.1315365e-07 0 1.9021297e-07 0 0)
(1.5634489e-06 3.0888881e-08 0 2.025854e-08 0 0)
(0.00014214454 -4.3242186e-05 0 5.0443077e-05 0 0)
(0.00016480009 -5.7099152e-05 0 9.3547093e-05 0 0)
(0.00016202038 -5.2924808e-05 0 0.00011186557 0 0)
(0.000155757 4.0229362e-07 0 0.0001356129 0 0)
(0.00017331126 -1.7591157e-05 0 0.00013569716 0 0)
(0.00016183555 -7.3885625e-06 0 0.00012887758 0 0)
(0.00014780522 -3.3670556e-06 0 0.0001096706 0 0)
(0.0001209228 8.5607715e-06 0 8.3911622e-05 0 0)
(9.0896261e-05 1.2534237e-05 0 6.2532217e-05 0 0)
(6.6211028e-05 1.5912577e-05 0 4.528307e-05 0 0)
(4.7997393e-05 1.6366399e-05 0 3.5386415e-05 0 0)
(3.6040507e-05 1.5294675e-05 0 2.8849277e-05 0 0)
(2.8333535e-05 1.3595947e-05 0 2.4758714e-05 0 0)
(2.2998549e-05 1.1986773e-05 0 2.1582993e-05 0 0)
(1.8862117e-05 1.0469179e-05 0 1.9108833e-05 0 0)
(1.5464441e-05 8.9711765e-06 0 1.7036217e-05 0 0)
(1.2620256e-05 7.4094163e-06 0 1.5133923e-05 0 0)
(1.028175e-05 5.8662948e-06 0 1.3278465e-05 0 0)
(8.4172799e-06 4.4569776e-06 0 1.1355206e-05 0 0)
(6.9115987e-06 3.2458572e-06 0 9.4160642e-06 0 0)
(5.6939349e-06 2.2785814e-06 0 7.5137014e-06 0 0)
(4.6944733e-06 1.5397359e-06 0 5.7494067e-06 0 0)
(3.8762868e-06 1.0155502e-06 0 4.1872058e-06 0 0)
(3.2051402e-06 6.5588568e-07 0 2.8781189e-06 0 0)
(2.6614955e-06 4.2219057e-07 0 1.8376456e-06 0 0)
(2.2290581e-06 2.6785764e-07 0 1.0582883e-06 0 0)
(1.8985076e-06 1.6192938e-07 0 5.1536815e-07 0 0)
(1.6647778e-06 8.2769515e-08 0 1.781188e-07 0 0)
(1.529078e-06 2.2487992e-08 0 1.8895948e-08 0 0)
(0.00025821458 -5.956789e-05 0 6.5313933e-05 0 0)
(0.00024025696 -9.1239362e-05 0 0.00011497981 0 0)
(0.00023590554 -9.4488949e-05 0 0.00016357814 0 0)
(0.00023430241 -7.3167281e-05 0 0.00019091007 0 0)
(0.00023441338 -2.3180066e-06 0 0.00021012907 0 0)
(0.0002383026 -2.6213827e-05 0 0.00019590046 0 0)
(0.00021156185 -1.3487582e-05 0 0.00017418429 0 0)
(0.00017884414 -4.6308978e-06 0 0.00013920267 0 0)
(0.00013654418 8.8158816e-06 0 0.00010092426 0 0)
(9.709056e-05 1.3797415e-05 0 7.2916224e-05 0 0)
(6.7643941e-05 1.6271319e-05 0 5.2543552e-05 0 0)
(4.7792054e-05 1.5642702e-05 0 4.0555446e-05 0 0)
(3.542898e-05 1.4135957e-05 0 3.2000061e-05 0 0)
(2.7415121e-05 1.2577844e-05 0 2.6481271e-05 0 0)
(2.1786085e-05 1.1179338e-05 0 2.2492985e-05 0 0)
(1.7498886e-05 9.7659799e-06 0 1.9724559e-05 0 0)
(1.4172666e-05 8.2347362e-06 0 1.7505781e-05 0 0)
(1.1514122e-05 6.6129676e-06 0 1.5535633e-05 0 0)
(9.4430593e-06 5.0596252e-06 0 1.353683e-05 0 0)
(7.8059798e-06 3.6908067e-06 0 1.1488803e-05 0 0)
(6.4901468e-06 2.5784094e-06 0 9.4179797e-06 0 0)
(5.4042668e-06 1.7196473e-06 0 7.4354315e-06 0 0)
(4.5022159e-06 1.1083557e-06 0 5.6209218e-06 0 0)
(3.747671e-06 6.9329119e-07 0 4.0490167e-06 0 0)
(3.1186348e-06 4.342425e-07 0 2.7543199e-06 0 0)
(2.5995754e-06 2.7534128e-07 0 1.7432203e-06 0 0)
(2.182415e-06 1.7776574e-07 0 9.9661408e-07 0 0)
(1.8610596e-06 1.1041035e-07 0 4.8270241e-07 0 0)
(1.6343652e-06 5.7724356e-08 0 1.661519e-07 0 0)
(1.5055856e-06 1.5580199e-08 0 1.7562756e-08 0 0)
(0.00044994602 -7.3621458e-05 -4.7284978e-26 7.5236476e-05 8.8612366e-26 1.7599169e-46)
(0.00036867936 -0.00011677349 0 0.00015343922 0 0)
(0.00032448813 -0.00014991402 0 0.00021541982 0 0)
(0.00033790188 -0.00013819949 0 0.00026963374 0 0)
(0.00034060728 -9.0954668e-05 0 0.00030355205 0 0)
(0.00034589298 -7.3263922e-06 0 0.00030997027 0 0)
(0.00031778072 -3.553393e-05 0 0.00026793306 0 0)
(0.00026562129 -1.7860111e-05 0 0.00022467275 0 0)
(0.00021002445 -5.0846468e-06 0 0.00017021237 0 0)
(0.00015162961 9.8047356e-06 0 0.00011934969 0 0)
(0.00010306386 1.4403813e-05 0 8.5361545e-05 0 0)
(6.9757966e-05 1.5391137e-05 0 6.0909953e-05 0 0)
(4.8441917e-05 1.4178409e-05 0 4.5362226e-05 0 0)
(3.5180369e-05 1.2909885e-05 0 3.4395504e-05 0 0)
(2.6448089e-05 1.1705135e-05 0 2.7557194e-05 0 0)
(2.0409353e-05 1.0493272e-05 0 2.314268e-05 0 0)
(1.608219e-05 9.0485428e-06 0 2.0238299e-05 0 0)
(1.2929872e-05 7.4121928e-06 0 1.8002143e-05 0 0)
(1.0566749e-05 5.7254338e-06 0 1.590564e-05 0 0)
(8.7707868e-06 4.1843056e-06 0 1.3768371e-05 0 0)
(7.3583175e-06 2.9067498e-06 0 1.1552706e-05 0 0)
(6.195632e-06 1.9081193e-06 0 9.3678957e-06 0 0)
(5.218918e-06 1.1908296e-06 0 7.3032379e-06 0 0)
(4.3880594e-06 7.0412763e-07 0 5.4576756e-06 0 0)
(3.6779442e-06 4.0879683e-07 0 3.8874356e-06 0 0)
(3.0741144e-06 2.4023853e-07 0 2.6188024e-06 0 0)
(2.5679995e-06 1.5246333e-07 0 1.6443519e-06 0 0)
(2.1563758e-06 1.0301259e-07 0 9.3425563e-07 0 0)
(1.8383733e-06 6.8342504e-08 0 4.5036279e-07 0 0)
(1.6149099e-06 3.7349705e-08 0 1.5443795e-07 0 0)
(1.4905077e-06 9.9768751e-09 0 1.6268204e-08 0 0)
(0.0007225798 -8.7491541e-05 8.0820153e-26 9.4131234e-05 -1.4478257e-25 5.3253904e-46)
(0.00056888675 -0.00014804121 1.2126792e-25 0.00019271601 9.2826789e-27 1.9218642e-46)
(0.00045978773 -0.0001860782 0 0.00028087202 0 0)
(0.00044299003 -0.00022041323 0 0.00036467326 0 0)
(0.00048228547 -0.00019066831 0 0.00042711954 0 0)
(0.00049134546 -0.00010759212 0 0.00045519511 0 0)
(0.00048764891 -1.1902058e-05 0 0.00042947544 0 0)
(0.0004046343 -4.4208505e-05 0 0.00035200909 0 0)
(0.00032259386 -2.1441632e-05 0 0.00027814556 0 0)
(0.00024134006 -4.1334117e-06 0 0.00020328391 0 0)
(0.00016633691 1.048002e-05 0 0.00014093002 0 0)
(0.0001097834 1.33032e-05 0 9.9481365e-05 0 0)
(7.2938654e-05 1.3506799e-05 0 6.8713529e-05 0 0)
(4.9517099e-05 1.2671741e-05 0 4.8954287e-05 0 0)
(3.4741629e-05 1.1959703e-05 0 3.5812816e-05 0 0)
(2.5146987e-05 1.1066269e-05 0 2.8224661e-05 0 0)
(1.8854809e-05 9.8384868e-06 0 2.3682441e-05 0 0)
(1.4672723e-05 8.2335239e-06 0 2.0828157e-05 0 0)
(1.1847275e-05 6.4594346e-06 0 1.8509561e-05 0 0)
(9.8175811e-06 4.7368813e-06 0 1.626933e-05 0 0)
(8.2954814e-06 3.2716638e-06 0 1.3925629e-05 0 0)
(7.063455e-06 2.1114651e-06 0 1.1555405e-05 0 0)
(6.0233161e-06 1.2677254e-06 0 9.2483338e-06 0 0)
(5.1255867e-06 6.910434e-07 0 7.1238395e-06 0 0)
(4.3417323e-06 3.44586e-07 0 5.2598454e-06 0 0)
(3.6581707e-06 1.5773963e-07 0 3.7067853e-06 0 0)
(3.064079e-06 7.7986977e-08 0 2.4748364e-06 0 0)
(2.5596351e-06 5.0379477e-08 0 1.5425154e-06 0 0)
(2.1466003e-06 4.2644738e-08 0 8.7195279e-07 0 0)
(1.8269783e-06 3.4624047e-08 0 4.1862446e-07 0 0)
(1.6037827e-06 2.1032416e-08 0 1.4305561e-07 0 0)
(1.4818169e-06 5.5175289e-09 0 1.501913e-08 0 0)
(0.0010959277 -9.4914098e-05 -6.9206954e-26 0.00011322636 1.5474072e-25 5.3688606e-46)
(0.00083775677 -0.00017308253 -2.9047656e-25 0.00024941609 -5.365228e-27 1.1887311e-45)
(0.00066657001 -0.00023505526 0 0.00036221646 0 0)
(0.00058737626 -0.00026902551 0 0.00046885334 0 0)
(0.00061008071 -0.00030760657 0 0.00058273014 0 0)
(0.00067274154 -0.00025139475 0 0.00064525693 0 0)
(0.00068761916 -0.00011962046 0 0.00064204792 0 0)
(0.00064302079 -1.6494919e-05 0 0.00056503687 0 0)
(0.00049682564 -5.271316e-05 0 0.0004448187 0 0)
(0.0003820199 -2.3137039e-05 0 0.00033469912 0 0)
(0.00027206841 -3.1147485e-06 0 0.00024093128 0 0)
(0.00018174108 9.0390141e-06 0 0.00016497064 0 0)
(0.00011780208 1.0822303e-05 0 0.00011269667 0 0)
(7.6539086e-05 1.1657307e-05 0 7.4573513e-05 0 0)
(5.0146099e-05 1.1632584e-05 0 5.1060451e-05 0 0)
(3.3704799e-05 1.1402697e-05 0 3.6586709e-05 0 0)
(2.3480658e-05 1.0534164e-05 0 2.8758364e-05 0 0)
(1.7231218e-05 9.0809467e-06 0 2.4375763e-05 0 0)
(1.3426978e-05 7.2364343e-06 0 2.1504164e-05 0 0)
(1.1002127e-05 5.3569714e-06 0 1.9053505e-05 0 0)
(9.3133449e-06 3.6808302e-06 0 1.6561058e-05 0 0)
(8.0076362e-06 2.3353669e-06 0 1.4012756e-05 0 0)
(6.9136376e-06 1.3440009e-06 0 1.1470705e-05 0 0)
(5.9592954e-06 6.5765698e-07 0 9.0668751e-06 0 0)
(5.1108316e-06 2.4252134e-07 0 6.8955401e-06 0 0)
(4.3551325e-06 2.4474381e-08 0 5.0331215e-06 0 0)
(3.677611e-06 -5.2823495e-08 0 3.5116723e-06 0 0)
(3.0813499e-06 -5.7148646e-08 0 2.3248304e-06 0 0)
(2.5693952e-06 -3.1149487e-08 0 1.440228e-06 0 0)
(2.1488521e-06 -5.3072832e-09 0 8.1039654e-07 0 0)
(1.8239972e-06 8.0738585e-09 0 3.8768676e-07 0 0)
(1.598808e-06 8.2468626e-09 0 1.3206823e-07 0 0)
(1.4778308e-06 2.0730219e-09 0 1.3821745e-08 0 0)
(0.0015621991 -9.9855656e-05 0 0.00013627188 0 0)
(0.0011917962 -0.00019321908 2.5123941e-25 0.00031402635 3.1806421e-26 1.1927518e-45)
(0.00092766219 -0.00026906389 0 0.00046029465 0 0)
(0.00080023574 -0.00033797869 0 0.00060860991 0 0)
(0.00076860099 -0.00037506011 0 0.00074625009 0 0)
(0.00083065263 -0.00041347985 0 0.00088077008 0 0)
(0.00090727859 -0.00030276431 0 0.00092148892 0 0)
(0.00091905268 -0.00012380762 0 0.00086374055 0 0)
(0.00080135816 -2.3671238e-05 0 0.00070884657 0 0)
(0.00059436066 -5.7735267e-05 0 0.00054504907 0 0)
(0.00044130031 -2.4365231e-05 0 0.00039824552 0 0)
(0.00030323246 -4.9217542e-06 0 0.0002821349 0 0)
(0.00019867894 5.7816172e-06 0 0.00018754047 0 0)
(0.00012613031 8.5511688e-06 0 0.00012285403 0 0)
(7.9263511e-05 1.0534858e-05 0 7.8198182e-05 0 0)
(4.9769944e-05 1.1208509e-05 0 5.2141278e-05 0 0)
(3.2025481e-05 1.1074014e-05 0 3.7167036e-05 0 0)
(2.161605e-05 9.9093663e-06 0 2.9562498e-05 0 0)
(1.5768241e-05 8.0721781e-06 0 2.5277609e-05 0 0)