/*--------------------------------*- C++ -*----------------------------------*\
| =========                 |                                                 |
| \\      /  F ield         | OpenFOAM: The Open Source CFD Toolbox           |
|  \\    /   O peration     | Version:  5.0                                   |
|   \\  /    A nd           | Web:      www.OpenFOAM.org                      |
|    \\/     M anipulation  |                                                 |
\*---------------------------------------------------------------------------*/
FoamFile
{
    version     2.0;
    format      ascii;
    class       volScalarField;
    location    "320";
    object      p;
}
// * * * * * * * * * * * * * * * * * * * * * * * * * * * * * * * * * * * * * //

dimensions      [0 2 -2 0 0 0 0];

internalField   nonuniform List<scalar> 
9200
(
0.00097736125
0.00099111809
0.0025273361
0.0010001351
0.0025595879
0.0042071523
0.0010221177
0.0025914134
0.0042561086
0.0057271408
0.0010402798
0.0026525911
0.0043116461
0.0057895024
0.0072228675
0.0010583339
0.0027209915
0.0044078033
0.0058657128
0.0072975512
0.0086163058
0.0010662723
0.002803985
0.0045189998
0.0059918376
0.0073925395
0.008700894
0.0099272834
0.0010609172
0.0028900693
0.0046509457
0.0061422438
0.0075460563
0.008811
0.01001968
0.011150183
0.0010442938
0.0029694512
0.0047935887
0.0063233824
0.0077322763
0.0089856463
0.010141492
0.011248738
0.012290529
0.00099949802
0.0030132147
0.0049440655
0.006531058
0.0079586573
0.009198299
0.010330961
0.011379882
0.012394204
0.013351252
0.00086968629
0.0030096105
0.0050863019
0.0067670817
0.0082256385
0.0094554621
0.010559704
0.011580223
0.012533498
0.013459155
0.014336488
0.00060041375
0.0030189057
0.0052060119
0.0070308682
0.0085384321
0.0097574973
0.010830553
0.011819999
0.012743454
0.013605712
0.014447775
0.015250214
0.00018385767
0.0029934126
0.005311363
0.0073440999
0.0089075055
0.010108661
0.01114002
0.012098719
0.012994846
0.013824598
0.014600796
0.015364009
0.016096522
-0.00038005503
0.0028367411
0.0053836401
0.0077023987
0.0093459533
0.010517693
0.011487699
0.012409211
0.013282975
0.014086862
0.014827337
0.015522897
0.016211824
0.016879514
-0.0011098519
0.0024969985
0.0053753486
0.0080869522
0.0098615032
0.01100389
0.011884347
0.012746907
0.013597535
0.014382479
0.01509941
0.015756791
0.016375954
0.016995117
0.017603403
-0.0020198453
0.001941117
0.005232345
0.0084876695
0.010475689
0.011576281
0.012335668
0.013113568
0.013926223
0.014698458
0.015404158
0.016039323
0.016616922
0.01716329
0.017717882
0.018272517
-0.0031456202
0.0010885185
0.0048929026
0.0088861998
0.0112098
0.012263934
0.012852861
0.013442744
0.014245625
0.015015232
0.015729124
0.016358958
0.016911219
0.017409667
0.017888345
0.018384272
0.018891222
-0.0046508022
-8.9166169e-05
0.0043019053
0.0092586322
0.012086741
0.013094487
0.013459559
0.013804874
0.014528293
0.015307288
0.016053845
0.016704066
0.017248446
0.017715364
0.018137533
0.018554889
0.018998584
0.01946384
-0.0069246836
-0.001623037
0.0033978421
0.0095900673
0.013133132
0.014098036
0.014170396
0.014215508
0.014754545
0.015579745
0.016352364
0.017054547
0.017620644
0.018069902
0.018451242
0.018803488
0.019167012
0.019565163
0.019994658
-0.0089845849
-0.0038383675
0.0020957255
0.0098622763
0.014355237
0.015304867
0.015013848
0.014644746
0.014897733
0.015768003
0.016626246
0.017395492
0.018011329
0.018470604
0.018820225
0.019120653
0.019411209
0.019728958
0.020088336
0.020487903
-0.011899712
-0.0075681202
0.00049309938
0.0099934888
0.015736725
0.016736032
0.01601741
0.015094271
0.01496889
0.015818639
0.016833566
0.017725508
0.018421174
0.018907761
0.019244606
0.019497835
0.019726705
0.019964841
0.02024506
0.020572407
0.02094751
-0.015519432
-0.01191956
-0.0012631556
0.0098531694
0.017275491
0.018404812
0.017185538
0.015569184
0.014931397
0.015698373
0.016922034
0.018006385
0.018839675
0.019384493
0.019719491
0.019937282
0.020104826
0.020273407
0.020468852
0.02071981
0.021021542
0.021377075
-0.018111204
-0.016256399
-0.0039478475
0.0091951287
0.018991938
0.020280031
0.01854757
0.016067517
0.014737601
0.015353442
0.016835374
0.018208039
0.019245159
0.019890999
0.020246845
0.020436125
0.020549871
0.02064543
0.020765477
0.020928073
0.021157557
0.021439509
0.021780179
-0.019994333
-0.021036243
-0.0082489029
0.0076079533
0.02096775
0.022375775
0.020090228
0.016583651
0.014327386
0.014699742
0.016505476
0.018288491
0.019622543
0.020426827
0.020826864
0.020998115
0.021059535
0.021086546
0.021124917
0.021208128
0.02134708
0.021561987
0.021829888
0.022160395
-0.021611367
-0.026023967
-0.013452331
0.0056030041
0.023272745
0.024664435
0.021778219
0.017102857
0.013651007
0.013627095
0.015843691
0.018199857
0.019951569
0.020989268
0.021465995
0.021627305
0.021637716
0.021594126
0.021553893
0.021549016
0.021606269
0.02172945
0.021936839
0.022196781
0.022520678
-0.023053563
-0.031060142
-0.018565543
0.003665019
0.025605609
0.027071506
0.023535778
0.01760656
0.012620692
0.012064083
0.014747245
0.017888899
0.020214449
0.021580782
0.022172255
0.022331355
0.022287815
0.022170776
0.022048826
0.02195882
0.02192344
0.021963839
0.022079462
0.022286953
0.022543783
0.022863406
-0.024299761
-0.035887421
-0.023522751
0.0016462524
0.027089447
0.029505977
0.025266101
0.018036887
0.011100643
0.0097344656
0.013091408
0.017279459
0.020383699
0.022204915
0.022957535
0.023120838
0.023015905
0.022817541
0.022610573
0.022433215
0.022308386
0.022252947
0.022286167
0.022403541
0.022616001
0.02287269
0.02319112
-0.025292663
-0.040316712
-0.02826441
-0.00041138769
0.027577886
0.031808953
0.026791563
0.018258938
0.0089156669
0.0064007498
0.010709497
0.016261888
0.020410064
0.022852702
0.023829516
0.024007368
0.023830321
0.023536737
0.023237128
0.022971551
0.022756514
0.022609074
0.022543563
0.022580339
0.022705119
0.022925301
0.023185382
0.023506018
-0.025990058
-0.044373188
-0.032695709
-0.0024980103
0.027512437
0.033953785
0.027906802
0.018150335
0.0059694222
0.0018747189
0.0075118296
0.014671449
0.020212028
0.023510521
0.024796843
0.025001989
0.024739512
0.024332406
0.023925446
0.023568746
0.023266632
0.02302675
0.022864905
0.022803069
0.022847348
0.022983184
0.023216952
0.023484715
0.023809711
-0.0264226
-0.048024586
-0.03655741
-0.0045643408
0.026764596
0.035253246
0.028456806
0.017655852
0.0023138529
-0.0038555223
0.0034180638
0.012296027
0.019668159
0.024146761
0.025862225
0.026116108
0.025745371
0.025209414
0.024670339
0.024215644
0.023831255
0.023505828
0.023248715
0.023081491
0.023028877
0.023085601
0.023240772
0.023494806
0.02377326
0.024103864
-0.026462262
-0.051186611
-0.039693899
-0.0065588657
0.025415562
0.035071158
0.028343738
0.016668397
-0.002055612
-0.010894868
-0.0020012744
0.0089437428
0.018623992
0.024717324
0.027013342
0.027349938
0.02686223
0.026130364
0.025463711
0.024899903
0.024436508
0.024038516
0.023695229
0.023426233
0.023266317
0.023223367
0.023302274
0.023485242
0.023762204
0.024052907
0.024390077
-0.026178352
-0.054132085
-0.042109045
-0.0084598375
0.023556952
0.033647664
0.027498874
0.015119506
-0.0073921733
-0.019741482
-0.0095524608
0.0044307
0.016734001
0.025151573
0.028217606
0.028689828
0.028078437
0.027150093
0.02628724
0.025602424
0.025064092
0.024608552
0.024198256
0.023838406
0.023567647
0.023418304
0.023394361
0.023507494
0.02372029
0.024020623
0.024325115
0.024669623
-0.025352884
-0.058681011
-0.044048204
-0.01028577
0.021222777
0.031605099
0.025794761
0.013066518
-0.013459843
-0.030643878
-0.019887241
-0.0016041954
0.013918475
0.025230854
0.029405363
0.030098634
0.029372719
0.028220015
0.027134679
0.026299167
0.025686659
0.025194428
0.024742487
0.02431334
0.02394022
0.023673167
0.023538718
0.023548766
0.02369996
0.023944549
0.024271327
0.024591162
0.024943387
-0.023868531
-0.060767696
-0.04557065
-0.012586988
0.018454145
0.028866594
0.023185062
0.010628347
-0.020042129
-0.042155166
-0.032327419
-0.0099215656
0.010124205
0.024754336
0.030473386
0.031495174
0.030712479
0.029314617
0.027975157
0.02696061
0.026268824
0.025763141
0.025306341
0.024839582
0.024384199
0.024000055
0.023741183
0.023635425
0.023688962
0.023880069
0.024161397
0.02451658
0.024852208
0.02521218
-0.022026118
-0.052800983
-0.045913255
-0.015111094
0.014336486
0.025845798
0.019820038
0.0078698866
-0.027043561
-0.053768457
-0.046430076
-0.020741455
0.0041562527
0.023609033
0.031228537
0.032783724
0.032004451
0.030386841
0.028768605
0.027544934
0.026764818
0.026270123
0.025855838
0.02539951
0.024894597
0.024406908
0.024015503
0.023776981
0.023713626
0.023816043
0.024053694
0.024374885
0.02475785
0.025109054
0.025476652
-0.019932357
-0.043333638
-0.044884305
-0.017589065
0.0095963335
0.02129006
0.016143924
0.0045861948
-0.034182527
-0.065607539
-0.061222061
-0.033428869
-0.0040869956
0.021513585
0.031828146
0.033793599
0.033154985
0.031367949
0.029462407
0.02800078
0.02711677
0.026657073
0.026342672
0.025963487
0.025461374
0.024897763
0.024377652
0.023990552
0.023787468
0.023776065
0.023934384
0.024223196
0.024584382
0.024995475
0.025362372
0.025737108
-0.017629616
-0.038311795
-0.042633589
-0.019899862
0.0041825134
0.016146362
0.011878506
0.0007113296
-0.040834694
-0.077134587
-0.075681953
-0.046700732
-0.012580279
0.018351
0.032155348
0.034492982
0.034007322
0.032159884
0.029984769
0.028260973
0.027253304
0.026848594
0.026702308
0.02648649
0.026063681
0.0254723
0.024839878
0.024296809
0.023929947
0.023776248
0.023827148
0.024047774
0.024389745
0.02479162
0.025230769
0.025612739
0.025994008
-0.015194993
-0.034003796
-0.039703405
-0.021980168
-0.0016882984
0.0097895264
0.0077118613
-0.0027803207
-0.047257632
-0.087648138
-0.089289306
-0.059374895
-0.021045902
0.013991146
0.031547686
0.034389087
0.03440708
0.032652017
0.030235403
0.028232633
0.027073724
0.026739605
0.026845514
0.026905864
0.026667918
0.026121368
0.025412196
0.024715074
0.024166205
0.02383798
0.023748664
0.02387118
0.024158877
0.024555802
0.024998789
0.025464474
0.025860476
0.026247516
-0.012668021
-0.029853386
-0.036272445
-0.023789984
-0.0079501295
0.0024288756
0.0026859942
-0.0059519326
-0.051609069
-0.097270402
-0.10188627
-0.07090044
-0.030121792
0.0090659677
0.029451356
0.033467802
0.034014483
0.032699395
0.030111907
0.027813333
0.026468696
0.026205885
0.026650395
0.027135036
0.027223889
0.02682755
0.026099149
0.02526592
0.02452148
0.023989777
0.023720985
0.023710496
0.023912178
0.02427057
0.024723062
0.025205881
0.025696712
0.026105805
0.02649765
-0.010080906
-0.025345646
-0.032273061
-0.025199128
-0.014445268
-0.0058340556
-0.0034081198
-0.0096624101
-0.055355921
-0.10382761
-0.11389588
-0.0820153
-0.039677505
0.003697523
0.025896011
0.032028741
0.032738972
0.032130644
0.029505329
0.026895743
0.025325365
0.025112428
0.025971805
0.027048899
0.027653642
0.027559224
0.026900609
0.025966906
0.025025142
0.024261528
0.02377495
0.023586858
0.023666303
0.023954696
0.024385233
0.024892669
0.025413656
0.025928018
0.026348862
0.026744628
-0.020247996
-0.0074542665
-0.027884977
-0.026107156
-0.021061704
-0.014906708
-0.010579347
-0.014230744
-0.0588475
-0.11040076
-0.1239277
-0.092454266
-0.048843903
-0.0024206769
0.021076644
0.029769451
0.030662279
0.030767715
0.028328954
0.025363501
0.023518457
0.023291196
0.024621831
0.026489279
0.027841749
0.028261915
0.027805825
0.026833893
0.025705805
0.024689316
0.023943602
0.0235317
0.023440596
0.023620211
0.024001558
0.024504584
0.025065711
0.025622959
0.026158514
0.026589662
0.02698825
-0.023149567
-0.01463353
-0.0048471775
-0.026320185
-0.02779726
-0.024666931
-0.018969636
-0.019812235
-0.061888148
-0.1153789
-0.1368367
-0.10180139
-0.056821449
-0.0088769426
0.015373228
0.026662815
0.027884611
0.02849259
0.026481229
0.023114785
0.02090554
0.02055223
0.022352888
0.025245337
0.027652644
0.028857289
0.028790084
0.027875831
0.026592606
0.025309921
0.024266761
0.02357818
0.023265791
0.023287654
0.023579676
0.024054872
0.024630507
0.025243008
0.025833638
0.026388174
0.026828159
0.027228553
-0.025871127
-0.017936235
-0.0087672551
-0.0022785809
-0.034488544
-0.034932218
-0.028109086
-0.02605344
-0.064595198
-0.1186021
-0.1461183
-0.11406902
-0.065444501
-0.015429638
0.0095779863
0.02245334
0.024291742
0.025262648
0.023836166
0.020071261
0.017358904
0.016677408
0.018865215
0.023004137
0.026885642
0.02923119
0.029812007
0.029093417
0.027710386
0.02616244
0.024786292
0.023768362
0.023173506
0.022985117
0.023139636
0.023549908
0.024117522
0.024764195
0.025424689
0.026045919
0.026617024
0.027064262
0.027465433
-0.040876704
-0.024936582
-0.012540319
-0.0028945635
0.00021989713
-0.045423204
-0.03745183
-0.03230907
-0.066873514
-0.11992496
-0.154296
-0.12645297
-0.07483726
-0.024951373
0.0036313194
0.017054039
0.01973556
0.02098665
0.020313985
0.016192679
0.01275828
0.011462176
0.013807866
0.019360634
0.025216781
0.029208123
0.030797811
0.030472561
0.029078145
0.027283129
0.025547896
0.024147048
0.023206579
0.022742023
0.022704485
0.023003515
0.023532774
0.024192137
0.024906047
0.025610944
0.026259774
0.026844898
0.027297813
0.027698693
-0.05581778
-0.046906549
-0.023534602
-0.0072447165
0.0028358388
0.0026002963
-0.046872484
-0.038224835
-0.068522811
-0.1187925
-0.1590053
-0.13791922
-0.082867844
-0.034691543
-0.0065037724
0.011285655
0.013999222
0.015733849
0.015843088
0.011469771
0.007077137
0.0047277273
0.0067822681
0.013840792
0.022211422
0.028538685
0.03162763
0.031974423
0.030700905
0.028703867
0.026594556
0.024763409
0.02340985
0.022598949
0.022300957
0.022435018
0.022882428
0.023531211
0.02427991
0.025056568
0.025802031
0.026474994
0.027071607
0.027528641
0.027928313
-0.056134057
-0.065758727
-0.052354222
-0.021813198
-0.0021435879
0.0083166276
0.004870425
-0.043727606
-0.069327498
-0.11525991
-0.15789523
-0.14489678
-0.089532177
-0.044840533
-0.016087721
0.0014478101
0.0079280085
0.0094393117
0.010452223
0.0059637169
0.00032733416
-0.0036056682
-0.0027737524
0.0057906658
0.017356389
0.026851187
0.032115049
0.033525636
0.032561312
0.030441939
0.027968828
0.025662965
0.023833418
0.022598526
0.021966422
0.021866531
0.022182617
0.022781106
0.023547463
0.024381563
0.025216063
0.02599762
0.02669134
0.027296911
0.027756559
0.028154064
-0.048864942
-0.064815081
-0.074796676
-0.057155862
-0.019976246
0.0027015761
0.013378408
0.0070393279
-0.069035094
-0.11007934
-0.15106619
-0.14631939
-0.094814701
-0.05452665
-0.027296218
-0.0083272421
-0.00086014129
0.0026498571
0.0041010774
-0.00021537699
-0.0073788892
-0.013704554
-0.015661685
-0.0059249644
0.0099304152
0.023694299
0.032004849
0.034997186
0.034607596
0.032491828
0.029694893
0.026896704
0.024517469
0.022792897
0.02173935
0.021331634
0.021449102
0.021953369
0.022703506
0.023583316
0.02449751
0.025384413
0.026197387
0.026908436
0.027520558
0.027981417
0.028375884
-0.067411851
-0.053644267
-0.072309748
-0.082859421
-0.061197267
-0.018211879
0.0072532464
0.017914599
0.0090289404
-0.10333308
-0.14200295
-0.14356714
-0.098446864
-0.063503224
-0.038945107
-0.020997409
-0.008993425
-0.0060274353
-0.0027764772
-0.0070406434
-0.016052402
-0.025637472
-0.033033083
-0.022227964
-0.0010570235
0.01815915
0.030891692
0.036193648
0.036736495
0.03481235
0.031774171
0.028491815
0.025526998
0.023193989
0.021687707
0.020854783
0.020707616
0.021057817
0.021754026
0.022652196
0.023639931
0.024627693
0.025561144
0.026400927
0.027125978
0.027742392
0.028203034
0.028593534
-0.095125352
-0.064599137
-0.05761441
-0.078294731
-0.09002523
-0.064347921
-0.016541266
0.011429444
0.021920636
0.010800994
-0.13116513
-0.13757566
-0.099934157
-0.071444432
-0.05104587
-0.034899208
-0.020101637
-0.013766786
-0.010713982
-0.014096428
-0.025335087
-0.039444962
-0.052621986
-0.041312651
-0.014700537
0.0095098637
0.027628773
0.036707344
0.038770908
0.037310943
0.034173027
0.030454963
0.026885732
0.023911349
0.021727968
0.020493769
0.019981828
0.020112319
0.020702185
0.021589071
0.02262939
0.023717692
0.024771586
0.025745656
0.026607807
0.027343821
0.027962155
0.028421002
0.028806836
-0.1185623
-0.085528207
-0.060650311
-0.060566751
-0.08281404
-0.096307263
-0.066517578
-0.014853654
0.015137506
0.025363463
0.01232714
-0.12906124
-0.098906453
-0.077864972
-0.063038865
-0.049780292
-0.033767458
-0.023845776
-0.017728443
-0.021293299
-0.035275429
-0.05400131
-0.073704883
-0.062761056
-0.030535171
-0.0017991692
0.022309004
0.035829974
0.040362398
0.039823616
0.036806986
0.032758689
0.028604394
0.024944189
0.022109729
0.020236504
0.019308892
0.019134901
0.019558188
0.020389933
0.021461607
0.022636152
0.023816173
0.024928537
0.025937728
0.026818067
0.027561582
0.028179076
0.028634868
0.029015923
-0.11797711
-0.10422931
-0.075017677
-0.055697517
-0.06233878
-0.085903763
-0.1012147
-0.067393511
-0.01316215
0.018270674
0.028123454
0.013587365
-0.09524779
-0.082272098
-0.074536039
-0.06544564
-0.050097252
-0.037144897
-0.02636915
-0.027243828
-0.043195531
-0.070167997
-0.094021292
-0.086521522
-0.050928524
-0.017493075
0.01474192
0.033817349
0.041058996
0.042053786
0.039525947
0.035327176
0.030657835
0.02630531
0.022743273
0.020195856
0.018703421
0.018150956
0.018332909
0.019056654
0.020126239
0.021374059
0.022672466
0.023934649
0.025098519
0.026137471
0.027031002
0.027777735
0.028392326
0.028845129
0.02923117
-0.089549852
-0.10459016
-0.089106029
-0.063810422
-0.050212751
-0.062516502
-0.087225236
-0.10226895
-0.066922915
-0.011501439
0.020814486
0.030317043
0.014544608
-0.084754657
-0.085406825
-0.08173774
-0.068739129
-0.053201533
-0.037475508
-0.034476595
-0.048891323
-0.080680055
-0.11519687
-0.11055638
-0.074888224
-0.036717676
0.0035844983
0.029545204
0.040804849
0.043641824
0.042088961
0.038028301
0.032982132
0.027972553
0.023650037
0.02036264
0.01822408
0.017177188
0.017041706
0.017593278
0.018616424
0.019914489
0.021326996
0.022737602
0.024073285
0.025281855
0.02634353
0.027243769
0.02799073
0.028603186
0.029063279
0.02945626
-0.085045915
-0.08209498
-0.09005008
-0.073678888
-0.052540674
-0.044156923
-0.061121488
-0.086546118
-0.099914643
-0.065370053
-0.0098048656
0.022974854
0.031932016
0.015328783
-0.095335183
-0.098402915
-0.089119713
-0.07180737
-0.050828983
-0.043378335
-0.055093472
-0.089163527
-0.12821074
-0.13729608
-0.10246344
-0.0575807
-0.010930689
0.021634317
0.038698642
0.044440728
0.044220353
0.040665422
0.035464819
0.02989337
0.024818183
0.020739809
0.017880524
0.016247011
0.015695642
0.016004638
0.016928998
0.018243755
0.019756745
0.021319802
0.022831925
0.024232792
0.025476307
0.026551245
0.027453943
0.028203376
0.028825965
0.029290467
0.029685192
-0.10368521
-0.083125425
-0.072935848
-0.075131635
-0.058473911
-0.041513535
-0.037577168
-0.058468312
-0.083535398
-0.095190864
-0.062931807
-0.0078031061
0.024622118
0.033184661
0.015865028
-0.11488022
-0.11063018
-0.09260823
-0.066193161
-0.053722185
-0.062382218
-0.096091238
-0.14389026
-0.15830752
-0.13441977
-0.081906357
-0.028382747
0.011550733
0.033175195
0.043600503
0.045548938
0.042981581
0.037935142
0.031972114
0.026202005
0.021317691
0.017674163
0.015369302
0.0143116
0.014293142
0.015058866
0.01634956
0.017941951
0.0196527
0.021352938
0.022956892
0.024410094
0.025674742
0.026757211
0.027666861
0.028436518
0.029056265
0.029523184
0.029917725
-0.13031706
-0.11013676
-0.079608349
-0.062782119
-0.060465641
-0.043907289
-0.030705407
-0.030691623
-0.054769496
-0.07872407
-0.088680721
-0.059871461
-0.0053211722
0.025768072
0.033465161
0.01606458
-0.13288073
-0.1150885
-0.083460017
-0.065124201
-0.07089964
-0.10258714
-0.15504567
-0.18819944
-0.16626157
-0.10832129
-0.049271912
-0.00065624092
0.025611308
0.040026965
0.045590857
0.044622303
0.040163076
0.034057066
0.027718847
0.022054433
0.017591426
0.014543512
0.01289182
0.012462633
0.012997907
0.014218087
0.015860975
0.017711646
0.019602608
0.021429075
0.02310888
0.024594774
0.025872483
0.026970523
0.02791356
0.028676345
0.0292943
0.029760528
0.030153865
-0.15511901
-0.14425926
-0.11434283
-0.075064503
-0.052649016
-0.046443178
-0.030274181
-0.020209138
-0.023696166
-0.050228762
-0.07312389
-0.083346051
-0.055338803
-0.0029296927
0.026292698
0.032727842
0.01598069
-0.13870534
-0.10261641
-0.077125747
-0.079971978
-0.10956152
-0.16363134
-0.20924801
-0.21107823
-0.13486205
-0.071114945
-0.014662553
0.016363465
0.034432632
0.0439453
0.045151934
0.04189574
0.035941829
0.029237366
0.02287707
0.017594357
0.013752492
0.011430481
0.010506831
0.010738856
0.01183074
0.013491513
0.015464925
0.017554619
0.019610603
0.021544723
0.023273218
0.02478
0.026083903
0.027236745
0.028166455
0.028926569
0.029537667
0.03000264
0.030393393
-0.16242594
-0.17652188
-0.155767
-0.11631805
-0.069951417
-0.043097891
-0.033450687
-0.01785961
-0.010268004
-0.016577271
-0.044961814
-0.06828142
-0.075906749
-0.050163431
-0.00064809748
0.026122614
0.030731176
0.01575709
-0.1225969
-0.089151696
-0.088962785
-0.11648284
-0.1709234
-0.22707059
-0.24038217
-0.1763263
-0.093823705
-0.029328029
0.0061100534
0.027481087
0.040348804
0.044339725
0.04283804
0.037401667
0.030587732
0.023670827
0.017617609
0.012959804
0.0099060206
0.0084116151
0.0082658604
0.0091698821
0.010805914
0.012883355
0.015164061
0.017477238
0.019676793
0.021679879
0.023439459
0.024987135
0.026375265
0.027509123
0.028432715
0.029182716
0.029786986
0.030248955
0.030636259
-0.14146951
-0.18494245
-0.19532961
-0.1647284
-0.11613807
-0.064395429
-0.034190084
-0.021645031
-0.006910818
-0.00092589782
-0.0098168159
-0.039878458
-0.062732604
-0.069060007
-0.044296792
0.0013933183
0.025239888
0.028224013
0.015442595
-0.10083062
-0.097313335
-0.1226857
-0.17612619
-0.23993977
-0.27351806
-0.21812411
-0.12281813
-0.051030802
-0.0050595646
0.019038491
0.034643974
0.042057855
0.042481485
0.038312491
0.031573065
0.024290518
0.017559884
0.012105242
0.0082805501
0.0061492726
0.00555436
0.0062087952
0.0077752946
0.0099302478
0.012398393
0.014967661
0.017473153
0.019771702
0.021818567
0.023637976
0.025310909
0.026673737
0.027798363
0.028705403
0.02944613
0.03004131
0.030499496
0.030882214
-0.1117059
-0.15798998
-0.2039123
-0.21090265
-0.1709199
-0.11427447
-0.058687744
-0.025996713
-0.011285343
0.003014481
0.0072089322
-0.0033944818
-0.035377472
-0.056514503
-0.061144435
-0.037965178
0.0031387429
0.02371008
0.025222429
0.01513967
-0.10445327
-0.12777834
-0.17845583
-0.24674291
-0.29772363
-0.25889133
-0.15628677
-0.075928363
-0.024359644
0.0090859804
0.0274883
0.03777322
0.040451744
0.038248407
0.031948405
0.024550385
0.017295506
0.011098395
0.0064962444
0.0036779135
0.0025692251
0.0029119055
0.0043606455
0.0065639908
0.0092114693
0.012049555
0.014873326
0.017509613
0.019871404
0.022002524
0.024002709
0.025643934
0.026992994
0.028094448
0.028986652
0.029715527
0.030300634
0.030753728
0.031131133
-0.11019022
-0.12052615
-0.17010664
-0.2178861
-0.2227333
-0.17347036
-0.11112006
-0.053344999
-0.019071575
-0.0033895582
0.0098924619
0.015095651
0.00097788167
-0.030580338
-0.049852585
-0.052534667
-0.031432533
0.0045202017
0.02179131
0.021761363
0.014705862
-0.13079954
-0.17723571
-0.24668585
-0.31166651
-0.29482399
-0.1909092
-0.1059087
-0.04282709
-0.0094950102
0.019341009
0.031513188
0.036874938
0.036527839
0.031426158
0.024225469
0.016657192
0.0098306529
0.0044704502
0.00093884703
-0.00073774431
-0.00076440925
0.00051841768
0.0027374778
0.0055520328
0.0086687452
0.011833824
0.014834008
0.017552228
0.020032331
0.022418769
0.024380614
0.026002526
0.027319372
0.028400532
0.029274818
0.029990854
0.030564222
0.03101152
0.031382797
-0.13053714
-0.11354947
-0.12665503
-0.17624928
-0.22645119
-0.22768642
-0.1719138
-0.10702974
-0.048679816
-0.013769103
0.0022913023
0.016378564
0.02022202
0.0051804638
-0.02546346
-0.042468962
-0.043380832
-0.025042102
0.005600334
0.019721013
0.018288453
0.013766777
-0.17205139
-0.23971957
-0.31368555
-0.32178673
-0.22632905
-0.13705022
-0.067204768
-0.024658125
0.0011125303
0.025022189
0.030979024
0.033303993
0.029601294
0.023083074
0.015456976
0.0081543407
0.0021081169
-0.0021468109
-0.0044292856
-0.0048762285
-0.0038054097
-0.001602023
0.0013658163
0.0047681234
0.0082991344
0.011688853
0.014802001
0.017677897
0.020513806
0.02285394
0.024789844
0.026368211
0.02765714
0.028714542
0.029569799
0.03027121
0.030831837
0.031272412
0.031637067
-0.16344466
-0.12646354
-0.11409668
-0.12962831
-0.17531192
-0.22903329
-0.22448005
-0.16707799
-0.10226134
-0.04429716
-0.0091964004
0.0081854484
0.020618995
0.024866983
0.0093402839
-0.020184776
-0.034233605
-0.033914898
-0.018782996
0.0062779374
0.017547573
0.015264448
0.012098694
-0.22680124
-0.30301751
-0.33312491
-0.25830632
-0.16630017
-0.092246389
-0.046098022
-0.012934173
0.0091864473
0.025324361
0.027519476
0.026442979
0.020770624
0.013498854
0.0059195679
-0.0007222207
-0.0056662537
-0.0085847694
-0.0094930071
-0.008675966
-0.006519132
-0.0034105272
0.00028379028
0.0042044563
0.0080188892
0.011557125
0.014879323
0.018241931
0.021021373
0.023327661
0.025205628
0.026746738
0.028003809
0.029036364
0.029870496
0.030556288
0.031102891
0.031536365
0.031893631
-0.2092796
-0.15140301
-0.11921662
-0.11112135
-0.12893833
-0.16902365
-0.2221551
-0.21599321
-0.15986137
-0.096372668
-0.039901028
-0.0034448856
0.012843459
0.024609742
0.028769109
0.013048566
-0.014920673
-0.025476427
-0.025125116
-0.012562923
0.0065590344
0.015366501
0.012768978
0.009929181
-0.28291117
-0.32660138
-0.27759307
-0.18830085
-0.11711425
-0.068091651
-0.033063409
-0.00485438
0.011379881
0.020714184
0.020959056
0.017242739
0.010515442
0.0029560232
-0.0041349901
-0.0097409563
-0.013290348
-0.014698428
-0.014171203
-0.012088538
-0.0088505313
-0.0048549462
-0.00052097311
0.0037512193
0.0077525673
0.011579643
0.015548801
0.01883965
0.021576725
0.023806591
0.025635731
0.027135152
0.028359301
0.02936482
0.030176472
0.030845422
0.031377519
0.031802802
0.032152275
-0.2562054
-0.18736815
-0.13687213
-0.10929135
-0.10410174
-0.12357073
-0.1593274
-0.20650499
-0.20387766
-0.15031996
-0.089351282
-0.034133051
0.0022666018
0.017419227
0.027650314
0.031697923
0.016224736
-0.0097536546
-0.016736642
-0.017188037
-0.0073372624
0.0067038939
0.013249715
0.010643908
0.0078683063
-0.30667417
-0.28137412
-0.2020707
-0.13823923
-0.090405819
-0.05442753
-0.024683909
-0.0010642181
0.0086800597
0.014550728
0.01175628
0.0064444271
-0.00092825414
-0.008285522
-0.014457197
-0.018664142
-0.020583895
-0.020382025
-0.018397384
-0.015037755
-0.01072901
-0.0059539167
-0.0011918298
0.0033127044
0.0076888109
0.012381135
0.016258344
0.019497268
0.022134619
0.024301438
0.026076604
0.027533487
0.028722335
0.029699279
0.030487009
0.031139081
0.031654724
0.032071431
0.032412735
-0.27677424
-0.22411072
-0.16328552
-0.12033323
-0.097291937
-0.093569295
-0.11304108
-0.1456958
-0.18578901
-0.18959431
-0.13629714
-0.081531888
-0.025956152
0.007223656
0.021303801
0.029822887
0.033496163
0.01897202
-0.0044899076
-0.0091588322
-0.010439412
-0.0035516054
0.0068105723
0.011350071
0.0087972869
0.0061212623
-0.27122411
-0.20779548
-0.1531437
-0.1109659
-0.076954919
-0.046018283
-0.02134038
-0.0028118183
0.0040319845
0.0057151741
0.0006826394
-0.0057852618
-0.013295838
-0.019970723
-0.024775964
-0.027269355
-0.027409811
-0.025545443
-0.02206788
-0.01742884
-0.012180871
-0.0068934173
-0.001849145
0.0031391908
0.0086612948
0.013226313
0.017042947
0.020153996
0.022709777
0.024807816
0.026528546
0.027940352
0.029092023
0.03003912
0.030803132
0.031435647
0.031934184
0.032341768
0.032674775
-0.24848532
-0.24004749
-0.19014849
-0.13833289
-0.10255686
-0.083512528
-0.080623549
-0.098730876
-0.12906093
-0.16194472
-0.15191911
-0.12414589
-0.069105465
-0.018164397
0.011502688
0.024342577
0.031136387
0.034020651
0.020691719
0.0011241603
-0.0037066566
-0.0050693144
-0.00047734996
0.0067966454
0.0097050882
0.0072198005
0.0047108011
-0.20420196
-0.1605623
-0.12813181
-0.098597185
-0.069129304
-0.045085462
-0.0211712
-0.0063217912
-0.0031347077
-0.0055058942
-0.012060387
-0.019238131
-0.02633055
-0.031799934
-0.034822391
-0.035379971
-0.033646664
-0.030049684
-0.025056521
-0.019297037
-0.013445627
-0.0078235846
-0.0021617001
0.0043256886
0.0096738909
0.01416735
0.017821613
0.020828415
0.023297474
0.025326482
0.026989963
0.028354593
0.029467969
0.030386017
0.031122567
0.031734767
0.032215262
0.032613454
0.032938151
-0.19151246
-0.21741843
-0.20188129
-0.15632225
-0.11373096
-0.084370531
-0.068529436
-0.066275035
-0.082621117
-0.11154183
-0.13548777
-0.13521303
-0.10733794
-0.057172698
-0.010566756
0.015220837
0.026520106
0.031641609
0.033028786
0.020809058
0.0056896698
0.00018596622
-0.0012818387
0.0019385753
0.0066896381
0.0083324467
0.0059150355
0.0036161168
-0.1612377
-0.14004498
-0.11730385
-0.092703064
-0.070551766
-0.045677638
-0.023756015
-0.010327595
-0.013216228
-0.018785576
-0.02638006
-0.033667999
-0.039714077
-0.043447405
-0.044372897
-0.042834389
-0.039109016
-0.033727976
-0.027408393
-0.020948487
-0.014709785
-0.0083095304
-0.00070527156
0.0055390677
0.010810461
0.015094548
0.018618917
0.021516032
0.023898499
0.025855509
0.027459525
0.028776188
0.029852743
0.030736663
0.031444963
0.032035567
0.032497553
0.032886103
0.033202629
-0.15559414
-0.17183518
-0.183936
-0.1646947
-0.12460973
-0.090330269
-0.066548973
-0.053352423
-0.051436964
-0.065856195
-0.094827483
-0.11598344
-0.11543488
-0.090706865
-0.04530342
-0.0037914948
0.018185262
0.027888185
0.0313987
0.030715433
0.02038758
0.0083815778
0.0031703294
0.0015455541
0.0037346029
0.0065267355
0.0071988465
0.004870033
0.0027956399
-0.14474699
-0.13114062
-0.11494086
-0.097357606
-0.076251353
-0.04809207
-0.025787347
-0.01763572
-0.025767425
-0.034047852
-0.042055026
-0.048764855
-0.053061671
-0.054623048
-0.053215557
-0.049387028
-0.043575776
-0.036633609
-0.029510906
-0.022614041
-0.015407397
-0.0065149348
0.00074861902
0.0069154651
0.01192018
0.016041769
0.019429423
0.02221811
0.024510934
0.026393566
0.027937677
0.029208773
0.030241912
0.031090733
0.031769222
0.032337562
0.032780658
0.033159379
0.033467814
-0.1428786
-0.14374965
-0.14790187
-0.15079255
-0.13042243
-0.096081995
-0.068820075
-0.049712154
-0.038966911
-0.036572121
-0.050213152
-0.081485653
-0.096261302
-0.095710638
-0.073836958
-0.033693445
0.0019615932
0.020345303
0.028469015
0.030606217
0.028362432