/*--------------------------------*- C++ -*----------------------------------*\
| =========                 |                                                 |
| \\      /  F ield         | OpenFOAM: The Open Source CFD Toolbox           |
|  \\    /   O peration     | Version:  5.0                                   |
|   \\  /    A nd           | Web:      www.OpenFOAM.org                      |
|    \\/     M anipulation  |                                                 |
\*---------------------------------------------------------------------------*/
FoamFile
{
    version     2.0;
    format      ascii;
    class       surfaceScalarField;
    location    "320";
    object      phi;
}
// * * * * * * * * * * * * * * * * * * * * * * * * * * * * * * * * * * * * * //

dimensions      [0 3 -1 0 0 0 0];

internalField   nonuniform List<scalar> 
18180
(
-0.0018943253
-1.3895734
-0.0036868197
-1.2996006
-0.00184518
-1.3877282
-0.0053683728
-1.2155829
-0.0035921322
-1.2978536
-0.0017624392
-1.3859657
-0.0069607522
-1.1370992
-0.0052448725
-1.2139302
-0.0034336386
-1.2961824
-0.0016425701
-1.3843232
-0.0084454654
-1.0637617
-0.0068193896
-1.1355247
-0.0050226981
-1.2123411
-0.0032023681
-1.2946226
-0.0015078681
-1.3828153
-0.0098042965
-0.99522788
-0.0083174917
-1.0622636
-0.0065486544
-1.1339987
-0.0046879177
-1.2108556
-0.0029369985
-1.2931935
-0.0013709316
-1.3814444
-0.010999635
-0.93117703
-0.0097359999
-0.99380937
-0.0080267662
-1.0607855
-0.006121209
-1.1325654
-0.0042951065
-1.2094975
-0.0026644435
-1.2919
-0.0012502515
-1.3801941
-0.011992591
-0.87133389
-0.011063345
-0.92984969
-0.0094751396
-0.992361
-0.0075242751
-1.0593824
-0.0055981362
-1.1312624
-0.003886605
-1.2082753
-0.002422427
-1.2907278
-0.0011516534
-1.3790425
-0.012749353
-0.81543246
-0.012285485
-0.87011175
-0.010922674
-0.92840215
-0.0089309902
-0.99095428
-0.0068625691
-1.058118
-0.0050443911
-1.1301046
-0.0035236598
-1.2071741
-0.0022253581
-1.2896541
-0.0010738971
-1.3779686
-0.013148697
-0.76327815
-0.013357401
-0.81436055
-0.01241893
-0.8686155
-0.010397799
-0.92693534
-0.0081145779
-0.98970227
-0.0061428884
-1.0570195
-0.0045534058
-1.1290748
-0.0032320338
-1.2061674
-0.0020736334
-1.2886544
-0.001009848
-1.3769587
-0.013076433
-0.71463048
-0.014322729
-0.76231282
-0.014058902
-0.81272058
-0.011993711
-0.86701958
-0.0093929067
-0.92565702
-0.0071886353
-0.98865653
-0.0055088482
-1.056064
-0.0041680856
-1.1281388
-0.0030142971
-1.2052267
-0.0019536359
-1.2877106
-0.00095201848
-1.3760067
-0.01242474
-0.66937353
-0.015348753
-0.71360446
-0.015996399
-0.76037532
-0.013832645
-0.81088164
-0.010739902
-0.86567259
-0.0081869883
-0.92465866
-0.0063774392
-0.98778793
-0.0050297615
-1.0552024
-0.0038941113
-1.127259
-0.0028476176
-1.2043328
-0.0018480382
-1.2868146
-0.00089457387
-1.3751121
-0.011061544
-0.62731009
-0.016525992
-0.66819629
-0.018242055
-0.7113588
-0.015977579
-0.75823039
-0.012208914
-0.80941263
-0.009141459
-0.86471812
-0.0071378077
-0.92389829
-0.0057973799
-0.98702032
-0.0047129643
-1.0543835
-0.0036943371
-1.1264123
-0.002702056
-1.2034787
-0.0017417367
-1.2859674
-0.00083333203
-1.3742788
-0.0088975026
-0.5881974
-0.017818238
-0.62601784
-0.020910453
-0.66552789
-0.018507087
-0.70882929
-0.013839387
-0.75659991
-0.010032876
-0.80852121
-0.0077590306
-0.86409689
-0.0064389736
-0.9232567
-0.0054544168
-0.98627886
-0.0044980055
-1.0535798
-0.0035218559
-1.1255925
-0.002552475
-1.202668
-0.0016245017
-1.2851762
-0.00076578398
-1.373513
-0.0058653873
-0.55183267
-0.019176553
-0.58683909
-0.024261088
-0.62266721
-0.021621016
-0.66241396
-0.015710963
-0.70695772
-0.010826642
-0.75580615
-0.0081842222
-0.80809602
-0.0069078529
-0.86362801
-0.0060898936
-0.92262122
-0.005251444
-0.98552542
-0.0043164662
-1.0527852
-0.0033391749
-1.1248058
-0.0023828425
-1.2019097
-0.0014918486
-1.2844502
-0.00069196008
-1.372821
-0.0019727402
-0.5179247
-0.02060352
-0.5504057
-0.02853396
-0.58256622
-0.025542934
-0.61874529
-0.017921653
-0.66020327
-0.011528062
-0.7062563
-0.0082990409
-0.75569133
-0.0071174923
-0.80788638
-0.0065713284
-0.86314658
-0.0059360881
-0.92193658
-0.0050923956
-0.98474949
-0.0041175726
-1.0520068
-0.0031225519
-1.124066
-0.0021863651
-1.2012151
-0.0013452878
-1.2837968
-0.00061472009
-1.3722063
0.0028918711
-0.48625507
-0.022109917
-0.5164183
-0.033955401
-0.54498426
-0.030499731
-0.57760942
-0.020582514
-0.61608443
-0.012109172
-0.65962216
-0.0080170598
-0.70653828
-0.0069495005
-0.75585932
-0.0068064452
-0.80765126
-0.006509456
-0.86257321
-0.0058525712
-0.9211764
-0.0049067142
-0.98396035
-0.0038648427
-1.0512645
-0.002862652
-1.1233898
-0.0019660796
-1.2005943
-0.0011912657
-1.2832203
-0.00053854196
-1.3716678
0.0089372071
-0.45686537
-0.023801089
-0.4845639
-0.040768454
-0.50960525
-0.036712807
-0.53877119
-0.023820192
-0.57437174
-0.012538178
-0.61565542
-0.0072250328
-0.66041419
-0.0062465271
-0.70724125
-0.006762873
-0.75590289
-0.0069432847
-0.80721743
-0.0065968495
-0.86182893
-0.0057370264
-0.92034609
-0.0046359044
-0.98318929
-0.0035413796
-1.0505858
-0.0025645964
-1.1227912
-0.0017328983
-1.2000527
-0.0010388399
-1.28272
-0.00046771497
-1.3712001
0.016678079
-0.43022686
-0.025433011
-0.45523345
-0.049093158
-0.47623919
-0.044339004
-0.50197905
-0.02775138
-0.53484
-0.012787334
-0.57412259
-0.0057789281
-0.61710153
-0.0048610062
-0.66179971
-0.0062847609
-0.70771936
-0.0072800421
-0.75556614
-0.0073790695
-0.80643521
-0.0066570581
-0.8609089
-0.0054808293
-0.91950117
-0.0042501684
-0.9824805
-0.0031556683
-1.0499947
-0.002244858
-1.1222793
-0.0015015266
-1.19959
-0.00089691413
-1.2822908
-0.00040533438
-1.3707947
0.026116604
-0.4060722
-0.026238285
-0.42942159
-0.058920331
-0.44540628
-0.05347932
-0.46709888
-0.032433584
-0.49729685
-0.012821136
-0.5348062
-0.0035136682
-0.57638785
-0.0025974637
-0.61936507
-0.0051970837
-0.66288739
-0.007460232
-0.70753917
-0.0082224364
-0.75472277
-0.0077461576
-0.80534612
-0.0064675621
-0.85992217
-0.0050297624
-0.91872157
-0.0037615241
-0.98187465
-0.0027345948
-1.049505
-0.0019256621
-1.1218551
-0.0012860884
-1.1992009
-0.00077220317
-1.2819239
-0.00035329528
-1.3704414
0.035584046
-0.38184945
-0.025062918
-0.40724757
-0.070188212
-0.4181537
-0.064413554
-0.43447205
-0.037959598
-0.46157286
-0.012595391
-0.4975226
-0.00024308991
-0.53807678
0.00076857443
-0.57975388
-0.0033179584
-0.6212442
-0.0073561458
-0.66299147
-0.0091600195
-0.70660159
-0.0090426054
-0.75342632
-0.0076674055
-0.80414627
-0.0059404163
-0.85901152
-0.0044115357
-0.91807156
-0.0032134748
-0.98139577
-0.0023116567
-1.049119
-0.0016281736
-1.1215131
-0.0010971249
-1.1988759
-0.00066848131
-1.2816087
-0.00031252612
-1.3701289
0.045396687
-0.35676856
-0.021899415
-0.38501295
-0.083051372
-0.39438441
-0.077769443
-0.40479781
-0.044780366
-0.42765128
-0.012053134
-0.46211512
0.0042147268
-0.50198041
0.0054946893
-0.54280289
-0.00043002548
-0.58264182
-0.0068454335
-0.62175491
-0.010234529
-0.66191696
-0.010659542
-0.70498465
-0.0091609494
-0.75193278
-0.0070437259
-0.80304296
-0.0051451087
-0.85827794
-0.0036983335
-0.9175867
-0.0026601696
-0.98104726
-0.0019182601
-1.0488289
-0.0013683318
-1.1212419
-0.00094044842
-1.198604
-0.00058678811
-1.2813345
-0.00028289673
-1.369846
0.055291791
-0.33192412
-0.018250526
-0.36041745
-0.095915177
-0.37214915
-0.09436541
-0.37778844
-0.053917048
-0.39566113
-0.01129256
-0.42841185
0.01003669
-0.46793708
0.011823626
-0.50830935
0.0037114337
-0.54694435
-0.0057915165
-0.58369573
-0.01146934
-0.6205201
-0.01274618
-0.65983033
-0.011100159
-0.70304544
-0.0084314699
-0.75054503
-0.0060079839
-0.80218009
-0.0042051566
-0.85777112
-0.0029737758
-0.9172731
-0.0021487771
-0.98081674
-0.001578023
-1.0486192
-0.0011553246
-1.121027
-0.00081751162
-1.1983732
-0.00052602753
-1.2810914
-0.00026289198
-1.3695831
0.064707931
-0.30692932
-0.01606135
-0.33411329
-0.10890015
-0.34743247
-0.11449704
-0.35201752
-0.066264329
-0.36544116
-0.010747384
-0.39620631
0.017405054
-0.43578022
0.019994685
-0.47610814
0.0093769831
-0.5139749
-0.004039405
-0.54869646
-0.012891153
-0.58227392
-0.015473037
-0.61779324
-0.013668568
-0.65726192
-0.010230689
-0.70124623
-0.0070628615
-0.74949016
-0.0047528883
-0.80163236
-0.0032473895
-0.85749751
-0.0023089587
-0.91711292
-0.0017133563
-0.98068141
-0.0013043945
-1.0484702
-0.00099157447
-1.1208529
-0.00072664165
-1.1981726
-0.00048359501
-1.2808707
-0.00024982227
-1.3693333
0.073346209
-0.28214155
-0.015274478
-0.30771619
-0.12284836
-0.32016508
-0.13561033
-0.32631918
-0.081603749
-0.3366781
-0.010785881
-0.36540267
0.026525965
-0.40532722
0.030238389
-0.44602392
0.016846643
-0.4835778
-0.0014014959
-0.51661281
-0.014539462
-0.54704815
-0.019051833
-0.57869512
-0.01709652
-0.61436529
-0.012599379
-0.65489323
-0.0083847954
-0.69992429
-0.0053631645
-0.74887988
-0.0034714883
-0.80140826
-0.0023773275
-0.85742914
-0.0017543556
-0.91707192
-0.0013719979
-0.9806138
-0.001100464
-1.0483613
-0.00087369922
-1.1207059
-0.00066418093
-1.197992
-0.0004559236
-1.2806645
-0.00024081689
-1.3690925
0.081073321
-0.25825049
-0.014642529
-0.2827735
-0.13683874
-0.29372581
-0.15490953
-0.30086588
-0.098063533
-0.30985939
-0.011289571
-0.33617441
0.037552534
-0.37642924
0.042788352
-0.41787718
0.026348811
-0.45552609
0.0023231396
-0.48730244
-0.0164436
-0.51470867
-0.023738171
-0.54236182
-0.021654444
-0.5741372
-0.015729283
-0.61123538
-0.010067242
-0.65321078
-0.0060572719
-0.69923018
-0.0036305642
-0.7487208
-0.0023226375
-0.80146295
-0.0016693588
-0.85751414
-0.0013347789
-0.91710914
-0.0011272288
-0.98058704
-0.00096038986
-1.0482746
-0.00079469457
-1.1205753
-0.00062497684
-1.197823
-0.00043915347
-1.2804662
-0.00023416382
-1.3688583
0.087939815
-0.23574786
-0.014259759
-0.25863326
-0.15047442
-0.26913782
-0.17198671
-0.27664863
-0.11366707
-0.28526235
-0.012363272
-0.30878569
0.050400861
-0.34902274
0.057729187
-0.39137007
0.037964485
-0.42949286
0.0072955596
-0.46049851
-0.018651133
-0.48509491
-0.029828785
-0.50861806
-0.027650438
-0.53636582
-0.019828946
-0.57003754
-0.012214495
-0.60908813
-0.0068571363
-0.65241092
-0.003700014
-0.69916073
-0.0021012259
-0.74894222
-0.0014142025
-0.8017181
-0.0011577537
-0.85769116
-0.0010506658
-0.9171857
-0.00096967499
-0.98057775
-0.00087227573
-1.048197
-0.00074653457
-1.1204538
-0.00060294773
-1.1976592
-0.00043010758
-1.2802703
-0.00022972124
-1.3686286
0.094023273
-0.21480794
-0.01406338
-0.23594424
-0.16357147
-0.24553621
-0.18808969
-0.25303484
-0.12819356
-0.26212214
-0.014347848
-0.28327777
0.064577731
-0.32296256
0.074853558
-0.36614711
0.051586372
-0.40499196
0.013462503
-0.4356598
-0.02131624
-0.4578334
-0.037676833
-0.47724686
-0.03543131
-0.50083718
-0.025127931
-0.53106684
-0.014935726
-0.56731631
-0.0077807603
-0.60816451
-0.0036439992
-0.65246693
-0.0016542023
-0.69960776
-0.00092855552
-0.74942786
-0.00079271116
-0.80208315
-0.00083897299
-0.85790285
-0.00088541266
-0.91726996
-0.00088217019
-0.98056786
-0.00082191414
-1.0481216
-0.00072131807
-1.1203354
-0.00059253739
-1.1974968
-0.00042674317
-1.2800732
-0.00022780273
-1.3684008
0.099409981
-0.19549787
-0.013936077
-0.21493524
-0.17594162
-0.22357409
-0.20293491
-0.23069098
-0.1414137
-0.2398147
-0.016897558
-0.25957243
0.079506596
-0.29820664
0.093928681
-0.34203768
0.067166587
-0.38172732
0.02074531
-0.41227476
-0.02484226
-0.43213378
-0.047761051
-0.44774918
-0.045375551
-0.46730262
-0.031874517
-0.4940906
-0.018339185
-0.52766338
-0.0088411307
-0.56625594
-0.0034139966
-0.60839451
-0.00090670965
-0.65321443
-0.00013383258
-0.70040248
-0.00017421849
-0.75004636
-0.00044793376
-0.80247419
-0.00068448318
-0.85810378
-0.00081324823
-0.91733888
-0.00084310197
-0.98054667
-0.0007954943
-1.0480474
-0.00071174672
-1.1202162
-0.00059028205
-1.1973332
-0.00042717946
-1.2798739
-0.00022787936
-1.3681729
0.10416683
-0.17780702
-0.013799824
-0.19563412
-0.18751974
-0.20335712
-0.21653113
-0.20997787
-0.15306
-0.21904469
-0.019001356
-0.2377109
0.094749243
-0.27481508
0.11476891
-0.31904686
0.084935679
-0.35980678
0.029705776
-0.39068779
-0.02915387
-0.40796316
-0.060520758
-0.41937407
-0.057813137
-0.4353116
-0.040307351
-0.45886978
-0.02252084
-0.48990894
-0.010036996
-0.52646751
-0.0029514411
-0.56671849
0.000231948
-0.60953317
0.0010669363
-0.65441519
0.00078222905
-0.70135893
0.00018253543
-0.75067682
-0.00033291386
-0.80282576
-0.00065382169
-0.85826321
-0.00080447327
-0.91737751
-0.0008306828
-0.98051148
-0.00079034786
-1.0479688
-0.00071490737
-1.1200916
-0.00059343092
-1.197167
-0.00042920648
-1.2796725
-0.00022874077
-1.3679442
0.10728146
-0.18936132
-0.013558088
-0.17804876
-0.19824644
-0.18490742
-0.22891908
-0.19096916
-0.16325925
-0.19977862
-0.020366289
-0.21767976
0.10995456
-0.25291621
0.13671204
-0.29675821
0.10491846
-0.33902965
0.041377428
-0.37147843
-0.032912034
-0.38692963
-0.075616049
-0.39286786
-0.072848491
-0.40433872
-0.050521009
-0.42509794
-0.027543034
-0.45384759
-0.011340768
-0.48860517
-0.0021826459
-0.52723631
0.001869478
-0.56835602
0.0027934726
-0.6112597
0.0021823901
-0.65581535
0.0011303207
-0.70230671
0.00021546087
-0.7512252
-0.00038491346
-0.80309466
-0.0007031795
-0.8583645
-0.00082810668
-0.91738009
-0.0008392035
-0.98046263
-0.00080386151
-1.0478799
-0.00072440832
-1.1199606
-0.00059746922
-1.1969987
-0.00043106999
-1.2794702
-0.00022936339
-1.3677148
0.11055073
-0.18351988
-0.01294611
-0.1899733
-0.20809861
-0.16819659
-0.24009716
-0.17372934
-0.17215907
-0.18206934
-0.020909717
-0.19923519
0.12480142
-0.23252662
0.15878618
-0.27499036
0.12577588
-0.31761563
0.055598838
-0.35325106
-0.034498202
-0.36989226
-0.091665303
-0.37088037
-0.090355904
-0.37536045
-0.062412607
-0.39244712
-0.033349787
-0.41929119
-0.012688742
-0.45249962
-0.0010146066
-0.48977321
0.0041224403
-0.52948927
0.0051740814
-0.57073663
0.0041491049
-0.61322642
0.0024923243
-0.65717736
0.0010203016
-0.70311155
2.0091178e-05
-0.7516302
-0.00053764784
-0.80326019
-0.00079075007
-0.85840186
-0.00086691917
-0.91735237
-0.00086469171
-0.9804018
-0.00082117211
-1.0477831
-0.00072986601
-1.1198282
-0.00059994321
-1.1968298
-0.00043206318
-1.2792675
-0.00022924348
-1.3674856
0.113856
-0.17748723
-0.011601387
-0.18486461
-0.21681986
-0.18125205
-0.25012206
-0.1581717
-0.17988064
-0.16600777
-0.020729892
-0.18224917
0.13912134
-0.21355511
0.18022736
-0.2539678
0.14658352
-0.29579799
0.069729957
-0.33174675
-0.033532111
-0.35421715
-0.10783258
-0.35372498
-0.1102057
-0.35103057
-0.076379526
-0.36139353
-0.039740408
-0.3860565
-0.013959158
-0.41802077
0.00066594857
-0.45418017
0.0071111686
-0.49276194
0.0083503052
-0.53266549
0.0068255143
-0.57341304
0.0043856264
-0.61511972
0.0021585849
-0.65831564
0.00059577927
-0.70368724
-0.00030389679
-0.75186395
-0.00073158634
-0.80331936
-0.00088666344
-0.85838211
-0.00091425453
-0.91730281
-0.00089266435
-0.9803303
-0.00083033701
-1.0476827
-0.00073395964
-1.1196942
-0.00060194309
-1.19666
-0.0004318235
-1.2790649
-0.00022825889
-1.3672573
0.11717241
-0.17142076
-0.0098102138
-0.17927841
-0.2245563
-0.17712816
-0.26039408
-0.17098003
-0.18657243
-0.15147991
-0.020078262
-0.1666594
0.15277846
-0.19590629
0.20055449
-0.23388223
0.16684508
-0.27422936
0.08364675
-0.30971478
-0.030562067
-0.33471679
-0.12404795
-0.33800178
-0.13240629
-0.3315244
-0.093784241
-0.33362586
-0.047006702
-0.35412724
-0.014940636
-0.38507502
0.0029887227
-0.42034355
0.010959089
-0.45802809
0.012464543
-0.49687618
0.010364734
-0.53620471
0.0069471647
-0.57597458
0.003724964
-0.6166861
0.0013887995
-0.65910866
5.3328139e-06
-0.70399647
-0.00066710934
-0.75192843
-0.00092059361
-0.80328543
-0.00097518118
-0.85832119
-0.00095756157
-0.91723791
-0.00090925894
-0.98025138
-0.00083631064
-1.0475803
-0.00073757551
-1.1195586
-0.00060184618
-1.1964899
-0.00042997715
-1.2788632
-0.00022646944
-1.3670308
0.12046523
-0.1655444
-0.0077914242
-0.17343955
-0.23118964
-0.17264507
-0.26954728
-0.16797496
-0.19672855
-0.16082391
-0.019023242
-0.15253493
0.16559229
-0.17947324
0.21953943
-0.21489123
0.18607372
-0.25311087
0.097314188
-0.2878968
-0.028286831
-0.31199002
-0.13917348
-0.31959127
-0.15691683
-0.31349123
-0.11532577
-0.30998287
-0.056671033
-0.32396153
-0.015503415
-0.35356446
0.006102556
-0.38818886
0.015781517
-0.42516598
0.017649023
-0.46321257
0.014923692
-0.50143513
0.010329718
-0.53958727
0.005833731
-0.57808334
0.0024584036
-0.6177557
0.00040079311
-0.65950412
-0.00061722029
-0.70404636
-0.0010001191
-0.75184891
-0.0010754607
-0.80318515
-0.0010408531
-0.8582379
-0.00098149372
-0.91716568
-0.00091563915
-0.98017205
-0.00083925922
-1.0474786
-0.00073676196
-1.1194236
-0.00059899163
-1.1963209
-0.00042664751
-1.278663
-0.00022402683
-1.3668068
0.12366926
-0.16000493
-0.0056464013
-0.16768943
-0.23651399
-0.1681152
-0.27738972
-0.16480263
-0.20584205
-0.15886146
-0.02553175
-0.1543154
0.17755754
-0.16450017
0.23717073
-0.19710453
0.2039521
-0.23276961
0.11022882
-0.2660255
-0.027784532
-0.2883991
-0.1542625
-0.296901
-0.18224624
-0.29426185
-0.13985269
-0.28896432
-0.070302479
-0.29635142
-0.016029292
-0.32343565
0.010196654
-0.35765856
0.021672088
-0.39407943
0.024016759
-0.43153371
0.020652301
-0.46894118
0.014696623
-0.50580204
0.0086194069
-0.54237294
0.0038794592
-0.5795044
0.00089800708
-0.61825292
-0.00060665415
-0.65951469
-0.001167554
-0.70387893
-0.001256929
-0.75166744
-0.0011770719
-0.80304893
-0.001072782
-0.85814661
-0.00098663081
-0.91709468
-0.00091468787
-0.98009663
-0.00083642746
-1.047379
-0.00073252911
-1.1192901
-0.00059435007
-1.1961532
-0.00042218571
-1.2784649
-0.00022106458
-1.3665857
0.12673862
-0.1549389
-0.0033366624
-0.16231466
-0.24044738
-0.16375603
-0.28384814
-0.16165677
-0.21382147
-0.15682322
-0.031402108
-0.1529911
0.18150533
-0.15826319
0.25330645
-0.1806359
0.22033209
-0.21348452
0.12211973
-0.24466052
-0.028149372
-0.26566066
-0.16961289
-0.27304871
-0.20542817
-0.27371907
-0.16458477
-0.26952977
-0.087317907
-0.27194889
-0.017600379
-0.29478033
0.015509089
-0.32874808
0.028716163
-0.36470263
0.031652183
-0.40171485
0.027683599
-0.43856501
0.020215369
-0.47445993
0.012234774
-0.50941741
0.0057461848
-0.54423967
0.0015197088
-0.5801261
-0.00066484953
-0.61819472
-0.0014785633
-0.65920368
-0.0015783993
-0.70355746
-0.0014151045
-0.75142941
-0.0012196279
-0.80290208
-0.0010728273
-0.85806041
-0.00097736227
-0.91703201
-0.00090640856
-0.98002664
-0.0008293164
-1.0472822
-0.00072625644
-1.1191582
-0.00058813986
-1.1959873
-0.00041670309
-1.2782692
-0.00021772821
-1.366368
0.12965385
-0.15049896
-0.0008600202
-0.15741554
-0.24301407
-0.15974798
-0.28892849
-0.15867568
-0.2206095
-0.15486874
-0.03661999
-0.15160534
0.18545601
-0.15694178
0.26508604
-0.17004278
0.23503864
-0.19534245
0.13274989
-0.22411469
-0.029026839
-0.24378305
-0.18464433
-0.25062923
-0.22589637
-0.25258052
-0.18741057
-0.25089326
-0.10594567
-0.25090201
-0.021120161
-0.26842911
0.02194198
-0.30121323
0.036983398
-0.33701532
0.040592923
-0.37364337
0.036114789
-0.41014604
0.027043573
-0.44539321
0.016850964
-0.47907612
0.0081754596
-0.51184668
0.0023007778
-0.54502074
-0.00082488072
-0.57996607
-0.0020019257
-0.61767136
-0.0021150838
-0.65866699
-0.0018200779
-0.70315248
-0.0014717421
-0.75117729
-0.0012082266
-0.80276668
-0.0010474299
-0.85799034
-0.00095664274
-0.91698178
-0.00089219999
-0.97996376
-0.00081932651
-1.0471891
-0.00071773615
-1.1190286
-0.00058038608
-1.1958236
-0.00041054525
-1.2780764
-0.00021417505
-1.3661538
0.13244943
-0.14688076
0.0018316261
-0.15319061
-0.2442168
-0.15621281
-0.29263937
-0.15603711
-0.22616018
-0.153125
-0.041070208
-0.15041852
0.18926189
-0.15541122
0.2767598
-0.16861554
0.24991379
-0.18491793
0.14207549
-0.20466804
-0.030412208
-0.22272932
-0.19914338
-0.229284
-0.24477666
-0.23174894
-0.20788894
-0.23210215
-0.12483034
-0.2320086
-0.027194817
-0.24482735
0.028810592
-0.27529772
0.046675197
-0.31090503
0.050781793
-0.34720419
0.045991132
-0.38351972
0.035314002
-0.41841647
0.022646477
-0.45118873
0.011311183
-0.48221184
0.0032915373
-0.51283744
-0.0011245642
-0.54472106
-0.0028220424
-0.57914596
-0.0029622537
-0.61682419
-0.0024761553
-0.65801092
-0.0018941167
-0.70273011
-0.0014384975
-0.75094702
-0.0011535771
-0.80266054
-0.0010031076
-0.85794388
-0.00092772691
-0.91694625
-0.00087433596
-0.97990875
-0.00080697372
-1.0470999
-0.0007075981
-1.1189014
-0.00057194192
-1.1956622
-0.00040404834
-1.2778865
-0.00021055441
-1.3659433
-0.14424941
0.13516268
0.0047673182
-0.14981645
-0.24406868
-0.15333873
-0.29501101
-0.15384117
-0.23047719
-0.1517201
-0.044651081
-0.14954413
0.19296067
-0.1541173
0.28800531
-0.16665672
0.26425801
-0.18295976
0.15829137
-0.20113381
-0.031831943
-0.20324831
-0.21273915
-0.20913355
-0.26229993
-0.21176072
-0.22646684
-0.21317103
-0.14273525
-0.21419724
-0.035581857
-0.22362156
0.035126961
-0.25114372
0.05771545
-0.28633797
0.062195303
-0.32231853
0.057300707
-0.35851376
0.045128294
-0.39333401
0.029806951
-0.42557694
0.015327178
-0.45520472
0.0045637033
-0.48348401
-0.0015921276
-0.51236988
-0.0040389817
-0.54350412
-0.0042379006
-0.57787031
-0.0034898266
-0.61581052
-0.0025701743
-0.65733486
-0.0018230635
-0.70234554
-0.0013344694
-0.75076613
-0.0010679625
-0.80259568
-0.00094674388
-0.85792486
-0.00089457434
-0.91692601
-0.00085464467
-0.97986108
-0.00079339211
-1.0470141
-0.00069690832
-1.1187764
-0.00056312562
-1.1955031
-0.00039744047
-1.2776997
-0.00020697191
-1.3657363
-0.14739198
0.0079098873
-0.14260731
0.13778757
-0.24262621
-0.15125892
-0.29615415
-0.15219558
-0.233625
-0.15069336
-0.04744072
-0.14893047
0.19674017
-0.15332362
0.29843357
-0.16454556
0.27781556
-0.18021427
0.17379523
-0.19846363
-0.019845773
-0.21311998
-0.22526836
-0.1907191
-0.27836361
-0.19306988
-0.24323945
-0.19498812
-0.15888776
-0.19701852
-0.045284593
-0.2044945
0.040287896
-0.22878249
0.069800702
-0.26322897
0.074773394
-0.29891606
0.069967947
-0.33498578
0.05656028
-0.36994575
0.038517782
-0.40204484
0.020432148
-0.43068191
0.0062340533
-0.45687507
-0.0022495803
-0.48282655
-0.0057718476
-0.51063701
-0.0060862393
-0.54165578
-0.0049922537
-0.57636788
-0.0036040465
-0.61477665
-0.0024371801
-0.65672074
-0.0016400509
-0.70203996
-0.0011817133
-0.75065238
-0.00096519826
-0.80257723
-0.00088644613
-0.85793299
-0.00086047392
-0.91692018
-0.00083462038
-0.97981985
-0.00077963095
-1.0469313
-0.00068604372
-1.1186535
-0.00055427928
-1.1953463
-0.00039096276
-1.2775157
-0.00020352122
-1.3655328
-0.14993417
-0.24008402
-0.14600457
0.011307145
-0.14230425
0.14025512
-0.29624645
-0.15116663
-0.23572171
-0.15009887
-0.049459988
-0.14867409
0.20057435
-0.15276464
0.3078
-0.16269006
0.29012411
-0.17685412
0.18833348
-0.19475252
-0.0075878772
-0.21072152
-0.22585004
-0.2125383
-0.29321947
-0.17586324
-0.25819661
-0.17811271
-0.1731331
-0.18074279
-0.055110043
-0.18719307
0.044158979
-0.20836558
0.082557881
-0.24153967
0.088454611
-0.27691019
0.083846361
-0.31279448
0.069620795
-0.34804629
0.048955206
-0.38038317
0.026870852
-0.40848354
0.0084507085
-0.43289857
-0.0031308475
-0.4559938
-0.0081644321
-0.48043397
-0.0086841854
-0.50803906
-0.0071428491
-0.53950518
-0.0051218184
-0.57485011
-0.0033726137
-0.61384121
-0.0021323991
-0.6562284
-0.0013826139
-0.70183906
-0.0010042081
-0.75061337
-0.00085866071
-0.80260501
-0.00082673342
-0.85796673
-0.00082755572
-0.91692725
-0.00081528747
-0.9797842
-0.00076631301
-1.0468511
-0.00067547978
-1.1185323
-0.00054579727
-1.1951914
-0.00038477977
-1.2773344
-0.00020025981
-1.3653325
-0.15074715
-0.29543347
-0.14972457
-0.23636402
-0.14561912
0.014622015
-0.14284585
0.14265771
-0.23694015
-0.14994819
-0.050577691
-0.14898117
0.20437484
-0.15247458
0.31609183
-0.16105647
0.30067872
-0.17324466
0.2013587
-0.18987933
0.0041227478
-0.20646315
-0.22485719
-0.21171437
-0.30424573
-0.20151203
-0.27147999
-0.16257986
-0.18561853
-0.16562728
-0.064335593
-0.17151724
0.046873864
-0.18990796
0.095504213
-0.22131192
0.10314263
-0.25622769
0.09876184
-0.29182567
0.084253341
-0.32742702
0.061265809
-0.36035689
0.034917626
-0.38842995
0.011414816
-0.41144765
-0.004219439
-0.43180998
-0.011354558
-0.45280368
-0.012239714
-0.47687844
-0.010132858
-0.50504906
-0.0072732323
-0.53735377
-0.0047377242
-0.573485
-0.0028850884
-0.61308853
-0.0017165339
-0.65589448
-0.0010888923
-0.70175437
-0.00082230284
-0.75064972
-0.00075551477
-0.80267623
-0.00077032593
-0.85802396
-0.00079768236
-0.91694485
-0.00079771738
-0.97975279
-0.00075407123
-1.0467725
-0.00066575401
-1.1184124
-0.00053786204
-1.1950384
-0.0003789908
-1.2771557
-0.00019721201
-1.3651353
-0.15063605
-0.23705125
-0.15174455
-0.29341349
-0.15012196
-0.23186118
-0.14610768
0.017883846
-0.14427731
0.14474046
-0.050620233
-0.14990564
0.20818211
-0.15278844
0.32332951
-0.15971226
0.30933219
-0.16970993
0.21252691
-0.18441288
0.015037013
-0.2007936
-0.2226531
-0.20866723
-0.31406065
-0.20189946
-0.28755117
-0.18544085
-0.19659805
-0.15160034
-0.072643587
-0.15731929
0.048621889
-0.17326526
0.10821856
-0.2026223
0.11862683
-0.23679612
0.11453699
-0.27200284
0.10033343
-0.30790576
0.075568989
-0.3417302
0.044870199
-0.37030947
0.015405185
-0.39242031
-0.0054685689
-0.41019852
-0.015520194
-0.42764434
-0.017006723
-0.44803667
-0.014188339
-0.47282296
-0.010232189
-0.5020901
-0.0066567403
-0.53543475
-0.0039820981
-0.57238799
-0.0022360685
-0.61256899
-0.0012484138
-0.65573495
-0.0007902093
-0.70178647
-0.0006488471
-0.75075639
-0.00065979385
-0.80278676
-0.00072101014
-0.85810063
-0.00077236809
-0.9169702
-0.00078288953
-0.97972397
-0.00074356637
-1.0466947
-0.00065708642
-1.1182931
-0.00053062403
-1.1948867
-0.00037365685
-1.2769792
-0.0001943929
-1.3649409
-0.15183794
-0.049418344
-0.1529412
-0.2358546
-0.15321548
-0.29031997
-0.15118183
-0.22678703
-0.14723968
0.020846219
-0.14645467
0.14630212
0.21216739
-0.15389093
0.32934449
-0.15880342
0.31615633
-0.1665364
0.22148543
-0.17866845
0.02491612
-0.19429199
-0.21908902
-0.20435768
-0.32251426
-0.20021362
-0.30209361
-0.18735702
-0.21695097
-0.16508793
-0.079939003
-0.14430493
0.049675858
-0.15837325
0.12037823
-0.18542494
0.13459833
-0.2185938
0.1309741
-0.25323322
0.11765316
-0.28932256
0.091893939
-0.32423071
0.057009745
-0.35386975
0.020748598
-0.37565288
-0.006835625
-0.39105326
-0.020869383
-0.40484933
-0.023287323
-0.42136374
-0.019577673
-0.44264733
-0.014195773
-0.46885937
-0.0092674648
-0.49947937
-0.0055151464
-0.5339017
-0.0029988648
-0.57162519
-0.0015144129
-0.61230299
-0.00077590345
-0.65574926
-0.00050827795
-0.70192704
-0.00049080943
-0.75092538
-0.00057729452
-0.80293048
-0.00068128285
-0.85819172
-0.0007526923
-0.9170004
-0.00077145982
-0.97969608
-0.00073499883
-1.0466168
-0.00064958041
-1.1181742
-0.00052414082
-1.1947362
-0.00036878407
-1.2768048
-0.00019178472
-1.3647491
-0.15584511
0.21617456
-0.15479349
-0.047566048
-0.15586601
-0.23320408
-0.15537428
-0.28612752
-0.15281143
-0.22121528
-0.14887667
0.023268221
-0.149171
0.14727953
0.33393771
-0.15848415
0.32117878
-0.16382588
0.22807835
-0.17312932
0.033297955
-0.18705029
-0.21476569
-0.19861532
-0.32953978
-0.19733216
-0.31493282
-0.18737441
-0.2356727
-0.1686353
-0.10238344
-0.14264349
0.050413766
-0.14504283
0.13167305
-0.16966807
0.1507687
-0.20159531
0.14783453
-0.23545423
0.13588501
-0.27146507
0.10996283
-0.30739145
0.071335546
-0.33855651
0.027677997
-0.36079915
-0.0081624319
-0.37432607
-0.027589609
-0.38433303
-0.031439588
-0.39669706
-0.026614935
-0.41432648
-0.019383116
-0.43745999
-0.012716704
-0.46541013
-0.0075795383
-0.49741498
-0.0040641979
-0.53283637
-0.0019186829
-0.57122092
-0.00079180091
-0.61228709
-0.0003332292
-0.65592431
-0.00025513271
-0.70216271
-0.0003554257
-0.75114724
-0.0005122712
-0.80309949
-0.00065216872
-0.85829224
-0.00073923708
-0.91703262
-0.00076360348
-0.97966747
-0.00072845704
-1.0465379
-0.00064333222
-1.118055
-0.00051840988
-1.1945866
-0.00036434755
-1.2766323
-0.00018936819
-1.3645598
-0.15886447
0.33695707
-0.15793672
0.21931778
-0.15883569
-0.044596364
-0.15960158
-0.22897678
-0.15821093
-0.28072803
-0.15504068
-0.21505127
-0.15108894
0.025186155
-0.15233513
0.14763926
0.32437477
-0.16168014
0.23222388
-0.1679714
0.039851556
-0.17968292
-0.20999946
-0.19181651
-0.33498412
-0.19317098
-0.32606621
-0.18619878
-0.25279427
-0.17025283
-0.12371246
-0.14730628
0.034238033
-0.12646776
0.1424973
-0.15586708
0.16678479
-0.18568416
0.16482817
-0.21858895
0.15457563
-0.25414486
0.1290633
-0.29056554
0.087156332
-0.32321224
0.035709249
-0.34658776
-0.0096678548
-0.35929373
-0.035941729
-0.36597395
-0.041865236
-0.37390739
-0.035663799
-0.3876482
-0.026029755
-0.40767984
-0.017152006
-0.43302469
-0.010268914
-0.46272076
-0.0054864339
-0.49599274
-0.0024911261
-0.53226393
-0.00084620058
-0.57116652
-0.00011997447
-0.61250035
5.9419675e-05
-0.65623886
-3.9827985e-05
-0.70247831
-0.00024939164
-0.75141012
-0.00046608145
-0.80328558
-0.0006340393
-0.85839744
-0.00073205872
-0.91706417
-0.00075926867
-0.97963666
-0.00072396946
-1.0464572
-0.00063826567
-1.1179351
-0.00051336793
-1.1944376
-0.00036029602
-1.2764614
-0.00018710904
-1.3643727
-0.16019538
0.32570568
-0.15909165
0.338112
-0.16144261
0.2219247
-0.16363933
-0.040558611
-0.16403675
-0.22315096
-0.16179355
-0.27397516
-0.15793149
-0.20820872
-0.15384545
0.026696482
-0.15594018
0.14728779
0.23396543
-0.16342169
0.044342561
-0.17246241
-0.2050461
-0.18463629
-0.33859992
-0.18820071
-0.33524264
-0.18399455
-0.26815883
-0.17083421
-0.14353618
-0.15042911
0.017000664
-0.13006891
0.14046965
-0.12444011
0.18243817
-0.17152046
0.18162837
-0.20248436
0.17313601
-0.23714933
0.14820667
-0.27328823
0.10276942
-0.30617863
0.043624146
-0.33112714
-0.012802069
-0.34345355
-0.046878385
-0.34835707
-0.055093733
-0.35274546
-0.047151818
-0.36241937
-0.034383132
-0.37929482
-0.022709775
-0.40212207
-0.01366515
-0.42962845
-0.0073118267
-0.46089537
-0.0032520228
-0.49523185
-0.00094423925
-0.53216589
0.00013954481
-0.57142604
0.00047128369
-0.61291221
0.00039090767
-0.6566696
0.00012859348
-0.7028563
-0.00017491609
-0.75170129
-0.00043852121
-0.8034811
-0.00062656627
-0.85850293
-0.00073080954
-0.91709262
-0.00075822602
-0.97960241
-0.00072131823
-1.0463742