/*--------------------------------*- C++ -*----------------------------------*\
| =========                 |                                                 |
| \\      /  F ield         | OpenFOAM: The Open Source CFD Toolbox           |
|  \\    /   O peration     | Version:  5.0                                   |
|   \\  /    A nd           | Web:      www.OpenFOAM.org                      |
|    \\/     M anipulation  |                                                 |
\*---------------------------------------------------------------------------*/
FoamFile
{
    version     2.0;
    format      ascii;
    class       surfaceScalarField;
    location    "320";
    object      phi_0;
}
// * * * * * * * * * * * * * * * * * * * * * * * * * * * * * * * * * * * * * //

dimensions      [0 3 -1 0 0 0 0];

internalField   nonuniform List<scalar> 
18180
(
-0.0018929124
-1.3895544
-0.0036839046
-1.2995826
-0.0018441011
-1.3877103
-0.0053639334
-1.2155655
-0.0035896589
-1.2978371
-0.0017625812
-1.3859478
-0.0069546461
-1.1370819
-0.0052406834
-1.2139145
-0.0034336738
-1.296166
-0.0016440283
-1.3843037
-0.0084374551
-1.0637438
-0.0068127113
-1.1355099
-0.0050223134
-1.2123259
-0.0032051652
-1.2946048
-0.0015098741
-1.3827939
-0.0097939241
-0.99520827
-0.0083069322
-1.0622496
-0.0065472178
-1.133985
-0.004691915
-1.2108391
-0.0029410749
-1.2931736
-0.0013725976
-1.3814213
-0.010986152
-0.93115428
-0.0097190846
-0.99379612
-0.0080231149
-1.0607737
-0.0061262893
-1.1325506
-0.0043013463
-1.2094788
-0.0026680208
-1.2918782
-0.0012509567
-1.3801703
-0.01197437
-0.87130665
-0.01103602
-0.92983735
-0.0094671111
-0.99235212
-0.007530257
-1.0593697
-0.0056069464
-1.131245
-0.0038922713
-1.2082546
-0.0024241624
-1.290705
-0.0011512122
-1.3790191
-0.0127232
-0.8153991
-0.012241549
-0.87010113
-0.010906428
-0.92839803
-0.008937463
-0.99094492
-0.0068747593
-1.0581019
-0.0050526908
-1.1300846
-0.0035265224
-1.2071522
-0.0022246739
-1.2896315
-0.0010725641
-1.3779465
-0.013109404
-0.76323735
-0.013287447
-0.8143532
-0.01238872
-0.86861883
-0.010404057
-0.92693144
-0.0081316245
-0.98968805
-0.00615482
-1.0569998
-0.0045577286
-1.1290534
-0.0032309806
-1.2061459
-0.0020708756
-1.2886332
-0.0010080687
-1.3769385
-0.013016766
-0.71458433
-0.014212263
-0.76231254
-0.014005285
-0.81273664
-0.011999083
-0.86702381
-0.0094175065
-0.92564556
-0.0072062072
-0.98863666
-0.0055151434
-1.0560423
-0.00416651
-1.1281178
-0.0030098222
-1.205207
-0.0019497335
-1.2876916
-0.00095022732
-1.3759882
-0.012333121
-0.66932259
-0.015181948
-0.71361465
-0.015909125
-0.7604087
-0.013837669
-0.81089805
-0.010776312
-0.865665
-0.0082137836
-0.92463798
-0.0063868643
-0.98776494
-0.0050273539
-1.0551815
-0.0038873812
-1.1272403
-0.0028413009
-1.2043154
-0.0018440703
-1.2867977
-0.00089314604
-1.3750951
-0.010922483
-0.62725024
-0.016280675
-0.66822387
-0.018111174
-0.7114126
-0.01598446
-0.75826191
-0.012265217
-0.80940914
-0.0091830338
-0.86469575
-0.0071524459
-0.9238724
-0.0057939163
-0.98699838
-0.0047032236
-1.0543657
-0.0036849908
-1.1263966
-0.002695727
-1.2034637
-0.0017386493
-1.2859522
-0.0008325885
-1.3742625
-0.0086939354
-0.58812544
-0.017459766
-0.62607115
-0.020724155
-0.66561089
-0.018516933
-0.70888012
-0.013926323
-0.7566008
-0.010097152
-0.80849503
-0.0077822419
-0.86406596
-0.0064344562
-0.92323186
-0.0054405698
-0.98626103
-0.004484836
-1.0535658
-0.0035126256
-1.1255797
-0.002547649
-1.2026547
-0.0016229729
-1.2851618
-0.00076592188
-1.3734966
-0.0055782387
-0.55174763
-0.018660383
-0.58692483
-0.024004013
-0.62279129
-0.0216369
-0.66249092
-0.015841078
-0.70696537
-0.010926397
-0.75577156
-0.0082209399
-0.80805633
-0.0069027227
-0.86359769
-0.0060705961
-0.92260183
-0.0052330339
-0.98551284
-0.0043034882
-1.0527749
-0.0033322426
-1.1247951
-0.002380549
-1.2018972
-0.0014921857
-1.2844356
-0.00069295737
-1.3728036
-0.0015800604
-0.51782828
-0.019876018
-0.550532
-0.028186054
-0.58274279
-0.025571974
-0.61885622
-0.018113327
-0.66021867
-0.011680448
-0.70621132
-0.0083579761
-0.75563452
-0.0071134958
-0.80784555
-0.0065455349
-0.86312275
-0.005910288
-0.92192458
-0.0050740337
-0.98474229
-0.0041077452
-1.0519994
-0.0031194111
-1.1240562
-0.0021870491
-1.2012023
-0.0013473737
-1.2837811
-0.00061634155
-1.3721873
0.0034225275
-0.48615246
-0.02110895
-0.51659534
-0.033492957
-0.54522509
-0.030552268
-0.57776249
-0.020860513
-0.61610903
-0.012336532
-0.65956259
-0.0081106932
-0.7064586
-0.0069458273
-0.75580219
-0.0067724467
-0.80761864
-0.006472984
-0.86256005
-0.0058256756
-0.92117294
-0.0048926266
-0.98395741
-0.0038605346
-1.0512583
-0.0028638811
-1.1233794
-0.0019695059
-1.2005802
-0.0011946214
-1.2832029
-0.00054045507
-1.3716468
0.009633137
-0.45674034
-0.022466056
-0.48479535
-0.040168425
-0.50991988
-0.036803389
-0.53897397
-0.024215239
-0.57440777
-0.012869529
-0.61557603
-0.0073689084
-0.66030437
-0.0062465248
-0.7071579
-0.0067105982
-0.75586404
-0.0068877809
-0.80720385
-0.0065551989
-0.86183053
-0.0057158122
-0.92034975
-0.0046298142
-0.98318813
-0.0035435557
-1.0505786
-0.0025698244
-1.1227791
-0.0017382767
-1.2000365
-0.001042793
-1.2827005
-0.0004696063
-1.3711772
0.017555967
-0.4300421
-0.023699555
-0.45550684
-0.048335689
-0.47662809
-0.044487567
-0.5022357
-0.02829982
-0.53488939
-0.013259834
-0.57401746
-0.0059928422
-0.6169521
-0.0048683846
-0.66168251
-0.0062025514
-0.70766595
-0.0071971837
-0.75555464
-0.0073130995
-0.80644595
-0.0066235041
-0.86092284
-0.0054719999
-0.91950757
-0.0042537259
-0.98247796
-0.0031636164
-1.0499849
-0.0022528985
-1.1222644
-0.001507789
-1.1995715
-0.00090079426
-1.2822693
-0.00040695182
-1.3707703
0.027199731
-0.40581865
-0.024029534
-0.42971212
-0.057978325
-0.4458642
-0.053703531
-0.46741213
-0.033176614
-0.4973589
-0.013480815
-0.53466841
-0.0038223077
-0.576188
-0.0026170873
-0.6192034
-0.0050758252
-0.66280924
-0.0073336173
-0.70752952
-0.0081229802
-0.75474476
-0.0076945531
-0.8053749
-0.0064546316
-0.85994021
-0.0050356753
-0.91872562
-0.0037736632
-0.98186791
-0.0027464644
-1.0494913
-0.0019349338
-1.1218373
-0.0012921858
-1.1991801
-0.00077547867
-1.2819008
-0.00035444133
-1.3704158
0.036847666
-0.38158492
-0.02231898
-0.40752921
-0.068998813
-0.41869163
-0.064711397
-0.43485634
-0.038942135
-0.46164661
-0.01349398
-0.49734574
-0.00067667046
-0.53781405
0.00073007082
-0.57953515
-0.003146421
-0.6211328
-0.0071621809
-0.66298068
-0.0090130807
-0.70663942
-0.0089651742
-0.75347413
-0.0076493345
-0.8041802
-0.0059506175
-0.85902527
-0.0044300477
-0.91806923
-0.0032311317
-0.98138325
-0.0023251064
-1.0491011
-0.00163712
-1.1214924
-0.0011022348
-1.1988534
-0.0006708096
-1.2815844
-0.00031306622
-1.3701027
0.046829012
-0.35649961
-0.018623032
-0.38528087
-0.081483179
-0.39504484
-0.078107787
-0.40529524
-0.046048826
-0.42774965
-0.013248671
-0.46189192
0.0036206325
-0.50164304
0.0054289772
-0.54251296
-0.00019455968
-0.58248702
-0.0065557869
-0.6217392
-0.010016899
-0.66197686
-0.010544285
-0.70506031
-0.009134798
-0.75198867
-0.0070607679
-0.80307004
-0.0051737273
-0.85828159
-0.0037247115
-0.91757565
-0.002679689
-0.98102866
-0.0019309934
-1.0488072
-0.0013756946
-1.1212189
-0.00094405884
-1.1985801
-0.00058801386
-1.2813095
-0.00028281193
-1.3698199
0.056864526
-0.33166928
-0.014395088
-0.36072755
-0.093813024
-0.37295102
-0.094698083
-0.37845455
-0.055519003
-0.39582506
-0.012861172
-0.42813714
0.0092427865
-0.46751407
0.011720094
-0.50793416
0.004027111
-0.54673463
-0.0053714966
-0.58367131
-0.011147712
-0.62060838
-0.0125763
-0.65994484
-0.011062267
-0.70313284
-0.0084586614
-0.75059078
-0.00605199
-0.80219178
-0.0042448159
-0.85776148
-0.0030023846
-0.91725296
-0.0021667776
-0.98079288
-0.0015881839
-1.0485948
-0.0011602916
-1.1210027
-0.00081939815
-1.1983487
-0.00052616398
-1.2810661
-0.00026232456
-1.3695576
0.066466863
-0.30675755
-0.011558407
-0.33450597
-0.10621424
-0.34832634
-0.11478227
-0.35286684
-0.068262536
-0.36571101
-0.012806285
-0.39587995
0.016365957
-0.43526032
0.019839374
-0.47563335
0.0097899005
-0.51369695
-0.0034465695
-0.54865955
-0.01242069
-0.58239833
-0.015224377
-0.61796031
-0.013614528
-0.65739258
-0.010273868
-0.70131763
-0.00713012
-0.74951265
-0.0048125462
-0.80162405
-0.0032896117
-0.85747426
-0.0023347114
-0.91708502
-0.0017272104
-0.98065385
-0.001310817
-1.0484442
-0.00099384953
-1.1208282
-0.0007268015
-1.1981481
-0.0004827935
-1.2808457
-0.00024902094
-1.3693086
0.075288199
-0.28201434
-0.010157068
-0.30815889
-0.11963951
-0.32108069
-0.13587048
-0.32723812
-0.084086614
-0.33704276
-0.013492527
-0.36502477
0.025182803
-0.40469679
0.030016024
-0.44543697
0.017371653
-0.4832151
-0.00058588491
-0.51655763
-0.013861406
-0.54721884
-0.01869092
-0.57893178
-0.017021016
-0.61455382
-0.012667301
-0.65499915
-0.0084868896
-0.69996086
-0.0054524246
-0.74887277
-0.0035338875
-0.80137978
-0.002414508
-0.85739446
-0.0017734212
-0.91703881
-0.001380179
-0.98058449
-0.0011027754
-1.0483353
-0.0008734515
-1.1206816
-0.00066280096
-1.1979681
-0.00045442759
-1.2806403
-0.00023998913
-1.3690686
0.083183868
-0.25816798
-0.0089336841
-0.28323773
-0.13324951
-0.29454889
-0.15523017
-0.301721
-0.10104709
-0.31027765
-0.014791445
-0.33574384
0.035838507
-0.37568048
0.042489891
-0.41717066
0.027004677
-0.45506999
0.0034252591
-0.48722625
-0.015481484
-0.51493755
-0.023222017
-0.54268774
-0.02155256
-0.57440024
-0.015834968
-0.61138615
-0.010220544
-0.65326549
-0.0061894156
-0.69922387
-0.0037223317
-0.74868432
-0.0023764673
-0.80141782
-0.0016958687
-0.85747201
-0.0013451306
-0.91707386
-0.0011293358
-0.98055793
-0.00095896231
-1.0482498
-0.00079234385
-1.120552
-0.00062242467
-1.1978001
-0.0004372231
-1.280443
-0.00023336122
-1.3688352
0.090203373
-0.23570167
-0.0079915996
-0.25911007
-0.14655902
-0.26992822
-0.17234408
-0.27743498
-0.11706529
-0.2857028
-0.016734772
-0.30833432
0.04826076
-0.3481661
0.057359219
-0.39054981
0.038781664
-0.42894765
0.0087561855
-0.46040092
-0.01730931
-0.48539842
-0.02910347
-0.5090561
-0.027518659
-0.53672164
-0.019991109
-0.5702441
-0.01244141
-0.60916528
-0.0070502831
-0.65240463
-0.0038335752
-0.69911263
-0.0021789404
-0.74888185
-0.0014513242
-0.80166236
-0.0011708562
-0.85764629
-0.0010520157
-0.91715118
-0.00096623098
-0.98055066
-0.00086798624
-1.0481741
-0.00074258506
-1.1204319
-0.00059967637
-1.1976377
-0.00042794019
-1.2802485
-0.00022887458
-1.3686064
0.096430366
-0.21479245
-0.0072747514
-0.23641852
-0.15938579
-0.2462833
-0.18849743
-0.25377487
-0.13193108
-0.26256919
-0.019596276
-0.2828413
0.0619453
-0.32201886
0.074420085
-0.36522696
0.052601482
-0.40436962
0.015365499
-0.43555696
-0.01946698
-0.45824325
-0.036676443
-0.47782545
-0.035268447
-0.50130631
-0.025371741
-0.53134101
-0.015265322
-0.56742019
-0.0080586037
-0.60815696
-0.0038356144
-0.65240259
-0.0017654518
-0.69952611
-0.00098067399
-0.7493525
-0.00080940443
-0.80202381
-0.000838609
-0.85785969
-0.00087876241
-0.91723865
-0.00087451054
-0.98054414
-0.00081583551
-1.0481009
-0.00071633119
-1.1203152
-0.00058891851
-1.1974767
-0.00042448866
-1.2800528
-0.00022688165
-1.3683795
0.10195198
-0.19550456
-0.0066760124
-0.21539119
-0.17153243
-0.22427188
-0.20342106
-0.23135967
-0.1454815
-0.24022445
-0.023000635
-0.25916483
0.076299218
-0.29719522
0.093419947
-0.34101872
0.068387037
-0.38101252
0.023160442
-0.41216457
-0.022335305
-0.43268864
-0.046414848
-0.44850484
-0.045186077
-0.46790782
-0.032233759
-0.4944443
-0.018808611
-0.52779772
-0.009233344
-0.56624545
-0.0036844318
-0.60830815
-0.001063763
-0.65310427
-0.00020679351
-0.7003
-0.00019568746
-0.74996622
-0.00044449722
-0.80241792
-0.00067246226
-0.85806599
-0.00080047872
-0.91731268
-0.00083309443
-0.98052688
-0.00078836449
-1.0480289
-0.00070618535
-1.120198
-0.00058658451
-1.1973146
-0.00042502363
-1.2798547
-0.00022696566
-1.3681525
0.10683627
-0.17782988
-0.0061233988
-0.19605718
-0.18292042
-0.20400319
-0.21711636
-0.21057657
-0.1574468
-0.21939437
-0.025905404
-0.23731968
0.090904339
-0.27376995
0.11415168
-0.31792695
0.086322211
-0.3589539
0.032641035
-0.39049311
-0.025873436
-0.40862644
-0.058779563
-0.42032392
-0.057619505
-0.43607141
-0.040827819
-0.45931376
-0.02317702
-0.49007589
-0.010579905
-0.52645116
-0.0033253372
-0.56660454
1.3939507e-05
-0.60938585
0.00096541949
-0.65427649
0.00075436551
-0.70125005
0.00019091246
-0.75060163
-0.00031235301
-0.80277803
-0.00063308933
-0.85823338
-0.00078807435
-0.9173577
-0.0008199141
-0.98049533
-0.00078223274
-1.0479528
-0.00070920947
-1.1200753
-0.00059002915
-1.1971496
-0.00042733831
-1.2796543
-0.00022795794
-1.3679246
0.11005929
-0.18937219
-0.0055261033
-0.17842717
-0.19347976
-0.18549784
-0.22961518
-0.19150438
-0.16795367
-0.2000697
-0.02800424
-0.21729553
0.10545607
-0.25187141
0.13596731
-0.29558558
0.10645808
-0.33806282
0.044789154
-0.37110202
-0.02880378
-0.38756277
-0.073464826
-0.39394117
-0.072698655
-0.40524477
-0.051264129
-0.4256351
-0.028444144
-0.45404663
-0.012077289
-0.4885785
-0.0026897948
-0.5270867
0.0015707423
-0.56816134
0.0026540484
-0.61107448
0.0021460567
-0.65566818
0.0011462218
-0.70220536
0.00024902733
-0.75116301
-0.00035184848
-0.80305927
-0.00067730047
-0.85834415
-0.00081086018
-0.91736675
-0.00082761989
-0.98044994
-0.00079561738
-1.0478664
-0.00071958034
-1.1199458
-0.00059468824
-1.1969822
-0.00042960379
-1.2794527
-0.00022879565
-1.3676958
0.11345213
-0.18355805
-0.004618686
-0.1902796
-0.20317536
-0.16873157
-0.24090838
-0.17420464
-0.17714822
-0.18230982
-0.029221055
-0.19885289
0.11966942
-0.23150889
0.15792146
-0.27382556
0.12752348
-0.31665098
0.059483152
-0.35275682
-0.029495451
-0.37041035
-0.089045497
-0.3719821
-0.090261727
-0.3763781
-0.063445242
-0.39306366
-0.034563112
-0.41951614
-0.013667903
-0.45245602
-0.0016880303
-0.48958027
0.0037219549
-0.52923792
0.0049856708
-0.57049297
0.0041013229
-0.61302974
0.0025189121
-0.65704087
0.0010729254
-0.70302926
7.180549e-05
-0.75158666
-0.00049737776
-0.8032392
-0.00076350535
-0.85839151
-0.00084978195
-0.91734459
-0.00085318837
-0.98039237
-0.00081439441
-1.0477716
-0.00072609585
-1.1198144
-0.00059780228
-1.196814
-0.00043104795
-1.2792504
-0.00022891991
-1.3674668
0.11688585
-0.17754871
-0.0030552246
-0.18512151
-0.21168053
-0.18177443
-0.2510459
-0.15859405
-0.1851456
-0.16620727
-0.029654385
-0.18187649
0.13339002
-0.21257349
0.17926213
-0.25284956
0.14857122
-0.2948733
0.07413116
-0.33129899
-0.027587495
-0.35466477
-0.10459266
-0.35486318
-0.11006733
-0.3521765
-0.077729788
-0.36209356
-0.041334882
-0.38629189
-0.0152331
-0.41795094
-0.00020876521
-0.45393528
0.0065852744
-0.49244359
0.0080991117
-0.53235136
0.0067625426
-0.57315419
0.0044266344
-0.61493747
0.0022381393
-0.65820608
0.0006746821
-0.70363213
-0.00024212967
-0.75184191
-0.00068948864
-0.80331321
-0.0008604896
-0.8583808
-0.00089802192
-0.91729976
-0.00088302495
-0.98032374
-0.00082526499
-1.0476724
-0.00073103386
-1.1196811
-0.00060049972
-1.1966446
-0.00043129265
-1.2790481
-0.00022817294
-1.3672387
0.12027097
-0.17144961
-0.0011058044
-0.17949813
-0.21917156
-0.17763049
-0.26132686
-0.17149347
-0.19209875
-0.1516409
-0.029555849
-0.1663058
0.14648057
-0.19496703
0.19952528
-0.23283664
0.16906707
-0.27334541
0.088564609
-0.30930675
-0.023727401
-0.33515909
-0.12000011
-0.33925733
-0.13206782
-0.33286269
-0.095408874
-0.33449741
-0.049058401
-0.35437004
-0.016558624
-0.38496637
0.0018785323
-0.42003824
0.010283279
-0.45763329
0.012135047
-0.49647952
0.010281368
-0.53587018
0.0070067013
-0.57573425
0.0038412937
-0.61654062
0.0015062481
-0.65903765
9.8369121e-05
-0.70397263
-0.00060327401
-0.75192812
-0.00088094777
-0.80329275
-0.00095182063
-0.858327
-0.00094425135
-0.91723853
-0.00090239563
-0.98024661
-0.00083263667
-1.0475708
-0.00073579903
-1.1195458
-0.00060121856
-1.1964746
-0.00042992107
-1.2788463
-0.00022659562
-1.3670121
0.12357618
-0.16553902
0.0011116293
-0.17366704
-0.22555806
-0.17311163
-0.27049517
-0.16846218
-0.20235487
-0.16123735
-0.028992201
-0.15220455
0.15876598
-0.17859122
0.21849448
-0.21393623
0.18850812
-0.25227769
0.10274504
-0.28752585
-0.020503816
-0.31253033
-0.13423929
-0.3209199
-0.15627903
-0.31504612
-0.11714616
-0.31112541
-0.059287945
-0.32426786
-0.017525498
-0.35340316
0.0047269094
-0.38781474
0.014931717
-0.42468667
0.017224151
-0.46272239
0.014812964
-0.50101112
0.010411627
-0.53927511
0.0059986582
-0.57789162
0.0026290488
-0.61766342
0.00053829813
-0.65947758
-0.00052205498
-0.70405385
-0.00094107453
-0.751868
-0.0010415986
-0.80320298
-0.0010225353
-0.85824872
-0.00097234084
-0.91716858
-0.00091126854
-0.98016798
-0.00083730701
-1.0474693
-0.00073623361
-1.1194108
-0.00059909731
-1.1963055
-0.00042701111
-1.2786459
-0.00022433466
-1.3667877
0.12677256
-0.15999357
0.0035013217
-0.16792871
-0.23068862
-0.16853648
-0.27835471
-0.16525209
-0.21156147
-0.15925557
-0.035900376
-0.15432917
0.17023985
-0.16367842
0.23613878
-0.19623551
0.20658103
-0.23200914
0.11619268
-0.26572533
-0.018999714
-0.28902995
-0.14850844
-0.29826118
-0.18128782
-0.29591112
-0.141866
-0.29032627
-0.073590165
-0.29682319
-0.018578929
-0.32321443
0.0085300213
-0.35720627
0.020626469
-0.39350949
0.023478136
-0.43094066
0.020504845
-0.46841428
0.014803775
-0.50540327
0.0088462791
-0.54212273
0.0041216423
-0.57938421
0.0010973998
-0.61822252
-0.00046696157
-0.65953267
-0.0010806697
-0.70391426
-0.0012077765
-0.75170182
-0.0011514861
-0.80307403
-0.001060624
-0.85816044
-0.0009814649
-0.91709839
-0.00091281817
-0.98009246
-0.00083621748
-1.0473693
-0.00073301474
-1.1192769
-0.00059509505
-1.1961374
-0.00042291804
-1.2784473
-0.00022152114
-1.3665662
0.12982289
-0.15492699
0.0060255109
-0.16251776
-0.23449051
-0.16412681
-0.28482761
-0.16206358
-0.2196265
-0.15718706
-0.042138665
-0.15301728
0.17351451
-0.15760384
0.25231916
-0.1798588
0.22314641
-0.21280089
0.1286078
-0.24442426
-0.01839915
-0.26632589
-0.16314616
-0.27439223
-0.2042747
-0.27527429
-0.16684429
-0.27093283
-0.0912947
-0.27262174
-0.020869475
-0.29453264
0.013520325
-0.32820474
0.027458341
-0.36403815
0.030980706
-0.40101206
0.027487298
-0.43792311
0.02034846
-0.47395896
0.012537787
-0.50909477
0.0060821719
-0.54408326
0.0018034266
-0.58009024
-0.00046292215
-0.61822656
-0.001352298
-0.65926104
-0.0015074188
-0.70361461
-0.0013790447
-0.75147426
-0.0012033771
-0.80293127
-0.0010667648
-0.85807514
-0.00097596419
-0.91703524
-0.00090698049
-0.9800217
-0.00083058135
-1.0472718
-0.0007276892
-1.1191443
-0.0005894748
-1.1959708
-0.00041773856
-1.2782511
-0.00021829608
-1.3663479
0.13271554
-0.15049148
0.0086680139
-0.15756949
-0.23695065
-0.16005763
-0.28992476
-0.15902967
-0.22649121
-0.15519887
-0.047682854
-0.15164287
0.17679878
-0.15630155
0.26393714
-0.16922182
0.23803676
-0.19474915
0.13974935
-0.22394244
-0.018369227
-0.24445418
-0.17754458
-0.25192748
-0.22467354
-0.25399339
-0.18983824
-0.25228034
-0.11049181
-0.25173573
-0.025272335
-0.26821888
0.019551879
-0.3005642
0.035512038
-0.33625843
0.039771596
-0.37282904
0.035855913
-0.40938068
0.027200587
-0.44477524
0.017243915
-0.47866509
0.008630912
-0.51164351
0.0026972969
-0.54497713
-0.00053729981
-0.58001586
-0.0018207224
-0.61775814
-0.0020135601
-0.6587549
-0.0017694167
-0.70322424
-0.0014500012
-0.75122764
-0.0012012512
-0.80279679
-0.0010470669
-0.85800403
-0.00095872454
-0.9169835
-0.00089491262
-0.97995737
-0.00082192482
-1.0471775
-0.00072001781
-1.1190138
-0.00058218091
-1.1958064
-0.00041180149
-1.2780576
-0.0002148146
-1.3661331
0.13548672
-0.14687531
0.011464671
-0.15328814
-0.23806064
-0.1564595
-0.29364757
-0.15633481
-0.23210617
-0.1534147
-0.052424776
-0.15045695
0.17996987
-0.15481396
0.27547705
-0.16784146
0.25280916
-0.18399422
0.14953806
-0.20453786
-0.01893281
-0.22337886
-0.19145394
-0.23054481
-0.24353974
-0.23306128
-0.21043373
-0.23339791
-0.12982013
-0.23295201
-0.032283705
-0.24472436
0.025894655
-0.27456165
0.044998475
-0.31005063
0.049796093
-0.34628293
0.045653534
-0.38262666
0.035488275
-0.41766837
0.023140647
-0.45067197
0.01191508
-0.48194926
0.003836155
-0.51278237
-0.00072072446
-0.5447937
-0.0025652073
-0.57927138
-0.0028186745
-0.61695303
-0.0024056089
-0.65811871
-0.0018652204
-0.70280902
-0.0014307975
-0.75099809
-0.0011552233
-0.80268863
-0.0010079113
-0.85795485
-0.00093287949
-0.91694553
-0.00087884173
-0.97990045
-0.00081068831
-1.0470869
-0.00071050708
-1.1188854
-0.00057406603
-1.1956441
-0.00040544856
-1.277867
-0.00021122874
-1.3659219
-0.14424187
0.13817363
0.014446764
-0.1498574
-0.237834
-0.15351478
-0.29602033
-0.15408674
-0.23647047
-0.15197052
-0.05627142
-0.14956806
0.18309761
-0.15358469
0.28659862
-0.16593553
0.26706041
-0.18209271
0.16583151
-0.20028767
-0.019625079
-0.20384559
-0.20451053
-0.21032227
-0.261113
-0.21297155
-0.22914522
-0.21434978
-0.14804227
-0.21517577
-0.041614877
-0.22362084
0.031532964
-0.25036267
0.055824038
-0.28538722
0.061043264
-0.3212978
0.056862962
-0.35749236
0.045305881
-0.39244426
0.030407858
-0.42493558
0.016109594
-0.45486649
0.0052993123
-0.48341241
-0.0010324
-0.5124707
-0.0036792569
-0.54367965
-0.0040372736
-0.57805278
-0.0033927879
-0.61596585
-0.0025322685
-0.65745166
-0.0018151649
-0.70242465
-0.0013396271
-0.75081369
-0.0010771623
-0.80261938
-0.00095579521
-0.85793193
-0.0009021202
-0.91692225
-0.00086055288
-0.97985059
-0.00079794277
-1.0469994
-0.00070027164
-1.1187592
-0.0005654679
-1.1954841
-0.00039890982
-1.2776793
-0.00020764724
-1.3657142
-0.14737626
0.017581159
-0.14259246
0.14076582
-0.23633494
-0.15135646
-0.29715101
-0.1523841
-0.23965017
-0.15090704
-0.05929905
-0.14894288
0.18637634
-0.15284679
0.29692485
-0.16391092
0.28053825
-0.17941337
0.18142315
-0.19768435
-0.0070428945
-0.21286985
-0.21651415
-0.19184197
-0.27726382
-0.19417144
-0.24605252
-0.19606426
-0.16444503
-0.19794702
-0.052164433
-0.20462622
0.035907028
-0.2279949
0.06764853
-0.26218716
0.073463605
-0.29780756
0.06940622
-0.33384106
0.056718794
-0.36890527
0.039222436
-0.40125884
0.021422062
-0.43024804
0.0072116592
-0.45677883
-0.0014833268
-0.48296148
-0.0052732337
-0.51087672
-0.005809302
-0.54190763
-0.0048606835
-0.57658488
-0.0035553301
-0.61494278
-0.0024302356
-0.65683659
-0.001650995
-0.70211329
-0.0011976375
-0.75069321
-0.00098013454
-0.80259504
-0.00089856622
-0.85793548
-0.00086985406
-0.91691295
-0.00084161875
-0.97980691
-0.00078477403
-1.0469149
-0.00068970035
-1.118635
-0.00055671777
-1.1953263
-0.00039243142
-1.2774945
-0.00020416796
-1.3655101
-0.14996997
-0.23374124
-0.14593259
0.020921294
-0.14228911
0.14320067
-0.29720757
-0.15129989
-0.24176143
-0.15027284
-0.061526126
-0.14867997
0.18977237
-0.15233891
0.30623704
-0.16215897
0.29276972
-0.1761424
0.19605523
-0.19404545
0.0056763543
-0.21040359
-0.21610672
-0.21327729
-0.29223952
-0.17686628
-0.26113625
-0.17908771
-0.17892985
-0.18157944
-0.062681185
-0.18743026
0.03889468
-0.20761387
0.080072229
-0.2404186
0.087002173
-0.27572573
0.083136636
-0.31153797
0.06972866
-0.34685093
0.049748975
-0.37943181
0.028093142
-0.40792992
0.009729339
-0.43276572
-0.0020940847
-0.45616807
-0.0074803264
-0.48075439
-0.0083064207
-0.5083796
-0.006967275
-0.53980103
-0.0050609161
-0.57507929
-0.0033688726
-0.61400415
-0.0021526193
-0.65633497
-0.0014088044
-0.70190212
-0.0010281022
-0.75064524
-0.00087772746
-0.80261588
-0.00084130901
-0.85796403
-0.00083830794
-0.91691626
-0.00082307289
-0.97976861
-0.00077181978
-1.0468328
-0.0006792505
-1.1185125
-0.00054822477
-1.1951705
-0.000386189
-1.2773125
-0.00020085452
-1.3653092
-0.1508346
-0.29634294
-0.14968142
-0.22999241
-0.14551574
0.02414792
-0.14282964
0.14557365
-0.24298145
-0.15007988
-0.062827219
-0.14897174
0.1932067
-0.15211431
0.31452195
-0.16062382
0.30325678
-0.17264603
0.20918076
-0.18926793
0.017785807
-0.2061549
-0.21412172
-0.21238859
-0.3029381
-0.20257871
-0.27454995
-0.16345258
-0.19164415
-0.16637341
-0.072464261
-0.17179637
0.040681968
-0.18921755
0.092595078
-0.22013672
0.10156146
-0.25497789
0.097884341
-0.29047343
0.084267687
-0.326077
0.062119048
-0.359221
0.036389385
-0.38772805
0.013061524
-0.41126211
-0.0028303972
-0.43202941
-0.010422729
-0.45322567
-0.011729602
-0.47733121
-0.0099025338
-0.50544434
-0.0071998206
-0.53766213
-0.0047412038
-0.57370696
-0.0029198838
-0.61323688
-0.0017582328
-0.65598554
-0.0011262286
-0.70180399
-0.00085183663
-0.75067113
-0.00077783989
-0.80267935
-0.00078666084
-0.85801568
-0.00080932785
-0.91693001
-0.00080592002
-0.97973451
-0.00075969507
-1.0467524
-0.00066948427
-1.1183912
-0.00054018862
-1.1950165
-0.00038029156
-1.277133
-0.00019773601
-1.3651115
-0.15070784
-0.2431082
-0.15176849
-0.29425588
-0.1500194
-0.22548875
-0.14598482
0.0273031
-0.14426385
0.14762327
-0.063038536
-0.14986856
0.19673615
-0.15250119
0.32178581
-0.15937817
0.31187717
-0.16924422
0.2204238
-0.18388907
0.028994882
-0.20047701
-0.21103537
-0.20924126
-0.31241911
-0.20290758
-0.29034416
-0.18678451
-0.20282891
-0.15226782
-0.081224031
-0.15761364
0.041532953
-0.17264735
0.1048015
-0.20142398
0.11691893
-0.2354942
0.11348046
-0.270574
0.10020073
-0.30640647
0.076433742
-0.34039169
0.04659438
-0.369426
0.01749536
-0.39216189
-0.0036242246
-0.41046828
-0.014259813
-0.42819233
-0.016324484
-0.44863079
-0.013891739
-0.47334201
-0.010148006
-0.50249616
-0.0066741609
-0.53572917
-0.0040392944
-0.57258755
-0.0023007324
-0.61269438
-0.001305477
-0.65580629
-0.00083511344
-0.70182072
-0.00068245097
-0.75076652
-0.00068431283
-0.80278169
-0.00073829534
-0.85808671
-0.00078439727
-0.91695153
-0.00079115684
-0.97970305
-0.00074909513
-1.0466727
-0.00066065274
-1.1182707
-0.00053277336
-1.194864
-0.00037481094
-1.276956
-0.00019483312
-1.3649166
-0.15177213
-0.061974245
-0.15296589
-0.2419108
-0.1531791
-0.29109617
-0.15102502
-0.22044855
-0.14710271
0.030141959
-0.14644992
0.14914719
0.200543
-0.15367542
0.32786051
-0.15857589
0.31870988
-0.16621088
0.22944713
-0.17826755
0.039066591
-0.19396078
-0.20671377
-0.2047986
-0.32052005
-0.20114031
-0.30461875
-0.18863298
-0.22297596
-0.16663746
-0.088904175
-0.14458767
0.041753609
-0.15783429
0.11638339
-0.18422924
0.13275288
-0.21725792
0.12973689
-0.25175063
0.11731989
-0.28769317
0.092715531
-0.32268826
0.058980596
-0.35277791
0.02336209
-0.37529273
-0.0044102444
-0.39137587
-0.019175053
-0.40555304
-0.022382143
-0.42213467
-0.019203634
-0.44331889
-0.014106142
-0.46938387
-0.0093095595
-0.49986076
-0.0056059954
-0.53416247
-0.003096854
-0.57179143
-0.0015998062
-0.61240005
-0.00084287919
-0.65579853
-0.00055807042
-0.7019451
-0.00052701771
-0.75092382
-0.00060274444
-0.80291725
-0.00069881037
-0.85817229
-0.00076465145
-0.91697803
-0.00077950261
-0.97967264
-0.0007402621
-1.0465931
-0.00065287405
-1.1181506
-0.00052605418
-1.1947128
-0.00036976419
-1.276781
-0.00019213287
-1.3647245
-0.15570153
0.2044724
-0.15473919
-0.060200949
-0.15582165
-0.23926825
-0.15526969
-0.28685151
-0.15259567
-0.21495559
-0.14871912
0.032411167
-0.14917118
0.15008369
0.33255189
-0.15836679
0.32377079
-0.16363679
0.23608409
-0.17284783
0.047529698
-0.18673066
-0.20173474
-0.19893981
-0.32715325
-0.19816541
-0.31718992
-0.18856914
-0.24148516
-0.17012378
-0.11143897
-0.14410267
0.04169978
-0.14453384
0.12705392
-0.16850482
0.14876841
-0.20024478
0.14642503
-0.23394607
0.13531536
-0.2697461
0.11072596
-0.30570359
0.073586825
-0.33729449
0.030929015
-0.36034484
-0.0049957065
-0.37470726
-0.025328544
-0.38522238
-0.030247862
-0.39768732
-0.026154311
-0.41518399
-0.019299603
-0.43812543
-0.012799884
-0.46589354
-0.0077202077
-0.49774654
-0.0042091103
-0.53305021
-0.002044109
-0.57134713
-0.00088976471
-0.61235317
-0.00040586712
-0.65595073
-0.00030769471
-0.70216442
-0.00039244785
-0.75113412
-0.00053761738
-0.80307844
-0.00066934621
-0.8582676
-0.00075075112
-0.91700678
-0.00077119553
-0.97964171
-0.00073330536
-1.0465127
-0.00064626812
-1.1180304
-0.00052004484
-1.1945625
-0.00036513579
-1.276608
-0.00018961981
-1.3645349
-0.15884949
0.33569984
-0.15790018
0.20763339
-0.15877324
-0.057249359
-0.15948097
-0.23505697
-0.15802279
-0.28142438
-0.15475261
-0.2089221
-0.15090134
0.034141332
-0.15233813
0.15039747
0.32702734
-0.16162335
0.24026941
-0.16782212
0.054079475
-0.17939761
-0.19646903
-0.19199637
-0.33220808
-0.19388498
-0.32806292
-0.18729241
-0.25839471
-0.17165959
-0.13275452
-0.14880823
0.024624117
-0.12702701
0.13727025
-0.15475016
0.1646071
-0.18434351
0.16326964
-0.21708938
0.15377835
-0.25240905
0.12982046
-0.2888406
0.089790522
-0.32190729
0.039814717
-0.34618019
-0.0054930923
-0.35984745
-0.032931887
-0.36710392
-0.040305781
-0.37516446
-0.03511198
-0.38872965
-0.02597387
-0.40850973
-0.017300684
-0.43362464
-0.010481557
-0.46313219
-0.0056967654
-0.49625889
-0.0026710013
-0.53242332
-0.00098754138
-0.57124935
-0.00022368606
-0.61253535
-1.5467934e-05
-0.65624296
-9.2841382e-05
-0.70246403
-0.00028566146
-0.75138607
-0.00049055643
-0.80325723
-0.00065038676
-0.85836796
-0.00074283697
-0.91703514
-0.00076622952
-0.97960879
-0.00072829221
-1.0464307
-0.00064078866
-1.1179097
-0.00051469751
-1.1944129
-0.00036088321
-1.2764368
-0.00018726343
-1.3643476
-0.16026542
0.32844328
-0.15917491
0.33697457
-0.16151338
0.21037353
-0.16357064
-0.053159683
-0.16384498
-0.22923478
-0.16151516
-0.27466184
-0.15757494
-0.2022485
-0.15362696
0.035430166
-0.15594675
0.14999088
0.24205622
-0.16341015
0.058486363
-0.172229
-0.19119146
-0.18467518
-0.33543284
-0.1887716
-0.33698819
-0.18495971
-0.27354287
-0.17214425
-0.15252982
-0.15188429
0.0066098799
-0.13079399
0.13419215
-0.12394892
0.18006751
-0.17021058
0.17995171
-0.20102558
0.17215634
-0.23546738
0.14909639
-0.27168498
0.10605162
-0.3051017
0.048831669
-0.33092424
-0.0071621273
-0.34451116
-0.042836492
-0.34994284
-0.05305727
-0.35435243
-0.046508557
-0.36376788
-0.034391111
-0.38031241
-0.022959276
-0.40285113
-0.013979172
-0.43012702
-0.0076116283
-0.46121733
-0.0035052325
-0.49542466
-0.0011421635
-0.5322687
-4.1410711e-06
-0.5714689
0.00036555866
-0.61291638
0.00031618054
-0.65665198
7.7388982e-05
-0.70282708
-0.00020939807
-0.75166723
-0.00046151087
-0.8034461
-0.00064171334
-0.85846909
-0.00074063019
-0.91706074
-0.00076441792
-0.97957266
-0.00072504128
-1.0463464
-0.00063629923