/*--------------------------------*- C++ -*----------------------------------*\
| =========                 |                                                 |
| \\      /  F ield         | OpenFOAM: The Open Source CFD Toolbox           |
|  \\    /   O peration     | Version:  5.0                                   |
|   \\  /    A nd           | Web:      www.OpenFOAM.org                      |
|    \\/     M anipulation  |                                                 |
\*---------------------------------------------------------------------------*/
FoamFile
{
    version     2.0;
    format      ascii;
    class       volScalarField;
    location    "320";
    object      pMean;
}
// * * * * * * * * * * * * * * * * * * * * * * * * * * * * * * * * * * * * * //

dimensions      [0 2 -2 0 0 0 0];

internalField   nonuniform List<scalar> 
9200
(
0.00055027628
0.00057004108
0.0013861804
0.00059103007
0.0014290657
0.0022825381
0.0006294997
0.0014784364
0.0023468573
0.0030588294
0.00067710655
0.0015605486
0.0024298923
0.0031405992
0.0037912011
0.0007364319
0.0016606739
0.0025592816
0.0032515958
0.0038878673
0.0044347055
0.00080976536
0.0017777077
0.0027173805
0.0034181981
0.0040233967
0.0045426229
0.0050025995
0.00089547356
0.001911565
0.0028983655
0.0036231523
0.0042221177
0.0046987087
0.0051197328
0.0054922083
0.00099074409
0.0020556231
0.0030997737
0.0038575095
0.0044666665
0.0049239029
0.0052933544
0.0056158102
0.005907687
0.0010869878
0.0022059243
0.0033125489
0.0041187182
0.0047438358
0.0052021208
0.0055405226
0.0058035757
0.0060355601
0.0062538842
0.0011691805
0.0023520903
0.0035336296
0.0043934646
0.0050499316
0.0055163798
0.0058472929
0.0060683192
0.0062345416
0.0063835076
0.0065354974
0.0012065498
0.0024824633
0.0037479898
0.0046711041
0.0053685008
0.0058627722
0.0061935129
0.0063991692
0.0065127675
0.0065904733
0.0066644556
0.0067586476
0.0011608442
0.0025751706
0.0039324118
0.0049329972
0.0056874007
0.0062231671
0.0065755943
0.0067731654
0.0068633441
0.006877658
0.0068760566
0.0068842868
0.0069287461
0.0010350759
0.0026042183
0.0040593745
0.0051592373
0.0059876891
0.0065853449
0.0069735933
0.0071877501
0.0072607137
0.0072432299
0.0071675445
0.0070968721
0.0070484476
0.0070526683
0.00086915913
0.0025521766
0.0041109275
0.0053247401
0.0062524038
0.0069291135
0.0073752712
0.0076219864
0.007704055
0.0076594928
0.0075428646
0.0073875262
0.0072582418
0.0071636494
0.0071358587
0.00071766909
0.0023995707
0.0040560053
0.0054008096
0.0064540457
0.0072379706
0.0077616586
0.008063864
0.0081720758
0.0081276155
0.0079725387
0.0077666826
0.0075427073
0.0073665566
0.0072354895
0.0071854223
0.00055920903
0.0021572895
0.0038546836
0.005356161
0.0065604734
0.0074835817
0.0081164046
0.0084962035
0.008653644
0.0086263361
0.0084603483
0.0082036966
0.0079193219
0.0076389953
0.0074275068
0.0072710838
0.0072066805
0.00040084469
0.0018614973
0.003529973
0.0051573745
0.0065388559
0.0076321915
0.0084106555
0.0089014599
0.0091323987
0.0091460095
0.008985912
0.0087051116
0.0083566092
0.0080060586
0.0076820632
0.0074480593
0.0072758239
0.0072063678
0.00023323892
0.0015552345
0.0031438428
0.0048104022
0.00635803
0.0076490466
0.0086108884
0.0092509171
0.0095895323
0.0096704814
0.0095403223
0.0092512256
0.008864252
0.0084357349
0.0080323304
0.0076786283
0.0074337928
0.0072567044
0.0071896053
4.4983848e-05
0.0012614364
0.0027173129
0.0043659396
0.0060094229
0.0075053891
0.0086803893
0.0095117052
0.0099984868
0.010181004
0.010107885
0.0098348832
0.0094237676
0.0089410907
0.008445912
0.0080044099
0.0076346274
0.0073918622
0.0072190397
0.0071621496
-0.00027082239
0.00092752113
0.002268771
0.0038439897
0.0055243164
0.0071786371
0.0085868402
0.0096473848
0.010326642
0.010652442
0.010670819
0.010441405
0.010029717
0.0095050247
0.0089395274
0.0083928756
0.0079283482
0.0075572896
0.0073277401
0.0071689326
0.0071286534
-0.0006476462
0.00055446393
0.0017766457
0.003262535
0.0049289855
0.0066829185
0.0083021966
0.0096136244
0.010536588
0.011053534
0.011205334
0.011053724
0.010668944
0.010124426
0.0094978124
0.0088644091
0.00828256
0.0078113366
0.0074524106
0.0072480288
0.0071112683
0.0070936763
-0.00096058421
0.0001416236
0.0011812865
0.002611954
0.0042389143
0.0060476714
0.0078248997
0.0093864586
0.01057885
0.011344298
0.011681559
0.011649628
0.011325178
0.010787539
0.010120261
0.0094058315
0.0087213688
0.0081219987
0.0076597484
0.0073272224
0.0071579172
0.0070510084
0.0070610597
-0.0011940393
-0.00026823215
0.00043344767
0.001806176
0.0034528633
0.0052817052
0.0071760633
0.0089540524
0.010423661
0.011478185
0.012057994
0.012200373
0.011977651
0.01147976
0.010796804
0.01001913
0.0092338905
0.0085169663
0.0079179769
0.007481227
0.0071873394
0.0070629819
0.006992304
0.0070342552
-0.0014295993
-0.00071131337
-0.00043620613
0.0007603661
0.002480829
0.0043852686
0.0063565331
0.0083154116
0.010047961
0.011406712
0.01229006
0.012666074
0.01260003
0.012182074
0.011514521
0.010696401
0.0098247794
0.008987874
0.0082581978
0.0076784502
0.0072819859
0.0070392458
0.0069678222
0.006938888
0.0070160791
-0.0016882122
-0.0012734356
-0.0014008184
-0.00047645217
0.0012110609
0.0032801667
0.0053691847
0.0074685129
0.0094373273
0.011096783
0.01231542
0.012998298
0.013154062
0.012869494
0.012256638
0.011426864
0.010488703
0.0095422311
0.0086747147
0.0079532895
0.0074105314
0.0070695053
0.0068881186
0.0068768063
0.0068938806
0.0070088082
-0.0019857991
-0.0019285297
-0.0024426088
-0.0018165982
-0.00033949415
0.0018335016
0.004141746
0.0064114792
0.0085826497
0.010531752
0.012090104
0.013137597
0.013588481
0.013507114
0.012999406
0.012195652
0.011217076
0.010177138
0.0091780429
0.0083027365
0.007610203
0.0071224566
0.006849666
0.006739286
0.0067935723
0.0068598903
0.0070143138
-0.0023389841
-0.0027064373
-0.0036167191
-0.0032348805
-0.0020376473
1.4533931e-05
0.0025349665
0.0050900753
0.0074735603
0.0096874389
0.011589922
0.013020087
0.013848594
0.014043688
0.0137113
0.012981678
0.011997442
0.010886769
0.0097675364
0.0087401852
0.0078805337
0.0072377921
0.0068211039
0.0066290276
0.0065971095
0.0067212542
0.0068390348
0.0070341328
-0.0027268814
-0.0035853061
-0.0049227853
-0.0048199185
-0.0038350841
-0.0020047223
0.00048511789
0.003351752
0.0060683601
0.0085403916
0.010777628
0.012599335
0.013853293
0.014420135
0.014344996
0.013755219
0.01281093
0.01166125
0.010440615
0.0092674574
0.0082375532
0.0074177487
0.0068441231
0.006514213
0.0064126237
0.0064655641
0.0066624711
0.006832997
0.0070690802
-0.003121132
-0.0045253328
-0.0063084659
-0.0065182348
-0.0058160325
-0.0041738538
-0.0018509299
0.0011010756
0.0042117818
0.0070507613
0.0096174275
0.011841231
0.013534524
0.01456183
0.01483535
0.014473393
0.013630486
0.012484228
0.011190103
0.0098851591
0.0086859431
0.0076804858
0.0069236979
0.0064383436
0.0062077477
0.0062054956
0.0063478442
0.0066192974
0.0068429321
0.0071190538
-0.003549721
-0.0054736899
-0.0076957179
-0.0082538483
-0.0079125002
-0.0065443888
-0.0043922295
-0.0015481349
0.0017780813
0.0050866378
0.0080619
0.010696223
0.012855329
0.014374962
0.015115185
0.015072526
0.014417065
0.013331421
0.012002207
0.010588905
0.0092290792
0.0080336322
0.0070795356
0.0064086075
0.0060280904
0.0059086405
0.0060117039
0.0062467673
0.0065932422
0.0068694639
0.0071838956
-0.0039742033
-0.0064467207
-0.0090687619
-0.0099852329
-0.010033493
-0.0090406105
-0.0071464431
-0.0044657682
-0.001167705
0.0024963655
0.0060177023
0.0091022914
0.011747211
0.013795896
0.015077556
0.015476529
0.015111466
0.01416641
0.012855318
0.011367848
0.0098657951
0.0084832691
0.0073218763
0.0064460329
0.0058817619
0.005621404
0.0056221689
0.0058354768
0.0061646443
0.0065853361
0.0069129193
0.0072646132
-0.0042992563
-0.0074322802
-0.010471392
-0.011694882
-0.012145259
-0.011566927
-0.010036787
-0.0076006419
-0.0044502021
-0.00071972855
0.0033077971
0.0070094902
0.010144072
0.012750369
0.014623876
0.015595989
0.015631433
0.0149362
0.01371651
0.012203323
0.010588024
0.0090313764
0.0076598615
0.0065634686
0.0057907724
0.0053526378
0.0052248493
0.0053534644
0.005679963
0.0061030662
0.0065962632
0.006973513
0.0073620529
-0.004481144
-0.0082858822
-0.011912526
-0.013424082
-0.014233424
-0.014075673
-0.012965225
-0.010877228
-0.0079664236
-0.0043571988
-0.00014484819
0.0042124332
0.0080211329
0.01117034
0.013676253
0.015296679
0.015893555
0.015560094
0.014537023
0.013065579
0.011380764
0.0096729159
0.0080983863
0.006772628
0.0057707625
0.0051251578
0.0048295565
0.0048452023
0.0051064488
0.005547404
0.0060631541
0.0066263691
0.0070511265
0.0074757504
-0.0045753496
-0.0089651603
-0.013207853
-0.01521179
-0.016330563
-0.016552555
-0.015866189
-0.014203796
-0.011621363
-0.0082466357
-0.0041263474
0.00056743557
0.0051459735
0.0090335635
0.012148326
0.014474601
0.015764697
0.015942492
0.015243625
0.013909727
0.012216799
0.010396191
0.0086354739
0.0070812977
0.0058355115
0.0049568906
0.0044595144
0.0043209029
0.0044876275
0.0048848366
0.0054395109
0.0060456297
0.0066757074
0.0071454808
0.0076035102
-0.0046074192
-0.0095280936
-0.014275167
-0.016909464
-0.018503684
-0.019034899
-0.018728058
-0.017501914
-0.0153444
-0.012284444
-0.0083778628
-0.0037082316
0.0013616431
0.0061146895
0.010014831
0.013022757
0.015094117
0.015978303
0.015733844
0.014670389
0.01305557
0.011177297
0.0092624534
0.0074907416
0.0059957308
0.0048635381
0.0041342608
0.0038040661
0.00383364
0.0041572348
0.0046911407
0.0053576088
0.0060506821
0.0067438847
0.0072564159
0.0077430942
-0.0046044152
-0.010023754
-0.015154592
-0.018410393
-0.020611284
-0.021602489
-0.021592152
-0.020752751
-0.019045977
-0.016411071
-0.012808677
-0.0083129707
-0.0031396676
0.0022552944
0.0070940931
0.010910285
0.013753422
0.015484101
0.01590016
0.015248767
0.013837107
0.011979608
0.0099592281
0.0079954416
0.006255657
0.0048584716
0.0038711759
0.0033152265
0.003167696
0.0033744765
0.0038577055
0.0045275571
0.0053025018
0.0060781532
0.006829974
0.0073825819
0.0078933514
-0.0045981976
-0.010432752
-0.01594422
-0.019670743
-0.022528972
-0.024113035
-0.024560236
-0.024006663
-0.022697893
-0.020531262
-0.017350412
-0.013130688
-0.0080558228
-0.0024013518
0.0032139367
0.0080100453
0.011690272
0.014290781
0.015588738
0.015519106
0.014470386
0.012746883
0.010692449
0.0085785853
0.0066128251
0.0049486632
0.0036860636
0.0028730395
0.0025109034
0.0025589047
0.0029486479
0.0035924927
0.00439538
0.005274429
0.0061276344
0.0069331346
0.0075224567
0.0080528877
-0.0046008366
-0.010757183
-0.016615736
-0.020787617
-0.024177677
-0.026468102
-0.027477357
-0.027387636
-0.026356135
-0.024601954
-0.021902001
-0.018081481
-0.013226908
-0.0075809499
-0.0015503093
0.0041435664
0.0088149043
0.012317277
0.014578013
0.015357572
0.014827841
0.013397135
0.011410596
0.0092103757
0.0070542748
0.0051349994
0.0035885972
0.0024954938
0.001882633
0.0017318431
0.0019848293
0.002561024
0.0033636836
0.0042954974
0.005272916
0.006198286
0.0070523897
0.0076748394
0.0082209767
-0.0046178965
-0.011005413
-0.017157645
-0.021753269
-0.02559622
-0.028529977
-0.030280855
-0.030725204
-0.030163399
-0.028681548
-0.026404139
-0.02306251
-0.018566537
-0.013078612
-0.0069521523
-0.00069210822
0.0049784235
0.0094785671
0.012740399
0.014540396
0.014770085
0.013811309
0.012038133
0.0098440088
0.0075537859
0.0054080671
0.0035828653
0.0021948053
0.0013027949
0.0009129889
0.00098727558
0.0014520072
0.0022149197
0.0031730468
0.0042280546
0.005297382
0.0062890856
0.0071866095
0.0078384027
0.0083974342
-0.011180122
-0.0046569413
-0.017558537
-0.022539978
-0.026843322
-0.03028047
-0.032777531
-0.033974624
-0.033930345
-0.032926937
-0.030920297
-0.028002275
-0.023963394
-0.018787341
-0.012748572
-0.0062697747
0.00011307559
0.0056809278
0.0099602534
0.012879908
0.014118723
0.013829673
0.012465132
0.010408934
0.0080680002
0.0057454124
0.003663023
0.0019782262
0.00078586114
0.00012350752
-2.4335925e-05
0.00028573021
0.00096536977
0.0019131061
0.0030213034
0.0041929082
0.0053469969
0.006398856
0.0073346193
0.0080119182
0.0085817433
-0.017805435
-0.011253453
-0.0047221729
-0.023119992
-0.027860307
-0.031817734
-0.034899914
-0.036914534
-0.037619051
-0.037132942
-0.035622456
-0.032957203
-0.029322369
-0.024579738
-0.018798814
-0.0123168
-0.0055908495
0.00082204414
0.0062100088
0.010199892
0.012660982
0.013292971
0.012534208
0.01080351
0.0085322785
0.0061080164
0.0038107592
0.0018433542
0.00034221144
-0.00061995369
-0.0010281912
-0.00091869201
-0.00036580194
0.00052907318
0.0016572542
0.0029088538
0.0041891816
0.0054205977
0.0065262963
0.0074952017
0.0081942835
0.0087728907
-0.023455351
-0.017871257
-0.011220293
-0.004802869
-0.028600411
-0.033066759
-0.036726246
-0.039435872
-0.041011259
-0.041274279
-0.040284653
-0.038123441
-0.034705251
-0.030347114
-0.024968824
-0.018680139
-0.01185472
-0.0049677661
0.0013823155
0.0065106506
0.010121231
0.012015519
0.012066621
0.010881902
0.008851202
0.0064352165
0.003991357
0.00177643
-2.6966068e-05
-0.0013041581
-0.0020057498
-0.0021389713
-0.0017607808
-0.000961446
0.00014610303
0.001448531
0.0028352062
0.0042158193
0.0055168384
0.0066700189
0.0076670932
0.0083845273
0.0089698492
-0.029022304
-0.023517733
-0.017749529
-0.011101049
-0.0048943039
-0.033988568
-0.0382215
-0.041560588
-0.043932519
-0.045126175
-0.044894928
-0.043257428
-0.040326213
-0.036154175
-0.031129297
-0.025205479
-0.018501073
-0.011419062
-0.0044691739
0.0017336375
0.0065011516
0.0096422407
0.010900968
0.010453273
0.008891287
0.0066381729
0.0041482505
0.0017470159
-0.00033101331
-0.0019242646
-0.002941224
-0.0033555222
-0.003197182
-0.0025424695
-0.0014966977
-0.00018144405
0.0012869963
0.0027995708
0.0042714035
0.0056342542
0.0068286
0.007848959
0.0085814784
0.0091716236
-0.034529167
-0.029103517
-0.023301654
-0.01745908
-0.010894722
-0.0049768492
-0.039340402
-0.043305057
-0.04635263
-0.048442135
-0.04921808
-0.048353738
-0.045931185
-0.042233053
-0.037354703
-0.031742701
-0.025355883
-0.018319719
-0.011074088
-0.0041586842
0.0017816741
0.006110846
0.008708776
0.0093365747
0.0084684362
0.0065937143
0.004199147
0.0017035807
-0.00059561069
-0.0024852208
-0.0038260953
-0.0045501867
-0.0046548876
-0.0041923231
-0.0032573377
-0.0019681264
-0.00045250097
0.0011722581
0.0028005805
0.0043544162
0.0057712685
0.0070005715
0.008039542
0.0087840111
0.0093771541
-0.040011998
-0.034653862
-0.028841173
-0.022827484
-0.017012839
-0.010581685
-0.0050177879
-0.044621556
-0.048347265
-0.051158933
-0.052928631
-0.053165291
-0.051507017
-0.048303563
-0.043888249
-0.038382816
-0.03225325
-0.025482196
-0.018200697
-0.010891166
-0.0041225384
0.0014419469
0.0052910534
0.0072768398
0.0073601892
0.0061286223
0.004028122
0.0015693826
-0.00086672525
-0.0030072542
-0.004660841
-0.0057109855
-0.0061138887
-0.0058907699
-0.0051155795
-0.0039002188
-0.0023733558
-0.00066697037
0.0011032057
0.0028367085
0.0044630916
0.0059261776
0.0071844058
0.0082375902
0.0089910993
0.0095855105
-0.045420002
-0.040185732
-0.034355825
-0.02824501
-0.022119594
-0.016415247
-0.010161713
-0.0049771628
-0.049851263
-0.05339491
-0.055943252
-0.057290362
-0.056806969
-0.054355593
-0.050422325
-0.045362608
-0.039290693
-0.032720728
-0.025642804
-0.01821749
-0.010958837
-0.0044605519
0.00065597731
0.0039847603
0.0053548437
0.0050100772
0.0034730776
0.0012357424
-0.0012147231
-0.0035305237
-0.005460197
-0.0068338234
-0.0075590279
-0.0076164463
-0.0070517635
-0.0059595569
-0.0044672878
-0.0027111649
-0.00082547727
0.001078397
0.0029060649
0.0045955027
0.0060971094
0.0073785575
0.0084420016
0.0092018658
0.0097958229
-0.050761544
-0.045632649
-0.039851505
-0.03365406
-0.027340361
-0.021206734
-0.015669676
-0.0096426205
-0.0048315153
-0.055068681
-0.058412466
-0.060611732
-0.06136638
-0.060136083
-0.056951618
-0.052356532
-0.046701312
-0.040143609
-0.033216058
-0.025926642
-0.018472595
-0.011393191
-0.0052509752
-0.00061892696
0.002174496
0.00301517
0.0023142646
0.00055199685
-0.0017422217
-0.0041183465
-0.0062575378
-0.0079276961
-0.0089817582
-0.0093515692
-0.0090437326
-0.0081279078
-0.0067184698
-0.0049558966
-0.0029814942
-0.00092918026
0.0010959682
0.0030064354
0.0047493741
0.0062822543
0.0075818164
0.0086518959
0.0094154077
0.010007232
-0.056069249
-0.050995314
-0.045246615
-0.039039641
-0.032582455
-0.026167611
-0.02010322
-0.014791902
-0.0089769386
-0.0045098365
-0.060242214
-0.063316954
-0.065034083
-0.065141545
-0.063207611
-0.059361541
-0.054144721
-0.047970918
-0.041008415
-0.033825811
-0.026441858
-0.019091931
-0.012290638
-0.0065409298
-0.0023818423
-0.00010725625
0.00030511939
-0.0006841296
-0.0025880932
-0.004866741
-0.0071090899
-0.009018911
-0.01038509
-0.011083424
-0.011071662
-0.010383085
-0.0091108661
-0.0073880185
-0.0053645567
-0.0031849197
-0.00097968958
0.0011534934
0.0031351133
0.0049225844
0.0064803212
0.0077933312
0.008866168
0.0096304494
0.010218898
-0.061312906
-0.056299482
-0.050536728
-0.044304307
-0.037800038
-0.031175436
-0.024773657
-0.018812338
-0.013688797
-0.0080872957
-0.0040296047
-0.065298534
-0.067984993
-0.069187198
-0.068673993
-0.066091812
-0.061625264
-0.055849314
-0.049222233
-0.041976938
-0.034659417
-0.02731949
-0.020195335
-0.01369196
-0.0083125121
-0.0046055743
-0.0028165111
-0.002734286
-0.0039425446
-0.0059053748
-0.0081021207
-0.010155766
-0.011787959
-0.012808965
-0.013119179
-0.012703796
-0.011623375
-0.0099941824
-0.0079651761
-0.0056929769
-0.0033228183
-0.00097950569
0.0012478747
0.0032896449
0.0051137956
0.0066905125
0.0080116284
0.0090827946
0.0098457129
0.010430502
-0.06642868
-0.061517087
-0.055740648
-0.049440046
-0.042875064
-0.036161645
-0.029488693
-0.023109576
-0.017238002
-0.012300758
-0.0069902824
-0.0034950691
-0.070128244
-0.072397529
-0.073116989
-0.072031524
-0.068829429
-0.063789379
-0.057516206
-0.05056016
-0.043172358
-0.035866118
-0.028697071
-0.021826742
-0.015566873
-0.010560592
-0.007282562
-0.0058806151
-0.0060639882
-0.0074119931
-0.0093581668
-0.01141605
-0.013230202
-0.014539695
-0.015177578
-0.015070784
-0.014234102
-0.012755403
-0.010772917
-0.0084479942
-0.0059418898
-0.0033975977
-0.00093210294
0.0013762509
0.0034687354
0.0053222968
0.0069107591
0.0082333915
0.0092999058
0.010061648
0.010652635
-0.07132599
-0.066596789
-0.060838431
-0.054459643
-0.047786525
-0.040985923
-0.034156601
-0.027436622
-0.021110538
-0.015397853
-0.010690002
-0.0058447955
-0.002955171
-0.074713781
-0.076607663
-0.0768785
-0.075254373
-0.071471323
-0.065911546
-0.059246251
-0.05210641
-0.044733973
-0.037593568
-0.030629397
-0.023943802
-0.017903642
-0.013265064
-0.010349533
-0.0092361515
-0.0096254462
-0.011041847
-0.012910934
-0.014779097
-0.016306129
-0.017250669
-0.017470239
-0.016921527
-0.015650387
-0.013771691
-0.011443304
-0.008835934
-0.0061133155
-0.0034129557
-0.00084073705
0.0015374539
0.0036718021
0.0055451495
0.0071359126
0.0084558416
0.0095194487
0.010292875
0.010888659
-0.075988593
-0.071463622
-0.06578649
-0.059351206
-0.0525472
-0.045615276
-0.03861113
-0.031686083
-0.025006426
-0.01883699
-0.013387096
-0.0090563199
-0.0046895054
-0.002382628
-0.079120928
-0.080657832
-0.080506496
-0.078392902
-0.074062183
-0.068082993
-0.061172397
-0.054004545
-0.046816525
-0.039913077
-0.033082171
-0.026507342
-0.020686831
-0.016346395
-0.013713154
-0.012837197
-0.013368742
-0.014793691
-0.016534124
-0.018164667
-0.019359528
-0.019898611
-0.01966777
-0.018656239
-0.016942037
-0.014666109
-0.012002972
-0.0091304081
-0.0062109724
-0.0033722556
-0.0007063368
0.0017310706
0.0038946914
0.0057747931
0.0073620852
0.0086835931
0.0097627728
0.010537955
0.011132543
-0.080491569
-0.076106032
-0.070527247
-0.064079008
-0.057152738
-0.050061732
-0.042840764
-0.035695339
-0.028794851
-0.022316452
-0.016416061
-0.01139069
-0.0074181276
-0.0034900997
-0.0018075265
-0.083385161
-0.084579042
-0.08404632
-0.081486049
-0.076704102
-0.070441206
-0.063461566
-0.056427003
-0.049510274
-0.04280568
-0.035999516
-0.029484558
-0.023844476
-0.019730868
-0.01733259
-0.016641416
-0.017264034
-0.018637279
-0.020202387
-0.021548721
-0.022367173
-0.022462183
-0.02175192
-0.020261075
-0.018099898
-0.01543406
-0.012451844
-0.0093349018
-0.006238534
-0.0032761599
-0.00052901925
0.0019515124
0.0041267506
0.0060061998
0.0075977071
0.0089503986
0.010018957
0.010792522
0.011384006
-0.084869152
-0.080602598
-0.075050957
-0.068604505
-0.06158283
-0.054316464
-0.046853104
-0.039449721
-0.032331699
-0.025668778
-0.019476328
-0.014023271
-0.0093782626
-0.0057173626
-0.0022972224
-0.0012594802
-0.087537252
-0.088404983
-0.087543052
-0.084624294
-0.079532114
-0.073162441
-0.066274773
-0.059475263
-0.05282623
-0.046206924
-0.039305087
-0.032822043
-0.027327189
-0.02335746
-0.021155525
-0.020606908
-0.021272977
-0.022546561
-0.023892051
-0.024908637
-0.02530687
-0.02492092
-0.023705589
-0.021723233
-0.019116525
-0.016073708
-0.012792706
-0.0094528216
-0.0061961173
-0.0031242611
-0.00031597393
0.002184327
0.0043616055
0.0062526567
0.0078938288
0.0092302326
0.010286962
0.011055389
0.011643088
-0.089152117
-0.084986784
-0.079441081
-0.072919558
-0.065811829
-0.058378883
-0.05065796
-0.042957716
-0.035607607
-0.028755978
-0.022393982
-0.016674609
-0.01159454
-0.0072906052
-0.0039657873
-0.00116052
-0.00073447115
-0.091601184
-0.092185361
-0.091089395
-0.087951021
-0.082731628
-0.076429278
-0.069750965
-0.063195304
-0.056687597
-0.049984009
-0.042922558
-0.036483721
-0.031045381
-0.027159286
-0.025132474
-0.024697546
-0.025368041
-0.02650164
-0.027582276
-0.028222346
-0.028156738
-0.027254835
-0.025512439
-0.02303168
-0.019987441
-0.016586219
-0.013028463
-0.0094833416
-0.0060823457
-0.0029254953
-8.6298974e-05
0.0024215085
0.0046189552
0.0065879944
0.0082038457
0.0095247618
0.010563449
0.011326839
0.011909491
-0.093354503
-0.089290831
-0.083730464
-0.077107143
-0.069842946
-0.062223579
-0.054253186
-0.046238756
-0.038612002
-0.031561476
-0.025035457
-0.019175256
-0.013816574
-0.0090813393
-0.0051500808
-0.002244217
-0.00012153738
-0.00023182645
-0.095604403
-0.096007967
-0.094836695
-0.091636142
-0.086496153
-0.080399217
-0.073943242
-0.067516246
-0.060946174
-0.054040938
-0.04682427
-0.040351698
-0.034871705
-0.031100834
-0.02923019
-0.028898893
-0.02953047
-0.030484087
-0.031253155
-0.031467828
-0.030894514
-0.029443616
-0.027157157
-0.024178803
-0.020712238
-0.016973176
-0.013156929
-0.0094239491
-0.0059077877
-0.0027044717
0.0001498058
0.0026907241
0.0050027567
0.006938814
0.0085320567
0.0098274981
0.010849477
0.011606206
0.012183081
-0.097488886
-0.093522085
-0.087947488
-0.081202541
-0.073747538
-0.065853871
-0.057625772
-0.049299545
-0.041375762
-0.034082114
-0.027375317
-0.021398966
-0.015887915
-0.010864466
-0.0065091783
-0.0030061627
-0.00062830453
0.00082229787
0.00025998226
-0.099632921
-0.1000448
-0.098954499
-0.095878524
-0.091006426
-0.085158902
-0.078801681
-0.072280032
-0.065463954
-0.058330312
-0.050909831
-0.044296845
-0.038751974
-0.035154745
-0.033434974
-0.033190213
-0.033747644
-0.034477906
-0.034884197
-0.034622021
-0.033496597
-0.03146769
-0.02862818
-0.025161406
-0.021290305
-0.017230329
-0.013173617
-0.0092872699
-0.0057037314
-0.0024742386
0.00043005271
0.0031339048
0.0054050999
0.0073123377
0.0088678396
0.010140738
0.01114394
0.011893457
0.012463522
-0.1016322
-0.097682142
-0.092099774
-0.085232696
-0.077565873
-0.069356169
-0.060782419
-0.052144036
-0.043918963
-0.036351726
-0.029424915
-0.023301761
-0.017688159
-0.012495143
-0.0078366805
-0.0039238922
-0.00095733621
0.00085636753
0.0016318795
0.0007884973
-0.10386273
-0.10447794
-0.10364994
-0.10090534
-0.096382112
-0.090660381
-0.084174532
-0.077330231
-0.070128683
-0.062766111
-0.055060994
-0.048267782
-0.042690891
-0.039315491
-0.037751384
-0.037565815
-0.038010236
-0.038466296
-0.03845301
-0.037658978
-0.035939128
-0.033311178
-0.029918966
-0.025976559
-0.021713841
-0.017350598
-0.01309274
-0.0091120947
-0.0054868846
-0.0021847774
0.000944813
0.0035999383
0.0058354011
0.0076923942
0.0092149265
0.010462755
0.011446788
0.012187987
0.012750605
-0.10596262
-0.10182967
-0.096177271
-0.089205119
-0.081339269
-0.072777955
-0.063808593
-0.054791566
-0.046254233
-0.038402341
-0.031220674
-0.024897811
-0.019164436
-0.013864008
-0.0090173948
-0.0047987309
-0.0014395646
0.00091457671
0.002232295
0.0023335777
0.0013033075
-0.10850597
-0.10954163
-0.10916961
-0.10685826
-0.10259177
-0.096739194
-0.089896518
-0.082497081
-0.074857076
-0.067220479
-0.059175487
-0.052191499
-0.046716606
-0.043578294
-0.042182853
-0.042019769
-0.042306679
-0.042429722
-0.041933013
-0.040551121
-0.038201642
-0.034963621
-0.031022695
-0.026611469
-0.021971864
-0.017349911
-0.012962362
-0.008919534
-0.0051921307
-0.0015851956
0.0014888515
0.0041005485
0.0062706009
0.0080844324
0.0095709374
0.010793612
0.011757242
0.012489577
0.01304401
-0.11071925
-0.10615014
-0.10022007
-0.09309512
-0.085066891
-0.07616183
-0.066754675
-0.057329061
-0.048413241
-0.040260949
-0.032808442
-0.026243147
-0.020334406
-0.014913252
-0.0099522666
-0.005541221
-0.0018735732
0.00084870674
0.0026544219
0.0034198753
0.0029267234
0.0016718827
-0.11379885
-0.11545378
-0.11566711
-0.11374597
-0.10945857
-0.10322708
-0.095759241
-0.087651884
-0.079559581
-0.071572718
-0.063142927
-0.056044051
-0.050860391
-0.047939249
-0.046724518
-0.046552416
-0.046623309
-0.046343058
-0.045294261
-0.04327402
-0.040269517
-0.036412715
-0.031920333
-0.027049059
-0.022081988
-0.01728682
-0.012809511
-0.0086260192
-0.0044928286
-0.00094758938
0.0020753382
0.004603762
0.0067181668
0.0084854711
0.0099359254
0.011132385
0.012074947
0.012797664
0.013343541
-0.11613293
-0.11088865
-0.10442088
-0.096942432
-0.088699512
-0.079500224
-0.069660184
-0.059804075
-0.050474458
-0.04195889
-0.034215165
-0.027387955
-0.021255149
-0.015660467
-0.010589638
-0.0060569837
-0.0021884876
0.00083120312
0.0029616959
0.0041851578
0.0043441691
0.003347582
0.0018321602
-0.1199428
-0.12237285
-0.12318049
-0.12139224
-0.11678891
-0.10990226
-0.1015806
-0.0926801
-0.084158852
-0.075713405
-0.066952987
-0.059941219
-0.055102736
-0.052439949
-0.051391983
-0.051157156
-0.050938938
-0.050175907
-0.048508978
-0.045808652
-0.042124316
-0.03763124
-0.032587658
-0.027308311
-0.022114963
-0.017193924
-0.012527797
-0.007811001
-0.0037437188
-0.00025775314
0.0026612134
0.0051196424
0.007174511
0.0088956395
0.01030886
0.011478598
0.012399284
0.01311218
0.013648679
-0.12237754
-0.11626859
-0.10901452
-0.10092895
-0.092258669
-0.082715646
-0.072489132
-0.062229988
-0.052476418
-0.04356068
-0.035462569
-0.028361543
-0.021978948
-0.016161163
-0.010931899
-0.0063008428
-0.0022903198
0.00092501467
0.0032985672
0.0048073283
0.0053778808
0.0049610045
0.0035905417
0.0018709537
-0.12709935
-0.13034497
-0.13155716
-0.12957785
-0.12438527
-0.11655609
-0.10722995
-0.097545907
-0.088554293
-0.079636577
-0.070666346
-0.063924846
-0.059455464
-0.057108561
-0.056189963
-0.055819057
-0.055225487
-0.053899032
-0.051554869
-0.048130299
-0.043727943
-0.038585682
-0.033043567
-0.027474332
-0.022110308
-0.016936865
-0.011579801
-0.0069308035
-0.0029304576
0.00042723181
0.0032597839
0.0056439007
0.0076399138
0.009313778
0.010689113
0.011831689
0.012730433
0.013432419
0.013959139
-0.12962575
-0.12245603
-0.11420025
-0.1052573
-0.095912412
-0.085830504
-0.075169849
-0.064563315
-0.054421375
-0.045107127
-0.036616176
-0.029190479
-0.022539942
-0.016474627
-0.01103782
-0.0062669466
-0.0021526223
0.0012106495
0.0037323524
0.005432358
0.0062268418
0.0061772644
0.0053000173
0.0036449694
0.0018163296
-0.13532243
-0.13924701
-0.14056864
-0.13810837
-0.13200946
-0.12301309
-0.11264058
-0.10220057
-0.092688374
-0.083347146
-0.074293273
-0.068048511
-0.063983718
-0.061972142
-0.061109425
-0.060515252
-0.059454715
-0.057488545
-0.05440085
-0.050187336
-0.045034418
-0.039295193
-0.033389135
-0.027594529
-0.021899493
-0.015838398
-0.010546756
-0.0059717657
-0.002127589
0.0011248115
0.0038660009
0.0061770537
0.0081130816
0.0097391545
0.01107625
0.012192237
0.013067192
0.013757913
0.014274511
-0.13795698
-0.12961575
-0.12016084
-0.11012537
-0.099842281
-0.089010844
-0.077743291
-0.066726134
-0.056258544
-0.046584644
-0.03770421
-0.029928661
-0.022961024
-0.01663199
-0.010967123
-0.0060121059
-0.0017770207
0.0016969648
0.0043306462
0.0061122063
0.0070469569
0.0071804735
0.0066367032
0.0054173149
0.0035805214
0.0017044235
-0.14452054
-0.14887454
-0.15001344
-0.14673894
-0.139446
-0.12917296
-0.11777724
-0.10659509
-0.09653643
-0.086873683
-0.078005792
-0.072386486
-0.068765634
-0.067033362
-0.066137661
-0.065221786
-0.06360355
-0.060908572
-0.05698094
-0.051917629
-0.046062984
-0.039877681
-0.033681422
-0.027458899
-0.020632363
-0.014629509
-0.0094168452
-0.0050301326
-0.0013124128
0.0018290169
0.0044807324
0.0067176818
0.0085932032
0.01017155
0.011471525
0.012558437
0.013409008
0.014087981
0.01459446
-0.14730532
-0.13785766
-0.12707519
-0.11573757
-0.10425581
-0.092439957
-0.080367539
-0.068787082
-0.057927825
-0.047959171
-0.038718948
-0.03060637
-0.023300781
-0.016664949
-0.010759465
-0.0056026604
-0.0012112124
0.0023810992
0.0050872032
0.0069136216
0.0078831646
0.0081282185
0.0077472466
0.0068378598
0.0053749632
0.0034359444
0.001540562
-0.15450892
-0.15901812
-0.1596572
-0.15524402
-0.14656637
-0.13501331
-0.12262141
-0.11069488
-0.1000911
-0.090243472
-0.082011035
-0.07698335
-0.073820555
-0.072287391
-0.071260247
-0.069920417
-0.067634047
-0.064077723
-0.059212014
-0.053338773
-0.046951644
-0.040401442
-0.033659536
-0.026006103
-0.019222608
-0.013301424
-0.0083130796
-0.0040764987
-0.00049198623
0.0025412062
0.0051024747
0.0072649302
0.0090802999
0.010613084
0.011872415
0.012929537
0.013755076
0.014422159
0.014918598
-0.15749425
-0.14713273
-0.13503271
-0.12225591
-0.10935742
-0.096305821
-0.083243072
-0.070892762
-0.059510421
-0.049186893
-0.039637491
-0.031218677
-0.023599541
-0.016641472
-0.01045494
-0.0050888528
-0.00051997713
0.0032121433
0.0059872786
0.0078181032
0.0087966508
0.0090669193
0.008781733
0.0080241386
0.0068352422
0.0052149498
0.0032416535
0.0013784112
-0.16508274
-0.16945711
-0.16925398
-0.16346457
-0.15335816
-0.14053037
-0.1271342
-0.11449095
-0.1033263
-0.093571717
-0.086376846
-0.081887641
-0.079154445
-0.077735961
-0.07646967
-0.074575086