/*--------------------------------*- C++ -*----------------------------------*\
| =========                 |                                                 |
| \\      /  F ield         | OpenFOAM: The Open Source CFD Toolbox           |
|  \\    /   O peration     | Version:  5.0                                   |
|   \\  /    A nd           | Web:      www.OpenFOAM.org                      |
|    \\/     M anipulation  |                                                 |
\*---------------------------------------------------------------------------*/
FoamFile
{
    version     2.0;
    format      ascii;
    class       volScalarField;
    location    "320";
    object      pPrime2Mean;
}
// * * * * * * * * * * * * * * * * * * * * * * * * * * * * * * * * * * * * * //

dimensions      [0 4 -4 0 0 0 0];

internalField   nonuniform List<scalar> 
9200
(
9.5492777e-07
1.0135737e-06
6.0675387e-06
1.0925142e-06
6.3176497e-06
1.6680805e-05
1.26772e-06
6.6203003e-06
1.7271774e-05
3.0553599e-05
1.5356098e-06
7.2218598e-06
1.8093291e-05
3.1470627e-05
4.7812507e-05
1.9995071e-06
8.0566266e-06
1.9636444e-05
3.2769355e-05
4.9048213e-05
6.7222851e-05
2.7606685e-06
9.3065604e-06
2.1775289e-05
3.5150773e-05
5.0729141e-05
6.8646684e-05
8.8385414e-05
4.0186006e-06
1.1052535e-05
2.486473e-05
3.8407984e-05
5.37868e-05
7.0519903e-05
8.9912893e-05
0.0001109347
5.9947159e-06
1.3479816e-05
2.9041474e-05
4.3045887e-05
5.7882764e-05
7.3951596e-05
9.1793367e-05
0.00011246623
0.00013465418
9.0226695e-06
1.6718951e-05
3.4678092e-05
4.9206893e-05
6.3608846e-05
7.8448593e-05
9.530967e-05
0.0001141807
0.00013613364
0.00015944282
1.3263569e-05
2.0964564e-05
4.2148442e-05
5.7334063e-05
7.1067432e-05
8.4664775e-05
9.9803517e-05
0.0001175427
0.00013756168
0.00016083415
0.00018526271
1.7501111e-05
2.6278447e-05
5.1936896e-05
6.7822119e-05
8.0742283e-05
9.2610304e-05
0.00010597903
0.00012171521
0.00014060283
0.00016189786
0.00018655486
0.00021208775
2.0069584e-05
3.3160498e-05
6.4714363e-05
8.1318892e-05
9.3062152e-05
0.00010275292
0.00011374643
0.00012745241
0.00014424165
0.00016452342
0.00018721702
0.00021329276
0.00023993795
2.3239591e-05
4.4310869e-05
8.230602e-05
9.8941161e-05
0.00010876684
0.00011545534
0.00012354328
0.00013456279
0.00014929122
0.00016751289
0.00018939465
0.00021355373
0.00024107851
0.00026877816
3.1308617e-05
6.4711917e-05
0.00010915768
0.00012319731
0.00012912036
0.000131413
0.00013564467
0.00014345019
0.00015546706
0.00017175384
0.00019170752
0.00021530874
0.00024096084
0.00026989206
0.000298643
4.5952353e-05
0.00010201852
0.00015229303
0.00015936094
0.00015684565
0.00015188272
0.00015068216
0.00015430972
0.00016315048
0.00017687917
0.00019513331
0.00021699179
0.00024235272
0.00026944535
0.00029976457
0.0003294689
6.8199646e-05
0.00016201896
0.00022263752
0.00021600965
0.00019717601
0.00017945525
0.00016980947
0.00016772303
0.00017248876
0.00018326685
0.00019922765
0.00021968346
0.000243505
0.00027057046
0.0002990379
0.0003306344
0.00036127967
9.7662568e-05
0.00024405266
0.0003295794
0.00030582764
0.00025958275
0.00021931021
0.00019533792
0.00018470265
0.00018403626
0.0001910358
0.0002043717
0.00022286941
0.00024561289
0.00027133828
0.00029999824
0.00032968566
0.00036252387
0.00039399825
0.00013085023
0.00034448596
0.00047155512
0.00044222891
0.00035844326
0.00028102271
0.00023205334
0.00020727313
0.00019868756
0.00020071581
0.00021066964
0.00022694448
0.00024809418
0.00027307013
0.00030054544
0.0003305993
0.00036140258
0.00039534078
0.00042761739
0.00016207359
0.00045214563
0.00064101526
0.00062550389
0.00050897458
0.00037866912
0.00028894443
0.00023966242
0.00021818818
0.00021309049
0.00021862696
0.00023198367
0.00025134975
0.00027511966
0.00030214071
0.00033111234
0.00036236306
0.00039408423
0.00042907296
0.00046207644
0.00018687685
0.00055729515
0.00081958991
0.00084587578
0.00071383263
0.0005291675
0.00037976996
0.00028994024
0.00024614507
0.00022972478
0.00022895121
0.00023844589
0.00025541786
0.00027789299
0.00030408159
0.00033284171
0.00036301181
0.00039517649
0.00042771327
0.00046364231
0.00049735178
0.00019962636
0.00064757376
0.00099056532
0.0010802713
0.00096206132
0.00073987911
0.00052270555
0.00037226532
0.00028969911
0.00025361287
0.00024304223
0.00024698932
0.0002606952
0.00028136863
0.00030677409
0.00033504634
0.00036514161
0.0003961261
0.00042900303
0.0004621799
0.00049901679
0.00053340469
0.00020114698
0.00071091542
0.0011419227
0.0013026279
0.0012306659
0.0010008434
0.00072921732
0.00050404303
0.00036226278
0.00029092075
0.00026344282
0.00025886328
0.00026778546
0.00028587887
0.00031012456
0.00033813367
0.0003679966
0.00039892085
0.00043037387
0.00046368632
0.00049744059
0.00053514277
0.00057021009
0.00019915421
0.00074826493
0.0012647482
0.0014988913
0.0014903891
0.0012907493
0.00099275698
0.00069925428
0.0004803244
0.00035329052
0.00029525453
0.00027628174
0.00027780367
0.00029193535
0.00031439219
0.00034193851
0.00037200205
0.00040282362
0.00043405044
0.00046556123
0.00049916472
0.00053341308
0.00057198893
0.00060774603
0.00019756581
0.00076988145
0.0013437551
0.0016613151
0.0017215365
0.0015790388
0.0012957251
0.00095832415
0.00066102187
0.00045740989
0.00034835224
0.00030327286
0.00029260799
0.00030048117
0.00031996288
0.00034663567
0.00037693011
0.00040830374
0.00043935969
0.00047029859
0.00050158488
0.00053530155
0.00057005331
0.00060952352
0.00064599976
0.00019797099
0.00078730161
0.0013903027
0.0017622341
0.0019128529
0.0018396028
0.0016055446
0.0012659912
0.00091079637
0.00062254829
0.00043931866
0.00034806856
0.0003155322
0.00031310845
0.00032759458
0.00035244953
0.00038285905
0.00041510249
0.00044685713
0.0004773302
0.00050748234
0.00053823455
0.00057203005
0.00060731191
0.00064772785
0.0006849605
0.00020004399
0.00079841158
0.0014242778
0.0018134853
0.002041335
0.0020591623
0.00189431
0.001593752
0.0012176229
0.00085894718
0.00058692185
0.00042538452
0.00035296182
0.00033254061
0.00033862068
0.00035996172
0.00038986136
0.00042321188
0.0004562978
0.00048734931
0.00051645985
0.0005453137
0.00057541151
0.00060926184
0.00064515855
0.00068658882
0.00072460912
0.00020140657
0.00080082617
0.0014399397
0.0018389802
0.0021067961
0.0022238154
0.0021455093
0.0019089846
0.0015577691
0.0011592088
0.00080529344
0.00055344765
0.00041704262
0.00036361614
0.0003552716
0.00037018404
0.00039829613
0.00043256067
0.00046762152
0.00050019292
0.00052941113
0.00055636437
0.00058361436
0.00061294824
0.00064694942
0.00068357149
0.00072609464
0.00076491502
0.00020067791
0.00079375606
0.0014370801
0.0018414771
0.0021341915
0.0023170733
0.0023461281
0.0021910402
0.0018960624
0.0015053872
0.0010946031
0.00075142222
0.00052642042
0.00041619774
0.00038118915
0.00038494077
0.00040890002
0.00044327183
0.0004806318
0.00051579953
0.00054633132
0.00057254837
0.00059673407
0.00062211418
0.00065076568
0.00068504716
0.00072254035
0.00076623135
0.00080587305
0.00019653866
0.00077696742
0.0014192733
0.0018227989
0.0021371673
0.0023584518
0.0024763665
0.0024266714
0.0022074331
0.0018632658
0.0014396055
0.0010253475
0.00070101633
0.00050689403
0.0004238617
0.00040711786
0.0004230514
0.00045579934
0.00049524384
0.00053390316
0.00056723625
0.00059408731
0.00061628699
0.0006371901
0.00066067864
0.00068876779
0.00072353605
0.00076206378
0.00080698986
0.00084752109
0.00018494766
0.00075450791
0.0013893097
0.0017899869
0.0021168384
0.0023715257
0.0025452264
0.0026044366
0.0024815098
0.0022033509
0.0018114108
0.0013619586
0.00095246095
0.00065469558
0.00049689588
0.00044191709
0.00044300501
0.00047108848
0.00051163277
0.00055426868
0.00059187319
0.00062117958
0.00064279376
0.00066007792
0.00067748358
0.00069913388
0.00072693284
0.00076242173
0.0008021464
0.00084836809
0.00088985157
0.00016895129
0.00071725719
0.001351173
0.0017444727
0.0020822457
0.0023612319
0.002577646
0.0027117594
0.0027072297
0.0025144392
0.0021782561
0.0017393827
0.0012739428
0.00087777446
0.00061903566
0.00050016628
0.000472523
0.00049084952
0.00053034881
0.00057679982
0.00061992972
0.00065370179
0.00067675166
0.0006916812
0.00070348088
0.0007173127
0.00073743722
0.00076525593
0.00080172455
0.00084279296
0.00089035357
0.00093271545
0.00014812913
0.00067114889
0.0012841821
0.0016937061
0.0020346381
0.0023358351
0.0025876797
0.0027711859
0.0028586733
0.0027822914
0.0025229021
0.0021269734
0.0016471464
0.0011790623
0.00081007827
0.00059881081
0.00051927645
0.00051792559
0.00055253466
0.00060168834
0.00065112117
0.00069136866
0.00071829106
0.00073290859
0.0007400504
0.00074603054
0.00075654743
0.00077551438
0.00080376263
0.00084146333
0.00088400676
0.00093290963
0.00097599427
0.00012270798
0.00060718683
0.0012059837
0.0016097893
0.0019841037
0.0022977497
0.0025808053
0.0028086367
0.0029563612
0.0029877854
0.0028328677
0.0025007794
0.0020473584
0.0015395628
0.0010815142
0.00075629415
0.00059735951
0.00055730777
0.00058030471
0.00062956797
0.00068530895
0.0007338118
0.00076729805
0.00078427866
0.00078861837
0.00078719302
0.00078743455
0.00079503776
0.00081340315
0.00084248338
0.00088166356
0.00092578355
0.00097600552
0.0010196914
9.735869e-05
0.00052554964
0.0010983438
0.0015203944
0.0018947265
0.0022587233
0.0025610938
0.0028277805
0.0030265591
0.0031347645
0.0030981871
0.0028500288
0.0024456543
0.0019412527
0.0014225719
0.00099013616
0.00072484291
0.00061964556
0.000616972
0.00066182269
0.0007227031
0.00078068165
0.0008234634
0.00084601345
0.00085022427
0.0008428237
0.00083257233
0.00082742574
0.00083279556
0.00085113086
0.00088147588
0.00092235678
0.00096810863
0.0010196001
0.0010638952
7.4358987e-05
0.00043664386
0.00096108215
0.0014032513
0.001806253
0.0021725971
0.0025420606
0.0028333154
0.0030776217
0.0032453272
0.0033033311
0.0031690545
0.0028275447
0.0023549317
0.0018149482
0.0013030305
0.00091841522
0.00072200581
0.00066951713
0.00070088819
0.0007640617
0.0008318452
0.00088639599
0.0009180598
0.00092559847
0.0009146097
0.00089463917
0.00087571939
0.00086592527
0.00086982393
0.00088879724
0.00092080468
0.00096357036
0.0010109653
0.0010636045
0.0011086236
5.4639675e-05
0.00035088383
0.00080893112
0.0012546079
0.0016890252
0.0020953057
0.0024662926
0.0028397048
0.0031132554
0.0033360225
0.0034655036
0.0034386327
0.0031931891
0.0027640533
0.0022343647
0.0016772724
0.0011915658
0.00087882469
0.00075247406
0.00075091948
0.00081090744
0.00088751024
0.00095574147
0.0010001608
0.0010151378
0.0010039503
0.00097606252
0.00094327797
0.00091638556
0.00090289208
0.00090625593
0.00092649528
0.00096054145
0.001005324
0.0010543597
0.0011080068
0.0011537712
3.9189466e-05
0.00027321454
0.00066228902
0.0010808374
0.0015378689
0.0019849355
0.00240898
0.002777191
0.0031500293
0.0034104174
0.0036043333
0.0036627916
0.003528195
0.0031676327
0.0026631422
0.0020922136
0.0015391859
0.0011075513
0.00088073633
0.00082149244
0.00086597198
0.00094847519
0.0010313475
0.0010919732
0.0011189702
0.0011119116
0.0010790638
0.0010333364
0.00098821944
0.0009544289
0.00093844823
0.00094221294
0.00096435907
0.0010007514
0.0010476189
0.0010982591
0.0011527889
0.0011992842
2.9140778e-05
0.00020953038
0.00052836817
0.00090862113
0.0013556936
0.0018412688
0.0023127599
0.0027444238
0.003102441
0.0034858991
0.0037262467
0.0038568103
0.00381622
0.003556117
0.0030961893
0.0025317956
0.0019403896
0.0014170173
0.0010664087
0.00092881343
0.00093458155
0.0010164237
0.001113397
0.0011931677
0.0012370224
0.0012392395
0.0012055593
0.0011490412
0.0010854969
0.0010291194
0.0009899156
0.00097275322
0.00097790352
0.0010025091
0.0010414936
0.0010904547
0.0011426198
0.0011978933
0.0012450713
2.5270264e-05
0.00016502557
0.00041745185
0.00075105169
0.0011655036
0.0016593899
0.0021835741
0.0026660775
0.0030985224
0.0034581216
0.0038508944
0.004035116
0.0040687184
0.0039127037
0.0035294341
0.0029893773
0.0023804999
0.0017921216
0.0013284157
0.0010832204
0.0010297816
0.0010941655
0.0012027084
0.0013035511
0.0013690246
0.001386403
0.001357158
0.0012933202
0.0012123434
0.0011318589
0.001065916
0.0010230133
0.0010060771
0.001013516
0.0010410796
0.0010828079
0.0011338242
0.0011873944
0.0012432661
0.0012909998
0.00014373436
2.7848895e-05
0.00033926525
0.00062039461
0.00099182601
0.0014580181
0.0020076872
0.0025530343
0.0030406586
0.003488265
0.0038529396
0.0042183786
0.0043081492
0.0042333671
0.003953287
0.0034614676
0.0028539187
0.0022208001
0.0016660795
0.0012999975
0.001165622
0.0011892386
0.001300841
0.0014233645
0.0015147937
0.0015535937
0.0015351544
0.0014688516
0.001372811
0.0012677586
0.0011721123
0.0010987245
0.0010540439
0.0010387055
0.0010492843
0.001080173
0.0011247261
0.0011777044
0.0012325241
0.0012888393
0.0013369638
0.00030131257
0.00014765185
3.6945682e-05
0.00052847569
0.00084744854
0.0012736542
0.0018009333
0.0023859998
0.0029442239
0.0034560892
0.0039298998
0.0042584851
0.0045574983
0.0045367517
0.0043441501
0.0039366876
0.0033555834
0.0026984873
0.0020690953
0.001590547
0.0013487629
0.0013167356
0.0014112623
0.0015532921
0.0016741766
0.0017408855
0.0017405404
0.0016780275
0.0015708141
0.0014420581
0.0013145761
0.0012062373
0.0011278972
0.0010833852
0.0010709831
0.0010853939
0.0011198905
0.0011672599
0.0012220593
0.0012779429
0.001334536
0.0013828919
0.0004838124
0.00030701526
0.00017661322
5.2445277e-05
0.00074579439
0.00112017
0.001606949
0.00217918
0.002789797
0.0033804709
0.0039327693
0.0043964195
0.0046443217
0.004857577
0.0047196503
0.0044014059
0.0038757909
0.0032200377
0.0025357949
0.0019550397
0.0015927041
0.0014860125
0.0015444458
0.001694554
0.0018473053
0.0019481899
0.0019740222
0.0019229567
0.0018100539
0.0016599948
0.0014997149
0.0013524967
0.0012345517
0.0011539054
0.0011115104
0.0011032115
0.0011220485
0.0011602992
0.0012104078
0.0012668421
0.0013235806
0.0013802714
0.0014287161
0.00069606586
0.00049057893
0.00035580948
0.00022805818
7.3913361e-05
0.0010130912
0.0014465488
0.0019764016
0.0025859819
0.003242942
0.0038858436
0.0044461266
0.0048523534
0.0049988811
0.005120609
0.0048580406
0.0044093838
0.0037785774
0.0030639151
0.0023929965
0.0019121057
0.0016983054
0.0017150706
0.0018522256
0.0020345856
0.0021755016
0.0022361009
0.0022053989
0.002094038
0.0019267602
0.0017341231
0.0015450065
0.0013817
0.0012575971
0.0011773691
0.001138914
0.0011357288
0.0011594042
0.001201455
0.001254149
0.0013119956
0.0013693664
0.0014259723
0.0014743588
0.0009618687
0.00070294085
0.00054717848
0.00044255665
0.00029730796
0.00010002282
0.0013357572
0.0018088545
0.0023739937
0.003043076
0.0037725789
0.0044416253
0.0049602181
0.0052915629
0.0053254677
0.0053457958
0.0049480383
0.0043670448
0.0036470056
0.002908382
0.0023093196
0.0019745509
0.0019197794
0.0020394065
0.0022375998
0.0024228543
0.0025270698
0.0025268294
0.0024259348
0.0022474393
0.0020245721
0.0017917089
0.0015778434
0.0014027453
0.0012761489
0.0011989785
0.001166091
0.0011688262
0.0011976033
0.0012433816
0.0012984492
0.0013574547
0.0014152225
0.0014715632
0.0015197453
0.0012848868
0.00097152155
0.00076442086
0.00064691867
0.00055828601
0.00037799348
0.00012956386
0.0016939825
0.0021991044
0.0028209492
0.0035785773
0.004364725
0.0050091452
0.0054688938
0.0057143804
0.0056255988
0.0055292684
0.004984668
0.0042800966
0.0034973732
0.002792521
0.0023275121
0.0021681792
0.0022624212
0.0024631073
0.0026902394
0.0028470388
0.002888389
0.0028085861
0.0026269009
0.0023778508
0.0021009181
0.0018321448
0.001598674
0.0014165451
0.0012911164
0.0012194569
0.0011935089
0.0012027685
0.0012367407
0.0012860859
0.0013432597
0.0014031487
0.0014610707
0.0015169677
0.0015648018
0.001643463
0.0012990197
0.0010392117
0.00087231314
0.00077846424
0.00069137759
0.00046358367
0.00016069599
0.0020795964
0.0026367227
0.0033448717
0.0041851066
0.0049795101
0.0055843671
0.0059757954
0.0061241204
0.0058945056
0.0056611421
0.0049610118
0.0041564648
0.0033648841
0.0027688291
0.0024859649
0.0025143863
0.0027238512
0.0029797176
0.0031955234
0.0032906946
0.0032444095
0.00306969
0.0028007037
0.0024811823
0.0021543938
0.0018556315
0.0016085114
0.0014242523
0.001303498
0.0012395182
0.0012216086
0.0012377668
0.0012768872
0.0013295486
0.0013885231
0.0014490032
0.0015068299
0.0015621089
0.0016094636
0.0020294518
0.0016623244
0.0013746616
0.0011556484
0.0010136705
0.00092796649
0.00082919777
0.00054733338
0.0001904492
0.0025105235
0.0031477936
0.0039418457
0.0048259512
0.0056133728
0.0061720195
0.0064849869
0.006517676
0.0061193136
0.0057326163
0.0048841491
0.00402739
0.0033067948
0.0028860106
0.0028169327
0.0030145344
0.0033008777
0.0035725061
0.0037338635
0.0037353
0.0035799601
0.0032996585
0.0029412353
0.0025548824
0.0021847273
0.0018631618
0.0016087559
0.0014271891
0.001314326
0.0012598461
0.0012507698
0.0012739926
0.0013180772
0.0013737389
0.0014341693
0.0014949327
0.0015524172
0.0016069159
0.0016536704
0.0024593862
0.0020536258
0.0017461069
0.0015007588
0.0013062007
0.001171959
0.0010795591
0.00096287921
0.00061843279
0.00021305814
0.0030110958
0.0037316235
0.004585306
0.0054981069
0.0062720603
0.0067787455
0.0069945559
0.0068817526
0.0062874466
0.0057384761
0.0047786496
0.0039492749
0.0033824676
0.0031900047
0.003335429
0.0036583794
0.0039829943
0.0042174929
0.0042822632
0.0041612228
0.0038809138
0.003489719
0.0030442818
0.0025978478
0.0021927288
0.0018563366
0.0016010788
0.0014267771
0.0013246146
0.0012810575
0.0012813201
0.0013115687
0.0013603231
0.0014186014
0.0014801113
0.001540845
0.0015977594
0.001651331
0.0016973659
0.0029554929
0.0024886007
0.0021463765
0.0018819134
0.0016605847
0.0014715937
0.0013299228
0.0012186351
0.001071807
0.00066314902
0.00022658246
0.0035827155
0.0043655383
0.0052715902
0.0062105476
0.0069655568
0.0074059463
0.0074929299
0.0071945315
0.006388225
0.005692119
0.0046983347
0.0039904927
0.0036492615
0.0037099593
0.0040399553
0.0044332141
0.0047427383
0.00488528
0.0048160231
0.0045499755
0.0041350926
0.003633416
0.0031075302
0.0026104982
0.0021801168
0.0018372344
0.0015873814
0.0014244533
0.0013353066
0.0013036947
0.001313523
0.0013505793
0.001403599
0.0014640539
0.0015262487
0.0015866645
0.0016428074
0.0016953021
0.0017404883
0.0035208074
0.0029877932
0.0025909217
0.0022928867
0.0020502485
0.0018318814
0.0016322368
0.0014627438
0.0013162
0.0011364518
0.00067819151
0.00023250372
0.0042071335
0.0050461698
0.0060072889
0.0069744475
0.0076968764
0.0080406202
0.0079533761
0.007440917
0.0064204196
0.0056366186
0.0047159884
0.004219186
0.0041531869
0.0044594543
0.0049153435
0.0053131098
0.0055433039
0.0055451358
0.005311257
0.0048851479
0.004333123
0.0037267738
0.0031307053
0.0025945374
0.0021493787
0.001808303
0.0015696332
0.0014216002
0.0013472588
0.0013282257
0.0013475744
0.0013910541
0.0014478366
0.0015099902
0.0015725052
0.0016323547
0.0016875108
0.0017387471
0.0017850329
0.0041406563
0.0035554456
0.0030995509
0.0027493063
0.0024701566
0.0022269945
0.0019913775
0.0017501054
0.0015405685
0.0013601928
0.0011534262
0.0006769406
0.00022827947
0.0048799857
0.0057792289
0.0068047986
0.0077967681
0.0084578056
0.0086576356
0.0083505719
0.0076112857
0.0064096161
0.0056514326
0.0049083402
0.0046928839
0.0049260762
0.0054264803
0.0059258528
0.0062586748
0.0063477194
0.0061672818
0.0057465186
0.0051536736
0.0044687106
0.0037683335
0.0031152648
0.0025527882
0.0021035472
0.0017721591
0.0015497769
0.0014195084
0.0013612345
0.0013550262
0.0013835901
0.0014329534
0.0014929334
0.0015563384
0.0016188602
0.0016778667
0.0017317471
0.0017833258
0.0018320123
0.0048098119
0.0041796446
0.0036768022
0.0032702785
0.0029365703
0.0026527294
0.0023795198
0.0020876621
0.0017987781
0.001557437
0.0013538351
0.0011493489
0.00065540112
0.00021732455
0.0056063101
0.0065768911
0.0076744978
0.0086721994
0.0092220618
0.0092236355
0.0086678466
0.0077106903
0.0064260218
0.0058203534
0.0053429497
0.0054621703
0.0059676125
0.0065718851
0.0070289297
0.0072242976
0.0071186215
0.0067240232
0.0061043077
0.0053462617
0.0045388114
0.0037590444
0.0030642635
0.0024889123
0.0020460139
0.0017314565
0.0015296766
0.0014193509
0.0013778698
0.0013843566
0.0014215908
0.0014761971
0.001538836
0.0016031001
0.0016652628
0.0017230085
0.0017769052
0.0018301933
0.0018801574
0.0055317372
0.0048540744
0.004312684
0.0038597131
0.0034669572
0.003126208
0.0027925341
0.0024505832
0.0020995892
0.0017837146
0.0015219809
0.0013338443
0.0011078412
0.00062038253
0.00020047812
0.0063980395
0.0074507106
0.0086124713
0.0095784952
0.0099567289
0.0097099538
0.00890453
0.0077927299
0.0065549565
0.0062235282
0.0060849664
0.006549185
0.0072387805
0.0078391681
0.0081710101
0.0081631275
0.0078194925
0.0071921588
0.0063714278
0.0054576186
0.0045434283
0.0037020123
0.0029819874
0.0024071721
0.0019803127
0.0016887936
0.0015110715
0.0014221318
0.0013976236
0.0014163342
0.0014615498
0.0015207636
0.0015855714
0.0016502119
0.0017114363
0.0017688898
0.0018243602
0.0018784358
0.0019294629
0.0063184949
0.0055800736
0.0049991896
0.0045086572
0.0040647256
0.0036595065
0.0032479638
0.002834179
0.0024240246
0.0020466624
0.0017104191
0.0014813125
0.00127185
0.0010460308
0.0005688252
0.00017939366
0.0072674606
0.0083977844
0.0095993808
0.010476386
0.010622093
0.010106147
0.0090820211
0.0079310511
0.0068830206
0.0069345729
0.0071751393
0.0079265961
0.0086755781
0.0091685442
0.0092973863
0.0090310587
0.0084212181
0.0075540766
0.0065396541
0.0054863676
0.0044854415
0.0036020786
0.0028736512
0.002312159
0.0019099791
0.0016466466
0.0014954816
0.0014286241
0.0014207774
0.0014510272
0.0015035016
0.0015667113
0.0016330538
0.0016973006
0.0017582485
0.0018171935
0.0018734001
0.0019280496
0.0019799142
0.0071826981
0.006370148
0.0057360086
0.0052072574
0.0047212064
0.0042590046
0.0037611954
0.0032543486
0.0027689151
0.0023309637
0.0019286872
0.0016415013
0.0013914475
0.0011902934
0.00096129058
0.00050297493
0.00015688738
0.0082129694
0.0094008242
0.010597588
0.01131494
0.011194827
0.010419994
0.0092668168
0.0082203237
0.007490257
0.0080081301
0.0086106307
0.0095228819
0.010200973
0.010500364
0.010353957
0.0097913255
0.0089008388
0.007797766
0.0066055682
0.0054347602
0.0043700939
0.0034654627
0.0027450497
0.002208569
0.0018384319
0.0016072438
0.001484115
0.0014393663
0.001447559
0.0014885682
0.0015475427
0.0016139198
0.0016807984
0.0017450303
0.0018077524
0.0018673181
0.0019240538
0.0019790046
0.0020314939
0.0081232913
0.0072385171
0.006536286
0.005953491
0.0054260581
0.0049093305
0.0043317247
0.0037247988
0.0031468244
0.0026334605
0.0021659097
0.0018259339
0.0015142505
0.0012835937
0.0010847647
0.00085565851
0.00042661827
0.00013463651
0.0092155482
0.010421627
0.011553058
0.012056766
0.011670069
0.010700275
0.0095451133
0.0087442479
0.0084422708
0.0094638273
0.010326663
0.01124145
0.011740171
0.011769923
0.011295666
0.010413873
0.0092420089
0.0079172157
0.0065704298
0.0053082168
0.0042045905
0.0032993132
0.0026022839
0.0021010158
0.001768809
0.0015724042
0.00147788
0.0014548186
0.0014782662
0.0015291032
0.0015935043
0.001661783
0.0017293126
0.0017958895
0.0018593335
0.0019193482
0.0019762689
0.0020312753
0.002084178
0.0091164017
0.0081832237
0.0074158525
0.0067616103
0.0061743241
0.0055952855
0.004945726
0.0042430715
0.0035700207
0.0029651998
0.0024181598
0.0020285853
0.0016558786
0.0013721393
0.0011522824
0.00096083321
0.0007318942
0.00034759967
0.00011363421
0.01023474
0.011419246
0.012421478
0.012687446
0.012079199
0.011027941
0.010004006
0.0095707074
0.0097737023
0.011254306
0.012212459
0.012993407
0.013230811
0.012919912
0.012088401
0.010877603
0.0094351321
0.0079120042
0.0064394186
0.0051148147
0.0039975622
0.0031113482
0.0024514546
0.0019937943
0.0017037604
0.0015435632
0.0014776058
0.0014754973
0.0015131089
0.0015723918
0.0016406492
0.001710739
0.0017815924
0.0018491121
0.0019131629
0.001973202
0.0020300151
0.0020848204
0.0021379411
0.010119948
0.0091740286
0.0083717269
0.0076487491
0.0069801909
0.006316095
0.0055849106
0.0047956726
0.0040335457
0.0033362109
0.0026966118
0.0022456653
0.0018127672
0.0014737318
0.001208547
0.0010051393
0.00082067696
0.00060036144
0.00027217713
9.3933075e-05
0.01123
0.012351155
0.013180681
0.013227197
0.012495096
0.011478935
0.010715632
0.010751021
0.011461117
0.013267592
0.014160925
0.014704136
0.014608615
0.013907129
0.012702999
0.011167981
0.009477298
0.0077865287
0.0062212806
0.0048646727
0.0037585624
0.0029094559
0.0022983023
0.001890625
0.0016454715
0.0015220717
0.0014841599
0.0015017211
0.0015517464
0.0016175702
0.0016894481
0.0017643582
0.0018365748
0.0019049977
0.0019691304
0.0020288527
0.0020852383
0.0021395983
0.0021927511
0.011097914
0.010170465
0.0093670862
0.0086099977
0.0078662737
0.0070871217
0.0062463321
0.0053645265
0.0045196372
0.0037391275
0.0030067207
0.0024867476
0.0019820278
0.0015879399
0.0012719065
0.0010324343
0.00084608898
0.0006741859
0.0004745402
0.00020449321
7.6045901e-05
0.012160838
0.013178393
0.013837217
0.013740167
0.012988868
0.012120588
0.011741217
0.012279026
0.013421573
0.015378204
0.016082276
0.016308001
0.015816743
0.014700695
0.013118454
0.011279101
0.0093714261
0.007549815
0.0059275302
0.0045693827
0.0034975638
0.0027011962
0.0021479444
0.0017947368
0.0015960303
0.0015092717
0.0014979804
0.0015330292
0.0015932067
0.0016653025
0.0017441204
0.0018210852
0.0018947313
0.0019634097
0.0020272103
0.0020862333
0.0021418828
0.0021955551
0.0022485734
0.012011815
0.011138759
0.010362856
0.0096014061
0.0088235833
0.0079293226
0.0069442714
0.0059466978
0.0050113748
0.0041569837
0.0033408465
0.0027553086
0.0021721663
0.0017123963
0.001346875
0.0010617635
0.00085012607
0.00068469353
0.00053480822
0.00036019315
0.00014802957
6.0244465e-05
0.012989184
0.013900969
0.014449554
0.01430228
0.013615766
0.013024194
0.013083739
0.014095286
0.015533719
0.017481654
0.017900451
0.017753863
0.016813925
0.015275832
0.013325639
0.011211681
0.0091262115
0.0072145419
0.0055718693
0.0042413103
0.003224325
0.0024934356
0.0020049614
0.0017092408
0.0015574282
0.0015057896
0.0015184264
0.0015683842
0.0016385469
0.0017205148
0.0018024129
0.0018816244
0.0019558887
0.0020243207
0.0020873327
0.0021452749
0.0021998786
0.0022526349
0.0023053664
0.012822811
0.012038359
0.01132776
0.010585569
0.0098010068
0.0088301889
0.007698291
0.0065568062
0.0055059715
0.0045718202
0.0036799189
0.0030432464
0.0023845612
0.0018551837
0.0014306629
0.0011018857
0.00085333361
0.00067247018
0.00053526633
0.00040865358
0.00026393011
0.00010449311
4.6313029e-05
0.013712067
0.01456721
0.015093815
0.01495883
0.014444663
0.014198834
0.014693284
0.016106111
0.017686734
0.019490612
0.019567
0.018992384
0.017575176
0.0156135
0.013321536
0.010973176
0.008755097
0.0067964502
0.0051693149
0.0038927819
0.0029478938
0.0022924884
0.0018738049
0.0016369851
0.0015305345
0.0015108576
0.0015444849
0.0016095011
0.0016934498
0.0017800038
0.0018653255
0.0019457477
0.0020200245
0.0020876541
0.0021494158
0.0022058959
0.0022591488
0.0023107703
0.0023630993
0.013530149
0.012832042
0.012217478
0.011536841
0.010756061
0.0097332964
0.0084878104
0.0072061105
0.0060171163
0.0049792909
0.0040050164
0.0033306611
0.0026102479
0.0020165834
0.0015301574
0.001150161
0.00086607371
0.00065721141
0.00051198064
0.00040409112
0.00030359252
0.00019120828
7.2686742e-05
3.3908068e-05
0.014374723
0.01525008
0.015814195
0.015766551
0.015501171
0.015602111
0.016504677
0.01821809
0.019788653
0.021352561
0.021043344
0.01998352
0.018087335
0.015707951
0.013111628
0.01057722
0.0082756018
0.006313363
0.0047351909
0.003535519
0.0026767702
0.0021045389
0.0017584806
0.0015791707
0.0015144401
0.0015236094
0.0015788857
0.0016628405
0.0017534999
0.001845141
0.0019325539
0.0020134468
0.0020870542
0.0021533217
0.0022133666
0.0022679993
0.0023196032
0.0023699067
0.0024217245
0.014174564
0.013524638
0.013003896
0.012414663
0.01166506
0.010597909
0.0092594527
0.0078760854
0.0065541863
0.005393723
0.004315
0.0036008294
0.0028316505
0.0021879833
0.0016458291
0.001212317
0.00088675528
0.00065038695
0.0004846112
0.00037702665
0.00029868335
0.00022435372
0.00013876803
5.0442577e-05
2.4191854e-05
0.015045088
0.015998959
0.016656588
0.016756567
0.016738327
0.017173338
0.018451274
0.020337678
0.021773635
0.023030721
0.022291922
0.02069983
0.018333104
0.015557614
0.01270885
0.010042359
0.0077082874
0.0057839069
0.00428434
0.0031807562
0.0024193632
0.001935094
0.0016606695
0.0015347607
0.0015086361
0.0015479596
0.0016288564
0.0017224887
0.0018205196
0.0019155171
0.002004111
0.0020846274
0.0021568846
0.0022212201
0.0022790684
0.0023314746
0.0023811721
0.0024299724
0.0024811936
0.014822945
0.014152512
0.013690716
0.013191844
0.012491462
0.011405246
0.0099803273
0.0085098651
0.0070937633
0.0058218873
0.0046222312
0.0038503944
0.0030320604
0.0023523843
0.0017694329
0.0012885748
0.00091991934
0.00065214175
0.00046557544
0.00034629227
0.00027391209
0.00022182089
0.00016736424
0.00010090556
3.5168713e-05
1.6428716e-05
0.0157801
0.016858855
0.017648899
0.017881382
0.01808262
0.018860269
0.020454896
0.022393645
0.023602103
0.024507863
0.023271875
0.021120054
0.018292336
0.015173433
0.0121312
0.0093913281
0.0070752775
0.0052265979
0.0038313898
0.0028397344
0.002183086
0.0017865318
0.0015792264
0.0015038506
0.0015185797
0.0015920211
0.0016867103
0.001790811
0.0018939577
0.0019911746
0.0020798891
0.0021591919
0.0022294021
0.002291217
0.0023463911
0.0023962355
0.0024437636
0.0024908904
0.0025414538
0.015540642
0.014777806
0.014308871
0.013873371
0.013219585
0.012128291
0.010638624
0.009090042
0.0075907461
0.0062402527
0.0049293789
0.0040905002
0.0032098203
0.0024955423
0.0018860354
0.0013718663
0.00096543207
0.00066657203
0.00045662497
0.0003235098
0.00024604286
0.00020243797
0.0001678461
0.00012630437
7.3940094e-05
2.4868071e-05
1.062631e-05
0.016626391
0.01785496
0.018749063
0.019063077
0.019490622
0.020626446
0.022442985
0.024338625
0.025252042
0.025770484
0.023928544
0.021231932
0.017970776
0.014573153
0.011402614
0.0086496223
0.0063991655
0.0046600967
0.0033911497
0.0025222892
0.0019712541
0.0016576369
0.0015151716
0.0014936889
0.0015532641
0.0016461253
0.0017554443
0.0018670692
0.0019738905
0.0020719869
0.0021597854
0.0022370177
0.0023044617
0.002363162
0.0024152395
0.0024621763
0.0025072732
0.0025525755
0.0026024509
0.016379912
0.015470662
0.014917899
0.014485808
0.013852147
0.012755047
0.011224355
0.0096058096
0.0080326577
0.0066144005