/*--------------------------------*- C++ -*----------------------------------*\
| =========                 |                                                 |
| \\      /  F ield         | OpenFOAM: The Open Source CFD Toolbox           |
|  \\    /   O peration     | Version:  5.0                                   |
|   \\  /    A nd           | Web:      www.OpenFOAM.org                      |
|    \\/     M anipulation  |                                                 |
\*---------------------------------------------------------------------------*/
FoamFile
{
    version     2.0;
    format      ascii;
    class       volVectorField;
    location    "320";
    object      U;
}
// * * * * * * * * * * * * * * * * * * * * * * * * * * * * * * * * * * * * * //

dimensions      [0 1 -1 0 0 0 0];

internalField   nonuniform List<vector> 
9200
(
(1.0389115 0.00074313491 -1.5902052e-24)
(1.0390925 0.002370213 7.8183973e-22)
(1.0366736 0.00074448154 0)
(1.0393756 0.0037735919 -4.1300467e-22)
(1.0368295 0.002395218 6.8240208e-22)
(1.0356871 0.00073353733 0)
(1.0397648 0.0051741061 -4.1492124e-23)
(1.0370978 0.0038185999 1.1251925e-23)
(1.03583 0.0023734989 0)
(1.0342402 0.00070576357 0)
(1.0402111 0.0064572822 8.5195784e-22)
(1.0374561 0.0052469392 6.3104607e-22)
(1.0360816 0.0037890817 3.8717058e-22)
(1.0343597 0.0022953491 2.3658877e-23)
(1.0331301 0.0006705891 2.206089e-25)
(1.0407122 0.007658789 8.1586354e-22)
(1.0378958 0.0065737232 -3.1668533e-23)
(1.0364161 0.0052147411 1.2912038e-21)
(1.0345838 0.003667711 5.2895021e-22)
(1.0332337 0.0021846535 1.6159562e-23)
(1.0320329 0.00063291967 -9.9735621e-22)
(1.0412443 0.0087412511 8.4000518e-22)
(1.0384273 0.0078438289 9.2895854e-22)
(1.0368243 0.0065574997 -7.7828412e-22)
(1.0348685 0.0050500886 -5.6768413e-23)
(1.0334382 0.0034899452 4.7987393e-22)
(1.0321227 0.0020577327 4.8665119e-22)
(1.0310661 0.00060153004 8.5577036e-23)
(1.0418221 0.0096702959 4.1244649e-22)
(1.0390638 0.0090423109 7.6704372e-22)
(1.0373175 0.0078732228 9.2844085e-22)
(1.0352035 0.0063647634 5.0390238e-23)
(1.0336896 0.0047963828 -1.2323594e-21)
(1.0323108 0.0032836582 -5.471977e-22)
(1.0311506 0.0019421395 -5.6364528e-22)
(1.0301709 0.00057878103 9.2897514e-22)
(1.0424527 0.01039847 -1.1126877e-21)
(1.0398468 0.010145451 8.1577969e-22)
(1.0379019 0.0091741655 4.5256355e-23)
(1.0355828 0.007669977 4.4499841e-22)
(1.0339727 0.0060342404 1.177363e-22)
(1.0325373 0.0044951597 -1.8395457e-21)
(1.0313328 0.0030960447 1.6685347e-22)
(1.030256 0.0018506084 -9.5862334e-22)
(1.0293436 0.00056282237 -1.972699e-21)
(1.043099 0.010901502 8.4678647e-22)
(1.0408361 0.01117242 -3.4621202e-22)
(1.0385926 0.010478934 -4.6149361e-23)
(1.0359848 0.0089986564 -1.8575798e-22)
(1.0342664 0.0072477448 -1.8789733e-22)
(1.0327857 0.0056298347 1.9899795e-22)
(1.0315556 0.004219957 6.4454717e-22)
(1.0304361 0.00295038 1.0806843e-21)
(1.0294331 0.0017863965 6.1255515e-22)
(1.0285669 0.00054945552 1.5826573e-22)
(1.0437699 0.011158178 -4.1384243e-22)
(1.042212 0.01205491 1.6143498e-22)
(1.0394346 0.01186034 6.2730265e-22)
(1.0363977 0.010403781 -7.4456522e-22)
(1.0345146 0.0084653754 5.4671175e-22)
(1.0330239 0.0067068078 -1.681258e-21)
(1.031806 0.005260976 6.4173472e-23)
(1.0306639 0.0040104255 1.6307394e-21)
(1.0296105 0.002853591 -8.1373151e-22)
(1.0286592 0.0017416503 1.7896781e-21)
(1.0278348 0.00053600246 -2.6997587e-22)
(1.0448298 0.010875749 9.7317792e-23)
(1.0437204 0.012794228 -4.411253e-22)
(1.0402648 0.013445289 -7.7907483e-22)
(1.0367786 0.011990762 0)
(1.0346759 0.0097283816 3.3360969e-23)
(1.0331891 0.0077391433 -2.943223e-22)
(1.0320591 0.0062163958 -3.3248093e-22)
(1.0309294 0.0049908406 -8.0672906e-22)
(1.0298426 0.0038803969 -2.0906036e-22)
(1.0288294 0.0027920512 -1.0315855e-21)
(1.0279251 0.0017042189 -7.0142448e-22)
(1.0271446 0.00052161637 1.6190243e-22)
(1.0462193 0.01000772 5.8877993e-23)
(1.0456363 0.013780448 -7.2302057e-23)
(1.0410909 0.015310398 0)
(1.0370317 0.01383049 0)
(1.0346182 0.011086238 -1.8651561e-22)
(1.0332356 0.0087235295 -1.8617961e-22)
(1.0322614 0.0070802844 -4.4810181e-22)
(1.0312236 0.0058781968 9.5259732e-22)
(1.0301186 0.0048410111 9.8358058e-23)
(1.0290565 0.0038068615 2.5133208e-24)
(1.028083 0.0027433776 1.1573981e-21)
(1.0272278 0.0016619285 -1.2480184e-21)
(1.0264982 0.00050523345 2.5799654e-21)
(1.0477568 0.0085314663 -8.8480926e-22)
(1.0483794 0.014854608 3.9252882e-23)
(1.0421804 0.017465601 -3.2865834e-22)
(1.0371403 0.015972512 1.1743379e-22)
(1.0342861 0.012570822 -6.9185738e-23)
(1.033075 0.0096674797 -1.4243519e-22)
(1.032379 0.0078139241 2.6363369e-22)
(1.0315102 0.0066586257 1.5136334e-23)
(1.0304484 0.0057210699 1.0646927e-21)
(1.029329 0.0047731332 9.9192374e-22)
(1.0282959 0.003751861 3.1956433e-22)
(1.0273704 0.0026852368 9.24434e-22)
(1.0265715 0.0016049692 6.2842237e-22)
(1.0258995 0.00048467094 -7.0696343e-22)
(1.0497072 0.0064806381 4.4071527e-22)
(1.0519692 0.016028326 1.4167677e-21)
(1.0435964 0.020105686 -3.5227749e-22)
(1.0370572 0.018546506 6.1232889e-23)
(1.0335994 0.014244459 -6.3597407e-23)
(1.0326161 0.010521352 2.7004984e-22)
(1.0323422 0.0083891468 2.5304047e-22)
(1.0317779 0.0072782024 -3.3707611e-22)
(1.0308149 0.0065100321 -9.4037037e-23)
(1.0296738 0.0056800342 -1.1775047e-22)
(1.0285492 0.0047300048 -1.9041478e-23)
(1.027559 0.0036795738 -1.4374697e-22)
(1.0266976 0.0026001149 -1.183358e-21)
(1.0259635 0.0015272871 5.9912966e-22)
(1.0253538 0.00045838289 -5.4037302e-22)
(1.0519291 0.0034180277 2.395329e-21)
(1.0564038 0.017168334 -1.8203046e-21)
(1.0453728 0.02346588 2.0248094e-22)
(1.0367028 0.021768175 -8.0959191e-23)
(1.0323641 0.016197533 -8.6325687e-23)
(1.0316999 0.011281635 -5.0794048e-22)
(1.0321284 0.0087105107 -2.2550005e-23)
(1.032014 0.0076725341 3.1734427e-23)
(1.0312343 0.0071515293 -2.0811927e-22)
(1.0300916 0.0065278926 -2.5950619e-22)
(1.0288773 0.0056729361 -2.061138e-21)
(1.0277772 0.0046610127 4.3313382e-22)
(1.0268578 0.003563967 3.6913523e-22)
(1.0260744 0.0024779285 1.8638815e-22)
(1.0254111 0.0014280022 3.9751901e-23)
(1.0248653 0.00042727085 6.0032719e-22)
(1.0545809 -3.8380055e-05 0)
(1.0615282 0.018514799 -2.4516057e-21)
(1.0474601 0.027769303 8.6483577e-22)
(1.0359927 0.02584023 0)
(1.0304067 0.018522925 0)
(1.0301699 0.01194323 0)
(1.0315734 0.00865452 1.1328912e-22)
(1.0323446 0.0077660308 4.7936644e-22)
(1.0317785 0.0075801665 3.4553851e-22)
(1.0306377 0.0072747128 6.1429372e-22)
(1.0292912 0.0066014007 9.3802367e-23)
(1.0280529 0.0056313829 4.5069894e-22)
(1.0270275 0.0045264487 3.1417824e-24)
(1.026207 0.0033902112 -4.2320696e-22)
(1.0255106 0.0023180594 -1.2581977e-22)
(1.0249193 0.0013117456 -2.9261757e-22)
(1.0244349 0.00039409267 0)
(1.0575251 -0.0043195254 4.827741e-21)
(1.0670406 0.019802779 5.921344e-21)
(1.0496051 0.033191132 -2.4428924e-21)
(1.0347389 0.030987123 1.1432327e-21)
(1.0275463 0.021343671 1.1244831e-21)
(1.0278275 0.012465515 0)
(1.030595 0.0081438981 7.6049454e-22)
(1.032573 0.0073240684 -2.3171908e-22)
(1.0325764 0.0077211131 4.3530951e-22)
(1.0314313 0.0078658364 4.0497242e-22)
(1.0298701 0.0075067157 -3.6866726e-22)
(1.0283921 0.006633321 1.2448275e-22)
(1.0272266 0.0054945182 7.4873989e-22)
(1.0263256 0.0043038025 -1.3952201e-21)
(1.0256216 0.0031574594 -3.8991812e-22)
(1.0250132 0.0021288044 -1.9697775e-21)
(1.0244895 0.0011871382 -7.8402492e-22)
(1.0240602 0.00036165832 -7.5481242e-22)
(1.0621945 -0.0090436845 -3.9201334e-22)
(1.0739363 0.021279127 4.1592293e-21)
(1.0515754 0.040002045 1.1431617e-21)
(1.0325627 0.037400251 4.0247908e-22)
(1.0235316 0.024781562 -2.2591224e-22)
(1.0244431 0.012823176 -5.4113409e-22)
(1.0290521 0.007032596 -1.9086345e-21)
(1.0326919 0.0062618248 -9.5218889e-22)
(1.033656 0.007488238 -1.0934158e-22)
(1.0324465 0.0082858696 -6.4922648e-22)
(1.0306754 0.0084067562 -9.4206895e-23)
(1.0288571 0.0077082093 -8.2672155e-22)
(1.0274336 0.0065247139 1.3220533e-22)
(1.0264407 0.0052227949 1.1785893e-22)
(1.0257005 0.0039934717 1.7799857e-22)
(1.0251128 0.0028793083 2.9779334e-22)
(1.0245846 0.0019246553 -6.506812e-22)
(1.0241194 0.0010640002 2.8270594e-23)
(1.0237357 0.00033223644 -7.1567053e-22)
(1.067051 -0.01690569 -3.7191982e-21)
(1.08486 0.022374405 -8.6307806e-21)
(1.0548141 0.048156445 1.2149087e-20)
(1.0293819 0.045165519 -8.6654284e-22)
(1.0180843 0.028944425 -2.1867649e-23)
(1.0197508 0.012975055 -2.3908259e-22)
(1.0267778 0.0051584239 2.5640549e-22)
(1.0327078 0.0043624158 -2.2409288e-23)
(1.0349977 0.0066586652 -3.5841555e-23)
(1.0339182 0.0086431989 3.3409104e-22)
(1.0316777 0.0093738839 -1.0614635e-21)
(1.0294305 0.0089415166 2.8223884e-22)
(1.0276703 0.0076901585 4.4913254e-22)
(1.0265022 0.0062095952 -4.023457e-23)
(1.0257441 0.0048149191 1.2373433e-22)
(1.0251701 0.0036149535 9.437282e-22)
(1.0246854 0.0025787738 -1.9425307e-22)
(1.0242221 0.0017222521 1.0703495e-21)
(1.0238032 0.00095084895 2.8336091e-22)
(1.0234542 0.00030809261 7.4918289e-22)
(1.073197 -0.023438889 -3.7525389e-22)
(1.1005041 0.023629925 -1.8741844e-20)
(1.0625968 0.057602424 1.3943623e-21)
(1.0266514 0.054414123 -6.1966466e-23)
(1.0109582 0.033801725 -1.3816405e-21)
(1.0135082 0.012885459 -1.2413882e-21)
(1.0235856 0.0023331268 2.2936002e-21)
(1.0325862 0.0013944404 1.6926258e-21)
(1.0367285 0.0050629601 3.8662885e-22)
(1.0360372 0.0087175068 0)
(1.0331497 0.010430673 7.2289153e-22)
(1.0301441 0.010408879 3.0013369e-22)
(1.0278854 0.0090831547 -6.2338647e-22)
(1.0264941 0.0073266707 7.9912169e-23)
(1.0256894 0.0056844629 -4.2757702e-22)
(1.0251738 0.0043058682 7.4248409e-22)
(1.0247426 0.0032013638 1.5380718e-22)
(1.0243371 0.0022811039 -3.2350525e-22)
(1.0239191 0.0015365955 6.3993789e-22)
(1.0235329 0.00085386548 4.7822811e-23)
(1.0232075 0.00029151925 7.1906446e-22)
(1.0716191 -0.031358102 3.6272269e-21)
(1.1071756 0.020198419 -1.9023271e-20)
(1.0766567 0.06813526 -1.0227834e-20)
(1.0274863 0.065465224 3.0681422e-21)
(1.0025484 0.039585306 -3.5842327e-21)
(1.0054403 0.012515555 -1.5304265e-23)
(1.0192827 -0.0016392554 0)
(1.0322956 -0.0028966178 3.0995007e-22)
(1.038969 0.0024650977 7.575778e-23)
(1.0389584 0.0083948957 9.3917189e-22)
(1.0353084 0.011629241 3.9882026e-22)
(1.0311932 0.012176079 5.6767762e-23)
(1.0281199 0.01078559 -7.4211416e-23)
(1.0263569 0.0086539486 3.5910346e-22)
(1.0254913 0.0066350492 -2.2437983e-22)
(1.0250491 0.0050030495 2.4134348e-22)
(1.0247425 0.0037476247 -9.3728126e-23)
(1.0244149 0.002789849 5.7629376e-22)
(1.0240597 0.002008151 1.2682899e-22)
(1.0236665 0.0013785977 1.7594234e-23)
(1.0232993 0.00077703659 3.8142988e-22)
(1.0229871 0.00028388351 0)
(1.0639759 -0.040530032 7.2394914e-22)
(1.1076287 0.017662584 1.2324573e-20)
(1.093362 0.080399476 -5.4389699e-22)
(1.0321795 0.078916631 3.8008358e-21)
(0.99398228 0.0469942 -4.3825122e-21)
(0.99520326 0.011854252 1.8155833e-21)
(1.0136932 -0.0069433148 -4.7476931e-22)
(1.0317375 -0.0087823659 1.028692e-21)
(1.0418682 -0.0013877197 -4.8121625e-23)
(1.0429112 0.0075209926 -7.6398006e-23)
(1.0383755 0.013001852 -2.8533079e-24)
(1.0327058 0.014433558 -2.0126064e-22)
(1.028404 0.012950499 -1.0268021e-22)
(1.026056 0.010289946 1.2434919e-21)
(1.0250676 0.0077296396 8.6905737e-22)
(1.0247416 0.0057157333 6.1138455e-22)
(1.0246043 0.0042506378 -1.371686e-22)
(1.0244443 0.0031951692 -8.9693655e-22)
(1.0241749 0.0024138202 -2.9764082e-23)
(1.023841 0.0017753695 3.4324218e-22)
(1.0234539 0.0012541946 0)
(1.0230944 0.00072215911 -8.6057324e-22)
(1.022785 0.00028424248 -2.7888467e-24)
(1.0493854 -0.049518246 -9.4757294e-21)
(1.1044739 0.014130213 4.2377772e-20)
(1.0958781 0.09244514 -2.7261354e-20)
(1.035747 0.097022573 -5.4587666e-21)
(0.98493167 0.057170675 -6.7700455e-21)
(0.98239294 0.010981007 0)
(1.0065474 -0.013760366 -1.8534893e-22)
(1.030836 -0.016542016 9.8740931e-22)
(1.0454597 -0.0067984964 -9.7607208e-22)
(1.0481868 0.0059484825 -1.6211258e-21)
(1.0426325 0.014577615 8.2422532e-22)
(1.0348574 0.017367555 3.1294451e-22)
(1.0287703 0.015796301 -2.4102976e-22)
(1.0255153 0.012380914 6.3721784e-22)
(1.0243294 0.0090443657 -7.0993068e-22)
(1.0241511 0.0064727469 -1.3983567e-21)
(1.0242779 0.0046966296 -2.4719196e-22)
(1.0243466 0.0035111343 -3.1226752e-22)
(1.0242595 0.0026965705 8.8696342e-22)
(1.0240044 0.0020984731 -2.5780702e-22)
(1.0236664 0.0015915943 -7.3067206e-22)
(1.0232719 0.0011649271 7.9175989e-22)
(1.0229109 0.00068845412 -6.0482865e-22)
(1.0225943 0.00028870848 -1.5501005e-24)
(1.029282 -0.05752409 8.5837164e-22)
(1.0943929 0.013641865 3.968884e-20)
(1.0810062 0.10430903 4.8772323e-22)
(1.0300923 0.11720154 2.2156965e-20)
(0.97322728 0.070816495 3.299748e-21)
(0.96681685 0.010630935 -8.518878e-21)
(0.99738579 -0.022317605 -2.5952895e-22)
(1.0294905 -0.026424691 -1.3231395e-21)
(1.0498398 -0.014081093 4.4509346e-22)
(1.0550243 0.0034675445 -9.9509401e-22)
(1.0484138 0.016402149 7.782086e-22)
(1.0378393 0.021218913 -3.431765e-22)
(1.0292528 0.019588939 5.7717188e-22)
(1.0246618 0.015119035 -7.1025264e-23)
(1.0231483 0.010671028 -1.0601751e-21)
(1.0231706 0.0073056651 -2.218485e-23)
(1.0236636 0.0050774791 -5.3174e-23)
(1.0240852 0.0037022491 -4.45614e-22)
(1.0242446 0.0028545069 0)
(1.0241605 0.0022861523 -9.9800118e-23)
(1.0238829 0.0018576657 -2.9033575e-23)
(1.0235226 0.0014604168 5.9667186e-23)
(1.0231114 0.0011092985 -3.875096e-23)
(1.0227419 0.00067282119 8.6362739e-22)
(1.0224115 0.00029228878 4.8905038e-22)
(1.0064637 -0.064526491 1.0072012e-20)
(1.0779296 0.013062525 -2.4287475e-20)
(1.0587185 0.11726431 -9.6781907e-21)
(1.0137711 0.13652728 -2.6949269e-21)
(0.96010171 0.086446304 1.0723108e-20)
(0.94904091 0.010850178 1.4330189e-21)
(0.98595194 -0.032795981 -3.7719823e-22)
(1.0275799 -0.038696058 1.2727798e-22)
(1.0550043 -0.023542107 -2.5603921e-21)
(1.063714 -0.00020210196 -4.3069817e-22)
(1.0560649 0.018519344 -1.3643433e-21)
(1.0418536 0.026273809 2.8411616e-23)
(1.0298376 0.024652703 -1.7804936e-22)
(1.0233769 0.018739634 -3.3953344e-22)
(1.0213689 0.012731184 -3.5427829e-22)
(1.0216491 0.0082431234 1.4143445e-21)
(1.0226564 0.0053766911 2.1335033e-21)
(1.023575 0.0037308347 5.7375063e-22)
(1.024112 0.0028375042 8.0272253e-22)
(1.0242535 0.0023282622 2.0974821e-23)
(1.0241175 0.0019815798 -9.3351098e-22)
(1.0237915 0.0016921972 -2.2419639e-22)
(1.0233985 0.0013810438 6.4725426e-22)
(1.0229636 0.0010835724 -7.5691588e-22)
(1.0225812 0.00067118635 6.5281437e-22)
(1.0222347 0.00029283505 -3.5521599e-23)
(0.98228312 -0.070766945 -3.3416166e-22)
(1.0565057 0.012715901 -2.7757961e-20)
(1.0378062 0.13013512 4.1748325e-20)
(0.99578847 0.15299598 -2.0886852e-20)
(0.94769678 0.10293041 -2.2454185e-21)
(0.93070731 0.010973541 9.9552507e-21)
(0.97271835 -0.045527522 1.7167187e-21)
(1.0248006 -0.053598063 2.4427106e-21)
(1.060889 -0.035413386 6.3458382e-21)
(1.0743396 -0.0052794998 3.214496e-21)
(1.0659402 0.020938038 -9.3215794e-23)
(1.0471057 0.032871933 2.5974642e-21)
(1.0305085 0.031362096 -1.1574218e-21)
(1.0215172 0.023513569 -5.3100442e-22)
(1.0187906 0.015359933 -2.9273047e-22)
(1.0194013 0.0093189238 2.95109e-22)
(1.0211127 0.005563313 -4.3750918e-23)
(1.0227312 0.0035409231 3.2017075e-23)
(1.0238 0.0025873253 1.8073964e-22)
(1.0242862 0.0021697157 6.4366471e-23)
(1.024327 0.0019534951 0)
(1.0241042 0.0017844712 -3.3883397e-22)
(1.0237144 0.001593095 -4.285343e-23)
(1.0232843 0.0013477016 0)
(1.0228218 0.0010822213 9.2919087e-22)
(1.0224248 0.0006801862 3.9452044e-24)
(1.0220619 0.0002928911 -4.7833585e-22)
(0.95716964 -0.076276341 -2.9268824e-21)
(1.0324596 0.012249475 -2.2428674e-21)
(1.0127337 0.1427666 3.4033812e-20)
(0.97463808 0.16849272 -3.889867e-21)
(0.93292501 0.11729039 -1.7090733e-21)
(0.91273781 0.012693365 -1.1548368e-20)
(0.95711736 -0.05965879 -2.2175564e-22)
(1.0207195 -0.071109406 4.5948438e-23)
(1.0668995 -0.049619324 -2.4072372e-21)
(1.0864675 -0.011828338 -6.9227151e-21)
(1.0780402 0.02382899 5.0726602e-21)
(1.0537351 0.041421273 1.3444763e-22)
(1.0312233 0.040138288 1.4477512e-23)
(1.018891 0.029734265 -4.6744443e-22)
(1.0151869 0.018712828 -8.8172872e-22)
(1.0162021 0.010560874 -2.8018024e-22)
(1.0188603 0.0055940406 -1.4597963e-21)
(1.0214396 0.0030519552 -1.0334626e-21)
(1.0232567 0.0020227356 -4.1767428e-22)
(1.0242241 0.001742245 -7.1290135e-22)
(1.0245338 0.00172315 -3.2950796e-22)
(1.0244239 0.0017279956 1.0231856e-22)
(1.0240987 0.0016823249 3.0429908e-23)
(1.0236393 0.0015495804 0)
(1.0231743 0.0013503606 0)
(1.0226834 0.0010996724 -6.771842e-23)
(1.0222686 0.0006980871 8.3973278e-22)
(1.0218914 0.00029651283 9.1703402e-22)
(0.93181921 -0.081114194 0)
(1.0071826 0.011981545 -1.5398647e-20)
(0.98616378 0.15461813 -2.9385708e-20)
(0.94976357 0.18307066 -7.4381084e-21)
(0.91189463 0.13094169 -1.7731525e-21)
(0.89416247 0.014442037 1.3011032e-21)
(0.93960387 -0.074920298 -2.2315394e-21)
(1.0146268 -0.090687352 2.6315097e-21)
(1.0720173 -0.065932735 -9.0695883e-21)
(1.099042 -0.019596903 1.6545545e-21)
(1.0913079 0.02741287 -5.8980186e-22)
(1.0612272 0.052410251 -1.4730491e-21)
(1.0317965 0.051452879 1.1968129e-21)
(1.0152284 0.03772365 -1.0587955e-21)
(1.0102676 0.022939462 -3.0442259e-22)
(1.0117975 0.011994822 -1.0129871e-21)
(1.0156915 0.005404028 -1.5179032e-22)
(1.0195664 0.0021602697 -3.2631551e-22)
(1.0224116 0.001029505 -5.9611097e-23)
(1.0240541 0.00095494271 -3.7454554e-22)
(1.024731 0.0012237632 -2.1648141e-22)
(1.0247914 0.0014876562 -1.6743286e-22)
(1.024515 0.0016324164 2.6206895e-23)
(1.0240824 0.0016507589 7.617848e-22)
(1.0235648 0.0015524197 2.3309762e-22)
(1.023068 0.0013791692 -1.1857509e-23)
(1.0225453 0.0011321808 -8.8707518e-22)
(1.0221104 0.00072359319 5.5297005e-22)
(1.0217216 0.00030500928 -1.3715452e-21)
(0.90678957 -0.08523573 2.676653e-21)
(0.98147072 0.011588524 0)
(0.95909808 0.1657458 0)
(0.92385481 0.19635552 0)
(0.8894195 0.1431112 2.1538912e-21)
(0.87466864 0.017675437 0)
(0.92103967 -0.090941878 -1.2214443e-21)
(1.0064607 -0.11235237 -3.4056849e-21)
(1.0758914 -0.084525879 -2.1057791e-20)
(1.1118555 -0.028751049 3.0473943e-20)
(1.1049655 0.032153128 -8.0626251e-21)
(1.0678762 0.066542065 2.0306182e-21)
(1.0313102 0.065834408 -1.5046165e-23)
(1.0101356 0.047826561 1.8483014e-21)
(1.0036735 0.028188528 2.0700156e-21)
(1.0058934 0.013629625 -2.0919888e-22)
(1.0113783 0.0049135986 -1.1479834e-21)
(1.0169536 0.00073545651 2.4236822e-22)
(1.0211847 -0.00053431857 7.1604377e-22)
(1.0237565 -0.00032062068 4.6324009e-22)
(1.0249442 0.00037039076 1.9642116e-22)
(1.0252227 0.001007969 -1.5269248e-22)
(1.0250137 0.0014304089 -3.0396508e-22)
(1.0245799 0.0016354199 2.263953e-22)
(1.024055 0.0016607882 7.2760654e-24)
(1.023496 0.0015918683 1.7548883e-22)
(1.0229596 0.0014287639 -6.8034651e-22)
(1.0224046 0.0011757479 1.2307295e-25)
(1.0219501 0.00075419634 -2.1402539e-21)
(1.0215512 0.00031656495 -8.248593e-22)
(0.87997634 -0.089567285 -4.6352179e-21)
(0.95610747 0.012303408 -1.2362347e-20)
(0.9324713 0.17573402 0)
(0.89784453 0.20852779 0)
(0.86626043 0.15364813 0)
(0.85599163 0.021399131 0)
(0.90284486 -0.10683815 0)
(0.99610915 -0.13574928 9.9138854e-22)
(1.078658 -0.10596922 7.1962784e-21)
(1.1260034 -0.040653177 -4.5308617e-20)
(1.1216422 0.037512372 3.8285995e-22)
(1.0747273 0.084193066 -8.5571318e-21)
(1.0282619 0.083554506 6.1436887e-21)
(1.0028039 0.060347898 2.1849512e-21)
(0.99497468 0.034579717 -2.7212085e-22)
(0.99815823 0.015450594 5.3107952e-22)
(1.0056692 0.004022678 -2.5175694e-22)
(1.0134278 -0.0013768376 5.3741217e-22)
(1.0194867 -0.0028408067 -5.4273939e-22)
(1.0233137 -0.0022396872 -1.9512534e-22)
(1.0252038 -0.00095978012 -1.9306838e-23)
(1.0257765 0.00022445229 -3.6213631e-22)
(1.0256295 0.0010390837 -2.193092e-23)
(1.0251743 0.0015041567 1.0677163e-22)
(1.024601 0.0016955578 -1.0804993e-22)
(1.02401 0.0017187872 -5.5109618e-22)
(1.0234156 0.0016666852 -1.9084313e-22)
(1.0228405 0.0014942806 2.9732942e-22)
(1.0222608 0.0012246554 8.9827125e-25)
(1.0217888 0.00078678837 1.5430462e-21)
(1.02138 0.00032871477 5.3593395e-22)
(0.8513924 -0.093779031 7.3305181e-21)
(0.92891697 0.011369017 -3.0728068e-21)
(0.90706201 0.18459815 -1.7789297e-20)
(0.87255954 0.21952447 -2.0838478e-20)
(0.84322952 0.16301512 0)
(0.83706106 0.021895793 0)
(0.88527131 -0.12230195 -1.1347599e-21)
(0.98352995 -0.15972245 -8.9653073e-21)
(1.0777503 -0.12918471 2.9631586e-20)
(1.1406656 -0.055966533 -5.4626954e-20)
(1.1451287 0.041193445 -1.1436269e-21)
(1.0889104 0.10410553 1.4868024e-20)
(1.0254891 0.10481904 2.4143082e-22)
(0.99214542 0.075151941 -1.8888447e-22)
(0.98362862 0.042171491 -1.7243145e-21)
(0.98823126 0.0173901 -8.8662375e-23)
(0.99830609 0.0026081707 2.7605674e-21)
(1.0088012 -0.0043526349 -7.8724218e-23)
(1.017212 -0.0060915112 -1.3882845e-21)
(1.02271 -0.0049973427 -1.4721772e-22)
(1.0255548 -0.0029145554 -7.1269958e-22)
(1.0265251 -0.00096294243 1.3661535e-22)
(1.0264436 0.00042613138 -8.2972637e-23)
(1.0259119 0.0012444867 -2.7463375e-22)
(1.0252568 0.001653534 -6.2029851e-23)
(1.024585 0.0017955564 -1.9489197e-22)
(1.0239538 0.0018233569 -1.482231e-22)
(1.0233195 0.0017573151 -1.5992246e-22)
(1.0227178 0.0015626275 4.0616266e-22)
(1.0221169 0.0012740949 -3.0216293e-23)
(1.021627 0.00081911908 7.4594188e-22)
(1.0212085 0.00034002104 5.6708067e-23)
(0.82256326 -0.097823298 -5.0734307e-21)
(0.90029702 0.010601705 7.8523586e-21)
(0.88086242 0.19313697 2.0974128e-20)
(0.84861103 0.22947494 3.5892268e-20)
(0.82138868 0.17103019 0)
(0.81760305 0.022002561 0)
(0.86780854 -0.13752733 0)
(0.96911827 -0.18328617 -9.296059e-22)
(1.0716492 -0.15273942 -5.3496744e-20)
(1.1467046 -0.072529662 -6.0501354e-20)
(1.1692697 0.042085572 -1.3979692e-21)
(1.114343 0.12413909 4.1552742e-21)
(1.0316447 0.12893427 -1.8288931e-20)
(0.98015528 0.092314 4.4309658e-21)
(0.96893191 0.050720707 -1.0236383e-21)
(0.97576408 0.019329776 0)
(0.98903028 0.00051007009 7.9628249e-22)
(1.0028857 -0.0083808186 -6.7880138e-22)
(1.0142502 -0.010514986 -4.2243146e-22)
(1.0219214 -0.0088168343 1.8194449e-22)
(1.0260553 -0.0056835027 1.7300284e-22)
(1.0275696 -0.0026727576 3.1492822e-22)
(1.0275573 -0.00047190191 2.169351e-22)
(1.0268854 0.00086185045 1.68795e-22)
(1.0260543 0.0015458705 3.2867277e-23)
(1.0252634 0.0018383225 -5.0545603e-23)
(1.0245414 0.001931349 1.798443e-23)
(1.0238837 0.0019396569 -8.7595631e-24)
(1.0232244 0.0018344668 4.1241646e-22)
(1.0225995 0.0016279381 3.059727e-22)
(1.0219728 0.0013230065 1.4481617e-23)
(1.021465 0.00085006373 -2.0938429e-21)
(1.0210376 0.0003500518 7.9795544e-22)
(0.79384617 -0.1013943 -8.5153811e-21)
(0.86901383 0.0061072978 0)
(0.8533518 0.20048525 1.9473097e-20)
(0.82497276 0.23911145 6.0221689e-20)
(0.80103715 0.17795849 -1.5719107e-20)
(0.79874263 0.021602142 -1.1308598e-21)
(0.85015676 -0.15225015 -4.0944211e-20)
(0.95322095 -0.2058704 1.4557141e-20)
(1.0609807 -0.17589373 1.2823347e-20)
(1.1445244 -0.089184045 1.4172713e-19)
(1.1734891 0.039059645 -5.6967424e-20)
(1.1438327 0.1448645 -4.860853e-20)
(1.0487278 0.15557352 1.8061345e-21)
(0.97406163 0.11277647 -1.109392e-22)
(0.95095992 0.059904909 -1.7089346e-21)
(0.9604117 0.021047462 3.6567358e-22)
(0.97761827 -0.0024524576 3.7989517e-22)
(0.99550668 -0.013660414 2.5962485e-22)
(1.0104827 -0.016342817 -1.5902127e-22)
(1.0209231 -0.013952005 2.3704357e-23)
(1.0267711 -0.0094857569 3.9279907e-22)
(1.0290369 -0.0050619645 1.2145432e-22)
(1.0291143 -0.001726603 -1.6471365e-22)
(1.0282106 0.00033771673 3.2075141e-22)
(1.0270854 0.0014139305 1.5985248e-22)
(1.0260643 0.0018778348 3.7551142e-23)
(1.0252112 0.0020407833 4.6953532e-23)
(1.0244754 0.0020792976 2.7165645e-23)
(1.0238031 0.0020418077 1.4204136e-22)
(1.0231261 0.0019150405 -4.5547924e-23)
(1.0224749 0.0016963282 2.0664905e-22)
(1.0218269 0.0013705049 1.8959791e-23)
(1.0213033 0.00087906349 8.48576e-22)
(1.0208676 0.00035889688 -1.4904575e-21)
(0.76625109 -0.10454839 7.9167229e-21)
(0.83505769 0.0046340158 -1.2143203e-21)
(0.82474516 0.20635544 9.581527e-21)
(0.80180619 0.24881681 -3.457031e-20)
(0.78117539 0.18588019 6.9437408e-20)
(0.78077817 0.019553758 7.8499692e-20)
(0.83201028 -0.16562937 6.9858621e-21)
(0.93611233 -0.22711121 0)
(1.0464005 -0.19818078 4.1697584e-20)
(1.1365896 -0.10523304 1.9376667e-19)
(1.1723848 0.03524814 6.3420189e-21)
(1.1630399 0.16511094 2.4311461e-20)
(1.0672594 0.18696039 0)
(0.9769649 0.13868257 3.1952985e-21)
(0.93234689 0.07123535 2.5276566e-21)
(0.94172921 0.022062852 -5.605818e-22)
(0.96392126 -0.0064712874 -3.0546007e-21)
(0.98651765 -0.020372871 0)
(1.0057969 -0.023802745 4.5801458e-22)
(1.0196773 -0.020666241 5.7303852e-22)
(1.0277698 -0.014577329 -1.4392685e-22)
(1.0310767 -0.008316322 3.657933e-22)
(1.0312937 -0.0034387905 0)
(1.0300526 -0.00034137343 1.0121006e-22)
(1.0284654 0.0012840684 1.7703355e-22)
(1.0270643 0.0019778851 -1.4760706e-23)
(1.02597 0.0021956403 5.5406525e-23)
(1.0251205 0.0022341646 -2.80277e-23)
(1.0243964 0.0022033895 -1.5354358e-24)
(1.0237196 0.0021328956 4.4248292e-22)
(1.0230248 0.001995882 -8.9172536e-22)
(1.02235 0.0017595102 -5.3469812e-22)
(1.0216818 0.0014141917 0)
(1.0211428 0.00090585024 -3.3208428e-23)
(1.0206992 0.00036673652 -4.4262627e-22)
(0.74047358 -0.10747527 1.0663702e-20)
(0.80228669 0.0030977696 -3.4657077e-20)
(0.79665924 0.21143301 3.9164431e-20)
(0.77908236 0.25749653 -9.5714635e-21)
(0.76209578 0.19626404 2.4826883e-20)
(0.76234209 0.021218341 1.1721346e-20)
(0.81559582 -0.18023457 6.1272224e-20)
(0.91788435 -0.24687966 4.3746925e-21)
(1.028883 -0.2189447 0)
(1.1230753 -0.12048559 -6.8153391e-20)
(1.1672842 0.033561463 7.0550608e-20)
(1.1566294 0.18362552 -7.8668873e-21)
(1.0738865 0.2209012 1.7091024e-20)
(0.9808769 0.17097911 -6.6837255e-21)
(0.91715173 0.086624342 3.0548767e-21)
(0.91930153 0.022731778 1.2818031e-21)
(0.94778506 -0.011864951 -5.5175903e-21)
(0.97581995 -0.028698395 -1.4882467e-21)
(1.0000885 -0.033094996 1.2863389e-21)
(1.0181348 -0.029222989 -1.1367977e-21)
(1.0291084 -0.021234732 4.8046749e-22)
(1.0338536 -0.012662029 -4.1908876e-22)
(1.0343134 -0.0057300617 0)
(1.0326183 -0.001203388 3.2400702e-23)
(1.0303568 0.0012060656 4.6048413e-23)
(1.0283615 0.0022050521 3.2816389e-23)
(1.0268721 0.0024725926 -1.1277335e-22)
(1.0258109 0.0024545299 -3.9780026e-23)
(1.0250125 0.0023813292 2.7757927e-24)
(1.0243142 0.002300867 0)
(1.0236382 0.002216544 -3.4297817e-22)
(1.0229263 0.0020654797 -9.7193123e-22)
(1.0222285 0.0018159295 1.4786112e-21)
(1.0215385 0.0014543081 -4.8774571e-22)
(1.0209836 0.00093073767 6.4564409e-23)
(1.0205331 0.00037371886 1.5799303e-21)
(0.71711103 -0.11006647 -1.0759484e-20)
(0.77212766 0.00066252733 -4.7912489e-22)
(0.77027382 0.21590381 -9.3534501e-21)
(0.75792131 0.26519738 -4.8186457e-22)
(0.7442136 0.20512726 -1.0782798e-19)
(0.74431201 0.027957218 -1.1183339e-19)
(0.79563907 -0.18936973 -9.2258292e-22)
(0.90009391 -0.26548858 3.1410309e-20)
(1.0096738 -0.23870642 5.9276287e-21)
(1.1048202 -0.13492522 5.768324e-20)
(1.1543332 0.033914019 2.5162772e-22)
(1.1355869 0.20311355 -3.0213561e-20)
(1.0657951 0.25245417 2.0512286e-21)
(0.98091845 0.20521069 -1.3501052e-20)
(0.90633822 0.10859234 1.0753385e-21)
(0.89429937 0.023095018 0)
(0.92905749 -0.018670328 1.1052532e-21)
(0.9633919 -0.038763847 1.4212763e-21)
(0.9932727 -0.04439696 -8.3284407e-22)
(1.0162355 -0.039867273 -1.3259918e-22)
(1.0308254 -0.029755037 3.8550998e-22)
(1.0375317 -0.018360444 -1.4925786e-22)
(1.0384256 -0.0087600564 1.4597315e-22)
(1.0361651 -0.0022807918 0)
(1.0329652 0.0012308204 -4.8410512e-22)
(1.0300926 0.0026676383 -3.1970206e-23)
(1.0279811 0.0029760011 -1.6720796e-22)
(1.0265713 0.0028432126 1.9044156e-22)
(1.0256229 0.0026305611 -6.7806354e-24)
(1.0249029 0.0024789282 -2.1396188e-23)
(1.0242381 0.0023770106 1.5022516e-22)
(1.0235616 0.0022881912 -3.4049862e-22)
(1.0228305 0.0021282748 9.0199092e-24)
(1.0221071 0.0018692559 1.5054879e-21)
(1.0213954 0.001491792 -9.1050252e-24)
(1.0208262 0.00095395656 -4.4659784e-23)
(1.020369 0.00038001605 5.6994834e-22)
(0.69677773 -0.11234168 -7.6328813e-22)
(0.74455721 -0.0010821468 1.8428691e-20)
(0.74712163 0.2201228 -3.1956881e-20)
(0.73894836 0.27177358 5.9988462e-21)
(0.72835423 0.21295312 1.7558842e-22)
(0.72818564 0.032882034 1.0420844e-22)
(0.7742104 -0.19498054 4.0911363e-20)
(0.87764401 -0.28210631 -4.0642079e-21)
(0.98898366 -0.25512855 0)
(1.0830962 -0.14904514 -1.301514e-20)
(1.1356609 0.034543167 0)
(1.1146262 0.22201669 0)
(1.0493775 0.28071076 -2.0253953e-20)
(0.97714196 0.23780118 7.6557239e-22)
(0.90078714 0.13468595 1.1709585e-21)
(0.87133322 0.027685237 2.9444136e-22)
(0.9069605 -0.028149454 2.644742e-23)
(0.94949598 -0.050693606 -1.1657685e-21)
(0.98531593 -0.057788887 -2.1502392e-22)
(1.0139266 -0.052800021 -1.2402178e-22)
(1.0329446 -0.040421886 -5.7644533e-22)
(1.0422731 -0.025703678 -5.2958301e-22)
(1.0438999 -0.012723226 -2.6740104e-23)
(1.0410028 -0.0036325617 -4.1667906e-22)
(1.0365496 0.0014269418 -1.1351334e-22)
(1.0324329 0.0034892716 4.3194117e-23)
(1.0293926 0.0038540011 1.7881196e-22)
(1.0274267 0.0035185703 -1.4675619e-22)
(1.0262237 0.0030631226 -3.1945245e-24)
(1.0254365 0.0027199771 -2.6184255e-22)
(1.0248068 0.0025340901 -1.6308032e-23)
(1.0241742 0.0024328212 -3.7368174e-23)
(1.0234919 0.0023481546 2.565954e-22)
(1.0227375 0.002186256 8.8042078e-22)
(1.0219867 0.00191847 -3.0015134e-21)
(1.0212547 0.0015262701 -6.1487605e-22)
(1.0206711 0.00097589801 -5.5320478e-22)
(1.0202077 0.00038579431 0)
(0.68016201 -0.11437079 2.2335378e-20)
(0.72028038 -0.0025837631 -2.3747474e-22)
(0.72716958 0.22422121 -1.5226962e-20)
(0.7229585 0.27711363 5.6505166e-21)
(0.71491621 0.2197853 8.2711173e-20)
(0.71422416 0.037746385 6.8217855e-20)
(0.75398805 -0.20045056 -9.8246945e-22)
(0.85314437 -0.29769229 -6.6628963e-20)
(0.96318265 -0.2736916 -8.5650511e-21)
(1.0582763 -0.15839557 -1.2390197e-19)
(1.112034 0.034898053 4.896398e-22)
(1.0911578 0.24001324 0)
(1.0293533 0.30598206 0)
(0.96597369 0.26664744 1.1901501e-20)
(0.8967808 0.16213175 -9.2450848e-21)
(0.85341166 0.033975978 -5.0792183e-21)
(0.88270494 -0.037586613 1.0405592e-21)
(0.93364308 -0.06469994 2.2675638e-22)
(0.97623135 -0.073319963 8.869572e-23)
(1.0111108 -0.068140099 -1.5726639e-21)
(1.0354121 -0.053495796 -1.0509458e-22)
(1.0481887 -0.035008482 -3.665421e-22)