/*--------------------------------*- C++ -*----------------------------------*\
| =========                 |                                                 |
| \\      /  F ield         | OpenFOAM: The Open Source CFD Toolbox           |
|  \\    /   O peration     | Version:  5.0                                   |
|   \\  /    A nd           | Web:      www.OpenFOAM.org                      |
|    \\/     M anipulation  |                                                 |
\*---------------------------------------------------------------------------*/
FoamFile
{
    version     2.0;
    format      ascii;
    class       volVectorField;
    location    "320";
    object      U_0;
}
// * * * * * * * * * * * * * * * * * * * * * * * * * * * * * * * * * * * * * //

dimensions      [0 1 -1 0 0 0 0];

internalField   nonuniform List<vector> 
9200
(
(1.0388964 0.00074263089 -1.6647683e-24)
(1.0390771 0.0023683952 7.9571076e-22)
(1.0366601 0.0007441676 0)
(1.0393596 0.0037705519 -4.2077057e-22)
(1.036816 0.0023936993 6.9468713e-22)
(1.0356741 0.00073370622 0)
(1.0397476 0.0051697279 -4.2243226e-23)
(1.0370839 0.0038158046 1.022427e-23)
(1.0358172 0.0023736 0)
(1.0342263 0.00070647106 0)
(1.0401918 0.0064514612 8.7025896e-22)
(1.0374417 0.0052424046 6.4868651e-22)
(1.0360689 0.0037889643 3.9409114e-22)
(1.0343461 0.0022973427 2.4031003e-23)
(1.033115 0.00067149755 2.3419508e-25)
(1.0406892 0.0076512366 8.3363832e-22)
(1.0378803 0.0065666128 -3.0245744e-23)
(1.0364038 0.0052140333 1.315849e-21)
(1.0345703 0.0036708226 5.4042165e-22)
(1.0332189 0.002187588 1.754833e-23)
(1.0320161 0.00063359371 -1.009258e-21)
(1.041215 0.0087314248 8.6543674e-22)
(1.0384101 0.0078325491 9.4669945e-22)
(1.0368127 0.0065554652 -7.9233387e-22)
(1.0348556 0.0050542695 -5.8280889e-23)
(1.0334236 0.0034947798 4.8645378e-22)
(1.0321058 0.0020603628 4.9387335e-22)
(1.0310484 0.00060167679 8.7157766e-23)
(1.0417831 0.0096574934 4.3639191e-22)
(1.0390437 0.0090242194 7.8789803e-22)
(1.0373075 0.0078684937 9.4864293e-22)
(1.0351918 0.0063698539 5.4954453e-23)
(1.0336755 0.0048034575 -1.2537759e-21)
(1.0322938 0.0032881121 -5.5683638e-22)
(1.0311326 0.0019434361 -5.6752207e-22)
(1.030153 0.00057839297 9.3616199e-22)
(1.0423989 0.010380748 -1.1541203e-21)
(1.0398231 0.010116443 8.2665808e-22)
(1.037895 0.0091643158 5.0647447e-23)
(1.0355739 0.007675761 4.5233868e-22)
(1.0339595 0.0060439882 1.2756189e-22)
(1.0325199 0.0045019454 -1.866135e-21)
(1.0313143 0.0030983197 1.5767349e-22)
(1.0302376 0.0018500505 -9.6406388e-22)
(1.0293265 0.00056212525 -1.9847256e-21)
(1.0430239 0.010874828 8.8968944e-22)
(1.0408075 0.011125434 -3.3202362e-22)
(1.0385916 0.010459705 -4.8666924e-23)
(1.0359819 0.0090046124 -2.0334486e-22)
(1.0342557 0.0072612389 -1.9235943e-22)
(1.0327678 0.0056395339 2.1470301e-22)
(1.0315362 0.0042235876 6.5319268e-22)
(1.0304172 0.0029494737 1.0912943e-21)
(1.0294154 0.0017841492 6.1938832e-22)
(1.0285511 0.00054867488 1.598424e-22)
(1.0436727 0.011122254 -4.3398253e-22)
(1.0421777 0.011980291 1.9099655e-22)
(1.0394449 0.01182501 6.298695e-22)
(1.0364058 0.010408754 -7.6046465e-22)
(1.0345089 0.0084843431 5.3952483e-22)
(1.0330054 0.0067208312 -1.6945186e-21)
(1.0317851 0.0052662932 6.9164783e-23)
(1.0306439 0.0040090742 1.6393379e-21)
(1.0295926 0.0028497117 -8.1702714e-22)
(1.0286431 0.0017383621 1.8004569e-21)
(1.0278203 0.00053523656 -2.6973652e-22)
(1.044712 0.010810766 9.6709435e-23)
(1.0436833 0.012677908 -5.0479226e-22)
(1.0402982 0.013384194 -7.9888411e-22)
(1.0368091 0.011994795 0)
(1.0346785 0.0097561576 3.4751802e-23)
(1.0331698 0.0077600671 -3.1333845e-22)
(1.0320355 0.0062241466 -3.3417961e-22)
(1.0309078 0.0049888142 -8.1019845e-22)
(1.0298242 0.0038743029 -2.2373689e-22)
(1.0288134 0.002786342 -1.0354035e-21)
(1.0279108 0.0017007334 -7.0280901e-22)
(1.0271315 0.00052093265 1.624921e-22)
(1.0460361 0.0099128521 4.9867193e-23)
(1.0456075 0.01360822 -4.3537039e-23)
(1.0411566 0.015213703 0)
(1.0370915 0.013835186 0)
(1.0346309 0.011128236 -1.8323928e-22)
(1.0332154 0.008756021 -2.1397044e-22)
(1.0322333 0.007092112 -4.3482372e-22)
(1.0311991 0.0058751126 9.5979033e-22)
(1.0300994 0.0048321267 1.00079e-22)
(1.0290407 0.0037979826 2.682069e-24)
(1.0280693 0.0027373785 1.1544064e-21)
(1.0272151 0.0016590815 -1.2390839e-21)
(1.0264859 0.00050480182 2.571232e-21)
(1.0474994 0.0083920266 -8.518208e-22)
(1.0483686 0.014602801 3.4975066e-23)
(1.0422936 0.017326385 -3.0560564e-22)
(1.0372374 0.015979322 1.0379693e-22)
(1.0343133 0.012636609 -5.9486654e-23)
(1.0330529 0.0097177202 -1.530115e-22)
(1.0323438 0.0078323716 2.664489e-22)
(1.0314805 0.0066543639 1.6271157e-23)
(1.0304272 0.0057083065 1.0813221e-21)
(1.0293132 0.0047604536 1.0085147e-21)
(1.0282829 0.0037427083 3.1992878e-22)
(1.0273585 0.002680432 9.2659505e-22)
(1.0265599 0.0016034671 6.2893864e-22)
(1.0258874 0.00048470565 -7.0316689e-22)
(1.0493698 0.0062854575 3.2985019e-22)
(1.051981 0.015660685 1.2495572e-21)
(1.0437828 0.01991039 -3.6415602e-22)
(1.0372124 0.018556302 6.4624125e-23)
(1.0336508 0.014344692 -6.6289204e-23)
(1.0325903 0.010599298 2.852996e-22)
(1.032295 0.0084191029 2.5560743e-22)
(1.0317395 0.0072729152 -3.4051692e-22)
(1.0307895 0.0064921045 -1.0133508e-22)
(1.0296576 0.0056623203 -1.2053941e-22)
(1.0285374 0.004717042 -1.9057075e-23)
(1.0275485 0.0036724015 -1.5107914e-22)
(1.0266869 0.0025976949 -1.1784821e-21)
(1.0259521 0.0015275689 5.9425303e-22)
(1.0253413 0.00045895979 -5.3529192e-22)
(1.0515006 0.0031379505 2.3045795e-21)
(1.0564458 0.016643919 -1.729632e-21)
(1.0456631 0.023199586 1.5224531e-22)
(1.0369433 0.021786035 -6.0050388e-23)
(1.0324492 0.016346451 -9.9195218e-23)
(1.0316694 0.011402502 -5.075043e-22)
(1.0320579 0.0087567333 -5.0912236e-23)
(1.0319606 0.0076687747 3.4648163e-23)
(1.0312006 0.0071269328 -2.0821006e-22)
(1.0300732 0.006503178 -2.7940843e-22)
(1.028867 0.0056547776 -2.0613648e-21)
(1.0277689 0.0046508973 4.1926022e-22)
(1.0268487 0.0035604857 3.6693946e-22)
(1.0260638 0.0024785693 1.8851162e-22)
(1.0253992 0.0014301087 4.3329775e-23)
(1.0248518 0.00042827019 5.9362206e-22)
(1.0540685 -0.00040417764 0)
(1.0616174 0.017780715 -2.2395375e-21)
(1.0478931 0.027410827 8.7226497e-22)
(1.0363498 0.025873904 0)
(1.0305377 0.018741377 0)
(1.0301302 0.012126426 0)
(1.0314709 0.008730438 1.188717e-22)
(1.0322573 0.0077601269 4.7927196e-22)
(1.0317272 0.0075469622 3.7682558e-22)
(1.0306135 0.0072399916 6.1494669e-22)
(1.0292825 0.0065755377 1.0039405e-22)
(1.0280482 0.0056170451 4.5128529e-22)
(1.0270214 0.0045217836 6.0491125e-24)
(1.0261981 0.0033914045 -4.2112641e-22)
(1.0254993 0.0023217657 -1.2827501e-22)
(1.0249062 0.001315304 -2.8929381e-22)
(1.02442 0.00039531537 0)
(1.0568859 -0.004768685 5.0098505e-21)
(1.0671929 0.018806609 5.5251166e-21)
(1.0502259 0.032719203 -2.1282018e-21)
(1.0352488 0.03104718 1.1829624e-21)
(1.0277398 0.021658339 1.1502222e-21)
(1.0277739 0.012736356 0)
(1.030447 0.0082626256 8.0200644e-22)
(1.0324379 0.0073222332 -2.4954998e-22)
(1.0325097 0.0076800556 4.0554794e-22)
(1.0313983 0.0078153161 4.4319458e-22)
(1.0298627 0.0074681737 -3.6876711e-22)
(1.0283931 0.0066125798 1.3219785e-22)
(1.0272253 0.0054880209 7.3761374e-22)
(1.0263196 0.0043058875 -1.3916097e-21)
(1.0256115 0.0031632803 -3.9737554e-22)
(1.0250004 0.0021349379 -1.9450802e-21)
(1.0244748 0.001191503 -7.7573193e-22)
(1.0240438 0.00036292214 -7.4251311e-22)
(1.0612607 -0.0096897175 -3.7685802e-22)
(1.0741256 0.019976849 3.9325634e-21)
(1.0524143 0.039398132 1.0782682e-21)
(1.033261 0.037503433 4.3122884e-22)
(1.0238054 0.025226212 -2.2844329e-22)
(1.0243699 0.013214597 -5.555899e-22)
(1.028839 0.0072126127 -1.9939024e-21)
(1.032492 0.0062653804 -1.0441721e-21)
(1.0335499 0.0074149638 -1.3652656e-22)
(1.0324063 0.0082096064 -6.5343182e-22)
(1.0306735 0.0083452314 -1.0225278e-22)
(1.0288683 0.0076759931 -8.2195934e-22)
(1.0274408 0.0065153957 1.1725267e-22)
(1.0264396 0.0052264679 1.2215018e-22)
(1.0256925 0.0040021635 1.8404439e-22)
(1.0251007 0.0028886935 2.9390712e-22)
(1.0245698 0.0019321362 -6.4055104e-22)
(1.024103 0.0010684681 2.6065121e-23)
(1.023718 0.00033335176 -7.01191e-22)
(1.0657697 -0.017696818 -3.8156217e-21)
(1.0850021 0.020703988 -8.1752502e-21)
(1.0558678 0.047389348 1.0545818e-20)
(1.0302948 0.045334749 -8.5838086e-22)
(1.0184496 0.029556067 -2.4731177e-23)
(1.0196505 0.013528419 -2.4719926e-22)
(1.0264746 0.0054227953 2.6726472e-22)
(1.0324164 0.0043760799 -1.0212383e-23)
(1.0348296 0.0065487277 -4.964299e-23)
(1.0338686 0.0085289837 2.8905843e-22)
(1.0316847 0.0092771943 -1.0537584e-21)
(1.0294598 0.0088902219 2.8777334e-22)
(1.0276925 0.0076763263 4.5141487e-22)
(1.0265094 0.0062152954 -4.0726286e-23)
(1.0257399 0.0048282849 1.2997699e-22)
(1.0251588 0.0036287526 9.2931226e-22)
(1.0246706 0.0025900442 -1.8205051e-22)
(1.0242053 0.0017298535 1.0545362e-21)
(1.0237854 0.00095481253 2.7906681e-22)
(1.0234354 0.00030882439 7.3238847e-22)
(1.0718349 -0.024355381 -3.6174575e-22)
(1.100507 0.021459831 -1.6650296e-20)
(1.0638652 0.056660664 1.4520617e-21)
(1.0278176 0.054660647 -8.0060487e-23)
(1.0114315 0.03461905 -1.386736e-21)
(1.0133719 0.013651003 -1.2547109e-21)
(1.0231606 0.0027107123 2.3850585e-21)
(1.0321686 0.0014241706 1.8897261e-21)
(1.0364742 0.0049042111 3.8242066e-22)
(1.0359645 0.008540252 0)
(1.0331688 0.010288718 7.1633289e-22)
(1.0301977 0.010331493 3.2051183e-22)
(1.0279301 0.0090636006 -6.0936643e-22)
(1.0265153 0.0073366268 5.7822499e-23)
(1.0256913 0.0057047026 -4.2871418e-22)
(1.025164 0.0043262952 7.3344994e-22)
(1.0247272 0.0032178526 1.6295218e-22)
(1.0243194 0.0022924497 -3.1307018e-22)
(1.0239005 0.0015432161 6.2451741e-22)
(1.0235138 0.000856848 4.8279772e-23)
(1.0231881 0.00029163515 7.0075131e-22)
(1.0699795 -0.032570616 3.3611593e-21)
(1.107076 0.017587386 -1.6258208e-20)
(1.0781677 0.066966605 -9.8873964e-21)
(1.0290011 0.065777474 3.1180556e-21)
(1.0031971 0.040655044 -3.5198491e-21)
(1.0052548 0.01354917 -2.7701586e-23)
(1.0187005 -0.0011151064 0)
(1.0317082 -0.0028427397 2.8456637e-22)
(1.038596 0.0022433682 2.2440411e-23)
(1.0388451 0.0081249927 8.8338068e-22)
(1.0353455 0.011419086 4.0238791e-22)
(1.0312847 0.012060151 6.6672206e-23)
(1.0281978 0.010757898 -7.7533702e-23)
(1.026399 0.0086711327 3.5903525e-22)
(1.025503 0.0066661965 -2.1406548e-22)
(1.025042 0.0050334823 2.3097403e-22)
(1.0247262 0.0037714017 -9.2659015e-23)
(1.0243954 0.0028063121 5.6521819e-22)
(1.0240396 0.002018012 1.3168393e-22)
(1.0236465 0.0013834429 1.8654981e-23)
(1.0232795 0.00077869866 3.7131758e-22)
(1.0229675 0.00028329601 0)
(1.0621889 -0.041879228 3.6575754e-22)
(1.1075785 0.014613119 1.0617024e-20)
(1.0950426 0.078758015 -5.0557181e-22)
(1.0342633 0.0792288 4.198609e-21)
(0.99498596 0.048359828 -4.2567744e-21)
(0.99496597 0.013215777 1.8101005e-21)
(1.0129119 -0.006233259 -4.2421518e-22)
(1.0309313 -0.0086936727 1.1665212e-21)
(1.0413343 -0.0016892651 -1.1889612e-23)
(1.0427356 0.007122779 -7.1336578e-23)
(1.0384362 0.012690129 -3.7898581e-24)
(1.0328549 0.014261939 -2.2123403e-22)
(1.0285348 0.012909953 -1.019431e-22)
(1.026131 0.010317706 1.2680295e-21)
(1.0250945 0.0077777226 8.7152209e-22)
(1.0247386 0.0057613025 6.0579695e-22)
(1.0245868 0.00428527 -1.4156926e-22)
(1.0244218 0.0032182939 -8.7922458e-22)
(1.0241521 0.0024277343 -2.6775563e-23)
(1.0238192 0.0017826183 3.342621e-22)
(1.0234332 0.0012568402 0)
(1.0230742 0.0007223718 -8.3512991e-22)
(1.0227656 0.00028318054 -3.0395737e-24)
(1.0475772 -0.051039883 -5.1610285e-21)
(1.1044303 0.01047913 3.669475e-20)
(1.097862 0.090300265 -2.6348567e-20)
(1.0386788 0.097304225 -5.6712274e-21)
(0.98649679 0.058885034 -6.4665585e-21)
(0.98213314 0.012764136 0)
(1.0055179 -0.012820025 -1.6934338e-22)
(1.0297569 -0.016405889 1.0125625e-21)
(1.044713 -0.0071989146 -8.4824406e-22)
(1.0479224 0.0053783618 -1.5941039e-21)
(1.042723 0.014117666 8.0119613e-22)
(1.03509 0.017115143 2.993553e-22)
(1.0289807 0.015737935 -2.282222e-22)
(1.0256401 0.012425232 6.3234761e-22)
(1.0243795 0.0091181296 -6.9922779e-22)
(1.0241542 0.0065413471 -1.3978949e-21)
(1.024258 0.0047475863 -2.7229292e-22)
(1.0243193 0.0035439534 -3.0605093e-22)
(1.0242322 0.0027154705 8.5310532e-22)
(1.0239795 0.0021079184 -2.3675535e-22)
(1.0236438 0.001595526 -7.0573651e-22)
(1.0232508 0.0011652709 7.633059e-22)
(1.0228907 0.00068735501 -5.8314853e-22)
(1.0225756 0.00028769941 -1.7279085e-24)
(1.0275263 -0.05917704 5.8596237e-22)
(1.0948482 0.0094683423 3.3407242e-20)
(1.0836419 0.1016167 7.955064e-22)
(1.0336106 0.11747245 2.4171917e-20)
(0.97539399 0.073037208 3.2292547e-21)
(0.96656889 0.01297186 -8.4817931e-21)
(0.99604495 -0.021096686 -2.3944245e-22)
(1.0280768 -0.026224926 -1.5422127e-21)
(1.0488145 -0.014597783 4.6852528e-22)
(1.0546337 0.0026653963 -9.0008297e-22)
(1.0485427 0.015733151 7.5687034e-22)
(1.0381916 0.020850443 -3.2963865e-22)
(1.02958 0.019506061 5.7131789e-22)
(1.0248604 0.015189133 -7.2416028e-23)
(1.0232322 0.010783523 -1.0677656e-21)
(1.0231824 0.0074088472 -1.9116229e-23)
(1.0236396 0.0051528023 -5.7461725e-23)
(1.0240497 0.0037494435 -4.3692711e-22)
(1.0242097 0.0028803477 0)
(1.0241302 0.002298271 -9.9145681e-23)
(1.0238572 0.0018617477 -2.8589167e-23)
(1.0235 0.0014606944 5.8293389e-23)
(1.0230906 0.0011074802 -3.5194264e-23)
(1.0227222 0.00067073161 8.3326331e-22)
(1.0223933 0.00029178412 4.717175e-22)
(1.004877 -0.066299134 7.4116955e-21)
(1.0786396 0.0083697467 -1.953197e-20)
(1.061416 0.11417621 -8.5664541e-21)
(1.0172277 0.13681187 -2.9013876e-21)
(0.96257824 0.089213247 1.1028464e-20)
(0.94879448 0.013918565 1.4786122e-21)
(0.98423552 -0.031223477 -3.5019932e-22)
(1.0257586 -0.038415187 1.4250012e-22)
(1.0536343 -0.024191309 -2.3156261e-21)
(1.0631525 -0.0012966645 -4.5532415e-22)
(1.0562416 0.017561232 -1.3318367e-21)
(1.042377 0.025741769 2.9064068e-23)
(1.030332 0.024538337 -1.7715115e-22)
(1.0236813 0.01884994 -3.3967421e-22)
(1.0215014 0.012901587 -3.6115542e-22)
(1.0216727 0.0083969955 1.4296425e-21)
(1.0226257 0.005487997 2.1763839e-21)
(1.0235264 0.0037991304 5.6323205e-22)
(1.0240648 0.002873212 7.8168506e-22)
(1.0242145 0.0023436404 2.1965262e-23)
(1.0240865 0.00198563 -9.0432234e-22)
(1.0237664 0.0016911673 -2.0841662e-22)
(1.0233767 0.0013777719 6.1745794e-22)
(1.0229435 0.0010799449 -7.2614404e-22)
(1.0225622 0.00066844432 6.2828144e-22)
(1.0222172 0.00029278245 -3.4292504e-23)
(0.98092161 -0.072647301 -2.9519361e-22)
(1.0574335 0.0075430813 -2.1811827e-20)
(1.0406602 0.126718 3.0532355e-20)
(0.99902027 0.1533314 -2.1723494e-20)
(0.95021276 0.10607759 -1.6323195e-21)
(0.93055124 0.014833016 9.9696778e-21)
(0.9705571 -0.043491774 1.7454356e-21)
(1.0225116 -0.053232051 2.599015e-21)
(1.0591199 -0.036221389 5.8649231e-21)
(1.0735642 -0.0067394568 3.1346898e-21)
(1.0661838 0.019587549 -7.0947281e-23)
(1.0478664 0.032116221 2.5720321e-21)
(1.0312305 0.031210421 -1.1611776e-21)
(1.0219657 0.023684591 -5.3074797e-22)
(1.0189901 0.015614783 -2.9416297e-22)
(1.0194404 0.0095457946 3.0173388e-22)
(1.0210712 0.0057265102 -5.5951622e-23)
(1.0226626 0.0036398295 4.9107262e-23)
(1.0237334 0.0026371792 1.6781824e-22)
(1.0242329 0.0021891305 7.1345886e-23)
(1.0242872 0.0019569359 0)
(1.0240743 0.0017804894 -3.2384402e-22)
(1.023691 0.001587738 -4.565589e-23)
(1.0232636 0.0013415331 0)
(1.0228028 0.0010772802 8.9114994e-22)
(1.0224067 0.00067702112 4.6096951e-24)
(1.0220449 0.00029281439 -4.596836e-22)
(0.95607954 -0.078254287 -3.2282506e-21)
(1.033559 0.0066913549 -2.3586015e-21)
(1.0157573 0.13904581 2.4449642e-20)
(0.97793784 0.16884507 -3.9130405e-21)
(0.93548373 0.1207615 -1.6646661e-21)
(0.91277319 0.017455298 -1.1311456e-20)
(0.95461337 -0.057186921 -2.1955594e-22)
(1.0179528 -0.07068197 -2.5929606e-22)
(1.0647121 -0.050634947 -2.3254822e-21)
(1.0854755 -0.013753316 -6.7054136e-21)
(1.0783948 0.021955013 5.1428041e-21)
(1.0548235 0.040368339 1.7013298e-22)
(1.0322508 0.039945998 4.0217018e-23)
(1.0195331 0.029995002 -4.6847454e-22)
(1.0154761 0.019087514 -8.8786357e-22)
(1.0162612 0.010890656 -2.8241295e-22)
(1.0188022 0.005830469 -1.4983248e-21)
(1.021341 0.0031944266 -1.0227666e-21)
(1.0231607 0.0020927016 -4.1563396e-22)
(1.0241484 0.0017668895 -7.4224339e-22)
(1.02448 0.0017246307 -3.1441087e-22)
(1.0243866 0.0017198293 1.0765993e-22)
(1.0240718 0.001671828 2.9697885e-23)
(1.0236181 0.001540572 0)
(1.023155 0.0013422758 0)
(1.0226655 0.0010938807 -6.5053477e-23)
(1.0222518 0.00069463073 8.0465701e-22)
(1.0218752 0.00029603953 8.8023902e-22)
(0.93094373 -0.083185363 0)
(1.0084158 0.0060897164 -2.1437783e-20)
(0.98930704 0.1506595 -2.1822527e-20)
(0.95303134 0.18348497 -8.4429148e-21)
(0.91434267 0.13472762 -2.8920748e-21)
(0.89430235 0.020051811 1.2800442e-21)
(0.93681251 -0.071896928 -1.9653091e-21)
(1.011357 -0.090193219 1.9778928e-21)
(1.0693936 -0.067192476 -8.3558231e-21)
(1.0978371 -0.022087957 1.5283199e-21)
(1.0918644 0.024848582 -5.9377457e-22)
(1.0627873 0.050970264 -1.4408449e-21)
(1.0332321 0.051219575 1.3168091e-21)
(1.016124 0.038112722 -1.0632917e-21)
(1.0106724 0.023479646 -3.0899351e-22)
(1.0118807 0.012466011 -1.027576e-21)
(1.0156083 0.0057412279 -1.5172293e-22)
(1.0194244 0.0023633076 -3.404782e-22)
(1.022272 0.0011277777 -3.2062137e-23)
(1.0239444 0.00098646417 -4.0120278e-22)
(1.0246551 0.0012213596 -2.0531101e-22)
(1.0247421 0.0014721606 -1.5936524e-22)
(1.0244822 0.0016145423 2.7677488e-23)
(1.0240599 0.001636487 7.1556289e-22)
(1.0235455 0.0015405456 2.2621608e-22)
(1.0230503 0.0013699912 -1.3472211e-23)
(1.0225287 0.0011259625 -8.4573909e-22)
(1.0220947 0.00072004616 5.2887211e-22)
(1.021706 0.0003041818 -1.3150111e-21)
(0.90602517 -0.087421834 7.7601387e-21)
(0.9827895 0.005411106 0)
(0.96230267 0.16162234 0)
(0.92705446 0.19685572 0)
(0.89166613 0.14719217 2.559248e-21)
(0.87478739 0.024287011 0)
(0.91806439 -0.087295563 -1.1270621e-21)
(1.0026569 -0.11175543 -3.256233e-21)
(1.0727552 -0.085998099 -1.9780536e-20)
(1.1103101 -0.031856645 2.9930171e-20)
(1.1057387 0.028712696 -7.9018438e-21)
(1.0700665 0.064624201 2.0142737e-21)
(1.0332765 0.065571751 -1.0484856e-22)
(1.0113546 0.048395134 1.8598505e-21)
(1.0042217 0.028952078 2.056829e-21)
(1.0060036 0.014289764 -2.1533461e-22)
(1.0112596 0.0053856573 -1.1751596e-21)
(1.01675 0.0010216133 2.4328383e-22)
(1.0209829 -0.00039720606 7.4416825e-22)
(1.0235968 -0.00027992507 4.7432015e-22)
(1.0248349 0.00036131897 1.8478974e-22)
(1.0251547 0.00098056567 -1.6002572e-22)
(1.0249726 0.0014009303 -2.7931506e-22)
(1.0245539 0.0016110542 2.026451e-22)
(1.0240361 0.0016442164 1.2408788e-23)
(1.0234788 0.0015779407 1.6403147e-22)
(1.0229439 0.0014190975 -6.4148745e-22)
(1.0223893 0.0011696788 -2.1395965e-24)
(1.0219353 0.00075087692 -2.0451734e-21)
(1.0215363 0.00031566934 -7.9025123e-22)
(0.8793124 -0.091850189 -4.1825431e-21)
(0.95742318 0.0057733383 -3.0694808e-20)
(0.93561993 0.17153083 0)
(0.90094659 0.20912664 0)
(0.86832811 0.15802693 0)
(0.85606267 0.028764582 0)
(0.89974858 -0.10249187 0)
(0.99183786 -0.13501951 9.4336331e-22)
(1.0749261 -0.10759854 6.4996081e-21)
(1.1238364 -0.044340787 -4.4585976e-20)
(1.1223092 0.033097303 3.4994698e-22)
(1.0774206 0.081758961 -8.4765397e-21)
(1.0308228 0.083314308 6.3624941e-21)
(1.0044063 0.061168276 2.0835019e-21)
(0.99569262 0.035639435 -2.7062602e-22)
(0.99829443 0.016357044 5.2688947e-22)
(1.0054991 0.0046705886 -2.4883241e-22)
(1.0131402 -0.00098202979 5.5793391e-22)
(1.0191983 -0.0026508708 -5.6017881e-22)
(1.0230825 -0.002186794 -1.9657999e-22)
(1.0250454 -0.00097926726 -1.792255e-23)
(1.0256801 0.00017838798 -3.6633784e-22)
(1.0255754 0.00099151461 -2.3019053e-23)
(1.0251438 0.0014653273 9.6892488e-23)
(1.0245829 0.0016690763 -1.1255558e-22)
(1.0239949 0.0016990371 -5.0769675e-22)
(1.0234014 0.0016518824 -1.7916701e-22)
(1.0228266 0.0014851848 2.8023087e-22)
(1.0222464 0.0012193213 6.8070484e-25)
(1.0217745 0.00078401502 1.4734118e-21)
(1.0213656 0.00032800239 5.1319112e-22)
(0.85083511 -0.096193389 3.1858057e-21)
(0.93025278 0.0046975594 -3.9576047e-21)
(0.91007109 0.18030637 -2.4541319e-20)
(0.87553073 0.22023108 -2.3353273e-20)
(0.84514486 0.16766269 0)
(0.83709511 0.030074823 0)
(0.88209425 -0.11724216 -1.0524058e-21)
(0.97893838 -0.15884838 -8.4648493e-21)
(1.0735784 -0.13101935 2.7782612e-20)
(1.1379679 -0.06020251 -5.373064e-20)
(1.1452728 0.035754061 -1.0420701e-21)
(1.0917367 0.10115753 1.4902305e-20)
(1.0285475 0.1046557 1.3098078e-22)
(0.9941435 0.076316801 -1.6626583e-22)
(0.98452853 0.043617815 -1.6902e-21)
(0.98838562 0.018609756 -9.2746176e-23)
(0.99806468 0.0034795629 2.811485e-21)
(1.0084018 -0.0038182833 -8.0504899e-23)
(1.016806 -0.0058320919 -1.4514884e-21)
(1.0223798 -0.0049279972 -1.2598662e-22)
(1.025326 -0.0029494146 -7.4937658e-22)
(1.0263871 -0.0010369483 1.2807655e-22)
(1.0263697 0.0003507067 -4.6517827e-23)
(1.0258753 0.0011834765 -2.7313106e-22)
(1.0252387 0.0016110016 -8.1313776e-23)
(1.0245733 0.001767282 -1.7221662e-22)
(1.0239422 0.0018025699 -1.3583995e-22)
(1.0233076 0.0017449335 -1.4651254e-22)
(1.0227047 0.0015551371 3.8170367e-22)
(1.0221031 0.0012698195 -2.8277652e-23)
(1.0216132 0.00081710182 7.1180248e-22)
(1.0211945 0.00033960946 5.4284752e-23)
(0.8221288 -0.10033041 -3.892576e-21)
(0.90139096 0.0031166179 0)
(0.88371317 0.18872054 2.9905747e-20)
(0.85142981 0.23029621 3.8811731e-20)
(0.8231701 0.1759274 0)
(0.81759389 0.030817191 0)
(0.86452628 -0.13183371 0)
(0.96434443 -0.18227201 -8.5449458e-22)
(1.0672593 -0.15483289 -5.1694388e-20)
(1.1439856 -0.077367554 -5.9786454e-20)
(1.1690387 0.035472673 -1.2735791e-21)
(1.1172229 0.12054825 4.1246304e-21)
(1.0351375 0.12883386 -1.9210631e-20)
(0.98259082 0.093912701 4.7589905e-21)
(0.96999547 0.052647955 -1.0601191e-21)
(0.97591784 0.020938561 0)
(0.98869067 0.0016562179 8.0643565e-22)
(1.002342 -0.007670203 -7.0098462e-22)
(1.0136908 -0.010166167 -4.4659238e-22)
(1.0214571 -0.0087255683 1.9261678e-22)
(1.0257282 -0.00573979 1.6482405e-22)
(1.0273716 -0.0027871284 3.3181747e-22)
(1.0274544 -0.00058877168 2.0470653e-22)
(1.0268399 0.00076736559 1.4610347e-22)
(1.0260371 0.0014792949 5.0716527e-23)
(1.0252568 0.0017954183 -5.3861883e-23)
(1.0245355 0.0019026263 1.96952e-23)
(1.0238757 0.0019216863 -7.5552282e-24)
(1.0232137 0.0018245043 3.7862298e-22)
(1.0225872 0.001621963 2.8747415e-22)
(1.0219596 0.0013199358 1.3564273e-23)
(1.0214515 0.00084890401 -1.9979771e-21)
(1.0210237 0.00034995779 7.6420232e-22)
(0.79349198 -0.10401784 -7.6809484e-21)
(0.86991732 -0.0017817944 6.8155107e-23)
(0.85599941 0.19584462 3.0296472e-20)
(0.82762788 0.2400107 6.5624646e-20)
(0.80271241 0.18309935 -1.6925216e-20)
(0.79871564 0.030958031 -1.0883023e-21)
(0.84676959 -0.14595867 -4.0596156e-20)
(0.94836337 -0.20473321 1.429708e-20)
(1.0565116 -0.17825609 1.2629702e-20)
(1.1418486 -0.094592264 1.3900843e-19)
(1.1734302 0.031357247 -5.6238749e-20)
(1.1468581 0.14037151 -4.8382977e-20)
(1.0528313 0.15532009 1.7641397e-21)
(0.97719348 0.11480239 2.4868733e-22)
(0.9522251 0.062412148 -1.6202479e-21)
(0.96052712 0.023119563 3.9350614e-22)
(0.97714639 -0.00097814558 3.859582e-22)
(0.99478101 -0.01273562 2.3239495e-22)
(1.0097277 -0.015880844 -1.6650623e-22)
(1.0202828 -0.013831509 2.6212635e-23)
(1.0263103 -0.009570419 4.2193716e-22)
(1.0287545 -0.0052325769 9.2964459e-23)
(1.0289694 -0.001903256 -1.7321645e-22)
(1.0281519 0.00019370583 3.4946914e-22)
(1.0270703 0.0013117752 1.2961023e-22)
(1.0260657 0.0018119333 2.4429941e-23)
(1.0252143 0.00199954 3.1302153e-23)
(1.0244745 0.0020541985 3.0866777e-23)
(1.0237974 0.0020282591 1.2551955e-22)
(1.0231167 0.0019069781 -4.156983e-23)
(1.0224633 0.0016922524 1.9356283e-22)
(1.0218139 0.0013688796 1.7934067e-23)
(1.0212899 0.00087880071 8.0989609e-22)
(1.0208537 0.00035909669 -1.4279904e-21)
(0.76595102 -0.10721535 7.2307583e-21)
(0.836194 -0.0049342597 -1.0572032e-21)
(0.82717464 0.20132136 -6.6191711e-22)
(0.80427651 0.2497043 -3.7361898e-20)
(0.78274497 0.19117324 7.3446545e-20)
(0.78065131 0.029506525 7.9912751e-20)
(0.82856275 -0.15873311 6.6848575e-21)
(0.93125102 -0.22590105 0)
(1.0419624 -0.2008054 4.0444797e-20)
(1.1338592 -0.11123567 1.8856362e-19)
(1.1723729 0.026457444 6.5587687e-21)
(1.1660484 0.15946076 2.4358947e-20)
(1.0724568 0.18632246 0)
(0.98111592 0.14100148 3.1882969e-21)
(0.93413057 0.074436318 2.3170652e-21)
(0.94176246 0.024662968 -6.151552e-22)
(0.96327506 -0.0046165879 -3.1208824e-21)
(0.98556885 -0.019195516 0)
(1.0048002 -0.023201345 5.1074016e-22)
(1.0188122 -0.020506718 6.408242e-22)
(1.0271314 -0.014697637 -1.6130756e-22)
(1.030678 -0.0085627332 3.9655431e-22)
(1.0310893 -0.0036992347 0)
(1.0299748 -0.00055676913 7.3314444e-23)
(1.0284538 0.0011303585 1.994051e-22)
(1.0270781 0.0018788879 -1.6687872e-23)
(1.025987 0.0021360504 4.4037074e-23)
(1.025131 0.0021997137 -9.277426e-24)
(1.0243988 0.002185108 -1.9818516e-24)
(1.0237151 0.0021232913 3.8530339e-22)
(1.0230158 0.0019911399 -8.1639251e-22)
(1.0223384 0.0017579532 -5.0057175e-22)
(1.0216687 0.0014141127 0)
(1.0211293 0.0009064575 -3.1694015e-23)
(1.0206851 0.0003672022 -4.24435e-22)
(0.74024787 -0.11014807 1.0432825e-20)
(0.80329608 -0.0062783473 -2.7526233e-20)
(0.7989625 0.20604952 3.1480381e-20)
(0.78130694 0.25839747 -1.0530202e-20)
(0.76356026 0.20167537 2.5733903e-20)
(0.76228287 0.031536208 1.167974e-20)
(0.81218378 -0.17288744 5.897193e-20)
(0.91309088 -0.24572416 3.8895867e-21)
(1.024565 -0.22181293 0)
(1.1202061 -0.12722174 -6.2367392e-20)
(1.1673846 0.023543726 7.0344324e-20)
(1.1605273 0.17691203 -7.5995897e-21)
(1.0802096 0.21986056 1.7925344e-20)
(0.9859441 0.1735527 -7.4047823e-21)
(0.91990523 0.090708306 3.1465153e-21)
(0.91926121 0.025974233 1.131103e-21)
(0.94690706 -0.0095944556 -5.6825261e-21)
(0.97460478 -0.027231014 -1.6090769e-21)
(0.99880165 -0.03232493 1.3042023e-21)
(1.0169908 -0.029010769 -1.2511667e-21)
(1.0282402 -0.021396804 5.312516e-22)
(1.033298 -0.013007147 -4.9062343e-22)
(1.0340259 -0.0061049762 0)
(1.0325134 -0.0015193058 2.4841751e-23)
(1.0303507 0.00097827798 5.0965416e-23)
(1.0283943 0.0020583552 4.9064988e-23)
(1.02691 0.002386033 -1.1758416e-22)
(1.0258392 0.0024069663 -4.2679034e-23)
(1.0250278 0.0023571283 1.9034532e-23)
(1.0243183 0.0022894491 0)
(1.0236342 0.0022115398 -2.9684667e-22)
(1.0229171 0.0020643252 -8.8854102e-22)
(1.0222166 0.0018166188 1.3874837e-21)
(1.0215252 0.001455666 -4.6377492e-22)
(1.0209698 0.00093215242 6.1474122e-23)
(1.0205187 0.00037442042 1.5153692e-21)
(0.71696107 -0.11273638 -1.0612999e-20)
(0.77295247 -0.0082449352 -5.1939545e-22)
(0.77257016 0.21057629 -1.7926104e-20)
(0.75987928 0.26611042 -4.8182759e-22)
(0.74555766 0.21062763 -1.0945204e-19)
(0.74434026 0.038704619 -1.1355667e-19)
(0.79228954 -0.18137056 -8.5820603e-22)
(0.89534069 -0.26443405 3.1818373e-20)
(1.0054334 -0.24172003 5.8746117e-21)
(1.1019294 -0.14237176 6.0616652e-20)
(1.1548896 0.022716472 1.7856826e-22)
(1.1404205 0.19540801 -3.0542456e-20)
(1.0722227 0.2510626 1.7958743e-21)
(0.9862437 0.20810927 -1.4148407e-20)
(0.91015276 0.11365976 1.3355088e-21)
(0.89448035 0.027254073 -7.5611329e-23)
(0.92784919 -0.015927607 1.1996387e-21)
(0.96186441 -0.036978263 1.5099545e-21)
(0.99164552 -0.043428156 -9.5483598e-22)
(1.0147532 -0.039584352 -1.7018431e-22)
(1.0296662 -0.029962238 3.965438e-22)
(1.0367686 -0.018828967 -2.3248364e-22)
(1.0380235 -0.0092870085 2.0696012e-22)
(1.0360217 -0.0027355608 0)
(1.0329673 0.00089846755 -4.8176339e-22)
(1.0301539 0.0024528107 -5.4378029e-24)
(1.0280509 0.0028503535 -1.8701977e-22)
(1.026627 0.0027761835 2.2473009e-22)
(1.0256585 0.0025983003 -7.4270815e-24)
(1.0249205 0.0024654653 -4.0705265e-23)
(1.0242423 0.0023726928 1.0134448e-22)
(1.0235571 0.0022882855 -2.9965534e-22)
(1.0228208 0.0021302287 7.8082354e-24)
(1.0220948 0.0018720909 1.4136982e-21)
(1.0213817 0.0014945334 -1.0165614e-23)
(1.020812 0.00095609304 -4.2849762e-23)
(1.0203542 0.00038091808 5.4713833e-22)
(0.69669851 -0.1149989 -8.5098285e-22)
(0.74516672 -0.0098818505 2.3931122e-20)
(0.74897895 0.2145719 -2.5820268e-20)
(0.7406121 0.27270614 6.1104466e-21)
(0.72946606 0.21875092 2.2217667e-22)
(0.72824524 0.044017167 3.3058083e-23)
(0.77101482 -0.18615862 4.0305864e-20)
(0.8728944 -0.28099361 -5.1265635e-21)
(0.98501028 -0.25843077 0)
(1.0804399 -0.15698239 -1.3589281e-20)
(1.1365689 0.02224186 0)
(1.1197642 0.21354463 0)
(1.0555141 0.27917235 -2.1218861e-20)
(0.98236774 0.24097166 7.8295015e-22)
(0.90528112 0.14064463 1.399841e-21)
(0.87194052 0.032948044 1.2946843e-22)
(0.9052931 -0.024931089 0)
(0.94761837 -0.048564691 -9.8192867e-22)
(0.98329985 -0.056590471 -8.4651411e-23)
(1.0120447 -0.052425004 -7.1370215e-23)
(1.0314253 -0.040674508 -6.3448956e-22)
(1.0412395 -0.026322843 -4.4115773e-22)
(1.0433422 -0.013447596 -2.3216828e-23)
(1.040805 -0.0042748 -4.5192861e-22)
(1.0365633 0.0009493609 -1.1770879e-22)
(1.0325357 0.0031785789 5.0659339e-23)
(1.0295096 0.0036730981 1.8431307e-22)
(1.0275233 0.0034240084 -1.6480853e-22)
(1.0262903 0.003019846 -4.0674674e-24)
(1.0254753 0.0027042184 -3.0881997e-22)
(1.0248243 0.0025314291 -1.1717675e-23)
(1.0241773 0.0024356894 -3.1954603e-23)
(1.0234861 0.0023530259 2.1388338e-22)
(1.0227268 0.0021914382 8.1140559e-22)
(1.0219737 0.0019234863 -2.8197443e-21)
(1.0212404 0.0015302539 -5.830236e-22)
(1.0206563 0.00097862789 -5.2902919e-22)
(1.0201925 0.00038684999 0)
(0.68013472 -0.11701201 2.262649e-20)
(0.72071038 -0.011317397 -2.6016777e-22)
(0.72859142 0.21855526 -1.4060999e-20)
(0.72430832 0.27806227 4.9713816e-21)
(0.71588801 0.22567411 8.2116258e-20)
(0.71429234 0.049249905 6.8646173e-20)
(0.75111513 -0.19092 -8.6584468e-22)
(0.84849932 -0.29645381 -7.1810272e-20)
(0.95944476 -0.27704575 -8.4729782e-21)
(1.0558805 -0.16687838 -1.2679033e-19)
(1.1132302 0.021500914 2.4234038e-22)
(1.0965424 0.23075003 0)
(1.0354819 0.30435941 0)
(0.97108684 0.27001858 1.2237752e-20)
(0.90197806 0.16869746 -1.1350185e-20)
(0.85472791 0.040689578 -4.8050119e-21)
(0.88075845 -0.033654986 1.1412479e-21)
(0.93131606 -0.062260581 1.7986851e-22)
(0.97379832 -0.071867364 2.2144828e-22)
(1.0087781 -0.067647882 -1.5345004e-21)
(1.0334661 -0.053786786 -9.7917583e-23)
(1.0468141 -0.03580106 -3.3641267e-22)