/*--------------------------------*- C++ -*----------------------------------*\
| =========                 |                                                 |
| \\      /  F ield         | OpenFOAM: The Open Source CFD Toolbox           |
|  \\    /   O peration     | Version:  5.0                                   |
|   \\  /    A nd           | Web:      www.OpenFOAM.org                      |
|    \\/     M anipulation  |                                                 |
\*---------------------------------------------------------------------------*/
FoamFile
{
    version     2.0;
    format      ascii;
    class       volVectorField;
    location    "320";
    object      UMean;
}
// * * * * * * * * * * * * * * * * * * * * * * * * * * * * * * * * * * * * * //

dimensions      [0 1 -1 0 0 0 0];

internalField   nonuniform List<vector> 
9200
(
(1.0313207 0.00041349646 -2.3807618e-24)
(1.0315224 0.001323707 4.1304199e-22)
(1.0301402 0.00039489095 0)
(1.0318361 0.0021627427 -2.2342386e-22)
(1.0302974 0.0012739799 3.5675566e-22)
(1.0296096 0.00038285748 0)
(1.0322448 0.002994138 -2.1537678e-23)
(1.0305634 0.0020814911 -9.9555089e-24)
(1.0297574 0.0012277025 0)
(1.0288893 0.0003547521 0)
(1.0327209 0.0038497119 4.8897812e-22)
(1.0308905 0.0028670278 4.0941605e-22)
(1.0300002 0.0020081461 2.0541672e-22)
(1.0290131 0.0011382259 1.1616904e-23)
(1.0283222 0.00033198251 3.0861471e-25)
(1.0332367 0.0046927205 4.613607e-22)
(1.0312697 0.003676683 6.6315504e-24)
(1.0302983 0.0027579225 7.07087e-22)
(1.0292276 0.0018698975 3.0395592e-22)
(1.0284373 0.0010539438 2.5901506e-23)
(1.0278121 0.00030270682 -4.2239264e-22)
(1.0337531 0.0055729129 5.7897425e-22)
(1.0316765 0.0044552094 4.9846665e-22)
(1.0306402 0.0035318489 -4.1810191e-22)
(1.0294878 0.0025572225 -3.6442719e-23)
(1.0286314 0.0017373078 2.2229597e-22)
(1.0279148 0.00094843674 2.3029777e-22)
(1.0273532 0.00027454907 4.7724445e-23)
(1.0342426 0.0064575313 4.3226233e-22)
(1.0320854 0.0052576353 4.7142106e-22)
(1.0310053 0.0042655892 5.4218382e-22)
(1.0297856 0.0032765668 7.2381965e-23)
(1.0288638 0.002364958 -6.3870516e-22)
(1.0280896 0.0015744543 -2.8228225e-22)
(1.0274487 0.00084248634 -1.886818e-22)
(1.0269853 0.00024427939 3.1799471e-22)
(1.0346853 0.0073672529 -8.0394037e-22)
(1.0324853 0.0060420113 3.9048348e-22)
(1.0313632 0.0050155085 6.9208647e-23)
(1.0301055 0.0039509892 2.2854668e-22)
(1.0291263 0.0030297036 1.6163338e-22)
(1.0282985 0.0021325994 -8.713933e-22)
(1.0276079 0.0014100436 -1.0659703e-22)
(1.0270753 0.00072656614 -2.9436057e-22)
(1.026658 0.00021506959 -6.1048605e-22)
(1.035034 0.0082784059 7.1343013e-22)
(1.0328484 0.0068309952 -1.4927124e-23)
(1.0316953 0.0057368866 -3.9804434e-23)
(1.0304207 0.0046453824 -2.4275179e-22)
(1.0294083 0.0036442332 -1.1303767e-22)
(1.0285312 0.0027357162 2.7289462e-22)
(1.0277971 0.0018982128 2.9425934e-22)
(1.0272225 0.0012304746 4.1813012e-22)
(1.0267442 0.00061233257 2.4821233e-22)
(1.0264123 0.00018572004 6.1667784e-23)
(1.0352243 0.0091772068 -3.1943496e-22)
(1.0331503 0.0075938223 2.4539591e-22)
(1.0319859 0.0064526004 2.925724e-22)
(1.0307234 0.0053139668 -4.256605e-22)
(1.0296841 0.0042768565 1.2005953e-22)
(1.0287807 0.0032848694 -6.9066002e-22)
(1.0280045 0.0024384023 9.1356308e-23)
(1.0273968 0.0016426186 5.2069838e-22)
(1.0268813 0.0010532856 -2.2755469e-22)
(1.026498 0.00049464444 5.4484532e-22)
(1.0262046 0.00015808561 -4.4903913e-23)
(1.0353277 0.01005935 1.213693e-23)
(1.0333035 0.0083230955 -4.57265e-22)
(1.0322135 0.0071449932 -4.690144e-22)
(1.0310047 0.0059753101 0)
(1.0299487 0.0048796427 2.4601792e-23)
(1.0290224 0.0038555504 -3.0918154e-22)
(1.0282272 0.0029221292 -1.233237e-22)
(1.0275833 0.002114195 -2.5905636e-22)
(1.027044 0.0013906799 -3.1046638e-22)
(1.0266292 0.00087019543 -2.7300077e-22)
(1.0262913 0.00038157505 -1.5501688e-22)
(1.0260639 0.00013162469 4.1228244e-23)
(1.0353015 0.010918278 2.166817e-23)
(1.0333666 0.0090437813 4.7755405e-23)
(1.0323469 0.0078156207 0)
(1.0312519 0.0066108403 0)
(1.0301814 0.0054769619 -6.5922772e-23)
(1.0292535 0.0044017326 -3.1425955e-22)
(1.0284373 0.003429006 6.4309141e-24)
(1.0277828 0.0025276305 3.7945214e-22)
(1.0272132 0.0017938808 5.3459045e-23)
(1.0267857 0.0011294304 3.7093623e-24)
(1.0264185 0.0006938995 1.5833013e-22)
(1.026155 0.00027017804 -4.5778355e-23)
(1.0259557 0.00010754016 2.9787366e-22)
(1.0346771 0.011607274 -2.5597486e-22)
(1.0334059 0.0097924444 8.2337166e-24)
(1.0323666 0.0084392635 -1.237006e-22)
(1.0314046 0.0072070854 4.9549985e-23)
(1.0303765 0.0060561556 -1.5735946e-23)
(1.0294604 0.0049491503 -1.2806362e-22)
(1.0286364 0.0039127855 1.3576758e-22)
(1.0279662 0.002967693 2.1686095e-23)
(1.0273928 0.0021365414 5.5679512e-22)
(1.026943 0.0014599343 5.2599382e-22)
(1.026572 0.00087743489 6.7261405e-23)
(1.0262828 0.00051939777 2.0473044e-22)
(1.0260529 0.00016614539 1.1712799e-22)
(1.0258991 8.5674873e-05 -5.3621818e-23)
(1.0331761 0.012049995 -4.363115e-22)
(1.0332102 0.010506881 3.4066274e-22)
(1.0322967 0.0090230142 -1.8030081e-22)
(1.0314305 0.0077692267 2.4054188e-23)
(1.030501 0.0066164489 -3.0500623e-23)
(1.0296327 0.0054809211 1.7958222e-22)
(1.0288091 0.0044012788 1.4121369e-22)
(1.0281351 0.0033880463 -1.6983315e-22)
(1.0275513 0.0025071625 -1.4606041e-22)
(1.0271082 0.0017279948 -7.9731429e-23)
(1.0267212 0.0011362684 -4.0841479e-24)
(1.0264395 0.0006265503 -1.7343585e-22)
(1.0261838 0.000355812 -1.0182578e-22)
(1.0260059 6.8097719e-05 6.7912459e-24)
(1.0258683 6.6745975e-05 -3.0662349e-24)
(1.0307831 0.012251027 6.7379083e-22)
(1.0322991 0.01103903 -6.4806601e-22)
(1.0321313 0.0096255273 1.1574247e-22)
(1.0313338 0.0082895534 -1.435285e-22)
(1.0305197 0.0071487129 6.4023783e-23)
(1.0297434 0.0059980457 -3.6350574e-22)
(1.0289418 0.0048786512 -1.1277041e-22)
(1.0282745 0.0038170307 4.4042947e-23)
(1.0276932 0.0028613074 -6.9378945e-23)
(1.0272468 0.002025598 -4.3514268e-22)
(1.0268759 0.0013296634 -4.5727288e-22)
(1.0265873 0.00081133448 -2.1452429e-22)
(1.0263475 0.00039033023 1.3996433e-23)
(1.0261449 0.00020065439 6.7677814e-23)
(1.0259863 -2.0200878e-05 6.7253915e-23)
(1.0258732 5.0795738e-05 -1.5098405e-23)
(1.0276691 0.012350081 0)
(1.0306265 0.011395043 -6.9444065e-22)
(1.0314133 0.010144258 3.2290361e-22)
(1.031164 0.0088176998 0)
(1.0303782 0.0076384934 0)
(1.0297649 0.0064933219 0)
(1.0290257 0.0053524069 7.5291649e-23)
(1.0283699 0.0042387095 2.7777243e-22)
(1.0278017 0.0032266299 6.1020785e-22)
(1.0273632 0.0023081966 2.0981213e-22)
(1.0269984 0.0015517423 1.603578e-22)
(1.0267384 0.00092685134 1.01985e-22)
(1.0264986 0.00050303346 6.3758069e-23)
(1.0263226 0.00016450339 -1.7255902e-23)
(1.0261358 6.0150482e-05 -6.00121e-23)
(1.026006 -9.9046577e-05 1.5551887e-23)
(1.0258966 3.8192572e-05 0)
(1.0243268 0.01236998 5.0239348e-22)
(1.0280663 0.011552783 1.4963206e-21)
(1.0299098 0.01048604 -1.2279887e-21)
(1.0306255 0.009340848 -2.0802066e-22)
(1.0301401 0.0081299066 -1.2302393e-22)
(1.0296095 0.0069495685 0)
(1.0290395 0.0058128982 3.1483159e-22)
(1.0284192 0.0046634482 -2.3079358e-22)
(1.0278626 0.0035892823 -2.0094248e-22)
(1.0274406 0.0026035505 8.2821535e-22)
(1.0270946 0.0017601978 -1.1551178e-22)
(1.0268512 0.001069583 2.0484962e-22)
(1.0266514 0.00054167848 -1.3167429e-22)
(1.0264848 0.00020504537 -1.0773376e-22)
(1.0263316 -4.1479986e-05 -1.8906874e-22)
(1.0261715 -6.6354934e-05 1.9735227e-22)
(1.0260457 -0.00016625457 4.0536827e-23)
(1.0259412 2.9067989e-05 7.4718858e-23)
(1.021439 0.01241069 -7.0229495e-23)
(1.0248517 0.01156206 6.9149669e-22)
(1.0275818 0.010726008 3.5541993e-22)
(1.0293491 0.0097039208 -6.4440438e-22)
(1.0296548 0.0086464889 3.209048e-23)
(1.0292985 0.0073882104 -4.0848642e-22)
(1.0288839 0.0062430525 -8.8309307e-22)
(1.0284137 0.0050826224 -7.7056883e-22)
(1.0278783 0.003959495 -3.5905967e-22)
(1.0274664 0.0029014043 -3.7715934e-22)
(1.0271464 0.0019824158 -2.0412787e-22)
(1.0269316 0.0011980427 -1.1210283e-22)
(1.0267604 0.00060374496 -3.4781858e-22)
(1.0266478 0.00016546601 1.1735882e-22)
(1.0265105 -6.9745714e-05 1.4799255e-22)
(1.0263928 -0.00022899598 -4.6534038e-23)
(1.0262295 -0.00017508974 1.0336471e-22)
(1.0261096 -0.00022156816 -2.3975789e-23)
(1.0259965 2.3565435e-05 9.6899265e-23)
(1.0184141 0.012435827 -6.9746831e-22)
(1.0219214 0.011507999 -9.6928434e-22)
(1.0246215 0.010836206 3.6708385e-21)
(1.0272751 0.0099527226 2.7677616e-22)
(1.0285544 0.0090600153 -3.5202893e-22)
(1.028802 0.007866576 -1.9217192e-22)
(1.028507 0.0066376512 2.8129635e-23)
(1.0282676 0.0054840108 -2.8527207e-22)
(1.0278463 0.0043302112 -1.4101727e-22)
(1.0274439 0.0032097892 -6.4097771e-22)
(1.0271424 0.0022105791 -3.3427028e-22)
(1.0269603 0.0013396356 2.3600733e-22)
(1.026832 0.00064970118 1.6146656e-22)
(1.0267614 0.00014383329 -1.8369415e-23)
(1.0266905 -0.00018518892 1.5896082e-22)
(1.0265972 -0.00032360077 -2.3964688e-22)
(1.0264801 -0.00039206021 1.9636213e-22)
(1.0263167 -0.00026571735 -1.7468348e-22)
(1.0261856 -0.00026392745 -3.9169994e-23)
(1.0260608 2.168766e-05 -1.1563284e-22)
(1.0133169 0.012367572 -1.4597166e-23)
(1.0195459 0.011609817 -1.6373335e-21)
(1.0217409 0.010854002 7.1392795e-23)
(1.0244823 0.010091273 -9.3835588e-22)
(1.0266798 0.009363769 -1.4220899e-22)
(1.0278107 0.0082983341 3.4131116e-22)
(1.0279517 0.0070651887 -1.7019507e-22)
(1.0278628 0.005835705 6.3463713e-22)
(1.0277073 0.0046956849 6.1391329e-22)
(1.0273747 0.0035253843 0)
(1.0270854 0.0024524596 2.535023e-22)
(1.026927 0.0014904953 6.6469286e-22)
(1.0268441 0.00070709302 2.4660598e-22)
(1.0268318 0.00010258543 -6.2055379e-22)
(1.0268167 -0.00029006084 -6.5084582e-23)
(1.0268038 -0.00051365548 -1.8205131e-22)
(1.0267156 -0.00054797323 1.7946218e-22)
(1.0266041 -0.00053028618 1.5989517e-22)
(1.0264183 -0.00033631303 -1.8233564e-22)
(1.0262728 -0.00029306363 -5.4942719e-25)
(1.0261279 2.3446579e-05 -1.200435e-22)
(1.0051333 0.011804477 1.5392379e-21)
(1.0157825 0.011359878 -1.7350702e-21)
(1.0193825 0.010872513 -2.4239238e-21)
(1.0217213 0.010153226 2.3498775e-21)
(1.024038 0.0095640081 1.2339951e-21)
(1.0260927 0.0086323336 -2.5472974e-22)
(1.0270186 0.007496074 0)
(1.0272295 0.0061999981 -5.8765786e-22)
(1.0273172 0.0050147461 -5.004746e-22)
(1.0272279 0.0038465307 -1.0961585e-22)
(1.0269775 0.002706549 3.7027214e-22)
(1.0268347 0.0016573302 3.1148002e-22)
(1.0267885 0.00077496173 -1.2859179e-22)
(1.0268336 6.8458451e-05 5.514709e-23)
(1.0268948 -0.00042029461 2.8853282e-22)
(1.0269531 -0.0007025313 -2.6924778e-22)
(1.0269564 -0.00080839292 2.5966755e-23)
(1.0268798 -0.00074245247 -2.2622956e-22)
(1.0267458 -0.00064049266 5.1832778e-23)
(1.026535 -0.00038634975 6.4923949e-24)
(1.026364 -0.00030870065 -9.0001688e-23)
(1.0261946 2.8795134e-05 0)
(0.99454762 0.011247659 4.5480824e-22)
(1.0080834 0.01088727 1.2449938e-21)
(1.0164161 0.010843376 -3.4854618e-23)
(1.0195069 0.010184001 2.9809914e-21)
(1.0212624 0.0096926816 1.0476036e-21)
(1.0235831 0.0088672098 -6.6125491e-22)
(1.0254186 0.0078475507 5.8116833e-22)
(1.0262907 0.0065910001 -6.6653755e-22)
(1.0266149 0.0053074282 -1.8318144e-22)
(1.0268747 0.0041413389 7.1612055e-23)
(1.0268088 0.0029733209 -3.2608659e-23)
(1.0266844 0.0018420797 -7.8737134e-22)
(1.0266661 0.00085981324 -1.2317518e-23)
(1.0267604 4.432734e-05 1.108325e-21)
(1.026896 -0.00054959687 1.4510263e-22)
(1.0270495 -0.00092453156 -1.695424e-22)
(1.027138 -0.0010786909 -1.0609234e-22)
(1.0271651 -0.0010690487 4.5868019e-22)
(1.0270665 -0.00090220883 5.1612435e-23)
(1.0269088 -0.00072180937 -1.4919966e-22)
(1.0266577 -0.00041520232 0)
(1.0264561 -0.00031088683 2.1154107e-22)
(1.026257 3.7712661e-05 5.1058555e-24)
(0.98159367 0.010629638 -1.9714655e-21)
(0.99747628 0.010121183 4.3592276e-21)
(1.0099329 0.010475322 -4.7653858e-21)
(1.0170454 0.010227438 -1.8823057e-21)
(1.019075 0.0098031264 3.2956884e-21)
(1.0207908 0.009045852 0)
(1.023031 0.0080984952 1.3063053e-22)
(1.0247912 0.0069314181 -6.4650402e-22)
(1.0256355 0.005631491 -2.4099779e-22)
(1.0261611 0.0043722384 6.6874694e-22)
(1.0264902 0.0032388814 1.1313683e-22)
(1.0264769 0.002045798 -3.2821734e-22)
(1.0264768 0.00096697475 4.4628624e-22)
(1.0266107 3.694554e-05 -7.3472884e-23)
(1.0268149 -0.00067184662 3.6081507e-22)
(1.0270606 -0.0011538158 5.6097126e-23)
(1.0272636 -0.0013917497 -7.2323375e-22)
(1.0273907 -0.0014183043 1.9905442e-22)
(1.0274034 -0.0012886338 -8.2469922e-22)
(1.0272832 -0.0010257418 3.4907859e-22)
(1.0270806 -0.00077304367 3.8528321e-22)
(1.0267839 -0.00042279974 -2.8895381e-22)
(1.0265445 -0.00029991042 1.3701022e-22)
(1.026312 4.9835647e-05 5.1924598e-24)
(0.96668507 0.0099346888 -1.4921008e-22)
(0.98540975 0.0096289735 4.4966574e-21)
(1.0003129 0.0096478829 8.0465746e-22)
(1.011551 0.01008169 1.3071044e-20)
(1.0170466 0.0099888712 -2.8841896e-21)
(1.0185304 0.0091949403 3.8858469e-21)
(1.0202134 0.0082995355 1.1763356e-22)
(1.0225242 0.0071794664 1.9944021e-21)
(1.0242151 0.0059432922 -4.3980177e-22)
(1.0251145 0.0046167863 -1.3719121e-22)
(1.0258273 0.0034348928 3.5917935e-22)
(1.0261667 0.0022680159 7.5595527e-22)
(1.0262237 0.0010979109 3.166688e-23)
(1.0263839 5.4449397e-05 -9.4450365e-23)
(1.0266471 -0.00078037943 -3.8377856e-22)
(1.0269817 -0.0013824584 1.2243787e-22)
(1.0272973 -0.0017225075 -1.3986243e-22)
(1.0275582 -0.0018217908 3.4101216e-22)
(1.0276823 -0.0017116387 0)
(1.0276816 -0.001464854 4.0736927e-23)
(1.0275124 -0.0011111452 1.4882367e-23)
(1.0272601 -0.0007938274 -2.9970415e-23)
(1.0269079 -0.00040944395 8.4205406e-24)
(1.0266263 -0.00027620967 -1.9863747e-22)
(1.0263572 6.5126337e-05 -5.2707639e-23)
(0.95053087 0.0092052235 1.4436397e-21)
(0.97133202 0.0090335413 -3.0985635e-21)
(0.98827012 0.009025905 -2.2106363e-21)
(1.0023504 0.00941238 -1.960276e-21)
(1.0126926 0.0099812549 -1.2325473e-20)
(1.016717 0.0094356319 -5.5541835e-22)
(1.0178446 0.0084714221 1.1339597e-22)
(1.0196886 0.0073723334 -1.8519967e-22)
(1.0220598 0.0061724842 -1.4030437e-21)
(1.0237208 0.0048813737 3.2067071e-22)
(1.0247363 0.0036008745 -1.7860872e-22)
(1.0255774 0.0024514843 -9.0214509e-23)
(1.0258933 0.0012586201 -4.6782746e-22)
(1.0260814 0.00010010717 -9.9595052e-23)
(1.0263907 -0.00086414403 -3.8689821e-22)
(1.0268046 -0.0016026009 5.071837e-22)
(1.0272339 -0.0020618272 1.2619848e-21)
(1.0276281 -0.0022555826 -5.1087582e-22)
(1.0279034 -0.0022017538 -8.5061808e-22)
(1.0280256 -0.0019556565 1.4563434e-23)
(1.0279781 -0.00159475 8.6021599e-22)
(1.027756 -0.001157267 2.443214e-22)
(1.0274395 -0.00078436945 -3.8255235e-22)
(1.0270263 -0.00037573105 2.6259548e-22)
(1.0266983 -0.00024042034 -1.3089188e-22)
(1.0263903 8.3016112e-05 6.7466971e-24)
(0.9338212 0.0084633017 -6.5618511e-23)
(0.95574926 0.0084409949 -3.940565e-21)
(0.97440456 0.0082581016 9.6537733e-21)
(0.99083279 0.0087838501 -1.2073092e-20)
(1.0043787 0.0095369738 1.2641656e-20)
(1.0133249 0.0095913147 -6.9749712e-21)
(1.0160865 0.0087209046 -3.1650486e-21)
(1.0171897 0.0075447445 -2.7694515e-21)
(1.0192329 0.0063418282 2.8969176e-21)
(1.0216698 0.0050840755 7.7320453e-22)
(1.0233007 0.0037940738 -1.0668351e-22)
(1.0244951 0.0025536308 1.7798198e-22)
(1.0253635 0.0014227862 3.1011672e-22)
(1.0257053 0.00018177488 -5.4923897e-22)
(1.0260451 -0.00091815187 -3.5592693e-23)
(1.026527 -0.0018008161 2.9866927e-22)
(1.0270618 -0.0024005392 -5.6289236e-22)
(1.0275943 -0.0027096146 6.7631746e-22)
(1.0280238 -0.0027362754 -5.0764552e-22)
(1.0283129 -0.0025276987 1.6278811e-22)
(1.0283954 -0.002145625 0)
(1.0282978 -0.0016758928 4.0243744e-22)
(1.0280023 -0.001164189 1.4177855e-23)
(1.0276155 -0.0007452469 0)
(1.0271355 -0.00032263719 -3.2194337e-22)
(1.0267581 -0.00019334471 -2.1570505e-23)
(1.0264096 0.00010335427 7.1317552e-24)
(0.91696856 0.0077818522 -5.6777739e-22)
(0.93950128 0.0078712035 -3.7892055e-22)
(0.95914981 0.0076038186 9.4908871e-21)
(0.97763895 0.0080273208 -1.1583624e-21)
(0.99326216 0.0088300702 3.4164074e-21)
(1.0058981 0.0093922815 1.0121998e-20)
(1.0134638 0.0089750638 3.9760792e-22)
(1.0153938 0.0077669156 3.7322371e-21)
(1.0165899 0.0064867943 -3.8608471e-22)
(1.0188842 0.0052244341 -1.9549135e-21)
(1.0213436 0.0039783801 1.0252003e-21)
(1.022981 0.0026620903 -4.4996221e-23)
(1.0243743 0.0014963247 -2.091333e-22)
(1.0251923 0.00029522347 -6.5634186e-23)
(1.0256157 -0.00093350682 -7.155011e-22)
(1.0261462 -0.0019704855 1.0765589e-23)
(1.0267772 -0.0027239029 -1.4643155e-21)
(1.0274421 -0.0031738483 1.0598761e-21)
(1.0280358 -0.0033050652 3.0375105e-22)
(1.0284988 -0.0031599411 -5.6873614e-22)
(1.0287601 -0.0027920118 6.0693496e-22)
(1.0287988 -0.0022778744 3.0749496e-23)
(1.0286239 -0.0017083874 -3.2222318e-23)
(1.0282492 -0.0011320177 0)
(1.0277832 -0.00067769615 0)
(1.0272328 -0.00025137149 2.7601451e-23)
(1.026804 -0.00013578289 -9.2489209e-23)
(1.0264139 0.00012567697 3.1173469e-23)
(0.90033621 0.0071236289 0)
(0.92303892 0.0073028841 -2.5380252e-21)
(0.94326979 0.0069399984 -9.8058391e-21)
(0.96287498 0.007514644 -7.8304513e-21)
(0.98041044 0.0081789726 -1.4813579e-20)
(0.99540291 0.0086762205 -1.6468398e-21)
(1.0071041 0.0089290299 6.1213656e-21)
(1.0133227 0.008070256 8.611327e-21)
(1.0147275 0.0066859212 -6.0232133e-21)
(1.0160723 0.0053335791 8.3201834e-22)
(1.0186182 0.0040936551 -1.5546297e-22)
(1.0210563 0.0028207582 -3.3581359e-22)
(1.0228069 0.0015211651 3.7949753e-22)
(1.0243154 0.0003616634 -1.6702821e-22)
(1.02508 -0.00090493947 1.8410794e-23)
(1.0256653 -0.0021018107 -7.8930591e-22)
(1.026376 -0.0030234991 9.5868445e-23)
(1.0271658 -0.0036322617 -6.9606037e-22)
(1.0279213 -0.0038975352 1.3626462e-21)
(1.0285728 -0.0038422573 -7.7420975e-22)
(1.0290255 -0.0035159736 5.2695163e-22)
(1.0292526 -0.0029899606 3.4815988e-22)
(1.0292144 -0.0023519507 4.3289889e-25)
(1.0289572 -0.0016909387 -1.1698222e-21)
(1.0284895 -0.0010621426 -2.6522778e-22)
(1.0279393 -0.00058313854 4.6778884e-23)
(1.0273155 -0.00016328966 2.3441595e-22)
(1.0268342 -6.9050824e-05 -2.2826647e-23)
(1.0264025 0.00014946488 -1.4488003e-22)
(0.88421593 0.0064514699 1.7197689e-21)
(0.9066633 0.0065352741 0)
(0.9270645 0.0061364943 0)
(0.9472498 0.0067440519 0)
(0.96601745 0.0076855629 4.4190124e-21)
(0.98297339 0.0081537683 -1.3554401e-20)
(0.99735164 0.0082269806 3.5456124e-22)
(1.008204 0.0080986336 8.6460313e-23)
(1.0130413 0.0069826409 -1.2114756e-20)
(1.0140853 0.0055225689 8.3299259e-21)
(1.0156357 0.0041834295 -2.3259264e-21)
(1.0183881 0.0029210609 5.4787867e-22)
(1.0208015 0.0016067903 -4.1904815e-22)
(1.0227804 0.00032192221 3.1198568e-22)
(1.0242858 -0.00086848826 8.3300791e-22)
(1.0250827 -0.0021877081 8.0699207e-23)
(1.0258581 -0.0032880804 -9.512713e-22)
(1.0267597 -0.0040751202 -3.7128891e-22)
(1.0276725 -0.0044966812 8.0511237e-22)
(1.0285143 -0.0045642188 6.4437506e-23)
(1.0291781 -0.0043067836 -6.3111591e-22)
(1.0296114 -0.0037980709 -8.6664598e-23)
(1.0297669 -0.0031194781 9.4789106e-22)
(1.0296449 -0.0023643848 -6.3855507e-22)
(1.0292854 -0.0016259136 6.0521892e-24)
(1.0287198 -0.00095606574 -1.8648686e-22)
(1.0280806 -0.00046352011 3.5198936e-22)
(1.0273819 -5.9968858e-05 1.1126781e-22)
(1.0268478 6.0010736e-06 -9.3926755e-24)
(1.0263754 0.00017444163 -1.4121578e-22)
(0.86751427 0.0056907281 -1.4058681e-22)
(0.89065705 0.005805127 -3.2256896e-21)
(0.91077227 0.0053178162 0)
(0.93115443 0.0060412072 0)
(0.95064629 0.0069115021 0)
(0.96902836 0.0076433497 0)
(0.98540008 0.0077155 0)
(0.99929504 0.0075015501 -6.3302625e-25)
(1.0091266 0.0071124836 6.6347615e-21)
(1.0126104 0.005790837 -1.3163587e-20)
(1.0134392 0.0043865917 9.2631586e-23)
(1.0152422 0.0030157419 -2.3062646e-21)
(1.0181612 0.0016964652 2.7737878e-21)
(1.0206518 0.00028699257 -4.583522e-22)
(1.0229084 -0.00094339928 -4.0339202e-23)
(1.0243186 -0.0022327311 3.5371002e-22)
(1.0252258 -0.0035106163 -5.7523921e-22)
(1.0262218 -0.004489752 5.0710639e-22)
(1.0272821 -0.0050919597 1.6914658e-22)
(1.0283129 -0.0053079587 1.947144e-22)
(1.0291946 -0.0051550359 8.4204036e-23)
(1.0298585 -0.0046907789 2.534417e-22)
(1.030231 -0.0040016323 -7.4111542e-24)
(1.0303057 -0.0031763413 -3.8656322e-22)
(1.030074 -0.0023182714 1.2905964e-22)
(1.0296064 -0.0015131265 1.0557899e-21)
(1.028935 -0.00081612732 2.3940761e-22)
(1.0282044 -0.00032086028 -1.5754682e-22)
(1.0274305 5.6943311e-05 1.3309884e-23)
(1.0268442 8.831253e-05 9.5075675e-23)
(1.0263327 0.00020046424 1.0765383e-22)
(0.85002173 0.0047312393 -1.9399872e-21)
(0.87397693 0.0049775194 -7.8212742e-22)
(0.89472877 0.0045454298 -1.0807471e-20)
(0.91489852 0.0053021437 -1.7714686e-20)
(0.93477168 0.006243784 0)
(0.95390871 0.0068833043 0)
(0.9719517 0.0071333288 -7.4576817e-23)
(0.98790621 0.0069196074 -1.5055392e-20)
(1.0012449 0.0066818402 1.8914657e-20)
(1.0096474 0.0060253338 -1.7031789e-20)
(1.0120118 0.0046257037 -2.1627052e-22)
(1.0127391 0.0032470747 5.2414286e-21)
(1.0148705 0.0017910609 -6.7154993e-22)
(1.0179703 0.00032478285 1.9619763e-22)
(1.020728 -0.0011019219 3.1027761e-22)
(1.0231117 -0.0023296418 -1.1766529e-23)
(1.0244506 -0.003683512 1.4831452e-21)
(1.0255523 -0.0048680258 -8.6208325e-23)
(1.0267465 -0.0056689571 -1.5438792e-21)
(1.0279596 -0.0060619881 1.8579058e-21)
(1.0290621 -0.0060423017 -8.0691842e-22)
(1.0299686 -0.0056601212 -5.6453405e-22)
(1.0305879 -0.0049865733 1.5680794e-21)
(1.0308865 -0.0041210949 4.9550807e-22)
(1.0308493 -0.0031627457 -3.165315e-22)
(1.0305014 -0.0022123445 6.7535502e-22)
(1.0299124 -0.0013561467 3.1610574e-22)
(1.0291316 -0.00064396048 1.0340483e-22)
(1.0283084 -0.00015729573 -1.6265992e-22)
(1.0274603 0.00018569342 -5.4385101e-23)
(1.0268231 0.00017674362 1.4128462e-22)
(1.0262737 0.00022655603 1.5442127e-23)
(0.83255153 0.003609298 6.6556011e-22)
(0.85653376 0.0041923723 3.4558416e-21)
(0.8778562 0.0037142811 1.5752058e-20)
(0.89887881 0.004626729 2.2032973e-20)
(0.91867373 0.0055233889 0)
(0.93820056 0.0061928728 0)
(0.95712595 0.0063629551 0)
(0.9749505 0.0062520946 2.1790989e-21)
(0.99051467 0.0060255695 -2.3022932e-20)
(1.0029707 0.0058106932 -1.8426614e-20)
(1.0098032 0.0049859398 -1.6486205e-22)
(1.0112146 0.0034857673 1.3867344e-21)
(1.01196 0.00203029 -9.8757069e-21)
(1.0145442 0.00038875743 3.33697e-21)
(1.0179007 -0.0012049401 -2.1985622e-22)
(1.0210546 -0.0025822313 0)
(1.0233639 -0.0038440948 2.7813287e-22)
(1.0247449 -0.0052007636 -4.5393501e-22)
(1.0260637 -0.0062184505 -2.7161853e-23)
(1.0274491 -0.0068113776 2.4496194e-22)
(1.0287699 -0.0069567452 -8.3229795e-22)
(1.0299262 -0.0066874523 3.2978832e-22)
(1.0308093 -0.0060680827 -8.9960169e-22)
(1.0313669 -0.0051871117 -1.2372266e-21)
(1.0315562 -0.0041571405 5.3354966e-22)
(1.0313976 -0.003076052 5.9179597e-23)
(1.0309148 -0.0020514018 -5.1487107e-23)
(1.0302008 -0.0011570816 1.1933016e-23)
(1.0293073 -0.00044301192 -2.7979391e-22)
(1.0283915 2.4414315e-05 -1.8734232e-22)
(1.0274708 0.0003246443 7.6574006e-23)
(1.0267843 0.00027013323 -5.5827722e-22)
(1.0261976 0.00025050423 3.1232093e-22)
(0.81528434 0.0026197678 4.7693811e-22)
(0.8390092 0.0030341412 3.2698701e-22)
(0.86016315 0.002934947 2.6603156e-20)
(0.88196868 0.0038434513 4.3763194e-20)
(0.90275702 0.0048715468 -9.485379e-21)
(0.92221301 0.0054665207 -1.0214427e-21)
(0.94157618 0.0056091891 -3.8196084e-20)
(0.96047213 0.005433248 1.8208221e-20)
(0.97805061 0.0052493141 2.6393497e-21)
(0.9931107 0.0051372545 4.6383468e-20)
(1.0044643 0.0050092373 -1.5599448e-20)
(1.0095131 0.0040028585 -1.6740122e-20)
(1.0101804 0.0022859457 1.3803623e-22)
(1.0111702 0.00058641867 3.9378971e-21)
(1.0143408 -0.0012248388 2.3416853e-21)
(1.0181042 -0.0028800606 1.3633466e-22)
(1.021587 -0.0041451405 3.2742569e-23)
(1.0237173 -0.0054895209 2.9054967e-22)
(1.0252297 -0.0067309128 -1.7371096e-22)
(1.0267784 -0.007544626 -6.4409081e-23)
(1.0283104 -0.0078827046 6.3334371e-22)
(1.0297183 -0.007761004 -1.680032e-21)
(1.0308776 -0.0072277486 -1.4066362e-22)
(1.0317162 -0.0063702081 7.9080277e-22)
(1.0321721 -0.0052910036 -1.7140331e-21)
(1.0322385 -0.0041062969 -5.9999284e-22)
(1.0319348 -0.002921534 -5.4301557e-22)
(1.0313124 -0.001835777 -1.4904984e-22)
(1.0304662 -0.00091989799 -2.9431715e-22)
(1.0294595 -0.0002164269 3.5555246e-24)
(1.0284522 0.00022227127 -3.0771881e-23)
(1.0274616 0.00047203508 -2.1274783e-23)
(1.0267281 0.00036755295 2.8434983e-22)
(1.0261073 0.00027395474 -6.8811331e-22)
(0.79864041 0.0016658219 -7.7388282e-22)
(0.82159523 0.002099957 -5.0278471e-22)
(0.84240689 0.0018587483 -3.0711713e-20)
(0.86424132 0.0030961829 -2.1811964e-20)
(0.88579485 0.0040786185 3.6831304e-20)
(0.90636144 0.0048433841 4.6044436e-20)
(0.92568458 0.0048247394 5.3882311e-21)
(0.94508315 0.0045946323 0)
(0.96395664 0.0043727417 2.0544173e-20)
(0.98114018 0.0042716781 6.4781e-20)
(0.99553215 0.0043742815 2.438994e-21)
(1.0055174 0.0042771393 8.1917041e-21)
(1.0087898 0.0029969088 0)
(1.0089324 0.00086978023 -5.0570474e-22)
(1.0104926 -0.0011179513 -6.7093479e-21)
(1.0143715 -0.0030798472 -2.6540908e-22)
(1.0186852 -0.0046163277 9.3403741e-22)
(1.0221924 -0.0058361751 0)
(1.0242179 -0.0071972007 4.0410077e-22)
(1.025941 -0.0082523341 8.8981281e-22)
(1.0276801 -0.0088068027 -1.3116504e-21)
(1.0293357 -0.0088639765 6.4741819e-22)
(1.0307776 -0.0084540259 0)
(1.0319148 -0.0076524771 -1.6215981e-21)
(1.0326643 -0.0065624197 7.8597909e-22)
(1.0330001 -0.0052937816 -5.3803774e-23)
(1.0329154 -0.0039731107 -7.1993963e-22)
(1.0324592 -0.0026985311 6.2901976e-22)
(1.0316854 -0.0015715684 2.3215834e-23)
(1.0307062 -0.00064778102 -7.1522718e-22)
(1.0295867 3.2670177e-05 5.5290519e-22)
(1.0284903 0.00043348137 1.4363999e-22)
(1.0274328 0.00062619635 0)
(1.0266546 0.00046823259 -1.1724807e-23)
(1.0260035 0.00029657623 -2.3634445e-22)
(0.78263081 0.00070256037 -5.3338737e-22)
(0.80477645 0.0014103475 1.8324827e-21)
(0.82485494 0.00077169873 -2.8666603e-20)
(0.84640442 0.0023236487 -7.5773202e-21)
(0.86797701 0.0033400431 9.8383277e-21)
(0.88934922 0.0040444582 6.2286379e-21)
(0.90990167 0.0041725974 4.0558856e-20)
(0.92927353 0.0037246987 2.0377024e-22)
(0.94877386 0.0034735436 0)
(0.96746982 0.0033772647 -2.4649002e-20)
(0.98408842 0.0034986866 2.0663198e-20)
(0.99756476 0.0038279956 -1.3621333e-21)
(1.0058426 0.0034780755 8.5191659e-21)
(1.0075588 0.0016935386 -8.6127613e-21)
(1.0076466 -0.00084727639 -3.9546362e-21)
(1.0100783 -0.0031180955 -4.3072985e-21)
(1.014761 -0.0050830889 5.4994612e-21)
(1.0196233 -0.0064109155 4.727347e-22)
(1.0228632 -0.0076544975 7.1545767e-22)
(1.0249295 -0.0089244068 -2.0458107e-21)
(1.0268707 -0.009719334 1.7077826e-21)
(1.0287739 -0.0099826358 -1.7810383e-21)
(1.0304985 -0.0097293971 0)
(1.0319449 -0.0090226709 -4.3645104e-22)
(1.0330106 -0.0079539343 1.8698151e-22)
(1.0336479 -0.0066384554 9.0450405e-22)
(1.0338308 -0.0051983992 1.7062371e-22)
(1.0335835 -0.0037565609 9.6758681e-23)
(1.032959 -0.0024143667 4.6790204e-22)
(1.0320322 -0.0012606314 0)
(1.0309177 -0.00034505045 6.3255462e-22)
(1.0296876 0.00030105136 6.2171893e-22)
(1.0285054 0.00065568672 3.0475761e-22)
(1.0273848 0.00078557181 -2.6730057e-22)
(1.0265645 0.00057131659 1.0169129e-23)
(1.0258888 0.00032013756 8.9827281e-22)
(0.76746944 -0.00014292828 6.6656133e-22)
(0.78883269 0.00066106414 -1.8027901e-22)
(0.80785635 9.0396403e-05 8.6267641e-21)
(0.82882403 0.0012404673 3.172313e-22)
(0.84986811 0.0026866992 -4.3229783e-20)
(0.8714294 0.0033450107 -4.6116266e-20)
(0.89283686 0.0033584267 -1.6079886e-22)
(0.91355941 0.0030017496 3.1351736e-20)
(0.93306773 0.0025362192 1.8220349e-22)
(0.95254432 0.0024316326 2.4107566e-20)
(0.97087105 0.0026376886 -3.6764821e-23)
(0.98667726 0.0030648673 -1.1151288e-20)
(0.99888892 0.0033573086 -1.3022661e-21)
(1.0053235 0.0023700347 -8.940012e-21)
(1.0060084 -2.3290756e-05 3.0048459e-20)
(1.0064875 -0.0029666188 4.3599919e-22)
(1.0100614 -0.0053642621 -3.5166902e-21)
(1.0156705 -0.007138932 -1.8125677e-21)
(1.020735 -0.0082760612 5.0001424e-23)
(1.0236701 -0.0095613804 -3.4586726e-22)
(1.0258756 -0.010610495 7.4815125e-22)
(1.0280241 -0.01110504 -2.2073186e-21)
(1.0300338 -0.011040206 1.9367693e-21)
(1.031794 -0.010462816 0)
(1.0331912 -0.009455163 9.839023e-22)
(1.0341577 -0.0081242655 1.873474e-21)
(1.034645 -0.0065998278 -8.5738094e-22)
(1.0346589 -0.0050034164 1.6429564e-21)
(1.0342288 -0.0034639807 2.8787392e-23)
(1.0334319 -0.0020701573 -5.399697e-22)
(1.0323466 -0.00090965778 -6.8540791e-22)
(1.031099 -1.533704e-05 -1.00967e-23)
(1.0297617 0.00058546344 -4.3998416e-23)
(1.0284979 0.00088637186 4.1191976e-22)
(1.0273185 0.00094873273 -1.3861567e-22)
(1.0264586 0.000676129 -3.6759804e-23)
(1.0257622 0.0003473697 3.5899373e-22)
(0.75406765 -0.00099630146 -1.9795203e-22)
(0.77402157 -0.00011013144 -1.5186279e-21)
(0.79173806 -0.00053780935 1.1107446e-20)
(0.8116497 0.00066074134 6.0871285e-21)
(0.83203272 0.0017738728 -3.4575023e-22)
(0.85300377 0.0027379067 2.9448371e-22)
(0.87481451 0.0026633584 2.5363006e-20)
(0.89643964 0.0021649393 -1.1931634e-20)
(0.91743853 0.0017372337 0)
(0.93697947 0.0014611464 -5.4802478e-21)
(0.95628571 0.0016960603 0)
(0.97393744 0.0022831712 0)
(0.98869883 0.0027785549 -1.181373e-20)
(0.99942946 0.0026140747 1.4234296e-21)
(1.0041099 0.00079665814 6.3568195e-21)
(1.00435 -0.0022423779 8.4676193e-21)
(1.0056746 -0.0054260223 -1.0107971e-20)
(1.010587 -0.0077771031 -3.4046224e-21)
(1.0170944 -0.0091767274 -1.2706396e-21)
(1.0218851 -0.01025339 1.0197609e-22)
(1.0246726 -0.011469582 -1.3160935e-21)
(1.027077 -0.012221453 1.1677791e-21)
(1.0293754 -0.012371293 2.5193801e-22)
(1.0314535 -0.011958622 -7.85786e-22)
(1.0331918 -0.011047898 -6.9008588e-23)
(1.0345075 -0.009741653 4.2887133e-22)
(1.0353317 -0.0081628477 -1.2660872e-22)
(1.0356479 -0.0064443286 -1.0299173e-21)
(1.0354681 -0.0047155997 -8.6043729e-23)
(1.0348476 -0.0030962314 -1.6505833e-21)
(1.0338696 -0.0016741731 -3.5244852e-22)
(1.0326275 -0.00052144301 -1.3633435e-22)
(1.0312488 0.00033703661 -7.5058579e-22)
(1.0298088 0.0008827964 1.5497309e-22)
(1.0284681 0.0011234504 -8.6924326e-22)
(1.0272348 0.0011144409 -1.8383704e-22)
(1.0263386 0.00078150506 -3.1454339e-22)
(1.0256252 0.00037490272 0)
(0.74409467 -0.0018375481 -1.1033089e-21)
(0.76100931 -0.00095622949 -1.7166289e-22)
(0.77671805 -0.00107315 2.8027349e-21)
(0.79527341 0.00015244856 4.9614484e-21)