/*--------------------------------*- C++ -*----------------------------------*\
| =========                 |                                                 |
| \\      /  F ield         | OpenFOAM: The Open Source CFD Toolbox           |
|  \\    /   O peration     | Version:  5.0                                   |
|   \\  /    A nd           | Web:      www.OpenFOAM.org                      |
|    \\/     M anipulation  |                                                 |
\*---------------------------------------------------------------------------*/
FoamFile
{
    version     2.0;
    format      ascii;
    class       volSymmTensorField;
    location    "320";
    object      UPrime2Mean;
}
// * * * * * * * * * * * * * * * * * * * * * * * * * * * * * * * * * * * * * //

dimensions      [0 2 -2 0 0 0 0];

internalField   nonuniform List<symmTensor> 
9200
(
(0.00046506965 1.7663263e-05 -5.3033592e-26 1.4654054e-06 -4.0244746e-27 3.4229833e-47)
(0.00047609398 5.7767797e-05 1.6255778e-23 1.6564442e-05 2.0292526e-24 6.7350263e-43)
(0.00037082197 1.5089567e-05 0 1.417557e-06 0 0)
(0.00049312824 9.2772231e-05 -8.8687912e-24 4.2838182e-05 -1.7587236e-24 1.9366801e-43)
(0.00037898891 4.9510405e-05 1.259737e-23 1.6303161e-05 1.8734154e-24 5.0178378e-43)
(0.00032757995 1.3928106e-05 0 1.3514245e-06 0 0)
(0.000521212 0.00013065858 -8.859032e-25 8.6168561e-05 -2.3196849e-25 1.7952006e-45)
(0.00039250021 7.8731172e-05 8.2228654e-26 4.1897775e-05 -8.5814495e-26 1.8022098e-45)
(0.00033529362 4.5267135e-05 0 1.5540223e-05 0 0)
(0.00027797537 1.1977693e-05 0 1.2643928e-06 0 0)
(0.0005578919 0.00016713036 2.0120944e-23 0.00014417815 7.0256977e-24 8.8761157e-43)
(0.00041481305 0.00010908532 1.2854177e-23 8.3931864e-05 4.9454292e-24 5.5189331e-43)
(0.00034689754 7.1612356e-05 6.6765173e-24 3.9746251e-05 1.9391798e-24 1.6068019e-43)
(0.00028439076 3.9006783e-05 3.5379534e-25 1.4714981e-05 7.2814275e-26 5.7151877e-46)
(0.00024027697 1.0576221e-05 2.1627396e-27 1.1906881e-06 3.901225e-28 2.951186e-49)
(0.00060649643 0.00020534627 1.9553152e-23 0.00022474802 7.7208925e-24 7.5201471e-43)
(0.00044463511 0.00013659438 -3.7717894e-25 0.00013930521 2.9307923e-25 5.5431712e-45)
(0.00036615124 9.8536348e-05 2.2752366e-23 7.9220784e-05 9.349172e-24 1.8165158e-42)
(0.00029503853 6.1384265e-05 7.9101254e-24 3.7427346e-05 2.8882711e-24 3.1107266e-43)
(0.00024666471 3.4225397e-05 1.4085124e-25 1.3850983e-05 1.0600345e-25 2.2002443e-45)
(0.00020727437 9.152443e-06 -1.1668439e-23 1.1136275e-06 -8.9868014e-25 9.9293731e-43)
(0.00066720511 0.00024283226 2.5426297e-23 0.0003308124 1.4232741e-23 1.3540004e-42)
(0.00048509037 0.00016330328 1.9039624e-23 0.0002150968 8.4795195e-24 8.7607939e-43)
(0.00039195702 0.00012211006 -1.3946731e-23 0.00013049047 -6.9468707e-24 6.3291907e-43)
(0.00031317963 8.3757327e-05 -8.4233071e-25 7.4273532e-05 -4.7961631e-25 4.0708475e-45)
(0.00025679182 5.3594114e-05 6.3769469e-24 3.4992771e-05 2.3068487e-24 2.2435511e-43)
(0.00021323056 2.9563026e-05 5.5764306e-24 1.3038341e-05 1.5173843e-24 2.3136491e-43)
(0.00018031691 7.9455729e-06 8.0072373e-25 1.0445215e-06 8.2470579e-26 7.3163022e-45)
(0.00074326374 0.00027870855 1.9301339e-23 0.00047154983 1.7687437e-23 1.2520948e-42)
(0.00053865508 0.0001867838 1.6872007e-23 0.00031332264 1.0982871e-23 7.2380315e-43)
(0.00042723395 0.00014391013 1.702382e-23 0.00019961398 1.1304438e-23 9.752109e-43)
(0.00033810322 0.00010268448 5.1548535e-25 0.00012153868 1.2583292e-24 2.6156936e-44)
(0.00027398526 7.2690345e-05 -1.6086367e-23 6.9117653e-05 -8.7184904e-24 1.4725804e-42)
(0.00022294189 4.6205329e-05 -6.1196133e-24 3.280338e-05 -2.7638882e-24 2.894281e-43)
(0.00018619874 2.5585616e-05 -6.0736144e-24 1.2268864e-05 -1.6402136e-24 3.4071911e-43)
(0.00015742188 6.8340459e-06 8.5110402e-24 9.8330526e-07 8.1860966e-25 9.1100772e-43)
(0.00083790913 0.00031053163 -3.6838461e-23 0.00065587982 -2.7404335e-23 2.3977537e-42)
(0.00061070819 0.00020633626 1.8010504e-23 0.0004422697 6.3651762e-24 6.1385914e-43)
(0.00047432129 0.00016145887 4.990848e-25 0.00028735162 2.6561132e-24 4.2630015e-44)
(0.00037310695 0.00011955062 7.0151169e-24 0.00018470263 4.5407103e-24 1.8376e-43)
(0.00029771828 8.8473783e-05 4.0508102e-25 0.00011235679 2.367411e-24 1.105175e-43)
(0.00023963103 6.2501747e-05 -2.130998e-23 6.4645138e-05 -1.2342618e-23 3.1666172e-42)
(0.0001956861 3.9987374e-05 3.105896e-24 3.0725337e-05 3.4333708e-25 1.9506102e-43)
(0.00016309589 2.1945528e-05 -9.0747318e-24 1.1624549e-05 -2.8304166e-24 1.0182928e-42)
(0.00013888792 5.8561409e-06 -1.5709123e-23 9.2839665e-07 -1.738499e-24 4.2629647e-42)
(0.00095390508 0.00033279657 3.1282208e-23 0.00089370246 3.333953e-23 2.0968387e-42)
(0.0007079205 0.00021930974 -9.7892954e-24 0.00060957125 1.0116862e-23 6.3285305e-43)
(0.00053807716 0.00017407578 -5.9750633e-25 0.00039991685 -1.6188473e-24 8.438381e-45)
(0.00042087743 0.00013243039 3.0235352e-25 0.00026418061 -7.7321236e-24 4.2709242e-43)
(0.00033125044 0.00010217863 -2.1973424e-24 0.00016964276 -2.2597636e-24 3.54694e-44)
(0.00026295632 7.5931345e-05 -1.28235e-25 0.00010458685 3.2444839e-24 2.5759976e-43)
(0.00021190799 5.4061836e-05 6.529737e-24 6.0427732e-05 4.2535474e-24 3.8542808e-43)
(0.00017229264 3.4351246e-05 9.7614482e-24 2.9019077e-05 5.0499924e-24 1.1586332e-42)
(0.00014441032 1.8734739e-05 4.5569107e-24 1.1049649e-05 1.8392142e-24 3.6550316e-43)
(0.00012338156 4.9475954e-06 9.7858043e-25 8.8122066e-07 1.4004665e-25 2.5199748e-44)
(0.0010938486 0.00034031888 -1.5825792e-23 0.0011967564 -1.5520019e-23 4.0078384e-43)
(0.00083833782 0.00022104451 -3.059867e-24 0.00082578069 2.1383532e-23 8.0394281e-43)
(0.00062511895 0.00017972706 1.547625e-23 0.00054278839 5.8511374e-24 4.4287267e-43)
(0.00048681116 0.00014103092 -1.1152518e-23 0.00036570564 -1.1928825e-23 5.1562732e-43)
(0.00037731519 0.00011220706 1.2997631e-23 0.0002409047 1.8548566e-24 7.4638413e-43)
(0.00029610267 8.7622202e-05 -2.314266e-23 0.00015721901 -1.4967253e-23 2.8175339e-42)
(0.00023455 6.5741949e-05 -2.1142567e-25 9.739378e-05 8.6339189e-25 2.3515424e-44)
(0.00018798902 4.6486404e-05 1.62529e-23 5.7064717e-05 1.0290031e-23 2.9174337e-42)
(0.00015330359 2.9420931e-05 -6.8555976e-24 2.7506626e-05 -3.7868201e-24 7.6216769e-43)
(0.00012871625 1.5726606e-05 1.1978955e-23 1.0586077e-05 5.4218626e-24 3.5308431e-42)
(0.00011112409 4.132249e-06 -1.6160502e-24 8.3774678e-07 -2.4251113e-25 9.8172926e-44)
(0.0012651199 0.00035376004 5.3255284e-24 0.0015926296 -2.8745631e-24 7.4760062e-44)
(0.0010073705 0.00020525928 1.6475842e-23 0.0011051257 -4.5962745e-23 3.092492e-42)
(0.00074414337 0.00017593404 -1.2418897e-23 0.00072596925 -2.135747e-23 7.5767217e-43)
(0.00057819461 0.00014394078 0 0.0004944505 0 0)
(0.00044105158 0.00011850243 1.6101548e-26 0.00033130292 7.5228422e-25 2.3464833e-45)
(0.00034175295 9.644982e-05 2.044789e-24 0.00022225901 -6.2775287e-24 3.9483274e-43)
(0.00026659071 7.6064587e-05 -4.2944891e-24 0.00014598158 -2.9852104e-24 1.2043284e-43)
(0.00020990441 5.6761184e-05 -8.5993939e-24 9.178388e-05 -6.2669719e-24 7.2933385e-43)
(0.00016839843 3.9896693e-05 4.7495184e-25 5.4108289e-05 -1.4471948e-24 1.6869204e-43)
(0.00013725149 2.4797309e-05 -7.32092e-24 2.6300773e-05 -4.9007325e-24 1.2524101e-42)
(0.00011628494 1.2993385e-05 -4.0803654e-24 1.0166531e-05 -2.1784201e-24 6.1620305e-43)
(0.00010126329 3.3642534e-06 6.9982711e-25 7.9867038e-07 1.4479465e-25 3.1418858e-44)
(0.0014411814 0.000375715 3.2463051e-24 0.0020930172 1.0923616e-24 1.0975233e-44)
(0.0012229309 0.00017599399 -2.7763245e-23 0.0014724547 1.7950805e-23 1.2391736e-42)
(0.00090186172 0.00015637196 0 0.0009610713 0 0)
(0.00070520771 0.0001397757 0 0.00065958622 0 0)
(0.00052910444 0.00012013246 -8.1273994e-24 0.0004455344 -4.9588736e-25 1.7185906e-43)
(0.00040481071 0.00010267935 1.1757676e-23 0.00030452268 -8.0486471e-24 1.2291102e-42)
(0.0003104793 8.4202847e-05 -1.2433405e-23 0.00020574693 -2.7545676e-24 9.0600576e-43)
(0.00024089761 6.6112293e-05 1.0066749e-23 0.00013733599 9.0687393e-24 9.0907406e-43)
(0.00018935612 4.898893e-05 6.3104587e-25 8.6921436e-05 8.0287852e-25 8.0366411e-45)
(0.00015168358 3.3666795e-05 -5.9142736e-27 5.1809071e-05 1.4303929e-26 2.0111268e-47)
(0.0001244471 2.0594979e-05 7.488008e-24 2.5220872e-05 5.7313406e-24 1.9557243e-42)
(0.00010626012 1.0370719e-05 -6.509265e-24 9.8107023e-06 -4.1281227e-24 2.6236391e-42)
(9.3843192e-05 2.6707646e-06 9.166837e-24 7.6075538e-07 2.3607249e-24 9.6985049e-42)
(0.0014960541 0.00030236573 -5.3189895e-23 0.0026260953 -7.7163784e-24 3.2246276e-42)
(0.0014888403 0.00015660333 7.0028761e-24 0.0019633589 -2.0602041e-24 4.829701e-44)
(0.0011006345 0.00011744954 -3.9101748e-23 0.0012658113 6.6611972e-24 1.8682815e-42)
(0.0008767505 0.00012395798 2.623456e-23 0.00087316483 -5.670673e-24 1.1175905e-42)
(0.00065123883 0.00011667397 -1.5459481e-23 0.0005925148 2.9132186e-24 5.4615917e-43)
(0.0004915109 0.00010576266 5.2145888e-24 0.00040851342 -4.2104184e-24 1.7682399e-43)
(0.00037085177 9.0472226e-05 3.5134424e-24 0.00028122658 3.5380943e-24 6.7161745e-44)
(0.00028314939 7.4028252e-05 -2.2899957e-25 0.0001931922 2.4853299e-25 1.3975211e-45)
(0.00021878728 5.7473296e-05 7.3929963e-24 0.00012998408 1.0507002e-23 9.4119465e-43)
(0.00017160859 4.1579156e-05 5.3459728e-24 8.3227412e-05 7.9844268e-24 8.1954719e-43)
(0.00013818071 2.7965224e-05 2.0573905e-24 4.9769611e-05 2.1906511e-24 1.3466592e-43)
(0.00011405408 1.6530204e-05 4.2910332e-24 2.4316499e-05 4.5647651e-24 1.0861103e-42)
(9.8711093e-05 7.9566794e-06 2.1287097e-24 9.463571e-06 2.0116508e-24 5.2690862e-43)
(8.8351214e-05 2.0224139e-06 -1.6880336e-24 7.2407238e-07 -6.5137825e-25 7.736712e-43)
(0.0013843851 6.3181301e-05 4.6940042e-23 0.0031213169 -1.5618375e-22 1.2682693e-41)
(0.0017312213 0.00012326476 2.971253e-22 0.0025906098 -7.8577289e-23 7.094715e-41)
(0.0013497821 7.5094621e-05 6.1958675e-24 0.0016658616 -2.2098989e-23 3.7222724e-43)
(0.0010948738 8.9197017e-05 -5.0001022e-24 0.0011518055 3.1745798e-24 4.0849165e-44)
(0.00081867013 0.00010580958 2.410406e-24 0.00078440989 -2.0406176e-24 1.7001993e-44)
(0.00061113524 0.00010559554 -1.0514341e-23 0.00054274946 7.4210312e-24 4.3037004e-43)
(0.00045334464 9.4611661e-05 3.9578148e-24 0.00037663155 4.1539668e-24 7.1013553e-44)
(0.00034076312 8.0879421e-05 -3.9751706e-24 0.00026365806 -4.5812753e-24 1.1092333e-43)
(0.00025860342 6.5047714e-05 1.4106501e-24 0.00018268769 -1.253722e-24 5.0200676e-44)
(0.00019948347 4.9172629e-05 -4.3484077e-25 0.00012448405 -1.143225e-24 1.1165395e-44)
(0.00015698831 3.4726081e-05 -1.3408133e-25 8.0002462e-05 -1.6482529e-25 4.9148522e-46)
(0.00012711717 2.2356911e-05 8.9524846e-26 4.8100118e-05 -6.9421847e-25 3.1907191e-44)
(0.00010617095 1.2770415e-05 -4.5573933e-24 2.3443424e-05 -6.1732311e-24 2.2188718e-42)
(9.3137544e-05 5.6442377e-06 1.5194136e-24 9.1331013e-06 2.039937e-24 6.2263054e-43)
(8.4681039e-05 1.4438081e-06 -7.0354522e-25 6.8683974e-07 -4.9920147e-25 4.9581184e-43)
(0.0012418985 -0.00028046973 6.3138205e-23 0.0035493352 5.1378635e-23 1.1681197e-41)
(0.0017789086 -1.7920396e-05 -1.9914752e-22 0.0032668785 -1.7196284e-23 3.0289369e-41)
(0.0016387824 5.758295e-05 9.8762486e-23 0.0022098643 -2.1804941e-23 7.6715406e-42)
(0.0013579362 4.0634216e-05 -6.986455e-23 0.0015190644 3.5182141e-24 4.3984117e-42)
(0.0010357361 7.9463482e-05 4.0525652e-23 0.0010376511 -2.4713279e-24 1.9451714e-42)
(0.00077538874 0.00010104966 -3.4388413e-23 0.00071945041 -1.4263518e-23 1.9611568e-42)
(0.00056638451 9.6578147e-05 3.1994671e-23 0.00050005041 -2.0062739e-24 2.4874171e-42)
(0.0004188948 8.6534262e-05 -1.2338173e-24 0.00035262641 7.6120344e-25 9.7963617e-45)
(0.00031267669 7.2120289e-05 -3.2154159e-24 0.00024904946 -2.8043134e-24 6.7225127e-44)
(0.00023694175 5.6367663e-05 3.6731913e-24 0.0001749024 -2.8208228e-24 3.5863233e-43)
(0.0001831169 4.1331199e-05 -1.6475344e-23 0.00011976684 -2.182601e-23 5.9907207e-42)
(0.00014485668 2.7841216e-05 4.5387159e-24 7.7434636e-05 4.7710797e-24 8.1651523e-43)
(0.00011862332 1.7105516e-05 1.6156649e-24 4.6491553e-05 2.7980212e-24 2.4159077e-43)
(0.00010033026 9.1287196e-06 3.2662181e-25 2.262208e-05 8.9746323e-25 3.8410244e-44)
(8.9438595e-05 3.5344495e-06 -4.7867206e-26 8.7846324e-06 7.6941122e-26 5.2765328e-45)
(8.2493241e-05 9.1965823e-07 8.1214892e-26 6.49029e-07 5.5111119e-25 6.3827601e-43)
(0.0012081973 -0.00064812005 0 0.003903021 0 0)
(0.0017241153 -0.00027146952 -2.8389839e-22 0.0039432683 4.8227994e-23 6.8474965e-41)
(0.0017859611 -3.6598724e-06 -3.1391179e-24 0.0028663616 6.9794131e-23 1.9973436e-42)
(0.0016606371 1.4104205e-05 0 0.002023234 0 0)
(0.0012952911 3.1735334e-05 0 0.0013754035 0 0)
(0.00099229783 8.5190216e-05 0 0.00095579844 0 0)
(0.0007218666 9.6246708e-05 -4.2904855e-24 0.00066334447 2.9940898e-24 5.2138243e-44)
(0.00052518484 9.0937664e-05 1.2074639e-23 0.00046765004 1.0690781e-23 5.0158412e-43)
(0.00038565172 7.8659005e-05 -1.4443419e-23 0.0003326538 7.6412676e-24 1.4189544e-42)
(0.00028737057 6.3511097e-05 7.6694445e-24 0.00023828211 8.790297e-24 5.4155945e-43)
(0.00021794438 4.7834235e-05 -1.1391205e-24 0.00016834688 8.140091e-25 3.9852993e-44)
(0.00016934546 3.3246227e-05 2.7705611e-24 0.00011610662 4.9224086e-24 2.8168335e-43)
(0.00013536452 2.1282474e-05 -3.4291457e-25 7.4988979e-05 -1.9841394e-25 8.8823265e-45)
(0.00011229694 1.1923205e-05 -1.1898499e-24 4.499431e-05 -3.2746756e-24 3.1852461e-43)
(9.6437303e-05 5.7900151e-06 -5.7298553e-26 2.1759666e-05 -5.9372618e-25 1.7167051e-44)
(8.7292582e-05 1.5704394e-06 -1.6994145e-26 8.4214579e-06 -1.0155945e-24 1.6253565e-43)
(8.1614654e-05 4.6612972e-07 0 6.1010474e-07 0 0)
(0.0014238139 -0.0009606194 4.5818037e-23 0.0042099613 -9.0817806e-23 1.9856557e-41)
(0.001650107 -0.00059883132 3.6869714e-22 0.0045901135 2.9556295e-23 1.5354433e-40)
(0.0017805897 -0.00017725268 -5.336029e-22 0.0035587803 5.0283257e-23 2.1712646e-40)
(0.001875948 -1.0729777e-05 -2.4444884e-22 0.0026843925 5.499966e-23 3.9959777e-41)
(0.0015982288 -7.7046614e-06 -1.6007236e-22 0.0018414945 1.6109763e-23 1.8958572e-41)
(0.0012532228 4.3432103e-05 0 0.0012731563 0 0)
(0.00093158096 8.9082577e-05 -6.5222751e-23 0.00088405163 1.5729312e-23 5.832476e-42)
(0.00067098275 9.4142707e-05 1.2839611e-23 0.00061979362 -6.9782652e-24 4.4199468e-43)
(0.00048439457 8.4572124e-05 3.7067731e-23 0.00044050359 6.9385573e-24 3.9138893e-42)
(0.00035498027 7.0637947e-05 -1.6261247e-23 0.00031783874 7.5170256e-24 2.0192483e-42)
(0.00026460539 5.4607617e-05 -3.8217689e-24 0.00022929242 -5.4421207e-24 1.9325329e-43)
(0.00020174833 3.8807829e-05 -1.1948438e-24 0.00016336038 8.71898e-25 5.456709e-44)
(0.00015829836 2.5363477e-05 5.5618267e-24 0.00011266734 9.7875589e-24 1.558448e-42)
(0.00012821063 1.4661875e-05 -4.2629703e-24 7.2756516e-05 -1.3756665e-23 3.4099126e-42)
(0.00010804771 7.114989e-06 -1.0852915e-25 4.3405667e-05 -2.5955127e-24 1.6441336e-43)
(9.4209063e-05 2.6454862e-06 -1.4765979e-25 2.0865384e-05 -1.1155054e-23 8.1458402e-42)
(8.6516092e-05 -1.7210288e-07 9.2044929e-25 8.0288687e-06 -2.7187522e-24 1.1792141e-42)
(8.1774009e-05 7.7713e-08 1.5344892e-24 5.7024004e-07 -6.6583605e-25 1.0949532e-42)
(0.0020217508 -0.001133574 -4.5765112e-25 0.004477989 1.5600757e-24 1.3705207e-43)
(0.0016868946 -0.00096334086 1.8150859e-22 0.0051834893 -6.4879919e-23 4.8554393e-41)
(0.001720783 -0.00042704077 5.7859907e-23 0.0042779613 6.1040712e-23 4.7558252e-42)
(0.0019255162 -0.00013474042 -2.8778197e-22 0.0034148864 -1.8623256e-24 5.5544819e-41)
(0.001854698 -2.4037956e-05 2.9555545e-23 0.0024842283 -3.3418103e-24 5.6624942e-43)
(0.0015520255 -1.2243729e-05 -1.7814134e-23 0.0017089201 -5.3209951e-23 2.262135e-42)
(0.001191232 5.7775393e-05 1.2883439e-22 0.0011828172 -7.2710047e-23 2.1500368e-41)
(0.00087083065 9.3897777e-05 1.1801508e-22 0.00082635944 -2.5425269e-23 2.0267736e-41)
(0.00061941166 8.9983578e-05 2.4911209e-23 0.00058281988 -6.0506752e-24 1.4601503e-42)
(0.00044606268 7.7728181e-05 -8.7251674e-24 0.00041999695 -1.4522737e-23 6.4341734e-43)
(0.00032687032 6.1748332e-05 3.2701977e-24 0.00030550255 -1.3738256e-24 9.6913604e-44)
(0.00024480601 4.4838307e-05 -8.7612626e-24 0.00022256316 -1.3067003e-23 1.2917784e-42)
(0.00018836246 2.969183e-05 4.3692261e-24 0.00015877065 3.9140297e-24 5.4709678e-43)
(0.00014983973 1.7195336e-05 -1.8422093e-25 0.00010959589 8.6646821e-25 1.4122715e-44)
(0.00012330976 8.4161609e-06 -1.5098458e-25 7.0376948e-05 1.2356709e-24 3.0894895e-44)
(0.00010565621 2.5021028e-06 4.1513427e-26 4.1751123e-05 2.5388126e-24 2.1310616e-43)
(9.3439504e-05 -1.5335815e-07 8.0441852e-25 1.9897254e-05 -3.7261946e-24 9.5884951e-43)
(8.6843999e-05 -1.7122725e-06 -3.7774633e-26 7.6099857e-06 8.9256751e-26 3.685351e-45)
(8.2788698e-05 -2.3887698e-07 2.1069963e-24 5.2968028e-07 -6.0039128e-25 1.0007479e-42)
(0.00303288 -0.0011870318 -1.6420401e-23 0.004764438 2.0312121e-23 5.5540663e-42)
(0.0020551324 -0.0012449447 -1.6929048e-22 0.005754076 4.4474971e-23 5.5687775e-41)
(0.001713623 -0.00073290664 8.563404e-22 0.0049841829 4.6152148e-23 9.2412368e-40)
(0.0019006006 -0.00033652397 1.5188512e-22 0.0041970879 -5.9781979e-23 1.7461378e-41)
(0.0019632942 -0.00010695939 -8.2150895e-23 0.0032442886 -5.9780613e-23 5.8699714e-42)
(0.0018341951 -4.3262296e-05 -8.2082521e-24 0.0023281185 -3.8650675e-23 8.2525422e-43)
(0.0014862495 -7.6577726e-06 -3.1853007e-23 0.0015906269 5.3611243e-24 7.9260202e-43)
(0.0011280578 7.5129424e-05 -4.7592816e-23 0.0011088657 -2.7620455e-23 2.9100826e-42)
(0.00080601789 9.4173999e-05 1.6052979e-23 0.00077586117 -3.1925545e-24 4.1136572e-43)
(0.00057018893 8.4779956e-05 5.8279178e-23 0.00055400204 3.2413005e-24 7.9901656e-42)
(0.00041047375 6.9282616e-05 -1.9415819e-23 0.00040285875 -2.2709966e-23 2.3064425e-42)
(0.00030189404 5.1495801e-05 -3.9491913e-25 0.00029630459 4.2849299e-24 8.1749392e-44)
(0.00022805918 3.4549114e-05 2.2032875e-24 0.00021649851 6.6550798e-24 2.3814439e-43)
(0.00017791062 1.9980412e-05 -6.8296695e-26 0.00015478035 -4.8965642e-25 1.648281e-45)
(0.00014388225 9.3291083e-06 -3.9287519e-25 0.00010631122 6.9557539e-25 2.4396906e-44)
(0.00012053017 2.2969739e-06 4.2175626e-25 6.7899723e-05 1.1085266e-23 2.6068413e-42)
(0.00010487145 -1.6405551e-06 1.0656504e-25 3.9932052e-05 -2.0102402e-24 2.3391092e-43)
(9.3893785e-05 -2.6529855e-06 -2.7814838e-24 1.886425e-05 6.1258708e-24 2.6423823e-42)
(8.8083776e-05 -3.0104707e-06 -9.890989e-25 7.163837e-06 9.764261e-25 1.7252042e-43)
(8.4434785e-05 -4.8617629e-07 -2.8689562e-24 4.8869575e-07 5.9949363e-25 1.1057236e-42)
(0.0041947112 -0.0012009826 1.3265436e-24 0.0050524545 4.7447943e-23 8.3135125e-43)
(0.0029250846 -0.0013968443 -3.0973392e-22 0.0063673072 1.5350166e-22 1.3060006e-40)
(0.0019698705 -0.0010182947 -1.0949992e-22 0.0056771216 2.8263127e-22 2.3815275e-41)
(0.0018712366 -0.00060769372 -2.4331005e-22 0.0050100827 -9.0114732e-24 5.657709e-41)
(0.0019842031 -0.00027296993 5.1823915e-23 0.0040805882 -1.236508e-22 5.8704489e-42)
(0.0019931031 -0.00010962798 1.6484685e-22 0.0031078742 1.2275578e-23 1.6991365e-41)
(0.0017909972 -6.5683956e-05 -3.4822299e-22 0.002176113 3.6447456e-23 7.8787023e-41)
(0.0014250862 1.0381207e-05 -4.2225348e-22 0.0014912459 6.5287454e-23 1.4381229e-40)
(0.0010555109 8.6921307e-05 2.1552919e-23 0.0010424727 5.0185736e-23 3.1824806e-42)
(0.00074220935 9.1725233e-05 0 0.00073476637 0 0)
(0.00052401895 7.7167366e-05 1.6909668e-23 0.00052974485 1.9213195e-23 1.2801394e-42)
(0.00037826038 5.8872458e-05 -1.2915367e-23 0.00038994818 4.0201229e-24 1.1112367e-42)
(0.00028037566 4.0167077e-05 -1.2103068e-23 0.00028818592 -1.4188042e-23 1.8892698e-42)
(0.00021465406 2.3270947e-05 7.0178427e-24 0.00021137379 6.7796797e-24 1.3384369e-42)
(0.00017028156 1.0385797e-05 -8.6892154e-25 0.00015053092 -6.3238793e-24 3.1970944e-43)
(0.00014040689 1.4449576e-06 5.8891162e-25 0.00010289741 1.1199613e-23 1.7210734e-42)
(0.00011957716 -3.2739e-06 -4.7927822e-25 6.5136734e-05 1.0090118e-24 4.3925082e-44)
(0.00010553018 -5.4089571e-06 8.9942255e-25 3.7969301e-05 -2.9651179e-24 3.6941324e-43)
(9.5351336e-05 -4.7639273e-06 -2.3899489e-24 1.7761131e-05 3.6012765e-24 1.0526825e-42)
(9.0002927e-05 -4.0701627e-06 -2.7887548e-25 6.6959184e-06 1.9259227e-25 6.2312761e-45)
(8.6538344e-05 -6.6369533e-07 -3.2409919e-24 4.4787008e-07 5.3415395e-25 1.0014524e-42)
(0.0053547571 -0.0012342251 1.8752477e-22 0.0053309916 1.1939236e-22 2.5600836e-41)
(0.0041217982 -0.0015228666 -3.9508197e-22 0.0070535079 1.2449406e-22 9.5387535e-41)
(0.002724312 -0.0012262593 -3.4251179e-22 0.0064085058 -4.8416499e-23 1.6792712e-40)
(0.0020270551 -0.00087146085 3.6525364e-22 0.0058406745 1.7830959e-22 1.9046951e-40)
(0.0019837847 -0.00051425868 3.3993561e-22 0.0049868297 -1.3429978e-23 9.583576e-41)
(0.0020630698 -0.00025552469 -2.4531984e-23 0.0039909266 -8.5862566e-23 2.7757449e-42)
(0.0020004864 -0.00013144942 0 0.002957548 0 0)
(0.0017498061 -7.6977914e-05 -7.8270757e-24 0.0020366749 -1.140209e-22 7.8010229e-42)
(0.0013552467 3.5022478e-05 9.6776321e-23 0.0014035396 -4.5817842e-23 9.7723032e-42)
(0.00097910519 9.3299128e-05 1.2232531e-22 0.00098531624 3.1783947e-23 1.7581251e-41)
(0.00068115704 8.54146e-05 -2.0589286e-24 0.00069964372 1.6035521e-23 4.8099167e-43)
(0.00048170402 6.6948554e-05 -1.0943881e-23 0.00051103942 8.5981123e-25 4.4440428e-43)
(0.00035003668 4.6699786e-05 1.9803711e-24 0.00037875419 -6.3846732e-25 3.3605109e-44)
(0.00026266622 2.7320765e-05 2.4090212e-24 0.00028150666 6.9670701e-24 2.3117271e-43)
(0.00020451463 1.1775862e-05 -3.1959296e-24 0.00020599441 -7.1813349e-24 6.1497078e-43)
(0.00016560549 5.3690892e-07 1.1490771e-24 0.00014614782 6.2759526e-24 5.3892385e-43)
(0.00013907264 -5.8578487e-06 1.382579e-25 9.9031222e-05 -1.4722895e-24 2.9367733e-44)
(0.00012037648 -8.4464124e-06 -1.9649211e-24 6.2124369e-05 7.2621446e-24 1.1760553e-42)
(0.00010733115 -8.6137451e-06 -7.2622063e-25 3.5845379e-05 1.1341881e-24 4.2591445e-44)
(9.7579306e-05 -6.4988065e-06 -1.4666102e-25 1.6601888e-05 1.3664819e-25 1.446963e-45)
(9.2418553e-05 -4.8797676e-06 -1.9538599e-24 6.2123812e-06 1.1786406e-24 3.2261714e-43)
(8.8924561e-05 -7.7477252e-07 0 4.077768e-07 0 0)
(0.0064628191 -0.0012884408 1.1391174e-22 0.0056475863 1.3333126e-22 1.0681482e-41)
(0.0052361987 -0.0017622369 3.0395549e-22 0.0077829567 -5.472946e-23 3.7622479e-41)
(0.0039516212 -0.0013692595 1.1763043e-23 0.0072615591 -6.191108e-23 6.4837283e-43)
(0.0026425895 -0.0010596497 4.0962131e-22 0.0067271771 -2.6723214e-23 1.947557e-40)
(0.0021186363 -0.00077783342 2.5023831e-22 0.0059468687 -1.5932904e-22 6.0644655e-41)
(0.0021060874 -0.00048109662 -1.7261712e-22 0.0049736206 -2.7721214e-23 2.2950495e-41)
(0.0021193126 -0.00026565138 5.8188582e-24 0.0038794055 2.4762577e-22 1.9013515e-41)
(0.0020067634 -0.00016274706 -4.1617373e-22 0.0028006578 -3.3784817e-23 1.0543201e-40)
(0.0016895483 -7.3066547e-05 -7.4262039e-23 0.001906334 -3.2712022e-23 4.4753541e-42)
(0.0012799328 6.1317766e-05 -1.8013321e-23 0.0013291686 3.4412172e-24 3.0158247e-43)
(0.00090140962 9.214785e-05 2.5987188e-24 0.00093416196 -9.625802e-25 1.1225968e-44)
(0.00062450943 7.5667277e-05 3.741837e-23 0.00067178554 -7.416249e-24 3.6038973e-42)
(0.00044413751 5.4184629e-05 -1.7576302e-24 0.00049502287 -2.555904e-24 2.3000697e-44)
(0.0003262372 3.2363495e-05 -7.9991462e-24 0.00036970228 1.6371836e-23 1.8208132e-42)
(0.00024885233 1.3799549e-05 3.3777988e-24 0.00027467006 1.7589986e-23 1.3891618e-42)
(0.00019791024 -2.9890532e-07 1.7372753e-24 0.00020052694 1.413447e-23 1.4345898e-42)
(0.00016350265 -8.7796725e-06 4.6918341e-25 0.00014111649 -1.4758349e-24 2.2618194e-44)
(0.00013990864 -1.2782959e-05 3.3969014e-24 9.4770898e-05 -1.5630074e-23 3.6029878e-42)
(0.00012251497 -1.2891487e-05 1.3962979e-25 5.8817925e-05 -4.6959132e-25 1.0081694e-44)
(0.00011007929 -1.1293601e-05 -2.0766994e-24 3.35884e-05 3.062479e-24 3.9293134e-43)
(0.00010037577 -7.8237906e-06 0 1.5401254e-05 0 0)
(9.5142026e-05 -5.4453975e-06 4.9517644e-24 5.721019e-06 -2.4828554e-24 1.6092844e-42)
(9.1447357e-05 -8.2306917e-07 9.4489563e-26 3.6907847e-07 -8.9819746e-27 3.0662394e-46)
(0.0073696368 -0.0013476871 -6.1676286e-22 0.0059871157 -1.9644485e-22 1.4207379e-40)
(0.0062624338 -0.0021299339 1.0395763e-21 0.0085710768 1.8893377e-22 3.8944289e-40)
(0.0050775899 -0.0015903543 -7.1674652e-22 0.0082216529 -1.7547125e-22 2.2692395e-40)
(0.0038284914 -0.0011748073 -1.8530891e-22 0.0077593402 -2.2651595e-22 3.7639472e-41)
(0.0026625687 -0.00097709875 3.8438937e-22 0.0069904386 1.8786642e-22 1.8088886e-40)
(0.0022434871 -0.00075099782 0 0.0060471218 0 0)
(0.0022240185 -0.00047775254 -4.8304984e-24 0.004925333 7.7626506e-23 1.4423336e-42)
(0.002178241 -0.00029546872 -1.4452427e-22 0.0037502927 -1.4427678e-22 2.1028329e-41)
(0.0020017537 -0.00019300857 -2.899489e-22 0.0026332133 1.2402351e-23 5.0036654e-41)
(0.0016256205 -4.6607338e-05 -2.8989128e-22 0.0017935321 8.6180561e-23 6.3130304e-41)
(0.0011964341 7.8893829e-05 6.5913447e-23 0.0012613611 3.6783758e-23 4.9257376e-42)
(0.00082619635 8.4770416e-05 4.4033208e-23 0.00089169699 7.7422917e-24 2.9112989e-42)
(0.0005737272 6.2565181e-05 -2.9855553e-23 0.00064808189 -1.0853656e-23 2.4735126e-42)
(0.00041178274 3.8539876e-05 1.2450374e-23 0.00048214038 1.8824093e-23 1.4284828e-42)
(0.00030714569 1.6745861e-05 -1.174759e-23 0.00036076965 -2.4272139e-23 3.2196463e-42)
(0.00023927308 -7.3513765e-07 -3.99965e-24 0.00026789627 -3.405505e-23 5.6283451e-42)
(0.00019446173 -1.1997794e-05 2.6743221e-24 0.00019420629 3.2080063e-24 7.8098259e-43)
(0.00016411301 -1.7806097e-05 1.2303639e-24 0.0001355233 -7.3172796e-24 5.5883459e-43)
(0.00014238603 -1.8824656e-05 -5.7285653e-24 9.00199e-05 1.7520882e-23 5.2844571e-42)
(0.00012589355 -1.6691349e-05 1.691234e-24 5.5258762e-05 -3.5824154e-24 5.38523e-43)
(0.00011350981 -1.3357751e-05 5.2725748e-24 3.1226548e-05 -6.2670332e-24 1.8840073e-42)
(0.00010353257 -8.7490344e-06 -5.018228e-24 1.4178857e-05 3.7581352e-24 1.6059671e-42)
(9.8016863e-05 -5.7737247e-06 3.420016e-24 5.2302478e-06 -1.4896445e-24 7.1356749e-43)
(9.3979353e-05 -8.125587e-07 8.4506173e-26 3.3220174e-07 -6.6306979e-27 2.003566e-46)
(0.0081276184 -0.0014252 -1.7007394e-22 0.00633158 -2.7514639e-22 2.8366203e-41)
(0.0072921336 -0.0024355174 1.0650876e-21 0.0094004866 6.5655832e-23 3.3264636e-40)
(0.006021405 -0.0018925272 1.8309053e-22 0.0092668099 -3.7558863e-22 2.4862477e-41)
(0.005047027 -0.0013350966 1.6334686e-21 0.0089606969 3.3817851e-22 1.0948765e-39)
(0.0038166429 -0.0010984727 -2.6711716e-22 0.0082141563 -2.8421233e-22 7.0131703e-41)
(0.0027345069 -0.00096738362 4.696433e-22 0.0072307107 2.2936069e-22 2.3611702e-40)
(0.002399059 -0.00075064724 -1.2357167e-23 0.0061011483 9.5722218e-23 1.7509225e-42)
(0.002349002 -0.00050035557 5.8409572e-22 0.0048519552 1.0622262e-22 2.2634791e-40)
(0.0022380112 -0.00033444028 -6.1530017e-23 0.0035933066 -1.3324588e-22 8.9248881e-42)
(0.0019928579 -0.00020451452 -1.45489e-22 0.0024678578 -1.5382605e-23 1.2906378e-41)
(0.0015524825 -7.9296128e-06 3.5463321e-23 0.0016988127 6.7839055e-23 4.0950415e-42)
(0.0011075217 8.5043646e-05 -1.2943025e-22 0.0012008924 2.4097589e-24 1.7987611e-41)
(0.0007567573 7.1834111e-05 1.9209993e-23 0.00085538337 1.9624831e-23 1.0229769e-42)
(0.00052932475 4.5777091e-05 2.7633631e-24 0.00062888628 -5.211821e-25 3.0228705e-44)
(0.00038516162 2.0819097e-05 -2.7604747e-24 0.00046992168 -2.4273339e-23 1.455758e-42)
(0.0002931213 -4.4360351e-07 -1.5813524e-24 0.00035219841 -2.90797e-24 7.3714094e-44)
(0.00023361591 -1.5185957e-05 7.3916371e-25 0.00026010397 8.154175e-25 3.2132776e-44)
(0.00019441348 -2.3569371e-05 1.6170256e-24 0.00018714755 -1.3851623e-23 1.4698763e-42)
(0.00016680802 -2.5835531e-05 0 0.00012917877 0 0)
(0.00014651586 -2.4106722e-05 9.3519835e-25 8.4834149e-05 -1.7733341e-24 4.5083686e-44)
(0.00013010168 -1.9649648e-05 2.9463318e-25 5.1493903e-05 -3.9215027e-25 3.7756638e-45)
(0.00011740267 -1.4826593e-05 -5.8077158e-25 2.8798766e-05 5.4555675e-25 1.3697332e-44)
(0.00010687442 -9.2787881e-06 -4.1252275e-26 1.2956296e-05 -1.6406441e-26 4.3063375e-45)
(0.00010090344 -5.8794354e-06 -5.532328e-24 4.7482464e-06 2.0574356e-24 1.4660791e-42)
(9.6417165e-05 -7.4799977e-07 -2.6649488e-24 2.9800754e-07 2.2620373e-25 3.6341409e-43)
(0.0088029376 -0.0015200414 5.3601169e-22 0.0066657955 2.4630294e-22 1.0828327e-40)
(0.0082305525 -0.0027253232 -6.6674302e-22 0.01025765 2.1848587e-23 1.1850963e-40)
(0.0069060247 -0.0022196148 -3.4145447e-22 0.010399283 2.2915063e-23 3.4181328e-41)
(0.0060209797 -0.0016265947 -2.3224033e-22 0.010280694 -4.4664722e-23 1.8126676e-41)
(0.005165491 -0.0012553484 -1.3298039e-21 0.0096693326 -3.5653849e-22 7.3194534e-40)
(0.0038478894 -0.0010956516 -1.1527005e-22 0.0086261391 2.1653676e-22 1.1449686e-41)
(0.0028750724 -0.00098377372 -2.1259593e-23 0.0074186531 1.2644129e-22 2.4988075e-42)
(0.0025807636 -0.00077628752 -3.5213456e-23 0.0061207245 -1.5862994e-23 1.0006915e-42)
(0.0024712766 -0.00054126862 -4.4841985e-22 0.0047419534 -7.5810093e-23 1.2568581e-40)
(0.0023024549 -0.00037248593 -2.9077148e-23 0.0034130788 1.4392531e-22 7.269885e-42)
(0.0019640953 -0.00018725681 -1.5634716e-22 0.0023145005 -4.5842781e-23 1.6235017e-41)
(0.0014679802 3.0929578e-05 2.6057854e-23 0.0016218307 -3.5312867e-24 5.4953182e-43)
(0.0010183705 7.8993252e-05 5.5973433e-23 0.0011457597 -1.2390131e-24 3.9023493e-42)
(0.00069493475 5.3977294e-05 -2.721153e-24 0.00082568133 -1.0226024e-23 1.586213e-43)
(0.00049198655 2.6053827e-05 8.916566e-24 0.0006113267 -2.1017814e-24 4.0532176e-43)
(0.00036463635 8.2963957e-07 3.6650256e-25 0.00045860687 3.4464986e-23 3.0025776e-42)
(0.00028398901 -1.8001477e-05 -9.2380203e-24 0.00034253925 3.8828539e-23 5.792536e-42)
(0.00023220256 -2.9778211e-05 -1.4345003e-24 0.00025142957 2.3455913e-23 3.1853431e-42)
(0.00019707421 -3.4100105e-05 -6.7433625e-24 0.00017901365 2.8382449e-23 6.3968191e-42)
(0.00017169686 -3.3016135e-05 -2.008457e-25 0.00012215841 3.1599925e-25 1.2208399e-45)
(0.00015169587 -2.8283125e-05 1.1634576e-23 7.9279658e-05 -1.8516702e-23 5.9458337e-42)