/*--------------------------------*- C++ -*----------------------------------*\
| =========                 |                                                 |
| \\      /  F ield         | OpenFOAM: The Open Source CFD Toolbox           |
|  \\    /   O peration     | Version:  5.0                                   |
|   \\  /    A nd           | Web:      www.OpenFOAM.org                      |
|    \\/     M anipulation  |                                                 |
\*---------------------------------------------------------------------------*/
FoamFile
{
    version     2.0;
    format      ascii;
    class       volVectorField;
    location    "340";
    object      ddt0(U);
}
// * * * * * * * * * * * * * * * * * * * * * * * * * * * * * * * * * * * * * //

dimensions      [0 1 -2 0 0 0 0];

internalField   nonuniform List<vector> 
9520
(
(-0.00027775434 -6.6440965e-07 0)
(-0.00027504634 -1.2449456e-06 0)
(-0.00027586843 -1.8261472e-06 0)
(-0.00026994645 -1.2479123e-06 0)
(-0.00027406197 -5.2133968e-06 0)
(-0.0002722482 1.0884804e-06 0)
(-0.0002623568 -8.8225249e-07 0)
(-0.00026973756 -7.8507536e-06 0)
(-0.00027052525 2.1915953e-06 0)
(-0.0002790467 6.7529514e-06 0)
(-0.00025259031 -1.8461292e-07 0)
(-0.00026301816 -9.8691012e-06 0)
(-0.00026656763 2.7964183e-06 0)
(-0.00027603965 1.851265e-05 0)
(-0.00029143552 1.0332795e-05 0)
(-0.00024127221 4.2463553e-07 0)
(-0.0002539287 -1.0056356e-05 0)
(-0.00026121102 3.1454051e-06 0)
(-0.00027110779 2.8596468e-05 0)
(-0.00028765709 3.0181742e-05 0)
(-0.00030975469 9.952882e-06 0)
(-0.00022812494 8.9688646e-07 0)
(-0.00024284712 -9.0735539e-06 0)
(-0.00025415467 4.4770378e-06 0)
(-0.00026531729 3.7495554e-05 0)
(-0.0002820816 4.8543761e-05 0)
(-0.00030666511 3.0730555e-05 0)
(-0.00032340021 6.0487467e-06 0)
(-0.00021227138 1.6449701e-06 0)
(-0.00023017025 -7.2333561e-06 0)
(-0.00024479053 6.9055296e-06 0)
(-0.00025873826 4.523714e-05 0)
(-0.00027533261 6.5770681e-05 0)
(-0.00030192319 5.1440592e-05 0)
(-0.00032161083 1.9952157e-05 0)
(-0.00032859822 2.1051133e-06 0)
(-0.00019169703 3.612892e-06 0)
(-0.00021625027 -4.2268798e-06 0)
(-0.00023387152 1.0308639e-05 0)
(-0.00025043159 5.2929446e-05 0)
(-0.00026802044 8.047708e-05 0)
(-0.00029514474 7.2216623e-05 0)
(-0.00031827287 3.5001982e-05 0)
(-0.00032864881 7.487212e-06 0)
(-0.00032980549 1.3712387e-06 0)
(-0.00016268648 8.8468781e-06 0)
(-0.00020225816 1.0587993e-06 0)
(-0.0002230497 1.4478504e-05 0)
(-0.00024060652 6.1085893e-05 0)
(-0.00025984062 9.3940945e-05 0)
(-0.00028713434 9.123341e-05 0)
(-0.00031240426 5.1393677e-05 0)
(-0.00032732789 1.3904449e-05 0)
(-0.00033029662 3.6645794e-06 0)
(-0.00033202664 4.5369817e-06 0)
(-0.00011869335 2.3302541e-05 0)
(-0.00019028937 1.2736591e-05 0)
(-0.00021630199 1.9512803e-05 0)
(-0.00022995914 6.9570153e-05 0)
(-0.00025059091 0.00010690651 0)
(-0.00027901997 0.00010917343 0)
(-0.0003052561 6.8647781e-05 0)
(-0.00032355195 2.1392634e-05 0)
(-0.00032946901 6.1634143e-06 0)
(-0.00033206666 1.1591407e-05 0)
(-0.0003401506 9.8823033e-06 0)
(-6.9163521e-05 5.3554038e-05 0)
(-0.00018671633 3.9221174e-05 0)
(-0.00022088763 2.5992321e-05 0)
(-0.00021983182 7.7247129e-05 0)
(-0.00023946832 0.00011969765 0)
(-0.00027047681 0.00012666213 0)
(-0.00029856967 8.5883555e-05 0)
(-0.00031807839 3.210326e-05 0)
(-0.00032888328 8.1221843e-06 0)
(-0.00033070231 1.7808138e-05 0)
(-0.00033926535 2.6986861e-05 0)
(-0.00035501824 1.4474766e-05 0)
(-3.7601802e-05 0.00010372095 0)
(-0.00020645927 8.3665575e-05 0)
(-0.00025255575 3.3243244e-05 0)
(-0.00021329146 7.9569007e-05 0)
(-0.00022396075 0.00013106713 0)
(-0.00026038851 0.00014439235 0)
(-0.00029250054 0.00010313715 0)
(-0.00031244196 4.3821309e-05 0)
(-0.00032624396 1.2472319e-05 0)
(-0.00032912823 2.3472963e-05 0)
(-0.00033798587 4.2191526e-05 0)
(-0.00035330747 4.1528872e-05 0)
(-0.00037393296 1.6028428e-05 0)
(-6.9965437e-06 0.00019134131 0)
(-0.00029076276 0.00017037265 0)
(-0.00032300898 4.0131518e-05 0)
(-0.00021303766 6.5658414e-05 0)
(-0.00020108802 0.00013729706 0)
(-0.00024539657 0.00016337153 0)
(-0.00028682982 0.00012111187 0)
(-0.00030737416 5.5273974e-05 0)
(-0.00032113024 1.8262417e-05 0)
(-0.00032739511 2.8600976e-05 0)
(-0.00033649945 5.7420655e-05 0)
(-0.00035224549 6.6527915e-05 0)
(-0.00037228967 4.7928661e-05 0)
(-0.00039235368 1.3909453e-05 0)
(1.7745171e-05 0.0002812469 0)
(-0.00036320707 0.00023943944 0)
(-0.00035018435 1.0797285e-05 0)
(-0.00018437178 2.2174325e-05 0)
(-0.00015094925 0.00013229021 0)
(-0.00021611094 0.00018385211 0)
(-0.00028048367 0.00014213637 0)
(-0.00030462415 6.5995039e-05 0)
(-0.00031491437 2.3527556e-05 0)
(-0.00032298212 3.3901581e-05 0)
(-0.00033439812 7.1177384e-05 0)
(-0.00035125196 9.0856329e-05 0)
(-0.00037147922 7.8905904e-05 0)
(-0.00039193861 4.3311977e-05 0)
(-0.00040623891 9.031278e-06 0)
(4.7419115e-05 0.0004927476 0)
(-0.00048634809 0.00032829932 0)
(-0.0003413331 -6.204503e-05 0)
(-8.6701704e-05 -6.622531e-05 0)
(-5.5882332e-05 0.00011130638 0)
(-0.00016460196 0.00021254048 0)
(-0.00027366004 0.00017377484 0)
(-0.00030895981 7.7173293e-05 0)
(-0.00030941553 2.6154619e-05 0)
(-0.00031497934 3.8966355e-05 0)
(-0.00033017184 8.425989e-05 0)
(-0.00034925444 0.00011438306 0)
(-0.00037107095 0.00010809482 0)
(-0.00039171552 7.3633083e-05 0)
(-0.00040777851 2.9656987e-05 0)
(-0.00041349019 3.2889615e-06 0)
(5.8873508e-05 0.00060940844 0)
(-0.00070143544 0.0002965859 0)
(-0.00035887285 -0.00016963613 0)
(1.2440601e-05 -0.00018182348 0)
(4.4863881e-05 6.2992347e-05 0)
(-9.5351184e-05 0.00025832165 0)
(-0.00027491564 0.00022837618 0)
(-0.0003298231 9.2352035e-05 0)
(-0.00030836389 2.3219281e-05 0)
(-0.00030341742 4.213737e-05 0)
(-0.00032289149 9.7948172e-05 0)
(-0.00034627393 0.0001375477 0)
(-0.00037024055 0.00013683774 0)
(-0.00039175549 0.00010329722 0)
(-0.00040951774 5.2499124e-05 0)
(-0.00041688097 1.2413078e-05 0)
(-0.00041456247 -1.1724843e-06 0)
(-1.9385442e-05 0.00098956818 0)
(-0.0010191433 0.00048505477 0)
(-0.00037345173 -0.0003237232 0)
(0.00015566784 -0.00032957869 0)
(0.00011584966 4.8754905e-05 0)
(-2.5671432e-05 0.0003583046 0)
(-0.00029557088 0.00032002402 0)
(-0.00037838232 0.00011213682 0)
(-0.00031446933 9.0928119e-06 0)
(-0.00028763325 3.9921598e-05 0)
(-0.00031156284 0.0001125878 0)
(-0.0003416057 0.00016213159 0)
(-0.00036923542 0.00016597165 0)
(-0.0003928484 0.00013160161 0)
(-0.00041090496 7.8693573e-05 0)
(-0.00042199016 2.3734784e-05 0)
(-0.00041917867 -1.790352e-06 0)
(-0.00041206248 -2.8177777e-06 0)
(-9.2520493e-05 0.0011013677 0)
(-0.0011583705 0.00029608617 0)
(-0.00044585614 -0.00051556949 0)
(0.00026701449 -0.00051496374 0)
(0.00029977428 7.618149e-05 0)
(4.2675156e-05 0.00048220188 0)
(-0.00035243551 0.00047602101 0)
(-0.00047802632 0.00014325693 0)
(-0.00033528676 -2.5240474e-05 0)
(-0.00026583551 2.558652e-05 0)
(-0.00029241271 0.00012772875 0)
(-0.00033282977 0.00018970605 0)
(-0.00036818043 0.00019674452 0)
(-0.00039475394 0.000161414 0)
(-0.00041327482 0.00010381003 0)
(-0.00042499494 4.1976037e-05 0)
(-0.00042691749 -4.9448752e-07 0)
(-0.00041738344 -7.9127729e-06 0)
(-0.00040935951 -1.4215884e-06 0)
(-0.00014262213 0.0016717053 0)
(-0.0017131124 0.00070052239 0)
(-0.00075353591 -0.00090909058 0)
(0.00049482002 -0.00083243819 0)
(0.00067344508 8.2249209e-05 0)
(9.4755179e-05 0.00064443059 0)
(-0.00043820208 0.00069593833 0)
(-0.00063191946 0.00018026905 0)
(-0.00037939676 -8.9634727e-05 0)
(-0.00023703024 -1.0224634e-05 0)
(-0.00026193727 0.00014151837 0)
(-0.00031743508 0.00022193715 0)
(-0.00036645045 0.00023117315 0)
(-0.00039827836 0.00019298109 0)
(-0.00041762357 0.0001308601 0)
(-0.00042927899 6.3151463e-05 0)
(-0.00043568108 4.0375873e-06 0)
(-0.0004255331 -1.0816795e-05 0)
(-0.00041517009 -5.0948494e-06 0)
(-0.0004089529 1.9114745e-06 0)
(-0.00018517477 0.0019350969 0)
(-0.0021070949 0.00025459374 0)
(-0.00096163336 -0.0010922707 0)
(0.00080671343 -0.0011894032 0)
(0.0012347146 7.80262e-05 0)
(0.00020769078 0.00093125245 0)
(-0.0006002328 0.00099174494 0)
(-0.00087009737 0.00022609172 0)
(-0.00046377733 -0.00020796504 0)
(-0.00019692781 -8.0454795e-05 0)
(-0.00021237573 0.00015263548 0)
(-0.00029035569 0.00026130789 0)
(-0.00036286443 0.00027223641 0)
(-0.00040409859 0.00022790265 0)
(-0.00042440877 0.00015907323 0)
(-0.00043607068 8.524684e-05 0)
(-0.00044132186 1.8254872e-05 0)
(-0.00043684406 -1.5623235e-05 0)
(-0.00042277922 -6.2552839e-06 0)
(-0.00041502712 3.6181277e-06 0)
(-0.00041171702 5.4446216e-06 0)
(-0.00025216291 0.0026598517 0)
(-0.0032117517 0.00086866071 0)
(-0.0014150149 -0.0020074703 0)
(0.0012594153 -0.0018797952 0)
(0.001979665 0.00010225922 0)
(0.00035150982 0.0013819059 0)
(-0.00088014426 0.0013691997 0)
(-0.0011723103 0.00027688158 0)
(-0.00058986861 -0.00039615151 0)
(-0.00015355582 -0.0002232622 0)
(-0.0001337474 0.00014837692 0)
(-0.00024106777 0.000309865 0)
(-0.00035450326 0.00032553603 0)
(-0.00041392603 0.00026887692 0)
(-0.00043517403 0.00018846183 0)
(-0.00044439325 0.00010717909 0)
(-0.00044773959 3.4079442e-05 0)
(-0.00044857912 -1.4071319e-05 0)
(-0.0004341926 -9.7733372e-06 0)
(-0.00042294122 7.0562158e-06 0)
(-0.00041754977 1.3678483e-05 0)
(-0.00041716354 7.7516763e-06 0)
(-0.0003146937 0.0030685249 0)
(-0.0031962635 0.00025411463 0)
(-0.0016577396 -0.0019348181 0)
(0.0018225253 -0.0025887423 0)
(0.0030834584 2.1143707e-05 0)
(0.00062713932 0.0020574737 0)
(-0.0013189501 0.0019494052 0)
(-0.0017022886 0.00032443094 0)
(-0.00074278423 -0.00070585338 0)
(1.4325051e-05 -0.00042361024 0)
(1.2960524e-05 0.00012617707 0)
(-0.0001498233 0.00036659593 0)
(-0.00033374383 0.00039879294 0)
(-0.00042996879 0.00032190317 0)
(-0.00045380854 0.00021949863 0)
(-0.00045572587 0.00012706992 0)
(-0.0004548752 4.8308878e-05 0)
(-0.0004573076 -9.3467067e-06 0)
(-0.00044717485 -1.0344118e-05 0)
(-0.00043442447 1.2459077e-05 0)
(-0.0004271335 2.157586e-05 0)
(-0.00042225397 2.1260253e-05 0)
(-0.00042392258 8.1971763e-06 0)
(-0.00092394908 0.0040296982 0)
(-0.0053096409 0.001121111 0)
(-0.0027593154 -0.0039490838 0)
(0.0026397986 -0.0037178776 0)
(0.0043721022 0.00020700363 0)
(0.00094156443 0.002973415 0)
(-0.0019349362 0.0027046628 0)
(-0.0024912114 0.00034460575 0)
(-0.0009894734 -0.0011526458 0)
(0.00019235118 -0.00079789535 0)
(0.00028174028 5.5484929e-05 0)
(3.386347e-05 0.00044438577 0)
(-0.00028746041 0.00050790604 0)
(-0.00045567268 0.00039757784 0)
(-0.00048722825 0.00025425652 0)
(-0.00047377276 0.00014237627 0)
(-0.00046205508 5.8305727e-05 0)
(-0.00046264492 -3.0529606e-06 0)
(-0.00045718216 -7.9181401e-06 0)
(-0.00044885887 1.7081214e-05 0)
(-0.0004395094 3.6733601e-05 0)
(-0.00043415197 3.2709315e-05 0)
(-0.00042854247 2.4250895e-05 0)
(-0.00043026089 6.7322416e-06 0)
(-0.000583211 0.0046170979 0)
(-0.0064220959 0.00027550768 0)
(-0.002855818 -0.0033237792 0)
(0.0035361466 -0.0048469241 0)
(0.0064743748 -0.00010873498 0)
(0.0015516494 0.004315582 0)
(-0.0028469328 0.0039171521 0)
(-0.0036586451 0.0003714362 0)
(-0.0013567526 -0.0018441918 0)
(0.00049422371 -0.001347177 0)
(0.00078617439 -5.1564449e-05 0)
(0.00024624457 0.00049279227 0)
(-0.00020546452 0.00068046974 0)
(-0.00049729072 0.00051858553 0)
(-0.00054863871 0.00029756285 0)
(-0.00050558558 0.00014891043 0)
(-0.00047013211 5.9401925e-05 0)
(-0.00046427633 -1.3023672e-07 0)
(-0.00046331439 -3.4071766e-06 0)
(-0.00046094984 2.6199097e-05 0)
(-0.00045514157 4.9312863e-05 0)
(-0.00044873442 5.2489639e-05 0)
(-0.00044208686 3.9374185e-05 0)
(-0.00043563052 2.2064717e-05 0)
(-0.00043500469 3.5510439e-06 0)
(-0.00097085442 0.0063176977 0)
(-0.0091149388 0.0012838943 0)
(-0.0030177666 -0.0063864477 0)
(0.005219232 -0.0072195422 0)
(0.0083212194 0.00055241692 0)
(0.0019364032 0.0059366029 0)
(-0.0040028525 0.0053026086 0)
(-0.0052400612 0.0003049252 0)
(-0.0018892939 -0.0028333893 0)
(0.00092137858 -0.0021678506 0)
(0.0014871471 -0.00022033819 0)
(0.00049433276 0.00072798275 0)
(-0.00011499285 0.00096603803 0)
(-0.0005751588 0.00071222084 0)
(-0.00065929571 0.00035969289 0)
(-0.00056445554 0.00014088543 0)
(-0.00048142822 4.2977571e-05 0)
(-0.00045994085 -5.5754472e-06 0)
(-0.000462667 1.7740219e-06 0)
(-0.00046887345 3.9731306e-05 0)
(-0.00047095881 6.6268233e-05 0)
(-0.00046557345 7.3583322e-05 0)
(-0.00046021271 5.7493336e-05 0)
(-0.00044947809 4.0494553e-05 0)
(-0.000442224 1.4734982e-05 0)
(-0.00043729662 -9.890903e-07 0)
(-0.003251486 0.0065625435 0)
(-0.0084492372 -0.00011589245 0)
(-0.0035210897 -0.005893981 0)
(0.0068646253 -0.008671809 0)
(0.011093389 -7.9151262e-05 0)
(0.0024113182 0.0082089306 0)
(-0.0057562331 0.0075267074 0)
(-0.0074911664 0.00020066477 0)
(-0.00258934 -0.0042238014 0)
(0.0015229854 -0.0033322829 0)
(0.0024749908 -0.00048007089 0)
(0.0010326536 0.0011257194 0)
(-7.6639857e-05 0.0013569735 0)
(-0.00072066395 0.0010497495 0)
(-0.00086233211 0.0004552054 0)
(-0.0006708885 0.00010876939 0)
(-0.00050042232 -4.0401532e-06 0)
(-0.00044658175 -2.8440484e-05 0)
(-0.00045052583 5.2389504e-06 0)
(-0.00046987918 5.7867614e-05 0)
(-0.00048368091 8.9223728e-05 0)
(-0.00048520875 9.7483811e-05 0)
(-0.00047937787 8.416339e-05 0)
(-0.0004706896 5.5639024e-05 0)
(-0.00045632517 3.2185373e-05 0)
(-0.00044671372 2.1126304e-06 0)
(-0.00043559955 -6.4639095e-06 0)
(-0.0059556971 0.008036996 0)
(-0.014493623 0.0016830189 0)
(-0.0069425145 -0.010473844 0)
(0.0084645055 -0.01199794 0)
(0.014320406 0.0017072324 0)
(0.001364072 0.010660921 0)
(-0.0070628785 0.010056242 0)
(-0.010343005 6.8283352e-05 0)
(-0.0035681936 -0.0060882087 0)
(0.0023308269 -0.0049700211 0)
(0.0038847705 -0.00086037237 0)
(0.001904366 0.0016952219 0)
(-2.5640408e-05 0.0019412501 0)
(-0.00096777462 0.0015060237 0)
(-0.0011777178 0.00060019502 0)
(-0.00086112226 3.5675767e-05 0)
(-0.00053841216 -0.0001091727 0)
(-0.0004184088 -8.1572116e-05 0)
(-0.00041924652 2.6571175e-06 0)
(-0.00045868723 8.0563772e-05 0)
(-0.00049088892 0.00011997987 0)
(-0.00050384046 0.00012734803 0)
(-0.00050220414 0.00011276906 0)
(-0.00049403168 8.0172708e-05 0)
(-0.00047840746 4.6393029e-05 0)
(-0.00046271537 1.0543551e-05 0)
(-0.0004469254 -1.5336802e-05 0)
(-0.00042967078 -1.2354015e-05 0)
(-0.007465799 0.0091569229 0)
(-0.016355709 -6.4889054e-06 0)
(-0.0035724226 -0.0097363635 0)
(0.010826784 -0.014044615 0)
(0.01883184 0.00034886463 0)
(0.0025023564 0.013574809 0)
(-0.008752317 0.013834513 0)
(-0.014286997 -0.00028279583 0)
(-0.0047092138 -0.0086419032 0)
(0.003441095 -0.0071279533 0)
(0.0058146387 -0.001433972 0)
(0.0031861003 0.0024890257 0)
(8.5464563e-05 0.0028872337 0)
(-0.0013819025 0.0021278286 0)
(-0.0016510974 0.0007943687 0)
(-0.0011530393 -0.00010904345 0)
(-0.00060167977 -0.0003007789 0)
(-0.00036693684 -0.00018239614 0)
(-0.00035807822 -1.4482439e-05 0)
(-0.00042646566 0.00010795459 0)
(-0.00048799312 0.0001606612 0)
(-0.00051966261 0.00016631788 0)
(-0.00052655421 0.00014670042 0)
(-0.00051956048 0.00010854145 0)
(-0.00050604707 6.2312901e-05 0)
(-0.00048488286 2.1773929e-05 0)
(-0.00046526919 -2.1367137e-05 0)
(-0.00044150465 -3.4555113e-05 0)
(-0.00041985167 -1.7818712e-05 0)
(-0.0091449261 0.0097309374 0)
(-0.016270193 -0.0003972525 0)
(0.001433432 -0.015449504 0)
(0.016874573 -0.018718621 0)
(0.024135531 0.0039735252 0)
(0.0043995004 0.018413259 0)
(-0.013583109 0.017182159 0)
(-0.018810599 -0.00045423166 0)
(-0.0062618267 -0.011862863 0)
(0.004920534 -0.010110351 0)
(0.0084430734 -0.0022128624 0)
(0.0049659716 0.0035627553 0)
(0.00029369439 0.0042912335 0)
(-0.0020263162 0.0030480547 0)
(-0.0024305756 0.0010523011 0)
(-0.0015629491 -0.00032604684 0)
(-0.00071082179 -0.00062944009 0)
(-0.00028129376 -0.00036580648 0)
(-0.00024929014 -5.8431782e-05 0)
(-0.00035935644 0.00013979576 0)
(-0.00046788964 0.00021539895 0)
(-0.00052962719 0.00021806308 0)
(-0.00055119521 0.00018944669 0)
(-0.00054907397 0.00014286246 0)
(-0.0005357257 8.6146527e-05 0)
(-0.00051424832 3.1751877e-05 0)
(-0.00048793223 -1.5717752e-05 0)
(-0.00046268493 -5.3733704e-05 0)
(-0.00043229524 -5.1184731e-05 0)
(-0.00040727633 -2.2040603e-05 0)
(-0.00996172 0.010610253 2.0704044e-23)
(-0.015460805 -0.0033570618 0)
(0.0035294079 -0.017794208 0)
(0.023835201 -0.020696375 0)
(0.027172031 0.0027003669 0)
(0.0004828424 0.022343529 0)
(-0.017881718 0.021651272 0)
(-0.023722017 -0.0014383712 0)
(-0.0075069123 -0.01599975 0)
(0.0069300634 -0.013838664 0)
(0.011929691 -0.0033049768 0)
(0.0074325498 0.0049843524 0)
(0.00063834864 0.006331201 0)
(-0.0029713557 0.0043543464 0)
(-0.0036342471 0.0013917194 0)
(-0.0022371518 -0.00068255006 0)
(-0.00086611006 -0.0011430583 0)
(-0.00014630223 -0.00067723382 0)
(-6.5712056e-05 -0.00014929037 0)
(-0.00023451518 0.00017465536 0)
(-0.0004177868 0.00029145256 0)
(-0.00052985748 0.00028955337 0)
(-0.00057528576 0.00024559404 0)
(-0.00058190928 0.000185799 0)
(-0.00057106928 0.00011901639 0)
(-0.00054990645 5.157365e-05 0)
(-0.00051956884 -8.7796136e-06 0)
(-0.00048924237 -5.9291039e-05 0)
(-0.00045548044 -7.8960514e-05 0)
(-0.0004205606 -6.3415472e-05 0)
(-0.00039303679 -2.471252e-05 0)
(-0.010817517 0.011217651 -3.3182131e-23)
(-0.016166848 -0.0040238833 -2.1606769e-23)
(0.0054577846 -0.021826257 0)
(0.027766738 -0.024062257 0)
(0.026596881 0.0065406884 0)
(-0.00059585801 0.026048385 0)
(-0.013782904 0.026168559 0)
(-0.029525604 -0.0020507159 0)
(-0.0090115934 -0.021012899 0)
(0.0096927844 -0.018835173 0)
(0.016465918 -0.0045898978 0)
(0.010636746 0.0068025994 0)
(0.0011634705 0.0091129908 0)
(-0.0043155131 0.0063028267 0)
(-0.0054225081 0.0018531714 0)
(-0.0032766318 -0.0012642795 0)
(-0.0010649108 -0.0019046606 0)
(5.629599e-05 -0.0011922095 0)
(0.00024383775 -0.00030780247 0)
(-1.4870532e-05 0.00021486472 0)
(-0.00031886291 0.00040030008 0)
(-0.00051392748 0.00039204047 0)
(-0.00059968261 0.00032222292 0)
(-0.0006200843 0.00024131829 0)
(-0.00061191244 0.00016058014 0)
(-0.00059085878 7.8443882e-05 0)
(-0.00055865676 2.1752589e-06 0)
(-0.00052200826 -6.0033571e-05 0)
(-0.00048591213 -0.00010090545 0)
(-0.00044478997 -9.8659969e-05 0)
(-0.00040697649 -7.1508911e-05 0)
(-0.00037817223 -2.5912696e-05 0)
(-0.011146733 0.011907968 3.3313305e-23)
(-0.016468498 -0.0061387472 4.7343725e-23)
(0.0061485632 -0.025712509 0)
(0.030882443 -0.024356068 0)
(0.026773887 0.0081302673 0)
(0.0010746535 0.033614057 0)
(-0.017518192 0.034763675 0)
(-0.040571986 -0.0030603704 0)
(-0.012333539 -0.026439805 0)
(0.013258233 -0.024605408 0)
(0.022237582 -0.0063226108 0)
(0.014859887 0.0091541184 0)
(0.0018858773 0.012871037 0)
(-0.0061672828 0.0089133264 0)
(-0.0079603428 0.0024868182 0)
(-0.00481949 -0.0021343815 0)
(-0.001359761 -0.00305994 0)
(0.00038692 -0.0019668939 0)
(0.00072219823 -0.00057127819 0)
(0.00033559376 0.00025610508 0)
(-0.00014670791 0.00056533399 0)
(-0.00048013785 0.00054563913 0)
(-0.0006285537 0.00043408726 0)
(-0.00066857749 0.00031776999 0)
(-0.00066169163 0.00021237837 0)
(-0.00063759193 0.00011199364 0)
(-0.00060339138 1.8947681e-05 0)
(-0.00056282813 -5.6963808e-05 0)
(-0.00052155975 -0.0001105845 0)
(-0.00047724771 -0.00013053241 0)
(-0.00043185877 -0.00011286368 0)
(-0.0003926817 -7.5628667e-05 0)
(-0.00036359565 -2.5865654e-05 0)
(-0.010997027 0.012472008 0)
(-0.016160868 -0.0076848803 -4.7418483e-23)
(0.007024551 -0.030449003 0)
(0.033710276 -0.027282618 0)
(0.024771958 0.013089206 0)
(-0.0058839632 0.03907566 0)
(-0.039904619 0.039352923 0)
(-0.052405937 -0.00091226043 0)
(-0.020259669 -0.034522577 0)
(0.016985262 -0.032182317 0)
(0.029249225 -0.0079285168 0)
(0.019883802 0.012055515 0)
(0.0029068087 0.017757355 0)
(-0.0086786147 0.012717027 0)
(-0.011519288 0.0033176455 0)
(-0.0070031227 -0.0034282012 0)
(-0.0017982648 -0.0047658898 0)
(0.00090522676 -0.0031042502 0)
(0.0014427108 -0.00099862453 0)
(0.00089206191 0.00035085473 0)
(5.5056077e-05 0.00079610908 0)
(-0.00043652646 0.0007813089 0)
(-0.00066849432 0.00060946363 0)
(-0.00073802066 0.00042553633 0)
(-0.00072843977 0.00027758593 0)
(-0.00069445809 0.00015150803 0)
(-0.00065349423 4.1559439e-05 0)
(-0.00061073657 -4.8583467e-05 0)
(-0.00056450273 -0.0001148929 0)
(-0.00051570225 -0.00015220828 0)
(-0.00046613103 -0.00015195054 0)
(-0.00041780163 -0.00012016101 0)
(-0.00037845409 -7.6271313e-05 0)
(-0.00034944203 -2.4928557e-05 0)
(-0.010521167 0.012972957 -8.6470721e-24)
(-0.015453786 -0.0094429595 0)
(0.0078399179 -0.035285969 8.0983763e-23)
(0.034461959 -0.028263604 0)
(0.02467542 0.01568415 0)
(-0.0093469056 0.046701511 0)
(-0.047473852 0.047584418 0)
(-0.053642901 -0.0045655341 0)
(-0.023345893 -0.043606848 0)
(0.021523682 -0.040911427 0)
(0.037562661 -0.010271459 0)
(0.026093941 0.015726083 0)
(0.0040486785 0.024225374 0)
(-0.012029505 0.017531785 0)
(-0.016336767 0.0044616408 0)
(-0.010065983 -0.0052193994 0)
(-0.0024207865 -0.0072337664 0)
(0.0016845394 -0.0047355189 0)
(0.0025268224 -0.001630096 0)
(0.0017377602 0.00043617332 0)
(0.00051164191 0.0012207276 0)
(-0.00031877664 0.0011839705 0)
(-0.00072257359 0.00087211332 0)
(-0.00084175468 0.00057796934 0)
(-0.00082321251 0.0003599272 0)
(-0.00076986573 0.00019674982 0)
(-0.00071403201 6.6002368e-05 0)
(-0.00066262208 -3.5925119e-05 0)
(-0.0006139909 -0.00011353185 0)
(-0.00056256118 -0.00016443952 0)
(-0.00050801413 -0.00018006242 0)
(-0.00045275166 -0.0001644127 0)
(-0.00040290447 -0.00012214004 0)
(-0.00036389092 -7.4736378e-05 0)
(-0.00033646104 -2.3446722e-05 0)
(-0.009815721 0.013059417 -3.1446908e-25)
(-0.013687745 -0.011072602 1.2806367e-22)
(0.0079781256 -0.04058728 -8.0952496e-23)
(0.03388376 -0.029980595 1.5604412e-22)
(0.024853679 0.018273496 -8.451356e-23)
(-0.012273237 0.054714867 0)
(-0.051750412 0.049574122 0)
(-0.05002842 -0.0072446834 0)
(-0.01484203 -0.052293066 0)
(0.027178333 -0.053421073 0)
(0.047496535 -0.011466232 0)
(0.032941415 0.02006371 0)
(0.0047079288 0.031849379 0)
(-0.016572227 0.024182095 0)
(-0.022801874 0.0058009752 0)
(-0.014138537 -0.0077377131 0)
(-0.0032404545 -0.010647846 0)
(0.0027897419 -0.0070423845 0)
(0.0041008706 -0.0025262183 0)
(0.0029951564 0.00054494492 0)
(0.0012148889 0.0017733607 0)
(-0.00021461142 0.0016364284 0)
(-0.00075833394 0.0012521414 0)
(-0.00099530617 0.00079321907 0)
(-0.00096555494 0.00046250959 0)
(-0.00087393311 0.00024478193 0)
(-0.0007891377 8.9482977e-05 0)
(-0.00072317724 -2.3486955e-05 0)
(-0.00066748353 -0.00010910679 0)
(-0.0006120609 -0.00017000318 0)
(-0.00055721011 -0.00019967702 0)
(-0.00049775227 -0.0001973422 0)
(-0.00043909332 -0.00016822243 0)
(-0.00038788967 -0.00012383327 0)
(-0.00035023659 -7.1871059e-05 0)
(-0.00032457125 -2.1826478e-05 0)
(-0.0081261149 0.013057185 5.3567034e-24)
(-0.010942827 -0.012312215 -1.7832488e-22)
(0.0076970828 -0.045664496 0)
(0.032170393 -0.030195641 -1.9856679e-22)
(0.023863009 0.021726411 8.4116989e-23)
(-0.012890003 0.061663907 -1.9014501e-22)
(-0.053978269 0.054804698 -9.4011658e-23)
(-0.04917036 -0.01500432 0)
(-0.0071210243 -0.060192704 0)
(0.034843073 -0.065666536 0)
(0.059897475 -0.015109953 0)
(0.042169895 0.025335768 0)
(0.0061840661 0.041984921 0)
(-0.022498331 0.032841224 0)
(-0.031359858 0.0076471461 0)
(-0.019572126 -0.01104554 0)
(-0.0042686263 -0.015349811 0)
(0.0043604007 -0.010181686 0)
(0.0063167472 -0.0037613215 0)
(0.0047954421 0.00067374538 0)
(0.0022342603 0.0025792582 0)
(4.9297526e-05 0.002495253 0)
(-0.00087953224 0.0017794199 0)
(-0.0012144113 0.0011115832 0)
(-0.0011830922 0.00059735755 0)
(-0.0010268834 0.00028961178 0)
(-0.00088899447 0.00010297934 0)
(-0.0007915727 -1.8061133e-05 0)
(-0.00072490039 -0.00010632843 0)
(-0.00066752045 -0.00017255099 0)
(-0.00060823593 -0.00021198098 0)
(-0.00054891314 -0.00022180878 0)
(-0.00048613324 -0.00020535658 0)
(-0.00042592818 -0.0001649609 0)
(-0.00037549031 -0.00011885238 0)
(-0.00033771395 -6.7982511e-05 0)
(-0.00031379595 -2.0396816e-05 0)
(-0.0062783888 0.012963334 5.8657032e-25)
(-0.0082779262 -0.013355054 4.4760895e-23)
(0.0068396696 -0.050235719 -1.1338011e-23)
(0.029217685 -0.030603081 1.2411069e-24)
(0.022973314 0.023707273 4.4165875e-23)
(-0.013495864 0.069595973 -1.1409287e-22)
(-0.054305479 0.060824416 -6.3061027e-22)
(-0.049335549 -0.016807032 1.2074413e-22)
(-0.0062531187 -0.070197755 0)
(0.039310195 -0.08033373 0)
(0.072613802 -0.017113938 0)
(0.054807181 0.028935543 0)
(0.010188273 0.053080594 0)
(-0.030401415 0.043445041 0)
(-0.042402777 0.0092689715 0)
(-0.026237335 -0.015488522 0)
(-0.0055245091 -0.021551788 0)
(0.0065271635 -0.014413557 0)
(0.0093403809 -0.0054081571 0)
(0.0073255905 0.00083709335 0)
(0.0037066435 0.0037125942 0)
(0.00048330132 0.0037304939 0)
(-0.0011194139 0.0025757654 0)
(-0.0015629458 0.0016014391 0)
(-0.0015209494 0.00077477051 0)
(-0.0012555968 0.00032874984 0)
(-0.0010272988 9.2755845e-05 0)
(-0.00087441833 -3.2270904e-05 0)
(-0.00078376598 -0.00011219574 0)
(-0.00072176291 -0.00017616973 0)
(-0.00066480483 -0.00022044674 0)
(-0.00060352495 -0.00023925432 0)
(-0.0005388487 -0.00023403697 0)
(-0.00047383658 -0.00020583106 0)
(-0.00041256643 -0.0001598934 0)
(-0.00036258295 -0.00011212885 0)
(-0.00032622474 -6.401557e-05 0)
(-0.00030403113 -1.9431605e-05 0)
(-0.0037598329 0.012834167 -9.2847672e-26)
(-0.0056105573 -0.014290589 -5.2994707e-24)
(0.0058918182 -0.054072189 0)
(0.02502684 -0.03072809 2.0684483e-23)
(0.021283705 0.025971339 -8.0400221e-23)
(-0.012840443 0.077251584 0)
(-0.052887864 0.065147175 3.7987393e-22)
(-0.049386434 -0.018621748 5.1535704e-22)
(-0.0046863208 -0.079962852 0)
(0.050680717 -0.089643427 0)
(0.082667027 -0.017826508 0)
(0.065907179 0.039611407 0)
(0.01835425 0.067719576 0)
(-0.036001666 0.055214051 0)
(-0.054183032 0.011189622 0)
(-0.034082411 -0.021348185 0)
(-0.0067634863 -0.029722423 0)
(0.0095000078 -0.019835275 0)
(0.013356574 -0.0075786015 0)
(0.010742689 0.0010488503 0)
(0.0057866738 0.0052431841 0)
(0.0011494533 0.0055124869 0)
(-0.0014317889 0.0038124156 0)
(-0.0021555806 0.0022420248 0)
(-0.002014656 0.0010588384 0)
(-0.0016213506 0.00033767241 0)
(-0.0012262368 3.5305862e-05 0)
(-0.00097720262 -8.6750472e-05 0)
(-0.0008431393 -0.00014152616 0)
(-0.00077092717 -0.00018642 0)
(-0.00071745523 -0.00022607097 0)
(-0.00066131728 -0.00025088274 0)
(-0.00059718143 -0.00025439847 0)
(-0.0005286131 -0.00023771407 0)
(-0.00046150218 -0.00020128776 0)
(-0.00040006709 -0.00015377474 0)
(-0.00035100646 -0.00010558108 0)
(-0.00031601846 -6.0663208e-05 0)
(-0.0002950423 -1.9117807e-05 0)
(-0.00073814612 0.012809371 0)
(-0.002833259 -0.014865546 0)
(0.0047737195 -0.057199153 5.4858711e-24)
(0.020030548 -0.030705958 0)
(0.018954137 0.02772172 8.2197091e-24)
(-0.012226202 0.084847175 -7.014582e-23)
(-0.0508852 0.070362886 -7.9429176e-22)
(-0.047285898 -0.020412685 -3.0037699e-22)
(-0.0061109751 -0.086793161 0)
(0.054812725 -0.10523785 0)
(0.08796175 -0.017798591 0)
(0.066861218 0.041948725 0)
(0.0033561858 0.079658834 0)
(-0.040756774 0.071349277 0)
(-0.066022122 0.01216382 0)
(-0.043239261 -0.028791944 0)
(-0.0078073963 -0.039956449 0)
(0.013536226 -0.026879071 0)
(0.018592188 -0.01021235 0)
(0.015279256 0.0012827408 0)
(0.0086518019 0.007281892 0)
(0.0020966914 0.0079713225 0)
(-0.0018389984 0.0056436267 0)
(-0.0030593046 0.003181214 0)
(-0.0028160713 0.0013966923 0)
(-0.0021490052 0.00034443988 0)
(-0.0015249406 -9.2360396e-05 0)
(-0.0011125922 -0.00021514949 0)
(-0.00090017436 -0.00021856017 0)
(-0.00080769755 -0.00021741645 0)
(-0.00075980607 -0.0002337283 0)
(-0.0007149632 -0.00025501114 0)
(-0.00065810274 -0.00026673922 0)
(-0.00059048061 -0.00026020748 0)
(-0.00051825782 -0.00023555587 0)
(-0.00044854272 -0.00019375117 0)
(-0.00038790193 -0.0001470292 0)
(-0.00034017271 -0.00010064437 0)
(-0.00030630872 -5.8962416e-05 0)
(-0.00028638121 -1.9557901e-05 0)
(-0.00055436792 -0.015116434 4.0182243e-25)
(0.0014965466 0.012874326 0)
(0.0021130223 -0.059359576 9.8927082e-24)
(0.015214101 -0.030365831 1.2811406e-23)
(0.015402355 0.028972907 6.3179871e-23)
(-0.010897503 0.091864301 -8.7303659e-23)
(-0.047329152 0.074664811 1.4031127e-23)
(-0.044888353 -0.021719214 1.5797508e-22)
(-0.0065078581 -0.095357709 5.6756722e-22)
(0.055076916 -0.12189635 0)
(0.092845623 -0.019891849 -9.6937028e-22)
(0.059806373 0.056272281 0)
(-0.0016328214 0.09508529 0)
(-0.035281467 0.090010935 0)
(-0.083736577 0.016832217 0)
(-0.057642112 -0.037105064 0)
(-0.0085712729 -0.052526853 0)
(0.018914463 -0.035290237 0)
(0.025223239 -0.013567715 0)
(0.021111118 0.0016290423 0)
(0.012498126 0.0098835381 0)
(0.0034952718 0.011335779 0)
(-0.0023806009 0.0082933789 0)
(-0.0043800806 0.004547188 0)
(-0.0040682873 0.0018309193 0)
(-0.0029316332 0.00031139637 0)
(-0.0019919505 -0.00035829685 0)
(-0.0012965775 -0.00044535562 0)
(-0.00095393816 -0.00037087772 0)
(-0.0008214141 -0.0002890212 0)
(-0.00077998395 -0.00025359825 0)
(-0.00075552229 -0.00025441202 0)
(-0.00071578562 -0.00026726094 0)
(-0.00065605132 -0.00027213406 0)
(-0.00058386818 -0.00025974392 0)
(-0.00050753492 -0.00022974099 0)
(-0.00043653575 -0.0001868553 0)
(-0.00037625324 -0.00014133618 0)
(-0.00032963395 -9.8817588e-05 0)
(-0.00029699254 -5.9193209e-05 0)
(-0.00027791105 -2.0675851e-05 0)
(-0.00023639136 -0.060279688 -8.9327945e-24)
(0.0021650954 -0.015111453 0)
(0.0043545632 0.013049149 -7.629716e-25)
(0.0090521735 -0.030115474 -1.2801916e-23)
(0.011558583 0.030099571 -1.8857293e-23)
(-0.0094026956 0.097988629 -4.7162252e-23)
(-0.042361192 0.078415933 3.9206074e-22)
(-0.039922627 -0.023009542 2.2666886e-22)
(-0.0067232341 -0.10319886 3.1927536e-22)
(0.053809469 -0.13799203 6.9702928e-24)
(0.094443214 -0.023200362 -8.3260967e-22)
(0.060208523 0.061746723 1.0140811e-21)
(0.0018232226 0.10953235 0)
(-0.051690357 0.11284811 0)
(-0.11735258 0.022471334 0)
(-0.077962933 -0.045169589 0)
(-0.012728416 -0.068605583 0)
(0.026308494 -0.045789424 0)
(0.0334908 -0.017115411 0)
(0.028359827 0.0019013659 0)
(0.017528218 0.013161126 0)
(0.0054024748 0.01576171 0)
(-0.0030639252 0.011957807 0)
(-0.0062735505 0.0065617486 0)
(-0.0059222232 0.0024215393 0)
(-0.004183687 0.00014939702 0)
(-0.0026168289 -0.00072907924 0)
(-0.0015785663 -0.00087500189 0)
(-0.001003546 -0.00066145053 0)
(-0.00079671329 -0.00043130489 0)
(-0.00076054853 -0.00030007458 0)
(-0.00076820149 -0.00025437378 0)