/*--------------------------------*- C++ -*----------------------------------*\
| =========                 |                                                 |
| \\      /  F ield         | OpenFOAM: The Open Source CFD Toolbox           |
|  \\    /   O peration     | Version:  5.0                                   |
|   \\  /    A nd           | Web:      www.OpenFOAM.org                      |
|    \\/     M anipulation  |                                                 |
\*---------------------------------------------------------------------------*/
FoamFile
{
    version     2.0;
    format      ascii;
    class       volScalarField;
    location    "340";
    object      ddt0(nuTilda);
}
// * * * * * * * * * * * * * * * * * * * * * * * * * * * * * * * * * * * * * //

dimensions      [0 2 -2 0 0 0 0];

internalField   nonuniform List<scalar> 
9520
(
-5.5790117e-37
-1.2322572e-34
-1.1052655e-35
-1.0284331e-32
-1.2701295e-33
-1.4964342e-35
-4.9214024e-31
-6.9755411e-32
-1.6279215e-33
-6.0246813e-36
-1.6122955e-29
-2.4222404e-30
-8.3722913e-32
-4.7685234e-34
1.3578998e-35
-3.9717028e-28
-6.0266784e-29
-2.6920209e-30
-1.3787517e-32
1.8508986e-33
3.459482e-35
-7.7665561e-27
-1.1638708e-27
-6.094922e-29
-3.3637326e-32
1.1668638e-31
4.1284368e-33
4.4273281e-35
-1.2314302e-25
-1.8291239e-26
-1.0475604e-27
1.0899967e-29
4.5565039e-30
2.3241711e-31
4.7863356e-33
3.1948644e-35
-1.5999687e-24
-2.3862325e-25
-1.4280653e-26
4.4816915e-28
1.2551798e-28
8.2195139e-30
2.437035e-31
2.7263248e-33
-5.258395e-36
-1.704603e-23
-2.5923882e-24
-1.5708554e-25
1.0898841e-26
2.6401917e-27
2.0645441e-28
7.7648358e-30
9.8723582e-32
-1.9815944e-33
-5.7925889e-35
-1.4681328e-22
-2.2966602e-23
-1.4111905e-24
1.946258e-25
4.463657e-26
3.9650526e-27
1.7379559e-28
1.7119004e-30
-1.7741703e-31
-7.7854134e-33
-1.0441516e-34
-9.7885543e-22
-1.5239788e-22
-1.0226112e-23
2.685826e-24
6.2699685e-25
6.113075e-26
2.906566e-27
-2.4326808e-31
-8.3746507e-30
-4.766794e-31
-1.1984302e-32
-1.1762117e-34
7.9702442e-21
-2.7784991e-22
-5.8888659e-23
2.9272e-23
7.4162924e-24
7.8394423e-25
3.7468814e-26
-8.5878481e-28
-2.5982555e-28
-1.8017643e-29
-6.4381822e-31
-1.1727149e-32
-7.7019354e-35
1.9744147e-18
4.2244218e-20
-3.5636389e-22
2.4282282e-22
7.4470099e-23
8.5677016e-24
3.779106e-25
-2.7502273e-26
-5.921404e-27
-4.7772818e-28
-2.1639659e-29
-5.406067e-31
-5.3982966e-33
1.8569496e-35
1.5979035e-16
3.3041719e-18
-4.271699e-21
1.047508e-21
6.334792e-22
8.169066e-23
3.0146016e-24
-5.5111291e-25
-1.061846e-25
-9.5731475e-27
-5.1288182e-28
-1.513783e-29
-1.1808527e-31
6.1900561e-33
1.4431413e-34
8.336243e-15
1.7675796e-16
-7.1815545e-19
-3.8197125e-20
4.370931e-21
7.0225828e-22
1.9549155e-23
-8.2397843e-24
-1.5637295e-24
-1.5264092e-25
-9.1385732e-27
-2.8214298e-28
1.8128043e-30
5.3367531e-31
1.9483749e-32
2.543531e-34
3.0596662e-13
6.8246091e-15
-9.2721118e-17
-3.834796e-18
-1.7028556e-21
5.6884306e-21
1.2521199e-22
-9.8734298e-23
-1.9337612e-23
-2.0113003e-24
-1.2707399e-25
-3.4505064e-27
1.8806951e-28
2.462258e-29
1.1898996e-30
2.9168976e-32
2.9810794e-34
7.8937878e-12
1.8757589e-13
-6.551497e-15
-2.6097255e-16
-2.4055931e-18
4.318126e-20
1.3036044e-21
-9.811135e-22
-2.0546404e-22
-2.2406525e-23
-1.413811e-24
-1.9482597e-26
6.3075331e-27
7.494397e-28
4.4652912e-29
1.562869e-30
3.0191672e-32
2.4088712e-34
1.4568858e-10
3.6660309e-12
-3.0116726e-13
-1.3154054e-14
-1.4702021e-16
5.4572571e-19
3.2765631e-20
-8.1622935e-21
-1.9168915e-21
-2.1581381e-22
-1.2672375e-23
2.3266319e-25
1.4062501e-25
1.6692568e-26
1.1709786e-27
5.2227142e-29
1.4180034e-30
1.9908189e-32
7.9218006e-35
1.8226415e-09
4.8034677e-11
-9.2869137e-12
-4.8591451e-13
-6.066707e-15
5.3035355e-17
2.2486552e-18
-4.1455041e-20
-1.6026081e-20
-1.8434283e-21
-9.0198555e-23
8.260417e-24
2.3910053e-24
2.9122978e-25
2.3079168e-26
1.2251158e-27
4.0716249e-29
6.8071145e-31
-6.379102e-34
-1.5535294e-34
1.5276676e-08
4.2122088e-10
-1.9546854e-10
-1.2977651e-11
-1.7276376e-13
4.6269575e-15
1.7998082e-16
1.6573562e-18
-1.1685891e-19
-1.4407966e-20
-4.8536174e-22
1.3678677e-22
3.2645341e-23
4.153189e-24
3.5936278e-25
2.1480108e-26
7.8797215e-28
9.8265287e-30
-5.1942028e-31
-2.6804115e-32
-4.0448244e-34
8.153721e-08
1.599502e-09
-2.7043214e-09
-2.4479788e-10
-3.2676734e-12
2.5253093e-13
1.1138787e-14
1.5634454e-16
-3.5757149e-19
-1.0843067e-19
-1.6895026e-21
1.6629528e-21
3.7204701e-22
4.9433013e-23
4.5794676e-24
2.9130642e-25
1.0392133e-26
-9.2500176e-29
-3.3639605e-29
-1.8826651e-30
-5.1644311e-32
-5.9941192e-34
2.9959129e-07
-1.2426876e-09
-2.5418867e-08
-3.0913804e-09
-3.6065148e-11
9.0690992e-12
4.9839967e-13
8.8548466e-15
1.4519025e-17
-1.1762115e-18
-3.5451293e-21
1.6449183e-20
3.6387283e-21
5.0130514e-22
4.8589408e-23
3.1071155e-24
7.9071013e-26
-8.2065999e-27
-1.1964561e-27
-7.7936195e-29
-3.0263821e-30
-6.7871455e-32
-6.7974506e-34
7.7464694e-07
-4.9719579e-08
-1.5781304e-07
-2.667426e-08
-5.1503148e-11
2.1513762e-10
1.5787618e-11
3.5251831e-13
-3.6778696e-16
-5.7757624e-17
-3.2356575e-19
1.3759223e-19
3.1240358e-20
4.4158572e-21
4.3467534e-22
2.5689344e-23
-1.4647156e-25
-2.2983566e-25
-2.9252588e-26
-2.2055605e-27
-1.099135e-28
-3.5916602e-30
-6.9834106e-32
-6.0891552e-34
1.4873044e-06
-2.7116239e-07
-6.6641989e-07
-1.5209964e-07
3.2896325e-09
3.262796e-09
3.45477e-10
9.7613761e-12
-8.7080579e-14
-4.3621569e-15
-3.5154238e-17
9.015878e-19
2.4041555e-19
3.4485924e-20
3.3113205e-21
1.5052754e-22
-1.532817e-23
-4.3429945e-24
-5.4516632e-25
-4.6318769e-26
-2.8017128e-27
-1.1860457e-28
-3.3379275e-30
-5.4938057e-32
-3.8243304e-34
2.4256953e-06
-7.3472077e-07
-1.9333638e-06
-5.6462995e-07
4.400064e-08
3.3011897e-08
5.1078507e-09
1.827496e-10
-5.0011373e-12
-2.402595e-13
-2.4825377e-15
-4.606625e-18
1.6681918e-18
2.4449588e-19
2.1707182e-20
3.5428089e-22
-2.8555446e-22
-6.2792131e-23
-8.1788267e-24
-7.649834e-25
-5.3643721e-26
-2.7510991e-27
-9.8022141e-29
-2.20209e-30
-2.4199045e-32
-2.8016844e-35
3.8715943e-06
-1.0771946e-06
-4.0035415e-06
-1.473511e-06
2.9030469e-07
2.3161106e-07
5.0498806e-08
2.241289e-09
-1.5721427e-10
-9.043278e-12
-1.2287916e-13
-6.7499111e-16
9.3083879e-18
1.6131485e-18
1.2434063e-19
-4.9526711e-21
-3.6363134e-21
-7.3919736e-22
-1.0113066e-22
-1.0338124e-23
-8.0799343e-25
-4.759072e-26
-1.9622233e-27
-4.8587373e-29
-3.1237891e-31
1.8037729e-32
4.0049674e-34
4.2655064e-06
-1.3626851e-06
-6.4977495e-06
-2.920616e-06
1.142332e-06
1.109635e-06
3.3069515e-07
1.7166206e-08
-3.038255e-09
-2.282899e-10
-4.2717625e-12
-3.0717966e-14
2.5777269e-17
1.1400485e-17
6.4710782e-19
-8.923064e-20
-3.6974757e-20
-7.3400341e-21
-1.0538823e-21
-1.1632154e-22
-9.9051784e-24
-6.3305809e-25
-2.7523149e-26
-5.0814141e-28
2.2919663e-29
2.0379843e-30
6.4934054e-32
8.3258517e-34
4.2587108e-06
-2.6284231e-06
-9.2027394e-06
-4.9433795e-06
2.915224e-06
3.5912805e-06
1.4258283e-06
7.6066271e-08
-3.7479407e-08
-3.8635684e-09
-9.8908564e-11
-9.0199484e-13
4.0901387e-15
2.6526662e-16
5.0899471e-18
-9.0598473e-19
-3.1842846e-19
-6.3011047e-20
-9.4197263e-21
-1.1056547e-21
-1.0012996e-22
-6.5674393e-24
-2.4882839e-25
3.9998388e-27
1.3865284e-27
1.0458633e-28
4.4432136e-30
1.0827723e-31
1.1917829e-33
4.3559728e-06
-3.3753954e-06
-1.1261061e-05
-7.2149963e-06
5.109257e-06
8.1684065e-06
4.1087402e-06
1.41576e-07
-2.9961056e-07
-4.3914569e-08
-1.6029113e-09
-2.038657e-11
4.205731e-13
1.9179103e-14
2.7205973e-16
-6.1548574e-18
-2.4000456e-18
-4.7640871e-19
-7.3312151e-20
-8.9746174e-21
-8.3766361e-22
-5.1724102e-23
-6.8676207e-25
2.8664992e-25
4.166296e-26
3.3842797e-27
1.8136633e-28
6.4506189e-30
1.3973738e-31
1.4071517e-33
3.8257936e-06
-3.8094724e-06
-1.2221232e-05
-8.0673345e-06
7.0809317e-06
1.406292e-05
8.2493492e-06
-2.3653197e-07
-1.5692534e-06
-3.3054008e-07
-1.793757e-08
-2.7394907e-10
1.923918e-11
1.1272351e-12
2.1768817e-14
7.9430471e-17
-1.610293e-17
-3.2276779e-18
-5.0320643e-19
-6.270201e-20
-5.7488922e-21
-2.6882769e-22
2.210646e-23
6.7485659e-24
8.7571856e-25
7.8287294e-26
5.0902199e-27
2.3755715e-28
7.6339797e-30
1.5222941e-31
1.4254129e-33
3.1871038e-06
-4.1320812e-06
-1.2658903e-05
-8.1000012e-06
9.2801891e-06
1.9478116e-05
1.2574046e-05
-1.8937165e-06
-5.4809498e-06
-1.6331824e-06
-1.3450292e-07
-1.8794836e-09
5.3373832e-10
4.3941577e-11
1.224058e-12
9.2988267e-15
-1.0092215e-16
-1.9983293e-17
-3.0861862e-18
-3.7883582e-19
-3.1245159e-20
-1.4010445e-22
5.0908877e-22
1.0791532e-22
1.4287211e-23
1.3978873e-24
1.0604516e-25
6.1207157e-27
2.5962893e-28
7.672511e-30
1.4133848e-31
1.2225431e-33
2.3199124e-06
-4.6735965e-06
-1.2196053e-05
-7.8522771e-06
1.0913349e-05
2.3546135e-05
1.5890341e-05
-4.6873778e-06
-1.3193838e-05
-5.5491202e-06
-6.61613e-07
1.3143107e-09
9.4057307e-09
1.1202292e-09
4.5461621e-11
4.5880264e-13
-2.1075703e-15
-1.3160851e-16
-1.7174548e-17
-1.979546e-18
-1.1891073e-19
1.622888e-20
6.8608788e-21
1.3444205e-21
1.8780602e-22
2.0270018e-23
1.731992e-24
1.1795096e-25
6.1808702e-27
2.3911965e-28
6.4261796e-30
1.0651419e-31
8.1174931e-34
1.4225653e-06
-5.1921257e-06
-1.1774873e-05
-7.0051427e-06
1.1702038e-05
2.5278548e-05
1.7758189e-05
-7.8562825e-06
-2.327389e-05
-1.3278896e-05
-2.1182109e-06
1.3573167e-07
1.065158e-07
1.8483153e-08
1.0959222e-09
1.3789717e-11
-1.8294309e-13
-2.7649071e-15
-9.2603291e-17
-8.924732e-18
-1.1013923e-19
2.3181048e-19
7.0760079e-20
1.3801234e-20
2.0509976e-21
2.4273196e-22
2.3158734e-23
1.781922e-24
1.0945279e-25
5.1373618e-27
1.749993e-28
3.9872986e-30
5.1583109e-32
2.4423848e-34
4.2842288e-07
-5.6921784e-06
-1.1109355e-05
-5.8448571e-06
1.2040806e-05
2.5298035e-05
1.6681144e-05
-1.1649768e-05
-3.2974386e-05
-2.3661136e-05
-4.4534831e-06
1.1382858e-06
7.8278847e-07
1.9617822e-07
1.6905137e-08
2.4413755e-10
-1.0547192e-11
-1.6522637e-13
-9.6673444e-16
-3.4930028e-17
3.0016818e-18
2.1793195e-18
6.0354283e-19
1.2034996e-19
1.9019998e-20
2.4454469e-21
2.5664915e-22
2.1896247e-23
1.5007205e-24
7.979455e-26
3.0670256e-27
7.4727092e-29
6.8201964e-31
-1.5728279e-32
-3.9916015e-34
-5.0814626e-07
-6.1412187e-06
-1.0252684e-05
-4.4744478e-06
1.2290364e-05
2.4524578e-05
1.5312566e-05
-1.4133235e-05
-3.9504477e-05
-3.3303774e-05
-6.4729728e-06
4.9090662e-06
3.8336542e-06
1.3365402e-06
1.6524847e-07
2.2175705e-09
-3.5891446e-10
-7.8257176e-12
-3.9578696e-14
-1.7320937e-16
3.3684346e-17
1.6407289e-17
4.4192086e-18
9.0968666e-19
1.5219395e-19
2.1018018e-20
2.3905355e-21
2.2097972e-22
1.6188767e-23
9.0210274e-25
3.2658423e-26
2.5953225e-28
-4.6752528e-29
-2.9886024e-30
-8.529842e-32
-1.0245776e-33
-1.1308201e-06
-6.2831299e-06
-9.2719092e-06
-2.9792023e-06
1.2331833e-05
2.327664e-05
1.3391442e-05
-1.4903906e-05
-4.1569273e-05
-3.8957049e-05
-6.7663904e-06
1.3158294e-05
1.2526617e-05
5.8693861e-06
1.0150561e-06
3.7540648e-09
-7.4291527e-09
-2.4266619e-10
-1.8058538e-12
-5.9359274e-15
2.3861395e-16
1.0564656e-16
2.8493043e-17
6.0562046e-18
1.0638053e-18
1.558317e-19
1.8849116e-20
1.835862e-21
1.3619105e-22
6.6659228e-24
7.0221633e-26
-2.5054158e-26
-2.836995e-27
-1.7014715e-28
-6.4576834e-30
-1.468696e-31
-1.545455e-33
-1.6339744e-06
-6.0036558e-06
-8.2194579e-06
-1.4542982e-06
1.2142022e-05
2.1747175e-05
1.1462095e-05
-1.4725483e-05
-4.09775e-05
-4.0394565e-05
-5.3501522e-06
2.4693897e-05
2.8038088e-05
1.6842e-05
3.9018223e-06
-1.1669119e-07
-9.5305497e-08
-4.712159e-09
-5.8560963e-11
-3.2070026e-13
7.429347e-16
6.0318487e-16
1.6517003e-16
3.6028596e-17
6.5700045e-18
1.0040979e-18
1.262441e-19
1.2426007e-20
8.332111e-22
1.4509435e-23
-5.1393451e-24
-8.5621851e-25
-8.370131e-26
-5.718394e-27
-2.7629606e-28
-9.2218438e-30
-1.9228589e-31
-1.9003842e-33
-2.0693219e-06
-5.1677641e-06
-7.1095376e-06
-1.4162545e-07
1.186963e-05
2.0003469e-05
9.4645082e-06
-1.4341178e-05
-3.8176413e-05
-3.996393e-05
-3.2020019e-06
3.5924935e-05
4.609187e-05
3.2936444e-05
9.4390782e-06
-1.1841398e-06
-7.7114662e-07
-5.8849409e-08
-1.2687573e-09
-1.1980607e-11
-4.1549073e-14
3.0809965e-15
8.781394e-16
1.9447974e-16
3.6236343e-17
5.6609526e-18
7.1522976e-19
6.5863851e-20
2.5892897e-21
-4.5410783e-22
-1.2299525e-22
-1.7159808e-23
-1.7186607e-24
-1.3359193e-25
-7.9452961e-27
-3.5055895e-28
-1.0949057e-29
-2.1706601e-31
-2.0632141e-33
-1.8542721e-06
-3.6702701e-06
-4.513264e-06
4.0639007e-07
1.1244444e-05
1.8090811e-05
7.3384528e-06
-1.3708136e-05
-3.4874813e-05
-3.9078363e-05
-7.7250234e-07
4.3545126e-05
6.0963092e-05
4.696918e-05
1.4937221e-05
-5.4730738e-06
-4.0092074e-06
-4.8542214e-07
-1.808515e-08
-2.9333501e-10
-2.0400739e-12
1.072409e-14
4.4154376e-15
9.7047675e-16
1.8050143e-16
2.7997686e-17
3.369451e-18
2.3617579e-19
-1.6144549e-20
-8.9254736e-21
-1.7922141e-21
-2.5155498e-22
-2.7318444e-23
-2.3780384e-24
-1.6742288e-25
-9.241662e-27
-3.857312e-28
-1.1532643e-29
-2.2086709e-31
-2.0430669e-33
-1.2631219e-06
7.3241667e-07
-1.6681723e-06
2.4312657e-07
1.0078778e-05
1.5891417e-05
4.9117535e-06
-1.3055197e-05
-3.0322725e-05
-3.6659618e-05
-1.7911525e-06
4.7908044e-05
6.7579105e-05
5.371389e-05
1.589287e-05
-1.4975103e-05
-1.3745796e-05
-2.6574552e-06
-1.6906209e-07
-4.6528515e-09
-5.4696831e-11
-4.1093815e-14
2.711707e-14
4.6709263e-15
8.2481913e-16
1.2114426e-16
1.2449638e-17
8.0898149e-20
-3.5436924e-19
-1.0450459e-19
-1.996137e-20
-2.9376484e-21
-3.4921319e-22
-3.4057017e-23
-2.7475916e-24
-1.8180003e-25
-9.5396038e-27
-3.8262931e-28
-1.1078626e-29
-2.0682386e-31
-1.8757339e-33
5.0722273e-07
2.5425068e-06
1.7261059e-06
-7.8651002e-07
8.5311989e-06
1.3498971e-05
2.3991574e-06
-1.2439223e-05
-2.5140096e-05
-3.3607321e-05
-2.7486037e-06
4.8694334e-05
6.847142e-05
5.2751745e-05
1.2415299e-05
-2.7887588e-05
-3.2393919e-05
-9.8412493e-06
-1.0426564e-06
-4.7530994e-08
-8.7872976e-10
3.5232075e-12
7.3392723e-13
3.5625497e-14
3.6420645e-15
4.550012e-16
2.7728349e-17
-7.3456914e-18
-3.637643e-18
-9.4233102e-19
-1.8240647e-19
-2.8524471e-20
-3.7021718e-21
-4.0232506e-22
-3.6678274e-23
-2.8079106e-24
-1.7748519e-25
-8.9606082e-27
-3.4844076e-28
-9.8398151e-30
-1.8014586e-31
-1.6103055e-33
-2.2467266e-06
2.1352092e-06
4.7428571e-06
1.4919698e-06
6.4999479e-06
1.0854384e-05
-7.2050545e-08
-1.1607904e-05
-1.9793149e-05
-3.0031062e-05
-3.7604308e-06
4.6293379e-05
6.7181772e-05
4.8084365e-05
4.7675839e-06
-3.9893838e-05
-5.5681876e-05
-2.5563124e-05
-4.3025814e-06
-3.1177953e-07
-7.90824e-09
2.9525187e-10
3.8256172e-11
1.507891e-12
3.2906101e-14
1.4941341e-15
-5.0574279e-17
-7.8734751e-17
-2.8019001e-17
-7.0574282e-18
-1.4157735e-18
-2.3615053e-19
-3.3309866e-20
-3.9972951e-21
-4.0807313e-22
-3.5392268e-23
-2.6004573e-24
-1.5844084e-25
-7.7482007e-27
-2.9367813e-28
-8.1257999e-30
-1.4648902e-31
-1.2956355e-33
3.8267542e-06
-4.1652919e-06
3.9273948e-06
5.7988235e-06
9.763636e-07
8.1303874e-06
-2.5415551e-06
-1.0488727e-05
-1.4268225e-05
-2.6009992e-05
-4.6862602e-06
4.3187024e-05
6.3147556e-05
4.0428747e-05
-2.464569e-06
-4.7921132e-05
-7.4690162e-05
-4.8821256e-05
-1.2240482e-05
-1.3035386e-06
-2.9187021e-08
8.4575516e-09
1.3108268e-09
7.8923242e-11
1.7800932e-12
1.3768338e-14
-1.1000521e-15
-5.7052842e-16
-1.7929749e-16
-4.5499761e-17
-9.5374733e-18
-1.6958364e-18
-2.586241e-19
-3.3971693e-20
-3.8431388e-21
-3.7333599e-22
-3.1084334e-23
-2.2044721e-24
-1.2996806e-25
-6.1810555e-27
-2.2891913e-28
-6.218809e-30
-1.1061723e-31
-9.7032268e-34
5.3090283e-06
-7.3544617e-07
-4.3276831e-06
5.7139495e-06
6.2488766e-06
3.011742e-07
-4.6624988e-06
-8.8495282e-06
-8.6684389e-06
-2.1795682e-05
-5.5953779e-06
3.9516562e-05
5.8676765e-05
3.6016698e-05
-5.8366715e-06
-4.9884268e-05
-8.4727222e-05
-7.2282915e-05
-2.4954729e-05
-3.440849e-06
1.1017883e-07
1.2821418e-07
2.6932499e-08
2.5402719e-09
9.1760855e-11
9.5325951e-13
-7.595929e-15
-3.3996564e-15
-9.9800814e-16
-2.5803876e-16
-5.6629511e-17
-1.0703384e-17
-1.7550348e-18
-2.5032395e-19
-3.1054472e-20
-3.3419694e-21
-3.1077152e-22
-2.4927049e-23
-1.7077277e-24
-9.7381115e-26
-4.496297e-27
-1.6230649e-28
-4.3174447e-30
-7.562227e-32
-6.5762261e-34
-5.8985132e-06
1.9374498e-06
-4.082966e-06
-3.4283709e-06
7.2352012e-06
6.3463812e-06
-6.371016e-07
-6.3438651e-06
-2.8599122e-06
-1.7700223e-05
-6.4801362e-06
3.5608803e-05
5.3765844e-05
3.0845327e-05
-8.0709457e-06
-4.4727467e-05
-8.6052318e-05
-8.8870223e-05
-3.8579426e-05
-5.4584134e-06
1.7141217e-06
1.1426057e-06
3.3523974e-07
4.8537705e-08
2.8032831e-09
4.8022007e-11
2.3608131e-14
-1.8780263e-14
-4.9975629e-15
-1.3072657e-15
-2.9991488e-16
-6.0010735e-17
-1.0517259e-17
-1.6164885e-18
-2.1775455e-19
-2.5650435e-20
-2.6308165e-21
-2.3391873e-22
-1.7992686e-23
-1.180699e-24
-6.4361018e-26
-2.8422864e-27
-9.8286224e-29
-2.5149996e-30
-4.2723565e-32
-3.6505217e-34
-1.5689425e-06
-5.9058802e-06
-1.0839024e-06
-6.5348898e-06
-2.1176276e-06
8.4687409e-06
6.0366856e-06
-1.6047133e-06
1.7185699e-06
-1.3658854e-05
-7.4006899e-06
3.1462752e-05
4.8832589e-05
2.5106219e-05
-1.1112686e-05
-4.013019e-05
-7.4958461e-05
-9.7521741e-05
-4.8715141e-05
-4.1929692e-06
8.5276865e-06
6.2903273e-06
2.5702753e-06
5.5739053e-07
5.014057e-08
1.3631221e-09
1.021595e-12
-1.8124127e-13
-2.3214192e-14
-5.9993329e-15
-1.4311111e-15
-3.0156593e-16
-5.6133699e-17
-9.2254186e-18
-1.3364272e-18
-1.7014145e-19
-1.8947876e-20
-1.8331363e-21
-1.5312218e-22
-1.0985038e-23
-6.6251005e-25
-3.2536324e-26
-1.2655363e-27
-3.7554555e-29
-8.0704398e-31
-1.1524481e-32
-8.725199e-35
7.881818e-06
2.3356892e-06
-6.0182663e-06
-4.8212761e-06
-8.3000478e-06
-7.6310808e-07
9.5771467e-06
5.5137068e-06
-2.4800349e-06
-9.8209655e-06
-9.0042555e-06
2.7033186e-05
4.3718147e-05
1.9407207e-05
-1.4142585e-05
-3.5371766e-05
-6.4221943e-05
-9.906907e-05
-5.3570185e-05
1.8420737e-06
2.4496844e-05
2.2155881e-05
1.2359951e-05
3.8963645e-06
5.3150597e-07
2.1918424e-08
-7.9410338e-11
-7.5484335e-12
-1.1857056e-13
-2.5363859e-14
-6.2085943e-15
-1.3689099e-15
-2.6873145e-16
-4.68308e-17
-7.2179346e-18
-9.7888329e-19
-1.1591994e-19
-1.1846005e-20
-1.0254866e-21
-7.3350466e-23
-4.1363534e-24
-1.5808144e-25
-1.5812451e-27
2.7476092e-28
2.2141919e-29
8.8217899e-31
1.9480593e-32
1.8952364e-34
-6.8760151e-06
1.2678252e-05
6.0231566e-06
-7.0793694e-06
-8.7055019e-06
-9.6754878e-06
8.2707342e-07
1.0460904e-05
4.9702458e-06
-3.2921201e-06
-1.1838972e-05
2.2438865e-05
3.8501127e-05
1.353549e-05
-1.7788734e-05
-3.066771e-05
-5.2264901e-05
-9.3744719e-05
-6.4968263e-05
1.1190906e-05
4.7559307e-05
5.2144982e-05
3.8032681e-05
1.6812537e-05
3.3689838e-06
1.9942677e-07
-4.1544578e-09
-3.1071335e-10
-2.152924e-12
-1.019597e-13
-2.4734532e-14
-5.6528265e-15
-1.1606385e-15
-2.1235545e-16
-3.4361591e-17
-4.8664079e-18
-5.9304921e-19
-6.0245457e-20
-4.7466508e-21
-2.2585797e-22
5.9451694e-24
2.7468979e-24
3.5443506e-25
3.023717e-26
1.8758179e-27
8.4766269e-29
2.6654696e-30
5.2313093e-32
4.8252565e-34
-1.5251986e-05
-2.7816509e-06
1.6784776e-05
8.5066444e-06
-8.2533207e-06
-1.2684812e-05
-1.0711721e-05
2.5074626e-06
1.1178304e-05
4.383557e-06
-3.8991409e-06
1.7381257e-05
3.3091021e-05
7.8510768e-06
-2.1222614e-05
-2.6014405e-05
-3.9688733e-05
-8.491392e-05
-7.1599861e-05
1.0949175e-05
7.1131695e-05
8.7766877e-05
7.7590498e-05
4.5443212e-05
1.2858243e-05
9.9865228e-07
-8.2392158e-08
-7.6798488e-09
-9.0714671e-11
-5.6707709e-13
-9.1762079e-14
-2.1379389e-14
-4.542999e-15
-8.6151059e-16
-1.4357966e-16
-2.0536103e-17
-2.40266e-18
-2.005011e-19
-4.1021663e-21
2.4560207e-21
5.9841476e-22
8.9429341e-23
1.0136834e-23
9.1262874e-25
6.5290849e-26
3.6539876e-27
1.5463775e-28
4.6577799e-30
8.8935859e-32
8.0797709e-34
1.1756947e-05
-1.6022726e-05
1.3034258e-06
2.0478135e-05
1.0364506e-05
-9.692766e-06
-1.6619227e-05
-1.1258559e-05
4.0284271e-06
1.1634088e-05
3.7874364e-06
-4.3267769e-06
2.7448901e-05
2.011269e-06
-2.4480993e-05
-2.109811e-05
-2.725858e-05
-7.3363641e-05
-7.4986235e-05
7.7749909e-06
8.7074683e-05
0.00011617169
0.00011280947
7.9866351e-05
2.988504e-05
2.4653324e-06
-8.5353999e-07
-1.1281035e-07
-2.5451138e-09
-1.3824526e-11
-3.3790843e-13
-7.466067e-14
-1.6166932e-14
-3.119386e-15
-5.1853176e-16
-6.9712077e-17
-6.1825167e-18
1.2893283e-19
2.057786e-19
5.5088248e-20
1.0231004e-20
1.5097329e-21
1.8362586e-22
1.8591422e-23
1.5551954e-24
1.0577214e-25
5.7077349e-27
2.3515746e-28
6.9445831e-30
1.3075078e-31
1.1772075e-33
2.1284056e-05
6.0895227e-06
-1.6099286e-05
5.4528256e-06
2.3964431e-05
1.1987802e-05
-1.0820877e-05
-1.9636042e-05
-1.1530109e-05
5.4619796e-06
1.1883067e-05
3.41841e-06
-4.1569436e-06
-3.8493921e-06
-2.6523098e-05
-1.4707594e-05
-1.5312865e-05
-6.0159049e-05
-7.6284093e-05
2.6912189e-06
9.234804e-05
0.00013725449
0.00012891643
9.8617319e-05
4.4234319e-05
1.5014344e-06
-5.0927939e-06
-1.007864e-06
-4.2158622e-08
-4.4865457e-10
-2.5542736e-12
-2.445225e-13
-5.2406813e-14
-9.9848523e-15
-1.5505906e-15
-1.5505007e-16
7.5597699e-18
8.9282011e-18
2.8454332e-18
6.5274152e-19
1.2182644e-19
1.9175946e-20
2.5730539e-21
2.9434725e-22
2.8530428e-23
2.3078746e-24
1.5293017e-25
8.0846926e-27
3.2771459e-28
9.5557208e-30
1.7819457e-31
8.5556252e-36
-9.815641e-06
1.4288131e-05
-1.016308e-08
-1.5243162e-05
9.6840525e-06
2.7276861e-05
1.3384135e-05
-1.1443566e-05
-2.1501824e-05
-1.1602597e-05
6.7501105e-06
1.2167916e-05
2.9512665e-06
-4.1932137e-06
-2.7827304e-05
-7.4981134e-06
-3.5675464e-06
-4.664522e-05
-7.5248555e-05
-3.623138e-06
9.2719052e-05
0.00014192883
0.00013111205
9.3783429e-05
4.4004766e-05
-6.1507393e-06
-1.8445578e-05
-5.6203539e-06
-4.2430559e-07
-9.0430158e-09
-6.9296878e-11
-8.9767148e-13
-1.5500321e-13
-2.7564855e-14
-3.3273904e-15
1.138376e-16
2.3262225e-16
9.1527929e-17
2.5760358e-17
5.9460215e-18
1.1727582e-18
2.0038155e-19
2.9749138e-20
3.827522e-21
4.2415383e-22
4.005852e-23
3.1711961e-24
2.06441e-25
1.0755784e-26
4.3087118e-28
1.2446782e-29
1.5055053e-33
2.4988543e-38
-2.8163169e-05
-1.5661025e-05
6.156195e-06
-6.3234731e-06
-1.3578162e-05
1.3730523e-05
3.0396287e-05
1.4585195e-05
-1.2425343e-05
-2.3047172e-05
-1.1378732e-05
7.8820419e-06
1.1615494e-05
2.2307055e-06
-4.0127822e-06
2.3733922e-07
8.3544415e-06
-3.3506819e-05
-7.1835607e-05
-1.0623437e-05
8.9830894e-05
0.00014246183
0.00013034203
7.8003241e-05
3.0395658e-05
-1.8427959e-05
-4.2717579e-05
-2.0213846e-05
-2.6851781e-06
-1.1010963e-07
-1.6362499e-09
-1.045714e-11
-4.3040492e-13
-6.1396714e-14
-1.1164314e-15
3.8156042e-15
1.9344001e-15
6.6735243e-16
1.8795827e-16
4.5437081e-17
9.6047559e-18
1.7868413e-18
2.9254914e-19
4.2012258e-20
5.2611646e-21
5.7031776e-22
5.2809258e-23
4.1117849e-24
2.6400143e-25
1.360033e-26
5.3994961e-28
1.20023e-31
5.5581129e-36
1.8073341e-41
8.1640266e-06
-2.7416994e-05
-2.0882448e-05
-2.7947684e-06
-1.2035333e-05
-1.1485989e-05
1.7758619e-05
3.3325501e-05
1.5660325e-05
-1.3774859e-05
-2.4443895e-05
-1.1113607e-05
8.3090061e-06
1.0580317e-05
1.1098023e-06
-2.6687221e-06
2.0759907e-05
-2.1713557e-05
-6.6689095e-05
-1.7236467e-05
8.4955983e-05
0.00014024104
0.00012651523
6.8859792e-05
1.2741353e-05
-2.8492525e-05
-6.7184825e-05
-4.9023636e-05
-1.1073222e-05
-8.3876358e-07
-2.3701548e-08
-2.5221515e-10
-1.8969989e-12
-8.5357782e-14
3.766089e-14
2.7729614e-14
1.1825899e-14
4.0270269e-15
1.1756983e-15
3.015521e-16
6.8560558e-17
1.3858527e-17
2.4887263e-18
3.9570502e-19
5.5427623e-20
6.7938056e-21
7.2312513e-22
6.587162e-23
5.0593218e-24
3.2125709e-25
1.6406641e-26
5.912491e-30
5.2657117e-34
7.2427689e-39
-1.1624961e-44
3.292711e-05
1.6112178e-05
-2.5928201e-05
-2.5685862e-05
-9.8956987e-06
-1.6392576e-05
-9.3604517e-06
2.1569609e-05
3.611503e-05
1.6424344e-05
-1.5152916e-05
-2.55427e-05
-1.0391707e-05
8.5960918e-06
8.258739e-06
9.4746315e-07
-1.6661123e-06
-9.8198772e-06
-6.0837077e-05
-2.3784123e-05
7.8606141e-05
0.00013676195
0.00012060094
5.8738344e-05
2.2381062e-07
-3.5434556e-05
-7.6713692e-05
-8.5182345e-05
-3.1236408e-05
-4.1463451e-06
-2.131795e-07
-4.253965e-09
-3.3484405e-11
2.8616515e-14
2.6698622e-13
1.4748602e-13
6.071571e-14
2.116045e-14
6.4820714e-15
1.7691624e-15
4.3221884e-16
9.4573138e-17
1.8512959e-17
3.2331506e-18
5.0160104e-19
6.8760762e-20
8.2740857e-21
8.6637204e-22
7.7828468e-23
5.9112463e-24
3.7215886e-25
2.0398636e-28
3.0229996e-32
8.9206977e-37
1.8993598e-42
-1.3032785e-47
1.8192454e-06
4.3874428e-05
2.4439147e-05
-2.4281183e-05
-3.2425213e-05
-1.8577023e-05
-2.045684e-05
-7.2332155e-06
2.5250986e-05
3.8682012e-05
1.6870554e-05
-1.6156442e-05
-2.5520504e-05
-8.9196333e-06
7.9851517e-06
5.8336055e-06
6.2879006e-07
-8.6016366e-07
-5.673828e-05
-3.0292079e-05
7.0880635e-05
0.00013193948
0.00011482901
4.7924259e-05
-1.562615e-05
-4.0306976e-05
-6.5286435e-05
-0.00011122557
-6.4159327e-05
-1.3939946e-05
-1.2348434e-06
-4.4546665e-08
-6.3723289e-10
-1.9155672e-12
1.2855905e-12
6.6157947e-13
2.7443081e-13
9.9188759e-14
3.1984336e-14
9.2781248e-15
2.4266773e-15
5.7203518e-16
1.2131747e-16
2.3092747e-17
3.9322744e-18
5.964121e-19
8.0140486e-20
9.4876117e-21
9.7897307e-22
8.6929876e-23
6.5459891e-24
5.2655666e-27
1.2082991e-30
6.2048431e-35
4.690942e-40
-8.277386e-46
-4.3426757e-51
-5.2974445e-05
1.2741068e-05
5.3559793e-05
3.2324875e-05
-2.1945872e-05
-3.8730405e-05
-2.7301771e-05
-2.4463257e-05
-5.6094548e-06
2.8722296e-05
4.0786485e-05
1.660493e-05
-1.6907386e-05
-2.4144682e-05
-6.380665e-06
5.4102699e-06
3.5285219e-06
2.3371837e-07
-3.3810915e-07
-3.634967e-05
6.1884895e-05
0.0001253034
0.00010862465
3.5560173e-05
-3.0044171e-05
-4.7300145e-05
-5.5381774e-05
-0.00010276459
-0.00010239675
-3.3798401e-05
-4.8341738e-06
-2.9787299e-07
-7.7040755e-09
-7.1935501e-11
4.909826e-12
2.6295485e-12
1.1178595e-12
4.2070438e-13
1.4265351e-13
4.3829759e-14
1.2213269e-14
3.0832845e-15
7.0388703e-16
1.449742e-16
2.6864386e-17
4.463928e-18
6.6244833e-19
8.7318354e-20
1.0190604e-20
1.0384549e-21
9.1386599e-23
1.0579579e-25
3.6109986e-29
2.9404368e-33
4.3095871e-38
4.7706949e-44
-4.6803204e-49
-8.0425046e-55
-4.1447691e-05
-4.7738352e-05
2.2772424e-05
6.229946e-05
3.949194e-05
-1.8967222e-05
-4.4862742e-05
-3.620366e-05
-2.8616626e-05
-4.170004e-06
3.1801794e-05
4.1617127e-05
1.4957279e-05
-1.6661596e-05
-2.0484633e-05
-4.539747e-06
3.4818746e-06
1.6415488e-06
3.5961563e-08
-9.1846694e-08
5.0873097e-05
0.0001163298
0.00010121616
2.1702414e-05
-4.7084746e-05
-5.6922378e-05
-4.7472446e-05
-8.3458827e-05
-0.00012844195
-6.3027706e-05
-1.3512511e-05
-1.3365845e-06
-5.8943064e-08
-1.0809715e-09
1.0426902e-11
9.4788898e-12
4.1631826e-12
1.6308743e-12
5.7947953e-13
1.8764408e-13
5.5386071e-14
1.487886e-14
3.6303421e-15
8.0277872e-16
1.6052788e-16
2.8948809e-17
4.6930811e-18
6.8158139e-19
8.8347802e-20
1.0165104e-20
1.0255471e-21
1.696258e-24
8.4132808e-28
1.035392e-31
2.4884196e-36
9.6435997e-42
-1.6435162e-47
-1.0166543e-52
-1.0031451e-58
3.7701267e-05
-4.6339116e-05
-4.0552112e-05
3.2106487e-05
7.0326732e-05
4.5864578e-05
-1.6457145e-05
-5.0495658e-05
-4.4994786e-05
-3.2889873e-05
-2.7828751e-06
3.5549729e-05
4.1343191e-05
1.2315544e-05
-1.4681954e-05
-1.4768923e-05
-2.6701195e-06
1.8258779e-06
5.5307928e-07
-6.2186379e-09
-1.7213723e-08
0.0001045165
9.1464892e-05
6.7762843e-06
-6.69435e-05
-6.8572789e-05
-4.2278728e-05
-5.8810054e-05
-0.00012818466
-9.980626e-05
-2.8887086e-05
-4.2474673e-06
-3.0000302e-07
-9.5743223e-09
-7.154139e-11
3.1119534e-11
1.4346859e-11
5.8260741e-12
2.1582271e-12
7.3201309e-13
2.2734659e-13
6.452905e-14
1.6699131e-14
3.9313469e-15
8.4032035e-16
1.6278815e-16
2.8515168e-17
4.5035027e-18
6.3944853e-19
8.1567593e-20
9.2696657e-21
2.2038151e-23
1.5690757e-26
2.8410689e-30
1.0435011e-34
7.2586975e-40
4.5099554e-46
-5.5947034e-51
-1.3688069e-56
-9.2994843e-63
8.9821446e-05
2.4131467e-05
-4.9212641e-05
-3.2092114e-05
4.1033872e-05
7.7635335e-05
5.1714989e-05
-1.364253e-05
-5.5085729e-05
-5.3212315e-05
-3.684725e-05
-1.0499458e-06
3.845966e-05
3.7462045e-05
8.8315148e-06
-1.0740173e-05
-8.9430263e-06
-1.0114134e-06
6.9416181e-07
1.2728586e-07
-4.3601061e-09
-2.0628498e-09
7.8873545e-05
-9.2043115e-06
-8.8841696e-05
-8.0825972e-05
-3.7639833e-05
-3.4960329e-05
-0.00010155664
-0.00012921054
-5.738353e-05
-1.0201276e-05
-1.0716903e-06
-5.5115418e-08
-1.1249884e-09
8.8016684e-11
4.6642114e-11
1.942372e-11
7.4184811e-12
2.6162189e-12
8.4833013e-13
2.5235334e-13
6.8665565e-14
1.7046573e-14
3.8532697e-15
7.9186103e-16
1.4778185e-16
2.50122e-17
3.8313478e-18
5.2979025e-19
6.6523285e-20
2.3370534e-22
2.3822535e-25
6.2527861e-29
3.3924984e-33
3.6301133e-38
8.3388826e-44
-1.4014423e-49
-8.6662518e-55
-1.3275306e-60
-7.6348977e-67
6.2812423e-05
7.2276935e-05
1.0862514e-05
-4.9023979e-05
-2.2682285e-05
4.9398892e-05
8.4146416e-05
5.6948537e-05
-1.0556814e-05
-5.8280356e-05
-6.0587178e-05
-4.1202662e-05
2.1704548e-06
3.7864807e-05
3.0204924e-05
5.2398123e-06
-6.5126023e-06
-4.0998386e-06
-2.2892881e-07
1.7960801e-07
2.0910716e-08
-7.4658118e-10
-1.6585171e-10
-2.5421574e-05
-0.00010884
-9.1035857e-05
-3.1627874e-05
-1.0987094e-05
-6.9627747e-05
-0.00014371529
-9.0713213e-05
-2.539433e-05
-2.8446851e-06
-2.1794593e-07
-7.599323e-09
1.8892667e-10
1.4711453e-10
6.2332242e-11
2.4102793e-11
8.6201232e-12
2.8905303e-12
8.925177e-13
2.527056e-13
6.5383161e-14
1.54167e-14
3.3065915e-15
6.4443451e-16
1.1411536e-16
1.8367554e-17
2.6894509e-18
3.5924395e-19
2.0184858e-21
2.9735312e-24
1.1241757e-27
8.8584324e-32
1.3764335e-36
5.3251672e-42
2.0007777e-48
-3.2120993e-53
-8.9879035e-59
-1.1266247e-64
-6.0123378e-71
-4.1499798e-05
4.3987735e-05
5.2777966e-05
-1.484817e-06
-4.6673637e-05
-1.2832664e-05
5.7188683e-05
8.9804054e-05
6.1347055e-05
-7.2391342e-06
-5.9571512e-05
-6.7534616e-05
-4.1553801e-05
6.6899325e-06
3.3450156e-05
2.0195741e-05
2.1539701e-06
-3.1022113e-06
-1.3256968e-06
-2.6132787e-08
3.1150439e-08
2.3226573e-09
-7.4584818e-11
-9.0335772e-12
-0.00012384565
-9.8742842e-05
-2.27212e-05
1.436534e-05
-3.3297572e-05
-0.00013604994
-0.00012559612
-4.8287722e-05
-8.8735538e-06
-6.0337733e-07
-2.6129598e-08
1.3106932e-09
5.679256e-10
2.0376468e-10
7.7761196e-11
2.7837921e-11
9.0788615e-12
2.8626069e-12
8.3224938e-13
2.2088258e-13
5.3247836e-14
1.1610458e-14
2.2813384e-15
4.0277746e-16
6.3814096e-17
9.0845965e-18
1.1697737e-18
1.3939379e-20
3.0608365e-23
1.6699967e-26
1.8971944e-30
4.1830366e-35
2.330221e-40
3.6942391e-46
-6.3280537e-52
-3.7770545e-57
-7.9550555e-63
-9.1245919e-69
-4.5473019e-75
-0.0001315179
-5.6367722e-05
2.3273268e-05
3.2829635e-05
-1.2661516e-05
-4.2591079e-05
-2.8842251e-06
6.415017e-05
9.4884794e-05