/*--------------------------------*- C++ -*----------------------------------*\
| =========                 |                                                 |
| \\      /  F ield         | OpenFOAM: The Open Source CFD Toolbox           |
|  \\    /   O peration     | Version:  5.0                                   |
|   \\  /    A nd           | Web:      www.OpenFOAM.org                      |
|    \\/     M anipulation  |                                                 |
\*---------------------------------------------------------------------------*/
FoamFile
{
    version     2.0;
    format      ascii;
    class       surfaceScalarField;
    location    "340";
    object      ddtCorrDdt0(phi);
}
// * * * * * * * * * * * * * * * * * * * * * * * * * * * * * * * * * * * * * //

dimensions      [0 3 -2 0 0 0 0];

internalField   nonuniform List<scalar> 
18820
(
1.1414679e-06
0.00037088491
1.4960672e-06
0.0003441265
4.1701795e-06
0.00036671105
1.2974442e-06
0.0003163512
7.626096e-06
0.00034064703
-1.7808067e-06
0.00036847684
6.8776029e-07
0.00028793516
1.0314357e-05
0.00031364185
-2.7119644e-06
0.00034154152
-1.3671552e-05
0.00038212562
-5.5621006e-08
0.00025942696
1.1559544e-05
0.00028667087
-3.2043905e-06
0.00031410306
-2.5304128e-05
0.00035313322
-2.1189914e-05
0.00040329023
-6.5951297e-07
0.00023166977
1.1126576e-05
0.00025984331
-4.125219e-06
0.0002875649
-3.5393278e-05
0.00032415908
-4.0832271e-05
0.00037273868
-2.0543206e-05
0.0004238104
-1.2776352e-06
0.00020492146
9.531426e-06
0.0002332505
-6.2019337e-06
0.0002618982
-4.4221494e-05
0.0002963674
-5.9124999e-05
0.00034242494
-4.112083e-05
0.00039329033
-1.2648174e-05
0.00043644181
-2.6562935e-06
0.00017914613
6.817097e-06
0.00020762313
-9.3824485e-06
0.00023641368
-5.2466127e-05
0.00027012501
-7.5508818e-05
0.00031273487
-6.1742218e-05
0.00036303197
-2.6500024e-05
0.00040713119
-4.4826673e-06
0.0004409162
-6.8470763e-06
0.00015429355
2.1110815e-06
0.00018384175
-1.3512625e-05
0.00021174049
-6.0899204e-05
0.00024483649
-9.0018717e-05
0.00028462963
-8.1441356e-05
0.00033243288
-4.1605057e-05
0.00037813845
-9.9337181e-06
0.00041258768
-2.2532692e-06
0.0004431705
-1.8061994e-05
0.0001302971
-7.3791637e-06
0.00016377746
-1.8618809e-05
0.00018894127
-6.9775157e-05
0.00022061411
-0.00010365046
0.00025847339
-9.9784497e-05
0.00030298472
-5.772295e-05
0.00034856635
-1.6281972e-05
0.00038450353
-4.3727564e-06
0.00041472742
-6.9918731e-06
0.00045017188
-4.4296147e-05
0.00010744771
-2.7488799e-05
0.00015040674
-2.483732e-05
0.00016999825
-7.834465e-05
0.00019751818
-0.00011692384
0.00023390304
-0.00011743318
0.00027614549
-7.420845e-05
0.00031949849
-2.482683e-05
0.00035714053
-6.3016178e-06
0.00038646129
-1.2657478e-05
0.00042042485
-1.5462683e-05
0.000465651
-9.2590674e-05
9.2501387e-05
-7.0522636e-05
0.00015048925
-3.242199e-05
0.00015800493
-8.3382186e-05
0.00017505509
-0.00012945318
0.00021007431
-0.00013506723
0.00025157034
-9.0752392e-05
0.00029272696
-3.5181145e-05
0.0003298909
-9.1687298e-06
0.00036004434
-1.7791273e-05
0.00039163083
-2.8791934e-05
0.00043379302
-2.2673772e-05
0.00048834587
-0.0001757875
0.00010551281
-0.00014928697
0.00017128029
-3.9233194e-05
0.00015732504
-7.8808002e-05
0.00015346214
-0.00013934691
0.00018498701
-0.00015343764
0.00022848621
-0.00010768987
0.00026855093
-4.5829945e-05
0.00030341719
-1.3707372e-05
0.00033446825
-2.2352931e-05
0.00036464284
-4.138784e-05
0.0004042641
-4.3395367e-05
0.00045455627
-2.4982787e-05
0.00051335229
-0.00029021329
0.00011781227
-0.00023712509
0.00019336922
-2.6787173e-05
0.00015886642
-4.9533744e-05
0.00012809093
-0.00014050716
0.0001546696
-0.00017341792
0.00020501426
-0.00012648284
0.0002473241
-5.5979278e-05
0.00027873952
-1.858323e-05
0.00030832684
-2.6829669e-05
0.00033897537
-5.3349502e-05
0.0003766354
-6.3061139e-05
0.00042396437
-4.9142678e-05
0.00047875641
-2.1561473e-05
0.00053493753
-0.0004499537
0.00014952176
-0.00031466794
0.00019537268
3.5793583e-05
0.00013082226
2.5945463e-05
8.342975e-05
-0.00012281663
0.00011045124
-0.00019690401
0.00017820352
-0.00015148899
0.00023006275
-6.5887456e-05
0.0002572646
-2.1927039e-05
0.00028210651
-3.1271139e-05
0.0003127855
-6.4423694e-05
0.00035006634
-8.2121123e-05
0.00039571709
-7.2247266e-05
0.00044709784
-4.3704314e-05
0.00050093485
-1.4055694e-05
0.0005490152
-0.00066409509
0.00019137375
-0.00037609253
0.00021095897
0.00013163304
9.9562542e-05
0.00013979187
1.701377e-05
-8.9019943e-05
4.9680806e-05
-0.00023529796
0.00014888843
-0.00019262018
0.00021936997
-7.7653801e-05
0.00024185101
-2.1515981e-05
0.00025686279
-3.4749385e-05
0.0002855852
-7.549293e-05
0.0003238527
-0.00010074062
0.0003686885
-9.4488722e-05
0.00041797052
-6.5907598e-05
0.00046932276
-2.957975e-05
0.00051648715
-5.4872164e-06
0.00055452056
-0.00095760207
0.00026767398
-0.00043357976
0.00024886606
0.00027603096
6.6581468e-05
0.00027602152
-3.6638636e-05
-6.915719e-05
-2.8095135e-06
-0.00030899332
0.00012341092
-0.00026436158
0.000220655
-9.4108901e-05
0.00023583533
-1.3603844e-05
0.00023393389
-3.5180999e-05
0.00025727878
-8.7321282e-05
0.00029739323
-0.00011985592
0.00034295095
-0.00011681111
0.00039100307
-8.7386294e-05
0.0004394532
-4.7184615e-05
0.00048694162
-1.2551142e-05
0.00052357022
1.0152892e-06
0.00055351834
-0.0012600056
0.00030999869
-0.00047664282
0.00031073402
0.00048293344
4.1973414e-05
0.0004588866
-0.00011626575
-6.8119301e-05
-3.7647021e-05
-0.00042253903
0.00011076238
-0.00038428928
0.00024335414
-0.00011759633
0.0002441432
8.2986602e-06
0.00021391692
-2.790071e-05
0.0002266269
-9.9711446e-05
0.00026963621
-0.00014080274
0.00031830911
-0.00013993728
0.00036605364
-0.00010902072
0.00041262504
-6.5510346e-05
0.00045777732
-2.279621e-05
0.00049719302
7.6844991e-07
0.0005238262
3.5110237e-06
0.00055001431
-0.0016722836
0.00044988113
-0.00054209187
0.00037543782
0.00079048656
3.1807075e-06
0.00071888259
-0.00021801322
-8.6456481e-05
-9.7907242e-05
-0.00056786801
0.00010770312
-0.0005622753
0.00028875841
-0.00014786223
0.00027361685
5.3516383e-05
0.00019890527
-6.1733882e-06
0.00019215988
-0.00011180109
0.00023868092
-0.00016482744
0.00029362666
-0.00016509634
0.00034343969
-0.00013179771
0.00038881066
-8.4192836e-05
0.00043129603
-3.6503401e-05
0.00047147953
-1.1923145e-06
0.00049915303
6.0431019e-06
0.0005212934
2.069454e-06
0.00054794594
-0.0021327316
0.00051539826
-0.00056836292
0.0004761374
0.0011630455
2.870507e-06
0.00108891
-0.00036684226
-9.1644855e-05
-0.00021280846
-0.00079410667
0.00012835238
-0.00081198403
0.00035742213
-0.00018495109
0.00032584673
0.00013721502
0.00018990156
4.1039535e-05
0.00015166835
-0.00012206719
0.00020239771
-0.00019383251
0.00026766003
-0.00019433085
0.00032284056
-0.00015650984
0.0003681376
-0.00010393535
0.00040854388
-5.1353767e-05
0.00044613935
-7.5648206e-06
0.00047784496
8.5267551e-06
0.00049666217
3.5334633e-06
0.00051981999
-1.6449432e-06
0.00054958662
-0.0027787809
0.0007140051
-0.00062792544
0.00057494334
0.0016822427
-4.3074495e-05
0.00164006
-0.00054827701
-9.6621162e-05
-0.00036185174
-0.0011639824
0.00015709113
-0.0011344484
0.0004508314
-0.00022991746
0.00040239493
0.00027127166
0.00019178276
0.00012946505
0.0001014637
-0.00012673739
0.00015632493
-0.00022947404
0.00023802978
-0.00023092467
0.00030425092
-0.00018474521
0.00035107886
-0.00012453877
0.00038874698
-6.6506238e-05
0.00042370037
-1.7493477e-05
0.00045606631
9.5742888e-06
0.00047678876
5.0229385e-06
0.00049516033
-3.1939358e-06
0.00052135282
-5.5501575e-06
0.00055512877
-0.003377912
0.00068386792
-0.00064412564
0.00073018696
0.0023046092
-4.7442358e-05
0.0023977464
-0.00080075874
-8.8930778e-05
-0.00055595419
-0.0017316076
0.00020579997
-0.0015931532
0.00061581544
-0.00027224038
0.000493167
0.00050190653
0.00017176258
0.00028319213
3.8055228e-05
-0.00011962466
9.4353392e-05
-0.00027239836
0.0001992581
-0.00027995485
0.0002870775
-0.00021970926
0.00033923924
-0.0001461192
0.00037268708
-8.0898169e-05
0.00040316374
-2.7514517e-05
0.0004337367
7.4710706e-06
0.00045817161
6.2434826e-06
0.00047555781
-5.8231184e-06
0.00049777336
-1.0171096e-05
0.00052595328
-8.1312104e-06
0.0005632498
-0.0042726567
0.00099183389
-0.00077955775
0.00081928196
0.0031623738
-0.00012759961
0.0034212303
-0.0010709243
-9.4108792e-05
-0.00079556835
-0.0025365512
0.00024901568
-0.0022406427
0.00085331117
-0.00030384634
0.00064743535
0.00083911222
0.00015596921
0.00053330784
-7.8347102e-05
-7.335804e-05
-8.1981902e-06
-0.00032022714
0.00014220403
-0.00035032227
0.00026965815
-0.00026761817
0.00033502673
-0.00016956353
0.00036272896
-9.2929428e-05
0.00038476291
-3.5512343e-05
0.00041119818
3.8868977e-06
0.00043734222
5.6390404e-06
0.00045877933
-8.8063913e-06
0.00047852871
-1.6846737e-05
0.00050443083
-1.5011936e-05
0.00053281152
-8.7765843e-06
0.00057201592
-0.0051873365
0.0011768343
-0.00083867901
0.0010509379
0.0040573363
-7.5703819e-05
0.0047933791
-0.0014997475
-8.2820602e-05
-0.0010822012
-0.0036607971
0.00032869979
-0.003171741
0.0011801346
-0.00031574274
0.0008652169
0.0013527905
0.00013376365
0.00092911902
-0.0002398373
9.1911707e-07
-0.00015260923
-0.00038044755
5.2047685e-05
-0.00045806809
0.00024998709
-0.00034063075
0.0003427157
-0.00019739518
0.00036290872
-0.00010024913
0.00037010073
-3.9067172e-05
0.00038836678
1.0083058e-06
0.00041411562
3.4845858e-06
0.00043951788
-1.2946241e-05
0.00046292083
-2.4776948e-05
0.00048644433
-2.37206e-05
0.00051312069
-1.7082261e-05
0.00054109454
-7.5323171e-06
0.00057953872
-0.0064698736
0.0014353603
-0.00078258728
0.0011207262
0.005397096
-0.000288845
0.0065230445
-0.0018053707
-0.00017880606
-0.0014037517
-0.0051085864
0.00036560399
-0.0044439858
0.0016009618
-0.00029953846
0.0011639319
0.0021051936
0.00011281458
0.0015216888
-0.00045880776
0.00011177802
-0.00035068701
-0.00050140295
-3.1632978e-05
-0.00063789176
0.00023190277
-0.00045941646
0.00036881049
-0.00023502367
0.00038038464
-9.9383096e-05
0.00036208463
-3.3736625e-05
0.00036481317
1.9395443e-06
0.00038747654
4.7293532e-07
0.00041715956
-1.9730926e-05
0.00044631862
-3.3290506e-05
0.00047143248
-3.5043634e-05
0.00049775053
-2.5963682e-05
0.00052198392
-1.6216596e-05
0.00054975691
-4.63767e-06
0.00058416876
-0.0075200346
0.0012855892
-0.00078123605
0.0014339933
0.0069674868
-0.0004496868
0.0085734315
-0.0023392369
-0.0003098804
-0.0016742872
-0.0070294208
0.0005170911
-0.0062210788
0.00214271
-0.00023523206
0.0015366504
0.0031762513
9.2868719e-05
0.0023775124
-0.00074301618
0.00028564759
-0.00063267603
-0.00075032197
-0.00010175415
-0.00090281203
0.00023330781
-0.00065673971
0.00042925008
-0.00029145527
0.00042526355
-8.4702162e-05
0.0003657224
-1.1982212e-05
0.00034034914
1.1242386e-05
0.00035553286
-2.2272929e-06
0.00039020173
-2.9218274e-05
0.00042666779
-4.4800883e-05
0.00045783727
-4.7492486e-05
0.00048387497
-3.7970637e-05
0.00050973847
-2.4820449e-05
0.00053057067
-1.172626e-05
0.00055682439
-2.8569068e-07
0.00058444885
-0.008948438
0.0021743483
-0.0011503752
0.0016547127
0.0089707358
-0.00056927652
0.010997475
-0.0028737397
-0.00081073573
-0.0018383739
-0.0092660949
0.00056238864
-0.0085323646
0.0028283857
-0.00012057418
0.0020280444
0.0046453487
6.7543399e-05
0.003583605
-0.0011132308
0.00055345892
-0.0010108306
-0.001139296
-0.00024369162
-0.0012806094
0.00027605495
-0.00095186507
0.00052844485
-0.00037703119
0.00051482868
-4.7718876e-05
0.00038827321
3.9294216e-05
0.00031443347
3.5783906e-05
0.00031579752
-2.5317199e-06
0.00035583603
-4.1486464e-05
0.00040247724
-6.0297595e-05
0.0004421734
-6.2413941e-05
0.00047275925
-5.2732618e-05
0.00049862665
-3.5061321e-05
0.00051995836
-1.9567503e-05
0.00053839611
-3.0370865e-06
0.00055955476
5.12119e-06
0.00057932391
-0.010243178
0.0025813039
-0.00078018594
0.001804143
0.011005945
-0.00038051619
0.01391114
-0.0034829551
-0.0013793639
-0.0023051064
-0.012064335
0.00095986305
-0.011496705
0.0035267336
0.00014185691
0.0025659488
0.0066278886
4.5493823e-05
0.0052270589
-0.0015759114
0.0009522932
-0.0015120671
-0.0016889892
-0.00046112517
-0.0018745277
0.00035023585
-0.0013543444
0.00067853941
-0.00049889495
0.00065030014
2.8464388e-05
0.00043862028
0.0001385396
0.00028899034
8.5279762e-05
0.00026489594
3.511759e-06
0.00030971954
-5.6530487e-05
0.00037086018
-8.0938159e-05
0.00042311215
-8.1552697e-05
0.00046131251
-6.9417527e-05
0.00048943916
-4.8728645e-05
0.00051228111
-2.7040204e-05
0.0005274085
-7.8158635e-06
0.00054316025
8.5104943e-06
0.00055614344
1.0607121e-05
0.0005687143
-0.011331822
0.0026001879
0.00050868435
0.0012924169
0.014237876
-0.0014278058
0.017700265
-0.0041696576
-0.0019302222
-0.002932095
-0.015777041
0.0014075939
-0.014754185
0.004217342
0.00041922609
0.0032493641
0.0091923798
1.4480027e-06
0.0074376075
-0.0021650472
0.0015200435
-0.0021436592
-0.0024432716
-0.00075776876
-0.0027870753
0.00045143386
-0.0019280863
0.00092398073
-0.00065868437
0.00083831775
0.0001559281
0.0005228044
0.00031350592
0.00026360624
0.00017722382
0.00019698757
2.246975e-05
0.00024587966
-7.4442099e-05
0.00032758449
-0.00010853478
0.00039842893
-0.00010676893
0.00044831773
-8.995424e-05
0.00048184652
-6.4829697e-05
0.00050553337
-3.693706e-05
0.00052216478
-1.2840065e-05
0.00053240921
8.5007141e-06
0.00054315663
1.9730849e-05
0.00054699557
1.5022438e-05
0.00055369013
-0.012118158
0.0025211142
0.0021499077
0.00095894695
0.01816036
-0.0026300844
0.021187478
-0.0049150392
-0.0032187221
-0.0028811596
-0.020250061
0.0015409194
-0.018638245
0.0052916513
0.00076348729
0.0038730886
0.01247901
-3.7272363e-05
0.010329713
-0.0028906421
0.0022924843
-0.0029374802
-0.0034468637
-0.0011400513
-0.0041226179
0.00057778691
-0.0027614589
0.0012848061
-0.00087158874
0.0011368748
0.00035681051
0.00063740367
0.000596999
0.00023926639
0.00033715517
0.00010361746
6.4151818e-05
0.00015524338
-9.4788101e-05
0.00026616795
-0.00014643513
0.00036544084
-0.00014104781
0.00043268369
-0.00011635006
0.00047470621
-8.472003e-05
0.00050173721
-5.1019833e-05
0.0005196113
-2.0019978e-05
0.00052933364
5.6472636e-06
0.00053523931
2.5192813e-05
0.0005376828
2.8076605e-05
0.00053391426
1.7936909e-05
0.00053575189
-0.012913107
0.0028923344
0.0040060711
0.00066493239
0.022214
-0.0030947098
0.023834235
-0.0052768637
-0.0051830506
-0.0029507157
-0.024431111
0.0012998885
-0.023421623
0.0063242925
0.0015451331
0.0045100225
0.016566764
-0.00021466509
0.014074797
-0.0037823364
0.0032910429
-0.003889188
-0.0047546694
-0.001629665
-0.0059977139
0.00073505498
-0.0039684835
0.0017848031
-0.0011583444
0.0015715487
0.00068371371
0.00080994106
0.0010226143
0.00021175112
0.00060396224
-2.7584496e-05
0.00014208126
2.5640085e-05
-0.00011727269
0.00017768026
-0.00019982436
0.00031951421
-0.00018922268
0.00041358619
-0.00015181529
0.00046813658
-0.00011007094
0.00050005931
-6.9479918e-05
0.00052020508
-3.1161649e-05
0.00053075342
1.4521885e-06
0.00053352248
2.6523817e-05
0.00053388638
3.8704072e-05
0.0005270457
3.3722478e-05
0.00051809823
1.9479078e-05
0.00051627183
-0.013631353
0.0029996002
0.0058996982
0.0009986877
0.026320003
-0.003441087
0.026033636
-0.0052941333
-0.0076257273
-0.0028341949
-0.029193275
0.0018114512
-0.029023541
0.0069018059
0.002493317
0.0053761348
0.021516722
-0.00043992501
0.018730392
-0.0048702384
0.00453633
-0.0050276057
-0.0064338585
-0.0022099992
-0.0085486662
0.00092129051
-0.0056766436
0.0024431954
-0.0015495305
0.0021759679
0.0011905604
0.0010646712
0.0016652449
0.00016727838
0.0010197601
-0.00020407375
0.0002719734
-0.00015750253
-0.00014100829
4.9352807e-05
-0.00027781984
0.00025565143
-0.00026014083
0.00039041204
-0.00020247059
0.00046423017
-0.00014411052
0.00050217885
-9.260258e-05
0.00052319602
-4.5606778e-05
0.00053466747
-4.9013642e-06
0.00053711481
2.5969817e-05
0.00053407717
4.5321977e-05
0.00052724922
4.7537677e-05
0.00051322421
3.6986828e-05
0.00050055683
1.9819698e-05
0.00049645176
-0.014245173
0.0029693726
0.0078365697
0.0010627062
0.030990489
-0.0036718156
0.027543724
-0.0049511972
-0.010961554
-0.0019583171
-0.036012527
0.0039850643
-0.035507685
0.0082955979
0.0021763854
0.0072187705
0.027284903
-0.00039202459
0.024404565
-0.0061140769
0.0059567833
-0.0062906697
-0.008540064
-0.0029214102
-0.011907925
0.0011492538
-0.0080540858
0.0032987046
-0.0020774866
0.0029711202
0.0019437538
0.0014227446
0.0026235823
0.00010630367
0.0016354689
-0.0004484425
0.00048702862
-0.00041913431
-0.00018525237
-0.00011325323
-0.00039906679
0.00017060273
-0.00037084468
0.00036635572
-0.00028004805
0.00046798808
-0.00019189375
0.00051201737
-0.00012159684
0.00053118825
-6.2913823e-05
0.0005405267
-1.3911993e-05
0.00054370434
2.3401912e-05
0.00053969856
4.8321249e-05
0.00053108679
5.8497052e-05
0.00051627421
5.2950807e-05
0.00049725857
3.7843367e-05
0.00048249695
1.9214056e-05
0.00047723844
-0.014749804
0.0028361045
0.0097399236
0.0010659947
0.03608074
-0.0040275649
0.029175645
-0.0053037607
-0.014524496
-0.0013882662
-0.043199527
0.0052286937
-0.041760936
0.010238324
0.0022030673
0.0082689522
0.034263723
0.00023998208
0.031421795
-0.0074092382
0.0075144018
-0.0076716736
-0.011172054
-0.0036586978
-0.016241681
0.0014123304
-0.011278938
0.0043740753
-0.0027833858
0.0040045653
0.0030176335
0.0018972163
0.0040192215
2.7078751e-05
0.0025281715
-0.00078639858
0.00081440772
-0.00077581085
-0.00023779272
-0.00036656624
-0.00058278612
7.0494483e-05
-0.00054861121
0.00034839294
-0.0003984678
0.00048478955
-0.00025929216
0.00053539475
-0.0001583215
0.00054875365
-8.2713641e-05
0.00055100822
-2.450293e-05
0.00055114629
1.8702976e-05
0.0005484361
4.8789734e-05
0.00053925262
6.5411101e-05
0.0005241899
6.6208045e-05
0.0005030055
5.4934228e-05
0.00048017199
3.6959547e-05
0.0004647134
1.8080668e-05
0.0004591603
-0.01505839
0.0025482772
0.011496458
0.0010795456
0.041399028
-0.0042523143
0.030472324
-0.005324269
-0.017425915
-0.0024023544
-0.050294711
0.005706933
-0.046389441
0.0098572116
0.0055891797
0.0068522468
0.042329774
0.00020293588
0.040556201
-0.0088944165
0.0091617936
-0.0090566164
-0.014410307
-0.0044334453
-0.021662539
0.0017621311
-0.015587045
0.0057204102
-0.0036885536
0.0052792018
0.0045140885
0.0025080945
0.0059867984
-7.037897e-05
0.0037940329
-0.0012387732
0.0012886134
-0.0012605809
-0.00029726884
-0.00071629485
-0.0008656269
-8.3679925e-05
-0.00078416438
0.00030608824
-0.00056650309
0.00051645704
-0.00035402566
0.00057953739
-0.0002041875
0.00058126864
-0.00010467557
0.00057072389
-3.6571502e-05
0.00056309447
1.3113219e-05
0.00055676403
4.8377237e-05
0.0005488836
6.804869e-05
0.0005366417
7.5763293e-05
0.00051465914
6.9493248e-05
0.00048843911
5.4099015e-05
0.00046304367
3.5705516e-05
0.00044704949
1.6680036e-05
0.00044248527
-0.015106375
0.0021423984
0.01305889
0.00098581902
0.046758661
-0.00428011
0.03129025
-0.0050702656
-0.02025578
-0.0024944176
-0.057205828
0.0045087796
-0.050088214
0.0094057242
0.010123024
0.0053233998
0.050551112
-0.0013690578
0.051426668
-0.010667533
0.010964126
-0.010696749
-0.018155158
-0.0053117979
-0.028446994
0.0023509652
-0.021235024
0.0074100818
-0.0048175091
0.0068493241
0.0065428828
0.0032503965
0.0086994003
-0.00020451509
0.0055492389
-0.0018255746
0.0019503913
-0.0019005197
-0.00036845286
-0.0011893583
-0.0012622948
-0.00031957617
-0.0011561476
0.00028834823
-0.00081440038
0.00055402241
-0.00049002289
0.00065247403
-0.00026266259
0.00063801964
-0.00012693744
0.0006035279
-4.4651014e-05
0.00057880195
9.2931087e-06
0.00056692416
4.6253453e-05
0.00055890931
7.1011163e-05
0.00054595403
8.3130398e-05
0.00052930182
8.0547196e-05
0.00050363522
6.917148e-05
0.00047336268
5.1802491e-05
0.00044696518
3.3082115e-05
0.00043060793
1.5165164e-05
0.00042732829
-0.015045534
0.0016716321
0.014398058
0.00080320363
0.051817745
-0.0040732898
0.031738861
-0.0047287451
-0.02286399
-0.0024620693
-0.064405107
0.0047048833
-0.054787467
0.0092080539
0.014615726
0.0049130484
0.058406418
-0.002531873
0.062531193
-0.012473591
0.013026249
-0.01272967
-0.022212161
-0.0066397843
-0.036758357
0.0029995068
-0.028304336
0.0094202472
-0.0060771848
0.0086697174
0.0092418207
0.0041503716
0.012337284
-0.00038748639
0.0079165404
-0.0025718156
0.0028488009
-0.002723954
-0.00045875365
-0.0018101964
-0.0018233544
-0.00062825834
-0.0017383091
0.00026261839
-0.001170207
0.00064418726
-0.00070111454
0.00076513404
-0.00034060034
0.00073042131
-0.00014660742
0.00065768411
-4.4868864e-05
0.00060373175
1.1342349e-05
0.00057674032
4.6923816e-05
0.0005662518
7.2163534e-05
0.00055776856
8.6431812e-05
0.00054267946
8.9232936e-05
0.0005206403
8.127789e-05
0.00049156228
6.6265763e-05
0.00045889746
4.8175047e-05
0.00043189795
3.011027e-05
0.00041562347
1.3752403e-05
0.00041358774
-0.014924361
0.001217074
0.015482777
0.00058688614
0.056245732
-0.0036248097
0.031905393
-0.0042398458
-0.025106903
-0.0024858456
-0.071643352
0.0047761983
-0.059415991
0.0093334372
0.016345466
0.0074783379
0.066860071
-0.0035405777
0.073204286
-0.013204975
0.014709801
-0.014157163
-0.026297791
-0.0086440747
-0.046241011
0.0028428102
-0.036839014
0.011534153
-0.0073644714
0.010707501
0.012789794
0.0051217223
0.017123845
-0.00063618567
0.011026061
-0.0034970197
0.0040254705
-0.0037484677
-0.00057158006
-0.0026111283
-0.002592505
-0.0010410321
-0.0025786616
0.00021210096
-0.0017163619
0.00080878402
-0.00099266238
0.00093574461
-0.00045502363
0.00087956639
-0.00015898269
0.00074279628
-2.8795764e-05
0.00064159935
2.7112309e-05
0.00058794269
5.4644024e-05
0.00056899898
7.4987987e-05
0.00056341526
8.8999112e-05
0.00055520202
9.4361832e-05
0.00053756879
9.0805139e-05
0.00051113145
7.9130737e-05
0.00047873191
6.2284264e-05
0.00044478652
4.4313015e-05
0.00041772769
2.7324834e-05
0.00040201201
1.2584403e-05
0.00040101921
-0.014832354
0.00070972972
0.016356259
0.00034356539
0.059867093
-0.0030345038
0.031887772
-0.0036072104
-0.027003053
-0.0023437078
-0.078798298
0.0046691227
-0.06373967
0.0090999097
0.017873897
0.0078050306
0.073441972
0.00089646448
0.083664418
-0.014000716
0.015710166
-0.014205364
-0.032672817
-0.0077821635
-0.05693293
0.0020477949
-0.047151366
0.013155133
-0.0085012034
0.012670866
0.017376257
0.0061210158
0.023258418
-0.0010128439
0.015020996
-0.0046311372
0.0055237826
-0.0049953321
-0.00071032224
-0.0036097402
-0.0036271616
-0.001576491
-0.0037561331
0.00013641931
-0.0025404065
0.0010361218
-0.0014001799
0.0012162893
-0.00060991642
0.0010906352
-0.00016079638
0.00088138397
1.4411249e-05
0.00069959073
6.806442e-05
0.00060064154
7.7727799e-05
0.00056484187
8.3635586e-05
0.00056032904
9.1602542e-05
0.00056079424
9.7162345e-05
0.00055239251
9.6668399e-05
0.00053171461
8.9171392e-05
0.00050110176
7.5323387e-05
0.00046572625
5.7808762e-05
0.0004312873
4.0592633e-05
0.00040449836
2.5045478e-05
0.00038951234
1.1823934e-05
0.00038921527
0.0002203229
-0.014894871
0.0168442
0.00022176264
0.062617313
-0.0024066854
0.031661743
-0.0028084961
-0.028487529
-0.002122745
-0.0855882
0.0044462159
-0.067843602
0.0087730879
0.019172197
0.0078016304
0.080193497
0.0010535318
0.096509323
-0.011948443
0.014726618
-0.013017191
-0.03993808
-0.0069401249
-0.067479035
0.0027639028
-0.060317343
0.01521375
-0.010308825
0.014962752
0.022900955
0.0071461578
0.030938168
-0.0015587245
0.020000969
-0.005992819
0.007364718
-0.006472085
-0.00087674612
-0.0048289144
-0.0049671779
-0.0022697637
-0.0053730182
4.0365826e-05
-0.0037429998
0.0013389607
-0.0019977356
0.0016336443
-0.0008009084
0.0014072581
-0.00015396427
0.0010838006
0.00010606772
0.0007897377
0.00014915775
0.00061851364
0.00012760585
0.00055077098
0.00010508519
0.00054338762
9.7136398e-05
0.00055478025
9.7764213e-05
0.00056017468
9.8832522e-05
0.000550213
9.5172732e-05
0.00052571496
8.5481119e-05
0.00049094664
7.0495571e-05
0.00045306977
5.3582249e-05
0.00041829079
3.7506546e-05
0.00039208091
2.3621671e-05
0.00037767627
1.1494176e-05
0.00037774519
0.00010129426
0.016963203
-0.00023201504
-0.014981963
0.064275078
-0.001436035
0.031300547
-0.00204551
-0.029587235
-0.001708798
-0.091742954
0.0040320278
-0.071431094
0.0080337436
0.020305491
0.0076398156
0.086860156
0.001134995
0.11008423
-0.012521371
0.017586458
-0.014808305
-0.046793518
-0.0061617771
-0.079214572
0.0047953716
-0.075220762
0.017667301
-0.013280534
0.018185463
0.028774711
0.0090890049
0.040431541
-0.0023472021
0.026042746
-0.0076004814
0.0095330232
-0.0081611363
-0.0010729955
-0.0062758187
-0.0066635172
-0.0031326077
-0.00753818
-0.00010461287
-0.0054422498
0.0017395674
-0.002870541
0.002211732
-0.0010544728
0.0018871741
-0.00010662518
0.0013599043
0.00025589672
0.00093397704
0.00029672964
0.00064219178
0.00022289463
0.00052325649
0.00014972634
0.00050615707
0.00011050555
0.00053003307
9.7615081e-05
0.00055492771
9.6704222e-05
0.0005622909
9.6499029e-05
0.00054887004
9.1539234e-05
0.0005196537
8.0824137e-05
0.0004806121
6.5764846e-05
0.00044091307
5.0051766e-05
0.00040573397
3.5500016e-05
0.00038025039
2.2818009e-05
0.0003663142
1.1495154e-05
0.00036627801
-0.00041462401
0.064790962
-8.5155113e-05
0.016816318
-0.00071529706
-0.015194636
0.031103139
-0.0012386467
-0.030408123
-0.001224628
-0.096920909
0.0034691747
-0.074426875
0.0070278477
0.021306487
0.0070327736
0.093214138
0.0012858595
0.12403057
-0.012811339
0.020036492
-0.01497144
-0.048984329
-0.012617521
-0.093090245
0.007713862
-0.090360297
0.019934884
-0.01736997
0.021756737
0.035149943
0.011810252
0.052279765
-0.0027592055
0.033181722
-0.0094861464
0.011991839
-0.010059301
-0.0013034686
-0.0079306341
-0.0087370664
-0.0042022744
-0.010387747
-0.00028302969
-0.0077948805
0.0022480084
-0.0041136987
0.0029827146
-0.0014026727
0.002559917
1.1893387e-05
0.0017686406
0.00049244249
0.001123357
0.00054379512
0.00068692852
0.00038458849
0.00048053133
0.00023285108
0.00044017706
0.00013929304
0.00047741545
9.9191575e-05
0.00052849053
9.0133797e-05
0.00056151259
9.1861582e-05
0.00056692709
9.2332718e-05
0.00054806374
8.7080056e-05
0.00051339246
7.61667e-05
0.00047019606
6.1932728e-05
0.00042905302
4.7582581e-05
0.00039363434
3.4401587e-05
0.00036871798
2.2725548e-05
0.00035504537
1.186889e-05
0.00035444071
-0.00038190436
0.031070399
0.00060763699
0.064098135
-0.00014866043
0.016249656
-0.0012414224
-0.015359353
-0.030785506
-0.00086126846
-0.10091253
0.0027670077
-0.076675387
0.0057177289
0.022133701
0.0062006646
0.098843509
0.0014034246
0.13806762
-0.012751191
0.022318719
-0.015093598
-0.051378856
-0.012576951
-0.10414551
-0.0015622911
-0.10367072
0.021024276
-0.019339521
0.021904444
0.043546555
0.01336015
0.066903264
-0.002813236
0.042051064
-0.011628523
0.014580078
-0.012074384
-0.0015617145
-0.0098010423
-0.011210821
-0.0054568605
-0.014021963
-0.00056804946
-0.010967897
0.002890022
-0.0058626944
0.0039970193
-0.0018792686
0.0034593411
0.00022334794
0.0023484696
0.00089200469
0.0013690886
0.00091340215
0.00075375551
0.00065494779
0.00041658419
0.000374709
0.00033870499
0.00019309915
0.00038642007
0.00010591079
0.0004707514
7.8951801e-05
0.00053972104
7.9514428e-05
0.00057388996
8.5961096e-05
0.00057331202
8.7881193e-05
0.00054725705
8.2825722e-05
0.00050672804
7.1748024e-05
0.00046035937
5.9451905e-05
0.00041719979
4.6339278e-05
0.00038167378
3.4304367e-05
0.00035719279
2.3401846e-05
0.00034347357
1.2464575e-05
0.00034201094
-0.00035521306
-0.0308122
0.00058859524
0.031089421
0.0016541053
0.062295333
-0.00033782346
0.015346032
-0.0017313135
-0.015390199
-0.10378762
0.0020138384
-0.078264689
0.0043563535
0.022706685
0.0051447789
0.10375936
0.0012848279
0.15150827
-0.012037217
0.024058196
-0.014490699
-0.053898699
-0.012573786
-0.11417057
-0.0025519131
-0.12074384
0.015510819
-0.017271764
0.018956539
0.052783004
0.012668028
0.082996639
-0.0027332073
0.053063121
-0.013825291
0.0172694
-0.014317843
-0.0018643598
-0.011771758
-0.014038333
-0.0069735131
-0.018581636
-0.00089720445
-0.01521184
0.0036759367
-0.0082609552
0.0052882987
-0.0025295063
0.0046473164
0.00056193668
0.0031207858
0.001521706
0.001718807
0.001460761
0.00082174094
0.0010766961
0.00033200855
0.00060790874
0.00018338429
0.00029197275
0.00023984924
0.00012445231
0.00036791553
6.3167267e-05
0.00048658925
5.6953236e-05
0.00056233642
6.9359931e-05
0.00059053507
8.0812103e-05
0.00058040942
8.4255918e-05
0.00054582985
7.9698397e-05
0.00049877406
7.0069814e-05
0.00044971429
5.8461336e-05
0.0004050897
4.6313857e-05
0.00036963561
3.5220085e-05
0.00034542988
2.4407135e-05
0.00033149154
1.320981e-05
0.00032883875
0.00056502527
-0.10470785
0.00021686334
-0.030440468
0.001155144
0.031588362
0.0025461442
0.05941133
-0.00059172714
0.014206419
-0.0022346073
-0.015219747
-0.078987041
0.0027362334
0.023358188
0.0037048876
0.10774058
0.0011635661
0.16371036
-0.010917267
0.025534133
-0.013513187
-0.056026748
-0.012362686
-0.12499386
-0.0017505096
-0.13967057
0.016374827
-0.023170558
0.021409635
0.060467169
0.011272393
0.098269968
-0.0026052861
0.066070406
-0.015740508
0.020045192
-0.016601087
-0.002264537
-0.013917705
-0.017177821
-0.0086322738
-0.024141718
-0.0014134705
-0.020732729
0.0046236924
-0.011540793
0.006955769
-0.0033935418
0.0061523704
0.0010839933
0.0041252951
0.0024564735
0.0021860684
0.0022891787
0.00089041631
0.0016877005
0.00021074413
0.00098092354
-4.1024316e-05
0.00045192193
2.3415756e-05
0.00016047076
0.00020381986
4.2292538e-05
0.00038880638
2.070063e-05
0.00052287988
3.8215807e-05
0.00059353261
6.1949668e-05
0.00060945069
7.7614157e-05
0.00058709153
8.231859e-05
0.00054322146
7.8470524e-05
0.00049037274
6.9813141e-05
0.00043833143
5.8886325e-05
0.00039252606
4.7523584e-05
0.00035729777
3.6697575e-05
0.00033319567
2.5850819e-05
0.00031881036
1.4057686e-05
0.00031482102
0.0010971829
-0.079519158
-0.0008145766
-0.10367639
0.00073092086
-0.030016244
0.0020440181
0.032090468
0.0031826887
0.055636879
-0.00079264899
0.012764434
-0.0026418022
-0.014849969
0.023828329
0.0022661316
0.11062664
0.00081883859
0.17423024
-0.0093563211
0.026447398
-0.01183056
-0.057398476
-0.012141495
-0.13523653
-0.0021200404
-0.15831672
0.016895649
-0.028748156
0.021952442
0.059004896
0.022871917
0.11168698
-0.0021446123
0.080264365
-0.016799275
0.023206553
-0.018901881
-0.002889265
-0.015976392
-0.020572635
-0.010522914
-0.030796538
-0.0019774808
-0.027889412
0.0057431815
-0.015916348
0.008999228
-0.0045089218
0.008071131
0.001858749