/*--------------------------------*- C++ -*----------------------------------*\
| =========                 |                                                 |
| \\      /  F ield         | OpenFOAM: The Open Source CFD Toolbox           |
|  \\    /   O peration     | Version:  5.0                                   |
|   \\  /    A nd           | Web:      www.OpenFOAM.org                      |
|    \\/     M anipulation  |                                                 |
\*---------------------------------------------------------------------------*/
FoamFile
{
    version     2.0;
    format      ascii;
    class       volScalarField;
    location    "340";
    object      nut;
}
// * * * * * * * * * * * * * * * * * * * * * * * * * * * * * * * * * * * * * //

dimensions      [0 2 -1 0 0 0 0];

internalField   nonuniform List<scalar> 
9520
(
1.5191377e-117
1.92901e-109
1.3339798e-117
1.4039422e-102
1.696217e-109
1.1660864e-117
1.8223723e-96
1.2353654e-102
1.4838848e-109
1.0216507e-117
6.7748626e-91
1.6043955e-96
1.0811466e-102
1.3017042e-109
9.0646209e-118
9.4129498e-86
5.9668251e-91
1.4049457e-96
9.4944103e-103
1.1585837e-109
8.20443e-118
5.8337368e-81
8.2911207e-86
5.2292799e-91
1.2355386e-96
8.4743981e-103
1.0542576e-109
7.5750366e-118
1.8170258e-76
5.139009e-81
7.2714958e-86
4.6067434e-91
1.105863e-96
7.7450472e-103
9.7859299e-110
7.0677127e-118
3.0645344e-72
1.6018615e-76
4.5107113e-81
6.4171855e-86
4.1344135e-91
1.0142832e-96
7.214095e-103
9.143849e-110
6.5468094e-118
2.9652679e-68
2.7059189e-72
1.4081634e-76
3.9884425e-81
5.7735665e-86
3.8023588e-91
9.4651049e-97
6.7338923e-103
8.4240189e-110
5.9010578e-118
1.7367398e-64
2.6246573e-68
2.3841754e-72
1.2482911e-76
3.5971941e-81
5.3199285e-86
3.5493719e-91
8.8098164e-97
6.1559607e-103
7.5033619e-110
5.1084429e-118
6.8866624e-61
1.5395475e-64
2.3198073e-68
2.1194862e-72
1.1290051e-76
3.3191078e-81
4.9600831e-86
3.288779e-91
7.9812762e-97
5.4122039e-103
6.4074228e-110
4.2645275e-118
3.4723255e-57
5.9988562e-61
1.3646666e-64
2.0676885e-68
1.9220854e-72
1.0432362e-76
3.0875589e-81
4.5677081e-86
2.9501187e-91
6.9257685e-97
4.5627449e-103
5.309145e-110
3.5306915e-118
2.2929743e-52
2.6119261e-57
5.2585475e-61
1.2169617e-64
1.8785752e-68
1.778486e-72
9.680878e-77
2.8221204e-81
4.0529733e-86
2.5281969e-91
5.7738396e-97
3.7631558e-103
4.4267886e-110
3.0453213e-118
2.9527567e-46
1.2597678e-52
2.0301627e-57
4.6168625e-61
1.104594e-64
1.7401642e-68
1.6468239e-72
8.7800699e-77
2.4747293e-81
3.4318913e-86
2.0889129e-91
4.7553235e-97
3.1714886e-103
3.9155966e-110
2.8807617e-118
4.9460345e-40
1.708505e-46
6.7940781e-53
1.5436227e-57
4.1289488e-61
1.0236009e-64
1.6093686e-68
1.4826758e-72
7.6083679e-77
2.0712396e-81
2.816455e-86
1.7236871e-91
4.0645135e-97
2.8819484e-103
3.8425702e-110
3.0572868e-118
3.865864e-34
3.5748847e-40
8.1606098e-47
2.7777942e-53
1.2060077e-57
3.8023771e-61
9.4710137e-65
1.4400317e-68
1.2702282e-72
6.299033e-77
1.6917974e-81
2.3355659e-86
1.4980801e-91
3.7975661e-97
2.9258645e-103
4.2122211e-110
3.546826e-118
1.1202596e-28
3.4285815e-34
1.8388552e-40
2.0350099e-47
1.0231404e-53
1.0235669e-57
3.5191541e-61
8.4383923e-65
1.2203071e-68
1.0411569e-72
5.1315773e-77
1.4141879e-81
2.067824e-86
1.4381368e-91
3.9729167e-97
3.2874937e-103
4.9462472e-110
4.216236e-118
1.0859269e-23
1.1621851e-28
1.8958149e-34
4.1803541e-41
3.141017e-48
4.9867711e-54
9.1767802e-58
3.1262336e-61
7.0752526e-65
9.9048753e-69
8.4744311e-73
4.3359755e-77
1.2778763e-81
2.0357866e-86
1.5420444e-91
4.539062e-97
3.8686039e-103
5.7918452e-110
4.7660715e-118
3.1920176e-19
1.2577369e-23
6.7943268e-29
4.2210833e-35
5.3898917e-42
6.9300564e-49
3.5238366e-54
8.0266986e-58
2.5898886e-61
5.6806673e-65
8.062272e-69
7.2521543e-73
4.0046508e-77
1.2880582e-81
2.2233615e-86
1.7762774e-91
5.3051807e-97
4.4218017e-103
6.2923325e-110
4.8178688e-118
2.6227535e-15
3.9208482e-19
7.6364261e-24
1.5108023e-29
5.6413288e-36
1.2611002e-42
3.9750073e-49
2.8320065e-54
6.4691297e-58
2.0488819e-61
4.6213833e-65
6.9967432e-69
6.8471008e-73
4.1255262e-77
1.4247235e-81
2.5603025e-86
2.0450237e-91
5.8770559e-97
4.5877036e-103
6.0084437e-110
4.1887125e-118
5.4790761e-12
3.2506148e-15
2.4935716e-19
1.7537873e-24
2.2428688e-30
1.9309296e-36
1.1262791e-42
3.422876e-49
1.9439241e-54
4.9315338e-58
1.6605582e-61
4.0689669e-65
6.7523193e-69
7.187469e-73
4.5990755e-77
1.6275089e-81
2.8813143e-86
2.1835306e-91
5.7987344e-97
4.1262616e-103
4.8931636e-110
3.0870651e-118
2.8501368e-09
6.5881134e-12
2.1326965e-15
6.4028854e-20
3.1316659e-25
1.1782766e-30
2.9279723e-36
1.3932433e-42
1.5756828e-49
1.1295378e-54
3.908969e-58
1.4820381e-61
4.01369e-65
7.2025555e-69
8.0319106e-73
5.1797713e-77
1.7773519e-81
2.9508575e-86
2.0447152e-91
4.9078917e-97
3.1514435e-103
3.3851179e-110
1.9551139e-118
3.6847695e-07
3.3050461e-09
4.5228089e-12
6.3099891e-16
1.5775532e-20
2.4395246e-25
2.7120795e-30
4.7636094e-36
5.9453163e-43
2.799436e-50
7.1381348e-55
3.5066979e-58
1.4946258e-61
4.3427474e-65
8.0304807e-69
8.8688054e-73
5.4592696e-77
1.7369006e-81
2.6195517e-86
1.6312991e-91
3.5261581e-97
2.0601392e-103
2.0472352e-110
1.1214332e-118
1.1042813e-05
4.1114578e-07
2.3523268e-09
1.590404e-12
2.1432115e-16
1.5557508e-20
7.222915e-25
5.1880131e-30
2.086589e-36
5.0189919e-44
3.8919599e-51
5.8162207e-55
3.6123703e-58
1.6400411e-61
4.8143237e-65
8.6505797e-69
8.9845351e-73
5.0719834e-77
1.4586208e-81
1.9761662e-86
1.1093712e-91
2.1980242e-97
1.2074899e-103
1.1673848e-110
6.4887579e-119
6.2854763e-05
1.1863808e-05
3.0559278e-07
9.7849046e-10
7.0892955e-13
2.5202608e-16
4.8929574e-20
1.4773537e-24
2.2856888e-30
1.4670457e-37
1.2312424e-45
1.1423797e-51
5.9329188e-55
4.0270972e-58
1.804825e-61
5.0383578e-65
8.3921227e-69
7.9234289e-73
4.0249711e-77
1.0426955e-81
1.2830698e-86
6.678101e-92
1.2716553e-97
7.0239605e-104
7.1938612e-111
4.4626545e-119
0.00013081906
6.5049004e-05
9.5846066e-06
1.5078299e-07
5.4617789e-10
9.4028681e-13
7.6617629e-16
9.9597418e-20
6.4593426e-25
1.4756494e-31
2.2280751e-39
2.9471597e-47
7.9899038e-52
6.6902491e-55
4.4020665e-58
1.82916e-61
4.6635392e-65
7.015948e-69
5.9525723e-73
2.7341578e-77
6.5185196e-82
7.5810549e-87
3.8971428e-92
7.7665147e-98
4.7654714e-104
5.7141224e-111
4.2887272e-119
0.00018934641
0.00013355423
5.8709395e-05
5.8049517e-06
1.0051637e-07
7.8381211e-10
2.6360485e-12
1.4819025e-15
4.319606e-20
4.0885376e-26
1.9156656e-33
1.9188195e-41
3.1681501e-48
8.3269879e-52
7.2702339e-55
4.3105769e-58
1.6091461e-61
3.6896834e-65
5.0015085e-69
3.8675065e-73
1.6607125e-77
3.8474548e-82
4.5742489e-87
2.5709747e-92
5.9751476e-98
4.4655109e-104
6.6152566e-111
6.0359165e-119
0.00023512897
0.00019104126
0.00012517983
4.5326273e-05
4.4724646e-06
1.4996222e-07
1.9943515e-09
4.7243686e-12
6.4155735e-16
2.8697116e-21
5.7796604e-28
1.5151263e-35
5.8323835e-43
1.9120486e-48
8.8861455e-52
6.8639717e-55
3.5877603e-58
1.2017688e-61
2.5014565e-65
3.1323494e-69
2.312264e-73
9.9638497e-78
2.4642923e-82
3.3449225e-87
2.2871785e-92
6.6509167e-98
6.1486882e-104
1.083837e-110
1.1176466e-118
0.00027269251
0.00023599389
0.0001805755
0.00010776599
3.9623272e-05
6.4536574e-06
3.4129981e-07
3.2397702e-09
2.0648329e-12
4.7353401e-17
5.3402537e-23
7.1701855e-30
8.7434888e-37
3.6148473e-43
2.0766156e-48
7.9969176e-52
5.3726389e-55
2.5196096e-58
7.7605233e-62
1.5228202e-65
1.8710127e-69
1.438301e-73
6.9300417e-78
2.0446413e-82
3.4657099e-87
2.9939822e-92
1.0607544e-97
1.1274501e-103
2.1558694e-110
2.2965272e-118
0.00030433986
0.00027249588
0.00022408375
0.00016192868
0.00010011783
4.9529133e-05
1.1969632e-05
4.9735638e-07
1.4434609e-09
1.7749652e-13
1.2387507e-18
1.1644843e-24
9.8772339e-31
1.6440473e-36
7.2490516e-43
1.6306368e-48
5.7352851e-52
3.5253131e-55
1.5510545e-58
4.6314972e-62
9.2322062e-66
1.2311063e-69
1.1067982e-73
6.6114966e-78
2.4672424e-82
5.2108398e-87
5.3369387e-92
2.0911879e-97
2.3151114e-103
4.416706e-110
4.560785e-118
0.00033083383
0.00030270203
0.00025936371
0.00020467152
0.00015482808
0.00011411925
6.8195743e-05
1.5083883e-05
2.3186325e-07
1.5097256e-10
6.7681193e-15
5.0311443e-20
3.552534e-25
3.8267926e-30
5.4314025e-36
4.9393083e-43
7.4556987e-49
3.4330837e-52
2.0660637e-55
9.1541024e-59
2.8957411e-62
6.5474645e-66
1.062788e-69
1.2151198e-73
9.1929789e-78
4.1490685e-82
9.986734e-87
1.0895803e-91
4.2921692e-97
4.6030153e-103
8.3269803e-110
8.0628989e-118
0.00035145382
0.00032745847
0.00028884011
0.00023947069
0.00019843274
0.00017115783
0.00013748065
7.5119193e-05
8.3433893e-06
3.0856833e-08
8.6031897e-12
5.3378973e-16
3.1320541e-20
2.0273732e-24
1.5253014e-29
3.9210264e-36
5.4599716e-44
2.8549299e-49
1.8978191e-52
1.2154421e-55
5.9957445e-59
2.2498421e-62
6.3909501e-66
1.332402e-69
1.9021021e-73
1.6835689e-77
8.2663711e-82
2.0436646e-86
2.1790055e-91
8.1229028e-97
8.1145937e-103
1.359067e-109
1.2177094e-117
0.00036657749
0.00034658562
0.00031273291
0.00026924609
0.00023365988
0.00021597971
0.00019676134
0.00014498694
5.5018959e-05
1.6403929e-06
2.7004291e-09
1.3366552e-12
6.0116582e-16
2.1184632e-19
8.5931293e-24
1.1557767e-29
2.9603574e-37
1.7604103e-45
1.2824018e-49
1.1188972e-52
8.4628825e-56
5.1682189e-59
2.4874567e-62
9.0230951e-66
2.2856199e-69
3.6764645e-73
3.4035081e-77
1.6528216e-81
3.9028875e-86
3.8703766e-91
1.325402e-96
1.2130183e-102
1.8656197e-109
1.5428034e-117
0.00037694041
0.00036044688
0.00033143807
0.00029384324
0.00026384829
0.00025121666
0.00024153997
0.00020281388
0.00011935933
2.1158763e-05
2.3088669e-07
7.994324e-10
2.3907883e-12
4.1827528e-15
8.8620958e-19
6.682394e-24
8.9041442e-31
2.232113e-39
1.1680813e-46
7.394098e-50
8.3837773e-53
8.1626489e-56
6.4449876e-59
3.8848656e-62
1.6517494e-65
4.5323574e-69
7.3646985e-73
6.551729e-77
2.9692462e-81
6.4387896e-86
5.8044888e-91
1.8054773e-96
1.5071211e-102
2.128274e-109
1.6289887e-117
0.00038272747
0.00036981945
0.0003452698
0.00031364981
0.00028910896
0.00028045614
0.00027522325
0.00024539188
0.00017350968
7.1033216e-05
5.6521986e-06
1.1907812e-07
1.9750074e-09
1.5584816e-11
1.6375861e-14
6.9638774e-19
5.554826e-25
6.3646053e-33
4.7798849e-42
3.9786518e-47
5.9982807e-50
9.0837803e-53
1.1381332e-55
1.0914937e-58
7.404502e-62
3.2823357e-65
8.8272635e-69
1.3458549e-72
1.0965391e-76
4.5124993e-81
8.8362828e-86
7.1809888e-91
2.0250504e-96
1.5443503e-102
2.0102026e-109
1.4319434e-117
0.00038459298
0.00037513528
0.00035503926
0.00032903878
0.00030974496
0.00030448573
0.00030194726
0.00027697991
0.00021473351
0.00012214221
3.5858437e-05
4.4522577e-06
3.5034636e-07
1.1331521e-08
5.4679077e-11
1.2862261e-14
6.4301085e-20
4.6698845e-27
9.1594386e-36
6.1401099e-44
3.228768e-47
7.2825796e-50
1.4003794e-52
2.0497885e-55
2.1194538e-58
1.4466418e-61
6.1230429e-65
1.5149748e-68
2.0844115e-72
1.5223522e-76
5.6294372e-81
9.913765e-86
7.2586613e-91
1.8610151e-96
1.3027502e-102
1.5724472e-109
1.0498212e-117
0.00038389867
0.0003773098
0.00036130929
0.00034076293
0.00032616272
0.0003238669
0.00032315865
0.00030166707
0.00024619923
0.00016384102
8.4083849e-05
3.5964778e-05
1.2119064e-05
1.6376367e-06
3.4346822e-08
4.2509757e-11
1.3542392e-15
6.8946727e-22
1.0221424e-29
1.1418822e-38
1.6319885e-44
4.310083e-47
1.2277843e-49
2.6369556e-52
3.9828466e-55
4.0079284e-58
2.5550905e-61
9.7982756e-65
2.1621209e-68
2.6406993e-72
1.7163249e-76
5.6933318e-81
9.0250194e-86
5.9767691e-91
1.4004473e-96
9.0559668e-103
1.0210653e-109
6.4413086e-118
0.00038129096
0.00037731705
0.00036514287
0.00034930916
0.00033914768
0.00033902925
0.00033967947
0.0003210025
0.00027259163
0.00019677149
0.0001281312
8.9954544e-05
6.7089347e-05
3.3712831e-05
3.9731524e-06
2.6309087e-08
5.224085e-12
1.9796988e-17
2.4469517e-24
1.4155417e-32
5.7270966e-41
1.988493e-44
7.8804896e-47
2.3874995e-49
5.0559679e-52
7.200331e-55
6.6382614e-58
3.7919643e-61
1.2842292e-64
2.4961025e-68
2.6925231e-72
1.5572142e-76
4.6460696e-81
6.6532952e-86
4.0093922e-91
8.6428705e-97
5.2015828e-103
5.5244706e-110
3.3229439e-118
0.00037674566
0.00037585309
0.00036779302
0.00035565721
0.00034898682
0.00035087352
0.00035202846
0.00033576065
0.0002937363
0.00022674299
0.00016381053
0.00013858643
0.00013284451
0.00011021143
5.2930639e-05
3.0684688e-06
3.8634615e-09
1.0816778e-13
1.0998601e-19
5.179948e-27
1.6034922e-35
1.080472e-41
3.8689366e-44
1.5727841e-46
4.4714827e-49
8.654871e-52
1.1097025e-54
9.1005957e-58
4.5527852e-61
1.3491282e-64
2.3021004e-68
2.1945892e-72
1.1334745e-76
3.0563195e-81
3.9748663e-86
2.1954725e-91
4.3874326e-97
2.4786073e-103
2.5029686e-110
1.4499241e-118
0.00037377353
0.00037401289
0.00036991903
0.00036095549
0.00035619262
0.00035947331
0.0003609968
0.00034639381
0.00031066727
0.00025221866
0.00019448962
0.00017754363
0.00018645839
0.0001817678
0.00013532001
4.5194059e-05
5.8662086e-07
1.1560392e-10
9.106084e-16
3.5526736e-22
7.5527444e-30
8.9089116e-38
1.7887583e-41
7.955386e-44
2.8610503e-46
7.1880103e-49
1.2323495e-51
1.3983592e-54
9.9907023e-58
4.3472086e-61
1.1249528e-64
1.6873294e-68
1.4267185e-72
6.6183042e-77
1.6224471e-81
1.9291593e-86
9.8460355e-92
1.8401393e-97
9.8532898e-104
9.5604673e-111
5.3934083e-119
0.00037164554
0.00037479995
0.00037529131
0.00036525359
0.00036163137
0.00036526217
0.0003666892
0.00035356477
0.00032373139
0.00027375339
0.00022135893
0.00020800085
0.0002269214
0.00023751433
0.00020652413
0.00012276419
1.6319354e-05
2.602834e-08
1.4358781e-12
4.4124826e-18
8.7977693e-25
3.7406766e-32
7.6359569e-38
4.2304164e-41
1.4084681e-43
4.2863629e-46
9.382319e-49
1.4165071e-51
1.4015275e-54
8.6633156e-58
3.2755679e-61
7.4151738e-65
9.8129156e-69
7.4002718e-73
3.105611e-77
6.9694907e-82
7.6386775e-87
3.6355963e-92
6.4199885e-98
3.2952894e-104
3.1094888e-111
1.7299455e-119
0.00036870192
0.00037597842
0.00037552888
0.00037583417
0.00036516854
0.00036889819
0.0003696923
0.00035766264
0.0003335405
0.00029185102
0.00024452612
0.00023323309
0.00025696327
0.00027674459
0.00026040525
0.00018990915
7.3823903e-05
1.3842338e-06
4.6712435e-10
1.0495374e-14
2.1476223e-20
1.7594562e-26
7.8939875e-32
6.3867471e-37
8.1065953e-41
1.948966e-43
5.079224e-46
9.7605779e-49
1.2942901e-51
1.1028377e-54
5.89671e-58
1.9414256e-61
3.8597783e-65
4.5312408e-69
3.0698893e-73
1.1757887e-77
2.4355541e-82
2.4859863e-87
1.1156187e-92
1.885325e-98
9.4056305e-105
8.757615e-112
4.8762084e-120
0.00036665343
0.00037269388
0.00037827489
0.00037481963
0.00037518855
0.00037030175
0.00037042335
0.00035935369
0.00034063277
0.00030695453
0.00026445722
0.00025460288
0.00027897327
0.0003028552
0.00029500778
0.00023952969
0.00013456784
1.7049511e-05
3.7238514e-08
5.3876246e-12
1.2424462e-16
2.3352165e-21
1.1450311e-25
1.7892924e-30
2.7795746e-36
9.8388097e-41
2.0571225e-43
4.7361848e-46
8.0862994e-49
9.2338904e-52
6.7787471e-55
3.1427483e-58
9.0472538e-62
1.5886886e-65
1.6667831e-69
1.0242815e-73
3.6208146e-78
7.0006041e-83
6.7483289e-88
2.8995984e-93
4.7725284e-99
2.3576063e-105
2.2071563e-112
1.2522622e-120
0.00036938741
0.00036652346
0.00037574203
0.00037828702
0.00037267009
0.00037251351
0.0003691065
0.00035918747
0.00034572245
0.00031939535
0.00028156278
0.00027263773
0.00029679723
0.00032088692
0.0003163102
0.00027236408
0.00018179437
5.7529156e-05
8.8655492e-07
7.5172004e-10
2.0104652e-13
6.8209985e-17
2.8877006e-20
2.7328e-24
1.1123443e-29
2.4922922e-36
7.7006653e-41
1.6837638e-43
3.5148066e-46
5.2241885e-49
5.1231065e-52
3.249223e-55
1.3120004e-58
3.3231965e-62
5.1971519e-66
4.9262266e-70
2.7854938e-74
9.2397372e-79
1.6980791e-83
1.5799664e-88
6.668158e-94
1.0987503e-99
5.5258499e-106
5.3387254e-113
3.1562069e-121
0.00036584746
0.00036569006
0.00036722008
0.00037716695
0.00037623847
0.00036849657
0.00036632146
0.000357698
0.00034956382
0.00032974485
0.00029617298
0.00028782422
0.00031102022
0.00033458677
0.00033133288
0.00029479684
0.0002165582
0.00010017397
7.6177025e-06
3.6633102e-08
1.0342693e-10
4.0361179e-13
1.0937193e-15
6.0096095e-19
1.6102842e-23
9.495284e-30
4.0769446e-37
4.781925e-41
1.0995134e-43
2.0497059e-46
2.6141992e-49
2.208811e-52
1.2164677e-55
4.3098201e-59
9.704431e-63
1.3708023e-66
1.1965811e-70
6.3860772e-75
2.0483173e-79
3.7073776e-84
3.4694555e-89
1.5059341e-94
2.6021758e-100
1.3905233e-106
1.4359417e-113
9.0649595e-122
0.00035556909
0.00036072217
0.00036198819
0.00036764995
0.00037651892
0.00037198082
0.00036078682
0.00035582058
0.00035257547
0.00033878858
0.00030868682
0.00030049277
0.000322361
0.00034411691
0.00034137953
0.00031093919
0.00024654804
0.00013519262
2.7971912e-05
7.5903925e-07
1.6917405e-08
4.7860369e-10
6.5512525e-12
1.8528802e-14
3.1501544e-18
1.3974919e-23
8.2082873e-31
3.1616352e-38
2.5932304e-41
5.7305405e-44
9.2382763e-47
1.0139767e-49
7.4286269e-53
3.586751e-56
1.1308493e-59
2.3104794e-63
3.0348587e-67
2.5403593e-71
1.3494156e-75
4.4554878e-80
8.5435477e-85
8.6967775e-90
4.1991686e-95
8.1557335e-101
4.8855084e-107
5.5774625e-114
3.8081624e-122
0.00035549335
0.00035249485
0.00035438387
0.00035816344
0.00036678205
0.00037351969
0.00036422682
0.00034904366
0.00034069882
0.00034657833
0.00031953697
0.0003109751
0.00033100706
0.00035080588
0.0003470455
0.00032176091
0.00026984639
0.00017343413
5.7582516e-05
6.8115525e-06
8.4419179e-07
1.1679849e-07
6.74865e-09
8.6004809e-11
8.4018423e-14
2.7329948e-18
1.3836826e-24
6.6808286e-33
5.6394158e-39
1.1808975e-41
2.3182512e-44
3.2236596e-47
3.0714617e-50
1.9779669e-53
8.5528498e-57
2.4789136e-60
4.8218449e-64
6.3053187e-68
5.5465031e-72
3.2779719e-76
1.2575861e-80
2.8894531e-85
3.5800129e-90
2.09996e-95
4.8528929e-101
3.3432689e-107
4.2139364e-114
3.0435232e-122
0.00035416804
0.00035621952
0.0003479862
0.00034754794
0.00035347048
0.00036393087
0.00036738071
0.00035249799
0.00033306117
0.00032016864
0.00032912165
0.00031956816
0.00033734382
0.00035456027
0.00034938568
0.00032787603
0.00028769209
0.00020558393
9.4910149e-05
2.7163005e-05
1.1548346e-05
5.7738424e-06
1.2641351e-06
6.5682066e-08
3.2899447e-10
7.1874803e-14
3.2244836e-19
1.3155987e-26
1.5740431e-35
1.9017948e-39
4.2449676e-42
7.2760039e-45
8.8303709e-48
7.4585932e-51
4.3689979e-54
1.7856473e-57
5.1606188e-61
1.0723482e-64
1.621845e-68
1.7847158e-72
1.3946651e-76
7.1940669e-81
2.1963508e-85
3.4946821e-90
2.5080811e-95
6.7180794e-101
5.0901693e-107
6.7285117e-114
4.885418e-122
0.00033758708
0.00035922079
0.00035503059
0.00034203138
0.0003396245
0.00034732664
0.00035842039
0.00035741261
0.0003367182
0.00031207077
0.00029407066
0.00032636808
0.00034169828
0.00035603884
0.00034880464
0.00033025541
0.00030073995
0.00023319549
0.0001302915
5.7329543e-05
4.6874762e-05
4.6428309e-05
3.1501675e-05
7.7053649e-06
2.0552099e-07
2.7533794e-10
1.0050174e-14
4.6044217e-21
1.2704316e-29
4.2581693e-37
5.876721e-40
1.1958392e-42
1.8135171e-45
1.9868824e-48
1.5742651e-51
9.1792748e-55
4.0557462e-58
1.4021974e-61
3.867239e-65
8.4123895e-69
1.3757979e-72
1.5574563e-76
1.0934425e-80
4.2186131e-85
7.9205083e-90
6.320981e-95
1.7946589e-100
1.388278e-106
1.8186199e-113
1.2760712e-121
0.0003316367
0.00034461451
0.00036202216
0.00035181548
0.00033420088
0.00033009525
0.00033907745
0.00034953609
0.00034343886
0.00031605533
0.00028588439
0.00026238401
0.00034405908
0.00035534929
0.00034591979
0.00032977101
0.00030980461
0.00025666035
0.00016248908
9.0325659e-05
8.4198002e-05
0.0001080233
0.00010893683
7.5970397e-05
1.6643791e-05
1.6814161e-07
4.582048e-11
2.1407277e-16
8.2017646e-24
8.446263e-33
6.8790184e-38
1.4734258e-40
2.736938e-43
3.8754969e-46
4.2065513e-49
3.6174977e-52
2.5806279e-55
1.5856026e-58
8.428181e-62
3.7112931e-65
1.2461828e-68
2.8921706e-72
4.1970511e-76
3.4578961e-80
1.4617137e-84
2.8696373e-89
2.3182187e-94
6.5166875e-100
4.9146872e-106
6.2041668e-113
4.152471e-121
0.00034453115
0.00033549082
0.00034999368
0.00036267279
0.00034647943
0.00032455403
0.00031844594
0.00032825979
0.00033685578
0.00032470049
0.000290269
0.00025449208
0.00022558694
0.00035256112
0.00034093752
0.00032724337
0.00031585663
0.00027618838
0.00019172915
0.00012125271
0.00011681651
0.00015593303
0.00017988284
0.00016543054
0.00010178012
1.4012622e-05
3.3985052e-08
1.4516902e-12
7.4027553e-19
5.7989485e-27
3.1036729e-35
1.4211878e-38
3.1324875e-41
5.765093e-44
8.8362159e-47
1.183735e-49
1.4596632e-52
1.6853591e-55
1.7500473e-58
1.5004788e-61
9.5870829e-65
4.1447963e-68
1.1175116e-71
1.7479728e-75
1.4763874e-79
6.2048255e-84
1.1906675e-88
9.3103771e-94
2.5196476e-99
1.8239059e-105
2.2054225e-112
1.3344284e-129
0.00034757956
0.00034299393
0.00033800633
0.00035369737
0.000361163
0.00033915173
0.00031269077
0.00030442505
0.00031426554
0.0003197222
0.00030082567
0.00025950612
0.00021819766
0.00018098534
0.00033408244
0.00032321243
0.00031992075
0.00029221855
0.00021826778
0.00014938252
0.00014509834
0.00018910888
0.00023385186
0.00023660205
0.00019254555
9.342065e-05
4.2134644e-06
1.6211555e-09
9.4462861e-15
1.027967e-21
2.9187543e-30
1.4606327e-36
2.8234152e-39
6.8512566e-42
1.5560411e-44
3.4690217e-47
7.8057488e-50
1.710339e-52
3.3211843e-55
5.1083138e-58
5.6457191e-61
4.1483016e-64
1.9050627e-67
5.1895178e-71
7.9707821e-75
6.4845826e-79
2.6075936e-83
4.7780237e-88
3.5689497e-93
9.2413899e-99
6.4141483e-105
9.4271524e-121
2.3866524e-139
0.00032544457
0.00034013809
0.00033944262
0.00033950571
0.00035562992
0.00035751903
0.00032947539
0.00029816719
0.00028763947
0.00029634804
0.00029774195
0.00027172504
0.00022322632
0.00017392109
0.00012521937
0.00031803641
0.00032276875
0.00030567229
0.00024218943
0.00017514013
0.00016971032
0.0002163159
0.00026743972
0.00028682071
0.0002601965
0.00018199794
5.5080492e-05
3.3870362e-07
1.9484451e-11
2.5609627e-17
7.6997835e-25
2.6718693e-33
2.1639847e-37
6.8439626e-40
2.4425792e-42
9.57735e-45
3.9781579e-47
1.5809476e-49
5.2963557e-52
1.338916e-54
2.3580384e-57
2.7389311e-60
2.0084983e-63
8.9454025e-67
2.3290174e-70
3.3955917e-74
2.611463e-78
9.9509891e-83
1.7340164e-87
1.2368203e-92
3.0711201e-98
4.0102731e-113
1.9708388e-130
2.4533635e-150
0.00031197836
0.00031505189
0.00033032699
0.00033453354
0.00034012657
0.00035552097
0.00035153539
0.0003170763
0.00028068995
0.00026750295
0.00027399514
0.00027048031
0.00023614467
0.0001784035
0.0001181528
5.9105359e-05
0.0003249069
0.00031765052
0.00026376734
0.00019896222
0.00019162215
0.00023887556
0.00029402789
0.00031902394
0.00030309639
0.00024819899
0.00013774725
1.2715946e-05
7.486904e-09
9.9251367e-14
3.5420605e-20
3.4758314e-28
2.9521721e-35
6.0581365e-38
3.5718103e-40
2.5144742e-42
1.8559266e-44
1.2379468e-46
6.5708213e-49
2.536193e-51
6.7060518e-54
1.1685e-56
1.3036802e-59
9.0511818e-63
3.7953726e-66
9.2986588e-70
1.2753946e-73
9.2532805e-78
3.3443052e-82
5.5581057e-87
3.8016652e-92
2.9345331e-106
1.1991829e-122
1.6881256e-141
1.5232601e-162
0.00032617652
0.00030469937
0.0003030205
0.00031897053
0.00032922507
0.00033938351
0.0003531426
0.00034272023
0.00030174716
0.00025966634
0.00024318241
0.00024647195
0.00023649044
0.00019130672
0.00012129883
5.3944742e-05
9.8952423e-06
0.00032921733
0.00028331508
0.00022112661
0.00021142222
0.00025822744
0.00031521318
0.00034355626
0.00033153534
0.00028787122
0.00020599248
7.0389828e-05
6.3812643e-07
6.9062932e-11
2.4709942e-16
2.5606147e-23
1.7292377e-31
5.3699441e-36
4.9379385e-38
6.0984376e-40
7.4615177e-42
7.7027408e-44
6.035207e-46
3.3616908e-48
1.2775553e-50
3.2190206e-53
5.2663089e-56
5.4860841e-59
3.554839e-62
1.3947878e-65
3.2117971e-69
4.144024e-73
2.8465104e-77
9.8035626e-82
1.562391e-86
5.6630631e-100
1.3883745e-115
1.1926305e-133
6.6598715e-154
6.9310638e-176
0.00033968906
0.00032587531
0.00029597287
0.00028955474
0.00030730491
0.00032235034
0.00033659488
0.00034790487
0.00033107247
0.00028271041
0.00023451069
0.000214234
0.00021328297
0.00019327182
0.00013302494
5.6442792e-05
8.2364351e-06
3.279659e-07
0.00030172225
0.00024182641
0.0002293864
0.00027488197
0.0003330862
0.00036199014
0.00035129534
0.00031416105
0.00025304165
0.00013783805
1.2468601e-05
1.0540068e-08
2.9783591e-13
3.083217e-19
1.0629366e-26
1.2053692e-33
6.3884078e-36
1.3028099e-37
2.4491674e-39
3.6532803e-41
4.0045269e-43
3.0882374e-45
1.6298952e-47
5.7694015e-50
1.3460122e-52
2.0387066e-55
1.971404e-58
1.1909025e-61
4.3798841e-65
9.4982678e-69
1.1584988e-72
7.5771866e-77
2.5022021e-81
3.663464e-94
4.4325439e-109
2.0292185e-126
3.5860346e-146
2.1409313e-167
3.8714105e-190
0.00031881808
0.00034771769
0.00032350602
0.00028582421
0.00027470998
0.00029336307
0.00031357738
0.00033106472
0.00033957382
0.00031564542
0.0002593914
0.00020473336
0.00018042837
0.00017134843
0.00013647992
6.5443119e-05
8.9503877e-06
2.4598593e-07
2.6573519e-09
0.00026115806
0.00024567119
0.00028881555
0.00034784898
0.00037666676
0.00036431316
0.00032990932
0.000283893
0.00019843139
5.5915591e-05
4.3781572e-07
7.6140764e-11
6.2275771e-16
1.9958476e-22
5.5002014e-30
8.0700941e-34
2.3424904e-35
6.3309929e-37
1.2941612e-38
1.9062267e-40
1.9713644e-42
1.4058857e-44
6.812467e-47
2.2128135e-49
4.7515712e-52
6.6548541e-55
5.9828246e-58
3.3807218e-61
1.1709095e-64
2.4005267e-68
2.785498e-72
1.7464433e-76
9.282016e-89
4.8355308e-103
1.0745282e-119
6.593519e-139
6.7107734e-160
1.0611089e-181
4.1412034e-205
0.00027906092
0.00033387018
0.00035266226
0.00031917747
0.00027403673
0.00025822291
0.00027739139
0.00030206665
0.00032215993
0.00032734597
0.00029571155
0.00023043951
0.00016933035
0.00013835531
0.00011714215
6.8290942e-05
1.1919107e-05
2.6679692e-07
1.7659887e-09
5.5102379e-12
0.00026021293
0.00029991419
0.00035894155
0.00038782906
0.00037223783
0.00033736808
0.00030125566
0.00024195431
0.00012146244
5.8458413e-06
5.1810453e-09
2.5779431e-13
6.5373765e-19
8.1210682e-26
1.5867505e-31
3.4444542e-33
1.2655926e-34
3.4073627e-36
6.5354625e-38
8.8277624e-40
8.3080217e-42
5.3875532e-44
2.3803479e-46
7.0832923e-49
1.4018176e-51
1.8210765e-54
1.5285731e-57
8.1211732e-61
2.6638929e-64
5.1903236e-68
5.7708462e-72
1.0272506e-83
2.0826774e-97
2.0545935e-113
4.9497465e-132
8.2357131e-153
2.1975977e-174
1.1568489e-196
1.1820299e-220
0.00027312053
0.00029543917
0.00034594629
0.00035478485
0.00031271386
0.00026054862
0.00023980414
0.00025858602
0.000287088
0.00030912067
0.00031041482
0.00026963674
0.0001943005
0.00012534027
8.5543463e-05
5.288365e-05
1.3049626e-05
3.9348316e-07
1.8432326e-09
3.1557229e-12
2.9256423e-15
0.00030780332
0.00036553383
0.00039467848
0.00037531968
0.00033813477
0.00030865792
0.00027093592
0.00017836436
4.0518777e-05
1.2149864e-07
2.7368713e-11
4.2721777e-16
3.740528e-22
1.274835e-28
4.2153905e-31
1.9497271e-32
6.7011211e-34
1.6309497e-35
2.8108345e-37
3.4156192e-39
2.902211e-41
1.7073906e-43
6.8835138e-46
1.881507e-48
3.4452921e-51
4.171567e-54
3.2873627e-57
1.6522681e-60
5.1590476e-64
9.625062e-68
5.3841488e-79
3.9295967e-92
1.589979e-107
1.55834e-125
5.7848287e-146
1.4358833e-167
2.0300928e-189
3.5290449e-212
1.1561417e-236
0.00031271318
0.00028438593
0.00031017849
0.0003549316
0.00035410778
0.00030416019
0.00024508763
0.0002190061
0.00023653821
0.00026803226
0.00029145424
0.00028805863
0.00023506364
0.00014773651
7.1471472e-05
2.9392064e-05
7.8887688e-06
4.6014505e-07
2.8839949e-09
3.0762006e-12
1.3948916e-15
4.1132847e-19
0.00036680591
0.00039553813
0.00037305877
0.00033289822
0.00030846265
0.00028773801
0.00022496895
9.5841836e-05
3.0822063e-06
9.5461861e-10
6.895185e-14
3.699428e-19
2.3912032e-25
4.9991594e-29
2.351429e-30
9.9826341e-32
3.0063752e-33
6.467599e-35
9.9346539e-37
1.0835693e-38
8.3164989e-41
4.4481644e-43
1.6418473e-45
4.1398892e-48
7.0499385e-51
8.0028034e-54
5.9590147e-57
2.8537693e-60
8.5307032e-64
1.422457e-74
3.510985e-87
5.4523252e-102
2.1394368e-119
2.277182e-139
5.8873687e-161
8.4215584e-183
6.0982075e-205
3.7060043e-228
7.5204917e-253
0.00036267224
0.00031461338
0.00029462377
0.00032309964
0.00036084657
0.00035067294
0.00029316457
0.00022730153
0.00019550882
0.00021093689
0.000244328
0.00026823689
0.00025690228
0.00018665402
8.9338193e-05
1.9890675e-05
2.6975303e-06
2.3427766e-07
3.5884928e-09
5.087e-12
1.2236086e-15
1.6508902e-19
1.6521494e-23
0.00038928891
0.00036452616
0.00032205997
0.0003021419
0.0002960132
0.00025925808
0.00015171897
2.2964307e-05
5.7960581e-08
3.4543044e-12
8.9774719e-17
2.5214709e-22
7.9992285e-27
2.3293344e-28
1.1685404e-29
4.2004438e-31
1.0951778e-32
2.0816051e-34
2.8546635e-36
2.8012313e-38
1.9478047e-40
9.5065345e-43
3.2268687e-45
7.5450025e-48
1.2019873e-50
1.2877163e-53
9.1266761e-57
4.1928532e-60
1.9908767e-70
1.5776889e-82
8.8986247e-97
1.3527423e-113
4.6542284e-133
1.8501577e-154
1.7359196e-176
2.0878112e-198
6.6723864e-221
2.5858525e-244
4.3664349e-269
0.00037546095
0.00035340441
0.00031490434
0.00030408024
0.00033379444
0.00036354691
0.00034430147
0.00027941172
0.0002067053
0.00016898987
0.00018147148
0.00021505507
0.00023797415
0.00021048435
0.00012425432
2.8487806e-05
1.3101012e-06
5.6363511e-08
1.698089e-09
6.737781e-12
2.1300527e-15
1.2208027e-19
5.7522763e-24
2.0797005e-28
0.00034944411
0.00030618204
0.00029109195
0.0002981539
0.00028450376
0.00020268066
6.7895508e-05
1.1200957e-06
4.752808e-10
6.8514413e-15
1.1066906e-19
3.2393058e-24
2.399004e-26
1.1517269e-27
4.731255e-29
1.4275151e-30
3.2057548e-32
5.4071498e-34
6.6460274e-36
5.8884553e-38
3.7237148e-40
1.6658448e-42
5.2271667e-45
1.1401444e-47
1.7104699e-50
1.7421245e-53
1.1850387e-56
1.5376682e-66
3.7405683e-78
7.3137684e-92
4.1619577e-108
4.8305476e-127
4.0242424e-148
2.8962726e-170
2.6788558e-192
2.201475e-214
4.9533082e-237
1.6020852e-260
2.2697579e-285
0.00032800371
0.00035491568
0.00034106765
0.00031449919
0.00031227782
0.00034173318
0.00036298224
0.0003347101
0.00026246397
0.00018273644
0.00013923773
0.00014781316
0.00018299695
0.00019464029
0.00014717568
5.2259031e-05
2.0127408e-06
1.9679989e-08
3.1232484e-10
3.0406088e-12
2.9476499e-15
2.1014475e-19
3.518107e-24
6.5401167e-29
8.6404027e-34
0.00028624546
0.00027654116
0.0002962289
0.00030360326
0.00024790276
0.00012124933
9.8790095e-06
1.7445432e-08
2.2781691e-12
4.1044421e-17
1.1885997e-20
1.6295685e-23
1.5627451e-25
4.8192382e-27
1.5552061e-28
3.8755428e-30
7.5211598e-32
1.1319933e-33
1.2522212e-35
1.0056893e-37
5.8095588e-40
2.3944726e-42
6.9870325e-45
1.431191e-47
2.0368613e-50
1.988058e-53
6.7838312e-63
4.8650875e-74
3.1666469e-87
6.5379241e-103
2.5901947e-121
5.3141471e-142
4.4644231e-164
2.1735829e-186
2.3003062e-208
1.6890901e-230
3.2740678e-253
8.8301168e-277
1.0611705e-301