/*--------------------------------*- C++ -*----------------------------------*\
| =========                 |                                                 |
| \\      /  F ield         | OpenFOAM: The Open Source CFD Toolbox           |
|  \\    /   O peration     | Version:  5.0                                   |
|   \\  /    A nd           | Web:      www.OpenFOAM.org                      |
|    \\/     M anipulation  |                                                 |
\*---------------------------------------------------------------------------*/
FoamFile
{
    version     2.0;
    format      ascii;
    class       volScalarField;
    location    "340";
    object      nuTilda_0;
}
// * * * * * * * * * * * * * * * * * * * * * * * * * * * * * * * * * * * * * //

dimensions      [0 2 -1 0 0 0 0];

internalField   nonuniform List<scalar> 
9520
(
4.8288494e-33
5.1259984e-31
4.6745541e-33
2.6624577e-29
4.9639107e-31
4.5200049e-33
8.9868044e-28
2.578713e-29
4.8007218e-31
4.3729464e-33
2.2190741e-26
8.7052708e-28
2.4941782e-29
4.6459576e-31
4.2439316e-33
4.2842901e-25
2.1497616e-26
8.421134e-28
2.4144176e-29
4.5124185e-31
4.1392686e-33
6.7598175e-24
4.1505702e-25
2.0800086e-26
8.1546896e-28
2.3466668e-29
4.4070138e-31
4.0574063e-33
8.9802694e-23
6.5489884e-24
4.0166069e-25
2.0150677e-26
7.9313409e-28
2.2943566e-29
4.3256603e-31
3.9878039e-33
1.0233894e-21
8.7018259e-23
6.3388908e-24
3.8929153e-25
1.9612019e-26
7.7614535e-28
2.2539717e-29
4.2530708e-31
3.9125299e-33
1.0150003e-20
9.9204718e-22
8.4258511e-23
6.1466329e-24
3.7912095e-25
1.9205075e-26
7.6284607e-28
2.2156159e-29
4.1671885e-31
3.8127248e-33
8.8794023e-20
9.8451125e-21
9.6113311e-22
8.1754771e-23
5.9897116e-24
3.7143222e-25
1.8877621e-26
7.4933847e-28
2.1667079e-29
4.0488546e-31
3.6781086e-33
7.0461372e-19
8.6158601e-20
9.5457588e-21
9.3323263e-22
7.9723694e-23
5.8702901e-24
3.6499462e-25
1.8522679e-26
7.3115069e-28
2.098335e-29
3.89253e-31
3.5159097e-33
5.937353e-18
6.8071025e-19
8.3599322e-20
9.2747563e-21
9.1065862e-22
7.8163041e-23
5.7653238e-24
3.5758463e-25
1.8028511e-26
7.0576273e-28
2.0108139e-29
3.7137985e-31
3.3534574e-33
9.5161553e-17
5.5291052e-18
6.5866119e-19
8.1236486e-20
9.0546011e-21
8.9314127e-22
7.6719303e-23
5.6377727e-24
3.4709901e-25
1.7348095e-26
6.7442129e-28
1.9161823e-29
3.5482968e-31
3.2309121e-33
3.2048453e-15
8.1915136e-17
5.1919471e-18
6.3756406e-19
7.9289151e-20
8.8829388e-21
8.7618028e-22
7.4876856e-23
5.4563324e-24
3.3299424e-25
1.6540194e-26
6.4242958e-28
1.8356069e-29
3.4400889e-31
3.1852486e-33
1.1527354e-13
2.7948677e-15
7.022961e-17
4.8485176e-18
6.1997829e-19
7.7793343e-20
8.711645e-21
8.5357828e-22
7.2252e-23
5.2193022e-24
3.169403e-25
1.5762427e-26
6.1756135e-28
1.7916245e-29
3.422776e-31
3.2320353e-33
3.4269966e-12
1.0629714e-13
2.325603e-15
5.6186299e-17
4.5580801e-18
6.0732646e-19
7.6302319e-20
8.4738816e-21
8.21305e-22
6.8924352e-23
4.96165e-24
3.0239978e-25
1.5215133e-26
6.0696149e-28
1.7978451e-29
3.5014965e-31
3.354034e-33
7.9505118e-11
3.3267227e-12
9.012985e-14
1.6451012e-15
4.3765571e-17
4.374565e-18
5.957254e-19
7.4141324e-20
8.1312566e-21
7.8150351e-22
6.5476585e-23
4.7433171e-24
2.9324841e-25
1.505568e-26
6.1368016e-28
1.8507135e-29
3.6450289e-31
3.5028334e-33
1.4028122e-09
8.02785e-11
2.8727905e-12
6.2309321e-14
1.0309588e-15
3.654559e-17
4.2568441e-18
5.7843448e-19
7.0954895e-20
7.7181116e-21
7.4222118e-22
6.2762057e-23
4.6232336e-24
2.9201555e-25
1.5317081e-26
6.3441567e-28
1.927779e-29
3.7927621e-31
3.6133484e-33
1.8368943e-08
1.4562204e-09
7.0306498e-11
1.9757688e-12
3.7319548e-14
7.0520695e-16
3.349175e-17
4.1173495e-18
5.5191824e-19
6.7165509e-20
7.3299591e-21
7.1369428e-22
6.1508199e-23
4.6311181e-24
2.9847096e-25
1.5868313e-26
6.5976603e-28
1.9939853e-29
3.8740293e-31
3.6251967e-33
1.7490527e-07
1.9351621e-08
1.2875258e-09
4.8335398e-11
1.1934696e-12
2.5877102e-14
6.1255583e-16
3.1715389e-17
3.9018414e-18
5.205066e-19
6.377669e-20
7.0727758e-21
7.032995e-22
6.1952229e-23
4.7488627e-24
3.0921205e-25
1.6441555e-26
6.7715405e-28
2.0134972e-29
3.8318749e-31
3.5027898e-33
1.1826625e-06
1.8467702e-07
1.7308295e-08
8.9223101e-10
2.9958827e-11
9.0947804e-13
2.5098953e-14
5.9026063e-16
2.8884491e-17
3.6458615e-18
4.9376033e-19
6.176012e-20
7.0081284e-21
7.1174242e-22
6.3656082e-23
4.9102544e-24
3.1858472e-25
1.672107e-26
6.7526923e-28
1.962043e-29
3.6424236e-31
3.2474362e-33
5.649565e-06
1.2392179e-06
1.6644312e-07
1.2330612e-08
5.7887817e-10
2.540172e-11
1.0073933e-12
2.6497214e-14
4.8721427e-16
2.5225855e-17
3.4392103e-18
4.7975993e-19
6.1532186e-20
7.1211128e-21
7.318113e-22
6.5591441e-23
5.0215223e-24
3.2065487e-25
1.6458442e-26
6.4808918e-28
1.8352991e-29
3.3236854e-31
2.8982171e-33
1.914263e-05
5.8659655e-06
1.1293655e-06
1.2281994e-07
8.6681913e-09
5.416628e-10
3.1249951e-11
1.1396678e-12
2.148264e-14
3.1689628e-16
2.2484837e-17
3.345859e-18
4.806487e-19
6.2750672e-20
7.3182521e-21
7.5038913e-22
6.6488169e-23
4.9954218e-24
3.1143509e-25
1.5564134e-26
5.970024e-28
1.6510048e-29
2.9318338e-31
2.5222953e-33
4.7611489e-05
1.9692174e-05
5.3931242e-06
8.6990305e-07
9.3550831e-08
8.609139e-09
7.10031e-10
3.6831294e-11
9.3046171e-13
1.1615843e-14
1.9349574e-16
2.1352001e-17
3.3699157e-18
4.9191813e-19
6.4400176e-20
7.4582278e-21
7.5318894e-22
6.5313144e-23
4.7848873e-24
2.9041138e-25
1.4140697e-26
5.3064169e-28
1.4447277e-29
2.5471332e-31
2.1984676e-33
9.1825754e-05
4.8686223e-05
1.8279834e-05
4.331026e-06
7.0930809e-07
9.7160158e-08
1.1459082e-08
8.5119982e-10
3.012113e-11
4.8081972e-13
4.6034031e-15
1.4223611e-16
2.1451804e-17
3.4627897e-18
5.0395833e-19
6.5163327e-20
7.405721e-21
7.3031146e-22
6.1680335e-23
4.4019955e-24
2.6078949e-25
1.2457822e-26
4.6273121e-28
1.2610456e-29
2.2545509e-31
1.9991938e-33
0.00014579389
9.3537947e-05
4.5690326e-05
1.5292089e-05
3.7366097e-06
7.5960934e-07
1.2824441e-07
1.3722034e-08
6.9485378e-10
1.5239605e-11
1.691169e-13
1.80795e-15
1.299578e-16
2.2107029e-17
3.5418586e-18
5.0588567e-19
6.3951081e-20
7.0855009e-21
6.802866e-22
5.6021499e-23
3.9152898e-24
2.2864329e-25
1.0884218e-26
4.0871789e-28
1.1429753e-29
2.1247903e-31
1.9756623e-33
0.00019793837
0.00014827167
8.887305e-05
3.953252e-05
1.3786803e-05
4.0829724e-06
9.8268347e-07
1.5161828e-07
1.1178395e-08
3.4981846e-10
5.1542747e-12
5.1454334e-14
1.0315969e-15
1.3129168e-16
2.2580295e-17
3.5251931e-18
4.9021698e-19
6.0347766e-20
6.5138728e-21
6.1097883e-22
4.9462168e-23
3.431031e-24
2.0138143e-25
9.7978763e-27
3.8217594e-28
1.1224857e-29
2.1999971e-31
2.1484629e-33
0.00024099543
0.00019972256
0.00014136422
7.8733185e-05
3.6713485e-05
1.5226615e-05
5.1569876e-06
1.1397463e-06
1.2343724e-07
5.6951563e-09
1.2078627e-10
1.533594e-12
2.1332882e-14
9.0713757e-16
1.3350093e-16
2.2271633e-17
3.3691301e-18
4.5596456e-19
5.4783389e-20
5.7960796e-21
5.3721977e-22
4.3511634e-23
3.0665273e-24
1.8596125e-25
9.4989389e-27
3.918447e-28
1.2140042e-29
2.4860554e-31
2.5043908e-33
0.00027712903
0.00024207361
0.00019034408
0.00012689021
7.417959e-05
4.0622561e-05
1.8745026e-05
5.8353863e-06
9.2987751e-07
6.4548788e-08
2.1047945e-09
4.01943e-11
7.4397299e-13
1.8793421e-14
9.2609588e-16
1.3012622e-16
2.0962097e-17
3.0858123e-18
4.0888301e-19
4.8395545e-20
5.0941778e-21
4.7675488e-22
3.9688225e-23
2.9220587e-24
1.8728847e-25
1.0144004e-26
4.3980598e-28
1.4116347e-29
2.9515481e-31
2.9987165e-33
0.00030793962
0.00027721475
0.00023101908
0.00017333171
0.00012039278
8.1626915e-05
4.8723155e-05
2.0669339e-05
4.7819683e-06
5.0492586e-07
2.5959132e-08
8.0568388e-10
2.4206432e-11
8.6580462e-13
2.2377945e-14
8.733806e-16
1.198402e-16
1.8875453e-17
2.7340002e-18
3.593588e-19
4.2683893e-20
4.5836711e-21
4.4590159e-22
3.9158804e-23
3.0575864e-24
2.0711587e-25
1.1711286e-26
5.2096462e-28
1.6899626e-29
3.5325966e-31
3.562059e-33
0.0003339065
0.00030661217
0.00026480846
0.00021257158
0.00016649558
0.00013142723
9.5652808e-05
5.2490362e-05
1.7080445e-05
2.7255359e-06
2.2300733e-07
1.1597536e-08
5.922724e-10
3.3820663e-11
1.1701025e-12
2.0426258e-14
7.1964414e-16
1.0546005e-16
1.6517161e-17
2.3957191e-18
3.1932555e-19
3.9124247e-20
4.4114743e-21
4.5568854e-22
4.2462585e-23
3.4784951e-24
2.4358039e-25
1.3999192e-26
6.2379821e-28
2.0080313e-29
4.1427751e-31
4.1111365e-33
0.00035420689
0.00033086438
0.00029336392
0.00024552597
0.00020614316
0.00018071108
0.00015117784
0.00010122355
4.3960958e-05
1.0307598e-05
1.3303236e-06
1.1752693e-07
1.0204395e-08
9.1305528e-10
4.7942097e-11
1.0845848e-12
1.1843651e-14
5.6653788e-16
9.0932197e-17
1.4458755e-17
2.1532235e-18
2.9939522e-19
3.8826885e-20
4.6610224e-21
5.0913706e-22
4.9366878e-23
4.1322183e-24
2.9142001e-25
1.6657722e-26
7.3223831e-28
2.3159615e-29
4.6872535e-31
4.5622985e-33
0.00036913984
0.0003496746
0.00031667087
0.00027415735
0.0002393354
0.0002221438
0.00020440153
0.00015835411
8.6388175e-05
2.822133e-05
5.5942947e-06
8.3029728e-07
1.2015249e-07
1.6431149e-08
1.3147957e-09
4.4986162e-11
5.7224488e-13
5.0345009e-15
4.6365773e-16
7.9624475e-17
1.3192498e-17
2.0716812e-18
3.0653339e-19
4.2269045e-20
5.3299526e-21
6.0015754e-22
5.8876197e-23
4.916299e-24
3.4284495e-25
1.9248306e-26
8.2842956e-28
2.5635957e-29
5.0792015e-31
4.8457744e-33
0.00037939955
0.0003633409
0.0003349824
0.00029801017
0.00026830181
0.00025570704
0.00024672961
0.00021097892
0.00013710365
5.894821e-05
1.7050148e-05
4.1023088e-06
9.5475671e-07
1.9497919e-07
2.3585887e-08
1.2416858e-09
2.3856652e-11
1.6957964e-13
2.5511049e-15
4.0361696e-16
7.3980863e-17
1.3053817e-17
2.1861343e-18
3.4232471e-19
4.9142351e-20
6.3250166e-21
7.1429983e-22
6.9398917e-23
5.6967515e-24
3.8894822e-25
2.1323948e-26
8.9599641e-28
2.709681e-29
5.255314e-31
4.9177566e-33
0.00038514663
0.00037259662
0.00034854576
0.00031730756
0.00029278899
0.00028397997
0.00027923003
0.00025143948
0.0001847545
9.8659604e-05
3.9268662e-05
1.4352703e-05
5.1228184e-06
1.5251033e-06
2.752729e-07
2.2328485e-08
6.7100943e-10
6.9774621e-12
3.6507371e-14
1.9439546e-15
3.8245814e-16
7.5362532e-17
1.416733e-17
2.4920342e-18
4.0214413e-19
5.836217e-20
7.4765654e-21
8.3119846e-22
7.9012624e-23
6.3319089e-24
4.2145089e-25
2.2515338e-26
9.2316422e-28
2.7294877e-29
5.1869769e-31
4.7673633e-33
0.00038701068
0.00037784663
0.00035812791
0.00033233893
0.00031292066
0.00030742207
0.0003052945
0.00028195101
0.00022312182
0.00013956923
7.1369675e-05
3.6565877e-05
1.879386e-05
7.9317634e-06
2.094644e-06
2.60492e-07
1.2383862e-08
2.0432808e-10
1.361238e-12
1.2225711e-14
1.8415297e-15
4.0085565e-16
8.3888107e-17
1.6404587e-17
2.9419301e-18
4.7566713e-19
6.8258359e-20
8.5655339e-21
9.2823734e-22
8.5863156e-23
6.6996381e-24
4.3426556e-25
2.2603155e-26
9.0496287e-28
2.6189772e-29
4.883899e-31
4.416607e-33
0.00038634146
0.0003799831
0.00036426919
0.00034380291
0.00032900631
0.000326439
0.00032610996
0.00030597601
0.00025308358
0.00017599493
0.00010807344
7.1014231e-05
4.869346e-05
2.7934738e-05
1.0505168e-05
1.9763458e-06
1.4923315e-07
4.0043961e-09
4.4242364e-11
2.5560948e-13
8.734878e-15
1.9764299e-15
4.5639319e-16
9.824888e-17
1.9373765e-17
3.4521167e-18
5.4883656e-19
7.6849697e-20
9.372471e-21
9.8593398e-22
8.8582084e-23
6.7267006e-24
4.2470632e-25
2.1557743e-26
8.4389795e-28
2.3942895e-29
4.3894234e-31
3.9135262e-33
0.00038377959
0.00037996029
0.00036801057
0.00035216495
0.00034176506
0.00034138108
0.00034239364
0.000324877
0.00027846013
0.00020618673
0.00014366521
0.00011173818
9.4192649e-05
6.911322e-05
3.5484007e-05
9.869168e-06
1.1762561e-06
5.2105777e-08
9.7840248e-10
8.540479e-12
6.763546e-14
9.1573571e-15
2.296798e-15
5.3896926e-16
1.1566933e-16
2.2482499e-17
3.9200132e-18
6.0642036e-19
8.2321624e-20
9.7267472e-21
9.9194355e-22
8.6559994e-23
6.4013153e-24
3.9402663e-25
1.9534111e-26
7.4889628e-28
2.08692e-29
3.7691126e-31
3.3206225e-33
0.00037928258
0.00037846267
0.00037053661
0.00035839701
0.00035146367
0.00035309601
0.00035461286
0.00033933483
0.00029890245
0.00023439782
0.00017477224
0.00015133569
0.00014598074
0.00012757714
8.4186906e-05
3.3223569e-05
6.1347714e-06
4.4780907e-07
1.4242804e-08
2.1004408e-10
1.56528e-12
4.4243984e-14
1.0808964e-14
2.7306723e-15
6.3093757e-16
1.3242721e-16
2.5076095e-17
4.2464644e-18
6.3553467e-19
8.344392e-20
9.5437852e-21
9.4368688e-22
8.0052831e-23
5.7722145e-24
3.4685027e-25
1.6824662e-26
6.3291461e-28
1.7360105e-29
3.095994e-31
2.7019935e-33
0.00037632643
0.00037649434
0.00037253879
0.00036362346
0.00035859895
0.00036164151
0.00036352971
0.00034976373
0.00031528405
0.00025870454
0.00020284313
0.00018574615
0.00019332167
0.00018947898
0.00014934789
7.8803766e-05
2.1679109e-05
2.5594594e-06
1.3583149e-07
3.3982863e-09
4.1015181e-11
4.2262616e-13
5.0057872e-14
1.2949368e-14
3.1740035e-15
7.1116851e-16
1.4481946e-16
2.6598993e-17
4.3519332e-18
6.2901206e-19
7.9837968e-20
8.8417603e-21
8.4844734e-22
7.0066397e-23
4.9332694e-24
2.898681e-25
1.37854e-26
5.099613e-28
1.3801233e-29
2.4367787e-31
2.112563e-33
0.0003741693
0.00037720954
0.00037772087
0.00036789626
0.00036401181
0.00036743033
0.00036922925
0.00035679809
0.00032790419
0.00027941392
0.00022808659
0.00021387034
0.00023110386
0.00024171052
0.00021371719
0.00013985111
5.418294e-05
9.9171676e-06
8.5575197e-07
3.5860372e-08
7.5648293e-10
1.0712118e-11
3.9975837e-13
6.2060044e-14
1.4952931e-14
3.5156071e-15
7.6104521e-16
1.5012851e-16
2.6646681e-17
4.2048212e-18
5.8678407e-19
7.202955e-20
7.7311568e-21
7.2095333e-22
5.8064534e-23
3.9989072e-24
2.3022654e-25
1.0759162e-26
3.9239706e-28
1.0507459e-29
1.8422635e-31
1.591529e-33
0.00037135947
0.00037839184
0.00037785353
0.00037826423
0.00036756924
0.00037110767
0.00037227736
0.00036080288
0.00033734469
0.00029689026
0.00025020233
0.00023778754
0.00025985631
0.00027963066
0.00026529018
0.00019987405
0.00010124921
2.711654e-05
3.6333578e-06
2.5024689e-07
9.4272597e-09
2.7874275e-10
1.261508e-11
6.7778151e-13
7.310181e-14
1.6239543e-14
3.6726089e-15
7.6953822e-16
1.4696244e-16
2.5128683e-17
3.8241424e-18
5.1551994e-19
6.1260531e-20
6.3812763e-21
5.7933361e-22
4.5603798e-23
3.0784131e-24
1.7409946e-25
8.0170205e-27
2.8917685e-28
7.6880686e-30
1.3433533e-31
1.16067e-33
0.00036912552
0.00037536594
0.00038059803
0.00037711659
0.00037764426
0.00037258633
0.0003730823
0.00036242746
0.00034412375
0.00031149979
0.00026942114
0.00025834456
0.00028125605
0.00030528995
0.00029909611
0.00024695285
0.00015115695
5.5140451e-05
1.0860415e-05
1.1894891e-06
8.1856802e-08
5.2968115e-09
4.3806072e-10
2.7582851e-11
9.8290304e-13
7.6917767e-14
1.6483273e-14
3.613526e-15
7.3508605e-16
1.3523801e-16
2.2278609e-17
3.271677e-18
4.2648698e-19
4.9131248e-20
4.9759155e-21
4.4084728e-22
3.4012307e-23
2.2565929e-24
1.257988e-25
5.7296583e-27
2.052873e-28
5.4436312e-30
9.5234491e-32
8.2660883e-34
0.00037178108
0.00036915402
0.00037838246
0.00038054843
0.00037497899
0.00037502711
0.00037185377
0.00036220017
0.00034893722
0.00032353705
0.00028602817
0.0002758728
0.00029873491
0.00032307209
0.00032001671
0.00027866207
0.00019374304
8.9124963e-05
2.4180636e-05
4.0788454e-06
5.1656107e-07
6.9111128e-08
9.8404119e-09
9.718833e-10
4.3862682e-11
9.6365122e-13
7.2529432e-14
1.5698829e-14
3.3579811e-15
6.5987874e-16
1.1686852e-16
1.856128e-17
2.6332144e-18
3.3244353e-19
3.7202952e-20
3.6732054e-21
3.187014e-22
2.4197726e-23
1.5849621e-24
8.7561071e-26
3.9693083e-27
1.4221819e-28
3.7871305e-30
6.6761828e-32
5.8534773e-34
0.00036867777
0.00036824876
0.00036995677
0.00037976032
0.00037847324
0.00037085726
0.00036895071
0.0003606422
0.00035251935
0.00033355131
0.00030028106
0.00029074214
0.00031278486
0.00033668515
0.00033481089
0.00030029575
0.00022630036
0.0001226829
4.3065272e-05
1.0753083e-05
2.4499742e-06
6.0614073e-07
1.376584e-07
2.1105777e-08
1.5249337e-09
4.2527945e-11
6.1803773e-13
6.4488631e-14
1.4129175e-14
2.9382333e-15
5.5572128e-16
9.482314e-17
1.4537558e-17
1.9959778e-18
2.4467099e-19
2.6689847e-20
2.5810624e-21
2.2067954e-22
1.6610138e-23
1.0834111e-24
5.9911088e-26
2.7335956e-27
9.9062256e-29
2.6769681e-30
4.7965282e-32
4.2739672e-34
0.00035837776
0.00036362252
0.00036470096
0.00037046649
0.00037907703
0.00037422809
0.00036326435
0.00035863412
0.0003553267
0.00034230203
0.00031253434
0.00030322393
0.00032405263
0.0003462452
0.00034477834
0.000315902
0.00025456185
0.00015228977
6.5403994e-05
2.3049605e-05
8.746191e-06
3.5613913e-06
1.2145441e-06
2.8045628e-07
3.2150054e-08
1.4840188e-09
2.3282727e-11
3.2778639e-13
5.5401708e-14
1.2020351e-14
2.4105915e-15
4.3912067e-16
7.2300412e-17
1.0725104e-17
1.4300509e-18
1.7105738e-19
1.8318252e-20
1.7522394e-21
1.4955117e-22
1.1330082e-23
7.4912275e-25
4.226728e-26
1.9788851e-27
7.3784646e-29
2.0505202e-30
3.7661392e-32
3.4218696e-34
0.00035798977
0.00035521572
0.00035737919
0.00036105879
0.00036967279
0.00037607116
0.00036654118
0.00035171634
0.00034378342
0.00034982733
0.00032321076
0.00031361424
0.00033270539
0.00035302098
0.00035044856
0.00032633147
0.00027669296
0.00018647739
8.8808995e-05
4.1297005e-05
2.3430327e-05
1.4129635e-05
6.9025257e-06
2.3213068e-06
4.1183492e-07
3.126685e-08
8.3993577e-10
7.0611704e-12
2.1300142e-13
4.5565735e-14
9.5987761e-15
1.8550489e-15
3.2615592e-16
5.199083e-17
7.5010132e-18
9.7899456e-19
1.1561109e-19
1.2357071e-20
1.1955294e-21
1.0466587e-22
8.2221033e-24
5.6807004e-25
3.3632269e-26
1.6519848e-27
6.4308251e-29
1.8505573e-30
3.4843206e-32
3.2112368e-34
0.00035720846
0.00035854008
0.00035065142
0.00035068265
0.00035656776
0.00036691032
0.00036996067
0.00035495433
0.00033602288
0.00032366039
0.00033270488
0.00032218172
0.00033910523
0.0003569184
0.00035286928
0.00033216076
0.00029362477
0.0002161673
0.00011785724
6.3916473e-05
4.7758199e-05
3.892727e-05
2.590956e-05
1.225167e-05
3.2653083e-06
3.9886361e-07
1.8474826e-08
2.6475573e-10
1.5591596e-12
1.6242131e-13
3.5325995e-14
7.1931466e-15
1.3434705e-15
2.2915136e-16
3.5659272e-17
5.0696692e-18
6.6057851e-19
7.9205138e-20
8.7654483e-21
8.9537605e-22
8.3938534e-23
7.0935697e-24
5.2596393e-25
3.3150307e-26
1.7131348e-27
6.9229351e-29
2.0410965e-30
3.8906223e-32
3.5914414e-34
0.00034112941
0.0003620486
0.00035722805
0.00034470558
0.00034292653
0.00035065481
0.00036151651
0.00036007758
0.00033940965
0.00031546831
0.0002981743
0.00032901956
0.00034356948
0.00035856941
0.00035240739
0.00033432883
0.00030591943
0.00024208103
0.00014731426
8.748399e-05
7.870819e-05
7.8131039e-05
6.6712991e-05
4.2368496e-05
1.6409821e-05
3.1429471e-06
2.4570298e-07
6.440358e-09
4.6959656e-11
6.2974357e-13
1.2123311e-13
2.5764674e-14
5.0870248e-15
9.2575873e-16
1.5529878e-16
2.4114326e-17
3.4906547e-18
4.7480007e-19
6.0988797e-20
7.3803441e-21
8.3179221e-22
8.5558481e-23
7.8150446e-24
6.1495764e-25
4.0436284e-26
2.1476822e-27
8.8121155e-29
2.6127983e-30
4.970491e-32
4.549669e-34
0.00033438193
0.0003480952
0.00036467047
0.00035393531
0.00033694506
0.0003336112
0.00034267502
0.0003527876
0.00034627126
0.000319127
0.00028994278
0.00026744191
0.00034608388
0.00035808968
0.00034967254
0.00033367682
0.00031435299
0.00026424783
0.00017576459
0.00011258694
0.00010620605
0.00012411828
0.00012494688
0.00010021012
5.382677e-05
1.5686999e-05
2.0204442e-06
9.4566876e-08
1.330919e-09
7.5339386e-12
3.9907172e-13
8.5867878e-14
1.7831426e-14
3.4586086e-15
6.2728708e-16
1.0723846e-16
1.7477592e-17
2.7416865e-18
4.1464025e-19
5.9843986e-20
8.077115e-21
9.9484794e-22
1.0904172e-22
1.0379663e-23
8.3648859e-25
5.5662341e-26
2.9669821e-27
1.214769e-28
3.5797096e-30
6.7476478e-32
6.1036263e-34
0.00034675926
0.00033836198
0.00035339065
0.00036516989
0.00034856448
0.00032742241
0.00032221415
0.00033215394
0.00034032768
0.00032781909
0.00029394162
0.00025957322
0.00023218063
0.00035554337
0.00034484576
0.00033096801
0.00031986636
0.00028271711
0.000202602
0.00013766633
0.00013175835
0.00016378558
0.00018546748
0.00017338768
0.00012090891
5.1253387e-05
1.0557632e-05
8.5798726e-07
2.3052441e-08
2.1730928e-10
1.8476361e-12
2.6918256e-13
5.831635e-14
1.2069839e-14
2.3841263e-15
4.5480637e-16
8.4895337e-17
1.558246e-17
2.7864094e-18
4.753886e-19
7.5429697e-20
1.0863452e-20
1.3911234e-21
1.5552327e-22
1.4907239e-23
1.2002074e-24
7.943655e-26
4.2006985e-27
1.7038116e-28
4.9698129e-30
9.2674528e-32
4.5973683e-36
0.00035084203
0.00034548697
0.00034104413
0.00035701064
0.00036353661
0.00034124647
0.00031575469
0.000308519
0.00031850057
0.00032351921
0.00030441637
0.00026411889
0.00022494836
0.00019049852
0.00033814449
0.0003267635
0.00032344479
0.00029786188
0.00022750313
0.00016196479
0.00015554511
0.00019345542
0.00023569246
0.00023955944
0.00019974726
0.00011544471
3.6331057e-05
4.9583122e-06
2.4481201e-07
4.4576822e-09
3.25659e-11
8.5805165e-13
1.7961677e-13
3.980019e-14
8.6636379e-15
1.8749729e-15
4.0652189e-16
8.7595525e-17
1.8332298e-17
3.6234245e-18
6.5994072e-19
1.0859629e-19
1.5894478e-20
2.0420009e-21
2.2734944e-22
2.1594199e-23
1.7197853e-24
1.1252931e-25
5.8832173e-27
2.3600678e-28
6.8119023e-30
7.4868426e-34
1.6863007e-38
0.00032967002
0.00034371895
0.00034227501
0.00034273638
0.0003588629
0.00035980713
0.00033163926
0.00030152554
0.00029218393
0.00030104417
0.00030202228
0.00027608082
0.00022943252
0.00018385323
0.00014125847
0.0003214229
0.00032582812
0.00031056051
0.00025022109
0.000185244
0.00017734605
0.00021870122
0.00026793565
0.00028846162
0.00026427595
0.00019194818
8.6784525e-05
1.8926608e-05
1.648384e-06
5.5974684e-08
7.3862876e-10
5.6504112e-12
5.3116264e-13
1.255869e-13
3.0569755e-14
7.6132913e-15
1.9243902e-15
4.8162746e-16
1.1564332e-16
2.5904124e-17
5.3043718e-18
9.7917339e-19
1.6115123e-19
2.3415714e-20
2.9751368e-21
3.2699509e-22
3.0627621e-23
2.4066995e-24
1.5551124e-25
8.0370503e-27
3.1903865e-28
6.0485235e-32
2.8477127e-36
3.0421819e-41
0.00031521842
0.00031945008
0.00033425261
0.00033775463
0.00034354644
0.00035868879
0.00035377668
0.00031938938
0.00028448015
0.00027268839
0.0002793517
0.00027551328
0.00024183878
0.00018768794
0.00013521487
8.9102193e-05
0.00032749976
0.00032188299
0.00027085311
0.00020742902
0.00019744655
0.00024011876
0.00029381053
0.00032019527
0.00030650943
0.00025466129
0.00015373693
5.0266907e-05
7.2932647e-06
4.413996e-07
1.0815298e-08
1.0777574e-10
1.8187178e-12
3.8427337e-13
1.0593595e-13
3.0539007e-14
8.9197537e-15
2.5437223e-15
6.8587874e-16
1.7089471e-16
3.8752895e-17
7.919231e-18
1.4477639e-18
2.3508561e-19
3.3651741e-20
4.211464e-21
4.5587529e-22
4.2081497e-23
3.2632664e-24
2.0837314e-25
1.0656433e-26
3.1490419e-30
2.512457e-34
4.890053e-39
2.7251717e-44
0.00032832886
0.00030782885
0.00030762631
0.00032326687
0.0003327861
0.0003429699
0.00035627812
0.00034497396
0.00030431099
0.00026410965
0.00024931037
0.00025282774
0.00024278413
0.00019962162
0.00013765223
8.5164881e-05
4.610062e-05
0.0003328189
0.00028963265
0.00022848001
0.00021606012
0.00025875368
0.00031468392
0.00034461993
0.00033476849
0.00029324723
0.00021606685
9.9197071e-05
2.2301607e-05
2.2657271e-06
9.8814616e-08
1.7764795e-09
1.6056773e-11
1.1764361e-12
3.6204948e-13
1.2019442e-13
3.9877641e-14
1.2696605e-14
3.7761069e-15
1.0316695e-15
2.5622323e-16
5.7427318e-17
1.1554278e-17
2.0766422e-18
3.3145367e-19
4.6666103e-20
5.7503892e-21
6.1300752e-22
5.5816491e-23
4.2763915e-24
2.7020812e-25
1.1752181e-28
1.4661769e-32
4.4644091e-37
3.9085039e-42
1.2657778e-47
0.00034271213
0.00032766007
0.00029903013
0.00029442529
0.00031207889
0.00032633773
0.00034037294
0.00035105375
0.00033340649
0.00028569006
0.0002399667
0.00022180665
0.00022122994
0.00020199238
0.00014756713
8.6958741e-05
4.3652302e-05
1.8599857e-05
0.00030744894
0.0002484245
0.00023326097
0.00027497527
0.00033239457
0.00036314117
0.00035473205
0.00031907637
0.00026050994
0.00015501985
5.0122744e-05
7.9610204e-06
5.8206312e-07
1.8609233e-08
2.5380556e-10
4.5703353e-12
1.2177335e-12
4.5870562e-13
1.6961387e-13
5.9252229e-14
1.917433e-14
5.6841245e-15
1.5327631e-15
3.7405246e-16
8.2248189e-17
1.623338e-17
2.8639018e-18
4.4916932e-19
6.2224645e-20
7.5532191e-21
7.9393435e-22
7.1408319e-23
5.413576e-24
3.3377063e-27
6.2042648e-31
2.8637124e-35
3.321625e-40
1.6696574e-45
3.4680381e-51
0.00032406076
0.00035023617
0.00032500764
0.00028888409
0.00027989458
0.00029867028
0.00031804067
0.00033508268
0.00034280886
0.0003181683
0.00026305621
0.0002118328
0.00019036298
0.00018231721
0.0001509252
9.371571e-05
4.469803e-05
1.7284991e-05
5.5569658e-06
0.00026723476
0.00024908347
0.00028870585
0.00034711352
0.00037805099
0.00036807598
0.00033473436
0.0002900319
0.00020979158
8.8419287e-05
2.0305864e-05
2.3266303e-06
1.2474987e-07
2.9732335e-09
3.8054463e-11
4.0773363e-12
1.6780441e-12
6.8000266e-13
2.5715851e-13
8.9626377e-14
2.8597105e-14
8.3151727e-15
2.1951418e-15
5.243441e-16
1.1293249e-16
2.1857855e-17
3.7865604e-18
5.8404233e-19
7.9702672e-20
9.5394937e-21
9.9026269e-22
8.8126925e-23
7.4995638e-26
2.0078367e-29
1.3742401e-33
2.1648231e-38
1.23943e-43
4.4533729e-49
6.2743462e-55
0.00028476217
0.00033866404
0.00035476015
0.00032047015
0.00027720161
0.00026385468
0.00028332997
0.0003070871
0.00032649215
0.00033075634
0.00029859506
0.00023530387
0.00017929359
0.00015280187
0.00013493062
9.6045889e-05
4.8710436e-05
1.7631233e-05
5.0141096e-06
1.1858508e-06
0.00026342543
0.00029980783
0.00035828955
0.00038956706
0.0003764837
0.00034237065
0.00030666015
0.00025046449
0.00014135347
4.0202897e-05
6.6805898e-06
5.6265062e-07
2.2498972e-08
4.2208067e-10
1.5333953e-11
5.8409449e-12
2.5574167e-12
1.0364877e-12
3.8598386e-13
1.3167842e-13
4.1041464e-14
1.1654165e-14
3.0065154e-15
7.0261114e-16
1.4827304e-16
2.8163335e-17
4.7958424e-18
7.2839012e-19
9.8055856e-20
1.1587368e-20
1.1900246e-21
1.36998e-24
5.1513383e-28
5.1158206e-32
1.1313724e-36
7.2767482e-42
2.9900766e-47
8.1086172e-53
8.1522402e-59
0.00027633676
0.00030087627
0.00035030077
0.00035653015
0.00031387287
0.00026395096
0.00024607233
0.00026530478
0.00029277765
0.00031387242
0.00031412675
0.00027314855
0.0002013587
0.00014091553
0.00010941658
8.4630155e-05
5.0159163e-05
1.9455215e-05
5.0636e-06
1.0309366e-06
1.8003721e-07
0.0003079031
0.00036512414
0.00039686942
0.00038021022
0.00034350017
0.00031368587
0.00027758103
0.00019197388
7.6436869e-05
1.4723369e-05
1.8057388e-06
1.1377389e-07
3.4832177e-09
8.2720763e-11
1.9431037e-11
9.0130802e-12
3.8840869e-12
1.5354483e-12
5.5678835e-13
1.8500515e-13
5.6210019e-14
1.5577954e-14
3.927859e-15
8.9863861e-16
1.8599326e-16
3.4711513e-17
5.8182724e-18
8.7148092e-19
1.158766e-19
1.3545022e-20
2.076147e-23
1.0752999e-26
1.5194725e-30
4.7668284e-35
3.727034e-40
1.5001485e-45
5.2384476e-51
1.0719751e-56
8.1016376e-63
0.00031319934
0.00028772651
0.00031538304
0.0003588626
0.00035555649
0.00030526934
0.00024890106
0.00022618526
0.0002442619
0.00027455037
0.00029676284
0.00029226417
0.00023983408
0.00015945443
9.8175102e-05
6.61314e-05
4.3207324e-05
2.0270771e-05
5.6628902e-06
1.0232227e-06
1.4951228e-07
1.9606111e-08
0.00036681326
0.00039828411
0.00037872416
0.00033874487
0.00031330193
0.00029308022
0.0002348382
0.0001201294
3.3745614e-05
4.3875993e-06
4.055473e-07
1.9545963e-08
5.5013331e-10
6.4240646e-11
2.9876478e-11
1.3577828e-11
5.6624875e-12
2.1706578e-12
7.6483458e-13
2.4736553e-13
7.3271016e-14
1.9828617e-14
4.8905575e-15
1.0965456e-15
2.2287125e-16
4.0927833e-17
6.7635354e-18
1.0008716e-18
1.3163217e-19
2.6511431e-22
1.8620789e-25
3.6826823e-29
1.633444e-33
1.6570391e-38
6.6955648e-44
2.3535896e-49
6.9093125e-55
1.0847308e-60
7.2697422e-67
0.00036329082
0.00031565412
0.00029814625
0.00032804416
0.00036437203
0.00035189207
0.00029433268
0.00023177558
0.00020403803
0.000220041
0.00025193564
0.00027436065
0.00026198194
0.00019443042
0.00011139772
5.7378506e-05
3.2102528e-05
1.7112256e-05
5.9896322e-06
1.1600527e-06
1.4447547e-07
1.5597048e-08
1.5608516e-09
0.00039266897
0.00037098023
0.00032842406
0.00030688525
0.00030030979
0.00026669388
0.00016819338
6.14687e-05
1.2236565e-05
1.0788661e-06
7.7142908e-08
3.1446921e-09
2.2940885e-10
9.4248414e-11
4.4673583e-11
1.9479972e-11
7.8375751e-12
2.9129271e-12
9.9769403e-13
3.14265e-13
9.0817731e-14
2.4021036e-14
5.8017482e-15
1.2765252e-15
2.551593e-16
4.618299e-17
7.538107e-18
1.1039063e-18
2.8882689e-21
2.7155624e-24
7.4140853e-28
4.6126981e-32
6.2660307e-37
2.8039215e-42
8.8517157e-48
2.9669566e-53
7.0684233e-59
9.906753e-65
6.3402622e-71
0.00037955463
0.00035480629
0.00031660358
0.00030779982
0.00033847854
0.00036669815
0.00034535588
0.00028078299
0.00021222983
0.00017960304
0.00019261507
0.00022425977
0.00024523875
0.00021760204
0.00013948042
6.4962389e-05
2.6480131e-05
1.1958589e-05
4.9773462e-06
1.2464461e-06
1.6589538e-07
1.4437178e-08
1.1984717e-09
9.2964298e-11
0.00035659532
0.00031308611
0.00029577445
0.00030151418
0.00028995
0.00021485409
9.8032465e-05
2.5881782e-05
3.6878909e-06
2.2756865e-07
1.4298452e-08
1.0223056e-09
2.9910648e-10
1.4067376e-10
6.3462236e-11
2.6492639e-11
1.0271134e-11
3.7052672e-12
1.234806e-12
3.7915024e-13
1.069997e-13
2.7691657e-14
6.5581552e-15
1.418079e-15
2.7922381e-16
4.990244e-17
8.0617016e-18
2.7120772e-20
3.3753219e-23
1.2574569e-26
1.0881021e-30
2.0020702e-35
1.0745642e-40
3.1553315e-46
9.9434815e-52
3.011734e-57
6.5581214e-63
8.7818644e-69
5.3787746e-75
0.00033574173
0.00035978285
0.00034337427
0.00031688859
0.00031620388
0.00034615875
0.00036580207
0.00033568819
0.00026422979
0.00018995424
0.0001531645
0.00016218789
0.00019431031
0.00020417266
0.00015979539
8.3506622e-05
2.9551738e-05
9.1612672e-06
3.2608253e-06
1.023957e-06
1.802326e-07
1.6529286e-08
1.0578312e-09
6.960117e-11
4.1965526e-12
0.00029368665
0.00028119096
0.00029868835
0.00030723247
0.00025716229
0.0001418346
4.6882758e-05
9.0654551e-06
9.6916333e-07
6.1353399e-08
7.7391359e-09
1.4883121e-09
4.7556379e-10
2.0127269e-10
8.5598425e-11
3.4075312e-11
1.2737238e-11
4.4658304e-12
1.4495861e-12
4.3430495e-13
1.1982369e-13
3.0381524e-14
7.0656224e-15
1.5039695e-15
2.9225153e-16
5.1675827e-17
2.2139613e-19
3.6106949e-22
1.8170073e-25
2.1698929e-29
5.4254898e-34
3.6427337e-39
1.1055585e-44
2.9628432e-50
9.6137446e-56
2.819238e-61
5.9089263e-67
7.5600587e-73
4.4437406e-79
0.00027105508
0.0003096596
0.00033649541
0.00033081031
0.00031647334
0.00032273645
0.00035055476
0.00036128042
0.00032273693
0.00024390314
0.00016508045
0.00012548785
0.00013305525
0.00015655021
0.00015055649
9.8883249e-05
3.9042599e-05
9.8765178e-06
2.2770869e-06