/*--------------------------------*- C++ -*----------------------------------*\
| =========                 |                                                 |
| \\      /  F ield         | OpenFOAM: The Open Source CFD Toolbox           |
|  \\    /   O peration     | Version:  5.0                                   |
|   \\  /    A nd           | Web:      www.OpenFOAM.org                      |
|    \\/     M anipulation  |                                                 |
\*---------------------------------------------------------------------------*/
FoamFile
{
    version     2.0;
    format      ascii;
    class       volScalarField;
    location    "340";
    object      nuTilda;
}
// * * * * * * * * * * * * * * * * * * * * * * * * * * * * * * * * * * * * * //

dimensions      [0 2 -1 0 0 0 0];

internalField   nonuniform List<scalar> 
9520
(
4.8288222e-33
5.1259469e-31
4.6741617e-33
2.6624173e-29
4.9634607e-31
4.5194862e-33
8.986618e-28
2.5784663e-29
4.8001588e-31
4.3727537e-33
2.2190144e-26
8.7044161e-28
2.4938894e-29
4.645812e-31
4.2444318e-33
4.2841452e-25
2.1495495e-26
8.4202086e-28
2.4143813e-29
4.5130937e-31
4.1404985e-33
6.7595373e-24
4.1501616e-25
2.0798e-26
8.15472e-28
2.3470895e-29
4.4084768e-31
4.0589554e-33
8.9798288e-23
6.5483481e-24
4.0162506e-25
2.0151165e-26
7.9329828e-28
2.2951779e-29
4.3273289e-31
3.9888945e-33
1.0233325e-21
8.7009932e-23
6.338409e-24
3.8930929e-25
1.9616523e-26
7.7643503e-28
2.254818e-29
4.253988e-31
3.9122962e-33
1.0149402e-20
9.9195701e-22
8.4253272e-23
6.1470472e-24
3.7921532e-25
1.9212333e-26
7.6311455e-28
2.2159388e-29
4.1664381e-31
3.8106454e-33
8.8788888e-20
9.844317e-21
9.6108684e-22
8.1762015e-23
5.9913018e-24
3.7157127e-25
1.88836e-26
7.4938987e-28
2.1660565e-29
4.0460792e-31
3.6744297e-33
7.0458038e-19
8.6153361e-20
9.5454319e-21
9.3333145e-22
7.9745965e-23
5.8724281e-24
3.6509394e-25
1.8522446e-26
7.3084739e-28
2.0966442e-29
3.8883248e-31
3.5118246e-33
5.9376811e-18
6.8070138e-19
8.3597507e-20
9.2758267e-21
9.1092142e-22
7.8190381e-23
5.7665915e-24
3.5755008e-25
1.8019177e-26
7.0512622e-28
2.0085637e-29
3.7097498e-31
3.3508613e-33
9.5233481e-17
5.5305888e-18
6.5864988e-19
8.1245357e-20
9.0572355e-21
8.9343925e-22
7.6731881e-23
5.6367385e-24
3.4688752e-25
1.7331277e-26
6.7366804e-28
1.9143299e-29
3.546533e-31
3.2317127e-33
3.2105653e-15
8.2030071e-17
5.1917661e-18
6.3760322e-19
7.9311551e-20
8.8857737e-21
8.7627775e-22
7.485662e-23
5.4525577e-24
3.3265833e-25
1.6522419e-26
6.4191647e-28
1.8352667e-29
3.4424212e-31
3.1904534e-33
1.1556951e-13
2.8009642e-15
7.0201244e-17
4.8471812e-18
6.2013335e-19
7.7817698e-20
8.7122445e-21
8.5327925e-22
7.2196629e-23
5.2139642e-24
3.166252e-25
1.5753033e-26
6.1765121e-28
1.7935779e-29
3.4297417e-31
3.2410291e-33
3.4377999e-12
1.0653009e-13
2.3221534e-15
5.605106e-17
4.5580517e-18
6.0752427e-19
7.6305932e-20
8.4703217e-21
8.2062247e-22
6.8854265e-23
4.9572981e-24
3.0228931e-25
1.5222388e-26
6.0785077e-28
1.8020734e-29
3.5117623e-31
3.364438e-33
7.978265e-11
3.3330337e-12
8.9891091e-14
1.6359261e-15
4.3682999e-17
4.3760944e-18
5.9576499e-19
7.4106065e-20
8.1240234e-21
7.8072562e-22
6.5428636e-23
4.7428097e-24
2.9348209e-25
1.5082528e-26
6.1525939e-28
1.8561899e-29
3.6555096e-31
3.5110863e-33
1.4079169e-09
8.0399363e-11
2.8619307e-12
6.1848486e-14
1.0259386e-15
3.6567017e-17
4.2579655e-18
5.7814125e-19
7.0887541e-20
7.7106482e-21
7.4179786e-22
6.2772634e-23
4.6283516e-24
2.9261013e-25
1.5358326e-26
6.362378e-28
1.9326695e-29
3.7994888e-31
3.6158141e-33
1.8432652e-08
1.4577515e-09
6.997374e-11
1.9588024e-12
3.71147e-14
7.0723225e-16
3.3572007e-17
4.1158429e-18
5.513557e-19
6.7102003e-20
7.3270276e-21
7.1401188e-22
6.1594322e-23
4.6414425e-24
2.992808e-25
1.5910856e-26
6.6115819e-28
1.9962202e-29
3.8734505e-31
3.6193893e-33
1.7543805e-07
1.9364355e-08
1.2805524e-09
4.7883598e-11
1.1877427e-12
2.6048201e-14
6.1897904e-16
3.177307e-17
3.8977329e-18
5.2001185e-19
6.3761881e-20
7.0778491e-21
7.0446731e-22
6.2098854e-23
4.7614233e-24
3.099539e-25
1.6468146e-26
6.7744249e-28
2.0114873e-29
3.822109e-31
3.4882963e-33
1.1855009e-06
1.8471492e-07
1.7212107e-08
8.8373089e-10
2.9854137e-11
9.1868122e-13
2.5494955e-14
5.9570982e-16
2.8870891e-17
3.6421395e-18
4.9371981e-19
6.1820826e-20
7.0213702e-21
7.134811e-22
6.3815455e-23
4.9202416e-24
3.1892669e-25
1.6716376e-26
6.7402713e-28
1.9552678e-29
3.6240437e-31
3.226257e-33
5.6599745e-06
1.2390687e-06
1.6554137e-07
1.2223536e-08
5.778152e-10
2.5729593e-11
1.0250496e-12
2.6804109e-14
4.8762261e-16
2.5184779e-17
3.4392288e-18
4.8035521e-19
6.1661181e-20
7.1386824e-21
7.3349403e-22
6.5696785e-23
5.0239151e-24
3.2033897e-25
1.6415032e-26
6.4530601e-28
1.8245845e-29
3.2998115e-31
2.8744474e-33
1.9169461e-05
5.8637967e-06
1.1237805e-06
1.2189813e-07
8.6690914e-09
5.4940579e-10
3.1807492e-11
1.151798e-12
2.1462832e-14
3.1484309e-16
2.2474526e-17
3.3508153e-18
4.8175275e-19
6.29049e-20
7.3332164e-21
7.5124324e-22
6.6477773e-23
4.9869329e-24
3.1038405e-25
1.5485804e-26
5.9312825e-28
1.6384252e-29
2.9075335e-31
2.5012705e-33
4.766291e-05
1.9681508e-05
5.3695975e-06
8.6471055e-07
9.3690837e-08
8.7264157e-09
7.221969e-10
3.7164234e-11
9.2707833e-13
1.1461445e-14
1.9227782e-16
2.1384554e-17
3.3783933e-18
4.931185e-19
6.4513289e-20
7.4629979e-21
7.5259072e-22
6.5155503e-23
4.7654323e-24
2.8877368e-25
1.4042341e-26
5.2650611e-28
1.4331793e-29
2.5283322e-31
2.1856287e-33
9.1909686e-05
4.865814e-05
1.8211709e-05
4.3117923e-06
7.110069e-07
9.8345815e-08
1.1638501e-08
8.5736344e-10
2.9934938e-11
4.7235864e-13
4.5173277e-15
1.4208751e-16
2.1510575e-17
3.4712734e-18
5.0469182e-19
6.5170989e-20
7.3951132e-21
7.2805445e-22
6.1390001e-23
4.3750574e-24
2.5891371e-25
1.2362368e-26
4.5936518e-28
1.2536167e-29
2.2467614e-31
1.9989578e-33
0.0001459278
9.3497033e-05
4.5549316e-05
1.5242093e-05
3.7474793e-06
7.6782992e-07
1.3001349e-07
1.3796458e-08
6.8910133e-10
1.4922347e-11
1.6487085e-13
1.7849229e-15
1.3028954e-16
2.2162881e-17
3.545994e-18
5.0567284e-19
6.381856e-20
7.0591067e-21
6.7671215e-22
5.5658877e-23
3.8871589e-24
2.270018e-25
1.0817568e-26
4.0712736e-28
1.1422744e-29
2.1319468e-31
1.9905144e-33
0.00019808501
0.00014821843
8.8643922e-05
3.9433658e-05
1.3828955e-05
4.1223063e-06
9.9423408e-07
1.5217384e-07
1.1068296e-08
3.4183369e-10
5.0071669e-12
5.0413085e-14
1.0328821e-15
1.3168957e-16
2.2601362e-17
3.5217758e-18
4.8888359e-19
6.0087005e-20
6.4767664e-21
6.0691465e-22
4.911906e-23
3.409374e-24
2.0046409e-25
9.7831113e-27
3.8311897e-28
1.1300659e-29
2.2235936e-31
2.1783851e-33
0.00024114147
0.0001996239
0.00014103938
7.8565553e-05
3.6820294e-05
1.5353574e-05
5.2066078e-06
1.1420786e-06
1.2208772e-07
5.5602761e-09
1.1738826e-10
1.5034627e-12
2.1501685e-14
9.1675761e-16
1.336705e-16
2.2237929e-17
3.3577249e-18
4.5373544e-19
5.4452939e-20
5.7576097e-21
5.3377289e-22
4.3289845e-23
3.0586286e-24
1.8616316e-25
9.5510214e-27
3.9565315e-28
1.2299768e-29
2.5246817e-31
2.5466735e-33
0.00027727818
0.00024194823
0.00018994715
0.0001266447
7.4366655e-05
4.0910783e-05
1.8887414e-05
5.8387713e-06
9.191443e-07
6.3017613e-08
2.0497829e-09
3.9519553e-11
7.5995573e-13
1.94916e-14
9.3575744e-16
1.2989824e-16
2.087654e-17
3.0690203e-18
4.0632062e-19
4.8084768e-20
5.0655835e-21
4.7505007e-22
3.9675815e-23
2.9330899e-24
1.8881397e-25
1.0265877e-26
4.4627902e-28
1.4345161e-29
3.0008748e-31
3.0481785e-33
0.0003080701
0.00027707399
0.00023058867
0.0001730579
0.00012065238
8.2122981e-05
4.9007811e-05
2.0656078e-05
4.7259885e-06
4.9349437e-07
2.5344777e-08
7.9691989e-10
2.4924016e-11
9.0662912e-13
2.315238e-14
8.7603542e-16
1.1926761e-16
1.8762062e-17
2.7164797e-18
3.5720013e-19
4.2490172e-20
4.5754128e-21
4.4681363e-22
3.9408197e-23
3.089233e-24
2.099146e-25
1.1891962e-26
5.2935059e-28
1.716784e-29
3.5858439e-31
3.611697e-33
0.00033401444
0.00030646059
0.00026436277
0.00021229787
0.00016683459
0.00013211118
9.608514e-05
5.2413151e-05
1.6885512e-05
2.6689591e-06
2.184166e-07
1.1543688e-08
6.1199631e-10
3.5404921e-11
1.2134318e-12
2.0743153e-14
7.1599504e-16
1.0476001e-16
1.6410151e-17
2.3827756e-18
3.1829791e-19
3.9130033e-20
4.4306806e-21
4.5961037e-22
4.2974617e-23
3.5281861e-24
2.4732703e-25
1.4214297e-26
6.3287727e-28
2.0347265e-29
4.1916837e-31
4.1531783e-33
0.00035428438
0.00033069426
0.00029293472
0.00024526145
0.00020654014
0.00018153831
0.00015172203
0.00010104195
4.3492643e-05
1.0115348e-05
1.3078729e-06
1.1768825e-07
1.0549758e-08
9.5327353e-10
4.9542697e-11
1.0999787e-12
1.1762743e-14
5.6193184e-16
9.0339319e-17
1.4391849e-17
2.1495662e-18
3.0004921e-19
3.9078944e-20
4.7094127e-21
5.158278e-22
5.0083996e-23
4.1931479e-24
2.95547e-25
1.6872775e-26
7.4050664e-28
2.338018e-29
4.7234638e-31
4.5895237e-33
0.00036918586
0.00034948693
0.00031625763
0.00027392263
0.00023976
0.00022303127
0.00020500771
0.00015805515
8.5562861e-05
2.7761434e-05
5.5231163e-06
8.3578449e-07
1.2404265e-07
1.7091973e-08
1.3531675e-09
4.5437264e-11
5.6542295e-13
4.9376429e-15
4.6047565e-16
7.9327811e-17
1.3192049e-17
2.0804015e-18
3.0909872e-19
4.276252e-20
5.4026769e-21
6.0870887e-22
5.9687388e-23
4.9783585e-24
3.4663131e-25
1.942454e-26
8.3436469e-28
2.5768777e-29
5.0957937e-31
4.8528409e-33
0.00037941075
0.00036313639
0.00033459388
0.00029781696
0.00026873772
0.00025659434
0.0002472957
0.00021054346
0.00013593551
5.8129105e-05
1.6902956e-05
4.1452956e-06
9.8319364e-07
2.0196331e-07
2.4174352e-08
1.2493152e-09
2.3471387e-11
1.6382121e-13
2.518043e-15
4.0248716e-16
7.410655e-17
1.3133896e-17
2.207835e-18
3.4660616e-19
4.9814001e-20
6.410829e-21
7.232499e-22
7.0157305e-23
5.7483e-24
3.9165521e-25
2.1425757e-26
8.9835557e-28
2.7112445e-29
5.248154e-31
4.9022112e-33
0.00038512512
0.00037237832
0.00034818827
0.00031716362
0.00029323157
0.00028483919
0.00027974779
0.00025091691
0.0001833569
9.7507147e-05
3.9060481e-05
1.4533788e-05
5.2599305e-06
1.5724733e-06
2.8098868e-07
2.2389707e-08
6.5805113e-10
6.7058535e-12
3.5160158e-14
1.9384412e-15
3.8375152e-16
7.5958299e-17
1.4325314e-17
2.524261e-18
4.074982e-19
5.909677e-20
7.5595289e-21
8.388013e-22
7.9562741e-23
6.3619204e-24
4.2247764e-25
2.2517693e-26
9.2124255e-28
2.718175e-29
5.1555135e-31
4.7300546e-33
0.00038696768
0.00037762423
0.0003578058
0.00033224711
0.00031336303
0.00030823664
0.00030574521
0.00028140276
0.00022165259
0.00013822168
7.1162545e-05
3.7045485e-05
1.924003e-05
8.1387757e-06
2.1294953e-06
2.6044093e-07
1.2117834e-08
1.9592824e-10
1.2996958e-12
1.202621e-14
1.8504429e-15
4.0466558e-16
8.4902322e-17
1.6618361e-17
2.9792158e-18
4.8109034e-19
6.8908822e-20
8.6281393e-21
9.3278469e-22
8.6073535e-23
6.7001725e-24
4.332589e-25
2.2496989e-26
8.987371e-28
2.5956195e-29
4.8311564e-31
4.3613816e-33
0.00038628142
0.00037977119
0.00036398467
0.00034376416
0.00032944062
0.00032719913
0.00032649367
0.00030543619
0.00025163511
0.00017459817
0.00010792519
7.1907939e-05
4.9688286e-05
2.8525656e-05
1.0637927e-05
1.9709891e-06
1.4583927e-07
3.843064e-09
4.2244628e-11
2.4471774e-13
8.7643886e-15
1.9980964e-15
4.6225292e-16
9.9516486e-17
1.9603182e-17
3.4868927e-18
5.5316186e-19
7.7267742e-20
9.3992392e-21
9.8616707e-22
8.8376514e-23
6.6947635e-24
4.2165477e-25
2.1351659e-26
8.3401148e-28
2.3614563e-29
4.3212176e-31
3.8463112e-33
0.00038370523
0.00037977893
0.00036776501
0.00035217167
0.00034218843
0.00034207921
0.00034270825
0.00032435313
0.00027711017
0.00020480592
0.0001435971
0.00011303229
9.5822122e-05
7.0262789e-05
3.5801369e-05
9.8220931e-06
1.1488984e-06
5.0086023e-08
9.3507794e-10
8.1330047e-12
6.6250049e-14
9.268056e-15
2.3278759e-15
5.4579098e-16
1.1692966e-16
2.2677425e-17
3.9442716e-18
6.0858042e-19
8.2390246e-20
9.7081077e-21
9.8735562e-22
8.593533e-23
6.3394722e-24
3.8925583e-25
1.9251858e-26
7.3649199e-28
2.0482982e-29
3.6927371e-31
3.2481758e-33
0.00037921701
0.00037833465
0.00037038054
0.00035842233
0.00035186384
0.00035372616
0.00035485393
0.00033883617
0.00029767311
0.00023304455
0.00017479299
0.00015289748
0.00014812833
0.00012920834
8.4680991e-05
3.3015784e-05
5.9928935e-06
4.3111629e-07
1.3624671e-08
2.0006409e-10
1.4964623e-12
4.4650457e-14
1.0965145e-14
2.7646198e-15
6.3718777e-16
1.3338406e-16
2.5188476e-17
4.2536564e-18
6.3479643e-19
8.3108257e-20
9.4784502e-21
9.3464035e-22
7.9078193e-23
5.6878277e-24
3.4093488e-25
1.6499241e-26
6.1936998e-28
1.695609e-29
3.0187706e-31
2.6306761e-33
0.00037628362
0.00037652123
0.00037247978
0.00036364253
0.00035895722
0.00036219354
0.00036368622
0.00034929129
0.00031421511
0.00025743229
0.00020283009
0.00018745927
0.00019569506
0.00019133112
0.00014985918
7.8247409e-05
2.1193311e-05
2.4678754e-06
1.3004848e-07
3.2400407e-09
3.9178332e-11
4.2240648e-13
5.103987e-14
1.3112654e-14
3.2024205e-15
7.1526371e-16
1.4522059e-16
2.659489e-17
4.3383481e-18
6.251851e-19
7.9119023e-20
8.736927e-21
8.3606233e-22
6.8864027e-23
4.8366102e-24
2.8349269e-25
1.3451736e-26
4.9660845e-28
1.3415369e-29
2.3648627e-31
2.0474314e-33
0.00037418476
0.0003772993
0.00037778379
0.00036787897
0.00036431483
0.00036789762
0.00036929646
0.00035635074
0.00032701778
0.00027824488
0.0002280358
0.00021561092
0.00023350145
0.00024353408
0.00021409643
0.00013882802
5.3038309e-05
9.577242e-06
8.2006761e-07
3.4246301e-08
7.2736136e-10
1.0891787e-11
4.2780495e-13
6.3346398e-14
1.5077975e-14
3.5307177e-15
7.6182263e-16
1.4983189e-16
2.6512294e-17
4.1707733e-18
5.8026545e-19
7.1017319e-20
7.6004562e-21
7.0680769e-22
5.67792e-23
3.9007858e-24
2.2404077e-25
1.044757e-26
3.8030503e-28
1.0166593e-29
1.7799542e-31
1.5359031e-33
0.00037127864
0.0003784622
0.0003780203
0.00037831951
0.00036780033
0.00037148153
0.00037225688
0.00036038809
0.00033665008
0.00029584264
0.00025011373
0.00023944175
0.00026220466
0.00028127461
0.00026539709
0.00019842154
9.9280314e-05
2.6231675e-05
3.4861112e-06
2.396994e-07
9.1743761e-09
2.9076544e-10
1.4073477e-11
7.3415138e-13
7.4272689e-14
1.6287631e-14
3.6698505e-15
7.6658442e-16
1.4594445e-16
2.4875825e-17
3.7738327e-18
5.0717682e-19
6.0089021e-20
6.2412208e-21
5.6508215e-22
4.4371212e-23
2.9880795e-24
1.6860931e-25
7.7491104e-27
2.7904273e-28
7.4081746e-30
1.2929751e-31
1.1161717e-33
0.00036926264
0.00037521599
0.00038073064
0.00037732096
0.00037768186
0.00037286417
0.0003729764
0.00036205537
0.00034362446
0.00031058929
0.00026929711
0.00025988782
0.00028346105
0.00030666474
0.00029895395
0.00024522205
0.00014851328
5.3447386e-05
1.0441905e-05
1.1457582e-06
8.1075258e-08
5.6241728e-09
4.8751657e-10
3.0516794e-11
1.0476624e-12
7.7381581e-14
1.6440116e-14
3.5926104e-15
7.2863551e-16
1.3361754e-16
2.1941193e-17
3.2119841e-18
4.174212e-19
4.7944682e-20
4.8421153e-21
4.2788776e-22
3.2936168e-23
2.180474e-24
1.2132262e-25
5.5173017e-27
1.97441e-28
5.2309462e-30
9.1458765e-32
7.935425e-34
0.00037196014
0.00036913114
0.00037822443
0.0003807438
0.00037519985
0.00037504123
0.00037167577
0.00036189298
0.00034863491
0.0003227708
0.00028586927
0.00027728539
0.00030078176
0.00032429279
0.00031976458
0.00027686904
0.00019074136
8.6613881e-05
2.3329379e-05
3.9655348e-06
5.2204358e-07
7.395696e-08
1.0846444e-08
1.0654683e-09
4.7176826e-11
9.9681457e-13
7.2237128e-14
1.5575946e-14
3.3223221e-15
6.5073097e-16
1.1487243e-16
1.8185732e-17
2.5718777e-18
3.2372588e-19
3.6125034e-20
3.5575728e-21
3.07982e-22
2.3340546e-23
1.526428e-24
8.423444e-26
3.8162466e-27
1.3671264e-28
3.6411898e-30
6.4213742e-32
5.6324674e-34
0.00036846043
0.00036831105
0.00036981575
0.00037963174
0.00037872236
0.00037108233
0.00036893202
0.00036042736
0.00035241978
0.00033292513
0.00030008803
0.00029201581
0.00031465791
0.00033772448
0.00033449254
0.00029869312
0.00022324617
0.00011959077
4.1754082e-05
1.0581709e-05
2.5173408e-06
6.4866245e-07
1.5006271e-07
2.2877959e-08
1.6252669e-09
4.4183468e-11
6.1810874e-13
6.3815817e-14
1.3951638e-14
2.8920632e-15
5.4518341e-16
9.2723667e-17
1.4171026e-17
1.9398452e-18
2.371361e-19
2.580546e-20
2.4907013e-21
2.1267822e-22
1.5997515e-23
1.0434269e-24
5.7745048e-26
2.6386285e-27
9.5804751e-29
2.594321e-30
4.6572638e-32
4.1557302e-34
0.00035833397
0.00036340748
0.0003646591
0.00037023794
0.00037899281
0.00037452113
0.00036348057
0.00035858148
0.0003553883
0.00034181183
0.00031230591
0.00030435039
0.00032575156
0.00034708399
0.00034436074
0.00031446934
0.00025189734
0.00014889247
6.3755542e-05
2.2943496e-05
9.0669873e-06
3.7926853e-06
1.3087649e-06
3.0062626e-07
3.3928273e-08
1.5304042e-09
2.3276948e-11
3.2130247e-13
5.4581655e-14
1.1809165e-14
2.3604518e-15
4.2859921e-16
7.0349542e-17
1.0405709e-17
1.3839657e-18
1.6521584e-19
1.7671011e-20
1.6900124e-21
1.4439473e-22
1.0964053e-23
7.2736826e-25
4.1221187e-26
1.9394413e-27
7.2667477e-29
2.0281153e-30
3.7369957e-32
3.4017322e-34
0.00035826664
0.00035530968
0.00035716269
0.00036088691
0.0003693806
0.00037603319
0.00036687397
0.00035191495
0.00034369999
0.00034947578
0.00032292415
0.00031458349
0.00033422392
0.00035365979
0.00034993145
0.00032507475
0.00027440568
0.00018300675
8.700605e-05
4.1426644e-05
2.433409e-05
1.4935816e-05
7.3513438e-06
2.4610212e-06
4.3050693e-07
3.2000845e-08
8.3574405e-10
6.7916501e-12
2.0886308e-13
4.4675778e-14
9.3818385e-15
1.8074162e-15
3.1684318e-16
5.0374856e-17
7.2531407e-18
9.4557417e-19
1.1168371e-19
1.1960117e-20
1.1617523e-21
1.0232104e-22
8.0977432e-24
5.641376e-25
3.3681478e-26
1.6671241e-27
6.5309395e-29
1.8881598e-30
3.5654036e-32
3.289536e-34
0.00035694915
0.00035898569
0.00035087495
0.00035043229
0.00035626111
0.00036656789
0.00036997742
0.00035531906
0.00033620307
0.0003235484
0.00033232021
0.00032298824
0.00034044013
0.00035735126
0.00035223171
0.00033107817
0.00029175957
0.00021286833
0.00011566019
6.4394841e-05
4.9493038e-05
4.0806907e-05
2.7277014e-05
1.2848776e-05
3.382465e-06
4.0539514e-07
1.8301816e-08
2.5372449e-10
1.4863462e-12
1.5885821e-13
3.4464042e-14
6.9969897e-15
1.3033756e-15
2.2185267e-16
3.4485734e-17
4.9049192e-18
6.4077196e-19
7.724152e-20
8.6191016e-21
8.898723e-22
8.4403575e-23
7.2136489e-24
5.4026752e-25
3.4333658e-26
1.7854266e-27
7.2468521e-29
2.1424793e-30
4.0891857e-32
3.7745956e-34
0.00034063079
0.00036192996
0.00035781802
0.00034502017
0.00034263869
0.00035020983
0.00036113548
0.00036015265
0.00033980046
0.0003156284
0.00029804089
0.00032964765
0.00034471389
0.00035880294
0.00035165711
0.00033341844
0.00030449958
0.00023907868
0.0001448782
8.7975119e-05
8.1282359e-05
8.1269029e-05
6.9474898e-05
4.3966309e-05
1.6851895e-05
3.1744433e-06
2.4250314e-07
6.1690757e-09
4.3908806e-11
6.1024853e-13
1.1804468e-13
2.5024987e-14
4.9306608e-15
8.9630075e-16
1.5043497e-16
2.3429231e-17
3.4129125e-18
4.6886937e-19
6.1013489e-20
7.4897028e-21
8.5562832e-22
8.9002402e-23
8.199297e-24
6.4924577e-25
4.287601e-26
2.2837549e-27
9.3867754e-29
2.7856969e-30
5.3005278e-32
4.8496515e-34
0.00033481145
0.00034753876
0.00036469399
0.00035465548
0.00033732772
0.0003332772
0.00034209342
0.00035238531
0.00034639943
0.00031953587
0.00029008225
0.00026729336
0.00034702982
0.00035811913
0.00034881557
0.00033294796
0.00031337414
0.00026163887
0.00017319946
0.00011297847
0.00010935328
0.00012824349
0.00012892502
0.00010299035
5.4841062e-05
1.5757587e-05
1.9884017e-06
9.0598155e-08
1.2451666e-09
7.0692512e-12
3.8739024e-13
8.3293502e-14
1.7277536e-14
3.352727e-15
6.0996119e-16
1.0498605e-16
1.730038e-17
2.7536961e-18
4.2315016e-19
6.1978173e-20
8.4642408e-21
1.0513052e-21
1.1586204e-22
1.1067186e-23
8.9383487e-25
5.9554922e-26
3.1767621e-27
1.3011305e-28
3.8346658e-30
7.2277196e-32
6.5360872e-34
0.00034748862
0.00033859046
0.00035283205
0.00036533846
0.00034940765
0.00032786334
0.00032185298
0.00033146587
0.00033991442
0.00032799928
0.00029435965
0.00025970007
0.00023203771
0.0003553687
0.00034391313
0.000330474
0.00031931093
0.00028056283
0.00019998063
0.0001378862
0.00013509519
0.00016863544
0.00018997448
0.00017678943
0.00012238941
5.1262662e-05
1.0370244e-05
8.226351e-07
2.1628066e-08
2.0225044e-10
1.7611717e-12
2.6078689e-13
5.6531875e-14
1.1734834e-14
2.3337461e-15
4.5034974e-16
8.5383941e-17
1.594261e-17
2.8952767e-18
4.9987177e-19
7.995294e-20
1.1571101e-20
1.4856966e-21
1.66312e-22
1.5950845e-23
1.2845047e-24
8.5016738e-26
4.4954976e-27
1.8232665e-28
5.3181105e-30
9.917123e-32
4.9152139e-36
0.00035046024
0.00034597085
0.00034105611
0.00035647941
0.0003638535
0.0003422064
0.00031624578
0.00030813536
0.00031774684
0.00032310166
0.00030464235
0.00026454721
0.00022505849
0.00019035542
0.00033717502
0.00032652803
0.00032330464
0.00029617621
0.0002249022
0.00016196636
0.000158898
0.00019845743
0.00024024448
0.00024276167
0.00020119256
0.00011515246
3.5660541e-05
4.7615244e-06
2.3042945e-07
4.1536215e-09
3.0247071e-11
8.275148e-13
1.7438501e-13
3.8894647e-14
8.5643663e-15
1.8836364e-15
4.1585107e-16
9.1077582e-17
1.9293779e-17
3.8432177e-18
7.0303918e-19
1.1593123e-19
1.6980307e-20
2.1813947e-21
2.427696e-22
2.3048664e-23
1.8348149e-24
1.2001246e-25
6.2729352e-27
2.5161638e-28
7.2628791e-30
8.0400633e-34
1.7813906e-38
0.00032869555
0.00034313601
0.00034247243
0.00034252386
0.00035838407
0.00036026607
0.00033270835
0.00030205999
0.00029176666
0.00030023568
0.00030161005
0.00027634668
0.00022984171
0.00018393753
0.00014111958
0.00032146425
0.0003261084
0.00030932481
0.0002477224
0.00018500129
0.00018060009
0.00022371723
0.00027241605
0.00029109753
0.00026524199
0.00019120857
8.5241509e-05
1.8219074e-05
1.5570174e-06
5.2264084e-08
6.8387214e-10
5.3009059e-12
5.1682876e-13
1.236658e-13
3.0601859e-14
7.7678901e-15
1.997918e-15
5.0647591e-16
1.225718e-16
2.7569039e-17
5.6548883e-18
1.0441848e-18
1.7176934e-19
2.493749e-20
3.1653881e-21
3.4758964e-22
3.2532626e-23
2.5549106e-24
1.6502241e-25
8.5269079e-27
3.3848696e-28
6.4863575e-32
3.0544824e-36
3.1187563e-41
0.00031554341
0.00031851088
0.00033349287
0.00033764104
0.00034312891
0.00035827829
0.00035437695
0.00032055949
0.00028505356
0.00027222471
0.0002784936
0.00027510926
0.00024212018
0.0001880611
0.00013525869
8.9009872e-05
0.00032821746
0.00032105954
0.00026851845
0.00020694102
0.00020053204
0.00024505101
0.00029817706
0.00032250213
0.00030686364
0.0002535778
0.00015131548
4.8548455e-05
6.9148356e-06
4.1306258e-07
1.0021102e-08
9.9373535e-11
1.7563893e-12
3.8211425e-13
1.075309e-13
3.1597848e-14
9.3600305e-15
2.6919559e-15
7.2887437e-16
1.8187436e-16
4.1241029e-17
8.4208269e-18
1.5376336e-18
2.4934589e-19
3.5645675e-20
4.4554962e-21
4.8181629e-22
4.4442372e-23
3.4444775e-24
2.1987541e-25
1.1243805e-26
3.3634016e-30
2.7062291e-34
5.1670076e-39
2.6938133e-44
0.0003294749
0.00030843805
0.00030674593
0.00032234995
0.00033242229
0.00034239442
0.00035593744
0.00034570806
0.00030557951
0.00026471107
0.00024879918
0.00025193038
0.00024240507
0.00019991433
0.00013794376
8.52014e-05
4.6042986e-05
0.00033241353
0.0002874886
0.00022776207
0.00021892465
0.00026356224
0.00031883357
0.00034656062
0.00033469813
0.00029195696
0.00021330155
9.6199852e-05
2.1228931e-05
2.1252565e-06
9.1660707e-08
1.6347022e-09
1.4950473e-11
1.1804289e-12
3.7240623e-13
1.2570157e-13
4.2112774e-14
1.3469686e-14
4.0117548e-15
1.0957487e-15
2.7183115e-16
6.0833554e-17
1.2219487e-17
2.192565e-18
3.4940289e-19
4.9122288e-20
6.0454889e-21
6.4387254e-22
5.8586863e-23
4.4866956e-24
2.8344553e-25
1.2487372e-28
1.5766037e-32
4.7972128e-37
3.9921721e-42
1.2232143e-47
0.00034270948
0.00032919086
0.00029993457
0.00029361525
0.0003109236
0.00032567006
0.00033964993
0.00035078303
0.00033426972
0.00028704983
0.00024058483
0.00022126052
0.00022033314
0.00020166523
0.00014784122
8.716439e-05
4.3676367e-05
1.8570069e-05
0.00030543815
0.00024747182
0.00023585509
0.00027961393
0.00033633235
0.00036469563
0.00035411208
0.00031762239
0.0002581643
0.00015108092
4.7908154e-05
7.4872795e-06
5.4055774e-07
1.7123547e-08
2.3269069e-10
4.5190895e-12
1.2662252e-12
4.8311877e-13
1.7964266e-13
6.2855598e-14
2.0331324e-14
6.018593e-15
1.6199799e-15
3.9455564e-16
8.658547e-17
1.7057009e-17
3.0038368e-18
4.7034984e-19
6.506544e-20
7.8890227e-21
8.2854644e-22
7.4479474e-23
5.64475e-24
3.5263271e-27
6.6428908e-31
3.0925423e-35
3.5021739e-40
1.6462497e-45
3.3219469e-51
0.00032217112
0.0003506145
0.00032687871
0.0002900675
0.00027919399
0.00029730405
0.00031706615
0.00033421415
0.00034259067
0.00031915297
0.00026449157
0.00021244211
0.00018978958
0.00018146823
0.00015068876
9.3900952e-05
4.482207e-05
1.729416e-05
5.5452241e-06
0.00026605584
0.00025136095
0.0002931112
0.0003508258
0.00037916182
0.00036692795
0.00033305756
0.00028805779
0.00020612307
8.4866815e-05
1.9153338e-05
2.1638413e-06
1.1480845e-07
2.7177867e-09
3.5722089e-11
4.2611226e-12
1.7743642e-12
7.2063447e-13
2.723709e-13
9.4763712e-14
3.0170031e-14
8.7520796e-15
2.3051105e-15
5.4937728e-16
1.1807435e-16
2.2808196e-17
3.9440885e-18
6.0736746e-19
8.2771291e-20
9.8970465e-21
1.02666e-21
9.1327946e-23
7.8760659e-26
2.1381296e-29
1.4818528e-33
2.3260823e-38
1.2614836e-43
4.299994e-49
6.0006209e-55
0.00028338633
0.0003369466
0.00035548928
0.00032264839
0.00027864138
0.00026325415
0.00028175645
0.00030579995
0.00032547298
0.00033058382
0.00029968708
0.00023677011
0.00017984551
0.00015223516
0.00013420913
9.5877773e-05
4.8829846e-05
1.768919e-05
5.0157333e-06
1.1826529e-06
0.00026530777
0.0003038975
0.00036173471
0.0003901769
0.00037473447
0.00034037685
0.00030499451
0.00024746581
0.00013685453
3.8045407e-05
6.2245743e-06
5.1800288e-07
2.0544262e-08
3.8654655e-10
1.5751478e-11
6.1865159e-12
2.7080987e-12
1.095219e-12
4.0676533e-13
1.3838273e-13
4.3013437e-14
1.2182128e-14
3.1349109e-15
7.3091204e-16
1.5391465e-16
2.9177696e-17
4.9598274e-18
7.5214519e-19
1.0112795e-19
1.1940294e-20
1.2255944e-21
1.4299101e-24
5.4530166e-28
5.4923099e-32
1.2233233e-36
7.6500491e-42
2.9422279e-47
7.7662487e-53
7.8085895e-59
0.00027775301
0.00029932138
0.00034882674
0.00035758674
0.00031633346
0.00026561962
0.00024556442
0.00026354218
0.00029118227
0.0003126987
0.0003139991
0.00027437215
0.0002028185
0.00014137232
0.00010891636
8.4109988e-05
5.0059898e-05
1.9518116e-05
5.0831686e-06
1.0308117e-06
1.7943594e-07
0.00031157735
0.00036822153
0.0003969383
0.0003777637
0.00034112073
0.00031223697
0.00027546982
0.00018738748
7.29918e-05
1.3746134e-05
1.6636876e-06
1.0382371e-07
3.1678609e-09
8.0609349e-11
2.056482e-11
9.530796e-12
4.0931314e-12
1.6125382e-12
5.8282733e-13
1.9306032e-13
5.848747e-14
1.6165035e-14
4.0655335e-15
9.2795233e-16
1.916503e-16
3.5698802e-17
5.9736603e-18
8.9347397e-19
1.1867447e-19
1.3862432e-20
2.1533657e-23
1.1311864e-26
1.6221383e-30
5.1493059e-35
3.9992217e-40
1.5222691e-45
5.0545574e-51
1.0253641e-56
7.781578e-63
0.00031635618
0.00028865904
0.00031371742
0.00035768035
0.00035692737
0.00030798692
0.00025077637
0.00022578
0.00024234732
0.00027266776
0.00029544556
0.00029218843
0.00024116221
0.00016077878
9.850506e-05
6.5765302e-05
4.2892325e-05
2.0232526e-05
5.6868975e-06
1.0277336e-06
1.4937742e-07
1.9533922e-08
0.00036946588
0.00039777883
0.00037551678
0.00033596349
0.0003120526
0.00029182885
0.0002311861
0.00011562894
3.1789003e-05
4.0460063e-06
3.6999554e-07
1.7731212e-08
5.1402908e-10
6.749045e-11
3.1558672e-11
1.4273461e-11
5.9264749e-12
2.2633101e-12
7.9474031e-13
2.5622068e-13
7.5669166e-14
2.0421075e-14
5.0238043e-15
1.1237862e-15
2.2792829e-16
4.1779278e-17
6.8933162e-18
1.0187294e-18
1.3386706e-19
2.7322137e-22
1.9463e-25
3.9071856e-29
1.7569596e-33
1.7913254e-38
7.0199598e-44
2.3119332e-49
6.6171767e-55
1.0392381e-60
7.0059052e-67
0.00036537948
0.00031819366
0.00029860259
0.00032637542
0.00036351627
0.00035355331
0.00029727958
0.00023383546
0.00020374656
0.00021802314
0.00024979664
0.00027288556
0.0002620159
0.0001957431
0.0001124686
5.75764e-05
3.1880109e-05
1.6967674e-05
5.9806355e-06
1.1662871e-06
1.4522295e-07
1.5572774e-08
1.5550328e-09
0.00039159018
0.00036708152
0.00032531389
0.00030588351
0.000299925
0.00026414987
0.00016313166
5.8353146e-05
1.1380119e-05
9.8454265e-07
6.9990819e-08
2.9019814e-09
2.3713335e-10
9.9582893e-11
4.6910108e-11
2.0337858e-11
8.1416895e-12
3.0142866e-12
1.0288163e-12
3.2302486e-13
9.3069741e-14
2.4548338e-14
5.9139782e-15
1.298214e-15
2.5896479e-16
4.6789575e-17
7.6260701e-18
1.1155474e-18
2.957376e-21
2.819792e-24
7.8149321e-28
4.933158e-32
6.770881e-37
3.0039054e-42
8.9582315e-48
2.8610978e-53
6.7622089e-59
9.5188569e-65
6.1316926e-71
0.00037791858
0.00035623627
0.00031845579
0.00030781239
0.00033687522
0.00036618573
0.00034729314
0.00028392932
0.0002144447
0.00017942973
0.0001905604
0.00022187957
0.00024374896
0.00021779584
0.00014064311
6.5679683e-05
2.6563482e-05
1.1852322e-05
4.9305065e-06
1.2452994e-06
1.6697926e-07
1.4520235e-08
1.1960008e-09
9.2646124e-11
0.00035220231
0.00030975282
0.00029511841
0.00030204697
0.00028868104
0.00020999468
9.3688772e-05
2.4243282e-05
3.3919697e-06
2.0807489e-07
1.3549841e-08
1.0851374e-09
3.2086959e-10
1.4807621e-10
6.625296e-11
2.7477682e-11
1.0588882e-11
3.8043885e-12
1.2634004e-12
3.8667174e-13
1.0879371e-13
2.8077778e-14
6.6327911e-15
1.43098e-15
2.8121155e-16
5.0175172e-17
8.0951969e-18
2.7588718e-20
3.4815051e-23
1.3165486e-26
1.156282e-30
2.1544355e-35
1.1608125e-40
3.2997384e-46
9.7523431e-52
2.8842902e-57
6.2853872e-63
8.4664332e-69
5.2204093e-75
0.00033110569
0.00035764327
0.00034408282
0.00031803652
0.00031581302
0.00034468192
0.00036563637
0.00033787701
0.0002675561
0.00019227874
0.00015310713
0.00016021347
0.00019192448
0.00020282522
0.00016008544
8.4378892e-05
2.9926208e-05
9.180477e-06
3.2243415e-06
1.0136587e-06
1.8019839e-07
1.665449e-08
1.0637388e-09
6.9424208e-11
4.1843789e-12
0.00029028993
0.00028099291
0.00030020766
0.00030735023
0.00025311993
0.00013645858
4.4191243e-05
8.3982928e-06
8.9571776e-07
6.3608227e-08
9.1776871e-09
1.7691539e-09
5.2004012e-10
2.1154311e-10
8.8749448e-11
3.5058075e-11
1.3026688e-11
4.5489609e-12
1.4713773e-12
4.3939443e-13
1.2086208e-13
3.0560204e-14
7.0895152e-15
1.5057594e-15
2.92056e-16
5.1563429e-17
2.2373814e-19
3.6990766e-22
1.8893164e-25
2.2903404e-29
5.8048448e-34
3.9348335e-39
1.1824839e-44
2.9910609e-50
9.2658005e-56
2.6979423e-61
5.6798516e-67
7.314186e-73
4.3282675e-79
0.00026784983
0.00030501118
0.00033391836
0.00033077693
0.00031693922
0.00032199195
0.00034922933
0.00036144447
0.00032517937
0.00024737635
0.00016745134
0.00012552518
0.00013111641
0.00015432556
0.00014952399
9.9187504e-05
3.9555364e-05
1.001711e-05