/*--------------------------------*- C++ -*----------------------------------*\
| =========                 |                                                 |
| \\      /  F ield         | OpenFOAM: The Open Source CFD Toolbox           |
|  \\    /   O peration     | Version:  5.0                                   |
|   \\  /    A nd           | Web:      www.OpenFOAM.org                      |
|    \\/     M anipulation  |                                                 |
\*---------------------------------------------------------------------------*/
FoamFile
{
    version     2.0;
    format      ascii;
    class       volScalarField;
    location    "340";
    object      p;
}
// * * * * * * * * * * * * * * * * * * * * * * * * * * * * * * * * * * * * * //

dimensions      [0 2 -2 0 0 0 0];

internalField   nonuniform List<scalar> 
9520
(
3.32752e-05
3.3712116e-05
-3.6653433e-05
3.4230938e-05
-3.4306333e-05
-6.4029889e-05
3.4452605e-05
-3.0386585e-05
-5.9741703e-05
-0.00010762104
3.4083676e-05
-2.5692355e-05
-5.2516127e-05
-0.00010083832
-0.00014423211
3.2850563e-05
-2.1072461e-05
-4.3859622e-05
-8.9223009e-05
-0.00013464259
-0.00018918225
3.045687e-05
-1.743451e-05
-3.5215898e-05
-7.5000436e-05
-0.0001181561
-0.00017603682
-0.00023656132
2.646858e-05
-1.532721e-05
-2.799486e-05
-6.020233e-05
-9.7662274e-05
-0.00015338624
-0.00021972558
-0.00029182673
2.052047e-05
-1.5175961e-05
-2.3314747e-05
-4.6692625e-05
-7.5849938e-05
-0.0001248598
-0.00019021591
-0.00027106084
-0.00035386713
1.2918891e-05
-1.7038142e-05
-2.200722e-05
-3.6191836e-05
-5.5219938e-05
-9.3849966e-05
-0.00015214827
-0.00023411774
-0.00032862961
-0.00042526745
4.9954531e-06
-2.1115974e-05
-2.4289397e-05
-3.0095904e-05
-3.8078293e-05
-6.3369981e-05
-0.00010954363
-0.0001854904
-0.00028338769
-0.00039546453
-0.00050647103
-3.9126484e-06
-2.8828257e-05
-3.0355151e-05
-2.9370853e-05
-2.631496e-05
-3.6274865e-05
-6.6138299e-05
-0.00012918262
-0.00022311775
-0.00034161517
-0.0004721586
-0.00059819751
-1.5185907e-05
-3.7245735e-05
-3.9494057e-05
-3.4573147e-05
-2.1269549e-05
-1.5336618e-05
-2.5304486e-05
-6.9743817e-05
-0.00015224384
-0.0002690943
-0.00040972038
-0.00055960172
-0.00070076088
-2.6629361e-05
-3.9664433e-05
-5.0331971e-05
-4.3478325e-05
-2.4148269e-05
-3.5227543e-06
9.6589115e-06
-1.1093539e-05
-7.53746e-05
-0.00018291259
-0.00032474465
-0.00048891056
-0.00065827473
-0.00081420704
-3.2091289e-05
-4.2649181e-05
-5.9658467e-05
-5.6532208e-05
-3.8007151e-05
-3.7841048e-06
3.5566221e-05
4.3286453e-05
3.3979294e-06
-8.7539186e-05
-0.00022220893
-0.0003917759
-0.00057998297
-0.00076838171
-0.00093824364
-4.8161804e-05
-5.1720182e-05
-6.7939082e-05
-8.3204635e-05
-6.9561744e-05
-1.9778924e-05
4.9200753e-05
9.0417892e-05
8.0478218e-05
1.2858722e-05
-0.00010682481
-0.00027310872
-0.00047149123
-0.00068346382
-0.00088978818
-0.001072276
-3.985579e-05
-5.2159545e-05
-6.3928852e-05
-0.00012084405
-0.00011095451
-5.3482921e-05
4.7307031e-05
0.00012832876
0.0001532023
0.0001144862
1.7126582e-05
-0.00013751044
-0.00033749413
-0.00056482076
-0.00079946426
-0.0010220705
-0.0012154298
-5.4628018e-05
-6.2298047e-05
-4.6580009e-05
-0.00014097491
-0.00016440367
-0.00010334971
3.0015224e-05
0.00015717034
0.00022017652
0.00021428548
0.00014567092
1.0673972e-05
-0.00018231144
-0.000416587
-0.00067191594
-0.00092782632
-0.0011644967
-0.001366584
-2.8410202e-05
-7.7025741e-05
-2.2105884e-05
-0.00015189226
-0.00024698484
-0.00017289507
-5.0425693e-06
0.00017619841
0.00028160566
0.00030969315
0.0002749775
0.00016695977
-1.0441841e-05
-0.00024275471
-0.00051085844
-0.00079351496
-0.0010682357
-0.0013160181
-0.0015244275
-9.0698992e-05
-9.5894082e-05
4.5628413e-05
-0.00013229772
-0.00035641848
-0.00027572147
-6.368586e-05
0.00018446454
0.00033837949
0.00039948595
0.00040167489
0.00032680331
0.00017323242
-4.7786489e-05
-0.00031985495
-0.0006217929
-0.00092973672
-0.0012197393
-0.0014753761
-0.0016875437
-7.2065624e-05
-0.00012658417
0.00012742923
-8.6687431e-05
-0.00048319291
-0.00042324256
-0.00014694906
0.00018266687
0.00039391552
0.00048301978
0.00052312946
0.00048566923
0.00036368173
0.00016361721
-0.0001028758
-0.00041602498
-0.00075086096
-0.0010798929
-0.0013811484
-0.0016411724
-0.0018544917
-0.00017776074
-0.00015568433
0.00031459988
-2.1340255e-05
-0.00064420356
-0.00062674017
-0.00026362442
0.00017251416
0.00045649437
0.00056706361
0.00063750725
0.00063812604
0.00055538896
0.00038641129
0.00013589374
-0.00017930316
-0.00053389046
-0.00089745696
-0.0012427274
-0.0015511566
-0.0018119638
-0.0020237776
-0.00021196004
-0.00020808656
0.00048921798
0.00010451259
-0.00082133789
-0.00091048728
-0.00041866619
0.00015084265
0.00052074188
0.00064672264
0.00074031645
0.00077814169
0.00074196029
0.00061506876
0.00039182681
8.4933265e-05
-0.00028074894
-0.00067283217
-0.0010595736
-0.0014171879
-0.0017283766
-0.001986287
-0.0021938224
-0.0002951114
-0.00027283914
0.00085759441
0.00021916569
-0.0010467166
-0.0012764242
-0.0006175604
0.00012304825
0.00059905754
0.00073393098
0.00080536459
0.00089685388
0.00091659417
0.00084359649
0.00065993275
0.00037261445
5.5590799e-06
-0.00040731865
-0.00083113992
-0.0012371244
-0.0016019751
-0.0019113491
-0.0021625356
-0.0023631233
-0.00030674707
-0.00031705812
0.0011568881
0.00058166757
-0.0012717537
-0.0018017187
-0.00086640247
8.446642e-05
0.00070360542
0.0008441896
0.00085304188
0.0009977657
0.0010713094
0.0010659484
0.00093522596
0.00067931154
0.00032138418
-0.00010329681
-0.00055749075
-0.0010090051
-0.0014290064
-0.0017956134
-0.0020983813
-0.0023390314
-0.0025303312
-0.00042286732
-0.00042907647
0.0016233623
0.00081060296
-0.0015514611
-0.0024239648
-0.001160282
3.899582e-05
0.00084266219
0.00099212029
0.00090377927
0.0010664404
0.0012082343
0.0012765984
0.0012130748
0.0010009161
0.00066269796
0.00023627879
-0.00023971261
-0.00073152867
-0.0012058793
-0.001633669
-0.0019964114
-0.0022877094
-0.0025143201
-0.0026940932
-0.00051026856
-0.00051961313
0.0020170276
0.0011416792
-0.001792522
-0.0032137031
-0.0015088909
-2.0167237e-05
0.0010446569
0.0011879216
0.00096403924
0.0010781045
0.0013131887
0.0014691016
0.0014894045
0.0013339674
0.0010259942
0.00060807178
0.00011984803
-0.00040474897
-0.00092973091
-0.001420319
-0.0018494835
-0.0022026325
-0.0024778412
-0.0026871049
-0.0028531387
-0.00042180229
-0.00054298089
0.0025989277
0.001570375
-0.0020809857
-0.0038307823
-0.002013499
-0.00010920158
0.0013318806
0.0014511567
0.0010252679
0.0010326592
0.0013585145
0.0016339502
0.0017623622
0.0016778561
0.0014091666
0.0010088324
0.00051774946
-3.03252e-05
-0.00059931722
-0.0011508705
-0.001650718
-0.0020748515
-0.002412539
-0.0026671571
-0.0028559782
-0.0030063803
-0.00033656531
-0.00055046209
0.0031892592
0.0020483921
-0.0023322675
-0.0050180557
-0.0027127961
-0.00025373209
0.0017201384
0.0017844683
0.0011049974
0.00091801967
0.0013280485
0.0017566045
0.0020286548
0.0020341901
0.0018125586
0.0014352495
0.00094947083
0.00038825421
-0.00021528948
-0.00082247387
-0.0013935929
-0.0018956053
-0.002307789
-0.0026238427
-0.0028538237
-0.0030196398
-0.003152846
-0.00021007341
-0.00058229485
0.0037101502
0.002293926
-0.0029556717
-0.006495101
-0.0036237011
-0.00043685545
0.0022388266
0.0022160717
0.0011943858
0.0007340883
0.0011908257
0.0018231828
0.0022771585
0.0024044208
0.0022364509
0.001884716
0.001410016
0.0008458736
0.00021933345
-0.00043448297
-0.001073315
-0.0016567164
-0.0021530906
-0.0025458585
-0.0028348424
-0.00303649
-0.003176999
-0.0032917188
-0.00016686577
-0.00043620254
0.0040776486
0.0024712685
-0.0035192837
-0.0080809234
-0.0043573035
-0.00057716399
0.0028929261
0.0027445135
0.0013206567
0.00044104323
0.00092674736
0.0018112301
0.0025080976
0.0027881645
0.0026844675
0.0023558584
0.0018943477
0.0013357297
0.00069934113
1.112838e-05
-0.00068755281
-0.001351122
-0.0019384143
-0.0024206428
-0.0027872684
-0.0030444515
-0.0032141852
-0.0033271895
-0.0034223252
-0.00012916088
-0.00025060861
0.0041423722
0.0027721878
-0.0039198446
-0.009372161
-0.0053488698
-0.00081203352
0.0036905897
0.0033705215
0.0014793057
2.6302243e-05
0.00047492783
0.0016979751
0.0027127937
0.0031964392
0.0031624323
0.0028503625
0.0023970861
0.0018484596
0.0012168518
0.00051011442
-0.00023612072
-0.00097405513
-0.0016542301
-0.0022361281
-0.0026959589
-0.0030298504
-0.0032506446
-0.0033855938
-0.0034694105
-0.0035440419
-0.00016543557
-0.00010655969
0.0040423894
0.0030295303
-0.0045254522
-0.011159697
-0.0070638735
-0.001507522
0.0045862442
0.004074809
0.0017107014
-0.00056540513
-0.00019454827
0.0014538974
0.002883366
0.0036331679
0.0036817974
0.0033710406
0.0029173607
0.0023756017
0.0017629039
0.0010567025
0.00027907998
-0.00052323584
-0.0012935579
-0.0019801331
-0.0025469074
-0.0029763501
-0.0032711178
-0.0034516876
-0.0035495309
-0.0036027504
-0.0036563485
-0.00025424226
3.7146134e-05
0.0036719561
0.0035031572
-0.0054112769
-0.012748376
-0.0087757469
-0.0023957853
0.0058750562
0.0047625592
0.0019957031
-0.0013632979
-0.0011817112
0.0010491237
0.0030019266
0.0041127962
0.0042523489
0.0039283947
0.0034494217
0.0029137591
0.0023328906
0.001645053
0.00085256721
8.364753e-07
-0.00085216766
-0.0016441201
-0.0023258113
-0.0028679632
-0.0032591091
-0.0035097565
-0.0036462974
-0.0037047296
-0.0037264958
-0.0037591499
-0.00038145824
0.00015255331
0.0032513868
0.0041427389
-0.0063357228
-0.013937364
-0.010106986
-0.0027979848
0.0074411651
0.005475791
0.0023856427
-0.0024493002
-0.0025403196
0.00045359602
0.0030409928
0.004639803
0.0048964226
0.0045274902
0.0039977336
0.0034451742
0.0028883765
0.0022585152
0.0014747092
0.0005930324
-0.00032842747
-0.001221597
-0.0020229468
-0.0026892008
-0.0031966569
-0.0035420608
-0.0037439332
-0.0038337505
-0.0038504201
-0.0038408133
-0.0038524713
-0.00048476072
0.00023365617
0.0027846554
0.0045628666
-0.007111473
-0.015143436
-0.011387728
-0.0030336566
0.0085373239
0.0060491857
0.0027904754
-0.0038351042
-0.0042101723
-0.00035131153
0.0029622767
0.0052250314
0.0056251584
0.0051885976
0.0045562901
0.0039651824
0.0034224139
0.0028652786
0.0021269259
0.0012447903
0.00027506278
-0.00070803339
-0.0016292583
-0.0024283175
-0.0030671689
-0.0035302836
-0.00382397
-0.0039718512
-0.0040130401
-0.0039870384
-0.0039455979
-0.0039362518
-0.00050835584
0.00018650465
0.0022446814
0.0046153182
-0.0079078747
-0.016139606
-0.012764341
-0.0031226066
0.0086137288
0.006417779
0.0033771908
-0.0057040904
-0.0062231733
-0.0015715113
0.0026814687
0.0058637833
0.0064620851
0.0059102505
0.0051432517
0.0044576277
0.0039281223
0.0034508045
0.0028029118
0.0019420157
0.00095289179
-0.0001027765
-0.0011361195
-0.0020721476
-0.0028557326
-0.003455848
-0.0038659339
-0.0041017371
-0.0041924729
-0.0041816517
-0.0041139142
-0.0040405622
-0.0040105497
-0.00046298454
-2.9801468e-05
0.0015897295
0.004253238
-0.0085877376
-0.016930985
-0.01418434
-0.0037406108
0.0085788006
0.0064721601
0.0039103459
-0.0078741442
-0.0092359692
-0.0030928718
0.00211778
0.0065480319
0.0074180569
0.0067129101
0.0057439374
0.0049212399
0.004372278
0.0039879555
0.0034739414
0.0026848557
0.001696312
0.00059128087
-0.00054078614
-0.0016107811
-0.0025472238
-0.0033016094
-0.0038521155
-0.0042015563
-0.0043735612
-0.0044040556
-0.0043392188
-0.0042300671
-0.0041256332
-0.0040755139
-0.00035634201
-0.00039539685
0.00079419347
0.0035078395
-0.0090302725
-0.017544013
-0.015328271
-0.0047745137
0.0077279134
0.0062038289
0.0036912211
-0.011408411
-0.012990029
-0.0047803415
0.0011885404
0.0072971167
0.0084818736
0.0075806659
0.0063812979
0.0053276
0.0047338238
0.0044463133
0.0041140366
0.0034497019
0.0025050622
0.001372491
0.00015712193
-0.0010383166
-0.0021292536
-0.0030503767
-0.0037624231
-0.0042528208
-0.0045340243
-0.0046374136
-0.0046043816
-0.0044860714
-0.0043355849
-0.0042008716
-0.0041313583
-0.00021016683
-0.00088658235
-0.00012491815
0.0024168879
-0.0092378066
-0.017734051
-0.016216246
-0.0058721807
0.0064116203
0.0054253732
0.0029109289
-0.01418711
-0.017538625
-0.0070487769
-0.00024086438
0.0080067608
0.0096230336
0.0084981067
0.0070253458
0.005682034
0.0049635717
0.0047988121
0.004691992
0.0042170221
0.0033647699
0.0022355793
0.00095907106
-0.00035020206
-0.0015925366
-0.0026872147
-0.0035776964
-0.004234271
-0.0046544479
-0.0048605357
-0.0048907053
-0.0047925831
-0.0046216022
-0.0044304013
-0.0042664166
-0.0041783809
-0.0014464443
-5.2859124e-05
-0.0011632254
0.0010220873
-0.0091615139
-0.017461559
-0.016709985
-0.0070415814
0.0045409497
0.0044830261
0.0030067102
-0.01705073
-0.022068448
-0.01056349
-0.0025921794
0.008510214
0.010718067
0.0094155612
0.0076857047
0.0059302051
0.0050370642
0.0049948805
0.0051797324
0.0049638554
0.0042597495
0.0031780637
0.0018610275
0.00045347458
-0.00093074658
-0.0021999079
-0.0032805604
-0.0041247355
-0.0047128774
-0.0050534272
-0.005178222
-0.0051316199
-0.0049685648
-0.0047456002
-0.0045146493
-0.0043225869
-0.004216943
-0.0022903036
-0.0019919391
6.0968526e-05
-0.00061219804
-0.008805688
-0.016626786
-0.016745149
-0.008180656
0.002124758
0.0028040313
0.0035447304
-0.020036528
-0.02721414
-0.015304577
-0.0063716037
0.0087331784
0.011841117
0.010237938
0.0082986071
0.0060820415
0.0048694516
0.0049848833
0.0055236636
0.0056650553
0.0051765038
0.0041909404
0.0028601104
0.0013758706
-0.00014028272
-0.0015797004
-0.0028560576
-0.0039044656
-0.0046864249
-0.0051937788
-0.0054461103
-0.0054844873
-0.0053591189
-0.0051318621
-0.0048578834
-0.0045885843
-0.0043697066
-0.0042474267
-0.0023963819
-0.0034101905
-0.00246316
0.00011971427
-0.0081195493
-0.015231726
-0.016223263
-0.0091956061
-0.00087343579
0.00043271887
0.0036221982
-0.022322722
-0.032506061
-0.02026054
-0.0096068719
0.0088259334
0.012882018
0.010878009
0.0088478071
0.0060464142
0.0044403088
0.004643715
0.0056805545
0.0062861326
0.0061060781
0.0052631359
0.00395584
0.0024119955
0.00077917
-0.00082025069
-0.0022920712
-0.0035555635
-0.0045530848
-0.0052573831
-0.0056724195
-0.0058290608
-0.0057774243
-0.0055724581
-0.0052821411
-0.0049584516
-0.0046523477
-0.0044081161
-0.0042702721
-0.00709347
-0.0042700002
-0.0044355264
-0.0027598
0.00010610868
-0.013318231
-0.01503924
-0.010036203
-0.0043768263
-0.0024634101
0.0030173795
-0.024356871
-0.038355991
-0.025075015
-0.012050111
0.0076000441
0.013758475
0.011067713
0.00919838
0.0058352655
0.0036128736
0.0039475553
0.0055455522
0.006786735
0.0070243752
0.0063928997
0.0051443041
0.0035549009
0.0018286273
7.871501e-05
-0.0015818641
-0.0030634295
-0.0042922237
-0.0052202314
-0.0058321151
-0.0061444359
-0.0061993238
-0.006055786
-0.0057725557
-0.00541909
-0.0050474038
-0.004706317
-0.0044383139
-0.004285935
-0.010994931
-0.0058965127
-0.0059862048
-0.0052923498
-0.0028759014
1.0853482e-05
-0.013136499
-0.010821019
-0.0083460631
-0.0059066266
0.001651858
-0.026945386
-0.043590951
-0.030772813
-0.016764807
0.0060614925
0.013572595
0.010726133
0.0093216664
0.0052806378
0.002376068
0.0026761476
0.0050569696
0.0071076873
0.0079196802
0.0075685139
0.0064223518
0.0048033325
0.0029977004
0.0011131969
-0.00072160508
-0.0024173749
-0.0038859721
-0.0050588878
-0.0058994965
-0.0064052352
-0.0066058607
-0.0065545262
-0.0063168062
-0.0059572593
-0.0055425873
-0.0051249928
-0.0047510111
-0.0044607492
-0.0042948724
-0.010547744
-0.0082773298
-0.0046526355
-0.0074409148
-0.0059410581
-0.0028113113
-0.00012821897
-0.011718725
-0.012667706
-0.0098887162
-0.00062119838
-0.029416511
-0.048637969
-0.036525218
-0.022916125
0.0021461986
0.013386498
0.0095257705
0.0089452142
0.0044750492
0.00049309346
0.00080395834
0.0040281106
0.0071881061
0.0087532536
0.0087998294
0.0077834507
0.0061587192
0.0042731654
0.0022789707
0.00028372758
-0.0016141023
-0.0033207816
-0.0047523132
-0.0058485621
-0.006584492
-0.0069716525
-0.0070532628
-0.0068927078
-0.0065610783
-0.0061262481
-0.0056528145
-0.0051917656
-0.0047868311
-0.0044758761
-0.0042975155
-0.01239427
-0.0074957891
-0.0053810639
-0.0034526865
-0.0085400796
-0.0063889239
-0.0025906171
-0.00023801568
-0.016994267
-0.014092065
-0.0037425944
-0.0314924
-0.0530995
-0.042534455
-0.028867413
-0.0024395474
0.010782024
0.0076432665
0.0082016943
0.0030307726
-0.0019935063
-0.0020951215
0.0023566113
0.0069406717
0.0095003561
0.010064609
0.0092309423
0.0076061837
0.005653351
0.0035587434
0.0014247719
-0.00065480209
-0.0025890769
-0.0042828464
-0.0056546492
-0.0066540342
-0.0072689787
-0.0075267445
-0.0074837249
-0.0072122376
-0.0067876288
-0.0062795977
-0.0057502763
-0.0052481494
-0.0048141703
-0.0044840172
-0.0042943138
-0.02112294
-0.012771525
-0.0045908426
-0.0025390942
-0.0024127179
-0.0092497777
-0.0066401312
-0.0023163494
-0.00028676733
-0.018262927
-0.0076175947
-0.033049989
-0.056450751
-0.048108693
-0.03466089
-0.0078177913
0.0072809604
0.0051851451
0.0067473758
0.0013397546
-0.0056019388
-0.0059726127
-0.00028018668
0.0062275034
0.01006501
0.011361023
0.010736649
0.0091473973
0.0071148695
0.0049383491
0.0026849094
0.0004483267
-0.0016912135
-0.0036386024
-0.0052960304
-0.0065855261
-0.0074679688
-0.0079470727
-0.008066372
-0.0078946104
-0.0075116393
-0.0069961264
-0.0064177907
-0.0058352661
-0.0052940863
-0.0048330459
-0.0044855929
-0.0042859228
-0.022382886
-0.024825282
-0.012848778
-0.00197775
2.8845158e-05
-0.0015498913
-0.0095579436
-0.006775679
-0.0020222914
-0.00027608849
-0.012296284
-0.033881836
-0.058282902
-0.052998742
-0.039620035
-0.013709316
0.0013953778
0.0031319555
0.003922384
-0.0015874201
-0.0097632275
-0.011485491
-0.0038998335
0.0049038613
0.010357236
0.012613227
0.012300624
0.01073587
0.0086589496
0.0063872623
0.0040407622
0.0016765472
-0.0006369432
-0.0028163227
-0.0047557187
-0.0063531301
-0.0075373344
-0.0082833301
-0.0086132965
-0.0085866636
-0.0082835348
-0.0077901749
-0.0071868524
-0.0065409132
-0.005907199
-0.0053293302
-0.0048441523
-0.004481805
-0.0042729567
-0.017222595
-0.026044749
-0.027688464
-0.012462902
0.00034828479
0.0022461474
-0.00086089795
-0.0094500135
-0.0068448962
-0.0017029332
-0.00020199573
-0.033727265
-0.058257855
-0.056629096
-0.043384098
-0.019887237
-0.006263908
-0.0016147744
0.0007427376
-0.0040847454
-0.015728309
-0.018012383
-0.008888881
0.002635068
0.010173591
0.013752724
0.013873582
0.012359421
0.010226259
0.0078911484
0.0054562841
0.0030015472
0.00055335212
-0.0018220023
-0.0040241151
-0.0059335686
-0.0074462413
-0.0085018577
-0.0090932392
-0.009262323
-0.0090840552
-0.0086490126
-0.0080479338
-0.0073595377
-0.0066477298
-0.0059654963
-0.0053552775
-0.0048497936
-0.0044737405
-0.004255213
-0.03209882
-0.021947133
-0.028596517
-0.0296924
-0.011739062
0.0023161021
0.0040847201
-0.00038711178
-0.0089370528
-0.0068671068
-0.0014112411
-0.00013500262
-0.055994963
-0.058128814
-0.045280421
-0.026050248
-0.015725275
-0.0088055928
-0.0031487329
-0.0058149833
-0.021124853
-0.027045874
-0.015490597
-0.00069093497
0.0092415062
0.014666129
0.015360963
0.013956282
0.011797756
0.0093801764
0.0069041487
0.0043814678
0.0018490707
-0.00067356178
-0.0031017795
-0.0053101388
-0.0071656461
-0.008567194
-0.0094708611
-0.0098907822
-0.0098890853
-0.0095560672
-0.0089906823
-0.008284244
-0.0075120598
-0.0067371892
-0.0060125803
-0.0053758964
-0.0048514623
-0.0044598646
-0.0042309436
-0.051620809
-0.029238525
-0.025699029
-0.030056078
-0.030745445
-0.010886554
0.003843704
0.0055120904
-0.00012701593
-0.0081143026
-0.0069048077
-0.0010751143
3.9580575e-05
-0.056824891
-0.045460652
-0.032037679
-0.026119454
-0.017805855
-0.0089021746
-0.0080798299
-0.026028653
-0.036624014
-0.025200352
-0.0056950559
0.0072853655
0.015178518
0.016710794
0.015409997
0.013272373
0.010840913
0.0083086779
0.0057787462
0.0032046355
0.00059841539
-0.0020006267
-0.0044749502
-0.0066704119
-0.0084448083
-0.0097072992
-0.01043599
-0.010669115
-0.010489739
-0.010001599
-0.0093073702
-0.0084959036
-0.0076426342
-0.0068129576
-0.0060546666
-0.0053928334
-0.0048447697
-0.0044356214
-0.0042008817
-0.05298246
-0.045206013
-0.025722843
-0.027829459
-0.030533337
-0.030892034
-0.010055618
0.0049332291
0.0065450003
-9.8927479e-05
-0.0071582279
-0.0066565718
-0.00087078571
0.00014861211
-0.043946519
-0.037806495
-0.036920741
-0.028906415
-0.0169899
-0.011797013
-0.030390151
-0.049002764
-0.037522242
-0.013585751
0.0037081008
0.014835462
0.017705221
0.016704963
0.014558137
0.012149713
0.0096518425
0.0071126002
0.0045738645
0.00194836
-0.00074715027
-0.0034311133
-0.0059423017
-0.0081003384
-0.0097623158
-0.010856875
-0.011388531
-0.011422664
-0.011062211
-0.010418543
-0.009594488
-0.0086801192
-0.0077564047
-0.0068842103
-0.0060932642
-0.0053968823
-0.0048203532
-0.0044053641
-0.0041654036
-0.039988614
-0.046721575
-0.037605422
-0.021553632
-0.028451343
-0.030012221
-0.030192288
-0.0092348575
0.0056146245
0.0072514804
-0.00015544302
-0.0063386719
-0.0062926138
-0.00089642728
0.00028925853
-0.042875834
-0.048132818
-0.04196284
-0.027630176
-0.016620086
-0.035916076
-0.059803102
-0.055801445
-0.023300394
-0.0015089985
0.013191126
0.018044479
0.01741073
0.015620253
0.01325408
0.010800779
0.0083575283
0.0058701799
0.0033233344
0.00061723763
-0.0021962448
-0.0049728128
-0.0075043885
-0.009593235
-0.011107538
-0.012005145
-0.012320833
-0.012147873
-0.011603357
-0.010800655
-0.0098477539
-0.0088436051
-0.0078663425
-0.0069523298
-0.0061123819
-0.0053722395
-0.0047890887
-0.0043694328
-0.0041244324
-0.046310403
-0.034000069
-0.039015661
-0.029550438
-0.017441857
-0.027833974
-0.028560883
-0.028788169
-0.0084434696
0.0058713349
0.0076658175
-0.00037887453
-0.0057113268
-0.0054471583
-0.00091465637
0.00031042789
-0.059242298
-0.055966916
-0.040180876
-0.022098777
-0.042423676
-0.071709865
-0.072695484
-0.038973519
-0.011656205
0.011686915
0.017359575
0.017657924
0.016020863
0.014045312
0.011732762
0.0093694502
0.0070588922
0.0046338204
0.0020370739
-0.00080282475
-0.0037664203
-0.0066347067
-0.0091591846
-0.011139248
-0.012469227
-0.013142365
-0.013227483
-0.012839969
-0.012104464
-0.011141976
-0.010075559
-0.0090040068
-0.007973739
-0.0069920051
-0.0060878521
-0.0053393355
-0.0047518685
-0.0043278583
-0.0040779357
-0.069276004
-0.048227423
-0.027401071
-0.030997794
-0.021539288
-0.013583673
-0.026210096
-0.026440917
-0.026851691
-0.0079049078
0.0056498324
0.0078041469
-0.00073728785
-0.0051720856
-0.0046348964
-0.0009719849
0.00027193731
-0.070003198
-0.05297357
-0.028548286
-0.049628088
-0.083271662
-0.092878973
-0.060206279
-0.026504186
0.0048863207
0.017254788
0.016658369
0.016016897
0.014272878
0.012295652
0.01014696
0.0079795458
0.0058319763
0.0034252397
0.00069785378
-0.0023416655
-0.0054793714
-0.0084233893
-0.010900187
-0.012726588
-0.013836581
-0.014261048
-0.014101656
-0.013487533
-0.012556657
-0.011452431
-0.010301222
-0.0091625285
-0.0080410091
-0.0069683782
-0.0060528029
-0.0053000149
-0.0047086515
-0.0042804564
-0.0040257721
-0.082631316
-0.077187514
-0.048123677
-0.020494248
-0.023472808
-0.014026202
-0.0097548034
-0.023853879
-0.023770793
-0.024754056
-0.0073313807
0.0055096584
0.0075895444
-0.00092637707
-0.0045028774
-0.0039950498
-0.00091600303
0.00023887481
-0.065039665
-0.036564213
-0.057209595
-0.094275796
-0.11208114
-0.085039965
-0.042273631
-0.0034270615
0.012782379
0.015496498
0.014724774
0.014026508
0.012381189
0.010497123
0.008642734
0.0067406158
0.0047187619
0.0022281228
-0.00073773755
-0.0040386738
-0.0073559058
-0.010339181
-0.01271696
-0.014344637
-0.015198806
-0.015351534
-0.014928437
-0.014078284
-0.012971595
-0.011761601
-0.01052564
-0.0092664371
-0.0080197738
-0.0069307943
-0.0060107659
-0.0052543031
-0.0046594413
-0.0042270951
-0.003968031
-0.075829485
-0.092573785
-0.081657137
-0.045715481
-0.013778876
-0.016603223
-0.0072616003
-0.0060917107
-0.020993161
-0.02090321
-0.022265005
-0.0061739596
0.0055465427
0.0072635354
-0.00089254811
-0.0034826878
-0.0032890315
-0.00083584212
0.00015558773
-0.045590962
-0.064685135
-0.10361652
-0.12887833
-0.1094195
-0.059048063
-0.0154524
0.0073501288
0.011514562
0.012732995
0.012730991
0.011945127
0.010418164
0.008802919
0.0073708032
0.0057315641
0.0037139551
0.00098519162
-0.0023320195
-0.0059355299
-0.0094080965
-0.012375302
-0.01460023
-0.015980849
-0.016542332
-0.016394614
-0.015691126
-0.014624504
-0.013387148
-0.012070114
-0.010677378
-0.0092503893
-0.0079795776
-0.0068855989
-0.0059619458
-0.0052024475
-0.0046041275
-0.0041680645
-0.0039045607
-0.054392744
-0.084226523
-0.098168097
-0.08276573
-0.041817332
-0.0075520774
-0.010335738
-0.0013203709
-0.0027048696
-0.017933738
-0.017751908
-0.019665198
-0.0048436307
0.0052449732
0.0066555728
-0.00047036856
-0.0026371924
-0.0027842826
-0.00077832375
0.0001317728
-0.07079659
-0.10981739
-0.14155517
-0.13094627
-0.078514129
-0.030026223
-0.0026086286
0.0081512746
0.0086776167
0.010797957
0.010691596
0.0097053805
0.0085344329
0.0074153785
0.0064601583
0.0049744792
0.0027525018
-0.00039544316
-0.0041558378
-0.0080656042
-0.011636399
-0.014529498
-0.016537332
-0.017615677
-0.017843293
-0.017368082
-0.016402617
-0.015172727
-0.013802685
-0.0122846
-0.010670714
-0.0092080913
-0.0079309421
-0.0068331926
-0.0059067853
-0.0051442495
-0.0045428824
-0.004102974
-0.0038355162
-0.072749612
-0.062466021
-0.087729779
-0.099497057
-0.08068975
-0.037179241
-0.002410217
-0.0045343057
0.0036547932
0.00035334977
-0.014769761
-0.015292361
-0.017191379
-0.0038335128
0.0046349902
0.0055651599
-7.6457139e-05
-0.0020612486
-0.0018665627
-0.00065709706
6.0162915e-05
-0.11134281
-0.14785969
-0.1474534
-0.098186346
-0.047228243
-0.014215029
0.00057440589
0.0051040905
0.0069982236
0.0088231105
0.008360042
0.0074279732
0.0069740843
0.0065301491
0.0059811963
0.0044047608
0.0017093728
-0.0020258719
-0.0062755959
-0.010444945
-0.014056164
-0.016790905
-0.018500711
-0.019219592
-0.019072652
-0.018283865
-0.017119372
-0.015725677
-0.01409918
-0.012293529
-0.010627903
-0.0091562657
-0.0078747534
-0.0067741555
-0.005844947
-0.0050798373
-0.0044754382
-0.0040322528
-0.0037607356
-0.10760742
-0.070948941
-0.067518028
-0.086797344
-0.096645342
-0.0760854
-0.032509267
0.0011833277
0.00077648229
0.0076283435
0.0031821397
-0.011892417
-0.01321372
-0.014500963
-0.0029552466
0.0039464264
0.0043571335
0.00011697486
-0.0014973007
-0.0018936872
-0.0004915045
5.735584e-05
-0.14621274
-0.15646421
-0.11373674
-0.065198594
-0.028842404
-0.011012685
-0.00162115
0.0030039424
0.005635645
0.0061463405
0.0058198486
0.0054956815
0.0060552854
0.0063133801
0.0058931898
0.0038612041
0.0004166402
-0.0040176049
-0.0087325783
-0.013078457
-0.01664641
-0.019112694
-0.020453935
-0.020755611
-0.020238658
-0.01920927
-0.017843364
-0.016129726
-0.014132208
-0.012252578
-0.010574011
-0.0090964086
-0.0078115248
-0.006708164
-0.0057766072
-0.0050091523
-0.0044022684
-0.0039555952
-0.0036803466
-0.13684099
-0.098145116
-0.066204084
-0.068036586
-0.082543881
-0.09041315
-0.06943307
-0.028148501
0.0030904792
0.0047241074
0.010261627
0.005495222
-0.0098641006
-0.010545334
-0.011667721
-0.0022911866
0.0033583257
0.0035908446
0.00021423557
-0.00095325354
-0.0012690147
-0.00031080105
9.2390795e-06
-0.15634922
-0.12360511
-0.081580699
-0.045383361
-0.026525624
-0.011436894
-0.0041422917
0.0023589469
0.0032861173
0.0028933617
0.003556435
0.0043708342
0.0061041151
0.0067991051
0.0060079198
0.0031011081
-0.001299679
-0.006451881
-0.011533805
-0.015974841
-0.019346055
-0.021459306
-0.022352505
-0.022225092
-0.021420396
-0.020148563
-0.018384921
-0.016199821
-0.014096775
-0.012198541
-0.010511076
-0.0090289271
-0.0077409438
-0.0066352286
-0.0057019163
-0.0049326333
-0.0043229879
-0.0038730391
-0.0035943682
-0.14695847
-0.120666
-0.085036824
-0.057989922
-0.064147102
-0.075613745
-0.081332651
-0.061422213
-0.024378645
0.003557249
0.0069221406
0.012127837
0.0066337442
-0.0078860075
-0.0073478043
-0.0090470231
-0.0015521821
0.0029057419
0.0029918699
0.00040572718
-0.00054680623
-0.00093449455
-0.00019462175
4.1459472e-05
-0.12738514
-0.092787436
-0.062352668
-0.044930448
-0.026203736
-0.014807246
-0.0039832565
0.00063948074
-0.00014950609
-0.00027962369
0.0020734666
0.0045156478
0.0072428167
0.0077758729
0.0059828968
0.0018581547
-0.003574302
-0.0093570205
-0.014700377
-0.019094649
-0.022131574
-0.023780755
-0.024186546
-0.023718808
-0.022627659
-0.020868972
-0.018509905
-0.016175692
-0.01404598
-0.012133935
-0.010439721
-0.008953484
-0.0076629227
-0.0065557504
-0.0056212644
-0.0048497844
-0.0042372865
-0.0037848388
-0.0035029611
-0.12264374
-0.12923251
-0.10092945
-0.06940751
-0.047838885
-0.056463426
-0.066970854
-0.071162183
-0.052710889
-0.021385135
0.003638316
0.0088145585
0.012369598
0.0075738336
-0.0050836267
-0.0050025665
-0.0063455695
-0.00093453534
0.0024443111
0.0024402605
0.00054553947
-0.0003046988
-0.00044574317
-6.8532664e-05
6.3873695e-05
-0.095294822
-0.07739828
-0.064935439
-0.046418537
-0.029787604
-0.014523127
-0.0039266249
-0.0034022234
-0.0037235489
-0.0027353514
0.0020702707
0.0062994912
0.0092499797
0.0087715584
0.005405945
-8.7398288e-05
-0.0064766591
-0.012747322
-0.018237721
-0.022369551
-0.024941259
-0.026048152
-0.026055601
-0.025257779
-0.023579231
-0.021073859
-0.018505229
-0.016133829
-0.01398225
-0.012059713
-0.010359467
-0.0088699995
-0.0075779965
-0.006470219
-0.005533967
-0.0047597844
-0.004145846
-0.0036912008
-0.003406164
-0.090249685
-0.10920609
-0.10703179
-0.079629313
-0.052841364
-0.036516851
-0.045622038
-0.056997934
-0.05982697
-0.044458938
-0.017872933
0.0046194051
0.0099119737
0.012686439
0.007296682
-0.002512048
-0.0036334824
-0.0043000454
-0.00032751461
0.0021696897
0.0020423144
0.00067744978
-3.8703088e-05
-0.00016384212
4.5059036e-05
0.00010009708
-0.088401778
-0.084803751
-0.070950164
-0.050579104
-0.029855471
-0.012148237
-0.0074374273
-0.0085986475
-0.0067917365
-0.0033140726
0.004357362
0.0096842738
0.011451396
0.0091711206
0.0039744952
-0.0028481868
-0.010027956
-0.016658453
-0.022044187
-0.025729354
-0.02771865
-0.028365673
-0.028003026
-0.026507446
-0.023899017
-0.021100219
-0.018481062
-0.016075189
-0.013907116
-0.011975197
-0.010270297
-0.0087791085
-0.0074868239
-0.0063775595
-0.00543853
-0.0046639205
-0.0040488724
-0.0035922359
-0.0033041069
-0.093022645
-0.081163331
-0.090958174
-0.083433814
-0.058897438
-0.036789083
-0.024617616
-0.033539938
-0.0456142