/*--------------------------------*- C++ -*----------------------------------*\
| =========                 |                                                 |
| \\      /  F ield         | OpenFOAM: The Open Source CFD Toolbox           |
|  \\    /   O peration     | Version:  5.0                                   |
|   \\  /    A nd           | Web:      www.OpenFOAM.org                      |
|    \\/     M anipulation  |                                                 |
\*---------------------------------------------------------------------------*/
FoamFile
{
    version     2.0;
    format      ascii;
    class       surfaceScalarField;
    location    "340";
    object      phi;
}
// * * * * * * * * * * * * * * * * * * * * * * * * * * * * * * * * * * * * * //

dimensions      [0 3 -1 0 0 0 0];

internalField   nonuniform List<scalar> 
18820
(
-0.00039699201
-1.3580436
-0.00076633702
-1.2700332
-0.00037858004
-1.357665
-0.0011078181
-1.1878165
-0.0007322718
-1.2696795
-0.00036018395
-1.3573048
-0.0014208293
-1.1109864
-0.0010609806
-1.1874878
-0.00069693006
-1.2693428
-0.00034971849
-1.3569551
-0.0017048601
-1.0391762
-0.0013642697
-1.1106831
-0.0010106553
-1.1871741
-0.00067625783
-1.2690162
-0.00034832828
-1.3566067
-0.0019597799
-0.9720391
-0.0016414291
-1.038899
-0.0013020566
-1.1103917
-0.00098102586
-1.1868693
-0.00067339234
-1.2686912
-0.00034890147
-1.3562578
-0.0021851373
-0.90925975
-0.0018920654
-0.97178846
-0.0015710854
-1.03863
-0.0012658404
-1.1101069
-0.0009774507
-1.1865653
-0.00067581648
-1.2683642
-0.00034204179
-1.3559158
-0.0023797767
-0.85054767
-0.0021161618
-0.90903565
-0.001816834
-0.97154271
-0.001531767
-1.0383641
-0.0012624117
-1.1098219
-0.00098364022
-1.1862574
-0.00066495763
-1.2680413
-0.00032535651
-1.3555904
-0.0025416057
-0.79563482
-0.0023141239
-0.85034971
-0.0020388605
-0.90881363
-0.0017783579
-0.97129612
-0.0015298121
-1.0380967
-0.0012739281
-1.1095316
-0.00097196725
-1.1859504
-0.00063483335
-1.2677319
-0.00030219918
-1.3552882
-0.0026676385
-0.74427085
-0.0024872668
-0.79546167
-0.0022378369
-0.85015073
-0.0020051154
-0.90858687
-0.0017802795
-0.97104566
-0.0015483719
-1.0378222
-0.0012642692
-1.1092393
-0.0009320553
-1.1856532
-0.00059080884
-1.2674432
-0.00027906791
-1.3550092
-0.0027554468
-0.69622787
-0.0026373233
-0.74412079
-0.0024170329
-0.79528248
-0.0022119657
-0.84994388
-0.0020138471
-0.9083533
-0.0018088507
-0.97078518
-0.0015432249
-1.0375433
-0.0012190192
-1.1089523
-0.00086960024
-1.1853744
-0.00054571693
-1.2671766
-0.00026076575
-1.3547484
-0.0028033959
-0.65129348
-0.002765642
-0.69609955
-0.0025838671
-0.74395396
-0.0023996562
-0.79509479
-0.0022299068
-0.84972782
-0.0020562231
-0.90810593
-0.0018111708
-0.97051723
-0.0014968712
-1.0372654
-0.0011420353
-1.1086799
-0.00080394505
-1.1851162
-0.00050931631
-1.266928
-0.00024812309
-1.3545003
-0.0028253088
-0.60924978
-0.0028922736
-0.65116685
-0.0027541626
-0.69592925
-0.0025706673
-0.74378295
-0.0024262424
-0.79489845
-0.0022895979
-0.84949445
-0.00206984
-0.90784726
-0.0017676468
-0.97024645
-0.0014099517
-1.0369975
-0.0010577756
-1.1084261
-0.00075046795
-1.184875
-0.00048383723
-1.2666923
-0.00023842297
-1.3542619
-0.0028281764
-0.56989834
-0.0030466034
-0.60909545
-0.0029457041
-0.6509753
-0.0027294428
-0.69577048
-0.0025977488
-0.74361144
-0.0025047545
-0.79468329
-0.002320335
-0.84924395
-0.0020334524
-0.90758145
-0.0016740776
-0.96998233
-0.0013101168
-1.0367452
-0.00098828555
-1.1081883
-0.00071267445
-1.1846462
-0.00046462706
-1.2664661
-0.00022765583
-1.3540342
-0.0028201134
-0.53308449
-0.0032169817
-0.56972796
-0.0031409837
-0.60890017
-0.0028588212
-0.65084593
-0.0027290175
-0.69563921
-0.0026929988
-0.7434232
-0.0025634853
-0.79444014
-0.0022969393
-0.84898046
-0.0019353967
-0.90732013
-0.001561384
-0.96973106
-0.0012257547
-1.0365077
-0.00093881849
-1.1079621
-0.00068401309
-1.1844268
-0.00044407812
-1.2662497
-0.00021274677
-1.3538215
-0.0028061681
-0.49864841
-0.0034230163
-0.53287846
-0.0033132735
-0.56955567
-0.0029336532
-0.60882534
-0.0027975331
-0.65077741
-0.0028425766
-0.69548963
-0.0028002771
-0.74318641
-0.0025629143
-0.79417417
-0.002195672
-0.84872019
-0.001811355
-0.90707016
-0.0014639684
-0.96949285
-0.0011651981
-1.0362813
-0.00090086859
-1.1077453
-0.00065374607
-1.1842172
-0.00041584175
-1.2660466
-0.00019275114
-1.3536287
-0.0028021217
-0.46643666
-0.0036733563
-0.49839807
-0.0034734192
-0.53271831
-0.0029682345
-0.56952109
-0.0027951601
-0.60882771
-0.0029471845
-0.6506728
-0.0030346109
-0.6952553
-0.0028398868
-0.74290943
-0.0024583991
-0.79391144
-0.0020595571
-0.84847199
-0.0017028267
-0.9068313
-0.0013939069
-0.96926414
-0.0011184798
-1.0360637
-0.00086053973
-1.1075385
-0.00061296923
-1.18402
-0.00037744399
-1.2658619
-0.00016898471
-1.3534597
-0.0027910576
-0.43630998
-0.0040104351
-0.46609958
-0.0036519149
-0.49821958
-0.0029388224
-0.53274772
-0.002733278
-0.56958297
-0.0030129207
-0.60876197
-0.0032771505
-0.65043026
-0.0031407284
-0.69495446
-0.0027294321
-0.7426384
-0.0023048271
-0.79366617
-0.001940886
-0.84823393
-0.0016260558
-0.90659916
-0.0013398752
-0.96904274
-0.0010683762
-1.0358559
-0.00080692476
-1.1073445
-0.000557676
-1.1838398
-0.00033106538
-1.2656998
-0.00014427589
-1.3533155
-0.002824682
-0.40811885
-0.0044473576
-0.43587305
-0.0038674155
-0.46588408
-0.0028527466
-0.49830565
-0.0025711871
-0.53290982
-0.003047228
-0.56954867
-0.0035395048
-0.60849962
-0.0034869852
-0.65008401
-0.0030182575
-0.69466563
-0.0025448514
-0.74239838
-0.0021744673
-0.79343259
-0.0018612015
-0.84799878
-0.0015675943
-0.90637144
-0.0012811285
-0.96882999
-0.0010018149
-1.035661
-0.00073541053
-1.1071668
-0.00048968308
-1.1836812
-0.00028229118
-1.2655618
-0.00012165743
-1.3531938
-0.0028279674
-0.3817409
-0.0050526889
-0.40751352
-0.0041628507
-0.43557762
-0.0026635577
-0.46607326
-0.0022593095
-0.49861753
-0.0030556672
-0.53290138
-0.0038302283
-0.56925794
-0.0038988737
-0.60808773
-0.0033363468
-0.64976592
-0.002777362
-0.69443312
-0.0023973676
-0.74217547
-0.0020966139
-0.79319718
-0.0018031099
-0.84776327
-0.0015026099
-0.90614995
-0.0012022861
-0.96862952
-0.0009137527
-1.0354826
-0.0006472797
-1.1070092
-0.00041628964
-1.1835472
-0.00023726129
-1.2654462
-0.00010316689
-1.3530906
-0.002911825
-0.35699894
-0.0057812881
-0.3810123
-0.0045290974
-0.40714728
-0.0023620954
-0.43587908
-0.0017430942
-0.46658948
-0.0029948127
-0.49867839
-0.0041813671
-0.53255024
-0.0043983458
-0.56875847
-0.0036990929
-0.60772498
-0.0029971548
-0.64954612
-0.0025992476
-0.69423124
-0.002326589
-0.7419455
-0.002046636
-0.79295365
-0.0017363318
-0.84752954
-0.0014126711
-0.90593957
-0.0010974015
-0.96844587
-0.00080569833
-1.0353242
-0.00054937862
-1.1068761
-0.00034741063
-1.183437
-0.00019997785
-1.2653494
-8.9382793e-05
-1.3530012
-0.0029145493
-0.33381451
-0.0067273054
-0.35605292
-0.0050470804
-0.38049432
-0.001888742
-0.40762063
-0.00096662748
-0.43665555
-0.0028491445
-0.46673515
-0.0046323681
-0.49822738
-0.0050142728
-0.53193431
-0.0041051033
-0.56835246
-0.0032009878
-0.60752115
-0.0027644197
-0.64938095
-0.0025401767
-0.69401765
-0.0022963468
-0.74169579
-0.0019860187
-0.79270396
-0.0016376112
-0.8473046
-0.0012903569
-0.90574661
-0.0009680369
-0.96828353
-0.00068364431
-1.0351899
-0.00045501731
-1.1067685
-0.00029001371
-1.183347
-0.00017151428
-1.2652673
-7.9716693e-05
-1.3529215
-0.0030892497
-0.31191691
-0.0077320302
-0.33280979
-0.0056780536
-0.35542195
-0.0012789759
-0.38110408
0.00013468266
-0.40872194
-0.0025718933
-0.4369328
-0.0052318357
-0.46613568
-0.0058167084
-0.49742495
-0.0045773667
-0.53146205
-0.0033588879
-0.56819456
-0.0028636617
-0.60742191
-0.0027191303
-0.649202
-0.0025466807
-0.69376732
-0.0022556793
-0.74142613
-0.0018830312
-0.79245854
-0.001497057
-0.8470979
-0.0011374693
-0.90557718
-0.00082048702
-0.96814669
-0.00056266719
-1.0350823
-0.00037530893
-1.1066832
-0.00024602238
-1.1832725
-0.00015086015
-1.2651961
-7.3035743e-05
-1.3528485
-0.0034696029
-0.29122317
-0.0090938933
-0.31055505
-0.0065202789
-0.33196756
-0.00038807045
-0.35631285
0.0016250141
-0.38259442
-0.0021526217
-0.40914121
-0.0060246664
-0.43613997
-0.0068787185
-0.46507367
-0.005141064
-0.49686125
-0.0034491345
-0.5313718
-0.0028624294
-0.56819579
-0.0028280112
-0.60731303
-0.0027872173
-0.64896146
-0.0025503378
-0.69347266
-0.0021571571
-0.741152
-0.0017231533
-0.79223245
-0.0013171943
-0.84691818
-0.00096172255
-0.90543595
-0.00067117895
-0.96803818
-0.00045873647
-1.0349989
-0.0003136784
-1.1066155
-0.00021362449
-1.1832097
-0.00013623926
-1.2651329
-6.8185672e-05
-1.3527803
-0.0038394463
-0.27240166
-0.010664252
-0.28965281
-0.0074609726
-0.30961436
0.00060186016
-0.33295749
0.0036108277
-0.35829867
-0.0014998682
-0.38324717
-0.0070794083
-0.40808647
-0.0082936531
-0.43472503
-0.0058334645
-0.46438127
-0.0034403844
-0.49687
-0.002697407
-0.53153682
-0.0028528624
-0.56817094
-0.0030032088
-0.60709704
-0.0028768139
-0.64863498
-0.0024727867
-0.69315703
-0.0019766332
-0.74089852
-0.0015105651
-0.79203908
-0.0011088423
-0.84677106
-0.00078183998
-0.90532529
-0.00054136523
-0.96795555
-0.00037691978
-1.0349356
-0.00026786555
-1.1065613
-0.00018977718
-1.1831562
-0.00012588781
-1.2650752
-6.421954e-05
-1.3527161
-0.0041595079
-0.25451403
-0.012446248
-0.27061966
-0.0084229892
-0.28869079
0.0021321313
-0.31114463
0.0060743191
-0.33542098
-0.00067268806
-0.35912585
-0.0084547655
-0.38187181
-0.010149503
-0.40623062
-0.006701651
-0.43385685
-0.0033040874
-0.46451757
-0.0023026901
-0.49726472
-0.0027650391
-0.53162465
-0.0031977352
-0.56797642
-0.003249276
-0.60672458
-0.0028490966
-0.64825868
-0.0022698185
-0.69286384
-0.001721617
-0.74068747
-0.001262339
-0.79188558
-0.00089523392
-0.84665767
-0.00062441773
-0.90524224
-0.00043777363
-0.9678947
-0.00031483631
-1.0348886
-0.0002335434
-1.1065175
-0.00017200917
-1.1831101
-0.00011803548
-1.2650214
-6.0403057e-05
-1.3526557
-0.0052247954
-0.23605208
-0.014208942
-0.25275133
-0.0097991321
-0.26924352
0.0039818193
-0.29054048
0.0090683745
-0.31413868
0.00051839494
-0.33661206
-0.010281582
-0.35729903
-0.012571388
-0.37944993
-0.0077911054
-0.40514116
-0.0030028652
-0.43415807
-0.0015991791
-0.46522108
-0.0024863627
-0.49754339
-0.0033908854
-0.5314315
-0.0036847196
-0.56754097
-0.0033181806
-0.60625549
-0.0026210988
-0.6479074
-0.0019553429
-0.69263012
-0.0014212942
-0.74052852
-0.001010278
-0.79177054
-0.00070857901
-0.84657351
-0.00049782761
-0.90518218
-0.00035740702
-0.96785213
-0.00026758894
-1.0348546
-0.00020684961
-1.1064827
-0.00015843087
-1.1830697
-0.00011076217
-1.264971
-5.6198792e-05
-1.3525995
-0.0067765134
-0.21753181
-0.016787034
-0.23347399
-0.011422954
-0.25112751
0.0062351499
-0.27149685
0.012626218
-0.29409832
0.0018112285
-0.31543152
-0.012561358
-0.33433229
-0.015645712
-0.3542247
-0.0091739887
-0.37806704
-0.0024959328
-0.4056481
-0.00048455987
-0.43527269
-0.0019313402
-0.4657761
-0.0035681815
-0.4973661
-0.0042175035
-0.53089871
-0.0039094638
-0.56694969
-0.0030586031
-0.60581799
-0.0022188068
-0.64764393
-0.001582752
-0.69246866
-0.0011230541
-0.74041574
-0.00079277403
-0.79168634
-0.00055850696
-0.84651283
-0.00039789819
-0.90514169
-0.00029461055
-0.9678251
-0.00023013316
-1.0348313
-0.00018509685
-1.106456
-0.00014660315
-1.1830338
-0.00010244785
-1.2649248
-5.139331e-05
-1.3525481
-0.0084352623
-0.20058351
-0.019482444
-0.21483641
-0.012560669
-0.23233628
0.0086052256
-0.25349759
0.01685927
-0.2757299
0.0032897686
-0.29557686
-0.015432197
-0.31256068
-0.019533634
-0.33044437
-0.010883352
-0.35251534
-0.0017297542
-0.37883322
0.0011505719
-0.40728323
-0.0010011084
-0.43620292
-0.0037002271
-0.46564405
-0.0048998152
-0.49668379
-0.0046630384
-0.53014514
-0.0036103798
-0.56639791
-0.0025212548
-0.60551554
-0.0017415298
-0.64748515
-0.0012255054
-0.69236621
-0.00087274556
-0.74033577
-0.0006199544
-0.79162489
-0.00043889254
-0.84647183
-0.0003177486
-0.90511855
-0.00024351857
-0.96781172
-0.00019831872
-1.0348181
-0.0001658818
-1.1064367
-0.00013390228
-1.1830024
-9.2623521e-05
-1.2648836
-4.6267196e-05
-1.3525018
-0.010199495
-0.18468628
-0.022023818
-0.19804214
-0.012763745
-0.21463333
0.01234204
-0.23607309
0.02152746
-0.25816578
0.0051480034
-0.27758813
-0.019075981
-0.29193308
-0.024260214
-0.3078341
-0.013023292
-0.32830443
-0.0006309675
-0.35361413
0.0034505081
-0.38113316
0.00041432569
-0.40869866
-0.0037518328
-0.43615131
-0.0057883695
-0.4647555
-0.0056626786
-0.49568415
-0.0043067914
-0.52944873
-0.0028755434
-0.56604362
-0.0018869436
-0.60537013
-0.001303817
-0.64740684
-0.00093961797
-0.69229934
-0.00068008266
-0.74027564
-0.00048250767
-0.79158128
-0.00034079575
-0.84644878
-0.00025070101
-0.90511137
-0.00019923412
-0.9678108
-0.00016956247
-1.0348144
-0.00014707265
-1.1064236
-0.00011918129
-1.1829758
-8.2256012e-05
-1.2648476
-4.1408265e-05
-1.3524604
-0.013872483
-0.19968271
-0.024402243
-0.18230785
-0.012510347
-0.19829554
0.017287919
-0.21957921
0.026790458
-0.24133609
0.0079345635
-0.26095234
-0.023457107
-0.27320701
-0.029824589
-0.2863687
-0.015513548
-0.30534384
0.0008907488
-0.32982614
0.0065526741
-0.35671629
0.0024472802
-0.38316611
-0.0036858191
-0.40876468
-0.0069488212
-0.43499086
-0.0070080564
-0.46341012
-0.0052140394
-0.4947769
-0.0032889788
-0.52903529
-0.0020051097
-0.56592546
-0.0013358567
-0.60533809
-0.00097780927
-0.64736865
-0.00073305538
-0.69224636
-0.00053009537
-0.74022805
-0.00036800549
-0.79155407
-0.00025636606
-0.84644312
-0.00019155326
-0.90511905
-0.00015900592
-0.96782136
-0.00014201726
-1.0348195
-0.00012674557
-1.106416
-0.00010318364
-1.1829549
-7.2635494e-05
-1.2648164
-3.7334407e-05
-1.3524231
-0.017112308
-0.19624307
-0.028613698
-0.19547125
-0.011730163
-0.18308804
0.022613678
-0.20362129
0.032230639
-0.22501939
0.010644209
-0.24404573
-0.027585513
-0.25682393
-0.036446428
-0.26658517
-0.018372946
-0.2835093
0.0029929116
-0.307446
0.010626574
-0.33390004
0.0052225443
-0.35949156
-0.0034527557
-0.38339918
-0.0084569629
-0.40725654
-0.0088241899
-0.43317473
-0.0064174057
-0.46220676
-0.0037727047
-0.49429317
-0.0020768874
-0.52896351
-0.0012887448
-0.56597257
-0.0009627768
-0.60535312
-0.00076788602
-0.64733382
-0.00058129445
-0.69219516
-0.00040442219
-0.74019164
-0.00026664803
-0.79154379
-0.00018023214
-0.84645444
-0.00013700366
-0.90514105
-0.00011984548
-0.96784353
-0.00011336743
-1.0348329
-0.00010491435
-1.1064143
-8.8333224e-05
-1.1829392
-6.4597918e-05
-1.2647891
-3.4384332e-05
-1.3523887
-0.019892418
-0.19247521
-0.03236434
-0.19249243
-0.012581416
-0.19462
0.028120976
-0.18859533
0.037298386
-0.20868904
0.011786556
-0.22616174
-0.032355265
-0.23927598
-0.044616179
-0.24865418
-0.021948144
-0.26300997
0.0057586238
-0.28627502
0.015810716
-0.31263015
0.0088946603
-0.33757216
-0.0030197977
-0.35992452
-0.010402933
-0.38145321
-0.011251411
-0.40482931
-0.0080235083
-0.43156863
-0.0043502561
-0.4616292
-0.0020673168
-0.49430274
-0.0011190622
-0.52913319
-0.00086261319
-0.56607273
-0.00076696823
-0.60535403
-0.00063417233
-0.64728094
-0.00045650196
-0.69214308
-0.00029000632
-0.74016828
-0.00017227304
-0.79155175
-0.00010802753
-0.84648342
-8.2971009e-05
-0.90517793
-7.9967253e-05
-0.96787693
-8.4338078e-05
-1.0348534
-8.4309583e-05
-1.1064183
-7.5946822e-05
-1.1829278
-5.8771728e-05
-1.2647647
-3.2747366e-05
-1.352356
-0.0221981
-0.18863812
-0.035610186
-0.18922936
-0.012742095
-0.19233175
0.032209718
-0.19870874
0.04185239
-0.19314934
0.011770929
-0.20867341
-0.039240533
-0.21927647
-0.053762125
-0.23013003
-0.027106869
-0.24349545
0.00913934
-0.26639069
0.022245837
-0.29271014
0.01355118
-0.31728667
-0.0023163884
-0.33827557
-0.012891654
-0.3574358
-0.014466265
-0.37823835
-0.010152493
-0.40270033
-0.0050513564
-0.43086753
-0.0019323521
-0.46176417
-0.00076724408
-0.49465456
-0.00062454667
-0.52937126
-0.00071150691
-0.56612819
-0.00068669607
-0.60530151
-0.00053225377
-0.64720519
-0.0003378125
-0.69209528
-0.00017765547
-0.74016289
-7.9109847e-05
-0.79158066
-3.5155689e-05
-0.84653123
-2.8593944e-05
-0.9052293
-4.1208306e-05
-0.96792006
-5.7228516e-05
-1.0348805
-6.6989598e-05
-1.1064273
-6.6761302e-05
-1.1829198
-5.5543657e-05
-1.2647419
-3.2436181e-05
-1.3523235
-0.023987937
-0.18481656
-0.03833823
-0.18591007
-0.012320613
-0.18965084
0.037043827
-0.19716586
0.045317814
-0.20217417
0.011120452
-0.19249886
-0.047008583
-0.20090536
-0.062483258
-0.21055533
-0.032638134
-0.22459877
0.013022324
-0.24737844
0.029944145
-0.27408899
0.019285522
-0.29844448
-0.0013532655
-0.31824979
-0.016045884
-0.33512134
-0.018651458
-0.3532506
-0.012954277
-0.37543657
-0.0059106989
-0.40184099
-0.0016185095
-0.43118137
-0.00015377395
-0.46237764
-0.00018179152
-0.49509732
-0.0005629335
-0.52951983
-0.00072801202
-0.56608688
-0.00064012566
-0.60519364
-0.00042459334
-0.64711841
-0.00020983239
-0.6920631
-6.0080086e-05
-0.74018192
1.7852549e-05
-0.79163367
3.8674376e-05
-0.8465985
2.3512455e-05
-0.90529402
-5.747411e-06
-0.96797154
-3.4362639e-05
-1.0349131
-5.4290317e-05
-1.1064397
-6.1429804e-05
-1.182914
-5.4632099e-05
-1.2647197
-3.3371314e-05
-1.3522901
-0.025218595
-0.18122638
-0.040482041
-0.18267275
-0.011475613
-0.18675507
0.042336148
-0.19494316
0.04938582
-0.20123387
0.010433297
-0.20148701
-0.054957215
-0.18455023
-0.07042021
-0.19296841
-0.03647164
-0.20672183
0.017830575
-0.22940702
0.039134171
-0.25656847
0.026100063
-0.28090354
-0.00011593752
-0.29968181
-0.020030268
-0.31426541
-0.024029713
-0.32974308
-0.016575193
-0.34962969
-0.0069629678
-0.3743843
-0.0010664384
-0.40239306
0.00081941005
-0.43215455
0.00055114807
-0.46311058
-0.00026403101
-0.49539622
-0.00075351795
-0.52949433
-0.00078054992
-0.56594645
-0.00056831465
-0.60504992
-0.00028703831
-0.6470412
-6.411576e-05
-0.69205907
6.7714035e-05
-0.74023179
0.0001173439
-0.79171234
0.00010932335
-0.84668431
7.1316093e-05
-0.90537109
2.4180817e-05
-0.96803009
-1.7712072e-05
-1.0349497
-4.69067e-05
-1.1064543
-5.9950768e-05
-1.1829086
-5.6285675e-05
-1.2646968
-3.5436914e-05
-1.3522547
-0.025886434
-0.17807489
-0.041999699
-0.17970872
-0.010300942
-0.18384742
0.047811831
-0.19223076
0.053807261
-0.19936461
0.010181629
-0.2009822
-0.062828153
-0.19361607
-0.077856662
-0.17711378
-0.039214086
-0.19022597
0.024054493
-0.21294575
0.050043732
-0.24031658
0.034333694
-0.2648021
0.00136685
-0.28238632
-0.025080046
-0.29463203
-0.030805766
-0.30748935
-0.02119579
-0.32512249
-0.0082407226
-0.34835193
-0.00019573944
-0.375255
0.0022670859
-0.40384073
0.0016774625
-0.43328087
0.00025032582
-0.46362494
-0.00073971997
-0.49541002
-0.00097836372
-0.52929652
-0.00078969876
-0.56572507
-0.00043353518
-0.60490342
-0.00010982739
-0.64699549
0.00010223084
-0.69209358
0.00020076873
-0.74031521
0.00021263146
-0.79181565
0.00017316354
-0.84678616
0.00011121064
-0.90545812
4.6363838e-05
-0.96809416
-7.9502969e-06
-1.0349887
-4.4892552e-05
-1.1064693
-6.2672361e-05
-1.1829023
-6.0338798e-05
-1.2646719
-3.8416552e-05
-1.3522163
-0.026038621
-0.17556819
-0.042856828
-0.17721776
-0.0089460109
-0.18106365
0.053181165
-0.18921675
0.058478951
-0.19690245
0.010246443
-0.19942942
-0.070377572
-0.19343278
-0.086887707
-0.18458503
-0.041099158
-0.1752287
0.031378023
-0.1975495
0.062294357
-0.22519637
0.044384237
-0.25036712
0.003590038
-0.26702528
-0.031319259
-0.27614711
-0.039194307
-0.28624349
-0.026916539
-0.3017686
-0.0097797059
-0.3235835
0.0010846861
-0.34963236
0.0043202683
-0.37730818
0.0033215597
-0.40548483
0.0010613057
-0.43409185
-0.00065641255
-0.46370824
-0.0012605491
-0.49512783
-0.0011189402
-0.52896727
-0.00068339968
-0.56547521
-0.00022145279
-0.6047918
0.00010598754
-0.64699925
0.00028065009
-0.69217346
0.00033014679
-0.74043273
0.00029916088
-0.79194165
0.00022676933
-0.84690172
0.00014075588
-0.90555251
5.9556678e-05
-0.96816167
-5.2653495e-06
-1.0350283
-4.826504e-05
-1.1064837
-6.8926422e-05
-1.1828937
-6.6227341e-05
-1.2646441
-4.2047325e-05
-1.3521742
-0.025631181
-0.17380989
-0.043108608
-0.17531641
-0.007453251
-0.17871052
0.058138646
-0.18602113
0.063107926
-0.19384573
0.010701171
-0.19735717
-0.077496688
-0.1923103
-0.095597557
-0.18472293
-0.047588462
-0.17809573
0.03958657
-0.18343725
0.075140881
-0.21039602
0.055057076
-0.23586921
0.0070636953
-0.25384078
-0.038395306
-0.25994924
-0.049253971
-0.26608745
-0.033817697
-0.27934233
-0.011558203
-0.29999011
0.0028908952
-0.32538971
0.007121104
-0.35243319
0.005620327
-0.37960695
0.0022692252
-0.40669275
-0.00046431042
-0.43428395
-0.00164144
-0.46332735
-0.0016145874
-0.49463219
-0.0010684841
-0.52858219
-0.00043509548
-0.56526156
5.9654805e-05
-0.60474546
0.00034689027
-0.64706549
0.00045747323
-0.69230079
0.00044824962
-0.74058181
0.00037204825
-0.79208693
0.00026697546
-0.84702794
0.00015874734
-0.9056517
6.3553838e-05
-0.96823049
-9.2505187e-06
-1.0350673
-5.6593599e-05
-1.1064961
-7.7937929e-05
-1.182882
-7.3500908e-05
-1.2646126
-4.608001e-05
-1.3521282
-0.17297232
-0.024739854
-0.04276213
-0.17415637
-0.0058866914
-0.17688297
0.062478552
-0.18305043
0.067465965
-0.19037917
0.011378703
-0.19452326
-0.084064207
-0.19078966
-0.10372713
-0.18418073
-0.053779647
-0.17853174
0.04278833
-0.18129749
0.088004749
-0.19630112
0.065480259
-0.2208192
0.011514916
-0.24032043
-0.046128099
-0.24610799
-0.061085659
-0.24811755
-0.042010412
-0.25789473
-0.01351053
-0.27739
0.0053598196
-0.30245903
0.010828642
-0.32909725
0.0087230181
-0.35553588
0.0039886674
-0.38132639
-0.00012061195
-0.40703645
-0.0021379692
-0.43378742
-0.0023373714
-0.46260457
-0.0016524185
-0.49404825
-0.00078519919
-0.52823209
-6.4598276e-05
-0.56513731
0.00038581288
-0.60478439
0.00058975339
-0.64719777
0.00061966731
-0.69247221
0.00054799304
-0.74075776
0.00042718526
-0.79224714
0.00029215223
-0.84716134
0.00016497203
-0.90575312
5.8896711e-05
-0.96829864
-1.9525928e-05
-1.0351044
-6.8894799e-05
-1.1065051
-8.9061606e-05
-1.1828664
-8.1565105e-05
-1.2645771
-5.0212894e-05
-1.352078
-0.17374402
-0.041990422
-0.17326181
-0.023375151
-0.0045649327
-0.17547813
0.066077785
-0.1804822
0.071263853
-0.18684831
0.012262227
-0.19126269
-0.089934573
-0.18865289
-0.11121987
-0.18329692
-0.059587664
-0.17837271
0.046446013
-0.18218943
0.098521333
-0.19181407
0.075246669
-0.20606753
0.015228061
-0.22453235
-0.054071964
-0.23237657
-0.07508853
-0.23210512
-0.052180548
-0.23794741
-0.015615881
-0.25578938
0.0086509215
-0.28068111
0.015595676
-0.30722606
0.012784133
-0.33315836
0.0063486785
-0.35789589
0.00043846816
-0.38188547
-0.002774083
-0.40640034
-0.0033591933
-0.4327656
-0.0025212104
-0.46173578
-0.0013197079
-0.49351374
-0.00030086156
-0.52799582
0.00038307555
-0.56513457
0.00072150907
-0.60491614
0.00081329679
-0.6473914
0.00075655313
-0.69268077
0.00062384815
-0.74095442
0.00046255919
-0.79241754
0.00030207999
-0.84729845
0.00016004584
-0.90585427
4.6367949e-05
-0.96836453
-3.5215105e-05
-1.0351381
-8.4116293e-05
-1.10651
-0.00010146403
-1.1828465
-8.9887106e-05
-1.2645375
-5.4270698e-05
-1.3520237
-0.17477606
-0.0035328921
-0.17453244
-0.040719794
-0.17484005
-0.021548648
0.068562989
-0.17796334
0.074323979
-0.18354233
0.013207308
-0.1877934
-0.094930919
-0.18626635
-0.11775261
-0.18212015
-0.064974615
-0.17790997
0.050451509
-0.18237821
0.10962997
-0.19329806
0.086754211
-0.20332161
0.016717822
-0.20755729
-0.063316936
-0.21528738
-0.091386954
-0.21607814
-0.064751685
-0.21953398
-0.018475731
-0.23508756
0.012975898
-0.26011436
0.021585135
-0.28667057
0.017942088
-0.31238402
0.0094942256
-0.33630391
0.0012811789
-0.3587386
-0.0035688179
-0.38109074
-0.0047667911
-0.40499274
-0.0037744717
-0.43151234
-0.002120355
-0.46093513
-0.00067776642
-0.49313684
0.00031366226
-0.52792641
0.00084864716
-0.56526171
0.0010316243
-0.60513447
0.0010016298
-0.64763647
0.00086079128
-0.69291771
0.00067339849
-0.74116526
0.00047810437
-0.79259357
0.00029765469
-0.84743606
0.00014510037
-0.905953
2.6999493e-05
-0.96842674
-5.4976471e-05
-1.0351672
-0.00010128617
-1.1065102
-0.00011440324
-1.182822
-9.8196794e-05
-1.2644935
-5.808798e-05
-1.3519656
-0.1762778
0.070064723
-0.17532917
-0.0027361593
-0.17655039
-0.039009455
-0.17715833
-0.019317568
0.076599983
-0.18023934
0.014114533
-0.18444956
-0.098900148
-0.18382417
-0.12315794
-0.18086101
-0.069752278
-0.17734249
0.05458183
-0.18204029
0.12120756
-0.1939558
0.098806764
-0.20535062
0.02378281
-0.2103866
-0.074103565
-0.19677066
-0.10794384
-0.19873049
-0.078875398
-0.20195443
-0.022426794
-0.21558292
0.018344424
-0.24045609
0.028931286
-0.26746051
0.024338436
-0.29306691
0.013554556
-0.31644435
0.0025034088
-0.33752614
-0.004555849
-0.35775157
-0.0066652386
-0.37919229
-0.0055289727
-0.40323824
-0.0032831292
-0.43034956
-0.0012450505
-0.46036785
0.00015871834
-0.49298189
0.00096517925
-0.52804294
0.0012774187
-0.56550751
0.0012898136
-0.60542265
0.001144047
-0.64791973
0.0009293868
-0.6931737
0.00069690485
-0.74138406
0.00047517426
-0.79277109
0.00028044648
-0.8475714
0.00012157278
-0.90604757
2.1391602e-06
-0.96848386
-7.7485008e-05
-1.035191
-0.00011942502
-1.1065052
-0.00012738337
-1.1827928
-0.00010602888
-1.2644456
-6.151327e-05
-1.3519041
-0.17771284
0.078035026
-0.17566199
0.070397547
-0.17698707
-0.00229948
-0.17936065
-0.03680714
-0.17993334
-0.016860588
0.015186146
-0.18131095
-0.10170813
-0.18164157
-0.12726694
-0.17971517
-0.073703779
-0.17690951
0.058589359
-0.18135002
0.13278061
-0.19361334
0.11138433
-0.20653337
0.031833151
-0.21340096
-0.078913686
-0.20557648
-0.12267658
-0.18203792
-0.092030346
-0.18557554
-0.026878795
-0.19750243
0.024697581
-0.22193607
0.037837265
-0.24936207
0.032038643
-0.27516072
0.018687807
-0.29820017
0.0041940042
-0.31813495
-0.0057401819
-0.33634181
-0.0091761356
-0.35524068
-0.0079347534
-0.37678651
-0.0049162867
-0.40160508
-0.0020702271
-0.42952439
-9.102001e-05
-0.46011811
0.0010653296
-0.49308204
0.0015616422
-0.52832717
0.0016320645
-0.56584976
0.001482787
-0.60576139
0.001237259
-0.6482276
0.00096328376
-0.69344008
0.00069646173
-0.74160535
0.00045594004
-0.79294658
0.0002523805
-0.84770221
9.1137984e-05
-0.90613657
-2.6331607e-05
-0.96853501
-0.00010150952
-1.0352089
-0.0001377367
-1.1064948
-0.00013978751
-1.182759
-0.0001131764
-1.2643939
-6.4519245e-05
-1.3518396
-0.17876705
0.016240356
-0.17604796
0.078420992
-0.17633368
0.069744158
-0.17953894
-0.0021211833
-0.18250365
-0.034236828
-0.18334141
-0.014255065
-0.10304731
-0.17997177
-0.13001672
-0.1788918
-0.076772459
-0.17664649
0.062396414
-0.18071657
0.14388482
-0.19245423
0.12397137
-0.20620037
0.039639475
-0.21433969
-0.08292466
-0.20938998
-0.13585505
-0.19239802
-0.10333491
-0.17073335
-0.031239413
-0.18121492
0.0317097
-0.20451455
0.048354483
-0.23245329
0.041165646
-0.25848907
0.024977468
-0.28145038
0.0064867505
-0.30049291
-0.0071663426
-0.31670879
-0.012451635
-0.33306631
-0.011156498
-0.35201893
-0.0071545
-0.37454829
-0.0032277972
-0.40044751
-0.00046046039
-0.42915494
0.0011544412
-0.46020722
0.0018987169
-0.49341912
0.0020469003
-0.528742
0.0018922885
-0.56625926
0.0016071394
-0.60613127
0.0012836564
-0.64854797
0.0009658746
-0.69370949
0.00067516923
-0.74182458
0.00042297042
-0.79311717
0.0002155841
-0.84782666
5.5677336e-05
-0.90621858
-5.7176132e-05
-0.96857935
-0.00012597236
-1.0352207
-0.00015551338
-1.1064791
-0.00015126758
-1.182721
-0.00011954792
-1.2643389
-6.7031969e-05
-1.3517725
-0.17902918
-0.10278518
-0.17714808
0.017340478
-0.17603138
0.078118692
-0.17775942
0.067964631
-0.18255506
-0.0020697738
-0.18618662
-0.031391619
-0.18712186
-0.011666159
-0.13154319
-0.1784453
-0.078916712
-0.17674754
0.0658029
-0.18005297
0.15400124
-0.19083299
0.13611802
-0.20460089
0.047884225
-0.21444512
-0.086980432
-0.21028392
-0.14918268
-0.19606236
-0.11999573
-0.1757372
-0.03538573
-0.16658704
0.038987132
-0.18849235
0.060399816
-0.21655988
0.051725088
-0.24301273
0.032555856
-0.26606746
0.0094723697
-0.284436
-0.0088108222
-0.29884843
-0.016653375
-0.31250705
-0.015414328
-0.32880848
-0.010140363
-0.34903307
-0.004799698
-0.37297639
-0.0009783102
-0.39992966
0.0012510702
-0.42925157
0.0023084144
-0.46061692
0.0025606583
-0.49393288
0.0023932615
-0.52924297
0.0020535858
-0.56670571
0.0016668681
-0.60651449
0.0012886463
-0.64887075
0.00094174782
-0.69397607
0.00063656562
-0.74203817
0.00037900871
-0.79328059
0.00017230173
-0.84794328
1.7046871e-05
-0.9062928
-8.8836348e-05
-0.96861648
-0.00015000257
-1.0352262
-0.0001721756
-1.1064582
-0.00016163079
-1.1826789
-0.0001249314
-1.264281
-6.9065622e-05
-1.3517035
-0.17902157
-0.13155079
-0.17928624
-0.10064702
-0.17674534
0.018054435
-0.17655833
0.076917609
-0.17981365
0.065223219
-0.18601101
-0.0022453801
-0.19007101
-0.028442465
-0.19099474
-0.0092923293
-0.079814465
-0.17754755
0.068637646
-0.17958229
0.16276232
-0.18881405
0.14719006
-0.20190502
0.055822601
-0.21253926
-0.090523641
-0.21090192
-0.16163412
-0.19783247
-0.13637467
-0.17968341
-0.050782353
-0.16034058
0.046394841
-0.17399475
0.073427023
-0.20151956
0.063746101
-0.22858089
0.041355714
-0.25181259
0.013265326
-0.26986041
-0.010724054
-0.28252276
-0.021984356
-0.29351745
-0.020913609
-0.30700776
-0.014049874
-0.32489897
-0.0068690962
-0.34696367
-0.0016669665
-0.37228774
0.0013718558
-0.40005044
0.0028244224
-0.42976758
0.0032097216
-0.46126598
0.0030160726
-0.49455569
0.002597656
-0.52978704
0.0021253106
-0.56716415
0.0016714284
-0.60689727
0.0012593665
-0.64918836
0.00089595347
-0.69423546
0.00058428947
-0.74224345
0.00032682788
-0.79343512
0.00012476521
-0.848051
-2.2972851e-05
-0.90635866
-0.00012026368
-0.96864622
-0.0001728875
-1.0352255
-0.00018747098
-1.1064324
-0.00017061703
-1.1826332
-0.00012942794
-1.2642206
-7.0634779e-05
-1.3516328
-0.17959391
-0.079242126
-0.18112533
-0.1297117
-0.18012943
-0.097262932
-0.17730239
0.01879849
-0.17769713
0.074801091
-0.18233418
0.061546382
-0.18961967
-0.002696726
-0.19385166
-0.025585544
-0.19481508
-0.0073267187
0.071240147
-0.18015005
0.16988176
-0.18670172
0.15668465
-0.19830865
0.063347009
-0.20942943
-0.093716941
-0.20934596
-0.17379828
-0.19873776
-0.15197893
-0.18222822
-0.066252252
-0.16421351
0.042803776
-0.15674951
0.087526666
-0.18809439
0.077062062
-0.21483552
0.051426379