/*--------------------------------*- C++ -*----------------------------------*\
| =========                 |                                                 |
| \\      /  F ield         | OpenFOAM: The Open Source CFD Toolbox           |
|  \\    /   O peration     | Version:  5.0                                   |
|   \\  /    A nd           | Web:      www.OpenFOAM.org                      |
|    \\/     M anipulation  |                                                 |
\*---------------------------------------------------------------------------*/
FoamFile
{
    version     2.0;
    format      ascii;
    class       surfaceScalarField;
    location    "340";
    object      phi_0;
}
// * * * * * * * * * * * * * * * * * * * * * * * * * * * * * * * * * * * * * //

dimensions      [0 3 -1 0 0 0 0];

internalField   nonuniform List<scalar> 
18820
(
-0.00039703397
-1.3580566
-0.00076639334
-1.2700453
-0.00037872222
-1.3576779
-0.0011078687
-1.1878277
-0.00073253257
-1.2696915
-0.00036011073
-1.3573178
-0.001420859
-1.1109965
-0.001061333
-1.1874989
-0.00069681516
-1.2693548
-0.00034922642
-1.3569686
-0.0017048628
-1.0391853
-0.0013646627
-1.1106932
-0.0010105142
-1.1871852
-0.00067534589
-1.2690287
-0.00034757837
-1.356621
-0.0019597595
-0.97204725
-0.0016418027
-1.0389082
-0.0013018744
-1.1104018
-0.0009797474
-1.1868808
-0.0006719459
-1.2687043
-0.00034818264
-1.3562728
-0.0021850922
-0.90926695
-0.0018923777
-0.97179667
-0.0015708213
-1.0386392
-0.0012642393
-1.1101173
-0.00097535295
-1.1865774
-0.00067437589
-1.2683781
-0.00034160491
-1.3559312
-0.0023796787
-0.85055396
-0.002116373
-0.90904296
-0.0018164484
-0.97155105
-0.0015298637
-1.0383736
-0.0012597278
-1.1098329
-0.00098147347
-1.1862703
-0.00066404041
-1.2680557
-0.00032520495
-1.355606
-0.0025413539
-0.79564023
-0.0023141643
-0.85035617
-0.002038319
-0.90882109
-0.001776145
-0.97130476
-0.0015266061
-1.0381067
-0.0012710642
-1.1095434
-0.00097052375
-1.1859638
-0.00063449575
-1.2677464
-0.0003021207
-1.3553039
-0.0026669834
-0.74427542
-0.0024869701
-0.79546742
-0.0022371047
-0.85015738
-0.002002576
-0.90859466
-0.0017765807
-0.97105479
-0.0015448553
-1.0378329
-0.0012622599
-1.1092516
-0.00093149947
-1.1856668
-0.00059065629
-1.2674579
-0.00027881875
-1.3550251
-0.0027538591
-0.69623164
-0.0026363194
-0.74412607
-0.0024160731
-0.79528846
-0.002209109
-0.84995085
-0.0020096664
-0.90836157
-0.0018047029
-0.97079494
-0.0015406332
-1.0375546
-0.0012181664
-1.108965
-0.00086937941
-1.1853881
-0.0005452647
-1.2671914
-0.00026021915
-1.3547648
-0.0028001027
-0.65129673
-0.0027631287
-0.69610483
-0.0025826393
-0.7439595
-0.0023966049
-0.79510096
-0.0022252686
-0.84973525
-0.0020514417
-0.90811483
-0.0018079913
-0.97052758
-0.0014956543
-1.0372771
-0.0011417133
-1.1086926
-0.00080330724
-1.18513
-0.0005082967
-1.2669433
-0.00024732808
-1.3545175
-0.0028191
-0.60925351
-0.002887007
-0.65117285
-0.0027527142
-0.69593475
-0.0025677584
-0.74378835
-0.0024212359
-0.79490499
-0.002284153
-0.84950254
-0.0020660562
-0.90785677
-0.001766053
-0.97025718
-0.0014094685
-1.0370093
-0.0010569708
-1.108439
-0.0007490003
-1.1848893
-0.00048231337
-1.2667084
-0.00023755443
-1.3542799
-0.0028180086
-0.56990249
-0.0030383165
-0.6091022
-0.0029447441
-0.65098082
-0.0027275468
-0.69577497
-0.0025926776
-0.74361691
-0.0024985814
-0.79469056
-0.0023158788
-0.84925272
-0.0020314979
-0.90759132
-0.0016734197
-0.96999323
-0.0013091479
-1.0367571
-0.00098639059
-1.1082016
-0.00071045831
-1.1846612
-0.00046291596
-1.266483
-0.00022691484
-1.354053
-0.002804487
-0.53308974
-0.0032060627
-0.56973475
-0.0031422909
-0.60890465
-0.0028595564
-0.65084881
-0.0027245317
-0.69564311
-0.0026859592
-0.74342953
-0.0025581362
-0.79444831
-0.0022946325
-0.84898958
-0.0019346161
-0.90733012
-0.0015602504
-0.96974213
-0.0012234621
-1.0365201
-0.00093593064
-1.1079761
-0.00068149528
-1.1844426
-0.00044257325
-1.2662673
-0.00021227415
-1.3538408
-0.0027830926
-0.49865522
-0.0034100648
-0.53288574
-0.0033179864
-0.56955905
-0.0029383325
-0.60882587
-0.0027941653
-0.65077918
-0.0028341195
-0.69549495
-0.0027934617
-0.74319421
-0.0025601943
-0.79418274
-0.0021948989
-0.8487293
-0.0018100868
-0.90708029
-0.0014612758
-0.96950432
-0.0011616522
-1.0362943
-0.0008975741
-1.10776
-0.0006514727
-1.1842337
-0.00041484365
-1.2660648
-0.00019258022
-1.3536482
-0.0027690103
-0.466446
-0.0036586918
-0.4984066
-0.0034832294
-0.53272049
-0.0029776648
-0.56951972
-0.0027923803
-0.60882766
-0.0029360426
-0.65067726
-0.0030252505
-0.69526316
-0.0028366021
-0.7429178
-0.0024578975
-0.79391974
-0.0020582581
-0.84848113
-0.0016997044
-0.90684186
-0.0013896837
-0.96927628
-0.0011144047
-1.0360775
-0.00085752223
-1.107554
-0.00061137031
-1.1840372
-0.0003770466
-1.2658803
-0.0001690391
-1.3534791
-0.0027477362
-0.436321
-0.0039945276
-0.46611017
-0.0036690272
-0.4982208
-0.0029546416
-0.53274352
-0.0027303808
-0.56958172
-0.0029976712
-0.60876603
-0.0032635526
-0.65043895
-0.0031366543
-0.69496311
-0.0027297034
-0.74264599
-0.0023037628
-0.79367424
-0.0019373099
-0.84824352
-0.0016210899
-0.90661045
-0.0013349903
-0.9690557
-0.0010646088
-1.0358704
-0.00080469682
-1.1073606
-0.0005569411
-1.1838573
-0.00033113027
-1.2657182
-0.00014441296
-1.3533347
-0.002766911
-0.40813477
-0.0044298494
-0.43588567
-0.0038952079
-0.46588398
-0.0028776442
-0.49829779
-0.002567383
-0.53290651
-0.0030267361
-0.56955265
-0.0035196458
-0.60850994
-0.0034819189
-0.65009369
-0.0030201339
-0.69467268
-0.0025445175
-0.74240524
-0.0021704406
-0.79344111
-0.0018553808
-0.84800923
-0.0015618259
-0.90638362
-0.0012765698
-0.96884374
-0.00099894471
-1.0356762
-0.00073421399
-1.1071834
-0.00048970207
-1.1836987
-0.0002825317
-1.2655801
-0.00012173954
-1.353213
-0.002753943
-0.38175919
-0.0050347511
-0.40752987
-0.0042035865
-0.4355773
-0.0027014593
-0.46606017
-0.0022549008
-0.49861028
-0.0030271185
-0.53290613
-0.0038015918
-0.56927071
-0.0038926208
-0.60809923
-0.0033412046
-0.64977262
-0.0027786444
-0.69443855
-0.0023929406
-0.74218274
-0.0020897578
-0.79320673
-0.001796312
-0.84777474
-0.0014971905
-0.906163
-0.0011987364
-0.96864395
-0.00091205223
-1.0354983
-0.00064710052
-1.107026
-0.00041663368
-1.1835646
-0.00023740575
-1.2654644
-0.00010311644
-1.3531099
-0.0028153092
-0.35702387
-0.0057618804
-0.38103207
-0.0045882504
-0.40714521
-0.0024192586
-0.4358595
-0.0017379628
-0.46657711
-0.002953146
-0.49868425
-0.0041413933
-0.53256633
-0.0043907851
-0.56877254
-0.0037087348
-0.6077317
-0.0030014893
-0.64954977
-0.0025945998
-0.69423689
-0.0023184585
-0.74195404
-0.0020385459
-0.7929645
-0.0017299267
-0.84754201
-0.0014084115
-0.90595332
-0.0010951875
-0.96846081
-0.00080519371
-1.0353402
-0.00054978012
-1.1068928
-0.00034761828
-1.1834544
-0.00019988255
-1.2653677
-8.9195371e-05
-1.3530207
-0.0027966822
-0.33383886
-0.0067075331
-0.35607822
-0.0051283583
-0.38049196
-0.0019724199
-0.40759205
-0.00096096141
-0.4366365
-0.0027873899
-0.46674286
-0.0045763158
-0.49824933
-0.0050055059
-0.53195161
-0.0041228787
-0.5683584
-0.0032106791
-0.60752251
-0.0027599432
-0.64938443
-0.0025305034
-0.69402485
-0.0022865206
-0.74170606
-0.0019783907
-0.79271603
-0.0016326082
-0.84731781
-0.0012876562
-0.90576085
-0.00096720099
-0.9682988
-0.00068399784
-1.035206
-0.0004552811
-1.1067852
-0.00028983506
-1.1833644
-0.00017117423
-1.2652857
-7.9440214e-05
-1.3529412
-0.0029398782
-0.31195217
-0.0077082238
-0.33283817
-0.0057897005
-0.35541688
-0.0013985568
-0.38106582
0.00014166117
-0.40869467
-0.0024816473
-0.43694224
-0.0051531461
-0.46616603
-0.0058072551
-0.49744758
-0.0046071977
-0.53146729
-0.0033772122
-0.56819186
-0.0028606768
-0.60742178
-0.0027077175
-0.64920722
-0.0025343545
-0.69377701
-0.0022463737
-0.74143808
-0.0018772222
-0.79247142
-0.0014939539
-0.84711151
-0.0011363741
-0.90559168
-0.00082074008
-0.96816206
-0.00056292501
-1.0350984
-0.00037503564
-1.1067
-0.00024545835
-1.1832901
-0.00015035188
-1.2652148
-7.2738559e-05
-1.3528685
-0.0032883251
-0.29126496
-0.0090690822
-0.31059131
-0.0066642024
-0.33196367
-0.00055611554
-0.35625932
0.0016331573
-0.38255732
-0.0020226181
-0.4091537
-0.0059135008
-0.43618189
-0.006869445
-0.46510384
-0.0051892485
-0.49686553
-0.0034812159
-0.53136329
-0.0028618972
-0.56819064
-0.0028143604
-0.60731514
-0.0027710506
-0.64897052
-0.0025384741
-0.69348491
-0.0021503959
-0.7411649
-0.0017198172
-0.79224556
-0.0013159961
-0.84693189
-0.00096189741
-0.90545052
-0.00067137708
-0.96805361
-0.00045833078
-1.0350151
-0.00031284639
-1.1066326
-0.00021282319
-1.1832277
-0.00013566036
-1.2651518
-6.7934039e-05
-1.3528006
-0.003613071
-0.27245201
-0.010642882
-0.28969116
-0.0076531706
-0.30960235
0.00037336342
-0.33289315
0.0036245068
-0.35825067
-0.0013186448
-0.38326129
-0.0069238524
-0.40814335
-0.0082857592
-0.43476557
-0.0059085407
-0.46438455
-0.0034930742
-0.49685367
-0.0027003984
-0.53152478
-0.002834831
-0.56817017
-0.0029806395
-0.60710555
-0.0028607898
-0.6486482
-0.0024647463
-0.69317056
-0.0019733604
-0.74091136
-0.0015095768
-0.79205197
-0.0011090698
-0.84678472
-0.00078194732
-0.90533995
-0.00054073568
-0.9679712
-0.00037580147
-1.0349521
-0.00026667994
-1.1065787
-0.00018889943
-1.1831744
-0.0001253426
-1.2650944
-6.4071394e-05
-1.3527365
-0.0038953832
-0.25456033
-0.012425368
-0.27066952
-0.0086714287
-0.2886729
0.0018324872
-0.31106147
0.0060952363
-0.33536388
-0.00042339763
-0.35914592
-0.008237078
-0.38194806
-0.010145197
-0.40628391
-0.0068150447
-0.43385907
-0.0033865305
-0.46449109
-0.0023112468
-0.49724282
-0.0027380961
-0.53162152
-0.0031657391
-0.56798507
-0.003226352
-0.60673999
-0.0028391517
-0.6482738
-0.0022671115
-0.69287681
-0.0017214212
-0.74069951
-0.0012629075
-0.79189814
-0.0008952591
-0.8466714
-0.00062346987
-0.90525722
-0.00043626718
-0.96791074
-0.00031322701
-1.0349056
-0.00023226085
-1.1065354
-0.00017117395
-1.1831286
-0.00011765346
-1.2650409
-6.0409385e-05
-1.3526761
-0.0049104048
-0.23612964
-0.014176958
-0.25280874
-0.010119751
-0.2692212
0.0035985041
-0.29043892
0.0091096276
-0.31407586
0.00084730711
-0.33663458
-0.0099836761
-0.35739932
-0.012573399
-0.37951986
-0.0079568348
-0.40514212
-0.0031272124
-0.43411839
-0.001616395
-0.46518595
-0.002445394
-0.49753552
-0.003345503
-0.53144175
-0.0036514837
-0.56755994
-0.0033053696
-0.60627377
-0.0026197775
-0.64792113
-0.0019569794
-0.69264125
-0.0014227246
-0.7405397
-0.0010103005
-0.79178309
-0.00070721497
-0.84658766
-0.00049579582
-0.90519769
-0.00035529176
-0.96786867
-0.0002658055
-1.034872
-0.00020567341
-1.1065009
-0.00015778778
-1.1830885
-0.00011069081
-1.2649906
-5.6395425e-05
-1.3526197
-0.0064175532
-0.21762318
-0.016771133
-0.23353547
-0.011817932
-0.25111056
0.005751338
-0.27137404
0.012691038
-0.29402033
0.0022402849
-0.31546884
-0.012161388
-0.33445687
-0.015659709
-0.35431301
-0.0094098797
-0.37806682
-0.0026774228
-0.40559191
-0.00051474875
-0.43522003
-0.0018704685
-0.46576087
-0.0035018835
-0.49737914
-0.0041702095
-0.53092303
-0.0038925953
-0.56697272
-0.0030600993
-0.60583344
-0.0022239533
-0.64765416
-0.0015859092
-0.69247807
-0.0011232888
-0.74042671
-0.00079089423
-0.79169941
-0.00055577199
-0.84652768
-0.00039513369
-0.90515784
-0.00029226232
-0.96784222
-0.00022849949
-1.0348492
-0.00018420992
-1.1064744
-0.00014638172
-1.1830528
-0.00010278244
-1.2649442
-5.1780834e-05
-1.3525679
-0.0080398062
-0.20067443
-0.019514953
-0.21487936
-0.013071319
-0.23228208
0.0079916958
-0.25335092
0.016946402
-0.2756294
0.0038499499
-0.29562999
-0.014920179
-0.31271005
-0.019560352
-0.33055623
-0.01120998
-0.35251291
-0.0019882188
-0.37875602
0.0011018368
-0.4072085
-0.00091287753
-0.43617762
-0.00360183
-0.46566092
-0.0048325187
-0.49671683
-0.0046408814
-0.53017474
-0.0036165622
-0.56641625
-0.0025325738
-0.60552482
-0.0017478883
-0.64749218
-0.0012263874
-0.69237497
-0.00087024269
-0.74034736
-0.00061627368
-0.79163891
-0.00043527113
-0.84648754
-0.00031470543
-0.9051354
-0.00024134381
-0.96782937
-0.00019710616
-1.0348363
-0.00016549917
-1.1064553
-0.0001342537
-1.1830213
-9.334729e-05
-1.2649026
-4.6806466e-05
-1.3525211
-0.0097781539
-0.1847741
-0.022115394
-0.19807399
-0.013413736
-0.21453695
0.011610422
-0.23590081
0.021662949
-0.25806746
0.0058672643
-0.27764672
-0.018430789
-0.29211938
-0.024303024
-0.30796738
-0.013466453
-0.32829975
-0.00099008547
-0.35351104
0.0033764987
-0.38103068
0.00053900615
-0.40866038
-0.0036064424
-0.43617301
-0.0056920755
-0.46480137
-0.0056335389
-0.49572417
-0.0043203286
-0.52947098
-0.0028968678
-0.56605196
-0.0018988552
-0.60537386
-0.0013061156
-0.64741245
-0.00093639073
-0.69230882
-0.00067509313
-0.74028854
-0.00047771727
-0.79159647
-0.00033685869
-0.84646539
-0.0002478558
-0.90512889
-0.00019754969
-0.96782893
-0.00016894563
-1.0348329
-0.00014734027
-1.1064422
-0.00012011372
-1.1829945
-8.326643e-05
-1.2648662
-4.2046257e-05
-1.3524791
-0.013425161
-0.19978348
-0.024559791
-0.1823297
-0.013304746
-0.19818298
0.016468333
-0.21939486
0.026997584
-0.24123544
0.0088025226
-0.26100272
-0.022646893
-0.27343061
-0.029898572
-0.28652383
-0.016101883
-0.30533195
0.00040142538
-0.32969126
0.0064460464
-0.35658059
0.0026195128
-0.38311119
-0.0034744159
-0.4087924
-0.0068105776
-0.43505451
-0.006969592
-0.46346531
-0.0052394965
-0.49480501
-0.0033253317
-0.52904251
-0.0020262743
-0.56592454
-0.0013407993
-0.60533917
-0.00097375311
-0.64737509
-0.00072620417
-0.69225771
-0.00052365433
-0.7402426
-0.00036286463
-0.79157046
-0.00025266512
-0.84646058
-0.00018924826
-0.90513719
-0.00015802239
-0.96783985
-0.00014215663
-1.0348381
-0.00012774332
-1.1064346
-0.0001045818
-1.1829732
-7.3837875e-05
-1.2648344
-3.802296e-05
-1.352441
-0.016641851
-0.19634745
-0.028838357
-0.19550491
-0.012671237
-0.18296321
0.021722905
-0.20343755
0.032525287
-0.22492256
0.011682364
-0.24411528
-0.026581308
-0.25706831
-0.036558699
-0.26677049
-0.019137254
-0.28348846
0.0023419748
-0.30727249
0.010479381
-0.3337246
0.005455855
-0.35941693
-0.0031515075
-0.3834341
-0.0082593873
-0.4073436
-0.0087730906
-0.43325101
-0.0064613132
-0.4622435
-0.0038317243
-0.49429861
-0.0021124775
-0.52895631
-0.0012980464
-0.56596729
-0.00095780319
-0.60535512
-0.0007582827
-0.64734301
-0.00057240135
-0.69220896
-0.00039754929
-0.74020792
-0.00026179515
-0.79156133
-0.00017715182
-0.84647268
-0.00013554262
-0.90515967
-0.00011978518
-0.96786222
-0.00011436399
-1.0348514
-0.00010656206
-1.1064326
-9.0031e-05
-1.182957
-6.5908039e-05
-1.2648065
-3.5081453e-05
-1.3524059
-0.01940259
-0.19257839
-0.032657876
-0.19252793
-0.013690321
-0.19448583
0.027183904
-0.18842421
0.03771113
-0.2086234
0.013068421
-0.22630862
-0.031125247
-0.23957134
-0.044722932
-0.24890407
-0.022918334
-0.26298941
0.0049107993
-0.28605729
0.015617613
-0.31241073
0.009204653
-0.3374734
-0.0026002104
-0.35996823
-0.010122767
-0.38157072
-0.011183357
-0.40493333
-0.0080948221
-0.4316175
-0.0044430499
-0.46163217
-0.0021242631
-0.49428683
-0.0011355969
-0.52911876
-0.00085589741
-0.5660692
-0.00075299893
-0.60536041
-0.00062141943
-0.64729399
-0.00044696416
-0.69215955
-0.0002835357
-0.74018618
-0.00016822433
-0.79157026
-0.00010599658
-0.84650222
-8.2621785e-05
-0.90519683
-8.0893822e-05
-0.96789569
-8.6107378e-05
-1.0348719
-8.6405852e-05
-1.1064362
-7.7824458e-05
-1.1829451
-6.0105377e-05
-1.2647815
-3.3420424e-05
-1.3523725
-0.021692867
-0.18873643
-0.035971287
-0.18926498
-0.014033983
-0.19218427
0.031223629
-0.19852556
0.042391253
-0.19310433
0.013307863
-0.20886284
-0.037796928
-0.21963694
-0.053878511
-0.23041576
-0.028327335
-0.24349507
0.0080482775
-0.26612688
0.022003128
-0.2924428
0.013956969
-0.31716304
-0.001744158
-0.33832945
-0.012499398
-0.3575916
-0.014375668
-0.37837841
-0.010262873
-0.40276528
-0.005193313
-0.43086724
-0.0020202443
-0.46173619
-0.00079480464
-0.49462762
-0.00061566618
-0.52935899
-0.00069101302
-0.56613118
-0.00066778741
-0.60531404
-0.00051865134
-0.6472223
-0.00032906408
-0.69211402
-0.00017238738
-0.74018202
-7.6433405e-05
-0.79159982
-3.446848e-05
-0.84655038
-2.9378327e-05
-0.90524835
-4.3012215e-05
-0.96793879
-5.9581322e-05
-1.0348987
-6.9341868e-05
-1.1064447
-6.8698431e-05
-1.1829365
-5.6841609e-05
-1.264758
-3.3067541e-05
-1.3523395
-0.023475822
-0.18490456
-0.038761717
-0.185946
-0.01380345
-0.18949551
0.036022715
-0.19698335
0.045958944
-0.20209325
0.012908088
-0.19270456
-0.045409294
-0.20125047
-0.062725707
-0.21078974
-0.03414943
-0.22459367
0.011614887
-0.24706168
0.029649673
-0.27377343
0.019810141
-0.29829597
-0.00059024887
-0.31831695
-0.015503707
-0.33532514
-0.018532195
-0.35343507
-0.013119083
-0.3755222
-0.0061219613
-0.40183663
-0.0017502433
-0.43113724
-0.00019730113
-0.46233369
-0.00017035357
-0.49507293
-0.00053236864
-0.52951763
-0.00070095506
-0.56609802
-0.00062074593
-0.60521194
-0.00041264337
-0.64713872
-0.00020305163
-0.69208335
-5.6701226e-05
-0.74020175
1.8917026e-05
-0.79165321
3.8056576e-05
-0.84661781
2.1705497e-05
-0.90531307
-8.202431e-06
-0.96799017
-3.7059517e-05
-1.034931
-5.6744784e-05
-1.1064567
-6.3328917e-05
-1.18293
-5.5883674e-05
-1.2647352
-3.3952144e-05
-1.3523055
-0.024705519
-0.18130035
-0.040961762
-0.18270452
-0.013149489
-0.18659996
0.041296596
-0.1947694
0.050125325
-0.20114973
0.012465859
-0.20165102
-0.053235493
-0.18487836
-0.070828158
-0.19314802
-0.03827724
-0.20666193
0.016048196
-0.22902698
0.03878375
-0.25619576
0.026759562
-0.28072285
0.00088566891
-0.29977189
-0.019291215
-0.31452944
-0.023875116
-0.32998222
-0.016813732
-0.34974042
-0.0072697654
-0.37437439
-0.0012589267
-0.40232795
0.00075360613
-0.43208814
0.00056578412
-0.46306983
-0.00021923989
-0.49538606
-0.00071348557
-0.5295051
-0.00075254504
-0.56596622
-0.00055174795
-0.60507284
-0.00027833911
-0.64706344
-6.0050256e-05
-0.69208001
6.9000158e-05
-0.74025183
0.00011682264
-0.79173197
0.00010756712
-0.84670367
6.8738267e-05
-0.90539001
2.1213945e-05
-0.96804844
-2.056089e-05
-1.0349672
-4.9338202e-05
-1.1064707
-6.176447e-05
-1.1829242
-5.7440878e-05
-1.2647117
-3.5963622e-05
-1.3522695
-0.025375991
-0.17813259
-0.042526528
-0.17973558
-0.012153353
-0.18370065
0.04676452
-0.19206788
0.054637782
-0.19928185
0.012469206
-0.20115308
-0.06094738
-0.19393913
-0.078426957
-0.17727956
-0.041300107
-0.19012515
0.02188948
-0.21250321
0.049629675
-0.2398729
0.035139327
-0.26457552
0.0026657219
-0.2825029
-0.02409779
-0.29496532
-0.030612887
-0.30779167
-0.021532306
-0.32526364
-0.0086756414
-0.34833455
-0.00047011256
-0.37516321
0.002171068
-0.40374541
0.0016962594
-0.43321862
0.00031527844
-0.46360435
-0.00067926318
-0.49542028
-0.00093802939
-0.52931962
-0.00076592725
-0.56575204
-0.00042228775
-0.60492889
-0.00010520241
-0.64701828
0.00010344165
-0.69211445
0.00020012646
-0.74033513
0.00021082272
-0.79183523
0.00017052752
-0.84680546
0.00010811737
-0.90547691
4.3201873e-05
-0.9681122
-1.0809148e-05
-1.0350057
-4.7213433e-05
-1.1064852
-6.4353064e-05
-1.1829172
-6.1387529e-05
-1.2646863
-3.8893215e-05
-1.3522307
-0.02553276
-0.17561017
-0.043421928
-0.17723719
-0.010955099
-0.18093383
0.052133926
-0.18907006
0.059388967
-0.19681907
0.012790006
-0.19960265
-0.068340224
-0.19376024
-0.087522667
-0.18484342
-0.043487681
-0.17509198
0.028849331
-0.197085
0.061832125
-0.22470567
0.045336942
-0.25007052
0.0052279872
-0.26713779
-0.030044922
-0.27655577
-0.038961975
-0.28661623
-0.027381508
-0.30194247
-0.010383211
-0.32355607
0.00070283012
-0.34950749
0.0041847163
-0.37717685
0.0033456857
-0.40539483
0.0011539621
-0.4340573
-0.0005663863
-0.46371723
-0.0012013396
-0.49515697
-0.0010852128
-0.52900033
-0.00066841109
-0.56550591
-0.00021657765
-0.60481752
0.00010652027
-0.64702136
0.00027939005
-0.69219371
0.00032803255
-0.74045234
0.00029640637
-0.79196111
0.00022357463
-0.84692092
0.00013740873
-0.90557112
5.6355807e-05
-0.96817937
-8.0366756e-06
-1.0350449
-5.0439585e-05
-1.1064991
-7.046836e-05
-1.1829082
-6.7177444e-05
-1.264658
-4.2483038e-05
-1.3521882
-0.025128686
-0.17383436
-0.043704622
-0.17532748
-0.0095896922
-0.1786026
0.057095918
-0.18589583
0.064086258
-0.19376735
0.013497612
-0.19752667
-0.075313441
-0.19262944
-0.096290027
-0.18499287
-0.050218588
-0.17811251
0.036704787
-0.18294744
0.074653951
-0.20990683
0.056236326
-0.23560505
0.0090854356
-0.25392797
-0.03676702
-0.26041569
-0.048989846
-0.2665279
-0.034448049
-0.27954969
-0.012377729
-0.29994795
0.0023710963
-0.32522434
0.0069352415
-0.35225801
0.005651123
-0.37948229
0.0023992869
-0.40664016
-0.00033278508
-0.4342909
-0.0015536995
-0.46336487
-0.00156697
-0.49467521
-0.0010484311
-0.52862031
-0.00043042913
-0.56529206
5.8515199e-05
-0.60476951
0.00034410933
-0.64708608
0.00045450816
-0.69232019
0.00044517193
-0.74060111
0.00036875227
-0.79210628
0.00026352474
-0.84704703
0.00015534001
-0.9056701
6.0423532e-05
-0.96824783
-1.1881128e-05
-1.0350834
-5.8606668e-05
-1.106511
-7.934747e-05
-1.182896
-7.4371317e-05
-1.2646261
-4.6489497e-05
-1.3521417
-0.17297993
-0.02423525
-0.043375439
-0.17416354
-0.0081192928
-0.17679788
0.061445959
-0.18295264
0.068498381
-0.19030795
0.014415127
-0.19468486
-0.081743002
-0.19109711
-0.10446844
-0.18445103
-0.056657033
-0.17855443
0.039468203
-0.18087593
0.08755705
-0.19585054
0.066914812
-0.22058532
0.013915228
-0.24043484
-0.044045861
-0.24664913
-0.060766952
-0.24863858
-0.042839408
-0.25813654
-0.0146004
-0.27732702
0.0046682627
-0.30224512
0.010581057
-0.32887016
0.0087620025
-0.35536889
0.004167144
-0.38125015
6.7825031e-05
-0.40704077
-0.0020084969
-0.43383611
-0.0022693928
-0.46266244
-0.0016261849
-0.49409746
-0.00078114857
-0.52826959
-6.9174237e-05
-0.56516437
0.00038007415
-0.60480548
0.00058499136
-0.64721657
0.00061581973
-0.69249083
0.00054449688
-0.74077685
0.0004237113
-0.79226647
0.00028866867
-0.84718036
0.00016163438
-0.90577131
5.5904977e-05
-0.96831561
-2.1980732e-05
-1.0351201
-7.0756891e-05
-1.1065196
-9.0362668e-05
-1.18288
-8.2386381e-05
-1.2645902
-5.0611387e-05
-1.3520911
-0.17374742
-0.042607955
-0.17325388
-0.022867388
-0.0068553785
-0.17542746
0.06505902
-0.18041094
0.072336388
-0.18679065
0.015516957
-0.19140978
-0.087494211
-0.18893365
-0.11200339
-0.18356215
-0.062709402
-0.17839866
0.042660106
-0.18174633
0.097974575
-0.19129345
0.076927563
-0.20586329
0.018048883
-0.22471897
-0.051477625
-0.23300308
-0.074676873
-0.2327392
-0.053221893
-0.2382561
-0.017040114
-0.25569683
0.0077512192
-0.28040997
0.01527552
-0.30693958
0.012832906
-0.33294106
0.0065886293
-0.35779038
0.00070354884
-0.38188587
-0.002585477
-0.40646379
-0.0032614543
-0.43284404
-0.0024868354
-0.46180179
-0.0013178245
-0.49356078
-0.00031101544
-0.52802775
0.0003720143
-0.56515631
0.0007133477
-0.60493383
0.00080787114
-0.64740862
0.00075259052
-0.69269893
0.00062038412
-0.74097353
0.00045915376
-0.79243695
0.00029869862
-0.84731743
0.00015684901
-0.90587225
4.3544584e-05
-0.96838114
-3.7498737e-05
-1.0351533
-8.5853667e-05
-1.1065241
-0.00010269544
-1.1828597
-9.0681273e-05
-1.2645502
-5.4669923e-05
-1.3520364
-0.17476129
-0.0058415051
-0.17452961
-0.04133222
-0.17481551
-0.02103319
0.067551648
-0.17792009
0.075426224
-0.18350078
0.016649786
-0.18792347
-0.092393274
-0.18651072
-0.11857205
-0.182365
-0.068329807
-0.17794175
0.046185971
-0.18192452
0.10900009
-0.19277185
0.088517525
-0.20288342
0.020031307
-0.20784571
-0.060205874
-0.21599072
-0.090845469
-0.21683448
-0.066024715
-0.21993638
-0.020318473
-0.23497774
0.011830755
-0.25977636
0.021182876
-0.28631733
0.018002454
-0.31210913
0.0098095946
-0.33616202
0.0016472377
-0.35873407
-0.0032983533
-0.381173
-0.0046266252
-0.40509862
-0.003728958
-0.43160192
-0.0021233522
-0.46099626
-0.00069663299
-0.49317517
0.00029372554
-0.52794946
0.00083474907
-0.56527771
0.0010232814
-0.60514924
0.00099667558
-0.6476527
0.00085728919
-0.69293583
0.00067023545
-0.74118461
0.00047489263
-0.79261315
0.00029443461
-0.84745501
0.00014206992
-0.90597078
2.4339201e-05
-0.96844298
-5.7120855e-05
-1.0351821
-0.0001029378
-1.1065239
-0.00011559742
-1.1828348
-9.8989335e-05
-1.2645059
-5.8501027e-05
-1.3519779
-0.1762644
0.06905476
-0.17535063
-0.0050204848
-0.17654577
-0.039601959
-0.17711563
-0.018795898
0.077715929
-0.18020979
0.017709866
-0.18456086
-0.096295572
-0.18402118
-0.12400491
-0.18107785
-0.073315049
-0.17737976
0.049833336
-0.18158911
0.12050076
-0.19342519
0.1006595
-0.20491382
0.027502833
-0.21035494
-0.070548275
-0.19750331
-0.10734616
-0.19949003
-0.080449113
-0.20241008
-0.024787165
-0.21546769
0.01689495
-0.24004194
0.028442976
-0.26703646
0.024411898
-0.29272677
0.013960236
-0.31625977
0.0029984609
-0.33751325
-0.0041748676
-0.35785755
-0.0064653514
-0.37933427
-0.0054682487
-0.40335933
-0.0032945636
-0.43043071
-0.0012784637
-0.46041443
0.00012552168
-0.49300696
0.00094172405
-0.52805644
0.0012641078
-0.56551854
0.0012830098
-0.60543558
0.001140345
-0.64793576
0.0009266427
-0.69319224
0.00069414216
-0.74140386
0.00047218653
-0.7927909
0.00027739313
-0.84759034
0.00011869895
-0.90606514
-2.6911542e-07
-0.96849983
-7.9546432e-05
-1.0352054
-0.00012103495
-1.1065184
-0.00012857613
-1.1828052
-0.00010684657
-1.2644575
-6.1947766e-05
-1.3519159
-0.17770078
0.079152302
-0.17568237
0.069386496
-0.17704534
-0.0045209108
-0.17934967
-0.037367917
-0.17987372
-0.016337195
0.018884625
-0.18138455
-0.099066758
-0.18178967
-0.12813245
-0.17989363
-0.077448332
-0.17694457
0.053376419
-0.18092284
0.13201572
-0.19310408
0.1133308
-0.2060965
0.035924599
-0.21333558
-0.074776128
-0.20612709
-0.12215122
-0.18269825
-0.093932518
-0.18600663
-0.029809473
-0.19738778
0.022870912
-0.22144365
0.037260272
-0.24885923
0.032127148
-0.27475171
0.019197289
-0.29796383
0.0048512407
-0.31811255
-0.0052112268
-0.33647689
-0.0088943064
-0.3554286
-0.0078533212
-0.3769492
-0.004941001
-0.40171289
-0.0021264466
-0.42958273
-0.00014376323
-0.46014515
0.0010269662
-0.4930922
0.0015401803
-0.52833251
0.0016218608
-0.56585739
0.0014785021
-0.60577373
0.0012351182
-0.64824423
0.00096134325
-0.69345944
0.00069407365
-0.74162574
0.00045314409
-0.79296665
0.00024946075
-0.8477211
8.8380007e-05
-0.90615379
-2.8777519e-05
-0.9685506
-0.00010353962
-1.0352229
-0.00013934838
-1.1065076
-0.0001410143
-1.182771
-0.00011403063
-1.2644054
-6.4980367e-05
-1.351851
-0.17878789
0.019971737
-0.1760553
0.079525227
-0.17637366
0.068714818
-0.17962902
-0.0042415605
-0.18248389
-0.034757748
-0.18326442
-0.013735376
-0.10038581
-0.1800655
-0.13090713
-0.17901499
-0.080662568
-0.17667939
0.056759396
-0.18032755
0.14307294
-0.19198006
0.12599507
-0.20576835
0.044128184
-0.21430008
-0.078138028
-0.20997368
-0.13512431
-0.193154
-0.10551172
-0.17111905
-0.034711921
-0.18110418
0.02943641
-0.20395327
0.047686962
-0.23187034
0.041272771
-0.25800486
0.025602993
-0.28115741
0.0073424451
-0.30045503
-0.006444849
-0.31687893
-0.012057657
-0.33331354
-0.011047642
-0.35223428
-0.0071994368
-0.37469076
-0.0033177722
-0.40052156
-0.00054264652
-0.42918384
0.0010944835
-0.46021267
0.0018642504
-0.49341627
0.0020312129
-0.52874186
0.0018868611
-0.56626575
0.0016058181
-0.60614443
0.0012830407
-0.64856593
0.00096460949
-0.69372998
0.00067305153
-0.74184565
0.00042029263
-0.79313748
0.00021273466
-0.84784545
5.2957478e-05
-0.90623552
-5.9610344e-05
-0.96859453
-0.00012802062
-1.0352343
-0.00015717014
-1.1064915
-0.00015254797
-1.1827325
-0.000120454
-1.26435
-6.7523136e-05
-1.3517834
-0.17906765
-0.10010605
-0.17711797
0.021034409
-0.17605687
0.07920843
-0.17783044
0.066916231
-0.18266809
-0.0040573606
-0.18616044
-0.031861724
-0.18703056
-0.011156814
-0.13244658
-0.17852605
-0.082905522
-0.17677204
0.059796776
-0.17971677
0.15316379
-0.1904184
0.13819728
-0.20418227
0.052751121
-0.21439128
-0.081551573
-0.21088654
-0.14826193
-0.19683606
-0.12212943
-0.17653629
-0.039339296
-0.16649168
0.036224531
-0.1878923
0.059629802
-0.21589611
0.051858872
-0.24245644
0.033308086
-0.26570995
0.010566695
-0.28438166
-0.0078396032
-0.29906028
-0.016109764
-0.31282682
-0.015270316
-0.32909086
-0.010215004
-0.34921871
-0.0049382471
-0.37307029
-0.0011032701
-0.39996094
0.0011605934
-0.42924995
0.0022545581
-0.46060297
0.0025366308
-0.49392169
0.0023858156
-0.52924082
0.0020533548
-0.56671329
0.0016682856
-0.60652968
0.0012892485
-0.64889057
0.00094092565
-0.69399785
0.00063456856
-0.74205993
0.00037634843
-0.7933011
0.00016943859
-0.84796193
1.428866e-05
-0.90630942
-9.1317784e-05
-0.96863123
-0.00015211398
-1.0352393
-0.00017390457
-1.1064701
-0.00016298523
-1.18269
-0.00012589517
-1.2642916
-6.9585961e-05
-1.3517139
-0.17905908
-0.13245515
-0.17925372
-0.097970295
-0.17667727
0.021654811
-0.17660184
0.077979831
-0.17991236
0.064160505
-0.18614452
-0.0040732834
-0.19004043
-0.028851851
-0.19089382
-0.00879895
-0.083880895
-0.17755068
0.062352044
-0.17932731
0.1619184
-0.18847138
0.14930026
-0.20152138
0.0610654
-0.21249655
-0.084444899
-0.21149796
-0.16057435
-0.19857412
-0.13847796
-0.18048752
-0.055057128
-0.16081846
0.043079003
-0.17334615
0.072529986
-0.20079249
0.063915823
-0.22795307
0.042249872
-0.25139823
0.014644171
-0.26978743
-0.0094352428
-0.28278603
-0.021242734
-0.29392731
-0.020726917
-0.30737022
-0.014168735
-0.32513713
-0.0070754811
-0.34708148
-0.0018521575
-0.3723214
0.0012386611
-0.40003901
0.0027436381
-0.42973903
0.0031732763
-0.46123962
0.0030053317
-0.49454121
0.0025987522
-0.52978621
0.0021296852
-0.56717468
0.0016749448
-0.60691537
0.0012607338
-0.64921038
0.0008952919
-0.69425857
0.00058224279
-0.74226582
0.0003240704
-0.79345573
0.00012179821
-0.84806944
-2.5829319e-05
-0.90637491
-0.00012283849
-0.96866051
-0.00017509199
-1.0352381
-0.00018929039
-1.1064438
-0.00017205403
-1.1826438
-0.00013044895
-1.2642307
-7.1183581e-05
-1.3516427
-0.17958165
-0.083358319
-0.18109283
-0.13061604
-0.18003243
-0.094615134
-0.1771994
0.022252374
-0.17775342
0.07582089
-0.18245833
0.060474318
-0.18976825
-0.0043454654
-0.19381824
-0.02592743
-0.19470981
-0.0068536628
0.064780952
-0.17997959
0.16903266
-0.18644158
0.15880973
-0.19798086
0.068930579
-0.20938655
-0.087023726
-0.20991772
-0.17261899
-0.19945332
-0.15402682
-0.18302526
-0.070787219
-0.16475743
0.038697649
-0.15643711
0.086496619
-0.18731278
0.077263225
-0.21413989
0.052470436
-0.23817363