/*--------------------------------*- C++ -*----------------------------------*\
| =========                 |                                                 |
| \\      /  F ield         | OpenFOAM: The Open Source CFD Toolbox           |
|  \\    /   O peration     | Version:  5.0                                   |
|   \\  /    A nd           | Web:      www.OpenFOAM.org                      |
|    \\/     M anipulation  |                                                 |
\*---------------------------------------------------------------------------*/
FoamFile
{
    version     2.0;
    format      ascii;
    class       volScalarField;
    location    "340";
    object      pMean;
}
// * * * * * * * * * * * * * * * * * * * * * * * * * * * * * * * * * * * * * //

dimensions      [0 2 -2 0 0 0 0];

internalField   nonuniform List<scalar> 
9520
(
0.00010328991
0.00010313247
0.00025417152
0.00010267598
0.00025417556
0.00041546976
0.00010168704
0.00025380777
0.00041575665
0.00056456885
9.9970664e-05
0.00025254559
0.00041575013
0.00056571473
0.00071237045
9.7301073e-05
0.00024987497
0.00041457296
0.00056707685
0.00071478799
0.00085192396
9.3529795e-05
0.00024524292
0.00041135149
0.00056742861
0.00071834859
0.00085615308
0.00098554645
8.8472059e-05
0.00023821871
0.00040518589
0.00056553196
0.00072142994
0.00086295448
0.00099205398
0.0011105551
8.2087809e-05
0.00022843989
0.00039534637
0.00056012901
0.00072240775
0.00087031279
0.0010029945
0.0011197374
0.0012269792
7.438705e-05
0.0002157693
0.00038115632
0.00055015982
0.00071964982
0.00087624467
0.0010159698
0.0011356335
0.0012392068
0.0013334282
6.5965949e-05
0.00019986139
0.00036227981
0.00053471318
0.00071175969
0.00087876288
0.0010286579
0.0011555157
0.0012607799
0.0013488864
0.0014295073
5.5801601e-05
0.000180529
0.00033844308
0.00051316485
0.00069754013
0.00087612141
0.0010387457
0.0011767738
0.0012886553
0.0013765461
0.0014483037
0.0015146197
4.3527825e-05
0.00015651387
0.0003098115
0.00048474789
0.0006761312
0.00086673799
0.0010441599
0.0011967971
0.0013199736
0.00141314
0.0014823268
0.0015366754
0.0015884791
2.6991516e-05
0.00012985875
0.00027554896
0.00044915446
0.00064674978
0.00084929322
0.0010430193
0.0012131641
0.0013518638
0.0014556561
0.0015281603
0.0015769782
0.0016136046
0.0016509767
1.152191e-05
9.9302701e-05
0.00023605407
0.00040635887
0.00060897112
0.00082264264
0.0010337756
0.0012236212
0.0013816835
0.0015010532
0.0015827163
0.0016320611
0.0016599044
0.0016788188
0.0017022074
-7.8956468e-06
6.8889409e-05
0.00018980476
0.00035800202
0.00056208185
0.00078678737
0.0010151531
0.0012262879
0.0014069478
0.00154648
0.0016428597
0.0016988807
0.0017239852
0.0017305212
0.0017322851
0.0017425439
-2.3200023e-05
3.2460953e-05
0.00014137186
0.00030216261
0.00050770447
0.00074115363
0.0009862335
0.0012197294
0.001425494
0.0015891946
0.0017055955
0.0017743306
0.0018029716
0.0018028894
0.001788562
0.0017742525
0.0017724776
-4.6235984e-05
-4.601803e-07
8.6112473e-05
0.00024196942
0.00044432284
0.00068662503
0.00094643744
0.0012029228
0.0014353775
0.001626746
0.001767987
0.0018553978
0.0018939088
0.0018933516
0.0018681946
0.001834029
0.0018051329
0.0017927845
-6.1882664e-05
-4.2315922e-05
3.2128568e-05
0.0001728604
0.00037515793
0.00062133652
0.00089652311
0.0011747359
0.0014351983
0.0016569306
0.0018272998
0.0019390462
0.001993839
0.0019992426
0.0019690543
0.0019195234
0.0018671539
0.0018256118
0.001804319
-8.6916295e-05
-7.2020308e-05
-3.0431927e-05
0.00010340666
0.00029610237
0.00054830053
0.00083442616
0.0011355617
0.001423714
0.0016779551
0.0018810051
0.0020223332
0.0020996778
0.0021178165
0.0020889072
0.0020291991
0.0019568294
0.001888448
0.0018364669
0.0018081437
-0.00010372663
-0.00011978863
-8.5227663e-05
2.5181298e-05
0.00021495729
0.00046407432
0.0007626809
0.0010833609
0.0014010046
0.001688274
0.0019270432
0.002102431
0.002208332
0.0022460822
0.0022253458
0.0021614006
0.0020733579
0.0019803563
0.0018985778
0.0018387203
0.0018052906
-0.00012822869
-0.00014970022
-0.0001563636
-4.902501e-05
0.00012238471
0.00037543133
0.00067850398
0.0010198271
0.0013650561
0.001687555
0.0019635613
0.0021769199
0.002316788
0.0023809047
0.0023755748
0.0023142163
0.0022158166
0.0021013986
0.001990583
0.0018984704
0.001833403
0.001796935
-0.00014727871
-0.00019982404
-0.00020802402
-0.0001360026
3.1900064e-05
0.00027308474
0.00058792666
0.00094241579
0.0013168021
0.001673833
0.001989714
0.0022435708
0.0024222754
0.0025190599
0.0025365031
0.0024852046
0.0023829395
0.0022515189
0.0021135153
0.0019882699
0.0018891252
0.0018217196
0.0017842037
-0.00016151738
-0.00023455834
-0.00028659585
-0.00021122354
-7.1576808e-05
0.0001706948
0.00048139113
0.00085729437
0.0012536551
0.0016478732
0.0020033209
0.0023010376
0.0025221817
0.0026574206
0.0027048055
0.0026714495
0.0025727806
0.0024302502
0.0022683138
0.0021102221
0.0019743393
0.001871745
0.0018048168
0.0017683035
-0.000183524
-0.00029062813
-0.00033741045
-0.00030999176
-0.00016754044
5.2758906e-05
0.00037253929
0.00075448247
0.0011818801
0.0016064786
0.0020053778
0.0023469957
0.0026146505
0.0027930408
0.0028770913
0.002869597
0.0027827328
0.00263632
0.0024554637
0.0022663699
0.0020922865
0.0019499621
0.001847521
0.0017839483
0.0017503412
-0.00020377168
-0.00032692641
-0.00042855773
-0.00038552278
-0.00028645961
-6.1621301e-05
0.0002451172
0.00064709266
0.0010913526
0.0015557108
0.001991999
0.0023819024
0.0026971794
0.0029235265
0.0030500504
0.0030760533
0.0030095481
0.002867602
0.0026745267
0.0024582788
0.0022462044
0.0020607885
0.0019163768
0.0018178028
0.0017603032
0.0017313832
-0.00021847976
-0.00039023758
-0.00049219404
-0.0005029192
-0.00038900189
-0.00020168169
0.00011707719
0.00051816641
0.00099427735
0.0014857487
0.0019687713
0.0024016497
0.0027692733
0.0030459854
0.003220722
0.0032871556
0.0032495397
0.0031210988
0.0029240203
0.002686514
0.0024388618
0.0022087075
0.0020169675
0.0018750109
0.0017838908
0.0017350549
0.0017123813
-0.00024006513
-0.00043346792
-0.00058084876
-0.00059827082
-0.0005281228
-0.00033266786
-4.0581476e-05
0.00038457179
0.0008731603
0.001407652
0.0019261014
0.0024112447
0.0028267076
0.0031590595
0.0033858506
0.0034994137
0.003498739
0.0033931467
0.0032013792
0.0029504225
0.0026719651
0.0023977765
0.0021550272
0.0019622858
0.0018272637
0.0017471134
0.0017092127
0.0016942237
-0.00025789629
-0.00047094326
-0.00066718929
-0.00072658159
-0.0006597239
-0.00049928379
-0.00019782567
0.00021743549
0.00074463853
0.0013028608
0.0018747483
0.0024006094
0.0028737538
0.0032583712
0.0035431324
0.0037092206
0.0037531551
0.0036795335
0.0035031256
0.0032480652
0.0029458762
0.0026309852
0.0023359688
0.0020865958
0.001898213
0.0017746136
0.0017086021
0.0016837294
0.0016777025
-0.00027519502
-0.00051900149
-0.00074744353
-0.00086762899
-0.00083527431
-0.00067447205
-0.00039695318
4.1338138e-05
0.00057950384
0.0011879127
0.0017937716
0.0023812542
0.002899936
0.0033473158
0.0036879143
0.0039134003
0.0040088464
0.0039758639
0.0038249443
0.0035763112
0.0032594832
0.0029099026
0.0025641876
0.0022547372
0.0020049668
0.0018263923
0.0017184357
0.0016694884
0.0016595125
0.0016635166
-0.00028850187
-0.00056140676
-0.00083714468
-0.0010071799
-0.0010330916
-0.00090244363
-0.00061384478
-0.00018672901
0.00039594356
0.0010327784
0.0016990575
0.0023309782
0.0029161622
0.0034150694
0.003822704
0.0041067691
0.0042618525
0.0042778275
0.0041621429
0.0039309292
0.0036102256
0.0032344643
0.0028426261
0.0024726125
0.0021556771
0.0019119575
0.0017485802
0.0016602513
0.0016308836
0.0016373892
0.001652262
-0.00029797083
-0.00061727607
-0.00092061194
-0.0011523882
-0.0012461323
-0.0011713295
-0.00090040734
-0.00044208868
0.00015143022
0.00085060326
0.0015592708
0.0022630789
0.0028998306
0.0034719338
0.0039364859
0.0042909784
0.0045062402
0.0045807909
0.0045099242
0.0043070543
0.0039941348
0.0036028988
0.0031724729
0.002744648
0.0023577459
0.0020407038
0.0018095819
0.001666678
0.0016014581
0.0015938489
0.0016180752
0.0016444191
-0.00030937412
-0.00066620913
-0.0010269433
-0.0012908743
-0.0014609465
-0.0014743276
-0.0012488955
-0.00079122004
-0.00012980735
0.0005995137
0.0013842058
0.0021444551
0.0028642762
0.0034936987
0.0040385727
0.0044548315
0.0047428253
0.0048779866
0.0048631134
0.0046994428
0.0044063508
0.0040117309
0.0035529893
0.0030735086
0.0026171213
0.0022214132
0.001911962
0.0016999993
0.0015823085
0.0015432876
0.0015592801
0.0016021423
0.0016403375
-0.00031483084
-0.00073547165
-0.0011288352
-0.0014611046
-0.0016750755
-0.0017813836
-0.0016570683
-0.0012203773
-0.00053907745
0.00029310614
0.0011280001
0.0019812284
0.002772079
0.0034946556
0.0041038126
0.0046064685
0.0049601415
0.0051692201
0.0052142256
0.0051023675
0.00484134
0.0044563152
0.003981512
0.0034596807
0.0029381577
0.0024617003
0.0020658632
0.0017718415
0.0015851493
0.0014969701
0.0014868261
0.0015279603
0.0015900223
0.0016402617
-0.0003201881
-0.00080805303
-0.0012545841
-0.0016305607
-0.0019337536
-0.0020943443
-0.0020834568
-0.0017579954
-0.0010493088
-0.00015977237
0.00079471691
0.0017237696
0.0026276054
0.0034337338
0.0041468112
0.0047201442
0.0051651644
0.005442661
0.0055617194
0.005507727
0.005292773
0.0049309718
0.0044538157
0.0039017212
0.0033229497
0.002767709
0.002280469
0.0018934953
0.0016226437
0.0014670483
0.0014121062
0.0014330617
0.0015005656
0.0015820298
0.001644362
-0.00032472872
-0.00088119629
-0.0013886672
-0.0018286074
-0.002194309
-0.0024757708
-0.002514179
-0.0023282564
-0.0017198829
-0.00074167358
0.00030543441
0.0013669598
0.0023768972
0.0033146015
0.0041226954
0.004810707
0.0053315553
0.0057041609
0.0058931809
0.0059124374
0.005751883
0.0054289375
0.0049641689
0.0043960722
0.0037714196
0.0031433867
0.0025640004
0.0020761222
0.0017071564
0.0014668203
0.0013475588
0.001329096
0.0013829977
0.001477503
0.0015784269
0.0016527274
-0.00032532767
-0.00095392511
-0.0015214397
-0.0020452173
-0.0024883189
-0.0028604265
-0.0030525746
-0.0028950363
-0.0024466585
-0.001550756
-0.00035318469
0.00084441695
0.0020068602
0.0030777743
0.0040351313
0.0048297388
0.0054741118
0.0059266411
0.0062137569
0.0063037372
0.0062143715
0.0059407295
0.0055058028
0.0049372354
0.0042811257
0.0035903662
0.0029223989
0.0023296083
0.0018515674
0.001509755
0.0013067581
0.0012285009
0.0012492316
0.0013375935
0.0014590918
0.001579354
0.0016653781
-0.00032373919
-0.0010158427
-0.0016524471
-0.0022587131
-0.0028132068
-0.003282345
-0.0035961809
-0.0036224938
-0.0031704879
-0.002458229
-0.0013043864
9.7020125e-05
0.0014478747
0.0027034069
0.003818597
0.0047817671
0.0055416799
0.0061244594
0.006495328
0.0066853251
0.0066667023
0.0064609567
0.0060687232
0.0055188175
0.0048470641
0.0041075886
0.003359166
0.0026620312
0.002067398
0.0016099362
0.0013040914
0.0011448298
0.0011115568
0.0011738145
0.0012973008
0.0014456628
0.0015849021
0.0016822669
-0.00031954947
-0.0010655893
-0.0017651859
-0.0024685462
-0.0031332573
-0.0037527533
-0.004182079
-0.0043645832
-0.0041197369
-0.0033731911
-0.0023967159
-0.00099483129
0.00062822058
0.0021109962
0.0034465108
0.0045941059
0.0055397057
0.006243961
0.0067515391
0.0070284942
0.0071109262
0.0069753098
0.0066460687
0.0061302845
0.0054637027
0.0046911654
0.0038750123
0.003079097
0.0023649413
0.0017806661
0.0013545461
0.0010930582
0.00098325829
0.00099844478
0.0011038733
0.0012625159
0.0014374293
0.0015950483
0.0017032882
-0.00031218891
-0.0010989997
-0.0018556596
-0.0026528306
-0.003445312
-0.004216486
-0.00484037
-0.0051543178
-0.0051048225
-0.0045655427
-0.0035209623
-0.0022768463
-0.00059601227
0.0012382951
0.0028281907
0.0042363962
0.0053893569
0.0062914588
0.0069261488
0.0073458378
0.0075178101
0.0074838091
0.0072230759
0.0067635148
0.0061201075
0.0053365388
0.0044679293
0.0035837323
0.0027523218
0.0020343682
0.0014730653
0.0010888552
0.00087950475
0.0008243056
0.00089063972
0.0010401217
0.0012336296
0.0014344598
0.001609735
0.001728284
-0.0011101126
-0.00031067966
-0.0019187925
-0.0028047423
-0.0037215139
-0.0046646792
-0.0054907659
-0.0060470215
-0.006142296
-0.0058297276
-0.0049776687
-0.0036304929
-0.0020858834
-0.00010117194
0.0019131339
0.0036066984
0.0050592015
0.0061826373
0.0070269727
0.0075789119
0.00789863
0.0079565093
0.007797685
0.0074034932
0.0068070537
0.0060329425
0.0051338743
0.004176069
0.0032349931
0.0023816899
0.0016740984
0.0011485358
0.00081637638
0.00066633955
0.00066996227
0.00078938946
0.00098308538
0.0012108915
0.0014367719
0.0016288218
0.0017570582
-0.0019455333
-0.0011067221
-0.00031516617
-0.002915657
-0.0039524005
-0.0050643327
-0.0061163591
-0.0069335465
-0.0073180147
-0.0071589464
-0.0065474258
-0.0053771798
-0.0036944802
-0.0018080113
0.00047138785
0.0026626898
0.0044362237
0.0058873837
0.006963182
0.0077369133
0.0081928174
0.0084033696
0.0083390065
0.0080457989
0.007509428
0.0067701957
0.0058637841
0.004853088
0.0038154881
0.0028308606
0.0019708213
0.0012883908
0.00081121669
0.0005407291
0.00045623928
0.00052207159
0.0006956434
0.00093321679
0.001194438
0.001444289
0.0016521445
0.0017893938
-0.0029690249
-0.0019449178
-0.0010889094
-0.00031758203
-0.0041234665
-0.0053988484
-0.0066791521
-0.0077856601
-0.0084963422
-0.0086668549
-0.0082072842
-0.0072811272
-0.0057595238
-0.0036810304
-0.0014337194
0.001151435
0.0034728511
0.0052791871
0.0067067335
0.0077227183
0.0084111923
0.0087615678
0.0088553327
0.0086589746
0.0082206816
0.0075334516
0.0066464972
0.0056080865
0.0044924539
0.0033870616
0.0023743684
0.0015240173
0.00088190271
0.0004654499
0.00026539885
0.00025173571
0.00038212278
0.00061018271
0.00089085339
0.0011843254
0.0014568976
0.0016794832
0.0018250469
-0.0042074025
-0.0029733534
-0.0019166459
-0.0010486006
-0.00031793386
-0.0056431738
-0.0071509602
-0.0085604451
-0.0096353013
-0.010192676
-0.010091909
-0.0093065216
-0.0080285685
-0.0060722589
-0.0035658092
-0.0009193567
0.0019334971
0.0043003839
0.0061185478
0.0075112642
0.0084501407
0.0090431716
0.0092815299
0.0092492544
0.0089088815
0.0083139356
0.0074676845
0.0064296542
0.0052621951
0.0040515904
0.0028929297
0.001869472
0.0010462399
0.00045961803
0.00011561311
-6.2619471e-06
5.5000847e-05
0.00025139553
0.00053359802
0.00085624311
0.0011805183
0.0014743906
0.0017105839
0.0018637548
-0.0057644645
-0.0042147645
-0.0029285469
-0.0018518361
-0.00099247138
-0.00031622399
-0.0074951151
-0.0092144765
-0.010680903
-0.011678583
-0.012017255
-0.011612823
-0.010457076
-0.0087275185
-0.0062850775
-0.0033001334
-0.00026957939
0.0027425257
0.0051319315
0.0069540839
0.0082887474
0.0091386883
0.0096310891
0.0097494861
0.0095779989
0.0090797087
0.0083165612
0.0073040262
0.0061139878
0.0048235959
0.0035311161
0.0023362509
0.0013211013
0.00054297744
2.6793838e-05
-0.00023399992
-0.00027121254
-0.00013200684
0.00013088228
0.0004664031
0.00082948711
0.001182838
0.001496477
0.0017451559
0.0019052573
-0.0076675627
-0.0057666634
-0.0041444919
-0.002824944
-0.0017601007
-0.00092595275
-0.0003106837
-0.0096937631
-0.011569652
-0.013050817
-0.013906202
-0.013984377
-0.013230761
-0.011590291
-0.0093358757
-0.0063503398
-0.0028933564
0.00043539236
0.0035595994
0.0059752526
0.0077711651
0.0090313365
0.0097890193
0.010174449
0.010159045
0.0098324161
0.009161476
0.0082186242
0.0070343404
0.0056942872
0.0042908269
0.002932699
0.0017214657
0.00073500935
2.020576e-05
-0.00041124943
-0.0005793234
-0.0005266778
-0.00030767088
2.1521088e-05
0.00040890417
0.00081045696
0.0011909474
0.0015228568
0.0017829704
0.0019493152
-0.009934013
-0.007662624
-0.0056488662
-0.0039859991
-0.0026784568
-0.0016468641
-0.00085009839
-0.00030404401
-0.012229636
-0.014226297
-0.015657145
-0.016323927
-0.01609915
-0.01487139
-0.012649354
-0.0098012539
-0.0062652904
-0.0023938907
0.0011836771
0.0043937905
0.0068142186
0.0085593543
0.0097427487
0.010403568
0.010668286
0.01050073
0.010001397
0.0091427792
0.0080100778
0.0066510335
0.0051664456
0.0036636288
0.0022594908
0.0010540454
0.00011768683
-0.00051574384
-0.00084929896
-0.00091656422
-0.00077024509
-0.00047049756
-7.6052106e-05
0.00036110313
0.00079878952
0.0012045831
0.0015534134
0.0018238756
0.0019956603
-0.012569808
-0.0099204011
-0.0074789937
-0.0054073267
-0.0037652793
-0.0024984039
-0.001516002
-0.00077527458
-0.00029709135
-0.015113426
-0.017166657
-0.018499574
-0.018940083
-0.018280741
-0.016467482
-0.013584633
-0.0101209
-0.0060705161
-0.0018128955
0.0019927375
0.0052345053
0.0076327764
0.0093227648
0.010428558
0.010979099
0.011103017
0.010763377
0.010072281
0.0090114339
0.0076805534
0.0061472511
0.0045277478
0.0029433572
0.0015161526
0.00034063468
-0.00052375319
-0.001058434
-0.0012823567
-0.0012422792
-0.0009996548
-0.00061934371
-0.00016165328
0.00032262454
0.00079430271
0.0012238605
0.0015881687
0.0018675722
0.0020438883
-0.015581404
-0.012562165
-0.0096552574
-0.0071232717
-0.0050750071
-0.0034969912
-0.0022913713
-0.0013833283
-0.00070245612
-0.00028419521
-0.018317361
-0.020384705
-0.021586838
-0.021669139
-0.020451229
-0.017963894
-0.014377387
-0.010322553
-0.0057716983
-0.0011229826
0.0028364443
0.0060612421
0.0084396789
0.0100737
0.011089437
0.011505838
0.011466558
0.010933484
0.010031081
0.0087547312
0.0072201574
0.0055171401
0.0037772156
0.0021335902
0.0007089943
-0.00041109759
-0.0011817303
-0.0016015217
-0.0017057242
-0.0015532096
-0.0012130236
-0.0007536518
-0.00023559314
0.00029341535
0.00079747564
0.00124903
0.0016265961
0.0019132298
0.0020936013
-0.01893113
-0.015585198
-0.01220708
-0.0091533767
-0.0066420097
-0.0046768418
-0.003190784
-0.002079346
-0.0012491066
-0.00063398835
-0.00027362161
-0.021826909
-0.023883076
-0.024831371
-0.024423526
-0.022555479
-0.019336871
-0.015047439
-0.010409386
-0.0053532488
-0.00037124832
0.0036782424
0.0068886329
0.009254619
0.010815582
0.011715849
0.011971413
0.011744974
0.010995502
0.0098623855
0.0083594381
0.0066196781
0.0047564706
0.0029160569
0.0012397682
-0.00015417834
-0.0011926658
-0.0018484569
-0.0021388456
-0.0021148687
-0.0018464755
-0.0014092219
-0.0008736429
-0.00029773453
0.00027444383
0.00080883955
0.0012790472
0.0016669479
0.0019600617
0.002144971
-0.022598639
-0.0189464
-0.015124037
-0.011533592
-0.0084812279
-0.0060722044
-0.0042302952
-0.0028740391
-0.0018627355
-0.0011233241
-0.00058605231
-0.00026030751
-0.025641662
-0.027580536
-0.028138711
-0.027150786
-0.02456709
-0.020593492
-0.015589558
-0.01035966
-0.0048179991
0.00041308042
0.0045288566
0.0077466122
0.010084308
0.011538224
0.012293189
0.012361253
0.011922534
0.01093247
0.0095504586
0.0078126517
0.0058713257
0.0038632718
0.0019475519
0.00026875206
-0.0010644121
-0.0019950229
-0.0025161598
-0.0026643251
-0.0025056083
-0.0021201347
-0.0015881538
-0.00097891219
-0.00034647429
0.00026665931
0.00082658044
0.0013107576
0.0017080096
0.0020093016
0.0022011453
-0.026579191
-0.022618044
-0.018360771
-0.014242915
-0.010634458
-0.007693459
-0.0054425888
-0.0037673849
-0.0025498524
-0.0016636442
-0.001020624
-0.00053208022
-0.00024331671
-0.029683153
-0.031376317
-0.031461506
-0.029824632
-0.026488108
-0.02171975
-0.01598177
-0.010187738
-0.0041943709
0.0012455158
0.0054221389
0.0086452552
0.010915965
0.012225785
0.012807896
0.012659651
0.011980067
0.010725497
0.0090790286
0.0071023891
0.0049690264
0.0028378323
0.00087686565
-0.00077074935
-0.0020116369
-0.0028087421
-0.0031769779
-0.0031721404
-0.0028748653
-0.0023735795
-0.0017490929
-0.0010670173
-0.00038024131
0.00026726163
0.0008456104
0.0013426613
0.0017534617
0.0020660532
0.0022623503
-0.030800354
-0.026586546
-0.02188115
-0.017234618
-0.013072979
-0.0095821346
-0.0068343488
-0.004790099
-0.0032968319
-0.0022552336
-0.001492441
-0.00091270566
-0.00049065343
-0.00022654763
-0.033851746
-0.035225535
-0.03477547
-0.032446193
-0.028297471
-0.022689364
-0.01623544
-0.0098867038
-0.0034779585
0.0021555057
0.0063805624
0.0095748042
0.011724626
0.012862914
0.0132433
0.012846372
0.011896153
0.010354522
0.0084314995
0.0062180852
0.0039091307
0.0016830272
-0.00028791547
-0.0018682498
-0.0029849645
-0.00362398
-0.003823117
-0.0036577024
-0.0032212464
-0.0026055377
-0.0018884875
-0.0011354764
-0.00040299433
0.00026861169
0.00086425773
0.001382356
0.0018120682
0.0021274764
0.00232715
-0.035165367
-0.030793452
-0.025663996
-0.020467507
-0.015744938
-0.011704844
-0.0084408318
-0.0059456264
-0.0041321561
-0.0028747733
-0.0019919803
-0.0013191816
-0.00082719938
-0.00044456409
-0.00020648748
-0.038101729
-0.039107766
-0.038083198
-0.034989897
-0.029960412
-0.023510719
-0.016367793
-0.0094431283
-0.0026619577
0.0031731966
0.007402459
0.01050773
0.012499608
0.013435936
0.01357975
0.012898409
0.011647183
0.009798751
0.0075924451
0.0051513065
0.0026909835
0.0004048756
-0.001536056
-0.0030115923
-0.0039725929
-0.0044306559
-0.004448058
-0.0041184971
-0.0035427073
-0.0028110632
-0.002002634
-0.0011895367
-0.00042566395
0.00026883285
0.00089570332
0.0014438664
0.0018749305
0.0021929564
0.0023955618
-0.039627337
-0.035146205
-0.029662863
-0.023916308
-0.01860461
-0.014008488
-0.010223735
-0.0072634226
-0.0050554934
-0.0035470963
-0.0024886529
-0.0017289221
-0.0011778341
-0.00073591231
-0.00040987828
-0.00019305273
-0.042422061
-0.043023369
-0.041350986
-0.037412537
-0.031488345
-0.024202395
-0.016353922
-0.0088386884
-0.0016700032
0.0042963642
0.008449201
0.011428413
0.013227543
0.013924082
0.013792378
0.012790458
0.011208148
0.00903811
0.0065481745
0.0038967109
0.0013174006
-0.00098765778
-0.0028550853
-0.0041872196
-0.0049619962
-0.0052199363
-0.0050477707
-0.0045514059
-0.0038324879
-0.0029846987
-0.0020981922
-0.0012443238
-0.00045046706
0.00028871993
0.0009610117
0.0015092449
0.001942458
0.0022623909
0.0024675985
-0.044187704
-0.039598725
-0.0337958
-0.027546217
-0.021625112
-0.016443288
-0.012129999
-0.0087029284
-0.0060913097
-0.0042695077
-0.0030047579
-0.002106326
-0.0015114891
-0.0010291744
-0.0006550665
-0.00036864973
-0.00017340353
-0.046805098
-0.046932659
-0.044531709
-0.039726092
-0.032894587
-0.024746392
-0.016167096
-0.0080382103
-0.00049093163
0.0054525451
0.0095052586
0.012320681
0.013888652
0.014300152
0.013853259
0.012493684
0.010553806
0.008052908
0.0052874022
0.0024524536
-0.00020558151
-0.0024829281
-0.0042304347
-0.0053801602
-0.005941688
-0.0059858579
-0.0056176969
-0.0049473089
-0.0040827733
-0.0031345928
-0.0021955123
-0.0013025815
-0.00044658715
0.00035854888
0.0010299143
0.0015801234
0.0020141916
0.0023357969
0.0025432688
-0.048829755
-0.044169329
-0.038022824
-0.031285124
-0.024781824
-0.018980722
-0.014112267
-0.010212669
-0.0071994524
-0.0050584237
-0.0035336758
-0.0024703308
-0.0017948895
-0.0012917326
-0.00088667946
-0.00056968741
-0.0003096528
-0.00015245958
-0.051201843
-0.050782012
-0.04763705
-0.041949513
-0.034162353
-0.025108671
-0.015753135
-0.0069940839
0.00077999094
0.006627045
0.010569136
0.013168245
0.014457325
0.014535476
0.013731383
0.011977616
0.0096586364
0.0068249024
0.0038023173
0.00082027585
-0.0018679647
-0.0040649681
-0.0056450195
-0.0065762222
-0.0069033445
-0.0067219919
-0.0061457707
-0.0052952855
-0.0043032216
-0.0032876033
-0.002298052
-0.0013206652
-0.00037179382
0.00043200302
0.0011053796
0.0016554658
0.0020902316
0.0024131486
0.0026225587
-0.053499183
-0.048830344
-0.042370588
-0.035102669
-0.028014842
-0.021607077
-0.016139868
-0.011745145
-0.0083310001
-0.0058731275
-0.0040791922
-0.0028137481
-0.0020444298
-0.0014884134
-0.0010729255
-0.00074262866
-0.00048211163
-0.00027570147
-0.00013951801
-0.055552604
-0.054580654
-0.050691801
-0.044064591
-0.035251265
-0.025218347
-0.015084054
-0.0057401764
0.0020881178
0.0078281822
0.011630077
0.013941322
0.014904386
0.01459645
0.013391152
0.011211189
0.0084974694
0.0053391052
0.0020897056
-0.00099276112
-0.003654857
-0.0057146668
-0.0070817991
-0.0077644689
-0.0078382252
-0.0074126015
-0.006616878
-0.0056063536
-0.00452864
-0.00344821
-0.0023458825
-0.0012408325
-0.00029280954
0.00051333017
0.0011855616
0.0017355192
0.0021704914
0.0024944203
0.0027054409
-0.058123074
-0.053520934
-0.046808806
-0.039030429
-0.031302214
-0.024275472
-0.018210879
-0.013271137
-0.0094380774
-0.0066700751
-0.0046091095
-0.0031342934
-0.0022538871
-0.0016231029
-0.0011841423
-0.0008677387
-0.00061033193
-0.0004187813
-0.00022314129
-0.00012116139
-0.059861662
-0.058363463
-0.053680887
-0.046020903
-0.036081064
-0.025057267
-0.014155544
-0.0043893152
0.003444592
0.0090596971
0.012638872
0.014608188
0.015197031
0.014444698
0.01279412
0.0101627
0.0070476196
0.0035844808
0.00015095298
-0.002974154
-0.0055469306
-0.0074131582
-0.0085273335
-0.008933236
-0.008726036
-0.0080371675
-0.007043224
-0.0059250141
-0.0047648217
-0.003536023
-0.002261499
-0.0011554208
-0.00020435744
0.00059965533
0.0012709171
0.0018201018
0.0022549547
0.0025795092
0.0027918783
-0.062705359
-0.058161623
-0.051262941
-0.043029626
-0.034674508
-0.026966182
-0.020288652
-0.014798969
-0.010493799
-0.0074062676
-0.0050926319
-0.003415042
-0.0024125383
-0.0016915494
-0.0012203837
-0.00091196981
-0.0006847478
-0.00051300272
-0.00032935017
-0.00018993727
-9.7720654e-05
-0.06417321
-0.062116185
-0.056552141
-0.047731818
-0.036622648
-0.024623483
-0.013014868
-0.0029791534
0.0048744326
0.010280276
0.01356108
0.015133579
0.015292358
0.014037254
0.011901448
0.0088006579
0.0052899312
0.0015554694
-0.0020058117
-0.0051056296
-0.0075235536
-0.0091448513
-0.0099666169
-0.010056843
-0.0095395044
-0.0086085534
-0.0074808899
-0.0062589837
-0.0049059704
-0.0034484331
-0.0021689701
-0.0010586239
-0.00011058081
0.0006916714
0.0013611612
0.0019092177
0.0023434492
0.002668339
0.0028818491
-0.067286784
-0.062753776
-0.055659909
-0.047025607
-0.0380882
-0.029707392
-0.02235938
-0.016300684
-0.011515528
-0.0080583014
-0.0054887492
-0.0036279274
-0.0024945545
-0.0016896921
-0.0011656387
-0.00087557711
-0.00068249985
-0.00054780651
-0.00039219228
-0.00027971506
-0.00014244247
-8.1906904e-05
-0.068475009
-0.065792446
-0.059212327
-0.049152029
-0.036866809
-0.023944405
-0.01170504
-0.0014381014
0.0063182867
0.011459356
0.014363861
0.015475188
0.01514408
0.013329534
0.010674453
0.0070967958
0.0032101166
-0.00074501963
-0.0043644722
-0.0073666943
-0.0095663629
-0.010891283
-0.011367801
-0.011099733
-0.010291379
-0.0091967573
-0.0079403964
-0.0064709948
-0.0048176413
-0.0033484727
-0.002062769
-0.0009560787
-1.0491372e-05
0.0007890145
0.0014563118
0.0020025912
0.0024358451
0.0027608744
0.0029753313
-0.071863326
-0.067329417
-0.059995438
-0.05094632
-0.041463859
-0.032451586
-0.024445078
-0.017769541
-0.012483751
-0.0086508158
-0.0057795094
-0.0037317078
-0.0024924482
-0.0015843373
-0.0010246788
-0.00074700225
-0.00059412406
-0.00050536956
-0.00040317647
-0.000315564
-0.00020209111
-0.00011436679
-5.8133951e-05
-0.072727303
-0.069304774
-0.0616065
-0.05026463
-0.036843021
-0.023035254
-0.010223289
0.00021563219
0.0077540517
0.012576402
0.015009367
0.01558376
0.014700703
0.012276802
0.0090729691
0.0050264174
0.00080234902
-0.0033064174
-0.0069062947
-0.0097391008
-0.0116544
-0.01261357
-0.012685215
-0.012073475
-0.01106796
-0.0098161396
-0.0082458151
-0.0063861179
-0.0047104935
-0.0032320844
-0.0019501856
-0.00084645609
9.546045e-05
0.00089168343
0.0015559817
0.0021000354
0.0025321824
0.0028571639
0.0030721839
-0.076397576
-0.07188734
-0.064288785
-0.05477974
-0.044733595
-0.035114827
-0.026494174
-0.019221563
-0.013399908
-0.009176416
-0.0060001725
-0.003711072
-0.00236897
-0.0013875087
-0.00077021244
-0.00051989664
-0.00040693144
-0.00038052011
-0.00033711662
-0.00029691385
-0.00021429461
-0.00015130447
-6.7634158e-05
-4.3570274e-05
-0.076854304
-0.072588192
-0.063720881
-0.051088823
-0.036562779
-0.021884419
-0.0085656173
0.0019034862
0.0091693057
0.01358025
0.015448641
0.015400026
0.01390721
0.010830326
0.0070605737
0.0025724824
-0.001929323
-0.0061141185
-0.0096151964
-0.012199268
-0.013741171
-0.014254204
-0.013928084
-0.013083306
-0.011889312
-0.010243774
-0.0081710603
-0.0062729341
-0.0045836731
-0.0031083669
-0.0018295745
-0.00073029516
0.00020726353
0.00099917821
0.0016599225
0.0022017213
0.0026327077
0.0029568657
0.0031723261
-0.080827833
-0.076395103
-0.068539162
-0.058532541
-0.047874144
-0.037633302
-0.028425175
-0.020605111
-0.014275067
-0.0096346741
-0.0061429316
-0.0036136798
-0.0021030703
-0.0010746374
-0.00042011787
-0.00018429891
-0.00011476706
-0.00015862276
-0.00018483821
-0.00020456921
-0.00017423982
-0.00013831113
-8.0818109e-05
-3.8600541e-05
-2.1074439e-05
-0.080787033
-0.07564227
-0.065571265
-0.05164304
-0.036016182
-0.020502863
-0.0068070568
0.0035966149
0.010509542
0.014404556
0.015621369
0.014860732
0.012705239
0.0089407438
0.0046074042
-0.00027184526
-0.0049759618
-0.0091554092
-0.012467953
-0.014691353
-0.015755696
-0.015818837
-0.015223334
-0.014157254
-0.012475625
-0.010189272
-0.0080544141
-0.0061362946
-0.0044480736
-0.0029753993
-0.0017015268
-0.00060760122
0.00032426549
0.0011111948
0.0017685176
0.0023082093
0.0027367655
0.00305986
0.0032756531
-0.085087385
-0.080798022
-0.072716905
-0.06220529
-0.050889462
-0.039977546
-0.030181978
-0.02184715
-0.015066161
-0.010037021
-0.0062103946
-0.0034377329
-0.0017548005
-0.00061015964
3.3896751e-05
0.0002516043
0.00027508515
0.00016362493
6.2869565e-05
-2.9967607e-05
-6.3097195e-05
-7.5904241e-05
-4.9682797e-05
-2.6861053e-05
2.8329497e-06
-6.2771449e-06
-0.084544079
-0.078486407
-0.067170009
-0.051916927
-0.03520654
-0.018914369
-0.0049436048
0.0052636935
0.011715192
0.014967672
0.015461992
0.013898755
0.011033078
0.006565842
0.0016952284
-0.0035079873
-0.0083326277
-0.01240935
-0.015401157
-0.017130561
-0.017699079
-0.017458707
-0.016609957
-0.014948119
-0.012456205
-0.010073823
-0.0079099467
-0.0059886493
-0.0043016091
-0.0028337706
-0.0015660507
-0.00047921719
0.00044612604
0.0012284441
0.0018827501
0.0024183813
0.0028442185
0.0031659534
0.0033820647
-0.089199844
-0.085038826
-0.076771419
-0.065769234
-0.053776708
-0.042151254
-0.031731693
-0.022900018
-0.015714654
-0.010353923
-0.0062074862
-0.0031788717
-0.0013289552
-5.6832084e-05
0.0006162691
0.00079543806
0.00075232665
0.00058457106
0.0004058762
0.0002338549
0.00012565141
5.2081738e-05
2.9855403e-05
2.4668106e-05
3.5352766e-05
3.5357028e-05
1.2678409e-05
-0.088149691
-0.081135977
-0.068504779
-0.051914552
-0.034146944
-0.017131764
-0.0030000813
0.0068776665