/*--------------------------------*- C++ -*----------------------------------*\
| =========                 |                                                 |
| \\      /  F ield         | OpenFOAM: The Open Source CFD Toolbox           |
|  \\    /   O peration     | Version:  5.0                                   |
|   \\  /    A nd           | Web:      www.OpenFOAM.org                      |
|    \\/     M anipulation  |                                                 |
\*---------------------------------------------------------------------------*/
FoamFile
{
    version     2.0;
    format      ascii;
    class       volScalarField;
    location    "340";
    object      pPrime2Mean;
}
// * * * * * * * * * * * * * * * * * * * * * * * * * * * * * * * * * * * * * //

dimensions      [0 4 -4 0 0 0 0];

internalField   nonuniform List<scalar> 
9520
(
1.9192677e-07
1.78723e-07
1.2998263e-06
1.5644487e-07
1.2098594e-06
3.5166867e-06
1.2939227e-07
1.057939e-06
3.2744135e-06
6.896637e-06
1.0132517e-07
8.7321027e-07
2.8650939e-06
6.4223648e-06
1.1616152e-05
7.5151021e-08
6.81301e-07
2.3670453e-06
5.6207123e-06
1.0820626e-05
1.7877096e-05
5.2861095e-08
5.0205051e-07
1.849156e-06
4.6446199e-06
9.4751189e-06
1.6658483e-05
2.5962727e-05
3.5621382e-08
3.4885456e-07
1.364793e-06
3.6287715e-06
7.835183e-06
1.4595942e-05
2.420388e-05
3.6197237e-05
2.396175e-08
2.2923516e-07
9.5018299e-07
2.6777021e-06
6.1263406e-06
1.2079067e-05
2.1223724e-05
3.3763332e-05
4.8961879e-05
1.79506e-08
1.4594809e-07
6.2579029e-07
1.8627521e-06
4.5242456e-06
9.4525277e-06
1.7581281e-05
2.9634039e-05
4.5698426e-05
6.468568e-05
1.7436637e-08
9.837699e-08
3.9901867e-07
1.2243931e-06
3.1494575e-06
6.9859745e-06
1.3772716e-05
2.4577354e-05
4.0153883e-05
6.0418331e-05
8.3845856e-05
2.248011e-08
8.3959464e-08
2.6793243e-07
7.7758813e-07
2.0710365e-06
4.8657154e-06
1.0188523e-05
1.927745e-05
3.3349489e-05
5.315657e-05
7.8380269e-05
0.00010695675
3.353715e-08
9.8752884e-08
2.2407893e-07
5.1787389e-07
1.31532e-06
3.1999463e-06
7.1006619e-06
1.4276444e-05
2.6198269e-05
4.4223153e-05
6.9062891e-05
0.00010007989
0.00013456658
5.1836482e-08
1.3766218e-07
2.543453e-07
4.2678425e-07
8.7640288e-07
2.0315965e-06
4.6693939e-06
9.9554237e-06
1.942859e-05
3.4805242e-05
5.7569289e-05
8.8333448e-05
0.00012604878
0.00016724768
7.9327784e-08
1.9785265e-07
3.4535167e-07
4.8005283e-07
7.2654741e-07
1.3543238e-06
2.9607195e-06
6.5422646e-06
1.3558254e-05
2.5857049e-05
4.5410022e-05
7.3799455e-05
0.00011146806
0.00015684587
0.00020558791
1.1973107e-07
2.7857347e-07
4.8486667e-07
6.5306197e-07
8.2733945e-07
1.1299831e-06
1.9688701e-06
4.1342841e-06
8.9023731e-06
1.8065131e-05
3.3809342e-05
5.8363985e-05
9.336747e-05
0.00013899869
0.00019304991
0.00025017771
1.76342e-07
3.8157868e-07
6.6265728e-07
9.1836106e-07
1.1329331e-06
1.3000442e-06
1.6390772e-06
2.7277273e-06
5.601088e-06
1.1855679e-05
2.3660076e-05
4.3569549e-05
7.4061971e-05
0.00011676366
0.00017148408
0.00023524777
0.00030159931
2.5568859e-07
5.010929e-07
8.7046176e-07
1.2453224e-06
1.5976711e-06
1.7931039e-06
1.8851967e-06
2.2464678e-06
3.6561681e-06
7.4271613e-06
1.5528837e-05
3.0557621e-05
5.5463883e-05
9.2938121e-05
0.00014451307
0.00020950012
0.00028402411
0.00036041214
3.6401425e-07
6.6656896e-07
1.1071381e-06
1.617037e-06
2.1763196e-06
2.5396215e-06
2.6065672e-06
2.5703518e-06
2.9700205e-06
4.7962345e-06
9.693164e-06
2.0069743e-05
3.9009825e-05
6.9857415e-05
0.00011546856
0.00017716802
0.00025363056
0.00033994782
0.00042714227
5.0995975e-07
8.3286773e-07
1.3761522e-06
2.0170692e-06
2.8322731e-06
3.47932e-06
3.6985768e-06
3.5590089e-06
3.382435e-06
3.8452883e-06
6.1959182e-06
1.2488051e-05
2.5655827e-05
4.9304088e-05
8.716231e-05
0.0001421656
0.00021530099
0.00030445537
0.00040356049
0.0005022678
6.9058155e-07
1.1308843e-06
1.671007e-06
2.4356929e-06
3.535271e-06
4.5560791e-06
5.0753752e-06
5.0632488e-06
4.7012748e-06
4.3709901e-06
4.9047112e-06
7.8977267e-06
1.5919262e-05
3.249402e-05
6.1776178e-05
0.00010783289
0.00017357379
0.00025949547
0.00036253961
0.00047536325
0.0005862091
9.1173804e-07
1.3603086e-06
2.0596079e-06
2.8829288e-06
4.2788217e-06
5.7307943e-06
6.6656558e-06
6.952239e-06
6.7273959e-06
6.1223023e-06
5.5721509e-06
6.1590453e-06
9.9485027e-06
2.0116611e-05
4.0836097e-05
7.6806365e-05
0.00013236578
0.00021026378
0.00031033624
0.00042841933
0.00055580632
0.00067931502
1.1634835e-06
1.9048275e-06
2.4560642e-06
3.3803294e-06
5.0542417e-06
6.9878266e-06
8.408225e-06
9.1199535e-06
9.2665101e-06
8.840971e-06
7.8839772e-06
6.9787671e-06
7.6060647e-06
1.2409031e-05
2.5247017e-05
5.0977332e-05
9.4823162e-05
0.00016129648
0.00025282442
0.00036839544
0.00050259331
0.00064527502
0.0007818564
1.4519634e-06
2.2002315e-06
3.1577589e-06
3.9401664e-06
5.9043726e-06
8.3153773e-06
1.0266704e-05
1.147131e-05
1.2150104e-05
1.2258034e-05
1.150898e-05
9.973538e-06
8.5523608e-06
9.2495898e-06
1.5368718e-05
3.1517358e-05
6.3261729e-05
0.00011630257
0.00019519436
0.0003018531
0.00043422416
0.00058550769
0.00074408231
0.0008940166
1.7150711e-06
3.1125818e-06
3.7786907e-06
4.7344593e-06
6.8294276e-06
9.7713257e-06
1.223487e-05
1.3944181e-05
1.523731e-05
1.6133471e-05
1.60993e-05
1.4723891e-05
1.2325661e-05
1.0254201e-05
1.111604e-05
1.8951141e-05
3.9178032e-05
7.8083689e-05
0.00014176614
0.00023465663
0.00035794373
0.00050833904
0.00067754705
0.00085245785
0.0010158887
2.0042705e-06
3.7444567e-06
5.0355244e-06
5.6068837e-06
8.0437478e-06
1.1352661e-05
1.4363156e-05
1.6519273e-05
1.8434007e-05
2.0266602e-05
2.1344827e-05
2.0800162e-05
1.8400406e-05
1.4872714e-05
1.2068719e-05
1.326051e-05
2.3314083e-05
4.852625e-05
9.5888819e-05
0.00017177985
0.00028030116
0.00042167771
0.00059121132
0.00077902155
0.00097054436
0.0011474716
2.326388e-06
4.9951524e-06
6.1997327e-06
7.0649719e-06
9.4170791e-06
1.3331376e-05
1.6688043e-05
1.9229145e-05
2.168512e-05
2.451997e-05
2.6976639e-05
2.7811959e-05
2.6251001e-05
2.2457686e-05
1.758131e-05
1.4006463e-05
1.5761118e-05
2.8651995e-05
5.9908533e-05
0.00011717799
0.00020695013
0.0003327533
0.00049361264
0.00068325313
0.00089016196
0.0010983922
0.0012886701
2.8639031e-06
6.229211e-06
8.271164e-06
8.6892238e-06
1.1508195e-05
1.5601673e-05
1.9475984e-05
2.2156949e-05
2.5005707e-05
2.8793896e-05
3.2803904e-05
3.5416197e-05
3.5387498e-05
3.2357587e-05
2.6872136e-05
2.0449898e-05
1.6089366e-05
1.8716267e-05
3.5198628e-05
7.3729221e-05
0.00014250733
0.00024791779
0.00039264007
0.00057426788
0.00078480953
0.0010111116
0.001235959
0.0014392967
3.4245033e-06
7.5180421e-06
1.0392141e-05
1.1424178e-05
1.3973116e-05
1.8775956e-05
2.272219e-05
2.5536138e-05
2.8493103e-05
3.3089852e-05
3.8675663e-05
4.3360995e-05
4.537421e-05
4.3956394e-05
3.9129017e-05
3.1669679e-05
2.3481145e-05
1.833963e-05
2.2245371e-05
4.3238342e-05
9.0455428e-05
0.00017248817
0.00029534701
0.00046057627
0.00066411447
0.00089614615
0.001141924
0.0013831079
0.0015990755
3.9910457e-06
8.7728808e-06
1.2425985e-05
1.4466195e-05
1.794517e-05
2.2569835e-05
2.7067151e-05
2.9503941e-05
3.236692e-05
3.7482999e-05
4.4579841e-05
5.1438412e-05
5.5877861e-05
5.6694138e-05
5.3577689e-05
4.6665443e-05
3.6877495e-05
2.6654917e-05
2.0774981e-05
2.6500976e-05
5.311617e-05
0.0001106233
0.00020778205
0.00034991922
0.00053715317
0.00076355916
0.001017445
0.0012825558
0.001539611
0.0017676488
4.5459825e-06
9.5217906e-06
1.4515888e-05
1.7635126e-05
2.2516323e-05
2.8395554e-05
3.2244805e-05
3.4706621e-05
3.6890167e-05
4.2209364e-05
5.0556813e-05
5.9607006e-05
6.6625492e-05
7.0123659e-05
6.9495913e-05
6.4470035e-05
5.5080086e-05
4.2473708e-05
2.9912624e-05
2.3419221e-05
3.1683554e-05
6.5250152e-05
0.00013483816
0.00024909398
0.00041232167
0.00062292076
0.00087293573
0.0011487966
0.0014328703
0.0017051559
0.0019445843
4.899492e-06
1.0619083e-05
1.5975998e-05
2.0713503e-05
2.7556151e-05
3.5321907e-05
4.0086219e-05
4.0981199e-05
4.270523e-05
4.7591232e-05
5.6869571e-05
6.7863962e-05
7.7527057e-05
8.3880074e-05
8.6282442e-05
8.4163634e-05
7.6894626e-05
6.440663e-05
4.8358912e-05
3.3164385e-05
2.6320021e-05
3.8059641e-05
8.0137715e-05
0.00016377564
0.00029716358
0.00048322839
0.00071837375
0.00099249471
0.0012901976
0.0015926418
0.0018793504
0.0021293833
5.0802431e-06
1.1066105e-05
1.7925263e-05
2.324242e-05
3.2201489e-05
4.2996908e-05
4.9733933e-05
5.0489188e-05
4.9846661e-05
5.4307711e-05
6.3844296e-05
7.648371e-05
8.8529312e-05
9.7795882e-05
0.00010344408
0.000104953
0.00010117357
9.100859e-05
7.4544664e-05
5.4357827e-05
3.6310286e-05
2.9572879e-05
4.5974394e-05
9.8363717e-05
0.00019817325
0.00035275042
0.00056328413
0.00082393768
0.0011223985
0.0014415476
0.0017615598
0.0020617314
0.0023214917
4.9041297e-06
1.1355204e-05
1.9071543e-05
2.6248616e-05
3.6372116e-05
4.9706702e-05
6.0608306e-05
6.2450588e-05
6.0657494e-05
6.2597782e-05
7.2215192e-05
8.5776435e-05
9.9892302e-05
0.00011176227
0.00012069291
0.00012617333
0.00012690017
0.00012087657
0.00010676722
8.5262325e-05
6.0244332e-05
3.9272184e-05
3.3339903e-05
5.5866634e-05
0.00012059825
0.00023882052
0.00041662115
0.00065309312
0.00093996433
0.0012627114
0.0016026538
0.001939232
0.0022517745
0.0025203096
4.3967049e-06
1.1052789e-05
1.9787539e-05
2.8320534e-05
4.0936701e-05
5.6119255e-05
7.0005486e-05
7.6937813e-05
7.4576703e-05
7.4729507e-05
8.2378785e-05
9.6502371e-05
0.00011190091
0.00012599639
0.00013784021
0.00014738293
0.00015319817
0.00015274272
0.00014334407
0.0001239204
9.6235273e-05
6.5782221e-05
4.2018028e-05
3.7870814e-05
6.8273025e-05
0.00014759502
0.00028655097
0.00048953592
0.00075320663
0.001066716
0.0014134002
0.0017732331
0.0021251921
0.0024489032
0.0027252005
3.6139267e-06
1.0149041e-05
1.960759e-05
2.9672194e-05
4.4308767e-05
6.2764146e-05
7.9255635e-05
8.9662993e-05
9.266171e-05
9.0554414e-05
9.6444977e-05
0.00010917929
0.00012535131
0.00014075128
0.0001550301
0.00016826862
0.00017944507
0.00018548432
0.000182728
0.00016835115
0.00014207651
0.00010709734
7.0755805e-05
4.4587294e-05
4.3512612e-05
8.3832176e-05
0.00018018109
0.00034223086
0.00057222957
0.00086410079
0.0012043572
0.0015743321
0.0019529161
0.0023189105
0.0026524964
0.0029355022
2.6849131e-06
8.6764017e-06
1.8365963e-05
2.9868744e-05
4.6435388e-05
6.7968588e-05
8.8714655e-05
0.00010228763
0.00010910128
0.00011233256
0.00011478757
0.00012569371
0.00014081178
0.00015683833
0.00017248504
0.00018887751
0.00020516169
0.00021827318
0.00022351473
0.00021669212
0.00019546741
0.00016077283
0.00011748057
7.4997585e-05
4.7103648e-05
5.0720303e-05
0.00010328597
0.00021925711
0.00040674194
0.00066539186
0.000986166
0.0013529478
0.0017452768
0.0021412514
0.0025198043
0.0028619024
0.0031505364
1.7961614e-06
6.7657438e-06
1.6110904e-05
2.8499699e-05
4.6965493e-05
7.1108414e-05
9.6713287e-05
0.00011541042
0.00012580715
0.00013313427
0.00014087172
0.00014729993
0.00016004243
0.00017486448
0.00019099304
0.00020937497
0.00023027713
0.00025042204
0.00026463721
0.00026722032
0.00025418954
0.0002241695
0.0001795336
0.00012704278
7.8398163e-05
4.9785859e-05
6.0063118e-05
0.00012748091
0.00026578555
0.00048096256
0.000769652
0.0011196932
0.0015124424
0.0019259066
0.0023377214
0.0027272463
0.0030764465
0.0033696177
1.0979881e-06
4.7518401e-06
1.3069454e-05
2.5624452e-05
4.5140836e-05
7.2035023e-05
0.00010157805
0.00012745088
0.00014326515
0.00015516479
0.00016660532
0.0001780697
0.00018477196
0.00019658234
0.00021121912
0.00023049071
0.00025484596
0.00028172836
0.00030516189
0.00031858267
0.00031615756
0.00029466593
0.00025392585
0.00019789906
0.00013547456
8.0917703e-05
5.2957344e-05
7.2237238e-05
0.00015736618
0.0003207737
0.00056574627
0.0008855578
0.0012648678
0.0016826845
0.0021158057
0.0025417496
0.002940575
0.0032954414
0.0035920628
7.0854748e-07
3.0306097e-06
9.7993848e-06
2.1546853e-05
4.105491e-05
6.9495611e-05
0.00010357162
0.00013520496
0.00016055634
0.00017734123
0.00019491595
0.0002090632
0.0002197208
0.00022380272
0.00023495939
0.00025295851
0.00027954673
0.00031207118
0.00034472646
0.00036955693
0.00037966574
0.00036975824
0.00033758916
0.00028423292
0.00021541891
0.00014249602
8.2591471e-05
5.7067423e-05
8.8070168e-05
0.00019398691
0.00038525352
0.00066189921
0.001013562
0.0014217562
0.001863412
0.0023144809
0.0027527074
0.0031591061
0.0035181969
0.0038171973
2.028543e-06
6.9972448e-07
6.9677532e-06
1.7047985e-05
3.5155398e-05
6.3634343e-05
0.00010080254
0.00013955562
0.00017239153
0.00020076921
0.00022210974
0.00024460045
0.00025662481
0.00026202595
0.00026393397
0.00027857231
0.00030509557
0.00034207559
0.00038297816
0.00041958249
0.00044315634
0.00044730817
0.0004275297
0.00038249696
0.00031459212
0.00023162766
0.00014784767
8.3554504e-05
6.2709222e-05
0.00010852656
0.00023847005
0.00046025889
0.00077015973
0.0011540032
0.0015903073
0.0020542623
0.0025213688
0.0029699269
0.0033821423
0.003744027
0.0040443632
5.3144171e-06
2.0306811e-06
1.0723094e-06
1.3114866e-05
2.8581749e-05
5.5105857e-05
9.3407806e-05
0.00013784455
0.00018050241
0.00021752478
0.00025250079
0.00027740054
0.00030054834
0.00030476841
0.00030440013
0.00030888905
0.00033327735
0.00037234991
0.00042047389
0.00046801411
0.00050580639
0.00052535848
0.00052109113
0.00048914056
0.00042895961
0.00034445215
0.00024601616
0.00015130165
8.4059027e-05
7.0638601e-05
0.00013470894
0.00029200595
0.00054680126
0.00089117334
0.001307098
0.0017703485
0.0022547806
0.0027358446
0.0031927113
0.00360898
0.0039722584
0.0042729241
1.0815791e-05
5.3138304e-06
3.0350422e-06
1.7534895e-06
2.2848483e-05
4.5566085e-05
8.2210751e-05
0.00013004009
0.00018137547
0.00023047845
0.00027497408
0.00031580417
0.00033986566
0.00035717565
0.00035187177
0.00035052125
0.00036561617
0.00040468416
0.0004576082
0.00051532864
0.00056664566
0.00060273768
0.00061582923
0.00060089596
0.00055436102
0.00047647542
0.00037314313
0.00025802162
0.00015269808
8.4511251e-05
8.1783456e-05
0.00016784877
0.00035582487
0.00064584097
0.0010254743
0.0014729308
0.001961593
0.0024644265
0.0029572338
0.0034203449
0.0038389215
0.0042022357
0.0045022698
1.9481674e-05
1.0821595e-05
6.9648322e-06
4.7568314e-06
2.6279252e-06
3.725785e-05
6.9506673e-05
0.00011702182
0.00017461475
0.00023514435
0.00029371498
0.00034506225
0.00038824234
0.00040366175
0.00041197079
0.00040117525
0.00040814244
0.00044047468
0.00049618315
0.00056159104
0.00062603403
0.00067811909
0.00071011312
0.00071472905
0.00068683354
0.00062290402
0.00052435403
0.00039983929
0.00026705173
0.00015199499
8.5511939e-05
9.7261282e-05
0.00020929154
0.0004311691
0.00075825931
0.001173468
0.001651453
0.0021636412
0.002682585
0.0031848235
0.0036521035
0.00407128
0.0044333278
0.0047318207
3.2323629e-05
1.9491694e-05
1.3129266e-05
9.796124e-06
6.7698432e-06
3.5491363e-06
5.8342695e-05
0.00010174314
0.00016100945
0.00023059671
0.0003032362
0.00037113302
0.00042628796
0.00046392654
0.00046581597
0.00046826974
0.00046115654
0.00048516938
0.00053730157
0.0006086678
0.00068363937
0.00075167018
0.00080221191
0.00082841803
0.00082264402
0.00077901209
0.00069423592
0.00057163156
0.00042355598
0.00027253988
0.0001493153
8.788603e-05
0.00011837926
0.00026047561
0.00051925957
0.00088483167
0.0013354189
0.0018424789
0.0023759913
0.0029085762
0.0034178737
0.0038872637
0.0043053873
0.0046649318
0.0049610306
5.1615658e-05
3.2281725e-05
2.2874538e-05
1.7068477e-05
1.3066174e-05
8.6777152e-06
4.332198e-06
8.8001776e-05
0.00014414173
0.00021744206
0.00030201674
0.00038717544
0.00046221015
0.00051332531
0.00053901371
0.00052934605
0.0005353052
0.00054086229
0.00058629227
0.00065716571
0.00074142721
0.00082267869
0.00089198844
0.0009397452
0.00095884472
0.00094026282
0.00087725749
0.00076742867
0.00061703191
0.00044319643
0.00027400329
0.00014500107
9.2706147e-05
0.00014662764
0.00032290108
0.00062126072
0.001026205
0.0015114392
0.0020456914
0.0025980455
0.0031416695
0.0036556289
0.0041251114
0.0045405992
0.0048964765
0.0051893884
7.9589074e-05
5.1503319e-05
3.7133918e-05
2.8620726e-05
2.1574965e-05
1.6108648e-05
1.0148663e-05
4.8468476e-06
0.00012842416
0.0001997346
0.00029028898
0.00039105768
0.00048757707
0.0005624308
0.0006018104
0.00061629882
0.00060319671
0.0006218723
0.00064581187
0.00071264434
0.00079940225
0.00089318583
0.00097836137
0.0010481206
0.0010926177
0.0011028676
0.0010679892
0.00098089471
0.00084107843
0.00065899368
0.00045761933
0.00027112511
0.00013966812
0.00010131208
0.00018365928
0.00039809194
0.00073824786
0.0011828744
0.0017014851
0.002260644
0.0028291251
0.0033810952
0.0038973293
0.0043649488
0.0047762989
0.0051274244
0.00541642
0.00011868987
7.9421781e-05
5.8021394e-05
4.5377541e-05
3.5205844e-05
2.5657932e-05
1.8370263e-05
1.1049696e-05
5.0343534e-06
0.00018252316
0.00027242971
0.00038236758
0.00049942197
0.00060075765
0.00066761407
0.00069429439
0.0007038748
0.000695604
0.00073343739
0.00077657042
0.0008634804
0.00096267507
0.001063356
0.0011520988
0.001222756
0.0012632545
0.0012616899
0.0012056302
0.0010886008
0.00091329901
0.00069573737
0.00046574141
0.00026384702
0.00013425603
0.00011531227
0.00023125935
0.00048755409
0.00087117109
0.0013551672
0.0019053519
0.0024867745
0.0030684828
0.0036260595
0.0041422178
0.0046060975
0.0050119013
0.0053572759
0.0056416898
0.00017184909
0.00011858272
8.7515761e-05
6.9011852e-05
5.4882392e-05
4.1114448e-05
2.8537844e-05
1.9616295e-05
1.1351011e-05
4.866395e-06
0.00025411957
0.00036559725
0.00049619095
0.00062456268
0.00072289352
0.00078018349
0.00079770623
0.00080914759
0.00081252405
0.00087099497
0.00093368076
0.0010374098
0.0011461831
0.0012534967
0.0013474085
0.001419471
0.001453873
0.0014358308
0.0013521869
0.0011983638
0.00098176953
0.00072537006
0.00046664765
0.00025247035
0.00013007473
0.00013657464
0.00029130333
0.00059273112
0.0010208244
0.0015432278
0.0021226816
0.0027234156
0.0033153187
0.0038757514
0.0043895455
0.0048479065
0.0052468598
0.0055855723
0.0058648004
0.00024270807
0.00017198345
0.0001281012
0.00010098774
8.1609473e-05
6.3400619e-05
4.5210869e-05
2.9907017e-05
1.9799123e-05
1.1068371e-05
4.5253107e-06
0.00034706084
0.00048239647
0.00063046772
0.0007632578
0.00085688686
0.00090644449
0.00091895711
0.00093844245
0.00095565918
0.0010361442
0.0011161784
0.0012332005
0.0013514211
0.0014679119
0.0015691387
0.001641698
0.0016659244
0.0016248643
0.0015057722
0.0013075034
0.0010438395
0.00074601234
0.00045972411
0.00023771106
0.00012882034
0.00016719635
0.0003657065
0.00071495619
0.0011878152
0.001747014
0.0023529712
0.0029698121
0.0035687876
0.0041293502
0.0046385817
0.0050897648
0.0054806729
0.0058118922
0.0060853893
0.00033538424
0.00024301044
0.00018287447
0.0001436334
0.00011610082
9.2769238e-05
6.9275454e-05
4.7039402e-05
2.9709552e-05
1.9086139e-05
1.0620164e-05
3.9803978e-06
0.00046487918
0.00062272519
0.00078297248
0.00091917065
0.0010084289
0.001052274
0.0010636428
0.0010948927
0.0011258091
0.0012282151
0.0013224647
0.0014520725
0.0015833321
0.0017129126
0.0018220908
0.0018920349
0.0018997991
0.0018272972
0.0016635979
0.0014127602
0.0010966586
0.00075595416
0.00044476737
0.00022075046
0.00013256377
0.00020945924
0.00045636483
0.00085540444
0.0013725462
0.0019662994
0.0025955861
0.0032251239
0.0038280082
0.0043860397
0.0048886369
0.0053311103
0.0057128727
0.0060358401
0.0063136972
0.00045348047
0.00033579065
0.00025492323
0.00020021175
0.00016037879
0.00012905399
0.00010018743
7.1837511e-05
4.6508208e-05
2.8358086e-05
1.7939637e-05
9.5266404e-06
3.4227444e-06
0.00060834436
0.00078538618
0.00095804008
0.0010974956
0.0011822882
0.0012226088
0.0012359251
0.00127986
0.0013229086
0.0014443241
0.0015534215
0.0016994658
0.0018497308
0.0019948926
0.0021101283
0.0021718979
0.0021546634
0.0020405323
0.0018220441
0.0015104121
0.0011373291
0.00075380073
0.00042209515
0.0002032906
0.00014373811
0.00026576658
0.00056509074
0.0010150556
0.0015752054
0.0022006783
0.0028497606
0.0034884391
0.0040920839
0.004645043
0.0051390737
0.0055714073
0.0059430014
0.0062665824
0.0065547323
0.00059813252
0.00045355202
0.00034814989
0.000273559
0.00021794914
0.00017393103
0.00013689282
0.00010301604
7.094284e-05
4.4378727e-05
2.6278784e-05
1.5993387e-05
8.7757173e-06
2.866422e-06
0.00077737508
0.00097529819
0.0011606884
0.0013020783
0.0013829584
0.001422236
0.0014375616
0.001492677
0.0015446962
0.0016852087
0.0018143146
0.0019847494
0.0021587518
0.0023191365
0.0024358743
0.0024813783
0.0024284421
0.0022608986
0.0019767405
0.0015964223
0.0011630865
0.00073864265
0.00039265767
0.00018759103
0.00016508779
0.00033856768
0.00069355373
0.0011946672
0.0017957581
0.0024495579
0.0031146059
0.0037588018
0.0043601504
0.0049056367
0.0053892686
0.0058101059
0.0061796943
0.0065093505
0.006801972
0.0007702633
0.0005975718
0.00046512727
0.00036713432
0.00029155487
0.00023107516
0.00018072205
0.00013869543
0.00010111743
6.7833796e-05
4.1005741e-05
2.3266691e-05
1.4527777e-05
7.5248565e-06
2.3310012e-06
0.00097706659
0.0011972663
0.0013939118
0.0015368109
0.0016160152
0.0016540608
0.0016703238
0.0017287282
0.001792071
0.0019555913
0.0021162547
0.0023180301
0.0025171079
0.0026896244
0.0028005679
0.0028192115
0.0027177881
0.0024837011
0.0021226891
0.0016666138
0.0011715051
0.00071021982
0.00035810536
0.00017644136
0.00019959356
0.00043028186
0.00084323362
0.0013947459
0.0020339219
0.0027121612
0.0033891504
0.0040352761
0.0046313944
0.0051670911
0.0056385494
0.006055803
0.006428335
0.0067593257
0.0070553276
0.00097489067
0.00076937131
0.00060678467
0.00048265544
0.00038407462
0.00030323383
0.00023556442
0.00017992208
0.00013449504
9.633643e-05
6.2661408e-05
3.6435079e-05
2.0729812e-05
1.2436516e-05
6.2404444e-06
2.0111068e-06
0.0012119701
0.0014533866
0.0016606913
0.0018075655
0.0018858952
0.0019202919
0.0019305854
0.0019855242
0.0020659087
0.0022684429
0.0024713251
0.0027074516
0.0029301879
0.0031089272
0.0032040676
0.0031827725
0.0030181162
0.0027033127
0.0022544175
0.001716885
0.00116071
0.0006690628
0.00032082033
0.00017309831
0.00025038948
0.00054323043
0.001015364
0.001615496
0.0022891593
0.0029875782
0.0036724227
0.0043169665
0.0049049653
0.0054285798
0.0058959613
0.0063139629
0.0066852365
0.007016382
0.0073146903
0.0012165111
0.00097378654
0.00077489226
0.00062032623
0.00049629765
0.00039266758
0.00030429697
0.00023083551
0.00017192141
0.00012687173
8.8433587e-05
5.6049207e-05
3.2255062e-05
1.7646504e-05
1.0405785e-05
4.9998992e-06
1.7252026e-06
0.0014833656
0.0017453103
0.0019672207
0.0021207353
0.0021961669
0.0022184409
0.0022110522
0.0022644698
0.0023802125
0.0026393308
0.0028889598
0.003160012
0.0034019822
0.0035782826
0.0036448268
0.0035680134
0.0033236063
0.0029132648
0.0023661639
0.0017434482
0.0011295869
0.00061660682
0.00028392689
0.00018123842
0.00032068302
0.00067954991
0.0012108439
0.001856792
0.0025607394
0.0032748697
0.0039634718
0.004602893
0.0051798496
0.0057001214
0.0061669719
0.0065815247
0.0069502455
0.007280362
0.0075799288
0.0014960177
0.0012157014
0.00097414326
0.00078163658
0.00062747389
0.00049931038
0.00038855034
0.00029459531
0.00021782501
0.00016019532
0.0001149799
7.9063425e-05
4.9659516e-05
2.7597123e-05
1.4480962e-05
8.2816145e-06
3.7453062e-06
1.4621906e-06
0.001791172
0.0020788732
0.0023218467
0.0024818792
0.0025460725
0.0025409289
0.0025101209
0.002575831
0.0027543068
0.0030789305
0.0033773972
0.0036812389
0.0039353038
0.0040976019
0.0041198589
0.0039694421
0.0036272359
0.0031063682
0.0024521097
0.0017430884
0.0010779906
0.00055528288
0.00025128632
0.00020486956
0.00041363551
0.00084105311
0.0014301776
0.0021182526
0.0028478655
0.0035730826
0.0042611931
0.0048918263
0.005467623
0.0059871014
0.0064486476
0.0068583176
0.007223171
0.0075510682
0.0078508917
0.0018120146
0.0014965751
0.0012098395
0.00097099838
0.00077840426
0.00062128653
0.00048724597
0.00037220535
0.00027563796
0.00020099862
0.00014302996
0.00010198537
6.9863625e-05
4.2976342e-05
2.2552423e-05
1.1437615e-05
6.2040213e-06
3.1149624e-06
1.1725726e-06
0.0021401286
0.0024636758
0.002731842
0.0028925432
0.002927813
0.0028807253
0.0028375995
0.0029400766
0.0031996277
0.0035969916
0.0039436967
0.00427584
0.0045319054
0.0046653748
0.0046245781
0.0043800576
0.0039208369
0.0032749068
0.0025066755
0.0017134728
0.0010069361
0.00048855829
0.00022742994
0.00024819279
0.00053216993
0.0010291252
0.0016735565
0.0023993873
0.0031496769
0.0038810115
0.0045641201
0.0051975425
0.0057734957
0.0062861721
0.006740811
0.0071441299
0.0075037669
0.0078282725
0.0081274049
0.0021673796
0.0018141206
0.0014849311
0.0011942807
0.00095285556
0.0007584057
0.0005974967
0.00046176246
0.00034588033
0.00025300728
0.00017751605
0.00012564627
8.9439375e-05
6.0528121e-05
3.5301578e-05
1.7970444e-05
8.6985863e-06
5.0408858e-06
2.203934e-06
9.2049516e-07
0.0025406775
0.0029086739
0.0032015815
0.003345185
0.0033306659
0.0032451114
0.0032119542
0.0033722728
0.0037279488
0.0042016107
0.0045947638
0.0049476238
0.0051922354
0.0052784428
0.0051526922
0.0047913441
0.0041951884
0.0034108743
0.0025248235
0.0016534252
0.00091876035
0.00042098022
0.0002174352
0.00031535691
0.00067880895
0.0012448095
0.0019410295
0.0026995756
0.0034649295
0.0041969455
0.00488895
0.0055249765
0.0060930962
0.0065971601
0.007043243
0.0074386811
0.0077917449
0.0081117067
0.0084092754
0.0025734227
0.0021702984
0.0017969371
0.0014558287
0.0011571158
0.00091370852
0.0007181635
0.00055944349
0.00042583643
0.00031644564
0.0002224921
0.00015527898
0.0001089886
7.6810032e-05
4.9699638e-05
2.8378793e-05
1.3985951e-05
7.0731245e-06
3.7847242e-06
1.9059296e-06
6.9702455e-07
0.003002529
0.0034197796
0.0037253975
0.0038281955
0.0037594055
0.0036493881
0.0036450286
0.0038908456
0.004346631
0.0049017791
0.0053366668
0.00569931
0.0059151176
0.0059318804
0.0056961372
0.0051932151
0.0044401397
0.0035062883
0.0025024547
0.0015632295
0.00081726867
0.00035810152
0.00022665038
0.00041024107
0.00085576525
0.0014889937
0.0022324293
0.0030176408
0.0037916836
0.0045413059
0.0052402694
0.0058680553
0.0064262676
0.0069198532
0.0073556434
0.0077416383
0.008086764
0.008401074
0.0086962884
0.0030397046
0.0025767428
0.0021480033
0.0017536906
0.0013966227
0.0010936881
0.00085161094
0.00066338863
0.00051085516
0.00038791042
0.00027780554
0.00019515924
0.0001332447
9.2613357e-05
6.2394668e-05
4.0051282e-05
2.2556278e-05
1.1520228e-05
5.611598e-06
3.1618097e-06
1.3628138e-06
5.1465219e-07
0.0035315984
0.0039940838
0.0042918322
0.0043445482
0.0042272291
0.0041180927
0.0041567534
0.0044983344
0.0050671284
0.0057065641
0.0061746786
0.0065321275
0.006697632
0.0066188609
0.0062448482
0.0055740054
0.0046448241
0.0035536195
0.0024368616
0.001444946
0.00070776539
0.00030619341
0.00026041279
0.00053654282
0.0010651304
0.0017622614
0.0025468177
0.0033514719
0.0041549316
0.0049183181
0.005609531
0.0062266556
0.0067728219
0.0072539454
0.007677649
0.0080526039
0.0083884423
0.0086960399
0.0089882093
0.0035713493
0.0030431258
0.0025500006
0.0020901946
0.0016700228
0.0013046449
0.0010047024
0.00077550982
0.0005984424
0.00046211943
0.00033963659
0.00024489119
0.0001667579
0.00011237602
7.4566498e-05
5.0431802e-05
3.2220152e-05
1.8764606e-05
9.4225008e-06
4.7390828e-06
2.4605796e-06
1.1311692e-06
3.6746646e-07
0.0041264125
0.0046223662
0.0049037746
0.0049085991
0.004758828
0.004658409
0.0047532401
0.0052072637
0.0059005508
0.0066247253
0.0071128836
0.0074456604
0.0075349839
0.007330334
0.006786579
0.0059204881
0.0047980389
0.0035462824
0.0023271821
0.0013026113
0.00059685092
0.00027195589
0.00032415489
0.00069796102
0.0013086151
0.0020641613
0.0028820286
0.0037314799
0.0045586294
0.0053160879
0.0059966636
0.0066006361
0.0071324648
0.0075990592
0.0080088212
0.0083711274
0.0086963475
0.0089962567
0.009284828
0.0041668087
0.0035732232
0.003012153
0.0024770336
0.0019799561
0.0015456768
0.0011840533
0.00090311131
0.00069059594
0.00053658139
0.00040250221
0.00030041886
0.00020924368
0.0001409555
9.0595477e-05
6.0649066e-05
4.0946671e-05
2.7051293e-05
1.5593926e-05
8.0472735e-06
3.9434307e-06
2.062904e-06
8.3395949e-07
2.5806249e-07
0.0047810836
0.005309496
0.0055782608
0.0055376586
0.005360305
0.0052764531
0.0054465557
0.0060333643
0.0068584623
0.0076636086
0.0081540283
0.0084378709
0.008420235
0.0080546377
0.0073066677
0.0062180773
0.0048887632
0.0034792862
0.0021748471
0.0011421867
0.00049218742
0.00026264381
0.00042357625
0.00089778849
0.0015866102
0.0023926757
0.0032746522
0.0041616343
0.0049866148
0.0057346101
0.0064015919
0.0069897344
0.007504822
0.0079547316
0.008348656
0.008696696
0.0090100376
0.0093013991
0.0095858791
0.0048230541
0.0041653188
0.0035369374
0.0029224403
0.0023367732
0.0018196392
0.0013900482
0.0010533545
0.00079509092
0.00061371229
0.00046429624
0.00035646116
0.00025658839
0.00017813966
0.0001147988
7.4750186e-05
4.9839794e-05
3.4686429e-05
2.2709977e-05
1.3324108e-05
6.8303261e-06
3.3831919e-06
1.673989e-06
6.6715319e-07
1.7796755e-07
0.0055026996
0.0060762549
0.0063318402
0.0062415991
0.0060430553
0.0059802393
0.0062578872
0.006990078
0.0079511369
0.008828849
0.0092993322
0.0095048604
0.0093437109
0.0087769449
0.007787915
0.0064512075
0.0049068593
0.0033499468
0.0019838083
0.00097143618
0.0004026441
0.00028624604
0.00056404462
0.0011377114
0.0018975513
0.0027910682
0.0037292441
0.004620595
0.005438953
0.0061738961
0.0068241077
0.0073936001
0.0078894236
0.0083204214
0.0086965749
0.0090287891
0.0093290854
0.0096110747
0.0098910855
0.0055489725
0.0048185692
0.0041227023
0.0034275715
0.0027471437
0.0021349134
0.0016257453
0.0012277624
0.00091972042
0.00070205407
0.00052776337
0.00041105833
0.00030442665
0.0002197072
0.00014729188
9.6430816e-05
6.2583515e-05
4.2696599e-05
2.9491288e-05
1.9466247e-05
1.1347504e-05
5.9046e-06
2.8853843e-06
1.3785874e-06
5.0188603e-07
1.2090211e-07
0.0063150688
0.0069409755
0.0071731508
0.0070260908
0.0068046479
0.0067911011
0.0072006663
0.0080900354
0.0091879647
0.010124922
0.010548892
0.010640339
0.01029214
0.0094788092
0.0082106908
0.006603967
0.0048439943
0.0031584357
0.0017606173
0.00080022657
0.00033856163
0.00035067063
0.00074909
0.00141706
0.0022913503
0.0032654953
0.0042185237
0.0051084877
0.0059157563
0.0066338123
0.0072639068
0.007811775
0.0082857087
0.0086955004
0.0090519942
0.0093668863
0.0096529944
0.0099248528
0.010200158
0.0063683499
0.0055432546
0.0047695951
0.0039895918
0.0032101967
0.0024961556
0.0018972027
0.0014293163