/*--------------------------------*- C++ -*----------------------------------*\
| =========                 |                                                 |
| \\      /  F ield         | OpenFOAM: The Open Source CFD Toolbox           |
|  \\    /   O peration     | Version:  5.0                                   |
|   \\  /    A nd           | Web:      www.OpenFOAM.org                      |
|    \\/     M anipulation  |                                                 |
\*---------------------------------------------------------------------------*/
FoamFile
{
    version     2.0;
    format      ascii;
    class       volVectorField;
    location    "340";
    object      U;
}
// * * * * * * * * * * * * * * * * * * * * * * * * * * * * * * * * * * * * * //

dimensions      [0 1 -1 0 0 0 0];

internalField   nonuniform List<vector> 
9520
(
(1.0143659 0.00016663616 0)
(1.0144638 0.0004881964 0)
(1.0138706 0.000164479 0)
(1.0146364 0.00078667781 0)
(1.0139708 0.00048307763 0)
(1.0136811 0.00016234817 0)
(1.0148673 0.0010615753 0)
(1.0141486 0.00078028221 0)
(1.0137808 0.00047660271 0)
(1.013375 0.00016377428 0)
(1.0151423 0.0013122924 0)
(1.0143887 0.0010554039 0)
(1.013959 0.00077034094 0)
(1.0134749 0.00047972159 0)
(1.0131377 0.00016932952 0)
(1.0154485 0.001538562 0)
(1.0146774 0.0013083891 0)
(1.0142007 0.0010431201 0)
(1.0136538 0.00077518728 0)
(1.0132382 0.00049544613 0)
(1.0128648 0.00017563264 0)
(1.0157749 0.0017403655 0)
(1.0150018 0.0015382608 0)
(1.0144927 0.0012965024 0)
(1.0138961 0.0010505211 0)
(1.0134178 0.00080062755 0)
(1.0129655 0.00051495946 0)
(1.0126119 0.00017801884 0)
(1.0161117 0.0019170487 0)
(1.0153516 0.0017450174 0)
(1.0148226 0.0015290989 0)
(1.0141895 0.0013085173 0)
(1.0136605 0.0010860636 0)
(1.0131439 0.00083414299 0)
(1.0127116 0.00052422789 0)
(1.012357 0.00017511907 0)
(1.0164514 0.0020675777 0)
(1.0157189 0.0019288102 0)
(1.0151797 0.0017404396 0)
(1.0145234 0.0015485798 0)
(1.0139544 0.001354076 0)
(1.0133848 0.001135119 0)
(1.0128876 0.00085261571 0)
(1.0124528 0.00051782681 0)
(1.0121234 0.00016851993 0)
(1.0167888 0.0021899964 0)
(1.0160984 0.0020897659 0)
(1.0155551 0.001930474 0)
(1.0148872 0.0017704183 0)
(1.0142902 0.0016054675 0)
(1.0136762 0.0014189194 0)
(1.0131258 0.0011656056 0)
(1.0126227 0.0008456818 0)
(1.0122146 0.00049914188 0)
(1.0119064 0.00016159359 0)
(1.0171231 0.0022772843 0)
(1.0164889 0.0022289162 0)
(1.0159409 0.0021000301 0)
(1.0152708 0.001973512 0)
(1.0146577 0.0018407245 0)
(1.0140086 0.0016878761 0)
(1.0134139 0.0014632833 0)
(1.0128538 0.0011617277 0)
(1.0123771 0.00081713319 0)
(1.0119927 0.0004780359 0)
(1.0117061 0.00015704508 0)
(1.0174603 0.0023361685 0)
(1.0168957 0.0023507666 0)
(1.0163309 0.0022545107 0)
(1.0156629 0.0021580883 0)
(1.0150472 0.0020594077 0)
(1.0143732 0.0019435413 0)
(1.013742 0.0017482616 0)
(1.0131334 0.0014671766 0)
(1.0125991 0.0011256267 0)
(1.0121474 0.00078317779 0)
(1.0117882 0.00046307088 0)
(1.011517 0.00015540187 0)
(1.0177972 0.002361962 0)
(1.0173238 0.0024602431 0)
(1.0167173 0.0024018756 0)
(1.016051 0.0023268216 0)
(1.0154477 0.0022606872 0)
(1.0147624 0.0021860458 0)
(1.0141017 0.0020228284 0)
(1.0134504 0.0017636916 0)
(1.0128691 0.001428989 0)
(1.0123573 0.001079972 0)
(1.0119354 0.00075811005 0)
(1.0115957 0.00045681723 0)
(1.0113355 0.00015503595 0)
(1.0181018 0.0023792654 0)
(1.0177041 0.0025648629 0)
(1.0170476 0.0025611623 0)
(1.0164143 0.002480667 0)
(1.015847 0.0024413339 0)
(1.0151712 0.0024135459 0)
(1.0144869 0.0022884041 0)
(1.013796 0.0020535897 0)
(1.0131745 0.0017275629 0)
(1.0126117 0.0013745465 0)
(1.0121343 0.0010461458 0)
(1.0117355 0.00074677382 0)
(1.0114116 0.00045534324 0)
(1.0111609 0.00015339318 0)
(1.0184097 0.0023566039 0)
(1.0180226 0.0027233819 0)
(1.0173011 0.0027453169 0)
(1.0167381 0.0026201636 0)
(1.0162331 0.0025922986 0)
(1.0155983 0.0026194883 0)
(1.0148951 0.0025457717 0)
(1.0141636 0.00233923 0)
(1.0135059 0.0020222812 0)
(1.0129006 0.0016678321 0)
(1.0123743 0.0013327908 0)
(1.0119231 0.0010307665 0)
(1.0115444 0.00074380562 0)
(1.0112345 0.00045129054 0)
(1.0109955 0.00014836281 0)
(1.0187246 0.0023837634 0)
(1.0183249 0.0028609385 0)
(1.0175677 0.0029153257 0)
(1.0170502 0.0027247444 0)
(1.0166309 0.0027002162 0)
(1.0160545 0.0027920215 0)
(1.0153279 0.0027949485 0)
(1.014549 0.0026240608 0)
(1.0138548 0.0023145541 0)
(1.0132147 0.0019599029 0)
(1.0126471 0.0016199313 0)
(1.0121483 0.0013136322 0)
(1.011721 0.001026167 0)
(1.0113609 0.00073777538 0)
(1.011066 0.00043792226 0)
(1.0108431 0.00013912122 0)
(1.0190714 0.0022885768 0)
(1.0186189 0.0030970797 0)
(1.0177539 0.0030588108 0)
(1.0173835 0.0027785818 0)
(1.0170551 0.0027249222 0)
(1.016549 0.0029264002 0)
(1.0157904 0.0030410212 0)
(1.0149501 0.0029152481 0)
(1.0142116 0.0026070433 0)
(1.0135451 0.002250387 0)
(1.0129446 0.0019083388 0)
(1.0124037 0.0015981264 0)
(1.0119318 0.0013076782 0)
(1.0115272 0.0010173039 0)
(1.0111863 0.00071730451 0)
(1.01091 0.00041202766 0)
(1.0107075 0.00012637056 0)
(1.019392 0.0024612644 0)
(1.0188847 0.0032601527 0)
(1.0178815 0.003203137 0)
(1.0176413 0.0027704631 0)
(1.0174768 0.0027052133 0)
(1.0170782 0.0030010297 0)
(1.0162985 0.0032843662 0)
(1.0153639 0.0032231546 0)
(1.0145646 0.0029052265 0)
(1.0138819 0.0025384974 0)
(1.0132588 0.0021971646 0)
(1.0126818 0.001886656 0)
(1.0121691 0.0015918492 0)
(1.0117235 0.0012955942 0)
(1.0113433 0.0009900021 0)
(1.0110241 0.00067594965 0)
(1.0107709 0.00037504308 0)
(1.0105906 0.00011200321 0)
(1.0198128 0.0021363142 0)
(1.0191913 0.0037374386 0)
(1.0178347 0.0033904681 0)
(1.0177751 0.0027417682 0)
(1.0179629 0.0026063645 0)
(1.0176072 0.0030528872 0)
(1.0168379 0.0035442239 0)
(1.0157797 0.003564753 0)
(1.014904 0.0032159364 0)
(1.0142148 0.0028224803 0)
(1.0135821 0.0024837749 0)
(1.0129768 0.0021797548 0)
(1.0124259 0.0018828547 0)
(1.0119415 0.0015776172 0)
(1.0115257 0.0012600839 0)
(1.0111726 0.00093558986 0)
(1.0108784 0.00061519724 0)
(1.010651 0.00033229116 0)
(1.0104918 9.8309807e-05 0)
(1.0200287 0.0027010601 0)
(1.0193519 0.0039348151 0)
(1.0176256 0.0035723902 0)
(1.017757 0.0026201155 0)
(1.0183913 0.0024032676 0)
(1.0182379 0.0030745579 0)
(1.0173788 0.0038282827 0)
(1.0161794 0.0039695668 0)
(1.0152067 0.0035535658 0)
(1.0145267 0.0030985618 0)
(1.0139073 0.002762275 0)
(1.0132851 0.0024758621 0)
(1.0126974 0.0021833517 0)
(1.0121735 0.0018688281 0)
(1.0117243 0.0015349378 0)
(1.0113423 0.0011918919 0)
(1.0110185 0.00085301981 0)
(1.0107531 0.00054394865 0)
(1.0105502 0.00029056146 0)
(1.0104087 8.7077866e-05 0)
(1.0203517 0.00191947 0)
(1.0196739 0.0048694048 0)
(1.0171373 0.0039596524 0)
(1.0175597 0.0023689491 0)
(1.0188843 0.0019896945 0)
(1.019016 0.0030691629 0)
(1.0179748 0.0041451906 0)
(1.0165289 0.0044545784 0)
(1.0154457 0.0039309277 0)
(1.014796 0.0033673677 0)
(1.0142245 0.0030233205 0)
(1.0136045 0.0027697169 0)
(1.0129819 0.002494474 0)
(1.0124148 0.002174142 0)
(1.0119305 0.00182036 0)
(1.0115222 0.0014529816 0)
(1.0111774 0.0010897659 0)
(1.0108848 0.00075134489 0)
(1.0106493 0.0004738054 0)
(1.0104662 0.00025524733 0)
(1.0103376 7.9039758e-05 0)
(1.0200751 0.0030712363 0)
(1.0195509 0.0051098943 0)
(1.0164927 0.0041711813 0)
(1.017135 0.0021158137 0)
(1.0193451 0.0014287305 0)
(1.0200062 0.0029421267 0)
(1.0187009 0.0045570946 0)
(1.0168353 0.0050412594 0)
(1.0155626 0.004361678 0)
(1.0149821 0.0036123293 0)
(1.0145208 0.003253222 0)
(1.0139341 0.0030525127 0)
(1.0132816 0.0028155126 0)
(1.0126637 0.0024980379 0)
(1.0121381 0.0021226185 0)
(1.0117029 0.001724326 0)
(1.0113407 0.0013298576 0)
(1.0110331 0.00095973857 0)
(1.0107752 0.00064821385 0)
(1.0105647 0.00041347496 0)
(1.0103955 0.0002288334 0)
(1.0102752 7.3910045e-05 0)
(1.0198747 0.0017328848 0)
(1.0197297 0.0065813636 0)
(1.015299 0.0049769164 0)
(1.0164236 0.0013929784 0)
(1.0199106 0.00047975035 0)
(1.0212206 0.0027997562 0)
(1.0195825 0.0050759389 0)
(1.0170852 0.0057863282 0)
(1.0155752 0.0048459558 0)
(1.0150954 0.0038423142 0)
(1.0147687 0.003415201 0)
(1.014276 0.0033049863 0)
(1.0136055 0.0031427675 0)
(1.012923 0.002845981 0)
(1.0123426 0.0024483834 0)
(1.0118766 0.0020120997 0)
(1.0114993 0.0015780308 0)
(1.0111834 0.0011705753 0)
(1.0109148 0.00082266768 0)
(1.010688 0.00055888076 0)
(1.0104953 0.00036652609 0)
(1.0103349 0.00021108031 0)
(1.0102186 7.0854621e-05 0)
(1.0190598 0.003514798 0)
(1.0184927 0.006848187 0)
(1.0142192 0.005161897 0)
(1.0152966 0.0011266044 0)
(1.0202995 -0.00069722381 0)
(1.0227583 0.0023386491 0)
(1.0206871 0.0058074072 0)
(1.0172629 0.0067636576 0)
(1.0153551 0.0054238328 0)
(1.0150436 0.0039892582 0)
(1.0150314 0.0035152017 0)
(1.0146482 0.0034987361 0)
(1.0139705 0.0034645185 0)
(1.0132031 0.0032235336 0)
(1.0125428 0.0028075216 0)
(1.0120356 0.0023230076 0)
(1.011644 0.0018392309 0)
(1.0113251 0.0013867922 0)
(1.0110547 0.00099707565 0)
(1.0108223 0.00070054494 0)
(1.0106192 0.00048978483 0)
(1.0104374 0.00033251846 0)
(1.0102819 0.00020011513 0)
(1.010166 6.8950582e-05 0)
(1.0194056 0.0021906724 0)
(1.0163011 0.0088557128 0)
(1.0111376 0.0067703791 0)
(1.0137844 -0.00048279243 0)
(1.0210753 -0.0024167434 0)
(1.0246243 0.0020396736 0)
(1.0220241 0.0067030363 0)
(1.0173552 0.008074925 0)
(1.0148482 0.0061025351 0)
(1.0147877 0.0040621284 0)
(1.0152948 0.0034192294 0)
(1.0150813 0.0035874877 0)
(1.0144166 0.0037719521 0)
(1.0135231 0.0036381862 0)
(1.0127415 0.0032131724 0)
(1.0121724 0.0026668377 0)
(1.0117647 0.002118181 0)
(1.0114482 0.0016111249 0)
(1.0111836 0.0011740107 0)
(1.0109559 0.00083954379 0)
(1.0107517 0.00060309188 0)
(1.0105643 0.00043932287 0)
(1.0103882 0.00030943535 0)
(1.0102339 0.00019352539 0)
(1.0101167 6.739291e-05 0)
(1.0184689 0.0042592552 0)
(1.0167674 0.0095950543 0)
(1.0078747 0.0064922749 0)
(1.0113873 -0.00059558016 0)
(1.0211867 -0.004495485 0)
(1.0270429 0.00093514352 0)
(1.0237159 0.0080437859 0)
(1.0172874 0.0098076739 0)
(1.0139463 0.0069874989 0)
(1.0142302 0.0039726893 0)
(1.015482 0.0031218482 0)
(1.0156572 0.0035642863 0)
(1.0149521 0.0040205063 0)
(1.0139205 0.0041033573 0)
(1.012946 0.0036875952 0)
(1.0122786 0.0030567568 0)
(1.0118501 0.0024204591 0)
(1.0115428 0.0018456509 0)
(1.0112921 0.0013551985 0)
(1.0110767 0.00097818676 0)
(1.010882 0.00071072172 0)
(1.0106987 0.00052966998 0)
(1.0105201 0.0004023352 0)
(1.0103458 0.00029504708 0)
(1.0101895 0.00018900058 0)
(1.0100701 6.5583342e-05 0)
(1.0134355 0.0028611462 0)
(1.0163365 0.01222769 0)
(1.0054397 0.0087372868 0)
(1.0086528 -0.0033796803 0)
(1.0221478 -0.007207061 0)
(1.0295019 0.00049441516 0)
(1.0256403 0.009470064 0)
(1.0170644 0.012066366 0)
(1.0125514 0.0080420154 0)
(1.0132627 0.0037606172 0)
(1.0155684 0.0024746051 0)
(1.0164143 0.0033779111 0)
(1.0156233 0.0042712036 0)
(1.0143883 0.004634916 0)
(1.013168 0.0042627723 0)
(1.0123446 0.003515568 0)
(1.0118851 0.0027525144 0)
(1.0115974 0.0020900875 0)
(1.0113717 0.0015409605 0)
(1.0111759 0.0011183911 0)
(1.010998 0.00081535563 0)
(1.0108287 0.00060992332 0)
(1.0106597 0.00047477375 0)
(1.0104843 0.00037465011 0)
(1.0103092 0.0002862467 0)
(1.010148 0.00018447384 0)
(1.0100264 6.3185648e-05 0)
(1.0013421 0.0057775996 0)
(1.0049861 0.012552082 0)
(1.003157 0.0089496311 0)
(1.0057044 -0.0039254953 0)
(1.0219332 -0.010275959 0)
(1.0319567 -0.0017016555 0)
(1.0279977 0.011932134 0)
(1.0164257 0.015016744 0)
(1.0104638 0.0094251469 0)
(1.0117873 0.0032755795 0)
(1.0155302 0.0014507304 0)
(1.0173638 0.0028664502 0)
(1.0165868 0.0045272844 0)
(1.0149335 0.0052680565 0)
(1.0133876 0.0049919108 0)
(1.01235 0.0040739215 0)
(1.0118489 0.0031239185 0)
(1.0115972 0.0023419089 0)
(1.0114144 0.0017275754 0)
(1.0112474 0.0012605916 0)
(1.011091 0.00091992802 0)
(1.0109425 0.00068392375 0)
(1.0107928 0.00053115516 0)
(1.0106321 0.00043188475 0)
(1.0104564 0.00035399617 0)
(1.0102769 0.00027820517 0)
(1.0101092 0.00017809636 0)
(1.0099861 6.0083646e-05 0)
(0.98851859 0.0056439141 0)
(0.98786662 0.016262196 0)
(0.98969865 0.011798156 0)
(1.0025057 -0.0078756618 0)
(1.0231755 -0.014177093 0)
(1.0349765 -0.0018486883 0)
(1.0299639 0.01416335 0)
(1.0155384 0.01869362 0)
(1.0075383 0.011135399 0)
(1.0096048 0.002601291 0)
(1.0153167 -0.00021937544 0)
(1.0185859 0.0020103704 0)
(1.0179369 0.0047198561 0)
(1.0157065 0.0060652035 0)
(1.0135735 0.0059051855 0)
(1.0122692 0.0047800355 0)
(1.0117051 0.0035447506 0)
(1.0115221 0.0025949672 0)
(1.0114115 0.0019064568 0)
(1.011288 0.0014009208 0)
(1.0111566 0.0010264011 0)
(1.0110309 0.00075634173 0)
(1.0109072 0.00057670775 0)
(1.010772 0.00046664026 0)
(1.0106144 0.00039538597 0)
(1.0104356 0.00033652208 0)
(1.0102481 0.0002659265 0)
(1.0100741 0.00016880932 0)
(1.0099496 5.642152e-05 0)
(0.97457879 0.0082444329 0)
(0.97311065 0.017803253 0)
(0.97450362 0.010579654 0)
(0.99444264 -0.0081898028 0)
(1.023318 -0.018317092 0)
(1.0397036 -0.0047676164 0)
(1.0312551 0.018199291 0)
(1.0132752 0.023433959 0)
(1.003407 0.013248877 0)
(1.0066117 0.0014926024 0)
(1.0148628 -0.002461013 0)
(1.0201458 0.00052913491 0)
(1.0198111 0.0048785602 0)
(1.0167938 0.0070882831 0)
(1.013786 0.0070925662 0)
(1.0120391 0.0056645809 0)
(1.0114137 0.0040332151 0)
(1.0113405 0.002838614 0)
(1.0113515 0.0020603786 0)
(1.011297 0.0015292452 0)
(1.0111959 0.0011335356 0)
(1.0110903 0.0008316777 0)
(1.0109926 0.00061812801 0)
(1.0108905 0.00048493666 0)
(1.010765 0.00040894097 0)
(1.0106063 0.00036089466 0)
(1.010421 0.00031649578 0)
(1.0102229 0.00024763107 0)
(1.0100432 0.00015730935 0)
(1.0099169 5.2678156e-05 0)
(0.95863051 0.0090805613 -1.0385047e-24)
(0.95699383 0.020216051 0)
(0.9609236 0.012304462 0)
(0.98575068 -0.014489792 0)
(1.0227448 -0.023457025 0)
(1.0427401 -0.005253096 0)
(1.0351744 0.020998087 0)
(1.0098017 0.028943193 0)
(0.99776625 0.01595343 0)
(1.0024701 4.2152772e-05 0)
(1.0141915 -0.0057557987 0)
(1.0221532 -0.0015006868 0)
(1.0223331 0.0048269827 0)
(1.0183242 0.0084501605 0)
(1.0140417 0.0086789032 0)
(1.0115937 0.006798269 0)
(1.0109115 0.004607702 0)
(1.0110065 0.0030517472 0)
(1.0112186 0.0021621962 0)
(1.011277 0.0016259665 0)
(1.0112158 0.0012352177 0)
(1.0111235 0.00091327162 0)
(1.0110447 0.00066283275 0)
(1.0109756 0.00049502862 0)
(1.0108914 0.00040047672 0)
(1.0107703 0.00035370179 0)
(1.010607 0.00032569921 0)
(1.0104117 0.0002903032 0)
(1.0102027 0.00022635194 0)
(1.0100165 0.00014568393 0)
(1.0098877 4.9513908e-05 0)
(0.94037428 0.011344644 1.4661903e-24)
(0.93966537 0.022416927 1.083992e-24)
(0.94657817 0.010276575 0)
(0.97589869 -0.017871035 0)
(1.0201806 -0.028529443 0)
(1.0430728 -0.011008066 0)
(1.0428989 0.027593935 0)
(1.0079596 0.035065697 0)
(0.99046769 0.018755868 0)
(0.99718424 -0.002033626 0)
(1.0131316 -0.0098997204 0)
(1.0247063 -0.0045652714 0)
(1.0257255 0.0047371939 0)
(1.0204082 0.01018141 0)
(1.0143731 0.010834353 0)
(1.0108711 0.0082807437 0)
(1.0100773 0.0052811061 0)
(1.0104659 0.0032107718 0)
(1.0109908 0.0021685603 0)
(1.0112338 0.0016594686 0)
(1.011232 0.001317548 0)
(1.0111422 0.0010025404 0)
(1.0110654 0.00071942596 0)
(1.0110203 0.00050690824 0)
(1.0109793 0.00037861095 0)
(1.0109079 0.00031843715 0)
(1.010787 0.00029656563 0)
(1.0106161 0.00028454629 0)
(1.0104072 0.00025716982 0)
(1.0101872 0.00020582257 0)
(1.0099933 0.00013593099 0)
(1.0098611 4.7518047e-05 0)
(0.92044776 0.013071642 -1.4719744e-24)
(0.9203887 0.024940294 -3.6031658e-25)
(0.92921568 0.010686171 0)
(0.96582032 -0.023980644 0)
(1.0130066 -0.034004474 0)
(1.0402351 -0.010273741 0)
(1.0430199 0.030409461 0)
(1.0114383 0.04363456 0)
(0.98288307 0.022341612 0)
(0.9903051 -0.0049327855 0)
(1.0119024 -0.015599027 0)
(1.0278706 -0.008406949 0)
(1.0301142 0.0041987488 0)
(1.0232423 0.012504965 0)
(1.0147762 0.013721551 0)
(1.0097755 0.010277221 0)
(1.0087797 0.0060592361 0)
(1.0096288 0.0032844212 0)
(1.0106364 0.0020154638 0)
(1.0111777 0.0015802151 0)
(1.0112703 0.0013580884 0)
(1.0111678 0.0010976495 0)
(1.0110653 0.00079792323 0)
(1.0110231 0.00053426841 0)
(1.0110185 0.00035486533 0)
(1.0110028 0.00026236196 0)
(1.0109402 0.00023142073 0)
(1.0108163 0.00023240337 0)
(1.0106329 0.00023714883 0)
(1.0104083 0.00022387303 0)
(1.0101759 0.0001883638 0)
(1.0099729 0.00012954607 0)
(1.0098362 4.7100013e-05 0)
(0.90012686 0.015032435 0)
(0.90032929 0.02747492 3.6089106e-25)
(0.91051592 0.0095470735 0)
(0.95107818 -0.029035451 0)
(1.0040257 -0.037848003 0)
(1.0312435 -0.013147574 0)
(1.0275174 0.037492883 0)
(1.0041288 0.053140504 0)
(0.97388904 0.02675955 0)
(0.98226342 -0.0082277688 0)
(1.0100493 -0.022376303 0)
(1.0318117 -0.013792512 0)
(1.0357831 0.0036613158 0)
(1.0269208 0.015375392 0)
(1.0153036 0.01758291 0)
(1.0081852 0.012910475 0)
(1.0068599 0.0070227696 0)
(1.0083677 0.0031862976 0)
(1.0101169 0.0016319711 0)
(1.0111168 0.0013261564 0)
(1.0113507 0.0013133536 0)
(1.0112316 0.0011920898 0)
(1.0110645 0.00091261146 0)
(1.0109888 0.00059586016 0)
(1.0110018 0.0003459005 0)
(1.0110408 0.00019744769 0)
(1.0110478 0.00013714657 0)
(1.0109899 0.0001361923 0)
(1.0108566 0.00016379811 0)
(1.0106563 0.0001891186 0)
(1.0104143 0.00019506427 0)
(1.0101677 0.000176315 0)
(1.0099541 0.00012766068 0)
(1.0098121 4.8484607e-05 0)
(0.87968478 0.016889248 1.7177267e-25)
(0.88070401 0.029928721 0)
(0.89123034 0.0090083144 -3.2647499e-23)
(0.93388982 -0.034549775 0)
(0.99089706 -0.043444765 0)
(1.0198528 -0.010482782 0)
(1.0088746 0.043714048 0)
(0.97900452 0.063176678 0)
(0.96013712 0.033953601 0)
(0.97167866 -0.013044855 0)
(1.0079222 -0.031126198 0)
(1.0363404 -0.020010655 0)
(1.0426861 0.0023555882 0)
(1.0316942 0.019211526 0)
(1.0158712 0.022653768 0)
(1.005927 0.016424461 0)
(1.0041271 0.0081596806 0)
(1.0065335 0.002880557 0)
(1.0093699 0.00088537723 0)
(1.0110681 0.00079357436 0)
(1.0115518 0.001166917 0)
(1.0113627 0.0012781165 0)
(1.011094 0.0010772093 0)
(1.010931 0.00071726291 0)
(1.0109263 0.00037476122 0)
(1.0110088 0.00014059267 0)
(1.0110921 2.3923939e-05 0)
(1.011117 1.5404615e-06 0)
(1.0110549 3.7643319e-05 0)
(1.0109061 9.5460669e-05 0)
(1.0106858 0.00014631261 0)
(1.0104246 0.00017360317 0)
(1.0101617 0.00017172392 0)
(1.0099365 0.00013083835 0)
(1.0097878 5.1792822e-05 0)
(0.86012716 0.018505229 -1.0018485e-23)
(0.86197505 0.032235459 4.1958814e-24)
(0.87244905 0.0080345659 3.2642868e-23)
(0.91525142 -0.040348109 5.1461453e-23)
(0.9741615 -0.048459763 -8.7781051e-23)
(1.0058431 -0.011507379 0)
(0.99263733 0.053738184 0)
(0.9573747 0.071807998 0)
(0.94201779 0.038712999 0)
(0.95901231 -0.017280081 0)
(1.0044222 -0.04094522 0)
(1.0414316 -0.028224967 0)
(1.0507785 0.0011542915 0)
(1.0373824 0.02380277 0)
(1.0165369 0.029212236 0)
(1.0027949 0.020988648 0)
(1.0003125 0.0096087144 0)
(1.0039478 0.0022118029 0)
(1.0083249 -0.00033072409 0)
(1.0110517 -0.00015274134 0)
(1.0119361 0.00080498095 0)
(1.0116719 0.0013452741 0)
(1.0112081 0.0013100971 0)
(1.0108733 0.00092705839 0)
(1.0107944 0.00047274147 0)
(1.0108955 0.00011594738 0)
(1.0110537 -9.2573134e-05 0)
(1.0111762 -0.00016436986 0)
(1.0112088 -0.00013767854 0)
(1.0111344 -5.9022229e-05 0)
(1.0109641 3.3871147e-05 0)
(1.0107198 0.00011402431 0)
(1.0104378 0.00016263783 0)
(1.0101579 0.00017438355 0)
(1.0099188 0.0001393562 0)
(1.0097623 5.6992465e-05 0)
(0.84261636 0.019783955 1.4281984e-23)
(0.84515842 0.034212527 -9.8891535e-24)
(0.85493641 0.0071744843 0)
(0.89581049 -0.04606698 -4.1655834e-24)
(0.954669 -0.053419294 8.7344466e-23)
(0.98923792 -0.012861187 1.6807385e-22)
(0.9751747 0.06171161 8.6116082e-23)
(0.93899214 0.079733409 0)
(0.92475316 0.04368393 0)
(0.94708801 -0.024338862 0)
(1.0002874 -0.053391622 0)
(1.0471736 -0.03683626 0)
(1.0598543 -0.0010601268 0)
(1.0437402 0.029983049 0)
(1.0167819 0.037598052 0)
(0.99852003 0.026863951 0)
(0.99514462 0.011311431 0)
(1.0004019 0.0011814993 0)
(1.0068787 -0.0022558223 0)
(1.0110876 -0.0016427821 0)
(1.0125857 0.00012831299 0)
(1.0122816 0.00137211 0)
(1.0114531 0.0015995342 0)
(1.0108659 0.0012736312 0)
(1.0106141 0.00068041344 0)
(1.0106902 0.00015518531 0)
(1.0109138 -0.00019132097 0)
(1.011144 -0.00034995188 0)
(1.0112926 -0.0003580869 0)
(1.0113213 -0.00027349299 0)
(1.0112269 -0.0001465885 0)
(1.0110285 -1.4127738e-05 0)
(1.0107574 9.5253995e-05 0)
(1.0104504 0.00016363278 0)
(1.0101529 0.00018668419 0)
(1.0098998 0.00015339029 0)
(1.0097348 6.3904738e-05 0)
(0.82836385 0.020794572 -7.6980581e-25)
(0.83101935 0.035800733 1.5084664e-24)
(0.83945284 0.0062188907 -2.2880694e-23)
(0.87672742 -0.051423987 -2.8005169e-23)
(0.93361451 -0.058716665 -4.8839669e-23)
(0.96904794 -0.01279332 2.0072129e-22)
(0.95812627 0.067767396 1.9346312e-22)
(0.92037697 0.089365919 -2.8304397e-23)
(0.90794885 0.043219531 0)
(0.93460574 -0.03114485 0)
(0.99703839 -0.067469933 0)
(1.0547461 -0.049488543 0)
(1.0718234 -0.0024735478 0)
(1.0504818 0.037263661 0)
(1.0159617 0.048070918 0)
(0.99261751 0.034346034 0)
(0.98821625 0.01342549 0)
(0.99566819 -0.00050060782 0)
(1.0049421 -0.0049731385 0)
(1.0111895 -0.0039253946 0)
(1.0136052 -0.00096995777 0)
(1.0132981 0.0012920461 0)
(1.0119801 0.00204474 0)
(1.0109238 0.0017747993 0)
(1.0104151 0.0010617639 0)
(1.0103841 0.00030424682 0)
(1.0106505 -0.00024356513 0)
(1.0109954 -0.00053884699 0)
(1.0112814 -0.00061719528 0)
(1.0114397 -0.00054803506 0)
(1.011452 -0.0003974832 0)
(1.0113288 -0.00021727386 0)
(1.011098 -4.4822544e-05 0)
(1.0107962 9.228588e-05 0)
(1.0104648 0.00017878485 0)
(1.0101467 0.00020878167 0)
(1.0098789 0.00017252956 0)
(1.0097049 7.2232524e-05 0)
(0.81742888 0.021384106 -4.1538749e-24)
(0.82022368 0.03692592 6.7276464e-25)
(0.82701578 0.0053856952 0)
(0.85851439 -0.056354768 2.8580874e-23)
(0.91149908 -0.063525616 -7.6440172e-23)
(0.94785048 -0.013894838 0)
(0.93781408 0.076016436 -3.8261788e-22)
(0.9037336 0.097869686 -3.9564597e-22)
(0.88952313 0.049668451 0)
(0.92373155 -0.042066124 0)
(0.99313142 -0.082852315 0)
(1.062651 -0.060896666 0)
(1.0885522 -0.0072122492 0)
(1.0616145 0.046592781 0)
(1.0143599 0.060995516 0)
(0.98428553 0.043311807 0)
(0.97922919 0.01592953 0)
(0.98943169 -0.0028053078 0)
(1.0023994 -0.0088920162 0)
(1.0113814 -0.007112277 0)
(1.0151247 -0.0026984844 0)
(1.0148865 0.0010761189 0)
(1.0129291 0.0026455668 0)
(1.0111395 0.0025436636 0)
(1.0101947 0.0016728723 0)
(1.0099723 0.00061820668 0)
(1.0102406 -0.00020964845 0)
(1.0107013 -0.00070932885 0)
(1.0111468 -0.00090476119 0)
(1.0114645 -0.00088015707 0)
(1.0116142 -0.00072256269 0)
(1.0115973 -0.00050046917 0)
(1.0114377 -0.00026602556 0)
(1.0111697 -5.5523192e-05 0)
(1.0108344 0.00010592426 0)
(1.0104773 0.00020725889 0)
(1.0101383 0.00023938002 0)
(1.0098554 0.00019607779 0)
(1.0096721 8.1643363e-05 0)
(0.81118933 0.021513052 0)
(0.81361256 0.037562662 0)
(0.81798417 0.004457569 -6.9709977e-25)
(0.8429458 -0.060520815 0)
(0.88890382 -0.068013266 -7.5893642e-25)
(0.92482793 -0.014428893 2.1141173e-22)
(0.9179903 0.082962367 6.8787307e-22)
(0.88561289 0.10716396 -3.9582976e-23)
(0.87298852 0.055570476 0)
(0.90686614 -0.049720816 0)
(0.98992081 -0.097903284 0)
(1.0650207 -0.077424874 0)
(1.0974232 -0.010287599 0)
(1.0795619 0.055794268 0)
(1.0175111 0.07592879 0)
(0.97388287 0.05422604 0)
(0.96749028 0.018666881 0)
(0.9815528 -0.0061160453 0)
(0.999113 -0.013992891 0)
(1.0116788 -0.01164442 0)
(1.0172776 -0.0051374233 0)
(1.0172413 0.00058920879 0)
(1.0144743 0.0034633501 0)
(1.0116426 0.0036831859 0)
(1.0099588 0.0026031423 0)
(1.0094518 0.0011881788 0)
(1.0096508 -4.8416064e-05 0)
(1.010227 -0.000838112 0)
(1.0108561 -0.0012101184 0)
(1.0113665 -0.0012669427 0)
(1.0116883 -0.0011230744 0)
(1.0118108 -0.00086997358 0)
(1.0117535 -0.0005756693 0)
(1.0115505 -0.00028956404 0)
(1.0112416 -4.5090104e-05 0)
(1.0108721 0.00013744 0)
(1.0104872 0.00024773099 0)
(1.0101267 0.00027767238 0)
(1.0098287 0.0002232503 0)
(1.0096361 9.1759892e-05 0)
(0.81143744 0.037718859 -6.1247826e-25)
(0.81031224 0.021297245 0)
(0.81288327 0.0037840909 -9.3402076e-24)
(0.83049196 -0.063893297 1.1416339e-24)
(0.86776233 -0.071830059 -4.3161953e-23)
(0.90121309 -0.015042246 -5.381157e-24)
(0.89669787 0.090120096 3.2791644e-24)
(0.86845471 0.11596883 -2.3589913e-22)
(0.85631187 0.062181545 -3.0841849e-23)
(0.88953204 -0.054038817 0)
(0.97796116 -0.11465001 -5.2652553e-22)
(1.0639831 -0.085418983 0)
(1.098105 -0.019996012 0)
(1.096907 0.068324871 0)
(1.0260878 0.093457363 0)
(0.96503753 0.066953643 0)
(0.9528182 0.021858313 0)
(0.97153486 -0.010561309 0)
(0.99508141 -0.020882077 0)
(1.0120886 -0.01746057 0)
(1.0202217 -0.0087025542 0)
(1.0206014 -0.00015294189 0)
(1.0168118 0.0044786017 0)
(1.0125668 0.0053342719 0)
(1.0097816 0.0040096725 0)
(1.0087495 0.0020693552 0)
(1.0088579 0.00032367021 0)
(1.0095282 -0.00088606373 0)
(1.0103693 -0.0015217505 0)
(1.0111132 -0.00170754 0)
(1.0116469 -0.0016022676 0)
(1.011945 -0.001330437 0)
(1.0120235 -0.00098163503 0)
(1.0119161 -0.00061879998 0)
(1.0116643 -0.00028636497 0)
(1.0113118 -1.3019335e-05 0)
(1.010907 0.00018577555 0)
(1.0104938 0.00029894187 0)
(1.0101117 0.000321684 0)
(1.0097988 0.00025275936 0)
(1.0095971 0.00010224335 0)
(0.81145952 0.0034131214 8.3901611e-24)
(0.81477375 0.037602615 0)
(0.81556698 0.020599747 9.1629764e-25)
(0.8196315 -0.066295245 -1.1407825e-24)
(0.84917757 -0.074738808 2.0692837e-23)
(0.87818491 -0.015642402 3.5795171e-22)
(0.87604248 0.096498635 -6.2532647e-22)
(0.85178721 0.12426638 -1.1078058e-22)
(0.84102907 0.068587531 -5.5192062e-23)
(0.87190184 -0.059738151 2.2998962e-23)
(0.9606772 -0.12909946 -5.6943956e-22)
(1.05445 -0.10268571 5.4849665e-22)
(1.0951827 -0.018805265 0)
(1.0944617 0.077913458 0)
(1.0301311 0.11645576 0)
(0.95725858 0.08356113 0)
(0.9355927 0.024917823 0)
(0.95952862 -0.016303313 0)
(0.99000652 -0.0294068 0)
(1.0126925 -0.025292925 0)
(1.0240837 -0.013290294 0)
(1.0252184 -0.0014726034 0)
(1.0202269 0.0058460558 0)
(1.01405 0.007621665 0)
(1.0097191 0.0060825608 0)
(1.0078413 0.0034084244 0)
(1.0077793 0.000968035 0)
(1.0085446 -0.00083029331 0)
(1.0096378 -0.0018241665 0)
(1.0106657 -0.0022016632 0)
(1.0114602 -0.0021665442 0)
(1.0119756 -0.0018896336 0)
(1.0122256 -0.0014913026 0)
(1.0122462 -0.0010524525 0)
(1.0120811 -0.00062802808 0)
(1.0117764 -0.00025612709 0)
(1.0113791 4.0403597e-05 0)
(1.0109379 0.00024842012 0)
(1.0104963 0.00035903071 0)
(1.0100928 0.00036984444 0)
(1.0097654 0.00028390875 0)
(1.0095551 0.0001128328 0)
(0.81310572 -0.067511602 4.9448743e-24)
(0.81637543 0.0032587709 2.3825952e-23)
(0.82461628 0.03697155 0)
(0.82458356 0.019465194 2.2872942e-25)
(0.83134615 -0.076933167 -1.3169907e-23)
(0.85716584 -0.015974467 -1.5683214e-22)
(0.85669342 0.10198953 0)
(0.83697791 0.13152357 1.1001517e-22)
(0.82796247 0.074820599 -5.316689e-23)
(0.85482238 -0.065223181 -2.2708711e-23)
(0.94161259 -0.14410465 6.1747347e-22)
(1.0383732 -0.12040124 5.9191145e-22)
(1.085299 -0.024713357 0)
(1.0727225 0.092349365 0)
(1.0134794 0.13939302 0)
(0.94412711 0.10382414 0)
(0.91727939 0.030331146 0)
(0.94433815 -0.024226195 0)
(0.98431475 -0.040258304 0)
(1.0133472 -0.034697608 0)
(1.0290386 -0.019696739 0)
(1.0313934 -0.0031558492 0)
(1.0249744 0.0074083026 0)
(1.0163196 0.01077497 0)
(1.0098041 0.0090241602 0)
(1.0067102 0.005399218 0)
(1.0062853 0.0019483583 0)
(1.0072042 -0.00058178512 0)
(1.0085906 -0.0021155836 0)
(1.0099784 -0.0027626601 0)
(1.0110962 -0.0028291865 0)
(1.0118782 -0.0025597958 0)
(1.012339 -0.002115353 0)
(1.0125211 -0.0015997831 0)
(1.0124733 -0.0010805422 0)
(1.0122448 -0.00060336483 0)
(1.0118847 -0.00019958719 0)
(1.0114419 0.0001131638 0)
(1.010964 0.00032316464 0)
(1.0104942 0.00042566073 0)
(1.0100698 0.00042131904 0)
(1.0097286 0.00031580265 0)
(1.0095104 0.00012327529 0)
(0.81878959 -0.07809136 -9.9113558e-24)
(0.81340291 -0.067635389 -6.2027268e-24)
(0.8271554 0.0034219764 -2.1222481e-23)
(0.83822622 0.035816445 -1.0568589e-23)
(0.8365995 0.017945987 1.2440851e-24)
(0.83779515 -0.016334848 1.4882971e-22)
(0.840072 0.10644041 8.5857432e-23)
(0.8248773 0.13755936 0)
(0.81770957 0.080274792 5.2173941e-23)
(0.83923203 -0.070380765 3.6287252e-23)
(0.92122779 -0.15956722 0)
(1.0193985 -0.13630327 -8.3378564e-22)
(1.0712455 -0.040248251 0)
(1.0550126 0.10670937 0)
(0.98776662 0.16094743 0)
(0.92749963 0.12511842 0)
(0.89910945 0.036032036 0)
(0.92713572 -0.032664335 0)
(0.97716406 -0.053217775 0)
(1.0143546 -0.04682077 0)
(1.0350831 -0.027328215 0)
(1.0393612 -0.0059745578 0)
(1.0314801 0.0095667308 0)
(1.0195358 0.01493427 0)
(1.010119 0.013119136 0)
(1.0052896 0.0082362739 0)
(1.0042818 0.0034143422 0)
(1.0053658 -0.00014148929 0)
(1.0071394 -0.0023718174 0)
(1.0089846 -0.0033884974 0)
(1.0105145 -0.0036092961 0)
(1.011628 -0.0033599817 0)
(1.012345 -0.0028687209 0)
(1.0127235 -0.0022726678 0)
(1.0128234 -0.0016541071 0)
(1.0126998 -0.0010663138 0)
(1.0124044 -0.00054616508 0)
(1.0119877 -0.00011873123 0)
(1.0114987 0.00020208954 0)
(1.0109845 0.00040744905 0)
(1.0104872 0.00049693982 0)
(1.0100429 0.00047382661 0)
(1.0096889 0.00034747973 0)
(1.0094632 0.0001334277 0)
(0.82261316 -0.01680362 6.7411116e-24)
(0.8118163 -0.078089996 8.7253488e-24)
(0.81897686 -0.066778447 3.7251512e-23)
(0.84250571 0.0037681475 1.0949435e-23)
(0.85374315 0.034238551 -3.3354966e-23)
(0.85196869 0.016183296 1.1810393e-24)
(0.8270635 0.10964268 -1.6119701e-22)
(0.81666141 0.14232799 -7.0697711e-23)
(0.81095202 0.085017712 -1.5600693e-22)
(0.82663984 -0.074993453 -5.3048978e-23)
(0.89995138 -0.17443328 -7.8243904e-22)
(0.99672516 -0.15361943 6.0743363e-22)
(1.0542044 -0.049472118 0)
(1.0463796 0.10622359 -1.4994609e-21)
(0.96769177 0.18227828 1.0025536e-21)
(0.91264924 0.138912 0)
(0.88322201 0.045380238 0)
(0.90879989 -0.044671714 0)
(0.9692067 -0.068995051 0)
(1.0153483 -0.060402385 0)
(1.0424147 -0.03767662 0)
(1.0494278 -0.0091710821 0)
(1.0399507 0.011755633 0)
(1.0240595 0.02049377 0)
(1.0106642 0.018653144 0)
(1.0034841 0.012200391 0)
(1.0016372 0.0055050075 0)
(1.0028598 0.00053908856 0)
(1.005176 -0.0025823282 0)
(1.0076087 -0.0041361384 0)
(1.0096711 -0.0045441032 0)
(1.0111989 -0.0043187787 0)
(1.0122275 -0.0037727224 0)
(1.0128401 -0.0030863116 0)
(1.0131174 -0.0023604741 0)
(1.0131258 -0.0016554126 0)
(1.0129216 -0.0010117642 0)
(1.0125573 -0.00045895854 0)
(1.0120836 -1.686531e-05 0)