/*--------------------------------*- C++ -*----------------------------------*\
| =========                 |                                                 |
| \\      /  F ield         | OpenFOAM: The Open Source CFD Toolbox           |
|  \\    /   O peration     | Version:  5.0                                   |
|   \\  /    A nd           | Web:      www.OpenFOAM.org                      |
|    \\/     M anipulation  |                                                 |
\*---------------------------------------------------------------------------*/
FoamFile
{
    version     2.0;
    format      ascii;
    class       volVectorField;
    location    "340";
    object      U_0;
}
// * * * * * * * * * * * * * * * * * * * * * * * * * * * * * * * * * * * * * //

dimensions      [0 1 -1 0 0 0 0];

internalField   nonuniform List<vector> 
9520
(
(1.0143757 0.00016666024 0)
(1.0144735 0.00048824253 0)
(1.0138803 0.00016454105 0)
(1.0146459 0.00078672543 0)
(1.0139804 0.00048325566 0)
(1.0136907 0.000162305 0)
(1.0148766 0.001061611 0)
(1.0141581 0.00078055055 0)
(1.0137903 0.00047651194 0)
(1.0133849 0.00016353169 0)
(1.0151512 0.0013123033 0)
(1.014398 0.0010557407 0)
(1.0139683 0.00077022092 0)
(1.0134846 0.00047905506 0)
(1.0131479 0.00016896422 0)
(1.015457 0.0015385504 0)
(1.0146863 0.0013087294 0)
(1.0142099 0.0010429797 0)
(1.0136633 0.00077415561 0)
(1.0132484 0.00049437768 0)
(1.0128758 0.00017528471 0)
(1.0157829 0.0017403353 0)
(1.0150103 0.0015385624 0)
(1.0145017 0.0012963075 0)
(1.0139054 0.001049165 0)
(1.0134278 0.00079890666 0)
(1.0129763 0.00051388363 0)
(1.0126233 0.0001778102 0)
(1.0161191 0.0019169893 0)
(1.0153597 0.0017452496 0)
(1.0148312 0.0015288103 0)
(1.0141986 0.0013068776 0)
(1.0136702 0.001083728 0)
(1.0131546 0.00083233936 0)
(1.0127229 0.00052353804 0)
(1.0123686 0.00017504797 0)
(1.0164581 0.0020674451 0)
(1.0157265 0.0019289317 0)
(1.0151879 0.0017400223 0)
(1.0145322 0.0015466579 0)
(1.0139639 0.0013512126 0)
(1.0133953 0.0011325822 0)
(1.0128989 0.00085140272 0)
(1.0124644 0.00051757295 0)
(1.012135 0.00016847175 0)
(1.0167945 0.0021896743 0)
(1.0161055 0.0020896972 0)
(1.015563 0.0019299001 0)
(1.0148957 0.0017681968 0)
(1.0142993 0.0016021184 0)
(1.0136863 0.0014157075 0)
(1.0131369 0.0011638199 0)
(1.0126342 0.00084520785 0)
(1.0122262 0.00049901395 0)
(1.0119181 0.00016143195 0)
(1.0171273 0.0022764443 0)
(1.0164956 0.0022284344 0)
(1.0159485 0.0020992693 0)
(1.0152789 0.0019709779 0)
(1.0146666 0.0018369056 0)
(1.0140185 0.0016840241 0)
(1.0134247 0.0014608896 0)
(1.0128652 0.0011609956 0)
(1.0123888 0.00081691753 0)
(1.0120044 0.0004776221 0)
(1.0117181 0.00015669602 0)
(1.0174627 0.0023342594 0)
(1.0169023 0.0023493569 0)
(1.0163386 0.0022535153 0)
(1.0156707 0.0021552686 0)
(1.0150556 0.0020551234 0)
(1.0143828 0.0019390622 0)
(1.0137525 0.001745257 0)
(1.0131447 0.0014660696 0)
(1.0126107 0.0011253409 0)
(1.0121591 0.00078254065 0)
(1.0118001 0.00046211591 0)
(1.0115295 0.0001548948 0)
(1.0177985 0.002358286 0)
(1.0173311 0.0024572759 0)
(1.0167262 0.0024006302 0)
(1.0160585 0.0023239042 0)
(1.0154556 0.0022559858 0)
(1.0147716 0.0021809282 0)
(1.014112 0.0020192093 0)
(1.0134614 0.0017621711 0)
(1.0128806 0.0014285499 0)
(1.0123689 0.0010791283 0)
(1.0119473 0.00075661481 0)
(1.0116082 0.00045536001 0)
(1.0113487 0.00015447934 0)
(1.0181021 0.0023725419 0)
(1.0177144 0.0025588712 0)
(1.0170589 0.0025597007 0)
(1.0164217 0.0024782239 0)
(1.0158541 0.0024363922 0)
(1.0151799 0.0024077399 0)
(1.0144971 0.0022841423 0)
(1.0138069 0.0020516628 0)
(1.0131859 0.0017269176 0)
(1.0126232 0.0013735149 0)
(1.0121462 0.001044108 0)
(1.011748 0.00074443636 0)
(1.0114247 0.00045367591 0)
(1.0111747 0.00015291599 0)
(1.0184092 0.0023467206 0)
(1.0180354 0.0027150438 0)
(1.0173132 0.0027449545 0)
(1.0167444 0.0026192322 0)
(1.0162384 0.0025875039 0)
(1.015606 0.0026129314 0)
(1.0149051 0.0025407573 0)
(1.0141744 0.002336921 0)
(1.013517 0.002021446 0)
(1.012912 0.0016666057 0)
(1.0123861 0.0013302602 0)
(1.0119355 0.0010275728 0)
(1.0115575 0.00074105682 0)
(1.0112483 0.00044980104 0)
(1.0110098 0.00014806037 0)
(1.0187232 0.0023667989 0)
(1.018342 0.0028496377 0)
(1.0175794 0.0029175659 0)
(1.017053 0.0027268976 0)
(1.0166328 0.0026961172 0)
(1.0160604 0.0027844049 0)
(1.0153376 0.0027888031 0)
(1.0145599 0.0026213551 0)
(1.0138658 0.0023136193 0)
(1.0132259 0.0019584867 0)
(1.0126588 0.0016169295 0)
(1.0121606 0.0013096081 0)
(1.0117341 0.0010223988 0)
(1.0113747 0.00073523844 0)
(1.0110803 0.00043692387 0)
(1.0108576 0.00013902127 0)
(1.0190698 0.0022672333 0)
(1.0186437 0.0030868777 0)
(1.0177661 0.0030648672 0)
(1.0173829 0.002784734 0)
(1.0170535 0.0027224215 0)
(1.0165525 0.002917096 0)
(1.0158003 0.0030329336 0)
(1.0149618 0.0029120139 0)
(1.0142225 0.0026062034 0)
(1.0135559 0.0022488438 0)
(1.0129561 0.0019048415 0)
(1.0124159 0.0015932825 0)
(1.0119449 0.0013029061 0)
(1.011541 0.0010137383 0)
(1.0112008 0.00071553127 0)
(1.0109247 0.00041163873 0)
(1.010722 0.00012642545 0)
(1.0193939 0.0024275165 0)
(1.0189199 0.0032438867 0)
(1.0178938 0.0032146975 0)
(1.0176354 0.0027817713 0)
(1.0174727 0.0027031091 0)
(1.0170793 0.002988098 0)
(1.0163091 0.0032730305 0)
(1.0153773 0.0032192474 0)
(1.0145758 0.0029048797 0)
(1.0138922 0.0025370118 0)
(1.0132699 0.0021931335 0)
(1.0126939 0.0018809406 0)
(1.0121822 0.0015860574 0)
(1.0117374 0.0012910488 0)
(1.0113577 0.00098733077 0)
(1.0110389 0.00067519518 0)
(1.0107856 0.0003751485 0)
(1.010605 0.00011211248 0)
(1.0198162 0.0020978046 0)
(1.0192314 0.0037274889 0)
(1.0178499 0.0034084949 0)
(1.0177652 0.0027594557 0)
(1.0179524 0.0026031134 0)
(1.017606 0.0030354663 0)
(1.0168507 0.0035273887 0)
(1.0157966 0.0035598001 0)
(1.0149158 0.0032168057 0)
(1.0142243 0.0028214681 0)
(1.0135926 0.0024791863 0)
(1.0129887 0.0021730599 0)
(1.012439 0.0018759838 0)
(1.0119555 0.0015720368 0)
(1.0115402 0.0012565493 0)
(1.0111876 0.00093422697 0)
(1.0108934 0.00061528647 0)
(1.0106656 0.00033260207 0)
(1.0105062 9.836693e-05 0)
(1.0200338 0.0026438654 0)
(1.0194127 0.0039125661 0)
(1.0176507 0.0036045802 0)
(1.0177389 0.0026492578 0)
(1.0183677 0.0023994744 0)
(1.0182349 0.003051311 0)
(1.0173947 0.0038037205 0)
(1.0162018 0.0039634167 0)
(1.01522 0.0035567239 0)
(1.0145351 0.0030987642 0)
(1.0139166 0.0027571645 0)
(1.0132964 0.0024680186 0)
(1.0127104 0.0021752699 0)
(1.0121876 0.0018621495 0)
(1.0117391 0.0015304725 0)
(1.0113574 0.0011898106 0)
(1.0110339 0.00085298914 0)
(1.010768 0.00054438451 0)
(1.0105648 0.00029076455 0)
(1.010423 8.7016612e-05 0)
(1.0203583 0.0018514295 0)
(1.019749 0.0048614259 0)
(1.0171692 0.0039976279 0)
(1.0175301 0.0024102262 0)
(1.0188411 0.0019855697 0)
(1.0190093 0.0030357396 0)
(1.0179967 0.0041102146 0)
(1.0165597 0.0044470165 0)
(1.015462 0.0039383148 0)
(1.014803 0.0033699867 0)
(1.0142321 0.0030177637 0)
(1.0136149 0.0027604666 0)
(1.0129948 0.002484944 0)
(1.0124291 0.0021662453 0)
(1.0119456 0.0018149226 0)
(1.0115376 0.0014501503 0)
(1.0111929 0.001089275 0)
(1.0109002 0.00075197823 0)
(1.0106641 0.00047406801 0)
(1.0104807 0.00025514008 0)
(1.010352 7.88552e-05 0)
(1.020084 0.0029796754 0)
(1.0196635 0.0050830959 0)
(1.0165399 0.0042423447 0)
(1.0170889 0.0021815219 0)
(1.0192758 0.001423165 0)
(1.0199948 0.0028927338 0)
(1.0187329 0.0045088586 0)
(1.0168766 0.005032208 0)
(1.0155827 0.0043757122 0)
(1.0149875 0.0036199005 0)
(1.0145257 0.0032477355 0)
(1.0139429 0.0030415231 0)
(1.0132943 0.0028040981 0)
(1.0126784 0.002488709 0)
(1.0121535 0.0021161677 0)
(1.0117186 0.0017207511 0)
(1.0113565 0.0013288402 0)
(1.0110488 0.00096035245 0)
(1.0107904 0.0006486172 0)
(1.0105795 0.00041326533 0)
(1.0104101 0.00022837374 0)
(1.0102898 7.3646558e-05 0)
(1.0198869 0.001624618 0)
(1.0198444 0.0065740565 0)
(1.0153561 0.0050445457 0)
(1.0163571 0.0014833015 0)
(1.0198026 0.00047601634 0)
(1.0212002 0.0027264724 0)
(1.0196304 0.0050073954 0)
(1.0171451 0.0057759592 0)
(1.0156009 0.0048710099 0)
(1.0150951 0.0038568297 0)
(1.0147684 0.0034103454 0)
(1.0142816 0.0032919498 0)
(1.0136176 0.0031287559 0)
(1.0129384 0.0028347959 0)
(1.0123587 0.0024408632 0)
(1.0118928 0.0020078535 0)
(1.0115154 0.0015765464 0)
(1.0111995 0.0011710676 0)
(1.0109304 0.00082311599 0)
(1.0107032 0.00055849416 0)
(1.0105103 0.00036580879 0)
(1.0103497 0.00021035903 0)
(1.0102334 7.0577926e-05 0)
(1.0190946 0.0033750918 0)
(1.0186812 0.0068129884 0)
(1.0143117 0.0053017629 0)
(1.0152002 0.0012565398 0)
(1.020146 -0.00070851909 0)
(1.0227277 0.0022329124 0)
(1.0207572 0.0057124791 0)
(1.0173506 0.0067531196 0)
(1.0153891 0.0054648669 0)
(1.0150363 0.0040167412 0)
(1.0150217 0.0035127766 0)
(1.0146474 0.0034828838 0)
(1.0139811 0.0034466246 0)
(1.0132194 0.0032096973 0)
(1.0125602 0.0027988078 0)
(1.0120524 0.0023182542 0)
(1.0116603 0.0018374278 0)
(1.0113414 0.0013871001 0)
(1.0110707 0.00099746429 0)
(1.0108381 0.00070001681 0)
(1.0106346 0.00048855292 0)
(1.0104526 0.00033141428 0)
(1.0102968 0.00019929496 0)
(1.010181 6.8727649e-05 0)
(1.0194258 0.0020275169 0)
(1.0165276 0.0088504127 0)
(1.0112322 0.0068897824 0)
(1.0136555 -0.00031590097 0)
(1.0208481 -0.0024191468 0)
(1.0245735 0.0018858616 0)
(1.0221272 0.0065657878 0)
(1.0174837 0.0080644574 0)
(1.0148944 0.0061682775 0)
(1.0147694 0.004108714 0)
(1.0152675 0.0034201701 0)
(1.0150731 0.0035696898 0)
(1.0144244 0.0037479215 0)
(1.013541 0.0036201107 0)
(1.012761 0.0032029797 0)
(1.0121904 0.0026618929 0)
(1.0117813 0.0021163723 0)
(1.0114646 0.0016113641 0)
(1.0111999 0.0011742667 0)
(1.0109721 0.00083871901 0)
(1.0107676 0.00060143729 0)
(1.01058 0.00043755196 0)
(1.0104036 0.00030810136 0)
(1.0102492 0.00019278838 0)
(1.0101319 6.7283652e-05 0)
(1.0185044 0.0040399664 0)
(1.0170874 0.0095561052 0)
(1.0079726 0.0067183155 0)
(1.0111965 -0.00034407553 0)
(1.0208945 -0.004522585 0)
(1.0269816 0.00072447727 0)
(1.023861 0.0078588259 0)
(1.0174713 0.0098002343 0)
(1.0140105 0.0070883544 0)
(1.0141963 0.0040478138 0)
(1.0154299 0.0031281838 0)
(1.0156405 0.0035381489 0)
(1.014957 0.0039862737 0)
(1.0139413 0.0040784998 0)
(1.0129695 0.0036752954 0)
(1.0122986 0.0030521483 0)
(1.0118672 0.0024192584 0)
(1.0115591 0.001846109 0)
(1.0113084 0.0013552958 0)
(1.0110932 0.00097691196 0)
(1.0108985 0.0007084974 0)
(1.010715 0.00052717909 0)
(1.0105362 0.00040039742 0)
(1.0103616 0.00029368293 0)
(1.010205 0.00018852803 0)
(1.0100854 6.5634866e-05 0)
(1.0135549 0.0026298425 0)
(1.0166396 0.012238071 0)
(1.0055584 0.0089476683 0)
(1.0084048 -0.0030778857 0)
(1.0217591 -0.0072161724 0)
(1.0294285 0.00019841846 0)
(1.0258476 0.0092052758 0)
(1.0173269 0.012064044 0)
(1.0126389 0.0081929745 0)
(1.0132067 0.0038761907 0)
(1.0154814 0.0024893251 0)
(1.0163793 0.0033375041 0)
(1.015627 0.0042230771 0)
(1.0144145 0.0045982665 0)
(1.0131987 0.0042472515 0)
(1.0123683 0.0035121744 0)
(1.0119028 0.0027530205 0)
(1.0116132 0.0020913676 0)
(1.0113876 0.0015409544 0)
(1.0111925 0.001116505 0)
(1.011015 0.00081235619 0)
(1.0108457 0.00060662193 0)
(1.0106765 0.00047193033 0)
(1.0105008 0.00037278244 0)
(1.0103251 0.00028519252 0)
(1.0101636 0.00018445209 0)
(1.0100416 6.342996e-05 0)
(1.0015591 0.0054954085 0)
(1.005496 0.012496678 0)
(1.0033879 0.0093235573 0)
(1.0053964 -0.003504717 0)
(1.0214328 -0.010348937 0)
(1.0319216 -0.0020824584 0)
(1.0282507 0.011582487 0)
(1.0167879 0.015022839 0)
(1.0105838 0.0096426911 0)
(1.0117018 0.0034480924 0)
(1.0153934 0.001477763 0)
(1.0172988 0.002805436 0)
(1.0165892 0.0044585357 0)
(1.0149687 0.0052154607 0)
(1.0134296 0.0049715512 0)
(1.0123804 0.0040732588 0)
(1.0118679 0.0031281569 0)
(1.0116121 0.0023450365 0)
(1.0114293 0.0017276689 0)
(1.0112636 0.0012579328 0)
(1.0111082 0.00091588447 0)
(1.0109602 0.00067961086 0)
(1.0108104 0.00052734305 0)
(1.0106493 0.00042919978 0)
(1.0104731 0.00035247135 0)
(1.0102931 0.00027793055 0)
(1.0101248 0.00017869136 0)
(1.0100011 6.0533931e-05 0)
(0.98878731 0.0053234019 0)
(0.98843633 0.01627841 0)
(0.98980817 0.012153258 0)
(1.0021119 -0.0073913039 0)
(1.0225197 -0.014206622 0)
(1.0349086 -0.0023321493 0)
(1.0302809 0.013682631 0)
(1.0160388 0.01871455 0)
(1.0076956 0.011442307 0)
(1.0094789 0.0028488918 0)
(1.0151118 -0.00017364202 0)
(1.0184766 0.0019205856 0)
(1.0179361 0.0046178216 0)
(1.0157567 0.005990892 0)
(1.0136322 0.0058783701 0)
(1.0123098 0.0047846965 0)
(1.0117262 0.0035557477 0)
(1.0115351 0.0026016122 0)
(1.0114243 0.0019071403 0)
(1.0113031 0.0013973185 0)
(1.0111738 0.0010209695 0)
(1.0110491 0.00075070737 0)
(1.0109256 0.00057174854 0)
(1.0107902 0.00046300326 0)
(1.0106321 0.00039334841 0)
(1.0104525 0.00033588662 0)
(1.0102643 0.00026677586 0)
(1.0100894 0.00017007522 0)
(1.0099642 5.7060979e-05 0)
(0.97490508 0.0079058105 0)
(0.97367143 0.017832117 0)
(0.97443467 0.011129058 0)
(0.99383317 -0.0075399308 0)
(1.0224792 -0.018476042 0)
(1.039565 -0.0054198704 0)
(1.0317379 0.017605186 0)
(1.0139335 0.023464932 0)
(1.0036156 0.013670326 0)
(1.0064317 0.0018440594 0)
(1.0145651 -0.0023898168 0)
(1.0199751 0.00040037497 0)
(1.0198041 0.0047271661 0)
(1.0168673 0.0069819206 0)
(1.0138722 0.0070572261 0)
(1.0120939 0.0056772212 0)
(1.0114385 0.0040558015 0)
(1.0113505 0.0028516367 0)
(1.0113604 0.0020625594 0)
(1.0113098 0.0015245261 0)
(1.0112124 0.0011262231 0)
(1.0111089 0.00082428366 0)
(1.0110119 0.00061172341 0)
(1.0109097 0.00048014611 0)
(1.0107837 0.00040611008 0)
(1.0106242 0.00035993833 0)
(1.010438 0.0003171805 0)
(1.0102391 0.00024960437 0)
(1.0100583 0.0001591494 0)
(1.0099311 5.3461926e-05 0)
(0.95898552 0.0087121651 -1.5732506e-24)
(0.95752561 0.020346453 0)
(0.96078548 0.012939935 0)
(0.9849001 -0.0137783 0)
(1.0218048 -0.023577487 0)
(1.0427426 -0.0060469536 0)
(1.0358178 0.020246033 0)
(1.0106309 0.029012882 0)
(0.99801495 0.016521687 0)
(1.0022167 0.00052294728 0)
(1.0137707 -0.0056488446 0)
(1.0218972 -0.0016811058 0)
(1.0223156 0.0046037577 0)
(1.0184318 0.0082983718 0)
(1.0141704 0.0086324815 0)
(1.0116719 0.0068239392 0)
(1.0109415 0.0046484259 0)
(1.0110115 0.0030755704 0)
(1.0112211 0.0021674618 0)
(1.0112855 0.0016199904 0)
(1.0112307 0.0012252691 0)
(1.0111421 0.00090343428 0)
(1.0110649 0.00065452517 0)
(1.0109959 0.00048878961 0)
(1.0109113 0.0003965403 0)
(1.0107895 0.00035209617 0)
(1.0106251 0.00032617748 0)
(1.0104287 0.00029251566 0)
(1.0102186 0.00022919559 0)
(1.0100311 0.00014794229 0)
(1.0099014 5.038716e-05 0)
(0.94075927 0.010956909 2.4214285e-24)
(0.94022191 0.022573292 1.6420698e-24)
(0.94637133 0.011058272 0)
(0.97490989 -0.017044119 0)
(1.0192604 -0.028783295 0)
(1.0431137 -0.01193352 0)
(1.0433975 0.026690885 0)
(1.0089929 0.035161943 0)
(0.99076516 0.019502059 0)
(0.99683042 -0.0013789113 0)
(1.0125507 -0.0097509076 0)
(1.0243396 -0.0048118525 0)
(1.0256918 0.0044160659 0)
(1.0205645 0.0099619122 0)
(1.0145649 0.010772947 0)
(1.0109852 0.0083275943 0)
(1.0101137 0.0053487144 0)
(1.0104636 0.0032524514 0)
(1.0109824 0.0021791817 0)
(1.0112347 0.0016519811 0)
(1.0112435 0.0013037744 0)
(1.0111604 0.00098918714 0)
(1.0110865 0.00070851782 0)
(1.011042 0.00049879687 0)
(1.0110007 0.00037327992 0)
(1.0109285 0.00031594488 0)
(1.0108064 0.00029670603 0)
(1.0106343 0.00028682475 0)
(1.0104241 0.00026082649 0)
(1.0102027 0.00020934271 0)
(1.0100075 0.00013846177 0)
(1.0098742 4.8429121e-05 0)
(0.92084405 0.012661386 -2.4309865e-24)
(0.92095574 0.025171322 -1.6306092e-24)
(0.9289821 0.011605232 0)
(0.96472404 -0.023150701 0)
(1.012089 -0.03431703 0)
(1.0402192 -0.011471173 0)
(1.0436604 0.029205103 0)
(1.012866 0.043769485 0)
(0.98329169 0.023280993 0)
(0.98982182 -0.004078052 0)
(1.0111182 -0.015393785 0)
(1.0273579 -0.0087390254 0)
(1.030058 0.0037451433 0)
(1.0234657 0.012194804 0)
(1.0150574 0.013639752 0)
(1.0099428 0.010355751 0)
(1.0088255 0.0061675762 0)
(1.0096145 0.0033529791 0)
(1.0106112 0.0020349147 0)
(1.0111665 0.0015710991 0)
(1.011276 0.0013385097 0)
(1.011185 0.0010789755 0)
(1.0110875 0.0007831767 0)
(1.0110465 0.0005235667 0)
(1.0110416 0.00034780078 0)
(1.011025 0.00025876119 0)
(1.0109612 0.00023102765 0)
(1.0108359 0.00023461688 0)
(1.0106511 0.0002411826 0)
(1.0104248 0.00022854094 0)
(1.0101909 0.00019236287 0)
(1.0099865 0.00013220954 0)
(1.0098488 4.8005538e-05 0)
(0.90051751 0.014603306 0)
(0.90088565 0.02776152 1.6331985e-24)
(0.91024478 0.010632975 0)
(0.94988271 -0.02810851 0)
(1.0031802 -0.038334187 0)
(1.0314719 -0.014535526 0)
(1.0289543 0.036132981 0)
(1.005981 0.053210995 0)
(0.97456573 0.027989234 0)
(0.98164339 -0.0071094394 0)
(1.009018 -0.022119869 0)
(1.031126 -0.014230433 0)
(1.035695 0.0030357565 0)
(1.0272352 0.01493298 0)
(1.0157104 0.01747447 0)
(1.0084279 0.013036068 0)
(1.0069198 0.0071912172 0)
(1.0083344 0.0032942974 0)
(1.0100663 0.0016658142 0)
(1.0110863 0.0013132564 0)
(1.0113499 0.0012853437 0)
(1.0112475 0.0011651413 0)
(1.0110882 0.00089184017 0)
(1.0110147 0.00058151384 0)
(1.0110272 0.0003366639 0)
(1.011065 0.00019255108 0)
(1.0110705 0.00013602589 0)
(1.0110111 0.00013816008 0)
(1.0108762 0.00016802426 0)
(1.0106742 0.00019458363 0)
(1.0104305 0.00020045759 0)
(1.0101822 0.00018054972 0)
(1.0099672 0.00013033635 0)
(1.0098243 4.9354184e-05 0)
(0.88006592 0.016446386 4.3772035e-25)
(0.88123526 0.030278833 0)
(0.89093047 0.010276562 -3.5374992e-23)
(0.93267307 -0.033589515 0)
(0.99005909 -0.044024162 0)
(1.0202116 -0.012145272 0)
(1.0105686 0.042066202 0)
(0.98086658 0.063383519 0)
(0.96090004 0.035510276 0)
(0.97089117 -0.011625659 0)
(1.006598 -0.030794639 0)
(1.0354409 -0.020582379 0)
(1.0425625 0.0014996941 0)
(1.0321301 0.018601707 0)
(1.0164478 0.02250893 0)
(1.0062753 0.016615226 0)
(1.0042069 0.0084150582 0)
(1.0064718 0.0030450811 0)
(1.009281 0.00094049491 0)
(1.0110081 0.00077706821 0)
(1.0115353 0.0011239706 0)
(1.0113745 0.0012373275 0)
(1.0111198 0.0010474284 0)
(1.0109606 0.00069776853 0)
(1.0109551 0.00036279775 0)
(1.0110355 0.00013422987 0)
(1.0111168 2.2031201e-05 0)
(1.01114 3.1217506e-06 0)
(1.0110762 4.1862754e-05 0)
(1.0109257 0.00010139224 0)
(1.0107034 0.00015271668 0)
(1.0104403 0.00017940513 0)
(1.0101757 0.00017601262 0)
(1.0099491 0.00013345246 0)
(1.0097994 5.2608181e-05 0)
(0.86046968 0.018062227 -9.991707e-24)
(0.86243618 0.032642523 2.4878243e-25)
(0.87214683 0.0094886023 3.5369322e-23)
(0.91405576 -0.039355635 4.8217718e-23)
(0.97331946 -0.049134384 -8.2963751e-23)
(1.0063049 -0.013451361 0)
(0.99447047 0.052035224 0)
(0.959103 0.07211757 0)
(0.94248923 0.040572393 0)
(0.9580168 -0.015430207 0)
(1.0027487 -0.040579656 0)
(1.0402944 -0.028954928 0)
(1.0506491 3.6066925e-05 0)
(1.0379828 0.022964977 0)
(1.0173416 0.029025281 0)
(1.0032836 0.021270962 0)
(1.0004182 0.0099843558 0)
(1.0038457 0.0024562038 0)
(1.0081804 -0.00024543115 0)
(1.010948 -0.00017401981 0)
(1.0118955 0.00074222459 0)
(1.0116806 0.0012887932 0)
(1.0112355 0.0012671973 0)
(1.0109084 0.00090028301 0)
(1.0108282 0.00045740622 0)
(1.0109259 0.00010806519 0)
(1.011081 -9.5176202e-05 0)
(1.0112012 -0.00016315144 0)
(1.011232 -0.00013356645 0)
(1.0111557 -5.286266e-05 0)
(1.0109835 4.099181e-05 0)
(1.0107371 0.00012100126 0)
(1.010453 0.00016854529 0)
(1.0101714 0.00017872504 0)
(1.0099309 0.00014186356 0)
(1.0097735 5.7749665e-05 0)
(0.8428994 0.019340675 1.4048568e-23)
(0.84553788 0.034662908 -4.4771725e-24)
(0.85464729 0.0088079313 0)
(0.89467527 -0.045068139 -2.8736405e-24)
(0.95386114 -0.054205536 8.2550256e-23)
(0.98972129 -0.015052158 1.730114e-22)
(0.97708378 0.059828911 8.8626047e-23)
(0.94068907 0.080317446 0)
(0.92493896 0.045840048 0)
(0.94582342 -0.022056458 0)
(0.99817681 -0.052906711 0)
(1.045716 -0.037754991 0)
(1.0596718 -0.0025490708 0)
(1.0445454 0.028834624 0)
(1.0178881 0.037353469 0)
(0.99919573 0.027266488 0)
(0.9952825 0.011852681 0)
(1.0002426 0.0015345341 0)
(1.0066558 -0.0021289919 0)
(1.0109211 -0.0016699733 0)
(1.0125101 3.6634142e-05 0)
(1.0122822 0.0012855717 0)
(1.0114851 0.0015382451 0)
(1.010909 0.0012360344 0)
(1.0106555 0.00066065741 0)
(1.0107259 0.0001459576 0)
(1.0109446 -0.00019424476 0)
(1.0111714 -0.00034882727 0)
(1.0113177 -0.00035401127 0)
(1.0113444 -0.0002672072 0)
(1.011248 -0.000139007 0)
(1.0110475 -6.2705167e-06 0)
(1.0107743 0.00010247998 0)
(1.0104652 0.00016940636 0)
(1.0101659 0.00019083182 0)
(1.0099115 0.00015575607 0)
(1.0097457 6.4611247e-05 0)
(0.82858229 0.020354987 -7.9421522e-25)
(0.83130639 0.036288851 1.5331525e-25)
(0.83919725 0.0080139108 -2.3360059e-23)
(0.8756961 -0.050416891 -2.6649503e-23)
(0.9328349 -0.059576715 -4.6817584e-23)
(0.96955235 -0.015264417 2.0362609e-22)
(0.96004594 0.065680625 2.1256536e-22)
(0.92207729 0.090021294 -3.2089699e-23)
(0.90810432 0.045724193 0)
(0.9332 -0.028372543 0)
(0.99448257 -0.066920099 0)
(1.0528474 -0.050537242 0)
(1.0715079 -0.0043512333 0)
(1.051586 0.035761413 0)
(1.0174543 0.047777171 0)
(0.99352193 0.034909755 0)
(0.98839292 0.014185136 0)
(0.99542986 -1.2093627e-06 0)
(1.0046123 -0.0047909617 0)
(1.0109347 -0.0039602642 0)
(1.0134791 -0.0011024069 0)
(1.0132847 0.001162102 0)
(1.0120212 0.0019559553 0)
(1.0109794 0.0017204474 0)
(1.0104685 0.0010362328 0)
(1.0104278 0.00029396408 0)
(1.010686 -0.00024592308 0)
(1.0110256 -0.00053709861 0)
(1.0113085 -0.00061283992 0)
(1.0114647 -0.00054157691 0)
(1.011475 -0.00038957946 0)
(1.0113497 -0.00020878853 0)
(1.0111166 -3.6574687e-05 0)
(1.0108126 9.949983e-05 0)
(1.0104791 0.00018436467 0)
(1.0101593 0.00021268356 0)
(1.0098903 0.00017475297 0)
(1.0097155 7.2905336e-05 0)
(0.81755941 0.020949283 -4.0804758e-24)
(0.8204179 0.037447141 7.7584796e-25)
(0.82679688 0.0073161606 0)
(0.85763289 -0.055347911 2.8848629e-23)
(0.91077526 -0.064466485 -7.4222926e-23)
(0.94833223 -0.016636731 0)
(0.939682 0.073783797 -3.9211789e-22)
(0.9054364 0.098592494 -4.0986894e-22)
(0.88962398 0.052528393 0)
(0.92192212 -0.038962997 0)
(0.99022877 -0.082304874 0)
(1.0603844 -0.06234299 0)
(1.0879597 -0.0096156207 0)
(1.0629217 0.044684983 0)
(1.0162616 0.060645286 0)
(0.98545816 0.044087018 0)
(0.97944271 0.016977021 0)
(0.98908521 -0.0021186461 0)
(1.0019276 -0.0086368988 0)
(1.0110072 -0.0071571773 0)
(1.0149273 -0.0028861809 0)
(1.0148514 0.00088354368 0)
(1.0129823 0.0025140198 0)
(1.0112164 0.0024674631 0)
(1.0102654 0.0016380158 0)
(1.0100286 0.00060806271 0)
(1.0102829 -0.00020969952 0)
(1.0107349 -0.00070550339 0)
(1.0111758 -0.00089928844 0)
(1.011491 -0.0008732907 0)
(1.011639 -0.00071443427 0)
(1.0116202 -0.00049156202 0)
(1.0114584 -0.00025705603 0)
(1.011188 -4.7180274e-05 0)
(1.0108504 0.00011295436 0)
(1.0104911 0.00021261198 0)
(1.0101505 0.00024304715 0)
(1.0098664 0.00019818278 0)
(1.0096823 8.2305857e-05 0)
(0.81121512 0.021079195 0)
(0.8137105 0.038104254 0)
(0.81780763 0.0064977024 -8.0378813e-25)
(0.84224388 -0.05951773 0)
(0.88825499 -0.069017896 -1.2697001e-24)
(0.92528812 -0.017439532 2.1380869e-22)
(0.91978671 0.080553433 7.0835738e-22)
(0.88724388 0.10795374 -3.3294691e-23)
(0.87314181 0.058682231 0)
(0.90490732 -0.046108183 0)
(0.98684441 -0.097372191 0)
(1.0627593 -0.078923028 0)
(1.0973701 -0.013108431 0)
(1.0810493 0.053330081 0)
(1.0198332 0.075555275 0)
(0.97537021 0.055268926 0)
(0.96773236 0.020074692 0)
(0.98105997 -0.0051861362 0)
(0.99845611 -0.013649484 0)
(1.011146 -0.011701038 0)
(1.0169815 -0.0053988185 0)
(1.0171753 0.00030960065 0)
(1.0145435 0.0032683774 0)
(1.011752 0.0035749934 0)
(1.0100579 0.0025572854 0)
(1.0095265 0.0011784846 0)
(1.0097033 -4.3608276e-05 0)
(1.0102651 -0.00082956957 0)
(1.0108869 -0.0012018394 0)
(1.0113942 -0.0012589414 0)
(1.0117145 -0.0011146549 0)
(1.0118355 -0.00086091098 0)
(1.0117763 -0.00056626533 0)
(1.011571 -0.00028043207 0)
(1.0112595 -3.6850931e-05 0)
(1.0108876 0.00014418649 0)
(1.0105007 0.00025283799 0)
(1.0101385 0.00028116582 0)
(1.0098393 0.00022529703 0)
(1.0096461 9.2438762e-05 0)
(0.81145619 0.038269321 -6.1752587e-25)
(0.81026023 0.020861097 0)
(0.81280429 0.0058999023 -9.4902252e-24)
(0.82996159 -0.062903707 1.1824691e-24)
(0.86723015 -0.072880425 -4.6127785e-23)
(0.90162591 -0.018301219 -6.2096725e-24)
(0.89836633 0.087567227 2.0561028e-24)
(0.87000385 0.1168085 -2.4139642e-22)
(0.85648438 0.065605872 -4.5447586e-23)
(0.88755992 -0.049845675 0)
(0.97471359 -0.11402492 -4.9148914e-22)
(1.0619558 -0.087435434 0)
(1.0981977 -0.023390155 0)
(1.0982087 0.065219961 0)
(1.0290443 0.092932646 0)
(0.96702646 0.068295492 0)
(0.95307674 0.023708887 0)
(0.97084762 -0.0093416705 0)
(0.99419028 -0.02042609 0)
(1.0113519 -0.017533689 0)
(1.0197934 -0.0090580434 0)
(1.0204895 -0.00055159974 0)
(1.0169023 0.0041914978 0)
(1.0127237 0.0051795296 0)
(1.0099248 0.0039498239 0)
(1.0088515 0.0020616881 0)
(1.0089265 0.00033840078 0)
(1.0095724 -0.00086914627 0)
(1.0104017 -0.0015080118 0)
(1.0111412 -0.0016969901 0)
(1.0116736 -0.0015931432 0)
(1.011971 -0.0013213957 0)
(1.0120482 -0.00097221537 0)
(1.0119388 -0.00060925827 0)
(1.0116845 -0.00027728239 0)
(1.0113294 -5.004364e-06 0)
(1.0109221 0.00019226595 0)
(1.0105069 0.00030384521 0)
(1.0101231 0.00032511445 0)
(1.0098091 0.00025481634 0)
(1.0096068 0.0001029624 0)
(0.81146807 0.005561033 8.5310827e-24)
(0.81469845 0.038153003 0)
(0.81541572 0.020157298 1.0234579e-24)
(0.81931556 -0.0653155 -1.1815823e-24)
(0.84877471 -0.075830123 2.18133e-23)
(0.8785439 -0.019117786 3.6021692e-22)
(0.87753322 0.093820603 -6.3228129e-22)
(0.85316369 0.1251532 -1.1892463e-22)
(0.84121524 0.072299042 -6.1256607e-23)
(0.86997036 -0.054991961 2.1711506e-23)
(0.95736983 -0.12837487 -5.3799535e-22)
(1.0523911 -0.10491005 5.1183602e-22)
(1.0951808 -0.02270752 0)
(1.0963812 0.074024906 0)
(1.0342617 0.11573908 0)
(0.95995052 0.085198913 0)
(0.93598185 0.027334948 0)
(0.95857562 -0.014721674 0)
(0.98882359 -0.028832533 0)
(1.0117021 -0.025381025 0)
(1.0234819 -0.013764745 0)
(1.0250438 -0.002027545 0)
(1.020345 0.0054315586 0)
(1.014275 0.0073982204 0)
(1.0099278 0.0060037701 0)
(1.0079867 0.0034076858 0)
(1.0078694 0.00099657137 0)
(1.0085981 -0.00079795892 0)
(1.0096715 -0.001800084 0)
(1.0106925 -0.0021860957 0)
(1.011486 -0.00215581 0)
(1.0120019 -0.0018806177 0)
(1.0122517 -0.0014823006 0)
(1.0122711 -0.0010430362 0)
(1.0121037 -0.00061855242 0)
(1.0117964 -0.00024720728 0)
(1.0113963 4.8170325e-05 0)
(1.0109527 0.00025472857 0)
(1.0105089 0.00036384322 0)
(1.0101039 0.0003732805 0)
(1.0097754 0.00028603399 0)
(1.0095644 0.00011361356 0)
(0.81301893 -0.066537759 4.9277939e-24)
(0.81645676 0.0054080075 2.4141142e-23)
(0.82446396 0.037512451 0)
(0.82435408 0.019015686 2.426774e-25)
(0.83105839 -0.07804659 -1.4420706e-23)
(0.85746055 -0.019634369 -1.5823274e-22)
(0.85797672 0.099210308 0)
(0.83813742 0.13245199 1.1810306e-22)
(0.82813249 0.078802834 -5.2654841e-23)
(0.85300742 -0.059867574 -2.1438714e-23)
(0.93833841 -0.14325577 5.8940622e-22)
(1.0362814 -0.12264794 5.5903839e-22)
(1.085443 -0.029418689 0)
(1.0759061 0.087823066 0)
(1.0181846 0.13863494 0)
(0.94727879 0.10597021 0)
(0.91789472 0.033434562 0)
(0.94306459 -0.022241834 0)
(0.98278165 -0.039532522 0)
(1.0120474 -0.034812017 0)
(1.0282161 -0.020313181 0)
(1.0311272 -0.0039162365 0)
(1.0251279 0.0068166909 0)
(1.0166397 0.010456634 0)
(1.0101066 0.0089195576 0)
(1.0069207 0.0054115571 0)
(1.0064065 0.0020006258 0)
(1.0072712 -0.00052535848 0)
(1.0086254 -0.0020753971 0)
(1.010002 -0.0027380922 0)
(1.0111188 -0.0028151006 0)
(1.0119031 -0.0025505514 0)
(1.0123656 -0.0021072214 0)
(1.0125477 -0.0015911654 0)
(1.0124984 -0.0010712878 0)
(1.0122675 -0.00059402937 0)
(1.0119045 -0.00019084455 0)
(1.0114587 0.00012077736 0)
(1.0109783 0.0003294105 0)
(1.0105064 0.0004305148 0)
(1.0100806 0.00042487959 0)
(1.0097383 0.00031807552 0)
(1.0095194 0.00012413463 0)
(0.81863427 -0.079202229 -9.8886541e-24)
(0.81354173 -0.06666788 -6.2213257e-24)
(0.82733884 0.0055277543 -2.1516355e-23)
(0.83797276 0.036335148 -1.04945e-23)
(0.83631181 0.017492885 5.2301565e-25)
(0.83797873 -0.020138596 1.5036553e-22)
(0.84113517 0.1036034 8.5527137e-23)
(0.82574451 0.13851666 0)
(0.81786613 0.084492591 5.0922622e-23)
(0.83763491 -0.064426769 3.679052e-23)
(0.91807133 -0.15863665 0)
(1.0172224 -0.13873775 -8.0024872e-22)
(1.0713646 -0.045357906 0)
(1.0585349 0.10165007 0)
(0.99210871 0.16021806 0)
(0.93057658 0.12751935 0)
(0.8999114 0.040013918 0)
(0.92551909 -0.030122439 0)
(0.97519333 -0.0523752 0)
(1.0126972 -0.046949634 0)
(1.0339817 -0.028116965 0)
(1.0389771 -0.006992842 0)
(1.0316758 0.0087422663 0)
(1.0199867 0.014478896 0)
(1.0105551 0.012978911 0)
(1.0055924 0.0082703438 0)
(1.0044503 0.0035054622 0)
(1.0054487 -5.0289056e-05 0)
(1.0071753 -0.0023034375 0)
(1.0090018 -0.0033489383 0)
(1.0105304 -0.0035893579 0)
(1.0116485 -0.0033499387 0)
(1.0123702 -0.0028619588 0)
(1.0127511 -0.0022657353 0)
(1.0128508 -0.0016459506 0)
(1.0127252 -0.0010572276 0)
(1.012427 -0.00053693564 0)
(1.0120071 -0.00011006918 0)
(1.0115152 0.00020969982 0)
(1.0109984 0.00041377715 0)
(1.0104991 0.00050196679 0)
(1.0100533 0.00047763731 0)
(1.0096982 0.00034995278 0)
(1.0094719 0.00013437673 0)
(0.82269775 -0.020686993 6.7508456e-24)
(0.81184289 -0.079198412 8.7243217e-24)
(0.81933493 -0.065794907 3.7401761e-23)
(0.84276316 0.0057946574 1.0870873e-23)
(0.85339183 0.034722121 -3.0966954e-23)
(0.85162477 0.015728216 1.5257907e-24)
(0.82778942 0.10678394 -1.6145849e-22)
(0.81721936 0.14331204 -7.3031571e-23)
(0.81110191 0.089437577 -1.523806e-22)
(0.82526919 -0.068490626 -5.0104737e-23)
(0.89702034 -0.17344142 -7.6185852e-22)
(0.99458776 -0.15616408 5.9409265e-22)
(1.0544047 -0.055134727 0)
(1.0498224 0.10011141 -1.5407322e-21)
(0.97203831 0.18143369 1.1519915e-21)
(0.91545865 0.14198704 0)
(0.88412801 0.050169759 0)
(0.90690824 -0.041536518 0)
(0.96672528 -0.06796327 0)
(1.0132691 -0.060574838 0)
(1.0409805 -0.038651367 0)
(1.0488743 -0.010515023 0)
(1.0401975 0.010613817 0)
(1.0246875 0.01985953 0)
(1.0112842 0.018465043 0)
(1.0039173 0.012267399 0)
(1.0018733 0.0056553778 0)
(1.0029639 0.00068324366 0)
(1.0052121 -0.0024726877 0)
(1.0076145 -0.0040725999 0)
(1.0096744 -0.0045130609 0)
(1.0112103 -0.0043064638 0)
(1.0122482 -0.0037678083 0)
(1.0128668 -0.003082247 0)
(1.0131464 -0.0023546624 0)
(1.0131541 -0.0016475939 0)
(1.0129474 -0.0010027279 0)