/*--------------------------------*- C++ -*----------------------------------*\
| =========                 |                                                 |
| \\      /  F ield         | OpenFOAM: The Open Source CFD Toolbox           |
|  \\    /   O peration     | Version:  5.0                                   |
|   \\  /    A nd           | Web:      www.OpenFOAM.org                      |
|    \\/     M anipulation  |                                                 |
\*---------------------------------------------------------------------------*/
FoamFile
{
    version     2.0;
    format      ascii;
    class       volVectorField;
    location    "340";
    object      UMean;
}
// * * * * * * * * * * * * * * * * * * * * * * * * * * * * * * * * * * * * * //

dimensions      [0 1 -1 0 0 0 0];

internalField   nonuniform List<vector> 
9520
(
(1.0111982 6.5864501e-05 0)
(1.0112888 0.00019283686 0)
(1.0110022 6.6734392e-05 0)
(1.0114495 0.0003112224 0)
(1.0110934 0.00019565581 0)
(1.0109236 6.711815e-05 0)
(1.0116653 0.0004204962 0)
(1.0112555 0.00031629586 0)
(1.0110147 0.00019681795 0)
(1.0107968 6.7348795e-05 0)
(1.011923 0.00052086907 0)
(1.011474 0.00042830911 0)
(1.0111769 0.0003187106 0)
(1.0108873 0.00019792634 0)
(1.0106991 6.7231585e-05 0)
(1.012211 0.00061175574 0)
(1.0117362 0.00053202482 0)
(1.0113959 0.00043257922 0)
(1.0110486 0.00032149451 0)
(1.0107889 0.00019779858 0)
(1.0105939 6.6413647e-05 0)
(1.0125186 0.00069288915 0)
(1.0120309 0.00062692416 0)
(1.011659 0.00053891222 0)
(1.0112668 0.00043819531 0)
(1.010949 0.00032220486 0)
(1.010682 0.00019579331 0)
(1.0104986 6.5070066e-05 0)
(1.0128369 0.00076400403 0)
(1.0123481 0.00071276526 0)
(1.0119553 0.00063727953 0)
(1.0115296 0.00054875906 0)
(1.0111656 0.00044094589 0)
(1.0108391 0.00032011061 0)
(1.010585 0.00019214893 0)
(1.0104079 6.2730084e-05 0)
(1.013158 0.00082440339 0)
(1.012679 0.00078910177 0)
(1.012275 0.00072753349 0)
(1.0118264 0.00065292848 0)
(1.011427 0.00055503612 0)
(1.0110518 0.00044027978 0)
(1.010739 0.00031525772 0)
(1.0104918 0.00018559071 0)
(1.0103236 5.9655219e-05 0)
(1.0134753 0.00087489256 0)
(1.0130156 0.00085543436 0)
(1.0126093 0.00080944754 0)
(1.0121478 0.00075062936 0)
(1.0117227 0.00066436403 0)
(1.0113086 0.00055766831 0)
(1.0109475 0.00043572573 0)
(1.0106411 0.00030565873 0)
(1.0104049 0.00017680463 0)
(1.0102484 5.5502979e-05 0)
(1.0137835 0.00091246849 0)
(1.013352 0.00091223934 0)
(1.0129508 0.00088218435 0)
(1.0124853 0.00084145873 0)
(1.0120436 0.00076896647 0)
(1.0115996 0.00067247938 0)
(1.0111993 0.00055524694 0)
(1.010843 0.00042468485 0)
(1.0105494 0.00029227836 0)
(1.0103268 0.00016477129 0)
(1.0101799 5.0579217e-05 0)
(1.0140781 0.00094429385 0)
(1.0136824 0.0009569525 0)
(1.0132932 0.00094603865 0)
(1.0128317 0.00092466804 0)
(1.0123814 0.00086851901 0)
(1.0119158 0.00078493703 0)
(1.0114847 0.00067427765 0)
(1.0110865 0.00054473507 0)
(1.0107446 0.0004081915 0)
(1.0104656 0.00027340486 0)
(1.0102553 0.00015037998 0)
(1.0101222 4.4714205e-05 0)
(1.0143562 0.00095876101 0)
(1.0140066 0.00099467812 0)
(1.0136306 0.00099954872 0)
(1.013181 0.0010006789 0)
(1.0127291 0.00096250349 0)
(1.0122494 0.00089479225 0)
(1.011795 0.0007932421 0)
(1.0113623 0.00066663355 0)
(1.0109798 0.000526943 0)
(1.0106525 0.00038382274 0)
(1.0103884 0.00025045383 0)
(1.0101947 0.00013308949 0)
(1.0100723 3.8227661e-05 0)
(1.0146149 0.00097681228 0)
(1.0143164 0.0010118347 0)
(1.0139579 0.0010462296 0)
(1.0135302 0.001067147 0)
(1.013081 0.0010510088 0)
(1.0125939 0.001001484 0)
(1.0121226 0.00091207402 0)
(1.0116621 0.00079109592 0)
(1.0112458 0.00064968467 0)
(1.010877 0.00049877031 0)
(1.0105672 0.00035343691 0)
(1.0103221 0.00022243169 0)
(1.010142 0.00011385777 0)
(1.0100336 3.1083543e-05 0)
(1.0148522 0.00095697465 0)
(1.0146044 0.0010376742 0)
(1.0142694 0.0010798044 0)
(1.0138758 0.001126691 0)
(1.0134302 0.0011327339 0)
(1.0129441 0.0011049068 0)
(1.012461 0.0010304927 0)
(1.0119787 0.00091826021 0)
(1.0115342 0.00077742479 0)
(1.0111297 0.00061978023 0)
(1.010781 0.00046236745 0)
(1.0104923 0.00031548285 0)
(1.010264 0.00019093048 0)
(1.0101009 9.2547289e-05 0)
(1.0100031 2.3588584e-05 0)
(1.0150657 0.00097183607 0)
(1.0148758 0.0010278322 0)
(1.0145689 0.0011159573 0)
(1.014205 0.0011707193 0)
(1.0137745 0.0012100003 0)
(1.0132971 0.0012024878 0)
(1.0128043 0.0011481695 0)
(1.0123063 0.001047814 0)
(1.0118381 0.00091056125 0)
(1.0114029 0.0007482077 0)
(1.0110209 0.00057910578 0)
(1.0106946 0.00041551859 0)
(1.010426 0.00027218066 0)
(1.0102181 0.0001556283 0)
(1.0100684 7.0083818e-05 0)
(1.009983 1.5802336e-05 0)
(1.0152532 0.00091024467 0)
(1.0151263 0.0010551911 0)
(1.0148538 0.0011191176 0)
(1.0145164 0.0012194849 0)
(1.0141063 0.0012756288 0)
(1.0136451 0.0012977463 0)
(1.0131481 0.0012641417 0)
(1.0126406 0.0011792912 0)
(1.0121513 0.001049028 0)
(1.0116902 0.00088474688 0)
(1.0112788 0.00070533333 0)
(1.0109198 0.00052476236 0)
(1.0106172 0.00036104869 0)
(1.0103726 0.00022291334 0)
(1.0101815 0.00011808662 0)
(1.0100471 4.661798e-05 0)
(1.0099709 8.0074808e-06 0)
(1.0154068 0.00094177255 0)
(1.0153492 0.0010049757 0)
(1.0151198 0.0011532115 0)
(1.0148145 0.0012403616 0)
(1.014425 0.0013438712 0)
(1.0139814 0.00138222 0)
(1.0134903 0.0013791975 0)
(1.0129766 0.0013115457 0)
(1.0124692 0.0011926804 0)
(1.0119862 0.0010295289 0)
(1.0115481 0.00084207162 0)
(1.01116 0.00064529437 0)
(1.0108283 0.00046007328 0)
(1.0105532 0.00029791699 0)
(1.0103294 0.00016988776 0)
(1.0101572 7.8480728e-05 0)
(1.0100342 2.3008831e-05 0)
(1.0099678 3.2395047e-07 0)
(1.0155228 0.00082805565 0)
(1.0155365 0.0010506907 0)
(1.0153557 0.001118706 0)
(1.0150938 0.001289539 0)
(1.0147337 0.0013851606 0)
(1.0143043 0.0014711177 0)
(1.0138232 0.0014864184 0)
(1.0133104 0.0014453986 0)
(1.0127886 0.0013405008 0)
(1.0122866 0.0011824987 0)
(1.0118233 0.00098982184 0)
(1.0114091 0.00077856791 0)
(1.0110513 0.00057169594 0)
(1.0107502 0.00038346915 0)
(1.0105005 0.00022898027 0)
(1.0103 0.00011323649 0)
(1.0101425 3.8272251e-05 0)
(1.0100312 -4.0688246e-07 0)
(1.0099715 -7.0027167e-06 0)
(1.0155661 0.00088661088 0)
(1.0156873 0.00094268447 0)
(1.0155627 0.0011671168 0)
(1.0153467 0.0012756407 0)
(1.0150207 0.0014505499 0)
(1.0146199 0.0015359795 0)
(1.0141445 0.0015982711 0)
(1.0136359 0.0015749151 0)
(1.0131068 0.0014927814 0)
(1.0125874 0.0013426575 0)
(1.0121006 0.0011487882 0)
(1.011662 0.00092544817 0)
(1.0112796 0.00069777488 0)
(1.0109555 0.00048241173 0)
(1.0106847 0.00029842443 0)
(1.0104632 0.00015423588 0)
(1.0102817 5.5058493e-05 0)
(1.0101392 -2.0198439e-06 0)
(1.0100358 -2.286513e-05 0)
(1.0099822 -1.3829352e-05 0)
(1.0155413 0.00071780255 0)
(1.0157894 0.0010349055 0)
(1.0157334 0.0010754023 0)
(1.0155693 0.0013355439 0)
(1.0152877 0.0014580473 0)
(1.0149132 0.0016235305 0)
(1.0144592 0.0016898529 0)
(1.0139497 0.0017098939 0)
(1.0134178 0.0016445352 0)
(1.0128855 0.001510407 0)
(1.0123771 0.0013182486 0)
(1.0119149 0.0010863567 0)
(1.0115083 0.00083960414 0)
(1.0111625 0.00059711969 0)
(1.0108733 0.000381433 0)
(1.0106359 0.00020471355 0)
(1.0104387 7.6439252e-05 0)
(1.0102768 -4.0061673e-06 0)
(1.0101448 -4.1072865e-05 0)
(1.0100483 -4.3942414e-05 0)
(1.0099982 -1.9948938e-05 0)
(1.0152839 0.00080557891 0)
(1.0157821 0.00086021272 0)
(1.0158307 0.0011642008 0)
(1.0157605 0.0012733128 0)
(1.0155254 0.001535513 0)
(1.0151913 0.0016551461 0)
(1.0147579 0.0018026781 0)
(1.0142558 0.0018303022 0)
(1.0137178 0.0018030854 0)
(1.0131767 0.0016813544 0)
(1.0126502 0.0014982749 0)
(1.0121648 0.0012607782 0)
(1.0117339 0.00099799828 0)
(1.0113664 0.00072939131 0)
(1.0110597 0.00048086208 0)
(1.0108092 0.00026824056 0)
(1.0106021 0.00010573019 0)
(1.0104301 -3.6703033e-06 0)
(1.0102828 -6.2006004e-05 0)
(1.0101601 -7.8190173e-05 0)
(1.0100669 -6.3017476e-05 0)
(1.0100189 -2.5238213e-05 0)
(1.0146034 0.00059566309 0)
(1.0156253 0.00099301434 0)
(1.0158618 0.00099649215 0)
(1.0158783 0.0013678396 0)
(1.0157277 0.0014898906 0)
(1.015443 0.0017548435 0)
(1.0150395 0.0018634725 0)
(1.0145513 0.0019715169 0)
(1.0140076 0.0019518502 0)
(1.0134568 0.0018611284 0)
(1.0129163 0.0016850219 0)
(1.0124094 0.0014487338 0)
(1.011954 0.0011729303 0)
(1.0115638 0.00088047103 0)
(1.0112387 0.00059904853 0)
(1.0109759 0.00034820194 0)
(1.0107621 0.00014681485 0)
(1.0105867 2.2954367e-06 0)
(1.0104347 -8.3493143e-05 0)
(1.0103009 -0.00011799268 0)
(1.0101829 -0.00011226954 0)
(1.0100911 -7.9678975e-05 0)
(1.0100428 -2.9540071e-05 0)
(1.013578 0.00065447232 0)
(1.0149632 0.00078464556 0)
(1.0157025 0.0011414015 0)
(1.0159242 0.0012320518 0)
(1.0158602 0.0015984973 0)
(1.0156565 0.0017342074 0)
(1.0153002 0.0019903045 0)
(1.0148299 0.0020661739 0)
(1.0142906 0.0021215279 0)
(1.0137236 0.0020356493 0)
(1.0131701 0.0018831982 0)
(1.0126461 0.001646953 0)
(1.012167 0.0013642652 0)
(1.0117526 0.001050738 0)
(1.0114071 0.00073780764 0)
(1.0111308 0.0004475481 0)
(1.010911 0.0002035812 0)
(1.010736 1.799019e-05 0)
(1.0105873 -0.00010237559 0)
(1.0104545 -0.00016182263 0)
(1.0103286 -0.0001702923 0)
(1.0102131 -0.00014261805 0)
(1.0101193 -9.3480894e-05 0)
(1.0100692 -3.2765008e-05 0)
(1.0130638 0.00052734197 0)
(1.0139349 0.00086572975 0)
(1.0151241 0.00092816229 0)
(1.0157959 0.0013830502 0)
(1.0159218 0.0014810727 0)
(1.0158105 0.0018612793 0)
(1.0155235 0.0020006808 0)
(1.0150903 0.0022254595 0)
(1.0145574 0.0022503914 0)
(1.013986 0.0022312641 0)
(1.0134107 0.0020788242 0)
(1.0128688 0.0018587713 0)
(1.0123709 0.0015693375 0)
(1.0119315 0.0012401825 0)
(1.0115632 0.00089809087 0)
(1.0112706 0.00056873621 0)
(1.0110433 0.00027959589 0)
(1.0108696 4.7786831e-05 0)
(1.010729 -0.00011439406 0)
(1.0106064 -0.00020677467 0)
(1.0104866 -0.00023635419 0)
(1.0103663 -0.00021790322 0)
(1.0102488 -0.00016842832 0)
(1.0101507 -0.00010412832 0)
(1.0100968 -3.4836537e-05 0)
(1.011329 0.0005165938 0)
(1.013519 0.00068967364 0)
(1.0140748 0.0010383608 0)
(1.015252 0.0011946548 0)
(1.0158083 0.0016402066 0)
(1.0158875 0.0017687967 0)
(1.0156953 0.0021533563 0)
(1.0153147 0.0022747209 0)
(1.0148068 0.0024429882 0)
(1.0142312 0.0023918319 0)
(1.0136465 0.0022961911 0)
(1.0130797 0.0020715196 0)
(1.0125597 0.0017898578 0)
(1.0120995 0.0014468778 0)
(1.0117063 0.0010802959 0)
(1.0113937 0.00071329189 0)
(1.0111556 0.00037801829 0)
(1.0109816 9.5908765e-05 0)
(1.0108505 -0.00011475388 0)
(1.0107441 -0.00024858005 0)
(1.0106413 -0.0003079584 0)
(1.0105319 -0.00030573041 0)
(1.0104116 -0.00025955784 0)
(1.0102894 -0.00018915912 0)
(1.0101841 -0.00011136398 0)
(1.0101247 -3.571452e-05 0)
(1.0057222 0.00036076761 0)
(1.0119766 0.00083434262 0)
(1.0136623 0.0008310355 0)
(1.014205 0.0013376472 0)
(1.0152978 0.0014680925 0)
(1.0157957 0.001938704 0)
(1.0157888 0.002095961 0)
(1.015494 0.0024619699 0)
(1.0150207 0.0025325631 0)
(1.0144611 0.0026138622 0)
(1.0138642 0.0024832281 0)
(1.0132842 0.0023064056 0)
(1.0127364 0.002015749 0)
(1.0122511 0.0016715104 0)
(1.0118361 0.0012830918 0)
(1.0114998 0.00088222702 0)
(1.0112461 0.00050111398 0)
(1.0110682 0.00016627076 0)
(1.0109452 -9.859331e-05 0)
(1.0108572 -0.00028209189 0)
(1.0107788 -0.00038092032 0)
(1.0106932 -0.00040412829 0)
(1.0105877 -0.00036812312 0)
(1.0104642 -0.00029442104 0)
(1.0103331 -0.00020432027 0)
(1.0102184 -0.0001150401 0)
(1.010152 -3.5382612e-05 0)
(0.99712011 0.00036239777 0)
(1.0062731 0.00047066656 0)
(1.0123425 0.0010255121 0)
(1.0137852 0.0010963264 0)
(1.0142709 0.0016335948 0)
(1.0153235 0.0017806623 0)
(1.0157228 0.0022893521 0)
(1.0155938 0.0024524225 0)
(1.0151931 0.0027565914 0)
(1.0146546 0.0027401309 0)
(1.0140688 0.0027289821 0)
(1.0134709 0.0025154484 0)
(1.0129058 0.0022643244 0)
(1.0123893 0.0019055591 0)
(1.0119482 0.0015064996 0)
(1.0115894 0.0010749264 0)
(1.0113152 0.00065055724 0)
(1.0111276 0.0002619232 0)
(1.0110089 -6.1238524e-05 0)
(1.0109384 -0.00030184595 0)
(1.0108878 -0.00044985117 0)
(1.0108349 -0.00050917534 0)
(1.0107592 -0.0004928437 0)
(1.010654 -0.00042231788 0)
(1.0105218 -0.00032168235 0)
(1.0103791 -0.00021360386 0)
(1.0102526 -0.00011509557 0)
(1.0101777 -3.3838067e-05 0)
(0.98753269 0.00023142022 0)
(0.99777673 0.0006017689 0)
(1.0066427 0.00067565311 0)
(1.0126754 0.0013579285 0)
(1.0138201 0.0013639557 0)
(1.0143284 0.0019642922 0)
(1.0152965 0.0021538066 0)
(1.0155452 0.0026805432 0)
(1.015286 0.0027948681 0)
(1.0148083 0.0029967622 0)
(1.0142371 0.0028848335 0)
(1.013645 0.0027814256 0)
(1.0130588 0.0024920244 0)
(1.0125195 0.0021639434 0)
(1.0120441 0.0017437696 0)
(1.0116593 0.0012911351 0)
(1.0113636 0.00082664031 0)
(1.0111602 0.00038539716 0)
(1.0110395 1.2301433e-06 0)
(1.0109826 -0.00030236396 0)
(1.0109597 -0.00050875801 0)
(1.0109445 -0.00061536973 0)
(1.0109094 -0.00063019037 0)
(1.0108396 -0.00057239334 0)
(1.0107281 -0.00046705127 0)
(1.0105838 -0.00034080128 0)
(1.0104261 -0.00021685667 0)
(1.0102857 -0.00011149478 0)
(1.0102013 -3.1099252e-05 0)
(0.9770738 0.00020690397 0)
(0.98820218 0.00038557719 0)
(0.99812493 0.00075028679 0)
(1.0071627 0.0010008549 0)
(1.012967 0.0016754863 0)
(1.0138526 0.0016830098 0)
(1.0143357 0.0023730769 0)
(1.0151558 0.0025916849 0)
(1.015236 0.0030614122 0)
(1.0148841 0.0030727873 0)
(1.0143674 0.0031682354 0)
(1.0137871 0.0029591781 0)
(1.0132009 0.0027743141 0)
(1.0126344 0.0024071499 0)
(1.0121308 0.0020072394 0)
(1.0117094 0.0015257037 0)
(1.0113898 0.0010290072 0)
(1.0111673 0.00053774904 0)
(1.0110374 9.228344e-05 0)
(1.0109875 -0.00027869323 0)
(1.0109887 -0.00055141062 0)
(1.011012 -0.00071629946 0)
(1.0110245 -0.00077472043 0)
(1.0110031 -0.00074171909 0)
(1.0109314 -0.00064099201 0)
(1.0108095 -0.00050141318 0)
(1.0106484 -0.00035150469 0)
(1.010473 -0.00021399798 0)
(1.010317 -0.000104281 0)
(1.0102221 -2.7205879e-05 0)
(0.96452803 8.8732223e-05 -2.3059852e-24)
(0.97781833 0.00039813098 0)
(0.9886202 0.00056273275 0)
(0.99857698 0.00099478148 0)
(1.0078597 0.0012986847 0)
(1.0132603 0.0020160523 0)
(1.0138223 0.0020954471 0)
(1.0142214 0.0028572734 0)
(1.0148664 0.0030264708 0)
(1.0148216 0.0033721276 0)
(1.0144225 0.003270919 0)
(1.0138943 0.0032649403 0)
(1.013312 0.0029736891 0)
(1.0127399 0.0027042203 0)
(1.0122026 0.0022620939 0)
(1.0117483 0.0017887699 0)
(1.0113919 0.0012538975 0)
(1.0111487 0.00071902016 0)
(1.0110043 0.00021383075 0)
(1.0109533 -0.00022652452 0)
(1.0109719 -0.00057189518 0)
(1.0110308 -0.00080501325 0)
(1.0110931 -0.0009197462 0)
(1.0111289 -0.0009251033 0)
(1.0111125 -0.00084133532 0)
(1.0110342 -0.00069728049 0)
(1.0108955 -0.00052471916 0)
(1.0107143 -0.00035316378 0)
(1.0105186 -0.0002048961 0)
(1.0103457 -9.3551728e-05 0)
(1.0102395 -2.2217032e-05 0)
(0.94984214 3.8755706e-05 3.0555293e-24)
(0.96531816 0.00024813348 2.406777e-24)
(0.97829316 0.0005484984 0)
(0.98910273 0.00081021856 0)
(0.99915507 0.0012358296 0)
(1.0087108 0.0016596552 0)
(1.0134556 0.0024769107 0)
(1.0136229 0.0026155803 0)
(1.0139444 0.0033376064 0)
(1.0144603 0.0033785258 0)
(1.0143478 0.0035916398 0)
(1.0139298 0.0033892156 0)
(1.0133961 0.0032966531 0)
(1.0128177 0.00292495 0)
(1.0122658 0.0025705849 0)
(1.0117712 0.0020497516 0)
(1.0113799 0.0015097541 0)
(1.0111016 0.00092656712 0)
(1.0109411 0.00036679873 0)
(1.0108818 -0.00014286531 0)
(1.0109091 -0.00056466757 0)
(1.010997 -0.00087454907 0)
(1.0111072 -0.0010577085 0)
(1.0112045 -0.0011157562 0)
(1.0112545 -0.0010633281 0)
(1.0112376 -0.00092711022 0)
(1.0111449 -0.00074019728 0)
(1.0109853 -0.00053667485 0)
(1.0107802 -0.00034598868 0)
(1.0105621 -0.00018973196 0)
(1.0103712 -7.9489464e-05 0)
(1.010253 -1.621243e-05 0)
(0.9340218 -2.7070957e-05 -3.0693323e-24)
(0.95075689 0.00017021732 -7.4404821e-24)
(0.96581271 0.00041421303 0)
(0.97888105 0.00076169524 0)
(0.98970581 0.0010052999 0)
(0.99995932 0.0015497264 0)
(1.0095306 0.0021374619 0)
(1.0134333 0.0030547833 0)
(1.0132351 0.003144333 0)
(1.013548 0.0037126701 0)
(1.013996 0.0036205931 0)
(1.0138476 0.0037273578 0)
(1.0134138 0.0034409989 0)
(1.0128722 0.0032677952 0)
(1.012303 0.0028118477 0)
(1.011785 0.0023649873 0)
(1.0113494 0.0017693269 0)
(1.0110364 0.001167425 0)
(1.010845 0.00054897036 0)
(1.0107751 -2.5854715e-05 0)
(1.0108023 -0.00052576758 0)
(1.0109099 -0.00091834612 0)
(1.011062 -0.0011807189 0)
(1.0112201 -0.001305627 0)
(1.011343 -0.0013002817 0)
(1.0114011 -0.0011867775 0)
(1.0113747 -0.00099742183 0)
(1.0112626 -0.00076890208 0)
(1.0110769 -0.0005367849 0)
(1.010845 -0.00033006988 0)
(1.0106028 -0.0001688225 0)
(1.0103929 -6.2304827e-05 0)
(1.0102625 -9.2818676e-06 0)
(0.91787258 -9.5939861e-05 0)
(0.93497245 0.00011975397 7.4521181e-24)
(0.95135674 0.00028482249 0)
(0.96643206 0.00062860468 0)
(0.97962444 0.00093514487 0)
(0.99049256 0.0012335509 0)
(1.0009652 0.0020820533 0)
(1.010209 0.0027585493 0)
(1.0131398 0.0036289449 0)
(1.0127151 0.003583037 0)
(1.0131037 0.0039606525 0)
(1.0135129 0.0037718546 0)
(1.0133291 0.0037995509 0)
(1.0128659 0.0034348029 0)
(1.0123213 0.0031745743 0)
(1.0117735 0.0026228015 0)
(1.0113082 0.0020838166 0)
(1.0109501 0.001417545 0)
(1.0107262 0.00076668286 0)
(1.0106306 0.00012306961 0)
(1.0106543 -0.0004521183 0)
(1.0107714 -0.00093100285 0)
(1.0109559 -0.0012809629 0)
(1.0111698 -0.0014859522 0)
(1.0113668 -0.0015438429 0)
(1.011509 -0.0014699643 0)
(1.0115651 -0.0012930615 0)
(1.011523 -0.0010507121 0)
(1.0113845 -0.00078268757 0)
(1.011169 -0.00052494367 0)
(1.0109076 -0.00030566156 0)
(1.0106398 -0.00014250081 0)
(1.0104104 -4.222335e-05 0)
(1.0102677 -1.4796345e-06 0)
(0.90177038 -0.00010235774 1.5569474e-24)
(0.91879419 -1.5572252e-05 0)
(0.93557663 0.00026571909 1.472341e-23)
(0.95209624 0.00041940329 0)
(0.96722701 0.00078653519 0)
(0.98056755 0.0011720289 0)
(0.99141524 0.0016142165 0)
(1.0020595 0.0028171812 0)
(1.0106705 0.0034118616 0)
(1.0126038 0.0040426805 0)
(1.0121691 0.0038775334 0)
(1.0126584 0.0041170019 0)
(1.0130142 0.0038611208 0)
(1.0127721 0.0038200821 0)
(1.0122825 0.0033668811 0)
(1.0117446 0.0030015919 0)
(1.0112409 0.0023505569 0)
(1.01085 0.0017222019 0)
(1.0105831 0.00099881833 0)
(1.0104585 0.00030964058 0)
(1.0104632 -0.00034415231 0)
(1.0105849 -0.00090812999 0)
(1.0107902 -0.001351736 0)
(1.0110506 -0.0016478828 0)
(1.0113182 -0.0017846572 0)
(1.011548 -0.0017683261 0)
(1.0116986 -0.0016215695 0)
(1.0117457 -0.0013799387 0)
(1.0116792 -0.0010859732 0)
(1.0115094 -0.00078115137 0)
(1.01126 -0.00050147974 0)
(1.010967 -0.00027315318 0)
(1.0106725 -0.00011116259 0)
(1.0104234 -1.9494801e-05 0)
(1.0102683 7.0786653e-06 0)
(0.88636699 -0.00015504495 -6.5923843e-24)
(0.90257542 -2.9329079e-05 -2.1226743e-23)
(0.91937058 0.00010106984 -1.4715687e-23)
(0.93632058 0.00041517173 -2.2446329e-23)
(0.95301874 0.00047840855 -2.8170583e-23)
(0.96822479 0.0010002025 0)
(0.98164714 0.0016166951 0)
(0.99235651 0.0021639798 0)
(1.003161 0.0035575765 0)
(1.0109348 0.0039370194 0)
(1.0119755 0.0042649951 0)
(1.011643 0.0040602789 0)
(1.0122054 0.0042206501 0)
(1.0124774 0.0039042741 0)
(1.0121683 0.0037838167 0)
(1.0116602 0.0032177166 0)
(1.0111563 0.0027364081 0)
(1.0107227 0.0019882759 0)
(1.0104234 0.0012850502 0)
(1.0102588 0.00051580096 0)
(1.0102392 -0.00019642344 0)
(1.0103493 -0.00084896214 0)
(1.0105691 -0.0013867881 0)
(1.0108633 -0.0017830876 0)
(1.011193 -0.0020127194 0)
(1.0115087 -0.0020720262 0)
(1.0117601 -0.0019748594 0)
(1.0119113 -0.0017520075 0)
(1.0119388 -0.0014459022 0)
(1.0118418 -0.0011023321 0)
(1.0116349 -0.00076443247 0)
(1.0113487 -0.00046668851 0)
(1.0110222 -0.00023304131 0)
(1.0107008 -7.5173466e-05 0)
(1.0104317 5.6225086e-06 0)
(1.0102644 1.6315615e-05 0)
(0.87244309 -0.00015408378 8.1529862e-24)
(0.88698674 -0.00010832951 3.722533e-23)
(0.90306382 9.4560172e-05 0)
(0.92009079 0.00018605068 7.8599043e-23)
(0.93725512 0.00048290768 2.8029375e-23)
(0.95415911 0.00057338166 4.2570487e-23)
(0.96932967 0.0014351767 2.1836414e-23)
(0.98274287 0.0022512121 0)
(0.99333795 0.0027710833 0)
(1.0042724 0.0041426505 0)
(1.011029 0.00426009 0)
(1.0113186 0.0043966866 0)
(1.0111328 0.0041775281 0)
(1.0117153 0.0042941963 0)
(1.0118789 0.0038977464 0)
(1.0115086 0.0036647065 0)
(1.0110162 0.0029680898 0)
(1.0105777 0.0023703626 0)
(1.0102349 0.0015407476 0)
(1.0100396 0.00077562502 0)
(1.0099836 -2.4063121e-05 0)
(1.0100747 -0.00074776546 0)
(1.0102922 -0.001384355 0)
(1.0106121 -0.0018835571 0)
(1.0109907 -0.0022182385 0)
(1.0113852 -0.0023702463 0)
(1.0117382 -0.0023429759 0)
(1.0120028 -0.0021595744 0)
(1.0121424 -0.0018591083 0)
(1.012143 -0.0014893261 0)
(1.0120076 -0.0010997004 0)
(1.0117596 -0.00073263861 0)
(1.0114336 -0.00042116054 0)
(1.0110725 -0.00018590201 0)
(1.010724 -3.464789e-05 0)
(1.0104353 3.2820394e-05 0)
(1.0102559 2.614007e-05 0)
(0.86060822 -0.00016026272 -3.4244001e-26)
(0.87280458 -0.00012271082 -8.7538122e-24)
(0.88734642 1.7467123e-05 1.5772031e-23)
(0.90367586 0.00015196481 -3.1133272e-23)
(0.92102149 0.00018200162 -5.82516e-23)
(0.93841925 0.00059455042 3.8147437e-23)
(0.95541786 0.00088545544 1.523675e-22)
(0.97042267 0.0020932301 -2.7295806e-23)
(0.98382751 0.002870677 0)
(0.99446342 0.0032992524 0)
(1.0053576 0.0045286618 0)
(1.0108679 0.0044541798 0)
(1.0106739 0.0045207592 0)
(1.0106045 0.004264802 0)
(1.0111587 0.0043327556 0)
(1.011202 0.0038083953 0)
(1.0108136 0.0034346674 0)
(1.010377 0.0026054736 0)
(1.0100283 0.001908801 0)
(1.0097901 0.0010126473 0)
(1.0097055 0.00020204016 0)
(1.0097642 -0.00061673518 0)
(1.0099687 -0.0013377975 0)
(1.0102973 -0.0019460089 0)
(1.0107149 -0.002391329 0)
(1.0111754 -0.0026515844 0)
(1.0116248 -0.0027143169 0)
(1.0120066 -0.0025926305 0)
(1.0122713 -0.0023190855 0)
(1.0123905 -0.001940326 0)
(1.0123541 -0.0015097472 0)
(1.0121751 -0.0010777149 0)
(1.0118815 -0.00068640607 0)
(1.0115137 -0.00036551206 0)
(1.0111178 -0.00013195193 0)
(1.0107419 9.3521071e-06 0)
(1.0104339 6.185669e-05 0)
(1.010243 3.6436986e-05 0)
(0.85080403 -0.00013079464 -3.2682913e-24)
(0.86068089 -0.00012913662 3.950015e-24)
(0.87302668 -1.1768966e-06 0)
(0.88780793 3.8672613e-05 -2.3819107e-23)
(0.90450911 0.00010454253 -6.8986989e-24)
(0.92219083 0.00022377738 0)
(0.93970841 0.00094725726 -1.0848759e-22)
(0.95667304 0.0014213526 -1.244734e-22)
(0.97149275 0.0027741534 0)
(0.98500685 0.0032949278 0)
(0.9958483 0.0036290373 0)
(1.0064093 0.0047997246 0)
(1.0105214 0.0045537871 0)
(1.0100215 0.0046610574 0)
(1.0100108 0.0043315988 0)
(1.0105061 0.0042921586 0)
(1.0104707 0.0035966763 0)
(1.0101178 0.0030771119 0)
(1.0097668 0.0021368722 0)
(1.0095227 0.0013584195 0)
(1.0093959 0.00041357389 0)
(1.0094274 -0.00043109674 0)
(1.0096043 -0.0012557228 0)
(1.0099272 -0.0019624289 0)
(1.0103672 -0.0025269544 0)
(1.0108818 -0.0029047113 0)
(1.0114162 -0.0030762859 0)
(1.0119125 -0.003039287 0)
(1.0123096 -0.0028164703 0)
(1.0125642 -0.0024500088 0)
(1.012651 -0.0019944649 0)
(1.0125705 -0.0015061891 0)
(1.0123413 -0.001037063 0)
(1.0119992 -0.00062629392 0)
(1.0115882 -0.00030049651 0)
(1.011157 -7.217553e-05 0)
(1.0107543 5.6926867e-05 0)
(1.0104277 9.2383343e-05 0)
(1.0102258 4.7103067e-05 0)
(0.84377753 -0.00010297473 0)
(0.85051639 -9.2150391e-05 0)
(0.86072863 -8.0635774e-06 -4.0747958e-24)
(0.87331478 -2.0503607e-05 0)
(0.88850338 -5.8869663e-05 -3.4982567e-24)
(0.90556929 9.5704676e-05 5.4658665e-23)
(0.92350785 0.00052601459 2.6402212e-22)
(0.94099998 0.0015332584 2.3968496e-22)
(0.95792548 0.0019753317 0)
(0.97266409 0.0032586852 0)
(0.98645371 0.0034777991 0)
(0.99758861 0.0038393787 0)
(1.0074612 0.0050366906 0)
(1.0100426 0.0046311241 0)
(1.0092669 0.004794188 0)
(1.0093238 0.0043227015 0)
(1.0097827 0.0041179945 0)
(1.0097301 0.0032411655 0)
(1.0094516 0.0026007192 0)
(1.0092018 0.0015721206 0)
(1.0090689 0.00073036967 0)
(1.0090578 -0.00025107324 0)
(1.0092089 -0.0011175238 0)
(1.0095094 -0.0019381252 0)
(1.0099536 -0.0026155378 0)
(1.0105069 -0.003121856 0)
(1.0111128 -0.0034162339 0)
(1.0117146 -0.0034860709 0)
(1.0122447 -0.0033393892 0)
(1.0126459 -0.0030099979 0)
(1.0128764 -0.0025501048 0)
(1.0129217 -0.0020198263 0)
(1.0127882 -0.0014791509 0)
(1.0125047 -0.00097794924 0)
(1.0121113 -0.00055325331 0)
(1.0116564 -0.00022677073 0)
(1.0111902 -7.0050811e-06 0)
(1.0107612 0.0001070854 0)
(1.0104168 0.0001241761 0)
(1.0102043 5.8109013e-05 0)
(0.84299151 -3.7890571e-05 -5.1663505e-25)
(0.84373335 3.4607012e-05 0)
(0.85030626 3.8595044e-05 -1.0740108e-23)
(0.86075684 -5.42941e-05 -1.6446128e-23)
(0.87385001 -0.0001655888 -9.7400455e-24)
(0.88941361 -0.00012343511 1.8584121e-23)
(0.90678076 0.0003559439 8.2153493e-24)
(0.92484507 0.0010818726 3.2921969e-23)
(0.9423086 0.0021269828 -3.146934e-22)
(0.95929362 0.0023251862 0)
(0.97411028 0.0034401399 -3.2143268e-22)
(0.98827437 0.0035436521 0)
(0.99955932 0.0040456399 0)
(1.0083215 0.0053061242 0)
(1.0093517 0.0047453283 0)
(1.0083647 0.004847546 0)
(1.0085727 0.004165951 0)
(1.0090431 0.0037790687 0)
(1.0090182 0.0027534661 0)
(1.0088334 0.0020193002 0)
(1.0086908 0.0009244091 0)
(1.0086714 3.184438e-05 0)
(1.0087783 -0.00097483066 0)
(1.0090549 -0.0018550868 0)
(1.009484 -0.0026585046 0)
(1.0100542 -0.0032921866 0)
(1.0107182 -0.0037231484 0)
(1.0114111 -0.0039188379 0)
(1.0120681 -0.0038738257 0)
(1.0126205 -0.0036089239 0)
(1.0130101 -0.0031697181 0)
(1.0132054 -0.0026167858 0)
(1.0131978 -0.0020164098 0)
(1.0130056 -0.001428363 0)
(1.012663 -0.00090161309 0)
(1.0122166 -0.00046807085 0)
(1.0117176 -0.00014522037 0)
(1.0112168 6.2562515e-05 0)
(1.0107626 0.00015974984 0)
(1.0104012 0.00015694006 0)
(1.0101789 6.9330652e-05 0)
(0.8425374 0.00010086349 9.5577127e-24)
(0.84295975 0.00015723926 0)
(0.85071098 5.9832011e-05 -3.2292429e-24)
(0.849967 -1.8550017e-05 1.6437378e-23)
(0.8609937 -0.0002339095 3.8531588e-24)
(0.87456453 -0.0002698269 1.1330946e-22)
(0.89048087 9.6614251e-05 -2.1084067e-22)
(0.90801552 0.00087278962 -9.6997792e-23)
(0.92621323 0.0016503872 -2.9308496e-22)
(0.94374225 0.0024750959 -1.1477335e-22)
(0.96095136 0.0023626266 -4.2213651e-22)
(0.97591817 0.003481325 3.3421477e-22)
(0.99040322 0.0036431629 0)
(1.0015215 0.0044008634 0)
(1.0086522 0.0055999383 0)
(1.0083674 0.0048209296 0)
(1.0073763 0.0047245661 0)
(1.0078265 0.0038179365 0)
(1.0083325 0.0032930627 0)
(1.0083552 0.0021525298 0)
(1.0082719 0.0013492956 0)
(1.0082366 0.00020322062 0)
(1.0083309 -0.00073033267 0)
(1.0085615 -0.0017564733 0)
(1.0089697 -0.002640095 0)
(1.0095351 -0.0034133157 0)
(1.0102327 -0.003985379 0)
(1.011005 -0.0043234455 0)
(1.0117754 -0.0044046201 0)
(1.0124764 -0.004232749 0)
(1.0130345 -0.0038429143 0)
(1.0133996 -0.0032918961 0)
(1.0135457 -0.0026491778 0)
(1.0134772 -0.0019833722 0)
(1.0132191 -0.0013551679 0)
(1.0128147 -0.0008086492 0)
(1.0123143 -0.00037182878 0)
(1.0117714 -5.6774105e-05 0)
(1.0112371 0.00013603253 0)
(1.0107587 0.00021414607 0)
(1.0103813 0.00019044213 0)
(1.0101497 8.0705355e-05 0)
(0.84191966 3.514227e-05 4.3457352e-24)
(0.84250966 0.00028240934 1.2439202e-23)
(0.85044087 0.00020693728 0)
(0.860477 8.9948449e-05 -2.608824e-26)
(0.84978769 -0.00021302785 -5.0834064e-24)
(0.86130847 -0.00037655852 -6.2292193e-23)
(0.87540743 -7.6482383e-05 0)
(0.8916054 0.00058828271 9.6351082e-23)
(0.9092975 0.001397718 -1.4816582e-22)
(0.92771108 0.0019551768 1.1329491e-22)
(0.94545745 0.0024619316 5.2649288e-22)
(0.96300618 0.0022448811 4.3822574e-22)
(0.9780336 0.0035610867 0)
(0.99267756 0.0039249008 0)
(1.0031567 0.0049092605 0)
(1.0083981 0.0057766116 0)
(1.0072035 0.0047346837 0)
(1.0064147 0.0043834209 0)
(1.0071393 0.0033055593 0)
(1.0076702 0.0026876587 0)
(1.0077513 0.0014589975 0)
(1.0077691 0.00060286784 0)
(1.0078378 -0.00058345626 0)
(1.0080488 -0.0015559691 0)
(1.0084109 -0.0025941504 0)
(1.008961 -0.0034705523 0)
(1.0096682 -0.0041963217 0)
(1.010495 -0.0046883495 0)
(1.0113679 -0.0049147507 0)
(1.0122067 -0.0048654201 0)
(1.012935 -0.0045561889 0)
(1.0134842 -0.0040363114 0)
(1.0138084 -0.0033744606 0)
(1.0138945 -0.0026457048 0)
(1.0137552 -0.0019218355 0)
(1.013427 -0.0012598577 0)
(1.0129581 -0.00070059594 0)
(1.0124035 -0.00026560458 0)
(1.0118174 3.7542492e-05 0)
(1.0112507 0.00021258981 0)
(1.0107494 0.00027009464 0)
(1.0103571 0.00022442803 0)
(1.0101171 9.2144767e-05 0)
(0.84159319 -0.00019367455 -6.3466006e-24)
(0.84191478 0.00019545065 -4.3497321e-24)
(0.85028153 0.00033988617 -1.0723806e-23)
(0.86054942 0.00023452707 -3.9192306e-24)
(0.87226828 8.2951749e-05 1.1463592e-23)
(0.84969544 -0.00037040189 6.3472529e-23)
(0.86172607 -0.00021309349 4.6254513e-23)
(0.87626169 0.00039562107 0)
(0.89279836 0.0010969126 1.5216153e-22)
(0.91069641 0.0016461007 -5.0523358e-23)
(0.92947562 0.0018601566 0)
(0.94756105 0.0022800693 -6.2702668e-22)
(0.96540649 0.0021657673 0)
(0.98033509 0.0038528491 0)
(0.99494216 0.0043824483 0)
(1.0043792 0.0053849615 0)
(1.0075886 0.0056518712 0)
(1.0059975 0.0043941224 0)
(1.0055645 0.0038605652 0)
(1.0065257 0.0026739278 0)
(1.0070643 0.0019839088 0)
(1.0072079 0.00068941717 0)
(1.0073201 -0.00020919534 0)
(1.0074921 -0.0014357232 0)
(1.007828 -0.0024458324 0)
(1.0083346 -0.003488803 0)
(1.0090362 -0.0043420279 0)
(1.0098912 -0.0050016079 0)
(1.010844 -0.0053922088 0)
(1.0118096 -0.0054885863 0)
(1.0127016 -0.0052930857 0)
(1.0134418 -0.0048375201 0)
(1.0139633 -0.0041854114 0)
(1.0142328 -0.0034148236 0)
(1.0142463 -0.0026068596 0)
(1.0140298 -0.0018317368 0)
(1.0136267 -0.00114433 0)
(1.0130923 -0.00057839637 0)
(1.0124836 -0.0001506647 0)
(1.0118556 0.0001368363 0)
(1.0112579 0.00029166587 0)
(1.0107352 0.00032696036 0)
(1.0103291 0.00025869277 0)
(1.0100812 0.00010359634 0)
(0.84139585 -0.00040230245 3.8046631e-24)
(0.8415876 -6.7461581e-05 6.3541194e-24)
(0.84998077 0.00024640366 1.6498925e-23)
(0.86069534 0.0003733126 4.0431342e-24)
(0.8726166 0.00021981247 -1.2075416e-23)
(0.88613258 8.5737277e-05 -6.4875547e-24)
(0.8498158 -0.00021759677 -1.0036326e-22)
(0.8621648 0.00024201481 -6.1449279e-23)
(0.87714283 0.00088530915 -1.839109e-22)
(0.8940785 0.0013229949 6.0682503e-23)
(0.9123229 0.0014679196 -6.2607707e-22)
(0.93160205 0.0015714153 2.7573945e-22)
(0.95001146 0.0021377934 0)
(0.96802256 0.0023081783 -5.3089406e-22)
(0.98265694 0.0043581755 9.1666979e-22)
(0.99704891 0.0048121513 0)
(1.0051445 0.0056222023 0)
(1.0065806 0.0052354958 0)