/*--------------------------------*- C++ -*----------------------------------*\
| =========                 |                                                 |
| \\      /  F ield         | OpenFOAM: The Open Source CFD Toolbox           |
|  \\    /   O peration     | Version:  5.0                                   |
|   \\  /    A nd           | Web:      www.OpenFOAM.org                      |
|    \\/     M anipulation  |                                                 |
\*---------------------------------------------------------------------------*/
FoamFile
{
    version     2.0;
    format      ascii;
    class       volSymmTensorField;
    location    "340";
    object      UPrime2Mean;
}
// * * * * * * * * * * * * * * * * * * * * * * * * * * * * * * * * * * * * * //

dimensions      [0 2 -2 0 0 0 0];

internalField   nonuniform List<symmTensor> 
9520
(
(2.5504883e-05 6.2497057e-07 0 2.0225376e-08 0 0)
(2.5803187e-05 1.8356961e-06 0 1.7399057e-07 0 0)
(2.1932561e-05 5.8466265e-07 0 2.0693867e-08 0 0)
(2.6341885e-05 2.9704806e-06 0 4.5309402e-07 0 0)
(2.2240917e-05 1.7193755e-06 0 1.7804599e-07 0 0)
(2.056829e-05 5.7297119e-07 0 2.1122687e-08 0 0)
(2.7084961e-05 4.0332331e-06 0 8.298664e-07 0 0)
(2.2802506e-05 2.7884704e-06 0 4.6394343e-07 0 0)
(2.0877862e-05 1.6866157e-06 0 1.8186271e-07 0 0)
(1.844966e-05 5.528526e-07 0 2.2010715e-08 0 0)
(2.8004386e-05 5.0265754e-06 0 1.2800925e-06 0 0)
(2.3583506e-05 3.7978938e-06 0 8.5058086e-07 0 0)
(2.1441743e-05 2.7391853e-06 0 4.742733e-07 0 0)
(1.8757616e-05 1.6293719e-06 0 1.8963647e-07 0 0)
(1.6885862e-05 5.3792946e-07 0 2.2855273e-08 0 0)
(2.9074647e-05 5.9510671e-06 0 1.7829045e-06 0 0)
(2.4558849e-05 4.7515466e-06 0 1.3136984e-06 0 0)
(2.2227937e-05 3.7378421e-06 0 8.7041127e-07 0 0)
(1.9321284e-05 2.6523253e-06 0 4.9526616e-07 0 0)
(1.7189566e-05 1.5870388e-06 0 1.9709742e-07 0 0)
(1.5203008e-05 5.2179687e-07 0 2.3992553e-08 0 0)
(3.0270335e-05 6.8066707e-06 0 2.3206624e-06 0 0)
(2.5705935e-05 5.6508779e-06 0 1.8323902e-06 0 0)
(2.3212831e-05 4.6872317e-06 0 1.3459243e-06 0 0)
(2.0110676e-05 3.6306202e-06 0 9.1069124e-07 0 0)
(1.7747032e-05 2.5883419e-06 0 5.1550318e-07 0 0)
(1.5497874e-05 1.5410848e-06 0 2.0713039e-07 0 0)
(1.3752738e-05 5.0575586e-07 0 2.5041869e-08 0 0)
(3.156623e-05 7.5924447e-06 0 2.8786194e-06 0 0)
(2.700234e-05 6.496344e-06 0 2.3891328e-06 0 0)
(2.4375202e-05 5.5891926e-06 0 1.8797073e-06 0 0)
(2.1104482e-05 4.5705245e-06 0 1.4115846e-06 0 0)
(1.8530176e-05 3.5523361e-06 0 9.497099e-07 0 0)
(1.6040423e-05 2.5187726e-06 0 5.4278992e-07 0 0)
(1.4038405e-05 1.4952405e-06 0 2.1641544e-07 0 0)
(1.231957e-05 4.8858958e-07 0 2.6258787e-08 0 0)
(3.2936917e-05 8.3072946e-06 0 3.4454663e-06 0 0)
(2.8425844e-05 7.2869606e-06 0 2.9694641e-06 0 0)
(2.5694041e-05 6.4443554e-06 0 2.4537652e-06 0 0)
(2.2283797e-05 5.4749372e-06 0 1.9770505e-06 0 0)
(1.951996e-05 4.4866794e-06 0 1.4753797e-06 0 0)
(1.6804909e-05 3.4671686e-06 0 1.0025693e-06 0 0)
(1.4565078e-05 2.4485752e-06 0 5.6815389e-07 0 0)
(1.2591435e-05 1.4460731e-06 0 2.2717337e-07 0 0)
(1.1041517e-05 4.6924558e-07 0 2.7370024e-08 0 0)
(3.4358103e-05 8.9505272e-06 0 4.0113584e-06 0 0)
(2.9953199e-05 8.0208261e-06 0 3.5609016e-06 0 0)
(2.7148142e-05 7.2519476e-06 0 3.052728e-06 0 0)
(2.3629927e-05 6.3451739e-06 0 2.5893146e-06 0 0)
(2.0699541e-05 5.3950648e-06 0 2.0716337e-06 0 0)
(1.7774495e-05 4.3953099e-06 0 1.5623826e-06 0 0)
(1.530886e-05 3.3796545e-06 0 1.0519659e-06 0 0)
(1.3093092e-05 2.3726448e-06 0 5.9757293e-07 0 0)
(1.129975e-05 1.3903847e-06 0 2.3700101e-07 0 0)
(9.8212049e-06 4.4763332e-07 0 2.8550591e-08 0 0)
(3.5805972e-05 9.5189267e-06 0 4.5711959e-06 0 0)
(3.1561331e-05 8.6950101e-06 0 4.1525469e-06 0 0)
(2.8716393e-05 8.0109944e-06 0 3.6655655e-06 0 0)
(2.5123942e-05 7.1806561e-06 0 3.2331891e-06 0 0)
(2.205175e-05 6.2793013e-06 0 2.7206433e-06 0 0)
(1.8934982e-05 5.3080368e-06 0 2.2016783e-06 0 0)
(1.625495e-05 4.298594e-06 0 1.6441861e-06 0 0)
(1.3803541e-05 3.2835273e-06 0 1.1093494e-06 0 0)
(1.1777115e-05 2.2854988e-06 0 6.2453083e-07 0 0)
(1.006242e-05 1.3277681e-06 0 2.4747731e-07 0 0)
(8.7332367e-06 4.2361065e-07 0 2.957805e-08 0 0)
(3.7259892e-05 1.0019061e-05 0 5.1193687e-06 0 0)
(3.3229174e-05 9.3066031e-06 0 4.7409254e-06 0 0)
(3.0377762e-05 8.7194769e-06 0 4.2819852e-06 0 0)
(2.6745485e-05 7.9794527e-06 0 3.89567e-06 0 0)
(2.3558439e-05 7.1391395e-06 0 3.4071576e-06 0 0)
(2.0271592e-05 6.2080167e-06 0 2.9029097e-06 0 0)
(1.7391271e-05 5.2112825e-06 0 2.3245805e-06 0 0)
(1.4710122e-05 4.1897234e-06 0 1.7394403e-06 0 0)
(1.2454926e-05 3.1708636e-06 0 1.1622121e-06 0 0)
(1.0509059e-05 2.1863548e-06 0 6.5340405e-07 0 0)
(8.9579995e-06 1.2576244e-06 0 2.5663398e-07 0 0)
(7.7198436e-06 3.9779105e-07 0 3.0556782e-08 0 0)
(3.8704788e-05 1.0446908e-05 0 5.6752376e-06 0 0)
(3.4965699e-05 9.8616505e-06 0 5.3190222e-06 0 0)
(3.210966e-05 9.3748199e-06 0 4.8961609e-06 0 0)
(2.8474575e-05 8.7404806e-06 0 4.5661974e-06 0 0)
(2.5199798e-05 7.9736645e-06 0 4.1186399e-06 0 0)
(2.1768367e-05 7.09548e-06 0 3.6509157e-06 0 0)
(1.8704785e-05 6.1210673e-06 0 3.0758482e-06 0 0)
(1.5802947e-05 5.0982958e-06 0 2.468291e-06 0 0)
(1.3322197e-05 4.0582911e-06 0 1.8277461e-06 0 0)
(1.1145096e-05 3.0402324e-06 0 1.2190721e-06 0 0)
(9.375251e-06 2.073968e-06 0 6.7879188e-07 0 0)
(7.9266983e-06 1.1816771e-06 0 2.6543425e-07 0 0)
(6.8251144e-06 3.7087652e-07 0 3.1301883e-08 0 0)
(4.0124345e-05 1.0804878e-05 0 6.1944225e-06 0 0)
(3.6730371e-05 1.0335244e-05 0 5.8886361e-06 0 0)
(3.3888315e-05 9.9738528e-06 0 5.499489e-06 0 0)
(3.0305791e-05 9.4640458e-06 0 5.2376686e-06 0 0)
(2.695683e-05 8.7823561e-06 0 4.8449913e-06 0 0)
(2.3408011e-05 7.9695629e-06 0 4.4331617e-06 0 0)
(2.0181215e-05 7.0287918e-06 0 3.8831632e-06 0 0)
(1.7071364e-05 6.013645e-06 0 3.2791159e-06 0 0)
(1.4370482e-05 4.9557194e-06 0 2.6023309e-06 0 0)
(1.1961611e-05 3.9019299e-06 0 1.9230107e-06 0 0)
(9.9711388e-06 2.8897957e-06 0 1.2695268e-06 0 0)
(8.3117753e-06 1.9510616e-06 0 7.0346338e-07 0 0)
(7.015593e-06 1.1020559e-06 0 2.722046e-07 0 0)
(6.0076929e-06 3.4328104e-07 0 3.1898588e-08 0 0)
(4.1500111e-05 1.1072772e-05 0 6.7616732e-06 0 0)
(3.8453197e-05 1.0758269e-05 0 6.4508786e-06 0 0)
(3.5677381e-05 1.0518276e-05 0 6.1108447e-06 0 0)
(3.2223565e-05 1.0150411e-05 0 5.8994098e-06 0 0)
(2.8799116e-05 9.5621725e-06 0 5.5796887e-06 0 0)
(2.5175018e-05 8.829439e-06 0 5.238886e-06 0 0)
(2.1804469e-05 7.9338358e-06 0 4.7342929e-06 0 0)
(1.8504141e-05 6.9374465e-06 0 4.157306e-06 0 0)
(1.5590273e-05 5.8681835e-06 0 3.4698075e-06 0 0)
(1.2951144e-05 4.7799153e-06 0 2.7473956e-06 0 0)
(1.0738417e-05 3.71834e-06 0 2.0084807e-06 0 0)
(8.8633292e-06 2.7229741e-06 0 1.319082e-06 0 0)
(7.3710222e-06 1.8210921e-06 0 7.2272813e-07 0 0)
(6.1818284e-06 1.0200685e-06 0 2.7772167e-07 0 0)
(5.293305e-06 3.1560494e-07 0 3.2228004e-08 0 0)
(4.2826943e-05 1.1295953e-05 0 7.2617314e-06 0 0)
(4.0212644e-05 1.1100032e-05 0 7.0519876e-06 0 0)
(3.7491021e-05 1.1015844e-05 0 6.7002067e-06 0 0)
(3.4154521e-05 1.0777521e-05 0 6.5594078e-06 0 0)
(3.0717691e-05 1.0314158e-05 0 6.3171185e-06 0 0)
(2.7060981e-05 9.6726055e-06 0 6.0594698e-06 0 0)
(2.3555045e-05 8.832493e-06 0 5.6194581e-06 0 0)
(2.0089218e-05 7.8694815e-06 0 5.0904328e-06 0 0)
(1.6970907e-05 6.7979265e-06 0 4.4159887e-06 0 0)
(1.4106361e-05 5.6800999e-06 0 3.6769395e-06 0 0)
(1.167116e-05 4.5685204e-06 0 2.8790122e-06 0 0)
(9.5760296e-06 3.5110351e-06 0 2.0931621e-06 0 0)
(7.8812149e-06 2.5446499e-06 0 1.35853e-06 0 0)
(6.5073365e-06 1.6862765e-06 0 7.3883473e-07 0 0)
(5.4532638e-06 9.3770675e-07 0 2.8087665e-07 0 0)
(4.6521707e-06 2.8767261e-07 0 3.2378246e-08 0 0)
(4.40868e-05 1.1389685e-05 0 7.9104847e-06 0 0)
(4.1973664e-05 1.1417312e-05 0 7.6235393e-06 0 0)
(3.9357967e-05 1.1443212e-05 0 7.3290004e-06 0 0)
(3.6082468e-05 1.1356852e-05 0 7.2180107e-06 0 0)
(3.2679848e-05 1.102241e-05 0 7.0693101e-06 0 0)
(2.9032097e-05 1.049468e-05 0 6.8953244e-06 0 0)
(2.5420117e-05 9.722373e-06 0 6.5339356e-06 0 0)
(2.1817294e-05 8.8083336e-06 0 6.0675873e-06 0 0)
(1.8499842e-05 7.7449359e-06 0 5.4282754e-06 0 0)
(1.5419056e-05 6.6058524e-06 0 4.698011e-06 0 0)
(1.2762673e-05 5.4464338e-06 0 3.8668798e-06 0 0)
(1.0445365e-05 4.3243101e-06 0 3.0104257e-06 0 0)
(8.5423649e-06 3.2864211e-06 0 2.1621152e-06 0 0)
(6.9759441e-06 2.3578886e-06 0 1.3923594e-06 0 0)
(5.7524762e-06 1.5501657e-06 0 7.4855442e-07 0 0)
(4.7985774e-06 8.5445842e-07 0 2.8247631e-07 0 0)
(4.0988776e-06 2.5990716e-07 0 3.228507e-08 0 0)
(4.5263864e-05 1.1526011e-05 0 8.5286344e-06 0 0)
(4.3793908e-05 1.1565531e-05 0 8.3497575e-06 0 0)
(4.1257883e-05 1.182981e-05 0 7.9226368e-06 0 0)
(3.8073554e-05 1.1883668e-05 0 7.9361035e-06 0 0)
(3.4681588e-05 1.1685385e-05 0 7.833269e-06 0 0)
(3.1065574e-05 1.1272226e-05 0 7.7547804e-06 0 0)
(2.7396583e-05 1.0600474e-05 0 7.4736908e-06 0 0)
(2.367284e-05 9.7503627e-06 0 7.0818473e-06 0 0)
(2.0164086e-05 8.7078794e-06 0 6.4962349e-06 0 0)
(1.6879731e-05 7.5588492e-06 0 5.7981727e-06 0 0)
(1.4004457e-05 6.3554629e-06 0 4.9593698e-06 0 0)
(1.1466293e-05 5.1692839e-06 0 4.0579825e-06 0 0)
(9.3517521e-06 4.0556023e-06 0 3.119904e-06 0 0)
(7.585349e-06 3.0482652e-06 0 2.222642e-06 0 0)
(6.1839597e-06 2.1679779e-06 0 1.4139969e-06 0 0)
(5.0725132e-06 1.411894e-06 0 7.5422074e-07 0 0)
(4.2339326e-06 7.7174161e-07 0 2.8190723e-07 0 0)
(3.6131787e-06 2.3205199e-07 0 3.2016148e-08 0 0)
(4.6355451e-05 1.1325823e-05 0 9.3535825e-06 0 0)
(4.5628899e-05 1.1804338e-05 0 9.1161726e-06 0 0)
(4.3236681e-05 1.2073071e-05 0 8.7212371e-06 0 0)
(4.0117224e-05 1.2362124e-05 0 8.6455971e-06 0 0)
(3.6779753e-05 1.2293608e-05 0 8.6684727e-06 0 0)
(3.3154118e-05 1.2006223e-05 0 8.6509533e-06 0 0)
(2.9464277e-05 1.1443885e-05 0 8.4511088e-06 0 0)
(2.5647722e-05 1.0689637e-05 0 8.130593e-06 0 0)
(2.1958195e-05 9.686612e-06 0 7.6119202e-06 0 0)
(1.8476847e-05 8.5391141e-06 0 6.965893e-06 0 0)
(1.5385254e-05 7.2969613e-06 0 6.1447668e-06 0 0)
(1.2632356e-05 6.0499536e-06 0 5.2243337e-06 0 0)
(1.0305642e-05 4.8588454e-06 0 4.2204294e-06 0 0)
(8.3344969e-06 3.7667202e-06 0 3.2178803e-06 0 0)
(6.7464659e-06 2.8037692e-06 0 2.2636763e-06 0 0)
(5.4687653e-06 1.9736949e-06 0 1.4281803e-06 0 0)
(4.4866732e-06 1.2741952e-06 0 7.539454e-07 0 0)
(3.7377114e-06 6.8861261e-07 0 2.7981105e-07 0 0)
(3.2018697e-06 2.0470745e-07 0 3.1534883e-08 0 0)
(4.7122921e-05 1.1432645e-05 0 1.0455447e-05 0 0)
(4.7827027e-05 1.1469e-05 0 1.0195567e-05 0 0)
(4.536782e-05 1.2363989e-05 0 9.5555522e-06 0 0)
(4.2312089e-05 1.2727162e-05 0 9.6266056e-06 0 0)
(3.8947878e-05 1.2836114e-05 0 9.5431924e-06 0 0)
(3.5384721e-05 1.268534e-05 0 9.643078e-06 0 0)
(3.1613101e-05 1.2246959e-05 0 9.4828005e-06 0 0)
(2.7731067e-05 1.1608615e-05 0 9.2251412e-06 0 0)
(2.3876772e-05 1.0677858e-05 0 8.7705636e-06 0 0)
(2.0198144e-05 9.5459124e-06 0 8.1928233e-06 0 0)
(1.6894112e-05 8.2717221e-06 0 7.4126089e-06 0 0)
(1.3934793e-05 6.9684308e-06 0 6.4988349e-06 0 0)
(1.1398383e-05 5.6999982e-06 0 5.4534271e-06 0 0)
(9.2210904e-06 4.520244e-06 0 4.3682053e-06 0 0)
(7.4401588e-06 3.4668563e-06 0 3.2878904e-06 0 0)
(5.9870899e-06 2.551533e-06 0 2.2930742e-06 0 0)
(4.8529956e-06 1.7793814e-06 0 1.4308858e-06 0 0)
(3.9710009e-06 1.1352077e-06 0 7.4964313e-07 0 0)
(3.3179782e-06 6.0695832e-07 0 2.7583011e-07 0 0)
(2.8510723e-06 1.7794736e-07 0 3.088126e-08 0 0)
(4.7826864e-05 1.0552721e-05 0 1.1541291e-05 0 0)
(5.0018378e-05 1.2027597e-05 0 1.1884253e-05 0 0)
(4.8013139e-05 1.2110803e-05 0 1.0921029e-05 0 0)
(4.4772277e-05 1.3058358e-05 0 1.0712409e-05 0 0)
(4.1395954e-05 1.3273789e-05 0 1.0784361e-05 0 0)
(3.7749693e-05 1.3284308e-05 0 1.0739684e-05 0 0)
(3.3943231e-05 1.2998796e-05 0 1.063882e-05 0 0)
(2.9907639e-05 1.2493197e-05 0 1.0385053e-05 0 0)
(2.5911697e-05 1.1669805e-05 0 9.9813511e-06 0 0)
(2.2033961e-05 1.0578399e-05 0 9.4733776e-06 0 0)
(1.851994e-05 9.2809334e-06 0 8.7557202e-06 0 0)
(1.5362059e-05 7.924865e-06 0 7.8721218e-06 0 0)
(1.2621951e-05 6.5805691e-06 0 6.8092127e-06 0 0)
(1.0241354e-05 5.3132246e-06 0 5.6646256e-06 0 0)
(8.2638966e-06 4.1645771e-06 0 4.4785372e-06 0 0)
(6.6284755e-06 3.1547285e-06 0 3.3414213e-06 0 0)
(5.3332095e-06 2.2977107e-06 0 2.3038006e-06 0 0)
(4.3103331e-06 1.5820429e-06 0 1.4261118e-06 0 0)
(3.5360057e-06 9.9848383e-07 0 7.4014687e-07 0 0)
(2.9598636e-06 5.2674529e-07 0 2.7035233e-07 0 0)
(2.5613155e-06 1.5250712e-07 0 3.0041801e-08 0 0)
(4.6903982e-05 1.0692168e-05 0 1.387002e-05 0 0)
(5.2995803e-05 1.0217585e-05 0 1.3753253e-05 0 0)
(5.0856908e-05 1.2600843e-05 0 1.2993169e-05 0 0)
(4.8001142e-05 1.2959315e-05 0 1.2676759e-05 0 0)
(4.4303261e-05 1.3628431e-05 0 1.2293503e-05 0 0)
(4.0560541e-05 1.3758443e-05 0 1.2312047e-05 0 0)
(3.6540523e-05 1.36653e-05 0 1.1960948e-05 0 0)
(3.2285556e-05 1.3337827e-05 0 1.1696648e-05 0 0)
(2.8049663e-05 1.2642775e-05 0 1.1265797e-05 0 0)
(2.3981561e-05 1.1629547e-05 0 1.0816107e-05 0 0)
(2.0253009e-05 1.032541e-05 0 1.016937e-05 0 0)
(1.6901411e-05 8.9185502e-06 0 9.3387996e-06 0 0)
(1.3967375e-05 7.5001965e-06 0 8.2802431e-06 0 0)
(1.1389894e-05 6.1475864e-06 0 7.0984141e-06 0 0)
(9.2152496e-06 4.9018205e-06 0 5.8278533e-06 0 0)
(7.392585e-06 3.7909905e-06 0 4.5670914e-06 0 0)
(5.9284782e-06 2.8381202e-06 0 3.3677e-06 0 0)
(4.7566388e-06 2.0382484e-06 0 2.302726e-06 0 0)
(3.853991e-06 1.3873503e-06 0 1.4111882e-06 0 0)
(3.1648513e-06 8.6348704e-07 0 7.2666471e-07 0 0)
(2.6648533e-06 4.5032391e-07 0 2.6322263e-07 0 0)
(2.3223048e-06 1.2865044e-07 0 2.9044673e-08 0 0)
(4.4699991e-05 8.0924719e-06 0 1.510485e-05 0 0)
(5.4332326e-05 1.1886498e-05 0 1.7889746e-05 0 0)
(5.541035e-05 1.059727e-05 0 1.5914561e-05 0 0)
(5.1962507e-05 1.3304992e-05 0 1.5533893e-05 0 0)
(4.8281159e-05 1.3548977e-05 0 1.5041112e-05 0 0)
(4.411846e-05 1.4103504e-05 0 1.4371399e-05 0 0)
(3.9728225e-05 1.4188781e-05 0 1.3883084e-05 0 0)
(3.5044967e-05 1.4105315e-05 0 1.3223646e-05 0 0)
(3.0388442e-05 1.3588702e-05 0 1.2723117e-05 0 0)
(2.6035775e-05 1.2679114e-05 0 1.2245975e-05 0 0)
(2.2090477e-05 1.1399904e-05 0 1.1666152e-05 0 0)
(1.8543583e-05 9.9490605e-06 0 1.0897964e-05 0 0)
(1.5425706e-05 8.4574775e-06 0 9.8622782e-06 0 0)
(1.266018e-05 7.022655e-06 0 8.6623273e-06 0 0)
(1.029044e-05 5.6810027e-06 0 7.3275444e-06 0 0)
(8.2778739e-06 4.4660226e-06 0 5.963777e-06 0 0)
(6.6389877e-06 3.4084817e-06 0 4.6187674e-06 0 0)
(5.3112501e-06 2.5122354e-06 0 3.377124e-06 0 0)
(4.2730834e-06 1.7811323e-06 0 2.2849502e-06 0 0)
(3.4650932e-06 1.1938909e-06 0 1.388711e-06 0 0)
(2.8609157e-06 7.346709e-07 0 7.0859371e-07 0 0)
(2.421973e-06 3.7834459e-07 0 2.5470449e-07 0 0)
(2.1303496e-06 1.0691491e-07 0 2.7902751e-08 0 0)
(4.1274031e-05 7.2098739e-06 0 1.9874555e-05 0 0)
(5.7219293e-05 6.3102187e-06 0 2.110117e-05 0 0)
(5.8805039e-05 1.2428309e-05 0 2.1749591e-05 0 0)
(5.8527502e-05 1.1291564e-05 0 2.0340982e-05 0 0)
(5.3818828e-05 1.3698776e-05 0 1.9164709e-05 0 0)
(4.9180363e-05 1.3990473e-05 0 1.8147493e-05 0 0)
(4.4008103e-05 1.4543006e-05 0 1.6534439e-05 0 0)
(3.8545987e-05 1.4738543e-05 0 1.5465992e-05 0 0)
(3.3180303e-05 1.4483197e-05 0 1.4443416e-05 0 0)
(2.8283178e-05 1.3712754e-05 0 1.3876787e-05 0 0)
(2.4036183e-05 1.2482795e-05 0 1.3279215e-05 0 0)
(2.0289135e-05 1.1010893e-05 0 1.2569571e-05 0 0)
(1.6991345e-05 9.4490412e-06 0 1.1559149e-05 0 0)
(1.4046853e-05 7.9351957e-06 0 1.0352098e-05 0 0)
(1.1485647e-05 6.5020691e-06 0 8.9701978e-06 0 0)
(9.2818143e-06 5.1834893e-06 0 7.5239158e-06 0 0)
(7.4636638e-06 4.0152471e-06 0 6.0525345e-06 0 0)
(5.9744313e-06 3.0117338e-06 0 4.6481235e-06 0 0)
(4.7944958e-06 2.1871521e-06 0 3.361876e-06 0 0)
(3.8621853e-06 1.52393e-06 0 2.2550041e-06 0 0)
(3.1490202e-06 1.0088252e-06 0 1.3571288e-06 0 0)
(2.6116204e-06 6.1265091e-07 0 6.8673444e-07 0 0)
(2.2280736e-06 3.1262162e-07 0 2.4487691e-07 0 0)
(1.9774073e-06 8.7446009e-08 0 2.6647116e-08 0 0)
(4.2785766e-05 4.6078092e-06 0 2.1635884e-05 0 0)
(5.8671523e-05 7.3239214e-06 0 2.9657607e-05 0 0)
(6.5530897e-05 5.2890548e-06 0 2.8376988e-05 0 0)
(6.5555648e-05 1.278329e-05 0 2.8826839e-05 0 0)
(6.3118238e-05 1.156035e-05 0 2.6530883e-05 0 0)
(5.6898558e-05 1.385614e-05 0 2.3935977e-05 0 0)
(5.0358161e-05 1.4426189e-05 0 2.142278e-05 0 0)
(4.347556e-05 1.5182702e-05 0 1.8689674e-05 0 0)
(3.6843627e-05 1.5266357e-05 0 1.6982755e-05 0 0)
(3.102254e-05 1.4724937e-05 0 1.5831292e-05 0 0)
(2.61861e-05 1.3554085e-05 0 1.5135909e-05 0 0)
(2.2153505e-05 1.2076968e-05 0 1.4396862e-05 0 0)
(1.8671469e-05 1.0467026e-05 0 1.3396277e-05 0 0)
(1.5549713e-05 8.8793279e-06 0 1.2173333e-05 0 0)
(1.2799531e-05 7.3624076e-06 0 1.0750306e-05 0 0)
(1.0401895e-05 5.9450294e-06 0 9.2393061e-06 0 0)
(8.3999724e-06 4.6633953e-06 0 7.6624216e-06 0 0)
(6.744949e-06 3.5437037e-06 0 6.1136813e-06 0 0)
(5.4187114e-06 2.6126371e-06 0 4.6437599e-06 0 0)
(4.3576297e-06 1.8596535e-06 0 3.328886e-06 0 0)
(3.5310151e-06 1.2768891e-06 0 2.2097709e-06 0 0)
(2.8914608e-06 8.3229097e-07 0 1.3181673e-06 0 0)
(2.4149958e-06 5.0111453e-07 0 6.6114772e-07 0 0)
(2.0745964e-06 2.5358721e-07 0 2.3400939e-07 0 0)
(1.8581235e-06 7.0397518e-08 0 2.5306252e-08 0 0)
(4.3148103e-05 3.6910984e-06 0 3.0390054e-05 0 0)
(7.0109414e-05 -8.2683051e-07 0 3.6033234e-05 0 0)
(7.1654945e-05 5.9714566e-06 0 4.1201819e-05 0 0)
(7.7622191e-05 4.4082103e-06 0 4.1154465e-05 0 0)
(7.5573676e-05 1.2313076e-05 0 3.8930558e-05 0 0)
(6.9733263e-05 1.14656e-05 0 3.4641528e-05 0 0)
(6.0572571e-05 1.4050064e-05 0 2.9120821e-05 0 0)
(5.1078622e-05 1.5167637e-05 0 2.4690593e-05 0 0)
(4.2248124e-05 1.5865978e-05 0 2.0761343e-05 0 0)
(3.4740286e-05 1.5654511e-05 0 1.8725544e-05 0 0)
(2.8856316e-05 1.4620754e-05 0 1.7413491e-05 0 0)
(2.4258013e-05 1.3122354e-05 0 1.6529698e-05 0 0)
(2.0495335e-05 1.1476838e-05 0 1.5429022e-05 0 0)
(1.7186501e-05 9.8451148e-06 0 1.4152037e-05 0 0)
(1.4237149e-05 8.2556762e-06 0 1.2670874e-05 0 0)
(1.1638449e-05 6.7496372e-06 0 1.110197e-05 0 0)
(9.4453011e-06 5.3566553e-06 0 9.4401302e-06 0 0)
(7.619723e-06 4.1143693e-06 0 7.769178e-06 0 0)
(6.1443692e-06 3.0645886e-06 0 6.1315326e-06 0 0)
(4.9518796e-06 2.2073191e-06 0 4.6154159e-06 0 0)
(4.008662e-06 1.5431152e-06 0 3.2728169e-06 0 0)
(3.2640151e-06 1.0394682e-06 0 2.15225e-06 0 0)
(2.6917109e-06 6.7065015e-07 0 1.2716188e-06 0 0)
(2.2612075e-06 4.0045708e-07 0 6.3260429e-07 0 0)
(1.956289e-06 2.0187558e-07 0 2.2234515e-07 0 0)
(1.7664052e-06 5.5691952e-08 0 2.3910039e-08 0 0)
(4.971949e-05 -1.1641278e-05 0 3.2398887e-05 0 0)
(7.6715589e-05 3.6071677e-06 0 5.3703841e-05 0 0)
(9.1957979e-05 -5.9504062e-06 0 5.662233e-05 0 0)
(9.1561106e-05 3.6604152e-06 0 6.0910327e-05 0 0)
(9.5215234e-05 2.7340524e-06 0 5.8981745e-05 0 0)
(8.9320825e-05 1.0939625e-05 0 5.2127755e-05 0 0)
(7.7608139e-05 1.1506544e-05 0 4.3630695e-05 0 0)
(6.3780615e-05 1.4709801e-05 0 3.4432922e-05 0 0)
(5.0940693e-05 1.6025409e-05 0 2.7854526e-05 0 0)
(4.0501361e-05 1.6432349e-05 0 2.3138287e-05 0 0)
(3.2608194e-05 1.5620095e-05 0 2.0799414e-05 0 0)
(2.6929747e-05 1.415159e-05 0 1.9201013e-05 0 0)
(2.2607181e-05 1.2445938e-05 0 1.7826553e-05 0 0)
(1.8997907e-05 1.079323e-05 0 1.6352175e-05 0 0)
(1.582518e-05 9.1720536e-06 0 1.4755786e-05 0 0)
(1.2999602e-05 7.5935484e-06 0 1.3110062e-05 0 0)
(1.059925e-05 6.0970488e-06 0 1.1375764e-05 0 0)
(8.5947395e-06 4.7295697e-06 0 9.6072069e-06 0 0)
(6.9675973e-06 3.5499903e-06 0 7.8233709e-06 0 0)
(5.6433354e-06 2.5735618e-06 0 6.1191033e-06 0 0)
(4.5828775e-06 1.812546e-06 0 4.5546865e-06 0 0)
(3.7319e-06 1.2365873e-06 0 3.1981368e-06 0 0)
(3.0612953e-06 8.2132942e-07 0 2.0815749e-06 0 0)
(2.5384002e-06 5.2382205e-07 0 1.2190034e-06 0 0)
(2.1453918e-06 3.1229174e-07 0 6.0168923e-07 0 0)
(1.8666085e-06 1.5728046e-07 0 2.1015586e-07 0 0)
(1.6973137e-06 4.3184325e-08 0 2.2485728e-08 0 0)
(7.9906309e-05 -2.8335358e-05 0 4.6189544e-05 0 0)
(0.00011281675 -3.1430606e-05 0 6.1660055e-05 0 0)
(0.0001062318 2.1780523e-06 0 8.4472117e-05 0 0)
(0.0001249574 -1.0896854e-05 0 8.9149288e-05 0 0)
(0.00012122679 -3.919324e-07 0 8.9612779e-05 0 0)
(0.00011917483 1.1317059e-08 0 8.2133827e-05 0 0)
(0.00010539452 9.6785715e-06 0 6.7171773e-05 0 0)
(8.5222644e-05 1.2224128e-05 0 5.3047102e-05 0 0)
(6.5966049e-05 1.5620779e-05 0 3.970745e-05 0 0)
(5.0169156e-05 1.6808151e-05 0 3.144152e-05 0 0)
(3.8687388e-05 1.6496702e-05 0 2.6059996e-05 0 0)
(3.0814795e-05 1.5093573e-05 0 2.3184837e-05 0 0)
(2.536838e-05 1.336839e-05 0 2.0871396e-05 0 0)
(2.114804e-05 1.1683228e-05 0 1.8947132e-05 0 0)
(1.7614093e-05 1.007333e-05 0 1.70674e-05 0 0)
(1.4516447e-05 8.4697203e-06 0 1.528147e-05 0 0)
(1.1869374e-05 6.8850979e-06 0 1.3463945e-05 0 0)
(9.6672154e-06 5.3943012e-06 0 1.1617654e-05 0 0)
(7.8828227e-06 4.0759068e-06 0 9.7143991e-06 0 0)
(6.4276293e-06 2.96551e-06 0 7.8418783e-06 0 0)
(5.2523156e-06 2.0908551e-06 0 6.0637788e-06 0 0)
(4.2963632e-06 1.4270147e-06 0 4.4677028e-06 0 0)
(3.5271521e-06 9.5336295e-07 0 3.1028406e-06 0 0)
(2.9102474e-06 6.2169269e-07 0 2.0002845e-06 0 0)
(2.4272316e-06 3.9534433e-07 0 1.1612644e-06 0 0)
(2.0600627e-06 2.3613181e-07 0 5.6916208e-07 0 0)
(1.8005075e-06 1.1947563e-07 0 1.9768513e-07 0 0)
(1.6463925e-06 3.2663043e-08 0 2.1057233e-08 0 0)
(0.00014656717 -4.3834614e-05 0 5.0484674e-05 0 0)
(0.00016491682 -5.6977375e-05 0 9.307353e-05 0 0)
(0.00016093475 -5.2295288e-05 0 0.00011103399 0 0)
(0.00015542659 3.1966939e-07 0 0.00013421042 0 0)
(0.00017242812 -1.6827636e-05 0 0.00013429589 0 0)
(0.0001615343 -6.5355333e-06 0 0.00012750772 0 0)
(0.00014797459 -2.4102122e-06 0 0.00010862437 0 0)
(0.00012148376 9.3818869e-06 0 8.344884e-05 0 0)
(9.1862352e-05 1.3283764e-05 0 6.2519114e-05 0 0)
(6.7412762e-05 1.6600477e-05 0 4.5591144e-05 0 0)
(4.9290485e-05 1.7001918e-05 0 3.5893014e-05 0 0)
(3.7315176e-05 1.5895009e-05 0 2.9454046e-05 0 0)
(2.9512927e-05 1.4157689e-05 0 2.5414136e-05 0 0)
(2.4045845e-05 1.2498354e-05 0 2.225888e-05 0 0)
(1.9772798e-05 1.0914814e-05 0 1.9775869e-05 0 0)
(1.6246103e-05 9.3477648e-06 0 1.7670132e-05 0 0)
(1.3285268e-05 7.7189737e-06 0 1.5714147e-05 0 0)
(1.0841267e-05 6.1138562e-06 0 1.3793259e-05 0 0)
(8.8841254e-06 4.6494301e-06 0 1.1796874e-05 0 0)
(7.2980906e-06 3.3907297e-06 0 9.782729e-06 0 0)
(6.0126606e-06 2.3846534e-06 0 7.8064068e-06 0 0)
(4.9564522e-06 1.6152315e-06 0 5.973483e-06 0 0)
(4.0913429e-06 1.0684164e-06 0 4.3505253e-06 0 0)
(3.3815776e-06 6.9222888e-07 0 2.9905615e-06 0 0)
(2.8066588e-06 4.4682843e-07 0 1.9096184e-06 0 0)
(2.3494172e-06 2.8399129e-07 0 1.0998606e-06 0 0)
(2.0000832e-06 1.7178281e-07 0 5.3567655e-07 0 0)
(1.7532305e-06 8.784213e-08 0 1.8515517e-07 0 0)
(1.6099373e-06 2.3910876e-08 0 1.964439e-08 0 0)
(0.00026672356 -6.0492561e-05 0 6.5068586e-05 0 0)
(0.00024249129 -9.10952e-05 0 0.00011423351 0 0)
(0.00023436435 -9.3576083e-05 0 0.00016174975 0 0)
(0.0002317382 -7.2071226e-05 0 0.00018849639 0 0)
(0.00023238115 -2.4539667e-06 0 0.00020736183 0 0)
(0.00023628626 -2.5274448e-05 0 0.00019336808 0 0)
(0.00021034918 -1.2315728e-05 0 0.00017200006 0 0)
(0.00017829266 -3.5537709e-06 0 0.00013778974 0 0)
(0.00013670936 9.6602226e-06 0 0.00010026421 0 0)
(9.7824693e-05 1.4562572e-05 0 7.2814003e-05 0 0)
(6.8687953e-05 1.6962408e-05 0 5.2823015e-05 0 0)
(4.8978389e-05 1.6285351e-05 0 4.1055356e-05 0 0)
(3.6609713e-05 1.4748241e-05 0 3.2627096e-05 0 0)
(2.8506263e-05 1.3139926e-05 0 2.7184849e-05 0 0)
(2.2758697e-05 1.1673394e-05 0 2.3221685e-05 0 0)
(1.8349625e-05 1.0184422e-05 0 2.0437831e-05 0 0)
(1.490694e-05 8.5808214e-06 0 1.8173013e-05 0 0)
(1.2140158e-05 6.8924213e-06 0 1.6139427e-05 0 0)
(9.9711326e-06 5.2790271e-06 0 1.4065555e-05 0 0)
(8.2473744e-06 3.8574589e-06 0 1.1938074e-05 0 0)
(6.8573032e-06 2.7010397e-06 0 9.7864384e-06 0 0)
(5.7085655e-06 1.8069239e-06 0 7.7265229e-06 0 0)
(4.7538564e-06 1.1692228e-06 0 5.8411828e-06 0 0)
(3.955261e-06 7.3495312e-07 0 4.2079402e-06 0 0)
(3.2896405e-06 4.6263851e-07 0 2.8626784e-06 0 0)
(2.7406022e-06 2.9444988e-07 0 1.8119913e-06 0 0)
(2.2995744e-06 1.9033324e-07 0 1.0360375e-06 0 0)
(1.9600864e-06 1.1814046e-07 0 5.0183732e-07 0 0)
(1.7207874e-06 6.1738017e-08 0 1.7274692e-07 0 0)
(1.5848445e-06 1.6714782e-08 0 1.8261309e-08 0 0)
(0.00046547399 -7.4859355e-05 -4.450013e-26 7.4836945e-05 8.6773022e-26 1.7222309e-46)
(0.0003746334 -0.00011700151 0 0.00015198325 0 0)
(0.00032475573 -0.00014848974 0 0.00021265343 0 0)
(0.00033389636 -0.00013622508 0 0.00026569551 0 0)
(0.0003357595 -8.9658834e-05 0 0.00029896218 0 0)
(0.00034161023 -7.5029028e-06 0 0.00030516592 0 0)
(0.00031426835 -3.4182002e-05 0 0.00026407913 0 0)
(0.00026325158 -1.6525574e-05 0 0.00022174357 0 0)
(0.00020879695 -3.9918876e-06 0 0.00016833554 0 0)
(0.00015139608 1.0686876e-05 0 0.00011843863 0 0)
(0.00010354013 1.5171545e-05 0 8.5146337e-05 0 0)
(7.0651668e-05 1.6087005e-05 0 6.112696e-05 0 0)
(4.9514413e-05 1.4842051e-05 0 4.5856431e-05 0 0)
(3.6257056e-05 1.3531182e-05 0 3.5068965e-05 0 0)
(2.7453756e-05 1.2251191e-05 0 2.8323085e-05 0 0)
(2.1317205e-05 1.0957099e-05 0 2.3927843e-05 0 0)
(1.6883554e-05 9.4325675e-06 0 2.0992885e-05 0 0)
(1.3623997e-05 7.7246881e-06 0 1.8698975e-05 0 0)
(1.1159964e-05 5.973448e-06 0 1.652779e-05 0 0)
(9.2718038e-06 4.3745965e-06 0 1.430818e-05 0 0)
(7.778861e-06 3.0476122e-06 0 1.2006098e-05 0 0)
(6.5473017e-06 2.0083113e-06 0 9.7360237e-06 0 0)
(5.5123436e-06 1.260101e-06 0 7.5906484e-06 0 0)
(4.6321767e-06 7.5082781e-07 0 5.6728678e-06 0 0)
(3.8802659e-06 4.4018354e-07 0 4.0410852e-06 0 0)
(3.241289e-06 2.6129735e-07 0 2.722593e-06 0 0)
(2.7061181e-06 1.6669171e-07 0 1.7096861e-06 0 0)
(2.2712169e-06 1.1246602e-07 0 9.7144133e-07 0 0)
(1.9355205e-06 7.4274764e-08 0 4.6830495e-07 0 0)
(1.6998013e-06 4.0494014e-08 0 1.6059371e-07 0 0)
(1.5685411e-06 1.088384e-08 0 1.6918049e-08 0 0)
(0.00074812754 -8.9086933e-05 7.4563591e-26 9.3343853e-05 -1.4153713e-25 5.211407e-46)
(0.00058125099 -0.0001484421 1.1671908e-25 0.00019059329 9.1865816e-27 1.8807116e-46)
(0.00046356185 -0.00018486019 0 0.00027680325 0 0)
(0.00044028335 -0.0002172707 0 0.00035877756 0 0)
(0.00047478399 -0.00018768494 0 0.00042008747 0 0)
(0.00048348135 -0.00010625631 0 0.00044742345 0 0)
(0.00048035034 -1.1769433e-05 0 0.00042235312 0 0)
(0.0003992816 -4.2620381e-05 0 0.00034684463 0 0)
(0.00031911859 -2.0080635e-05 0 0.00027428082 0 0)
(0.00023941193 -2.9734366e-06 0 0.0002008574 0 0)
(0.0001656565 1.1370912e-05 0 0.00013974754 0 0)
(0.0001100248 1.4068915e-05 0 9.9099916e-05 0 0)
(7.3682156e-05 1.4235802e-05 0 6.8865802e-05 0 0)
(5.0458915e-05 1.335844e-05 0 4.9483287e-05 0 0)
(3.5715687e-05 1.2567252e-05 0 3.6558363e-05 0 0)
(2.6081349e-05 1.1578031e-05 0 2.9058773e-05 0 0)
(1.9711888e-05 1.0262849e-05 0 2.4517903e-05 0 0)
(1.5433522e-05 8.579916e-06 0 2.1618873e-05 0 0)
(1.2507933e-05 6.7371468e-06 0 1.9229519e-05 0 0)
(1.0382385e-05 4.9526177e-06 0 1.6906491e-05 0 0)
(8.7741122e-06 3.4326844e-06 0 1.447257e-05 0 0)
(7.4672975e-06 2.2260712e-06 0 1.2010538e-05 0 0)
(6.3634944e-06 1.3461221e-06 0 9.6135593e-06 0 0)
(5.4114741e-06 7.4267246e-07 0 7.4059153e-06 0 0)
(4.5808911e-06 3.781852e-07 0 5.4686978e-06 0 0)
(3.857182e-06 1.7957089e-07 0 3.8544039e-06 0 0)
(3.228821e-06 9.2581649e-08 0 2.5736544e-06 0 0)
(2.6958318e-06 6.0343697e-08 0 1.6042197e-06 0 0)
(2.2598437e-06 4.9481546e-08 0 9.0684859e-07 0 0)
(1.9227729e-06 3.908445e-08 0 4.3537549e-07 0 0)
(1.6875305e-06 2.3491914e-08 0 1.4878119e-07 0 0)
(1.5589063e-06 6.253393e-09 0 1.5622089e-08 0 0)
(0.001135695 -9.6628312e-05 -6.2261468e-26 0.00011204446 1.5134789e-25 5.2538679e-46)
(0.00085940841 -0.00017385964 -2.7636159e-25 0.00024616674 -5.7751031e-27 1.1638364e-45)
(0.0006764611 -0.00023369525 0 0.00035653301 0 0)
(0.00058780699 -0.00026584442 0 0.0004608474 0 0)
(0.00060322784 -0.0003026649 0 0.00057239169 0 0)
(0.00066104349 -0.00024722491 0 0.00063345492 0 0)
(0.00067554622 -0.00011789653 0 0.00063044432 0 0)
(0.0006321401 -1.6203903e-05 0 0.00055569017 0 0)
(0.00048979527 -5.1068614e-05 0 0.00043794097 0 0)
(0.00037734078 -2.1628712e-05 0 0.00032978555 0 0)
(0.00026934788 -1.9363749e-06 0 0.00023795563 0 0)
(0.00018066409 9.9097981e-06 0 0.00016343346 0 0)
(0.00011782605 1.1637955e-05 0 0.00011213715 0 0)
(7.7105238e-05 1.2430649e-05 0 7.4730424e-05 0 0)
(5.0956141e-05 1.2309597e-05 0 5.1669589e-05 0 0)
(3.4597485e-05 1.1969458e-05 0 3.7413435e-05 0 0)
(2.4363149e-05 1.0999845e-05 0 2.9652294e-05 0 0)
(1.8048607e-05 9.4627147e-06 0 2.5254089e-05 0 0)
(1.4154335e-05 7.5444765e-06 0 2.2322816e-05 0 0)
(1.1633532e-05 5.5995209e-06 0 1.9792544e-05 0 0)
(9.8542232e-06 3.8640634e-06 0 1.720889e-05 0 0)
(8.468109e-06 2.4663011e-06 0 1.4564327e-05 0 0)
(7.3051972e-06 1.4326833e-06 0 1.1924545e-05 0 0)
(6.2919057e-06 7.1440221e-07 0 9.4271428e-06 0 0)
(5.3922176e-06 2.7764038e-07 0 7.1705291e-06 0 0)
(4.5917539e-06 4.5785169e-08 0 5.2345194e-06 0 0)
(3.874919e-06 -3.9419941e-08 0 3.6526101e-06 0 0)
(3.2448278e-06 -4.8216977e-08 0 2.4183316e-06 0 0)
(2.7044706e-06 -2.4732918e-08 0 1.4981956e-06 0 0)
(2.2610554e-06 -5.9016267e-10 0 8.4298895e-07 0 0)
(1.9188383e-06 1.1387209e-08 0 4.0326752e-07 0 0)
(1.6816983e-06 1.0195749e-08 0 1.373792e-07 0 0)
(1.554178e-06 2.6890474e-09 0 1.4380139e-08 0 0)
(0.0016202793 -0.00010170853 0 0.00013458965 0 0)
(0.0012270836 -0.00019409224 2.3554239e-25 0.00030949102 3.1791763e-26 1.167757e-45)
(0.00094662332 -0.00026795728 0 0.00045253487 0 0)
(0.00080637577 -0.00033426285 0 0.00059768253 0 0)
(0.00076438777 -0.00036972568 0 0.00073250645 0 0)
(0.00081867245 -0.00040630779 0 0.00086379215 0 0)
(0.00089006735 -0.00029717274 0 0.00090380749 0 0)
(0.00090154285 -0.00012217402 0 0.00084823136 0 0)
(0.00078740807 -2.3517134e-05 0 0.00069680366 0 0)
(0.00058552885 -5.5849259e-05 0 0.00053618396 0 0)
(0.00043521737 -2.2787302e-05 0 0.00039231159 0 0)
(0.00029982503 -3.7942567e-06 0 0.00027848024 0 0)
(0.00019725866 6.7210407e-06 0 0.00018562201 0 0)
(0.00012589312 9.4445229e-06 0 0.00012222967 0 0)
(7.9645969e-05 1.1304395e-05 0 7.8436524e-05 0 0)
(5.0481688e-05 1.1834741e-05 0 5.2843675e-05 0 0)
(3.2865161e-05 1.1585377e-05 0 3.8062762e-05 0 0)
(2.2460997e-05 1.0326459e-05 0 3.0505498e-05 0 0)
(1.6553434e-05 8.4115628e-06 0 2.6188158e-05 0 0)