/*--------------------------------*- C++ -*----------------------------------*\
| =========                 |                                                 |
| \\      /  F ield         | OpenFOAM: The Open Source CFD Toolbox           |
|  \\    /   O peration     | Version:  5.0                                   |
|   \\  /    A nd           | Web:      www.OpenFOAM.org                      |
|    \\/     M anipulation  |                                                 |
\*---------------------------------------------------------------------------*/
FoamFile
{
    version     2.0;
    format      ascii;
    class       volScalarField;
    location    "90";
    object      p;
}
// * * * * * * * * * * * * * * * * * * * * * * * * * * * * * * * * * * * * * //

dimensions      [0 2 -2 0 0 0 0];

internalField   nonuniform List<scalar> 
9200
(
-0.00051273354
-0.00050296402
-0.0011758896
-0.00049256988
-0.0011589528
-0.0020059912
-0.00047717143
-0.0011333007
-0.0019772361
-0.0027635328
-0.00045744165
-0.0010961027
-0.0019345019
-0.0027275935
-0.0035503821
-0.00043469894
-0.0010481767
-0.0018734739
-0.0026707508
-0.0035077764
-0.0043206285
-0.00040822837
-0.00099276711
-0.0017945369
-0.0025905446
-0.0034381294
-0.0042744297
-0.0050920621
-0.00037933469
-0.00092871277
-0.0017026167
-0.002485917
-0.003340797
-0.0041954509
-0.0050444796
-0.0058553311
-0.0003479974
-0.00085861415
-0.0015963195
-0.0023636235
-0.0032125264
-0.0040861545
-0.0049591916
-0.0058091775
-0.0066130936
-0.00031501992
-0.00078270147
-0.0014793486
-0.0022217574
-0.003061869
-0.0039400201
-0.0048423614
-0.0057211626
-0.0065713197
-0.0073592384
-0.00028087391
-0.00070251551
-0.0013524581
-0.0020650174
-0.0028862165
-0.0037673614
-0.0046832488
-0.0056020965
-0.0064846766
-0.0073250251
-0.0080936294
-0.00024631212
-0.00061886106
-0.0012182094
-0.001894416
-0.0026913675
-0.0035641825
-0.0044938783
-0.0054359822
-0.0063693661
-0.0072440662
-0.008070195
-0.0088101186
-0.00021224559
-0.00053271254
-0.0010783785
-0.0017132081
-0.0024786459
-0.0033367874
-0.0042686277
-0.0052365102
-0.0062030953
-0.0071388688
-0.0079995565
-0.0088007886
-0.0095063943
-0.00017977643
-0.00044484453
-0.00093506501
-0.0015237512
-0.0022517948
-0.003086537
-0.0040143439
-0.0049958716
-0.0060010792
-0.006979808
-0.0079112593
-0.008745226
-0.0095144835
-0.010176833
-0.00015010246
-0.00035585518
-0.00079016578
-0.0013287591
-0.0020137642
-0.0028180805
-0.0037320098
-0.004721228
-0.0057528583
-0.0067835074
-0.0077673962
-0.0086808118
-0.0094789437
-0.010205506
-0.010819313
-0.00012446804
-0.00026629386
-0.00064541646
-0.00113057
-0.0017680848
-0.0025348561
-0.0034267287
-0.0044131011
-0.0054656056
-0.0065363169
-0.0075858213
-0.008560476
-0.0094455814
-0.010194758
-0.010871146
-0.011427556
-0.0001037218
-0.00017682648
-0.00050239226
-0.00093133382
-0.001517902
-0.0022410317
-0.0031024277
-0.0040767558
-0.0051389218
-0.0062451155
-0.0073492089
-0.0084031745
-0.009357454
-0.010199546
-0.010889216
-0.011505372
-0.01199792
-8.7772184e-05
-8.8255494e-05
-0.00036241366
-0.00073302483
-0.0012662215
-0.0019404232
-0.0027638796
-0.0037162948
-0.0047780898
-0.0059082976
-0.0070638087
-0.008187441
-0.0092344934
-0.010152377
-0.010939061
-0.011556749
-0.012104489
-0.012526574
-7.515359e-05
-1.7062075e-06
-0.00022653931
-0.00053757163
-0.0010157822
-0.0016367728
-0.0024155651
-0.0033369569
-0.0043872403
-0.0055308352
-0.0067263777
-0.0079185552
-0.0090506857
-0.01007408
-0.010941615
-0.011658081
-0.01219373
-0.012663929
-0.013010283
-6.2922652e-05
8.1305295e-05
-9.5853077e-05
-0.0003466131
-0.00076894713
-0.0013335274
-0.0020619482
-0.0029438207
-0.0039719835
-0.0051166042
-0.006341299
-0.007591271
-0.0088100065
-0.0099337482
-0.010918451
-0.011718858
-0.012352188
-0.012794466
-0.013180136
-0.013446284
-4.6874093e-05
0.00015859931
2.8917616e-05
-0.00016147229
-0.00052783593
-0.001033746
-0.0017071661
-0.0025420513
-0.0035379226
-0.0046714034
-0.0059119591
-0.0072090306
-0.0085047903
-0.009733743
-0.01083353
-0.011761169
-0.012479221
-0.013015713
-0.013355048
-0.013649883
-0.013832398
-2.2093852e-05
0.00022737435
0.0001476773
1.6054151e-05
-0.00029432757
-0.0007400761
-0.0013549628
-0.0021365114
-0.0030908783
-0.0042012326
-0.0054441429
-0.0067743865
-0.0081371877
-0.0094636027
-0.01068733
-0.011743695
-0.012597041
-0.013216391
-0.013644354
-0.013871653
-0.014070543
-0.014167042
1.6136446e-05
0.00028469915
0.00026073654
0.00018379774
-7.0002317e-05
-0.0004547395
-0.001008654
-0.00173169
-0.0026364503
-0.0037125012
-0.0049440854
-0.0062928228
-0.0077085629
-0.0091238124
-0.01046624
-0.011664827
-0.012658938
-0.013419178
-0.013925058
-0.014232833
-0.014341006
-0.014440072
-0.014449239
7.1351504e-05
0.00032804838
0.0003686688
0.00033980673
0.00014382911
-0.00017956924
-0.00067113818
-0.0013316099
-0.0021799202
-0.003211544
-0.0044186921
-0.0057705803
-0.0072237934
-0.0087141486
-0.010168703
-0.0115075
-0.012661087
-0.013571966
-0.014221441
-0.014599277
-0.014776929
-0.014760381
-0.01475704
-0.014678601
0.00014516848
0.00035571786
0.00047207803
0.00048261658
0.00034609775
8.3803293e-05
-0.00034494464
-0.00093979564
-0.0017261163
-0.0027044621
-0.0038749854
-0.00521491
-0.0066888596
-0.0082385109
-0.0097925037
-0.011267766
-0.012582736
-0.013668669
-0.014475972
-0.014996918
-0.015233925
-0.015272941
-0.015127663
-0.015020621
-0.014855293
0.00023694958
0.00036712784
0.00057138143
0.00061135059
0.0005358525
0.00033360711
-3.2264934e-05
-0.00055926416
-0.0012793648
-0.0021969424
-0.0033198884
-0.0046334262
-0.0061111523
-0.0077022862
-0.0093401669
-0.010941009
-0.012417238
-0.01368471
-0.014680312
-0.015363118
-0.015739302
-0.015823955
-0.015717768
-0.015441341
-0.015230581
-0.014979987
0.0003438332
0.00036292401
0.00066671182
0.00072549415
0.0007123177
0.00056777709
0.00026507403
-0.00019258506
-0.00084349558
-0.0016941625
-0.0027599902
-0.0040338391
-0.005498732
-0.0071127251
-0.0088161036
-0.010527951
-0.012157188
-0.013610484
-0.014806011
-0.015687409
-0.016225912
-0.016442203
-0.016365064
-0.016108884
-0.015700516
-0.01538723
-0.01505383
0.00046140816
0.00034497882
0.00075789538
0.00082495354
0.00087483552
0.000784366
0.00054555742
0.00015789687
-0.00042188356
-0.0012007489
-0.0022014113
-0.0034236527
-0.0048600137
-0.0064781198
-0.0082270859
-0.0100316
-0.011801077
-0.013435459
-0.014840342
-0.015937545
-0.016681384
-0.017056559
-0.017099847
-0.016853391
-0.016444429
-0.01590489
-0.015491387
-0.01507843
0.00058547118
0.00031773428
0.00084431814
0.00091000448
0.0010229505
0.00098236416
0.00080772787
0.00048981912
-1.7487019e-05
-0.0007208026
-0.0016497391
-0.002809974
-0.00420339
-0.0058074404
-0.0075813557
-0.0094578465
-0.01135005
-0.013155474
-0.014769363
-0.016097602
-0.017069865
-0.01765307
-0.017847696
-0.017706828
-0.017285814
-0.016723269
-0.016054787
-0.015544349
-0.015055748
0.00070865243
0.00029308213
0.00092379361
0.00098096805
0.0011566111
0.0011612968
0.0010501266
0.00080085867
0.00036704755
-0.00025799952
-0.0011100227
-0.0021994008
-0.0035369817
-0.0051098871
-0.0068882262
-0.0088145265
-0.010808667
-0.012769346
-0.014585887
-0.016150036
-0.017372271
-0.018192588
-0.018593478
-0.018592194
-0.018258456
-0.017659871
-0.01694501
-0.016151152
-0.01554791
-0.014987592
0.00083057118
0.00027802317
0.00099037209
0.0010388699
0.0012753657
0.0013208191
0.0012717991
0.0010889787
0.0007292371
0.00018426582
-0.00058682274
-0.0015979944
-0.00286847
-0.0043945698
-0.006157563
-0.0081110011
-0.010183934
-0.012279815
-0.014285945
-0.016084318
-0.017567368
-0.018653015
-0.019295163
-0.019493641
-0.019283561
-0.018750699
-0.017973844
-0.017109604
-0.01619541
-0.015504193
-0.014875566
0.00096392382
0.00025588363
0.0010380009
0.0010921429
0.0013783966
0.0014607001
0.0014721121
0.0013526144
0.0010667845
0.00060276104
-8.4312324e-05
-0.0010113163
-0.0022050295
-0.0036702798
-0.0053993914
-0.0073575773
-0.0094848879
-0.011692574
-0.013869956
-0.015893276
-0.017641056
-0.01900946
-0.019927909
-0.020366772
-0.020345077
-0.019915925
-0.01918034
-0.018226627
-0.017217486
-0.016189168
-0.015415028
-0.014723446
0.0011026355
0.00021858489
0.0010741551
0.0011512498
0.0014703381
0.0015816536
0.0016500353
0.0015907402
0.0013777984
0.00099443039
0.00039361058
-0.00044451569
-0.0015533395
-0.0029453729
-0.0046235951
-0.0065650484
-0.0087219742
-0.011015891
-0.013341779
-0.015574513
-0.01758261
-0.019244131
-0.020463325
-0.021184379
-0.021396834
-0.021139826
-0.020484265
-0.019544944
-0.018417892
-0.017269717
-0.016133985
-0.015282314
-0.014535128
0.0012401842
0.00017590232
0.0011204865
0.0011879366
0.0015546452
0.0016940043
0.0018050223
0.0018022544
0.0016607859
0.0013566381
0.00084330363
9.7558689e-05
-0.00091965537
-0.0022277512
-0.0038397406
-0.005744315
-0.0079065265
-0.010259959
-0.012708401
-0.015129511
-0.017386357
-0.019342485
-0.020879927
-0.021914857
-0.02240974
-0.022375109
-0.021870746
-0.020984425
-0.019842937
-0.018547986
-0.017267822
-0.016032047
-0.015109812
-0.014313148
0.0013709499
0.00013104412
0.0011724289
0.0012052455
0.0016159749
0.0017993974
0.00194812
0.0019870523
0.0019138604
0.0016872963
0.0012615472
0.00061031727
-0.00030989265
-0.0015249127
-0.0030570184
-0.0049061414
-0.0070503117
-0.0094363281
-0.011979287
-0.01456342
-0.017050869
-0.019295183
-0.021159209
-0.02253317
-0.023349392
-0.023591364
-0.023292061
-0.022531592
-0.021413231
-0.020073581
-0.018617893
-0.017213988
-0.015886485
-0.014900723
-0.014060094
0.0014897427
8.641986e-05
0.00122248
0.0012244527
0.001669407
0.0018722322
0.0020828744
0.0021598309
0.0021360654
0.001984002
0.0016455953
0.0010896177
0.00027034313
-0.00084403283
-0.002284273
-0.0040610443
-0.0061652112
-0.0085573935
-0.011165799
-0.013884438
-0.016578879
-0.019097389
-0.021287869
-0.023016834
-0.024187476
-0.024751922
-0.024717113
-0.024139006
-0.023117178
-0.021768477
-0.020236951
-0.018629233
-0.017110735
-0.015700195
-0.014658
-0.013778691
0.0015916085
4.4729238e-05
0.001267351
0.0012427027
0.0017244705
0.0019331599
0.0021778698
0.0023224494
0.002344729
0.0022455017
0.0019921577
0.0015318763
0.00081592432
-0.00019199368
-0.0015300676
-0.0032192945
-0.0052630487
-0.0076359923
-0.010280619
-0.013103234
-0.015976723
-0.018748839
-0.021257226
-0.023348399
-0.024897656
-0.0258256
-0.0261076
-0.025775561
-0.024908344
-0.023623418
-0.022048953
-0.020333892
-0.018584123
-0.016960909
-0.015476292
-0.014384581
-0.013471551
0.001672146
8.3811038e-06
0.0013061506
0.0012572432
0.0017788696
0.001992468
0.0022584293
0.0024346704
0.002542753
0.002492673
0.0022990721
0.0019329103
0.0013222846
0.0004248094
-0.00080270296
-0.0023909721
-0.0043555534
-0.0066851688
-0.0093372861
-0.012232342
-0.015253807
-0.018253392
-0.021063486
-0.023515013
-0.025458299
-0.026782493
-0.027430005
-0.027402036
-0.026756315
-0.025593664
-0.02404739
-0.022254399
-0.020365924
-0.018485121
-0.01676753
-0.015217861
-0.014083337
-0.013141559
0.0017277749
-2.060863e-05
0.0013381568
0.0012686057
0.001827273
0.0020485396
0.0023374561
0.0025330343
0.0026772711
0.0027278709
0.0025905785
0.0022896816
0.0017840857
0.0010006018
-0.00011001271
-0.0015859849
-0.003454399
-0.0057180881
-0.0083498873
-0.011285644
-0.014421989
-0.017618559
-0.020707413
-0.023508878
-0.025852172
-0.027596896
-0.028651279
-0.028983225
-0.028621714
-0.027650187
-0.026189865
-0.024387323
-0.022385445
-0.020335162
-0.018335136
-0.016533775
-0.014927975
-0.013757126
-0.012791306
0.0017561146
-4.0876264e-05
0.0013626915
0.0012774265
0.0018685401
0.0020963196
0.0024154144
0.0026297373
0.0027957043
0.0028848483
0.00286941
0.0026301543
0.0021970313
0.0015287357
0.00054079936
-0.00081384135
-0.0025712197
-0.0047480566
-0.0073329219
-0.010277993
-0.013495029
-0.016854919
-0.02019397
-0.023327086
-0.026067105
-0.028247132
-0.029741917
-0.030483497
-0.030468378
-0.029754252
-0.028449405
-0.026693193
-0.024642574
-0.022443515
-0.020244252
-0.018137354
-0.016262882
-0.014609681
-0.013408702
-0.012423419
-5.1303244e-05
0.0017561147
0.0013788517
0.0012840183
0.0019021904
0.0021359782
0.0024843323
0.0027240679
0.0029131668
0.003026111
0.003054208
0.0029572218
0.0025928501
0.0020034482
0.0011415022
-8.3424236e-05
-0.0017173714
-0.0037885358
-0.0063012918
-0.0092250237
-0.012488158
-0.01597555
-0.019531792
-0.0229714
-0.026096018
-0.028716429
-0.030675903
-0.031869976
-0.032258778
-0.031869529
-0.030788708
-0.029147705
-0.02710126
-0.024813545
-0.022430759
-0.02009628
-0.017895138
-0.015958126
-0.014265955
-0.013040753
-0.012040309
0.0013864874
-5.1303214e-05
0.0017277753
0.001288013
0.00192775
0.0021679725
0.002542777
0.0028057962
0.0030285286
0.0031673591
0.00322373
0.0031729632
0.0029748138
0.0024603569
0.0016844852
0.0005952107
-0.00090364846
-0.0028528957
-0.0052703161
-0.0081431135
-0.011417837
-0.014995565
-0.018732635
-0.022447819
-0.025936857
-0.028993132
-0.031431778
-0.033112574
-0.03395724
-0.033957372
-0.033172105
-0.031715763
-0.029740424
-0.027413007
-0.02490158
-0.02234998
-0.019894664
-0.017611977
-0.015622757
-0.013899687
-0.012655837
-0.011644279
0.0012896409
0.0013864875
-4.0876095e-05
0.0016721465
0.0019441152
0.0021923362
0.0025904732
0.0028745651
0.0031293175
0.0033065806
0.0033932845
0.0033759451
0.0032273032
0.0029033518
0.0022092667
0.0012122479
-0.00014220714
-0.0019540602
-0.0042554797
-0.0070493977
-0.010301692
-0.013931826
-0.017810899
-0.021766084
-0.025592305
-0.029070841
-0.031993053
-0.034185233
-0.03553004
-0.035980009
-0.035560679
-0.034363181
-0.032527888
-0.030224499
-0.027628599
-0.024908921
-0.022204506
-0.019643068
-0.017291415
-0.015259983
-0.013513663
-0.012256379
-0.011237469
0.0019513655
0.001289641
0.0013788521
-2.060842e-05
0.0015916092
0.0022081236
0.0026270228
0.0029305564
0.0032145917
0.0034280234
0.0035603755
0.0035787877
0.0034714126
0.0031979279
0.0027205288
0.0018110654
0.00055450322
-0.0011065364
-0.0032720164
-0.0059615189
-0.0091585249
-0.012802859
-0.016783311
-0.020939202
-0.025069358
-0.028948273
-0.032348558
-0.035066535
-0.036946785
-0.037900671
-0.03791537
-0.037051663
-0.035431755
-0.033219416
-0.030598428
-0.027749346
-0.024838587
-0.021998082
-0.019345325
-0.016937015
-0.01487292
-0.013110523
-0.011844659
-0.01082186
0.0022155176
0.0019513657
0.0012880134
0.0013626921
8.3814376e-06
0.0014897436
0.0026509494
0.0029730483
0.0032840295
0.0035303298
0.0037061953
0.0037785858
0.0037139354
0.0034915804
0.0030640961
0.0023975237
0.0012336152
-0.00032583155
-0.0023370131
-0.0048971482
-0.0080080826
-0.011628868
-0.015668821
-0.019983125
-0.024378902
-0.028628971
-0.032492488
-0.035740256
-0.038181199
-0.039685066
-0.040197091
-0.039741745
-0.038415245
-0.0363689
-0.033786567
-0.030862143
-0.027777622
-0.024694237
-0.021734776
-0.019005383
-0.016552291
-0.014464552
-0.01269276
-0.011422799
-0.010399263
0.0026621745
0.0022155179
0.0019441158
0.0012840189
0.0013381577
4.4729606e-05
0.001370951
0.0030000662
0.0033369294
0.0036134118
0.0038290942
0.0039531237
0.0039521503
0.0037813733
0.0034177516
0.0027973897
0.0019024806
0.00043876811
-0.0014694725
-0.0038761342
-0.0068705194
-0.010431528
-0.014488633
-0.018916637
-0.023535396
-0.028120944
-0.032424262
-0.036195622
-0.03921189
-0.041302315
-0.042368241
-0.042392858
-0.041439424
-0.039638574
-0.037167881
-0.034227373
-0.031016952
-0.027716739
-0.024480055
-0.021418909
-0.018627209
-0.016140637
-0.014037696
-0.012262723
-0.010992783
-0.0099713475
0.0030117676
0.0026621747
0.0022081241
0.0019277508
0.0012774274
0.0013061517
8.6420339e-05
0.0012401855
0.0033711992
0.0036765911
0.0039288676
0.0041000839
0.0041604963
0.0040649995
0.0037635788
0.0032232037
0.0023669449
0.0011965737
-0.00061532687
-0.0029213844
-0.005768557
-0.0092334164
-0.013266038
-0.017761405
-0.022556761
-0.027436385
-0.032148273
-0.036427354
-0.040022821
-0.042725919
-0.044393775
-0.044964836
-0.044463165
-0.042990975
-0.040711237
-0.037824155
-0.034541539
-0.031065431
-0.027570799
-0.024200668
-0.021054914
-0.018214663
-0.015705284
-0.013595101
-0.011822687
-0.010556442
-0.0095397782
0.003386971
0.0030117678
0.0026509499
0.0021923372
0.0019021916
0.0012686069
0.0012673523
0.00013104463
0.0011026369
0.0037174381
0.0040047484
0.00421925
0.0043357729
0.004313381
0.0041004695
0.0036356218
0.0028790298
0.0017344978
0.00023717864
-0.0019757527
-0.0047293694
-0.0080601362
-0.012025835
-0.016541867
-0.021464461
-0.02659158
-0.031673665
-0.036435543
-0.040603554
-0.043934446
-0.046242328
-0.047419054
-0.047444585
-0.046385393
-0.044381577
-0.041625361
-0.038335264
-0.034730416
-0.031011305
-0.027344597
-0.023860954
-0.020647157
-0.017771481
-0.015249504
-0.013139515
-0.011374689
-0.010115375
-0.0091059407
0.0037361601
0.0033869712
0.003000067
0.0026270238
0.0021679738
0.0018685415
0.0012572446
0.0012224816
0.00017590292
0.00096392531
0.0040540022
0.0043098113
0.0044777815
0.0045221562
0.004395741
0.0040353575
0.0033699324
0.0023489651
0.00085798317
-0.0010245053
-0.0036930314
-0.0069434055
-0.010796382
-0.015284678
-0.020283458
-0.025607019
-0.031014265
-0.036225518
-0.040949289
-0.044911997
-0.047887125
-0.049719709
-0.05034223
-0.049779179
-0.048139611
-0.045599243
-0.0423756
-0.038700723
-0.034796921
-0.030859299
-0.027043363
-0.023465784
-0.02019994
-0.017301613
-0.014776686
-0.012673236
-0.010920163
-0.0096709535
-0.0086701236
0.0040769024
0.0037361604
0.0033712
0.0029730493
0.0025904745
0.0021359798
0.0018272748
0.0012427043
0.0011724305
0.00021858551
0.00083057281
0.0043686918
0.0045855816
0.0046911918
0.0046439159
0.0043860586
0.0038432001
0.0029320779
0.0015929087
-0.00031127489
-0.0026413277
-0.0058208207
-0.0096140856
-0.014020655
-0.019041723
-0.024507417
-0.030188735
-0.035807816
-0.041060842
-0.045648419
-0.049306667
-0.051834912
-0.053116436
-0.053128904
-0.051942921
-0.049708921
-0.046634911
-0.042958997
-0.038922069
-0.034745366
-0.030614831
-0.026672426
-0.023020073
-0.019718027
-0.016809261
-0.014289387
-0.012197313
-0.010460561
-0.0092249725
-0.0082333453
0.004396272
0.0040769028
0.0037174388
0.0033369305
0.002930558
0.0025427788
0.0020963214
0.0017788715
0.0012244545
0.0011204883
0.00025588439
0.00070865417
0.0046557698
0.0048193144
0.0048447848
0.0046809163
0.0042588233
0.0034912103
0.0022835455
0.00056398924
-0.0018263496
-0.0046702932
-0.0084143291
-0.012790864
-0.017772033
-0.023321342
-0.029220659
-0.035198373
-0.040944658
-0.046139421
-0.050485143
-0.053737607
-0.055730611
-0.056391783
-0.055747067
-0.053913258
-0.051079694
-0.047482406
-0.043375028
-0.039002728
-0.034581085
-0.030283558
-0.026237313
-0.022529523
-0.01920662
-0.016297237
-0.013788134
-0.011713645
-0.010000016
-0.0087797857
-0.0077822844
0.004688886
0.0043962722
0.0040540029
0.0036765924
0.0032840311
0.002874567
0.0024843343
0.0020485418
0.0017244728
0.0012052475
0.001074157
0.00027802398
0.00058547303
0.0049028314
0.0049967383
0.0049191156
0.0046082506
0.0039826723
0.00294235
0.0013791527
-0.00078943127
-0.003745029
-0.0071709566
-0.011528633
-0.016519864
-0.022082819
-0.028138315
-0.034418655
-0.040613034
-0.046386635
-0.051412701
-0.055406184
-0.058152357
-0.059527085
-0.059506999
-0.058167821
-0.055671145
-0.052241642
-0.048138389
-0.043625603
-0.03894755
-0.034309845
-0.029871565
-0.025744765
-0.022000504
-0.018668795
-0.015765315
-0.013275565
-0.011230502
-0.0095423694
-0.0083098739
-0.007312317
0.0049425093
0.0046888861
0.0043686926
0.0040047497
0.0036134134
0.0032145936
0.0028057986
0.0024154168
0.0019924704
0.0016694094
0.0011879389
0.001038003
0.00029308294
0.00046141008
0.0050958822
0.0050989079
0.0048900066
0.0043958036
0.003521948
0.0021530165
0.0001686043
-0.0025242117
-0.0061282623
-0.010203905
-0.015216492
-0.020841231
-0.026976052
-0.033495615
-0.040084266
-0.04639786
-0.052085551
-0.056824931
-0.0603543
-0.062497455
-0.063178555
-0.062426253
-0.060365921
-0.057201275
-0.053187882
-0.048602519
-0.043714548
-0.038762083
-0.033938138
-0.029386689
-0.025202483
-0.021436351
-0.018103325
-0.015217264
-0.012765304
-0.010753033
-0.0090425021
-0.0078219063
-0.0068301667
0.0051432865
0.0049425096
0.0046557707
0.0043098125
0.0039288692
0.003530332
0.0031293199
0.0027240706
0.0023374587
0.0019331626
0.0016159776
0.0011512524
0.00099037449
0.00031773501
0.0003438352
0.0052163165
0.0051023596
0.004728518
0.0040091069
0.0028344862
0.0010742208
-0.0014038764
-0.0047011149
-0.0090388008
-0.013828607
-0.019525565
-0.025786394
-0.032462789
-0.039382796
-0.046187166
-0.052506233
-0.057984181
-0.062314734
-0.06526995
-0.066719957
-0.066641788
-0.065117384
-0.062320155
-0.058492292
-0.053914959
-0.048876918
-0.043646721
-0.038452959
-0.033474901
-0.028838116
-0.024614032
-0.020834615
-0.017515403
-0.014673929
-0.012263789
-0.010201495
-0.0085297159
-0.0073195266
-0.0063383901
0.0052727855
0.0051432866
0.004902832
0.0045855826
0.0042192518
0.0038290964
0.0034280258
0.0030285312
0.0026297405
0.0022584323
0.0018722352
0.0015546481
0.0010921457
0.00092379635
0.00034497967
0.00023695157
0.0052411228
0.0049788828
0.0044009656
0.0034072332
0.0018724804
-0.0003486971
-0.0033984667
-0.0073837085
-0.012539161
-0.018100592
-0.024495506
-0.031374814
-0.038539949
-0.045775255
-0.052683589
-0.058880579
-0.064017817
-0.06781691
-0.070093046
-0.07076889
-0.069877088
-0.067552457
-0.064013745
-0.059536865
-0.054422492
-0.048965113
-0.0434285
-0.038030136
-0.032930911
-0.028229566
-0.023975467
-0.020202343
-0.016934949
-0.014142743
-0.011647374
-0.0096425485
-0.0079990858
-0.0068068521
-0.0058361265
0.0053082142
0.0052727856
0.0050958829
0.0048193156
0.0044777833
0.004100086
0.0037061978
0.0033065836
0.0029131698
0.0025330376
0.002177873
0.0017994008
0.0014703413
0.0010388729
0.00084432098
0.00036292494
0.00014517046
0.0051425352
0.0046953844
0.0038674044
0.0025435526
0.00058231389
-0.0021750822
-0.0058787575
-0.010636618
-0.016688868
-0.023068431
-0.030154129
-0.037611114
-0.045189717
-0.052633334
-0.05951684
-0.065453826
-0.070116177
-0.073264398
-0.074764669
-0.074596508
-0.07284906
-0.069708351
-0.065434614
-0.06033119
-0.054711899
-0.048872696
-0.043070666
-0.03750604
-0.032309919
-0.027555231
-0.023296134
-0.019580348
-0.016370324
-0.013442053
-0.011031846
-0.0090617771
-0.0074581539
-0.0062825714
-0.0053243953
0.0052220184
0.0053082144
0.0052163172
0.0049967393
0.0046911933
0.0043357749
0.0039531263
0.0035603786
0.0031673623
0.0027957076
0.0024346742
0.0020828781
0.0016940078
0.0013784
0.00098097124
0.00075789833
0.00036712892
7.1353406e-05
0.0048878444
0.0042126809
0.0030820864
0.0013658087
-0.0010943976
-0.0044682683
-0.0089103052
-0.014522934
-0.021541731
-0.028769059
-0.036513549
-0.044485183
-0.052377651
-0.059902488
-0.066618594
-0.072151359
-0.076205573
-0.078590266
-0.079228619
-0.078159304
-0.07552741
-0.071567275
-0.066574628
-0.060873688
-0.054787269
-0.048610951
-0.04258729
-0.036884227
-0.031603738
-0.026827219
-0.022629798
-0.018978141
-0.015568263
-0.012751758
-0.010388393
-0.0084708171
-0.006904803
-0.0057481444
-0.0048033132
0.0049816778
0.0052220186
0.0052411232
0.0050989087
0.0048447865
0.0045221583
0.004160499
0.0037785887
0.0033932878
0.0030261147
0.0026772748
0.0023224535
0.0019481239
0.0015816574
0.0012753694
0.00091000777
0.00066671474
0.00035571898
1.6138245e-05
0.0044383523
0.0034857488
0.0019937899
-0.00018389086
-0.0032205847
-0.0072943591
-0.012557987
-0.019101342
-0.027141162
-0.035222243
-0.043571993
-0.0519687
-0.060052532
-0.067514375
-0.073910811
-0.078893383
-0.082211148
-0.083729574
-0.083432726
-0.081419069
-0.077887726
-0.073116031
-0.067428263
-0.061166049
-0.054659932
-0.048195477
-0.041981373
-0.036153439
-0.03082774
-0.026114739
-0.021987386
-0.018053479
-0.014788383
-0.012025462
-0.0097356901
-0.0078673119
-0.0063410394
-0.0052037109
-0.0042735
0.004548726
0.0049816777
0.0051425353
0.0051023604
0.0049191171
0.0046439177
0.0043133833
0.0039521531
0.0035787912
0.003223734
0.0028848523
0.002542757
0.0021598355
0.0018050267
0.0014607041
0.0011566149
0.00082495697
0.00057138436
0.00032804958
-2.2092202e-05
0.0037495535
0.0024639925
0.00054547165
-0.0021682195
-0.0058625345
-0.010719691
-0.016882681
-0.024421217
-0.03351124
-0.042436148
-0.051307557
-0.060014811
-0.068147238
-0.07538859
-0.081308326
-0.085597382
-0.088059043
-0.088620992
-0.087330186
-0.084343976
-0.07991087
-0.074344097
-0.067993855
-0.061219045
-0.054346791
-0.047628194
-0.041237642
-0.035332826
-0.03006952
-0.025430458
-0.020917935
-0.01716472
-0.013961683
-0.011291766
-0.0090704828
-0.0072536235
-0.0057668426
-0.0046501228
-0.0037353766
0.0038789099
0.0045487258
0.0048878446
0.0049788835
0.0048900076
0.0046809178
0.0043957435
0.0040650025
0.003713939
0.003375949
0.0030542122
0.0027278755
0.0023447336
0.0019870571
0.0016500397
0.0013208233
0.0010229544
0.00072549756
0.00047208082
0.00028470031
-4.6872627e-05
0.00277128
0.0010910279
-0.0013250094
-0.0046531142
-0.0090875484
-0.014807907
-0.021937137
-0.030521159
-0.040667704
-0.050396087
-0.059678204
-0.0685589
-0.076580037
-0.083435518
-0.088721523
-0.092180514
-0.093678371
-0.093208504
-0.090881071
-0.086908141
-0.081580548
-0.07524549
-0.068280824
-0.061050559
-0.053847935
-0.046888548
-0.040379549
-0.034531904
-0.029343909
-0.02419081
-0.019900378
-0.01621598
-0.013129841
-0.010546352
-0.008395262
-0.0066296366
-0.0051832735
-0.0040880014
-0.0031894744
0.0029222763
0.0038789098
0.0044383523
0.0046953844
0.0047285186
0.0046082521
0.0043860608
0.0041004723
0.0037813766
0.0034714164
0.0031729677
0.0028694148
0.002492678
0.0021360703
0.0018022596
0.0014721169
0.001161301
0.00087483938
0.00061135399
0.00036867147
0.00022737548
-6.2921388e-05
0.0014475664
-0.00069467709
-0.0036833977
-0.0077062933
-0.012961288
-0.019615811
-0.027771663
-0.037427093
-0.048601964
-0.059065684
-0.068622563
-0.077519035
-0.085257786
-0.09155932
-0.096058828
-0.098561958
-0.099003281
-0.097443396
-0.094052077
-0.08908879
-0.082885369
-0.075827426
-0.068307644
-0.060657916
-0.053135879
-0.046004798
-0.039542747
-0.033768162
-0.027906083
-0.023022094
-0.0188065
-0.015265502
-0.01228768
-0.0097916114
-0.0077101244
-0.0059965229
-0.0045910928
-0.0035181884
-0.0026362073
0.0016230484
0.0029222762
0.0037495529
0.0042126803
0.0044009659
0.0043958047
0.004258825
0.0040353598
0.0037635823
0.0034915844
0.0032273077
0.0029572267
0.0025905837
0.0022455072
0.0019138658
0.0015907456
0.0012718039
0.00098236842
0.00071232155
0.00048261981
0.00026073894
0.00015860031
-7.5152551e-05
-0.00028270511
-0.0029585007
-0.0065973863
-0.011394525
-0.017544139
-0.025196271
-0.034416947
-0.045142457
-0.057282521
-0.068388144
-0.078058867
-0.086799578
-0.094079475
-0.099660264
-0.10322933
-0.10466547
-0.10397553
-0.10128444
-0.096813195
-0.090868025
-0.083829599
-0.076108454
-0.068067737
-0.060004562
-0.052244194
-0.045143786
-0.038747951
-0.032100934
-0.026561952
-0.021756391
-0.017715655
-0.014306298
-0.011437207
-0.009027843
-0.0070162099
-0.0053551971
-0.0039913796
-0.0029408222
-0.0020762913
-7.9707419e-05
0.0016230479
0.0027712789
0.003485748
0.0038674042
0.0040091071
0.0039826733
0.0038432022
0.0036356249
0.0034177553
0.0031979321
0.0029748186
0.0026301599
0.0022990779
0.0019840076
0.0016607914
0.00135262
0.0010501315
0.00078437011
0.0005358561
0.00033980975
0.00014767947
8.1306169e-05
-8.7771344e-05
-0.0024845816
-0.0057679359
-0.010134181
-0.015780496
-0.022890968
-0.031585811
-0.041882468
-0.053646466
-0.06665808
-0.078282938
-0.087889005
-0.096295871
-0.10293814
-0.10763736
-0.11014575
-0.11042277
-0.10854547
-0.10469384
-0.099139321
-0.092246632
-0.084431386
-0.07607684
-0.067512829
-0.059129778
-0.051377016
-0.044330068
-0.03681702
-0.030554905
-0.025094683
-0.020500089
-0.016617762
-0.013340357
-0.010578635
-0.0082559123
-0.0063146752
-0.0047069988
-0.0033836527
-0.0023568378
-0.0015103023
-0.0022508806
-7.970828e-05
0.0014475653
0.0024639913
0.0030820852
0.0034072325
0.0035219486
0.0034912119
0.0033699347
0.0032232068
0.0030641004
0.0029033568
0.0025928557
0.0022896874
0.0019921636
0.0016873023
0.0013778042
0.0010889842
0.00080773253
0.00056778104
0.00034610116
0.00018380044
2.8919428e-05
-1.7055158e-06
-0.00010372116
-0.0052253429
-0.009190292
-0.01435762
-0.020920882
-0.029043685
-0.038801544
-0.050160976
-0.062903569
-0.076650601
-0.088650821
-0.098005287
-0.10589569
-0.1117226
-0.11539236
-0.11672823
-0.11577558
-0.11266745
-0.10763838
-0.10102701
-0.093242332
-0.084672567
-0.075669457
-0.066687957
-0.058282469
-0.050563047
-0.042098155
-0.035040678
-0.028852679
-0.023645065
-0.019238894
-0.015515195
-0.012367582
-0.0097129285
-0.0074773458
-0.0056070654
-0.0040502928
-0.0027698963
-0.0017667809
-0.00093884169
-0.0049576445
-0.002250881
-0.00028270649
0.0010910259
0.0019937879
0.0025435513
0.0028344859
0.0029423505
0.0029320795
0.0028790326
0.0027973934
0.0027205334
0.0024603621
0.0021970369
0.0019329165
0.0016456015
0.001356644
0.00106679
0.00080086405
0.00054556196
0.00033361072
0.00014383212
1.6056518e-05
-9.5851537e-05
-8.8254961e-05
-0.00012446756
-0.0085722219
-0.013289913
-0.01932556
-0.02686118
-0.036026634
-0.046848452
-0.059228191
-0.07284884
-0.087161315
-0.099383919
-0.10829219
-0.11547833
-0.12032317
-0.12283368
-0.12290809
-0.12067013
-0.11629906
-0.11010968
-0.10249436
-0.093829243
-0.084471556
-0.074936936
-0.06589557
-0.057495236
-0.047990396
-0.040061544
-0.033066359
-0.027178677
-0.022193165
-0.017975642
-0.01440741
-0.011388911
-0.0088420103
-0.0066936565
-0.0048903031
-0.0033879747
-0.0021507504
-0.0011716053
-0.00036251435
-0.0082671852
-0.0049576454
-0.0024845838
-0.00069468004
0.0005454691
0.0013658066
0.0018724786
0.0021530157
0.0022835464
0.0023489671
0.0023669477
0.0023975276
0.0022092718
0.0020034538
0.0017840917
0.0015318823
0.0012615531
0.0009944362
0.0007292426
0.00048982416
0.00026507813
8.380659e-05
-6.99996e-05
-0.0001614703
-0.00022653812
-0.00017682614
-0.00015010212
-0.012589682
-0.018125216
-0.025085403
-0.033631207
-0.043849535
-0.055707421
-0.069032562
-0.083389614
-0.0980855
-0.11036875
-0.11861967
-0.12492229
-0.12863682
-0.12988067
-0.12862446
-0.12505337
-0.11942605
-0.11212792
-0.10350681
-0.09390286
-0.083884064
-0.074244983
-0.065172675
-0.054540315
-0.045662665
-0.037774175
-0.031133624
-0.025505457
-0.020742436
-0.016709184
-0.013295238
-0.010406657