/*--------------------------------*- C++ -*----------------------------------*\
| =========                 |                                                 |
| \\      /  F ield         | OpenFOAM: The Open Source CFD Toolbox           |
|  \\    /   O peration     | Version:  5.0                                   |
|   \\  /    A nd           | Web:      www.OpenFOAM.org                      |
|    \\/     M anipulation  |                                                 |
\*---------------------------------------------------------------------------*/
FoamFile
{
    version     2.0;
    format      ascii;
    class       surfaceScalarField;
    location    "90";
    object      phi;
}
// * * * * * * * * * * * * * * * * * * * * * * * * * * * * * * * * * * * * * //

dimensions      [0 3 -1 0 0 0 0];

internalField   nonuniform List<scalar> 
18180
(
0.001134761
-1.3704887
0.0021853449
-1.2819459
0.0011210284
-1.3716097
0.0031478083
-1.1991572
0.0021561241
-1.282981
0.001101943
-1.3727116
0.0040193593
-1.1217287
0.0031070782
-1.2001082
0.0021226208
-1.2840017
0.0010979393
-1.3738096
0.0048028303
-1.0493448
0.0039700091
-1.1225917
0.0030606143
-1.2010462
0.0021156475
-1.2850194
0.0010927859
-1.3749024
0.005501287
-0.98164586
0.0047481114
-1.0501229
0.0039137392
-1.1234448
0.0030539461
-1.2019845
0.002107647
-1.2860343
0.0010929699
-1.3759953
0.0061179609
-0.91831348
0.0054437176
-0.98234147
0.0046852665
-1.0508944
0.0039111966
-1.124302
0.0030459852
-1.2029228
0.0021101321
-1.2870514
0.0010912745
-1.3770866
0.0066574226
-0.85904768
0.0060601475
-0.91892991
0.0053771115
-0.98303331
0.0046906481
-1.0516739
0.0039070499
-1.1251631
0.0030545601
-1.2038673
0.0021092565
-1.2880694
0.0010897991
-1.3781764
0.0071245089
-0.80357606
0.0066013851
-0.85958892
0.0059924576
-0.91954526
0.0053940235
-0.98373669
0.0046940463
-1.0524609
0.0039266094
-1.1260352
0.0030582854
-1.2048163
0.0021093834
-1.289089
0.0010845575
-1.379261
0.0075248117
-0.75164466
0.0070719714
-0.80404665
0.0065348297
-0.86013129
0.0060240861
-0.92017532
0.0054083621
-0.984451
0.0047294865
-1.0532638
0.0039398122
-1.1269167
0.003064644
-1.2057716
0.0021023833
-1.2901068
0.0010763195
-1.3803373
0.0078643628
-0.70302366
0.0074769191
-0.75204961
0.0070085137
-0.80452033
0.0065838213
-0.86069103
0.0060523371
-0.9208193
0.0054643017
-0.98518582
0.0047570204
-1.054081
0.003958534
-1.1278106
0.0030608102
-1.20673
0.0020899998
-1.2911205
0.0010628276
-1.3814001
0.008149803
-0.65749679
0.0078215692
-0.70336831
0.0074182531
-0.75245935
0.0070768673
-0.80501338
0.0066283529
-0.86126704
0.0061325794
-0.92148758
0.0055107519
-0.98593955
0.0047942754
-1.0549167
0.003964269
-1.128714
0.0030499042
-1.2076899
0.0020675617
-1.2921252
0.001044287
-1.3824444
0.0083885988
-0.61486384
0.0081115714
-0.65778679
0.0077692938
-0.70371935
0.0075073247
-0.75288981
0.007139255
-0.80552428
0.0067358397
-0.8618703
0.0062020914
-0.92217892
0.0055725224
-0.9867178
0.0048160574
-1.0557685
0.0039622247
-1.1296264
0.0030245402
-1.2086469
0.0020355757
-1.2931165
0.0010197186
-1.3834641
0.0085893995
-0.574935
0.0083530476
-0.61510531
0.0080673205
-0.65808482
0.0078797371
-0.70409176
0.0075886351
-0.75333919
0.0072763837
-0.80606482
0.0068320869
-0.8625003
0.0062936034
-0.9229
0.0056166479
-0.98751839
0.0048304024
-1.0566367
0.0039417342
-1.1305435
0.0029856556
-1.2095969
0.0019919404
-1.2940887
0.00098922318
-1.3844533
0.0087625743
-0.53752616
0.0085530322
-0.57513499
0.0083185066
-0.6153565
0.0081989828
-0.65840406
0.0079805767
-0.7044837
0.0077569556
-0.75381976
0.0074022002
-0.80663494
0.0069574303
-0.86316413
0.0063657695
-0.92364912
0.005654847
-0.98834283
0.0048228119
-1.0575177
0.003904457
-1.1314623
0.0029298094
-1.2105348
0.0019368134
-1.2950363
0.00095273743
-1.3854061
0.0089206242
-0.50245487
0.0087205432
-0.53769368
0.0085298336
-0.57534631
0.0084703027
-0.61562782
0.0083196089
-0.65874309
0.0081807486
-0.70490749
0.0079141041
-0.75433166
0.0075643136
-0.80724182
0.007062641
-0.863861
0.006434625
-0.9244289
0.0056681973
-0.98918822
0.0047959601
-1.0584093
0.0038452438
-1.1323778
0.0028572589
-1.2114553
0.0018697518
-1.2959533
0.00091059668
-1.3863167
0.0090779426
-0.46953404
0.0088677139
-0.50260204
0.0087096716
-0.53787351
0.0086996805
-0.57557569
0.0086107433
-0.61591895
0.0085514125
-0.65911376
0.0083701446
-0.70536353
0.008115042
-0.75488239
0.0077066499
-0.80788583
0.0071679744
-0.86459435
0.0064764148
-0.92523711
0.0056607454
-0.990053
0.0047426278
-1.0593066
0.0037644815
-1.133285
0.0027671476
-1.2123526
0.0017914556
-1.2968342
0.00086307722
-1.3871798
0.009249539
-0.43857183
0.0090104546
-0.46967678
0.008868322
-0.50276069
0.0088944951
-0.53806833
0.0088597124
-0.57582466
0.0088731291
-0.61624067
0.0087732313
-0.65951684
0.0086109448
-0.70585944
0.0082974158
-0.75547316
0.0078530929
-0.80857095
0.0072449644
-0.8653629
0.0064968868
-0.92607325
0.0056228315
-0.9909332
0.0046633601
-1.0602055
0.0036605322
-1.1341784
0.0026599835
-1.2132212
0.0017025271
-1.2976737
0.00081061562
-1.3879904
0.0094486329
-0.40937501
0.0091679731
-0.43872935
0.0090190963
-0.46982755
0.0090646047
-0.5029308
0.0090734141
-0.53828203
0.0091508055
-0.57610234
0.0091268887
-0.61659433
0.0090539615
-0.65995986
0.008835177
-0.7063972
0.0084884531
-0.75610852
0.0079710693
-0.80929705
0.0073011332
-0.86616714
0.0064836312
-0.92693405
0.0055552133
-0.99182506
0.0045554634
-1.0611004
0.0035339119
-1.1350523
0.0025364803
-1.2140551
0.0016036493
-1.2984667
0.00075384989
-1.3887442
0.0096834479
-0.38176037
0.0093605878
-0.40956763
0.0091781685
-0.43888843
0.0092230775
-0.46998603
0.0092606694
-0.50311806
0.0093905108
-0.53852173
0.0094353551
-0.5764108
0.009446734
-0.6169871
0.0093208735
-0.66044556
0.0090731125
-0.70698186
0.0086520218
-0.75678947
0.0080696185
-0.81006554
0.0073211867
-0.8670047
0.0064376765
-0.92781652
0.0054538461
-0.99272344
0.0044193513
-1.0619859
0.003385187
-1.135901
0.0023979283
-1.2148494
0.0014959778
-1.2992088
0.00069346596
-1.3894377
0.0099543836
-0.3555693
0.009605637
-0.38200542
0.0093623423
-0.4097518
0.0093859549
-0.4390513
0.0094328768
-0.47015823
0.0096002482
-0.50332779
0.0097039339
-0.53879031
0.0097927
-0.57675677
0.0097562222
-0.61742245
0.0096068607
-0.66097931
0.0092856429
-0.70761548
0.0087984365
-0.75751829
0.0081307467
-0.8108751
0.0073064686
-0.86787349
0.0063533722
-0.92871604
0.0053189465
-0.99362304
0.0042551358
-1.0628558
0.0032156001
-1.1367187
0.0022458636
-1.2155993
0.0013807909
-1.2998961
0.00063021295
-1.3900679
0.010252612
-0.33068207
0.0099127889
-0.35587645
0.0095861148
-0.3822292
0.0095711378
-0.40993698
0.0096045748
-0.439223
0.0097908387
-0.47034882
0.0099396717
-0.50356353
0.010096398
-0.53909401
0.01014379
-0.57714434
0.010090335
-0.61790592
0.0098704997
-0.66156416
0.0094841197
-0.70830116
0.0089073022
-0.75829484
0.0081560301
-0.81172466
0.007249525
-0.86876964
0.0062306306
-0.92962773
0.0051499145
-0.99451781
0.0040640584
-1.0637043
0.0030269636
-1.1374998
0.0020819233
-1.2163004
0.0012595191
-1.3005254
0.00056486797
-1.3906328
0.010560749
-0.30702516
0.010280106
-0.33104939
0.0098576978
-0.35614803
0.0097956559
-0.38245371
0.009792648
-0.41012506
0.0099762739
-0.43940844
0.010152216
-0.47056137
0.010364075
-0.50383121
0.010487251
-0.53943747
0.010525117
-0.57757912
0.010406062
-0.61844148
0.010123916
-0.66220396
0.0096461198
-0.70903998
0.0089802992
-0.75911911
0.0081361407
-0.81261127
0.0071498639
-0.86968888
0.0060678843
-0.9305457
0.0049478089
-0.99540156
0.0038479662
-1.0645253
0.0028214567
-1.1382393
0.0019081148
-1.216949
0.0011336583
-1.3010942
0.0004982092
-1.391131
0.010855458
-0.28456914
0.010692543
-0.3074376
0.010175817
-0.33136751
0.010071291
-0.35642367
0.010013459
-0.38267452
0.010172952
-0.41032173
0.010354424
-0.43961064
0.01060452
-0.47080181
0.010791908
-0.50413586
0.010913953
-0.53982631
0.010892814
-0.57806587
0.01071601
-0.61903358
0.010343112
-0.66290095
0.0097733022
-0.70983298
0.0090062803
-0.75998925
0.0080700751
-0.81353148
0.0070047196
-0.87062571
0.0058658172
-0.9314637
0.0047142092
-0.99626781
0.003609148
-1.065313
0.0026015885
-1.1389328
0.001726585
-1.2175419
0.0010047201
-1.3016008
0.00043099932
-1.391562
0.01111122
-0.26331914
0.0111235
-0.28500009
0.010528487
-0.30779027
0.010400502
-0.33169672
0.010279212
-0.35668942
0.010397469
-0.38289904
0.010562012
-0.41052932
0.010829755
-0.43983588
0.011065493
-0.4710754
0.011261216
-0.50448313
0.011332451
-0.54026595
0.011259669
-0.57860953
0.010995118
-0.61968558
0.010529598
-0.66365725
0.0098528501
-0.71067955
0.0089836187
-0.76090279
0.0079536925
-0.81448046
0.0068142032
-0.8715741
0.0056254818
-0.93237498
0.0044514187
-0.99711008
0.0033504897
-1.0660619
0.0023699657
-1.1395762
0.0015395352
-1.2180768
0.00087419992
-1.302044
0.00036396213
-1.3919259
0.011304291
-0.24329949
0.011538859
-0.2637345
0.010894131
-0.28536574
0.010774184
-0.30816395
0.010593931
-0.33201144
0.010663217
-0.35695517
0.010791707
-0.38312874
0.011054875
-0.41075444
0.011318917
-0.4400893
0.011573644
-0.47138783
0.01172828
-0.50487896
0.011755435
-0.54076171
0.011600096
-0.57921451
0.011244625
-0.62040061
0.010669119
-0.66447351
0.0098824143
-0.71157835
0.0089066937
-0.76185579
0.007786338
-0.81545259
0.0065785792
-0.87252719
0.0053489911
-0.93327255
0.0041624494
-0.99792204
0.0030750393
-1.066767
0.0021294604
-1.1401661
0.0013491664
-1.2185517
0.00074352921
-1.3024235
0.0002977682
-1.3922237
0.011416006
-0.22453665
0.011902276
-0.24366291
0.011244862
-0.26408523
0.011171962
-0.28576351
0.010950791
-0.30852081
0.010976658
-0.33232488
0.011057925
-0.35722139
0.011296462
-0.38337032
0.011566367
-0.41100189
0.011861137
-0.44037679
0.01208591
-0.47174546
0.012205484
-0.505329
0.012157318
-0.54131893
0.011914938
-0.57988482
0.011449128
-0.62118062
0.010758529
-0.66534963
0.009854867
-0.71252652
0.0087739064
-0.76284336
0.0075672449
-0.81644126
0.0062995322
-0.87347773
0.00503923
-0.93414933
0.0038506455
-0.99869764
0.0027862455
-1.0674237
0.0018829162
-1.1406999
0.0011576183
-1.2189658
0.00061404566
-1.3027398
0.00023302529
-1.3924567
0.011434825
-0.20704692
0.012180487
-0.22481486
0.011550774
-0.24396882
0.011565336
-0.2644786
0.011332394
-0.28614512
0.011334219
-0.30887837
0.011368812
-0.33263576
0.011569511
-0.35749444
0.011824071
-0.38362803
0.012137008
-0.41127776
0.012414056
-0.44070494
0.012614262
-0.47215423
0.012667701
-0.50583939
0.012538438
-0.54194243
0.012187994
-0.58062369
0.011604646
-0.62202674
0.01078924
-0.666284
0.0097675115
-0.71352012
0.0085832477
-0.76385937
0.0072974173
-0.81743914
0.0059795541
-0.87441806
0.0046996431
-0.93499833
0.00351987
-0.99943127
0.0024875687
-1.0680284
0.0016331954
-1.1411754
0.00096692563
-1.2193187
0.0004869754
-1.3029937
0.00017026537
-1.392627
0.011356574
-0.19082578
0.012347694
-0.20721413
0.01178416
-0.22504825
0.011922182
-0.24432567
0.011712666
-0.26485887
0.011721171
-0.28653207
0.011722897
-0.30923246
0.011883596
-0.33294985
0.012107502
-0.35777787
0.012417007
-0.38390802
0.012724955
-0.41158866
0.012989293
-0.44107997
0.013134402
-0.47262094
0.013114689
-0.50641564
0.012882166
-0.5426366
0.012414432
-0.58143347
0.011701243
-0.62293874
0.010757343
-0.66727383
0.0096169368
-0.71455381
0.0083347941
-0.76489674
0.0069786785
-0.81843827
0.0056219569
-0.87534037
0.0043343256
-0.93581278
0.003174118
-1.0001178
0.0021825775
-1.0685778
0.00138301
-1.1415915
0.00077899339
-1.2196107
0.00036341576
-1.3031869
0.00010996552
-1.392737
0.011181713
-0.17584544
0.012388531
-0.19086662
0.011923137
-0.20735311
0.012211394
-0.22533746
0.01206084
-0.24467384
0.012113041
-0.26525074
0.012107411
-0.28691658
0.012239387
-0.30958825
0.012427546
-0.33326989
0.012716777
-0.35807764
0.013033655
-0.38421672
0.013341697
-0.41194107
0.013563615
-0.44150919
0.013645473
-0.47315172
0.013529754
-0.50706323
0.013182837
-0.54340501
0.012583139
-0.58231537
0.011733733
-0.62391513
0.010657922
-0.66831482
0.0094020591
-0.71562108
0.0080294235
-0.76594749
0.0066139429
-0.81943025
0.0052308439
-0.87623689
0.0039476755
-0.93658634
0.0028175943
-1.0007528
0.001874701
-1.0690695
0.0011349568
-1.1419475
0.00059558263
-1.2198429
0.00024434458
-1.3033213
5.2589479e-05
-1.3927896
0.0091840357
-0.19026395
0.012300546
-0.17575745
0.011954789
-0.19089827
0.012406468
-0.20754818
0.012346247
-0.22562286
0.012479306
-0.24504011
0.012499627
-0.26564296
0.012626716
-0.28730391
0.012786767
-0.30994747
0.013048153
-0.33360127
0.013355756
-0.35839974
0.01368571
-0.38456074
0.013965185
-0.41234264
0.014135579
-0.44199929
0.014131056
-0.47375302
0.013906441
-0.50778683
0.013428374
-0.54425024
0.012687638
-0.58326927
0.01169565
-0.62495286
0.010488533
-0.66940129
0.0091225532
-0.71671421
0.0076693693
-0.76700291
0.0062070614
-0.82040647
0.0048108369
-0.87710005
0.003544435
-0.93731318
0.002454429
-1.0013326
0.0015672818
-1.0695018
0.00089149984
-1.1422434
0.00041808547
-1.2200166
0.00013069933
-1.3033994
-1.2971638e-06
-1.3927883
0.0075578768
-0.18751086
0.01044563
-0.18840903
0.01187566
-0.17567832
0.01248687
-0.19097868
0.012542448
-0.20774438
0.012788007
-0.22593157
0.012870045
-0.24541052
0.013024867
-0.26604111
0.013177057
-0.2876942
0.013415347
-0.31031466
0.013703829
-0.33394934
0.014036683
-0.35875071
0.014352343
-0.3849479
0.01459349
-0.41280055
0.014689333
-0.44255757
0.014583969
-0.47443055
0.014231953
-0.50859041
0.013611047
-0.54517365
0.012719933
-0.58429355
0.011583039
-0.62604736
0.010247422
-0.67052616
0.00877968
-0.71782452
0.0072579377
-0.76805379
0.0057626501
-0.82135828
0.0043670661
-0.87792268
0.0031293842
-0.93798814
0.0020887269
-1.001854
0.0012634046
-1.0698737
0.00065467101
-1.14248
0.00024791729
-1.2201338
2.3231026e-05
-1.3034239
-5.1153431e-05
-1.3927371
0.0062236337
-0.18468743
0.0089222652
-0.1859875
0.010088321
-0.18662169
0.012439383
-0.17563083
0.012630166
-0.19106639
0.013010058
-0.20796643
0.013186758
-0.22624828
0.013405297
-0.24579095
0.013579556
-0.26644361
0.013812286
-0.28809114
0.014083504
-0.31069434
0.014407656
-0.33432031
0.014739958
-0.35913833
0.015031304
-0.38538571
0.015211563
-0.41332278
0.01521706
-0.44319066
0.014990957
-0.47518955
0.014497389
-0.50947675
0.013721402
-0.54617512
0.012674457
-0.58538497
0.011392533
-0.62719248
0.0099345969
-0.67168108
0.0083758951
-0.71894248
0.0067994684
-0.76909061
0.0052860263
-0.82227724
0.0039048633
-0.87869816
0.0027073835
-0.93860679
0.0017243354
-1.0023149
0.00096587836
-1.0701849
0.00042630189
-1.1426584
8.6101677e-05
-1.2201967
-7.7828634e-05
-1.3033972
-9.8983357e-05
-1.3926381
0.0051048864
-0.18188478
0.0076351744
-0.18340034
0.0086219965
-0.18452117
0.010721539
-0.18490385
0.012597681
-0.17559835
0.013122487
-0.19117882
0.013420051
-0.20819973
0.013735886
-0.22657887
0.013966924
-0.24617832
0.014222027
-0.26685335
0.014490512
-0.28849815
0.0148054
-0.31109208
0.015141274
-0.33472163
0.015463223
-0.35957025
0.015708533
-0.38588268
0.015811075
-0.41391679
0.015705307
-0.44390501
0.015342061
-0.47603422
0.014691958
-0.51044731
0.013752226
-0.54725289
0.012546107
-0.58653855
0.011122634
-0.62838051
0.0095513544
-0.67285654
0.0079149547
-0.72005796
0.0062992108
-0.77010379
0.0047829174
-0.8231553
0.0034297869
-0.87942056
0.002283088
-0.93916554
0.0013648674
-1.0027139
0.0006771849
-1.0704358
0.00020792436
-1.1427802
-6.6794932e-05
-1.2202077
-0.00017257335
-1.3033236
-0.00014313881
-1.392495
0.0041343802
-0.17920508
0.0064988778
-0.18074849
0.0073861685
-0.18216451
0.0093003477
-0.18309998
0.010948181
-0.18325435
0.013110929
-0.17558679
0.013546026
-0.1913048
0.013985522
-0.20844936
0.014307324
-0.22691927
0.014618554
-0.24657485
0.014909698
-0.26727253
0.015227218
-0.28891997
0.015563927
-0.31151474
0.015902458
-0.33516086
0.016193561
-0.36005527
0.016375349
-0.38644695
0.016378625
-0.41459011
0.0161432
-0.44470615
0.01562532
-0.47696759
0.014806827
-0.51150191
0.013696606
-0.54840339
0.01233166
-0.58774757
0.010773188
-0.62960235
0.0091005424
-0.67404212
0.0074017444
-0.7211605
0.0057630761
-0.77108395
0.0042594689
-0.82398498
0.0029472937
-0.88008477
0.001860975
-0.93966165
0.0010135815
-1.0030503
0.00039947583
-1.0706273
7.3043885e-07
-1.1428477
-0.00021010736
-1.2201702
-0.00026041021
-1.3032064
-0.00018362807
-1.3923114
0.0032563171
-0.17675488
0.0054410432
-0.17814725
0.0062971368
-0.17965946
0.008082912
-0.18094707
0.0095808486
-0.18173265
0.011517878
-0.18166129
0.013548362
-0.17558913
0.014128053
-0.19144733
0.01456905
-0.20871109
0.014970429
-0.22727114
0.015316391
-0.24698154
0.0156596
-0.26770492
0.016006535
-0.28936257
0.016357239
-0.31196952
0.016679567
-0.33564687
0.016922129
-0.36060205
0.017018635
-0.38708696
0.016902593
-0.4153495
0.016517804
-0.44559863
0.015830355
-0.47799111
0.014833261
-0.51263856
0.013549442
-0.54962117
0.012029259
-0.58900364
0.010345807
-0.63084761
0.008586353
-0.67522673
0.0068420901
-0.72223951
0.0051976226
-0.7720221
0.0037218767
-0.82475956
0.0024627528
-0.88068655
0.0014451724
-0.94009324
0.0006733779
-1.0033242
0.00013454153
-1.0707612
-0.00019430087
-1.1428635
-0.00034343098
-1.2200872
-0.00034128168
-1.3030487
-0.00022048035
-1.3920909
0.0024280459
-0.17463915
0.0044055484
-0.17571939
0.0052826336
-0.17713274
0.0069820566
-0.1785586
0.0083998095
-0.17976603
0.010186166
-0.18040094
0.012007519
-0.18012045
0.014145103
-0.17560618
0.014724679
-0.19160296
0.015245302
-0.20898596
0.015679746
-0.2276345
0.016079196
-0.24740114
0.016457016
-0.2681554
0.016827211
-0.28983255
0.017175088
-0.31246504
0.017463815
-0.33618855
0.017636316
-0.36121973
0.017626217
-0.38781059
0.017369284
-0.41620098
0.016817317
-0.4465856
0.015946658
-0.47910451
0.014764182
-0.5138533
0.01330695
-0.55089886
0.01163896
-0.59029679
0.0098436424
-0.6321049
0.008014212
-0.67639885
0.0062427306
-0.72328462
0.0046096657
-0.77290989
0.0031763877
-0.8254732
0.0019812327
-0.88122261
0.0010394436
-0.94045931
0.00034674469
-1.0035364
-0.00011615294
-1.0708393
-0.00037645289
-1.1428305
-0.00046646197
-1.219962
-0.00041509446
-1.3028541
-0.00025367177
-1.3918372
0.0016199617
-0.17295363
0.0033549341
-0.17358853
0.004286623
-0.17472338
0.0059232997
-0.17607399
0.0073156606
-0.17747445
0.009018636
-0.1785985
0.010712686
-0.1791061
0.012647248
-0.17862259
0.014753787
-0.17563529
0.015414244
-0.1917719
0.015967154
-0.20927337
0.016455832
-0.22801113
0.016893216
-0.24783734
0.017301472
-0.26862966
0.017680496
-0.29033795
0.018008981
-0.3130102
0.018243312
-0.33679555
0.018323606
-0.36191712
0.018183871
-0.38862517
0.017765638
-0.4171493
0.017029555
-0.44766849
0.015965136
-0.48030546
0.014593723
-0.51514007
0.012967353
-0.55222726
0.011162528
-0.59161568
0.0092713706
-0.63336206
0.0073907501
-0.67754687
0.0056109159
-0.72428587
0.0040062581
-0.77373976
0.0026290423
-0.82612101
0.0015074591
-0.88169062
0.00064710205
-0.94075967
3.5771719e-05
-1.0036884
-0.00035148644
-1.0708643
-0.00054524216
-1.1427517
-0.0005791022
-1.219798
-0.00048188306
-1.3026259
-0.00028335932
-1.3915538
0.00081390959
-0.17177783
0.002270121
-0.17186882
0.0032711129
-0.17257302
0.004849686
-0.17364976
0.0062515494
-0.17500988
0.0079231028
-0.17637892
0.0095628706
-0.17744869
0.011377296
-0.17783615
0.013295639
-0.17716445
0.015454997
-0.17567604
0.016148639
-0.19195339
0.01675674
-0.20957428
0.017285645
-0.22840356
0.017758892
-0.24829476
0.018185762
-0.26913492
0.018558425
-0.2908874
0.018847967
-0.31361486
0.019005434
-0.33747738
0.018969488
-0.36270274
0.018677473
-0.38953701
0.018077938
-0.41819768
0.017143439
-0.4488468
0.015877738
-0.48158948
0.01431803
-0.51649075
0.012530695
-0.55359542
0.010603522
-0.59294783
0.0086351789
-0.63460649
0.0067234042
-0.67865936
0.0049543718
-0.72523398
0.0033943968
-0.77450512
0.0020856024
-0.82669915
0.0010456981
-0.88208922
0.00027100927
-0.9409949
-0.00025787152
-1.003782
-0.00057064821
-1.0708389
-0.00070040799
-1.1426304
-0.00068137182
-1.2195985
-0.00054180213
-1.3023675
-0.00030963965
-1.3912442
-0.17116875
1.2724229e-08
0.0011485233
-0.17065623
0.0022173225
-0.17081502
0.0037252635
-0.1714486
0.0051494032
-0.17254762
0.0068201797
-0.17390695
0.0084625094
-0.17527856
0.010232517
-0.17630391
0.012051086
-0.1765916
0.014029379
-0.17573883
0.01620019
-0.17572759
0.016951008
-0.19214765
0.017601541
-0.20989017
0.018170599
-0.22881527
0.01867051
-0.24877951
0.019102666
-0.26967916
0.01945119
-0.29149062
0.01967956
-0.31428898
0.019735638
-0.33824353
0.019559001
-0.36358427
0.019091961
-0.39055103
0.018293201
-0.41934745
0.017148691
-0.45011775
0.015678348
-0.4829498
0.013935128
-0.51789518
0.011999048
-0.55499095
0.0099673161
-0.59427997
0.0079423855
-0.63582547
0.0060203747
-0.67972537
0.0042809763
-0.72612056
0.0027809106
-0.77520043
0.0015513953
-0.82720485
0.00059972957
-0.88241794
-8.6464573e-05
-0.94116631
-0.0005329123
-1.0038197
-0.00077312138
-1.0707661
-0.00084189249
-1.1424699
-0.00077343555
-1.2193669
-0.00059504739
-1.302082
-0.00033268311
-1.3909115
-0.17002024
1.1340111e-08
-0.17116875
-0.00081388424
0.0011233707
-0.16956228
0.0025358422
-0.1696256
0.0039740268
-0.17027322
0.0056502656
-0.1713777
0.0073297518
-0.1727742
0.0091141386
-0.17416018
0.010913694
-0.17516652
0.012801057
-0.17536328
0.014803432
-0.17434207
0.017013148
-0.17578973
0.017809301
-0.19235541
0.018503878
-0.21022345
0.019106309
-0.22925107
0.019621778
-0.24929862
0.020043699
-0.27027167
0.020346709
-0.29215777
0.020489455
-0.3150428
0.020418373
-0.3391029
0.020075954
-0.36456826
0.019412579
-0.39167041
0.018398945
-0.4205977
0.017036809
-0.45147621
0.015362712
-0.48437738
0.013445244
-0.51934138
0.011376584
-0.55640022
0.009260757
-0.59559834
0.0072014037
-0.6370065
0.0052902802
-0.68073467
0.0035986058
-0.72693826
0.0021722678
-0.7758213
0.0010312593
-0.82763637
0.00017278704
-0.88267719
-0.00042342735
-0.94127579
-0.00078845487
-1.0038044
-0.00095866399
-1.0706494
-0.00096981723
-1.1422735
-0.00085555635
-1.2191064
-0.00064189217
-1.3017728
-0.00035265124
-1.3905589
-0.16889688
9.6562805e-09
-0.17002024
-0.0011485008
-0.17177782
-0.0016199365
0.0012871192
-0.16831355
0.0027141047
-0.16836568
0.0043788678
-0.16900183
0.0061031726
-0.17015112
0.0079365826
-0.17159664
0.0097795991
-0.17302608
0.011661008
-0.17402647
0.013589567
-0.17414941
0.015639742
-0.17296866
0.017882132
-0.17586256
0.018726569
-0.1925781
0.019460462
-0.2105776
0.02008753
-0.22971682
0.02060563
-0.24986055
0.020997438
-0.2709224
0.021231197
-0.29289951
0.021261792
-0.31588622
0.021036577
-0.34006352
0.020504001
-0.36565968
0.01962472
-0.39289619
0.018384219
-0.42194511
0.016801057
-0.45291455
0.014928887
-0.48586103
0.012850956
-0.52081575
0.01066929
-0.55780875
0.0084921499
-0.59688908
0.0064213846
-0.6381376
0.0045419639
-0.68167803
0.0029149033
-0.72768089
0.0015744806
-0.77636452
0.00052944928
-0.82799304
-0.00023244711
-0.88286817
-0.00073845975
-0.94132579
-0.0010239495
-1.0037391
-0.0011272762
-1.0704919
-0.0010844564
-1.1420446
-0.00092808956
-1.2188202
-0.00068263941
-1.3014428
-0.00036972763
-1.3901891
-0.16760977
8.3346128e-09
-0.16889688
-0.0011233513
-0.17065623
-0.0022700985
-0.17295362
-0.0024280211
0.0013803734
-0.16697982
0.0029984249
-0.16698524
0.0047482051
-0.16764686
0.0066366682
-0.16885121
0.0085582838
-0.17037532
0.010501961
-0.17186704
0.012446041
-0.17288294
0.014434326
-0.172944
0.016527954
-0.17161449
0.018810812
-0.17594681
0.019700355
-0.192818
0.020467109
-0.21095718
0.0211086
-0.23021979
0.021611538
-0.25047465
0.021950896
-0.2716421
0.022088784
-0.2937265
0.021978919
-0.31682856
0.021572531
-0.34113205
0.020826542
-0.3668615
0.019714988
-0.39422695
0.018239661
-0.42338371
0.016437036
-0.4544227
0.01437748
-0.48738755
0.012156982
-0.52230344
0.0098849925
-0.55920159
0.0076709055
-0.59813861
0.0056119909
-0.63920763
0.0037842236
-0.68254735
0.0022371392
-0.72834355
0.00099297495
-0.77682804
4.9613826e-05
-0.8282751
-0.00061385319
-0.88299278
-0.0010305653
-0.94131917
-0.0012391711
-1.0036272
-0.0012791706
-1.0702972
-0.0011862119
-1.1417865
-0.00099145653
-1.2185114
-0.00071762726
-1.3010949
-0.00038409794
-1.389805
-0.1662294
6.9393346e-09
-0.16760977
-0.0012871027
-0.16956227
-0.0022173034
-0.17186881
-0.0033549121
-0.17463914
-0.0032562927
0.0015264831
-0.16550788
0.0032602166
-0.16549725
0.0051803849
-0.16619058
0.0071844427
-0.16747737
0.0092292207
-0.16910258
0.011260628
-0.17068162
0.013281412
-0.17173003
0.015327602
-0.17174364
0.017471537
-0.17027521
0.019797255
-0.1760437
0.020727459
-0.19307835
0.021519431
-0.21136802
0.022160051
-0.2307683
0.022627552
-0.25115131
0.022888523
-0.27244184
0.022901555
-0.29464914
0.022622017
-0.31787805
0.022007836
-0.34231335
0.021027798
-0.36817431
0.019671312
-0.39565861
0.017958183
-0.42490486
0.015943029
-0.45598825
0.013711525
-0.48894209
0.011370268
-0.52378872
0.009033032
-0.56056372
0.0068072914
-0.59933391
0.0047830923
-0.6402065
0.0030256243
-0.68333583
0.0015720342
-0.72892261
0.00043253607
-0.77721097
-0.00040524226
-0.82848371
-0.00096984384
-0.8830535
-0.0012991611
-0.94125918
-0.0014341777
-1.0034722
-0.0014147397
-1.0700687
-0.0012755888
-1.1415024
-0.0010461307
-1.2181829
-0.00074721051
-1.3007318
-0.00039595281
-1.3894091
-0.16470293
5.3920853e-09
-0.1662294
-0.0013803598
-0.16831355
-0.0025358257
-0.17081502
-0.003271094
-0.17358853
-0.0044055268
-0.17675488
-0.0041343564
0.0016623712
-0.16391004
0.0035657021
-0.16388257
0.0056236234
-0.16462976
0.007773811
-0.16602196
0.0099336658
-0.16777562
0.012064181
-0.16946439
0.01416196
-0.17056439
0.016271831
-0.17054394
0.018468997
-0.16894695
0.020839112
-0.17615536
0.021804541
-0.19336345
0.022609094
-0.21181706
0.023231135
-0.23137188
0.023638762
-0.25190155
0.023792482
-0.27333277
0.023649901
-0.29567702
0.023171128
-0.31904134
0.022324455
-0.34361
0.021092976
-0.36959598
0.01948374
-0.39718416
0.017535435
-0.42649726
0.015319984
-0.45759671
0.012936656
-0.49050848
0.0104997
-0.52525539
0.0081239991
-0.56188043
0.0059120984
-0.60046291
0.0039445291
-0.6411254
0.0022742707
-0.68403807
0.00092566664
-0.72941574
-0.00010275432
-0.77751345
-0.00083275099
-0.8286208
-0.0012993188
-0.88305334
-0.001544036
-0.94114933
-0.0016092739
-1.0032776
-0.0015345249
-1.0698097
-0.001353172
-1.1411953
-0.0010926213
-1.2178374
-0.00077175575
-1.300356
-0.00040548225
-1.3890036
-0.16304056
3.8576337e-09
-0.16470292
-0.0015264721
-0.16697982
-0.002714091
-0.1696256
-0.0037252474
-0.17257302
-0.0042866045
-0.17571938
-0.0054410222
-0.17920507
-0.0051048631
0.0018213907
-0.16216572
0.0038773919
-0.16213633
0.0061006266
-0.16295657
0.0083924743
-0.16448077
0.010677728
-0.16638917
0.012909232
-0.16821166
0.015089211
-0.16938177
0.017266206
-0.16934115
0.019518918
-0.16762676
0.021933842
-0.17628466
0.022924357
-0.19367872
0.023726584
-0.21231251
0.024307851
-0.23204097
0.024627759
-0.25273682
0.024642739
-0.2743256
0.024312616
-0.29681851
0.023606151
-0.32032304
0.022504917
-0.34502194
0.021009146
-0.37112138
0.019145026
-0.39879375
0.016969896
-0.42814718
0.014571793
-0.45923185
0.012060892
-0.49206967
0.0095558543
-0.52668724
0.0071693899
-0.56313772
0.0049963607
-0.60151474
0.0031058309
-0.64195696
0.001537667
-0.68465007
0.0003033773
-0.72982187
-0.0006095407
-0.77773666
-0.0012311411
-0.82868898
-0.0016016562
-0.88299572
-0.001765305
-0.9409933
-0.0017649732
-1.0030472
-0.0016391873
-1.0695237
-0.0014196058
-1.1408683
-0.0011314588
-1.2174777
-0.0007916316
-1.2999699
-0.00041287363
-1.3885907
-0.16121917
2.3496765e-09
-0.16304056
-0.0016623633
-0.16550788
-0.0029984142
-0.16836568
-0.0039740134
-0.17144859
-0.0048496701
-0.17472337
-0.0052826153
-0.17814724
-0.0064988573
-0.18188478
-0.0062236111
0.0019817191
-0.16027005
0.004213818
-0.16024953
0.0066009757
-0.16116507
0.0090449473
-0.16284799
0.011459192
-0.16493913
0.013797086
-0.16691954
0.016063004
-0.16817856
0.018309515
-0.16813174
0.020619121
-0.16631204
0.023075133
-0.17643543
0.024078541
-0.19403068
0.024858992
-0.21286365
0.025373524
-0.23278674
0.025574472
-0.25366856
0.025417203
-0.27543019
0.024867799
-0.29808016
0.023907063
-0.32172518
0.022533269
-0.34654607
0.020765954
-0.37274231
0.018650839
-0.4004747
0.016263292
-0.42983868
0.013705161
-0.46087612
0.011094406
-0.49360822
0.0085506497
-0.5280685
0.0061812821
-0.56432264
0.0040710161
-0.60247993
0.0022760221
-0.64269532
0.00082257751
-0.68516927
-0.00029028589
-0.73014113
-0.0010851967
-0.77788261
-0.0015992017
-0.82869143
-0.0018766562
-0.88288437
-0.0019633683
-0.9407949
-0.0019019614
-1.0027844
-0.0017294799
-1.0692138
-0.0014755718
-1.1405242
-0.0011631804
-1.2171062
-0.00080720408
-1.2995756
-0.00041831049
-1.3881724
-0.15923745
7.2491289e-10
-0.16121917
-0.0018213862
-0.16391003
-0.0032602089
-0.16698523
-0.004378857
-0.17027322
-0.0051493898
-0.17364976
-0.0059232842
-0.17713274
-0.0062971192
-0.18074848
-0.0076351546
-0.18468742
-0.0075578548
0.0021559786
-0.15821221
0.0045663402
-0.15821489
0.0071285993
-0.15924872
0.0097300292
-0.16111882
0.012279192
-0.16342123
0.014727424
-0.16558396
0.017082024
-0.16695107
0.019400564
-0.16691319
0.021764802
-0.1650017
0.024255599
-0.17661249
0.025255326
-0.19442701
0.02599059
-0.21348072
0.026408433
-0.2336207
0.026456348
-0.2547077
0.026092527
-0.27665492
0.025293087
-0.29946618
0.02405492
-0.32324683
0.022395905
-0.34817602
0.020355959
-0.37444743
0.01800033
-0.40221173
0.015420564
-0.43155408
0.012729433
-0.46251114
0.010049199
-0.49510677
0.007496994
-0.52938421
0.005171945
-0.56542357
0.0031466563
-0.60335056
0.0014634297
-0.64333617
0.00013493512
-0.68559449
-0.00085160558
-0.73037472
-0.0015277472
-0.77795406
-0.0019362679
-0.82863182
-0.0021244943
-0.88272324
-0.0021388658
-0.940558
-0.0020210612
-1.0024928
-0.0018062167
-1.0688832
-0.0015217664
-1.1401656
-0.0011883267
-1.2167251
-0.00081884034
-1.299175
-0.00042196661
-1.3877505
-0.15708147
-1.1764196e-09
-0.15923745
-0.0019817179
-0.16216572
-0.0035656973
-0.16549724
-0.0047481972
-0.16900182
-0.0056502552
-0.17254761
-0.0062515365
-0.17607398
-0.0069820415
-0.17965945
-0.0073861513
-0.18340033
-0.008922246
-0.18751085
-0.0091840146
0.0023381309
-0.155984
0.0049382634
-0.15602455
0.0076825089
-0.1572012
0.010448071
-0.1592877
0.013137177
-0.16183099
0.015699054
-0.16420099
0.018145213
-0.16569572
0.020534937