/*--------------------------------*- C++ -*----------------------------------*\
| =========                 |                                                 |
| \\      /  F ield         | OpenFOAM: The Open Source CFD Toolbox           |
|  \\    /   O peration     | Version:  5.0                                   |
|   \\  /    A nd           | Web:      www.OpenFOAM.org                      |
|    \\/     M anipulation  |                                                 |
\*---------------------------------------------------------------------------*/
FoamFile
{
    version     2.0;
    format      ascii;
    class       volScalarField;
    location    "90";
    object      pMean;
}
// * * * * * * * * * * * * * * * * * * * * * * * * * * * * * * * * * * * * * //

dimensions      [0 2 -2 0 0 0 0];

internalField   nonuniform List<scalar> 
9200
(
-0.00044492838
-0.00043841773
-0.00098043306
-0.00043270589
-0.00097118642
-0.0016766789
-0.00042478235
-0.00095581132
-0.0016596726
-0.002294736
-0.00041471194
-0.00093357506
-0.0016342607
-0.0022735907
-0.0029374746
-0.00040335379
-0.00090478413
-0.001598257
-0.0022394011
-0.0029119662
-0.0035565362
-0.00039019674
-0.00087168696
-0.0015516277
-0.0021913794
-0.0028697881
-0.003528597
-0.0041715085
-0.00037606032
-0.00083352636
-0.0014977102
-0.0021286331
-0.0028111993
-0.003480193
-0.0041422924
-0.0047727443
-0.00036092524
-0.00079196551
-0.0014356195
-0.0020557402
-0.0027339117
-0.0034136238
-0.0040893166
-0.0047439558
-0.0053639774
-0.00034526785
-0.00074713042
-0.0013677579
-0.0019715078
-0.0026437136
-0.0033245422
-0.0040172268
-0.0046883979
-0.0053373646
-0.0059410461
-0.00032930515
-0.00069997217
-0.0012945718
-0.0018790251
-0.0025389493
-0.0032199743
-0.0039189989
-0.0046137176
-0.0052815986
-0.0059185701
-0.0065047813
-0.00031332503
-0.00065100561
-0.0012175787
-0.0017789367
-0.0024233922
-0.0030974746
-0.0038028998
-0.0045095323
-0.005207812
-0.005865126
-0.006488484
-0.0070515751
-0.00029748506
-0.00060089335
-0.0011377588
-0.0016732318
-0.0022978946
-0.0029613411
-0.0036654565
-0.0043853408
-0.0051015083
-0.0057959272
-0.0064401972
-0.00704362
-0.0075805185
-0.00028178917
-0.00055018673
-0.0010562526
-0.0015632655
-0.0021649338
-0.0028124431
-0.0035114419
-0.004236299
-0.0049733221
-0.0056916478
-0.0063797303
-0.0070034605
-0.0075831382
-0.0080883387
-0.00026597635
-0.00049945445
-0.00097399031
-0.001450619
-0.0020262616
-0.0026537356
-0.003341628
-0.0040675242
-0.0048167419
-0.0055640203
-0.0062821942
-0.0069560627
-0.007554298
-0.00810375
-0.0085734231
-0.00024941405
-0.00044932295
-0.00089176661
-0.0013366554
-0.0018839118
-0.0024873545
-0.0031593545
-0.003879555
-0.0046370845
-0.0054044787
-0.0061602708
-0.0068702908
-0.0075246167
-0.0080894718
-0.0086036761
-0.0090327514
-0.00023097067
-0.00040056686
-0.00081024162
-0.0012226619
-0.0017396555
-0.0023158112
-0.0029670802
-0.0036760151
-0.0044344612
-0.005218341
-0.0060030101
-0.006759698
-0.0074560693
-0.0080822484
-0.0086071783
-0.0090799613
-0.0094640058
-0.00020897076
-0.0003541579
-0.0007299132
-0.0011098179
-0.001595163
-0.0021413293
-0.0027677586
-0.0034596092
-0.0042126747
-0.0050050763
-0.0058155467
-0.006610558
-0.0073629324
-0.008036598
-0.0086272939
-0.0091043584
-0.0095302813
-0.0098646857
-0.0001812828
-0.00031127531
-0.00065105257
-0.0009992164
-0.0014518926
-0.0019660374
-0.0025640578
-0.0032337048
-0.003974589
-0.0047685336
-0.0055964554
-0.0064275556
-0.0072283828
-0.0079674317
-0.0086104735
-0.0091565827
-0.0095787519
-0.0099518304
-0.0102327
-0.00014558441
-0.0002732282
-0.00057379247
-0.00089193493
-0.0013110809
-0.0017918445
-0.002358544
-0.0030014189
-0.003723955
-0.0045116294
-0.0053494526
-0.0062081345
-0.0070564107
-0.0078544616
-0.0085721431
-0.0091745552
-0.0096676555
-0.010027433
-0.010342328
-0.010566152
-9.9732807e-05
-0.00024134913
-0.00049817361
-0.00078901352
-0.0011737554
-0.0016204012
-0.0021535144
-0.0027658082
-0.0034643347
-0.0042384392
-0.0050773732
-0.0059556834
-0.0068430344
-0.0077007442
-0.0084882797
-0.0091741047
-0.0097264004
-0.010157386
-0.010447799
-0.010699624
-0.010863467
-4.2170681e-05
-0.00021676751
-0.00042414344
-0.00069142708
-0.0010407868
-0.0014530924
-0.0019509894
-0.0025296511
-0.0031992873
-0.0039529457
-0.0047845354
-0.0056727834
-0.0065910802
-0.007500572
-0.0083607334
-0.0091272252
-0.0097710104
-0.010262663
-0.010623006
-0.010837343
-0.011021868
-0.011123419
2.7741788e-05
-0.00020019405
-0.00035170222
-0.0006000652
-0.00091288229
-0.0012910654
-0.0017526804
-0.002295421
-0.0029321042
-0.0036592284
-0.0044752978
-0.0053638733
-0.0063026711
-0.0072559514
-0.008181776
-0.0090343243
-0.0097692945
-0.010359412
-0.010780321
-0.011061567
-0.01119388
-0.011307518
-0.011345121
0.00010954846
-0.00019186203
-0.0002810511
-0.00051566415
-0.00079061586
-0.0011353603
-0.0015600147
-0.0020652696
-0.002665774
-0.0033611486
-0.0041542501
-0.0050336099
-0.0059822123
-0.0069682984
-0.0079523061
-0.0088853484
-0.0097200066
-0.01041114
-0.010936136
-0.011275977
-0.011470356
-0.01151546
-0.01155539
-0.011528051
0.00020162931
-0.00019175857
-0.00021261408
-0.00043877624
-0.00067445502
-0.00098692483
-0.0013741834
-0.00184101
-0.0024029202
-0.0030622742
-0.00382584
-0.0046870736
-0.005634548
-0.0066417828
-0.007672758
-0.008679791
-0.0096104937
-0.010414758
-0.011049567
-0.011497372
-0.011746441
-0.011846772
-0.011800435
-0.011764655
-0.011672079
0.00030140085
-0.00020014797
-0.00014687503
-0.00036974286
-0.00056479179
-0.00084659437
-0.0011961824
-0.0016241539
-0.0021458012
-0.0027657915
-0.0034942631
-0.0043293177
-0.0052651877
-0.0062812839
-0.0073468275
-0.0084167926
-0.0094385341
-0.010354766
-0.011115568
-0.011680533
-0.012039464
-0.01218848
-0.012188528
-0.012047506
-0.011934852
-0.011777411
0.00040556583
-0.00021722697
-8.3790708e-05
-0.0003086637
-0.00046201604
-0.00071503499
-0.0010268562
-0.0014160191
-0.0018963228
-0.0024744746
-0.0031633423
-0.003965214
-0.0048797697
-0.0058926406
-0.0069792308
-0.0080992906
-0.009201649
-0.010226929
-0.011115599
-0.011818378
-0.012299997
-0.012558483
-0.01259911
-0.012493648
-0.012255747
-0.012065898
-0.011844491
0.00051031437
-0.00024211523
-2.2929331e-05
-0.00025544625
-0.000366355
-0.00059268845
-0.00086696498
-0.001217789
-0.0016561015
-0.0021907069
-0.0028364687
-0.0035992833
-0.0044838648
-0.0054820334
-0.0065759931
-0.0077315899
-0.0089016987
-0.010026807
-0.011043131
-0.011889185
-0.012518938
-0.012903444
-0.013050691
-0.012975529
-0.012760533
-0.012424614
-0.012158028
-0.011874108
0.00061181509
-0.00027258933
3.5508178e-05
-0.00020997737
-0.00027783358
-0.00048005418
-0.00071716
-0.0010304723
-0.0014265393
-0.0019165218
-0.002516584
-0.0032356051
-0.0040827505
-0.0050557326
-0.0061437454
-0.0073197053
-0.008542281
-0.0097548314
-0.010891431
-0.011883896
-0.012671328
-0.013212308
-0.01348639
-0.01351236
-0.013315271
-0.012988
-0.012553953
-0.012211771
-0.011867569
0.00070512438
-0.00030463518
9.0231071e-05
-0.00017223054
-0.0001965157
-0.00037760531
-0.00057787395
-0.00085492
-0.0012088377
-0.0016536743
-0.0022062156
-0.0028777762
-0.0036812823
-0.004619814
-0.0056894235
-0.006870579
-0.008129149
-0.0094135502
-0.010659129
-0.011793166
-0.01274539
-0.013456901
-0.013893372
-0.014044198
-0.013940055
-0.013616194
-0.013175235
-0.012643962
-0.012228058
-0.011826265
0.00079279843
-0.00033516999
0.00013929149
-0.0001415184
-0.00012280776
-0.00028554676
-0.00044940279
-0.0006917971
-0.001003989
-0.0014037342
-0.0019075526
-0.0025289239
-0.0032838123
-0.0041799766
-0.0052199156
-0.0063917341
-0.0076693613
-0.0090081457
-0.010347344
-0.011613447
-0.012728893
-0.013622618
-0.01424037
-0.014556655
-0.014572391
-0.014330571
-0.013876548
-0.013321683
-0.012695163
-0.012208178
-0.011751493
0.00088679055
-0.00036291777
0.00017970775
-0.00011400026
-5.7469028e-05
-0.00020392173
-0.00033198231
-0.00054162245
-0.00081286483
-0.0011680957
-0.0016225097
-0.002191772
-0.0028941747
-0.003741426
-0.0047418213
-0.0058908482
-0.007170895
-0.0085455354
-0.009960324
-0.011344019
-0.012615746
-0.013694117
-0.014509915
-0.015015585
-0.015196661
-0.015066618
-0.014681097
-0.014094957
-0.013427175
-0.012708409
-0.012153494
-0.011644878
0.00098113523
-0.000389572
0.0002121056
-8.9307448e-05
9.9093866e-07
-0.00013237014
-0.00022620516
-0.00040488186
-0.00063616852
-0.00094789131
-0.0013527542
-0.0018687338
-0.0025157313
-0.0033088213
-0.0042612821
-0.0053754492
-0.0066421499
-0.0080339545
-0.009504524
-0.010987788
-0.012402969
-0.013662431
-0.01468341
-0.015400723
-0.015776144
-0.015807852
-0.015522852
-0.014989204
-0.01427051
-0.013491983
-0.012684667
-0.012065344
-0.011508913
0.0010717873
-0.0004160904
0.00024668422
-7.2054492e-05
5.3798331e-05
-6.6430519e-05
-0.00013260345
-0.00028207288
-0.00047441849
-0.00074395925
-0.0010997326
-0.0015619697
-0.0021514582
-0.0028862943
-0.0037838888
-0.0048526839
-0.0060915726
-0.0074823991
-0.0089881758
-0.010550358
-0.012091676
-0.013521906
-0.014748735
-0.01569016
-0.016287943
-0.016515373
-0.016384886
-0.015937413
-0.01525295
-0.014402733
-0.013516692
-0.012625176
-0.011945541
-0.011345701
0.0011560525
-0.00044229993
0.00028140335
-5.3809796e-05
9.588006e-05
-5.9102239e-06
-4.6621074e-05
-0.00017327186
-0.00032841213
-0.00055701511
-0.00086462374
-0.0012733409
-0.001804017
-0.0024775253
-0.0033146611
-0.0043291787
-0.0055273567
-0.0069001748
-0.0084206771
-0.010039622
-0.011686179
-0.013271395
-0.014697174
-0.015868418
-0.01670689
-0.017163922
-0.0172266
-0.016922674
-0.016307096
-0.01547087
-0.014491585
-0.013502288
-0.012531619
-0.011796366
-0.011157165
0.0012313864
-0.00046729267
0.00031350383
-3.4711823e-05
0.00013735168
3.8833489e-05
3.3024972e-05
-7.2305343e-05
-0.00019860819
-0.00038805553
-0.00064838583
-0.0010043543
-0.0014757681
-0.0020858319
-0.002858104
-0.0038109756
-0.0049572441
-0.0062965259
-0.0078120751
-0.0094651104
-0.011193627
-0.012913429
-0.014524846
-0.015923384
-0.017014041
-0.017725238
-0.018020739
-0.017903236
-0.017416541
-0.016629201
-0.015642018
-0.014537456
-0.013450075
-0.012405872
-0.011619859
-0.010945304
0.0012952575
-0.00049000386
0.00034190669
-1.7085042e-05
0.00017762249
8.3352222e-05
9.3667761e-05
2.1684195e-05
-7.7652096e-05
-0.00023755586
-0.00045227225
-0.00075623938
-0.0011686978
-0.0017141958
-0.0024182963
-0.0033035545
-0.0043884128
-0.0056803645
-0.0071726149
-0.0088374211
-0.010623333
-0.012453934
-0.014231984
-0.015847999
-0.01719363
-0.018176912
-0.018736235
-0.018850313
-0.018538984
-0.017862296
-0.016901599
-0.015765954
-0.014541136
-0.013361639
-0.012249924
-0.011418138
-0.010712103
0.0013453747
-0.00050946708
0.00036629037
-2.0344113e-06
0.00021544224
0.00012750401
0.00015291841
9.145537e-05
3.5961227e-05
-9.6591635e-05
-0.0002770548
-0.00053059514
-0.00088444376
-0.0013651554
-0.0019989414
-0.0028119109
-0.0038274535
-0.0050601062
-0.0065123938
-0.0081676864
-0.009986173
-0.011901581
-0.01382276
-0.015639663
-0.017235016
-0.018499374
-0.019347349
-0.019730435
-0.019644646
-0.019127945
-0.018256342
-0.017122742
-0.01584274
-0.01450377
-0.013238777
-0.012065872
-0.011193312
-0.010459673
0.0013798554
-0.0005248316
0.00038631106
1.052384e-05
0.00024891431
0.00016915245
0.00021013857
0.00016070683
0.00011952153
3.6482426e-05
-0.00011225731
-0.00032849465
-0.0006249814
-0.0010408343
-0.0016032831
-0.0023406203
-0.0032804267
-0.0044435928
-0.0058411293
-0.0074671505
-0.0092939779
-0.011267159
-0.013304694
-0.015300225
-0.017132257
-0.018678076
-0.019830667
-0.020514793
-0.020698174
-0.02039598
-0.01966478
-0.018595717
-0.017291686
-0.015872899
-0.014426827
-0.013083459
-0.011855863
-0.010947513
-0.01019004
0.0013974119
-0.00053549361
0.00040162595
2.06619e-05
0.00027759723
0.00020573135
0.0002647129
0.00022812758
0.00020183233
0.00013224981
4.4233437e-05
-0.000137731
-0.00039184577
-0.00074373107
-0.0012341062
-0.0018937786
-0.0027529319
-0.0038381134
-0.0051680299
-0.006746859
-0.0085590314
-0.010562923
-0.012688041
-0.014835482
-0.01688429
-0.01870327
-0.020167525
-0.021176242
-0.021668089
-0.021629775
-0.021096997
-0.020144791
-0.01887815
-0.017408069
-0.015857392
-0.014312054
-0.012897795
-0.011622085
-0.01068283
-0.009905162
-0.00054097398
0.0013974119
0.00041179973
2.8366437e-05
0.00030114327
0.00023690633
0.00031322601
0.00029257737
0.00028133271
0.00022728214
0.00015533892
4.4289993e-05
-0.00017106673
-0.00047594284
-0.00089454904
-0.0014749337
-0.0022500594
-0.0032504622
-0.004501761
-0.0060174716
-0.007793678
-0.0098020081
-0.011985104
-0.014254614
-0.016494559
-0.018570391
-0.02034397
-0.021691909
-0.02252377
-0.02279571
-0.022515793
-0.021740972
-0.020564034
-0.019102076
-0.017472103
-0.015797586
-0.01416145
-0.012684012
-0.011366724
-0.01040129
-0.0096068649
0.00041671216
-0.00054097407
0.0013798554
3.337888e-05
0.00031916579
0.00026245012
0.00035490608
0.00034965708
0.00035781617
0.00031976366
0.00026594032
0.00017155831
4.0560207e-05
-0.00022155089
-0.00058735361
-0.0010880101
-0.0017763033
-0.0026868891
-0.0038504838
-0.0052891688
-0.0070100637
-0.0089979559
-0.011209589
-0.013569502
-0.015970557
-0.018279887
-0.020351405
-0.022043363
-0.023238202
-0.023860096
-0.023886043
-0.023347223
-0.022321918
-0.020919363
-0.019266642
-0.017484542
-0.015695219
-0.01397721
-0.012444403
-0.011091929
-0.010104812
-0.0092968933
3.5712594e-05
0.00041671208
-0.0005354937
0.0013453748
0.00033101026
0.00028203227
0.00038925852
0.00039857439
0.00042587902
0.00040916383
0.00037321143
0.00029935041
0.00018700836
2.3331849e-05
-0.00029464545
-0.00073661081
-0.0013365778
-0.0021530411
-0.0032218053
-0.0045716512
-0.0062199873
-0.0081643771
-0.010376048
-0.012794038
-0.015323174
-0.01783688
-0.020186616
-0.022217498
-0.02378833
-0.024792013
-0.025171555
-0.024927658
-0.024115717
-0.022834714
-0.021208486
-0.019371693
-0.017446664
-0.015552357
-0.013761693
-0.012181273
-0.010799763
-0.00979523
-0.0089769358
0.00033654937
3.5712467e-05
0.00041179939
-0.00052483189
0.0012952576
0.00029497902
0.00041572988
0.00043877307
0.00048440097
0.00048867506
0.00047721598
0.00042352291
0.00033549196
0.00019135026
-1.1727574e-05
-0.0004008303
-0.00093558076
-0.0016549808
-0.0026227003
-0.0038740751
-0.0054348404
-0.0073147415
-0.0094994585
-0.011943497
-0.014565999
-0.017250614
-0.019851644
-0.022206829
-0.024156193
-0.025563807
-0.026337908
-0.026444275
-0.025909583
-0.024813766
-0.02327519
-0.021429967
-0.019417765
-0.017360228
-0.015371341
-0.013517337
-0.011896876
-0.010492194
-0.0094743118
-0.0086486274
0.00030119834
0.00033654922
3.3378529e-05
0.00040162544
-0.00050946737
0.0012313864
0.00043332933
0.00046954834
0.00053264788
0.000556989
0.00056987407
0.00054420859
0.00047926646
0.00036398733
0.00018148267
-7.4980259e-05
-0.00055127541
-0.0011987403
-0.0020606021
-0.0032049404
-0.0046655195
-0.0064622564
-0.0085949453
-0.011034036
-0.013714632
-0.016533775
-0.019353355
-0.022009582
-0.024329479
-0.026152448
-0.027353056
-0.027859731
-0.02766452
-0.026821565
-0.025434866
-0.023640195
-0.021583242
-0.019406056
-0.017227423
-0.015154703
-0.01324658
-0.011593369
-0.010171123
-0.0091437838
-0.0083134705
0.00044178225
0.00030119817
0.00033100986
2.8365819e-05
0.00038631029
-0.00049000434
0.0011560525
0.00048968149
0.0005697617
0.00061330222
0.00064959125
0.00065177422
0.00061912303
0.00053068971
0.00038307124
0.00014715479
-0.00017674461
-0.00076016389
-0.0015431809
-0.0025732997
-0.0039222831
-0.005619733
-0.0076776035
-0.010082338
-0.012786115
-0.015701782
-0.018702835
-0.021629462
-0.024301901
-0.026540367
-0.028188874
-0.029137997
-0.029341002
-0.028819024
-0.027654315
-0.025973652
-0.023927626
-0.021668612
-0.019338399
-0.017050776
-0.014905045
-0.012951784
-0.011272863
-0.009838439
-0.0088052879
-0.0079728555
0.00049895799
0.00044178206
0.00029497851
0.00031916508
2.0661036e-05
0.00036628941
-0.00046729318
0.0010717873
0.00059429538
0.00065660736
0.00071537013
0.00074430305
0.00074388564
0.00069283494
0.00057667265
0.00038323908
7.9032465e-05
-0.00033080603
-0.0010442259
-0.0019887814
-0.0032160104
-0.0047994006
-0.006762299
-0.0091053854
-0.0117985
-0.014772151
-0.017914693
-0.021075173
-0.024073195
-0.026716124
-0.028822254
-0.030246021
-0.030899611
-0.030765305
-0.029895321
-0.028399725
-0.026425979
-0.024136464
-0.021687248
-0.019217146
-0.016832985
-0.01462492
-0.012635288
-0.010937504
-0.009495978
-0.0084603362
-0.0076281689
0.00060592597
0.0004989578
0.00043332879
0.00028203141
0.00030114227
1.0522684e-05
0.00034190546
-0.00044230066
0.00098113516
0.00068521059
0.0007660138
0.00082064576
0.00085121966
0.00083755973
0.0007647427
0.0006086278
0.00035650633
-3.6162003e-05
-0.00055339421
-0.001423198
-0.002558643
-0.0040142044
-0.0058634286
-0.0081201901
-0.010770558
-0.013763996
-0.017006393
-0.020359782
-0.023648838
-0.026674702
-0.029236082
-0.031155069
-0.032302768
-0.032618395
-0.032116723
-0.030882061
-0.029051042
-0.026788995
-0.024266803
-0.021641068
-0.01904496
-0.016576742
-0.014316913
-0.012299589
-0.010589458
-0.0091453617
-0.0081102407
-0.0072805624
0.0006987532
0.00060592578
0.00048968089
0.00041572896
0.0002624489
0.00027759591
-2.035846e-06
0.00031350239
-0.00041609118
0.00088679032
0.00079954688
0.00087942082
0.00093977727
0.00096200524
0.00093271706
0.00082709883
0.00061943292
0.00029078593
-0.00021383653
-0.00086390524
-0.0019201943
-0.0032787829
-0.0049962428
-0.0071434781
-0.0097214665
-0.012697684
-0.015997687
-0.019500043
-0.023039517
-0.02641746
-0.02941985
-0.031841985
-0.033516239
-0.034336793
-0.034274855
-0.033380245
-0.031769287
-0.029603006
-0.02706122
-0.024319787
-0.021532492
-0.01882457
-0.016284864
-0.013983949
-0.011947279
-0.010230422
-0.0087877662
-0.0077561714
-0.0069302161
0.00081553055
0.00069875297
0.00059429476
0.00046954735
0.00038925722
0.00023690475
0.00024891267
-1.7086805e-05
0.00028140164
-0.00038957301
0.00079279816
0.00091835321
0.0010079728
0.0010646337
0.0010770751
0.0010223046
0.00087353621
0.00059813524
0.00017228008
-0.00047263331
-0.0012851032
-0.0025615313
-0.0041784702
-0.0061930062
-0.0086703876
-0.011594466
-0.014910215
-0.018515794
-0.022260504
-0.025951796
-0.029369925
-0.032290157
-0.03451067
-0.035881143
-0.03632513
-0.035850042
-0.034542161
-0.032548682
-0.030051974
-0.027242523
-0.024297259
-0.021364106
-0.018558962
-0.015960756
-0.013629143
-0.011580112
-0.0098612454
-0.0084245671
-0.0073996904
-0.0065780697
0.00093695038
0.0008155303
0.00068520993
0.00056976068
0.00043877166
0.00035490439
0.00020572939
0.00021544024
-3.4713912e-05
0.00024668229
-0.00036291881
0.00070512386
0.0010532167
0.0011436391
0.001196076
0.0011899517
0.0011006733
0.00089409936
0.00053217265
-1.5943877e-05
-0.00083438842
-0.0018431988
-0.0033770982
-0.0052899618
-0.0076377403
-0.010475982
-0.0137671
-0.017429502
-0.02133104
-0.025290615
-0.029089445
-0.03249012
-0.035262882
-0.037215969
-0.038223685
-0.038244787
-0.037326046
-0.035590433
-0.033213794
-0.030395953
-0.027333759
-0.024201391
-0.021138935
-0.018252036
-0.015608137
-0.013254258
-0.01119847
-0.0094839268
-0.0080592144
-0.0070429094
-0.0062139746
0.0010749526
0.0009369501
0.00079954615
0.00065660623
0.0005326464
0.00039857255
0.00031322393
0.00016915011
0.00017762014
-5.3812235e-05
0.00021210341
-0.00033517127
0.00061181452
0.0011960928
0.0012876392
0.0013280366
0.0012956081
0.0011587084
0.00087732253
0.00040601211
-0.00029384799
-0.0013245995
-0.0025684237
-0.0044001888
-0.0066485046
-0.009365404
-0.012592385
-0.016265823
-0.020273835
-0.024451744
-0.028587973
-0.032439781
-0.035756859
-0.038311286
-0.039929264
-0.040516978
-0.04007338
-0.038686518
-0.03651506
-0.033760102
-0.030634232
-0.027336289
-0.02403502
-0.020861336
-0.017908181
-0.015228713
-0.012859012
-0.01080523
-0.0091053122
-0.0076945737
-0.006664834
-0.0058344849
0.0012213876
0.0010749522
0.00091835236
0.00076601256
0.00061330063
0.00048439907
0.00034965478
0.00026471041
0.00012750128
0.00013734896
-7.2057259e-05
0.00017970535
-0.00030463652
0.00051031356
0.001348491
0.001434176
0.0014559733
0.0013856418
0.0011859629
0.00080894246
0.00020121834
-0.00068498487
-0.0019728131
-0.0034949056
-0.0056676844
-0.0082917959
-0.011412008
-0.015051
-0.019114599
-0.023457419
-0.027880982
-0.032144309
-0.035984332
-0.039143961
-0.041405088
-0.042620193
-0.042734098
-0.04178978
-0.039917179
-0.037308268
-0.034184633
-0.030766818
-0.0272524
-0.023802851
-0.020536392
-0.017528936
-0.014821306
-0.012447543
-0.010411711
-0.0087286096
-0.0072940778
-0.0062716257
-0.0054445019
0.0013779886
0.0012213872
0.0010532156
0.00087941938
0.00071536838
0.00055698691
0.00042587663
0.00029257462
0.00021013569
8.3349111e-05
9.5876999e-05
-8.9310529e-05
0.00013928885
-0.00027259091
0.00040556502
0.001504757
0.0015790868
0.0015720585
0.0014504343
0.0011692906
0.00067190208
-0.00010408116
-0.0012166613
-0.0028126527
-0.0046607413
-0.0072196311
-0.010259322
-0.013813633
-0.017881417
-0.022333772
-0.026989372
-0.031615775
-0.035945
-0.039698713
-0.042620574
-0.044511158
-0.045257496
-0.044848868
-0.043374805
-0.041006179
-0.037964089
-0.034485342
-0.030794977
-0.02708693
-0.023510626
-0.02016532
-0.017111948
-0.014391678
-0.01203716
-0.01002154
-0.0082893449
-0.0068820115
-0.0058663836
-0.005046164
0.0015391193
0.0013779881
0.0011960916
0.001007971
0.00082064371
0.00064958895
0.0004886725
0.00035781335
0.00022812433
0.00015291512
3.8830057e-05
5.3794935e-05
-0.00011400361
9.0228309e-05
-0.00024211681
0.00030139993
0.0016610053
0.0017149635
0.0016673259
0.0014777575
0.0010928506
0.00044588996
-0.00053543122
-0.0019202702
-0.0038819505
-0.0061077325
-0.0090985611
-0.012591462
-0.016605292
-0.021110219
-0.025938923
-0.030872746
-0.035646395
-0.039968716
-0.043552754
-0.046151771
-0.047594398
-0.047809932
-0.046836729
-0.044811756
-0.04194373
-0.038477584
-0.034661798
-0.030723312
-0.026846167
-0.023159022
-0.019744235
-0.016665029
-0.013964713
-0.011631687
-0.0095337582
-0.0078419189
-0.0064551951
-0.0054520291
-0.0046387172
0.001701078
0.0015391187
0.0013484896
0.001143637
0.00093977476
0.00074430038
0.00056987123
0.00040916074
0.00028132938
0.00016070313
9.3664124e-05
-5.9139753e-06
9.872591e-07
-0.00014152199
3.5505273e-05
-0.00021722868
0.00020162846
0.0018100776
0.0018333148
0.0017303021
0.0014528806
0.000937758
0.0001069996
-0.0011223269
-0.0028315699
-0.0052224417
-0.0078810532
-0.011348739
-0.015328311
-0.019819732
-0.0247597
-0.029939714
-0.035103623
-0.039955776
-0.044187313
-0.047510933
-0.049699422
-0.050618782
-0.050247322
-0.048675492
-0.046086144
-0.042721181
-0.038845756
-0.034717837
-0.030558425
-0.026529919
-0.02274214
-0.01928344
-0.016222499
-0.01354432
-0.011081114
-0.0090427991
-0.0073767504
-0.0060191984
-0.0050276808
-0.0042229392
0.0018567934
0.0017010775
0.0015047554
0.0012876367
0.0010646307
0.00085121637
0.00065177089
0.00047721255
0.00031976006
0.00020182855
9.1451209e-05
3.3020973e-05
-6.6434595e-05
-5.7472952e-05
-0.00017223429
-2.2932261e-05
-0.00020014965
0.00010954764
0.0019437698
0.0019232991
0.0017471325
0.0013582633
0.00068161158
-0.00037252515
-0.0018985317
-0.0039903787
-0.0068796804
-0.010028509
-0.014014913
-0.018508525
-0.023486031
-0.02884655
-0.034338799
-0.039670299
-0.044519148
-0.048566046
-0.051533172
-0.053223301
-0.053548556
-0.052541537
-0.050345186
-0.047184636
-0.043331943
-0.039070939
-0.034660049
-0.0302988
-0.026129651
-0.022273235
-0.018828794
-0.015788268
-0.012918715
-0.010532511
-0.0085299037
-0.0069024894
-0.0055725308
-0.0045943444
-0.0037988986
0.0019981875
0.0018567928
0.0016610035
0.0014341733
0.0011960725
0.00096200132
0.00074388154
0.00054420456
0.00037320739
0.000227278
0.00011951728
2.1679649e-05
-4.6625387e-05
-0.00013237446
-0.00012281183
-0.00020998123
-8.37937e-05
-0.00019176027
2.7741092e-05
0.0020516846
0.0019717594
0.0017012931
0.0011726903
0.00029820743
-0.0010245461
-0.0029020111
-0.0054405072
-0.0089022867
-0.012599149
-0.017141286
-0.022167822
-0.027628114
-0.033380578
-0.039130781
-0.04455266
-0.049303989
-0.053064196
-0.055575948
-0.056682449
-0.056349473
-0.054666517
-0.051826836
-0.048096057
-0.043775851
-0.039159164
-0.034484941
-0.029932405
-0.025662022
-0.021812191
-0.018384184
-0.015072484
-0.012301013
-0.0099566939
-0.0080085568
-0.0064174165
-0.0051165883
-0.0041521722
-0.0033670595
0.0021151603
0.0019981868
0.0018100757
0.0015790838
0.0013280327
0.0010770706
0.00083755482
0.00061911807
0.00042351813
0.00026593564
0.00013224517
3.5956553e-05
-7.2310288e-05
-0.00013260804
-0.00020392622
-0.0001965199
-0.00025545011
-0.00014687794
-0.00019186367
-4.2171232e-05
0.0021211545
0.0019626961
0.0015725513
0.00087123603
-0.00024253097
-0.0018851982
-0.0041747683
-0.0072291446
-0.01134062
-0.015642515
-0.020769915
-0.026337353
-0.032263333
-0.038363463
-0.044301336
-0.049721838
-0.054270418
-0.057636132
-0.059593781
-0.060036638
-0.058989015
-0.05659686
-0.053103496
-0.048816623
-0.04405766
-0.039104208
-0.034175862
-0.029479734
-0.02520384
-0.021362869
-0.017562733
-0.014371012
-0.011649234
-0.0093738914
-0.0074764062
-0.0059231765
-0.0046514134
-0.0037017953
-0.0029277604
0.0021953371
0.0021151597
0.0019437679
0.0017149604
0.001455969
0.0011899465
0.00093271136
0.000692829
0.0004792606
0.00029934485
0.00015533363
3.6477262e-05
-7.76572e-05
-0.00017327708
-0.00022620994
-0.00028555135
-0.00027783781
-0.00030866753
-0.00021261695
-0.00020019562
-9.9733253e-05
0.0021364624
0.001876581
0.001337052
0.00042541527
-0.00097501486
-0.0029947616
-0.0057623863
-0.0094064252
-0.014246193
-0.019206945
-0.024938938
-0.031042163
-0.037400969
-0.043787635
-0.049826592
-0.05514033
-0.059372102
-0.062232842
-0.063540944
-0.063246856
-0.061434823
-0.058308733
-0.054166625
-0.049348845
-0.044167429
-0.038883308
-0.033757461
-0.029038029
-0.024758891
-0.020418309
-0.016762447
-0.013627193
-0.010992266
-0.0087807974
-0.0069353038
-0.0054197257
-0.0041778031
-0.0032437439
-0.0024814443
0.0022230455
0.0021953365
0.0020516828
0.0018333116
0.001572054
0.0012956025
0.0010222982
0.0007647358
0.00053068267
0.00033548512
0.00017155197
4.4227516e-05
-9.6597278e-05
-0.00019861366
-0.00028207835
-0.00033198728
-0.00037760998
-0.00036635925
-0.00036974658
-0.00028105381
-0.00021676903
-0.00014558466
0.0020786181
0.0016904346
0.00096758604
-0.00019762203
-0.0019378596
-0.0043973468
-0.0077141866
-0.012024658
-0.017669939
-0.023337658
-0.029680983
-0.036299425
-0.043040917
-0.049635392
-0.055672916
-0.060762662
-0.064557767
-0.066803898
-0.067372246
-0.066273579
-0.063655313
-0.059787505
-0.0550155
-0.049677803
-0.044074322
-0.038525333
-0.033351517
-0.028610967
-0.02367247
-0.019502363
-0.015909551
-0.012880724
-0.010325939
-0.0081792308
-0.0063851845
-0.004907943
-0.0036964321
-0.0027787227
-0.0020284661
0.002179567
0.0022230449
0.0021211527
0.0019232959
0.0016673214
0.001385636
0.0011006663
0.00082709102
0.00057666449
0.00036397915
0.00018700056
4.4282872e-05
-0.00011226384
-0.00023756198
-0.00032841794
-0.00040488751
-0.00044940791
-0.0004800589
-0.00046202024
-0.00043877985
-0.00035170482
-0.00024135048
-0.00018128299
0.0019252755
0.0013781871
0.00043266156
-0.0010349752
-0.0031736977
-0.006140849
-0.010082136
-0.015136585
-0.021660133
-0.028075252
-0.035021041
-0.042116952
-0.049172577
-0.05587837
-0.061797306
-0.066536784
-0.069773359
-0.071298596
-0.071041197
-0.069076964
-0.065628556
-0.061028206
-0.055628742
-0.049762172
-0.043811202
-0.038181508
-0.032961722
-0.027362192
-0.022622883
-0.018520835
-0.015057396
-0.012126114
-0.0096519018
-0.0075692118
-0.0058269577
-0.0043886614
-0.0032081852
-0.0023068246
-0.0015694564
0.0020429222
0.0021795665
0.0021364607
0.0019717564
0.0017302976
0.0014504284
0.001158701
0.00087352775
0.00060861859
0.00038306178
0.00019134091
4.0551458e-05
-0.00013773889
-0.00027706194
-0.00038806211
-0.00047442466
-0.00054162831
-0.00057787922
-0.00059269323
-0.00056479598
-0.00051566761
-0.00042414586
-0.0002732295
-0.00020897075
0.0016508028
0.00090933748
-0.00030357487
-0.002127803
-0.0047290016
-0.0082760794
-0.012918724
-0.018793117
-0.026261296
-0.033453123
-0.040974784
-0.048491947
-0.055773996
-0.0624776
-0.068148564
-0.072406339
-0.07496365
-0.075664106
-0.074499641
-0.07162689
-0.067344243
-0.062001603
-0.055951532
-0.049638196
-0.043564641
-0.037855866
-0.031528936
-0.026159437
-0.021491068
-0.017544482
-0.014198532
-0.011364888
-0.0089700908
-0.0069514715
-0.0052616298
-0.0038629377
-0.0027125775
-0.001828826
-0.0011048782
0.0017876907
0.0020429218
0.0020786167
0.0019626933
0.0017471282
0.0014777517
0.0011859556
0.00089409053
0.00061942293
0.00038322841
0.00018147194
2.3321386e-05
-0.00017107641
-0.00032850331
-0.00045228003
-0.00055702221
-0.00063617507
-0.00069180319
-0.00071716547
-0.00071503987
-0.0006744592
-0.00060006856
-0.00049817587
-0.00031127638
-0.00023097066
0.0012254001
0.00024890513
-0.001280965
-0.0035211696
-0.0066534811
-0.010855015
-0.016276656
-0.023043469
-0.031511052
-0.039495674
-0.047547268
-0.055409889
-0.062811547
-0.069384457
-0.074669508
-0.078312822
-0.080070504
-0.079844403
-0.077708821
-0.073906911
-0.068763921
-0.062635812
-0.056022342
-0.049534678
-0.04333961
-0.036216713
-0.030152323
-0.024853219
-0.020370062
-0.016563167
-0.013334443
-0.010596755
-0.0082811534
-0.006327274
-0.0046904072
-0.0033292671
-0.0022112672
-0.001345136
-0.00063515748
0.0013843735
0.0017876905
0.0019252743
0.0018765784
0.0017012891
0.0014528751
0.0011692834
0.00087731361
0.00059812482
0.00035649486
0.00014714276
-1.1739537e-05
-0.00022156247
-0.00039185641
-0.00053060463
-0.00064839432
-0.00074396694
-0.00081287186
-0.00085492642
-0.0008669707
-0.00084659941
-0.00079062007
-0.00069143036
-0.00057379461
-0.00035415894
-0.00024941389
0.00061499562
-0.0006419214
-0.0025432951
-0.0052635356
-0.0089987254
-0.013931549
-0.020207738
-0.02793149
-0.037438278
-0.046217171
-0.054731683
-0.062843703
-0.070240681
-0.076542693
-0.081299653
-0.084194162
-0.085030953
-0.083792251
-0.080645892
-0.075868141
-0.0697948
-0.062969687
-0.056120267
-0.049458608
-0.04147187
-0.034644891
-0.028645131
-0.023564877
-0.019246081
-0.01557835
-0.012464464
-0.0098222654
-0.0075865841
-0.0056979143
-0.0041104544
-0.0027900531
-0.0017047276
-0.00085646102
-0.00016068863
0.00079926578