/*--------------------------------*- C++ -*----------------------------------*\
| =========                 |                                                 |
| \\      /  F ield         | OpenFOAM: The Open Source CFD Toolbox           |
|  \\    /   O peration     | Version:  5.0                                   |
|   \\  /    A nd           | Web:      www.OpenFOAM.org                      |
|    \\/     M anipulation  |                                                 |
\*---------------------------------------------------------------------------*/
FoamFile
{
    version     2.0;
    format      ascii;
    class       volScalarField;
    location    "90";
    object      pPrime2Mean;
}
// * * * * * * * * * * * * * * * * * * * * * * * * * * * * * * * * * * * * * //

dimensions      [0 4 -4 0 0 0 0];

internalField   nonuniform List<scalar> 
9200
(
2.746057e-09
2.7772676e-09
1.2967676e-08
2.8132278e-09
1.3106524e-08
3.6897466e-08
2.97e-09
1.3047198e-08
3.7275506e-08
6.832026e-08
3.1856685e-09
1.3301928e-08
3.730589e-08
6.8828302e-08
1.0984333e-07
3.545858e-09
1.3689253e-08
3.8190483e-08
6.8724331e-08
1.1064043e-07
1.5853245e-07
4.0542871e-09
1.4554641e-08
3.9564442e-08
7.0004253e-08
1.1049278e-07
1.5962438e-07
2.1494768e-07
4.7609395e-09
1.5879795e-08
4.2267001e-08
7.2089703e-08
1.1244012e-07
1.5929131e-07
2.1651353e-07
2.7839727e-07
5.701351e-09
1.7810783e-08
4.6340737e-08
7.6370152e-08
1.1556195e-07
1.6177256e-07
2.1605086e-07
2.8067209e-07
3.4903422e-07
6.9214921e-09
2.0378886e-08
5.218338e-08
8.2935248e-08
1.2195891e-07
1.6563304e-07
2.192039e-07
2.8020064e-07
3.5237483e-07
4.2676435e-07
8.4759662e-09
2.361021e-08
5.9946087e-08
9.244773e-08
1.3177831e-07
1.7375795e-07
2.237596e-07
2.8427067e-07
3.5220125e-07
4.3174048e-07
5.116404e-07
1.0425886e-08
2.7494941e-08
6.9763456e-08
1.0515789e-07
1.4604726e-07
1.8630137e-07
2.3347041e-07
2.8958027e-07
3.5767558e-07
4.3245201e-07
5.1896299e-07
6.0329626e-07
1.2844743e-08
3.1988943e-08
8.1670563e-08
1.2128805e-07
1.6516114e-07
2.0473195e-07
2.4840066e-07
3.0081095e-07
3.639966e-07
4.4025749e-07
5.2141389e-07
6.1391589e-07
7.0143531e-07
1.5815535e-08
3.7042511e-08
9.5578486e-08
1.4088262e-07
1.8947739e-07
2.2965904e-07
2.7050319e-07
3.1777845e-07
3.7677906e-07
4.4838758e-07
5.328729e-07
6.1932029e-07
7.1646652e-07
8.0511607e-07
1.942788e-08
4.2609649e-08
1.1129551e-07
1.6377815e-07
2.1909349e-07
2.616658e-07
3.0061456e-07
3.4290025e-07
3.9538189e-07
4.6339143e-07
5.4412504e-07
6.3633638e-07
7.2637657e-07
8.2580637e-07
9.1409658e-07
2.3765541e-08
4.8678829e-08
1.2851586e-07
1.8965814e-07
2.5381009e-07
3.009358e-07
3.3964929e-07
3.772055e-07
4.2268513e-07
4.8386305e-07
5.6262199e-07
6.5278636e-07
7.5137375e-07
8.4204586e-07
9.4146928e-07
1.0265144e-06
2.88799e-08
5.5294328e-08
1.4676442e-07
2.1808322e-07
2.9316125e-07
3.4725774e-07
3.8803209e-07
4.2196496e-07
4.5986681e-07
5.1302393e-07
5.8584894e-07
6.7700668e-07
7.7589068e-07
8.7795409e-07
9.6586182e-07
1.0618501e-06
1.1409462e-06
3.4729467e-08
6.257088e-08
1.6541331e-07
2.4852199e-07
3.3638117e-07
4.0009919e-07
4.4569379e-07
4.7791902e-07
5.0863389e-07
5.5204739e-07
6.1721639e-07
7.0495652e-07
8.0915718e-07
9.1419503e-07
1.0160341e-06
1.0964057e-06
1.1856582e-06
1.2556687e-06
4.1079961e-08
7.0687824e-08
1.8376399e-07
2.8037626e-07
3.8249915e-07
4.5855524e-07
5.1213818e-07
5.4529457e-07
5.7015742e-07
6.0305039e-07
6.57641e-07
7.399631e-07
8.4519504e-07
9.6096654e-07
1.0684414e-06
1.1643928e-06
1.2326484e-06
1.3107374e-06
1.3689707e-06
4.7381938e-08
7.983664e-08
2.0102508e-07
3.1296552e-07
4.3039111e-07
5.2144213e-07
5.8638446e-07
6.2382772e-07
6.4512857e-07
6.6767948e-07
7.0953223e-07
7.8234368e-07
8.869456e-07
1.0099474e-06
1.1344017e-06
1.2379755e-06
1.3218082e-06
1.3721559e-06
1.4351874e-06
1.4792252e-06
5.2730455e-08
9.0099106e-08
2.1638612e-07
3.4556667e-07
4.7884575e-07
5.8743752e-07
6.6703761e-07
7.1265544e-07
7.3372401e-07
7.4722665e-07
7.7496193e-07
8.3455958e-07
9.3364009e-07
1.063391e-06
1.2029726e-06
1.3298211e-06
1.4219425e-06
1.4859153e-06
1.5126959e-06
1.5570371e-06
1.5849768e-06
5.5987102e-08
1.0131499e-07
2.2917864e-07
3.7739777e-07
5.2659118e-07
6.5507794e-07
7.5238777e-07
8.1038395e-07
8.3544695e-07
8.4251923e-07
8.5589877e-07
8.9892208e-07
9.8739075e-07
1.1188705e-06
1.2754236e-06
1.4262627e-06
1.5472396e-06
1.6180388e-06
1.6544152e-06
1.6518816e-06
1.6744679e-06
1.6849449e-06
5.6084168e-08
1.1295518e-07
2.3892715e-07
4.0762455e-07
5.7236861e-07
7.2283523e-07
8.4054508e-07
9.151978e-07
9.4913231e-07
9.5367486e-07
9.54002e-07
9.7802932e-07
1.0503707e-06
1.1776021e-06
1.3470667e-06
1.5274066e-06
1.6813991e-06
1.784828e-06
1.8236109e-06
1.8241349e-06
1.7873558e-06
1.7858593e-06
1.7781826e-06
5.2411246e-08
1.2413269e-07
2.4547329e-07
4.3548421e-07
6.1492446e-07
7.8912392e-07
9.2947565e-07
1.0250128e-06
1.072999e-06
1.0800388e-06
1.0702869e-06
1.0744664e-06
1.1255727e-06
1.2410402e-06
1.4175524e-06
1.6257382e-06
1.8233905e-06
1.9677247e-06
2.0399716e-06
2.0349139e-06
1.9918374e-06
1.9168932e-06
1.8898401e-06
1.8641009e-06
4.5156961e-08
1.3393118e-07
2.4908277e-07
4.6043933e-07
6.5309523e-07
8.5238801e-07
1.0170761e-06
1.137612e-06
1.2047969e-06
1.2201835e-06
1.2049533e-06
1.1903769e-06
1.2164323e-06
1.3121047e-06
1.4868181e-06
1.7186172e-06
1.9624529e-06
2.1648657e-06
2.2833244e-06
2.3084853e-06
2.2479036e-06
2.1542287e-06
2.0385647e-06
1.9854303e-06
1.9423737e-06
3.5456022e-08
1.4222791e-07
2.5047049e-07
4.8215219e-07
6.8594308e-07
9.1117413e-07
1.1013752e-06
1.2506823e-06
1.3419614e-06
1.3720135e-06
1.3572841e-06
1.327155e-06
1.3263311e-06
1.3947694e-06
1.5569629e-06
1.8034996e-06
2.0929815e-06
2.362103e-06
2.5516177e-06
2.6240581e-06
2.5853501e-06
2.4580575e-06
2.3083124e-06
2.1507452e-06
2.0720565e-06
2.0129968e-06
2.5277418e-08
1.4967018e-07
2.4982863e-07
5.0029564e-07
7.1306498e-07
9.6410767e-07
1.1805521e-06
1.3618216e-06
1.4817014e-06
1.5329544e-06
1.5256678e-06
1.485214e-06
1.4581479e-06
1.4935572e-06
1.6318651e-06
1.8806372e-06
2.2088964e-06
2.5503815e-06
2.8275686e-06
2.9804447e-06
2.9842382e-06
2.8645859e-06
2.660907e-06
2.4513763e-06
2.2522173e-06
2.1494596e-06
2.0764009e-06
1.6988097e-08
1.565362e-07
2.4665113e-07
5.1453682e-07
7.3442706e-07
1.0099704e-06
1.25301e-06
1.4686162e-06
1.6210965e-06
1.7000957e-06
1.7077353e-06
1.6638796e-06
1.6138631e-06
1.6129613e-06
1.716775e-06
1.9528145e-06
2.3073427e-06
2.7190927e-06
3.098542e-06
3.358002e-06
3.4456922e-06
3.3564248e-06
3.1398092e-06
2.8521028e-06
2.5811664e-06
2.3422346e-06
2.2177599e-06
2.1333224e-06
1.2722685e-08
1.6273892e-07
2.4127315e-07
5.245827e-07
7.5023427e-07
1.0482009e-06
1.317532e-06
1.5687734e-06
1.7572458e-06
1.8702414e-06
1.9005319e-06
1.8614488e-06
1.794273e-06
1.7568819e-06
1.8176644e-06
2.025187e-06
2.3886354e-06
2.8608979e-06
3.3486534e-06
3.7409056e-06
3.9490673e-06
3.9388588e-06
3.7320657e-06
3.4044361e-06
3.0277639e-06
2.6960133e-06
2.4204977e-06
2.2774671e-06
2.184457e-06
1.4036662e-08
1.6884471e-07
2.3497591e-07
5.3011468e-07
7.6093283e-07
1.0788095e-06
1.3734243e-06
1.6601303e-06
1.8874084e-06
2.0399914e-06
2.10059e-06
2.0753514e-06
1.9988872e-06
1.9281248e-06
1.9405166e-06
2.1046579e-06
2.4565258e-06
2.9719529e-06
3.5647779e-06
4.1077347e-06
4.4764238e-06
4.5922184e-06
4.4492405e-06
4.1017457e-06
3.6521592e-06
3.1846204e-06
2.7949787e-06
2.4872548e-06
2.3293956e-06
2.2305136e-06
2.1741791e-08
1.7511788e-07
2.2772501e-07
5.3113732e-07
7.6698037e-07
1.1021152e-06
1.4202403e-06
1.740748e-06
2.0091517e-06
2.2057631e-06
2.303997e-06
2.3022599e-06
2.2260097e-06
2.1280879e-06
2.0905915e-06
2.1990987e-06
2.5177616e-06
3.0528003e-06
3.7370598e-06
4.4386034e-06
5.0012529e-06
5.2982942e-06
5.2751777e-06
4.9641743e-06
4.4558848e-06
3.8772237e-06
3.3202108e-06
2.87767e-06
2.5433146e-06
2.3746245e-06
2.2718369e-06
3.6450113e-08
1.7872623e-07
2.2003891e-07
5.3087535e-07
7.6891126e-07
1.1181279e-06
1.4572969e-06
1.8095094e-06
2.1202578e-06
2.3639035e-06
2.5065685e-06
2.5381078e-06
2.472854e-06
2.3566688e-06
2.2718387e-06
2.3164042e-06
2.5813778e-06
3.1083126e-06
3.8606156e-06
4.7158829e-06
5.4965755e-06
6.0268786e-06
6.1940656e-06
5.9820758e-06
5.4699447e-06
4.7851554e-06
4.0748e-06
3.432848e-06
2.9441383e-06
2.5896829e-06
2.4141486e-06
2.3095438e-06
5.7499544e-08
1.8081587e-07
2.1348833e-07
5.3427869e-07
7.6764582e-07
1.1269175e-06
1.4844791e-06
1.866622e-06
2.2188163e-06
2.5109806e-06
2.7040461e-06
2.7781553e-06
2.7355325e-06
2.6123228e-06
2.4865451e-06
2.463619e-06
2.6576264e-06
3.1472625e-06
3.9360722e-06
4.9268322e-06
5.9356725e-06
6.7445311e-06
7.1744532e-06
7.1454373e-06
6.6944632e-06
5.9523812e-06
5.0811309e-06
4.2411359e-06
3.5217686e-06
2.9949834e-06
2.6271404e-06
2.4484602e-06
2.3464683e-06
8.3903455e-08
1.8317364e-07
2.0975577e-07
5.3038587e-07
7.6536591e-07
1.1326405e-06
1.5026095e-06
1.9121958e-06
2.3032867e-06
2.6440416e-06
2.8922067e-06
3.0171189e-06
3.0090847e-06
2.89202e-06
2.7352234e-06
2.6462526e-06
2.7568429e-06
3.1812905e-06
3.969688e-06
5.0649165e-06
6.295638e-06
7.4149849e-06
8.1783311e-06
8.4251616e-06
8.1292332e-06
7.3921e-06
6.3978595e-06
5.336644e-06
4.3737738e-06
3.587115e-06
3.0312624e-06
2.6567306e-06
2.4792761e-06
2.3839588e-06
1.1392099e-07
1.8579618e-07
2.0930219e-07
5.1719172e-07
7.5694868e-07
1.1399089e-06
1.5166578e-06
1.9461971e-06
2.3726561e-06
2.7612203e-06
3.0669648e-06
3.2494507e-06
3.2876419e-06
3.1911187e-06
3.0165234e-06
2.8678791e-06
2.8883957e-06
3.2236207e-06
3.9726099e-06
5.1307842e-06
6.5595902e-06
8.0034583e-06
9.1607323e-06
9.7820168e-06
9.7521311e-06
9.1182341e-06
8.0543316e-06
6.7939574e-06
5.5462374e-06
4.4716033e-06
3.6298534e-06
3.0547263e-06
2.6804655e-06
2.5088942e-06
2.4230721e-06
1.4519333e-07
1.8858028e-07
2.1085181e-07
5.0586422e-07
7.4535216e-07
1.1360687e-06
1.5308932e-06
1.9756939e-06
2.4269008e-06
2.8612907e-06
3.2247328e-06
3.4696851e-06
3.5646596e-06
3.5034198e-06
3.3269621e-06
3.1298981e-06
3.0598976e-06
3.2876814e-06
3.9596446e-06
5.1321367e-06
6.7187706e-06
8.4797173e-06
1.0074456e-05
1.1164889e-05
1.1527575e-05
1.112109e-05
1.0082957e-05
8.6611792e-06
7.1302814e-06
5.7063512e-06
4.5348886e-06
3.6517831e-06
3.0674702e-06
2.700352e-06
2.538897e-06
2.4651016e-06
1.7496872e-07
1.9143828e-07
2.1345319e-07
4.9624901e-07
7.3803352e-07
1.1212445e-06
1.5283056e-06
2.0048972e-06
2.4758489e-06
2.9433911e-06
3.3623609e-06
3.6727856e-06
3.8333019e-06
3.8214378e-06
3.6608025e-06
3.4311185e-06
3.276677e-06
3.3858771e-06
3.9476848e-06
5.0828768e-06
6.7733957e-06
8.8214581e-06
1.0873722e-05
1.2515377e-05
1.3402835e-05
1.3375e-05
1.2492366e-05
1.0993195e-05
9.194672e-06
7.3989338e-06
5.8154875e-06
4.5651854e-06
3.6553728e-06
3.0719289e-06
2.7184745e-06
2.5709339e-06
2.5110988e-06
2.0041378e-07
1.9418678e-07
2.1655638e-07
4.8773789e-07
7.3391777e-07
1.1088985e-06
1.5123757e-06
2.010845e-06
2.5235708e-06
3.0200696e-06
3.4778614e-06
3.8542681e-06
4.0867188e-06
4.1368834e-06
4.0102378e-06
3.7673173e-06
3.5412003e-06
3.5286362e-06
3.9540805e-06
5.0015949e-06
6.7325945e-06
9.0164818e-06
1.1518818e-05
1.3771541e-05
1.531183e-05
1.5832205e-05
1.5274153e-05
1.3822888e-05
1.1820093e-05
9.6398271e-06
7.5949496e-06
5.8741852e-06
4.5651893e-06
3.6436287e-06
3.0707109e-06
2.7368723e-06
2.6064656e-06
2.5622222e-06
2.1896855e-07
1.9657109e-07
2.1969742e-07
4.8043646e-07
7.3124385e-07
1.0991028e-06
1.5010925e-06
2.000547e-06
2.5348695e-06
3.0947426e-06
3.5876732e-06
4.0107647e-06
4.317704e-06
4.4410853e-06
4.3658777e-06
4.1312164e-06
3.8522569e-06
3.7235592e-06
3.995189e-06
4.9097141e-06
6.6133519e-06
9.0638816e-06
1.1979799e-05
1.4873527e-05
1.7178241e-05
1.8425131e-05
1.8393996e-05
1.7167032e-05
1.5069083e-05
1.2537801e-05
9.9855389e-06
7.7164308e-06
5.884901e-06
4.5385502e-06
3.6199529e-06
3.0665733e-06
2.7574808e-06
2.6467807e-06
2.6191519e-06
2.2873041e-07
1.9833713e-07
2.2245228e-07
4.7451671e-07
7.2950857e-07
1.0903165e-06
1.4950226e-06
1.9936885e-06
2.5241255e-06
3.1184329e-06
3.6944698e-06
4.1625107e-06
4.5207533e-06
4.7244372e-06
4.7173175e-06
4.5129313e-06
4.2045263e-06
3.9742497e-06
4.0851065e-06
4.8295788e-06
6.4387551e-06
8.9739595e-06
1.2239342e-05
1.5768712e-05
1.8921471e-05
2.1067954e-05
2.1791758e-05
2.1014618e-05
1.8991454e-05
1.6189502e-05
1.3125194e-05
1.0225103e-05
7.7645437e-06
5.8517656e-06
4.489666e-06
3.5879957e-06
3.0621694e-06
2.7820707e-06
2.6928239e-06
2.6823231e-06
1.9929035e-07
2.287305e-07
2.2438826e-07
4.7007144e-07
7.2847006e-07
1.0827387e-06
1.4905203e-06
1.9915571e-06
2.5198179e-06
3.1162174e-06
3.7306665e-06
4.3113085e-06
4.7205093e-06
4.9788776e-06
5.052339e-06
4.9006536e-06
4.5888216e-06
4.2792455e-06
4.2341673e-06
4.7826736e-06
6.2358355e-06
8.7670715e-06
1.2294223e-05
1.6416539e-05
2.0462883e-05
2.3661991e-05
2.538058e-05
2.5324365e-05
2.3610103e-05
2.068486e-05
1.7147668e-05
1.3566997e-05
1.0356434e-05
7.7432827e-06
5.7802568e-06
4.4234665e-06
3.551414e-06
3.0599526e-06
2.8121064e-06
2.7452451e-06
2.752082e-06
2.2530793e-07
1.9929018e-07
2.1896865e-07
4.6704119e-07
7.2790545e-07
1.0766601e-06
1.4869475e-06
1.9896932e-06
2.5225608e-06
3.1225999e-06
3.7363252e-06
4.3677548e-06
4.9176307e-06
5.2327553e-06
5.3591232e-06
5.2798439e-06
4.9927751e-06
4.6318263e-06
4.4471233e-06
4.7877334e-06
6.0333147e-06
8.4716446e-06
1.2155395e-05
1.6792025e-05
2.1732486e-05
2.6102164e-05
2.9050503e-05
3.002049e-05
2.8915836e-05
2.6091076e-05
2.2188662e-05
1.791429e-05
1.3854612e-05
1.0381991e-05
7.6590335e-06
5.6768823e-06
4.345076e-06
3.5136984e-06
3.0620518e-06
2.8486762e-06
2.8045789e-06
2.829017e-06
4.6548861e-07
2.2530784e-07
1.9833677e-07
2.0041403e-07
7.2738816e-07
1.0721769e-06
1.4843311e-06
1.9880961e-06
2.5252068e-06
3.1370701e-06
3.7542461e-06
4.3908243e-06
4.9971503e-06
5.4860594e-06
5.6694672e-06
5.6349403e-06
5.4001036e-06
5.0204965e-06
4.7221427e-06
4.8582601e-06
5.8592635e-06
8.1217115e-06
1.184682e-05
1.6887821e-05
2.2674853e-05
2.8285057e-05
3.2673974e-05
3.4993373e-05
3.4859311e-05
3.2445094e-05
2.8368922e-05
2.3452083e-05
1.8469078e-05
1.3986302e-05
1.0308293e-05
7.5200604e-06
5.5487132e-06
4.2595029e-06
3.4779792e-06
3.0702315e-06
2.8926288e-06
2.8714443e-06
2.914047e-06
7.2689748e-07
4.6548825e-07
2.2438796e-07
1.9657037e-07
1.7496897e-07
1.0690099e-06
1.4826869e-06
1.9869495e-06
2.5273164e-06
3.1493982e-06
3.7823217e-06
4.4294564e-06
5.0422883e-06
5.5961215e-06
5.9829586e-06
6.0000515e-06
5.7918535e-06
5.42841e-06
5.0508936e-06
5.0003299e-06
5.7381257e-06
7.754182e-06
1.1403322e-05
1.6714641e-05
2.3253744e-05
3.0117117e-05
3.6114193e-05
4.0102557e-05
4.134766e-05
3.9741652e-05
3.5785139e-05
3.0361822e-05
2.443556e-05
1.8801647e-05
1.3966923e-05
1.0145191e-05
7.335849e-06
5.4028778e-06
4.1713541e-06
3.4469637e-06
3.0859009e-06
2.9447119e-06
2.9466442e-06
3.008144e-06
1.0673361e-06
7.2689697e-07
4.6704017e-07
2.2245179e-07
1.9418589e-07
1.4519368e-07
1.4814911e-06
1.9860892e-06
2.5291303e-06
3.15929e-06
3.8063195e-06
4.4798105e-06
5.1067633e-06
5.6745145e-06
6.1273096e-06
6.3748758e-06
6.2021639e-06
5.8340984e-06
5.4180211e-06
5.2118918e-06
5.6871817e-06
7.4055228e-06
1.0867811e-05
1.630028e-05
2.3455055e-05
3.1522201e-05
3.9234858e-05
4.5183808e-05
4.824347e-05
4.7925256e-05
4.4494654e-05
3.8811788e-05
3.2000528e-05
2.5113007e-05
1.8911684e-05
1.3806991e-05
9.9048715e-06
7.1163703e-06
5.246117e-06
4.0847419e-06
3.4229156e-06
3.1102844e-06
3.005785e-06
3.0310835e-06
3.1120177e-06
1.4807893e-06
1.0673354e-06
7.2738671e-07
4.7006968e-07
2.1969668e-07
1.9143707e-07
1.1392134e-07
1.9845632e-06
2.530632e-06
3.1673611e-06
3.8258221e-06
4.522981e-06
5.184969e-06
5.775096e-06
6.2476505e-06
6.5580783e-06
6.6313097e-06
6.2694542e-06
5.8011536e-06
5.4820923e-06
5.7144539e-06
7.107144e-06
1.0287817e-05
1.5687425e-05
2.3287986e-05
3.2447796e-05
4.1910507e-05
5.0059e-05
5.5368533e-05
5.6883754e-05
5.4502715e-05
4.8939551e-05
4.1412685e-05
3.3232853e-05
2.5472954e-05
1.8808076e-05
1.3521317e-05
9.6008358e-06
6.8713577e-06
5.0846255e-06
4.0032688e-06
3.4077916e-06
3.1445672e-06
3.0768478e-06
3.1256202e-06
3.2261535e-06
1.9825983e-06
1.4807882e-06
1.0690074e-06
7.2790294e-07
4.7451426e-07
2.165554e-07
1.8857892e-07
8.3903862e-08
2.5308256e-06
3.1736236e-06
3.8414907e-06
4.5582077e-06
5.2525625e-06
5.8910275e-06
6.3928299e-06
6.7311537e-06
6.852338e-06
6.7360222e-06
6.2274059e-06
5.7906059e-06
5.8178712e-06
6.8813119e-06
9.7103561e-06
1.4930555e-05
2.2784523e-05
3.2869455e-05
4.403631e-05
5.4548243e-05
6.2511849e-05
6.6446862e-05
6.5749998e-05
6.0835322e-05
5.2904812e-05
4.3495171e-05
3.4026651e-05
2.551813e-05
1.8507194e-05
1.3127406e-05
9.2468233e-06
6.6100339e-06
4.924036e-06
3.9301098e-06
3.4033475e-06
3.1900068e-06
3.1588991e-06
3.2309434e-06
3.3512867e-06
2.5301187e-06
1.9825968e-06
1.4814878e-06
1.0721729e-06
7.2846657e-07
4.8043326e-07
2.1345191e-07
1.8579454e-07
5.7499923e-08
3.1767713e-06
3.8533893e-06
4.5863745e-06
5.3080054e-06
5.9921162e-06
6.555126e-06
6.9305949e-06
7.0849435e-06
6.9883154e-06
6.7007865e-06
6.1564274e-06
5.983691e-06
6.7398161e-06
9.1757093e-06
1.409091e-05
2.1997537e-05
3.2793241e-05
4.5536737e-05
5.8482924e-05
6.9441557e-05
7.6389653e-05
7.8104178e-05
7.452341e-05
6.6674634e-05
5.6238587e-05
4.4992289e-05
3.4370574e-05
2.5263585e-05
1.8030554e-05
1.2644067e-05
8.8563545e-06
6.3410972e-06
4.7694797e-06
3.8680688e-06
3.4113169e-06
3.2478629e-06
3.2527752e-06
3.3478454e-06
3.4882612e-06
3.1773246e-06
2.5301167e-06
1.9845588e-06
1.4826814e-06
1.0766543e-06
7.2950397e-07
4.8773397e-07
2.1085022e-07
1.8317188e-07
3.6450521e-08
3.8599234e-06
4.6077006e-06
5.3522552e-06
6.0753446e-06
6.6979705e-06
7.1488119e-06
7.345552e-06
7.2819334e-06
6.967225e-06
6.5875682e-06
6.2186246e-06
6.6818738e-06
8.7149715e-06
1.3228877e-05
2.0996733e-05
3.2256359e-05
4.6372321e-05
6.1718926e-05
7.5919897e-05
8.6441612e-05
9.1356396e-05
8.9946103e-05
8.286146e-05
7.1786962e-05
5.8819479e-05
4.5865909e-05
3.427253e-05
2.4733593e-05
1.7402807e-05
1.2090562e-05
8.4425957e-06
6.0727421e-06
4.6255529e-06
3.8198266e-06
3.4335083e-06
3.3193112e-06
3.3593249e-06
3.4772005e-06
3.6374457e-06
3.8618938e-06
3.1773221e-06
2.5308198e-06
1.9860817e-06
1.4843231e-06
1.0827313e-06
7.3123819e-07
4.9624431e-07
2.0930023e-07
1.8081388e-07
2.1742125e-08
4.620264e-06
5.3855791e-06
6.1417803e-06
6.8162128e-06
7.3427585e-06
7.6272412e-06
7.6056313e-06
7.3102712e-06
6.8354071e-06
6.5357947e-06
6.6972746e-06
8.3483842e-06
1.2399775e-05
1.9860967e-05
3.1325293e-05
4.6544494e-05
6.4148833e-05
8.1720285e-05
9.6300825e-05
0.00010522416
0.0001069511
0.00010152256
9.0423156e-05
7.597063e-05
6.0563546e-05
4.6106403e-05
3.3755997e-05
2.3958808e-05
1.6650601e-05
1.148654e-05
8.018423e-06
5.8125104e-06
4.4965936e-06
3.7881523e-06
3.4716223e-06
3.4052828e-06
3.4794346e-06
3.6196308e-06
3.799564e-06
4.6251341e-06
3.8618906e-06
3.1767636e-06
2.5306221e-06
1.986939e-06
1.4869373e-06
1.0903072e-06
7.3391092e-07
5.0585879e-07
2.0975345e-07
1.7872419e-07
1.4036978e-08
5.405633e-06
6.191742e-06
6.9108822e-06
7.5045291e-06
7.8804926e-06
7.9541321e-06
7.6883478e-06
7.1954779e-06
6.7099027e-06
6.8059416e-06
8.0436986e-06
1.1654018e-05
1.8672526e-05
3.0089773e-05
4.6097596e-05
6.5712699e-05
8.6645276e-05
0.00010565291
0.00011936094
0.00012528495
0.00012261073
0.00011235965
9.6894871e-05
7.9069317e-05
6.1426813e-05
4.5728999e-05
3.2856098e-05
2.2974621e-05
1.5802404e-05
1.0851815e-05
7.5960373e-06
5.567528e-06
4.3869946e-06
3.7755493e-06
3.5267456e-06
3.5066381e-06
3.6138077e-06
3.7762148e-06
3.9775712e-06
5.4138873e-06
4.6251299e-06
3.8599134e-06
3.1736109e-06
2.5291164e-06
1.9880823e-06
1.4905076e-06
1.0990917e-06
7.3802551e-07
5.171855e-07
2.1348558e-07
1.7511568e-07
1.2722881e-08
6.2224915e-06
6.9819418e-06
7.6344408e-06
8.0936428e-06
8.2719018e-06
8.0982443e-06
7.6021431e-06
7.0221962e-06
6.8231705e-06
7.8295926e-06
1.0931104e-05
1.7521004e-05
2.8657082e-05
4.5116632e-05
6.6405966e-05
9.0544558e-05
0.00011419358
0.00013337343
0.00014459375
0.00014595578
0.00013770678
0.00012199559
0.00010201266
8.0979317e-05
6.1402637e-05
4.4768882e-05
3.1617509e-05
2.1820983e-05
1.4888087e-05
1.0205827e-05
7.1871224e-06
5.3448632e-06
4.3005365e-06
3.7832823e-06
3.5998457e-06
3.6245519e-06
3.7631767e-06
3.9481771e-06
4.1724945e-06
6.2359875e-06
5.4138821e-06
4.6202517e-06
3.853373e-06
3.1673428e-06
2.527298e-06
1.9896761e-06
1.4950074e-06
1.1088856e-06
7.4534286e-07
5.3037894e-07
2.2003579e-07
1.6884251e-07
1.6988175e-08
7.0261968e-06
7.7318109e-06
8.2653429e-06
8.5421397e-06
8.4790589e-06
8.0534291e-06
7.4049316e-06
6.9750828e-06
7.571088e-06
1.0269378e-05
1.6309515e-05
2.7162999e-05
4.3723889e-05
6.6283661e-05
9.3330833e-05
0.00012165407
0.00014684548
0.00016443365
0.00017125237
0.00016644158
0.00015159178
0.00013001502
0.0001055774
8.1649957e-05
6.0516752e-05
4.3278349e-05
3.0094241e-05
2.0541887e-05
1.3938063e-05
9.5674781e-06
6.8030495e-06
5.1503424e-06
4.2387439e-06
3.8125003e-06
3.6931804e-06
3.7598163e-06
3.9289832e-06
4.1369221e-06
4.3825338e-06
7.0461781e-06
6.2359816e-06
5.4056178e-06
4.6076796e-06
3.8414672e-06
3.1592663e-06
2.5251841e-06
1.9915365e-06
1.5010745e-06
1.1212297e-06
7.5693815e-07
5.3427102e-07
2.2772149e-07
1.6273664e-07
2.5277345e-08
7.7931223e-06
8.3939799e-06
8.7608216e-06
8.8072937e-06
8.4842149e-06
7.8548567e-06
7.2410914e-06
7.3828289e-06
9.5744027e-06
1.50874e-05
2.5462747e-05
4.2103407e-05
6.5461905e-05
9.499351e-05
0.00012782621
0.00015936929
0.00018429091
0.00019805773
0.00019837952
0.00018587524
0.00016364803
0.00013607579
0.00010746075
8.1079646e-05
5.8823662e-05
4.1326994e-05
2.834915e-05
1.9183831e-05
1.2982509e-05
8.9550149e-06
6.4528596e-06
4.9859878e-06
4.2030283e-06
3.8673992e-06
3.8078513e-06
3.9122349e-06
4.1116531e-06
4.3423369e-06
4.6097287e-06
7.8215794e-06
7.0461711e-06
6.222473e-06
5.3855531e-06
4.5863449e-06
3.8257915e-06
3.1493684e-06
2.5225332e-06
1.9936643e-06
1.512355e-06
1.136052e-06
7.6535406e-07
5.30867e-07
2.3497197e-07
1.5653401e-07
3.5455773e-08
8.4756091e-06
8.9249093e-06
9.0746917e-06
8.8625816e-06
8.3042017e-06
7.6121821e-06
7.3828761e-06
8.7790978e-06
1.3754511e-05
2.3618201e-05
4.0045288e-05
6.4165815e-05
9.5607636e-05
0.0001325889
0.00017057906
0.00020361424
0.00022580081
0.00023315453
0.00022486574
0.00020338242
0.0001733305
0.0001399242
0.00010760444
7.9312947e-05
5.6407384e-05
3.9001635e-05
2.645189e-05
1.7794268e-05
1.205038e-05
8.3824309e-06
6.1395031e-06
4.8538278e-06
4.2008589e-06
3.9497473e-06
3.9385201e-06
4.0836992e-06
4.3124015e-06
4.5646736e-06
4.8554597e-06
8.514152e-06
7.8215716e-06
7.0261762e-06
6.1917112e-06
5.3522185e-06
4.5581686e-06
3.8062809e-06
3.1370341e-06
2.5197853e-06
2.0005189e-06
1.528282e-06
1.1398902e-06
7.6763271e-07
5.3112823e-07
2.4126868e-07
1.49668e-07
4.5156578e-08
9.029796e-06
9.276025e-06
9.1738962e-06
8.7106531e-06
8.0201235e-06
7.5484203e-06
8.2891725e-06
1.1979585e-05
2.1410264e-05
3.7629227e-05
6.209403e-05
9.5418029e-05
0.0001359264
0.00018019268
0.00022185344
0.0002538084
0.00027020904
0.0002683699
0.00024952859
0.00021814447
0.0001801962
0.00014140067
0.00010601965
7.6441968e-05
5.3382593e-05
3.6403979e-05
2.4475816e-05
1.6418693e-05
1.1163298e-05
7.8543693e-06
5.8662933e-06
4.7663684e-06
4.2350688e-06
4.0434468e-06
4.0931906e-06
4.2757601e-06
4.5301363e-06
4.8058679e-06
5.1207714e-06
9.0800547e-06
8.514144e-06
7.7930997e-06
6.9819066e-06
6.1417361e-06
5.3079567e-06
4.5229322e-06
3.7822751e-06
3.122557e-06
2.5240875e-06
2.0108129e-06
1.5308667e-06
1.1326197e-06
7.6889676e-07
5.3010491e-07
2.4664615e-07
1.422258e-07
5.2410726e-08
9.4054328e-06
9.4100841e-06
9.0506372e-06
8.4108928e-06
7.8138332e-06
8.0561266e-06
1.0680167e-05
1.8161911e-05
3.4293095e-05
5.9358217e-05
9.3990802e-05
0.00013806412
0.00018804012
0.00023851668
0.00028134054
0.00030880422
0.0003159449
0.00030217405
0.00027119829
0.00022944802
0.00018392071
0.00014044396
0.00010279117
7.2610468e-05
4.9893547e-05
3.3645464e-05
2.2491283e-05
1.5090284e-05
1.0328742e-05
7.3766682e-06
5.6533602e-06
4.7283895e-06
4.2704757e-06
4.1706265e-06
4.271808e-06
4.4865606e-06
4.7670029e-06
5.0670345e-06
5.4071976e-06
9.4680131e-06
9.0800465e-06
8.4755844e-06
7.731772e-06
6.9108321e-06
6.0752865e-06
5.2525016e-06
4.4797507e-06
3.7541903e-06
3.1161674e-06
2.5348259e-06
2.0048609e-06
1.5166282e-06
1.1268946e-06
7.6696443e-07
5.2457213e-07
2.4982304e-07
1.3392906e-07
5.6083571e-08
9.5628168e-06
9.3119993e-06
8.7486949e-06
8.1121009e-06
8.0212357e-06
9.7693761e-06
1.5619694e-05
2.8952524e-05
5.4663278e-05
9.1499346e-05
0.00013837367
0.00019426859
0.00025320642
0.00030766025
0.00034803895
0.00036688269
0.00036111715
0.00033296981
0.000288794
0.00023671836
0.00018431083
0.00013710114
9.8086429e-05
6.801564e-05
4.6106255e-05
3.0833609e-05
2.0548859e-05
1.3821326e-05
9.5574082e-06
6.9810358e-06
5.5087375e-06
4.6728778e-06
4.35554e-06
4.3252983e-06
4.4727233e-06
4.718109e-06
5.0242012e-06
5.3501445e-06
5.7164444e-06
9.6374525e-06
9.4680044e-06
9.0297699e-06
8.3939382e-06
7.6343853e-06
6.8161461e-06
5.9920426e-06
5.1848943e-06
4.4293853e-06
3.73626e-06
3.1183749e-06
2.5235212e-06
1.9756534e-06
1.5025768e-06
1.1181027e-06
7.6091525e-07
5.1452541e-07
2.5046432e-07
1.2413054e-07
5.5986471e-08
9.48234e-06
9.0130711e-06
8.3913489e-06
8.1034507e-06
9.2021376e-06
1.3647068e-05
2.4606247e-05
4.6501779e-05
8.5293174e-05
0.0001371468
0.0001979649
0.00026591391
0.00033206883
0.00038692397
0.00042019495
0.00042581624
0.00040363805
0.00035919985
0.00030138149
0.00023954567
0.0001813241
0.00013154549
9.216464e-05
6.2898924e-05
4.2182902e-05
2.8044126e-05
1.8668748e-05
1.2631316e-05
8.8987306e-06
6.6803867e-06
5.3155997e-06
4.6934941e-06
4.4709354e-06
4.5080194e-06
4.6977195e-06
4.9716682e-06
5.3041248e-06
5.657139e-06
6.0505344e-06
9.5666116e-06
9.637444e-06
9.4054072e-06
8.9248657e-06
8.2652825e-06
7.5044549e-06
6.6978862e-06
5.8909376e-06
5.1066743e-06
4.3907405e-06
3.7305907e-06
3.0946768e-06
2.4757935e-06
1.9461519e-06
1.4844428e-06
1.1020876e-06
7.5021495e-07
5.0028321e-07
2.4907592e-07
1.1295293e-07
5.2729804e-08
9.1872327e-06
8.6188553e-06
8.2316842e-06
8.8837302e-06
1.2222934e-05
2.1067929e-05
3.9658104e-05
7.3539005e-05
0.00012944066
0.00019963776
0.00027531522
0.0003543115
0.00042439893
0.00047467816
0.000495322
0.00048299397
0.00044136282
0.00037943806
0.00030822062
0.00023771808
0.00017510154
0.00012410016
8.5366944e-05
5.7501288e-05
3.8235362e-05
2.5310041e-05
1.6886062e-05
1.1596505e-05
8.3728345e-06
6.2822591e-06
5.2402813e-06
4.7464349e-06
4.6229132e-06
4.7202735e-06
4.9480626e-06
5.2497941e-06
5.609039e-06
5.9902363e-06
6.4114228e-06
9.2745851e-06
9.566604e-06
9.5627919e-06
9.2759807e-06
8.7607578e-06
8.0935624e-06
7.3426644e-06
6.5550219e-06
5.7749879e-06
5.0421831e-06
4.3676577e-06
3.6943838e-06
3.0199956e-06
2.4268389e-06
1.9121457e-06
1.457257e-06
1.0787792e-06
7.3440576e-07
4.8213866e-07
2.4546577e-07
1.0131256e-07
4.7381344e-08
8.7723456e-06
8.3580159e-06
8.7217259e-06
1.1242128e-05
1.8353747e-05
3.3926605e-05
6.3404629e-05
0.00011338772
0.00019071619
0.00028229471
0.00037248724
0.00045987312
0.00052888108
0.00056831559
0.00057030365
0.00053558632
0.00047222211
0.00039246792
0.0003088161
0.0002312755
0.00016601619
0.0001152328
7.8044149e-05
5.1986701e-05
3.4317147e-05
2.2694217e-05
1.5317902e-05
1.0747281e-05
7.6741008e-06
6.0668061e-06
5.1973855e-06
4.8487447e-06
4.8123577e-06
4.9634559e-06
5.2263824e-06
5.5548881e-06
5.9414494e-06
6.3513046e-06
6.8006547e-06
8.8509883e-06
9.2745784e-06
9.4823163e-06
9.4100405e-06
9.0746274e-06
8.5420545e-06
7.8803893e-06
7.1486949e-06
6.3927046e-06
5.6743872e-06
4.9970283e-06
4.3111977e-06
3.5875763e-06
2.9433086e-06
2.3725875e-06
1.8665665e-06
1.420196e-06
1.0481675e-06
7.1304154e-07
4.6042447e-07
2.3891885e-07
9.009644e-08
4.1079374e-08
8.4512035e-06
8.6484754e-06
1.0589903e-05
1.6355629e-05
2.9373169e-05
5.4733298e-05
9.9121125e-05
0.0001698876
0.00027283823
0.00038810077
0.00049065786
0.00058180752
0.00064297868
0.00066430219
0.0006415648
0.00058072104
0.00049434412
0.0003973587
0.00030299712
0.00022059969
0.00015468537
0.00010544331
7.0433261e-05
4.6439718e-05
3.0538525e-05
2.0375398e-05
1.4007899e-05
9.6136736e-06
7.2570371e-06
5.8806551e-06
5.2228022e-06
4.9996597e-06
5.040541e-06
5.2400569e-06
5.5350468e-06
5.8895077e-06
6.3032128e-06
6.7415578e-06
7.218968e-06
8.5020486e-06
8.8509831e-06
9.1872117e-06
9.3119583e-06
9.1738327e-06
8.8072062e-06
8.2717915e-06
7.6271128e-06
6.9304532e-06
6.2475016e-06
5.5959729e-06
4.9174914e-06
4.1623863e-06
3.4777533e-06
2.8611988e-06
2.3032105e-06
1.8094479e-06
1.3733755e-06
1.0099336e-06
6.8591723e-07
4.3546791e-07
2.2916957e-07
7.9833651e-08
3.4728963e-08
8.6192487e-06
1.0173803e-05
1.4938238e-05
2.5898898e-05
4.7675409e-05
8.6674449e-05
0.00015067313
0.00024719479
0.00037934334
0.00051923674
0.00062972708
0.00071788992
0.00076290095
0.00075832266
0.00070528314
0.0006156616
0.00050616883
0.0003935697
0.00029106858
0.00020646675
0.00014180524
9.5066726e-05
6.2665079e-05
4.1048294e-05
2.7170388e-05
1.8412622e-05
1.2251441e-05
8.9109522e-06
6.8618895e-06
5.7906903e-06
5.3124982e-06
5.2004458e-06
5.3098143e-06
5.5524159e-06
5.8764545e-06
6.255318e-06
6.6954843e-06
7.161635e-06
7.6657441e-06
8.612513e-06
8.5020459e-06
8.772329e-06
9.0130338e-06
9.0505755e-06
8.8624939e-06
8.4789452e-06
7.953994e-06
7.3453949e-06
6.7309845e-06
6.1271359e-06
5.4858901e-06
4.7203529e-06
4.0106255e-06
3.3622405e-06
2.7611185e-06
2.218732e-06
1.74068e-06
1.3174781e-06
9.6406725e-07
6.5306684e-07
4.0760665e-07
2.1637623e-07
7.0684521e-08
2.8879388e-08
9.9308965e-06
1.3980729e-05
2.3355243e-05
4.2157985e-05
7.6355537e-05
0.00013360078
0.00022243893
0.00034960726
0.00051309601
0.00067660952
0.00078798976
0.00086432124
0.0008836779
0.00084550613
0.0007576257
0.00063798091
0.00050657426
0.00038117784
0.00027394471
0.00018981866
0.00012783823
8.4299288e-05
5.5051392e-05
3.6221391e-05
2.4287314e-05
1.577141e-05
1.1149772e-05
8.2158778e-06
6.6036077e-06
5.787355e-06
5.4677491e-06
5.4530586e-06
5.6224831e-06
5.9026232e-06
6.2518444e-06
6.6534386e-06
7.1188943e-06
7.6111026e-06
8.13905e-06
9.8230426e-06
8.6125123e-06
8.451193e-06
8.6188242e-06
8.7486371e-06
8.7105667e-06
8.4840994e-06
8.0980995e-06
7.6054608e-06
7.0847553e-06
6.5578802e-06
5.9827595e-06
5.2325642e-06
4.5205783e-06
3.8541137e-06
3.2245995e-06
2.6439288e-06