/*--------------------------------*- C++ -*----------------------------------*\
| =========                 |                                                 |
| \\      /  F ield         | OpenFOAM: The Open Source CFD Toolbox           |
|  \\    /   O peration     | Version:  5.0                                   |
|   \\  /    A nd           | Web:      www.OpenFOAM.org                      |
|    \\/     M anipulation  |                                                 |
\*---------------------------------------------------------------------------*/
FoamFile
{
    version     2.0;
    format      ascii;
    class       volVectorField;
    location    "90";
    object      U;
}
// * * * * * * * * * * * * * * * * * * * * * * * * * * * * * * * * * * * * * //

dimensions      [0 1 -1 0 0 0 0];

internalField   nonuniform List<vector> 
9200
(
(1.0226048 -0.00047999398 -2.2375416e-23)
(1.0229328 -0.0013954294 -7.700477e-21)
(1.0239298 -0.00049196536 0)
(1.0232951 -0.0022396503 3.9098256e-21)
(1.0242414 -0.0014292855 -6.03318e-21)
(1.0245557 -0.00050110431 0)
(1.0236804 -0.0030132322 3.9484722e-22)
(1.024579 -0.0022911117 -4.3744313e-22)
(1.0248617 -0.0014596576 0)
(1.0254719 -0.00051577785 0)
(1.0241112 -0.0037044239 -7.1428166e-21)
(1.0249248 -0.0030866984 -3.7194773e-21)
(1.0251879 -0.0023388714 -3.3134368e-21)
(1.025769 -0.0015102759 -2.1130954e-22)
(1.0262401 -0.00052960978 2.0912425e-24)
(1.0245625 -0.0043287698 -6.5437291e-21)
(1.0253092 -0.0037962571 7.412058e-22)
(1.0255156 -0.0031554301 -1.0422271e-20)
(1.0260815 -0.0024171413 -3.7557327e-21)
(1.0265311 -0.0015616962 2.1929218e-22)
(1.0270838 -0.000545252 9.1245943e-21)
(1.0250178 -0.0048791572 -5.4671671e-21)
(1.0257059 -0.0044412765 -7.1150638e-21)
(1.0258789 -0.0038831556 6.3335694e-21)
(1.0263875 -0.0032684911 3.1439606e-22)
(1.026833 -0.0024968938 -4.3136929e-21)
(1.0273702 -0.0016230626 -4.1191673e-21)
(1.0278805 -0.00055980369 -5.4597811e-22)
(1.0254534 -0.0053648631 -1.6401042e-21)
(1.0260993 -0.0050105361 -4.3994432e-21)
(1.0262504 -0.0045482232 -6.4408391e-21)
(1.0267254 -0.0040275738 5.9237078e-22)
(1.0271219 -0.0033840221 9.5358683e-21)
(1.0276655 -0.0025921706 4.136705e-21)
(1.0281635 -0.0016841633 5.9777023e-21)
(1.0287089 -0.00057396572 -9.0245466e-21)
(1.0258517 -0.0057866291 6.1375747e-21)
(1.0264668 -0.0055154298 -5.6965791e-21)
(1.026615 -0.0051364811 5.9794278e-22)
(1.0270658 -0.0047273635 -3.4870325e-21)
(1.0274395 -0.0041756272 1.3188135e-21)
(1.0279431 -0.0035234469 1.5298821e-20)
(1.0284537 -0.002686816 -4.7523245e-21)
(1.0289915 -0.0017482985 1.0151312e-20)
(1.0295104 -0.00058600736 1.93052e-20)
(1.0261964 -0.0061503972 -4.1608659e-21)
(1.0267919 -0.0059552997 3.501842e-21)
(1.0269506 -0.0056606005 2.5454554e-23)
(1.0273948 -0.0053495982 -2.0897294e-21)
(1.0277549 -0.0049112219 1.0148825e-21)
(1.0282471 -0.0043564731 2.1591258e-21)
(1.028722 -0.0036625953 -5.3780797e-21)
(1.029282 -0.00278641 -9.9806045e-21)
(1.0297943 -0.0018086855 -5.2648473e-21)
(1.0303259 -0.00059596009 -1.3036678e-21)
(1.026474 -0.0064603849 1.9428956e-21)
(1.0270598 -0.0063364049 7.74341e-22)
(1.0272413 -0.006118996 -4.6389977e-21)
(1.0276902 -0.0059086493 4.1413748e-21)
(1.0280548 -0.0055685359 -8.2941157e-21)
(1.0285443 -0.0051385604 1.6367956e-20)
(1.0290147 -0.0045375458 6.9100608e-22)
(1.0295489 -0.0038112072 -1.7019842e-20)
(1.0300879 -0.0028800221 8.5949142e-21)
(1.0306143 -0.0018662149 -1.7420642e-20)
(1.0311191 -0.00060270923 2.9240374e-21)
(1.026672 -0.0067221736 -2.2101514e-22)
(1.0272587 -0.0066623688 -6.6542619e-22)
(1.0274728 -0.0065181493 2.9761708e-21)
(1.0279369 -0.0064014785 0)
(1.0283172 -0.0061633832 1.1801918e-23)
(1.0288216 -0.0058427442 -2.0334532e-21)
(1.0292963 -0.0053668145 3.4122461e-21)
(1.0298393 -0.0047337363 8.4702242e-21)
(1.0303575 -0.0039526315 -1.8602001e-21)
(1.0309163 -0.0029692723 1.0658325e-20)
(1.0314146 -0.0019160821 7.3360883e-21)
(1.0319112 -0.00060597379 -1.5121107e-21)
(1.0267766 -0.0069413988 -9.8741806e-23)
(1.0273783 -0.0069382915 1.0619795e-21)
(1.0276341 -0.0068615529 0)
(1.0281212 -0.0068345378 0)
(1.0285276 -0.0066913176 2.8001532e-21)
(1.029056 -0.00648616 -5.8457066e-21)
(1.0295538 -0.0061188089 8.8722092e-21)
(1.030115 -0.0056178841 -8.7910747e-21)
(1.0306502 -0.0049222088 -6.2130106e-22)
(1.0311965 -0.0040903293 1.9422819e-23)
(1.0317288 -0.0030465124 -1.3464195e-20)
(1.0322169 -0.0019577629 1.5265274e-20)
(1.0326791 -0.00060511932 -2.6916282e-20)
(1.0267674 -0.0071247836 6.7335342e-22)
(1.027408 -0.0071690044 -1.7089585e-22)
(1.0277159 -0.0071544881 2.4619625e-21)
(1.0282332 -0.007210655 -2.9555473e-21)
(1.0286729 -0.0071586669 3.2546958e-21)
(1.0292329 -0.0070624236 -1.5525635e-21)
(1.0297645 -0.0068123689 -2.0584276e-21)
(1.0303625 -0.0064270349 1.7516614e-22)
(1.0309253 -0.0058614317 -7.1194963e-21)
(1.0315005 -0.0051089242 -6.3796644e-21)
(1.0320255 -0.0042127638 -3.4362733e-21)
(1.0325486 -0.0031109811 -9.3339255e-21)
(1.0329981 -0.0019881194 -6.3257695e-21)
(1.0334321 -0.00059979463 7.3269144e-21)
(1.0266081 -0.0072800647 1.4339175e-21)
(1.0273328 -0.0073602877 -4.2150439e-21)
(1.0277085 -0.0074020919 4.3611257e-22)
(1.0282644 -0.0075346842 1.9849117e-22)
(1.0287439 -0.0075676676 -1.7574997e-22)
(1.0293409 -0.0075781065 1.8187946e-21)
(1.0299149 -0.0074397982 -1.8940616e-21)
(1.0305577 -0.0071812685 2.6118872e-21)
(1.0311683 -0.0067286741 -1.1015917e-21)
(1.031785 -0.0061070899 4.9426148e-22)
(1.0323478 -0.0052782755 2.058738e-22)
(1.0328697 -0.0043194574 -3.2102261e-22)
(1.0333519 -0.003157722 1.3315622e-20)
(1.0337677 -0.0020060067 -6.8113378e-21)
(1.0341568 -0.00058975068 5.6397968e-21)
(1.0262331 -0.0074165346 -1.1679215e-21)
(1.0271254 -0.0075185578 2.7927978e-21)
(1.0275988 -0.007610284 -1.7317065e-21)
(1.0282068 -0.0078112015 2.7376843e-21)
(1.028733 -0.0079230433 -3.0869562e-21)
(1.0293713 -0.0080343509 6.2856872e-21)
(1.0299924 -0.0080067584 -8.0103573e-21)
(1.0306864 -0.007870365 4.174097e-22)
(1.0313544 -0.0075454688 2.2441194e-21)
(1.0320337 -0.0070380368 -3.0036095e-21)
(1.0326494 -0.0063344635 2.2330617e-20)
(1.0332195 -0.0054304154 -8.5078248e-21)
(1.0337042 -0.0044029042 -4.4291287e-21)
(1.0341487 -0.0031849045 -1.5170398e-21)
(1.0345117 -0.00200967 7.5498056e-23)
(1.0348531 -0.00057483191 -6.1007746e-21)
(1.0255305 -0.0075454708 0)
(1.0267338 -0.0076528931 2.9778874e-21)
(1.0273625 -0.0077855986 -7.8006314e-22)
(1.0280497 -0.0080453387 0)
(1.0286335 -0.0082292598 0)
(1.0293174 -0.0084352427 0)
(1.0299887 -0.008513436 4.343565e-22)
(1.0307368 -0.0084996614 -4.5395075e-21)
(1.0314696 -0.0082998014 5.4170367e-21)
(1.0322204 -0.0079246193 -6.1725766e-21)
(1.0329123 -0.0073295026 9.8978101e-22)
(1.0335489 -0.0065449226 -4.6445662e-21)
(1.0340897 -0.005555171 7.3112244e-22)
(1.0345399 -0.0044607318 4.8807009e-21)
(1.0349236 -0.0031896021 9.1246671e-22)
(1.0352304 -0.001998314 3.1867684e-21)
(1.0355157 -0.00055488841 0)
(1.0243298 -0.0076795518 -3.542859e-22)
(1.0260634 -0.0077751903 -4.6439533e-21)
(1.0269531 -0.0079365321 6.2489867e-21)
(1.027774 -0.0082431345 3.3037887e-21)
(1.0284368 -0.0084913872 4.0499178e-21)
(1.0291737 -0.0087844844 0)
(1.0298979 -0.0089633236 5.4268586e-21)
(1.0307015 -0.0090681123 -1.6950814e-21)
(1.0315013 -0.0089961498 -1.218144e-20)
(1.0323299 -0.0087523387 6.7842772e-21)
(1.0331087 -0.0082876548 3.6001131e-21)
(1.0338373 -0.0076061912 1.0989719e-21)
(1.0344565 -0.0067251619 -1.1213854e-20)
(1.0349705 -0.00564975 1.5788948e-20)
(1.0353609 -0.004488286 2.7572375e-21)
(1.0356797 -0.0031702233 2.27952e-20)
(1.0359175 -0.0019709086 8.240522e-21)
(1.0361409 -0.00052986962 7.1562593e-21)
(1.0224013 -0.0078314615 5.9085198e-23)
(1.0249605 -0.007900985 -2.3811165e-21)
(1.0262838 -0.0080732406 -1.0441875e-21)
(1.0273405 -0.0084117844 3.9504374e-21)
(1.0281267 -0.0087153898 -5.0929517e-22)
(1.0289334 -0.0090865444 2.0120236e-21)
(1.0297155 -0.0093594338 -4.2727718e-21)
(1.030575 -0.0095783069 -1.1649652e-20)
(1.0314419 -0.0096320536 -4.5371711e-21)
(1.0323495 -0.0095247988 4.755999e-21)
(1.0332224 -0.009192283 -1.5217055e-21)
(1.0340547 -0.0086399973 9.4789584e-21)
(1.034781 -0.0078514674 -6.1631903e-21)
(1.0353857 -0.0068721446 -6.191259e-23)
(1.0358451 -0.0057076765 -5.8708208e-22)
(1.0361699 -0.0044829756 -3.7394977e-21)
(1.0364064 -0.0031253452 7.466796e-21)
(1.0365696 -0.0019267133 -2.9070515e-22)
(1.0367251 -0.00049987637 6.3265343e-21)
(1.0194756 -0.0080110584 5.0232651e-22)
(1.0232057 -0.0080485559 2.6839987e-21)
(1.0252109 -0.0082087512 -1.2337526e-20)
(1.0266756 -0.0085625048 -1.7512905e-21)
(1.0276702 -0.0089087385 1.7240438e-21)
(1.028584 -0.0093467879 7.6376611e-22)
(1.0294363 -0.0097058091 1.0391824e-21)
(1.0303538 -0.010032295 4.7286042e-21)
(1.0312866 -0.010209049 -1.8736e-21)
(1.0322716 -0.010237982 -1.3879738e-20)
(1.0332397 -0.010046046 1.0384508e-20)
(1.0341835 -0.0096272442 -5.1187813e-22)
(1.0350309 -0.0089614319 -3.542802e-21)
(1.0357584 -0.0080622541 2.6849838e-22)
(1.0363191 -0.0069771828 2.8472273e-22)
(1.0367167 -0.0057254746 -1.3181225e-20)
(1.0369561 -0.0044423297 3.4346917e-21)
(1.0371021 -0.0030539722 -1.1921276e-20)
(1.0371827 -0.0018655898 -2.8655055e-21)
(1.0372655 -0.00046507142 -6.1937714e-21)
(1.0152835 -0.0082227373 1.9076435e-23)
(1.0205251 -0.0082351568 3.915098e-21)
(1.0235253 -0.0083591328 6.5951832e-22)
(1.0256502 -0.0087094619 3.6184146e-21)
(1.027001 -0.0090808106 -1.3371518e-22)
(1.0280984 -0.0095719828 -2.9769535e-21)
(1.0290505 -0.010007254 8.2426823e-21)
(1.0300342 -0.010433404 1.6243133e-20)
(1.0310326 -0.010728173 -4.5125719e-21)
(1.0320918 -0.010892109 0)
(1.0331529 -0.010843176 -6.5762606e-21)
(1.0342088 -0.010569544 4.8934188e-21)
(1.0351867 -0.010033696 1.0853381e-20)
(1.0360539 -0.0092490972 -8.9816653e-21)
(1.036752 -0.0082274466 4.3797571e-21)
(1.0372604 -0.0070358715 -1.0675509e-20)
(1.0375735 -0.0056993054 -3.2687415e-22)
(1.0377182 -0.00436466 4.3865014e-21)
(1.0377617 -0.0029555965 -6.9383788e-21)
(1.0377536 -0.0017876122 -5.9775243e-22)
(1.0377596 -0.00042570157 -5.3514304e-21)
(1.0096064 -0.008463351 -1.7989205e-21)
(1.0166245 -0.008473589 3.0137553e-21)
(1.0209579 -0.008539248 5.6471912e-21)
(1.0240652 -0.0088676656 -6.9481418e-21)
(1.0260007 -0.0092440592 -5.2429502e-21)
(1.0274199 -0.0097713123 8.7303092e-22)
(1.0285356 -0.010269958 0)
(1.0296089 -0.010785756 2.6359997e-21)
(1.0306775 -0.011191878 -3.1606588e-21)
(1.031808 -0.011486968 -1.3574486e-20)
(1.0329573 -0.01158245 -1.0352187e-21)
(1.0341221 -0.011459216 3.1679459e-21)
(1.0352322 -0.011068934 -8.4113666e-22)
(1.0362501 -0.010409151 -3.5092275e-21)
(1.0371061 -0.0094892978 6.3243132e-21)
(1.0377658 -0.008341671 -5.9321835e-21)
(1.0381971 -0.007042697 1.3510675e-21)
(1.038414 -0.0056264898 -8.2468411e-21)
(1.0384484 -0.0042490826 -1.4169609e-21)
(1.0383814 -0.0028301153 -2.7940108e-22)
(1.0382792 -0.0016931752 -3.2396831e-21)
(1.0382057 -0.00038207747 0)
(1.0023238 -0.0087217281 -1.0854173e-21)
(1.0112404 -0.0087679863 -1.4119365e-21)
(1.0172101 -0.0087605049 -3.4251542e-23)
(1.0216562 -0.0090548978 -7.2663891e-21)
(1.0244836 -0.0094141593 -3.8627501e-21)
(1.0264427 -0.009957151 2.9676441e-21)
(1.0278427 -0.010502335 -1.7511195e-21)
(1.0290603 -0.011094942 9.692073e-21)
(1.0302161 -0.011603471 3.3129699e-21)
(1.0314188 -0.012023875 9.2165314e-22)
(1.0326513 -0.01226218 -2.277459e-22)
(1.0339187 -0.012293399 -6.8833636e-21)
(1.0351577 -0.012057475 9.4561798e-22)
(1.036329 -0.011542118 1.0632064e-21)
(1.037357 -0.010737313 -8.2311178e-21)
(1.0381927 -0.0096756865 -9.3130029e-21)
(1.0387873 -0.0083974567 4.9519237e-22)
(1.0391273 -0.0069938629 1.4571025e-20)
(1.0392293 -0.0055053282 6.1948499e-22)
(1.039143 -0.0040951715 -4.2446071e-21)
(1.0389578 -0.0026780843 0)
(1.0387574 -0.0015829441 6.5503604e-21)
(1.0386023 -0.00033456424 1.4712338e-22)
(0.99344265 -0.0089801108 7.8848504e-21)
(1.0041938 -0.0091111072 -2.4171538e-21)
(1.0120019 -0.0090267999 5.7445315e-21)
(1.0181146 -0.0092857107 2.8957356e-21)
(1.0221926 -0.009607992 -8.0342518e-21)
(1.0249936 -0.010145119 0)
(1.026877 -0.010715955 -3.1197893e-22)
(1.0283473 -0.011368784 3.9580597e-21)
(1.0296348 -0.011967751 7.0265288e-21)
(1.0309213 -0.012505159 8.6707745e-21)
(1.0322345 -0.012882366 -6.3378605e-21)
(1.0335972 -0.013068664 -6.3654116e-21)
(1.0349579 -0.012994711 8.1493802e-21)
(1.0362795 -0.012636276 -7.7858676e-21)
(1.037484 -0.011970382 1.3012682e-20)
(1.0385132 -0.011010894 1.7015478e-20)
(1.0393008 -0.0097985893 -5.5464454e-21)
(1.0398141 -0.0083896907 5.7151729e-21)
(1.0400414 -0.0068863828 -1.692454e-20)
(1.0400156 -0.0053347515 4.3604531e-21)
(1.0397976 -0.003903239 8.5548391e-21)
(1.0394879 -0.002500481 -6.5468633e-21)
(1.0391866 -0.001457825 3.4700365e-21)
(1.0389489 -0.00028356906 1.1947924e-22)
(0.98310168 -0.0092170761 1.6914981e-21)
(0.99543021 -0.0094842884 -1.2333352e-21)
(1.0051263 -0.0093323945 -1.1401245e-21)
(1.0131354 -0.0095679015 -1.528735e-20)
(1.018818 -0.0098406396 4.8808959e-21)
(1.0228237 -0.010352639 -1.0029079e-20)
(1.0254772 -0.010925861 -2.1934163e-22)
(1.0273862 -0.011618314 -1.1281756e-20)
(1.0288991 -0.012291723 2.6416397e-21)
(1.0303054 -0.012934731 4.2950782e-21)
(1.0317057 -0.013444129 -3.8589248e-21)
(1.0331581 -0.013783452 1.0510294e-20)
(1.0346315 -0.013875299 -4.5905618e-21)
(1.0360955 -0.013685152 -6.7886326e-22)
(1.0374747 -0.013174826 5.751165e-21)
(1.0387043 -0.012345535 1.947087e-21)
(1.0397065 -0.011217881 -1.1440265e-21)
(1.0404283 -0.0098513701 9.1087897e-21)
(1.040836 -0.0083137569 0)
(1.0409346 -0.0067181686 1.5456374e-21)
(1.0407662 -0.0051148453 4.3377543e-22)
(1.0404082 -0.003674245 -7.6309197e-22)
(1.0399693 -0.0022986733 -1.7830897e-22)
(1.0395655 -0.0013189274 -4.7933203e-21)
(1.0392454 -0.00022952899 -1.6456364e-21)
(0.97155173 -0.0094110226 -8.2343827e-21)
(0.98503636 -0.0098601426 2.416361e-22)
(0.99649458 -0.0096617183 1.8946157e-21)
(1.0064735 -0.0098990114 1.6643959e-21)
(1.0140386 -0.010121045 1.5244771e-20)
(1.0196216 -0.010595842 1.203493e-21)
(1.0234044 -0.011149529 -1.6005105e-22)
(1.0260291 -0.011858315 7.3832967e-22)
(1.0279355 -0.01258561 9.092208e-21)
(1.029543 -0.013318732 -1.2034656e-21)
(1.0310578 -0.013950263 5.8235281e-21)
(1.0326015 -0.014437437 -1.2028315e-21)
(1.0341792 -0.014695901 -5.3774679e-21)
(1.0357752 -0.014681298 1.4595205e-21)
(1.0373212 -0.014342293 -2.4389128e-21)
(1.0387512 -0.013664089 -8.0161794e-21)
(1.0399786 -0.012653201 -7.5253862e-21)
(1.040935 -0.011349959 -1.2989111e-20)
(1.0415642 -0.009827424 -1.8636675e-20)
(1.0418473 -0.0081662753 -1.519905e-22)
(1.0417988 -0.0064884887 1.712306e-20)
(1.0414767 -0.0048461701 2.9361709e-21)
(1.0409714 -0.0034097766 -6.0909998e-21)
(1.0404003 -0.0020743624 4.7347181e-21)
(1.0398937 -0.0011675246 -2.8170563e-21)
(1.0394921 -0.00017289923 1.5492041e-22)
(0.95911778 -0.0095431837 3.7497744e-22)
(0.97322965 -0.010206827 -7.3148104e-22)
(0.98615927 -0.0099915529 -6.8133606e-21)
(0.99799545 -0.010264872 7.8274851e-21)
(1.0075792 -0.010448661 -1.1512553e-20)
(1.0150503 -0.010885627 8.9476772e-21)
(1.0203496 -0.011404227 6.4642822e-21)
(1.0240484 -0.01210659 7.9535855e-21)
(1.0266088 -0.012863516 -1.3117254e-20)
(1.0285707 -0.013666556 -5.7706542e-21)
(1.0302686 -0.014405819 3.1700611e-22)
(1.0319234 -0.015032101 -1.5051863e-20)
(1.0336025 -0.015454504 1.4050862e-20)
(1.0353196 -0.015619366 -5.3370589e-21)
(1.0370212 -0.015463139 2.1549818e-21)
(1.0386444 -0.014956354 1.6271456e-21)
(1.0400994 -0.014087444 -7.6779644e-21)
(1.0413054 -0.01288328 8.413532e-21)
(1.0421878 -0.011398248 -7.98989e-21)
(1.0427024 -0.0097217346 7.4717085e-22)
(1.0428388 -0.0079452587 0)
(1.0426286 -0.0061973505 6.5174964e-21)
(1.0421419 -0.0045304367 1.0804921e-21)
(1.0414845 -0.0031119209 0)
(1.0407797 -0.0018295312 -5.3505438e-21)
(1.0401712 -0.0010050113 -4.3624057e-22)
(1.0396898 -0.00011414279 5.2602973e-22)
(0.94615326 -0.0096001078 3.0190656e-21)
(0.96032575 -0.010492297 -2.7708833e-23)
(0.97430991 -0.010294836 -5.703264e-21)
(0.98771129 -0.010641885 4.7822032e-22)
(0.99926558 -0.010811275 -2.6260362e-21)
(1.0088039 -0.011223787 -9.6405532e-21)
(1.0159669 -0.011703094 -5.3802923e-22)
(1.0211389 -0.012381259 -7.7821705e-21)
(1.0247031 -0.013142952 1.3666065e-21)
(1.0272659 -0.013991691 9.3685797e-21)
(1.0292836 -0.014819125 -9.9688912e-21)
(1.0311065 -0.015571249 -3.8616087e-21)
(1.0328997 -0.016151015 -6.8816276e-21)
(1.0347308 -0.016495392 2.2604388e-21)
(1.0365752 -0.016529834 -5.9648523e-21)
(1.0383802 -0.016210438 3.0477534e-21)
(1.0400575 -0.015508714 -6.7179595e-21)
(1.0415189 -0.014432963 2.6988635e-20)
(1.0426742 -0.013024409 8.8089888e-21)
(1.0434579 -0.011355772 2.8538241e-21)
(1.0438325 -0.0095306111 9.7739659e-21)
(1.0438036 -0.0076497314 -1.3817529e-21)
(1.0434172 -0.0058460957 -6.0596261e-22)
(1.0427581 -0.0041698425 0)
(1.0419453 -0.002783231 0)
(1.041107 -0.0015663749 4.4020556e-22)
(1.0403985 -0.00083286726 -1.5756433e-21)
(1.03984 -5.3726944e-05 -1.3870676e-22)
(0.93299712 -0.0095785078 0)
(0.94669246 -0.010688805 -6.7892666e-22)
(0.96124548 -0.010544938 5.2353487e-21)
(0.97577751 -0.011000728 3.0556524e-21)
(0.98906631 -0.011187341 8.7189663e-21)
(1.0006699 -0.011602203 1.3010936e-21)
(1.0099261 -0.012050635 -6.0897561e-21)
(1.0169451 -0.012696634 -1.2382483e-20)
(1.0219193 -0.013442668 1.3344871e-20)
(1.0254255 -0.014311506 -2.745741e-21)
(1.0279925 -0.015202723 8.5117665e-22)
(1.0301051 -0.016062026 2.6243039e-21)
(1.0320581 -0.016787741 -1.9717886e-20)
(1.0340094 -0.017307458 3.9331854e-21)
(1.0359862 -0.01753624 3.2098213e-21)
(1.0379587 -0.017416492 -5.6951239e-21)
(1.0398474 -0.01690292 3.3523084e-21)
(1.0415614 -0.015985643 -6.713768e-21)
(1.0429999 -0.014686703 1.8745878e-20)
(1.0440781 -0.013067363 -4.2656332e-21)
(1.0447342 -0.011216711 8.1023852e-21)
(1.044946 -0.0092516532 5.2262429e-21)
(1.0447332 -0.0072802451 -4.6144237e-22)
(1.0441593 -0.0054367881 -1.4772584e-20)
(1.0433218 -0.0037674025 -4.2842487e-21)
(1.0423524 -0.0024266258 9.7472638e-22)
(1.041382 -0.0012872166 2.803466e-21)
(1.0405766 -0.00065261126 -3.0047347e-22)
(1.0399442 7.8667491e-06 -1.405193e-21)
(0.91994404 -0.0094722808 -9.831497e-21)
(0.93269756 -0.010788334 0)
(0.94733421 -0.01071864 0)
(0.96247376 -0.011310083 0)
(0.97710276 -0.01154841 -2.1155219e-21)
(0.99057204 -0.01200051 7.786587e-21)
(1.0019752 -0.01243943 -2.2262847e-22)
(1.011113 -0.013059183 -7.8935893e-23)
(1.0178969 -0.013778712 1.8438504e-20)
(1.0227579 -0.014645201 -1.9697339e-20)
(1.0262051 -0.015573425 8.5448764e-21)
(1.0288206 -0.016515941 -3.273137e-21)
(1.0310397 -0.017370369 6.3650117e-21)
(1.0331467 -0.018056129 -5.1545692e-21)
(1.035256 -0.018478348 1.2738706e-20)
(1.0373828 -0.018566003 4.1936385e-21)
(1.0394681 -0.018257854 -5.9420165e-21)
(1.0414253 -0.017525174 -9.2249201e-21)
(1.0431477 -0.016370641 2.4785702e-21)
(1.0445358 -0.014836968 -5.083173e-21)
(1.0455053 -0.013003804 -9.3680252e-21)
(1.0460073 -0.010976786 1.2733795e-21)
(1.0460332 -0.0088841422 1.1838062e-20)
(1.0456209 -0.0068383362 -6.7812532e-21)
(1.0448498 -0.0049725527 -8.1942738e-22)
(1.0438303 -0.0033265403 -1.9387397e-21)
(1.0427048 -0.0020453767 3.3152417e-21)
(1.0416055 -0.00099446058 1.7537974e-21)
(1.040707 -0.00046578256 -6.1212866e-22)
(1.0400043 7.0085726e-05 -1.6668646e-21)
(0.90617917 -0.0092632355 -6.1051298e-22)
(0.91867257 -0.010774357 -5.3640156e-22)
(0.9329723 -0.010796806 0)
(0.94816144 -0.011539351 0)
(0.96363185 -0.011862982 0)
(0.97859094 -0.012390047 0)
(0.99199415 -0.012850776 0)
(1.0033538 -0.013464352 -3.2297494e-24)
(1.0122623 -0.014159694 -7.2777051e-21)
(1.0188995 -0.015009967 2.1262646e-20)
(1.0236388 -0.015950622 -3.0753245e-22)
(1.0270763 -0.016949147 9.5429995e-21)
(1.0297575 -0.01790908 -1.9407488e-20)
(1.0321119 -0.018745425 1.0007108e-20)
(1.0343795 -0.019354703 -9.8633487e-22)
(1.0366555 -0.019652624 7.4929205e-21)
(1.0389221 -0.019562484 -1.1217792e-20)
(1.041108 -0.019037023 2.7179929e-21)
(1.0431074 -0.018058282 1.0031037e-20)
(1.0448106 -0.016649403 5.1525054e-21)
(1.0461147 -0.014872586 1.2161541e-21)
(1.0469453 -0.012827126 7.4039208e-21)
(1.0472655 -0.0106335 2.5091442e-22)
(1.0470853 -0.0084286346 -4.5070215e-21)
(1.0464595 -0.0063268753 3.2342738e-21)
(1.0454845 -0.0044571364 1.0900661e-20)
(1.0442815 -0.002851192 2.6062584e-21)
(1.0430022 -0.0016432981 -1.3673696e-21)
(1.0417786 -0.00069067514 1.8830408e-22)
(1.0407915 -0.00027402255 1.8311733e-21)
(1.0400223 0.00013196721 1.3131579e-21)
(0.89141639 -0.0089054192 1.1709861e-20)
(0.90381622 -0.010622552 4.5591624e-23)
(0.91853828 -0.010768768 2.3505093e-21)
(0.93323542 -0.011675311 3.8231351e-21)
(0.9490086 -0.012099835 0)
(0.9649556 -0.012737438 0)
(0.98002221 -0.01325677 9.9480785e-23)
(0.99350216 -0.013895337 9.5026171e-21)
(1.0046927 -0.014583059 -1.5655843e-20)
(1.0134585 -0.015416256 1.9588213e-20)
(1.0199293 -0.016352563 6.4800523e-22)
(1.0245998 -0.017381003 -1.4169523e-20)
(1.0280479 -0.018419048 2.5044417e-21)
(1.0308288 -0.019383991 -1.5691525e-21)
(1.0333324 -0.020167369 -9.9867169e-21)
(1.0357746 -0.02067261 8.8375867e-22)
(1.0382129 -0.020807921 1.4116919e-20)
(1.040611 -0.020507585 -9.0156362e-22)
(1.0428744 -0.019732921 -6.9406364e-21)
(1.0448893 -0.018485295 2.8814e-20)
(1.0465388 -0.016807701 3.0918801e-23)
(1.0477257 -0.014784215 -7.8214362e-21)
(1.0483853 -0.012532529 1.6233398e-20)
(1.0484983 -0.010185921 8.4171847e-21)
(1.0480931 -0.0078873023 -6.9331406e-22)
(1.047243 -0.0057496123 6.4255587e-21)
(1.0460598 -0.0038950198 3.1139724e-21)
(1.0446742 -0.0023456001 3.1200164e-22)
(1.0432451 -0.0012234495 -9.2038595e-22)
(1.0419024 -0.00037894016 -7.3034081e-22)
(1.0408319 -7.9599863e-05 2.1002375e-21)
(1.0400032 0.00019033624 1.7625766e-22)
(0.87669772 -0.0083914876 -4.0455711e-21)
(0.88782027 -0.010319804 1.1302428e-21)
(0.9032533 -0.010641232 -3.4170515e-21)
(0.91808984 -0.011712304 -3.6264976e-21)
(0.93363669 -0.01224609 0)
(0.95000693 -0.013007379 0)
(0.96625558 -0.013623225 0)
(0.9815531 -0.014324917 -1.0685772e-21)
(0.99497873 -0.015033738 1.5070185e-20)
(1.006079 -0.015863647 1.5728869e-20)
(1.0146701 -0.016791435 5.6532065e-22)
(1.0210276 -0.017830545 -2.5984144e-21)
(1.0256495 -0.0189193 2.904467e-20)
(1.0291471 -0.019985786 -1.7466843e-20)
(1.0320487 -0.020923145 2.960218e-21)
(1.0347215 -0.021625787 0)
(1.0373407 -0.021987869 4.4762918e-21)
(1.0399379 -0.021925276 -2.8475905e-21)
(1.0424486 -0.021378416 7.3854807e-21)
(1.0447647 -0.02032603 8.7974317e-22)
(1.0467608 -0.018788822 -1.3219823e-20)
(1.0483211 -0.016833104 -7.2398423e-22)
(1.0493548 -0.014564245 -1.1868593e-20)
(1.0498129 -0.012117041 -1.379339e-20)
(1.0496944 -0.009635004 3.8416709e-21)
(1.0490485 -0.0072635067 1.5685412e-21)
(1.0479659 -0.005111314 -9.9304391e-22)
(1.046573 -0.0032911112 2.6663408e-23)
(1.0450076 -0.0018141629 -9.6477968e-22)
(1.0434343 -0.00078933957 -1.3711384e-21)
(1.0419788 -6.1486511e-05 9.0486645e-22)
(1.0408305 0.00011640292 -7.689687e-21)
(1.0399467 0.000253997 3.5026239e-21)
(0.86243673 -0.0077169968 -3.7223619e-21)
(0.87170357 -0.0098284443 -4.1940712e-23)
(0.88671779 -0.010337816 -7.3204038e-21)
(0.90194356 -0.011564218 -4.6799704e-21)
(0.91792095 -0.012283438 1.8601759e-21)
(0.93414926 -0.013190719 4.0353201e-22)
(0.95101804 -0.013912267 1.2642608e-20)
(0.96766708 -0.01471792 -7.4145932e-21)
(0.98306926 -0.015485409 -1.4121727e-21)
(0.99650804 -0.016338895 -3.1760085e-20)
(1.0074751 -0.017268834 1.4201631e-20)
(1.0159405 -0.018311462 2.1227202e-20)
(1.0222019 -0.019429353 -6.3641426e-22)
(1.0268169 -0.020569236 -1.1638699e-20)
(1.030391 -0.021634456 -1.2449972e-20)
(1.0334398 -0.022516824 -2.9506247e-21)
(1.0362919 -0.023099625 2.0438715e-21)
(1.0390906 -0.023281034 1.1507862e-20)
(1.0418331 -0.02298042 -1.4634053e-21)
(1.0444347 -0.022153081 -1.9343067e-21)
(1.0467705 -0.020795811 1.6250497e-21)
(1.0487111 -0.018953081 -2.0628771e-20)
(1.0501429 -0.016714738 8.0278257e-22)
(1.050988 -0.014207101 3.2580336e-21)
(1.0512147 -0.011579815 -1.7711936e-20)
(1.0508435 -0.0089832381 -5.5729201e-21)
(1.0499439 -0.0065619545 -4.5275299e-21)
(1.0486239 -0.0044174005 -2.4247132e-21)
(1.0470221 -0.0026507011 -1.947162e-21)
(1.0452819 -0.0012613224 -2.3953003e-22)
(1.043571 -0.000344383 2.6956266e-22)
(1.0420099 0.00026050849 -1.9510396e-22)
(1.04079 0.00031534063 3.6629405e-21)
(1.0398556 0.00031697039 -7.4426783e-21)
(0.84907325 -0.0068798309 4.0553248e-21)
(0.85592377 -0.0091287687 2.4842168e-23)
(0.86989828 -0.0098459046 8.8141882e-21)
(0.88444839 -0.011271087 1.4928217e-21)
(0.90115562 -0.012164939 -6.1114455e-21)
(0.91780726 -0.013250872 -9.5907326e-21)
(0.93471348 -0.014115552 -1.569579e-21)
(0.95214591 -0.015033354 0)
(0.96908495 -0.015902339 -8.7640784e-21)
(0.98464732 -0.016816758 -3.5386282e-20)
(0.99804909 -0.017773314 -1.2409787e-21)
(1.0089241 -0.018827166 -7.7361919e-21)
(1.0172754 -0.019964133 0)
(1.0234825 -0.021154068 -1.4310707e-22)
(1.0281217 -0.022318776 2.2661802e-20)
(1.0318046 -0.0233563 4.0612662e-21)
(1.0350187 -0.024145403 -1.7625068e-20)
(1.0380595 -0.024569356 0)
(1.0410306 -0.024526951 1.9963451e-22)
(1.0439012 -0.023949382 1.2085339e-21)
(1.0465632 -0.022808036 -1.8682067e-20)
(1.0488821 -0.021122982 8.3418592e-22)
(1.0507256 -0.018963561 0)
(1.0519892 -0.016443876 -1.6559873e-20)
(1.05261 -0.013709515 4.9380437e-21)
(1.0525779 -0.010921901 -2.6619417e-22)
(1.0519354 -0.0082348204 -7.0798883e-21)
(1.0507728 -0.00578831 4.8330746e-21)
(1.0492133 -0.0036739442 3.2946264e-22)
(1.0474061 -0.0019792621 -2.8025465e-21)
(1.0454977 -0.00069151555 9.0824127e-22)
(1.0436571 0.00010835171 -1.3044929e-22)
(1.0419981 0.00058465907 0)
(1.0407134 0.00051388992 -1.4636142e-22)
(1.0397334 0.00037849916 -2.5097651e-21)
(0.83705705 -0.0058850695 2.939576e-21)
(0.84099447 -0.0082119456 1.274626e-21)
(0.85331082 -0.0091477622 7.862616e-21)
(0.8665455 -0.010766962 7.0382278e-22)
(0.88293123 -0.011868663 -1.315534e-21)
(0.90027798 -0.013140225 -1.4239661e-21)
(0.9177793 -0.014197063 -9.544575e-21)
(0.93538764 -0.015266168 -1.6476979e-22)
(0.9533013 -0.016240586 0)
(0.97057539 -0.017261146 1.0846691e-20)
(0.98624567 -0.018280734 -1.1821424e-20)
(0.99964154 -0.019367864 1.3525937e-21)
(1.0104293 -0.020528687 -8.5490736e-21)
(1.0187052 -0.021756172 1.2701522e-20)
(1.0248905 -0.022995682 7.0285859e-21)
(1.029591 -0.024160411 1.842677e-20)
(1.0334086 -0.025133581 -3.5509695e-20)
(1.0368049 -0.025789688 -9.8997423e-21)
(1.0400349 -0.026009472 1.644699e-20)
(1.0431669 -0.025699962 -2.0586385e-20)
(1.046139 -0.024805867 1.8333989e-20)
(1.0488263 -0.023320472 -1.0037321e-20)
(1.0510855 -0.021289123 0)
(1.0527885 -0.018807878 -4.3764534e-21)
(1.0538427 -0.016014192 1.1402589e-21)
(1.0542055 -0.013070457 7.779841e-21)
(1.0538897 -0.01014643 3.1906136e-21)
(1.0529612 -0.0073952751 1.6682787e-21)
(1.0515295 -0.0049492071 3.0218728e-21)
(1.0497316 -0.002887378 0)
(1.0477247 -0.0012823874 2.648581e-21)
(1.0456563 -0.00010903049 8.1132713e-22)
(1.0436947 0.00056580465 7.2611968e-21)
(1.0419462 0.00090924185 -3.3048929e-21)
(1.0406032 0.00071166377 1.7610354e-22)
(1.0395817 0.00043894098 9.1928969e-21)
(0.82682242 -0.0047462469 -2.8115599e-21)
(0.82745686 -0.0070795027 -3.2317768e-24)
(0.83752378 -0.0082337961 -2.497694e-21)
(0.84876384 -0.010031448 -7.7536603e-23)
(0.86409784 -0.011364973 7.7368209e-21)
(0.88115001 -0.012839327 7.0689044e-21)
(0.89956537 -0.014090724 1.2370071e-22)
(0.91784227 -0.015367091 -7.2783556e-21)
(0.93610696 -0.016498087 -1.2211447e-22)
(0.95453753 -0.017625212 -8.9318237e-21)
(0.97209843 -0.018754761 -1.1764085e-23)
(0.98789842 -0.019910524 6.6241157e-21)
(1.0012868 -0.021114746 6.3129228e-22)
(1.0120201 -0.022381946 1.0647938e-20)
(1.0202522 -0.02368168 -4.7948848e-20)
(1.0264553 -0.024948248 2.0399904e-21)
(1.0312491 -0.026078696 1.1173899e-20)
(1.0352258 -0.026947856 1.6040935e-20)
(1.0388134 -0.027424368 -1.538593e-20)
(1.0422282 -0.027393093 -4.7603826e-21)
(1.0455 -0.026771385 1.0335629e-20)
(1.0485413 -0.025523651 -1.8533119e-20)
(1.0512112 -0.023667917 1.3691133e-20)
(1.0533646 -0.021277772 0)
(1.0548812 -0.018476043 1.3879756e-20)
(1.0556859 -0.015421899 1.6900774e-20)
(1.055759 -0.012291354 -5.7345449e-21)
(1.0551384 -0.0092582886 1.2235039e-20)
(1.0539127 -0.0064714736 4.1979903e-22)
(1.0522096 -0.0040519063 -3.1988258e-21)
(1.0501771 -0.0020644391 -1.8602869e-21)
(1.0479784 -0.00056561621 -3.449911e-21)
(1.0457594 0.00048193217 -3.3602518e-22)
(1.0436864 0.0010250336 8.1303044e-21)
(1.0418568 0.0012321829 -1.1590643e-21)
(1.0404621 0.00090726381 -3.544132e-22)
(1.0394044 0.00049768844 3.5199938e-21)
(0.81876057 -0.0034850792 3.2203326e-22)
(0.81584444 -0.0057461471 -9.7370831e-22)
(0.82313627 -0.0071033201 -3.32918e-21)
(0.83172263 -0.009053851 -6.0253801e-22)
(0.84523931 -0.010613869 1.6687591e-22)
(0.86125457 -0.012316451 -1.7863548e-22)
(0.87960855 -0.013782962 -4.1658204e-21)
(0.89887956 -0.015264174 1.8972732e-21)
(0.91795979 -0.016622177 0)
(0.93690834 -0.017910933 1.8028507e-21)
(0.95581849 -0.019145612 0)
(0.97368172 -0.020418701 0)
(0.98960514 -0.021700269 7.4255674e-21)
(1.0030111 -0.023024379 -1.1022344e-21)
(1.0137188 -0.024384207 -7.4079133e-21)
(1.0219467 -0.025736593 -1.3742613e-20)
(1.0282042 -0.026998967 2.849611e-20)
(1.0331225 -0.028056358 6.1428864e-21)
(1.037276 -0.028774558 1.2222355e-20)
(1.0410586 -0.02902185 5.4644774e-21)
(1.0446442 -0.028689605 -1.7350527e-20)
(1.0480278 -0.027711824 6.3128869e-21)
(1.0510974 -0.026076196 3.4838776e-21)
(1.0537025 -0.023829515 7.0632341e-22)
(1.0557002 -0.021074726 6.5836026e-22)
(1.0569842 -0.017960817 3.1859699e-21)
(1.0575006 -0.014666004 -2.9038804e-21)
(1.0572557 -0.011375843 -7.6413293e-21)
(1.0563131 -0.008264142 -7.6027067e-22)
(1.0547831 -0.0054712611 -1.004547e-20)
(1.0528096 -0.0031042207 -4.0273509e-21)
(1.0505493 -0.0012119338 -1.8282438e-21)
(1.0481682 0.00016560147 -3.504506e-21)
(1.0458093 0.001077428 5.685864e-21)
(1.0436348 0.0014833337 -1.6311778e-20)
(1.0417329 0.001551899 -2.7684225e-21)
(1.0402928 0.0010997422 -3.2467014e-21)
(1.0392033 0.0005548826 0)
(0.81319339 -0.0021303771 2.4938724e-21)
(0.80664535 -0.0042397573 -1.8036899e-23)
(0.81074356 -0.0057696931 -8.9622312e-22)
(0.81609437 -0.0078304396 -4.2823741e-22)