/*--------------------------------*- C++ -*----------------------------------*\
| =========                 |                                                 |
| \\      /  F ield         | OpenFOAM: The Open Source CFD Toolbox           |
|  \\    /   O peration     | Version:  5.0                                   |
|   \\  /    A nd           | Web:      www.OpenFOAM.org                      |
|    \\/     M anipulation  |                                                 |
\*---------------------------------------------------------------------------*/
FoamFile
{
    version     2.0;
    format      ascii;
    class       volVectorField;
    location    "90";
    object      UMean;
}
// * * * * * * * * * * * * * * * * * * * * * * * * * * * * * * * * * * * * * //

dimensions      [0 1 -1 0 0 0 0];

internalField   nonuniform List<vector> 
9200
(
(1.0171449 -0.00045810866 -1.4990875e-23)
(1.0174551 -0.001332393 -6.6304693e-21)
(1.0184103 -0.00046408462 0)
(1.017585 -0.0021418279 3.3891498e-21)
(1.0187057 -0.0013486905 -5.002932e-21)
(1.0189948 -0.00046843704 0)
(1.0176024 -0.0028939176 3.3976909e-22)
(1.0188239 -0.0021647582 -3.171956e-22)
(1.0192849 -0.0013640993 0)
(1.0198482 -0.0004759885 0)
(1.0175629 -0.0035838506 -6.3234486e-21)
(1.0188268 -0.0029267672 -3.3160172e-21)
(1.0193977 -0.002189185 -2.7780114e-21)
(1.0201292 -0.001390927 -1.7369745e-22)
(1.0205529 -0.00048313133 1.2588874e-24)
(1.0174653 -0.0042243681 -5.8084906e-21)
(1.018773 -0.0036243301 5.5064016e-22)
(1.0193933 -0.0029624109 -8.8105394e-21)
(1.0202357 -0.002229833 -3.2021645e-21)
(1.0208275 -0.0014188305 1.3623612e-22)
(1.0213134 -0.00049137382 7.3359224e-21)
(1.0173036 -0.0048123984 -5.2093766e-21)
(1.01866 -0.0042740272 -5.9789301e-21)
(1.0193327 -0.0036692555 5.3331427e-21)
(1.0202238 -0.0030215842 2.8104129e-22)
(1.0209292 -0.0022726612 -3.5143113e-21)
(1.0215821 -0.0014527238 -3.3548996e-21)
(1.0220264 -0.00049901442 -4.5557292e-22)
(1.0170608 -0.0053550205 -2.0608119e-21)
(1.0184813 -0.0048700408 -3.8978989e-21)
(1.0192118 -0.0043294379 -5.5754302e-21)
(1.0201564 -0.0037445003 3.5609876e-22)
(1.0209113 -0.0030842103 7.9283972e-21)
(1.0216813 -0.0023245139 3.4170338e-21)
(1.0222901 -0.0014869559 4.7038741e-21)
(1.0227521 -0.00050650728 -7.10037e-21)
(1.0167215 -0.0058536051 6.1411027e-21)
(1.0182208 -0.0054208493 -4.7665822e-21)
(1.0190245 -0.0049351844 3.5020681e-22)
(1.0200274 -0.0044227817 -2.8976114e-21)
(1.0208384 -0.0038245491 7.9645063e-22)
(1.0216607 -0.0031606067 1.2430643e-20)
(1.0223875 -0.002376831 -3.4928869e-21)
(1.0230126 -0.0015233878 7.9301455e-21)
(1.0234516 -0.00051276222 1.5070937e-20)
(1.0162683 -0.0063126135 -4.5050099e-21)
(1.0178636 -0.0059269763 2.6292975e-21)
(1.0187548 -0.005495886 7.5668975e-23)
(1.0198311 -0.0050458179 -1.2444547e-21)
(1.0207026 -0.004522319 8.9693779e-22)
(1.0215861 -0.00392322 1.3192031e-21)
(1.022365 -0.0032382473 -4.3253037e-21)
(1.0231114 -0.0024325831 -7.8752759e-21)
(1.02371 -0.0015581163 -4.1533813e-21)
(1.0241507 -0.00051782985 -1.0190215e-21)
(1.0156836 -0.0067352268 2.0689262e-21)
(1.0173934 -0.0063932431 2.3651956e-22)
(1.0183883 -0.0060114786 -3.8466398e-21)
(1.0195517 -0.0056241779 3.6294834e-21)
(1.0204987 -0.0051641184 -6.3115827e-21)
(1.0214474 -0.004646217 1.2957523e-20)
(1.0222894 -0.0040240496 4.2750882e-22)
(1.0230915 -0.0033221092 -1.3223232e-20)
(1.0238116 -0.0024856213 6.6473296e-21)
(1.0244091 -0.0015915802 -1.3491751e-20)
(1.0248291 -0.00052097601 2.246456e-21)
(1.014948 -0.0071252425 -1.0358589e-22)
(1.0167938 -0.0068227249 1.9815107e-22)
(1.0179092 -0.0064869438 2.8809085e-21)
(1.0191751 -0.0061568856 0)
(1.0202106 -0.0057615755 -2.3939202e-23)
(1.0212395 -0.005312907 -1.1399479e-21)
(1.0221485 -0.0047734703 2.6612684e-21)
(1.0230198 -0.0041343675 6.5468808e-21)
(1.0237963 -0.0034031494 -1.1972155e-21)
(1.0245168 -0.0025367299 8.1930491e-21)
(1.0250891 -0.0016209599 5.6230458e-21)
(1.0254982 -0.00052203135 -1.1555447e-21)
(1.0140391 -0.0074861767 -8.2177202e-23)
(1.0160463 -0.0072194492 6.1991581e-22)
(1.0173016 -0.0069252107 0)
(1.0186863 -0.0066490408 0)
(1.0198251 -0.0063127938 2.1331302e-21)
(1.0209461 -0.0059360104 -3.8952693e-21)
(1.0219372 -0.0054664437 6.5332604e-21)
(1.0228819 -0.004914527 -6.8515055e-21)
(1.0237306 -0.0042422213 -5.0042453e-22)
(1.0245107 -0.0034830021 1.2833322e-23)
(1.0252052 -0.0025814855 -1.0233741e-20)
(1.025762 -0.0016457836 1.1622309e-20)
(1.0261467 -0.00052053123 -2.0522252e-20)
(1.0129297 -0.0078215314 3.4730182e-22)
(1.0151299 -0.0075872608 -1.1106212e-22)
(1.0165479 -0.0073303034 1.8358277e-21)
(1.0180702 -0.0071032801 -2.13913e-21)
(1.0193276 -0.006822922 2.3563811e-21)
(1.020554 -0.0065123845 -9.5860119e-22)
(1.0216389 -0.0061168012 -1.6545779e-21)
(1.0226721 -0.0056388288 1.0874746e-22)
(1.0235978 -0.0050541051 -5.6692101e-21)
(1.0244563 -0.0043503842 -5.0232768e-21)
(1.0252117 -0.0035552236 -2.5995049e-21)
(1.0258898 -0.0026191939 -7.0708828e-21)
(1.0264164 -0.0016641068 -4.7881206e-21)
(1.0267784 -0.00051623273 5.5653393e-21)
(1.0115848 -0.0081344633 2.6672616e-21)
(1.0140186 -0.0079302869 -2.39888e-21)
(1.0156278 -0.0077059637 6.3359876e-22)
(1.0173099 -0.0075236058 8.7751116e-23)
(1.0187035 -0.0072942499 -7.341988e-23)
(1.0200494 -0.0070471757 1.0503293e-21)
(1.0212413 -0.0067202773 -1.5331362e-21)
(1.0223735 -0.0063221512 2.0640976e-21)
(1.0233917 -0.0058112736 -6.9634346e-22)
(1.0243343 -0.005196579 4.0807491e-22)
(1.0251722 -0.0044504547 1.5439452e-22)
(1.0259139 -0.0036191058 -2.2674429e-22)
(1.0265589 -0.0026468166 1.0033122e-20)
(1.0270562 -0.0016750205 -5.1626696e-21)
(1.0273871 -0.00050886633 4.2891627e-21)
(1.0099596 -0.0084276943 -1.3171987e-21)
(1.0126787 -0.0082528131 2.0478934e-21)
(1.0145165 -0.0080560583 -9.940682e-22)
(1.0163862 -0.0079137043 1.9057486e-21)
(1.0179371 -0.0077307167 -2.1642971e-21)
(1.0194185 -0.0075421489 4.9125586e-21)
(1.0207307 -0.0072818538 -5.5564691e-21)
(1.0219736 -0.0069586801 2.5537302e-22)
(1.0230948 -0.0065296202 1.6817097e-21)
(1.0241374 -0.0059901208 -1.9416982e-21)
(1.0250646 -0.0053314349 1.6585011e-20)
(1.0258948 -0.004541894 -6.2800751e-21)
(1.0266047 -0.003670233 -3.3056495e-21)
(1.0272169 -0.0026629365 -1.1124984e-21)
(1.0276751 -0.0016772173 1.054273e-22)
(1.0279721 -0.00049826646 -4.6346133e-21)
(1.0079998 -0.0087030537 0)
(1.0110659 -0.0085593744 1.6244885e-21)
(1.0131816 -0.0083844611 -1.109093e-21)
(1.0152754 -0.0082776399 0)
(1.0170102 -0.0081359465 0)
(1.0186463 -0.008001035 0)
(1.020094 -0.0078027283 2.0290234e-22)
(1.0214591 -0.0075530968 -3.5141504e-21)
(1.0226948 -0.0072018263 3.3681359e-21)
(1.0238472 -0.0067478749 -4.5812709e-21)
(1.0248807 -0.0061627463 6.5821087e-22)
(1.0258083 -0.0054585199 -3.4154253e-21)
(1.0266109 -0.0046189774 5.4580542e-22)
(1.0272895 -0.0037066822 3.6199363e-21)
(1.027857 -0.002665469 6.4140775e-22)
(1.0282729 -0.0016698587 2.4075572e-21)
(1.0285301 -0.00048428007 0)
(1.005645 -0.0089609041 -3.9519433e-22)
(1.0091234 -0.008854325 -2.9772745e-21)
(1.0115803 -0.0086950765 3.5914307e-21)
(1.0139466 -0.008619659 1.5058202e-21)
(1.0159 -0.0085138418 2.3402679e-21)
(1.0177156 -0.0084271897 0)
(1.0193169 -0.0082863449 3.2092159e-21)
(1.0208177 -0.0081058216 -9.1922143e-22)
(1.0221786 -0.0078322066 -8.4264711e-21)
(1.0234513 -0.0074607876 4.3037819e-21)
(1.0246012 -0.0069621783 2.6306622e-21)
(1.0256439 -0.006329626 7.5861022e-22)
(1.0265503 -0.0055707562 -8.1709015e-21)
(1.0273271 -0.004679353 1.1536508e-20)
(1.0279612 -0.0037253698 1.9124585e-21)
(1.0284794 -0.0026529828 1.7103328e-20)
(1.0288455 -0.0016521167 6.1822925e-21)
(1.0290591 -0.00046680216 5.45378e-21)
(1.0028378 -0.0091994833 1.5773544e-22)
(1.0067845 -0.0091411127 -1.1627308e-21)
(1.0096565 -0.0089915059 -9.277066e-22)
(1.0123579 -0.0089441141 2.2717166e-21)
(1.0145773 -0.0088684888 -2.6612483e-22)
(1.016605 -0.0088244456 1.9436469e-21)
(1.0183832 -0.0087357609 -1.3283948e-21)
(1.0200359 -0.008619875 -6.9647818e-21)
(1.0215344 -0.0084203197 -2.8198591e-21)
(1.0229366 -0.0081326142 3.5942809e-21)
(1.0242132 -0.0077189057 -9.8904922e-22)
(1.0253812 -0.0071739215 6.7774281e-21)
(1.0264109 -0.0064823446 -4.4366791e-21)
(1.0272998 -0.005665396 -9.236755e-24)
(1.0280356 -0.004718976 -3.4083719e-22)
(1.0286204 -0.0037241505 -2.7750054e-21)
(1.0290798 -0.0026241397 5.6128877e-21)
(1.0293912 -0.0016233211 -2.5783047e-22)
(1.0295568 -0.00044580821 4.8630056e-21)
(0.99953708 -0.0094144346 1.4645491e-21)
(1.0039798 -0.0094212106 1.3292391e-21)
(1.0073427 -0.0092763097 -7.9188316e-21)
(1.0104536 -0.0092552388 -7.2400598e-22)
(1.0130015 -0.0092041787 1.3248734e-21)
(1.0152866 -0.0091968968 7.8043604e-22)
(1.0172728 -0.0091546811 5.559337e-22)
(1.0190984 -0.0090978971 3.4605521e-21)
(1.0207494 -0.0089686417 -1.1347025e-21)
(1.0222917 -0.0087618419 -9.1509003e-21)
(1.0237035 -0.0084360425 7.4005205e-21)
(1.0250065 -0.0079786782 -4.1039467e-22)
(1.0261707 -0.0073733387 -2.4992668e-21)
(1.0271928 -0.0066179723 1.8580725e-22)
(1.0280476 -0.0057374107 2.8965828e-22)
(1.0287378 -0.0047350001 -9.6727002e-21)
(1.0292622 -0.0037008934 2.7165213e-21)
(1.0296563 -0.0025779111 -8.9080727e-21)
(1.0299074 -0.0015830056 -2.1507604e-21)
(1.0300213 -0.0004213248 -4.7748164e-21)
(0.9957309 -0.0095988655 -1.0249087e-22)
(1.0006502 -0.009692862 1.517631e-21)
(1.0045659 -0.0095504818 -3.5036306e-22)
(1.0081641 -0.0095568653 2.0291576e-21)
(1.0111181 -0.0095252464 4.3631052e-22)
(1.0137217 -0.0095489976 -1.7141169e-21)
(1.0159592 -0.0095470893 4.4279762e-21)
(1.0179866 -0.0095433464 8.9583585e-21)
(1.0198093 -0.0094792965 -3.6326056e-21)
(1.0215045 -0.0093502072 0)
(1.0230609 -0.0091108896 -4.6419322e-21)
(1.0245064 -0.0087461995 3.232612e-21)
(1.0258151 -0.0082290926 7.5511895e-21)
(1.0269824 -0.0075575739 -6.4350362e-21)
(1.0279799 -0.0067303897 3.0434266e-21)
(1.0287969 -0.0057831408 -7.6771601e-21)
(1.0294286 -0.0047244928 -3.1863466e-23)
(1.0298852 -0.0036539187 3.355566e-21)
(1.0302059 -0.0025135186 -5.2932682e-21)
(1.030392 -0.0015309198 -4.1659107e-22)
(1.0304509 -0.00039343456 -4.1618625e-21)
(0.99144551 -0.0097440672 -3.9483602e-21)
(0.99676182 -0.0099503672 9.9177767e-22)
(1.0012599 -0.0098122095 3.7598687e-21)
(1.0054103 -0.0098511036 -4.2185605e-21)
(1.0088567 -0.0098354913 -2.863759e-21)
(1.011857 -0.0098854209 8.0180727e-22)
(1.0144053 -0.0099173711 0)
(1.0166755 -0.0099600742 2.4301123e-21)
(1.0186968 -0.0099553983 -1.3916409e-21)
(1.0205619 -0.0098991548 -8.913034e-21)
(1.022274 -0.0097443159 -8.8639873e-22)
(1.0238699 -0.0094723953 2.082187e-21)
(1.0253299 -0.0090510471 -5.7551092e-22)
(1.0266528 -0.0084675823 -2.3980364e-21)
(1.0278068 -0.0077193457 4.503423e-21)
(1.0287766 -0.0068153278 -4.3098647e-21)
(1.0295413 -0.0057988104 9.6550275e-22)
(1.0301064 -0.0046849852 -6.0514782e-21)
(1.0304856 -0.0035819259 -8.8283954e-22)
(1.0307263 -0.0024304531 -1.7428523e-22)
(1.030843 -0.0014670194 -2.5073796e-21)
(1.0308442 -0.00036227035 0)
(0.9867458 -0.0098408304 -2.0128809e-21)
(0.99231932 -0.010184107 -3.3319285e-22)
(0.99738069 -0.010056279 9.0614164e-23)
(1.002115 -0.01013745 -3.8229313e-21)
(1.0061348 -0.010137495 -1.8083897e-21)
(1.0096221 -0.010210644 1.6973629e-21)
(1.0125596 -0.010270302 -1.8252108e-21)
(1.0151302 -0.010352511 5.6418658e-21)
(1.0173883 -0.010400551 2.1745164e-21)
(1.0194477 -0.01041129 5.2732498e-22)
(1.0213306 -0.010336925 -1.3338744e-22)
(1.0230859 -0.010157069 -4.4113243e-21)
(1.0247041 -0.0098336029 6.3681603e-22)
(1.0261891 -0.0093484769 9.766378e-22)
(1.0275108 -0.0086857891 -5.5036062e-21)
(1.0286493 -0.0078539371 -6.4456316e-21)
(1.0295763 -0.0068679234 2.3091036e-22)
(1.0302804 -0.0057809861 1.0525411e-20)
(1.0307671 -0.0046145018 5.0848389e-22)
(1.0310608 -0.0034839556 -3.1962465e-21)
(1.0312153 -0.0023285379 0)
(1.0312589 -0.0013914456 5.1220477e-21)
(1.0312002 -0.00032801131 1.0098371e-22)
(0.98172775 -0.0098808698 1.0594184e-20)
(0.98736989 -0.010381761 -5.8270915e-22)
(0.9929207 -0.010273962 4.0321738e-21)
(0.99821846 -0.010411677 1.8726853e-21)
(1.0028678 -0.010431259 -4.7976048e-21)
(1.0069312 -0.010527849 0)
(1.010352 -0.010610638 -3.5619285e-22)
(1.0133011 -0.010725587 2.6637908e-21)
(1.0158512 -0.010819034 3.9662719e-21)
(1.0181403 -0.010889874 4.5975648e-21)
(1.0202158 -0.010890666 -4.165918e-21)
(1.0221433 -0.010799765 -4.1043556e-21)
(1.023927 -0.010575346 5.3928807e-21)
(1.0255797 -0.010192996 -5.182288e-21)
(1.0270758 -0.0096292202 8.8134649e-21)
(1.0283956 -0.0088786975 1.1357099e-20)
(1.0295036 -0.0079553045 -4.3975596e-21)
(1.0303792 -0.0068838993 4.0573201e-21)
(1.0310092 -0.0057269077 -1.2561188e-20)
(1.0314081 -0.0045114317 3.5791217e-21)
(1.0316081 -0.0033595061 6.5802475e-21)
(1.0316708 -0.0022078979 -5.1926586e-21)
(1.0316382 -0.0013045242 2.8255282e-21)
(1.0315181 -0.00029087322 8.3053028e-23)
(0.9765045 -0.0098577804 2.2428457e-21)
(0.98199863 -0.010529994 2.5430199e-22)
(0.98791633 -0.010453872 -2.5559068e-22)
(0.99369398 -0.010665456 -8.2722089e-21)
(0.9989844 -0.010713341 3.096699e-21)
(1.0036921 -0.010838231 -5.8362411e-21)
(1.0076952 -0.010942354 -2.8424252e-22)
(1.0111194 -0.011084507 -6.4924962e-21)
(1.0140379 -0.011215789 1.8715105e-21)
(1.0166089 -0.011339018 2.5530555e-21)
(1.0189095 -0.011408291 -2.65129e-21)
(1.0210282 -0.011401584 6.5702314e-21)
(1.0229881 -0.011274577 -2.9911519e-21)
(1.0248141 -0.010998319 -4.6512638e-22)
(1.0264896 -0.010540641 3.5633306e-21)
(1.0279978 -0.0098881218 1.3556277e-21)
(1.0293013 -0.0090391129 -8.7929491e-22)
(1.0303705 -0.0080183423 6.3461669e-21)
(1.0311801 -0.0068594016 0)
(1.0317252 -0.0056340263 1.0751278e-21)
(1.0320258 -0.0043747966 3.11636e-22)
(1.0321247 -0.0032084638 -5.6482106e-22)
(1.032091 -0.0020689651 -5.9882235e-23)
(1.03198 -0.0012067472 -3.8590226e-21)
(1.0317978 -0.00025110469 -1.3707897e-21)
(0.97118664 -0.0097683331 -8.4144823e-21)
(0.97631693 -0.010615702 -5.9643986e-22)
(0.98244488 -0.010583791 1.1728433e-21)
(0.98855964 -0.010886891 8.818449e-22)
(0.99444424 -0.010976131 8.9116946e-21)
(0.99982055 -0.011139307 4.0743809e-22)
(1.0044911 -0.011267321 -2.4993957e-22)
(1.0084964 -0.011433912 4.3415691e-22)
(1.0118813 -0.011596224 5.2494793e-21)
(1.0148088 -0.011763652 -1.0400878e-21)
(1.0173833 -0.011893565 3.5819877e-21)
(1.0197225 -0.011964598 -7.2994122e-22)
(1.0218747 -0.011931353 -3.4432257e-21)
(1.0238825 -0.011761285 9.1010116e-22)
(1.0257417 -0.011415691 -1.748505e-21)
(1.0274428 -0.01087142 -4.7414898e-21)
(1.0289501 -0.010116944 -3.5752235e-21)
(1.0302297 -0.0091611518 -8.868848e-21)
(1.0312448 -0.0080379522 -1.3064424e-20)
(1.0319765 -0.0067909257 -7.0603534e-23)
(1.0324241 -0.0055006676 1.2535886e-20)
(1.0326171 -0.0042040286 2.4370994e-21)
(1.0326085 -0.0030311375 -4.8994581e-21)
(1.0324745 -0.0019124403 3.8682556e-21)
(1.0322837 -0.0010987515 -2.3304103e-21)
(1.0320392 -0.00020898756 1.2312837e-22)
(0.96586478 -0.0096132703 3.4972785e-22)
(0.97044715 -0.010628591 -8.9207671e-22)
(0.97661125 -0.010653418 -4.5947629e-21)
(0.98288026 -0.011062097 4.462397e-21)
(0.98925043 -0.011208452 -7.2145885e-21)
(0.99525879 -0.011424507 4.9356671e-21)
(1.0006452 -0.011584125 3.19473e-21)
(1.0053286 -0.011776602 4.8460685e-21)
(1.0092925 -0.011965566 -7.4463812e-21)
(1.0126749 -0.012169408 -3.3556101e-21)
(1.015595 -0.012351249 2.7889737e-22)
(1.0181999 -0.012492098 -9.2908155e-21)
(1.0205704 -0.012546865 8.8640705e-21)
(1.0227732 -0.012480683 -3.5192128e-21)
(1.0248224 -0.012249569 1.3329936e-21)
(1.0267197 -0.011822562 1.2375938e-21)
(1.0284355 -0.011176244 -5.3179226e-21)
(1.0299355 -0.010309123 6.0270847e-21)
(1.0311759 -0.0092384127 -5.6698422e-21)
(1.0321244 -0.0080095544 7.3696216e-22)
(1.0327635 -0.006675763 0)
(1.0331025 -0.0053254946 4.8804368e-21)
(1.0331788 -0.0039991739 6.7715057e-22)
(1.0330572 -0.0028282276 0)
(1.0328202 -0.0017392652 -4.3823902e-21)
(1.0325491 -0.00098130213 -3.0659185e-22)
(1.0322426 -0.00016484506 5.2261852e-22)
(0.96059828 -0.0093966032 2.5608009e-21)
(0.96450021 -0.010562185 -1.3541841e-22)
(0.97053118 -0.010654431 -3.8440236e-21)
(0.97675842 -0.011177273 3.9405273e-22)
(0.98345356 -0.01139694 -1.4084159e-21)
(0.98999153 -0.011682905 -5.3374808e-21)
(0.99608528 -0.011886926 -3.001547e-22)
(1.0015111 -0.012112091 -4.4194762e-21)
(1.0061642 -0.012327539 6.2619718e-22)
(1.0101188 -0.012562012 5.5355885e-21)
(1.0134821 -0.01278702 -5.6892676e-21)
(1.0164209 -0.012988574 -2.2227156e-21)
(1.0190512 -0.013123727 -4.2783705e-21)
(1.0214714 -0.013156597 1.3860641e-21)
(1.0237211 -0.013039573 -4.0775956e-21)
(1.0258188 -0.012734921 1.868747e-21)
(1.0277458 -0.012209249 -5.539613e-21)
(1.0294716 -0.011448016 1.7565456e-20)
(1.0309498 -0.010456974 5.729051e-21)
(1.0321383 -0.0092651703 7.4764178e-22)
(1.033004 -0.007929173 6.9899079e-21)
(1.0335375 -0.0065116452 -7.4851354e-22)
(1.0337562 -0.0051080353 -4.3434184e-22)
(1.0337082 -0.0037607269 0)
(1.0334691 -0.002600814 0)
(1.0331274 -0.0015505861 3.5116746e-22)
(1.032776 -0.00085527297 -1.476128e-21)
(1.0324086 -0.00011912251 -3.2970212e-22)
(0.95541257 -0.009126456 0)
(0.95855934 -0.01041412 -8.1949836e-22)
(0.96431714 -0.010581318 3.5267424e-21)
(0.97031742 -0.011221049 1.4900835e-21)
(0.97714509 -0.011527691 5.1817004e-21)
(0.984054 -0.011900142 5.1695743e-22)
(0.99077874 -0.01216542 -3.5161304e-21)
(0.99695593 -0.012435579 -6.9342337e-21)
(1.0023827 -0.012682786 7.8540441e-21)
(1.0070302 -0.012946059 -1.7582125e-21)
(1.0109576 -0.013207003 4.9104381e-22)
(1.0143263 -0.013459683 1.6390015e-21)
(1.0172804 -0.013665967 -1.2090102e-20)
(1.0199553 -0.013790758 2.3630106e-21)
(1.0224243 -0.013784448 1.962303e-21)
(1.0247303 -0.013604082 -4.0717182e-21)
(1.0268711 -0.013207375 2.0811811e-21)
(1.0288253 -0.012568316 -4.8113676e-21)
(1.0305482 -0.011677879 1.292696e-20)
(1.0319922 -0.010553615 -3.7852882e-21)
(1.0331118 -0.0092360126 5.6839984e-21)
(1.0338797 -0.0077933767 3.745359e-21)
(1.0342935 -0.0062972179 -2.6139858e-22)
(1.0343818 -0.0048482731 -1.1426479e-20)
(1.0342026 -0.0034897335 -3.1490932e-21)
(1.0338429 -0.0023503251 6.649203e-22)
(1.0333958 -0.0013477203 2.5169953e-21)
(1.032965 -0.0007216607 -4.1569901e-22)
(1.0325385 -7.2027653e-05 -7.4110788e-22)
(0.95029046 -0.0088069192 -7.2280716e-21)
(0.95266571 -0.010188812 0)
(0.95806137 -0.010432815 0)
(0.96368108 -0.011185573 0)
(0.97044304 -0.011588485 -1.3027195e-21)
(0.97752975 -0.012061161 4.5432657e-21)
(0.98474368 -0.012405669 -2.8493784e-22)
(0.99161188 -0.012737253 -2.8356547e-22)
(0.99784613 -0.013027532 1.0600437e-20)
(1.0032871 -0.013323311 -1.1275568e-20)
(1.0079092 -0.013616599 5.1821302e-21)
(1.0118308 -0.013911837 -1.9698035e-21)
(1.0152021 -0.01417904 3.8558306e-21)
(1.0181913 -0.014386548 -3.0330867e-21)
(1.0209125 -0.014484792 8.3584404e-21)
(1.0234421 -0.014427196 2.5391084e-21)
(1.025802 -0.014164299 -4.4964331e-21)
(1.027986 -0.013659386 -5.7332772e-21)
(1.0299565 -0.01288993 2.6228638e-21)
(1.0316652 -0.011857858 -2.7317283e-21)
(1.0330579 -0.010592099 -6.4360639e-21)
(1.0340923 -0.0091461468 5.2127283e-22)
(1.034746 -0.0075996186 8.7467019e-21)
(1.0350271 -0.0060316963 -5.3414231e-21)
(1.0349755 -0.0045469684 -4.2234959e-22)
(1.0346598 -0.0031876458 -1.6061937e-21)
(1.0341773 -0.0020785489 2.9777287e-21)
(1.0336252 -0.0011321688 1.2499007e-21)
(1.0331166 -0.00058145748 2.1835588e-22)
(1.0326332 -2.3590159e-05 -1.0782148e-21)
(0.94480547 -0.0084126997 -4.2495534e-22)
(0.94682682 -0.0098876787 -7.9975562e-22)
(0.95182554 -0.010212064 0)
(0.9569544 -0.011066716 0)
(0.96347276 -0.011570243 0)
(0.9705369 -0.012152106 0)
(0.97804898 -0.012591984 0)
(0.98547959 -0.013003235 5.3203306e-23)
(0.99248572 -0.013352929 -4.3613689e-21)
(0.99877379 -0.013691051 1.2113258e-20)
(1.0042082 -0.014018708 -2.2195692e-22)
(1.0088215 -0.014351155 5.709551e-21)
(1.0127335 -0.0146695 -1.1593156e-20)
(1.0161269 -0.014949055 6.2829871e-21)
(1.019155 -0.015143099 -6.5467758e-22)
(1.0219365 -0.015203472 4.7686948e-21)
(1.0245275 -0.015075331 -7.0301258e-21)
(1.0269444 -0.014712819 2.2152467e-21)
(1.0291635 -0.01408041 5.7165391e-21)
(1.0311409 -0.013165156 3.120105e-21)
(1.0328188 -0.011979466 8.1690378e-22)
(1.0341431 -0.010566127 4.4927156e-21)
(1.0350738 -0.0089915533 1.1608148e-22)
(1.0355978 -0.0073460327 -3.3554074e-21)
(1.0357336 -0.0057152018 2.0478626e-21)
(1.0355341 -0.004205368 8.7130487e-21)
(1.0350777 -0.0028563784 2.0756873e-21)
(1.0344717 -0.0017874702 -1.2322907e-21)
(1.033816 -0.00090553952 1.3592438e-22)
(1.033232 -0.00043553929 9.230803e-22)
(1.0326939 2.5544749e-05 8.9011421e-22)
(0.93891336 -0.0079021068 8.0444629e-21)
(0.94058645 -0.0094961171 -3.2181938e-22)
(0.94563428 -0.0099234533 1.9949359e-21)
(0.95020723 -0.010870575 1.760154e-21)
(0.95634725 -0.011466909 0)
(0.96320655 -0.01216187 0)
(0.97080342 -0.012709154 -4.468214e-23)
(0.97861465 -0.013216994 5.4684624e-21)
(0.98628226 -0.013645239 -9.1142595e-21)
(0.9934032 -0.014041225 1.1307677e-20)
(0.99972655 -0.014411912 4.8405401e-22)
(1.0051637 -0.014781656 -8.2015804e-21)
(1.0097619 -0.015144046 1.4871635e-21)
(1.0136825 -0.015484818 -9.6284474e-22)
(1.017103 -0.015763858 -6.3173204e-21)
(1.0201859 -0.015934252 4.9611255e-22)
(1.0230317 -0.015938015 1.0075866e-20)
(1.0256902 -0.015721853 -6.1605898e-22)
(1.0281593 -0.015238715 -6.2632733e-21)
(1.0304066 -0.014460767 1.8316844e-20)
(1.0323758 -0.013384059 -1.6358532e-21)
(1.0340059 -0.012034824 -5.2303529e-21)
(1.035242 -0.010469974 1.1967036e-20)
(1.0360509 -0.0087689756 5.5232045e-21)
(1.0364294 -0.0070317467 -1.188269e-21)
(1.0364088 -0.0053484872 5.128928e-21)
(1.0360545 -0.0038253618 2.4881071e-21)
(1.0354549 -0.0024981646 4.7743337e-22)
(1.0347259 -0.0014790906 -9.9987025e-22)
(1.0339689 -0.00066942364 -5.2331934e-22)
(1.0333123 -0.00028510398 1.3740506e-21)
(1.0327225 7.4698593e-05 1.2471256e-22)
(0.93303856 -0.0072919003 -2.6853696e-21)
(0.93388082 -0.0089815364 9.5035691e-22)
(0.93905546 -0.0095473494 -2.7154367e-21)
(0.94347839 -0.010593805 -1.7791662e-21)
(0.94915303 -0.011282297 0)
(0.95566209 -0.01208239 0)
(0.96313814 -0.012743748 0)
(0.97111924 -0.013362016 -7.1483308e-22)
(0.9792736 -0.013887567 8.3510269e-21)
(0.98713655 -0.014360573 8.9018994e-21)
(0.99435951 -0.014789223 4.4481773e-22)
(1.0007176 -0.015203179 -1.4983759e-21)
(1.0061485 -0.015607749 1.6983174e-20)
(1.0107467 -0.016000973 -1.0280471e-20)
(1.0146807 -0.016353386 1.6061005e-21)
(1.0181453 -0.01662318 0)
(1.02129 -0.016752251 3.0617311e-21)
(1.0242094 -0.016682088 -2.3363895e-21)
(1.0269342 -0.016355813 3.6126172e-21)
(1.0294516 -0.015731832 9.2334885e-22)
(1.0317141 -0.014789258 -8.192619e-21)
(1.033659 -0.013537199 4.1036085e-22)
(1.0352209 -0.012016351 -7.9146349e-21)
(1.0363486 -0.010298707 -9.8357759e-21)
(1.0370169 -0.0084761809 3.2861792e-21)
(1.0372354 -0.006656672 9.2891056e-22)
(1.0370483 -0.0049331192 -6.3234609e-22)
(1.0365342 -0.0034092669 4.7687111e-23)
(1.0357902 -0.0021155128 -1.3077726e-21)
(1.0349398 -0.0011555976 -1.24162e-21)
(1.0340846 -0.00042571002 6.6833521e-22)
(1.0333588 -0.00013142114 -5.2880281e-21)
(1.0327211 0.00012400368 2.5664847e-21)
(0.92733589 -0.0065826796 -2.3886381e-21)
(0.92713427 -0.0083481516 1.8569863e-22)
(0.93196804 -0.0090423132 -5.0380979e-21)
(0.93630858 -0.010208251 -2.8282703e-21)
(0.94194151 -0.011019744 1.3101516e-21)
(0.94800121 -0.011919887 1.0616984e-22)
(0.95518448 -0.01268534 7.6199329e-21)
(0.9631238 -0.013423778 -4.3485162e-21)
(0.97154991 -0.014062189 -6.3694514e-22)
(0.97999395 -0.014631913 -1.8133662e-20)
(0.98804741 -0.015137863 8.1545001e-21)
(0.99536101 -0.015609805 1.211733e-20)
(1.0017428 -0.016061782 -3.6297373e-22)
(1.0071772 -0.016503541 -6.9770553e-21)
(1.0117785 -0.016919072 -7.6221689e-21)
(1.015743 -0.017276113 -1.5597505e-21)
(1.0192611 -0.017520537 1.3812839e-21)
(1.0224797 -0.017591677 6.3664322e-21)
(1.0254754 -0.017425095 -1.0842186e-21)
(1.0282662 -0.016966896 -1.0290569e-21)
(1.0308221 -0.01617998 2.2050517e-21)
(1.0330856 -0.015054998 -1.3392032e-20)
(1.0349859 -0.013615078 4.1732509e-24)
(1.0364579 -0.011917209 3.5768369e-21)
(1.0374557 -0.010048379 -1.2803783e-20)
(1.0379654 -0.0081118563 -4.2580027e-21)
(1.0380101 -0.0062216986 -3.6594271e-21)
(1.0376483 -0.0044712634 -1.5785839e-21)
(1.036971 -0.0029598663 -1.7727031e-21)
(1.036083 -0.0017111219 -1.0658569e-22)
(1.0351139 -0.00081929375 4.3759365e-23)
(1.0341644 -0.0001755744 -1.5517908e-22)
(1.0333732 2.521883e-05 2.5951967e-21)
(1.0326906 0.00017487356 -5.5388817e-21)
(0.92197684 -0.0057751012 2.5804538e-21)
(0.92052579 -0.007588296 -2.6295383e-22)
(0.92477279 -0.0084139321 5.7009455e-21)
(0.92857975 -0.0096937932 1.580084e-21)
(0.93430537 -0.010644246 -4.5372557e-21)
(0.94029115 -0.011669234 -5.8252488e-21)
(0.9470541 -0.012539328 -9.260472e-22)
(0.95476549 -0.013389392 0)
(0.96323808 -0.014152099 -5.0636967e-21)
(0.97205296 -0.014836442 -2.014907e-20)
(0.98079014 -0.015440452 -5.0233668e-22)
(0.98901331 -0.015989464 -4.3955227e-21)
(0.99640566 -0.016501509 0)
(1.0028142 -0.016995012 3.2109329e-23)
(1.0082525 -0.017467734 1.3683004e-20)
(1.0128723 -0.017900477 2.077262e-21)
(1.0168777 -0.018247987 -1.167764e-20)
(1.0204639 -0.018451654 0)
(1.023763 -0.018442658 1.4665769e-21)
(1.0268385 -0.01815691 2.9266174e-21)
(1.0296892 -0.01754227 -1.1133607e-20)
(1.0322719 -0.016571045 2.0465408e-21)
(1.0345173 -0.015246622 0)
(1.0363511 -0.013608806 -1.1474632e-20)
(1.0377095 -0.011731424 4.3400844e-21)
(1.038556 -0.009716053 -2.7029378e-22)
(1.0388894 -0.0076758081 -5.2183003e-21)
(1.0387484 -0.0057285107 3.9939829e-21)
(1.0382054 -0.0039657419 2.1896331e-22)
(1.0373631 -0.0024802606 -3.2966915e-21)
(1.0363328 -0.0012878541 1.9004307e-21)
(1.0352488 -0.0004724187 2.9463697e-22)
(1.0342097 7.9345406e-05 0)
(1.0333573 0.00018388593 -1.050727e-22)
(1.0326333 0.00022524672 -1.8921214e-21)
(0.91714226 -0.0048739249 1.8094472e-21)
(0.91426329 -0.0066996402 4.1768239e-22)
(0.91767662 -0.0076561317 5.0585692e-21)
(0.92069415 -0.0090450448 5.3456798e-22)
(0.92607322 -0.010129119 -1.211958e-21)
(0.93209508 -0.011295049 -5.9178503e-22)
(0.93883149 -0.012301373 -5.6847624e-21)
(0.94616689 -0.013265091 1.2215181e-23)
(0.95447959 -0.014142111 0)
(0.96343488 -0.014955708 6.2387513e-21)
(0.97264942 -0.015677281 -6.775723e-21)
(0.98165346 -0.016324818 8.1258907e-22)
(0.99003529 -0.016915626 -4.8811829e-21)
(0.99750234 -0.017472068 7.3686674e-21)
(1.0039344 -0.018003142 4.4678739e-21)
(1.0093885 -0.018503711 1.0893945e-20)
(1.0140367 -0.018941804 -2.3634161e-20)
(1.0180992 -0.019266065 -7.872144e-21)
(1.0217635 -0.019407725 9.9337252e-21)
(1.0251508 -0.019295609 -1.4862388e-20)
(1.0283042 -0.018864456 1.1881534e-20)
(1.0312066 -0.018068893 -8.9350546e-21)
(1.0337993 -0.016891955 0)
(1.0360052 -0.015353147 -2.9591961e-21)
(1.0377472 -0.013510144 1.0038764e-21)
(1.0389678 -0.011454056 5.8309403e-21)
(1.0396414 -0.0093000111 1.8273965e-21)
(1.0397824 -0.0071688367 9.9723337e-22)
(1.0394454 -0.0051796586 2.6741618e-21)
(1.0387167 -0.0034198673 0)
(1.0377094 -0.0019738447 2.9211831e-21)
(1.0365399 -0.00084863374 1.9212522e-21)
(1.0353457 -0.0001172194 4.4808699e-21)
(1.034222 0.00033763825 -2.3605032e-21)
(1.0333129 0.00034349782 1.2113311e-22)
(1.0325509 0.00027526646 6.9825326e-21)
(0.91301093 -0.0038883804 -1.7330402e-21)
(0.90857197 -0.0056858012 -8.6977188e-23)
(0.91091399 -0.0067665785 -1.5447086e-21)
(0.91287012 -0.0082522249 -4.1518334e-24)
(0.91759369 -0.009474388 5.494618e-21)
(0.92323372 -0.01077337 5.0160206e-21)
(0.93010634 -0.011928566 1.1837591e-23)
(0.93742789 -0.013041824 -4.4282761e-21)
(0.94540804 -0.01403859 8.8173588e-24)
(0.95428313 -0.014971904 -5.1340283e-21)
(0.96373811 -0.015828011 -3.163856e-23)
(0.97332582 -0.016595436 3.7546136e-21)
(0.98258817 -0.017286926 3.6788836e-22)
(0.99111847 -0.017924347 6.0211683e-21)
(0.99865379 -0.018523373 -2.8193649e-20)
(1.0051164 -0.019090751 7.0606159e-22)
(1.0105939 -0.019609819 7.6353239e-21)
(1.0152868 -0.020041586 1.0711183e-20)
(1.0194189 -0.02032291 -1.1066231e-20)
(1.0231727 -0.020380057 -3.561796e-21)
(1.0266508 -0.020137639 5.8489127e-21)
(1.0298781 -0.01953413 -1.3308068e-20)
(1.0328187 -0.018532252 1.0727593e-20)
(1.0354015 -0.017129706 0)
(1.0375424 -0.015363928 7.9366803e-21)
(1.0391662 -0.013311818 1.2031606e-20)
(1.0402237 -0.011081415 -4.8421887e-21)
(1.0407038 -0.0087997083 9.8459441e-21)
(1.0406378 -0.0065928247 2.586255e-22)
(1.0400966 -0.0045783971 -2.9153283e-21)
(1.0391795 -0.0028374164 -2.6771988e-21)
(1.038009 -0.001444189 -1.6862837e-21)
(1.0367047 -0.00039643393 -2.7057214e-22)
(1.0354058 0.0002440843 5.2192129e-21)
(1.0342031 0.00059775307 -9.0582692e-22)
(1.0332419 0.00050323109 -2.6841114e-22)
(1.0324455 0.00032456539 2.6954587e-21)
(0.90974691 -0.0028319134 2.2016537e-22)
(0.90367834 -0.0045571769 -5.064225e-22)
(0.90473898 -0.0057482017 -1.99433e-21)
(0.90536985 -0.0073117188 -3.4884916e-22)
(0.90911783 -0.0086637441 4.7843912e-23)
(0.91406137 -0.010100422 -1.1295493e-23)
(0.92066693 -0.011398258 -3.0543549e-21)
(0.92813789 -0.012671853 1.4616675e-21)
(0.93613984 -0.013830915 0)
(0.94474019 -0.014892095 1.021135e-21)
(0.95419966 -0.015872003 0)
(0.96413263 -0.016779332 0)
(0.97408901 -0.017594312 4.2118914e-21)
(0.98359582 -0.018334923 -6.3871228e-22)
(0.99226606 -0.019019135 -4.2946866e-21)
(0.99987124 -0.019661095 -8.3618422e-21)
(1.0063687 -0.020257976 1.7365139e-20)
(1.011884 -0.020786176 5.8256207e-21)
(1.0166352 -0.021194004 8.9672419e-21)
(1.0208514 -0.021411048 4.0770461e-21)
(1.0247019 -0.021356377 -1.0650275e-20)
(1.0282714 -0.020955006 6.8704889e-21)
(1.0315633 -0.020150347 1.7915417e-21)
(1.0345249 -0.018917523 -2.6963733e-21)
(1.0370733 -0.017271235 -5.3163873e-23)
(1.0391213 -0.015269117 2.4531999e-21)
(1.0405985 -0.013007752 -1.3825318e-21)
(1.0414679 -0.010611118 -6.0307225e-21)
(1.0417352 -0.0082158899 -5.5389094e-22)
(1.0414494 -0.0059506053 -8.9132034e-21)
(1.0406981 -0.0039286613 -2.7040678e-21)
(1.0395922 -0.002222495 -1.1857308e-21)
(1.0382618 -0.00089499266 -3.4678056e-21)
(1.0368282 6.5796569e-05 3.2835915e-21)
(1.0354308 0.00060932482 -1.0643296e-20)
(1.0341549 0.0008583145 -1.9291717e-21)
(1.0331463 0.00066220954 -2.434517e-21)
(1.0323191 0.00037305357 0)
(0.90748727 -0.0017216484 1.5212477e-21)