/*--------------------------------*- C++ -*----------------------------------*\
| =========                 |                                                 |
| \\      /  F ield         | OpenFOAM: The Open Source CFD Toolbox           |
|  \\    /   O peration     | Version:  5.0                                   |
|   \\  /    A nd           | Web:      www.OpenFOAM.org                      |
|    \\/     M anipulation  |                                                 |
\*---------------------------------------------------------------------------*/
FoamFile
{
    version     2.0;
    format      ascii;
    class       volSymmTensorField;
    location    "90";
    object      UPrime2Mean;
}
// * * * * * * * * * * * * * * * * * * * * * * * * * * * * * * * * * * * * * //

dimensions      [0 2 -2 0 0 0 0];

internalField   nonuniform List<symmTensor> 
9200
(
(2.8444701e-05 8.1399196e-08 9.290252e-27 6.5885662e-09 -5.6503397e-29 2.729178e-47)
(2.7737375e-05 1.7725721e-07 -1.5175138e-24 5.53414e-08 1.3428967e-25 5.9625457e-43)
(2.8142595e-05 8.9192293e-08 0 6.8033486e-09 0 0)
(2.9236114e-05 3.3930779e-07 8.0056868e-25 1.4076046e-07 -1.1286225e-25 1.607885e-43)
(2.7457285e-05 1.8151474e-07 -1.5888823e-24 5.6412969e-08 7.164553e-26 3.2817405e-43)
(2.787936e-05 9.6300103e-08 0 6.785076e-09 0 0)
(3.2122228e-05 4.9693904e-07 7.8882864e-26 2.5631684e-07 -1.511879e-26 1.605468e-45)
(2.8968406e-05 3.5669491e-07 -2.3110737e-26 1.4338459e-07 -2.5281769e-27 5.0249758e-45)
(2.7206017e-05 1.8868262e-07 0 5.5741164e-08 0 0)
(2.7633722e-05 1.0601687e-07 0 6.8994685e-09 0 0)
(3.6120479e-05 7.3633389e-07 -1.6370762e-24 3.9772024e-07 4.0049552e-25 6.4842081e-43)
(3.1837281e-05 5.1841387e-07 -1.4674133e-24 2.6027726e-07 1.7023477e-25 2.6105533e-43)
(2.8722387e-05 3.7185347e-07 -9.2261385e-25 1.4198841e-07 6.9491389e-26 9.903009e-44)
(2.6977598e-05 1.9852461e-07 -5.9056307e-26 5.5666779e-08 2.3185316e-27 3.6721184e-46)
(2.7374962e-05 1.1524178e-07 -1.0244413e-27 7.009876e-09 4.4243177e-30 5.7975782e-49)
(4.1074439e-05 1.0177085e-06 -1.4968313e-24 5.6027964e-07 4.5430364e-25 5.7214895e-43)
(3.5777793e-05 7.7207101e-07 1.0618066e-25 4.036789e-07 2.9589994e-28 1.0325564e-44)
(3.1569411e-05 5.3566474e-07 -3.1139402e-24 2.5731153e-07 3.2148162e-25 1.0550005e-42)
(2.850435e-05 3.9402784e-07 -1.329899e-24 1.4239319e-07 8.5150257e-26 1.6311332e-43)
(2.6736232e-05 2.0785039e-07 -4.9026959e-26 5.5500468e-08 2.0143472e-27 4.4852929e-45)
(2.7101619e-05 1.2613092e-07 2.6136839e-24 7.2264886e-09 -2.2494944e-26 6.2940606e-43)
(4.700122e-05 1.3762263e-06 -1.5678807e-24 7.4276792e-07 5.9407162e-25 7.397102e-43)
(4.0653336e-05 1.0670877e-06 -2.2283174e-24 5.6773107e-07 3.2391416e-25 5.2304908e-43)
(3.5468387e-05 7.9546786e-07 1.8924237e-24 3.990408e-07 -2.4047023e-25 3.8530723e-43)
(3.1331381e-05 5.6109538e-07 1.4046687e-25 2.5734972e-07 -1.300278e-26 2.1256117e-45)
(2.8269738e-05 4.1365645e-07 -1.272735e-24 1.4257728e-07 6.6511348e-26 1.4793127e-43)
(2.6486544e-05 2.1970591e-07 -1.3425379e-24 5.5974437e-08 3.7907551e-26 1.3832255e-43)
(2.6842968e-05 1.3730332e-07 -2.7057227e-25 7.5106329e-09 1.009712e-27 4.6182215e-45)
(5.3925608e-05 1.8003742e-06 -9.7413487e-25 9.4248417e-07 4.2997322e-25 4.729183e-43)
(4.6476591e-05 1.4477692e-06 -1.6836103e-24 7.5176649e-07 3.4329896e-25 3.198038e-43)
(4.0282141e-05 1.0941544e-06 -2.191873e-24 5.6064233e-07 3.5720641e-25 5.0981918e-43)
(3.5186537e-05 8.2946967e-07 -5.6780892e-26 3.9895982e-07 1.9482906e-26 3.0049908e-44)
(3.1074102e-05 5.8215293e-07 3.3238366e-24 2.5701994e-07 -2.3922243e-25 8.4742209e-43)
(2.8030416e-05 4.3779068e-07 1.5287199e-24 1.4465167e-07 -6.4246715e-26 1.6225156e-43)
(2.6251654e-05 2.3180962e-07 1.6089201e-24 5.6953753e-08 -4.2665586e-26 2.8718417e-43)
(2.655395e-05 1.49632e-07 -2.6289025e-24 7.9145335e-09 1.6260507e-26 6.3767175e-43)
(6.1910869e-05 2.3015732e-06 1.7644413e-24 1.1594164e-06 -1.056995e-24 1.436131e-42)
(5.3282076e-05 1.900876e-06 -1.8534475e-24 9.52377e-07 3.5247001e-25 3.6319323e-43)
(4.6023988e-05 1.4805346e-06 -1.2941785e-26 7.4186609e-07 3.377187e-26 2.7224065e-44)
(3.9933927e-05 1.1334227e-06 -1.1599191e-24 5.5948281e-07 1.4721188e-25 1.1652302e-43)
(3.4884441e-05 8.5537962e-07 -1.3325759e-25 3.9826535e-07 2.7926066e-26 1.5041794e-43)
(3.0816891e-05 6.0771823e-07 5.3272567e-24 2.6006552e-07 -3.1711039e-25 1.9761421e-42)
(2.7805632e-05 4.6184714e-07 -4.8857437e-25 1.4806387e-07 4.5684952e-26 4.8334993e-43)
(2.5993766e-05 2.4572222e-07 2.8495741e-24 5.8831762e-08 -7.0431081e-26 8.5334175e-43)
(2.627812e-05 1.6269926e-07 5.8089604e-24 8.4127682e-09 -3.0469547e-26 3.0466076e-42)
(7.1027168e-05 2.876896e-06 -1.4199209e-24 1.3931688e-06 1.019984e-24 1.1906424e-42)
(6.1138272e-05 2.44383e-06 8.638313e-25 1.1696943e-06 -5.6714264e-26 1.9613501e-43)
(5.272561e-05 1.9398243e-06 7.0864033e-26 9.3901052e-07 -2.858949e-26 3.4865283e-45)
(4.5587333e-05 1.5280323e-06 -2.5395156e-26 7.3920983e-07 -9.4008537e-26 3.2068339e-43)
(3.9563913e-05 1.1597741e-06 4.7185314e-25 5.5743347e-07 -5.6488659e-26 1.9992828e-44)
(3.4587671e-05 8.8484673e-07 -2.4144606e-25 4.027452e-07 1.8014174e-26 4.1604922e-43)
(3.0575759e-05 6.3241141e-07 -2.0053371e-24 2.6554429e-07 9.7448453e-26 2.4647955e-43)
(2.7562062e-05 4.8847682e-07 -3.3960285e-24 1.5394421e-07 1.0769343e-25 8.0217364e-43)
(2.5750584e-05 2.6111084e-07 -1.9802703e-24 6.1462575e-08 3.0913774e-26 2.3643308e-43)
(2.5977949e-05 1.7675467e-07 -5.5404839e-25 9.0407963e-09 2.9783756e-28 1.6450145e-44)
(8.1352625e-05 3.526203e-06 4.3331631e-25 1.6449076e-06 -5.2452081e-25 2.3317146e-43)
(7.0131946e-05 3.0780334e-06 -7.1887166e-26 1.4029478e-06 2.337822e-25 1.7275321e-43)
(6.0453636e-05 2.4914131e-06 -1.3641818e-24 1.1523645e-06 3.2399526e-25 2.3532716e-43)
(5.2176821e-05 1.9969354e-06 1.6479421e-24 9.3388975e-07 -3.4232276e-25 2.7838796e-43)
(4.512556e-05 1.5556137e-06 -2.2527266e-24 7.3525114e-07 2.0876682e-25 8.0761091e-43)
(3.9204854e-05 1.1867388e-06 5.5699268e-24 5.6236871e-07 -4.9304878e-25 2.3391258e-42)
(3.4309697e-05 9.114922e-07 -9.3520969e-26 4.109016e-07 -3.6053691e-27 4.4862041e-44)
(3.0323037e-05 6.590299e-07 -5.5213279e-24 2.7559147e-07 2.7816108e-25 2.5115881e-42)
(2.7335803e-05 5.1720853e-07 2.6612971e-24 1.6181193e-07 -9.4334728e-26 6.5073422e-43)
(2.5489898e-05 2.7836133e-07 -5.8914602e-24 6.5149988e-08 1.0862527e-25 2.6197008e-42)
(2.5679304e-05 1.9185074e-07 7.5994329e-25 9.7748071e-09 -5.9033124e-27 8.4807795e-44)
(9.2947502e-05 4.24404e-06 2.9099978e-25 1.9161915e-06 -2.5097922e-26 8.2995935e-45)
(8.0369086e-05 3.811446e-06 2.1618248e-25 1.6532866e-06 -5.4217388e-25 5.4879955e-43)
(6.929356e-05 3.1367219e-06 1.2151119e-24 1.3809909e-06 -5.0248743e-25 3.2606323e-43)
(5.9768847e-05 2.5631165e-06 0 1.1439849e-06 0 0)
(5.1595573e-05 2.0248968e-06 -3.9386312e-26 9.2696907e-07 1.3104257e-26 1.5564301e-45)
(4.4679295e-05 1.5789601e-06 9.0990711e-26 7.4002687e-07 -5.7737894e-26 4.4355793e-43)
(3.8868241e-05 1.2080064e-06 1.2271713e-24 5.7231586e-07 -9.494327e-26 1.0445371e-43)
(3.4029589e-05 9.3789364e-07 2.9761727e-24 4.2623626e-07 -1.805571e-25 6.4767138e-43)
(3.009376e-05 6.8789359e-07 7.1806812e-25 2.892663e-07 6.9385266e-26 4.8735162e-43)
(2.7096794e-05 5.4843791e-07 3.5533784e-24 1.7250686e-07 -1.1391386e-25 1.0336702e-42)
(2.523402e-05 2.9843903e-07 2.3295897e-24 6.9676935e-08 -5.1821471e-26 5.0861434e-43)
(2.536354e-05 2.0795221e-07 -5.7834405e-25 1.0635694e-08 5.1388422e-28 2.2476148e-44)
(0.00010580496 5.0206849e-06 1.0940963e-25 2.2096142e-06 1.6553171e-26 3.7098114e-46)
(9.1959999e-05 4.6490018e-06 2.6755051e-25 1.9222996e-06 1.1652169e-25 6.6005209e-44)
(7.935312e-05 3.8842412e-06 0 1.6258468e-06 0 0)
(6.8450917e-05 3.229897e-06 0 1.3683729e-06 0 0)
(5.9037491e-05 2.5932799e-06 8.7229318e-25 1.133163e-06 -1.0673872e-25 9.1404011e-44)
(5.1031651e-05 2.0415114e-06 -1.1521139e-24 9.3026857e-07 1.2728467e-26 1.1773685e-42)
(4.4259512e-05 1.5922802e-06 2.6491111e-24 7.5114558e-07 -2.2807433e-25 1.1280781e-42)
(3.8540822e-05 1.2245542e-06 -3.6551946e-24 5.9239561e-07 2.4262311e-25 7.0806438e-43)
(3.3781139e-05 9.6557327e-07 -3.5680983e-25 4.4715479e-07 9.3878258e-27 6.1751191e-45)
(2.9860313e-05 7.1898773e-07 -1.0428664e-26 3.0823781e-07 -1.1649475e-27 6.7099733e-47)
(2.6866902e-05 5.8400934e-07 -4.0013199e-24 1.8543142e-07 1.8018114e-25 1.9374362e-42)
(2.496688e-05 3.2123792e-07 3.7252891e-24 7.5234947e-08 -1.57215e-25 2.8191296e-42)
(2.5037707e-05 2.2525717e-07 -7.7855032e-24 1.1607566e-08 4.95818e-26 7.906051e-42)
(0.00011975132 5.8375853e-06 -2.4358374e-24 2.5283132e-06 6.6649108e-26 1.4618814e-43)
(0.00010498272 5.5942376e-06 -5.7517394e-26 2.2131001e-06 -8.4755905e-27 9.7418129e-46)
(9.0750495e-05 4.7384061e-06 3.6729385e-25 1.8879231e-06 -1.1258133e-25 9.6797794e-44)
(7.8338101e-05 4.0096478e-06 -7.3938326e-25 1.6080764e-06 7.6635681e-26 1.4899407e-43)
(6.7536413e-05 3.2649391e-06 9.4195138e-25 1.3525286e-06 -8.215674e-26 1.7240672e-43)
(5.831915e-05 2.6030509e-06 -2.9917087e-25 1.1336788e-06 -2.8254594e-26 1.2568195e-43)
(5.0498381e-05 2.042136e-06 -9.4406104e-25 9.4121455e-07 1.0265646e-25 4.6181756e-44)
(4.3860974e-05 1.5935637e-06 4.2222515e-27 7.7555209e-07 -3.1721677e-27 2.4269989e-45)
(3.8255377e-05 1.2402711e-06 -4.0582816e-24 6.202402e-07 1.6453503e-25 7.2170434e-43)
(3.3541227e-05 9.9362959e-07 -3.9714698e-24 4.7646705e-07 5.7344509e-26 6.9920901e-43)
(2.9645008e-05 7.5577954e-07 -1.296385e-24 3.3130127e-07 5.8050432e-26 1.2073591e-43)
(2.6631033e-05 6.2353881e-07 -3.567112e-24 2.0109703e-07 9.1715972e-26 8.8434059e-43)
(2.4693942e-05 3.4813005e-07 -2.3207105e-24 8.1619762e-08 4.1306093e-26 4.2022306e-43)
(2.4697768e-05 2.4364333e-07 2.1516523e-24 1.2698412e-08 -1.401145e-26 6.2971816e-43)
(0.00013427513 6.6648783e-06 2.3579826e-24 2.8758472e-06 -1.8383593e-24 2.0978301e-42)
(0.0001194014 6.6439222e-06 -1.9579643e-24 2.5300768e-06 -5.7325555e-25 9.4057284e-43)
(0.00010358334 5.7013137e-06 2.2719733e-25 2.1692867e-06 -2.9371612e-25 7.4801276e-44)
(8.9566464e-05 4.9111002e-06 3.4907063e-26 1.8640771e-06 3.7628029e-26 5.1275662e-45)
(7.720829e-05 4.0540956e-06 -2.3815152e-26 1.5860899e-06 -2.8918775e-26 4.9772738e-45)
(6.6625378e-05 3.2680555e-06 3.9977247e-25 1.3486797e-06 7.5907394e-26 2.2258851e-43)
(5.7638923e-05 2.5877869e-06 -8.995412e-25 1.1430023e-06 1.2087591e-25 4.454695e-44)
(4.9997957e-05 2.0199534e-06 1.3255505e-24 9.6864223e-07 -1.2059019e-25 7.8362116e-44)
(4.3516533e-05 1.5902403e-06 1.4485837e-27 8.1003157e-07 4.1457373e-26 1.0286394e-43)
(3.7996154e-05 1.2525915e-06 4.5951366e-25 6.6018004e-07 -2.5784012e-30 1.4032484e-44)
(3.3331406e-05 1.0276793e-06 8.729445e-26 5.1218397e-07 -4.5200552e-27 4.5467878e-46)
(2.9433942e-05 7.975091e-07 8.2715553e-25 3.5948159e-07 7.9774201e-26 1.3339459e-43)
(2.639416e-05 6.6952096e-07 4.4503377e-24 2.1897339e-07 -1.9108428e-25 2.0534392e-42)
(2.4411822e-05 3.7895337e-07 -1.8871677e-24 8.8898982e-08 7.7012237e-26 5.8830147e-43)
(2.4342363e-05 2.6315768e-07 1.4599302e-24 1.3901666e-08 -1.5813779e-26 4.2354195e-43)
(0.00014829285 7.4548213e-06 7.9079032e-24 3.2551197e-06 6.0909144e-25 5.3001904e-43)
(0.00013491176 7.7819878e-06 1.1912297e-24 2.8785731e-06 -1.541604e-25 1.4773432e-43)
(0.00011785917 6.7681315e-06 1.3818923e-25 2.472784e-06 -1.7156015e-25 1.6762414e-43)
(0.00010227083 5.9412171e-06 6.227956e-25 2.1387267e-06 -4.6107767e-26 1.5590477e-43)
(8.8194837e-05 4.9712486e-06 -8.9544429e-25 1.8345886e-06 6.7420238e-26 1.8207055e-43)
(7.6065964e-05 4.0531022e-06 2.3735907e-24 1.5761836e-06 -4.7218219e-25 4.5781203e-43)
(6.5756688e-05 3.2346436e-06 -2.9000203e-24 1.3544931e-06 2.0563344e-25 1.3154306e-42)
(5.6997078e-05 2.5361862e-06 9.0523822e-26 1.1717962e-06 -3.7835023e-27 1.1220409e-44)
(4.956526e-05 1.9876666e-06 1.0866399e-24 1.0085495e-06 -9.1322016e-26 5.4908596e-44)
(4.3219478e-05 1.5769704e-06 1.5048718e-25 8.6085347e-07 1.8421944e-25 8.4657665e-43)
(3.7781604e-05 1.269851e-06 1.064564e-23 7.0920545e-07 -6.2822268e-25 5.652367e-42)
(3.3141374e-05 1.066366e-06 -2.1314717e-24 5.5602461e-07 3.5016958e-25 1.383786e-42)
(2.9231763e-05 8.4852545e-07 -1.6237179e-24 3.9167185e-07 1.001735e-25 2.4352677e-43)
(2.615322e-05 7.2161499e-07 -9.7703518e-25 2.3924253e-07 -1.2115819e-26 4.0724313e-44)
(2.4116951e-05 4.1465452e-07 -5.7784445e-25 9.694566e-08 -3.1192158e-26 4.0001751e-44)
(2.3968148e-05 2.8351532e-07 -1.6240179e-24 1.5219637e-08 1.7535275e-26 5.298854e-43)
(0.00015992229 8.1427412e-06 0 3.6674685e-06 0 0)
(0.0001506975 8.9643582e-06 2.4257311e-24 3.2632828e-06 5.3852099e-25 4.2844444e-43)
(0.00013335253 7.9217814e-06 -4.1933675e-26 2.8015957e-06 6.3471816e-25 2.1772138e-43)
(0.00011652067 7.1043876e-06 0 2.4348529e-06 0 0)
(0.00010064697 6.0263033e-06 0 2.0999078e-06 0 0)
(8.6786957e-05 4.9711338e-06 0 1.8168022e-06 0 0)
(7.496313e-05 4.0011114e-06 1.2470504e-25 1.5763995e-06 4.2107038e-26 2.7407688e-44)
(6.4927752e-05 3.1476354e-06 -2.3028794e-24 1.3824853e-06 3.0330589e-25 2.4822161e-43)
(5.6440336e-05 2.4659989e-06 1.2235485e-24 1.2155814e-06 -1.5757963e-25 1.9551332e-42)
(4.9203615e-05 1.9354637e-06 -3.3968472e-24 1.0695495e-06 2.5325812e-25 4.4334969e-43)
(4.2985057e-05 1.5656678e-06 -1.3185807e-25 9.2383757e-07 -8.805602e-26 1.0647134e-43)
(3.760985e-05 1.2902549e-06 -2.5045792e-24 7.7003963e-07 1.223179e-25 2.6402399e-43)
(3.2974252e-05 1.1163792e-06 -5.3861458e-26 6.0613627e-07 -5.9570218e-26 2.8567973e-44)
(2.9035844e-05 9.0837631e-07 2.0196722e-24 4.2823054e-07 -1.0256032e-25 3.0348907e-43)
(2.5902823e-05 7.8172867e-07 8.3693942e-25 2.6156867e-07 2.888544e-26 3.199606e-44)
(2.3809094e-05 4.5479441e-07 9.3423099e-25 1.0577631e-07 -4.1001e-26 1.449519e-43)
(2.3576404e-05 3.046553e-07 0 1.6649384e-08 0 0)
(0.00016645117 8.6615625e-06 1.2590075e-23 4.1119205e-06 -1.8276601e-25 1.4483896e-42)
(0.00016513739 1.0107032e-05 -3.3047366e-24 3.6862477e-06 -2.1721338e-25 5.385429e-43)
(0.00014937522 9.1221832e-06 -1.4802715e-24 3.1578788e-06 6.6746318e-25 2.0809107e-42)
(0.00013220906 8.3925952e-06 1.4802721e-24 2.7556121e-06 7.8737575e-25 1.0578356e-42)
(0.00011468136 7.2237459e-06 1.3754125e-24 2.3845875e-06 3.3117665e-25 7.8461436e-43)
(9.8956971e-05 6.0352916e-06 0 2.0723829e-06 0 0)
(8.5406422e-05 4.9013803e-06 2.3018227e-24 1.8090564e-06 1.8242317e-25 1.5219663e-42)
(7.3896405e-05 3.874051e-06 -6.1549473e-25 1.6010484e-06 -5.9735656e-26 2.7970655e-43)
(6.4202588e-05 3.0303176e-06 -5.6049503e-24 1.4279772e-06 5.4722357e-25 2.9543826e-42)
(5.5977827e-05 2.362426e-06 1.4929909e-24 1.2855229e-06 -3.5735206e-25 3.228458e-42)
(4.8926489e-05 1.8800658e-06 2.1989201e-24 1.1462501e-06 -1.4716883e-25 1.6551452e-43)
(4.2822329e-05 1.5536951e-06 -2.992748e-25 1.0030338e-06 -1.3732986e-25 1.6221732e-43)
(3.747883e-05 1.3226926e-06 -4.7854604e-24 8.3975521e-07 4.9320416e-25 1.9320617e-42)
(3.2829564e-05 1.1773003e-06 8.0526416e-24 6.6309318e-07 -3.7054391e-25 3.3402151e-42)
(2.883975e-05 9.8063432e-07 2.7489404e-24 4.6840455e-07 1.0692369e-25 3.1583852e-43)
(2.5644476e-05 8.4951358e-07 7.3774625e-24 2.8595969e-07 -4.7533878e-25 7.6527547e-42)
(2.3484071e-05 4.9954475e-07 2.8109228e-24 1.1533963e-07 -9.1440508e-26 9.8028811e-43)
(2.3164824e-05 3.2642679e-07 1.7546452e-24 1.8189464e-08 -2.7913492e-26 8.8636241e-43)
(0.00016474849 8.9797274e-06 -1.7237888e-24 4.5855366e-06 -1.0479431e-25 1.9912473e-44)
(0.00017562113 1.1084137e-05 -2.9969518e-24 4.1448222e-06 -6.5412649e-25 3.0732532e-43)
(0.00016448652 1.0294159e-05 4.9366349e-25 3.5410631e-06 3.202185e-25 3.7157835e-44)
(0.0001488375 9.7714438e-06 1.4321727e-24 3.1037362e-06 4.3634589e-25 6.7756906e-43)
(0.00013027523 8.556574e-06 -2.24471e-25 2.6913647e-06 -7.5272175e-26 1.6912821e-44)
(0.00011273232 7.2542596e-06 1.5394154e-25 2.3453329e-06 -6.0796325e-25 2.5026666e-43)
(9.7266063e-05 5.9506543e-06 -2.8621207e-24 2.0541292e-06 -1.1457239e-24 4.949743e-42)
(8.40483e-05 4.731335e-06 -5.719816e-24 1.827451e-06 -1.5592566e-25 7.0256436e-42)
(7.2950935e-05 3.7013342e-06 -2.036616e-24 1.6455461e-06 9.2257887e-26 1.0104828e-42)
(6.3593271e-05 2.8624229e-06 3.2671258e-24 1.5048518e-06 -3.0700567e-25 3.9094431e-43)
(5.5626361e-05 2.2474201e-06 -2.9634492e-25 1.3752483e-06 1.1911053e-25 1.750508e-43)
(4.8754853e-05 1.8168844e-06 5.7963977e-24 1.2443535e-06 -4.4970502e-25 1.2680808e-42)
(4.2723609e-05 1.552516e-06 -1.7964745e-24 1.0942754e-06 4.7773978e-25 1.0764682e-42)
(3.7395523e-05 1.3679952e-06 -7.451049e-25 9.1934879e-07 -8.8364882e-26 5.4443746e-44)
(3.2698932e-05 1.254793e-06 -1.4030873e-24 7.2555556e-07 -1.2340649e-25 1.2246958e-43)
(2.8644151e-05 1.0653298e-06 -1.4486537e-24 5.1216281e-07 1.10094e-25 2.1188138e-43)
(2.5371036e-05 9.2553367e-07 2.3634872e-24 3.1229043e-07 -1.7601394e-25 8.9277398e-43)
(2.3141361e-05 5.4881135e-07 2.2637124e-25 1.2561475e-07 2.5240145e-26 1.3607643e-44)
(2.2733422e-05 3.4856052e-07 1.2245903e-24 1.9837668e-08 -3.6143006e-26 8.356966e-43)
(0.00015229863 9.1603772e-06 -1.2765564e-23 5.0846692e-06 -1.0071223e-24 1.1684442e-42)
(0.00017873646 1.1758757e-05 3.2256505e-24 4.6313753e-06 6.9348815e-25 3.4440118e-43)
(0.00017625388 1.1317286e-05 4.8288725e-24 3.9472841e-06 -2.7820354e-25 5.3171465e-42)
(0.00016520482 1.1160066e-05 -1.4644022e-24 3.479697e-06 -5.9449994e-25 3.1507513e-43)
(0.00014707136 9.9956605e-06 1.7397118e-25 3.0219377e-06 -2.3285939e-25 5.0449002e-44)
(0.00012817049 8.6267618e-06 -1.6635025e-25 2.638346e-06 -3.1417389e-25 5.4885732e-44)
(0.00011072717 7.1604206e-06 6.6979433e-25 2.3136874e-06 1.0506137e-25 7.4569135e-44)
(9.5568507e-05 5.7372532e-06 2.2587107e-24 2.0629921e-06 -4.1302524e-25 3.0861879e-43)
(8.2826392e-05 4.4959903e-06 -1.0196847e-24 1.8676488e-06 1.365688e-26 1.8394189e-43)
(7.2139835e-05 3.4569296e-06 -7.3576891e-24 1.7266211e-06 7.2306198e-25 5.8391354e-42)
(6.312546e-05 2.671148e-06 7.0758628e-24 1.6061914e-06 -6.4898385e-25 1.5408241e-42)
(5.5417803e-05 2.1137129e-06 -1.0885771e-24 1.4923716e-06 -4.2552418e-26 1.2652838e-43)
(4.867757e-05 1.7609814e-06 -2.9520169e-24 1.3584935e-06 1.0448468e-25 2.3617815e-43)
(4.2705663e-05 1.5643073e-06 2.7106412e-25 1.1989938e-06 1.9993303e-27 2.2023961e-45)
(3.73456e-05 1.4332767e-06 -9.2669177e-25 1.0063687e-06 -1.6071831e-25 1.1458856e-43)
(3.2583221e-05 1.3495102e-06 -5.860576e-24 7.9342113e-07 5.2153756e-25 2.8061689e-42)
(2.8439589e-05 1.1642612e-06 -1.2528099e-25 5.5917717e-07 -2.9376426e-25 4.7231347e-43)
(2.5080265e-05 1.0092791e-06 -4.3599437e-24 3.4054589e-07 2.394138e-25 2.2895934e-42)
(2.2779452e-05 6.0223594e-07 -9.8653662e-25 1.3660178e-07 3.5603419e-26 1.3662447e-43)
(2.2282087e-05 3.7074489e-07 -1.131844e-24 2.1589391e-08 4.0288505e-26 9.0516963e-43)
(0.00012875575 9.4182523e-06 -2.7123024e-25 5.6055686e-06 3.2462799e-25 3.1434568e-44)
(0.00017110278 1.2054476e-05 6.1604614e-24 5.136597e-06 1.7103095e-24 1.208525e-42)
(0.00018132123 1.2052298e-05 1.3122251e-24 4.3680131e-06 1.2785413e-24 5.8254892e-43)
(0.00017909479 1.2426642e-05 1.8651528e-24 3.8782041e-06 4.8682713e-25 5.2530881e-43)
(0.00016407883 1.1471337e-05 -1.3463219e-24 3.3750357e-06 -7.1018186e-25 2.4497581e-43)
(0.00014505823 1.0130447e-05 -1.8868471e-24 2.9531985e-06 -2.6693054e-25 3.6879239e-43)
(0.00012591123 8.5335501e-06 6.2648392e-24 2.590196e-06 9.4507307e-25 4.2394302e-42)
(0.00010866484 6.9061883e-06 1.2052613e-23 2.3094587e-06 1.1522593e-24 1.7321857e-41)
(9.4015969e-05 5.43341e-06 -2.2196122e-24 2.0950216e-06 7.1435665e-25 6.4348719e-43)
(8.1751148e-05 4.164008e-06 0 1.9494402e-06 0 0)
(7.150335e-05 3.1728901e-06 -4.7211018e-24 1.8373837e-06 4.9185114e-25 6.5574239e-43)
(6.2840383e-05 2.4460812e-06 1.5439137e-24 1.7417964e-06 -4.9387957e-25 1.7090615e-42)
(5.5340859e-05 1.9806016e-06 6.683054e-24 1.6305997e-06 -8.1753265e-25 2.2530226e-42)
(4.872143e-05 1.7150422e-06 -3.2472363e-24 1.4903945e-06 9.1438356e-25 2.5095771e-42)
(4.2748394e-05 1.5982818e-06 3.5223013e-24 1.313548e-06 -1.1409823e-25 3.5849593e-43)
(3.7334677e-05 1.5217717e-06 -6.0458617e-24 1.1008431e-06 4.6792446e-25 1.9060144e-42)
(3.2470414e-05 1.4649718e-06 -1.9613787e-24 8.659902e-07 -2.5111308e-25 2.6880215e-43)
(2.8225296e-05 1.2771584e-06 9.9444042e-25 6.0940836e-07 -2.4864665e-25 4.3622274e-43)
(2.476964e-05 1.100309e-06 -1.7792317e-24 3.7070125e-07 2.3941493e-25 9.8913836e-43)
(2.2397298e-05 6.5912359e-07 -4.529149e-25 1.4830488e-07 -1.218715e-26 9.5412391e-45)
(2.18116e-05 3.9263004e-07 -7.2235722e-25 2.3437283e-08 4.6534315e-26 8.4167849e-43)
(9.7490546e-05 1.0135383e-05 1.4709568e-23 6.1432032e-06 3.5981992e-24 3.1100194e-42)
(0.00015091744 1.2055713e-05 4.6671682e-24 5.6543694e-06 1.611822e-24 9.2833528e-43)
(0.00017610155 1.2397944e-05 -1.5544808e-24 4.7934732e-06 -6.5446697e-26 8.881895e-43)
(0.00018721038 1.3392661e-05 -2.5253269e-24 4.2886886e-06 -3.7447913e-25 1.3723777e-42)
(0.0001793319 1.2852704e-05 -3.5623001e-24 3.744652e-06 -8.282915e-25 1.2205461e-42)
(0.00016262629 1.1701731e-05 -4.2195588e-25 3.28877e-06 -3.414034e-25 4.2713565e-44)
(0.00014272567 1.0052682e-05 0 2.8853919e-06 0 0)
(0.00012351389 8.2456263e-06 -2.1647967e-25 2.5690705e-06 -9.0354802e-25 5.6229587e-43)
(0.00010674205 6.5301731e-06 -3.2951003e-24 2.3288898e-06 -5.2864161e-25 1.852164e-42)
(9.2611609e-05 5.0042799e-06 -9.218087e-24 2.1732739e-06 8.0095339e-25 4.4197021e-42)
(8.088452e-05 3.7711516e-06 -1.0485502e-24 2.0665061e-06 1.6200563e-25 2.6260212e-43)
(7.1090346e-05 2.8356052e-06 1.6778577e-24 1.9901497e-06 -2.8990737e-25 4.895272e-43)
(6.2730815e-05 2.2107715e-06 -2.1872987e-25 1.9049184e-06 1.1199574e-25 5.6052739e-44)
(5.5432816e-05 1.8505256e-06 -3.0202884e-24 1.7919404e-06 1.9978093e-25 2.3014924e-43)
(4.8863116e-05 1.6916734e-06 3.368688e-24 1.6353158e-06 -5.7150122e-25 8.9079347e-43)
(4.2863387e-05 1.6603362e-06 -2.7964376e-24 1.4376281e-06 4.9276805e-25 7.5673516e-43)
(3.7344723e-05 1.6380101e-06 8.4370693e-25 1.2010625e-06 -5.3368709e-26 3.2070338e-44)
(3.2358095e-05 1.601937e-06 -4.015809e-24 9.4312991e-07 3.3228888e-25 1.1959399e-42)
(2.7992955e-05 1.4039718e-06 -1.8897745e-24 6.6283946e-07 -1.4661891e-25 1.5305831e-43)
(2.4436894e-05 1.1977812e-06 -3.6324363e-25 4.0275577e-07 -2.7931676e-26 6.5757677e-45)
(2.199468e-05 7.1856672e-07 -6.1405341e-25 1.6072358e-07 8.9003941e-26 2.7790917e-43)
(2.1322928e-05 4.1384269e-07 0 2.5370602e-08 0 0)
(6.6353122e-05 1.1804375e-05 5.4167587e-24 6.6878329e-06 2.2453835e-24 8.1595284e-43)
(0.00011982362 1.20881e-05 -2.2323569e-24 6.1854436e-06 -9.8816873e-25 3.1211457e-43)
(0.00015820261 1.2383166e-05 -4.3572966e-25 5.2171811e-06 -2.1700584e-25 1.0790205e-44)
(0.00018565922 1.3888426e-05 -6.0592026e-24 4.6976557e-06 -1.3938384e-24 2.1827087e-42)
(0.00018970019 1.3951674e-05 -4.5105387e-24 4.1185439e-06 -1.1638415e-24 1.0081634e-42)
(0.00017917985 1.3213641e-05 2.4929336e-24 3.6386889e-06 3.3544362e-25 3.2271083e-43)
(0.00016059905 1.1662466e-05 1.8211983e-24 3.1981137e-06 1.0506265e-24 4.5138474e-43)
(0.00014013462 9.745123e-06 8.7291124e-24 2.8434601e-06 5.8257484e-25 3.8940032e-42)
(0.00012122237 7.7973569e-06 2.2632431e-24 2.5710527e-06 -1.7654172e-25 2.3273858e-43)
(0.00010495201 5.9966072e-06 8.2303766e-25 2.3986074e-06 1.8490318e-26 6.1407987e-44)
(9.1447615e-05 4.4874284e-06 -1.7147e-25 2.2924829e-06 5.3347857e-27 5.0446128e-45)
(8.0280749e-05 3.3010596e-06 -4.3010542e-24 2.2341462e-06 5.9744458e-25 2.8556389e-42)
(7.0902447e-05 2.4723459e-06 8.1657714e-25 2.1783709e-06 -8.2202601e-26 1.6547719e-44)
(6.2844766e-05 1.9668631e-06 -3.5360481e-24 2.0979743e-06 -6.5470747e-25 2.9480809e-42)
(5.5669863e-05 1.7401352e-06 -8.0650517e-24 1.9706417e-06 4.3013765e-25 1.4904979e-42)
(4.9120564e-05 1.6989922e-06 -7.2432263e-24 1.7920816e-06 5.9537675e-25 1.6835957e-42)
(4.3027166e-05 1.7574399e-06 1.319886e-24 1.5685771e-06 1.3126446e-25 7.48199e-44)
(3.7374738e-05 1.785712e-06 8.5837373e-24 1.3070522e-06 -7.1212294e-25 3.9303768e-42)
(3.2234558e-05 1.7614484e-06 -7.6716876e-26 1.0247306e-06 -9.0679153e-26 2.1346931e-44)
(2.7738764e-05 1.543731e-06 -1.5986369e-24 7.1954972e-07 1.7289353e-25 3.5667028e-43)
(2.4080233e-05 1.300383e-06 0 4.3671287e-07 0 0)
(2.1571874e-05 7.7949575e-07 9.5036905e-25 1.7384353e-07 -2.2141509e-25 1.4110072e-42)
(2.0818155e-05 4.3401767e-07 1.3705348e-25 2.7375132e-08 3.4753136e-27 9.5036597e-46)
(4.7029449e-05 1.4900006e-05 -2.2611563e-23 7.2204568e-06 -9.5731762e-24 1.3296352e-41)
(8.430787e-05 1.2721634e-05 -8.6379888e-25 6.735285e-06 -1.734331e-24 1.7199575e-42)
(0.00012834235 1.2249312e-05 4.8043263e-25 5.6381353e-06 -5.6351084e-25 6.0160172e-43)
(0.00017125248 1.3854212e-05 4.0575059e-25 5.0945008e-06 -1.3299645e-25 1.9644902e-43)
(0.00019119617 1.4562627e-05 -5.6241681e-24 4.4813681e-06 -6.8971649e-25 1.7245042e-42)
(0.00019181086 1.4464283e-05 0 3.9907872e-06 0 0)
(0.00017810638 1.3244074e-05 6.3643446e-25 3.5219333e-06 2.6476309e-25 2.4380245e-44)
(0.00015814651 1.1357929e-05 2.2099818e-24 3.1318851e-06 -2.927555e-25 2.9120586e-43)
(0.00013756622 9.2305122e-06 7.7519813e-24 2.8230542e-06 5.0951903e-25 2.6460152e-42)
(0.00011902202 7.1554733e-06 1.0386353e-23 2.6265616e-06 7.6887548e-25 7.8190566e-42)
(0.00010342597 5.3421389e-06 -5.0813989e-24 2.5147199e-06 5.6898023e-25 8.2466434e-43)
(9.0581153e-05 3.8648594e-06 -5.1414594e-24 2.4715237e-06 5.6333186e-25 1.3763615e-42)
(7.9955755e-05 2.7837222e-06 6.2808334e-24 2.446794e-06 -8.9621328e-25 1.9935898e-42)
(7.099836e-05 2.0835663e-06 -6.9908647e-24 2.4051941e-06 7.8799096e-25 1.2527567e-42)
(6.316131e-05 1.7351955e-06 1.0870296e-23 2.3144223e-06 -1.3191142e-24 3.6384144e-42)
(5.6077486e-05 1.6595092e-06 1.6592153e-23 2.1642963e-06 -1.1018767e-24 6.4208592e-42)
(4.9466812e-05 1.747842e-06 -9.2034388e-26 1.9569102e-06 1.0834885e-24 1.8814254e-42)
(4.3240426e-05 1.8964041e-06 3.9959094e-24 1.7058383e-06 -3.3854619e-25 6.4690443e-43)
(3.7406921e-05 1.9668016e-06 -8.1707424e-24 1.4180584e-06 1.1986179e-24 5.9577324e-42)
(3.2094423e-05 1.9430707e-06 -2.6008471e-25 1.1109791e-06 -6.3184232e-25 9.6536629e-43)
(2.7457815e-05 1.6948588e-06 2.5104836e-24 7.7964856e-07 -4.8880979e-25 1.7692098e-42)
(2.3698665e-05 1.4064172e-06 -6.7542269e-25 4.7254626e-07 4.3033625e-25 1.6141624e-42)
(2.1129677e-05 8.4072732e-07 -2.7086539e-25 1.8762916e-07 -2.1057187e-25 7.8917943e-43)
(2.0299462e-05 4.5277099e-07 1.0556337e-25 2.9430634e-08 2.8449015e-27 5.7432392e-46)
(5.2954095e-05 1.9723323e-05 -9.0527747e-24 7.7083249e-06 -3.4271594e-24 1.6548284e-42)
(5.5765218e-05 1.4656666e-05 -3.1364899e-24 7.3051169e-06 -2.0487338e-24 1.5438201e-42)
(9.2014593e-05 1.2472101e-05 -3.1995196e-24 6.0579361e-06 -1.0188949e-24 2.4248089e-43)
(0.00014348619 1.3456132e-05 -1.3680302e-23 5.477815e-06 -2.3177191e-24 7.4555965e-42)
(0.0001800911 1.4562302e-05 2.8081816e-24 4.8202614e-06 4.6685053e-26 4.8085183e-43)
(0.00019652318 1.5218883e-05 -1.0049968e-23 4.3272128e-06 -1.0047044e-24 2.8941481e-42)
(0.00019260757 1.4599846e-05 8.1728691e-25 3.843581e-06 2.7232662e-25 2.2379347e-44)
(0.00017639975 1.2976188e-05 -1.3268409e-23 3.4284523e-06 -1.0286954e-24 4.7783455e-42)
(0.00015556021 1.079257e-05 1.0705958e-24 3.0844484e-06 -4.2404187e-25 1.3582216e-43)
(0.0001350079 8.4820277e-06 4.6882979e-24 2.8582157e-06 4.6865184e-26 7.7549034e-43)
(0.00011709065 6.3523876e-06 -2.6789844e-24 2.7333146e-06 5.8687431e-25 3.1620092e-43)
(0.00010222231 4.5488049e-06 9.8088946e-24 2.7003651e-06 -7.4907494e-25 5.5118041e-42)
(9.0048572e-05 3.1677275e-06 -4.3488421e-24 2.7066717e-06 5.3429535e-25 4.4053368e-43)
(7.9978788e-05 2.2182257e-06 -4.0897223e-25 2.7089018e-06 1.0252803e-25 2.9522175e-44)
(7.1364055e-05 1.6938939e-06 7.6359049e-24 2.6637437e-06 -3.8901635e-25 1.2183206e-42)
(6.371492e-05 1.5274716e-06 1.4268981e-24 2.5503895e-06 -2.5799253e-25 9.9403377e-44)
(5.6627568e-05 1.6242749e-06 -2.9031039e-25 2.3676793e-06 2.1473268e-25 6.3101091e-44)
(4.9904749e-05 1.8485176e-06 7.4305182e-24 2.1280206e-06 -6.6610428e-25 1.7732718e-42)
(4.3479359e-05 2.0818457e-06 0 1.8481475e-06 0 0)
(3.7434146e-05 2.1832387e-06 1.3014502e-24 1.5346646e-06 -6.9711234e-27 5.3550204e-44)
(3.1927728e-05 2.14542e-06 2.9533891e-25 1.2021451e-06 -2.9009273e-27 3.7580633e-45)
(2.7146868e-05 1.8551725e-06 -3.9899205e-25 8.4322074e-07 1.1738837e-26 1.1305394e-44)
(2.3291951e-05 1.5138772e-06 -5.9260297e-25 5.1016563e-07 -8.7078414e-26 3.0714898e-44)
(2.0669941e-05 9.0100772e-07 -3.5271066e-26 2.0200852e-07 2.6616492e-25 1.3974004e-42)
(1.9769661e-05 4.697345e-07 4.911876e-25 3.151e-08 5.5692824e-26 3.9800836e-43)
(9.6450459e-05 2.629585e-05 3.3880187e-23 8.1106607e-06 9.5413677e-24 1.2034983e-41)
(4.8839173e-05 1.8515264e-05 4.0969292e-24 7.876172e-06 1.6033883e-24 5.9349524e-43)
(5.9970858e-05 1.3682445e-05 1.1742827e-24 6.4766383e-06 -2.2827832e-26 6.7905352e-44)
(0.00010651923 1.314298e-05 1.6611432e-24 5.8554879e-06 2.6349254e-25 8.5921671e-44)
(0.00015485038 1.403178e-05 1.5626014e-23 5.1325756e-06 1.5370395e-24 5.504123e-42)
(0.00018913875 1.5290857e-05 3.7039831e-24 4.6320883e-06 7.2470942e-25 1.8901431e-43)
(0.00020020855 1.5471808e-05 1.0828171e-24 4.1446026e-06 3.0725836e-25 2.5379471e-44)
(0.00019256264 1.4407927e-05 8.9363057e-25 3.7202338e-06 5.5285325e-26 1.6949591e-44)
(0.00017431418 1.2388045e-05 1.1984137e-23 3.3501718e-06 6.8577845e-25 3.2397487e-42)
(0.00015284818 9.948233e-06 9.0476608e-25 3.0932163e-06 6.1423205e-25 2.1975345e-43)
(0.00013268766 7.524075e-06 6.2942291e-24 2.9485798e-06 -2.6362892e-25 1.1295875e-42)
(0.00011548825 5.3722429e-06 -1.3773083e-24 2.9193672e-06 4.6440375e-26 9.8279052e-44)
(0.00010140453 3.6470688e-06 -5.1841055e-24 2.9545169e-06 5.6451778e-25 1.4855912e-42)
(8.9929622e-05 2.3938247e-06 1.7477589e-24 3.0045247e-06 -1.8167467e-25 6.5351898e-44)
(8.0347247e-05 1.6320589e-06 -1.3175144e-24 3.0139794e-06 4.5457434e-25 4.1882368e-43)
(7.2044551e-05 1.3161424e-06 -1.2003243e-23 2.9486634e-06 5.1734085e-25 2.8206777e-42)
(6.4479422e-05 1.364578e-06 -1.7439394e-23 2.7989132e-06 -6.1123477e-25 8.4998614e-42)
(5.7326567e-05 1.648708e-06 -1.2169974e-23 2.5771007e-06 1.1789627e-24 3.9029859e-42)
(5.0405561e-05 2.0099845e-06 -1.5604775e-23 2.3032375e-06 1.38199e-24 7.6686206e-42)
(4.3734751e-05 2.3186185e-06 -3.59537e-25 1.9958837e-06 -3.9296874e-26 4.2429642e-45)