/*--------------------------------*- C++ -*----------------------------------*\
| =========                 |                                                 |
| \\      /  F ield         | OpenFOAM: The Open Source CFD Toolbox           |
|  \\    /   O peration     | Version:  5.0                                   |
|   \\  /    A nd           | Web:      www.OpenFOAM.org                      |
|    \\/     M anipulation  |                                                 |
\*---------------------------------------------------------------------------*/
FoamFile
{
    version     2.0;
    format      ascii;
    class       volScalarField;
    location    "40";
    object      ddt0(nuTilda);
}
// * * * * * * * * * * * * * * * * * * * * * * * * * * * * * * * * * * * * * //

dimensions      [0 2 -2 0 0 0 0];

internalField   nonuniform List<scalar> 
9520
(
2.7964542e-33
3.1283051e-31
3.7122933e-33
1.7115896e-29
4.1285805e-31
4.7519268e-33
6.0741924e-28
2.2452561e-29
5.2525685e-31
5.8623962e-33
1.5715016e-26
7.9195375e-28
2.8385491e-29
6.4380067e-31
6.9651442e-33
3.1604187e-25
2.0363311e-26
9.948447e-28
3.4559664e-29
7.5954423e-31
7.962552e-33
5.1456112e-24
4.0698728e-25
2.5415403e-26
1.2030573e-27
4.0480194e-29
8.6166226e-31
8.7505673e-33
6.9754441e-23
6.5850614e-24
5.0465353e-25
3.0524489e-26
1.3989409e-27
4.55634e-29
9.3893985e-31
9.2352529e-33
8.0363263e-22
8.8708275e-23
8.1116747e-24
6.0190495e-25
3.5234048e-26
1.5621939e-27
4.9221586e-29
9.8167012e-31
9.3490446e-33
7.9929182e-21
1.0155542e-21
1.0854926e-22
9.6071169e-24
6.8960746e-25
3.9032015e-26
1.6729459e-27
5.0968198e-29
9.834075e-31
9.0620376e-33
6.9481244e-20
1.0036574e-20
1.2344058e-21
1.2764982e-22
1.0924004e-23
7.5776171e-25
4.1431475e-26
1.7154911e-27
5.050914e-29
9.4201818e-31
8.3854735e-33
5.333017e-19
8.6685175e-20
1.2117467e-20
1.4412402e-21
1.4403638e-22
1.1904894e-23
7.971603e-25
4.206603e-26
1.6813359e-27
4.7789449e-29
8.5982404e-31
7.3672874e-33
3.6450323e-18
6.6101093e-19
1.0394512e-19
1.4045847e-20
1.6136669e-21
1.5565373e-22
1.2409789e-23
8.0122569e-25
4.0763081e-26
1.5705226e-27
4.2989188e-29
7.4286534e-31
6.0820383e-33
2.234542e-17
4.4880264e-18
7.8715634e-19
1.1960659e-19
1.5603102e-20
1.7289842e-21
1.6074046e-22
1.2344263e-23
7.6738171e-25
3.7570448e-26
1.3911261e-27
3.6471099e-29
5.9968117e-31
4.6187272e-33
1.2363342e-16
2.7328748e-17
5.307115e-18
8.9904174e-19
1.3181111e-19
1.6573481e-20
1.7684645e-21
1.5818557e-22
1.1680216e-23
6.9743938e-25
3.2735639e-26
1.1570121e-27
2.870959e-29
4.3999137e-31
3.0694864e-33
6.2077033e-16
1.5017607e-16
3.2087e-17
6.0158139e-18
9.8276881e-19
1.3877417e-19
1.67861e-20
1.7211999e-21
1.4778778e-22
1.0459734e-23
5.9705064e-25
2.6639351e-26
8.8517445e-28
2.0221388e-29
2.7358232e-31
1.5206779e-33
2.8424689e-15
7.4883781e-16
1.7505212e-16
3.6093173e-17
6.5218933e-18
1.0253616e-18
1.3914358e-19
1.615072e-20
1.5868237e-21
1.3027551e-22
8.7844087e-24
4.7423593e-25
1.9723147e-26
5.933606e-28
1.1512615e-29
1.0945951e-31
4.6464516e-35
1.1922923e-14
3.4048243e-15
8.6648366e-16
1.9537157e-16
3.8800487e-17
6.741727e-18
1.0174549e-18
1.3228884e-19
1.4682162e-20
1.3753862e-21
1.0714038e-22
6.7896414e-24
3.3787361e-25
1.2429736e-26
2.9846995e-28
3.0397791e-30
-4.4797852e-32
-1.2957157e-33
4.5998306e-14
1.4179932e-14
3.9103964e-15
9.5936764e-16
2.0822127e-16
3.9728011e-17
6.6181445e-18
9.5535103e-19
1.1848992e-19
1.2495679e-20
1.1052157e-21
8.0270161e-23
4.619305e-24
1.9652087e-25
5.1681554e-27
1.5414257e-29
-4.822128e-30
-1.8351139e-31
-2.4680622e-33
1.6386425e-13
5.4311704e-14
1.6162241e-14
4.2944939e-15
1.0134752e-15
2.1111835e-16
3.856643e-17
6.1333517e-18
8.4228267e-19
9.8869626e-20
9.783741e-21
7.985332e-22
5.1597008e-23
2.4068035e-24
5.7832057e-26
-1.7096113e-27
-2.4390537e-28
-1.1803468e-29
-3.0320736e-31
-3.453488e-33
5.4093064e-13
1.9206249e-13
6.1428706e-14
1.7603171e-14
4.4958677e-15
1.0172371e-15
2.0257323e-16
3.5249988e-17
5.316292e-18
6.8772059e-19
7.5179426e-20
6.7711014e-21
4.7731015e-22
2.2843016e-23
2.6730255e-25
-7.1791983e-26
-7.932134e-27
-4.7134757e-28
-1.7754684e-29
-4.0267534e-31
-4.2543505e-33
1.6606389e-12
6.2932779e-13
2.1553975e-13
6.6342753e-14
1.8258525e-14
4.4656904e-15
9.6424805e-16
1.8244567e-16
2.9994886e-17
4.2371897e-18
5.0566653e-19
4.9395944e-20
3.6723785e-21
1.6035864e-22
-4.564125e-24
-1.7060766e-24
-1.8762171e-25
-1.3324915e-26
-6.6296627e-28
-2.2645409e-29
-4.8274151e-31
-4.8885855e-33
4.755778e-12
1.9175211e-12
7.0067088e-13
2.3079339e-13
6.8161132e-14
1.7940918e-14
4.1793029e-15
8.5484408e-16
1.5213304e-16
2.3264657e-17
2.9954093e-18
3.1139355e-19
2.3338768e-20
6.6371862e-22
-1.3740474e-22
-2.9514715e-23
-3.4480425e-24
-2.8685309e-25
-1.7818679e-26
-8.1881993e-28
-2.6547338e-29
-5.4574926e-31
-5.3837243e-33
1.2756325e-11
5.4499996e-12
2.1178706e-12
7.4373344e-13
2.3481957e-13
6.6228426e-14
1.6565426e-14
3.6426964e-15
6.9701726e-16
1.1438276e-16
1.56894e-17
1.6953747e-18
1.1842294e-19
-1.5613489e-21
-2.1219291e-21
-4.0492531e-22
-5.1279527e-23
-4.9238777e-24
-3.6870204e-25
-2.1440274e-26
-9.42216e-28
-2.9601709e-29
-5.948411e-31
-5.7699866e-33
3.2092593e-11
1.4505837e-11
5.970933e-12
2.2281704e-12
7.4917636e-13
2.2550476e-13
6.0285634e-14
1.4175197e-14
2.8969031e-15
5.0547061e-16
7.2779439e-17
7.9045523e-18
4.2595084e-19
-6.3051904e-20
-2.4281359e-20
-4.5918334e-21
-6.3553848e-22
-6.9527248e-23
-6.1298696e-24
-4.3414473e-25
-2.429013e-26
-1.0384392e-27
-3.1978634e-29
-6.3319789e-31
-6.0740277e-33
7.6173744e-11
3.6219063e-11
1.5762496e-11
6.2257998e-12
2.2214697e-12
7.1075457e-13
2.0218356e-13
5.0567215e-14
1.096086e-14
2.0131046e-15
2.9855327e-16
3.0787326e-17
4.320807e-19
-7.484324e-19
-2.2618613e-19
-4.416334e-20
-6.6963913e-21
-8.2693459e-22
-8.4316529e-23
-7.0878306e-24
-4.8541319e-25
-2.6507325e-26
-1.1133005e-27
-3.3837425e-29
-6.6341203e-31
-6.3147161e-33
1.7063668e-10
8.5293057e-11
3.9042458e-11
1.6284315e-11
6.1423854e-12
2.0808342e-12
6.2707465e-13
1.659347e-13
3.7877129e-14
7.2348077e-15
1.0761211e-15
9.3310901e-17
-8.8242073e-18
-6.3632626e-18
-1.7878745e-18
-3.6706639e-19
-6.091332e-20
-8.4264355e-21
-9.80919e-22
-9.6006782e-23
-7.8362429e-24
-5.2526868e-25
-2.8232903e-26
-1.1718378e-27
-3.5297245e-29
-6.8712881e-31
-6.5016613e-33
3.6338877e-10
1.8966304e-10
9.1172965e-11
3.9975282e-11
1.5889961e-11
5.6787451e-12
1.8044139e-12
5.0258123e-13
1.1984033e-13
2.3460424e-14
3.3530362e-15
1.6234454e-16
-9.6850826e-17
-4.4193516e-17
-1.2279939e-17
-2.6734209e-18
-4.844293e-19
-7.4559579e-20
-9.8096455e-21
-1.1022155e-21
-1.0513173e-22
-8.4183529e-24
-5.5630425e-25
-2.9579716e-26
-1.2174719e-27
-3.6423991e-29
-7.0500098e-31
-6.6363526e-33
7.3438682e-10
4.0014323e-10
2.0115036e-10
9.2460185e-11
3.8593459e-11
1.448468e-11
4.8366493e-12
1.4088122e-12
3.4799936e-13
6.8429815e-14
8.6822117e-15
-3.7024934e-16
-6.6859545e-16
-2.6333385e-16
-7.4451005e-17
-1.7249187e-17
-3.4027672e-18
-5.7923306e-19
-8.5414254e-20
-1.0897228e-20
-1.1969706e-21
-1.1224086e-22
-8.871774e-24
-5.8042224e-25
-3.061603e-26
-1.2517659e-27
-3.7233785e-29
-7.1690707e-31
-6.7150589e-33
1.4416252e-09
8.0402492e-10
4.2032053e-10
2.0219428e-10
8.8219594e-11
3.4704369e-11
1.2093082e-11
3.6699312e-12
9.2815141e-13
1.784249e-13
1.6518238e-14
-5.2632581e-15
-3.6905014e-15
-1.3807429e-15
-4.0303719e-16
-9.9470371e-17
-2.1292111e-17
-3.986955e-18
-6.5433881e-19
-9.3947412e-20
-1.1748937e-20
-1.2709907e-21
-1.1777551e-22
-9.2214514e-24
-5.9861431e-25
-3.1364808e-26
-1.2747327e-27
-3.7708778e-29
-7.2231688e-31
-6.7323385e-33
3.9884025e-09
1.5646606e-09
8.3945878e-10
4.1791379e-10
1.9086232e-10
7.8108076e-11
2.841607e-11
8.8777411e-12
2.2795408e-12
4.087605e-13
9.5544608e-15
-3.1686647e-14
-1.744947e-14
-6.4713205e-15
-1.9656736e-15
-5.1651639e-16
-1.1954032e-16
-2.4501189e-17
-4.4483128e-18
-7.1347165e-19
-1.0065681e-19
-1.2416457e-20
-1.328532e-21
-1.2199422e-22
-9.4778681e-24
-6.1104418e-25
-3.1815441e-26
-1.2854901e-27
-3.7818162e-29
-7.2067179e-31
-6.6840994e-33
2.8279537e-08
4.341454e-09
1.6176772e-09
8.2900569e-10
3.8924401e-10
1.6661223e-10
6.2498097e-11
2.0170091e-11
5.1245778e-12
7.9734561e-13
-1.0181823e-13
-1.4482838e-13
-7.2939677e-14
-2.7405311e-14
-8.7004281e-15
-2.4307563e-15
-6.0596663e-16
-1.3530219e-16
-2.702916e-17
-4.8127364e-18
-7.6022744e-19
-1.0593495e-19
-1.293386e-20
-1.3716947e-21
-1.2497123e-22
-9.6397541e-24
-6.1734322e-25
-3.1942189e-26
-1.2830006e-27
-3.7537362e-29
-7.1167528e-31
-6.5695477e-33
2.4539584e-07
3.1870017e-08
4.5162414e-09
1.5781134e-09
7.650008e-10
3.3377019e-10
1.3048894e-10
4.2566129e-11
1.0663536e-11
1.1744088e-12
-6.4246788e-13
-5.6155204e-13
-2.7417823e-13
-1.0574772e-13
-3.5163952e-14
-1.0425897e-14
-2.788989e-15
-6.7524978e-16
-1.4768828e-16
-2.9035828e-17
-5.103006e-18
-7.9716698e-19
-1.1000837e-19
-1.3313977e-20
-1.4006565e-21
-1.2664779e-22
-9.6995577e-24
-6.1699225e-25
-3.1722175e-26
-1.266671e-27
-3.6860619e-29
-6.9544406e-31
-6.3918286e-33
1.808136e-06
2.9245918e-07
3.4588685e-08
4.4468637e-09
1.4340325e-09
6.4715627e-10
2.543228e-10
8.5134815e-11
1.9958971e-11
7.6687813e-13
-2.6205556e-12
-1.9203407e-12
-9.3857036e-13
-3.7410339e-13
-1.3047635e-13
-4.0964524e-14
-1.1712942e-14
-3.0610593e-15
-7.2949352e-16
-1.5758443e-16
-3.0648881e-17
-5.3335525e-18
-8.2551586e-19
-1.1292514e-19
-1.355283e-20
-1.414381e-21
-1.2691199e-22
-9.6495151e-24
-6.0964803e-25
-3.1148217e-26
-1.236683e-27
-3.5805488e-29
-6.7252308e-31
-6.1575472e-33
1.0318627e-05
2.3199897e-06
3.3709591e-07
3.5723329e-08
4.0891161e-09
1.1871889e-09
4.8202756e-10
1.5667598e-10
3.4351189e-11
-3.3071418e-12
-8.6444476e-12
-5.9429848e-12
-2.9463531e-12
-1.2207444e-12
-4.4648213e-13
-1.4813162e-13
-4.5094327e-14
-1.2661163e-14
-3.2725768e-15
-7.7315861e-16
-1.6563372e-16
-3.1938799e-17
-5.5094799e-18
-8.4520669e-19
-1.1460944e-19
-1.3637641e-20
-1.411567e-21
-1.2567602e-22
-9.4862246e-24
-5.953451e-25
-3.0234275e-26
-1.1940391e-27
-3.4410649e-29
-6.4380128e-31
-5.8755936e-33
3.8714014e-05
1.4141085e-05
2.9245592e-06
3.7440926e-07
3.4705301e-08
3.4412126e-09
8.5295636e-10
2.8246614e-10
4.8969617e-11
-1.7465921e-11
-2.5199511e-11
-1.6780583e-11
-8.5553284e-12
-3.6887385e-12
-1.415444e-12
-4.9502192e-13
-1.598498e-13
-4.7986546e-14
-1.3387514e-14
-3.4441831e-15
-8.0921186e-16
-1.7213546e-16
-3.2918469e-17
-5.6276432e-18
-8.5540245e-19
-1.1493591e-19
-1.3556215e-20
-1.3914442e-21
-1.2292687e-22
-9.2130341e-24
-5.745423e-25
-2.9014385e-26
-1.1403977e-27
-3.272997e-29
-6.103752e-31
-5.5558056e-33
9.0315237e-05
5.3262456e-05
1.9194805e-05
3.6254567e-06
3.9932726e-07
3.1341523e-08
2.5425026e-09
4.5777743e-10
6.3814489e-11
-5.9669849e-11
-6.5831781e-11
-4.3908263e-11
-2.3050753e-11
-1.0377108e-11
-4.1718996e-12
-1.5349062e-12
-5.237743e-13
-1.6734179e-13
-5.0129598e-14
-1.3981258e-14
-3.588654e-15
-8.3878439e-16
-1.7706531e-16
-3.3554245e-17
-5.6808145e-18
-8.5508517e-19
-1.1380814e-19
-1.3303694e-20
-1.354237e-21
-1.1874571e-22
-8.8400064e-24
-5.4805613e-25
-2.7537351e-26
-1.0778108e-27
-3.0825615e-29
-5.734034e-31
-5.2079479e-33
0.00015646994
0.00012114019
7.2251221e-05
2.5757446e-05
4.4298237e-06
4.0739134e-07
2.5595201e-08
1.458479e-09
3.2880042e-11
-1.5563376e-10
-1.5980618e-10
-1.0671941e-10
-5.8052337e-11
-2.7258479e-11
-1.1478431e-11
-4.4322807e-12
-1.5922823e-12
-5.3890028e-13
-1.7248308e-13
-5.1883603e-14
-1.4495537e-14
-3.709803e-15
-8.6134452e-16
-1.8016138e-16
-3.3794597e-17
-5.6617367e-18
-8.4361725e-19
-1.1120801e-19
-1.2885862e-20
-1.3012618e-21
-1.13297e-22
-8.3824015e-24
-5.1693384e-25
-2.585985e-26
-1.0084768e-27
-2.8761896e-29
-5.3398694e-31
-4.8414062e-33
0.00018136923
0.00019954796
0.00015902196
9.6263301e-05
3.4190801e-05
5.3408184e-06
3.9517485e-07
1.7692845e-08
2.5600787e-10
-3.8677994e-10
-3.572587e-10
-2.4351393e-10
-1.3705703e-10
-6.7154321e-11
-2.9585582e-11
-1.1959244e-11
-4.5086845e-12
-1.6079394e-12
-5.4707073e-13
-1.7664211e-13
-5.3463561e-14
-1.4943267e-14
-3.8034887e-15
-8.7524864e-16
-1.8109779e-16
-3.3594108e-17
-5.5666955e-18
-8.2103617e-19
-1.0721487e-19
-1.2318829e-20
-1.2347206e-21
-1.0680379e-22
-7.8583816e-24
-4.823265e-25
-2.4039971e-26
-9.3457187e-28
-2.6600384e-29
-4.9310494e-31
-4.4652309e-33
0.00012627311
0.00021473131
0.00024604559
0.00020334132
0.00012578095
4.4821487e-05
6.3835696e-06
3.610837e-07
7.9501497e-09
-9.9759695e-10
-7.6996619e-10
-5.2475858e-10
-3.046458e-10
-1.5580724e-10
-7.1638622e-11
-3.0277407e-11
-1.192275e-11
-4.4628589e-12
-1.6039241e-12
-5.5320269e-13
-1.8066573e-13
-5.4919526e-14
-1.5301467e-14
-3.8607946e-15
-8.7866245e-16
-1.7961455e-16
-3.2933095e-17
-5.397085e-18
-7.8812396e-19
-1.0199465e-19
-1.162644e-20
-1.157372e-21
-9.9518188e-23
-7.2868941e-24
-4.4539165e-25
-2.2132438e-26
-8.5816439e-28
-2.43963e-29
-4.5162523e-31
-4.0880783e-33
0.00015570747
0.00012587269
0.00024933027
0.00029262499
0.00025331586
0.00016109017
5.7725035e-05
7.5759671e-06
3.0545103e-07
-2.9876896e-09
-2.15872e-09
-1.0862053e-09
-6.4513383e-10
-3.4073531e-10
-1.638792e-10
-7.2055325e-11
-2.9596325e-11
-1.154401e-11
-4.3621199e-12
-1.5968237e-12
-5.6051207e-13
-1.8477005e-13
-5.615185e-14
-1.5527281e-14
-3.8724753e-15
-8.7017251e-16
-1.7561725e-16
-3.1824336e-17
-5.1594774e-18
-7.462747e-19
-9.5772749e-20
-1.0837023e-20
-1.0721755e-21
-9.1698509e-23
-6.6861063e-24
-4.0723068e-25
-2.0186187e-26
-7.811663e-28
-2.2195939e-29
-4.1037654e-31
-3.7177093e-33
0.0001927857
0.00015461323
0.00018211093
0.00028500674
0.00033735969
0.00030862325
0.00020166542
7.2917839e-05
8.9273463e-06
2.314338e-07
-1.3826362e-08
-3.1029232e-09
-1.3095863e-09
-7.1278322e-10
-3.5355173e-10
-1.6219641e-10
-6.8994035e-11
-2.7993655e-11
-1.1013269e-11
-4.2587241e-12
-1.5982141e-12
-5.7000345e-13
-1.8859547e-13
-5.6983811e-14
-1.5576456e-14
-3.8314471e-15
-8.4924446e-16
-1.6920311e-16
-3.0311594e-17
-4.8643986e-18
-6.9728316e-19
-8.8803334e-20
-9.9803909e-21
-9.8203588e-22
-8.35925e-23
-6.0726478e-24
-3.6884744e-25
-1.8244305e-26
-7.0527765e-28
-2.0034798e-29
-3.70198e-31
-3.3600356e-33
0.00023508204
0.0001906694
0.00021535534
0.00015782599
0.00032159723
0.00038129808
0.00036609132
0.00024552915
9.0019341e-05
1.0458278e-05
1.4991885e-07
-2.3473441e-08
-3.7222172e-09
-1.4262198e-09
-7.3033726e-10
-3.4484814e-10
-1.5225446e-10
-6.3563656e-11
-2.5974403e-11
-1.0487126e-11
-4.1930558e-12
-1.6129571e-12
-5.8065852e-13
-1.9149205e-13
-5.7226437e-14
-1.5413663e-14
-3.73497e-15
-8.1635287e-16
-1.6064087e-16
-2.8461606e-17
-4.5246987e-18
-6.4313381e-19
-8.1343339e-20
-9.0857557e-21
-8.8964683e-22
-7.5427261e-23
-5.4614302e-24
-3.3111684e-25
-1.6345455e-26
-6.3192219e-28
-1.7938197e-29
-3.3184999e-31
-3.0363396e-33
0.00028506585
0.00023202706
0.00024921901
0.00020102335
9.091355e-05
0.00035962004
0.00042437204
0.00042122536
0.0002894561
0.00010826995
1.2246551e-05
7.6804806e-08
-3.0669094e-08
-3.9475069e-09
-1.4402769e-09
-7.0435567e-10
-3.1686312e-10
-1.3649086e-10
-5.6963519e-11
-2.3957245e-11
-1.0097031e-11
-4.1869864e-12
-1.639034e-12
-5.9034797e-13
-1.9271232e-13
-5.6717095e-14
-1.5022659e-14
-3.5850922e-15
-7.7285842e-16
-1.5031818e-16
-2.6354772e-17
-4.1540474e-18
-5.8583103e-19
-7.3636368e-20
-8.1802405e-21
-7.9744092e-22
-6.7401077e-23
-4.8657577e-24
-2.9475739e-25
-1.4524901e-26
-5.6220998e-28
-1.5932347e-29
-2.9777757e-31
-2.7275414e-33
0.00034163692
0.00028154246
0.00028347439
0.00024702734
0.00012156869
3.8826112e-05
0.00039965403
0.00046654464
0.00046801913
0.00032974022
0.00012694852
1.4469536e-05
3.4013924e-08
-3.4338872e-08
-3.7648409e-09
-1.3626497e-09
-6.3595273e-10
-2.7524189e-10
-1.1766362e-10
-5.0312275e-11
-2.2337243e-11
-9.9302852e-12
-4.2392187e-12
-1.6700628e-12
-5.9634064e-13
-1.9155223e-13
-5.5361616e-14
-1.4408513e-14
-3.3879824e-15
-7.207459e-16
-1.3868662e-16
-2.4076849e-17
-3.7658193e-18
-5.2728389e-19
-6.5904091e-20
-7.2879482e-21
-7.0757208e-22
-5.9678083e-23
-4.2972357e-24
-2.603084e-25
-1.2813107e-26
-4.9694652e-28
-1.4173456e-29
-2.6567075e-31
-2.4370746e-33
0.00040520059
0.00033878525
0.00031811599
0.00029167854
0.00015862418
5.3158004e-05
1.0341343e-05
0.00044201228
0.0005072021
0.00050486647
0.00036401856
0.00014589082
1.7503711e-05
5.2766711e-08
-3.3966316e-08
-3.1681088e-09
-1.2003514e-09
-5.3418959e-10
-2.2587707e-10
-9.8295714e-11
-4.4787607e-11
-2.1451182e-11
-1.0002502e-11
-4.3329732e-12
-1.697012e-12
-5.9576273e-13
-1.8752703e-13
-5.315237e-14
-1.3596237e-14
-3.1526638e-15
-6.6235117e-16
-1.2621672e-16
-2.1712355e-17
-3.3724547e-18
-4.6922038e-19
-5.834329e-20
-6.4291914e-21
-6.219027e-22
-5.2384469e-23
-3.765366e-24
-2.2811382e-25
-1.1232325e-26
-4.3655473e-28
-1.2562924e-29
-2.3582722e-31
-2.1680028e-33
0.00047344787
0.00040366478
0.00035414777
0.00033294633
0.00020101123
7.1528135e-05
1.408966e-05
1.8169653e-06
0.00048809183
0.00054513095
0.00053387069
0.0003920413
0.00016624532
2.2079859e-05
1.7255731e-07
-2.9340528e-08
-2.1211394e-09
-9.6420607e-10
-4.1340735e-10
-1.7389412e-10
-8.1337259e-11
-4.1476478e-11
-2.1398692e-11
-1.0271614e-11
-4.4419008e-12
-1.7090376e-12
-5.8632568e-13
-1.8047141e-13
-5.0169641e-14
-1.2624386e-14
-2.8897358e-15
-6.0012609e-16
-1.1336449e-16
-1.9340016e-17
-2.9850759e-18
-4.1312988e-19
-5.1123284e-20
-5.6200433e-21
-5.4195155e-22
-4.5609803e-23
-3.2770122e-24
-1.9836054e-25
-9.7944399e-27
-3.8461376e-28
-1.1083935e-29
-2.0852149e-31
-1.9223375e-33
0.00054381866
0.00047427188
0.00039330504
0.00037166326
0.00024745291
9.4222561e-05
1.8945381e-05
2.3181504e-06
2.4757722e-07
0.00053753626
0.00057922801
0.00055553335
0.00041671972
0.00019135554
2.9386343e-05
4.53012e-07
-1.9984575e-08
-6.3379633e-10
-6.824815e-10
-2.8410396e-10
-1.2702734e-10
-7.0100812e-11
-4.0811456e-11
-2.2103376e-11
-1.0670728e-11
-4.5277611e-12
-1.6962344e-12
-5.6685466e-13
-1.7058789e-13
-4.6556679e-14
-1.1538649e-14
-2.6103878e-15
-5.3644639e-16
-1.0055047e-16
-1.7029151e-17
-2.6132884e-18
-3.6021919e-19
-4.4383064e-20
-4.8721384e-21
-4.6883643e-22
-3.9414808e-23
-2.8362193e-24
-1.7127544e-25
-8.5824582e-27
-3.3749993e-28
-9.747132e-30
-1.8388629e-31
-1.7007274e-33
0.00061235889
0.00054788661
0.00043740039
0.00040900936
0.00029744785
0.00012151235
2.5126523e-05
2.8989133e-06
2.9377919e-07
2.8523044e-08
0.00058813278
0.0006091618
0.00057222536
0.00044571342
0.00022590701
4.1196615e-05
9.9427386e-07
-5.6408677e-09
1.2628242e-09
-3.8290757e-10
-1.6415365e-10
-9.5253656e-11
-6.6897626e-11
-4.2520077e-11
-2.3411957e-11
-1.107675e-11
-4.5510922e-12
-1.6523011e-12
-5.3762334e-13
-1.5836798e-13
-4.2490902e-14
-1.0387643e-14
-2.3255147e-15
-4.7348415e-16
-8.8142687e-17
-1.4837377e-17
-2.2649964e-18
-3.1139659e-19
-3.8227427e-20
-4.1929745e-21
-4.0324235e-22
-3.3846135e-23
-2.4444868e-24
-1.4901394e-25
-7.4973782e-27
-2.9546312e-28
-8.5571057e-30
-1.6196993e-31
-1.503554e-33
0.00067635464
0.00062056935
0.00048759279
0.00044707506
0.00034907429
0.00015386936
3.2940815e-05
3.5543844e-06
3.3566129e-07
3.2060989e-08
4.0126041e-09
0.00063715492
0.00063593171
0.00058970012
0.00048653485
0.00027611762
6.0200135e-05
1.9665277e-06
1.3637119e-08
3.5850207e-09
-9.8651787e-11
-7.7907358e-11
-8.3790625e-11
-7.0716698e-11
-4.6533811e-11
-2.4975381e-11
-1.1347247e-11
-4.4834831e-12
-1.5764139e-12
-5.0013266e-13
-1.4444776e-13
-3.816508e-14
-9.2184756e-15
-2.0451252e-15
-4.1310315e-16
-7.6446166e-17
-1.2809172e-17
-1.9462958e-18
-2.6727916e-19
-3.2725234e-20
-3.5867759e-21
-3.4546029e-22
-2.8946673e-23
-2.0996205e-24
-1.2976545e-25
-6.5432209e-27
-2.5859214e-28
-7.5141393e-30
-1.4274975e-31
-1.3301657e-33
0.00073405195
0.00068903668
0.00054391633
0.0004885419
0.00039903998
0.00019072814
4.2702265e-05
4.2829861e-06
3.6777309e-07
3.4525792e-08
4.3579486e-09
1.4475471e-09
0.00068317472
0.00066338138
0.00061809934
0.00054724223
0.00035074561
9.0299536e-05
3.6553588e-06
3.8295515e-08
6.1446091e-09
1.1207969e-10
-4.1176774e-11
-9.0403224e-11
-8.1472682e-11
-5.1835434e-11
-2.6300213e-11
-1.1369405e-11
-4.3170928e-12
-1.4726344e-12
-4.5650302e-13
-1.295279e-13
-3.3769953e-14
-8.0740719e-15
-1.7777967e-15
-3.5680346e-16
-6.5696352e-17
-1.0975977e-17
-1.6614335e-18
-2.2822577e-19
-2.7911467e-20
-3.0559052e-21
-2.9548734e-22
-2.4745839e-23
-1.8260665e-24
-1.1312063e-25
-5.720622e-27
-2.2684266e-28
-6.6154528e-30
-1.261504e-31
-1.1800267e-33
0.00078857374
0.00075102458
0.00060504234
0.0005356452
0.00044593177
0.00023143229
5.4691572e-05
5.1007297e-06
3.8499466e-07
3.5121929e-08
4.5050879e-09
1.5696548e-09
7.3650786e-10
0.00072864002
0.00069869921
0.00066987523
0.00064057913
0.00045920063
0.00013665966
6.4722966e-06
6.7905925e-08
8.4571001e-09
2.1723536e-10
-5.1979761e-11
-1.1860658e-10
-9.743539e-11
-5.6821827e-11
-2.6976943e-11
-1.109032e-11
-4.0612528e-12
-1.3474849e-12
-4.090987e-13
-1.1432326e-13
-2.9479906e-14
-6.9907487e-15
-1.5303809e-15
-3.0569515e-16
-5.6061088e-17
-9.3574671e-18
-1.4129299e-18
-1.9438321e-19
-2.3793709e-20
-2.6021649e-21
-2.531591e-22
-2.1535983e-23
-1.5942586e-24
-9.9070635e-26
-5.027525e-27
-2.0008235e-28
-5.8563822e-30
-1.1207892e-31
-1.8382973e-35
0.000839302
0.00080726023
0.00066841381
0.00058993584
0.00049153447
0.00027539065
6.9326345e-05
6.0583213e-06
3.8319751e-07
3.3348887e-08
4.3825594e-09
1.6177301e-09
8.0546487e-10
3.6411728e-10
0.00077725661
0.00075095306
0.00075875462
0.00078483923
0.00061100181
0.00020549255
1.0876719e-05
9.8660771e-08
1.00634e-08
2.2030264e-10
-1.1560188e-10
-1.6294348e-10
-1.137571e-10
-6.0202433e-11
-2.6826197e-11
-1.0542031e-11
-3.7340415e-12
-1.2083124e-12
-3.6040981e-13
-9.9492658e-14
-2.5441949e-14
-5.9970541e-15
-1.3078751e-15
-2.6052339e-16
-4.764818e-17
-7.9639203e-18
-1.2018503e-18
-1.6574029e-19
-2.0361072e-20
-2.2268539e-21
-2.1791748e-22
-1.8897574e-23
-1.4038573e-24
-8.7563313e-26
-4.4599609e-27
-1.7812445e-28
-5.2308795e-30
-1.8997155e-33
-1.5176617e-37
0.00088370697
0.00085227639
0.00073096551
0.00065170498
0.0005431296
0.00032308058
8.7399162e-05
7.2473639e-06
3.6218357e-07
2.9109759e-08
3.9477388e-09
1.5677058e-09
8.3841258e-10
4.0053427e-10
1.7088335e-10
0.00083287578
0.00083004514
0.0009023415
0.00099016749
0.00082134079
0.0003010216
1.7044763e-05
1.2617509e-07
1.0733762e-08
8.011894e-11
-2.2730318e-10
-2.1094596e-10
-1.2645774e-10
-6.1429441e-11
-2.5914383e-11
-9.7765082e-12
-3.3559418e-12
-1.0631967e-12
-3.1280533e-13
-8.5595982e-14
-2.1770473e-14
-5.1134481e-15
-1.113576e-15
-2.2172258e-16
-4.0517441e-17
-6.7988202e-18
-1.0281782e-18
-1.4219447e-19
-1.7592656e-20
-1.9293092e-21
-1.9304143e-22
-1.6808726e-23
-1.2538029e-24
-7.8506914e-26
-4.0125802e-27
-1.6073521e-28
-9.6066167e-32
-1.7373418e-35
-5.7008656e-40
0.00092520886
0.00087488962
0.00078988999
0.00071920776
0.0006037529
0.00037663932
0.00010984175
8.8225688e-06
3.257892e-07
2.2454677e-08
3.2143815e-09
1.407979e-09
8.2301794e-10
4.1961966e-10
1.8973423e-10
7.6237394e-11
0.00090108205
0.00094892677
0.001113695
0.0012600069
0.0011001532
0.00041777635
2.4398997e-05
1.4578264e-07
9.7174719e-09
-1.9599601e-10
-3.5843023e-10
-2.5221404e-10
-1.3408861e-10
-6.0950372e-11
-2.4329408e-11
-8.8232974e-12
-2.9510573e-12
-9.2032988e-13
-2.6833263e-13
-7.3069315e-14
-1.8545804e-14
-4.3532118e-15
-9.4936554e-16
-1.8949318e-16
-3.4691627e-17
-5.8610519e-18
-8.9117016e-19
-1.2363553e-19
-1.5463664e-20
-1.7336343e-21
-1.7436082e-22
-1.5252029e-23
-1.1424019e-24
-7.1780354e-26
-3.6786935e-27
-3.1823312e-30
-9.7025456e-34
-7.3348398e-38
-8.1869212e-43
0.00097324721
0.00089864804
0.0008425385
0.00078932471
0.00067401538
0.00043962895
0.00013778601
1.102185e-05
2.8122389e-07
1.401791e-08
2.2454469e-09
1.1430801e-09
7.520594e-10
4.1521253e-10
2.0077731e-10
8.5281195e-11
3.2105512e-11
0.00098926326
0.0011194825
0.0013850887
0.0015813392
0.001401513
0.00053512845
3.1198498e-05
1.4513202e-07
6.6369907e-09
-5.4601635e-10
-4.8041818e-10
-2.816673e-10
-1.3719796e-10
-5.8138689e-11
-2.2093026e-11
-7.7541326e-12
-2.5470099e-12
-7.870144e-13
-2.2859487e-13
-6.221756e-14
-1.5819057e-14
-3.7237863e-15
-8.160801e-16
-1.6386847e-16
-3.0164331e-17
-5.1462086e-18
-7.8955759e-19
-1.1001129e-19
-1.3914334e-20
-1.5988055e-21
-1.6162897e-22
-1.4201016e-23
-1.067376e-24
-6.7232453e-26
-7.806721e-29
-3.5351644e-32
-4.5967692e-36
-1.1894352e-40
-4.3613579e-46
0.0010302817
0.00093163446
0.00088821683
0.00085792569
0.00075149056
0.00051512155
0.00017258035
1.41652e-05
2.3988424e-07
4.9319271e-09
1.1381634e-09
7.9339221e-10
6.2681307e-10
3.8396096e-10
2.010556e-10
9.0992222e-11
3.6200367e-11
1.2756563e-11
0.0011040679
0.0013382242
0.0016883669
0.0019168908
0.0016564006
0.00062392189
3.455515e-05
1.1338077e-07
2.1289766e-09
-8.7786965e-10
-5.7260867e-10
-3.0011329e-10
-1.3371884e-10
-5.3112786e-11
-1.9398423e-11
-6.6652092e-12
-2.1695102e-12
-6.6898981e-13
-1.947172e-13
-5.3232847e-14
-1.361773e-14
-3.2283192e-15
-7.1378556e-16
-1.4476067e-16
-2.6904111e-17
-4.6469047e-18
-7.2160088e-19
-1.0126837e-19
-1.3165278e-20
-1.5210945e-21
-1.5447977e-22
-1.3619178e-23
-1.0259423e-24
-1.5207103e-27
-9.4909675e-31
-1.8742551e-34
-8.4328105e-39
-6.948304e-44
-1.1144201e-49
0.001097294
0.00097507361
0.00092845681
0.00091946845
0.0008304981
0.00059725696
0.00021518388
1.8638178e-05
2.1477618e-07
-3.5732698e-09
2.8187505e-11
3.9269543e-10
4.5622117e-10
3.2584322e-10
1.8875824e-10
9.2006187e-11
3.8962812e-11
1.4493886e-11
4.7546705e-12
0.0012437733
0.0015789882
0.0019872451
0.0021849106
0.0018022383
0.00064976297
3.1486712e-05
5.5273755e-08
-2.951548e-09
-1.1445827e-09
-6.3228632e-10
-2.9871907e-10
-1.2292122e-10
-4.6453629e-11
-1.6571659e-11
-5.6450267e-12
-1.8385792e-12
-5.7025907e-13
-1.6739462e-13
-4.621556e-14
-1.195195e-14
-2.8666267e-15
-6.4194118e-16
-1.3197669e-16
-2.4856394e-17
-4.3525744e-18
-6.8510396e-19
-9.8537952e-20
-1.2892771e-20
-1.496197e-21
-1.5243308e-22
-1.3464134e-23
-2.462174e-26
-2.0120071e-29
-5.6087633e-33
-3.8926715e-37
-5.4377371e-42
-1.8618243e-47
-1.7328664e-53
0.0011720375
0.0010322572
0.00096631529
0.00096782078
0.00090183966
0.00068020846
0.00026555087
2.4806423e-05
2.2034065e-07
-1.0374178e-08
-9.5768809e-10
-1.5072768e-11
2.5625618e-10
2.4466999e-10
1.6363531e-10
8.7445442e-11
3.9807199e-11
1.5730453e-11
5.4445484e-12
1.6599096e-12
0.001392378
0.0018036779
0.0022186546
0.0023146044
0.0017898765
0.00057996372
2.2057579e-05
-1.1565527e-08
-7.6163881e-09
-1.3353048e-09
-6.4643772e-10
-2.7616705e-10
-1.0694234e-10
-3.9319804e-11
-1.392252e-11
-4.7614306e-12
-1.5680131e-12
-4.9325168e-13
-1.4697657e-13
-4.1196642e-14
-1.0817778e-14
-2.6356758e-15
-5.9942918e-16
-1.2521418e-16
-2.3945108e-17
-4.2491848e-18
-6.7587263e-19
-9.9382549e-20
-1.3052987e-20
-1.518671e-21
-1.5492905e-22
-3.4198063e-25
-3.5255932e-28
-1.3187688e-31
-1.3181108e-35
-2.7880793e-40
-1.5344498e-45
-2.9611789e-51
-1.885142e-57
0.0012470476
0.0011063547
0.0010053977
0.00099882178
0.00095508771
0.00075508834
0.00032115752
3.2908759e-05
2.6629554e-07
-1.4944082e-08
-1.7127814e-09
-3.8787703e-10
4.8015026e-11
1.4825776e-10
1.2719906e-10
7.7081998e-11
3.8332868e-11
1.6227007e-11
5.9593385e-12
1.9153629e-12
5.4062952e-13
0.0015236606
0.0019680394
0.0023209371
0.0022497633
0.0015791159
0.00041680552
1.0104707e-05
-6.7293849e-08
-1.1203813e-08
-1.3967951e-09
-6.0137982e-10
-2.3791963e-10
-8.9439851e-11
-3.2646229e-11
-1.1656363e-11
-4.0584566e-12
-1.3659234e-12
-4.3912047e-13
-1.3353976e-13
-3.8149226e-14
-1.0198687e-14
-2.5295732e-15
-5.8453447e-16
-1.2405382e-16
-2.4074137e-17
-4.3193781e-18
-7.0077165e-19
-1.0331891e-19
-1.3591682e-20
-1.5822122e-21
-4.1645505e-24
-5.2756068e-27
-2.5485924e-30
-3.499843e-34
-1.0541802e-38
-8.322628e-44
-2.5017328e-49
-3.2488851e-55
-1.5647287e-61
0.0013118995
0.0011962092
0.0010500186
0.0010127684
0.00098229326
0.00080999083
0.00037613542
4.2829654e-05
3.5939803e-07
-1.7379196e-08
-2.1952364e-09
-6.9423482e-10
-1.4710204e-10
4.6683535e-11
8.2746512e-11
6.1480147e-11
3.4392963e-11
1.5811583e-11
6.2078537e-12
2.1139777e-12
6.2859068e-13
1.637616e-13
0.001610778
0.0020344198
0.0022514556
0.0019777513
0.0011668639
0.00020344608
5.9702093e-07
-1.0343882e-07
-1.3145123e-08
-1.2939225e-09
-5.1220077e-10
-1.953509e-10
-7.3062821e-11
-2.7005568e-11
-9.9050822e-12
-3.5613956e-12
-1.2357669e-12
-4.0796608e-13
-1.2692805e-13
-3.69937e-14
-1.0065474e-14
-2.5395294e-15
-5.9494023e-16
-1.2795969e-16
-2.5130024e-17
-4.5351034e-18
-7.4505675e-19
-1.0988125e-19
-1.4448925e-20
-4.511102e-23
-6.9027376e-26
-4.1826988e-29
-7.6134389e-33
-3.138568e-37
-3.3450299e-42
-1.3939433e-47
-2.7715558e-53
-2.6963255e-59
-1.1864877e-65
0.0013680293
0.001299414
0.0011063482
0.001016755
0.00098091614
0.00083606897
0.00042366806
5.3991766e-05
4.9564822e-07
-1.8053329e-08
-2.4286063e-09
-9.1721073e-10
-3.1400316e-10
-5.0568328e-11
3.4775973e-11
4.1995327e-11
2.8162625e-11
1.4405682e-11
6.1214571e-12
2.222974e-12
6.9948243e-13
1.9183671e-13
4.5968711e-14
0.0016367608
0.0019854625
0.0020103023
0.0015212874
0.0006203177
7.1686974e-06
-4.0364046e-06
-1.2180821e-07
-1.2816497e-08
-1.0813246e-09
-4.1325401e-10
-1.5623387e-10
-5.9408879e-11
-2.279227e-11
-8.7493685e-12
-3.2803726e-12
-1.1772273e-12
-3.9900556e-13
-1.2678033e-13
-3.7597994e-14
-1.0376678e-14
-2.6539844e-15
-6.2778385e-16
-1.3629671e-16
-2.6985004e-17
-4.9071193e-18
-8.0521976e-19
-1.1857149e-19
-4.3859405e-22
-8.0305178e-25
-5.975365e-28
-1.4008034e-31
-7.6766091e-36
-1.0641906e-40
-5.767802e-46
-1.5610575e-51
-2.3015968e-57
-2.037362e-63
-8.9468083e-70
0.0014263203
0.001407776
0.0011819639
0.0010247842
0.00095738993
0.0008334236
0.00045748996
6.5345187e-05
6.6468139e-07
-1.8000563e-08
-2.4738961e-09
-1.0635738e-09
-4.4413831e-10
-1.3623817e-10
-1.2399288e-11
2.0554059e-11
2.0159154e-11
1.205637e-11
5.6637153e-12
2.216685e-12
7.4235863e-13
2.1520478e-13
5.4249867e-14
1.1915422e-14
0.001628236
0.0018357334
0.0016306303
0.00093054588
4.6407264e-05
-0.00012102865
-4.7264948e-06
-1.2068471e-07
-1.0747345e-08
-8.6054097e-10
-3.2265443e-10
-1.2385842e-10
-4.94738e-11
-2.0230607e-11
-8.2157394e-12
-3.2119026e-12
-1.1868201e-12
-4.1070094e-13
-1.325373e-13
-3.9782333e-14
-1.1079776e-14
-2.8590521e-15
-6.7977591e-16
-1.4835807e-16
-2.9570963e-17
-5.3627179e-18
-8.776099e-19
-3.8484121e-21
-8.4000346e-24
-7.5703628e-27
-2.2341143e-30
-1.5900662e-34
-2.7967234e-39
-1.8928811e-44
-6.5358707e-50
-1.2980734e-55
-1.7337389e-61
-1.5289744e-67
-6.7118846e-74
0.001480864
0.0015123811
0.0012838982