/*--------------------------------*- C++ -*----------------------------------*\
| =========                 |                                                 |
| \\      /  F ield         | OpenFOAM: The Open Source CFD Toolbox           |
|  \\    /   O peration     | Version:  5.0                                   |
|   \\  /    A nd           | Web:      www.OpenFOAM.org                      |
|    \\/     M anipulation  |                                                 |
\*---------------------------------------------------------------------------*/
FoamFile
{
    version     2.0;
    format      ascii;
    class       surfaceScalarField;
    location    "40";
    object      ddtCorrDdt0(phi);
}
// * * * * * * * * * * * * * * * * * * * * * * * * * * * * * * * * * * * * * //

dimensions      [0 3 -2 0 0 0 0];

internalField   nonuniform List<scalar> 
18820
(
3.2710197e-06
-0.00011435744
6.8035045e-06
-0.00011095376
-3.6422902e-06
-0.00011071515
1.1022389e-05
-0.00011064169
-6.2813338e-06
-0.00010831471
-1.0382706e-05
-0.00010033244
1.6244662e-05
-0.00011229453
-7.5276393e-06
-0.0001093954
-1.8555063e-05
-0.00010014237
-1.9549173e-05
-8.078327e-05
2.2710185e-05
-0.00011500485
-7.0839414e-06
-0.00011273822
-2.3980424e-05
-0.00010397002
-3.4993852e-05
-8.4697682e-05
-2.2150617e-05
-5.8632643e-05
3.0518068e-05
-0.00011803398
-4.6630949e-06
-0.00011742569
-2.6562608e-05
-0.00011015605
-4.5401394e-05
-9.3562497e-05
-3.9521751e-05
-6.7326567e-05
-1.4373923e-05
-4.4258721e-05
3.9665763e-05
-0.00012092949
-1.5132954e-07
-0.00012254574
-2.635021e-05
-0.0001176381
-5.0951956e-05
-0.00010460548
-5.0961519e-05
-8.212271e-05
-2.56363e-05
-5.606418e-05
2.9743528e-06
-4.7233064e-05
5.0132199e-05
-0.00012338739
6.369382e-06
-0.0001274502
-2.3444944e-05
-0.000125451
-5.2338168e-05
-0.00011625187
-5.6612031e-05
-9.8954965e-05
-3.2786365e-05
-7.4972647e-05
5.4971899e-06
-5.8587025e-05
2.4241365e-05
-7.1474429e-05
6.1812362e-05
-0.00012521156
1.4748326e-05
-0.00013176633
-1.8123036e-05
-0.00013277211
-5.0191847e-05
-0.00012759732
-5.7457886e-05
-0.00011540602
-3.5354215e-05
-9.6387101e-05
7.9585479e-06
-7.7433975e-05
4.4852483e-05
-7.9198122e-05
4.1790616e-05
-0.00011326503
7.4567107e-05
-0.00012635726
2.4693526e-05
-0.00013515676
-1.0748245e-05
-0.00013914112
-4.5093503e-05
-0.00013787044
-5.4372523e-05
-0.00013068267
-3.3758434e-05
-0.00011700178
1.1526847e-05
-9.995539e-05
6.1621416e-05
-9.4202903e-05
7.8591627e-05
-0.00011599913
5.2133542e-05
-0.00016539857
8.8166756e-05
-0.00012677354
3.5822243e-05
-0.00013748598
-1.8144181e-06
-0.00014409058
-3.7762836e-05
-0.00014647178
-4.8348808e-05
-0.00014389414
-2.8826023e-05
-0.00013561506
1.7063015e-05
-0.00012253793
7.5802564e-05
-0.00011413651
0.0001099866
-0.00012559784
9.9507769e-05
-0.00016337333
5.1733413e-05
-0.00021713196
0.00010236373
-0.00012646554
4.766468e-05
-0.00013861598
8.1082438e-06
-0.00014740864
-2.8899231e-05
-0.00015295418
-4.0349688e-05
-0.00015447089
-2.1506328e-05
-0.00015121382
2.4575477e-05
-0.00014312751
8.9103975e-05
-0.00013583932
0.00013655932
-0.00014070921
0.000141971
-0.00016806106
9.9694515e-05
-0.00021133443
4.2284662e-05
-0.00025941662
0.00011680973
-0.00012537392
5.978841e-05
-0.00013858927
1.8486564e-05
-0.0001489943
-1.9089328e-05
-0.00015721853
-3.1042051e-05
-0.00016226181
-1.2521986e-05
-0.00016345521
3.3930115e-05
-0.00016056844
0.00010240169
-0.00015642521
0.00015974088
-0.00015902087
0.00017928222
-0.00017802041
0.00014432851
-0.00021269502
8.195184e-05
-0.00025100159
2.8520909e-05
-0.00028793752
0.00013121408
-0.00012348064
7.173824e-05
-0.00013732375
2.8877187e-05
-0.00014897989
-8.7436484e-06
-0.00015933998
-2.0923832e-05
-0.00016733674
-2.3942648e-06
-0.00017238952
4.4803555e-05
-0.00017432863
0.00011616855
-0.00017433528
0.00018078116
-0.00017746546
0.00021191181
-0.00019165043
0.00018530825
-0.00021900015
0.00011980936
-0.00025055255
5.5663706e-05
-0.0002781444
1.5249091e-05
-0.00030318662
0.00014537326
-0.00012084288
8.328974e-05
-0.00013503214
3.9004922e-05
-0.00014745148
1.8422306e-06
-0.00015956577
-1.0334287e-05
-0.00016992952
8.4349642e-06
-0.00017816597
5.6746687e-05
-0.00018433264
0.00013057519
-0.00018873527
0.00020066245
-0.00019421655
0.00024099361
-0.00020654725
0.00022240457
-0.00022874674
0.00015600895
-0.00025519973
8.2094354e-05
-0.00027698318
3.0210998e-05
-0.00029310632
5.778088e-06
-0.0003089647
0.00015915032
-0.00011767575
9.4345455e-05
-0.0001318986
4.8910222e-05
-0.00014493744
1.2579233e-05
-0.00015818849
4.8367231e-07
-0.00017038373
1.9609112e-05
-0.00018110367
6.9269014e-05
-0.00019068829
0.00014545184
-0.00019920927
0.00022002215
-0.00020809495
0.00026767387
-0.0002208968
0.00025631653
-0.00024045921
0.00019029711
-0.00026303489
0.00010825605
-0.00028136144
4.526498e-05
-0.0002920372
1.1969393e-05
-0.00029929765
-2.2939276e-07
-0.00030873534
0.00017260994
-0.00011392398
0.00010491313
-0.00012824343
5.8566093e-05
-0.00014155447
2.3429821e-05
-0.00015578804
1.1382466e-05
-0.0001690873
3.0769221e-05
-0.00018154384
8.176416e-05
-0.00019359882
0.00016026948
-0.00020550593
0.00023905392
-0.00021824103
0.00029293743
-0.0002333585
0.00028800085
-0.00025258111
0.00022298604
-0.00027314814
0.0001341621
-0.00028894095
6.0938963e-05
-0.00029703543
1.8677833e-05
-0.00029874565
7.061121e-08
-0.0002995977
-3.6580348e-06
-0.00030507731
0.0001857609
-0.00011018628
0.00011519111
-0.00012420197
6.8219294e-05
-0.00013789664
3.4213628e-05
-0.0001523383
2.2077044e-05
-0.00016648264
4.1427155e-05
-0.00017974524
9.3434073e-05
-0.00019321377
0.0001742751
-0.00020760445
0.00025769072
-0.00022414273
0.00031763866
-0.00024294226
0.00031847873
-0.00026383638
0.00025470001
-0.00028429509
0.00016006303
-0.00029904908
7.7486583e-05
-0.00030548858
2.6185749e-05
-0.00030454338
7.9601057e-07
-0.00029947111
-6.8870103e-06
-0.00029636878
-5.9297686e-06
-0.00029914759
0.00019890081
-0.00010606404
0.00012526123
-0.00012025641
7.7759015e-05
-0.0001337417
4.4780872e-05
-0.00014846391
3.2221489e-05
-0.00016248277
5.0884703e-05
-0.0001759402
0.00010335908
-0.00018967027
0.00018678112
-0.00020571981
0.00027595027
-0.00022586401
0.00034261834
-0.00024912242
0.00034873905
-0.0002732026
0.00028598982
-0.0002951262
0.00018628378
-0.00031051585
9.4982484e-05
-0.000316545
3.4963483e-05
-0.00031426635
2.0835119e-06
-0.00030583092
-9.89712e-06
-0.00029646104
-1.1618702e-05
-0.00029067991
-7.5635938e-06
-0.00029158403
0.00021206664
-0.00010255462
0.00013540835
-0.00011621118
8.7320567e-05
-0.00012981798
5.4612319e-05
-0.00014357318
4.1320402e-05
-0.00015756285
5.8537887e-05
-0.00017013598
0.0001108486
-0.00018342977
0.00019756709
-0.00020045627
0.0002941836
-0.00022395316
0.00036856625
-0.00025181194
0.00037949508
-0.00027987846
0.00031732743
-0.00030454021
0.00021304863
-0.00032189105
0.00011349604
-0.00032902942
4.4906517e-05
-0.00032648807
4.3878303e-06
-0.0003165707
-1.2740923e-05
-0.00030298717
-1.7286574e-05
-0.00029079326
-1.5029442e-05
-0.00028321414
-8.9340067e-06
-0.00028265008
0.0002255437
-9.8759775e-05
0.00014558232
-0.00011272859
9.6465103e-05
-0.00012535573
6.3478634e-05
-0.00013868433
4.8866556e-05
-0.00015111938
6.3891647e-05
-0.00016291665
0.00011578971
-0.00017507714
0.00020695393
-0.00019281665
0.00031290831
-0.00021918102
0.00039570915
-0.00025109609
0.00041083314
-0.00028315003
0.00034897638
-0.00031152744
0.00024080888
-0.00033230049
0.0001334111
-0.00034180616
5.6234353e-05
-0.0003403573
7.8537703e-06
-0.00032995405
-1.5117734e-05
-0.00031419395
-2.3110299e-05
-0.00029716351
-2.2589162e-05
-0.0002832336
-1.7834822e-05
-0.00027431342
-1.0113884e-05
-0.00027253624
0.00023915426
-9.5808649e-05
0.00015594075
-0.00010911824
0.00010523534
-0.00012149885
7.0720136e-05
-0.00013259728
5.4617309e-05
-0.00014443513
6.6967878e-05
-0.00015419566
0.00011866098
-0.00016578798
0.00021558607
-0.00018370932
0.00033209611
-0.00021200449
0.00042338969
-0.0002468616
0.00044211345
-0.00028237643
0.00038107001
-0.00031524369
0.0002701611
-0.00034087969
0.00015540749
-0.0003542969
6.9432335e-05
-0.00035500417
1.2832596e-05
-0.00034533617
-1.6574224e-05
-0.00032849762
-2.8885179e-05
-0.00030841913
-3.047193e-05
-0.00028928082
-2.7076183e-05
-0.00027399235
-2.0181705e-05
-0.0002642457
-1.1111679e-05
-0.00026142464
0.0002532098
-9.1876272e-05
0.00016614259
-0.0001060105
0.00011284655
-0.00011672946
7.6472052e-05
-0.00012725081
5.8357065e-05
-0.0001363371
6.8190436e-05
-0.00014565775
0.00012036951
-0.00015590425
0.00022392573
-0.0001741277
0.00035108005
-0.00020269331
0.00045007524
-0.00023869008
0.00047237707
-0.00027712526
0.00041377193
-0.0003150784
0.00030190584
-0.00034698847
0.00018029007
-0.00036576232
8.5054217e-05
-0.00036991884
1.9845704e-05
-0.00036201734
-1.6669806e-05
-0.00034524064
-3.432767e-05
-0.00032305519
-3.8760442e-05
-0.0003001307
-3.6790525e-05
-0.00027956656
-3.0755965e-05
-0.00026341817
-2.2197884e-05
-0.00025315962
-1.1894934e-05
-0.00024952976
0.00026738589
-9.0380948e-05
0.00017637915
-0.00010211286
0.00011964298
-0.00011280696
8.008057e-05
-0.00012033803
6.052428e-05
-0.00012941808
6.8236974e-05
-0.0001363837
0.00012163372
-0.00014692205
0.00023189245
-0.00016387105
0.00036828346
-0.00019133117
0.00047403904
-0.00022665718
0.00050092298
-0.00026723605
0.00044755679
-0.00031091017
0.00033692837
-0.00035010098
0.00020884634
-0.00037554479
0.00010379601
-0.00038450416
2.9386816e-05
-0.00037946
-1.4928099e-05
-0.0003637591
-3.9018323e-05
-0.00034055006
-4.7299611e-05
-0.0003145161
-4.7351748e-05
-0.00028956955
-4.2090217e-05
-0.00026823241
-3.383468e-05
-0.00025178152
-2.3787669e-05
-0.000241267
-1.2451634e-05
-0.00023707822
0.00028234392
-8.6489515e-05
0.00018634954
-0.00010035135
0.00012484546
-0.00010731536
8.2422902e-05
-0.00011514934
6.1359185e-05
-0.00012117301
6.7867487e-05
-0.00012904868
0.000122905
-0.00013765507
0.00023867122
-0.00015370089
0.00038220771
-0.00017779537
0.00049372467
-0.00021101686
0.00052751745
-0.00025325171
0.00048316333
-0.00030284265
0.00037606615
-0.00035004802
0.00024178931
-0.00038304401
0.00012632127
-0.00039807011
4.2231531e-05
-0.00039734894
-1.0869968e-05
-0.00038351822
-4.2540306e-05
-0.0003602372
-5.6033681e-05
-0.00033181607
-5.8670865e-05
-0.00030319707
-5.4476544e-05
-0.00027718332
-4.65606e-05
-0.00025550659
-3.6302823e-05
-0.00023926647
-2.4910001e-05
-0.00022880878
-1.2776053e-05
-0.00022430223
0.00029657866
-8.5903131e-05
0.00019664942
-9.6789412e-05
0.00012935664
-0.00010486255
8.2854139e-05
-0.00010774664
6.1632248e-05
-0.00011542247
6.7489768e-05
-0.00012079537
0.00012402157
-0.00013016534
0.00024333009
-0.00014231402
0.00039123146
-0.00016272471
0.00050861439
-0.00019268516
0.00055236066
-0.00023586014
0.00052114948
-0.00029123794
0.0004196891
-0.00034646567
0.00027944731
-0.0003877061
0.00015332309
-0.00041004592
5.9280861e-05
-0.00041511953
-3.7432504e-06
-0.00040447575
-4.4446833e-05
-0.00038161176
-6.4436605e-05
-0.00035183435
-7.0929205e-05
-0.00031955782
-6.8130563e-05
-0.00028954316
-6.0526299e-05
-0.00026321772
-5.0006121e-05
-0.00024180343
-3.8060038e-05
-0.00022611659
-2.5571953e-05
-0.00021601302
-1.2883482e-05
-0.00021141885
0.00031357804
-8.2069787e-05
0.00020583402
-9.5087743e-05
0.0001322257
-9.9658496e-05
8.2600087e-05
-0.00010460854
6.1470595e-05
-0.00010758508
6.7358806e-05
-0.0001152916
0.00012453302
-0.00012130691
0.00024483942
-0.00013167475
0.00039490549
-0.00014598814
0.00051834613
-0.00017245652
0.00057575327
-0.00021607785
0.00056145215
-0.00027616291
0.00046758121
-0.00033913015
0.00032183414
-0.0003888526
0.00018547702
-0.00041986012
8.1592383e-05
-0.00043235754
7.4349939e-06
-0.00042629787
-4.4207457e-05
-0.00040471522
-7.2306479e-05
-0.00037374199
-8.3965884e-05
-0.00033879777
-8.3212687e-05
-0.0003044758
-7.6238731e-05
-0.00027383083
-6.5235051e-05
-0.00024798891
-5.2427822e-05
-0.00022743577
-3.9097302e-05
-0.00021259137
-2.5796219e-05
-0.00020310044
-1.280294e-05
-0.00019861599
0.00032692688
-8.41148e-05
0.00021594512
-9.2180905e-05
0.00013451174
-9.7373806e-05
8.0622939e-05
-9.76814e-05
6.1294962e-05
-0.00010443298
6.7486983e-05
-0.00010771333
0.00012420756
-0.00011496624
0.00024267358
-0.00011914116
0.00039270203
-0.00012947136
0.0005235405
-0.00015118258
0.00059751579
-0.00019421914
0.00060331778
-0.00025794357
0.0005189047
-0.0003274865
0.00036896243
-0.00038625856
0.00022379131
-0.00042716701
0.00011053975
-0.00044880761
2.3801343e-05
-0.00044872401
-4.1092235e-05
-0.0004294132
-7.9412349e-05
-0.00039760945
-9.7552445e-05
-0.00036015552
-0.00010009012
-0.00032192043
-9.3851558e-05
-0.00028686308
-8.2418274e-05
-0.00025664773
-6.856886e-05
-0.00023184799
-5.3888808e-05
-0.00021264441
-3.9449062e-05
-0.0001989387
-2.5634436e-05
-0.0001902691
-1.2564586e-05
-0.00018605151
0.00034150592
-9.3950244e-05
0.00022320372
-9.13734e-05
0.00013479038
-9.2459563e-05
7.9017764e-05
-9.5768674e-05
6.099111e-05
-9.7377632e-05
6.7349434e-05
-0.00010429552
0.00012235323
-0.00010585909
0.00023676114
-0.00010905386
0.00038524054
-0.00011167975
0.00052401079
-0.00012994171
0.00061736037
-0.00017102724
0.00064552824
-0.00023642972
0.00057278017
-0.00031181919
0.00042093589
-0.00037946012
0.00026940406
-0.00043187145
0.00014763618
-0.00046426359
4.657307e-05
-0.00047157949
-3.4301023e-05
-0.00045551537
-8.5258877e-05
-0.0004235668
-0.00011166257
-0.00038349944
-0.00011852942
-0.00034171635
-0.00011384605
-0.00030192606
-0.00010190535
-0.00026737613
-8.6802333e-05
-0.00023841438
-7.0510398e-05
-0.00021522654
-5.438311e-05
-0.00019771051
-3.9195056e-05
-0.00018537822
-2.5151652e-05
-0.0001776822
-1.2198271e-05
-0.00017385332
0.00035759594
-9.3083856e-05
0.00023060558
-0.00010135211
0.00013465975
-9.1242796e-05
7.7275546e-05
-9.0717398e-05
6.1169635e-05
-9.5947265e-05
6.7264539e-05
-9.7292814e-05
0.00011872143
-0.00010066382
0.00022698885
-9.6086861e-05
0.000372797
-9.661036e-05
0.0005204633
-0.00010813232
0.00063426611
-0.00014684756
0.00068682073
-0.00021231986
0.0006284389
-0.0002920886
0.00047812409
-0.00036900756
0.00032347487
-0.00043353112
0.00019418701
-0.00047842246
7.6823911e-05
-0.00049451461
-2.3042314e-05
-0.00048283837
-8.9289684e-05
-0.00045148471
-0.00012608393
-0.00040914559
-0.00013870862
-0.00036332037
-0.0001364153
-0.00031914721
-0.00012415438
-0.00027967715
-0.00010766074
-0.00024651785
-8.9342613e-05
-0.00021958231
-7.1131262e-05
-0.00019847853
-5.4028305e-05
-0.00018287744
-3.8441492e-05
-0.00017208857
-2.4417648e-05
-0.00016546299
-1.1739953e-05
-0.00016211347
0.00038366608
-0.00010889365
0.00024109173
-0.00010357002
0.00013348
-0.00010017237
7.3975952e-05
-8.7943244e-05
6.1575589e-05
-9.1123432e-05
6.6223313e-05
-9.4906124e-05
0.00011328305
-9.1854493e-05
0.00021382861
-8.7503623e-05
0.00035613477
-7.9424676e-05
0.00051282164
-8.8968763e-05
0.00064772909
-0.00012159539
0.00072591377
-0.00018594075
0.00068526782
-0.00026914898
0.00054084028
-0.00035480501
0.00038687746
-0.00043241037
0.00025124022
-0.00049058456
0.00011556446
-0.00051716323
-6.3525885e-06
-0.00051120456
-9.0793111e-05
-0.00048133515
-0.00014053079
-0.00043703804
-0.00016082272
-0.00038703164
-0.0001618092
-0.00033792661
-0.00014971427
-0.00029358747
-0.00013158302
-0.00025575501
-0.00011090589
-0.00022495472
-9.0149075e-05
-0.00020056465
-7.0659893e-05
-0.00018184711
-5.2961388e-05
-0.00016835771
-3.7299273e-05
-0.0001592071
-2.3500813e-05
-0.00015370231
-1.122946e-05
-0.0001508841
0.0003917761
-5.9186698e-05
0.00025292992
-0.00012073185
0.00013419298
-0.00010428303
7.085507e-05
-9.7051541e-05
6.0128951e-05
-8.6496665e-05
6.5299409e-05
-9.0199594e-05
0.00010550354
-8.7126686e-05
0.00019782965
-7.5855571e-05
0.00033591642
-6.7285287e-05
0.00050130847
-6.7911544e-05
0.00065686133
-9.8101124e-05
0.00076183412
-0.00015751592
0.00074268224
-0.0002433554
0.00060911235
-0.00033742128
0.00046002037
-0.00042794818
0.00031954056
-0.00050071098
0.00016387499
-0.00053889537
1.6943072e-05
-0.00054045917
-8.8831603e-05
-0.00051316632
-0.00015458935
-0.0004672768
-0.00018492602
-0.00041293493
-0.00019043669
-0.00035840432
-0.00017887356
-0.00030876746
-0.00015917015
-0.00026600046
-0.00013567167
-0.00023098936
-0.0001119432
-0.00020316075
-8.95222e-05
-0.00018170251
-6.919325e-05
-0.00016561541
-5.1346915e-05
-0.00015431026
-3.5872813e-05
-0.0001468353
-2.2463378e-05
-0.00014246856
-1.0693692e-05
-0.00014019052
0.00040463441
-5.6116773e-05
0.00026219526
-6.8452046e-05
0.00012432447
-0.00011086336
6.7610695e-05
-0.00010103871
6.0034328e-05
-9.6956996e-05
6.2090004e-05
-8.3287336e-05
9.6182159e-05
-8.0878243e-05
0.00017928278
-6.8579834e-05
0.00031266747
-5.2606641e-05
0.00048625579
-5.2232657e-05
0.00066090229
-7.195263e-05
0.00079366447
-0.00012993167
0.0007998989
-0.00021473286
0.00068257492
-0.00031681827
0.00054276968
-0.00042017089
0.00039938983
-0.00050779775
0.00022290767
-0.00055974397
4.8289844e-05
-0.00057024247
-8.2382385e-05
-0.00054690871
-0.0001678254
-0.00049993056
-0.00021110614
-0.00044109693
-0.00022273582
-0.00038063601
-0.00021225619
-0.00032502186
-0.00019090075
-0.00027703702
-0.00016421685
-0.00023745545
-0.00013697885
-0.00020595387
-0.00011106077
-0.00018162235
-8.7591388e-05
-0.00016330455
-6.7030665e-05
-0.00014993184
-4.9330779e-05
-0.00014085247
-3.4253845e-05
-0.000135045
-2.135557e-05
-0.00013180688
-1.0138404e-05
-0.0001300522
0.00040296594
-5.7076725e-05
0.00026959802
-6.3519539e-05
0.00014243636
-8.6563953e-05
6.1907924e-05
-0.00010516063
5.8852029e-05
-9.9856483e-05
5.9288639e-05
-9.4155686e-05
9.0266937e-05
-7.7372151e-05
0.00015904949
-6.0644955e-05
0.00028691674
-4.2829081e-05
0.00046713612
-3.3486996e-05
0.00066001575
-5.1346291e-05
0.00082026605
-9.8554433e-05
0.00085612233
-0.0001861554
0.00076049098
-0.00029264924
0.00063469484
-0.00040874377
0.00049103039
-0.0005118118
0.00029358471
-0.00057847515
8.9146658e-05
-0.00060060117
-7.0225958e-05
-0.00058239929
-0.00017973068
-0.0005350038
-0.00023941375
-0.00047162329
-0.00025912134
-0.00040471169
-0.00025048685
-0.00034240557
-0.00022739877
-0.00028852403
-0.00019715142
-0.00024410261
-0.00016581335
-0.0002086211
-0.00013574007
-0.00018127473
-0.00010855231
-0.00016066161
-8.4751137e-05
-0.00014558427
-6.4293886e-05
-0.00013496891
-4.7044948e-05
-0.00012806157
-3.2520623e-05
-0.00012388015
-2.0213036e-05
-0.00012173242
-9.564502e-06
-0.00012048781
0.00042032455
-8.1572059e-05
0.00027220899
-5.9687699e-05
0.00014253134
-6.3614529e-05
6.9594186e-05
-9.4250246e-05
5.6476768e-05
-0.00010278547
5.2520394e-05
-9.3088322e-05
7.7860481e-05
-8.1749234e-05
0.00013458049
-5.2903135e-05
0.00025859958
-3.2327803e-05
0.00044518813
-2.0881139e-05
0.00065274229
-2.6213721e-05
0.0008421406
-7.3221088e-05
0.0009101972
-0.00015262967
0.00084191593
-0.00026758073
0.0007352073
-0.00039316208
0.00059465933
-0.00051237307
0.00037731672
-0.00059554417
0.0001409905
-0.00063031941
-5.1243341e-05
-0.00061958426
-0.00018964573
-0.00057248471
-0.00026973167
-0.00050468629
-0.00029998626
-0.00043075872
-0.00029426082
-0.00036093801
-0.00026943361
-0.00030037095
-0.00023510892
-0.00025056672
-0.00019897552
-0.00021094062
-0.00016402994
-0.00018033142
-0.00013249528
-0.00015733194
-0.00010484136
-0.00014057158
-8.1153631e-05
-0.00012872472
-6.1210897e-05
-0.00012080316
-4.4596822e-05
-0.00011598557
-3.0734592e-05
-0.00011335877
-1.9060468e-05
-0.00011223665
-8.9878555e-06
-0.00011150005
0.00041541866
-0.00021693133
0.00031041559
-0.00011977866
0.00014775602
-6.491241e-05
7.5456866e-05
-6.9477258e-05
5.6525553e-05
-9.4299093e-05
4.1698956e-05
-9.1964086e-05
5.9843629e-05
-7.5071496e-05
0.00011051374
-5.7682485e-05
0.00022508824
-1.9391788e-05
0.00041926986
-6.4095636e-06
0.00064114271
-9.2818171e-06
0.00085709776
-4.1171159e-05
0.00096225229
-0.00012527656
0.00092588171
-0.00023659584
0.00084334808
-0.00037572188
0.00071033952
-0.00050884264
0.00047504415
-0.00061010088
0.00020587944
-0.00066043356
-2.3686365e-05
-0.00065787691
-0.00019686395
-0.00061236661
-0.00030168372
-0.00054053323
-0.00034572501
-0.00045894803
-0.00034437881
-0.0003806411
-0.00031790361
-0.0003124683
-0.00027882594
-0.00025665417
-0.00023704108
-0.00021250136
-0.00019645717
-0.00017851358
-0.00015984853
-0.00015297834
-0.00012767207
-0.00013450143
-0.00010020279
-0.00012152262
-7.7098796e-05
-0.00011283703
-5.7899128e-05
-0.00010750105
-4.2069754e-05
-0.00010465062
-2.8936896e-05
-0.00010348254
-1.7918582e-05
-0.0001033061
-8.4346183e-06
-0.00010306554
0.00031003118
-7.2867028e-05
0.00030833728
-0.00021485302
0.00015938371
-0.00013140637
7.3084762e-05
-6.2540344e-05
6.9464451e-05
-8.2416234e-05
3.745047e-05
-9.0050666e-05
3.789942e-05
-7.0019875e-05
8.2283007e-05
-4.6840739e-05
0.0001942514
-2.6845683e-05
0.00039350316
6.3748374e-06
0.00062326148
1.1471385e-05
0.00086774418
-1.9928543e-05
0.001010078
-8.8997297e-05
0.0010114825
-0.00021087776
0.00095857456
-0.00035182268
0.00083737862
-0.00050276129
0.00058771646
-0.00062151528
0.00028481199
-0.00068903387
1.4290572e-05
-0.00069841106
-0.00019961931
-0.00065512221
-0.00033474335
-0.00057930766
-0.00039640812
-0.00048985072
-0.00040165843
-0.00040166891
-0.00037388578
-0.00032465931
-0.00032918788
-0.00026210665
-0.00028067887
-0.00021301662
-0.00023352769
-0.00017543105
-0.00019098569
-0.00014737661
-0.00015358042
-0.00012707021
-0.00012173163
-0.00011297279
-9.4954723e-05
-0.00010366691
-7.275206e-05
-9.7984308e-05
-5.4475033e-05
-9.5095986e-05
-3.9524824e-05
-9.4062895e-05
-2.7155358e-05
-9.4245944e-05
-1.6805625e-05
-9.4935287e-05
-7.9196477e-06
-9.5145977e-05
0.00014499506
0.00048476256
0.00021325129
2.2218949e-05
0.00014663863
-0.00020210798
7.5755942e-05
-0.00013407759
5.0661181e-05
-4.3737131e-05
4.0808997e-05
-8.5774809e-05
2.5023916e-05
-7.7175155e-05
3.0534763e-05
-1.8271623e-05
0.00016078401
-1.3373359e-05
0.00036271442
3.9429735e-06
0.00060154473
2.8091215e-05
0.0008706744
8.5408136e-06
0.0010553257
-6.5176587e-05
0.001097207
-0.0001747222
0.0010789999
-0.00033130344
0.0009760695
-0.00049051384
0.00071501292
-0.00063005802
0.0003798479
-0.00071655156
6.3894039e-05
-0.00073863789
-0.00019654035
-0.00070149075
-0.00036799692
-0.00062186949
-0.00045227761
-0.00052343898
-0.00046738955
-0.00042412028
-0.00043862623
-0.00033692898
-0.0003872412
-0.00026660637
-0.00033063702
-0.0002121488
-0.00027573435
-0.0001708102
-0.00022627783
-0.00014013913
-0.00018289946
-0.00011805778
-0.00014604185
-0.00010276019
-0.00011501662
-9.2911112e-05
-8.9346476e-05
-8.7072714e-05
-6.82431e-05
-8.4216471e-05
-5.1045744e-05
-8.357527e-05
-3.7007142e-05
-8.4211333e-05
-2.5414727e-05
-8.5637046e-05
-1.5733129e-05
-8.7121985e-05
-7.4334765e-06
-8.7712607e-05
-5.7162678e-05
0.0015132329
7.2985362e-06
0.00069071532
6.293925e-05
0.0001059183
8.0878097e-05
-0.00020723016
5.3534147e-05
-0.00013695064
2.6386394e-05
-2.9314592e-05
8.5216808e-06
-6.9272527e-05
3.0345085e-06
-4.967485e-05
0.00010713985
3.5372534e-05
0.00032834686
2.0994155e-05
0.00057824326
2.7244045e-05
0.00086913355
2.963172e-05
0.0010942454
-3.0379235e-05
0.0011825777
-0.00015054755
0.0012043172
-0.00030003971
0.0011230872
-0.00047832134
0.00085874059
-0.00063424167
0.00049164648
-0.00074185692
0.00012828871
-0.00078094676
-0.00018587942
-0.00074929961
-0.00040145923
-0.00066802942
-0.00051439267
-0.00055975542
-0.00054276918
-0.00044806021
-0.00051374121
-0.00034900598
-0.00045432223
-0.00026984847
-0.00038773665
-0.00020950712
-0.00032362636
-0.00016425707
-0.00026609254
-0.00013099574
-0.00021590519
-0.00010713362
-0.00017332626
-9.0773602e-05
-0.00013746852
-8.0308536e-05
-0.00010790003
-7.4357792e-05
-8.3540627e-05
-7.1775431e-05
-6.3744632e-05
-7.1517806e-05
-4.7655164e-05
-7.2927471e-05
-3.4552033e-05
-7.5074235e-05
-2.3733958e-05
-7.7636394e-05
-1.4706163e-05
-7.9849494e-05
-6.9497938e-06
-8.0762898e-05
0.0019031061
7.8591511e-05
-0.000181005
0.0017015364
-0.0001509586
0.00090461313
-5.9960828e-05
0.00024675719
-2.8202891e-07
-0.00015341403
1.6152426e-05
-0.00012671672
4.3796634e-06
-2.5172535e-05
-1.6204503e-05
-5.0033479e-05
6.8192088e-05
-1.0727136e-05
0.00029947468
6.4244769e-05
0.000546087
5.3150106e-05
0.00086568312
3.0694091e-05
0.0011299857
-6.1088334e-06
0.0012652579
-0.00011305974
0.0013317904
-0.00027802075
0.0012803609
-0.00045731345
0.0010136776
-0.0006332584
0.00062359552
-0.00076619095
0.00020863822
-0.0008222069
-0.00016495661
-0.00080187039
-0.0004350097
-0.00071575025
-0.00058343864
-0.00059898464
-0.00062916179
-0.00047336392
-0.00060047848
-0.00036132385
-0.00053181083
-0.00027151808
-0.00045295136
-0.00020463427
-0.00037773469
-0.00015539916
-0.00031077117
-0.00011957873
-0.00025277428
-9.4126902e-05
-0.00020373664
-7.6723489e-05
-0.00016252279
-6.5719579e-05
-0.00012852226
-5.9686536e-05
-0.00010051108
-5.7387583e-05
-7.7753028e-05
-5.7767277e-05
-5.9300453e-05
-5.9872761e-05
-4.434862e-05
-6.3131096e-05
-3.217514e-05
-6.6633279e-05
-2.2117203e-05
-7.0225554e-05
-1.3723315e-05
-7.3076151e-05
-6.4546993e-06
-7.4308298e-05
0.001581784
0.00014031713
0.0019459014
0.00018245803
-0.00018197892
0.0017325568
-0.00028804102
0.0011326933
-0.00018946938
0.00043594448
-6.7312444e-05
-6.994923e-05
-3.33843e-05
-8.8952675e-05
-2.2943087e-05
-1.8433885e-05
3.8534214e-05
-2.0375755e-05
0.00025867652
3.0070958e-05
0.00049706057
0.0001132709
0.00085350679
6.532628e-05
0.0011636942
-3.0145393e-06
0.0013459802
-8.6831288e-05
0.0014622059
-0.00024347523
0.001441148
-0.00043880787
0.0011865159
-0.00063015168
0.00077151074
-0.00078117383
0.00030911765
-0.00086667079
-0.00013550325
-0.00085166109
-0.0004684843
-0.000768397
-0.00065973833
-0.00063945195
-0.0007278832
-0.00050026458
-0.00070116226
-0.00037268131
-0.00062176009
-0.00027137549
-0.00052740236
-0.00019706775
-0.00043866425
-0.00014370518
-0.00036054785
-0.00010562282
-0.00029364037
-7.8712913e-05
-0.0002373408
-6.0522999e-05
-0.00019022858
-4.9017946e-05
-0.00015131489
-4.2927211e-05
-0.00011923072
-4.096718e-05
-9.3197726e-05
-4.194314e-05
-7.2043035e-05
-4.502496e-05
-5.4970432e-05
-4.9251186e-05
-4.1156695e-05
-5.4149771e-05
-2.9891461e-05
-5.8859232e-05
-2.0563057e-05
-6.3385986e-05
-1.277182e-05
-6.6759223e-05
-5.9542027e-06
-6.8354176e-05
0.0012732128
0.00012659228
0.0016826435
0.00040357508
0.0015704602
-6.0510738e-05
-0.00028117428
0.00172569
-0.00040791629
0.0013511402
-0.00028740892
0.0006560409
-0.00011167609
8.3426187e-06
-6.7062733e-05
-4.4832963e-05
8.2499562e-06
1.1850184e-05
0.00019651451
4.1786155e-05
0.00045703878
7.0092313e-05
0.000775528
0.00019124925
0.0011874757
4.1544974e-05
0.0014099975
-6.7031765e-05
0.001591687
-0.0002163122
0.0016126972
-0.00041502431
0.0013637671
-0.00061605905
0.00094868622
-0.00080732737
0.0004284422
-0.00090049881
-8.9380912e-05
-0.00091279401
-0.00050340114
-0.00081674561
-0.00074252757
-0.00068560932
-0.00083956735
-0.0005277694
-0.0008175431
-0.00038388518
-0.00072579612
-0.00026864645
-0.00061285392
-0.00018592481
-0.00050699554
-0.00012873708
-0.00041566135
-8.8592133e-05
-0.00033848973
-6.0773791e-05
-0.00027409879
-4.1955196e-05
-0.00022053882
-3.0213029e-05
-0.00017627947
-2.4053646e-05
-0.00013977995
-2.2378252e-05
-0.0001101025
-2.4062672e-05
-8.5949402e-05
-2.8037049e-05
-6.651492e-05
-3.3480734e-05
-5.0799304e-05
-3.9608832e-05
-3.8091667e-05
-4.5949782e-05
-2.7746351e-05
-5.1676164e-05
-1.9069171e-05
-5.7088828e-05
-1.1831193e-05
-6.0882409e-05
-5.4941851e-06
-6.2860085e-05
0.00092939305
6.2645424e-05
0.00140446
0.00040477573
0.0018386319
0.00013540332
0.00048906318
-0.00024099795
-0.0004006099
0.0017183835
-0.00050302543
0.0015667566
-0.00033742208
0.00088178699
-0.00019701194
0.00013829195
-4.7784081e-05
1.120079e-05
0.00012373954
8.4624954e-05
0.00038927342
0.00010955121
0.00072030663
0.00012531285
0.0011390364
0.00023968868
0.00147702
-2.5478085e-05
0.0016607142
-0.00013605874
0.0017798282
-0.00038344317
0.0015623336
-0.0006135908
0.0011353212
-0.00080269443
0.00057861075
-0.0009574965
-3.3077051e-05
-0.00095680364
-0.0005365921
-0.00087960456
-0.00083081802
-0.00072845686
-0.00096432084
-0.00056085763
-0.00095130752
-0.00039400664
-0.00084611456
-0.00026356813
-0.00071015113
-0.00017135037
-0.00058310419
-0.00010981698
-0.00047630008
-6.809891e-05
-0.00038720701
-3.9875234e-05
-0.00031381733
-2.1055549e-05
-0.00025326996
-9.2243378e-06
-0.00020333336
-3.1594281e-06
-0.00016208976
-1.7441399e-06
-0.0001284815
-3.9995559e-06
-0.00010104281
-8.969574e-06
-7.901321e-05
-1.5539039e-05
-6.1185523e-05
-2.3094796e-05
-4.6833177e-05
-3.0867568e-05
-3.5218161e-05
-3.8478204e-05
-2.566591e-05
-4.5079638e-05
-1.7669771e-05
-5.1250419e-05
-1.1066479e-05
-5.5310303e-05
-5.2560847e-06
-5.7604076e-05
0.00060289179
-7.4108691e-05
0.0010522013
0.00041490409
0.0019212352
0.00032217243
0.00073725284
-0.00011278635
-7.305778e-05
-0.0003421026
-0.00050266864
0.0017180266
-0.00053302051
0.0017623551
-0.00040047904
0.0010852543
-0.00022619151
0.00031669909
4.8564658e-05
8.6375359e-05
0.00030527067
0.0001686275
0.00065070879
0.00017914809
0.0010933106
0.00017103857
0.0014895197
0.00022718873
0.0017833966
-0.00014816148
0.0019870254
-0.00034325599
0.0017517524
-0.00057286223
0.0013656652
-0.00084393546
0.00074148951
-0.00096557408
4.8772331e-05
-0.0010393471
-0.0005733886
-0.00092000895
-0.00092636045
-0.000784064
-0.001101928
-0.00059085166
-0.0011061378
-0.00040602923
-0.00098401135
-0.00025611144
-0.00082215293
-0.00015156765
-0.00066796318
-8.6492373e-05
-0.00054250369
-4.3614062e-05
-0.00043957989
-1.5726505e-05
-0.00035610707
2.4141656e-06
-0.00028810314
1.3777342e-05
-0.00023219455
1.9636559e-05
-0.00018606728
2.081779e-05
-0.00014823855
1.8012581e-05
-0.00011734652
1.230383e-05
-9.2432799e-05
4.4497162e-06
-7.2295858e-05
-4.4290042e-06
-5.6148497e-05
-1.3779753e-05
-4.3058082e-05
-2.3027909e-05
-3.247761e-05
-3.1666722e-05
-2.3743743e-05
-3.9005891e-05
-1.6818694e-05
-4.5498386e-05
-1.0259947e-05
-5.0306614e-05
-4.8344384e-06
-5.2769725e-05
0.00033955506
-0.00023933199
0.00065924169
0.0003188509
0.0018985551
0.00043758424
0.00099276463
6.6660632e-05
2.2439113e-05
-0.00020828324
-0.00023070555
-0.00034604177
-0.00054891435
0.0017339206
-0.00056469423
0.0019265705
-0.0003985354
0.0012575978
-0.00013930875
0.00050457196
0.00021906782
0.00017257823
0.00057774866