/*--------------------------------*- C++ -*----------------------------------*\
| =========                 |                                                 |
| \\      /  F ield         | OpenFOAM: The Open Source CFD Toolbox           |
|  \\    /   O peration     | Version:  5.0                                   |
|   \\  /    A nd           | Web:      www.OpenFOAM.org                      |
|    \\/     M anipulation  |                                                 |
\*---------------------------------------------------------------------------*/
FoamFile
{
    version     2.0;
    format      ascii;
    class       volVectorField;
    location    "40";
    object      ddtCorrDdt0(U);
}
// * * * * * * * * * * * * * * * * * * * * * * * * * * * * * * * * * * * * * //

dimensions      [0 1 -2 0 0 0 0];

internalField   nonuniform List<vector> 
9520
(
(8.2985732e-05 -1.3001795e-06 0)
(8.581497e-05 -4.0954741e-06 0)
(8.5586667e-05 1.7378679e-06 0)
(9.0915264e-05 -7.2095441e-06 0)
(8.9106113e-05 4.5222406e-06 0)
(8.0891776e-05 4.964477e-06 0)
(9.781741e-05 -1.113526e-05 0)
(9.5588325e-05 6.3545572e-06 0)
(8.4968702e-05 1.3496546e-05 0)
(6.8385151e-05 9.6464044e-06 0)
(0.00010604024 -1.5941748e-05 0)
(0.00010452811 6.7419982e-06 0)
(9.2298311e-05 1.9790804e-05 0)
(7.4452031e-05 2.6400043e-05 0)
(5.2204856e-05 1.1343553e-05 0)
(0.00011516457 -2.1939414e-05 0)
(0.00011546068 5.6300188e-06 0)
(0.00010240636 2.3382437e-05 0)
(8.4833371e-05 3.8710947e-05 0)
(6.0652528e-05 3.1017428e-05 0)
(3.6413798e-05 7.6237407e-06 0)
(0.00012489962 -2.9006558e-05 0)
(0.00012782046 2.603132e-06 0)
(0.00011491205 2.453175e-05 0)
(9.8424493e-05 4.6057805e-05 0)
(7.4622385e-05 4.5254417e-05 0)
(4.784633e-05 2.0896712e-05 0)
(3.0304665e-05 -1.619696e-06 0)
(0.00013493487 -3.7238399e-05 0)
(0.00014117482 -2.166629e-06 0)
(0.00012916446 2.3097478e-05 0)
(0.00011453567 4.9229227e-05 0)
(9.2085738e-05 5.3434546e-05 0)
(6.6495226e-05 3.042776e-05 0)
(4.2503795e-05 -4.4540163e-06 0)
(4.0404387e-05 -1.358207e-05 0)
(0.00014508659 -4.6533976e-05 0)
(0.00015519969 -8.6795494e-06 0)
(0.00014454434 1.9354011e-05 0)
(0.00013253093 4.8797769e-05 0)
(0.00011180005 5.6382383e-05 0)
(8.9429124e-05 3.5456282e-05 0)
(6.2615839e-05 -6.8822278e-06 0)
(5.1159042e-05 -3.8101112e-05 0)
(6.5347896e-05 -2.4028816e-05 0)
(0.00015526117 -5.6774599e-05 0)
(0.00016952699 -1.6701301e-05 0)
(0.00016061269 1.3554667e-05 0)
(0.00015155237 4.5280764e-05 0)
(0.00013319256 5.5203501e-05 0)
(0.00011437383 3.5793873e-05 0)
(8.7870507e-05 -9.5822683e-06 0)
(6.9601722e-05 -5.8335965e-05 0)
(7.419155e-05 -6.8437557e-05 0)
(0.00010279745 -3.0767724e-05 0)
(0.00016541767 -6.7915486e-05 0)
(0.00018395223 -2.5934202e-05 0)
(0.00017683483 6.1004676e-06 0)
(0.00017109331 3.9322565e-05 0)
(0.00015577229 5.0581691e-05 0)
(0.00014046977 3.2336506e-05 0)
(0.0001154812 -1.4246058e-05 0)
(9.4451817e-05 -7.4550218e-05 0)
(9.0013767e-05 -0.00010688916 0)
(0.00011003967 -8.8830401e-05 0)
(0.00014336721 -3.144816e-05 0)
(0.00017548985 -7.9503753e-05 0)
(0.00019817887 -3.6073926e-05 0)
(0.00019280023 -2.5226775e-06 0)
(0.00019041893 3.1623825e-05 0)
(0.00017841666 4.3592861e-05 0)
(0.00016621393 2.6003182e-05 0)
(0.00014410798 -2.1061327e-05 0)
(0.00012334003 -8.9104389e-05 0)
(0.00011272784 -0.00013914175 0)
(0.00012339665 -0.00014135696 0)
(0.00015010552 -9.1582187e-05 0)
(0.00018013322 -2.6532246e-05 0)
(0.00018543238 -9.176643e-05 0)
(0.00021203427 -4.6459627e-05 0)
(0.00020802785 -1.1809849e-05 0)
(0.00020896173 2.2782536e-05 0)
(0.00020019131 3.5085057e-05 0)
(0.00019097794 1.7684226e-05 0)
(0.00017267981 -2.9897233e-05 0)
(0.0001540615 -0.00010335121 0)
(0.00014081494 -0.00016671304 0)
(0.00014306772 -0.00018797171 0)
(0.00016289959 -0.00014752605 0)
(0.00018681589 -7.7730426e-05 0)
(0.00020698045 -1.8427103e-05 0)
(0.00019499433 -0.00010362844 0)
(0.00022510681 -5.7266795e-05 0)
(0.00022228949 -2.1196681e-05 0)
(0.00022628283 1.3288514e-05 0)
(0.00022062662 2.5563646e-05 0)
(0.00021450916 7.960508e-06 0)
(0.00020031824 -4.0537362e-05 0)
(0.00018503647 -0.00011790581 0)
(0.00017169538 -0.00019128448 0)
(0.00016849672 -0.00022846807 0)
(0.00018126644 -0.00019962591 0)
(0.00020005338 -0.0001260838 0)
(0.0002138285 -5.449684e-05 0)
(0.00022287639 -1.0066928e-05 0)
(0.00020395385 -0.00011607808 0)
(0.00023719216 -6.7064854e-05 0)
(0.00023514988 -3.0677572e-05 0)
(0.00024220144 3.4723332e-06 0)
(0.00023942093 1.5462202e-05 0)
(0.00023641968 -2.7200092e-06 0)
(0.00022644172 -5.2555886e-05 0)
(0.00021510054 -0.00013314607 0)
(0.00020359516 -0.00021402986 0)
(0.00019763338 -0.00026412708 0)
(0.00020484427 -0.00024674289 0)
(0.0002187356 -0.00017272589 0)
(0.00022778104 -8.9080887e-05 0)
(0.00023015687 -3.0378036e-05 0)
(0.00022993478 -3.7918098e-06 0)
(0.00021241626 -0.00012720943 0)
(0.0002482418 -7.7605751e-05 0)
(0.00024684947 -3.9298828e-05 0)
(0.0002565351 -6.5914772e-06 0)
(0.00025648049 4.9910351e-06 0)
(0.0002565915 -1.3866914e-05 0)
(0.000250729 -6.5491767e-05 0)
(0.0002434725 -0.00014906178 0)
(0.00023510266 -0.00023594852 0)
(0.00022882321 -0.00029631369 0)
(0.00023255713 -0.00028941621 0)
(0.00024222774 -0.00021695202 0)
(0.0002474846 -0.00012324414 0)
(0.00024493799 -5.0466486e-05 0)
(0.00023790883 -1.2128656e-05 0)
(0.00023147609 3.474019e-07 0)
(0.00021965282 -0.00013940415 0)
(0.00025841582 -8.5966856e-05 0)
(0.00025747476 -4.8844098e-05 0)
(0.0002699049 -1.6524432e-05 0)
(0.00027197965 -5.632856e-06 0)
(0.00027514744 -2.5278331e-05 0)
(0.0002730086 -7.8657189e-05 0)
(0.0002693589 -0.00016531177 0)
(0.00026480365 -0.00025748289 0)
(0.000260496 -0.00032634186 0)
(0.00026312846 -0.00032878745 0)
(0.00027017813 -0.00025875584 0)
(0.00027188027 -0.00015714551 0)
(0.00026600565 -7.0957603e-05 0)
(0.00025372149 -2.1102323e-05 0)
(0.00024003208 2.7027503e-07 0)
(0.00022980815 2.8378916e-06 0)
(0.00022688615 -0.00014964826 0)
(0.00026771359 -9.6394234e-05 0)
(0.00026757177 -5.6337739e-05 0)
(0.00028200057 -2.7169408e-05 0)
(0.00028655805 -1.6126031e-05 0)
(0.00029225765 -3.6324681e-05 0)
(0.00029288499 -9.1553728e-05 0)
(0.00029180862 -0.00018106681 0)
(0.00029122783 -0.00027869684 0)
(0.00029108034 -0.00035521629 0)
(0.00029528909 -0.00036605836 0)
(0.00030158942 -0.00029897097 0)
(0.00030096662 -0.00019064546 0)
(0.00029214904 -9.2671985e-05 0)
(0.00027629655 -3.0858065e-05 0)
(0.000256359 -5.0405054e-07 0)
(0.00023869208 7.9522984e-06 0)
(0.00022559273 4.605167e-06 0)
(0.00023236466 -0.00016159921 0)
(0.00027705263 -0.00010341916 0)
(0.00027728463 -6.6772138e-05 0)
(0.00029401443 -3.640913e-05 0)
(0.00029991966 -2.6587413e-05 0)
(0.00030790583 -4.6651573e-05 0)
(0.00030952324 -0.00010292633 0)
(0.00030974902 -0.00019572178 0)
(0.00031337218 -0.00029940046 0)
(0.00031936356 -0.00038396331 0)
(0.00032782563 -0.00040247172 0)
(0.00033543588 -0.00033827118 0)
(0.000334289 -0.00022448186 0)
(0.00032331883 -0.00011564188 0)
(0.00030410039 -4.2131099e-05 0)
(0.00027967037 -1.8466914e-06 0)
(0.00025537619 1.2566344e-05 0)
(0.00023442531 1.3552298e-05 0)
(0.00022128261 6.0408908e-06 0)
(0.00023905101 -0.00017155116 0)
(0.0002860053 -0.0001143704 0)
(0.00028760144 -7.2936364e-05 0)
(0.00030473897 -4.7464564e-05 0)
(0.00031279726 -3.5463879e-05 0)
(0.00032107756 -5.5404936e-05 0)
(0.00032207847 -0.00011237778 0)
(0.00032249877 -0.00020824083 0)
(0.00033103246 -0.00031990005 0)
(0.00034486331 -0.00041342634 0)
(0.00035963033 -0.00043918168 0)
(0.0003704599 -0.00037737381 0)
(0.00037053714 -0.0002587868 0)
(0.00035898381 -0.00013979176 0)
(0.000337431 -5.5306414e-05 0)
(0.00030938413 -4.2486497e-06 0)
(0.00027914283 1.6951606e-05 0)
(0.00025083591 2.2353012e-05 0)
(0.00022994122 1.80197e-05 0)
(0.00021448225 7.3907022e-06 0)
(0.00024391963 -0.00018392865 0)
(0.00029642226 -0.00012072927 0)
(0.00029797864 -8.4688068e-05 0)
(0.00031617179 -5.4181029e-05 0)
(0.00032337757 -4.4684608e-05 0)
(0.00033162145 -6.1910952e-05 0)
(0.0003299584 -0.00011876213 0)
(0.00033068891 -0.00021944003 0)
(0.00034495966 -0.00034035881 0)
(0.00036753356 -0.00044440358 0)
(0.00038947875 -0.00047667545 0)
(0.00040509623 -0.00041675586 0)
(0.00040848727 -0.00029401392 0)
(0.00039812972 -0.00016550655 0)
(0.00037556488 -6.9911017e-05 0)
(0.00034414191 -8.4384752e-06 0)
(0.00030922161 2.1170519e-05 0)
(0.00027426552 3.1243145e-05 0)
(0.00024589291 3.0132736e-05 0)
(0.00022269108 2.210881e-05 0)
(0.00020759509 8.6647368e-06 0)
(0.00025143291 -0.00019364629 0)
(0.00030683547 -0.00013232862 0)
(0.00030997863 -8.8700871e-05 0)
(0.00032535414 -6.479061e-05 0)
(0.00033331195 -4.9460191e-05 0)
(0.00033766307 -6.667718e-05 0)
(0.00033418612 -0.00012293186 0)
(0.00033562252 -0.0002286083 0)
(0.00035617614 -0.00036207111 0)
(0.00038701667 -0.00047643466 0)
(0.00041577491 -0.00051485582 0)
(0.00043740256 -0.00045661498 0)
(0.00044676439 -0.00033086468 0)
(0.00044027503 -0.00019342282 0)
(0.00041798466 -8.6922628e-05 0)
(0.00038432391 -1.4250676e-05 0)
(0.0003451991 2.4089946e-05 0)
(0.00030443663 4.0460907e-05 0)
(0.00026863763 4.2526998e-05 0)
(0.00023812297 3.7213649e-05 0)
(0.00021536834 2.5958563e-05 0)
(0.00019957876 9.8605484e-06 0)
(0.00025459026 -0.00020736892 0)
(0.00031904403 -0.00013858504 0)
(0.00032148465 -0.00010124142 0)
(0.00033613233 -6.6907233e-05 0)
(0.00033913534 -5.6806202e-05 0)
(0.00034196858 -6.7847898e-05 0)
(0.00033527261 -0.00012512025 0)
(0.00033966228 -0.00023826966 0)
(0.00036502911 -0.00038310014 0)
(0.00040176071 -0.00050891099 0)
(0.00043638781 -0.00055212905 0)
(0.0004653873 -0.0004972255 0)
(0.00048406787 -0.00037023854 0)
(0.00048456471 -0.00022470713 0)
(0.00046447538 -0.00010674376 0)
(0.00042961437 -2.2815779e-05 0)
(0.00038705479 2.5569543e-05 0)
(0.00034096986 4.9296753e-05 0)
(0.0002982001 5.5589232e-05 0)
(0.00025980347 5.3038154e-05 0)
(0.00022989416 4.371354e-05 0)
(0.00020682661 2.9597512e-05 0)
(0.00019097225 1.0951252e-05 0)
(0.00026662188 -0.00021646326 0)
(0.00032953559 -0.00015002489 0)
(0.00033444476 -0.000101782 0)
(0.00034260941 -7.650908e-05 0)
(0.00034588778 -5.5909395e-05 0)
(0.000341964 -7.0039322e-05 0)
(0.00033716932 -0.00012622567 0)
(0.00034286719 -0.00024647515 0)
(0.00037151606 -0.00040485758 0)
(0.00041024309 -0.00053841238 0)
(0.00044905537 -0.00058826189 0)
(0.00048762634 -0.00053846881 0)
(0.00051914727 -0.00041334802 0)
(0.00053010442 -0.00026036511 0)
(0.00051442066 -0.00013047272 0)
(0.00048001812 -3.4500178e-05 0)
(0.00043506155 2.4517342e-05 0)
(0.00038408341 5.7362418e-05 0)
(0.00033412203 6.9310892e-05 0)
(0.00028815662 6.9910332e-05 0)
(0.00025097117 6.2684499e-05 0)
(0.00022020099 4.9884975e-05 0)
(0.00019762864 3.28745e-05 0)
(0.00018183723 1.189408e-05 0)
(0.00026766682 -0.00023193785 0)
(0.00034681065 -0.00015690365 0)
(0.00034426544 -0.00011416306 0)
(0.00035215628 -7.2585579e-05 0)
(0.00034694022 -6.2373557e-05 0)
(0.00034498678 -6.6900909e-05 0)
(0.00033787507 -0.00012820865 0)
(0.00034718042 -0.00025532317 0)
(0.00037362525 -0.00042148686 0)
(0.0004108661 -0.00056526106 0)
(0.00045289095 -0.00062105586 0)
(0.00050308809 -0.0005821639 0)
(0.00055108084 -0.00046107426 0)
(0.00057564462 -0.00030150721 0)
(0.00056691598 -0.00015896727 0)
(0.00053538381 -5.0327871e-05 0)
(0.00048911378 2.0386948e-05 0)
(0.00043387061 6.405494e-05 0)
(0.00037704211 8.3224529e-05 0)
(0.00032294474 8.8332531e-05 0)
(0.00027763669 8.3150174e-05 0)
(0.00023930379 7.1651532e-05 0)
(0.00020994704 5.5494989e-05 0)
(0.00018785788 3.5700423e-05 0)
(0.00017237946 1.2654819e-05 0)
(0.00028679779 -0.00024020633 0)
(0.00035921558 -0.00016632627 0)
(0.00036196451 -0.00011099484 0)
(0.00035453431 -8.2331901e-05 0)
(0.00035311727 -5.5916534e-05 0)
(0.00034436161 -7.0780534e-05 0)
(0.00034321408 -0.00012784682 0)
(0.00034876561 -0.00026140326 0)
(0.0003716945 -0.00043660935 0)
(0.00040316654 -0.00058424702 0)
(0.00044764324 -0.00065310496 0)
(0.00051158654 -0.00062733315 0)
(0.00057892095 -0.00051504124 0)
(0.00062004143 -0.00034888993 0)
(0.0006209843 -0.00019322023 0)
(0.00059515009 -7.1563008e-05 0)
(0.00054971003 1.2422273e-05 0)
(0.00049058315 6.8369385e-05 0)
(0.00042697739 9.7405862e-05 0)
(0.00036431974 0.00010791938 0)
(0.00031065517 0.00010575004 0)
(0.00026397084 9.5582313e-05 0)
(0.00022740726 7.9729249e-05 0)
(0.00019889688 6.0302354e-05 0)
(0.00017773417 3.8008399e-05 0)
(0.00016276195 1.3228322e-05 0)
(0.00027849315 -0.00025851444 0)
(0.00037828642 -0.00017598538 0)
(0.00037245605 -0.00012181789 0)
(0.00036849728 -7.2131142e-05 0)
(0.00035093467 -6.5042561e-05 0)
(0.00035081663 -6.4094248e-05 0)
(0.00034509762 -0.00013188144 0)
(0.00035187205 -0.00026498045 0)
(0.00036278799 -0.00044195427 0)
(0.00038777047 -0.00060074695 0)
(0.00043460862 -0.00068080657 0)
(0.00051273301 -0.00067769724 0)
(0.00060134795 -0.00057388149 0)
(0.00066108768 -0.00040288257 0)
(0.00067512167 -0.00023413505 0)
(0.00065872663 -9.952475e-05 0)
(0.00061697026 -8.9670915e-07 0)
(0.00055528065 7.004229e-05 0)
(0.00048469804 0.00011057276 0)
(0.00041371443 0.00012928288 0)
(0.00034982327 0.00013055463 0)
(0.00029438107 0.00012218026 0)
(0.00025032502 0.00010668177 0)
(0.0002144797 8.6725512e-05 0)
(0.00018746988 6.4226844e-05 0)
(0.00016742748 3.9771502e-05 0)
(0.00015313977 1.3632853e-05 0)
(0.00032385274 -0.00026421047 0)
(0.00039997168 -0.00018147745 0)
(0.00039074883 -0.0001182161 0)
(0.00037000077 -8.3038318e-05 0)
(0.00036372467 -5.334648e-05 0)
(0.00035060254 -7.318497e-05 0)
(0.00035362945 -0.00012680876 0)
(0.00034807593 -0.00026583864 0)
(0.00035155117 -0.00044505753 0)
(0.00036518765 -0.00060676642 0)
(0.00041395276 -0.00071016325 0)
(0.00050624698 -0.000727731 0)
(0.00061597892 -0.00063976846 0)
(0.00069682388 -0.00046262526 0)
(0.00072766637 -0.0002829873 0)
(0.00072556539 -0.00013599284 0)
(0.00069124424 -2.0996479e-05 0)
(0.00062866414 6.7762967e-05 0)
(0.00055089822 0.00012283888 0)
(0.00047035391 0.00015169035 0)
(0.00039617238 0.00015826199 0)
(0.00033055883 0.00015210851 0)
(0.00027784077 0.00013673843 0)
(0.00023444762 0.00011612664 0)
(0.0002011261 9.2461715e-05 0)
(0.00017581191 6.7212511e-05 0)
(0.00015711257 4.1004028e-05 0)
(0.00014364092 1.3882871e-05 0)
(0.00038837064 -0.00028538655 0)
(0.00042015853 -0.00019339852 0)
(0.00039820135 -0.00012191851 0)
(0.00038538052 -6.8495719e-05 0)
(0.00036132058 -6.6311749e-05 0)
(0.00036458689 -6.112249e-05 0)
(0.00035383576 -0.00013438799 0)
(0.00034896504 -0.00025876487 0)
(0.0003317802 -0.00043787837 0)
(0.00033854694 -0.00061328913 0)
(0.00038658153 -0.00073294091 0)
(0.00049034404 -0.00078299921 0)
(0.00062112434 -0.00070666477 0)
(0.00072453591 -0.00053018292 0)
(0.00077773002 -0.0003407403 0)
(0.00079565837 -0.00018323775 0)
(0.00077307846 -4.9877776e-05 0)
(0.00071118322 6.0439256e-05 0)
(0.00062648486 0.00013357878 0)
(0.00053570786 0.00017487908 0)
(0.00045021526 0.00018902777 0)
(0.00037304435 0.00018572869 0)
(0.00031056313 0.00017088897 0)
(0.00025857392 0.00014920454 0)
(0.00021854788 0.00012381187 0)
(0.00018748537 9.6799333e-05 0)
(0.00016415136 6.9280194e-05 0)
(0.00014693412 4.1739885e-05 0)
(0.00013437291 1.3978404e-05 0)
(0.00040287241 -0.00028466692 0)
(0.00050349908 -0.00019503846 0)
(0.00042551266 -0.0001238921 0)
(0.00039001252 -7.8111842e-05 0)
(0.00038117451 -5.1787596e-05 0)
(0.0003649936 -7.5788046e-05 0)
(0.00036539084 -0.00011882909 0)
(0.00033787244 -0.00025611103 0)
(0.00031570295 -0.00042718569 0)
(0.00030482903 -0.00060824929 0)
(0.00035279549 -0.00075865698 0)
(0.00046473555 -0.00083326133 0)
(0.00061440997 -0.00078013952 0)
(0.00074348527 -0.00060212116 0)
(0.00082372921 -0.00041066027 0)
(0.00086871976 -0.0002429724 0)
(0.00086247063 -8.9168572e-05 0)
(0.0008034215 4.6798028e-05 0)
(0.00071263722 0.00014185334 0)
(0.00061131642 0.00019892656 0)
(0.00051245138 0.00022242301 0)
(0.00042309746 0.00022407079 0)
(0.00034861344 0.00020958357 0)
(0.00028705919 0.00018692195 0)
(0.00023966959 0.00015925542 0)
(0.00020212001 0.00012959728 0)
(0.00017384335 9.9770817e-05 0)
(0.00015265169 7.050877e-05 0)
(0.00013700728 4.2038226e-05 0)
(0.00012541954 1.3938648e-05 0)
(0.00039088309 -0.00031621732 -2.8243992e-26)
(0.00054110595 -0.00020970464 0)
(0.00049880809 -0.00011877255 0)
(0.00040714369 -6.8633201e-05 0)
(0.00038625957 -6.6871679e-05 0)
(0.00038453636 -5.8698943e-05 0)
(0.0003633492 -0.00013116546 0)
(0.00033763596 -0.0002336265 0)
(0.00028767291 -0.00041279527 0)
(0.00027375837 -0.00060410194 0)
(0.00031085338 -0.0007737265 0)
(0.00042840053 -0.00088684968 0)
(0.00059567046 -0.00085140269 0)
(0.00075207801 -0.0006843993 0)
(0.00086567063 -0.00049107171 0)
(0.0009433456 -0.00031822772 0)
(0.00095901199 -0.0001403485 0)
(0.00090572553 2.5598765e-05 0)
(0.00081034541 0.00014672179 0)
(0.00069820537 0.0002232811 0)
(0.00058464024 0.00025915441 0)
(0.00048070439 0.00026710112 0)
(0.00039277004 0.00025409751 0)
(0.00031990049 0.00023004954 0)
(0.00026391761 0.00019963334 0)
(0.00021934574 0.00016666235 0)
(0.00018578838 0.00013353625 0)
(0.00016039577 0.000101487 0)
(0.00014145006 7.1004132e-05 0)
(0.00012741479 4.1983354e-05 0)
(0.00011683459 1.3823192e-05 0)
(0.0002409253 -0.00031895487 -6.4484508e-26)
(0.00063144302 -0.00019814715 2.9497804e-26)
(0.00055439414 -0.00012086184 0)
(0.00047913173 -6.8383112e-05 0)
(0.00039772721 -5.4377272e-05 0)
(0.00039192732 -7.4780029e-05 0)
(0.00037506073 -0.00010405045 0)
(0.00032244631 -0.00023276992 0)
(0.00027108118 -0.0003854047 0)
(0.00023130016 -0.00059308691 0)
(0.00026831024 -0.00079101458 0)
(0.00038021706 -0.00093142161 0)
(0.00056394121 -0.00092743871 0)
(0.00075026713 -0.00077155048 0)
(0.00090163736 -0.00058767982 0)
(0.0010189546 -0.00040721361 0)
(0.001061435 -0.00020556146 0)
(0.0010185713 -4.9442163e-06 0)
(0.00092101083 0.00014686399 0)
(0.00079808648 0.00024736789 0)
(0.00066810432 0.0002992602 0)
(0.00054682454 0.00031556315 0)
(0.00044305426 0.00030500275 0)
(0.00035765805 0.00027969448 0)
(0.00029144692 0.00024595988 0)
(0.00023898739 0.00020899053 0)
(0.00019984415 0.00017176566 0)
(0.00016967384 0.00013574765 0)
(0.00014731804 0.00010211655 0)
(0.00013064639 7.0877246e-05 0)
(0.00011821888 4.1660961e-05 0)
(0.0001086432 1.3683316e-05 0)
(0.00020354541 -0.00035955361 6.4737096e-26)
(0.0003103031 -0.00025801027 7.5654535e-26)
(0.00056067114 -0.00011858778 0)
(0.00053422748 -6.1366972e-05 0)
(0.00047118652 -6.0162417e-05 0)
(0.00039279698 -5.7235739e-05 0)
(0.00037930957 -0.00011696698 0)
(0.00032055545 -0.00019479317 0)
(0.00024138807 -0.00037352098 0)
(0.00020023579 -0.00057258789 0)
(0.0002115594 -0.00079760283 0)
(0.00032706978 -0.00097673162 0)
(0.000517792 -0.0010016907 0)
(0.00073681978 -0.00086668747 0)
(0.00093059864 -0.00069614363 0)
(0.001092732 -0.00051630156 0)
(0.001169638 -0.00028444085 0)
(0.0011420787 -4.6846983e-05 0)
(0.0010462052 0.00014055048 0)
(0.00091287269 0.00027048816 0)
(0.00076441011 0.00034291153 0)
(0.00062293614 0.0003702631 0)
(0.00050093541 0.00036315168 0)
(0.00040105838 0.00033696685 0)
(0.00032238489 0.0002992605 0)
(0.0002608181 0.00025758686 0)
(0.00021514092 0.00021521797 0)
(0.00018004482 0.00017440498 0)
(0.00015405173 0.00013647239 0)
(0.00013473323 0.0001018397 0)
(0.00012031402 7.0245969e-05 0)
(0.00010946694 4.1124513e-05 0)
(0.00010085847 1.3501533e-05 0)
(0.00027615809 -0.00032027298 0)
(0.00032766413 -0.00020776802 -7.5775759e-26)
(0.00037707198 -0.00011662912 0)
(0.00052595412 -7.2001903e-05 0)
(0.00052453385 -5.8929888e-05 0)
(0.000475129 -6.5142378e-05 0)
(0.00036842767 -8.7644244e-05 0)
(0.00031204039 -0.00019263237 0)
(0.00022429102 -0.00032652878 0)
(0.0001540029 -0.0005653836 0)
(0.0001642681 -0.00079708855 0)
(0.0002544618 -0.0010127538 0)
(0.0004637866 -0.0010746959 0)
(0.00070886915 -0.00097227634 0)
(0.00095015999 -0.0008158951 0)
(0.0011631271 -0.00063892873 0)
(0.0012810235 -0.00038357418 0)
(0.0012774633 -0.00010185294 0)
(0.0011871126 0.0001262345 0)
(0.001044203 0.00029182302 0)
(0.00087517862 0.00039029715 0)
(0.00071043477 0.00043195568 0)
(0.00056707807 0.00042975757 0)
(0.00044936953 0.00040273379 0)
(0.00035642908 0.00036075917 0)
(0.00028475781 0.00031345567 0)
(0.00023155149 0.00026498704 0)
(0.00019096428 0.00021837338 0)
(0.00016132047 0.00017521058 0)
(0.00013905193 0.00013593625 0)
(0.00012272995 0.0001008339 0)
(0.00011050186 6.9235181e-05 0)
(0.00010118437 4.0398822e-05 0)
(9.3496658e-05 1.3221236e-05 0)
(0.00030133996 -0.00039086934 -4.7365831e-26)
(0.00028434965 -0.00026459937 0)
(0.00030577179 -0.00013061653 3.1789236e-25)
(0.00046273219 -5.0784099e-05 0)
(0.00051938571 -5.4489949e-05 0)
(0.00051732664 -5.9333561e-05 0)
(0.00044650991 -9.1995264e-05 0)
(0.00033635406 -0.00015613741 0)
(0.00020233845 -0.0003243669 0)
(0.0001215777 -0.0005193836 0)
(9.6226862e-05 -0.00080272973 0)
(0.0001902154 -0.0010404132 0)
(0.00038529233 -0.0011506141 0)
(0.0006724938 -0.0010726476 0)
(0.000956641 -0.0009581406 0)
(0.0012276595 -0.00077836285 0)
(0.001395496 -0.00049609897 0)
(0.0014228625 -0.00017480678 0)
(0.0013455076 0.00010173988 0)
(0.0011939055 0.0003106383 0)
(0.0010024346 0.00044128821 0)
(0.00081113085 0.00050140933 0)
(0.00064268646 0.00050601043 0)
(0.00050363403 0.00047845901 0)
(0.00039431848 0.00043170255 0)
(0.0003110384 0.00037789268 0)
(0.00024868374 0.00032205095 0)
(0.00020195568 0.00026853909 0)
(0.00016823177 0.00021903822 0)
(0.00014309947 0.00017420083 0)
(0.00012480309 0.00013438983 0)
(0.0001113629 9.9252266e-05 0)
(0.00010123667 6.7952689e-05 0)
(9.3369626e-05 3.9521948e-05 0)
(8.6569053e-05 1.2842606e-05 0)
(0.0010440784 -0.00031479068 1.23894e-24)
(0.0005143682 -0.00021560583 -4.670799e-26)
(0.00029950869 -0.0001425178 -3.1774751e-25)
(0.00031434394 -7.1837819e-05 -3.7721242e-25)
(0.00046388891 -5.8300911e-05 -4.8664527e-25)
(0.00050195812 -4.7619122e-05 0)
(0.00045656902 -8.0630063e-05 0)
(0.00034988165 -0.00013257603 0)
(0.00014767286 -0.00025195896 0)
(7.8833458e-05 -0.00052357451 0)
(4.543871e-05 -0.00077046532 0)
(9.5754466e-05 -0.0010746725 0)
(0.0003158076 -0.0012108342 0)
(0.00060989462 -0.0011971536 0)
(0.00095528884 -0.0010890597 0)
(0.0012827116 -0.00094636583 0)
(0.001511228 -0.00063273823 0)
(0.0015807328 -0.0002616724 0)
(0.0015207573 6.456282e-05 0)
(0.0013637654 0.00032542097 0)
(0.0011484278 0.00049578901 0)
(0.0009271804 0.00057918763 0)
(0.00072913776 0.00059334649 0)
(0.0005644618 0.00056569633 0)
(0.00043573356 0.0005134344 0)
(0.00033846746 0.00045183243 0)
(0.00026586845 0.00038745643 0)
(0.00021251751 0.00032588277 0)
(0.00017425009 0.00026880231 0)
(0.0001461481 0.00021741148 0)
(0.00012602293 0.00017190444 0)
(0.00011137792 0.00013204907 0)
(0.00010066456 9.7227703e-05 0)
(9.2526238e-05 6.6459515e-05 0)
(8.601117e-05 3.8563948e-05 0)
(8.0063394e-05 1.2454719e-05 0)
(0.0008381978 -0.00041571282 -1.8875167e-24)
(0.0010627131 -0.00036410804 2.336746e-25)
(0.00061262492 -0.0001242649 0)
(0.00033104799 -8.1958499e-05 1.1757165e-24)
(0.00036425283 -4.8453761e-05 4.8425596e-25)
(0.00045864914 -3.4816809e-05 1.7630306e-25)
(0.00042289805 -5.0558101e-05 8.757334e-26)
(0.00032622302 -0.00012081656 0)
(0.00021433478 -0.00025661852 0)
(3.2973363e-05 -0.00044994274 0)
(-2.3334987e-05 -0.00078522807 0)
(2.5122275e-05 -0.0010678085 0)
(0.00020477546 -0.0012948198 0)
(0.00055613696 -0.0012916976 0)
(0.00092865099 -0.0012703831 0)
(0.0013326417 -0.0011013001 0)
(0.0016252383 -0.00079666732 0)
(0.0017483374 -0.00037690312 0)
(0.0017174186 1.4534825e-05 0)
(0.0015555036 0.00033457879 0)
(0.0013159031 0.0005524257 0)
(0.0010612743 0.00066611421 0)
(0.00082811566 0.0006931338 0)
(0.00063243519 0.00066637544 0)
(0.00048063721 0.00060754525 0)
(0.00036702688 0.00053671698 0)
(0.00028308926 0.00046240233 0)
(0.00022240083 0.00039138588 0)
(0.00017874993 0.00032540996 0)
(0.00014748333 0.00026627316 0)
(0.00012559492 0.00021403751 0)
(0.00010995469 0.00016850479 0)
(9.8817731e-05 0.00012910737 0)
(9.0649669e-05 9.487035e-05 0)
(8.4361828e-05 6.4779058e-05 0)
(7.9102033e-05 3.7584865e-05 0)
(7.3957315e-05 1.2153531e-05 0)
(-0.0015096333 -0.00012936401 -4.7262839e-26)
(-3.4836413e-05 -0.0001708351 -1.3577847e-25)
(0.00095294025 -0.00018783589 3.1004443e-25)
(0.00064013255 -4.8515061e-05 -4.107419e-25)
(0.00028090888 -9.7313402e-05 -8.294159e-25)
(0.00043343979 -4.774976e-05 1.8692968e-25)
(0.00042231872 -1.048283e-05 3.7380042e-25)
(0.00029822432 -4.9326901e-05 -1.2659231e-25)
(0.00016317629 -0.00018824236 0)
(5.1799116e-05 -0.00047756684 0)
(-8.9668791e-05 -0.00071749547 0)
(-7.7332856e-05 -0.0011141336 0)
(0.00012549643 -0.0013216621 0)
(0.00045547511 -0.0014387539 0)
(0.00090990228 -0.0013988211 0)
(0.0013611395 -0.001331504 0)
(0.0017394896 -0.00095615941 0)
(0.001925088 -0.00051068726 0)
(0.0019311029 -5.9846322e-05 0)
(0.001774427 0.00033568162 0)
(0.0015103883 0.00061079835 0)
(0.0012167875 0.00076153726 0)
(0.00094322549 0.0008078542 0)
(0.00070852145 0.00078263745 0)
(0.0005288474 0.00071602248 0)
(0.00039617097 0.00063393978 0)
(0.00029936851 0.00054793397 0)
(0.00023015938 0.00046572986 0)
(0.00018081123 0.00038951805 0)
(0.00014637887 0.00032148583 0)
(0.00012275032 0.00026146035 0)
(0.00010630815 0.00020927947 0)
(9.497389e-05 0.00016423915 0)
(8.7121984e-05 0.00012570232 0)
(8.1315651e-05 9.2277649e-05 0)
(7.6735556e-05 6.2944193e-05 0)
(7.2632819e-05 3.6586341e-05 0)
(6.8241011e-05 1.1933619e-05 0)
(-0.0061828537 -0.00010147609 7.7119467e-25)
(-0.0028905189 -0.00017932595 6.6167145e-26)
(-0.00020626794 -8.3827338e-05 0)
(0.00096220181 -0.00012075384 -4.0462336e-25)
(0.00062757997 -8.8480695e-06 3.5691678e-26)
(0.00015424791 -3.1016012e-05 0)
(0.00040007333 -5.5184437e-05 1.209559e-25)
(0.00033776888 -1.9773897e-06 -5.5604655e-25)
(-5.3743336e-05 -0.00017237816 0)
(-1.3811787e-05 -0.00034868552 0)
(-8.758505e-05 -0.00074050899 0)
(-0.00016922597 -0.0010631474 0)
(-6.1393646e-06 -0.0014309637 0)
(0.00038828478 -0.001507364 0)
(0.00084361174 -0.0016226633 0)
(0.0013949705 -0.0014815789 0)
(0.0018419943 -0.0012026026 0)
(0.0021088958 -0.00066138249 0)
(0.0021666552 -0.00014328393 0)
(0.0020179676 0.0003223124 0)
(0.0017366235 0.00066875138 0)
(0.0013984215 0.00086843216 0)
(0.0010745668 0.00093818754 0)
(0.00079189347 0.00091773919 0)
(0.00058023313 0.00084114587 0)
(0.00042506438 0.00074520307 0)
(0.00031369799 0.00064514902 0)
(0.00023514916 0.00054987944 0)
(0.00017992383 0.00046200934 0)
(0.00014225227 0.00038375013 0)
(0.00011654745 0.00031462004 0)
(9.9573233e-05 0.00025485913 0)
(8.8490685e-05 0.00020336476 0)
(8.1157092e-05 0.00015944246 0)
(7.6293728e-05 0.0001219427 0)
(7.2642475e-05 8.954052e-05 0)
(6.965401e-05 6.1025123e-05 0)
(6.6605062e-05 3.5526207e-05 0)
(6.2884242e-05 1.1668089e-05 0)
(-0.0096129439 0.00023214643 0)
(-0.007867341 0.00015809654 0)
(-0.0036057933 1.2436972e-05 -6.8314657e-26)
(-0.00075591013 -2.4762767e-05 0)
(0.00099826637 -8.4630289e-05 5.4134062e-27)
(0.00066996773 -2.2756075e-05 -8.7606471e-26)
(0.00011318878 3.0970214e-05 -1.0890904e-24)
(0.00027896506 -1.2067251e-05 -1.0748966e-25)
(0.00017665526 -6.1793276e-05 0)
(-0.00013930977 -0.00043054057 0)
(-0.00020596204 -0.00065807035 0)
(-0.00017951362 -0.0011176098 0)
(-0.00011266104 -0.0014022283 0)
(0.00025661585 -0.0016882291 0)
(0.00080925486 -0.0017289925 0)
(0.0013868581 -0.0017845402 0)
(0.0019435913 -0.0013552797 0)
(0.0022989211 -0.00088197898 0)
(0.0024191815 -0.00026709017 0)
(0.0022989139 0.00030519063 0)
(0.0019926042 0.00072589651 0)
(0.0016068606 0.00098537586 0)
(0.0012218239 0.0010903683 0)
(0.00088548645 0.0010729018 0)
(0.00063507746 0.00098575168 0)
(0.00045257636 0.00087225626 0)
(0.00032478384 0.00075528511 0)
(0.00023610743 0.00064459733 0)
(0.00017487929 0.00054331285 0)
(0.000133721 0.0004534091 0)
(0.0001062667 0.00037406979 0)
(8.9043218e-05 0.00030576898 0)
(7.8402734e-05 0.00024683495 0)
(7.2097894e-05 0.00019675402 0)
(6.8458181e-05 0.00015420202 0)
(6.6334826e-05 0.0001179362 0)
(6.4609842e-05 8.670438e-05 0)
(6.3077434e-05 5.909793e-05 0)
(6.1024612e-05 3.4376298e-05 0)
(5.7837229e-05 1.1224343e-05 0)
(-0.0081600002 0.00017259347 -3.0914841e-27)
(-0.0096641114 -0.00037368854 0)
(-0.0080845997 0.00024987914 -1.1511389e-25)
(-0.004793719 0.00017394999 -2.1558201e-25)
(-0.0015276926 7.0529418e-05 3.0600416e-25)
(0.00045523254 -1.6502378e-05 -4.1596976e-25)
(0.00051388816 -3.2710615e-05 -1.1677629e-25)
(0.00011097314 2.449732e-05 1.7395644e-26)
(0.00023894221 -8.3721928e-05 -3.294136e-26)
(-4.9191034e-07 -0.00029682104 0)
(-0.00018101914 -0.00064722454 -8.7289755e-24)
(-0.00035025569 -0.0010609945 0)
(-0.00013474077 -0.0015459376 0)
(0.00015480879 -0.0017123532 0)
(0.00070710709 -0.0020036317 0)
(0.0014005214 -0.0019034281 0)
(0.0020227126 -0.0017080958 0)
(0.002479087 -0.0010341614 0)
(0.0027013852 -0.00041031339 0)
(0.0026094133 0.00024491714 0)
(0.0022891013 0.00078947797 0)
(0.0018405062 0.0011161133 0)
(0.0013914926 0.0012603731 0)
(0.00099304877 0.0012555826 0)
(0.00069392931 0.0011525363 0)
(0.00047710246 0.001017471 0)
(0.00033087309 0.00087948932 0)
(0.00023160778 0.00075056984 0)
(0.00016429156 0.0006338583 0)
(0.0001199588 0.00053075794 0)
(9.1018351e-05 0.00044025635 0)
(7.3753745e-05 0.00036218077 0)
(6.3832945e-05 0.00029491867 0)
(5.8989637e-05 0.00023791302 0)
(5.7193151e-05 0.00018953822 0)
(5.6809737e-05 0.00014861964 0)
(5.71648e-05 0.00011371585 0)
(5.7224175e-05 8.3746987e-05 0)
(5.6959516e-05 5.717348e-05 0)
(5.5821338e-05 3.3171136e-05 0)
(5.3147177e-05 1.0592922e-05 0)
(-0.0066839995 0.00011865101 9.9463712e-26)
(-0.008509686 -0.00041977927 0)
(-0.0062598872 1.7887415e-05 6.9500482e-25)
(-0.0080280152 0.00037053534 2.1517609e-25)
(-0.0057232158 0.00033393059 -1.299527e-25)
(-0.0025211423 0.00016030403 -8.7992331e-26)
(0.0001748554 7.0891607e-05 1.1242299e-24)
(0.0003213911 4.4154044e-05 4.7670911e-25)
(8.2856504e-05 -2.9530297e-05 1.0274321e-24)
(2.4003824e-05 -0.00028139838 2.2451303e-25)
(-4.863312e-05 -0.00058559976 -6.5061911e-24)
(-0.00041001232 -0.001059133 9.1090431e-24)
(-0.00034547956 -0.0014742288 0)
(0.00014539892 -0.0019261977 0)
(0.00063835333 -0.0020767364 0)
(0.0013598997 -0.0022959714 0)
(0.0020926367 -0.001826946 0)
(0.0026816151 -0.0013952201 0)
(0.0029710364 -0.00056907508 0)