/*--------------------------------*- C++ -*----------------------------------*\
| =========                 |                                                 |
| \\      /  F ield         | OpenFOAM: The Open Source CFD Toolbox           |
|  \\    /   O peration     | Version:  5.0                                   |
|   \\  /    A nd           | Web:      www.OpenFOAM.org                      |
|    \\/     M anipulation  |                                                 |
\*---------------------------------------------------------------------------*/
FoamFile
{
    version     2.0;
    format      ascii;
    class       volScalarField;
    location    "40";
    object      nut;
}
// * * * * * * * * * * * * * * * * * * * * * * * * * * * * * * * * * * * * * //

dimensions      [0 2 -1 0 0 0 0];

internalField   nonuniform List<scalar> 
9520
(
1.042231e-116
1.7539767e-108
4.3096813e-116
1.6882815e-101
7.1164861e-108
1.5721668e-115
2.8769539e-95
6.7176439e-101
2.5483043e-107
5.0814617e-115
1.3851662e-89
1.1226575e-94
2.3598717e-100
8.086467e-107
1.4604987e-114
2.4357845e-84
5.3017017e-89
3.8689841e-94
7.3478666e-100
2.2819684e-106
3.7453492e-114
1.8407299e-79
9.1457993e-84
1.7925797e-88
1.1819971e-93
2.0347284e-99
5.7452423e-106
8.5991847e-114
6.6886719e-75
6.7813749e-79
3.0342387e-83
5.3735819e-88
3.2117402e-93
5.0267661e-99
1.2948944e-105
1.7745039e-113
1.2688409e-70
2.4180982e-74
2.2078621e-78
8.9256007e-83
1.4327905e-87
7.7858796e-93
1.1116772e-98
2.622944e-105
3.3061928e-113
1.3382444e-66
4.5018207e-70
7.7269301e-74
6.3739877e-78
2.3355175e-82
3.4084803e-87
1.6896268e-92
2.2095322e-98
4.7975212e-105
5.5915537e-113
8.2478766e-63
4.6599364e-66
1.412023e-69
2.1894899e-73
1.6369278e-77
5.4526731e-82
7.2591294e-87
3.2956411e-92
3.9660846e-98
7.9678463e-105
8.6366211e-113
3.094505e-59
2.8184825e-62
1.4347577e-65
3.9275301e-69
5.5192158e-73
3.7510396e-77
1.1397996e-81
1.389752e-86
5.8066266e-92
6.4666473e-98
1.2093031e-104
1.2265569e-112
7.3123088e-56
1.0376479e-58
8.5178832e-62
3.9177067e-65
9.7190508e-69
1.2414818e-72
7.6970718e-77
2.142219e-81
2.4040768e-86
9.2969515e-92
9.6413743e-98
1.6890181e-104
1.6131304e-112
1.1202668e-52
2.4057449e-55
3.0778822e-58
2.2832004e-61
9.5181392e-65
2.1463127e-68
2.5010516e-72
1.42043e-76
3.639221e-81
3.7808602e-86
1.3620148e-91
1.3239756e-97
2.1869094e-104
1.9791509e-112
1.140893e-49
3.6157289e-52
7.0032562e-55
8.0984705e-58
5.4460286e-61
2.0638895e-64
4.2458432e-68
4.5325287e-72
2.3702548e-76
5.6235002e-81
5.4444511e-86
1.8394367e-91
1.6872549e-97
2.6446204e-104
2.2819448e-112
7.8965354e-47
3.6119368e-49
1.0328895e-51
1.8086952e-54
1.896487e-57
1.159575e-60
4.0097492e-64
7.5578874e-68
7.4306393e-72
3.5996983e-76
7.9623466e-81
7.2338537e-86
2.3078909e-91
2.0106159e-97
3.0091519e-104
2.4904509e-112
3.787448e-44
2.4517469e-46
1.0124189e-48
2.6182129e-51
4.1582753e-54
3.965207e-57
2.2127361e-60
7.0121802e-64
1.2176058e-67
1.1093436e-71
5.01309e-76
1.0411917e-80
8.9390561e-86
2.7108943e-91
2.2571684e-97
3.2449449e-104
2.590789e-112
1.2819917e-41
1.1531661e-43
6.74234e-46
2.5186221e-48
5.9093271e-51
8.5375265e-54
7.4323607e-57
3.8021212e-60
1.1103759e-63
1.7874734e-67
1.5199333e-71
6.4538424e-76
1.2677043e-80
1.0354158e-85
3.0036348e-91
2.4045147e-97
3.3395612e-104
2.5863452e-112
3.1118965e-39
3.8267255e-41
3.1109789e-43
1.645997e-45
5.5803412e-48
1.1914036e-50
1.5719708e-53
1.2549631e-56
5.9188226e-60
1.6032273e-63
2.4102059e-67
1.9270574e-71
7.7452785e-76
1.4486271e-80
1.1327826e-85
3.1620736e-91
2.4477193e-97
3.3022488e-104
2.4935715e-112
5.5038575e-37
9.1068372e-39
1.0126462e-40
7.4524524e-43
3.579879e-45
1.1047878e-47
2.1549474e-50
2.6085092e-53
1.9208567e-56
8.4072435e-60
2.1280232e-63
3.0104495e-67
2.2803644e-71
8.7353169e-76
1.5656544e-80
1.1791086e-85
3.1852004e-91
2.397101e-97
3.1575087e-104
2.3358467e-112
7.1937816e-35
1.5786558e-36
2.3636717e-38
2.3802001e-40
1.5909782e-42
6.959478e-45
1.9630482e-47
3.5144195e-50
3.9260498e-53
2.6846084e-56
1.0988112e-59
2.6193253e-63
3.5139735e-67
2.5394539e-71
9.3312431e-76
1.612205e-80
1.1759628e-85
3.0907111e-91
2.2728458e-97
2.9368439e-104
2.13763e-112
7.0485145e-33
2.0223609e-34
4.0184902e-36
5.4509941e-38
4.987563e-40
3.0371278e-42
1.2148096e-44
3.1465393e-47
5.2016799e-50
5.3995745e-53
3.4556468e-56
1.3332805e-59
3.016963e-63
3.8656044e-67
2.6825712e-71
9.510961e-76
1.5929218e-80
1.1312899e-85
2.9073076e-91
2.0988083e-97
2.6714972e-104
1.9203305e-112
5.2447476e-31
1.9417015e-32
5.0483352e-34
9.0923656e-36
1.1211348e-37
9.3492334e-40
5.2081562e-42
1.9138303e-44
4.579961e-47
7.040328e-50
6.8462271e-53
4.13459e-56
1.5159969e-59
3.2799009e-63
4.0401172e-67
2.7080828e-71
9.3154395e-76
1.5202386e-80
1.0563906e-85
2.6665968e-91
1.8974849e-97
2.3877402e-104
1.7002877e-112
3.0075702e-29
1.4156428e-30
4.7531933e-32
1.1206479e-33
1.8355893e-35
2.0636808e-37
1.5750286e-39
8.064546e-42
2.7394947e-44
6.1005321e-47
8.7936618e-50
8.0788812e-53
4.6425648e-56
1.6295918e-59
3.3933641e-63
4.041807e-67
2.6311333e-71
8.8256843e-76
1.4101582e-80
9.6298111e-86
2.3970532e-91
1.6870563e-97
2.1049217e-104
1.4885181e-112
1.3385573e-27
7.9536019e-29
3.3979206e-30
1.0352397e-31
2.2206782e-33
3.3179659e-35
3.4155221e-37
2.3970762e-39
1.1352342e-41
3.5911498e-44
7.5067592e-47
1.0236017e-49
8.9608058e-53
4.9364929e-56
1.6699307e-59
3.3662722e-63
3.8979185e-67
2.4764796e-71
8.1378692e-76
1.2784154e-80
8.6118974e-86
2.120839e-91
1.4804349e-97
1.8356354e-104
1.2915349e-112
4.7331454e-26
3.4681336e-27
1.872037e-28
7.2608919e-30
2.0137661e-31
3.9419242e-33
5.3949988e-35
5.109249e-37
3.3183205e-39
1.4645641e-41
4.3534597e-44
8.6200747e-47
1.1217197e-49
9.4286056e-53
5.0132834e-56
1.6437979e-59
3.2246554e-63
3.6472805e-67
2.271602e-71
7.3421648e-76
1.1381076e-80
7.5862712e-86
1.8531516e-91
1.2857198e-97
1.5870349e-104
1.1125715e-112
1.3280856e-24
1.2013217e-25
8.0060044e-27
3.9250792e-28
1.3865551e-29
3.5106392e-31
6.2972404e-33
7.9323436e-35
6.955645e-37
4.2130552e-39
1.7491485e-41
4.9317418e-44
9.334111e-47
1.1682887e-49
9.4938755e-53
4.8998487e-56
1.5652553e-59
3.0018541e-63
3.3305407e-67
2.0411762e-71
6.5110552e-76
9.9875644e-81
6.6034189e-86
1.6031837e-91
1.10731e-97
1.3624648e-104
9.5274425e-113
3.0737275e-23
3.3042244e-24
2.7188839e-25
1.6476704e-26
7.3584124e-28
2.374294e-29
5.5102232e-31
9.1013123e-33
1.0620261e-34
8.6913618e-37
4.956998e-39
1.9547373e-41
5.2770133e-44
9.6248194e-47
1.1668538e-49
9.2187985e-53
4.6413019e-56
1.4508072e-59
2.731009e-63
2.98274e-67
1.804412e-71
5.6956272e-76
8.6648715e-81
5.6928329e-86
1.3756997e-91
9.4710973e-98
1.1628852e-104
8.1192814e-113
5.6637754e-22
7.4758883e-23
7.3382344e-24
5.4903021e-25
3.0342237e-26
1.2375597e-27
3.662406e-29
7.8285439e-31
1.1985158e-32
1.3060608e-34
1.0074108e-36
5.4643947e-39
2.0667633e-41
5.3878272e-44
9.5382873e-47
1.126291e-49
8.6927336e-53
4.2867818e-56
1.3161143e-59
2.4396054e-63
2.6303467e-67
1.5744681e-71
4.9278358e-76
7.4476319e-81
4.8690908e-86
1.1725778e-91
8.0550134e-98
9.878785e-105
6.8931557e-113
9.6188324e-21
1.3551272e-21
1.6248378e-22
1.4555334e-23
9.9262847e-25
5.0160738e-26
1.875706e-27
5.1166326e-29
1.0140343e-30
1.4507834e-32
1.4912753e-34
1.0953537e-36
5.7084586e-39
2.0894783e-41
5.2991367e-44
9.1560103e-47
1.057895e-49
8.0068384e-53
3.8809419e-56
1.1736893e-59
2.1478293e-63
2.2910071e-67
1.3593792e-71
4.2252217e-76
6.3521733e-81
4.1373239e-86
9.9396783e-92
6.8199378e-98
8.3625801e-105
5.8372117e-113
6.5394695e-19
2.2419918e-20
2.9007764e-21
3.1564181e-22
2.5870481e-23
1.6118821e-24
7.4781546e-26
2.5761132e-27
6.5213984e-29
1.208259e-30
1.6319059e-32
1.5991034e-34
1.1304536e-36
5.7143365e-39
2.0398601e-41
5.0606069e-44
8.5717326e-47
9.7252349e-50
7.2405026e-53
3.4581572e-56
1.0324827e-59
1.868804e-63
1.9752789e-67
1.1634456e-71
3.5956884e-76
5.3834878e-81
3.4970406e-86
8.3902039e-92
5.7559464e-98
7.0638756e-105
4.9373541e-113
1.313499e-15
1.4898442e-18
4.6864372e-20
5.5569504e-21
5.4991597e-22
4.1330959e-23
2.3616354e-24
1.0110246e-25
3.2300054e-27
7.6513126e-29
1.3388671e-30
1.7257074e-32
1.6301244e-34
1.1203389e-36
5.5374666e-39
1.9385334e-41
4.7246247e-44
7.8706395e-47
8.7922037e-50
6.4525228e-53
3.0424013e-56
8.9818095e-60
1.610262e-63
1.6887015e-67
9.8853036e-72
3.0412576e-76
4.5397743e-81
2.9444399e-86
7.0629007e-92
4.8500262e-98
5.963482e-105
4.1780985e-113
4.018018e-12
3.0792856e-15
3.0756766e-18
8.7753524e-20
9.5559467e-21
8.6185707e-22
5.9622104e-23
3.1400027e-24
1.2486845e-25
3.7310301e-27
8.3541353e-29
1.3960871e-30
1.7374059e-32
1.5991255e-34
1.077578e-36
5.2375588e-39
1.8056586e-41
4.3362175e-44
7.1202347e-47
7.8440249e-50
5.6828582e-53
2.6485891e-56
7.7410339e-60
1.3762078e-63
1.4336048e-67
8.3501354e-72
2.5603495e-76
3.8151209e-81
2.4736473e-86
5.9394693e-92
4.0871671e-98
5.0404691e-105
3.5432396e-113
5.6775632e-09
1.0411514e-11
6.6528286e-15
5.734024e-18
1.4761399e-19
1.4788147e-20
1.2208935e-21
7.8102528e-23
3.8169007e-24
1.4215329e-25
4.0136338e-27
8.590819e-29
1.3878624e-30
1.686718e-32
1.5263899e-34
1.0144635e-36
4.8691107e-39
1.657594e-41
3.9290245e-44
6.3660397e-47
6.9230984e-50
4.9558891e-53
2.2854029e-56
6.6196244e-60
1.1683028e-63
1.2103461e-67
7.0233701e-72
2.1491294e-76
3.200892e-81
2.0774116e-86
4.9991273e-92
3.4512025e-98
4.2731456e-105
3.0165161e-113
2.7496496e-06
1.6946019e-08
2.5135615e-11
1.312273e-14
9.6727773e-18
2.2362589e-19
2.0687502e-20
1.5724508e-21
9.3594516e-23
4.2799072e-24
1.5078141e-25
4.0698042e-27
8.4326144e-29
1.3330448e-30
1.5974238e-32
1.4302319e-34
9.4153378e-37
4.4737283e-39
1.5057114e-41
3.5243195e-44
5.6371111e-47
6.0547809e-50
4.2858676e-53
1.9573624e-56
5.6247522e-60
9.8673206e-64
1.0179815e-67
5.8933051e-72
1.8021853e-76
2.6866322e-81
1.7476174e-86
4.2198019e-92
2.9256235e-98
3.6400287e-105
2.5822599e-113
9.1718711e-05
8.5057514e-06
4.7971042e-08
5.5746833e-11
2.3556012e-14
1.4773775e-17
3.0647071e-19
2.6315038e-20
1.8541697e-21
1.0351028e-22
4.4746475e-24
1.5084056e-25
3.9437187e-27
8.01215e-29
1.2522592e-30
1.4895882e-32
1.3254557e-34
8.6632606e-37
4.0778414e-39
1.356595e-41
3.1350158e-44
4.9503668e-47
5.2540563e-50
3.6803954e-53
1.666435e-56
4.7570552e-60
8.3065833e-64
8.5467821e-68
4.943754e-72
1.5130716e-76
2.2607924e-81
1.4757744e-86
3.5793031e-92
2.4943538e-98
3.1207221e-105
2.2259413e-113
0.00027426032
0.00014531151
2.2328081e-05
1.2727419e-07
1.1336271e-10
3.8368981e-14
2.0508527e-17
3.8224365e-19
3.066734e-20
2.0197669e-21
1.0677555e-22
4.4155512e-24
1.443349e-25
3.7055654e-27
7.4638566e-29
1.1619058e-30
1.3785684e-32
1.2219419e-34
7.9311335e-37
3.6948308e-39
1.2139079e-41
2.7682832e-44
4.3159806e-47
4.5292715e-50
3.1430362e-53
1.4128135e-56
4.0124091e-60
6.9850946e-64
7.1793144e-68
4.1556942e-72
1.2747501e-76
1.9114719e-81
1.2534819e-86
3.0563839e-92
2.1423928e-98
2.696587e-105
1.9345454e-113
0.00051951438
0.00037912516
0.00020967094
4.7247764e-05
3.1592647e-07
2.1072561e-10
5.6765432e-14
2.6020509e-17
4.3717496e-19
3.3016583e-20
2.0539504e-21
1.0399647e-22
4.1715396e-24
1.3411616e-25
3.4221596e-27
6.8892167e-29
1.0739026e-30
1.2739106e-32
1.1245335e-34
7.2362e-37
3.3308488e-39
1.0794745e-41
2.4285199e-44
3.7400338e-47
3.8847823e-50
2.674324e-53
1.1953212e-56
3.3830787e-60
5.8814903e-64
6.0482677e-68
3.508569e-72
1.0800757e-76
1.6270788e-81
1.0728231e-86
2.6315548e-92
1.856251e-98
2.3511511e-105
1.6967476e-113
0.00074339981
0.00069913817
0.00051301057
0.00028856279
8.1750056e-05
7.3075505e-07
3.5768092e-10
7.6398555e-14
3.0372658e-17
4.6247767e-19
3.317634e-20
1.9740465e-21
9.7029408e-23
3.8325765e-24
1.2276204e-25
3.1415782e-27
6.3585744e-29
9.9514289e-31
1.1794893e-32
1.0344421e-34
6.5827277e-37
2.9879771e-39
9.5443699e-42
2.1186453e-44
3.2261975e-47
3.3216277e-50
2.2722999e-53
1.0116873e-56
2.8585394e-60
4.9710793e-64
5.1224203e-68
2.9818173e-72
9.2217933e-77
1.3968627e-81
9.2664229e-87
2.2875732e-92
1.6241673e-98
2.0702621e-105
1.5028933e-113
0.00050364925
0.00095213757
0.00091810754
0.0006799516
0.000386098
0.00012263225
1.5730627e-06
5.5499429e-10
9.3833077e-14
3.2800501e-17
4.5734972e-19
3.1497329e-20
1.8191483e-21
8.8137973e-23
3.4764521e-24
1.1205194e-25
2.8957736e-27
5.9099939e-29
9.278043e-31
1.0953326e-32
9.5113678e-35
5.9684983e-37
2.6674753e-39
8.3970301e-42
1.8407672e-44
2.7758168e-47
2.8379145e-50
1.9328975e-53
8.5879653e-57
2.4266471e-60
4.2276339e-64
4.3709231e-68
2.5559101e-72
7.9478168e-77
1.2112429e-81
8.0869349e-87
2.00962e-92
1.4361431e-98
1.8420293e-105
1.3448947e-113
0.0006454283
0.00050433617
0.0011897265
0.0011763049
0.00088330448
0.00050560592
0.00016889451
3.1466292e-06
7.8820848e-10
1.0540582e-13
3.3037501e-17
4.2769694e-19
2.8667551e-20
1.6341106e-21
7.9181773e-23
3.1546737e-24
1.0311784e-25
2.7009389e-27
5.552234e-29
8.7101463e-31
1.0196823e-32
8.7331008e-35
5.3915008e-37
2.3709528e-39
7.3609713e-42
1.5959828e-44
2.3879683e-47
2.4291216e-50
1.6504099e-53
7.330485e-57
2.0745718e-60
3.6255073e-64
3.7647629e-68
2.2132327e-72
6.9235238e-77
1.0619551e-81
7.1367562e-87
1.7852369e-92
1.2838473e-98
1.6566158e-105
1.2160529e-113
0.00081801368
0.00064534423
0.00074403227
0.0014566737
0.0014698564
0.0011249392
0.00064965349
0.00022122115
5.8367184e-06
1.0270911e-09
1.0906148e-13
3.1470025e-17
3.8365322e-19
2.5444583e-20
1.4549424e-21
7.138689e-23
2.8990778e-24
9.6507215e-26
2.5594832e-27
5.2758018e-29
8.2249476e-31
9.5003314e-33
7.9990217e-35
4.852333e-37
2.1005592e-39
6.4419805e-42
1.3842604e-44
2.0595309e-47
2.0886611e-50
1.4181768e-53
6.3065294e-57
1.7898514e-60
3.1407876e-64
3.2780761e-68
1.9384024e-72
6.1017949e-77
9.4204268e-82
6.371852e-87
1.6041188e-92
1.1604482e-98
1.5059458e-105
1.1108645e-113
0.0010202618
0.00081626033
0.00095373188
0.00052276321
0.0017517778
0.0017958393
0.0014051803
0.00081904981
0.00028046708
1.0018188e-05
1.2345496e-09
1.0518287e-13
2.8855306e-17
3.3597029e-19
2.2419482e-20
1.3038122e-21
6.5465985e-23
2.7243457e-24
9.2274631e-26
2.4656711e-27
5.062476e-29
7.7933686e-31
8.8428415e-33
7.304845e-35
4.3543396e-37
1.8583544e-39
5.6422245e-42
1.2043468e-44
1.7856062e-47
1.8087093e-50
1.2291718e-53
5.4794317e-57
1.5609494e-60
2.7523269e-64
2.8884652e-68
1.718422e-72
5.4433331e-77
8.4576022e-82
5.7561818e-87
1.4578414e-92
1.0604146e-98
1.3834012e-105
1.0226554e-113
0.0012634525
0.0010157053
0.0011919246
0.0007040282
0.00027603311
0.0020748121
0.00215137
0.001720824
0.0010122186
0.0003467169
1.5942008e-05
1.3841274e-09
9.6040399e-14
2.6051596e-17
2.9278075e-19
1.9934734e-20
1.1939396e-21
6.1733615e-23
2.63173e-24
9.0194804e-26
2.4094938e-27
4.8891968e-29
7.3894526e-31
8.2121922e-33
6.6528752e-35
3.902177e-37
1.6457322e-39
4.9592236e-42
1.0539478e-44
1.560182e-47
1.5809485e-50
1.0766014e-53
4.8153661e-57
1.3777336e-60
2.4418916e-64
2.5771834e-68
1.5424911e-72
4.9159548e-77
7.6842463e-82
5.2604907e-87
1.3395801e-92
9.7930705e-99
1.2815692e-105
9.4620048e-114
0.0015491729
0.001255471
0.0014585342
0.00092459281
0.00038158158
9.2485883e-05
0.0024258937
0.0025338795
0.0020648391
0.0012246864
0.00041921195
2.3704352e-05
1.4726896e-09
8.5002766e-14
2.37655e-17
2.5858061e-19
1.8174892e-20
1.1310024e-21
6.0226658e-23
2.6156708e-24
8.9897079e-26
2.377987e-27
4.7338993e-29
6.9953533e-31
7.6061097e-33
6.0500257e-35
3.5002405e-37
1.4629304e-39
4.3862752e-42
9.30064e-45
1.3767673e-47
1.3972892e-50
9.5421207e-54
4.2846754e-57
1.2315178e-60
2.1942759e-64
2.3287234e-68
1.4018136e-72
4.4935082e-77
7.0625807e-82
4.8611069e-87
1.2438406e-92
9.1298691e-99
1.1929803e-105
8.7968539e-114
0.0018848917
0.0015380405
0.0017517167
0.0011834374
0.00051574909
0.00014613612
2.7981759e-06
0.0028059751
0.0029407154
0.0024271374
0.0014500034
0.00049678139
3.3376328e-05
1.5291859e-09
7.5195972e-14
2.2493188e-17
2.3557755e-19
1.7248801e-20
1.116262e-21
6.0861643e-23
2.6663237e-24
9.0859011e-26
2.3576335e-27
4.5793793e-29
6.6032003e-31
7.0308283e-33
5.5050212e-35
3.1512267e-37
1.3089665e-39
3.9135427e-42
8.2934528e-45
1.2289889e-47
1.250249e-50
8.5653335e-54
3.8619272e-57
1.1150897e-60
1.9969159e-64
2.130505e-68
1.2892684e-72
4.1549022e-77
6.562345e-82
4.5389038e-87
1.1662408e-92
8.5507809e-99
1.1155981e-105
8.2161312e-114
0.0022711335
0.0018712653
0.0020708926
0.0014750177
0.00068179815
0.00021020645
8.6236454e-06
5.7905687e-09
0.0032161386
0.0033688018
0.0027995218
0.0016815147
0.00057863689
4.5335454e-05
1.6171037e-09
6.8784905e-14
2.2704589e-17
2.2502174e-19
1.7185804e-20
1.1498556e-21
6.3493858e-23
2.7680872e-24
9.2468581e-26
2.3366565e-27
4.4151414e-29
6.215163e-31
6.4978794e-33
5.025475e-35
2.855424e-37
1.181823e-39
3.5294496e-42
7.4842226e-45
1.1109182e-47
1.1332436e-50
7.7887976e-54
3.5259801e-57
1.0224967e-60
1.8396507e-64
1.9723124e-68
1.1991636e-72
3.8831411e-77
6.1594651e-82
4.2784781e-87
1.0991131e-92
8.0415814e-99
1.0476493e-105
7.7061011e-114
0.0027108345
0.0022572882
0.0024165826
0.0017948372
0.00088180548
0.00028803094
2.2427057e-05
1.7278756e-08
4.115267e-12
0.0036582187
0.0038139201
0.0031749724
0.0019142657
0.00066566687
6.0647005e-05
1.8426412e-09
6.7506163e-14
2.5062085e-17
2.2783806e-19
1.8021597e-20
1.2318111e-21
6.7826788e-23
2.9001839e-24
9.4133599e-26
2.3063057e-27
4.2388246e-29
5.8414288e-31
6.0199453e-33
4.6159014e-35
2.6107708e-37
1.078839e-39
3.2219457e-42
6.8410565e-45
1.0173085e-47
1.0405982e-50
7.17355e-54
3.2593531e-57
9.4891707e-61
1.7142503e-64
1.8459488e-68
1.1269427e-72
3.664601e-77
5.8348205e-82
4.058041e-87
1.0395282e-92
7.5908693e-99
9.8758582e-106
7.2554921e-114
0.0031989285
0.0026994489
0.0027909623
0.0021388601
0.0011160146
0.0003829911
4.6948778e-05
4.8617403e-08
1.0691128e-11
1.3427679e-15
0.0041321353
0.0042716772
0.0035480139
0.0021476193
0.0007617438
8.1168758e-05
2.4252283e-09
7.3776224e-14
3.0723436e-17
2.4496399e-19
1.9813258e-20
1.3585501e-21
7.3334129e-23
3.0404636e-24
9.533697e-26
2.2623651e-27
4.0561599e-29
5.4961585e-31
5.6073525e-33
4.2769725e-35
2.4134982e-37
9.970544e-40
2.9793493e-42
6.335281e-45
9.4361068e-48
9.6756287e-51
6.68726e-54
3.0478803e-57
8.9042112e-61
1.6141512e-64
1.744793e-68
1.0689795e-72
3.488358e-77
5.5698808e-82
3.8598505e-87
9.8621075e-93
7.18882e-99
9.3410673e-106
6.8545565e-114
0.0037324236
0.0031931503
0.0031971669
0.0025048552
0.0013837279
0.00049778015
8.047725e-05
1.2742192e-07
2.5728973e-11
3.1563412e-15
6.6527019e-19
0.0046356873
0.0047377649
0.003916382
0.0023871978
0.00087432309
0.0001094905
3.9668764e-09
9.178745e-14
4.2018602e-17
2.7826059e-19
2.2569995e-20
1.5204272e-21
7.9350389e-23
3.1662873e-24
9.572436e-26
2.206358e-27
3.87823e-29
5.1931672e-31
5.2659907e-33
4.0060817e-35
2.2588119e-37
9.3347737e-40
2.7909223e-42
5.9416911e-45
8.8598681e-48
9.1017141e-51
6.3035691e-54
2.8800161e-57
8.4384977e-61
1.5340707e-64
1.6635596e-68
1.0223469e-72
3.3458571e-77
5.3280425e-82
3.6799343e-87
9.3806829e-93
6.8271354e-99
8.8611068e-106
6.4952473e-114
0.0043010406
0.0037356418
0.0036388649
0.0028930342
0.0016815812
0.00063428986
0.00011981698
3.1022749e-07
5.6548416e-11
6.8119799e-15
1.5177508e-18
9.730526e-21
0.0051642941
0.0052099131
0.0042840582
0.0026442835
0.0010149862
0.00014909866
8.5313008e-09
1.308729e-13
6.3575145e-17
3.2931487e-19
2.6181978e-20
1.7038109e-21
8.5161504e-23
3.2582025e-24
9.5244362e-26
2.1444184e-27
3.7175628e-29
4.9427141e-31
4.9972796e-33
3.7984233e-35
2.1414758e-37
8.8526269e-40
2.6470356e-42
5.638721e-45
8.4120062e-48
8.6517449e-51
6.0007774e-54
2.7464921e-57
8.0663396e-61
1.4698036e-64
1.5979887e-68
9.8466824e-73
3.2189913e-77
5.1043094e-82
3.514879e-87
8.9418159e-93
6.4989192e-99
8.4269221e-106
6.1708057e-114
0.0049008411
0.0043161963
0.0041183388
0.0033058006
0.0020049361
0.00079324597
0.0001639454
6.9998911e-07
1.1314328e-10
1.3347556e-14
3.1290653e-18
2.2703088e-20
5.7227121e-22
0.0057142581
0.0056901152
0.0046636861
0.0029367882
0.0012002551
0.00020502161
2.4318184e-08
2.1125712e-13
1.0337769e-16
3.979123e-19
3.0414023e-20
1.889447e-21
8.998798e-23
3.3090221e-24
9.4136439e-26
2.0849349e-27
3.5848191e-29
4.7506498e-31
4.7992865e-33
3.6478386e-35
2.0561967e-37
8.4978793e-40
2.5392704e-42
5.407938e-45
8.0656863e-48
8.2988494e-51
5.7612689e-54
2.6397645e-57
7.7671454e-61
1.4179318e-64
1.5446837e-68
9.5286594e-73
3.0986346e-77
4.8947918e-82
3.361886e-87
8.5379551e-93
6.1984744e-99
8.0308473e-106
1.8464941e-121
0.0055268834
0.0049298868
0.0046365838
0.0037470598
0.0023500648
0.00097467611
0.00021363839
1.4679089e-06
2.0550738e-10
2.3635662e-14
5.8047142e-18
4.7433862e-20
1.3696165e-21
3.1024868e-23
0.0062851717
0.0061868776
0.0050765854
0.0032926017
0.0014501222
0.00028485536
8.636188e-08
3.7233892e-13
1.7329628e-16
4.8180842e-19
3.4891522e-20
2.0531276e-21
9.3388438e-23
3.3250978e-24
9.2808165e-26
2.0356735e-27
3.4876133e-29
4.6191921e-31
4.6676823e-33
3.5474386e-35
1.997872e-37
8.2469491e-40
2.4602785e-42
5.2338369e-45
7.7983869e-48
8.0211342e-51
5.5705113e-54
2.5537803e-57
7.5241404e-61
1.3756814e-64
1.5010981e-68
9.2165238e-73
2.9828894e-77
4.6965227e-82
3.2186495e-87
8.1628981e-93
5.9210646e-99
3.3463904e-113
3.9049783e-130
0.0061757229
0.0055678325
0.005191643
0.0042213268
0.0027182891
0.0011785746
0.00027047246
2.8772541e-06
3.3893311e-10
3.7738964e-14
9.694302e-18
8.8583835e-20
2.9287078e-21
7.5443299e-23
1.3385725e-24
0.0068796098
0.0067150866
0.0055534799
0.0037468858
0.0017909791
0.00039795193
3.3736174e-07
6.7862201e-13
2.8827025e-16
5.7463595e-19
3.9042415e-20
2.1783921e-21
9.5422893e-23
3.3216557e-24
9.1673083e-26
2.0026806e-27
3.4307606e-29
4.5477249e-31
4.5964375e-33
3.490098e-35
1.9617045e-37
8.0787087e-40
2.403734e-42
5.1032195e-45
7.5914514e-48
7.8004283e-51
5.4167022e-54
2.4835815e-57
7.3238537e-61
1.3407356e-64
1.4590384e-68
8.9058097e-73
2.8705064e-77
4.5069796e-82
3.0833372e-87
7.8116278e-93
3.4369935e-106
1.0448227e-121
3.4504584e-140
0.0068403584
0.0062178165
0.005780019
0.0047321867
0.0031143681
0.0014061456
0.00033638213
5.3171223e-06
5.1049126e-10
5.4392769e-14
1.4587086e-17
1.4817333e-19
5.5936772e-21
1.6375204e-22
3.3289552e-24
4.7653974e-26
0.0075032495
0.0072967665
0.0061346524
0.0043371301
0.0022529028
0.00055146595
1.2382073e-06
1.2156048e-12
4.6014719e-16
6.6418046e-19
4.2375782e-20
2.2623283e-21
9.6512981e-23
3.31394e-24
9.1081016e-26
1.99077e-27
3.4167609e-29
4.5332424e-31
4.578436e-33
3.4686829e-35
1.9432333e-37
7.9744291e-40
2.3641281e-42
5.0049967e-45
7.4291022e-48
7.6218707e-51
5.2900489e-54
2.4251644e-57
7.1552092e-61
1.3097805e-64
1.415205e-68
8.5942959e-73
2.7603566e-77
4.3243332e-82
2.9545192e-87
6.3199569e-100
1.5851626e-114
1.4280426e-131
6.8250093e-152
0.007522098
0.0068688882
0.006396684
0.0052810707
0.0035440151
0.0016608599
0.00041362894
9.3583883e-06
7.0881046e-10
7.0993371e-14
1.9873103e-17
2.2254449e-19
9.565688e-21
3.1717024e-22
7.382523e-24
1.208661e-25
1.3464726e-27
0.0081662266
0.0079621658
0.006860732
0.0050937248
0.0028514466
0.00074239687
3.6772098e-06
2.0409671e-12
6.8161515e-16
7.3805705e-19
4.4689006e-20
2.3132559e-21
9.7138328e-23
3.3180779e-24
9.1368032e-26
2.0035892e-27
3.4457532e-29
4.5708504e-31
4.6058665e-33
3.4762081e-35
1.9383443e-37
7.9173286e-40
2.3367175e-42
4.9296644e-45
7.29821e-48
7.4729956e-51
5.1825793e-54
2.3751883e-57
7.0106238e-61
1.2753933e-64
1.3694459e-68
8.2798458e-73
2.6517834e-77
4.1472609e-82
3.3310877e-94
4.3054154e-108
3.3637476e-124
4.390341e-143
2.9333282e-165
0.0082254103
0.0075267919
0.0070363481
0.0058669077
0.004011598
0.0019484443
0.00050490594
1.5830003e-05
9.1968305e-10
8.4692368e-14
2.4707329e-17
3.0163946e-19
1.4687265e-20
5.4993823e-22
1.4603335e-23
2.7313069e-25
3.4855188e-27
3.0227732e-29
0.0088836809
0.0087440968
0.0077579713
0.0060289049
0.0035625776
0.00095301487
7.9025745e-06
3.0631778e-12
9.2256577e-16
7.8957634e-19
4.6104842e-20
2.3433967e-21
9.785512e-23
3.3522529e-24
9.2810755e-26
2.0427453e-27
3.5157346e-29
4.6542638e-31
4.6705092e-33
3.505891e-35
1.9432184e-37
7.8925001e-40
2.3173434e-42
4.8692209e-45
7.1876025e-48
7.3435648e-51
5.0876556e-54
2.3308916e-57
6.8547909e-61
1.2375857e-64
1.3216269e-68
7.9618984e-73
2.5444223e-77
6.5135207e-89
3.3510299e-102
1.422099e-117
1.6298418e-135
2.5839337e-156
7.8064337e-180
0.0089562379
0.0081979783
0.0076946035
0.0064857467
0.0045184745
0.0022733537
0.00061334098
2.5815775e-05
1.1355576e-09
9.3705431e-14
2.8329159e-17
3.7169066e-19
2.0353889e-20
8.5656024e-22
2.5845432e-23
5.5014022e-25
8.0332158e-27
7.9852409e-29
5.2677321e-31
0.009672797
0.0096643414
0.0088303359
0.0071137594
0.0043277171
0.0011498577
1.1580371e-05
4.0136368e-12
1.142577e-15
8.1987792e-19
4.6921206e-20
2.3686588e-21
9.9388278e-23
3.4318369e-24
9.5574416e-26
2.1081299e-27
3.6230739e-29
4.7761738e-31
4.7638669e-33
3.5511489e-35
1.9543353e-37
7.8865045e-40
2.3024303e-42
4.8167897e-45
7.0880506e-48
7.224991e-51
4.9999534e-54
2.2893012e-57
6.6711968e-61
1.1964162e-64
1.2718752e-68
7.6408054e-73
5.5638896e-84
9.6703637e-97
1.7261056e-111
1.099795e-128
1.3509352e-148
7.9843012e-171
3.1322581e-195
0.0097204455
0.0088906757
0.0083691271
0.0071299515
0.0050608615
0.002635463
0.00074191147
4.0418873e-05
1.3624788e-09
9.7981827e-14
3.0371343e-17
4.2069929e-19
2.5650005e-20
1.2045578e-21
4.1067683e-23
9.9098271e-25
1.6493973e-26
1.8764194e-28
1.4201732e-30
7.0753358e-33
0.010544714
0.010722821
0.01004898
0.008277209
0.0050562726
0.0012858812
1.1330487e-05
4.6331016e-12
1.3126634e-15
8.3433088e-19
4.7507451e-20
2.412486e-21
1.0238328e-22
3.5659838e-24
9.97056e-26
2.1983039e-27
3.7628719e-29
4.9284469e-31
4.8772603e-33
3.6056372e-35
1.9684229e-37
7.8874872e-40
2.2888624e-42
4.766659e-45
6.9918388e-48
7.1104158e-51
4.9158771e-54
2.2352249e-57
6.460979e-61
1.1521916e-64
1.2205014e-68
2.3241856e-79
1.2178047e-91
7.778003e-106
2.1544356e-122
1.3219558e-141
4.9283275e-163
3.3947762e-186
3.2082256e-211
0.010520839
0.0096152899
0.0090600176
0.0077889943
0.0056284035
0.003029644
0.00089224544
6.0221447e-05
1.6236197e-09
9.8843003e-14
3.0997728e-17
4.4321362e-19
2.9678396e-20
1.540168e-21
5.8896604e-23
1.6021552e-24
3.0279462e-26
3.9259134e-28
3.4032972e-30
1.9466384e-32
7.2180936e-35
0.011496752
0.011893137
0.011347998
0.0094136573
0.005638233
0.0013171946
7.2084201e-06
4.8738157e-12
1.4287628e-15
8.4102956e-19
4.8415714e-20
2.4958193e-21
1.0721827e-22
3.7581837e-24
1.0517316e-25
2.3108109e-27
3.9291602e-29
5.102268e-31
5.0019049e-33
3.6632471e-35
1.9825131e-37
7.8849504e-40
2.2740356e-42
4.714058e-45
6.8929276e-48
6.9943611e-51
4.8175811e-54
2.1692474e-57
6.2268423e-61
1.1054342e-64
5.1582168e-75
7.4893609e-87
1.5301858e-100
1.5810764e-116
3.8659152e-135
5.8007695e-156
2.2401076e-178
3.4979472e-202
1.1673735e-227
0.011354609
0.010382751
0.0097704015
0.0084523413
0.0062057585
0.0034444988
0.001062854
8.4837923e-05
1.9608572e-09
9.8142712e-14
3.0702097e-17
4.4114558e-19
3.192423e-20
1.8088687e-21
7.6776136e-23
2.337114e-24
4.9883675e-26
7.3411746e-28
7.2585039e-30
4.7577573e-32
2.0265594e-34
5.5207085e-37
0.012509646
0.013124894
0.012633995
0.010400973
0.0059629099
0.0012264563
2.9254171e-06
4.8619997e-12
1.5094592e-15
8.5338555e-19
5.0204956e-20
2.6312664e-21
1.140689e-22
4.0090351e-24
1.1189313e-25
2.4423308e-27
4.115035e-29
5.2882534e-31
5.1290231e-33
3.7182512e-35
1.9939334e-37
7.8700415e-40
2.2557894e-42
4.6553223e-45
6.7866646e-48
6.8775504e-51
4.6869286e-54
2.0926008e-57
5.9729203e-61
6.4815271e-71
2.4425651e-82
1.4698238e-95
5.1040151e-111
4.3586955e-129
2.0849955e-149
2.845692e-171
2.3330754e-194
1.2404265e-218
3.0222868e-244
0.012216067
0.011201387
0.010506016
0.0091130565
0.0067762524
0.0038635267
0.0012482413
0.00011309341
2.4321383e-09
9.761676e-14
3.0060677e-17
4.2165591e-19
3.2374748e-20
1.9747222e-21
9.1845088e-23
3.0974944e-24
7.4137539e-26
1.2314989e-27
1.3832395e-29
1.0344681e-31
5.051118e-34
1.5814141e-36
3.1208004e-39
0.013551595
0.014353116
0.013804112
0.011126935
0.0059557755
0.0010351167
8.27285e-07
4.7422726e-12
1.5979732e-15
8.8407622e-19
5.3199166e-20
2.8242508e-21
1.2301156e-22
4.3167816e-24
1.1972595e-25
2.588704e-27
4.3127678e-29
5.4766573e-31
5.2500995e-33
3.7653856e-35
2.0004045e-37
7.8354574e-40
2.2325098e-42
4.5877521e-45
6.6698869e-48
6.7114448e-51
4.5271544e-54
2.0071162e-57
4.8499592e-67
4.5002987e-78
7.4808287e-91
8.0922014e-106
2.2216208e-123
2.962982e-143
1.1159434e-164
3.0107885e-187
8.0855369e-211
3.0907415e-235
7.839371e-261
0.013104458
0.012076095
0.011277173
0.0097714307
0.0073260373
0.0042699124
0.0014399066
0.00014362215
3.1024342e-09
9.8407884e-14
2.9533409e-17
3.9265931e-19
3.1395383e-20
2.0304263e-21
1.0197547e-22
3.7645898e-24
1.0007467e-25
1.8629615e-27
2.3643789e-29
2.0089987e-31
1.1195677e-33
4.0196238e-36
9.1209779e-39
1.2855174e-41
0.014595615
0.015514677
0.014770137
0.011508457
0.0056037648
0.00079354119
2.0983461e-07
4.6450679e-12
1.7492127e-15
9.3835228e-19
5.7523466e-20
3.0778118e-21
1.3404916e-22
4.677114e-24
1.284789e-25
2.7450132e-27
4.5139908e-29
5.6576884e-31
5.3571231e-33
3.8000812e-35
2.0000504e-37
7.7758846e-40
2.2030823e-42
4.5096813e-45
6.5336627e-48
6.4944196e-51
4.3431433e-54
2.2520687e-63
4.9252726e-74
2.1477034e-86
6.8278281e-101
5.7045493e-118
1.959489e-137
1.7513197e-158
1.2060692e-180
1.0228138e-203
1.9416571e-227
7.6874928e-252
2.0391465e-277
0.014018564
0.01300529
0.012097591
0.010439287
0.0078512634
0.0046497444
0.001627994
0.00017513918
4.039728e-09
1.0077568e-13
2.9416028e-17
3.6096815e-19
2.9533713e-20
1.9926898e-21
1.0640439e-22
4.2418935e-24
1.2378394e-25
2.558084e-27
3.6438456e-29
3.4984175e-31
2.2157581e-33
9.0826577e-36
2.3640413e-38
3.8323296e-41
3.7977849e-44
0.015628331
0.016557458
0.015466722
0.011502581
0.0049648058
0.00055775274
6.5613402e-08
4.7247723e-12
2.0083883e-15
1.0184233e-18
6.3296472e-20
3.3944159e-21
1.471087e-22
5.0834001e-24
1.3791111e-25
2.905708e-27
4.7099983e-29
5.8218934e-31
5.4429844e-33
3.8185538e-35
1.9915285e-37
7.6879281e-40
2.1669185e-42
4.4223796e-45
6.3383883e-48
6.2346413e-51
6.7175611e-60
3.3352752e-70
3.654383e-82
3.2587949e-96
7.9760015e-113
6.7464639e-132
1.2965987e-152
1.9451545e-174
4.0286122e-197
2.3697879e-220
4.6357065e-244
1.914303e-268
5.3236258e-294
0.014954761
0.013978353
0.012983
0.011142947
0.0083665572
0.0049991947
0.0018043334
0.00020635813
5.3141359e-09
1.0464509e-13
2.9818647e-17
3.3086716e-19
2.7307043e-20
1.8918794e-21
1.0568445e-22
4.4856754e-24
1.4177268e-25
3.2162885e-27
5.0953978e-29
5.4907994e-31
3.9309443e-33
1.8318846e-35
5.4452512e-38
1.0127793e-40