/*--------------------------------*- C++ -*----------------------------------*\
| =========                 |                                                 |
| \\      /  F ield         | OpenFOAM: The Open Source CFD Toolbox           |
|  \\    /   O peration     | Version:  5.0                                   |
|   \\  /    A nd           | Web:      www.OpenFOAM.org                      |
|    \\/     M anipulation  |                                                 |
\*---------------------------------------------------------------------------*/
FoamFile
{
    version     2.0;
    format      ascii;
    class       volScalarField;
    location    "40";
    object      nuTilda;
}
// * * * * * * * * * * * * * * * * * * * * * * * * * * * * * * * * * * * * * //

dimensions      [0 2 -1 0 0 0 0];

internalField   nonuniform List<scalar> 
9520
(
7.8999213e-33
8.9960845e-31
1.1256845e-32
5.0098719e-29
1.2758178e-30
1.5545535e-32
1.8097465e-27
7.0704198e-29
1.7537231e-30
2.0828263e-32
4.7662873e-26
2.5416897e-27
9.6725106e-29
2.3389043e-30
2.7099033e-32
9.7585601e-25
6.6617015e-26
3.4604787e-27
1.2839013e-28
3.0291582e-30
3.4266687e-32
1.617692e-23
1.3574012e-24
9.0266606e-26
4.5715655e-27
1.654966e-28
3.8127743e-30
4.2148622e-32
2.2330912e-22
2.2395181e-23
1.8305903e-24
1.1868531e-25
5.8649792e-27
2.0732573e-28
4.668115e-30
5.0478974e-32
2.6202764e-21
3.0769232e-22
3.0060321e-23
2.3955821e-24
1.5154675e-25
7.312674e-27
2.5263517e-28
5.5648271e-30
5.8931981e-32
2.6549324e-20
3.5935103e-21
4.1107867e-22
3.9153975e-23
3.0445066e-24
1.8806524e-25
8.868792e-27
2.9974028e-28
6.466753e-30
6.7156604e-32
2.3519573e-19
3.6240233e-20
4.7786676e-21
5.3294293e-22
4.952783e-23
3.7604552e-24
2.2701605e-25
1.0473029e-26
3.4668748e-28
7.3359215e-30
7.4815247e-32
1.8404158e-18
3.1953908e-19
4.7969449e-20
6.1666235e-21
6.7101554e-22
6.0890047e-23
4.5181644e-24
2.6683341e-25
1.205719e-26
3.9147645e-28
8.1367976e-30
8.1618573e-32
1.2829389e-17
2.4886098e-18
4.2099486e-19
6.1616739e-20
7.7284292e-21
8.2113465e-22
7.2820974e-23
5.2861734e-24
3.0578846e-25
1.355312e-26
4.3228736e-28
8.8398283e-30
8.7350124e-32
8.0250315e-17
1.7265566e-17
3.2634785e-18
5.3826993e-19
7.6868072e-20
9.4140009e-21
9.7752201e-22
8.4810728e-23
6.0305396e-24
3.4219339e-25
1.4900582e-26
4.6765527e-28
9.4237835e-30
9.1878158e-32
4.5326427e-16
1.0748341e-16
2.2535473e-17
4.1532534e-18
6.6842242e-19
9.3206249e-20
1.1156001e-20
1.1333186e-21
9.6321635e-23
6.7188781e-24
3.7460002e-25
1.6052752e-26
4.9657694e-28
9.876625e-30
9.5155381e-32
2.3244654e-15
6.0415936e-16
1.3963012e-16
2.8546493e-17
5.1338346e-18
8.0680963e-19
1.0995609e-19
1.2876238e-20
1.2814551e-21
1.0685228e-22
7.3242373e-24
4.019247e-25
1.697934e-26
5.1853424e-28
1.0195237e-29
9.720974e-32
1.0876126e-14
3.083254e-15
7.8114153e-16
1.7605021e-16
3.5124195e-17
6.1685944e-18
9.4753552e-19
1.2634991e-19
1.4495937e-20
1.4154899e-21
1.1599854e-22
7.8272706e-24
4.2351336e-25
1.7666586e-26
5.3346844e-28
1.0384262e-29
9.8129762e-32
4.6642556e-14
1.4356126e-14
3.9674949e-15
9.8027988e-16
2.1561875e-16
4.2012312e-17
7.2122117e-18
1.0840312e-18
1.4163177e-19
1.5944988e-20
1.5304079e-21
1.2348348e-22
8.2172668e-24
4.3912102e-25
1.8116027e-26
5.4170955e-28
1.0454498e-29
9.8047475e-32
1.8407328e-13
6.1262542e-14
1.8384935e-14
4.9555375e-15
1.1950647e-15
2.5673347e-16
4.8901489e-17
8.2151836e-18
1.2099753e-18
1.5514507e-19
1.7170804e-20
1.6229518e-21
1.2917015e-22
8.4913614e-24
4.4887269e-25
1.834174e-26
5.438908e-28
1.0421019e-29
9.7120735e-32
6.7115778e-13
2.4057696e-13
7.8077614e-14
2.2855078e-14
6.0133682e-15
1.4164853e-15
2.9750538e-16
5.5460335e-17
9.1309645e-18
1.320014e-18
1.6641715e-19
1.8141308e-20
1.6917463e-21
1.3304297e-22
8.6536157e-24
4.531855e-25
1.8367421e-26
5.4084726e-28
1.0301264e-29
9.5516491e-32
2.2689269e-12
8.7278664e-13
3.051289e-13
9.6601956e-14
2.7605245e-14
7.0951489e-15
1.6341562e-15
3.3594888e-16
6.1384361e-17
9.9211522e-18
1.4104668e-18
1.7518138e-19
1.8845874e-20
1.7369727e-21
1.3519084e-22
8.7133381e-24
4.5269667e-25
1.8222805e-26
5.3351549e-28
1.0113234e-29
9.3396104e-32
7.1372206e-12
2.9357909e-12
1.1016079e-12
3.7573054e-13
1.1613761e-13
3.2423402e-14
8.1491724e-15
1.8373588e-15
3.7028071e-16
6.6429224e-17
1.0560719e-17
1.4794565e-18
1.8138145e-19
1.9290756e-20
1.7601139e-21
1.35778e-22
8.6836942e-24
4.4817125e-25
1.7940299e-26
5.2283877e-28
9.8739536e-30
9.0904035e-32
2.0958449e-11
9.1882042e-12
3.687427e-12
1.3500576e-12
4.4961515e-13
1.3578843e-13
3.7075212e-14
9.1230049e-15
2.0166823e-15
3.9911265e-16
7.0445593e-17
1.1038557e-17
1.5268989e-18
1.8511795e-19
1.9495911e-20
1.7635373e-21
1.3502238e-22
8.5798656e-24
4.4042065e-25
1.7551761e-26
5.0968943e-28
9.5983381e-30
8.8160776e-32
5.7664171e-11
2.6844052e-11
1.1484402e-11
4.4975538e-12
1.6080394e-12
5.2330626e-13
1.545829e-13
4.1327004e-14
9.9716486e-15
2.1650487e-15
4.2166152e-16
7.3379599e-17
1.1356955e-17
1.5539726e-18
1.8661498e-19
1.9489946e-20
1.750217e-21
1.3316613e-22
8.4175405e-24
4.3022397e-25
1.7086018e-26
4.9481548e-28
9.2985703e-30
8.5260477e-32
1.4891396e-10
7.3481159e-11
3.3388072e-11
1.3941067e-11
5.3321357e-12
1.8631183e-12
5.9310415e-13
1.7156821e-13
4.4983014e-14
1.0662599e-14
2.2788501e-15
4.3772812e-16
7.5265695e-17
1.1527104e-17
1.5628217e-18
1.861674e-19
1.930712e-20
1.7233431e-21
1.3045318e-22
8.2114315e-24
4.1827148e-25
1.6567265e-26
4.7881533e-28
8.9839947e-30
8.2272754e-32
3.630678e-10
1.8879267e-10
9.0948064e-11
4.0337658e-11
1.6451661e-11
6.1500331e-12
2.1022895e-12
6.5544121e-13
1.8596669e-13
4.7908358e-14
1.1181314e-14
2.3576768e-15
4.4763115e-16
7.6194024e-17
1.1566801e-17
1.5560741e-18
1.8411341e-19
1.898295e-20
1.6860521e-21
1.27107e-22
7.9743104e-24
4.0513093e-25
1.6014489e-26
4.6214046e-28
8.661444e-30
7.9247511e-32
8.3547377e-10
4.5793289e-10
2.3253967e-10
1.0935872e-10
4.7382781e-11
1.8889724e-11
6.9089347e-12
2.3132561e-12
7.0748808e-13
1.9727114e-13
5.0052178e-14
1.1529006e-14
2.4038488e-15
4.5200301e-16
7.6294507e-17
1.149656e-17
1.5366274e-18
1.8079208e-19
1.8551522e-20
1.6411496e-21
1.2331774e-22
7.7164759e-24
3.9124007e-25
1.5441827e-26
4.4511884e-28
8.3358412e-30
7.6221074e-32
1.8321633e-09
1.0485356e-09
5.6126577e-10
2.7831665e-10
1.2786789e-10
5.4161761e-11
2.1127368e-11
7.5697109e-12
2.486558e-12
7.4751006e-13
2.0533052e-13
5.1433915e-14
1.1719963e-14
2.4212953e-15
4.5168729e-16
7.5708915e-17
1.1338154e-17
1.5072924e-18
1.7652116e-19
1.804257e-20
1.5909768e-21
1.1923582e-22
7.4457528e-24
3.7692197e-25
1.4859545e-26
4.2799e-28
8.0108806e-30
7.3221988e-32
3.7954221e-09
2.2864073e-09
1.2790875e-09
6.6857503e-10
3.2397357e-10
1.4550601e-10
6.031512e-11
2.3049123e-11
8.1032084e-12
2.6167818e-12
7.7514606e-13
2.1028048e-13
5.2130584e-14
1.1776052e-14
2.414928e-15
4.4755801e-16
7.4581998e-17
1.1112034e-17
1.4706421e-18
1.7157069e-19
1.7480433e-20
1.5373533e-21
1.1497421e-22
7.1678941e-24
3.6241291e-25
1.4275312e-26
4.1094062e-28
7.6896144e-30
7.0275398e-32
7.7033559e-09
4.7170726e-09
2.774143e-09
1.5168433e-09
7.7468511e-10
3.6708322e-10
1.6132701e-10
6.5525928e-11
2.4572058e-11
8.4939578e-12
2.7033667e-12
7.911127e-13
2.1249104e-13
5.2252023e-14
1.1723085e-14
2.3895899e-15
4.4047424e-16
7.3045637e-17
1.0836478e-17
1.4288037e-18
1.6615752e-19
1.6883694e-20
1.4816358e-21
1.1061615e-22
6.8871698e-24
3.4789505e-25
1.369537e-26
3.9413261e-28
7.3748506e-30
6.7405409e-32
2.2115438e-08
9.5116816e-09
5.7016213e-09
3.2727277e-09
1.7501134e-09
8.7385436e-10
4.0532263e-10
1.7451834e-10
6.9574173e-11
2.5655661e-11
8.7422629e-12
2.7495112e-12
7.9701283e-13
2.1246276e-13
5.1921323e-14
1.1585353e-14
2.3498729e-15
4.3119644e-16
7.1214627e-17
1.0526144e-17
1.3834526e-18
1.6044439e-19
1.6266166e-20
1.4248317e-21
1.0622481e-22
6.6070003e-24
3.3352326e-25
1.3125364e-26
3.7771956e-28
7.0693228e-30
6.4635629e-32
1.4810143e-07
2.7153362e-08
1.1428924e-08
6.7029722e-09
3.7572258e-09
1.9661364e-09
9.6070313e-10
4.3674597e-10
1.8454335e-10
7.2362412e-11
2.6306905e-11
8.860647e-12
2.7615229e-12
7.9492598e-13
2.1073134e-13
5.1249572e-14
1.138515e-14
2.2997294e-15
4.2036623e-16
6.9177908e-17
1.0192345e-17
1.3358259e-18
1.5455259e-19
1.5638254e-20
1.3677298e-21
1.0185303e-22
6.3304158e-24
3.1944246e-25
1.2570754e-26
3.6185144e-28
6.7756802e-30
6.1988448e-32
1.102497e-06
1.8316345e-07
3.2527056e-08
1.3359839e-08
7.6702734e-09
4.2008209e-09
2.1531757e-09
1.0308773e-09
4.6009843e-10
1.9119328e-10
7.3926128e-11
2.6569872e-11
8.8717742e-12
2.7473119e-12
7.8699084e-13
2.0776323e-13
5.0335892e-14
1.1141129e-14
2.242368e-15
4.084607e-16
6.7002564e-17
9.8433029e-18
1.2868522e-18
1.4857531e-19
1.5008424e-20
1.3110188e-21
9.7549274e-23
6.0603252e-24
3.0579386e-25
1.2036835e-26
3.4667084e-28
6.4963671e-30
5.9483727e-32
6.7702221e-06
1.3982148e-06
2.2194058e-07
3.7982765e-08
1.5203832e-08
8.5487884e-09
4.5796335e-09
2.3018894e-09
1.081692e-09
4.749475e-10
1.9460089e-10
7.4406215e-11
2.651939e-11
8.8033123e-12
2.7147524e-12
7.7501687e-13
2.0396488e-13
4.9260794e-14
1.0867718e-14
2.1800553e-15
3.9582987e-16
6.4736551e-17
9.4852717e-18
1.2372648e-18
1.4259179e-19
1.4384371e-20
1.2553488e-21
9.3360861e-23
5.7995545e-24
2.9271252e-25
1.1528521e-26
3.323051e-28
6.2334718e-30
5.7137537e-32
3.2513428e-05
8.899378e-06
1.742046e-06
2.6286125e-07
4.3257564e-08
1.6855341e-08
9.2905305e-09
4.8752749e-09
2.4067664e-09
1.1123851e-09
4.8171372e-10
1.9517924e-10
7.4030436e-11
2.6244885e-11
8.6821139e-12
2.6703614e-12
7.6055057e-13
1.9965632e-13
4.8082908e-14
1.0574466e-14
2.1143944e-15
3.8271912e-16
6.2417004e-17
9.1233553e-18
1.1877171e-18
1.366768e-19
1.3773535e-20
1.2013599e-21
8.9333303e-23
5.5507588e-24
2.8032038e-25
1.1050045e-26
3.1885847e-28
5.9886012e-30
5.496135e-32
0.00011450576
4.4476594e-05
1.1547385e-05
2.1247771e-06
3.0405913e-07
4.8055772e-08
1.8224024e-08
9.859622e-09
5.0768973e-09
2.4665443e-09
1.1241742e-09
4.8151807e-10
1.935705e-10
7.3066679e-11
2.5831554e-11
8.5300603e-12
2.6196206e-12
7.4477176e-13
1.950544e-13
4.6837856e-14
1.0267763e-14
2.0464754e-15
3.6932265e-16
6.0075479e-17
8.7623369e-18
1.1388463e-18
1.3090389e-19
1.3183248e-20
1.1496582e-21
8.5508521e-23
5.316258e-24
2.687186e-25
1.0604704e-26
3.0640671e-28
5.7628147e-30
5.2961815e-32
0.00027896411
0.0001588334
6.0272777e-05
1.4750731e-05
2.5358818e-06
3.4326251e-07
5.2126268e-08
1.9245574e-08
1.0237303e-08
5.183352e-09
2.4843268e-09
1.119883e-09
4.7604801e-10
1.9052159e-10
7.1766998e-11
2.5348132e-11
8.3653468e-12
2.5665868e-12
7.2841686e-13
1.9027605e-13
4.5547327e-14
9.9517122e-15
1.9771831e-15
3.5581386e-16
5.774318e-17
8.4070171e-18
1.0912876e-18
1.2534519e-19
1.2620334e-20
1.1007896e-21
8.1921873e-23
5.097901e-24
2.57982e-25
1.0194727e-26
2.9499506e-28
5.5566219e-30
5.1141086e-32
0.00052087911
0.00038166221
0.00021728886
8.0701371e-05
1.8550546e-05
2.9592477e-06
3.7830409e-07
5.5285181e-08
1.9889355e-08
1.0421346e-08
5.2021567e-09
2.4667685e-09
1.103641e-09
4.6725157e-10
1.8673081e-10
7.0333805e-11
2.485133e-11
8.2010969e-12
2.5135778e-12
7.1182163e-13
1.8538014e-13
4.422356e-14
9.6297296e-15
1.9073613e-15
3.4237428e-16
5.54523e-17
8.0622263e-18
1.0456596e-18
1.2006662e-19
1.2090798e-20
1.0551973e-21
7.8600394e-23
4.8969757e-24
2.4815663e-25
9.8212597e-27
2.8463929e-28
5.3700338e-30
4.9497426e-32
0.00074406509
0.00069989379
0.00051441123
0.00029284372
0.00010675718
2.295984e-05
3.3756504e-06
4.0716781e-07
5.7426721e-08
2.0158499e-08
1.0427902e-08
5.1482628e-09
2.4234176e-09
1.0801988e-09
4.5694584e-10
1.8275854e-10
6.89337e-11
2.4381254e-11
8.0441694e-12
2.4614166e-12
6.9509298e-13
1.8038848e-13
4.2877096e-14
9.3053793e-15
1.8379547e-15
3.2919623e-16
5.3235534e-17
7.7326194e-18
1.0025173e-18
1.1512469e-19
1.1599319e-20
1.0132066e-21
7.5561482e-23
4.7141939e-24
2.3926066e-25
9.4844591e-27
2.7532887e-28
5.2026486e-30
4.8025713e-32
0.00050509133
0.00095254279
0.00091854556
0.00068075159
0.00038854872
0.00013946165
2.7984887e-05
3.7651396e-06
4.2831664e-07
5.8503665e-08
2.0090888e-08
1.0288252e-08
5.0421921e-09
2.365232e-09
1.0540016e-09
4.4659659e-10
1.7906807e-10
6.7683413e-11
2.3957206e-11
7.896193e-12
2.4100605e-12
6.7819599e-13
1.753204e-13
4.1520747e-14
8.9830002e-15
1.7699974e-15
3.1647689e-16
5.1124096e-17
7.4223053e-18
9.6232367e-19
1.1056185e-19
1.1149166e-20
9.7500897e-22
7.2813265e-23
4.5497245e-24
2.3128752e-25
9.1836257e-27
2.6703142e-28
5.0537443e-30
4.6718127e-32
0.00064630937
0.00050577417
0.0011899857
0.0011765713
0.00088377873
0.00050704893
0.00017972413
3.361654e-05
4.107625e-06
4.406168e-07
5.8574375e-08
1.9747189e-08
1.0045016e-08
4.9074668e-09
2.3023543e-09
1.0286567e-09
4.3741842e-10
1.7598244e-10
6.6636019e-11
2.358135e-11
7.7556615e-12
2.3589343e-12
6.6109737e-13
1.7021098e-13
4.0172065e-14
8.66755e-15
1.7045633e-15
3.0440337e-16
4.91451e-17
7.1346259e-18
9.2541214e-19
1.0640628e-19
1.0742031e-20
9.4067471e-22
7.0355275e-23
4.403265e-24
2.2421033e-25
8.9173565e-27
2.5969785e-28
4.9223546e-30
4.5564714e-32
0.00081856298
0.00064622535
0.0007446965
0.0014568464
0.0014700267
0.0011252314
0.00065053063
0.00022815342
3.9825032e-05
4.385857e-06
4.440643e-07
5.783799e-08
1.9210407e-08
9.7473838e-09
4.7663808e-09
2.2434053e-09
1.0072063e-09
4.302673e-10
1.7364307e-10
6.5792123e-11
2.3245138e-11
7.6191138e-12
2.3074863e-12
6.4384303e-13
1.6512055e-13
3.8852372e-14
8.3643117e-15
1.6426673e-15
2.9313671e-16
4.7319968e-17
6.8719091e-18
8.919889e-19
1.0267054e-19
1.037827e-20
9.1015978e-22
6.8180066e-23
4.2741211e-24
2.1798652e-25
8.6836955e-27
2.5326754e-28
4.8073162e-30
4.4553957e-32
0.001020615
0.00081681183
0.00095413576
0.00052411134
0.001751897
0.0017959532
0.0014053673
0.00081960204
0.00028497511
4.6550636e-05
4.5895642e-06
4.3977058e-07
5.6576985e-08
1.8578792e-08
9.4426274e-09
4.637466e-09
2.1955691e-09
9.9180772e-10
4.2552181e-10
1.7204237e-10
6.5117376e-11
2.2932937e-11
7.4831055e-12
2.2554963e-12
6.2659533e-13
1.601311e-13
3.7585182e-14
8.078321e-15
1.5851735e-15
2.8280199e-16
4.5662978e-17
6.6355004e-18
8.6212625e-19
9.9354327e-20
1.0056983e-20
8.8333103e-22
6.6274467e-23
4.1612973e-24
2.1256192e-25
8.4802822e-27
2.4767322e-28
4.7073019e-30
4.3649524e-32
0.0012636828
0.0010160616
0.0011921828
0.00070477341
0.00028068102
0.002074897
0.0021514492
0.0017209485
0.0010125798
0.00034972963
5.3740933e-05
4.7204126e-06
4.29657e-07
5.5140347e-08
1.7948781e-08
9.1695522e-09
4.5371505e-09
2.1639961e-09
9.8345201e-10
4.2315977e-10
1.7106378e-10
6.4551943e-11
2.2628425e-11
7.3453608e-12
2.2032267e-12
6.0962426e-13
1.5533835e-13
3.6393175e-14
7.8138861e-15
1.5327374e-15
2.734804e-16
4.4181608e-17
6.4257325e-18
8.357893e-19
9.6445073e-20
9.7763612e-21
8.5997963e-22
6.4621139e-23
4.0635801e-24
2.078738e-25
8.3045007e-27
2.4284458e-28
4.6190096e-30
4.2817282e-32
0.0015493261
0.0012557042
0.0014587064
0.00092502468
0.00038408673
0.0001151045
0.0024259557
0.0025339364
0.0020649253
0.0012249328
0.00042129364
6.1409679e-05
4.7929377e-06
4.1660732e-07
5.3891899e-08
1.7401065e-08
8.9617301e-09
4.4772747e-09
2.1512112e-09
9.821456e-10
4.228579e-10
1.705057e-10
6.4030544e-11
2.2318905e-11
7.2054089e-12
2.151428e-12
5.9327705e-13
1.5083824e-13
3.5295913e-14
7.5742619e-15
1.4857695e-15
2.6521111e-16
4.2876582e-17
6.2421235e-18
8.1284435e-19
9.3921582e-20
9.533802e-21
8.3984719e-22
6.3199545e-23
3.9796236e-24
2.0385347e-25
8.1536146e-27
2.3866867e-28
4.5378329e-30
4.2051326e-32
0.0018849951
0.0015381958
0.0017518359
0.0011837005
0.00051713467
0.00015954893
3.2664866e-05
0.0028060214
0.0029407576
0.0024271997
0.0014501788
0.00049827092
6.9722481e-05
4.838946e-06
4.0401788e-07
5.3172487e-08
1.700447e-08
8.8481616e-09
4.4640798e-09
2.1574509e-09
9.8703841e-10
4.2401242e-10
1.7013676e-10
6.349767e-11
2.1997814e-11
7.0648056e-12
2.1012401e-12
5.7792524e-13
1.4671546e-13
3.4308143e-14
7.3614634e-15
1.4444467e-15
2.5799181e-16
4.1743313e-17
6.0834452e-18
7.9309009e-19
9.175515e-20
9.3262103e-21
8.2263923e-22
6.1987175e-23
3.9080247e-24
2.004289e-25
8.024924e-27
2.3483185e-28
4.4631455e-30
4.1346254e-32
0.0022712047
0.0018713702
0.0020709778
0.0014751867
0.00068259342
0.00021778757
4.4652563e-05
6.8036715e-06
0.0032161738
0.0033688339
0.0027995686
0.0016816449
0.00057973761
7.9172217e-05
4.9108473e-06
3.9523812e-07
5.3329126e-08
1.681746e-08
8.8437078e-09
4.4989079e-09
2.1809467e-09
9.9643441e-10
4.258819e-10
1.6974825e-10
6.291612e-11
2.1666178e-11
6.9268934e-12
2.0539949e-12
5.6390969e-13
1.4303428e-13
3.3439009e-14
7.1762927e-15
1.408722e-15
2.5178708e-16
4.0772482e-17
5.9479642e-18
7.7626625e-19
8.9913013e-20
9.150086e-21
8.0804773e-22
6.0960419e-23
3.8473934e-24
1.9752792e-25
7.9082258e-27
2.312933e-28
4.3942801e-30
4.069539e-32
0.0027108844
0.0022573602
0.0024166451
0.0017949511
0.00088228097
0.00029232339
6.0357609e-05
8.9423935e-06
1.109129e-06
0.0036582459
0.0038139452
0.0031750087
0.001914366
0.00066650027
9.0811904e-05
5.0824365e-06
3.9367112e-07
5.4709324e-08
1.6878432e-08
8.9533636e-09
4.5785045e-09
2.2176101e-09
1.0081477e-09
4.2776738e-10
1.6918138e-10
6.2274527e-11
2.1332501e-11
6.7961189e-12
2.0109894e-12
5.5149828e-13
1.3983523e-13
3.2692051e-14
7.0184002e-15
1.3783706e-15
2.4653242e-16
3.9951627e-17
5.8335279e-18
7.6208093e-19
8.8359396e-20
9.001786e-21
7.9576049e-22
6.0095738e-23
3.796391e-24
1.9496523e-25
7.80004e-27
2.2801708e-28
4.3305383e-30
4.0092712e-32
0.0031989643
0.0026994993
0.0027910092
0.0021389402
0.0011163112
0.00038547804
8.0460832e-05
1.1585108e-05
1.4074887e-06
1.4892226e-07
0.0041321567
0.0042716971
0.0035480429
0.0021476989
0.00076238177
0.00010644155
5.4597796e-06
4.0296014e-07
5.7625484e-08
1.7196432e-08
9.1718344e-09
4.6930135e-09
2.261447e-09
1.0200848e-09
4.2909054e-10
1.683562e-10
6.1590454e-11
2.1010642e-11
6.6771478e-12
1.9732864e-12
5.4086713e-13
1.3713415e-13
3.2065535e-14
6.8865031e-15
1.3530146e-15
2.4214433e-16
3.9265688e-17
5.7377919e-18
7.5021746e-19
8.7058369e-20
8.877605e-21
7.8547518e-22
5.9370404e-23
3.7531438e-24
1.9256896e-25
7.6991587e-27
2.2496741e-28
4.2712581e-30
3.9532117e-32
0.0037324498
0.0031931863
0.0031972026
0.0025049135
0.0013839205
0.00049926655
0.00010576592
1.4752813e-05
1.7521309e-06
1.8429837e-07
2.2210764e-08
0.0046357043
0.0047377811
0.0039164058
0.0023872621
0.00087480894
0.00012888747
6.2010687e-06
4.2617341e-07
6.2384094e-08
1.7762026e-08
9.4781633e-09
4.827374e-09
2.3063863e-09
1.0303693e-09
4.2947982e-10
1.6729458e-10
6.0904279e-11
2.071652e-11
6.5740074e-12
1.9416137e-12
5.3209374e-13
1.3492381e-13
3.1553339e-14
6.7785411e-15
1.3321764e-15
2.3852473e-16
3.8698437e-17
5.6582875e-18
7.4035808e-19
8.5974377e-20
8.7739965e-21
7.7689947e-22
5.8764052e-23
3.7122461e-24
1.9031027e-25
7.6044124e-27
2.2211041e-28
4.2158086e-30
3.9008095e-32
0.0043010604
0.003735668
0.0036388924
0.0028930778
0.0016817114
0.00063520862
0.00013710234
1.8461371e-05
2.1321288e-06
2.2324778e-07
2.7279506e-08
7.7256743e-09
0.0051643077
0.0052099264
0.004284078
0.002644336
0.0010153482
0.0001624416
7.5502119e-06
4.6640694e-07
6.9253606e-08
1.8532377e-08
9.8376677e-09
4.966635e-09
2.347208e-09
1.0376179e-09
4.2890051e-10
1.6610527e-10
6.0267186e-11
2.0464673e-11
6.4896131e-12
1.9163402e-12
5.2516175e-13
1.3317746e-13
3.1145742e-14
6.6919494e-15
1.3153038e-15
2.3557024e-16
3.8232878e-17
5.5926009e-18
7.3218872e-19
8.5074074e-20
8.6876093e-21
7.6975657e-22
5.8206407e-23
3.6730975e-24
1.8816154e-25
7.5147139e-27
2.1941522e-28
4.163627e-30
3.8515512e-32
0.0049008563
0.0043162159
0.0041183603
0.003305834
0.0020050276
0.00079383402
0.00017526745
2.2702895e-05
2.5342208e-06
2.6395676e-07
3.2666347e-08
9.541574e-09
3.8052636e-09
0.0057142693
0.0056901264
0.0046637028
0.0029368308
0.0012005153
0.00021322228
9.8675716e-06
5.2646977e-07
7.8248415e-08
1.9432993e-08
1.0212835e-08
5.0959197e-09
2.379333e-09
1.0414986e-09
4.2762633e-10
1.6494764e-10
5.9728474e-11
2.0266256e-11
6.4256458e-12
1.8974757e-12
5.1997177e-13
1.3185267e-13
3.0830623e-14
6.6238132e-15
1.3018184e-15
2.3317519e-16
3.7852414e-17
5.5383968e-18
7.2541688e-19
8.4325948e-20
8.6154134e-21
7.6355325e-22
5.7660854e-23
3.6351896e-24
1.8609825e-25
7.4290974e-27
2.168542e-28
4.1141863e-30
5.0648269e-34
0.0055268954
0.0049299019
0.0046366007
0.0037470858
0.0023501312
0.00097506557
0.00022099928
2.7478342e-05
2.9400947e-06
3.042735e-07
3.8096897e-08
1.1463336e-08
4.7296089e-09
1.8364302e-09
0.0062851809
0.0061868871
0.0050765995
0.0032926357
0.0014503014
0.00028944985
1.3620927e-05
6.0721822e-07
8.904818e-08
2.0384683e-08
1.0567662e-08
5.2016031e-09
2.4010398e-09
1.0426647e-09
4.2611273e-10
1.6397941e-10
5.9328476e-11
2.0128489e-11
6.3825118e-12
1.8847028e-12
5.1635891e-13
1.3089642e-13
3.059427e-14
6.5711151e-15
1.2911319e-15
2.3123842e-16
3.7541018e-17
5.4935351e-18
7.1977095e-19
8.3701114e-20
8.55497e-21
7.5729412e-22
5.7119823e-23
3.5981123e-24
1.8409857e-25
7.3467087e-27
2.1440244e-28
5.8772301e-32
3.4338454e-36
0.0061757324
0.0055678442
0.0051916565
0.0042213473
0.0027183387
0.0011788408
0.00027529589
3.2814952e-05
3.3296779e-06
3.4178073e-07
4.3277225e-08
1.3390894e-08
5.7152022e-09
2.2916061e-09
8.3711538e-10
0.0068796175
0.0067150946
0.0055534917
0.0037469122
0.0017910971
0.00040038958
1.9255845e-05
7.058787e-07
1.0110706e-07
2.1297958e-08
1.0865546e-08
5.2778259e-09
2.413655e-09
1.0423603e-09
4.2482967e-10
1.633329e-10
5.9096149e-11
2.0054394e-11
6.3593995e-12
1.8774429e-12
5.1411186e-13
1.3024903e-13
3.0422491e-14
6.5308293e-15
1.2826816e-15
2.2966386e-16
3.7284023e-17
5.4560473e-18
7.1500973e-19
8.3172714e-20
8.4950847e-21
7.5088535e-22
5.6578015e-23
3.5614834e-24
1.8214403e-25
7.2668119e-27
3.3274943e-30
4.3923445e-34
1.0524877e-38
0.0068403661
0.0062178259
0.0057800299
0.004732203
0.0031144058
0.0014063325
0.00033958074
3.8803881e-05
3.6864381e-06
3.7420063e-07
4.7896677e-08
1.5217377e-08
6.7137942e-09
2.7794938e-09
1.0504833e-09
3.6368269e-10
0.0075032559
0.0072967733
0.0061346621
0.0043371498
0.0022529777
0.0005527501
2.6866975e-05
8.1660617e-07
1.1357319e-07
2.2074671e-08
1.108659e-08
5.3267824e-09
2.4203067e-09
1.0417706e-09
4.2418934e-10
1.6311791e-10
5.9047831e-11
2.0042657e-11
6.354481e-12
1.874925e-12
5.1299157e-13
1.298487e-13
3.0301112e-14
6.5000943e-15
1.2759332e-15
2.2836453e-16
3.7067977e-17
5.424195e-18
7.1091667e-19
8.2693758e-20
8.4310457e-21
7.4427167e-22
5.6030108e-23
3.5250091e-24
1.8021939e-25
1.2254286e-28
2.7416217e-32
1.5014176e-36
1.2477459e-41
0.0075221044
0.0068688959
0.0063966929
0.0052810838
0.0035440442
0.0016609939
0.00041577394
4.5641896e-05
3.9995463e-06
3.9966585e-07
5.1709358e-08
1.683363e-08
7.6718266e-09
3.2765842e-09
1.2809923e-09
4.5862636e-10
1.4913256e-10
0.008166232
0.0079621716
0.0068607398
0.0050937392
0.0028514934
0.00074310491
3.5768275e-05
9.2889178e-07
1.2517119e-07
2.2654059e-08
1.12314e-08
5.3556843e-09
2.4241384e-09
1.0421837e-09
4.2459163e-10
1.6341246e-10
5.9184969e-11
2.0088127e-11
6.3651702e-12
1.8762639e-12
5.1274889e-13
1.2963397e-13
3.0216738e-14
6.4762269e-15
1.2704034e-15
2.2726111e-16
3.6881078e-17
5.3964067e-18
7.0734005e-19
8.2149065e-20
8.3623701e-21
7.3739386e-22
5.5472612e-23
3.4884621e-24
3.3020629e-27
1.1131128e-30
1.0461288e-34
1.9874641e-39
5.6793206e-45
0.0082254157
0.0075267983
0.0070363554
0.0058669183
0.0040116207
0.0019485417
0.00050635717
5.3674412e-05
4.2668709e-06
4.1739781e-07
5.4565011e-08
1.8150074e-08
8.5335874e-09
3.7571028e-09
1.5180524e-09
5.6189707e-10
1.8902686e-10
5.7736419e-11
0.0088836856
0.0087441016
0.0077579774
0.0060289151
0.0035626074
0.00095344151
4.4145599e-05
1.0266656e-06
1.3485892e-07
2.3029821e-08
1.1316709e-08
5.3725398e-09
2.4287198e-09
1.0450152e-09
4.2634177e-10
1.6423879e-10
5.9494839e-11
2.0182762e-11
6.388413e-12
1.8805253e-12
5.1313595e-13
1.2954665e-13
3.0156847e-14
6.4568241e-15
1.2656533e-15
2.2628432e-16
3.6712858e-17
5.3713e-18
7.0339448e-19
8.1535142e-20
8.2885453e-21
7.3022213e-22
5.4903196e-23
6.9440758e-26
3.3065017e-29
4.7442608e-33
1.5516074e-37
9.7859133e-43
1.2895707e-48
0.0089562424
0.0081979837
0.0076946097
0.0064857553
0.0045184924
0.0022734252
0.00061432931
6.3402141e-05
4.4967552e-06
4.2782723e-07
5.6428849e-08
1.9109485e-08
9.2521257e-09
4.194127e-09
1.749627e-09
6.6889743e-10
2.3273357e-10
7.3553322e-11
2.098118e-11
0.0096728009
0.0096643453
0.0088303406
0.0071137667
0.0043277372
0.0011501476
4.9210051e-05
1.0964006e-06
1.4211048e-07
2.3240007e-08
1.1364808e-08
5.3870558e-09
2.4385271e-09
1.0513738e-09
4.2956971e-10
1.6556949e-10
5.9954136e-11
2.0316689e-11
6.4209325e-12
1.8867757e-12
5.1391742e-13
1.2953251e-13
3.0110247e-14
6.4397255e-15
1.261303e-15
2.2537294e-16
3.6554511e-17
5.3472318e-18
6.9864034e-19
8.084859e-20
8.2094125e-21
7.2274465e-22
1.1871872e-24
7.6641808e-28
1.5748985e-31
7.9093231e-36
8.3226708e-41
2.306561e-46
1.8246764e-52
0.0097204493
0.0088906803
0.0083691323
0.0071299587
0.0050608758
0.0026355162
0.00074258895
7.5466529e-05
4.7062622e-06
4.3242596e-07
5.7389966e-08
1.9697848e-08
9.7959983e-09
4.5639721e-09
1.9629159e-09
7.7434143e-10
2.7838412e-10
9.0999988e-11
2.6865204e-11
7.1439302e-12
0.010544717
0.010722824
0.010048984
0.0082772144
0.0050562872
0.0012861097
4.8615619e-05
1.1343727e-06
1.4699191e-07
2.3336301e-08
1.1399857e-08
5.412552e-09
2.457206e-09
1.061728e-09
4.3422243e-10
1.6734023e-10
6.0532775e-11
2.047911e-11
6.4594288e-12
1.8941224e-12
5.1487424e-13
1.295431e-13
3.006695e-14
6.4230786e-15
1.2570221e-15
2.2447604e-16
3.6399954e-17
5.3153145e-18
6.9306072e-19
8.008959e-20
8.1250867e-21
1.6972622e-23
1.4438505e-26
4.0807933e-30
2.9594064e-34
4.6556299e-39
2.0448147e-44
3.3112812e-50
1.8352167e-56
0.010520843
0.0096152939
0.0090600221
0.0077890003
0.0056284151
0.0030296842
0.0008927145
9.0565363e-05
4.9183722e-06
4.3323853e-07
5.7661308e-08
1.9945111e-08
1.0153308e-08
4.8498313e-09
2.1465088e-09
8.7250565e-10
3.2379859e-10
1.0936277e-10
3.3400849e-11
9.1939363e-12
2.2708184e-12
0.011496755
0.011893139
0.011348001
0.0094136615
0.0056382446
0.0013174087
4.229018e-05
1.1471712e-06
1.5003899e-07
2.3381455e-08
1.1455486e-08
5.4599332e-09
2.486278e-09
1.075968e-09
4.4012921e-10
1.6946381e-10
6.1197125e-11
2.0659029e-11
6.5007203e-12
1.9017341e-12
5.1581079e-13
1.2953548e-13
3.0018471e-14
6.4052912e-15
1.2525427e-15
2.2355119e-16
3.6215674e-17
5.2754964e-18
6.8667329e-19
7.9261834e-20
2.0715991e-22
2.2738078e-25
8.5950251e-29
8.6628784e-33
1.9255431e-37
1.1979045e-42
2.984923e-48
3.3353652e-54
1.4250556e-60
0.011354612
0.010382755
0.0097704053
0.0084523464
0.0062057679
0.0034445299
0.0010631845
0.00010926549
5.1585502e-06
4.3239707e-07
5.7508965e-08
1.9912664e-08
1.0334301e-08
5.0455473e-09
2.2919939e-09
9.5817397e-10
3.6656736e-10
1.2779086e-10
4.0333815e-11
1.1487025e-11
2.9372811e-12
6.7166395e-13
0.012509649
0.013124896
0.012633997
0.010400976
0.0059629202
0.0012266987
3.2754949e-05
1.1454124e-06
1.5206362e-07
2.3470379e-08
1.1562769e-08
5.5339203e-09
2.5256041e-09
1.0936724e-09
4.4705385e-10
1.7184131e-10
6.1912567e-11
2.0845759e-11
6.5418381e-12
1.9088661e-12
5.1655494e-13
1.294735e-13
2.9957643e-14
6.3850991e-15
1.2476494e-15
2.2260434e-16
3.5966037e-17
5.2280293e-18
6.795318e-19
2.1932752e-21
3.0557017e-24
1.5132212e-27
2.0651272e-31
6.2753775e-36
5.2167015e-41
1.7823183e-46
3.0146937e-52
2.5732819e-58
1.016303e-64
0.012216069
0.01120139
0.010506019
0.0091130608
0.0067762604
0.0038635513
0.0012484805
0.00013172097
5.4476206e-06
4.317969e-07
5.7199048e-08
1.968213e-08
1.0365602e-08
5.1544821e-09
2.3954608e-09
1.0273583e-09
4.0444149e-10
1.4532571e-10
4.7353915e-11
1.3938325e-11
3.6878963e-12
8.7315824e-13
1.842029e-13
0.013551597
0.014353118
0.013804114
0.011126938
0.0059557857
0.0010354504
2.3412045e-05
1.1377521e-06
1.5426432e-07
2.3685398e-08
1.1734633e-08
5.6339791e-09
2.5741562e-09
1.1142202e-09
4.547184e-10
1.7436948e-10
6.2645262e-11
2.1029307e-11
6.5801146e-12
1.9148668e-12
5.16963e-13
1.2932716e-13
2.9878942e-14
6.3615224e-15
1.2421855e-15
2.2123543e-16
3.5653451e-17
5.1734934e-18
2.0398358e-20
3.5600746e-23
2.2729503e-26
4.1211808e-30
1.676958e-34
1.8014272e-39
7.9326765e-45
1.8071863e-50
2.3125441e-56
1.8176725e-62
7.2514271e-69
0.01310446
0.012076097
0.011277176
0.0097714345
0.0073260441
0.0042699325
0.001440086
0.00015747434
5.7937956e-06
4.3267203e-07
5.6945005e-08
1.932984e-08
1.0282359e-08
5.1879041e-09
2.4575043e-09
1.0779878e-09
4.3563323e-10
1.6105185e-10
5.4104868e-11
1.6441814e-11
4.496434e-12
1.1016751e-12
2.4066778e-13
4.6674112e-14
0.014595616
0.015514678
0.014770139
0.01150846
0.0056037762
0.00079409768
1.6464694e-05
1.1319224e-06
1.5786457e-07
2.4047943e-08
1.1969095e-08
5.7574427e-09
2.63038e-09
1.136864e-09
4.6282971e-10
1.7694696e-10
6.3363445e-11
2.1200657e-11
6.6132227e-12
1.9191945e-12
5.1691766e-13
1.2907401e-13
2.9778297e-14
6.3338903e-15
1.2357095e-15
2.1940952e-16
3.5283013e-17
1.6837887e-19
3.6412341e-22
2.9587211e-25
7.0242958e-29
3.775343e-33
5.1378273e-38
2.8081401e-43
8.0862593e-49
1.3793745e-54
1.6184811e-60
1.2833784e-66
5.1776661e-73
0.014018566
0.013005292
0.012097594
0.01043929
0.0078512693
0.0046497613
0.0016281338
0.00018546906
6.1937345e-06
4.352468e-07
5.6889563e-08
1.8924349e-08
1.0123522e-08
5.1615373e-09
2.4824913e-09
1.1099819e-09
4.5911149e-10
1.7421494e-10
6.0238974e-11
1.8873296e-11
5.3291674e-12
1.349689e-12
3.0513816e-13
6.1284337e-14
1.088343e-14
0.015628332
0.016557459
0.015466724
0.011502584
0.0049648202
0.00055885539
1.2287352e-05
1.137346e-06
1.6350319e-07
2.4552067e-08
1.2261213e-08
5.9008833e-09
2.6924205e-09
1.1608207e-09
4.7110058e-10
1.7947851e-10
6.4038402e-11
2.1351962e-11
6.6392334e-12
1.9214129e-12
5.1633356e-13
1.2869851e-13
2.965316e-14
6.3025283e-15
1.2262732e-15
2.1716424e-16
1.2442907e-18
3.303009e-21
3.3791989e-24
1.0382796e-27
7.3010496e-32
1.2447026e-36
8.2384032e-42
2.8821301e-47
6.1460096e-53
9.5677428e-59
1.1310911e-64
9.0640875e-71
3.7003967e-77
0.014954763
0.013978355
0.012983002
0.01114295
0.0083665623
0.0049992093
0.0018044469
0.00021423897
6.6377635e-06
4.3935016e-07
5.7084806e-08
1.8514883e-08
9.9250601e-09
5.0933827e-09
2.4772201e-09
1.1250084e-09
4.746649e-10
1.8435519e-10
6.5459537e-11
2.1109036e-11
6.1457891e-12
1.6072286e-12
3.7562985e-13
7.8079545e-14
1.4361262e-14
2.3260526e-15
0.016637404
0.017437597
0.015849924
0.011114669
0.0041496364
0.00036844993
1.0207413e-05
1.1591207e-06
1.7130662e-07
2.5197597e-08