/*--------------------------------*- C++ -*----------------------------------*\
| =========                 |                                                 |
| \\      /  F ield         | OpenFOAM: The Open Source CFD Toolbox           |
|  \\    /   O peration     | Version:  5.0                                   |
|   \\  /    A nd           | Web:      www.OpenFOAM.org                      |
|    \\/     M anipulation  |                                                 |
\*---------------------------------------------------------------------------*/
FoamFile
{
    version     2.0;
    format      ascii;
    class       volScalarField;
    location    "40";
    object      nuTilda_0;
}
// * * * * * * * * * * * * * * * * * * * * * * * * * * * * * * * * * * * * * //

dimensions      [0 2 -1 0 0 0 0];

internalField   nonuniform List<scalar> 
9520
(
7.7870344e-33
8.8698263e-31
1.1107113e-32
4.9408055e-29
1.2591689e-30
1.535404e-32
1.7852405e-27
6.9798958e-29
1.7325606e-30
2.0592238e-32
4.7028981e-26
2.5097662e-27
9.5581698e-29
2.3129903e-30
2.6818891e-32
9.6311037e-25
6.5796338e-26
3.4204134e-27
1.2699937e-28
2.9986164e-30
3.3946767e-32
1.5969443e-23
1.3410022e-24
8.9243268e-26
4.5231623e-27
1.6386925e-28
3.7781637e-30
4.1797437e-32
2.2049707e-22
2.2129898e-23
1.810275e-24
1.1745747e-25
5.8087541e-27
2.0549606e-28
4.6304438e-30
5.010878e-32
2.5878854e-21
3.0411939e-22
2.9733848e-23
2.3713763e-24
1.50131e-25
7.2499582e-27
2.5066093e-28
5.5254899e-30
5.8557707e-32
2.6227225e-20
3.5526148e-21
4.0671079e-22
3.8767709e-23
3.0168039e-24
1.8649868e-25
8.8017113e-27
2.9769857e-28
6.4273985e-30
6.6794331e-32
2.3239632e-19
3.583615e-20
4.7290075e-21
5.278118e-22
4.9089102e-23
3.7300504e-24
2.2535525e-25
1.0404332e-26
3.4466693e-28
7.2982786e-30
7.448056e-32
1.8189332e-18
3.1604976e-19
4.7482069e-20
6.1087035e-21
6.6523223e-22
6.0412498e-23
4.4862194e-24
2.6514944e-25
1.1989957e-26
3.8956763e-28
8.1024973e-30
8.1325095e-32
1.2682588e-17
2.4620077e-18
4.1681497e-19
6.1052402e-20
7.663654e-21
8.1489254e-22
7.2323822e-23
5.2541101e-24
3.0415906e-25
1.3490419e-26
4.3057335e-28
8.8102555e-30
8.710846e-32
7.9350547e-17
1.7084985e-17
3.2318319e-18
5.3346548e-19
7.6241899e-20
9.3446837e-21
9.7108456e-22
8.4316912e-23
5.9998782e-24
3.4069415e-25
1.4845149e-26
4.6620443e-28
9.3999782e-30
9.1695331e-32
4.4828701e-16
1.0638404e-16
2.2322155e-17
4.1171486e-18
6.6313403e-19
9.2541986e-20
1.1085199e-20
1.1269929e-21
9.5855141e-23
6.6910612e-24
3.7329639e-25
1.6006761e-26
4.9543848e-28
9.8592363e-30
9.5034715e-32
2.2994794e-15
5.9811941e-16
1.3834069e-16
2.8304961e-17
5.0944153e-18
8.012492e-19
1.0928427e-19
1.2807435e-20
1.2755553e-21
1.0643532e-22
7.300477e-24
4.0086674e-25
1.6944282e-26
5.1773665e-28
1.0184521e-29
9.7151106e-32
1.076174e-14
3.0531428e-15
7.7410853e-16
1.7460144e-16
3.4862669e-17
6.1275223e-18
9.4196851e-19
1.2570457e-19
1.4432619e-20
1.4102998e-21
1.1564921e-22
7.8084554e-24
4.2273337e-25
1.764324e-26
5.330199e-28
1.0380117e-29
9.8130072e-32
4.6162853e-14
1.4219245e-14
3.9326905e-15
9.7243964e-16
2.1406328e-16
4.1742345e-17
7.1715185e-18
1.0787474e-18
1.4104622e-19
1.5890229e-20
1.5261508e-21
1.2321441e-22
8.2039286e-24
4.3863357e-25
1.8104495e-26
5.4160001e-28
1.0456518e-29
9.8101363e-32
1.8222298e-13
6.0692606e-14
1.8227901e-14
4.9170479e-15
1.1867196e-15
2.551431e-16
4.8636892e-17
8.1770422e-18
1.2052523e-18
1.5464791e-19
1.712693e-20
1.619775e-21
1.289882e-22
8.4836897e-24
4.4867598e-25
1.8341527e-26
5.4409531e-28
1.0428573e-29
9.7221348e-32
6.6456766e-13
2.3839448e-13
7.7428721e-14
2.2682827e-14
5.9727618e-15
1.4080366e-15
2.9596405e-16
5.521558e-17
9.0974104e-18
1.3160833e-18
1.6602919e-19
1.8109756e-20
1.6897198e-21
1.3294967e-22
8.651494e-24
4.5326371e-25
1.8377561e-26
5.4133019e-28
1.0313586e-29
9.5656322e-32
2.2471769e-12
8.6507043e-13
3.026632e-13
9.5896082e-14
2.7425163e-14
7.0544539e-15
1.6260634e-15
3.345429e-16
6.1172708e-17
9.8938342e-18
1.4074892e-18
1.7491438e-19
1.8827201e-20
1.7360976e-21
1.3518311e-22
8.7163953e-24
4.530232e-25
1.8242012e-26
5.342354e-28
1.0129514e-29
9.3567769e-32
7.0704628e-12
2.9105129e-12
1.0929584e-12
3.7307094e-13
1.1540648e-13
3.2244812e-14
8.1106672e-15
1.8300856e-15
3.6908738e-16
6.6261074e-17
1.0540721e-17
1.4775135e-18
1.8123861e-19
1.9284767e-20
1.7603344e-21
1.3584907e-22
8.6913718e-24
4.4871266e-25
1.7967133e-26
5.2375319e-28
9.893415e-30
9.110089e-32
2.0767306e-11
9.1112009e-12
3.6593161e-12
1.3408079e-12
4.4688659e-13
1.350712e-13
3.6908393e-14
9.0889459e-15
2.0106344e-15
3.9819043e-16
7.0327337e-17
1.1026349e-17
1.5259994e-18
1.8509545e-19
1.9501821e-20
1.7647537e-21
1.3516291e-22
8.5914956e-24
4.4114087e-25
1.7584792e-26
5.1075887e-28
9.6203017e-30
8.837729e-32
5.7151582e-11
2.6625241e-11
1.1399454e-11
4.4677544e-12
1.5986423e-12
5.2065959e-13
1.5392199e-13
4.118196e-14
9.9439633e-15
2.1605204e-15
4.2104348e-16
7.3313448e-17
1.135247e-17
1.5540686e-18
1.8670373e-19
1.9506529e-20
1.7523009e-21
1.3336542e-22
8.4324263e-24
4.3108814e-25
1.712395e-26
4.9600621e-28
9.3224831e-30
8.5492327e-32
1.4762464e-10
7.2898898e-11
3.3148634e-11
1.3851814e-11
5.3021641e-12
1.8541101e-12
5.9070013e-13
1.7100417e-13
4.4868063e-14
1.0642619e-14
2.2759913e-15
4.3742191e-16
7.5250319e-17
1.1529871e-17
1.5638245e-18
1.8635464e-19
1.933289e-20
1.7261533e-21
1.3070043e-22
8.2289179e-24
4.1924885e-25
1.6609019e-26
4.8010044e-28
9.0094303e-30
8.2516674e-32
3.6000819e-10
1.8733916e-10
9.0316134e-11
4.0088344e-11
1.6362818e-11
6.1216518e-12
2.0942312e-12
6.5343058e-13
1.8553225e-13
4.7828936e-14
1.1169633e-14
2.3564991e-15
4.4762366e-16
7.6225545e-17
1.1576076e-17
1.5578695e-18
1.8438446e-19
1.9016336e-20
1.6894503e-21
1.2739232e-22
7.993833e-24
4.0619634e-25
1.6059215e-26
4.6349935e-28
8.6880786e-30
7.9500973e-32
8.2862132e-10
4.5451076e-10
2.309748e-10
1.0870679e-10
4.713721e-11
1.8806669e-11
6.8839559e-12
2.3066637e-12
7.0598874e-13
1.9698639e-13
5.0010314e-14
1.1525537e-14
2.4042537e-15
4.5226672e-16
7.6367476e-17
1.1511448e-17
1.5390896e-18
1.8113195e-19
1.8591028e-20
1.6450122e-21
1.2363278e-22
7.737581e-24
3.9237397e-25
1.5488875e-26
4.4653561e-28
8.3634148e-30
7.6481919e-32
1.8175739e-09
1.0409275e-09
5.5761235e-10
2.7671672e-10
1.2723284e-10
5.3935195e-11
2.1055535e-11
7.5497619e-12
2.4818215e-12
7.4658962e-13
2.0520129e-13
5.1428591e-14
1.1724086e-14
2.4231109e-15
4.5218679e-16
7.5817149e-17
1.1357712e-17
1.5102972e-18
1.7691601e-19
1.8086895e-20
1.5952018e-21
1.1957396e-22
7.4680896e-24
3.7810929e-25
1.4908401e-26
4.2945129e-28
8.0391577e-30
7.3488104e-32
3.7659423e-09
2.2703601e-09
1.271029e-09
6.6487557e-10
3.2243166e-10
1.4492838e-10
6.0122696e-11
2.299326e-11
8.0894799e-12
2.6141087e-12
7.748174e-13
2.1030005e-13
5.2158416e-14
1.1786811e-14
2.4179487e-15
4.482553e-16
7.4719244e-17
1.1135361e-17
1.4740783e-18
1.7200874e-19
1.7528521e-20
1.5418605e-21
1.1533035e-22
7.1911866e-24
3.636412e-25
1.4325519e-26
4.1243364e-28
7.7183536e-30
7.0544518e-32
7.6454986e-09
4.6848338e-09
2.7573088e-09
1.5087554e-09
7.7116182e-10
3.6569988e-10
1.6084624e-10
6.538057e-11
2.4535527e-11
8.487032e-12
2.7027713e-12
7.9134105e-13
2.12643e-13
5.2308219e-14
1.1739405e-14
2.3936059e-15
4.4133229e-16
7.3206101e-17
1.0862789e-17
1.4325789e-18
1.6662939e-19
1.693472e-20
1.4863625e-21
1.1098612e-22
6.9111799e-24
3.4915273e-25
1.374647e-26
3.956438e-28
7.4037891e-30
6.7675049e-32
2.1955365e-08
9.4489581e-09
5.6680061e-09
3.2560163e-09
1.7424933e-09
8.7074252e-10
4.041937e-10
1.7416718e-10
6.9484709e-11
2.5639957e-11
8.7420932e-12
2.7508402e-12
7.9772676e-13
2.127254e-13
5.2000784e-14
1.1606184e-14
2.3546865e-15
4.3218198e-16
7.139342e-17
1.0554804e-17
1.3874942e-18
1.6094275e-19
1.6319472e-20
1.4297251e-21
1.0660487e-22
6.6314956e-24
3.3479826e-25
1.3176864e-26
3.7923415e-28
7.0981759e-30
6.4903151e-32
1.4696543e-07
2.6979305e-08
1.1364164e-08
6.6698293e-09
3.7416919e-09
1.9595016e-09
9.582222e-10
4.3594926e-10
1.8434299e-10
7.2332363e-11
2.631162e-11
8.866637e-12
2.7644944e-12
7.9603578e-13
2.1108256e-13
5.1347507e-14
1.1409533e-14
2.305169e-15
4.214522e-16
6.9371176e-17
1.0222862e-17
1.3400768e-18
1.5507142e-19
1.5693262e-20
1.3727399e-21
1.0223935e-22
6.3551483e-24
3.2072171e-25
1.2622119e-26
3.6335372e-28
6.8041522e-30
6.2251189e-32
1.0926231e-06
1.8188438e-07
3.2346229e-08
1.3296769e-08
7.6397528e-09
4.1875375e-09
2.1480001e-09
1.029199e-09
4.5968359e-10
1.9115121e-10
7.3953636e-11
2.659292e-11
8.8829105e-12
2.7515867e-12
7.8840863e-13
2.0818292e-13
5.0448041e-14
1.1168263e-14
2.2482995e-15
4.0962637e-16
6.7207357e-17
9.8752841e-18
1.2912642e-18
1.491091e-19
1.506456e-20
1.3160929e-21
9.7937741e-23
6.0850265e-24
3.0706338e-25
1.2087508e-26
3.481449e-28
6.5241682e-30
5.9739163e-32
6.6972959e-06
1.386456e-06
2.2055398e-07
3.7805007e-08
1.5146647e-08
8.5230443e-09
4.5695563e-09
2.2985391e-09
1.0809214e-09
4.7492911e-10
1.9471048e-10
7.4484653e-11
2.6557426e-11
8.8184137e-12
2.7200075e-12
7.7666448e-13
2.0443556e-13
4.9383735e-14
1.0897005e-14
2.1863799e-15
3.9705957e-16
6.4950479e-17
9.5183722e-18
1.2417912e-18
1.4313483e-19
1.4441021e-20
1.26043e-21
9.3747044e-23
5.8239434e-24
2.939581e-25
1.1577956e-26
3.3373582e-28
6.2603351e-30
5.7383415e-32
3.2096286e-05
8.8058297e-06
1.7285041e-06
2.6143129e-07
4.3094455e-08
1.6808148e-08
9.2714471e-09
4.8691259e-09
2.4054546e-09
1.1125463e-09
4.820713e-10
1.9542119e-10
7.4149631e-11
2.6294104e-11
8.7000798e-12
2.6763146e-12
7.6236149e-13
2.0016457e-13
4.8214243e-14
1.0605487e-14
2.1210385e-15
3.839999e-16
6.2637867e-17
9.1572253e-18
1.1923081e-18
1.3722287e-19
1.3830031e-20
1.2063878e-21
8.9712652e-23
5.5745562e-24
2.8152842e-25
1.1097735e-26
3.2023233e-28
6.0142963e-30
5.5195779e-32
0.00011294014
4.3904837e-05
1.1429472e-05
2.1097505e-06
3.0267248e-07
4.7918917e-08
1.8190302e-08
9.8485644e-09
5.0750701e-09
2.4673071e-09
1.1252096e-09
4.8219962e-10
1.9391613e-10
7.3215256e-11
2.5888462e-11
8.5499398e-12
2.6260357e-12
7.46697e-13
1.9559145e-13
4.6976005e-14
1.0300215e-14
2.0533767e-15
3.7064198e-16
6.0300942e-17
8.7965928e-18
1.143447e-18
1.3144628e-19
1.3238895e-20
1.1545721e-21
8.587664e-23
5.3392046e-24
2.6987693e-25
1.0650214e-26
3.0771236e-28
5.7871556e-30
5.3183302e-32
0.00027531517
0.00015667964
5.949655e-05
1.4604559e-05
2.5198724e-06
3.420133e-07
5.2025663e-08
1.9227736e-08
1.0235016e-08
5.1858728e-09
2.4870206e-09
1.1216631e-09
4.7697822e-10
1.909392e-10
7.1934603e-11
2.5409727e-11
8.3863531e-12
2.5732968e-12
7.3042692e-13
1.9083667e-13
4.5691207e-14
9.9853338e-15
1.9842781e-15
3.5715783e-16
5.7970615e-17
8.4412348e-18
1.0958396e-18
1.2587705e-19
1.2674448e-20
1.1055323e-21
8.2274783e-23
5.1197709e-24
2.590804e-25
1.0237701e-26
2.962237e-28
5.5794691e-30
5.1348529e-32
0.00051456761
0.00037676947
0.00021436752
7.9659538e-05
1.837193e-05
2.9429349e-06
3.7728772e-07
5.5228176e-08
1.9888554e-08
1.0427842e-08
5.2086741e-09
2.4710892e-09
1.1059815e-09
4.6834777e-10
1.8719164e-10
7.051155e-11
2.4915146e-11
8.222692e-12
2.5204904e-12
7.1390125e-13
1.8596116e-13
4.4372229e-14
9.6642363e-15
1.9145757e-15
3.4372691e-16
5.5678796e-17
8.0959576e-18
1.0501039e-18
1.2058132e-19
1.2142749e-20
1.0597184e-21
7.8934739e-23
4.9175853e-24
2.4918722e-25
9.8614344e-27
2.8578469e-28
5.391292e-30
4.9690103e-32
0.00073676653
0.00069185075
0.00050799172
0.00028895218
0.00010537392
2.2744432e-05
3.3598493e-06
4.0647042e-07
5.7417984e-08
2.0174489e-08
1.0442445e-08
5.1581097e-09
2.4289396e-09
1.0828976e-09
4.5813289e-10
1.8323781e-10
6.9114272e-11
2.4445644e-11
8.0660816e-12
2.4684937e-12
6.9723526e-13
1.8098719e-13
4.3029436e-14
9.34042e-15
1.8452012e-15
3.3053977e-16
5.345804e-17
7.7654193e-18
1.0067982e-18
1.1561631e-19
1.1648569e-20
1.0174647e-21
7.5874642e-23
4.7334063e-24
2.4021786e-25
9.5216561e-27
2.7638726e-28
5.2222616e-30
4.8203265e-32
0.00050000157
0.00094390539
0.00090863673
0.00067254728
0.00038346513
0.00013764817
2.7727299e-05
3.7507274e-06
4.2801145e-07
5.8545136e-08
2.0122168e-08
1.0309455e-08
5.054458e-09
2.3714908e-09
1.0568743e-09
4.478092e-10
1.7954522e-10
6.7861993e-11
2.4021406e-11
7.9183454e-12
2.4172971e-12
6.8039581e-13
1.7593314e-13
4.1675281e-14
9.018151e-15
1.7771786e-15
3.1779285e-16
5.1339631e-17
7.4537617e-18
9.6639239e-19
1.1102541e-19
1.1195288e-20
9.789729e-22
7.3103381e-23
4.5674492e-24
2.3216795e-25
9.2177503e-27
2.6800124e-28
5.0716909e-30
4.6880543e-32
0.00064003442
0.00050070114
0.0011799602
0.001164798
0.00087356342
0.00050054045
0.00017738865
3.3310653e-05
4.095462e-06
4.4075058e-07
5.8662179e-08
1.9791041e-08
1.0070979e-08
4.9211474e-09
2.3089226e-09
1.0315407e-09
4.3860198e-10
1.7644397e-10
6.6810479e-11
2.3645252e-11
7.7781032e-12
2.3663332e-12
6.6334546e-13
1.7083236e-13
4.0326946e-14
8.7023317e-15
1.7115785e-15
3.0567385e-16
4.9350954e-17
7.1643839e-18
9.2922904e-19
1.0683794e-19
1.0784717e-20
9.4432369e-22
7.0621216e-23
4.4194557e-24
2.2501256e-25
8.9483905e-27
2.6057936e-28
4.938647e-30
4.5712287e-32
0.00081079495
0.00063999513
0.00073736828
0.0014453898
0.0014564606
0.001112792
0.00064238701
0.00022520368
3.9464329e-05
4.3766695e-06
4.446315e-07
5.7963284e-08
1.9263082e-08
9.7759905e-09
4.7805446e-09
2.2498933e-09
1.0099631e-09
4.3138545e-10
1.7408311e-10
6.5962414e-11
2.3309092e-11
7.641931e-12
2.3150352e-12
6.4612302e-13
1.6574341e-13
3.9005481e-14
8.3982257e-15
1.64942e-15
2.9434564e-16
4.7513861e-17
6.8996864e-18
8.9552461e-19
1.030677e-19
1.0417329e-20
9.1348296e-22
6.8421367e-23
4.2887717e-24
2.1871087e-25
8.7116883e-27
2.5406241e-28
4.8220003e-30
4.4687215e-32
0.0010111445
0.00080912965
0.00094547397
0.00051774541
0.0017389724
0.0017806267
0.0013906235
0.00080969469
0.00028133477
4.6127701e-05
4.5836311e-06
4.4072194e-07
5.6726629e-08
1.8636005e-08
9.4718742e-09
4.651251e-09
2.201648e-09
9.9434385e-10
4.2655841e-10
1.7246127e-10
6.5285045e-11
2.2997477e-11
7.5063419e-12
2.2631568e-12
6.288833e-13
1.6074691e-13
3.7734296e-14
8.1108897e-15
1.5915782e-15
2.83936e-16
4.5843152e-17
6.661095e-18
8.6536169e-19
9.971552e-20
1.0092331e-20
8.8632663e-22
6.6491261e-23
4.1744364e-24
2.1321023e-25
8.50534e-27
2.4838416e-28
4.7204534e-30
4.3769839e-32
0.0012522011
0.0010067141
0.001182163
0.00069667158
0.00027700823
0.0020604465
0.0021343971
0.0017040008
0.001000911
0.00034535316
5.3245086e-05
4.7173653e-06
4.3089263e-07
5.5298493e-08
1.8006427e-08
9.1976975e-09
4.5497906e-09
2.1694356e-09
9.8572189e-10
4.2411542e-10
1.7146715e-10
6.471939e-11
2.2693997e-11
7.3689737e-12
2.2109304e-12
6.1188986e-13
1.5593796e-13
3.6536163e-14
7.8446882e-15
1.5387244e-15
2.745294e-16
4.4346854e-17
6.4490227e-18
8.3871517e-19
9.6769937e-20
9.8080133e-21
8.6265376e-22
6.4814092e-23
4.0752648e-24
2.0844934e-25
8.3267731e-27
2.4347545e-28
4.6308006e-30
4.292527e-32
0.0015355695
0.0012443635
0.0014473132
0.00091507789
0.00037917752
0.00011353457
0.0024098981
0.0025151953
0.0020461174
0.001211653
0.00041616415
6.0822857e-05
4.7915127e-06
4.1798474e-07
5.4042177e-08
1.7455477e-08
8.9870744e-09
4.4882283e-09
2.1558916e-09
9.8414877e-10
4.2374904e-10
1.7090255e-10
6.4200088e-11
2.2385696e-11
7.2292459e-12
2.1590787e-12
5.9548633e-13
1.5141274e-13
3.5430898e-14
7.6029568e-15
1.4912875e-15
2.6616843e-16
4.3026227e-17
6.2630643e-18
8.1546022e-19
9.4210713e-20
9.5618577e-21
8.4221249e-22
6.3369782e-23
3.989932e-24
2.043607e-25
8.1732829e-27
2.392295e-28
4.5483437e-30
4.2147735e-32
0.0018686841
0.0015245522
0.001739053
0.0011719681
0.00051073258
0.00015739987
3.2246877e-05
0.0027882629
0.0029203897
0.0024069242
0.0014355311
0.0004923768
6.9011011e-05
4.8366049e-06
4.0537445e-07
5.329826e-08
1.705226e-08
8.8693876e-09
4.4730431e-09
2.1613541e-09
9.8882162e-10
4.2486878e-10
1.7053665e-10
6.3670944e-11
2.2065647e-11
7.0885995e-12
2.1087226e-12
5.800441e-13
1.4725698e-13
3.4433617e-14
7.3878049e-15
1.4494631e-15
2.588542e-16
4.1877184e-17
6.1020605e-18
7.9540339e-19
9.2009949e-20
9.3508438e-21
8.2471329e-22
6.2136197e-23
3.9170484e-24
2.0087315e-25
8.0421862e-27
2.3532854e-28
4.4724682e-30
4.1431954e-32
0.0022521536
0.0018551185
0.0020567478
0.0014618024
0.00067448565
0.0002148964
4.4083044e-05
6.7304004e-06
0.0031965631
0.0033469502
0.0027781406
0.0016658787
0.00057301775
7.8272295e-05
4.9034284e-06
3.9640259e-07
5.3412316e-08
1.6855684e-08
8.8600635e-09
4.5057845e-09
2.184174e-09
9.9808769e-10
4.2673673e-10
1.7015898e-10
6.3093687e-11
2.1734438e-11
6.9502869e-12
2.061188e-12
5.6590739e-13
1.4353653e-13
3.355389e-14
7.2001332e-15
1.4132227e-15
2.5255441e-16
4.0890847e-17
5.9643372e-18
7.7829114e-19
9.0135517e-20
9.1715315e-21
8.0985169e-22
6.1089995e-23
3.8552317e-24
1.9791496e-25
7.9234221e-27
2.3173119e-28
4.4025174e-30
4.0771327e-32
0.0026890127
0.002238273
0.0024008405
0.0017800167
0.00087230565
0.00028851579
5.9591738e-05
8.8489397e-06
1.0991683e-06
0.00363665
0.0037907001
0.0031527208
0.0018976077
0.00065875849
8.9610902e-05
5.0633014e-06
3.9445276e-07
5.4732291e-08
1.6905307e-08
8.9645268e-09
4.5835133e-09
2.2203956e-09
1.009777e-09
4.2865117e-10
1.6960805e-10
6.2455403e-11
2.1400181e-11
6.8187098e-12
2.0177805e-12
5.5334995e-13
1.4029376e-13
3.279571e-14
7.0396873e-15
1.3823581e-15
2.4720734e-16
4.0055138e-17
5.8477894e-18
7.6383708e-19
8.8552096e-20
9.0203213e-21
7.9731787e-22
6.020779e-23
3.8031536e-24
1.9530413e-25
7.8133658e-27
2.2840191e-28
4.3377981e-30
4.0159857e-32
0.0031743492
0.0026774598
0.0027734298
0.0021225087
0.0011043256
0.00038056851
7.9444913e-05
1.1468264e-05
1.3956794e-06
1.4777653e-07
0.0041085323
0.0042472569
0.0035250885
0.0021297609
0.0007532301
0.00010475392
5.4181186e-06
4.0315912e-07
5.7571836e-08
1.7211273e-08
9.1782153e-09
4.6967736e-09
2.2641138e-09
1.021785e-09
4.3002709e-10
1.6879887e-10
6.1772081e-11
2.1076492e-11
6.6985474e-12
1.9795833e-12
5.4255505e-13
1.3754646e-13
3.2157775e-14
6.905271e-15
1.3565063e-15
2.4273178e-16
3.9355311e-17
5.7501087e-18
7.5172866e-19
8.722405e-20
8.8935342e-21
7.8681141e-22
5.9466909e-23
3.7590253e-24
1.9286485e-25
7.7108189e-27
2.253051e-28
4.27765e-30
3.9591453e-32
0.0037052763
0.0031682363
0.0031776031
0.002486953
0.0013698646
0.00049305144
0.00010443372
1.4609563e-05
1.7386511e-06
1.8301183e-07
2.2049726e-08
0.0046101171
0.0047122688
0.0038927415
0.0023676637
0.00086360658
0.0001264171
6.1189705e-06
4.255893e-07
6.2236849e-08
1.7765527e-08
9.4811447e-09
4.8306983e-09
2.3092131e-09
1.0322324e-09
4.3047862e-10
1.6774763e-10
6.1082987e-11
2.0779265e-11
6.5938892e-12
1.9473499e-12
5.3360798e-13
1.3528929e-13
3.1634367e-14
6.7948983e-15
1.3352016e-15
2.3903139e-16
3.8775378e-17
5.6688503e-18
7.4165077e-19
8.6115989e-20
8.7876345e-21
7.7804164e-22
5.8846897e-23
3.717366e-24
1.9056843e-25
7.6146149e-27
2.2240688e-28
4.2214409e-30
3.9060578e-32
0.0042715804
0.0037079798
0.0036170277
0.0028734491
0.0016656549
0.00062750788
0.00013537496
1.828874e-05
2.1173754e-06
2.2186413e-07
2.7104808e-08
7.6675801e-09
0.0051368778
0.0051833067
0.004259249
0.0026222645
0.0010010938
0.00015873247
7.3978818e-06
4.6482195e-07
6.9003853e-08
1.8527568e-08
9.8392452e-09
4.9702481e-09
2.3504748e-09
1.0396933e-09
4.2995129e-10
1.665586e-10
6.043903e-11
2.0523208e-11
6.5077365e-12
1.9214774e-12
5.265e-13
1.334972e-13
3.1216105e-14
6.7060636e-15
1.3179012e-15
2.3600404e-16
3.8298508e-17
5.6016142e-18
7.3329069e-19
8.5194661e-20
8.6992703e-21
7.7073283e-22
5.8278454e-23
3.6775608e-24
1.8838726e-25
7.5236648e-27
2.1967627e-28
4.1686049e-30
3.8562077e-32
0.0048691951
0.0042860507
0.0040940403
0.0032843087
0.0019870983
0.00078449354
0.00017305458
2.2497215e-05
2.5187956e-06
2.625516e-07
3.2486009e-08
9.4786536e-09
3.7756993e-09
0.0056850136
0.0056620716
0.0046367518
0.0029109503
0.0011818445
0.00020760688
9.5981863e-06
5.236861e-07
7.7906813e-08
1.94241e-08
1.0214902e-08
5.1006916e-09
2.3832418e-09
1.0437713e-09
4.2870261e-10
1.653892e-10
5.9889905e-11
2.0319742e-11
6.4418654e-12
1.9020042e-12
5.2113868e-13
1.3212923e-13
3.0891137e-14
6.6358958e-15
1.3040332e-15
2.335448e-16
3.7908203e-17
5.5460706e-18
7.2635613e-19
8.4428626e-20
8.625405e-21
7.6440322e-22
5.7723783e-23
3.6391006e-24
1.8629674e-25
7.4369972e-27
2.1708543e-28
4.1186114e-30
5.0720803e-34
0.0054932092
0.0048974939
0.0046097394
0.0037233744
0.002330368
0.00096395527
0.0002181933
2.7233838e-05
2.9247618e-06
3.0294206e-07
3.7921784e-08
1.1398582e-08
4.6973141e-09
1.8218118e-09
0.0062539686
0.0061567039
0.0050460133
0.0032608778
0.0014254428
0.00028100926
1.3168944e-05
6.0319304e-07
8.8643402e-08
2.0375823e-08
1.0572362e-08
5.2081633e-09
2.4055973e-09
1.0450689e-09
4.2718131e-10
1.6439854e-10
5.9476681e-11
2.0176382e-11
6.3967823e-12
1.8886393e-12
5.1736496e-13
1.3113346e-13
3.0645949e-14
6.5814066e-15
1.2930135e-15
2.3155293e-16
3.7588473e-17
5.5000785e-18
7.2057503e-19
8.3789042e-20
8.5635772e-21
7.5804072e-22
5.71753e-23
3.6015732e-24
1.8427487e-25
7.3537501e-27
2.1460922e-28
5.8847269e-32
3.4398353e-36
0.0061402779
0.0055336542
0.0051622914
0.004195151
0.0026964968
0.0011658094
0.00027175709
3.2522078e-05
3.3152047e-06
3.4062185e-07
4.3119865e-08
1.3328256e-08
5.6816328e-09
2.2755441e-09
8.3025317e-10
0.0068461604
0.0066816891
0.0055170478
0.0037068157
0.0017576663
0.00038804153
1.8549328e-05
7.007414e-07
1.006772e-07
2.129495e-08
1.0874769e-08
5.2863025e-09
2.4187119e-09
1.0448099e-09
4.2586049e-10
1.6372099e-10
5.922914e-11
2.0096476e-11
6.3717701e-12
1.8808261e-12
5.1497206e-13
1.3045103e-13
3.0466476e-14
6.539587e-15
1.2842818e-15
2.2993246e-16
3.732465e-17
5.4616656e-18
7.1570533e-19
8.3249015e-20
8.5027228e-21
7.5155069e-22
5.662766e-23
3.5645926e-24
1.8230296e-25
7.2731781e-27
3.3312877e-30
4.3992005e-34
1.0547388e-38
0.0068032394
0.0061827547
0.0057483114
0.0047032958
0.0030901198
0.0013911404
0.00033513163
3.8446741e-05
3.6734335e-06
3.7331083e-07
4.776899e-08
1.5161253e-08
6.6808975e-09
2.7626891e-09
1.0428727e-09
3.6062058e-10
0.0074670393
0.0072585281
0.0060896392
0.0042861367
0.0022082452
0.00053566416
2.585911e-05
8.1068439e-07
1.1318755e-07
2.2082876e-08
1.1101072e-08
5.3368939e-09
2.4256611e-09
1.0441972e-09
4.2515542e-10
1.6346753e-10
5.9164595e-11
2.0079038e-11
6.3650825e-12
1.8778112e-12
5.1372407e-13
1.3002065e-13
3.033862e-14
6.5075832e-15
1.2773046e-15
2.2859637e-16
3.7103249e-17
5.4290892e-18
7.1152947e-19
8.2762501e-20
8.4379637e-21
7.4487709e-22
5.607547e-23
3.5278598e-24
1.8036549e-25
1.2266869e-28
2.7454515e-32
1.5043131e-36
1.250981e-41
0.0074830397
0.006832858
0.006362877
0.0052493665
0.0035169291
0.0016432576
0.0004101912
4.519485e-05
3.9883243e-06
3.9911553e-07
5.1620697e-08
1.6788222e-08
7.6418322e-09
3.2599834e-09
1.2729493e-09
4.5520482e-10
1.4784275e-10
0.0081264435
0.0079170069
0.0068047692
0.0050297635
0.002794699
0.00072130171
3.4485493e-05
9.230296e-07
1.2491175e-07
2.2676341e-08
1.1250728e-08
5.3669545e-09
2.4296073e-09
1.0444936e-09
4.2546708e-10
1.6371917e-10
5.9285606e-11
2.0119207e-11
6.3741966e-12
1.878721e-12
5.1337385e-13
1.2978115e-13
3.0249014e-14
6.4827128e-15
1.2715982e-15
2.2746516e-16
3.6912416e-17
5.4007757e-18
7.0789333e-19
8.2212689e-20
8.3688062e-21
7.3795961e-22
5.5515147e-23
3.4911416e-24
3.3051557e-27
1.1145092e-30
1.0479432e-34
1.9921621e-39
5.6965657e-45
0.0081840504
0.0074894254
0.0070007215
0.0058324601
0.0039813936
0.0019277595
0.00049936333
5.3098807e-05
4.2572823e-06
4.1721164e-07
5.4520798e-08
1.8118751e-08
8.5086654e-09
3.7417833e-09
1.510011e-09
5.5825111e-10
1.8757415e-10
5.722383e-11
0.0088392536
0.0086901164
0.0076898318
0.0059515457
0.0034957148
0.00092812323
4.2733953e-05
1.0221309e-06
1.3478169e-07
2.3065323e-08
1.1339672e-08
5.384521e-09
2.4340364e-09
1.0471199e-09
4.2710877e-10
1.64502e-10
5.9580473e-11
2.020917e-11
6.3961027e-12
1.882629e-12
5.1367458e-13
1.2967447e-13
3.0185139e-14
6.4625689e-15
1.2667224e-15
2.2646921e-16
3.674161e-17
5.3753396e-18
7.0392021e-19
8.1595931e-20
8.2947226e-21
7.3076695e-22
5.4944244e-23
6.9501172e-26
3.3102556e-29
4.7516609e-33
1.5549373e-37
9.813374e-43
1.2939799e-48
0.008912178
0.0081588522
0.0076573705
0.0064488491
0.0044851041
0.0022493435
0.00060560876
6.2643588e-05
4.4881244e-06
4.2798035e-07
5.642902e-08
1.9094249e-08
9.2340802e-09
4.1811633e-09
1.7420921e-09
6.6521644e-10
2.3117196e-10
7.2971554e-11
2.0790085e-11
0.0096227452
0.0096007164
0.0087502828
0.0070258501
0.0042552403
0.0011239241
4.7935323e-05
1.0942465e-06
1.4223664e-07
2.3286059e-08
1.1390096e-08
5.3989424e-09
2.443398e-09
1.0532097e-09
4.3022372e-10
1.6579218e-10
6.0026686e-11
2.033921e-11
6.4275508e-12
1.8886054e-12
5.1439128e-13
1.2964634e-13
3.0135778e-14
6.4449832e-15
1.2622949e-15
2.255469e-16
3.6581935e-17
5.3511812e-18
6.9915754e-19
8.0908651e-20
8.2155344e-21
7.2328552e-22
1.1881687e-24
7.6721551e-28
1.5771147e-31
7.9246938e-36
8.3441535e-41
2.3139235e-46
1.8315365e-52
0.0096733852
0.0088492338
0.0083303793
0.0070911429
0.0050246505
0.0026081123
0.00073183207
7.4456067e-05
4.6973344e-06
4.3284889e-07
5.742941e-08
1.9698932e-08
9.7859862e-09
4.5542818e-09
1.9564009e-09
7.7084941e-10
2.76791e-10
9.036936e-11
2.6646616e-11
7.0772027e-12
0.010488722
0.01065027
0.009959841
0.0081844228
0.0049846
0.0012628869
4.7734164e-05
1.1349175e-06
1.4730302e-07
2.3389833e-08
1.1425603e-08
5.4234952e-09
2.4614301e-09
1.0632785e-09
4.3477121e-10
1.6752802e-10
6.0594699e-11
2.0498623e-11
6.4652544e-12
1.8957585e-12
5.153047e-13
1.2964819e-13
3.0090896e-14
6.4280903e-15
1.2579823e-15
2.2464669e-16
3.642714e-17
5.3193157e-18
6.935866e-19
8.0150805e-20
8.1313335e-21
1.6986307e-23
1.4452517e-26
4.0860109e-30
2.9646128e-34
4.6666422e-39
2.0508798e-44
3.3229977e-50
1.842684e-56
0.010470785
0.0095708509
0.0090196993
0.007748975
0.0055900954
0.0029993012
0.00087971602
8.9224654e-05
4.9075016e-06
4.3384174e-07
5.7730698e-08
1.9961074e-08
1.0151635e-08
4.8440152e-09
2.1414645e-09
8.6943501e-10
3.2226718e-10
1.0871315e-10
3.316188e-11
9.1170208e-12
2.2490808e-12
0.011435565
0.011814154
0.011255051
0.0093238479
0.0055754339
0.0013009189
4.1896517e-05
1.1499331e-06
1.5049094e-07
2.3437157e-08
1.1479315e-08
5.4693236e-09
2.4898015e-09
1.0772535e-09
4.4058861e-10
1.6962407e-10
6.1251198e-11
2.0676458e-11
6.5060341e-12
1.9032558e-12
5.162185e-13
1.2963684e-13
3.0041936e-14
6.4102805e-15
1.2535127e-15
2.2372544e-16
3.6243976e-17
5.2796719e-18
6.8722284e-19
7.9325826e-20
2.0732721e-22
2.2759114e-25
8.6051284e-29
8.6767129e-33
1.929707e-37
1.2011931e-42
2.9948168e-48
3.3482275e-54
1.4312572e-60
0.011301983
0.01033469
0.009728282
0.0084117899
0.0061664089
0.0034119955
0.0010479816
0.00010752142
5.1438247e-06
4.3309531e-07
5.7597351e-08
1.9940798e-08
1.0340419e-08
5.043801e-09
2.2887373e-09
9.5573361e-10
3.6519647e-10
1.2715895e-10
4.0085221e-11
1.1402233e-11
2.912033e-12
6.6507804e-13
0.012445085
0.013043462
0.012544167
0.010322433
0.0059169993
0.0012188639
3.274202e-05
1.1495909e-06
1.5258917e-07
2.3521594e-08
1.158297e-08
5.5416062e-09
2.528477e-09
1.0947355e-09
4.4744487e-10
1.7198239e-10
6.196169e-11
2.0862028e-11
6.546914e-12
1.9103492e-12
5.1695934e-13
1.2957575e-13
2.9981635e-14
6.3902677e-15
1.248666e-15
2.2278797e-16
3.5996223e-17
5.2324828e-18
6.8011757e-19
2.1950938e-21
3.0584643e-24
1.5148837e-27
2.0681406e-31
6.2877786e-36
5.2299162e-41
1.7878286e-46
3.0256606e-52
2.5839627e-58
1.021008e-64
0.012161191
0.011149172
0.010461611
0.0090723533
0.0067370067
0.0038300214
0.001231385
0.00012952457
5.4272955e-06
4.3252047e-07
5.7296532e-08
1.9719098e-08
1.0378366e-08
5.1566225e-09
2.3941277e-09
1.025702e-09
4.0332255e-10
1.4475121e-10
4.7109177e-11
1.384928e-11
3.6598331e-12
8.6545116e-13
1.8235382e-13
0.013486084
0.014273851
0.013724233
0.011067003
0.0059319834
0.0010354669
2.3579698e-05
1.142629e-06
1.5477222e-07
2.3728012e-08
1.1750873e-08
5.6401115e-09
2.5764914e-09
1.1151194e-09
4.5506518e-10
1.7450009e-10
6.2692313e-11
2.1045305e-11
6.5852112e-12
1.9163815e-12
5.1738179e-13
1.2943445e-13
2.9904352e-14
6.3670458e-15
1.2432802e-15
2.2143459e-16
3.5686142e-17
5.1783082e-18
2.0416093e-20
3.5633004e-23
2.2753329e-26
4.126736e-30
1.6799935e-34
1.8056315e-39
7.9554696e-45
1.8133604e-50
2.3216565e-56
1.8257474e-62
7.2869243e-69
0.013047256
0.012019534
0.011229696
0.0097303816
0.007287762
0.00423656
0.0014216591
0.00015481963
5.7665451e-06
4.3339318e-07
5.7044135e-08
1.9372584e-08
1.0300288e-08
5.1934598e-09
2.4580581e-09
1.0771916e-09
4.3483658e-10
1.6057246e-10
5.3878884e-11
1.6353159e-11
4.4666891e-12
1.093039e-12
2.384878e-13
4.6194717e-14
0.01453048
0.015441569
0.014705689
0.011472395
0.0056029536
0.00079914809
1.6655448e-05
1.1367128e-06
1.5828667e-07
2.408173e-08
1.1981732e-08
5.7622995e-09
2.6323293e-09
1.1376661e-09
4.6315733e-10
1.7707563e-10
6.3411152e-11
2.1217209e-11
6.6185752e-12
1.9208037e-12
5.1736639e-13
1.2918994e-13
2.9805882e-14
6.3399153e-15
1.236911e-15
2.1962746e-16
3.5318684e-17
1.6853484e-19
3.6446198e-22
2.9617503e-25
7.0331781e-29
3.7816383e-33
5.1488802e-38
2.8156191e-43
8.1120983e-49
1.3845112e-54
1.6253491e-60
1.2894416e-66
5.2043098e-73
0.013959175
0.012944551
0.012045972
0.0103968
0.0078139849
0.0046174589
0.0016090587
0.00018239836
6.1586565e-06
4.3597853e-07
5.698696e-08
1.8970306e-08
1.0145041e-08
5.1698573e-09
2.4847476e-09
1.1100426e-09
4.5867711e-10
1.7386072e-10
6.004624e-11
1.8790268e-11
5.2992289e-12
1.3404525e-12
3.0267591e-13
6.0715019e-14
1.0769112e-14
0.015564154
0.0164937
0.015421753
0.011492611
0.0049830534
0.00056570998
1.2432111e-05
1.1413575e-06
1.6381947e-07
2.4577542e-08
1.2270823e-08
5.904834e-09
2.6941607e-09
1.161595e-09
4.7143326e-10
1.7961317e-10
6.4089237e-11
2.1369802e-11
6.6450471e-12
1.9231703e-12
5.1682527e-13
1.2882603e-13
2.968353e-14
6.3091679e-15
1.2275962e-15
2.1740327e-16
1.2455321e-18
3.3062244e-21
3.3826608e-24
1.0395353e-27
7.3123728e-32
1.2471783e-36
8.258716e-42
2.8907144e-47
6.1675464e-53
9.6063486e-59
1.1362253e-64
9.1093463e-71
3.7203011e-77
0.014893348
0.013914271
0.01292604
0.011096834
0.0083288658
0.0049680551
0.0017852514
0.0002108344
6.59444e-06
4.4010984e-07
5.7180439e-08
1.8562476e-08
9.9488341e-09
5.1037265e-09
2.4808881e-09
1.1258548e-09
4.7459901e-10
1.8414428e-10
6.5312063e-11
2.1036852e-11
6.1173702e-12
1.5978346e-12
3.729732e-13
7.7431475e-14
1.422452e-14
2.3010797e-15
0.016575012
0.01738598
0.015827106
0.011129583
0.0041801901
0.00037463579
1.0298744e-05
1.1621612e-06
1.7151425e-07
2.5215629e-08
1.2611211e-08
6.0632567e-09
2.7599618e-09