/*--------------------------------*- C++ -*----------------------------------*\
| =========                 |                                                 |
| \\      /  F ield         | OpenFOAM: The Open Source CFD Toolbox           |
|  \\    /   O peration     | Version:  5.0                                   |
|   \\  /    A nd           | Web:      www.OpenFOAM.org                      |
|    \\/     M anipulation  |                                                 |
\*---------------------------------------------------------------------------*/
FoamFile
{
    version     2.0;
    format      ascii;
    class       volScalarField;
    location    "40";
    object      p;
}
// * * * * * * * * * * * * * * * * * * * * * * * * * * * * * * * * * * * * * //

dimensions      [0 2 -2 0 0 0 0];

internalField   nonuniform List<scalar> 
9520
(
-0.00017876058
-0.0001750662
-0.00038177841
-0.00016832236
-0.00037237638
-0.00063138808
-0.00015912719
-0.00035521104
-0.00061605637
-0.00086489921
-0.000147934
-0.00033178748
-0.00058808583
-0.00084445619
-0.0011181053
-0.00013520574
-0.00030333511
-0.0005498655
-0.00080704949
-0.0010924736
-0.0013769227
-0.00012133432
-0.00027100986
-0.00050336258
-0.00075570707
-0.0010454811
-0.0013468615
-0.0016475223
-0.00010673487
-0.00023579532
-0.00045040574
-0.00069294332
-0.00098080247
-0.0012916114
-0.0016135307
-0.0019267465
-9.1661009e-05
-0.00019864835
-0.00039258275
-0.00062115741
-0.00090151214
-0.0012153133
-0.0015508172
-0.0018890566
-0.0022128266
-7.6619463e-05
-0.00016029897
-0.00033142597
-0.00054242781
-0.00081058576
-0.0011213756
-0.0014637607
-0.0018193658
-0.002171747
-0.0025057877
-6.1465353e-05
-0.00012164926
-0.00026824132
-0.00045879503
-0.00071075712
-0.0010129525
-0.0013559548
-0.0017222031
-0.002095829
-0.0024622658
-0.0028053593
-4.7167221e-05
-8.2925499e-05
-0.00020442169
-0.0003720831
-0.0006044517
-0.00089306186
-0.0012307024
-0.0016012387
-0.0019898588
-0.0023816036
-0.0027606944
-0.0031116498
-3.2513761e-05
-4.545556e-05
-0.00014065811
-0.00028412334
-0.00049385535
-0.00076450962
-0.0010911393
-0.0014599261
-0.0018574997
-0.0022685668
-0.0026774683
-0.0030675265
-0.0034235139
-1.9793064e-05
-8.2772752e-06
-7.8610623e-05
-0.00019608271
-0.00038114427
-0.00062988197
-0.00094042307
-0.0013015864
-0.0017021185
-0.0021267377
-0.0025600147
-0.0029845997
-0.0033811478
-0.0037399111
-5.6195362e-06
2.5869028e-05
-1.7599742e-05
-0.00010989162
-0.00026785866
-0.00049169491
-0.00078157504
-0.0011295645
-0.0015269529
-0.0019592984
-0.0024114849
-0.0028663014
-0.0033007986
-0.0037004522
-0.0040585771
5.1692599e-06
6.0483509e-05
3.937442e-05
-2.5237151e-05
-0.00015617198
-0.00035197846
-0.00061755563
-0.0009471618
-0.0013353253
-0.001769273
-0.0022346853
-0.0027149687
-0.003184911
-0.0036248281
-0.0040229431
-0.0043775605
1.8998891e-05
9.0035419e-05
9.5762297e-05
5.4776516e-05
-4.6192717e-05
-0.00021333783
-0.00045097333
-0.00075763544
-0.0011305807
-0.0015597847
-0.0020323772
-0.0025328039
-0.0030348252
-0.0035143399
-0.0039538875
-0.0043469187
-0.0046946131
2.822183e-05
0.00012179722
0.00014556686
0.00013339018
5.8620605e-05
-7.6583734e-05
-0.00028479686
-0.00056386582
-0.00091600626
-0.0013340697
-0.0018074782
-0.0023220402
-0.0028518273
-0.0033691219
-0.003851473
-0.0042865598
-0.0046701845
-0.0050067172
4.1283075e-05
0.00014681798
0.00019640669
0.00020429344
0.00016106022
5.4529295e-05
-0.00012021699
-0.00036880687
-0.00069462034
-0.0010954758
-0.0015631811
-0.0020852823
-0.0026372857
-0.003189221
-0.0037145132
-0.0041951394
-0.0046207119
-0.0049896304
-0.0053132324
4.9935607e-05
0.00017539267
0.00023838533
0.00027528107
0.00025432964
0.00018246245
3.9171241e-05
-0.00017393018
-0.00046965418
-0.00084741532
-0.001302947
-0.0018255515
-0.0023931965
-0.0029753117
-0.0035419741
-0.0040701447
-0.004543249
-0.0049532563
-0.0053044564
-0.0056112523
6.0977159e-05
0.00019734267
0.00028279421
0.000335492
0.00034643715
0.00030047956
0.00019564186
1.703837e-05
-0.00024341928
-0.00059362038
-0.0010304117
-0.0015462039
-0.0021221222
-0.002728667
-0.0033333557
-0.0039093442
-0.0044339639
-0.0048930283
-0.0052830207
-0.0056116909
-0.0058992356
7.0966241e-05
0.00022164504
0.00031801648
0.00039728135
0.00042583156
0.00041691064
0.00034235958
0.00020535948
-2.0228909e-05
-0.00033704388
-0.00074929944
-0.0012507834
-0.0018271347
-0.00245127
-0.0030890199
-0.0037110041
-0.0042890908
-0.004803527
-0.0052429444
-0.0056069613
-0.0059100214
-0.0061753822
7.8418037e-05
0.00024289307
0.00035468122
0.00044727822
0.00050619752
0.00051963485
0.00048718571
0.00038362725
0.00020018855
-8.1965646e-05
-0.00046262665
-0.00094286331
-0.001511709
-0.0021457753
-0.0028102726
-0.0034743614
-0.0041058107
-0.0046795842
-0.005176956
-0.0055896916
-0.0059241108
-0.0061972456
-0.0064383259
9.1152724e-05
0.00026113134
0.00038585668
0.00049819054
0.00057270927
0.0006232206
0.00061697975
0.00055899118
0.00041057021
0.00017161641
-0.00017440795
-0.00062569694
-0.0011796296
-0.0018153805
-0.0024993392
-0.003199832
-0.0038821507
-0.0045167334
-0.005078341
-0.0055510321
-0.005932158
-0.0062315498
-0.0064719099
-0.0066868228
9.5614334e-05
0.00028386551
0.00041320398
0.00054075557
0.00064013114
0.00071075425
0.00074663723
0.00071781596
0.00061783936
0.00041689144
0.00011477455
-0.00030342284
-0.00083454847
-0.0014638651
-0.002159248
-0.0028889567
-0.0036173746
-0.0043119108
-0.0049411129
-0.0054824136
-0.0059240852
-0.0062671542
-0.0065277345
-0.0067326118
-0.0069198838
0.00010999369
0.00029598726
0.00044341431
0.00057903459
0.00069686161
0.0007989575
0.00085755604
0.00087589073
0.0008085805
0.00066027385
0.00039799256
2.2256678e-05
-0.00048085984
-0.0010953186
-0.0017935914
-0.0025441729
-0.0033122109
-0.0040631798
-0.0047608318
-0.0053764872
-0.0058896941
-0.0062926274
-0.006593206
-0.0068109757
-0.0069782229
-0.007136729
0.00011452985
0.00031886066
0.000461405
0.00061775634
0.00074931223
0.00087317576
0.00096883137
0.0010133711
0.0009989666
0.0008879807
0.00068048453
0.00034428776
-0.00012108831
-0.00071424297
-0.0014062486
-0.0021687304
-0.0029685424
-0.0037703168
-0.0045345816
-0.0052271028
-0.0058199944
-0.0062965871
-0.006655169
-0.0069078005
-0.0070798747
-0.0072078152
-0.0073368013
0.00012797729
0.00032823565
0.00049048242
0.00064283088
0.00080006715
0.00094299994
0.001063163
0.0011515362
0.0011679025
0.0011158023
0.00094788696
0.00066681599
0.0002380322
-0.00032351406
-0.0010014731
-0.0017664148
-0.0025892851
-0.0034345603
-0.0042609111
-0.0050300417
-0.0057073946
-0.0062681778
-0.0067010798
-0.0070085517
-0.007209374
-0.0073332252
-0.0074206881
-0.0075197527
0.00013629544
0.00034721496
0.00050359149
0.00067837302
0.00083627892
0.0010080611
0.0011534803
0.0012702234
0.0013381708
0.0013210808
0.0012157002
0.00097539334
0.00059984814
7.0617892e-05
-0.00058252716
-0.0013414935
-0.0021781182
-0.0030584484
-0.0039402605
-0.0047826373
-0.0055459169
-0.0061983292
-0.0067185105
-0.0070995843
-0.0073511994
-0.0074962916
-0.0075700601
-0.0076163557
-0.007685434
0.00014942492
0.00035798262
0.00052814441
0.00069376837
0.00088210797
0.0010577798
0.0012362702
0.0013858481
0.00148676
0.0015278365
0.0014600159
0.0012856406
0.00095016712
0.00047060677
-0.00015539689
-0.00089780509
-0.001739539
-0.002645629
-0.0035745458
-0.0044841772
-0.0053317788
-0.0060793519
-0.0066968056
-0.0071671636
-0.00749021
-0.0076805239
-0.0077672189
-0.0077896323
-0.0077945396
-0.007833879
0.00016638706
0.00037196799
0.0005413917
0.00072259468
0.00090516651
0.0011163613
0.0013040585
0.0014909309
0.0016329187
0.0017099313
0.0017062703
0.0015722612
0.0013046635
0.00086241956
0.00028107902
-0.00044133684
-0.0012778784
-0.0022005824
-0.0031670302
-0.0041359186
-0.005063064
-0.0059058846
-0.0066266773
-0.0071989693
-0.0076116674
-0.007869671
-0.0079949286
-0.0080210258
-0.0079914173
-0.0079551561
-0.0079652875
0.00018312229
0.0003837386
0.00055761327
0.0007358752
0.00094266916
0.0011497942
0.001379414
0.0015813946
0.0017652977
0.0018900508
0.0019256435
0.0018624478
0.0016362503
0.0012616169
0.00071309085
2.7649681e-05
-0.00079907592
-0.0017278175
-0.002722026
-0.00374063
-0.0047399793
-0.0056745902
-0.006500932
-0.0071840402
-0.0077017443
-0.0080482805
-0.0082362366
-0.0082926983
-0.0082568266
-0.0081751025
-0.0080983003
-0.0080800069
0.00021859795
0.00039128139
0.00057097438
0.00075193744
0.00095950765
0.0011994921
0.0014277998
0.0016773349
0.0018834207
0.0020522633
0.0021440196
0.0021241258
0.0019744419
0.0016388623
0.0011557499
0.00049609286
-0.00030452079
-0.0012332699
-0.0022442443
-0.0033024973
-0.0043647023
-0.0053845305
-0.0063147619
-0.0071133419
-0.0077478368
-0.0082010828
-0.0084747088
-0.0085871737
-0.0085725636
-0.0084739656
-0.0083405764
-0.0082242286
-0.0081785135
0.00024525105
0.00041332834
0.00058023857
0.00076733057
0.00098166268
0.0012252483
0.0014938805
0.0017437933
0.002004118
0.0022007163
0.0023411002
0.0023865841
0.0022828021
0.0020269668
0.0015773758
0.00097809706
0.00019389436
-0.00071923733
-0.0017398113
-0.0028265307
-0.0039411741
-0.0050369853
-0.0060656633
-0.0069801788
-0.0077390867
-0.008313884
-0.0086939995
-0.0088875349
-0.0089210314
-0.0088333604
-0.0086720161
-0.0084879125
-0.00833334
-0.0082613927
0.00029692398
0.00041049457
0.00060110806
0.00077599403
0.0010039937
0.0012606757
0.0015299337
0.0018304817
0.0020943007
0.0023479626
0.0025257689
0.0026247605
0.0025953156
0.0023835446
0.0020149672
0.001440469
0.00070838828
-0.00019686475
-0.0012120112
-0.0023191605
-0.0034744828
-0.0046352913
-0.0057536509
-0.0067803154
-0.0076667633
-0.0083739213
-0.0088784853
-0.0091765419
-0.0092847885
-0.0092357183
-0.0090742752
-0.0088507691
-0.0086173536
-0.0084261566
-0.0083293145
0.00034077012
0.00041463701
0.0006048557
0.00078998011
0.0010168823
0.0012884076
0.0015830653
0.0018810972
0.0022021164
0.0024641396
0.0027056035
0.0028523383
0.0028806354
0.0027494357
0.0024181837
0.001924602
0.0012059134
0.00034368935
-0.00067165572
-0.0017845783
-0.002971286
-0.0041843674
-0.0053811926
-0.0065121983
-0.0075246258
-0.0083703595
-0.0090136703
-0.0094373276
-0.009645988
-0.0096635199
-0.0095301584
-0.009294672
-0.0090102211
-0.0087292934
-0.0085033041
-0.0083830111
0.00043422994
0.00041108531
0.00062316181
0.00079258573
0.001031061
0.0012980656
0.0016241701
0.0019531021
0.0022713184
0.0025969105
0.0028541603
0.0030711888
0.0031588255
0.0030846125
0.002837554
0.0023706483
0.0017307277
0.00087085534
-0.00011125014
-0.0012332685
-0.0024367428
-0.0036909751
-0.004952877
-0.0061769893
-0.0073091607
-0.0082947
-0.0090865334
-0.009653679
-0.0099867957
-0.010098674
-0.010022217
-0.0098029509
-0.0094942285
-0.0091505527
-0.0088242535
-0.0085654902
-0.008423273
0.00057973498
0.00038493997
0.00063407191
0.00080525998
0.0010313865
0.0013196418
0.0016341314
0.0019996863
0.0023643684
0.0026892805
0.0030174696
0.003259371
0.0034240016
0.0034180345
0.0032208482
0.0028425103
0.0022139079
0.0014287628
0.00043951503
-0.0006599338
-0.0018816388
-0.0031614013
-0.0044757786
-0.0057783469
-0.0070197549
-0.0081411728
-0.0090862154
-0.0098105315
-0.010289653
-0.010522709
-0.010532353
-0.010358544
-0.0100535
-0.0096727623
-0.0092721088
-0.0089028624
-0.008613484
-0.0084509594
0.00072164521
0.00034313679
0.00064798185
0.0008074985
0.0010466156
0.001317803
0.0016630981
0.0020088634
0.0024202586
0.0027993287
0.003136941
0.0034606493
0.0036615612
0.003733897
0.0036092546
0.0032704544
0.002735134
0.0019429903
0.0010222309
-9.3087311e-05
-0.001302798
-0.0026075592
-0.003956506
-0.0053226675
-0.0066585726
-0.0079069871
-0.0090043974
-0.0098945395
-0.010537502
-0.010916774
-0.011041738
-0.010943812
-0.010671563
-0.010280942
-0.0098303917
-0.0093753845
-0.008965844
-0.0086481057
-0.0084669563
0.00086389398
0.00030884942
0.00066601815
0.00079824266
0.0010472135
0.0013305476
0.0016667107
0.0020564734
0.0024264746
0.0028848595
0.0032767998
0.0036136966
0.0039080098
0.0040269762
0.0039737687
0.0037148027
0.0032022687
0.0025062608
0.00156196
0.00050516825
-0.00072749979
-0.0020281589
-0.0034069661
-0.0048166365
-0.0062305029
-0.0075923979
-0.0088357219
-0.0098946726
-0.010714607
-0.01126219
-0.011530782
-0.011539962
-0.011331434
-0.01095952
-0.010485243
-0.0099673863
-0.0094610257
-0.0090139983
-0.0086702281
-0.0084720583
0.00030672772
0.00085576795
0.00070354562
0.00078530545
0.0010520743
0.001333622
0.001688787
0.0020793156
0.0024828653
0.0029222336
0.0033848982
0.0037930984
0.0041070189
0.0043261215
0.0043212594
0.0041257192
0.0037030266
0.0030034799
0.0021561074
0.0010616155
-0.00012075945
-0.0014499437
-0.0028280897
-0.0042730611
-0.0057421396
-0.0072007669
-0.0085780433
-0.0098026616
-0.010807104
-0.011540931
-0.011979461
-0.012126992
-0.012014709
-0.011692612
-0.011222139
-0.010666089
-0.010084277
-0.0095298132
-0.0090481715
-0.0086807391
-0.0084669538
0.000760521
0.00030486767
0.0007087698
0.00079982028
0.0010570235
0.0013420127
0.0017079478
0.0021060799
0.002526304
0.0029860125
0.0034476762
0.0039258658
0.0043309108
0.0045779851
0.0046697459
0.004531066
0.0041584131
0.0035542228
0.0026760091
0.0016718567
0.00044520261
-0.00084160271
-0.0022469783
-0.0036941388
-0.0052059635
-0.0067375789
-0.0082324833
-0.0096134937
-0.010803584
-0.011736356
-0.012367734
-0.012683821
-0.01270147
-0.012462585
-0.012026446
-0.011458331
-0.010823933
-0.010181603
-0.0095825803
-0.0090692549
-0.0086804654
-0.0084524936
0.00082489148
0.00075898617
0.00030818966
0.00056252462
0.0010862545
0.0013523022
0.0017137771
0.0021326649
0.0025637296
0.0030381635
0.003535143
0.0040098455
0.0045021492
0.0048513752
0.004965909
0.004925822
0.0046265216
0.0040414658
0.0032656831
0.0022053148
0.0010653021
-0.00027381757
-0.001637065
-0.0031076128
-0.0046252359
-0.0062126432
-0.0078028526
-0.0093254736
-0.01069578
-0.011833798
-0.012676312
-0.013188812
-0.01337017
-0.013249997
-0.012881647
-0.012331083
-0.011668445
-0.010958949
-0.010260123
-0.0096201235
-0.009078152
-0.008670191
-0.0084297699
0.0011288428
0.00082168114
0.0007014374
0.00034412679
0.00042103096
0.0013852481
0.0017387931
0.002143514
0.0026031794
0.0030842161
0.0036104415
0.0041194867
0.0046228361
0.0050749109
0.0052996867
0.0052937408
0.0050742342
0.0045602317
0.0037696814
0.0028079914
0.0016091957
0.00034638224
-0.0010685144
-0.002488856
-0.004029088
-0.0056300549
-0.0072977274
-0.0089402718
-0.010478699
-0.011821441
-0.012887312
-0.013620331
-0.013997964
-0.014033174
-0.01376926
-0.013269299
-0.012606379
-0.011852039
-0.011071972
-0.010320578
-0.0096432616
-0.0090757825
-0.0086508331
-0.008399539
0.0014344404
0.0011335506
0.00079322719
0.00066438288
0.00039052724
0.00032991789
0.0017768109
0.0021776701
0.0026335056
0.0031429181
0.003672226
0.0042270227
0.0047600217
0.0052502472
0.0055830049
0.0056823612
0.0054970907
0.0050452598
0.0043324073
0.003313654
0.0022181055
0.00088778484
-0.00045644585
-0.0019071493
-0.0033931195
-0.0050192713
-0.0067206216
-0.0084641365
-0.010151083
-0.011690579
-0.012985226
-0.013957478
-0.014561262
-0.014788691
-0.014668162
-0.014255811
-0.013624467
-0.012851326
-0.012009965
-0.011163345
-0.010363868
-0.0096530837
-0.0090631372
-0.0086233586
-0.0083627312
0.0018505131
0.0014394923
0.001098238
0.00078323939
0.00064692024
0.00041746438
0.00028982538
0.0022268366
0.0026785638
0.0031989551
0.0037539629
0.0043119596
0.0049049553
0.0054320023
0.0058249498
0.0060139161
0.0059184875
0.0055186977
0.0048387975
0.0039062354
0.002744702
0.0014949102
6.2893404e-05
-0.001283018
-0.0027882111
-0.004357463
-0.0060974437
-0.0079005897
-0.0097157193
-0.011436398
-0.012957357
-0.014181076
-0.015036495
-0.015491521
-0.015554845
-0.015270414
-0.014707286
-0.013945561
-0.013066401
-0.012142176
-0.011234138
-0.010391137
-0.0096507805
-0.0090411435
-0.0085884513
-0.0083198645
0.0023007761
0.0018625505
0.0014041753
0.001071351
0.00079874246
0.00063373947
0.00041185369
0.00024386533
0.0027389771
0.0032579544
0.0038393048
0.0044266273
0.0050205119
0.0056320176
0.006067188
0.0063179292
0.0062994558
0.0060058909
0.005351562
0.004416833
0.0033148767
0.0020101626
0.00065436879
-0.00074578706
-0.0021364872
-0.0037195657
-0.0054073389
-0.0072728787
-0.0091754655
-0.011058011
-0.012794805
-0.014274336
-0.015401021
-0.016115917
-0.016403434
-0.016290215
-0.015836195
-0.015121319
-0.014232281
-0.01325106
-0.01224978
-0.011285558
-0.010404012
-0.0096373768
-0.0090103186
-0.0085466763
-0.0082715988
0.0028285795
0.0023191481
0.0018157682
0.001375477
0.001066988
0.00080779907
0.00062547494
0.00040581852
0.00021884609
0.003339452
0.003913807
0.0045444579
0.0051639319
0.0058143929
0.0063223497
0.0066377945
0.0066761408
0.0064402224
0.0058754295
0.0049504366
0.0037999044
0.0025666364
0.0010977537
-0.00014988583
-0.0015670728
-0.0030224225
-0.0047313086
-0.0065606325
-0.0085496082
-0.01055619
-0.012492373
-0.014223946
-0.015634037
-0.016636139
-0.017186612
-0.01728917
-0.016989412
-0.01636192
-0.01549651
-0.014483645
-0.013406207
-0.012333575
-0.011319564
-0.010403349
-0.0096131072
-0.0089709992
-0.008498902
-0.0082188807
0.0034430496
0.0028599574
0.0022584891
0.0017815517
0.0013747518
0.0010595034
0.00081140617
0.00060181829
0.00040775479
0.00018612952
0.0040099912
0.0046305612
0.0053194162
0.0059716275
0.0065856911
0.0069518371
0.0070983563
0.0069815499
0.0063459288
0.0054689485
0.00434836
0.0030038154
0.0016622575
0.00031711629
-0.00094136792
-0.0023991682
-0.003977551
-0.0058429677
-0.007821972
-0.009943703
-0.012048116
-0.01402016
-0.015717688
-0.017027619
-0.017876064
-0.01823909
-0.01814144
-0.017647292
-0.016844901
-0.015831167
-0.014699982
-0.013532697
-0.012395945
-0.01133677
-0.010388968
-0.0095779818
-0.0089245854
-0.0084468226
-0.0081623754
0.0041058381
0.0034772332
0.0027936333
0.0022150863
0.0017595203
0.001363917
0.001056443
0.00079920946
0.00059460974
0.00038537565
0.00016591727
0.0047275454
0.0054370085
0.0061477915
0.0068057189
0.0072660613
0.0075141341
0.0074718705
0.0069843734
0.0059353019
0.0048354177
0.0035195274
0.0020464625
0.0008496054
-0.00043592105
-0.0017129679
-0.0032841705
-0.0050177291
-0.0070655154
-0.0092078279
-0.011469619
-0.013657271
-0.015637538
-0.017268021
-0.018443903
-0.019109747
-0.01926396
-0.018953237
-0.018259531
-0.017282268
-0.016124747
-0.014882058
-0.013633199
-0.012437613
-0.011336589
-0.010360471
-0.0095342279
-0.0088743652
-0.0083917656
-0.0081020067
0.0048048643
0.0041266921
0.0034009201
0.0027271351
0.0021815216
0.0017457976
0.0013506702
0.0010412094
0.00080183148
0.00057749676
0.0003795686
0.00014684655
0.0055377489
0.0063193753
0.0070252701
0.0075911214
0.0079983332
0.0080576931
0.0074494316
0.0066149382
0.0053273492
0.0038924683
0.0025727041
0.0012378456
0.00012020037
-0.0011575398
-0.0025153872
-0.0042826423
-0.0061773182
-0.0084131427
-0.01074518
-0.01313702
-0.015383658
-0.017338109
-0.018863554
-0.019870527
-0.020325626
-0.020252072
-0.019718227
-0.018821671
-0.017672418
-0.016377839
-0.015032486
-0.013708296
-0.012457356
-0.011317997
-0.01032133
-0.0094874716
-0.008822234
-0.0083315935
-0.008033811
0.0056115849
0.0047894891
0.0040427176
0.0033113139
0.0026763004
0.0021612638
0.0017238555
0.001343488
0.0010485688
0.00078639523
0.00056955046
0.00037083598
0.00013108347
0.0064406179
0.0072797048
0.0079137649
0.0084287141
0.0086783235
0.008105255
0.0071793922
0.0060302167
0.0044003813
0.0028786802
0.0016884965
0.00054832976
-0.00052821791
-0.001888295
-0.0034283952
-0.0053522442
-0.0074590701
-0.0099294752
-0.012450786
-0.014952244
-0.017223231
-0.019111067
-0.020491043
-0.021293842
-0.021512219
-0.021194683
-0.020429921
-0.019330606
-0.018015384
-0.016593016
-0.015151705
-0.013755515
-0.012453251
-0.011286176
-0.010280224
-0.0094401757
-0.0087619202
-0.0082588839
-0.0079581619
0.0065175558
0.0055572328
0.0046870722
0.0039446286
0.0032405149
0.002628298
0.0021316712
0.0017084799
0.0013486414
0.0010345671
0.00077428768
0.00055662628
0.00035916541
0.00012285035
0.0074371861
0.0082542073
0.0088309483
0.0091585512
0.0087255462
0.0078211855
0.0066698099
0.0051443969
0.0033806883
0.001950585
0.0010010374
-3.8060979e-05
-0.0011417754
-0.0026698285
-0.0043370357
-0.0065483729
-0.0089302049
-0.011642854
-0.014335334
-0.016914201
-0.019166702
-0.020942881
-0.022135029
-0.022699941
-0.022658039
-0.022082826
-0.021083182
-0.019785426
-0.018313496
-0.016770342
-0.015236022
-0.013772134
-0.012432621
-0.011253734
-0.010240257
-0.009379823
-0.0086797785
-0.0081794178
-0.007876649
0.0074864169
0.0064256468
0.005411199
0.0045853196
0.0038504662
0.0031534607
0.0025775668
0.0021017427
0.0016966303
0.0013269048
0.001021663
0.00075686052
0.00054209363
0.00034853809
0.00010935112
0.0084553338
0.0092410322
0.0096804042
0.009489131
0.0084028079
0.0074563845
0.0058056033
0.0040851072
0.0023731499
0.0013301283
0.0005013647
-0.00057025395
-0.0017679855
-0.0034867519
-0.0054081439
-0.0079576273
-0.01063236
-0.013567104
-0.016401899
-0.019015335
-0.021201111
-0.022816764
-0.023779282
-0.02407435
-0.023751201
-0.022908753
-0.021675754
-0.020188036
-0.018566002
-0.016904426
-0.015281564
-0.013767959
-0.012413021
-0.011224441
-0.010180258
-0.0092838827
-0.0085916237
-0.0080936068
-0.007789356
0.0084967331
0.0073698759
0.0062342329
0.0052886324
0.0044589655
0.0037414494
0.0030863787
0.0025363919
0.0020716969
0.001658665
0.0013153519
0.00099712985
0.00074129309
0.00053026647
0.00032941291
0.00010538663
0.0094939671
0.010172487
0.010219015
0.0094132985
0.0081830114
0.0066376193
0.0046886312
0.0028696479
0.0017086626
0.00093049549
8.3864979e-05
-0.0010911417
-0.0024411582
-0.0044611775
-0.0067288184
-0.0096276222
-0.012579586
-0.015708905
-0.018645515
-0.021244706
-0.023309033
-0.024714472
-0.025406269
-0.025401882
-0.024780764
-0.023668238
-0.022208839
-0.02053675
-0.018765094
-0.016989586
-0.015300991
-0.013766829
-0.012398935
-0.011165689
-0.010066003
-0.0091825875
-0.0084966471
-0.0080017789
-0.0076963337
0.0095571046
0.0083708225
0.00714396
0.0060687189
0.0051352236
0.0043510228
0.0036843658
0.0030314276
0.0024983372
0.0020263275
0.001647804
0.0012808081
0.00097191282
0.00072807264
0.00050636595
0.00032061454
9.1673918e-05
0.010484077
0.010827213
0.010372152
0.0090397837
0.0073664433
0.0050983218
0.0033385024
0.0021485989
0.0013382131
0.00059709774
-0.00028406495
-0.0016258855
-0.0032483457
-0.0056841811
-0.0083220784
-0.011565941
-0.014778972
-0.018068246
-0.021057716
-0.023584877
-0.025470812
-0.026615534
-0.026997232
-0.026667803
-0.025739901
-0.024361308
-0.022679206
-0.02082079
-0.018903574
-0.017042169
-0.015325989
-0.013773981
-0.01234313
-0.011028233
-0.0099472064
-0.0090737946
-0.008395573
-0.0079038915
-0.0075975924
0.010599042
0.0094433437
0.0081329353
0.0069310924
0.0058799177
0.0050312365
0.0042665259
0.003588635
0.0029796922
0.0024547044
0.0020141005
0.001609178
0.0012453989
0.00095303812
0.0006987011
0.00049406685
0.00029816304
8.7935423e-05
0.011257676
0.011082877
0.010013146
0.0079862392
0.0054613722
0.0036316456
0.0024189952
0.0018401148
0.001109672
0.00036795816
-0.00062700517
-0.0022615757
-0.004303143
-0.0072099279
-0.010212344
-0.013782223
-0.017236122
-0.020639992
-0.023623405
-0.026015844
-0.027663472
-0.028497535
-0.028533105
-0.02786199
-0.026626865
-0.024982894
-0.023071887
-0.021030373
-0.019001775
-0.017103344
-0.015362414
-0.013723723
-0.012177474
-0.010887051
-0.0098197731
-0.0089589194
-0.0082883629
-0.0078000478
-0.0074932943
0.011511528
0.010536473
0.0091928469
0.0078740551
0.0067028487
0.0057536501
0.0048642426
0.0041590629
0.0034872229
0.0029197903
0.0024274336
0.0019721207
0.0015580663
0.0012193988
0.00091520125
0.00068284806
0.00046497142
0.00028658841
7.5892332e-05
0.011686908
0.010865285
0.0088395957
0.0062260696
0.0039191864
0.0027205711
0.0020903581
0.0017070552
0.0010169695
0.00017802007
-0.0010607211
-0.003180728
-0.0056956656
-0.0090588411
-0.012416164
-0.016293943
-0.01995228
-0.02341343
-0.0263228
-0.028512747
-0.029861109
-0.03033669
-0.029999772
-0.028980346
-0.027434243
-0.025513239
-0.023373429
-0.021190168
-0.019112183
-0.017179611
-0.015321625
-0.013524507
-0.012008624
-0.01073603
-0.0096865742
-0.0088378056
-0.0081750556
-0.0076903509
-0.0073834588
0.012184719
0.011593255
0.01030466
0.0088859955
0.0076022465
0.006537167
0.0055538401
0.0047296424
0.0040491179
0.0034013327
0.0028753673
0.0023578214
0.0019030105
0.0015210941
0.0011695143
0.00089206075
0.00064706023
0.00044726292
0.00026420177
6.9149259e-05
0.011671303
0.0099371575
0.0071863538
0.0046191952
0.0030280443
0.0024195687
0.0019568989
0.0016976006
0.00095168095
-1.9089676e-05
-0.0017758255
-0.00448587
-0.0074204412
-0.011235755
-0.014954617
-0.019110389
-0.022920799
-0.026370595
-0.029130621
-0.031046664
-0.032035058
-0.032114222
-0.031390165
-0.03001253
-0.028136417
-0.025934305
-0.023615106
-0.021366618
-0.019242083
-0.017153746
-0.015083192
-0.01332218
-0.011828536
-0.010579488
-0.0095470175
-0.0087105529
-0.0080558191
-0.0075749534
-0.0072682847
0.012465352
0.012506819
0.011451613
0.009943473
0.0085598007
0.0073802581
0.0063169721
0.0053872241
0.0046227837
0.0039306226
0.0033458392
0.0027830747
0.0022751965
0.0018522777
0.0014549753
0.0011360437
0.00084610037
0.00062222673
0.00041739741
0.0002462426
5.98287e-05
0.011058795
0.0083874503
0.0056382588
0.0035167297
0.0026510972
0.0024858354
0.00195501
0.0018729262
0.0010398305
-0.00056233127
-0.0029100138
-0.0061459279
-0.0094851629
-0.013775235
-0.017852286
-0.02223271
-0.026127843
-0.029486876
-0.032015771
-0.033584021
-0.034161275
-0.03381943
-0.032690473
-0.030925884
-0.028709012
-0.026283276
-0.023879024
-0.021567643
-0.019238714
-0.016870242
-0.014841029
-0.013106987
-0.011643275
-0.01041656
-0.0094013593
-0.0085772877
-0.0079308072
-0.0074540754
-0.007147806
0.012168404
0.013087245
0.012507994
0.011072561
0.0095525359
0.0082639109
0.0070979445
0.006100296
0.0052439119
0.0044825881
0.003860398
0.0032509944
0.002678384
0.0022049716
0.0017683822
0.0014064802
0.0010771966
0.00081034435
0.00058382462
0.00039053266
0.00022526224
4.9389986e-05
0.0097302368
0.0069655281
0.0044683164
0.0029491675
0.0027727205
0.0027482041
0.0023321914
0.0021874787
0.00076787199
-0.0015349781
-0.004368332
-0.0081661087
-0.011953958
-0.016718683
-0.021115227
-0.02565224
-0.029551026
-0.032730717
-0.034940298
-0.03609507
-0.036224839
-0.035434542
-0.03385968
-0.031688252
-0.029195208
-0.026661072
-0.024173523
-0.021597142
-0.018904246
-0.016581365
-0.014584107
-0.012887052
-0.01145162
-0.010247566
-0.0092496288
-0.0084383069
-0.0078003644
-0.0073277715
-0.0070221416
0.011371841
0.013049931
0.013251415
0.012165762
0.010609236
0.0091780899
0.0078994571
0.0068177886
0.0058839845
0.0050654953
0.0043801578
0.003747272
0.003108652
0.0025865312
0.0021014933
0.0017014249
0.0013309741
0.0010275416
0.00075969801
0.00054629102
0.00035994863
0.00020117221
4.1301283e-05
0.008486784
0.005814765
0.0038176315
0.0030248018
0.0031173214
0.0031642326
0.0028409311
0.0023499323
-8.2853187e-05
-0.0029016352
-0.0061919378
-0.010609992
-0.01488026
-0.020077439
-0.024739018
-0.02935131
-0.033158974
-0.036060244
-0.037868714
-0.038560111
-0.038203734
-0.036909203
-0.034855792
-0.032349153
-0.029719926
-0.02707682
-0.024249833
-0.02120603
-0.018561487
-0.016275448
-0.014322931
-0.012660747
-0.011253953
-0.010072603
-0.0090922768
-0.0082939885
-0.0076643713
-0.0071960531
-0.0068915626
0.009821673
0.012288816
0.013396186
0.012947358
0.011587387
0.010074924
0.0087176282
0.0075434343
0.0065338123
0.0056611846
0.0049181031
0.004223234
0.0035649771
0.0029961336
0.0024581277
0.0020131233
0.0016064277
0.0012626839
0.00096247562
0.00070770473
0.00050463347
0.00032391087
0.00017950552
2.8710625e-05
0.0072545822
0.0050012772
0.0037418457
0.003358348
0.0036648511
0.0038457135
0.003370235
0.0020767906
-0.0012848664
-0.0047054879
-0.008472916
-0.013554219
-0.018277348
-0.023853968
-0.028714669
-0.033302269
-0.03690819
-0.039434324
-0.040776142
-0.040952826
-0.04003709
-0.038189527
-0.035734671
-0.033059176
-0.030291477
-0.027218146
-0.023797252
-0.020801934
-0.018198754
-0.015965798
-0.014055418
-0.012428502
-0.011050379
-0.0098922168
-0.008929726
-0.0081440692
-0.0075225871
-0.0070594503
-0.0067561942
0.0081145095
0.010617742
0.012659477
0.013083705
0.012192945
0.010765136
0.0094678025
0.0082487886
0.0071807438
0.0062700951
0.0054733087
0.0047178494
0.0040163875
0.0034223475
0.0028357669
0.0023447717
0.001895892
0.0015162969
0.0011795041
0.00089284548
0.00065133298
0.00045481173
0.00028939495
0.0001512074
1.9919403e-05
0.0061877644
0.0046804286
0.004029485
0.0040959302
0.0046291841
0.0046013384
0.0034373129
0.0013837816
-0.0027715773
-0.0069638263
-0.011298347
-0.017014322
-0.022156739
-0.028050221
-0.033019995
-0.037462451
-0.040751462
-0.042822181
-0.043631944
-0.043201064
-0.041655877
-0.0393366
-0.03667736
-0.033828391
-0.03052163
-0.026700637
-0.023324532
-0.020374064
-0.0178328
-0.015649805
-0.013782018
-0.0121904
-0.010841647
-0.0097067514
-0.0087615009
-0.0079877884
-0.0073759277
-0.0069181811
-0.0066163106
0.0063562563
0.0084109796
0.01081851
0.012308633
0.012220056
0.01110485
0.0099732522
0.0088642911
0.0077791973
0.0068455776
0.0060244835
0.0052242568
0.0044683732
0.0038339441
0.0032269451
0.0026920077
0.0022014635
0.0017806008
0.0014115086
0.0010889885
0.00081873866
0.00058453925
0.00040596879
0.00024570689
0.00012654707
6.4442968e-06
0.0052826338
0.0047233877
0.0045809768
0.0054237393
0.0057695948
0.0052449976
0.0030508239
0.00021930218
-0.0047800455
-0.0097647774
-0.014648745
-0.020995435
-0.026533262
-0.032655347
-0.037614987
-0.041781332
-0.044652919
-0.046188763
-0.046352246
-0.04521725
-0.043124851
-0.040564139
-0.037695177
-0.034177937
-0.029938231
-0.026152487
-0.022822998
-0.019943396
-0.01746037
-0.015327922
-0.013502767
-0.011947402
-0.010628108
-0.0095153423
-0.0085861705
-0.0078267568
-0.0072246822
-0.006772568
-0.006472015
0.0047318227
0.005937054
0.0082119864
0.010330401
0.01139532
0.011076105
0.010210391
0.009242445
0.0082574915
0.0073609814
0.0065090498
0.0057142742
0.0049182185
0.0042381078
0.0036040135
0.0030453133
0.0025174256
0.0020568363
0.0016508829
0.0012964509
0.00099456047
0.00073078857
0.00051880131
0.00034537058
0.00020448795
9.5168664e-05
-4.0232448e-06
0.0047559736
0.0051395436
0.0055162967