/*--------------------------------*- C++ -*----------------------------------*\
| =========                 |                                                 |
| \\      /  F ield         | OpenFOAM: The Open Source CFD Toolbox           |
|  \\    /   O peration     | Version:  5.0                                   |
|   \\  /    A nd           | Web:      www.OpenFOAM.org                      |
|    \\/     M anipulation  |                                                 |
\*---------------------------------------------------------------------------*/
FoamFile
{
    version     2.0;
    format      ascii;
    class       surfaceScalarField;
    location    "40";
    object      phi;
}
// * * * * * * * * * * * * * * * * * * * * * * * * * * * * * * * * * * * * * //

dimensions      [0 3 -1 0 0 0 0];

internalField   nonuniform List<scalar> 
18820
(
0.00046679219
-1.3416277
0.00089969693
-1.2545512
0.00046133168
-1.3420891
0.0012983249
-1.1731211
0.00089038754
-1.2549803
0.00044736934
-1.3425364
0.0016631407
-1.0969679
0.001287638
-1.1735183
0.00086457956
-1.2553975
0.00043307358
-1.3429695
0.0019950932
-1.0257552
0.0016540901
-1.0973344
0.0012525195
-1.1739063
0.00083960686
-1.255804
0.000415075
-1.3433846
0.0022955145
-0.95915861
0.001991043
-1.0260921
0.0016123319
-1.0976942
0.0012214323
-1.1742881
0.00080807091
-1.256197
0.00040362388
-1.3437882
0.0025660487
-0.89687967
0.0022998678
-0.95946743
0.0019453893
-1.0264252
0.0015796878
-1.0980524
0.0011819394
-1.174662
0.00078913007
-1.2565825
0.00040604202
-1.3441943
0.0028085866
-0.83863952
0.0025820521
-0.89716186
0.0022529902
-0.95977503
0.0019153112
-1.0267608
0.0015375777
-1.0984081
0.0011608275
-1.1750337
0.00079490886
-1.2569714
0.00042824578
-1.3446225
0.0030251193
-0.78417761
0.0028392037
-0.83889667
0.002536332
-0.8974452
0.0022290907
-0.96008881
0.0018749182
-1.0270981
0.0015198207
-1.0987671
0.0011717143
-1.1754105
0.00083735436
-1.2573805
0.00046593826
-1.3450884
0.0032179524
-0.73324782
0.0030729718
-0.78441138
0.0027966915
-0.83915703
0.0025214912
-0.8977376
0.002193835
-0.96040773
0.0018651991
-1.0274435
0.0015383604
-1.0991337
0.0012328939
-1.175806
0.00090880234
-1.2578234
0.00051562896
-1.3456041
0.0033891322
-0.68562339
0.0032850687
-0.73345992
0.0030352739
-0.78464996
0.0027929531
-0.83942849
0.0024938959
-0.89803766
0.0021957124
-0.96073824
0.0018940669
-1.0277992
0.0016180684
-1.0995189
0.0013342703
-1.1762315
0.0010044358
-1.2583122
0.00056410711
-1.3461682
0.0035412334
-0.64108979
0.0034771998
-0.68581552
0.0032532577
-0.7336779
0.0030437791
-0.78490079
0.0027745444
-0.83970914
0.0025097427
-0.89835169
0.0022370971
-0.96108127
0.001993339
-1.0281745
0.0017466409
-1.0999312
0.0014723661
-1.1766994
0.0010982991
-1.2588464
0.00060564344
-1.3467738
0.0036757541
-0.59944666
0.0036510079
-0.6412636
0.003451777
-0.68601404
0.0032742659
-0.73390839
0.0030352963
-0.78516154
0.0028055862
-0.84000498
0.0025652541
-0.89867985
0.002357237
-0.96144517
0.002147846
-1.0285757
0.0019239173
-1.1003828
0.0016092685
-1.1772104
0.0011798064
-1.2594205
0.00063147293
-1.3474053
0.0037953929
-0.56050813
0.0038080108
-0.59960366
0.0036319441
-0.64144377
0.0034848341
-0.68622461
0.0032758461
-0.73414894
0.0030818566
-0.78543781
0.0028762704
-0.840316
0.0027073673
-0.89902998
0.0025371918
-0.96183452
0.0023617174
-1.0290135
0.002101601
-1.1008751
0.0017303855
-1.177761
0.0012309033
-1.26002
0.00064371078
-1.348049
0.0039005292
-0.52409672
0.0039495734
-0.56064969
0.003794821
-0.59976654
0.0036761213
-0.64163505
0.0034962291
-0.68644499
0.0033375624
-0.73440464
0.0031681774
-0.78572972
0.0030410162
-0.84064965
0.0029126849
-0.89940547
0.0027859342
-0.96225873
0.0025780629
-1.0294899
0.0022621143
-1.1014069
0.0018074724
-1.1783375
0.0012563987
-1.2606327
0.0006432126
-1.3486922
0.0039942411
-0.49005119
0.0040770385
-0.52422418
0.0039416259
-0.5607965
0.0038489911
-0.59993941
0.0036968128
-0.64183564
0.0035722718
-0.6866797
0.0034394578
-0.73467592
0.0033556069
-0.78604431
0.0032717228
-0.84100868
0.0031952415
-0.89981478
0.0030394756
-0.96272015
0.0027775842
-1.0300054
0.0023667256
-1.1019661
0.0018483497
-1.1789295
0.001257128
-1.2612466
0.00063505362
-1.3493273
0.0040757785
-0.45821465
0.0041918778
-0.49016603
0.0040737741
-0.52435633
0.004004868
-0.56095237
0.0038784354
-0.60012103
0.0037860193
-0.64204939
0.0036891391
-0.68692938
0.0036488
-0.73496912
0.0036113986
-0.78638398
0.0035873641
-0.84140081
0.0034851665
-0.90026047
0.0032779382
-0.9632205
0.0029114901
-1.0305502
0.0024257672
-1.1025435
0.0018529337
-1.1795253
0.0012431728
-1.2618547
0.00062094108
-1.3499482
0.0041486066
-0.42844672
0.0042952235
-0.45831799
0.0041928193
-0.49028508
0.0041450706
-0.52449653
0.0040423692
-0.56111631
0.0039793543
-0.60031437
0.003916567
-0.64227681
0.003918565
-0.68719914
0.003928666
-0.73528638
0.0039594451
-0.78675606
0.0039134997
-0.84182914
0.0037629369
-0.90074547
0.0034430163
-0.96375203
0.0029915958
-1.031116
0.0024376593
-1.1031283
0.0018363377
-1.1801185
0.0012172494
-1.262451
0.00060297029
-1.3505512
0.0042115466
-0.40061067
0.0043889448
-0.42854044
0.0043004105
-0.45842558
0.0042714879
-0.49041149
0.0041897979
-0.52464396
0.0041529889
-0.56128994
0.0041213245
-0.60051912
0.0041630668
-0.64252132
0.0042207708
-0.68749125
0.0043085395
-0.73563548
0.0043223053
-0.78716487
0.0042313158
-0.84229752
0.0039612529
-0.9012637
0.0035473377
-0.96430777
0.0030148855
-1.0316932
0.002422138
-1.1037141
0.0018015246
-1.1807027
0.0011836956
-1.2630317
0.00058165045
-1.3511328
0.0042678824
-0.37458041
0.0044738705
-0.40069559
0.0043983045
-0.42863833
0.0043852148
-0.45853931
0.0043222273
-0.49054392
0.0043075324
-0.5247985
0.0043030751
-0.56147169
0.0043809974
-0.60073705
0.0044856022
-0.64278615
0.0046322423
-0.68781495
0.004709243
-0.73602242
0.0046810772
-0.78761463
0.0044648048
-0.84280107
0.0040929802
-0.90180935
0.0035860595
-0.96487894
0.003004609
-1.0322757
0.0023818989
-1.1042944
0.001755374
-1.1812744
0.0011433035
-1.2635934
0.00055764749
-1.3516905
0.0043171215
-0.35024353
0.0045521947
-0.37465873
0.0044879934
-0.40078528
0.0044882142
-0.42874133
0.0044403801
-0.45865746
0.004443798
-0.49068019
0.0044618526
-0.52495728
0.0045718181
-0.56166251
0.0047222604
-0.60097371
0.0049289039
-0.64308281
0.0050719806
-0.68817769
0.0051096317
-0.73645097
0.0049514717
-0.7881013
0.0046270981
-0.84333519
0.0041509436
-0.90237423
0.003585204
-0.96545954
0.0029629256
-1.0328567
0.0023265476
-1.1048656
0.0016987302
-1.1818298
0.0010974849
-1.2641332
0.00053133247
-1.3522218
0.0043610367
-0.32747822
0.0046244021
-0.35031574
0.0045711535
-0.37474189
0.0045809691
-0.40087804
0.0045458144
-0.42884677
0.0045620463
-0.45877571
0.0045983454
-0.49081668
0.0047361609
-0.52512162
0.0049308128
-0.56187107
0.0051975946
-0.6012424
0.005408077
-0.6434189
0.0055138961
-0.68858195
0.0054185372
-0.73691804
0.0051476776
-0.78862188
0.0047081461
-0.84389239
0.0041638801
-0.90295291
0.0035464742
-0.96604308
0.0029022225
-1.0334324
0.0022567349
-1.1054236
0.0016338226
-1.1823662
0.0010470125
-1.2646489
0.00050304097
-1.3527248
0.0044001664
-0.30620074
0.0046925419
-0.32754636
0.0046487017
-0.35039328
0.0046655395
-0.37482646
0.0046387408
-0.40097096
0.0046639224
-0.42894864
0.0047136733
-0.45889104
0.0048757344
-0.49095626
0.0051122194
-0.52530303
0.0054372073
-0.56211068
0.005714908
-0.60154923
0.0058904573
-0.64379547
0.0058631758
-0.68902659
0.0056522462
-0.7374226
0.005255741
-0.78916947
0.0047393962
-0.84446791
0.0041325847
-0.90353902
0.0034845836
-0.96662545
0.0028227478
-1.0339984
0.0021758018
-1.1059656
0.0015615508
-1.1828807
0.00099257055
-1.2651384
0.00047319232
-1.353198
0.0044354154
-0.28628988
0.0047559068
-0.30626411
0.0047217592
-0.32761942
0.0047417485
-0.35046949
0.0047212688
-0.37490899
0.0047498124
-0.40105685
0.0048104106
-0.42904538
0.0049925579
-0.45900786
0.0052675998
-0.49111164
0.0056469081
-0.52551273
0.0059895871
-0.56238536
0.006236267
-0.60189504
0.0062825189
-0.64421481
0.0061380483
-0.68951239
0.0057914286
-0.73795829
0.0053098415
-0.78973992
0.0047201613
-0.84505548
0.0040740768
-0.90412851
0.0033992546
-0.96720195
0.0027291257
-1.0345517
0.0020846214
-1.1064887
0.0014831467
-1.1833713
0.00093492256
-1.2656002
0.00044219946
-1.3536402
0.0044674937
-0.26767186
0.0048182944
-0.28635227
0.0047902319
-0.30633258
0.0048117429
-0.32768942
0.0047930214
-0.35054125
0.0048228492
-0.37498203
0.0048902291
-0.40113667
0.0050894036
-0.42914223
0.0053978622
-0.45913813
0.0058255612
-0.49129029
0.0062300111
-0.52575316
0.0065487303
-0.56269782
0.0066741486
-0.60228667
0.0066024119
-0.64467917
0.0063127663
-0.69003373
0.0058729306
-0.73852138
0.005307314
-0.79032707
0.0046697899
-0.8456512
0.0039869914
-0.90471625
0.0032966184
-0.96776945
0.0026219862
-1.0350891
0.0019847644
-1.1069903
0.0013998361
-1.1838362
0.00087489094
-1.2660328
0.00041047302
-1.3540507
0.0044975474
-0.2502768
0.0048773053
-0.26773087
0.0048567518
-0.28641879
0.0048746242
-0.30639546
0.0048568802
-0.32775327
0.0048834907
-0.35060189
0.0049568781
-0.37504868
0.0051676308
-0.4012149
0.0055040952
-0.42924846
0.0059727976
-0.45928536
0.0064346106
-0.49149489
0.0068263432
-0.52603077
0.0070358847
-0.56305956
0.0070429612
-0.60272722
0.0068172094
-0.64518362
0.0064260435
-0.69058685
0.0058919437
-0.73910601
0.0052698559
-0.79092714
0.0045852055
-0.84624941
0.0038789891
-0.90529862
0.0031767241
-0.96832418
0.0025034537
-1.0356078
0.0018778906
-1.1074683
0.0013126508
-1.184274
0.00081327849
-1.2664357
0.00037840017
-1.3544291
0.0045237427
-0.23397832
0.0049375248
-0.25033702
0.0049199628
-0.26779408
0.0049345582
-0.28647873
0.0049117803
-0.30645036
0.004935624
-0.32780541
0.0050108198
-0.35065583
0.0052302095
-0.37511125
0.0055866413
-0.40129744
0.0060887271
-0.42936439
0.0066033903
-0.45945414
0.0070680492
-0.4917366
0.0073660347
-0.52636092
0.0074570602
-0.56347366
0.0073019283
-0.60321194
0.006966571
-0.64572414
0.0064718832
-0.69116678
0.0058722177
-0.73970837
0.0051920112
-0.79153394
0.0044757303
-0.84684615
0.0037495965
-0.90587149
0.0030424619
-0.96886319
0.0023755404
-1.0361055
0.0017653601
-1.107921
0.0012227942
-1.1846835
0.00075083758
-1.2668081
0.00034633751
-1.3547755
0.0045531862
-0.21883835
0.0049958066
-0.2340366
0.0049821492
-0.25039921
0.0049892298
-0.26784875
0.0049625323
-0.28652948
0.0049786992
-0.30649344
0.0050558831
-0.32785047
0.0052769013
-0.35070252
0.0056476578
-0.37517227
0.0061741737
-0.40138289
0.0067367311
-0.42949773
0.0072736772
-0.45965977
0.0076625307
-0.49203309
0.007842278
-0.52674614
0.0077640541
-0.56393578
0.0074922103
-0.60373758
0.007045106
-0.64629737
0.0064747446
-0.69176931
0.0058052872
-0.74032165
0.0050849285
-0.79214314
0.004340084
-0.84743664
0.0036027664
-0.90643179
0.0028960624
-0.96938371
0.0022397166
-1.0365798
0.0016489341
-1.1083472
0.0011313882
-1.185064
0.00068827384
-1.26715
0.00031459777
-1.35509
0.0045892101
-0.2044379
0.0050595926
-0.21890213
0.0050417374
-0.23409619
0.0050428239
-0.2504528
0.0050062041
-0.26789242
0.0050174879
-0.28656827
0.0050909142
-0.30652847
0.0053117569
-0.32788533
0.0056869887
-0.35074185
0.0062314053
-0.3752295
0.0068359645
-0.40148212
0.0074428949
-0.42966695
0.0079238636
-0.4599211
0.008195791
-0.4923866
0.0082013413
-0.52718342
0.0080010923
-0.56444466
0.0076099373
-0.60430241
0.0070754522
-0.64689807
0.0064228194
-0.69238684
0.0057041472
-0.74094087
0.0049463882
-0.79274945
0.0041837051
-0.84801758
0.0034406064
-0.90697634
0.0027392216
-0.96988322
0.0020984419
-1.0370293
0.0015299059
-1.1087457
0.0010394914
-1.1854152
0.00062620882
-1.2674616
0.00028345543
-1.3553735
0.004629653
-0.19127512
0.005136296
-0.20451461
0.0051020704
-0.21896246
0.0050923697
-0.23414574
0.0050489654
-0.25049556
0.0050498034
-0.26792474
0.0051204627
-0.28659781
0.0053329205
-0.30654963
0.0057089459
-0.32790728
0.0062613422
-0.35077179
0.0069029221
-0.37529646
0.0075758937
-0.40161512
0.0081483364
-0.42989142
0.0085157997
-0.46024111
0.0086115086
-0.49279677
0.0084918669
-0.5276742
0.0081649852
-0.56499971
0.0076727131
-0.60489967
0.0070425494
-0.6475178
0.0063309078
-0.6930136
0.0055658018
-0.74156028
0.0047834717
-0.79334921
0.0040084789
-0.84858545
0.003265282
-0.9075024
0.0025752086
-0.97035998
0.001953048
-1.0374525
0.0014097233
-1.1091159
0.00094803696
-1.1857371
0.0005651881
-1.2677434
0.00025314316
-1.3556266
0.00287236
-0.21044661
0.0052263547
-0.19136518
0.0051704146
-0.20458295
0.0051435317
-0.21901363
0.0050877798
-0.23418455
0.0050808368
-0.2505266
0.0051420511
-0.26794633
0.0053457496
-0.28661064
0.005712102
-0.30655279
0.0062688793
-0.32791482
0.0069386134
-0.35080748
0.0076732826
-0.37539385
0.0083350555
-0.40180184
0.0088005816
-0.4301762
0.0089933992
-0.460623
0.0089630065
-0.49326791
0.0087091453
-0.52821836
0.0082651717
-0.56559217
0.0076627027
-0.60551983
0.0069628174
-0.64814971
0.0061954686
-0.69364327
0.0053990514
-0.74217586
0.0045977474
-0.79393848
0.0038173349
-0.8491375
0.0030806929
-0.90800788
0.0024050483
-0.97081199
0.0018057447
-1.0378485
0.0012896214
-1.1094575
0.0008578471
-1.1860297
0.00050567521
-1.2679959
0.00022385068
-1.3558505
0.0016137952
-0.21061742
0.0035901586
-0.20881041
0.0052527307
-0.1914475
0.0052027311
-0.20464215
0.0051256784
-0.21905153
0.0051080905
-0.23421181
0.005160486
-0.25054503
0.0053478023
-0.26794838
0.0057027194
-0.28660126
0.0062532909
-0.3065372
0.0069473774
-0.32792358
0.0077351303
-0.35086933
0.008483837
-0.37554263
0.0090492177
-0.40205048
0.0093455962
-0.4305284
0.0094136858
-0.46107368
0.0092410534
-0.49379982
0.0088519079
-0.5288051
0.0082820448
-0.56621151
0.0075979261
-0.60615494
0.0068325838
-0.64878683
0.0060270322
-0.69427125
0.0052052407
-0.74278335
0.0043933536
-0.7945145
0.0036145077
-0.84967132
0.0028876827
-0.90849052
0.0022320475
-0.97123829
0.0016576666
-1.0382165
0.0011707187
-1.1097704
0.00076962762
-1.1862937
0.00044805531
-1.2682201
0.00019572739
-1.3560462
0.0008548656
-0.21110625
0.0024019856
-0.20942925
0.0036571205
-0.2072148
0.0052781778
-0.19152294
0.0051719105
-0.20468838
0.005132664
-0.2190761
0.0051741364
-0.23422546
0.0053443864
-0.25054162
0.0056787606
-0.26792442
0.006221706
-0.28656968
0.006928149
-0.30651797
0.0077649114
-0.32795337
0.0085940365
-0.35097953
0.0092613985
-0.37575481
0.0096671758
-0.40237206
0.0098424093
-0.43095712
0.0097601106
-0.46159274
0.0094321484
-0.49438006
0.0088999871
-0.52942304
0.0082349008
-0.56684849
0.0074746704
-0.60679702
0.0066639015
-0.6494237
0.0058270285
-0.69489304
0.0049899984
-0.74338
0.0041746611
-0.79507465
0.0034009427
-0.85018458
0.0026906979
-0.90894917
0.0020568236
-0.97163744
0.001510549
-1.0385564
0.0010539733
-1.1100547
0.00068397136
-1.1865296
0.00039264069
-1.268417
0.0001688916
-1.3562151
0.00053519441
-0.21184762
0.0017115833
-0.21041585
0.0025235893
-0.20829571
0.0037246174
-0.20566124
0.005232032
-0.19158307
0.0051652922
-0.20472101
0.0051860453
-0.21908801
0.0053343813
-0.23421545
0.0056462928
-0.25050915
0.006172169
-0.26787488
0.0068882343
-0.28652976
0.0077607199
-0.30651378
0.0086684955
-0.32802782
0.0094359747
-0.3511541
0.0099573237
-0.37604496
0.010247965
-0.40277761
0.010264769
-0.43146178
0.010006
-0.46216659
0.0095163166
-0.49499639
0.0088730433
-0.53006118
0.0081197624
-0.56749358
0.007306335
-0.60743946
0.0064588869
-0.65005556
0.0056028762
-0.69550592
0.0047577137
-0.74396305
0.0039430553
-0.79561677
0.0031819506
-0.85067583
0.0024896062
-0.90938195
0.0018822752
-0.97200917
0.0013653541
-1.0388677
0.00094020425
-1.110311
0.00060136839
-1.1867383
0.00033967893
-1.2685878
0.00014343661
-1.3563586
0.00060052898
-0.21210281
0.0014546536
-0.21159069
0.0018509687
-0.20974323
0.002650661
-0.20722176
0.0037277923
-0.204157
0.0052087113
-0.19162648
0.0052024255
-0.20473739
0.0053230997
-0.21907673
0.0056044999
-0.23417366
0.0061118507
-0.25044883
0.0068246048
-0.26781125
0.007730227
-0.28649927
0.0087044905
-0.30654977
0.0095750611
-0.32816691
0.01021434
-0.35141112
0.010629193
-0.37642619
0.010754421
-0.40326726
0.010572666
-0.43202845
0.010131626
-0.4627819
0.0095122503
-0.4956356
0.0087666354
-0.53070805
0.007951508
-0.56813875
0.0070965963
-0.60807716
0.0062270112
-0.65067969
0.0053590387
-0.69610724
0.0045106839
-0.74453068
0.0037043165
-0.79613913
0.0029568407
-0.85114307
0.0022887949
-0.90978847
0.0017087227
-0.97235254
0.0012233358
-1.0391509
0.00083009706
-1.1105397
0.00052221232
-1.1869209
0.0002893594
-1.2687337
0.0001194302
-1.356478
0.0011093157
-0.21263789
0.0016169218
-0.21226508
0.0015866499
-0.21132637
0.0019982253
-0.20909079
0.0026814671
-0.20617543
0.0037482644
-0.20269656
0.0052245411
-0.1916486
0.005313407
-0.2047277
0.0055548088
-0.21902704
0.0060394298
-0.23410124
0.0067461439
-0.25037037
0.0076688316
-0.26774986
0.0087099815
-0.28650476
0.0096752812
-0.30664999
0.010439348
-0.32839192
0.010984039
-0.35176597
0.011228122
-0.37689989
0.011132929
-0.40382753
0.010745909
-0.43264273
0.01015318
-0.46342283
0.0094148175
-0.49628378
0.0085973508
-0.5313539
0.0077362618
-0.56877842
0.0068571823
-0.60870734
0.0059731312
-0.65129378
0.0050990389
-0.6966956
0.0042546595
-0.74508102
0.0034575932
-0.79663988
0.0027312752
-0.85158555
0.0020874345
-0.91016718
0.0015385958
-0.9726678
0.0010852352
-1.039406
0.00072421725
-1.1107417
0.00044681069
-1.1870783
0.00024181972
-1.2688561
9.6911104e-05
-1.3565749
0.0017727162
-0.21370068
0.0022744552
-0.21329542
0.001742484
-0.21242092
0.0017428738
-0.21107102
0.0020484623
-0.20845778
0.0027281944
-0.20515536
0.0037890132
-0.20126103
0.0053057466
-0.19164094
0.0055093772
-0.20468227
0.0059571427
-0.21894475
0.0066503744
-0.23400547
0.0075877882
-0.25028933
0.0086785829
-0.26771846
0.0097440165
-0.28657349
0.010628685
-0.30683933
0.011312846
-0.32872073
0.011684278
-0.35222212
0.011686326
-0.37745328
0.011361141
-0.40444276
0.010796634
-0.43328618
0.010064899
-0.46407291
0.0092427036
-0.49692913
0.0083746622
-0.5319923
0.0074882021
-0.56940944
0.0065939079
-0.60932811
0.0057022021
-0.65189695
0.0048283962
-0.69726933
0.0039892276
-0.74561266
0.0032092395
-0.79711785
0.00250336
-0.85200147
0.0018896941
-0.91051828
0.0013719053
-0.97295447
0.00095196273
-1.0396338
0.00062301815
-1.1109179
0.00037539402
-1.1872119
0.00019714941
-1.2689564
7.5891519e-05
-1.3566508
0.0021320291
-0.21263084
0.0030286864
-0.21445492
0.0022726575
-0.2138256
0.0019023265
-0.21258037
0.0017760878
-0.21079864
0.002118851
-0.20784844
0.002776336
-0.20414269
0.0038674452
-0.19982273
0.0054640961
-0.19159566
0.0058771439
-0.20460227
0.0065433645
-0.21883774
0.0074823937
-0.23390007
0.0086235795
-0.25023432
0.0097736563
-0.2677481
0.01078814
-0.28673295
0.011612058
-0.30713854
0.012122717
-0.32915917
0.012232502
-0.3527683
0.011977138
-0.37806928
0.011445166
-0.40509129
0.010717926
-0.43393921
0.0098875989
-0.46471781
0.009009361
-0.49756383
0.0081152996
-0.53261939
0.0072150082
-0.57003054
0.0063134312
-0.60993934
0.0054195741
-0.65248812
0.0045473826
-0.69782749
0.0037205892
-0.74612401
0.0029568405
-0.79757133
0.0022788866
-0.85239066
0.0016942048
-0.91084058
0.0012107513
-0.97321326
0.00082398712
-1.0398347
0.00052685325
-1.1110694
0.00030812396
-1.1873229
0.00015539485
-1.2690359
5.63663e-05
-1.3567072
0.0015708124
-0.20706097
0.0032783911
-0.21288054
0.002802149
-0.21498441
0.0024272445
-0.21435051
0.0019088218
-0.2127131
0.0018240626
-0.21050386
0.002160759
-0.20723286
0.0028557767
-0.20313102
0.0039972503
-0.19835588
0.0057956667
-0.19151418
0.0064343677
-0.20449327
0.0073602737
-0.21871562
0.0085369806
-0.23381347
0.0097778026
-0.25023847
0.010910084
-0.26787004
0.011884993
-0.28700588
0.012540806
-0.30755663
0.012771161
-0.32969782
0.012595628
-0.35338679
0.012099515
-0.37872363
0.011376453
-0.40574982
0.01053253
-0.43458414
0.009638732
-0.46534718
0.0087342991
-0.49818283
0.0078301412
-0.53323453
0.006925424
-0.57064253
0.0060211183
-0.61054089
0.005126241
-0.65306698
0.0042616748
-0.69836857
0.0034465718
-0.74661374
0.0027070004
-0.79799944
0.0020551018
-0.85275156
0.0015049298
-0.91113476
0.0010548095
-0.97344408
0.00070196599
-1.0400098
0.00043598465
-1.1111972
0.00024509683
-1.1874126
0.00011656568
-1.2690961
3.8324174e-05
-1.3567455
-0.19413177
-1.079774e-05
0.0021652471
-0.20594783
0.0027359757
-0.21281437
0.0028742211
-0.21543138
0.0023762406
-0.21481793
0.0019358354
-0.21282487
0.0018530765
-0.21019617
0.0022278798
-0.20660497
0.0029732106
-0.20210698
0.0043253248
-0.19688554
0.0063162042
-0.19139602
0.0072338682
-0.20436686
0.0084301109
-0.21860875
0.0097460046
-0.23378168
0.011006333
-0.25033472
0.012125337
-0.26811039
0.012938189
-0.28740327
0.013301676
-0.30808715
0.013216641
-0.33031884
0.012763751
-0.35405102
0.01204176
-0.37938894
0.011179312
-0.4063966
0.010262166
-0.43520758
0.0093421136
-0.46595499
0.0084333853
-0.49878607
0.0075306505
-0.53383975
0.0066251307
-0.57124654
0.0057186901
-0.61113333
0.0048271888
-0.6536325
0.0039694696
-0.69889147
0.0031735482
-0.74708028
0.0024563862
-0.79840073
0.0018377747
-0.85308441
0.0013200799
-0.91140003
0.00090589583
-0.97364801
0.00058613089
-1.04016
0.00035059235
-1.1113027
0.00018635562
-1.1874824
8.064209e-05
-1.2691384
2.1753396e-05
-1.3567672
-0.19209875
0.00013223369
-0.19419517
-0.0016135721
0.0016185308
-0.20483038
0.0026273335
-0.21256748
0.0026336874
-0.21568883
0.0023217369
-0.21520384
0.0019272422
-0.21289904
0.0019098975
-0.20987819
0.0023366307
-0.20596839
0.0032759904
-0.20105764
0.0048534821
-0.19542282
0.0070913679
-0.19125352
0.0083138339
-0.20425059
0.0096912389
-0.21855398
0.011066288
-0.23384163
0.012340514
-0.2505499
0.013312244
-0.26848444
0.01381994
-0.28792153
0.01384229
-0.3087128
0.013437545
-0.33099263
0.01271859
-0.35472785
0.011828961
-0.38003858
0.010880069
-0.4070145
0.0099363454
-0.43580181
0.0090197308
-0.46654134
0.0081216107
-0.49937703
0.0072231984
-0.53443782
0.0063165806
-0.57184443
0.0054103244
-0.61171647
0.0045209094
-0.65418394
0.0036765345
-0.69939446
0.0028984263
-0.74752233
0.0022115682
-0.79877452
0.0016237092
-0.85338804
0.0011433398
-0.91163747
0.00076342902
-0.97382531
0.00047694029
-1.0402863
0.00027078609
-1.1113871
0.00013189754
-1.1875336
4.7584211e-05
-1.2691642
6.6483095e-06
-1.3567739
-0.19075557
0.00027534483
-0.19208856
-0.0019743717
-0.20707477
-0.002208053
0.0015091661
-0.20371222
0.0021714462
-0.21210524
0.0023868154
-0.21575391
0.0022300688
-0.21550666
0.0019295013
-0.21291864
0.0020035975
-0.20954516
0.0025974229
-0.20528982
0.0037927878
-0.19999695
0.0055982379
-0.19392969
0.0081769301
-0.19111661
0.0096202402
-0.20417959
0.011102014
-0.21858971
0.012523547
-0.23402466
0.013662183
-0.25089984
0.014331034
-0.26899553
0.014467229
-0.28854647
0.014127459
-0.30940271
0.013405825
-0.33167987
0.012485957
-0.35538485
0.011492878
-0.38065139
0.010515355
-0.40759351
0.0095844437
-0.43636652
0.0086909448
-0.46711067
0.0078066932
-0.49996053
0.0069109676
-0.53503221
0.0060030671
-0.57243717
0.0050946858
-0.61229025
0.0042122862
-0.65471969
0.0033800522
-0.69987608
0.0026275996
-0.74793836
0.0019688639
-0.79911967
0.0014183717
-0.85366307
0.00097267366
-0.91184672
0.00062897517
-0.97397734
0.00037442194
-1.04039
0.00019656185
-1.1114518
8.1688796e-05
-1.1875677
1.7354784e-05
-1.2691749
-6.9981006e-06
-1.3567669
-0.18963671
0.00039030551
-0.19061972
-0.0011934944
-0.20586089
-0.003188257
-0.21263076
-0.0018447688
0.0010873588
-0.20262813
0.0017321169
-0.21145054
0.0020904201
-0.21561426
0.0021327188
-0.21570988
0.0019601535
-0.2128752
0.0022084226
-0.20915616
0.0030603912
-0.20455742
0.0045120778
-0.19891079
0.006647674
-0.19240043
0.0095246392
-0.19102101
0.011084564
-0.20416214
0.012679159
-0.21874532
0.013990219
-0.2343527
0.014822047
-0.25139085
0.01510523
-0.26963353
0.01482662
-0.28924563
0.014113488
-0.31011037
0.013149588
-0.3323435
0.012104644
-0.35599662
0.011078199
-0.38121424
0.010124227
-0.40813329
0.0092322468
-0.43690782
0.0083670302
-0.46767101
0.0074924709
-0.50054203
0.0065963586
-0.5356255
0.0056832441
-0.57302573
0.0047754733
-0.61285343
0.0038986525
-0.65523829
0.0030859347
-0.70033442
0.0023576609
-0.74832715
0.0017345533
-0.79943586
0.0012184149
-0.85390881
0.00081142793
-0.91202917
0.00050172544
-0.97410465
0.00027882584
-1.0404722
0.00012791159
-1.111498
3.5650284e-05
-1.187586
-1.0100241e-05
-1.2691718
-1.940417e-05
-1.3567475
-0.18891676
0.00036741612
-0.18935391
-0.00087550185
-0.20456128
-0.0024931082
-0.21286028
-0.0029587399
-0.21372442
-0.0011804176
0.00065083833
-0.20154685
0.0012723373
-0.21063246
0.001813615
-0.21529516
0.0020203682
-0.21577009
0.0020888183
-0.2127556
0.0025902636
-0.20868603
0.0037273456
-0.20377269
0.0055246129
-0.19778773
0.0080085608
-0.19088435
0.011069561
-0.19100601
0.012774869
-0.20425785
0.014284406
-0.21903951
0.01531305
-0.2348437
0.015730399
-0.25201602
0.015555909
-0.27036282
0.014831589
-0.28996373
0.013828999
-0.31078978
0.012715517
-0.33295437
0.011626739
-0.35654516
0.010636182
-0.38172619
0.0097403711
-0.40864142
0.0088959841
-0.43743678
0.0080517263
-0.46823026
0.0071804733
-0.50112615
0.0062777982
-0.53622005
0.0053593196
-0.57360958
0.0044499962
-0.61340478
0.0035851487
-0.6557375
0.0027910775
-0.70076784
0.0020948557
-0.74868746
0.0015049092
-0.79972235
0.0010288391
-0.85412622
0.00065741989
-0.91218486
0.00038297406
-0.9742088
0.00018998993
-1.0405343
6.4784119e-05
-1.1115272
-6.242022e-06
-1.1875899
-3.5124733e-05
-1.2691561
-3.0751095e-05
-1.3567167
-0.18848169
0.00021576857
-0.18853821
-0.0004482852
-0.20323075
-0.0022060311
-0.21272467
-0.0026287201
-0.21447416
-0.0022089975
-0.21267893
-0.00065734981
0.00017736081
-0.20045187
0.00084640924
-0.20966525
0.0015670903
-0.21484188
0.0019912242
-0.2156725
0.0023897451
-0.21255508
0.0031886287
-0.20814731
0.0046841881
-0.20293227
0.0068734512
-0.19665262
0.0096095219
-0.18942431
0.012878441
-0.19110958
0.0145843
-0.20455774
0.015766865
-0.21949332
0.016389305
-0.23550261
0.01628212
-0.25274223
0.015586998
-0.27111823
0.014515212
-0.29064995
0.013334232
-0.3114085
0.012160209
-0.33348784
0.011118464
-0.35702744
0.010210857
-0.38219668
0.0093856502
-0.40913109
0.0085792839
-0.43796433
0.0077453723
-0.46879516
0.0068686836
-0.50171703
0.0059556818
-0.53681642
0.0050283407
-0.57418792
0.0041222715
-0.6139419
0.0032688871
-0.65621531
0.00250146
-0.70117444
0.0018357827
-0.74901833
0.0012857135
-0.79997922
0.00084630206
-0.8543151
0.0005135659
-0.91231546
0.00027178345
-0.97429059
0.00010807876
-1.0405776
7.0623323e-06
-1.1115405
-4.4592425e-05
-1.1875804
-5.7658474e-05
-1.2691292
-4.0777649e-05
-1.3566759
-0.1882259
-7.8430469e-05
-0.18808284
-0.00023960919
-0.20203301
-0.0016460253
-0.21237512
-0.002555578
-0.2150052
-0.0020976778
-0.21334668
-0.0015412489
-0.2121398
-0.00058071263
-0.0002849715
-0.19932049
0.00049735114
-0.20859551
0.0014370242
-0.21428768
0.0021543397
-0.21543709
0.0029064533
-0.2122729
0.004088512
-0.20755164
0.006009448
-0.20206826
0.0084863628
-0.19552946
0.011501834
-0.18804771
0.014840285
-0.19136557
0.016261394
-0.20505227
0.017008652
-0.22011267
0.017065202
-0.23628569
0.01634189
-0.25349712
0.015229293
-0.27183231
0.013958432
-0.29127415
0.012685725
-0.31193401
0.011569487
-0.33393886
0.010638578
-0.35745516
0.0098306416
-0.38264167
0.0090663191
-0.40961812
0.0082809192
-0.43849988
0.0074456789
-0.46937216
0.0065553789
-0.50231673
0.0056264852
-0.53741456
0.0046928058
-0.57475846
0.0037894749
-0.61446249
0.0029553504
-0.6566692
0.0022140581
-0.70155272
0.0015863387
-0.74931895
0.0010733286
-0.80020625
0.00067520858
-0.85447674
0.00037764883
-0.91242132
0.00016919631
-0.97435171
3.2778958e-05
-1.0406033
-4.5657337e-05
-1.1115394
-7.9105671e-05
-1.187559
-7.7840068e-05
-1.2690921
-4.9815947e-05
-1.3566261
-0.1880046
-0.00050627541
-0.18792976
-0.00023150933
-0.20101428
-0.0012583379
-0.21181616
-0.0022049876
-0.21543647
-0.0021243101
-0.21387776
-0.0015665941
-0.21230362
-0.0013774307
-0.21188282
-0.00089056532
-0.00068232364
-0.19814082
0.00030981959
-0.20746831
0.0015273645
-0.2136607
0.0025693248
-0.21509997
0.003722503
-0.21190689
0.005394294
-0.20693648
0.0076499611
-0.20123186
0.010376262
-0.19440389
0.013593763
-0.18680118
0.016690425
-0.1917946
0.01766829
-0.20571191
0.01781491
-0.22086238
0.017155176
-0.23709898
0.015940303
-0.25420813
0.014601696
-0.27247558
0.013200634
-0.29178906
0.011991351
-0.31235588
0.011022015
-0.3343223
0.010224169
-0.35784868
0.0095045765
-0.38307993
0.008777837
-0.41011504
0.0079981324
-0.43905233
0.0071484314
-0.46996521
0.0062360674
-0.50292631
0.0052907428
-0.5380125
0.0043497273
-0.57531871
0.0034562972
-0.61496343
0.0026418674
-0.65709701
0.0019347298
-0.70190111
0.0013432252
-0.74958885
0.00087289475
-0.80040394
0.00051232536
-0.85461142
0.00025215201
-0.91250428
7.4149937e-05
-0.97439308
-3.5926901e-05
-1.040613
-9.337997e-05
-1.1115251
-0.00011009776
-1.1875267
-9.5861361e-05
-1.2690461
-5.7719678e-05
-1.3565684
-0.18772518
-0.00096173852
-0.18795693
-0.00047910121
-0.20018959
-0.0010561984
-0.21113618
-0.0019383176
-0.21566043
-0.0019810252
-0.21437872
-0.001623357
-0.21244917
-0.0014210416
-0.21162456
-0.0016356924
-0.21113459
-0.0016424687
-0.0009161287
-0.19691487
0.00040428154
-0.20634523
0.0018998899
-0.21299127
0.0032944065
-0.21467187
0.0049659087
-0.21147851
0.0070758367
-0.20636236
0.0096059869
-0.20046159
0.012529226
-0.19333935
0.015635362
-0.18574612
0.018265776
-0.19239208
0.018621653
-0.20651865
0.01795393
-0.22166113
0.016701989
-0.23786066
0.015261538
-0.25486797
0.013715913
-0.27299086
0.012380411
-0.29217812
0.011356441
-0.3126903
0.010565026
-0.33466316
0.0098864593
-0.35823057
0.0092260538
-0.38352814
0.0085157571
-0.41063266
0.0077243867
-0.43962829
0.0068477383
-0.47057688
0.00590883
-0.5035444
0.0049450011
-0.53860777
0.0040026446
-0.57586506
0.0031203447
-0.61544191
0.0023341019
-0.65749638
0.001660615
-0.7022185
0.0011117899
-0.74982775
0.00068095369
-0.80057257
0.00036141665
-0.85472069
0.00013487784
-0.912565
-1.2366329e-05
-0.97441664
-9.8513435e-05
-1.0406079
-0.00013631369
-1.1114989
-0.00013776376
-1.1874848
-0.00011175734
-1.268992
-6.4670977e-05
-1.3565037
-0.1872686
-0.0013727081
-0.18798292
-0.00093574535
-0.19951303
-0.0011556601
-0.21044798