/*--------------------------------*- C++ -*----------------------------------*\
| =========                 |                                                 |
| \\      /  F ield         | OpenFOAM: The Open Source CFD Toolbox           |
|  \\    /   O peration     | Version:  5.0                                   |
|   \\  /    A nd           | Web:      www.OpenFOAM.org                      |
|    \\/     M anipulation  |                                                 |
\*---------------------------------------------------------------------------*/
FoamFile
{
    version     2.0;
    format      ascii;
    class       surfaceScalarField;
    location    "40";
    object      phi_0;
}
// * * * * * * * * * * * * * * * * * * * * * * * * * * * * * * * * * * * * * //

dimensions      [0 3 -1 0 0 0 0];

internalField   nonuniform List<scalar> 
18820
(
0.00046666429
-1.3416231
0.00089943036
-1.2545468
0.00046148437
-1.3420846
0.001297892
-1.1731166
0.00089065166
-1.2549759
0.00044779447
-1.3425324
0.0016625009
-1.0969634
0.0012879566
-1.173514
0.00086533943
-1.2553935
0.00043386407
-1.3429663
0.0019941964
-1.0257505
0.0016543944
-1.0973298
0.0012535019
-1.1739021
0.00084102166
-1.2558006
0.00041596006
-1.3433822
0.0022943065
-0.95915386
0.0019912531
-1.0260874
0.001613421
-1.0976897
0.0012232675
-1.1742844
0.00080965002
-1.2561943
0.00040418361
-1.3437864
0.0025644755
-0.89687481
0.0022998991
-0.95946251
0.0019464719
-1.0264204
0.0015817468
-1.0980482
0.0011839753
-1.1746587
0.00079012826
-1.2565803
0.00040589851
-1.3441923
0.0028065948
-0.83863456
0.0025818236
-0.89715674
0.0022539576
-0.95976999
0.0019174259
-1.0267561
0.0015398385
-1.0984041
0.0011621033
-1.1750307
0.00079464427
-1.256969
0.00042724965
-1.3446196
0.0030226602
-0.78417258
0.0028386405
-0.83889137
0.0025370866
-0.89743986
0.0022311189
-0.96008369
0.0018772112
-1.0270935
0.0015211935
-1.0987632
0.0011713362
-1.1754074
0.00083551037
-1.2573773
0.00046424528
-1.3450838
0.0032149828
-0.73324274
0.003072011
-0.78440595
0.002797151
-0.83915144
0.0025233141
-0.89773206
0.0021960022
-0.96040248
0.0018665037
-1.0274388
0.001537829
-1.0991297
0.0012303594
-1.1758022
0.00090561682
-1.2578187
0.00051353284
-1.3455974
0.0033856183
-0.68561829
0.0032836629
-0.73345439
0.0030353756
-0.78464417
0.0027944812
-0.8394226
0.0024958203
-0.89803188
0.0021968166
-0.96073279
0.0018933066
-1.0277943
0.0016149507
-1.0995143
0.0013298093
-1.1762264
0.0010004332
-1.2583056
0.00056203954
-1.3461594
0.0035371514
-0.64108471
0.0034753205
-0.68580995
0.0032529622
-0.73367198
0.0030449513
-0.78489464
0.0027761471
-0.83970293
0.002510552
-0.89834561
0.002236031
-0.96107552
0.0019896769
-1.028169
0.0017410991
-1.0999256
0.0014666521
-1.1766926
0.0010943136
-1.2588378
0.00060396381
-1.3467634
0.0036710945
-0.59944162
0.0036486441
-0.64125803
0.003451066
-0.68600805
0.0032750444
-0.73390207
0.0030365252
-0.78515502
0.002806034
-0.83999841
0.0025638091
-0.89867339
0.0023530333
-0.96143887
0.0021413618
-1.0285693
0.0019166971
-1.1003756
0.0016034962
-1.1772018
0.0011765505
-1.2594104
0.00063034761
-1.3473937
0.0037901575
-0.56050316
0.0038051697
-0.59959814
0.0036308171
-0.64143778
0.0034851976
-0.6862182
0.0032766688
-0.73414221
0.0030818972
-0.78543088
0.0028743865
-0.84030899
0.0027026051
-0.89902296
0.0025298534
-0.96182736
0.0023531788
-1.0290058
0.0020941856
-1.1008663
0.001725624
-1.1777509
0.0012287063
-1.2600088
0.00064311471
-1.3480368
0.003894728
-0.52409186
0.0039462708
-0.56064427
0.0037932883
-0.59976061
0.00367606
-0.64162864
0.003496627
-0.68643816
0.0033371679
-0.73439748
0.0031658121
-0.78572231
0.0030356712
-0.84064206
0.0029045406
-0.89939765
0.00277622
-0.9622504
0.0025691579
-1.0294807
0.0022559113
-1.1013966
0.001804231
-1.1783264
0.0012552169
-1.2606209
0.00064299151
-1.3486798
0.0039878896
-0.49004646
0.0040732943
-0.52421888
0.003939696
-0.56079067
0.0038484989
-0.59993305
0.0036967769
-0.64182879
0.0035714288
-0.68667242
0.0034365885
-0.73466826
0.0033496613
-0.7860363
0.0032627951
-0.84100031
0.0031844487
-0.89980588
0.0030292072
-0.96271045
0.0027700133
-1.0299948
0.0023624489
-1.1019548
0.0018465775
-1.1789178
0.0012566686
-1.2612346
0.00063506948
-1.3493149
0.0040688892
-0.45821007
0.0041877113
-0.49016088
0.0040714567
-0.52435064
0.0040039406
-0.56094611
0.003877963
-0.60011424
0.0037847289
-0.64204209
0.0036857673
-0.6869216
0.0036422569
-0.73496086
0.0036017015
-0.78637521
0.0035755502
-0.84139141
0.0034736228
-0.90025029
0.0032690613
-0.9632095
0.0029061868
-1.0305386
0.002423379
-1.1025316
0.0018522152
-1.1795133
0.0012431832
-1.2618427
0.00062109223
-1.349936
0.0041411918
-0.42844229
0.0042906462
-0.458313
0.0041901142
-0.49027954
0.0041437109
-0.52449041
0.0040414691
-0.56110962
0.0039776375
-0.60030715
0.0039127269
-0.64226905
0.0039114574
-0.6871908
0.0039182155
-0.73527737
0.0039466327
-0.78674629
0.0039007284
-0.84181852
0.0037527908
-0.90073402
0.0034366844
-0.96374
0.0029885552
-1.0311037
0.0024366496
-1.103116
0.0018363258
-1.1801064
0.0012175347
-1.2624391
0.00060321156
-1.3505392
0.0042036065
-0.4006064
0.0043839651
-0.42853561
0.0042973224
-0.45842021
0.0042697051
-0.49040553
0.0041884931
-0.52463744
0.0041508951
-0.56128288
0.004117087
-0.60051151
0.0041554546
-0.64251305
0.0042095812
-0.68748217
0.0042947172
-0.73562545
0.0043083149
-0.78715388
0.004219916
-0.84228564
0.003953878
-0.90125122
0.0035436055
-0.96429505
0.0030135332
-1.0316806
0.0024220816
-1.1037018
0.0018019353
-1.1806908
0.0011841686
-1.2630201
0.00058195695
-1.3511211
0.0042594157
-0.37457628
0.0044684855
-0.40069092
0.0043948331
-0.42863312
0.0043830391
-0.45853355
0.0043205607
-0.4905376
0.0043051351
-0.52479168
0.0042985382
-0.56146433
0.0043729484
-0.600729
0.0044736731
-0.64277714
0.004617371
-0.68780482
0.0046940138
-0.73601115
0.0046684209
-0.78760238
0.0044563635
-0.84278813
0.0040885146
-0.90179613
0.0035843177
-0.96486583
0.0030044676
-1.032263
0.0023824287
-1.1042823
0.0017560779
-1.1812628
0.0011439126
-1.263582
0.00055800886
-1.3516792
0.0043081158
-0.35023956
0.0045464038
-0.3746542
0.0044841561
-0.40078025
0.0044856851
-0.42873576
0.0044384147
-0.4586514
0.00444119
-0.49067365
0.0044571179
-0.52495026
0.0045633869
-0.56165477
0.0047095709
-0.6009649
0.004912936
-0.64307271
0.0050554899
-0.6881663
0.0050957056
-0.73643844
0.0049419222
-0.78808794
0.0046218418
-0.84332146
0.004148756
-0.90236056
0.003584931
-0.9654463
0.0029635561
-1.0328441
0.0023274889
-1.1048537
0.0016996458
-1.1818185
0.0010982063
-1.2641222
0.00053174112
-1.3522109
0.0043514867
-0.32747437
0.0046181988
-0.35031135
0.0045669665
-0.37473701
0.0045781524
-0.40087271
0.0045436226
-0.42884097
0.0045593188
-0.45876953
0.0045934949
-0.49081003
0.0047273762
-0.52511425
0.0049173443
-0.56186254
0.0051805101
-0.60123247
0.0053903278
-0.64340755
0.0054986813
-0.68856927
0.0054078135
-0.73690433
0.0051415459
-0.78860764
0.0047054369
-0.84387814
0.0041634146
-0.90293905
0.0035471692
-0.96602991
0.0029033997
-1.03342
0.0022579701
-1.105412
0.0016349178
-1.1823552
0.0010478279
-1.2646383
0.00050348952
-1.3527144
0.0043900546
-0.30619705
0.0046859331
-0.3275421
0.0046442127
-0.3503886
0.004662495
-0.37482135
0.0046364029
-0.40096549
0.0046611491
-0.4289428
0.0047087522
-0.45888479
0.0048666079
-0.49094926
0.0050979819
-0.52529488
0.0054190479
-0.56210108
0.0056959409
-0.60153809
0.005873927
-0.64378279
0.0058511791
-0.68901264
0.0056451225
-0.73740791
0.0052524122
-0.78915462
0.0047386561
-0.84445338
0.0041332896
-0.90352517
0.0034859839
-0.96661249
0.0028243193
-1.0339864
0.0021772899
-1.1059544
0.0015627934
-1.1828702
0.00099346661
-1.2651283
0.0004736721
-1.3531881
0.0044247371
-0.28628625
0.0047488926
-0.30626001
0.0047170017
-0.32761489
0.0047385618
-0.35046466
0.0047188471
-0.3749038
0.004747039
-0.40105138
0.0048054364
-0.42903949
0.0049831061
-0.45900128
0.0052526675
-0.49110395
0.0056277844
-0.52550362
0.0059694695
-0.56237461
0.0062183747
-0.60188253
0.006269116
-0.64420073
0.0061297846
-0.6894973
0.0057873545
-0.73794285
0.0053087252
-0.78972469
0.0047208029
-0.84504089
0.004075671
-0.90411486
0.0034011729
-0.96718935
0.0027310411
-1.0345401
0.0020863218
-1.1064779
0.0014845124
-1.1833612
0.00093588197
-1.2655905
0.0004427013
-1.3536308
0.0044562184
-0.26766838
0.0048108859
-0.28634824
0.0047852706
-0.30632828
0.004808464
-0.3276848
0.0047905682
-0.35053639
0.0048200917
-0.37497685
0.004885202
-0.40113115
0.0050796771
-0.42913606
0.0053823698
-0.45913099
0.0058056449
-0.49128181
0.0062088183
-0.52574297
0.0065293992
-0.56268563
0.0066591723
-0.60227259
0.0065928316
-0.64466377
0.0063077944
-0.69001774
0.0058713052
-0.73850543
0.0053077994
-0.79031168
0.0046715319
-0.84563675
0.0039892654
-0.90470295
0.003298992
-0.9677573
0.002624187
-1.035078
0.0019866436
-1.10698
0.0014013001
-1.1838266
0.00087589484
-1.2660237
0.00041098756
-1.3540417
0.0044857041
-0.25027335
0.004869491
-0.26772698
0.0048516148
-0.28641459
0.0048713287
-0.30639114
0.004854417
-0.32774864
0.0048807488
-0.35059704
0.004951806
-0.37504346
0.0051577183
-0.40120919
0.0054882418
-0.42924193
0.00595228
-0.45927762
0.0064124088
-0.4914854
0.0068054743
-0.52601904
0.0070191536
-0.56304561
0.0070318737
-0.60271163
0.0068111588
-0.64516714
0.0064237397
-0.69057018
0.0058921505
-0.73908978
0.0052716819
-0.79091183
0.0045878231
-0.84623531
0.0038818593
-0.90528582
0.0031794767
-0.96831259
0.0025058964
-1.0355973
0.0018799071
-1.1074586
0.0013141845
-1.1842649
0.00081430834
-1.266427
0.00037891871
-1.3544207
0.0045112241
-0.23397502
0.0049293493
-0.25033321
0.0049147167
-0.26779008
0.0049312726
-0.28647453
0.0049093236
-0.30644605
0.0049328879
-0.32780078
0.0050057292
-0.35065097
0.0052202409
-0.37510598
0.005570643
-0.40129159
0.0060678129
-0.42935746
0.006580234
-0.45944545
0.007045547
-0.49172547
0.0073473764
-0.52634727
0.0074442746
-0.56345801
0.007294591
-0.60319507
0.006963377
-0.64570678
0.0064716493
-0.69114968
0.0058740428
-0.73969214
0.0051949521
-0.79151896
0.0044791296
-0.84683258
0.0037529586
-0.9058593
0.0030455386
-0.96885223
0.0023781709
-1.0360955
0.0017674727
-1.1079119
0.0012243686
-1.184675
0.00075187579
-1.2668
0.00034685251
-1.3547675
0.0045401363
-0.21883496
0.004987236
-0.2340329
0.0049768167
-0.25039531
0.0049860218
-0.26784483
0.0049600825
-0.28652529
0.0049759589
-0.30648912
0.0050508101
-0.32784586
0.005267027
-0.35069775
0.005631751
-0.37516709
0.0061530428
-0.40137682
0.0067126826
-0.42948991
0.0072494768
-0.45964938
0.0076418061
-0.4920199
0.0078276021
-0.52673059
0.0077551806
-0.5639186
0.0074878588
-0.60371955
0.0070442242
-0.64627935
0.0064764551
-0.69175209
0.0058085223
-0.74030571
0.0050888803
-0.79212871
0.0043441287
-0.84742375
0.003606554
-0.90642031
0.0028993856
-0.96937345
0.0022424794
-1.0365705
0.001651104
-1.1083387
0.0011329758
-1.1850561
0.00068930496
-1.2671424
0.00031510294
-1.3550826
0.0045755819
-0.20443413
0.0050507392
-0.21889847
0.005036398
-0.23409249
0.0050396775
-0.25044896
0.0050037654
-0.26788852
0.0050147551
-0.28656408
0.0050859227
-0.30652423
0.0053021297
-0.32788097
0.0056713842
-0.35073738
0.0062102452
-0.37522429
0.0068110987
-0.40147524
0.0074169811
-0.42965742
0.0079009685
-0.45990854
0.0081790272
-0.49237133
0.0081906357
-0.52716605
0.0079952556
-0.564426
0.007608152
-0.60428348
0.0070769025
-0.6468798
0.0064263001
-0.69236987
0.0057086738
-0.7409255
0.0049511795
-0.79273576
0.0041882995
-0.8480055
0.003444715
-0.90696564
0.0027427187
-0.96987369
0.0021012808
-1.0370207
0.0015320943
-1.1087378
0.0010410679
-1.1854078
0.00062722001
-1.2674545
0.00028394565
-1.3553666
0.0046153856
-0.19127138
0.0051271559
-0.20451054
0.0050967413
-0.21895881
0.005089289
-0.2341421
0.0050465197
-0.25049172
0.0050470769
-0.26792084
0.0051156259
-0.28659379
0.0053236969
-0.3065458
0.0056938433
-0.32790343
0.0062403132
-0.35076745
0.0068773558
-0.37529055
0.0075483016
-0.40160656
0.0081231961
-0.42987964
0.0084967344
-0.46022625
0.0085986278
-0.49277932
0.0084841648
-0.52765496
0.008161998
-0.56497985
0.0076737264
-0.6048803
0.007046205
-0.6474997
0.0063360237
-0.69299722
0.0055714107
-0.74154574
0.0047889776
-0.79333644
0.0040134843
-0.84857427
0.003269619
-0.90749254
0.0025788054
-0.97035121
0.0019559101
-1.0374445
0.0014118962
-1.1091086
0.00094958237
-1.1857302
0.00056616938
-1.2677368
0.00025361481
-1.3556202
0.002857065
-0.21044222
0.0052168037
-0.19136103
0.0051651378
-0.20457894
0.0051405787
-0.2190101
0.0050853178
-0.2341809
0.0050781567
-0.2505228
0.0051374431
-0.26794265
0.0053370663
-0.28660716
0.0056976701
-0.30654962
0.0062481451
-0.32791126
0.0069124846
-0.35080258
0.0076440987
-0.37538634
0.0083076192
-0.40179098
0.0087789881
-0.4301619
0.0089779651
-0.46060558
0.0089530172
-0.49324817
0.0087046175
-0.52819758
0.0082655325
-0.56557165
0.0076664343
-0.60550053
0.0069685259
-0.64813221
0.0062019745
-0.69362778
0.005405583
-0.74216234
0.004603783
-0.79392674
0.003822635
-0.84912728
0.0030851573
-0.90799889
0.0024086753
-0.97080397
0.0018085863
-1.0378412
0.0012917504
-1.1094508
0.00085934598
-1.1860234
0.00050661933
-1.2679898
0.00022430173
-1.3558445
0.0015981871
-0.21061504
0.0035801587
-0.20880558
0.0052474316
-0.19144332
0.0051998963
-0.20463826
0.0051232746
-0.21904806
0.005105453
-0.23420819
0.0051562015
-0.25054155
0.0053397739
-0.26794536
0.0056891003
-0.28659859
0.0062330076
-0.30653449
0.00692086
-0.32791963
0.00770448
-0.35086296
0.0084540768
-0.3755328
0.0090248679
-0.40203686
0.0093272144
-0.43051115
0.0094009573
-0.46105352
0.0092346027
-0.49377816
0.0088513536
-0.5287834
0.0082857163
-0.56619094
0.0076042147
-0.60613622
0.0068400688
-0.6487703
0.0060347205
-0.69425692
0.0052124516
-0.74277101
0.0043997641
-0.79450387
0.0036199683
-0.84966209
0.002892186
-0.90848241
0.0022356473
-0.97123104
0.0016604478
-1.0382099
0.001172782
-1.1097642
0.00077106869
-1.1862878
0.00044895751
-1.2682144
0.00019615683
-1.3560406
0.000838741
-0.21110399
0.0023916026
-0.20942648
0.0036522222
-0.20721037
0.0052754664
-0.19151889
0.0051695114
-0.20468449
0.0051301606
-0.21907276
0.0051702379
-0.23422223
0.0053371152
-0.25053889
0.005666076
-0.26792234
0.0062020168
-0.2865676
0.0069014482
-0.30651507
0.0077329568
-0.32794811
0.0085619557
-0.35097084
0.0092340792
-0.37574201
0.009645457
-0.4023551
0.0098264772
-0.43093667
0.0097513081
-0.46157023
0.0094303586
-0.49435716
0.0089034222
-0.52940111
0.0082417401
-0.56682846
0.0074832206
-0.60677937
0.0066728956
-0.64940848
0.005835585
-0.69488005
0.0049976859
-0.74336893
0.0041812695
-0.79506517
0.0034064523
-0.85017636
0.0026951632
-0.90894192
0.002060344
-0.97163093
0.0015132422
-1.0385504
0.0010559549
-1.1100491
0.00068534699
-1.1865242
0.00039349821
-1.2684118
0.00016929863
-1.3562099
0.00051913414
-0.21184533
0.0017009102
-0.2104133
0.0025179643
-0.20829223
0.0037221281
-0.20565703
0.0052296838
-0.19157906
0.0051629094
-0.20471724
0.0051823989
-0.21908493
0.0053279359
-0.23421305
0.0056346424
-0.25050746
0.0061532396
-0.26787356
0.0068615486
-0.2865277
0.007727669
-0.30650979
0.0086341292
-0.32802028
0.0094055019
-0.35114226
0.0099318958
-0.37602845
0.010228354
-0.40275698
0.010253148
-0.43143851
0.010002596
-0.46214247
0.0095192906
-0.49497303
0.0088803844
-0.53003975
0.0081294664
-0.56747471
0.0073168008
-0.60742327
0.0064689845
-0.65004187
0.0056120323
-0.6954944
0.0047656461
-0.74395331
0.0039497234
-0.79560844
0.0031874072
-0.8506686
0.0024939685
-0.90937555
0.00188568
-0.97200337
0.0013679365
-1.0388624
0.00094209345
-1.1103059
0.00060267413
-1.1867334
0.00034049041
-1.268583
0.00014382049
-1.3563538
0.00058377865
-0.21209952
0.0014438785
-0.2115883
0.0018453374
-0.20974067
0.0026478821
-0.20721798
0.0037255446
-0.20415289
0.0052066111
-0.19162277
0.0051992894
-0.20473413
0.005317648
-0.21907464
0.0055939876
-0.23417239
0.0060937962
-0.25044802
0.006798192
-0.2678102
0.0076962674
-0.2864963
0.0086679201
-0.30654358
0.0095412889
-0.32815607
0.010184854
-0.35139522
0.010605419
-0.37640552
0.010739457
-0.40324329
0.010567209
-0.43200312
0.01013387
-0.46275705
0.0095200187
-0.49561266
0.0087775775
-0.53068786
0.0079636277
-0.56812153
0.0071084587
-0.60806275
0.0062378584
-0.6506677
0.0053684965
-0.69609725
0.0045186839
-0.74452227
0.0037109091
-0.79613194
0.0029621644
-0.8511368
0.0022930064
-0.90978287
0.0017119819
-0.97234742
0.0012257937
-1.0391461
0.00083188752
-1.1105351
0.0005234461
-1.1869164
0.00029012446
-1.2687293
0.00011979088
-1.3564735
0.0010927845
-0.21262921
0.0016046254
-0.21226027
0.0015807987
-0.21132376
0.0019952076
-0.20908799
0.002679215
-0.20617165
0.0037466078
-0.20269289
0.0052221416
-0.19164562
0.0053089328
-0.20472542
0.0055456393
-0.21902629
0.0060224122
-0.23410101
0.0067201781
-0.25037
0.0076342394
-0.26774818
0.0086712838
-0.28649966
0.0096381021
-0.30664039
0.010405493
-0.32837671
0.010955615
-0.35174542
0.011209252
-0.37687531
0.011124898
-0.40380098
0.010747084
-0.43261633
0.010161273
-0.4633983
0.0094270672
-0.49626215
0.0086113233
-0.53133556
0.0077501451
-0.56876322
0.006869979
-0.60869487
0.005984345
-0.65128355
0.0051085672
-0.69668713
0.0042625537
-0.74507391
0.0034640147
-0.79663379
0.002736403
-0.8515802
0.0020914583
-0.91016235
0.0015416913
-0.97266331
0.0010875594
-1.0394017
0.0007259059
-1.1107375
0.00044797208
-1.1870742
0.00024253883
-1.268852
9.7249589e-05
-1.3565708
0.0017603606
-0.21369787
0.0022622513
-0.21328683
0.0017361759
-0.21241564
0.0017399748
-0.21106852
0.0020456803
-0.20845446
0.0027267153
-0.20515176
0.0037875087
-0.20125825
0.0053024147
-0.1916391
0.0055014473
-0.20468122
0.0059411596
-0.21894504
0.0066251097
-0.23400594
0.0075527349
-0.2502885
0.008637923
-0.26771481
0.0097033606
-0.28656492
0.010590171
-0.30682507
0.011279312
-0.32870041
0.0116609
-0.35219707
0.011675159
-0.37742557
0.011360834
-0.40441473
0.010804877
-0.43325994
0.010078507
-0.46404974
0.0092587312
-0.49690956
0.0083908562
-0.53197627
0.0075032501
-0.56939649
0.0066071438
-0.60931767
0.0057134813
-0.65188846
0.0048377776
-0.69726235
0.0039968983
-0.7456068
0.0032154069
-0.7971128
0.0025082476
-0.85199699
0.001893506
-0.91051416
0.0013748255
-0.97295058
0.00095414909
-1.03963
0.00062460434
-1.1109142
0.00037648372
-1.1872081
0.00019782376
-1.2689526
7.6209342e-05
-1.356647
0.0021262895
-0.21265045
0.0030202678
-0.21445589
0.0022668291
-0.21381749
0.0018993168
-0.21257498
0.0017740669
-0.21079691
0.0021172662
-0.20784501
0.0027753595
-0.20413961
0.0038662088
-0.19982205
0.0054575079
-0.19159516
0.0058623961
-0.20460246
0.0065189566
-0.21883888
0.007447189
-0.2339004
0.0085810579
-0.25023163
0.0097295132
-0.26774097
0.010744756
-0.2867195
0.01157294
-0.3071187
0.012094241
-0.32913375
0.012217554
-0.35273946
0.011974888
-0.37803963
0.011453332
-0.40506318
0.010732907
-0.43391434
0.0099058957
-0.4646969
0.0090282086
-0.49754691
0.0081329508
-0.53260597
0.0072305736
-0.57001992
0.0063267136
-0.6099309
0.0054306477
-0.65248133
0.0045564685
-0.69782192
0.0037279324
-0.74611932
0.0029627032
-0.79756725
0.0022835033
-0.85238698
0.0016977907
-0.91083713
0.0012134899
-0.97320992
0.00082603544
-1.0398314
0.00052833814
-1.111066
0.00030914365
-1.1873195
0.00015602607
-1.2690324
5.6664538e-05
-1.3567037
0.0015731158
-0.20712178
0.0032782477
-0.21290843
0.0027997293
-0.21498879
0.0024240703
-0.21434224
0.0019066915
-0.21270761
0.0018230318
-0.21050268
0.0021604584
-0.20723011
0.0028556604
-0.20312906
0.0039928013
-0.19835734
0.0057823035
-0.19151507
0.0064108768
-0.20449438
0.0073250965
-0.21871679
0.0084928472
-0.23381219
0.0097301832
-0.2502323
0.010861628
-0.26785784
0.011839953
-0.28698652
0.012506566
-0.30753102
0.012751757
-0.32966795
0.012590844
-0.35335542
0.012107307
-0.3786936
0.011392827
-0.4057231
0.010553358
-0.4345618
0.0096606235
-0.46532932
0.0087549704
-0.49816893
0.0078483971
-0.53322379
0.0069409944
-0.5706342
0.0060341106
-0.61053436
0.0051369223
-0.65306179
0.004270341
-0.69836433
0.0034535285
-0.74661015
0.0027125175
-0.79799627
0.0020594317
-0.85274862
0.0015082819
-0.91113192
0.0010573671
-0.97344125
0.00070387789
-1.0400069
0.00043737081
-1.1111942
0.00024604894
-1.1874095
0.00011715559
-1.2690929
3.8602853e-05
-1.3567423
-0.19420774
-1.3990401e-05
0.0021725409
-0.20601607
0.0027421543
-0.21285086
0.0028767562
-0.21544147
0.0023763454
-0.21481189
0.0019352483
-0.21281983
0.0018529449
-0.21019516
0.0022285318
-0.20660298
0.0029703377
-0.2021066
0.0043131148
-0.19688815
0.0062939894
-0.19139818
0.0071987927
-0.20436808
0.0083844912
-0.21860844
0.0096950105
-0.23377701
0.010952718
-0.2503234
0.012073956
-0.26809184
0.012897732
-0.28737768
0.013277006
-0.30805627
0.013208691
-0.3302858
0.012770774
-0.35401888
0.012059544
-0.37936032
0.011202957
-0.4063727
0.010287549
-0.43518873
0.0093662726
-0.46594062
0.008454747
-0.49877528
0.0075488317
-0.53383163
0.006640289
-0.57124038
0.0057311604
-0.6111286
0.0048373321
-0.65362878
0.003977645
-0.69888845
0.0031800696
-0.7470777
0.002461543
-0.79839838
0.0018418073
-0.85308215
0.0013231992
-0.91139775
0.0009082746
-0.97364565
0.00058790982
-1.0401575
0.00035188285
-1.1113001
0.00018724273
-1.1874796
8.1192428e-05
-1.2691355
2.2012107e-05
-1.3567643
-0.1921618
0.00012659859
-0.1942729
-0.0016209779
0.0016258815
-0.2048998
0.0026390163
-0.21261312
0.0026414191
-0.21570655
0.0023244935
-0.21520114
0.0019286391
-0.21289552
0.0019108357
-0.20987747
0.0023349817
-0.20596762
0.0032654096
-0.20105889
0.0048332687
-0.19542743
0.0070567478
-0.19125614
0.008266823
-0.20425041
0.0096369451
-0.21855037
0.01100739
-0.23383168
0.01228265
-0.25053209
0.013264834
-0.26845894
0.013789359
-0.28789003
0.013830369
-0.30867795
0.013443471
-0.3309585
0.012737799
-0.35469714
0.011855726
-0.38001309
0.010909443
-0.4069946
0.0099645514
-0.435787
0.0090446971
-0.46653057
0.0081427695
-0.49936922
0.0072407932
-0.53443213
0.0063310422
-0.57184026
0.0054221035
-0.61171337
0.0045304309
-0.65418156
0.0036841662
-0.69939255
0.0029044968
-0.74752065
0.0022163511
-0.79877292
0.0016274476
-0.8533864
0.0011462294
-0.91163571
0.00076563365
-0.97382337
0.00047859081
-1.0402842
0.0002719848
-1.1113848
0.00013272219
-1.1875311
4.8096214e-05
-1.2691616
6.8869546e-06
-1.3567712
-0.19080622
0.00027030152
-0.19215569
-0.0019906084
-0.20713793
-0.0022057657
0.0015205494
-0.20378133
0.0021879243
-0.21215962
0.0023984251
-0.21578048
0.0022346349
-0.21550713
0.0019322114
-0.2129169
0.0020032056
-0.20954569
0.0025893566
-0.20529157
0.0037741887
-0.19999981
0.0055667449
-0.19393743
0.0081289153
-0.19111823
0.0095633455
-0.20417681
0.011037878
-0.21858086
0.012458756
-0.23400779
0.013607639
-0.25087489
0.014293356
-0.26896294
0.014450589
-0.28851025
0.014131633
-0.30936611
0.013426525
-0.33164722
0.01251611
-0.35535752
0.011526768
-0.38063041
0.010548239
-0.40757828
0.0096135747
-0.43635588
0.0087155171
-0.46710332
0.0078270173
-0.49995545
0.0069276315
-0.53502872
0.0060166399
-0.5724348
0.0051056787
-0.61228862
0.0042211321
-0.65471853
0.0033871231
-0.69987517
0.0026332062
-0.74793751
0.0019732798
-0.79911876
0.0014218185
-0.85366199
0.00097534094
-0.91184541
0.00063101212
-0.97397579
0.00037594927
-1.0403882
0.00019767429
-1.1114498
8.2453469e-05
-1.1875655
1.7828931e-05
-1.2691725
-6.7778317e-06
-1.3567644
-0.18967358
0.00038790412
-0.19067564
-0.0012097504
-0.20593469
-0.0031938417
-0.21265058
-0.0018352335
0.0011035386
-0.20269694
0.0017523605
-0.21151356
0.0021040352
-0.21564988
0.0021407217
-0.21571564
0.0019620377
-0.21287573
0.0022033089
-0.20915964
0.0030445169
-0.2045619
0.004482805
-0.19891587
0.0066015371
-0.19241005
0.009464995
-0.19101988
0.011017545
-0.20415648
0.012607624
-0.21872973
0.013927656
-0.23432781
0.014776893
-0.25135843
0.015082642
-0.26959499
0.01482865
-0.28920727
0.014135627
-0.31007521
0.01318337
-0.33231448
0.012143581
-0.35597434
0.011116461
-0.38119863
0.010158173
-0.40812288
0.0092607011
-0.43690107
0.0083903896
-0.46766669
0.007511555
-0.50053937
0.0066118777
-0.53562396
0.0056958256
-0.57302494
0.0047856297
-0.61285312
0.0039068072
-0.65523821
0.0030924353
-0.7003344
0.0023628133
-0.74832704
0.001738605
-0.79943554
0.0012215829
-0.85390823
0.00081388098
-0.91202828
0.00050360296
-0.97410345
0.00028023765
-1.0404707
0.00012894034
-1.1114963
3.6358763e-05
-1.187584
-9.656916e-06
-1.2691696
-1.9193451e-05
-1.3567452
-0.18894059
0.00037055301
-0.18939565
-0.0008920884
-0.20463828
-0.0025061662
-0.21289008
-0.0029543403
-0.2137216
-0.0011668819
0.00067107856
-0.20161566
0.0012937542
-0.21070328
0.0018297505
-0.21533891
0.0020294521
-0.21578306
0.0020867448
-0.21275916
0.0025777616
-0.20869289
0.0037008555
-0.20377995
0.0054802846
-0.19779462
0.0079483353
-0.19089339
0.010997563
-0.19099989
0.012694924
-0.20424378
0.014214186
-0.21901626
0.015258643
-0.23480956
0.015701357
-0.25197715
0.015554788
-0.27032113
0.014855305
-0.28992695
0.013866732
-0.31075857
0.012760019
-0.33293092
0.011671229
-0.3565291
0.010675645
-0.3817161
0.0097732906
-0.40863547
0.0089227233
-0.4374334
0.0080734492
-0.46822858
0.0071980817
-0.50112557
0.0062920695
-0.5362202
0.0053708697
-0.57361018
0.0044593069
-0.61340562
0.0035926102
-0.65573839
0.0027970218
-0.70076861
0.0020995607
-0.748688
0.0015086148
-0.79972257
0.0010317371
-0.85412608
0.00065967049
-0.91218435
0.00038469984
-0.97420791
0.0001912915
-1.0405331
6.5735614e-05
-1.1115256
-5.5696348e-06
-1.1875881
-3.4713661e-05
-1.2691541
-3.0557512e-05
-1.3567146
-0.18849505
0.00022553762
-0.18856419
-0.00046090503
-0.20330669
-0.002223676
-0.21276472
-0.0026315218
-0.21447514
-0.0022008055
-0.2126697
-0.00064362666
0.00019941726
-0.20052132
0.00086905639
-0.20974259
0.0015830579
-0.21489251
0.0019966806
-0.21569299
0.0023807188
-0.21256212
0.0031650337
-0.20815707
0.0046420745
-0.20294174
0.0068137167
-0.19666
0.0095348896
-0.18943072
0.012791762
-0.19109673
0.014502371
-0.20453196
0.015703281
-0.21946089
0.016351722
-0.23545992
0.016277445
-0.2526998
0.015612305
-0.27107813
0.014557071
-0.29061729
0.013384699
-0.31138325
0.012211857
-0.33347155
0.01116434
-0.3570178
0.010248812
-0.38219163
0.0094161489
-0.4091289
0.0086038638
-0.43796381
0.0077652017
-0.4687957
0.0068847222
-0.50171823
0.005968686
-0.53681802
0.0050388639
-0.57418974
0.0041307479
-0.61394376
0.0032756752
-0.65621704
0.0025068611
-0.70117591
0.0018400624
-0.74901945
0.0012890848
-0.79997992
0.0008489466
-0.85431536
0.00051562476
-0.91231528
0.00027336572
-0.97428998
0.00010927692
-1.0405766
7.9335823e-06
-1.1115391
-4.3984279e-05
-1.1875788
-5.7279136e-05
-1.2691274
-4.0597844e-05
-1.356674
-0.18823275
-6.2880638e-05
-0.18809361
-0.00024504513
-0.20210328
-0.0016643166
-0.21242504
-0.0025633639
-0.21500998
-0.0020966817
-0.2133378
-0.0015327092
-0.21213632
-0.00056723114
-0.0002613202
-0.19939095
0.00051748352
-0.20867701
0.0014482247
-0.21434406
0.0021518261
-0.2154641
0.0028865346
-0.21228362
0.0040480092
-0.207563
0.0059499429
-0.20207797
0.0084111152
-0.19553623
0.011410724
-0.18804968
0.014749248
-0.19134361
0.016188437
-0.20501712
0.016962598
-0.22007177
0.017056337
-0.23623881
0.016369088
-0.25345659
0.015275792
-0.27179685
0.01401495
-0.29124754
0.012745637
-0.31191703
0.011622662
-0.33392987
0.010682301
-0.35745129
0.0098653303
-0.38264081
0.009093936
-0.40961897
0.008303089
-0.4385017
0.0074635322
-0.46937451
0.0065698642
-0.5023194
0.0056382518
-0.53741741
0.0047023353
-0.57476133
0.0037971472
-0.61446523
0.0029614872
-0.65667167
0.0022189441
-0.70155479
0.0015902094
-0.74932057
0.0010763882
-0.80020736
0.0006776119
-0.85447735
0.00037952836
-0.91242144
0.00017064469
-0.97435135
3.3878555e-05
-1.0406026
-4.4846253e-05
-1.1115383
-7.8543617e-05
-1.1875575
-7.7487612e-05
-1.2690905
-4.9648299e-05
-1.3566244
-0.18800885
-0.00048522332
-0.18792845
-0.00022804227
-0.20107586
-0.001272467
-0.21187348
-0.0022158725
-0.2154476
-0.0021257423
-0.21386996
-0.0015645186
-0.21229905
-0.0013699764
-0.2118804
-0.00087676269
-0.00066186022
-0.1982116
0.00032242918
-0.20755122
0.0015291637
-0.2137214
0.0025548337
-0.2151324
0.0036851681
-0.21192078
0.0053336471
-0.20694671
0.0075723745
-0.20123923
0.01028341
-0.19440891
0.013494021
-0.18679445
0.016607934
-0.19176311
0.017612881
-0.2056674
0.017801243
-0.22081668
0.017184251
-0.23705398
0.015990923
-0.25417172
0.014664791
-0.2724467
0.013270184
-0.29177209
0.012053063
-0.31234744
0.01107217
-0.33431974
0.010263517
-0.35784947
0.009535489
-0.38308236
0.0088024474
-0.41011833
0.0080178158
-0.43905599
0.0071643827
-0.46996903
0.0062490711
-0.50293022
0.0053013392
-0.53801641
0.0043583107
-0.57532249
0.0034632002
-0.61496694
0.0026473882
-0.65710011
0.0019391236
-0.70190371
0.0013467151
-0.7495909
0.00087565776
-0.80040541
0.00051450577
-0.85461233
0.00025386293
-0.91250466
7.547357e-05
-0.97439295
-3.4913794e-05
-1.0406125
-9.2632733e-05
-1.1115242
-0.00010957828
-1.1875255
-9.5535882e-05
-1.2690446
-5.756571e-05
-1.3565668
-0.18773082
-0.00093989097
-0.18794865
-0.00046502167
-0.20024292
-0.0010609761
-0.21119764
-0.0019483096
-0.21567986
-0.001983611
-0.2143722
-0.0016235015
-0.21244459
-0.0014189751
-0.21162235
-0.0016280307
-0.2111323
-0.0016289711
-0.00090466578
-0.19698451
0.00040493913
-0.20642699
0.0018877075
-0.21305427
0.0032623972
-0.21470963
0.00490626
-0.21149339
0.0069953888
-0.20636972
0.0095087093
-0.20046453
0.012422919
-0.19333781
0.015540864
-0.18572738
0.018200586
-0.19235081
0.018602525
-0.20646868
0.017983141
-0.22161557
0.016757855
-0.23782091
0.015330052
-0.25483698
0.013796346
-0.27297286
0.012451745
-0.29217077
0.011414152
-0.31268942
0.010609364
-0.33466559
0.0099209383
-0.35823492
0.0092531934
-0.38353311
0.0085372471
-0.41063776
0.0077417323
-0.43963333
0.0068619223
-0.47058188
0.0059204717
-0.50354936
0.0049545016
-0.5386126
0.0040103346
-0.57586963
0.0031265224
-0.61544607
0.0023390381
-0.65750003
0.0016645504
-0.70222154
0.0011149195
-0.74983016
0.00068344417
-0.80057435
0.00036338796
-0.85472185
0.00013643232
-0.91256562
-1.1134102e-05
-0.97441673
-9.7586625e-05
-1.0406075
-0.00013562789
-1.1114981
-0.00013728428
-1.1874837
-0.000111456
-1.2689907
-6.4527116e-05
-1.3565023
-0.18727987
-0.0013556157
-0.18797464
-0.0009139043
-0.19955965
-0.0011482955
-0.21050936
-0.0017492539
-0.21571432
-0.0019138546
-0.21479214