/*--------------------------------*- C++ -*----------------------------------*\
| =========                 |                                                 |
| \\      /  F ield         | OpenFOAM: The Open Source CFD Toolbox           |
|  \\    /   O peration     | Version:  5.0                                   |
|   \\  /    A nd           | Web:      www.OpenFOAM.org                      |
|    \\/     M anipulation  |                                                 |
\*---------------------------------------------------------------------------*/
FoamFile
{
    version     2.0;
    format      ascii;
    class       volScalarField;
    location    "40";
    object      pMean;
}
// * * * * * * * * * * * * * * * * * * * * * * * * * * * * * * * * * * * * * //

dimensions      [0 2 -2 0 0 0 0];

internalField   nonuniform List<scalar> 
9520
(
-9.7370004e-05
-9.4334431e-05
-0.00021755713
-8.8834039e-05
-0.00021052997
-0.00036056947
-8.1477991e-05
-0.00019786077
-0.00034915988
-0.00049997139
-7.2722573e-05
-0.00018079917
-0.00032854162
-0.00048448257
-0.00065022597
-6.295803e-05
-0.00016039806
-0.00030064936
-0.00045641196
-0.00063054356
-0.00080684443
-5.2511163e-05
-0.00013759628
-0.00026715617
-0.00041836359
-0.00059482029
-0.00078321264
-0.00097248549
-4.1691276e-05
-0.00011319019
-0.00022960195
-0.00037257209
-0.00054629291
-0.00074022594
-0.0009450226
-0.0011473405
-3.0727094e-05
-8.7896645e-05
-0.00018931797
-0.00032107611
-0.00048774351
-0.00068164025
-0.00089495272
-0.0011163706
-0.0013316495
-1.9879213e-05
-6.2292006e-05
-0.00014748274
-0.00026566244
-0.00042171172
-0.00061068835
-0.00082649008
-0.0010597291
-0.0012974689
-0.0015256141
-9.2136724e-06
-3.6930057e-05
-0.00010507238
-0.000207923
-0.00035045039
-0.00053033508
-0.0007432495
-0.00098195138
-0.0012347547
-0.0014886982
-0.001728802
9.523231e-07
-1.2101548e-05
-6.2974325e-05
-0.00014921247
-0.00027598031
-0.0004432483
-0.0006485529
-0.00088690762
-0.0011482497
-0.0014207053
-0.0016896555
-0.0019408199
1.085794e-05
1.166951e-05
-2.1753482e-05
-9.0745647e-05
-0.00020004929
-0.00035184649
-0.00054542675
-0.00077817918
-0.0010419605
-0.0013264117
-0.0016172522
-0.0019001454
-0.0021608278
1.9902206e-05
3.4539535e-05
1.7842738e-05
-3.3379015e-05
-0.00012421455
-0.00025825869
-0.00043665594
-0.00065907734
-0.00091961493
-0.0012098068
-0.001516255
-0.0018245345
-0.0021193579
-0.002387829
2.8883704e-05
5.5711481e-05
5.5824967e-05
2.1910766e-05
-4.9637044e-05
-0.00016438339
-0.00032474227
-0.00053270349
-0.00078472116
-0.0010746315
-0.0013904748
-0.001718321
-0.0020418308
-0.0023464758
-0.002620674
3.6609807e-05
7.6103093e-05
9.1235905e-05
7.4956691e-05
2.2460722e-05
-7.1700371e-05
-0.00021194419
-0.00040191484
-0.00064063573
-0.00092447952
-0.0012435063
-0.0015849493
-0.0019320757
-0.0022686375
-0.0025803468
-0.0028578637
4.4663452e-05
9.4198838e-05
0.00012500301
0.00012463647
9.1720936e-05
1.8294562e-05
-0.00010010383
-0.00026932695
-0.0004905348
-0.00076287541
-0.0010788978
-0.0014277046
-0.0017929801
-0.0021574107
-0.0025038378
-0.0028196234
-0.0030980585
5.1154023e-05
0.00011200979
0.00015541857
0.00017185631
0.00015684686
0.00010497933
8.9827321e-06
-0.00013715339
-0.00033738625
-0.00059324584
-0.00090024469
-0.0012499289
-0.0016273303
-0.0020149197
-0.0023933429
-0.0027463545
-0.0030629346
-0.0033394004
5.8199179e-05
0.00012704919
0.00018472185
0.00021470223
0.00021869739
0.00018684628
0.00011441474
-7.5203749e-06
-0.00018378982
-0.00041887918
-0.00071115604
-0.0010551457
-0.0014380933
-0.0018432463
-0.0022500413
-0.0026391431
-0.0029947991
-0.0033085242
-0.0035805593
6.3928487e-05
0.00014223276
0.00021008634
0.00025565052
0.00027514032
0.00026465039
0.00021444579
0.00011833433
-3.2228377e-05
-0.00024276379
-0.00051519998
-0.00084706091
-0.0012285701
-0.0016447909
-0.0020751127
-0.0024980209
-0.0028934821
-0.0032476095
-0.0035549824
-0.0038194841
6.9556504e-05
0.00015481213
0.00023492391
0.00029146168
0.0003288525
0.00033602753
0.00030967899
0.00023840892
0.00011567859
-6.7765052e-05
-0.00031574929
-0.00062946408
-0.0010024243
-0.0014224791
-0.0018701863
-0.0023230734
-0.0027577281
-0.0031550643
-0.0035032769
-0.0038002967
-0.004054952
7.5436254e-05
0.0001670057
0.00025594601
0.00032614974
0.00037617945
0.00040383569
0.00039751693
0.00035309196
0.00025762125
0.00010405041
-0.00011607845
-0.00040607213
-0.00076357528
-0.001179785
-0.0016375953
-0.0021149747
-0.0025863559
-0.00302819
-0.0034223402
-0.0037598755
-0.0040431822
-0.0042849929
7.9072674e-05
0.00017835515
0.00027606115
0.00035570464
0.00042170978
0.00046397212
0.00048093631
0.00045950572
0.00039367984
0.00027001864
8.1269025e-05
-0.00018055118
-0.00051603516
-0.00092063096
-0.0013804505
-0.0018752737
-0.0023788631
-0.0028643762
-0.0033079322
-0.0036935238
-0.0040159571
-0.0042815838
-0.0045084709
8.5740786e-05
0.00018687878
0.00029423958
0.00038396583
0.0004607179
0.00052165786
0.00055540067
0.00056067743
0.00052068216
0.00042984403
0.00027324025
4.4053214e-05
-0.00026385757
-0.00064922307
-0.0011025394
-0.0016065115
-0.0021357854
-0.002661785
-0.0031558983
-0.0035953609
-0.0039669803
-0.0042694142
-0.0045143022
-0.0047237502
8.7540278e-05
0.00019811433
0.00030902159
0.00040902059
0.00049798265
0.00057131277
0.00062669092
0.00065154692
0.0006416306
0.00058002383
0.00045908403
0.00026426114
-1.0607156e-05
-0.00036994904
-0.00080816769
-0.0013121503
-0.0018588829
-0.002419742
-0.0029628717
-0.0034595921
-0.0038887482
-0.0042406001
-0.0045189055
-0.0047395499
-0.0049298223
9.4605204e-05
0.00020310479
0.00032593845
0.0004302191
0.00053074294
0.00061881719
0.0006883986
0.00073849313
0.00075098832
0.00072344548
0.00063494755
0.00047878019
0.00023976761
-8.6902441e-05
-0.00050199895
-0.00099642654
-0.0015510956
-0.002138985
-0.0027267757
-0.0032812314
-0.0037737779
-0.0041860191
-0.004512789
-0.0047623955
-0.0049562462
-0.0051255036
9.5551388e-05
0.00021405937
0.00033559735
0.00045285325
0.00055921285
0.00066020628
0.00074747956
0.00081408766
0.0008556561
0.0008540266
0.00080350071
0.00068333891
0.00048533843
0.00019546404
-0.00018860487
-0.00066416037
-0.0012164149
-0.0018216812
-0.0024471047
-0.0030566013
-0.003615347
-0.0040964719
-0.0044852992
-0.0047813133
-0.0049986632
-0.0051630241
-0.0053099599
0.00010199512
0.00021692448
0.00035136944
0.00046711654
0.0005883015
0.00069691372
0.00079880295
0.00088658876
0.00094725401
0.0009791676
0.00095811889
0.00088025332
0.00072138385
0.00047452699
0.00012706301
-0.00032033603
-0.00085966311
-0.0014713416
-0.0021250122
-0.0027837256
-0.0034080556
-0.0039634901
-0.0044256254
-0.0047842169
-0.0050446834
-0.0052259942
-0.0053589565
-0.005482448
0.0001036211
0.00022646046
0.00035770362
0.00048787825
0.00060804732
0.0007331447
0.00084505366
0.00094935946
0.0010352668
0.0010893249
0.00110656
0.00106228
0.00094973428
0.00074506466
0.00044163486
2.9620752e-05
-0.00048611785
-0.0010926153
-0.0017632793
-0.0024624818
-0.0031482628
-0.0037798312
-0.0043235428
-0.0047587721
-0.0050809116
-0.0053007928
-0.0054433273
-0.0055431345
-0.0056424204
0.00010806012
0.00022894298
0.00037115558
0.00049727422
0.00063437099
0.00075892625
0.00088958302
0.0010067345
0.0011115115
0.0011953731
0.0012381833
0.0012374988
0.0011625407
0.0010082932
0.00074936624
0.00038157254
-0.00010163477
-0.0006909222
-0.0013661348
-0.0020946489
-0.0028343104
-0.0035400084
-0.0041699406
-0.0046930489
-0.0050936432
-0.0053729231
-0.0055483197
-0.0056493975
-0.005714879
-0.0057894895
0.00011113352
0.0002356913
0.00037651789
0.00051490495
0.00064756787
0.00079149139
0.00092269942
0.0010608013
0.0011820414
0.0012873091
0.001365198
0.0013939834
0.001368039
0.001255692
0.0010507076
0.00072920062
0.00028887285
-0.00027245257
-0.0009389428
-0.0016837624
-0.0024666695
-0.0032406063
-0.0039573622
-0.0045760689
-0.0050694281
-0.0054275187
-0.0056585276
-0.0057855059
-0.0058433161
-0.0058736765
-0.0059234405
0.00011409256
0.00024026394
0.00038650912
0.00052238023
0.00066987502
0.0008088124
0.00096254649
0.0011024688
0.0012474517
0.0013732266
0.0014756429
0.0015453396
0.0015530233
0.0014955591
0.0013364735
0.0010720477
0.00067850246
0.00015716016
-0.00048808065
-0.0012348616
-0.0020478762
-0.0028804998
-0.0036804191
-0.0043983483
-0.0049954941
-0.0054497085
-0.0057581058
-0.0059354463
-0.006011251
-0.0060242929
-0.0060191857
-0.0060442156
0.00011919821
0.0002426856
0.00039302897
0.00053507107
0.00068019421
0.00083653483
0.00098505127
0.0011507236
0.001299594
0.0014518268
0.0015797788
0.0016774145
0.0017324913
0.0017132443
0.0016148093
0.0014002057
0.001065754
0.00059042727
-1.9802044e-05
-0.00075430279
-0.0015823446
-0.0024608887
-0.0033361051
-0.0041523706
-0.0048603212
-0.0054250743
-0.0058310584
-0.0060826503
-0.0062021719
-0.0062242567
-0.0061917592
-0.0061512318
-0.0061518957
0.00012224052
0.0002486531
0.00039613893
0.00054345739
0.00069651977
0.00084966328
0.0010191028
0.0011792624
0.001357834
0.0015163019
0.0016740784
0.0018029437
0.0018899164
0.0019251742
0.0018695807
0.0017214926
0.0014400305
0.0010247194
0.00045786801
-0.00024879616
-0.001076151
-0.0019852073
-0.0029239433
-0.0038330034
-0.0046541717
-0.0053401443
-0.0058615377
-0.0062102692
-0.0063990685
-0.0064568133
-0.006423675
-0.0063453131
-0.006269797
-0.0062466848
0.00012854448
0.00025095687
0.00040360656
0.00054747455
0.00070751763
0.00087008382
0.001035962
0.0012208122
0.0013939557
0.0015861504
0.0017535011
0.0019157223
0.0020406665
0.0021121206
0.0021186018
0.0020181581
0.0018085478
0.0014487293
0.00094110804
0.00027317273
-0.00053623925
-0.0014589246
-0.0024460079
-0.0034377594
-0.0043695829
-0.0051829344
-0.0058342579
-0.0063012163
-0.0065845201
-0.0067048259
-0.0066981394
-0.0066087129
-0.0064847311
-0.006374999
-0.0063288941
0.00013457981
0.00025543461
0.00040633515
0.00055715947
0.00071252831
0.00088380243
0.001061673
0.0012417686
0.0014444725
0.0016313442
0.0018370984
0.0020129616
0.0021754899
0.0022923971
0.0023396575
0.002309411
0.0021519563
0.0018688227
0.0014179383
0.00080659032
2.859366e-05
-0.0008889072
-0.0019067798
-0.0029669498
-0.0040017545
-0.0049435264
-0.0057350595
-0.0063386326
-0.0067405725
-0.0069506469
-0.0069981692
-0.0069247872
-0.0067788596
-0.0066099552
-0.0064670778
-0.0063989263
0.00014367015
0.00025709446
0.00041295906
0.00056087551
0.00072372228
0.00088926421
0.0010786127
0.0012735458
0.0014708481
0.0016923361
0.001893421
0.0021128302
0.0022943157
0.0024531195
0.0025543121
0.0025696476
0.0024907402
0.0022640364
0.0018935782
0.001338817
0.00061220145
-0.00028405272
-0.0013126741
-0.0024236376
-0.0035488411
-0.0046145595
-0.0055515162
-0.0063063294
-0.0068490819
-0.0071757683
-0.0073061168
-0.0072770033
-0.0071358998
-0.0069337611
-0.0067210768
-0.0065463794
-0.0064572597
0.00015884588
0.00025842194
0.00041750493
0.00056831837
0.00072763704
0.00090269357
0.0010841009
0.0012941503
0.0015103854
0.0017251465
0.0019667789
0.0021827683
0.002413693
0.0025975391
0.0027454984
0.002824078
0.0027955564
0.0026559589
0.0023455489
0.0018736896
0.0012013739
0.00034851367
-0.00067239858
-0.0018133309
-0.0030120318
-0.0041916643
-0.0052735304
-0.0061894324
-0.006892076
-0.0073610726
-0.0076033388
-0.0076480845
-0.0075399881
-0.0073306455
-0.0070732718
-0.0068183207
-0.0066133405
-0.006504434
0.00017859602
0.00025622883
0.00042355481
0.00057227955
0.00073730697
0.00090720318
0.0010995419
0.0013002076
0.001535045
0.0017735311
0.0020075677
0.00227098
0.0025005556
0.0027399227
0.0029204317
0.003050643
0.0030956547
0.0030111581
0.0027962099
0.002387279
0.0017983314
0.00099510825
6.175297e-06
-0.0011441641
-0.0023954276
-0.0036736948
-0.0048938995
-0.005975032
-0.0068523785
-0.0074871293
-0.007870193
-0.0080196415
-0.0079745056
-0.0077856323
-0.0075085742
-0.0071974064
-0.0069020317
-0.0066684725
-0.0065410369
0.00020292153
0.00025172175
0.00043136563
0.00057640252
0.00074285645
0.0009184709
0.0011037397
0.0013190984
0.0015403936
0.0018033422
0.0020665341
0.0023214606
0.0026066302
0.0028473087
0.0030901311
0.0032613598
0.0033630959
0.0033633391
0.0032078591
0.0029023445
0.0023778468
0.0016561835
0.00070909952
-0.00042438867
-0.0017061131
-0.0030628001
-0.0044087112
-0.0056528672
-0.006714299
-0.0075347301
-0.0080861757
-0.0083718562
-0.0084216106
-0.0082830725
-0.0080130688
-0.007669352
-0.0073063546
-0.0069726562
-0.006712343
-0.0065676876
0.00025136394
0.0002027019
0.00043807614
0.00058118817
0.00074899061
0.00092454003
0.0011170889
0.0013228647
0.0015630942
0.0018079366
0.0021027255
0.0023933736
0.0026694486
0.0029746246
0.0032225894
0.0034629261
0.003615704
0.0036776531
0.0036188752
0.0033767888
0.0029626302
0.0023053569
0.0014349715
0.00033202483
-0.00095225874
-0.0023644723
-0.0038176131
-0.0052158843
-0.0064644018
-0.0074855654
-0.008230403
-0.0086836143
-0.0088618601
-0.0088060958
-0.0085723146
-0.0082214212
-0.0078129355
-0.0074004416
-0.0070307151
-0.0067455577
-0.0065850207
0.00045001676
0.00025138848
0.00017825005
0.00058488646
0.00075694798
0.00093084117
0.0011245951
0.0013378919
0.0015674172
0.0018350406
0.0021073868
0.0024372302
0.0027575141
0.0030528388
0.0033752277
0.003625309
0.0038544708
0.0039789079
0.0039865318
0.0038537238
0.0035061755
0.0029648361
0.002156502
0.0011218489
-0.00014748551
-0.0015862196
-0.003123913
-0.004660701
-0.0060922102
-0.0073230416
-0.0082822211
-0.0089328078
-0.0092740209
-0.0093360063
-0.0091706878
-0.0088406255
-0.0084103285
-0.0079394184
-0.0074801016
-0.0070767797
-0.0067687549
-0.0065936809
0.00059393964
0.00044964883
0.00025162236
0.00015842694
0.000763797
0.00093898726
0.0011319046
0.0013469904
0.0015840097
0.0018416706
0.0021392995
0.0024418456
0.0028106411
0.0031601027
0.0034723776
0.0038076171
0.0040527354
0.0042606836
0.0043437973
0.0042816977
0.0040562449
0.0035837223
0.0028948735
0.0019171907
0.00070333668
-0.00074079784
-0.0023337826
-0.0039878339
-0.005590856
-0.0070331006
-0.008222037
-0.0090968505
-0.0096352745
-0.0098519381
-0.009790679
-0.0095129402
-0.0090871754
-0.008579502
-0.0080490912
-0.0075458332
-0.0071114794
-0.0067826118
-0.0065943292
0.00077662419
0.00059360461
0.0004374028
0.00025599815
0.00014296802
0.0009458929
0.0011421597
0.0013548732
0.0015952765
0.0018600003
0.0021483849
0.0024793123
0.0028152891
0.0032250989
0.0036031695
0.0039280636
0.0042699536
0.0045014342
0.0046749364
0.0047028331
0.0045519335
0.0042143336
0.0035949429
0.0027377463
0.0015721087
0.00016561841
-0.0014585429
-0.0032013688
-0.0049574756
-0.0066050358
-0.0080322064
-0.0091534598
-0.0099216033
-0.010330942
-0.010412361
-0.01022241
-0.0098312434
-0.0093111083
-0.0087290327
-0.0081423062
-0.0075982283
-0.0071355406
-0.006787838
-0.0065876167
0.00096036965
0.00077639868
0.00058430199
0.00043082877
0.00025832444
0.00013372315
0.0011507927
0.0013666352
0.0016044111
0.0018737009
0.002169262
0.0024916937
0.0028591852
0.0032320674
0.0036826154
0.0040867317
0.0044188453
0.0047593156
0.0049655505
0.0050901759
0.0050452332
0.0047855109
0.0043133139
0.0035243853
0.0024766213
0.0011051914
-0.00050515397
-0.0023105477
-0.0041932954
-0.0060320779
-0.007697978
-0.0090815698
-0.010108488
-0.010748178
-0.011013238
-0.010950482
-0.010628471
-0.010124038
-0.0095121913
-0.0088590085
-0.0082195897
-0.0076380597
-0.0071497697
-0.0067851103
-0.0065741615
0.001168414
0.000960078
0.00076336599
0.00058055339
0.00042328536
0.00025709828
0.00012791176
0.0013761805
0.0016185678
0.0018846125
0.0021860324
0.0025160368
0.0028762885
0.0032847975
0.003693191
0.004183911
0.0046103074
0.0049423137
0.0052703989
0.0054388694
0.0054965045
0.0053600358
0.0049677372
0.0043376369
0.0033542237
0.002093462
0.00049958272
-0.0013223872
-0.0033047292
-0.0053118491
-0.0072082706
-0.0088623564
-0.010171781
-0.011077477
-0.0115683
-0.011675721
-0.011462193
-0.011006415
-0.010390502
-0.0096900844
-0.0089698384
-0.008281734
-0.0076662659
-0.0071548614
-0.0067749579
-0.0065545497
0.0013961957
0.0011683608
0.00094545031
0.00075654643
0.00057608704
0.00041733635
0.00025538897
0.00012162447
0.0016298714
0.0019012118
0.0021996641
0.002536953
0.0029051693
0.0033074303
0.0037563878
0.0042013725
0.004729365
0.0051724544
0.0054940615
0.0057973438
0.0059120564
0.0058838648
0.0056328191
0.0050834293
0.004268939
0.0030649084
0.001568648
-0.0002618385
-0.0022980175
-0.0044471615
-0.0065564425
-0.0084801828
-0.010088762
-0.011292125
-0.012050414
-0.012373656
-0.012312605
-0.011943809
-0.011354508
-0.010629738
-0.0098449901
-0.0090622474
-0.0083298286
-0.007683562
-0.0071511589
-0.00675784
-0.0065293808
0.0016535778
0.0013964326
0.0011514848
0.00093867871
0.00074879755
0.00057217764
0.00041276168
0.00025101382
0.00011866184
0.0019141996
0.0022199996
0.0025539328
0.0029323034
0.0033412235
0.0037876624
0.00427793
0.0047567283
0.0053179962
0.0057698697
0.0060688659
0.0063314792
0.0063756913
0.0062375513
0.0058491384
0.0051142988
0.0040866219
0.0026345386
0.00088148798
-0.0011954327
-0.0034424909
-0.0057409444
-0.0079236188
-0.0098391997
-0.011365888
-0.012430974
-0.013016963
-0.013156465
-0.012918582
-0.01239238
-0.011671101
-0.010841522
-0.0099774846
-0.0091375102
-0.0083646048
-0.0076900141
-0.0071389547
-0.0067345972
-0.0064993835
0.001941133
0.0016547586
0.0013770908
0.001143157
0.00093115083
0.00074278899
0.00056817697
0.00040596079
0.00024875734
0.00011364562
0.0022356881
0.0025786773
0.0029531707
0.0033762767
0.0038298293
0.0043201948
0.0048496127
0.0053606376
0.0059474992
0.0063974242
0.0066593509
0.0068640147
0.006816588
0.0065443975
0.0059912429
0.0050392085
0.0037669035
0.0020393519
1.109767e-05
-0.0023164111
-0.004763429
-0.007186101
-0.009406557
-0.011274137
-0.012680822
-0.013575939
-0.013967064
-0.013909404
-0.013489128
-0.012805178
-0.011955255
-0.01102621
-0.01008901
-0.0091963461
-0.0083857625
-0.0076856538
-0.0071196019
-0.006706708
-0.0064652769
0.0022670294
0.0019427233
0.0016321119
0.0013680413
0.0011334554
0.00092492451
0.00073736283
0.00056065493
0.00040329733
0.00024289305
0.00011068554
0.0025971396
0.0029833789
0.0034021195
0.0038742566
0.0043724231
0.0049076517
0.0054737183
0.0060110093
0.0066123909
0.0070481408
0.0072576793
0.0073824055
0.0072223443
0.0067879157
0.0060382331
0.0048331229
0.0032832673
0.0012542999
-0.0010627874
-0.003637778
-0.0062653669
-0.0087787629
-0.010995158
-0.012771372
-0.014019282
-0.014714498
-0.014891003
-0.014625948
-0.01402001
-0.013180235
-0.012206958
-0.011185318
-0.010180206
-0.0092379547
-0.0083929457
-0.0076726377
-0.0070959901
-0.0066751729
-0.0064272896
0.0026323094
0.0022696699
0.0019172158
0.0016211955
0.0013569698
0.0011259937
0.00091866437
0.00072761037
0.00055697649
0.00039612475
0.00024041607
0.00010766274
0.0030050637
0.0034390548
0.0039066166
0.0044290908
0.004973893
0.0055518304
0.0061471787
0.0067033577
0.0073067481
0.0077145526
0.0078527222
0.00787576
0.0075779571
0.0069473678
0.0059645522
0.0044670169
0.0026064914
0.00025405287
-0.0023590314
-0.005169683
-0.0079486375
-0.01051109
-0.012675953
-0.014315131
-0.015366245
-0.015834217
-0.015779791
-0.015299883
-0.014507851
-0.013516902
-0.012427652
-0.011319329
-0.010249594
-0.0092614166
-0.0083893429
-0.0076559097
-0.0070694201
-0.0066382581
-0.0063828649
0.003044616
0.0026349051
0.0022403156
0.0019046854
0.0016071614
0.0013487722
0.0011182708
0.0009075427
0.00072388912
0.00054756744
0.00039290208
0.00023592341
0.0001032144
0.0034645154
0.0039524289
0.0044707264
0.0050458085
0.0056363213
0.0062525515
0.0068680137
0.0074325802
0.0080243825
0.0083859577
0.0084345511
0.0083311603
0.0078642633
0.0069970831
0.0057396286
0.0039086166
0.0017060258
-0.00098645487
-0.0038942175
-0.0069179933
-0.0098090552
-0.012370902
-0.014432368
-0.015888065
-0.016706334
-0.016923181
-0.016624695
-0.01592592
-0.014950987
-0.013816393
-0.012617586
-0.011425826
-0.010295493
-0.0092712881
-0.0083827646
-0.007637125
-0.0070342531
-0.006590594
-0.0063319368
0.0035087323
0.003046476
0.0026018295
0.0022249305
0.0018878164
0.0015974035
0.0013395767
0.0011055338
0.00090366499
0.0007128585
0.00054341551
0.00038646039
0.00022914169
0.00010162947
0.0039831001
0.0045281982
0.0050999373
0.0057282071
0.0063604726
0.0070061272
0.0076311225
0.0081938714
0.0087562672
0.0090539333
0.0089926136
0.0087305164
0.0080567326
0.0069060946
0.005329377
0.0031232976
0.00055025446
-0.0024909654
-0.0056808896
-0.0088837301
-0.011837166
-0.014341835
-0.016245194
-0.017471811
-0.018024314
-0.01796958
-0.017417929
-0.016500913
-0.015350158
-0.014078542
-0.012773042
-0.011502122
-0.010324186
-0.0092791349
-0.0083752979
-0.00760475
-0.006980033
-0.0065367997
-0.0062755582
0.0040322978
0.0035089737
0.0030084508
0.002583801
0.0022037963
0.0018758668
0.0015861387
0.0013252986
0.0011017657
0.00089045155
0.00070781235
0.00053498616
0.00037646785
0.00022664132
9.5227466e-05
0.0045659017
0.005172135
0.0057994061
0.0064782194
0.007140629
0.0078094149
0.008432751
0.0089807762
0.0094957661
0.0097114244
0.0095116903
0.009049986
0.0081250781
0.0066376701
0.0046953918
0.0020734143
-0.00089253067
-0.004279942
-0.007726635
-0.011061817
-0.014018168
-0.016403613
-0.018093284
-0.019047537
-0.019304733
-0.01896245
-0.018154276
-0.017024779
-0.015704518
-0.014297875
-0.012889995
-0.01155664
-0.010352021
-0.0092875227
-0.0083471785
-0.0075408511
-0.006919941
-0.0064772376
-0.0062137655
0.0046198503
0.004030305
0.0034650987
0.0029868953
0.0025577508
0.0021886554
0.0018619068
0.0015698131
0.0013210872
0.00108593
0.00088494174
0.00069682568
0.00052230425
0.00037113284
0.0002170797
9.4315386e-05
0.0052192032
0.0058896741
0.0065718943
0.0072931189
0.0079761447
0.0086610316
0.0092651897
0.0097876358
0.010237333
0.010345008
0.0099701797
0.0092596261
0.0080310269
0.0061495392
0.003793238
0.00071978193
-0.0026518571
-0.006369228
-0.010032458
-0.013440746
-0.016331922
-0.018532817
-0.019954132
-0.02059565
-0.020532728
-0.01989381
-0.018832374
-0.017495663
-0.016006316
-0.014468571
-0.01297942
-0.011611782
-0.010382162
-0.0092657475
-0.0082703729
-0.0074712254
-0.0068537056
-0.0064120603
-0.0061465539
0.0052784019
0.0046155378
0.0039788739
0.0034390798
0.0029546161
0.0025392513
0.0021720317
0.0018434421
0.0015642752
0.0013016311
0.0010801858
0.00087105644
0.00068038263
0.00051486438
0.00035766446
0.00021419633
8.7294582e-05
0.0059487089
0.0066846879
0.0074166688
0.0081702954
0.0088667441
0.0095501385
0.010125605
0.010612512
0.010970692
0.010934249
0.010340046
0.0093209793
0.0077305558
0.0053920568
0.0025758387
-0.0009759935
-0.0047530935
-0.0087680521
-0.012591952
-0.016002096
-0.018753676
-0.020703468
-0.021803645
-0.022096656
-0.021696756
-0.020760428
-0.019448903
-0.017902853
-0.016247288
-0.014604601
-0.01307135
-0.011671333
-0.010369697
-0.0091725673
-0.0081878867
-0.0073948117
-0.0067817582
-0.0063412474
-0.0060739609
0.0060146637
0.0052716738
0.0045554165
0.0039463008
0.0033995123
0.0029323303
0.0025187545
0.0021507144
0.0018366294
0.0015412972
0.0012958377
0.0010630414
0.00085041206
0.00067003673
0.00049721055
0.00035131981
0.00020323767
8.5521307e-05
0.0067593363
0.0075570826
0.0083325818
0.0091049074
0.0098016312
0.010476049
0.011010267
0.011451019
0.011679456
0.011452493
0.010584846
0.0091883218
0.0071714078
0.0043110706
0.00099475913
-0.0030492704
-0.0072152436
-0.011477607
-0.015390381
-0.018721113
-0.021254569
-0.02288682
-0.023617013
-0.023534574
-0.022791005
-0.021556955
-0.01998933
-0.018234745
-0.016444865
-0.014745485
-0.01317029
-0.011672283
-0.010256394
-0.009073514
-0.0080977222
-0.007312672
-0.0067040471
-0.0062648141
-0.005996027
0.0068347039
0.0060060982
0.0052022308
0.0045145762
0.0038977451
0.0033731249
0.0029049999
0.002493332
0.0021413552
0.001809824
0.0015362613
0.00127519
0.001037234
0.00083716763
0.00064768101
0.00048780284
0.00033554104
0.00019822704
7.8887129e-05
0.0076526241
0.0085068206
0.0093119376
0.010092134
0.01077732
0.011439155
0.011920749
0.012292185
0.012340311
0.011864368
0.01065921
0.0088059645
0.0062931312
0.0028488391
-0.00099765119
-0.0055299552
-0.010048934
-0.014489399
-0.018404852
-0.021567051
-0.02380139
-0.025052198
-0.025372904
-0.024900196
-0.023807411
-0.022264037
-0.020437614
-0.018512723
-0.016650246
-0.014896631
-0.013190142
-0.011534755
-0.010136683
-0.0089656866
-0.0080018487
-0.0072245765
-0.0066205738
-0.0061828399
-0.0059128313
0.0077422456
0.0068258045
0.005926633
0.0051510456
0.004455369
0.0038655852
0.0033375092
0.0028742391
0.0024804178
0.0021095
0.0018047451
0.0015115603
0.001243344
0.0010203041
0.00080935622
0.00063445779
0.00046704916
0.00032587802
0.00018697611
7.527318e-05
0.0086294232
0.009529876
0.010351226
0.011129234
0.011802845
0.012445182
0.012851064
0.013119458
0.012920193
0.012123985
0.010505898
0.0081059155
0.005029476
0.00094725402
-0.0034448485
-0.0084402923
-0.013253956
-0.017784907
-0.021604285
-0.02450277
-0.026357275
-0.027172018
-0.027057805
-0.026181962
-0.02472059
-0.022859791
-0.020819531
-0.018802273
-0.016869999
-0.014942939
-0.013023948
-0.011389779
-0.010006837
-0.008852184
-0.0078998672
-0.0071306098
-0.0065314375
-0.0060954262
-0.0058244428
0.0087397463
0.0077363093
0.0067361133
0.0058624696
0.0050788491
0.0044149714
0.0038208774
0.0033009151
0.0028576568
0.0024424357
0.0021041326
0.0017745175
0.0014722251
0.0012223223
0.00098615393
0.00079197047
0.00060809485
0.00045279989
0.00030896888
0.00017843039
6.9416109e-05
0.0096881086
0.010623328
0.011452034
0.012225219
0.012886589
0.013493659
0.013789545
0.013909555
0.013376574
0.012172443
0.010053109
0.0070130178
0.0033113145
-0.0014499436
-0.0063846418
-0.011791562
-0.016818306
-0.021335036
-0.024948742
-0.027485172
-0.028887594
-0.029227516
-0.028655806
-0.027347071
-0.025501084
-0.023374596
-0.021217892
-0.019111436
-0.016952819
-0.014743356
-0.012848561
-0.01123301
-0.0098713896
-0.0087324246
-0.0077919038
-0.0070308372
-0.0064367894
-0.0060027194
-0.0057309221
0.0098265317
0.0087413418
0.0076368035
0.0066561938
0.0057743682
0.0050272831
0.0043586011
0.0037774489
0.0032788621
0.002813266
0.0024372318
0.0020674024
0.0017264953
0.0014458134
0.0011806876
0.00096359542
0.00075933426
0.00058832276
0.00043018656
0.00029419211
0.00016706279
6.380586e-05
0.010827599
0.01178947
0.012622076
0.013390405
0.014031732
0.014578129
0.014721199
0.014629992
0.013654872
0.011933092
0.009221798
0.0054466907
0.0010675475
-0.0043953609
-0.0098438818
-0.015582282
-0.020717108
-0.02509887
-0.028389411
-0.030471915
-0.031367373
-0.031197519
-0.030125124
-0.028356347
-0.02618403
-0.023912231
-0.021642646
-0.019243995
-0.016714968
-0.014531845
-0.012659371
-0.011070743
-0.0097295272
-0.0086065604
-0.0076780206
-0.0069255496
-0.0063368265
-0.0059047139
-0.0056323438
0.011002096
0.0098410655
0.0086324066
0.0075384443
0.0065483981
0.0057083064
0.0049556659
0.0043059196
0.0037475912
0.0032260163
0.0028080658
0.0023934256
0.0020086142
0.0016936081
0.0013953541
0.0011520669
0.00092363487
0.00073352152
0.0005592032
0.00040900532
0.00027602278
0.0001548504
5.8091656e-05
0.012050343
0.013036903
0.01387274
0.014633006
0.015237159
0.015686897
0.015620232
0.015236903
0.013677901
0.011318247
0.0079241191
0.0033204587
-0.0017718161
-0.0079309692
-0.013835565
-0.019796005
-0.024910367
-0.029022856
-0.031876014
-0.033430879
-0.033769256
-0.033029593
-0.031414316
-0.029249519
-0.026898145
-0.024485173
-0.021842247
-0.018963073
-0.016461111
-0.014304081
-0.012464792
-0.010901882
-0.00958142
-0.008474689
-0.0075586176
-0.0068149504
-0.0062313884
-0.0058013985
-0.0055289423
0.012266164
0.011032254
0.0097233063
0.0085130301
0.0074059539
0.006462966
0.0056177067
0.0048910019
0.0042647652
0.00368385
0.0032194738
0.0027552603
0.0023213828
0.0019677149
0.0016326801
0.0013592067
0.0011036987
0.00089042601
0.00069723801
0.00053072197
0.00038396692
0.00025591252
0.00014225545
5.1059365e-05
0.013363998
0.014378454
0.015217493
0.015957788
0.016498722
0.016798921
0.016449942
0.015669014
0.013354283
0.010227271
0.0060609696
0.00054575559
-0.0052702021
-0.012084725
-0.018355338
-0.024397939
-0.0293412
-0.033048806
-0.035368586
-0.036327603
-0.036028363
-0.034657031
-0.032567229
-0.030184809
-0.027659403
-0.024774188
-0.021513874
-0.018660232
-0.016187984
-0.014070999
-0.012263386
-0.010726601
-0.0094271796
-0.0083373369
-0.0074339358
-0.006698691
-0.0061202019
-0.0056932343
-0.0054208494
0.013623023
0.012311936
0.010905361
0.0095788859
0.0083489652
0.0072938238
0.0063477822
0.0055370637
0.0048356364
0.0041890111
0.0036737379
0.0031552798
0.0026673869
0.0022709085
0.0018943434
0.0015874425
0.0013009322
0.0010619405
0.00084579408
0.00066048453
0.00049796175
0.0003557142
0.00023489531
0.00012705719
4.457929e-05
0.014780225
0.015827906
0.016666044
0.017366897
0.017807897
0.017883738
0.017159117
0.015846655
0.01258091
0.0085457255
0.0035278125
-0.0029616983
-0.0094791605
-0.016866341
-0.023376509
-0.029331729
-0.033944048
-0.037128147
-0.038824741
-0.039082919
-0.038059298
-0.036126833
-0.033776794
-0.031183188
-0.02806641
-0.024394926
-0.021155185
-0.018334387
-0.0159095
-0.013830764
-0.012055313
-0.010545007
-0.0092675085
-0.0081947502
-0.0073033193
-0.0065760678
-0.0060041164
-0.0055804228
-0.0053082291
0.015079725
0.013679693
0.01217146
0.010730284
0.0093749471
0.0081992531
0.0071469346
0.0062466382
0.0054625961
0.0047454882
0.0041738868
0.003595485
0.0030484977
0.0026049058
0.0021827402
0.0018379666
0.0015175586
0.001248741
0.0010077625
0.000799452
0.0006190433
0.00046069773
0.00032616245
0.00021005766
0.00011200582
3.6534584e-05
0.016310275
0.017396114
0.018223925
0.018860526
0.019140269
0.018901878
0.017678646
0.015670488
0.011238895
0.0061487268
0.00021984459
-0.0072763321
-0.014433113
-0.022260983
-0.028844394
-0.034527366
-0.038661658
-0.041209472
-0.042149226
-0.041588965
-0.039910661
-0.037672249
-0.035070694
-0.031744306
-0.027634467
-0.02397359
-0.020768845
-0.01800292
-0.015623369
-0.013583489
-0.011840654
-0.010358008
-0.0091026726
-0.0080458151
-0.007165535
-0.0064485319
-0.0058833679
-0.005463213
-0.005191222
0.016648313
0.015138919
0.013516883
0.011957688
0.010477159
0.0091772052
0.0080126719
0.0070183416
0.0061472537
0.0053545226
0.004721282
0.0040784321
0.0034658883
0.0029708931
0.0024991564
0.0021128524
0.0017543512
0.0014530457
0.0011832469
0.00095028705
0.00074804289
0.00057149348
0.00042169313
0.00029146918