/*--------------------------------*- C++ -*----------------------------------*\
| =========                 |                                                 |
| \\      /  F ield         | OpenFOAM: The Open Source CFD Toolbox           |
|  \\    /   O peration     | Version:  5.0                                   |
|   \\  /    A nd           | Web:      www.OpenFOAM.org                      |
|    \\/     M anipulation  |                                                 |
\*---------------------------------------------------------------------------*/
FoamFile
{
    version     2.0;
    format      ascii;
    class       volScalarField;
    location    "40";
    object      pPrime2Mean;
}
// * * * * * * * * * * * * * * * * * * * * * * * * * * * * * * * * * * * * * //

dimensions      [0 4 -4 0 0 0 0];

internalField   nonuniform List<scalar> 
9520
(
1.3744165e-06
1.2669704e-06
9.3909197e-06
1.0863095e-06
8.659364e-06
2.5417913e-05
8.6812205e-07
7.4284695e-06
2.3445462e-05
5.018464e-05
6.4370066e-07
5.9407158e-06
2.0124892e-05
4.6311275e-05
8.5026991e-05
4.3705502e-07
4.408987e-06
1.6108256e-05
3.9785875e-05
7.851035e-05
0.00013180427
2.6418927e-07
2.9969559e-06
1.1968716e-05
3.1883897e-05
6.7521718e-05
0.00012178911
0.00019286943
1.3376382e-07
1.8141458e-06
8.1479299e-06
2.372846e-05
5.4196112e-05
0.00010488226
0.00017836281
0.00027104104
4.845625e-08
9.2023857e-07
4.9425725e-06
1.618786e-05
4.0417706e-05
8.4344527e-05
0.00015384177
0.00025089353
0.00036958598
6.5606251e-09
3.3417708e-07
2.5154772e-06
9.8484743e-06
2.7649327e-05
6.3061268e-05
0.0001239946
0.00021678673
0.00034247864
0.00049219629
3.4937778e-09
4.4895061e-08
9.1969406e-07
5.0353512e-06
1.6885606e-05
4.3284022e-05
9.2982537e-05
0.00017517605
0.00029651323
0.00045663459
0.00064295735
3.3106709e-08
2.1585684e-08
1.270426e-07
1.8581422e-06
8.6848779e-06
2.6556329e-05
6.4072041e-05
0.00013181114
0.00024028997
0.000396222
0.00059727235
0.00082630497
8.8642734e-08
2.2250098e-07
5.5625577e-08
2.6614747e-07
3.2435848e-06
1.3757712e-05
3.9523849e-05
9.1235765e-05
0.00018149832
0.0003221162
0.00051950579
0.00076866329
0.0010469669
1.6349236e-07
6.017029e-07
5.9346306e-07
1.0180773e-07
4.8666897e-07
5.2126737e-06
2.0648352e-05
5.6628702e-05
0.00012626058
0.00024433509
0.00042381448
0.0006703297
0.00097538929
0.0013098921
2.5157898e-07
1.113948e-06
1.6167986e-06
1.1469116e-06
1.5631788e-07
8.2540914e-07
7.9544122e-06
2.9867765e-05
7.8911204e-05
0.00017092038
0.00032296614
0.00054892157
0.00085299624
0.0012222818
0.0016201645
3.4767011e-07
1.7177541e-06
3.0033198e-06
3.1587303e-06
1.8892786e-06
2.1374655e-07
1.3372375e-06
1.172216e-05
4.2063992e-05
0.00010763976
0.00022730096
0.00042040314
0.00070133475
0.0010721011
0.0015143444
0.0019829059
4.474189e-07
2.3770805e-06
4.6405912e-06
5.8962109e-06
5.2779422e-06
2.8271026e-06
2.6803251e-07
2.1017328e-06
1.6849517e-05
5.804878e-05
0.0001443393
0.00029782619
0.00054002688
0.00088528844
0.0013324718
0.0018566648
0.0024031693
5.4737982e-07
3.0621665e-06
6.4307269e-06
9.1369333e-06
9.9149969e-06
8.0407961e-06
3.9632048e-06
3.1308699e-07
3.2325152e-06
2.3771454e-05
7.8826014e-05
0.00019082504
0.00038527623
0.00068558579
0.0011053136
0.0016390956
0.0022543148
0.0028858265
6.4496042e-07
3.7491606e-06
8.2926177e-06
1.2686633e-05
1.5422736e-05
1.5225758e-05
1.1521564e-05
5.2916675e-06
3.4494321e-07
4.8902986e-06
3.3048259e-05
0.00010562708
0.000249232
0.00049280585
0.00086117875
0.001366188
0.0019970332
0.0027122448
0.0034354609
7.3826269e-07
4.4202414e-06
1.01613e-05
1.6383754e-05
2.1469877e-05
2.3795027e-05
2.2027111e-05
1.5792949e-05
6.7932511e-06
3.6563271e-07
7.2989915e-06
4.5396678e-05
0.00013994551
0.00032204808
0.00062395016
0.0010712312
0.0016728697
0.0024113252
0.0032351694
0.0040562588
8.2599353e-07
5.0621418e-06
1.1987857e-05
2.0098674e-05
2.7779687e-05
3.3231076e-05
3.4618814e-05
3.053795e-05
2.0916092e-05
8.4304782e-06
3.8955674e-07
1.0767868e-05
6.1723048e-05
0.00018357787
0.00041213921
0.00078262671
0.0013204528
0.0020304214
0.0028868852
0.0038274707
0.0047519025
9.0748446e-07
5.6661631e-06
1.3736068e-05
2.3733257e-05
3.4129477e-05
4.3099332e-05
4.8532716e-05
4.8313984e-05
4.0983994e-05
2.6928483e-05
1.0143937e-05
4.5365145e-07
1.571731e-05
8.316439e-05
0.00023866174
0.00052277429
0.00097312092
0.0016137871
0.0024439209
0.0034283903
0.0044930875
0.0055254739
9.8207195e-07
6.2269407e-06
1.5381937e-05
2.7214825e-05
4.0349686e-05
5.3048664e-05
6.3123398e-05
6.8037131e-05
6.5340597e-05
5.3580976e-05
3.383123e-05
1.1849374e-05
6.3141644e-07
2.2712814e-05
0.00011113091
0.00030771757
0.00065763772
0.0012000642
0.0019563417
0.0029183497
0.0040401941
0.0052354128
0.0063793769
1.0501628e-06
6.741206e-06
1.6910423e-05
3.0494909e-05
4.6314493e-05
6.2810084e-05
7.7866736e-05
8.8785238e-05
9.2492781e-05
8.6180344e-05
6.8515061e-05
4.1574023e-05
1.3437756e-05
1.0538851e-06
3.2503305e-05
0.00014735614
0.00039368326
0.00082083723
0.0014683925
0.0023533102
0.003458509
0.0047262091
0.0060572107
0.0073152737
1.1111127e-06
7.2093505e-06
1.8313085e-05
3.3542669e-05
5.1939318e-05
7.218326e-05
9.2358477e-05
0.0001098049
0.00012116016
0.00012271713
0.00011131299
8.5918252e-05
5.0041021e-05
1.4779375e-05
1.9362317e-06
4.6069787e-05
0.00019394527
0.00049994885
0.001016894
0.0017832938
0.0028098592
0.0040689161
0.0054898132
0.0069605419
0.0083340447
1.1662149e-06
7.630329e-06
1.9589582e-05
3.6341455e-05
5.7169773e-05
8.1032382e-05
0.00010629615
0.00013051072
0.00015028933
0.00016145277
0.00015957238
0.00014118607
0.00010584182
5.9036949e-05
1.5733332e-05
3.6151482e-06
6.4676843e-05
0.00025342934
0.00063037782
0.0012507237
0.0021501378
0.0033310596
0.0047536935
0.0063337603
0.0079467136
0.0094357612
1.2146365e-06
8.0084312e-06
2.0738827e-05
3.888886e-05
6.197675e-05
8.9269048e-05
0.00011947264
0.00015046202
0.00017905505
0.00020094551
0.00021097528
0.00020393391
0.00017617898
0.00012822581
6.8276493e-05
1.6165647e-05
6.5928083e-06
8.9935517e-05
0.00032881209
0.00078932328
0.0015275965
0.0025743683
0.0039217749
0.0055164665
0.0072601137
0.00901624
0.010619686
1.2581049e-06
8.343256e-06
2.1769962e-05
4.1184232e-05
6.6353909e-05
9.6845917e-05
0.00013175168
0.00016935401
0.00020683195
0.00024005579
0.00026358228
0.00027111924
0.00025664912
0.0002165595
0.00015286813
7.7378332e-05
1.59761e-05
1.1595384e-05
0.0001238655
0.00042361829
0.00098162501
0.0018530822
0.0030614422
0.0045865459
0.006360275
0.0082701843
0.010168831
0.01188429
1.2958709e-06
8.6408261e-06
2.268466e-05
4.3243173e-05
7.0301159e-05
0.0001037497
0.0001430594
0.0001869836
0.00023318248
0.00027791326
0.00031584549
0.00034017098
0.00034331378
0.00031848625
0.00026243497
0.00017939314
8.5867497e-05
1.5139772e-05
1.9637506e-05
0.0001689663
0.00054192788
0.0012125943
0.0022329531
0.0036167146
0.0053294857
0.0072874882
0.0093644988
0.011403395
0.013227285
1.3275614e-06
8.9011024e-06
2.3496323e-05
4.5071349e-05
7.3842232e-05
0.00010998064
0.00015337113
0.00020323898
0.00025781156
0.00031390172
0.00036657258
0.00040901538
0.00043280793
0.00042897289
0.00039007204
0.00031369733
0.00020722553
9.3189854e-05
1.3759338e-05
3.2101945e-05
0.00022828237
0.00068840379
0.0014879739
0.0026731238
0.0042453218
0.0061541707
0.0082997446
0.01054278
0.012718062
0.014645674
1.3493884e-06
9.1190858e-06
2.4207673e-05
4.6692837e-05
7.6989005e-05
0.00011557242
0.00016268661
0.0002180774
0.00028055331
0.00034760016
0.00041490844
0.00047603969
0.00052238617
0.00054366637
0.00052942526
0.00047181783
0.00036996818
0.00023557139
9.8738985e-05
1.2136669e-05
5.0823007e-05
0.00030547034
0.00086829836
0.0018138642
0.0031795455
0.0049520588
0.0070635522
0.0093979015
0.011803947
0.014110224
0.01613582
1.3634645e-06
9.2707145e-06
2.4803906e-05
4.8115044e-05
7.9779788e-05
0.00012054538
0.00017105095
0.00023149623
0.00030133719
0.00037876647
0.0004602611
0.00054007154
0.00060989109
0.00065897098
0.00067492526
0.00064582838
0.00056383882
0.00043054443
0.00026340991
0.00010190337
1.0856961e-05
7.8181934e-05
0.00040485245
0.0010874429
0.0021966587
0.0037580789
0.0057412647
0.0080598708
0.010582006
0.013146138
0.015576592
0.017693513
1.3760044e-06
9.3531393e-06
2.5218569e-05
4.9306266e-05
8.2229391e-05
0.00012495667
0.00017849578
0.00024355329
0.00032015481
0.00040728822
0.0005022815
0.00060028822
0.00069373178
0.00077202866
0.00082190988
0.00082867937
0.00077906736
0.00066586682
0.0004943501
0.00028950288
0.00010213218
1.089421e-05
0.00011719954
0.00053146113
0.0013522026
0.0026429548
0.0044143666
0.0066167067
0.0091445922
0.011851284
0.014566743
0.01711326
0.019314059
1.3869121e-06
9.4249991e-06
2.5425993e-05
5.0124283e-05
8.4279131e-05
0.00012883101
0.00018510202
0.00025429437
0.00033707701
0.00043314546
0.00054079534
0.00065619196
0.00077277608
0.00088070006
0.00096662738
0.0010143848
0.0010068249
0.00092964091
0.00077716232
0.00055989984
0.00031242455
9.9028446e-05
1.3726289e-05
0.00017163169
0.00069105976
0.0016694087
0.0031594279
0.0051536961
0.0075814779
0.010318358
0.013204155
0.016062464
0.018715785
0.020992362
1.3968434e-06
9.4864252e-06
2.5605816e-05
5.0506065e-05
8.5658777e-05
0.00013206938
0.00019090797
0.00026383039
0.0003521671
0.00045642124
0.00057576172
0.0007075184
0.00084632063
0.00098344026
0.0011062248
0.0011980633
0.0012394998
0.0012109266
0.0010975383
0.0008964303
0.00062527998
0.00033061994
9.2463058e-05
2.1467039e-05
0.00024605178
0.0008901407
0.0020463045
0.0037526899
0.0059808655
0.0086379046
0.011580959
0.014638254
0.017629373
0.020379269
0.022723013
1.4057962e-06
9.5387259e-06
2.5759979e-05
5.0835173e-05
8.6254772e-05
0.00013419559
0.00019575582
0.00027221689
0.0003655727
0.00047719969
0.00060727282
0.00075419118
0.00091397167
0.0010792635
0.0012386106
0.0013759418
0.0014707973
0.0015001383
0.0014420676
0.0012821121
0.001021746
0.00068815274
0.00034249112
8.2719431e-05
3.7000314e-05
0.00034592065
0.0011358691
0.0024904147
0.004429138
0.0069000514
0.0097874778
0.012931329
0.016150479
0.019262993
0.022098446
0.024500376
1.4147619e-06
9.5816319e-06
2.589212e-05
5.1118257e-05
8.6763433e-05
0.00013503396
0.00019884959
0.00027921303
0.00037737172
0.00049567253
0.00063543665
0.0007963055
0.00097559533
0.0011675917
0.001362413
0.0015452102
0.00169577
0.0017892293
0.0017987941
0.0017006899
0.0014819502
0.0011504931
0.00074579017
0.00034652432
7.065725e-05
6.4118119e-05
0.00047763023
0.0014360606
0.0030094039
0.0051947959
0.0079146922
0.011030795
0.014367558
0.017737056
0.020958375
0.023867769
0.026318675
1.4272151e-06
9.6159039e-06
2.600209e-05
5.1360731e-05
8.7202059e-05
0.00013573926
0.00019994446
0.00028354012
0.00038720787
0.00051194637
0.00066049686
0.00083399538
0.0010312788
0.0012482007
0.001476794
0.0017039744
0.0019106744
0.0020717677
0.0021575185
0.0021373944
0.0019864209
0.0016947452
0.0012793265
0.00079515199
0.00034145155
5.7900433e-05
0.00010764594
0.00064849574
0.0017990674
0.0036109113
0.0060551554
0.0090273792
0.012367538
0.015886924
0.019393602
0.022710191
0.025681496
0.02817207
1.4442508e-06
9.6409935e-06
2.6091682e-05
5.1562495e-05
8.7580068e-05
0.000136349
0.00020084443
0.0002848889
0.0003930921
0.00052550583
0.00068259612
0.00086756445
0.0010811826
0.0013211516
0.0015813895
0.0018510319
0.0021129186
0.0023428109
0.0025099464
0.0025794069
0.0025170984
0.0022978818
0.0019171758
0.0014041734
0.00083300862
0.00032645628
4.7033029e-05
0.00017354923
0.00086674923
0.0022336438
0.0043023712
0.0070150183
0.010239778
0.013796458
0.01748595
0.021115216
0.02451282
0.027533776
0.030054732
1.4668007e-06
9.6576446e-06
2.6162532e-05
5.1726012e-05
8.789613e-05
0.00013687681
0.000201624
0.00028595758
0.00039467317
0.00053334225
0.00070100543
0.00089719959
0.0011256776
0.001386628
0.0016762044
0.0019858058
0.0023008008
0.0025988503
0.0028496021
0.0030161124
0.0030580117
0.0029380596
0.0026324881
0.0021448128
0.0015202823
0.00085612285
0.00030141162
4.1800551e-05
0.00026900012
0.0011414795
0.0027487746
0.0050908192
0.008078358
0.011552564
0.0153154
0.019160462
0.022896559
0.026360434
0.029418722
0.031960907
9.6680721e-06
1.466503e-06
2.6213358e-05
5.1853581e-05
8.8154104e-05
0.00013732004
0.00020230424
0.00028688533
0.0003958506
0.0005351201
0.00071127845
0.00092189046
0.0011650052
0.0014450745
0.0017614357
0.002108196
0.0024734322
0.0028375188
0.0031717768
0.0034390836
0.0035956822
0.0035955652
0.0033991561
0.0029862525
0.0023720657
0.0016223362
0.00086148699
0.00026715219
4.729544e-05
0.00040239866
0.0014825116
0.0033534729
0.0059827
0.009248192
0.01296539
0.016921335
0.020905678
0.024731948
0.028247085
0.031330482
0.033884974
2.6248632e-05
9.6682447e-06
1.4439276e-06
5.1944501e-05
8.835746e-05
0.00013768378
0.00020287951
0.00028770283
0.00039687841
0.0005363046
0.00071320868
0.00093519063
0.0011977877
0.0014967991
0.0018376046
0.0022183876
0.0026305358
0.0030574976
0.003473217
0.0038420435
0.0041192158
0.0042534254
0.0041930941
0.0038976951
0.0033536125
0.0025921867
0.0017046359
0.00084662201
0.00022576099
7.0120394e-05
0.00058339107
0.0019002365
0.0040565592
0.0069836769
0.010526484
0.014476878
0.018610423
0.022716288
0.02661545
0.03016678
0.033263306
0.035821495
5.2003539e-05
2.6248776e-05
9.658057e-06
1.4269666e-06
8.8504721e-05
0.00013797223
0.00020335561
0.00028840145
0.00039779506
0.00053735067
0.00071424388
0.00093723082
0.0012148318
0.0015399472
0.0019050977
0.002316969
0.0027722384
0.0032582607
0.0037520063
0.0042205518
0.0046203035
0.0048976573
0.0049931223
0.0048500404
0.0044291171
0.0037272963
0.0027973503
0.0017613702
0.000809927
0.00018086291
0.00011847819
0.00082277394
0.0024054008
0.0048664209
0.0080984599
0.011914071
0.01608464
0.020378084
0.024586554
0.028540965
0.032113559
0.035211597
0.037765258
8.860226e-05
5.2004137e-05
2.6214056e-05
9.641602e-06
1.4145432e-06
0.00013818372
0.00020373823
0.00028898583
0.00039859109
0.00053829957
0.00071517989
0.00093789094
0.0012169685
0.0015615945
0.0019614517
0.0024044119
0.0028991619
0.0034398449
0.004007261
0.0045718506
0.0050929298
0.0055173381
0.005781438
0.0058171215
0.0055638508
0.0049867128
0.0040982588
0.0029788295
0.0017869678
0.00075107684
0.00013789839
0.0002022656
0.0011323536
0.0030088522
0.005790772
0.0093306519
0.013410623
0.017785321
0.022219092
0.026510405
0.030502317
0.034081558
0.037169958
0.039711303
0.00013832674
8.8603367e-05
5.1946341e-05
2.6164032e-05
9.61675e-06
1.4056434e-06
0.00020402427
0.00028946356
0.00039926804
0.0005391438
0.00071605861
0.00093853463
0.0012169372
0.0015638808
0.0019886965
0.0024774736
0.003011837
0.0036029091
0.0042388633
0.0048945205
0.0055331823
0.0061043693
0.0065438015
0.0067764757
0.0067258334
0.0063295518
0.005561392
0.0044557058
0.0031272786
0.0017765428
0.00067144233
0.00010434468
0.00033305535
0.0015247318
0.0037212573
0.006836416
0.010682631
0.015014635
0.019574669
0.024127667
0.028481536
0.032493328
0.036065066
0.039133235
0.041654959
0.00020422461
0.00013832872
8.8508008e-05
5.1856646e-05
2.6093955e-05
9.5826931e-06
1.3968201e-06
0.00028982952
0.00039983511
0.00053988098
0.00071687411
0.00093919447
0.0012170391
0.0015627266
0.0019912784
0.0025113757
0.003106
0.0037480712
0.0044474917
0.0051881481
0.005938885
0.0066532476
0.0072694031
0.0077097123
0.0078869952
0.0077171865
0.0071393466
0.0061415134
0.0047872312
0.0032331441
0.0017264108
0.00057451437
8.9893212e-05
0.00052399867
0.0020130328
0.0045527961
0.008009033
0.012155459
0.01672345
0.021447619
0.026097586
0.0304935
0.034507896
0.038058573
0.041096542
0.043591853
0.00029009685
0.00020422837
0.00013818954
8.8363005e-05
5.1730385e-05
2.6004902e-05
9.5398848e-06
1.3869345e-06
0.00040028428
0.00054052009
0.00071761986
0.00093986843
0.0012172743
0.0015619524
0.0019884133
0.0025144772
0.0031474884
0.0038698805
0.0046338611
0.0054533334
0.0063091878
0.0071606928
0.0079505982
0.0086025435
0.0090238111
0.0091149039
0.0087860697
0.0079822363
0.0067128125
0.0050791031
0.0032871975
0.0016346708
0.00046629611
0.00010655758
0.00078963333
0.0026105711
0.005512856
0.0093129887
0.013748839
0.018533316
0.023398397
0.028122287
0.032539798
0.036540052
0.040056813
0.043055287
0.045517924
0.00040063154
0.00029010346
0.00020403557
0.00013798192
8.8161779e-05
5.1567932e-05
2.5895258e-05
9.4876733e-06
1.3760581e-06
0.00054105031
0.00071830194
0.00094054351
0.0012176521
0.0015614882
0.0019863428
0.0025091225
0.003150584
0.0039211143
0.0047911306
0.0056907948
0.0066445744
0.007625135
0.0085825705
0.0094445097
0.010117572
0.010492908
0.010459113
0.0099237562
0.0088436979
0.0072584747
0.0053167047
0.0032811973
0.0015018167
0.00035561661
0.0001686568
0.0011455988
0.0033304828
0.0066097303
0.010751188
0.015461101
0.020439462
0.025420632
0.030194978
0.034613961
0.038584019
0.042054795
0.045005189
0.047429435
0.00054148872
0.00040064353
0.00028984794
0.00020375615
0.00013769731
8.7905506e-05
5.1366801e-05
2.5763233e-05
9.4262577e-06
1.3635383e-06
0.00071890632
0.0009412205
0.0012181452
0.0015613596
0.0019848377
0.0025052669
0.0031418344
0.0039173001
0.0048553764
0.0058917707
0.0069458045
0.0080467236
0.0091626621
0.010228726
0.01115414
0.011826937
0.012121124
0.011914803
0.011117326
0.0097054719
0.0077593738
0.005485165
0.0032086552
0.0013313499
0.00025441306
0.00029267201
0.001608268
0.0041853266
0.0078503468
0.012324966
0.01728924
0.022436205
0.027507478
0.032308735
0.036709624
0.040634256
0.044047826
0.046942289
0.049322971
0.0007194498
0.00054150735
0.00040031502
0.00028949264
0.0002033796
0.00013733636
8.7590672e-05
5.112467e-05
2.5609122e-05
9.3543468e-06
1.3494566e-06
0.00094188121
0.0012187488
0.0015615232
0.0019839373
0.0025023163
0.003135811
0.0039048621
0.0048409634
0.0059730515
0.0072019336
0.0084260615
0.0096904558
0.010951037
0.01212382
0.013098112
0.013740947
0.01390907
0.013472624
0.012349128
0.010545505
0.0081945354
0.0055701706
0.0030656908
0.0011303174
0.00017783541
0.00049698059
0.0021943009
0.0051866836
0.0092400301
0.014034038
0.019228978
0.02451707
0.029651729
0.034456602
0.038820589
0.0426855
0.046031537
0.048862953
0.051195442
0.00094253806
0.0007194782
0.00054109801
0.00039988174
0.00028902426
0.00020290777
0.00013689496
8.7213266e-05
5.0841664e-05
2.542925e-05
9.2717568e-06
1.3276073e-06
0.0012194378
0.0015619629
0.0019835869
0.0025003481
0.0031310841
0.0038970385
0.0048234302
0.0059519728
0.0073060202
0.0087492944
0.010166179
0.011610239
0.013020331
0.01429302
0.015293646
0.015866949
0.015852893
0.015117832
0.013596363
0.011338113
0.008541843
0.0055589637
0.0028519194
0.00090979682
0.00014421462
0.00080145585
0.0029201462
0.0063447683
0.010782322
0.015876494
0.021274871
0.026674918
0.031845944
0.036631675
0.04094089
0.044732798
0.048001885
0.050763878
0.053133804
0.0012202194
0.00094257285
0.00071897674
0.00054059193
0.00039932762
0.00028844601
0.00020233534
0.00013636836
8.6774886e-05
5.0512415e-05
2.5221373e-05
9.1199339e-06
1.2959199e-06
0.0015626433
0.0019837548
0.0024992819
0.0031277996
0.0038906487
0.0048134725
0.0059275741
0.0072774498
0.0088821517
0.010572333
0.012206097
0.013841162
0.015402487
0.016760922
0.017755812
0.018208348
0.017943118
0.016829479
0.014830827
0.012054404
0.0087790173
0.0054414801
0.002571313
0.00068522558
0.00017484329
0.0012269496
0.0038015091
0.0076680849
0.012478856
0.01784884
0.023420418
0.028902084
0.034082555
0.038827196
0.043064841
0.046771519
0.049955164
0.052723039
0.055180547
0.0015635622
0.0012202568
0.00094196934
0.00071840566
0.00053997197
0.00039865935
0.00028775148
0.0002016571
0.00013575922
8.6265864e-05
5.0129879e-05
2.4806182e-05
8.9019102e-06
1.2581591e-06
0.0019843863
0.0024990643
0.003125861
0.0038860729
0.0048050896
0.0059141203
0.0072461178
0.0088537853
0.010741261
0.012717017
0.014585145
0.016422152
0.018129705
0.019550916
0.020496778
0.020763165
0.020163451
0.018579679
0.016018912
0.012663054
0.0088848609
0.0052116012
0.0022329728
0.00047653394
0.00029357259
0.0017946715
0.0048528273
0.0091631352
0.014329297
0.019946077
0.025658217
0.031190523
0.036353998
0.041036626
0.045187052
0.04879737
0.051965063
0.054784656
0.057280305
0.0019854595
0.0015635982
0.0012195364
0.00094135176
0.00071774961
0.00053924758
0.00039786922
0.00028693621
0.00020087746
0.00013505303
8.5668718e-05
4.9310964e-05
2.4209881e-05
8.6416159e-06
1.2146968e-06
0.0024996084
0.0031251821
0.0038832795
0.0047989918
0.0059026973
0.0072292018
0.0088168733
0.010713761
0.012933626
0.015225448
0.017349496
0.019393116
0.021233795
0.022685221
0.023524038
0.02352255
0.022489568
0.020333061
0.017121947
0.01313142
0.008840764
0.0048684342
0.0018517762
0.00030803575
0.00052622245
0.0025255119
0.0060867731
0.010834192
0.016331331
0.022161828
0.027980123
0.033531966
0.038652812
0.04325367
0.047302469
0.050884019
0.054076861
0.056907793
0.059432332
0.0025008572
0.0019854918
0.0015627472
0.0012188983
0.00094070677
0.00071702103
0.00053841176
0.00039695428
0.0002860063
0.00019997451
0.00013421227
8.4287674e-05
4.8119639e-05
2.3498526e-05
8.344028e-06
1.1662763e-06
0.0031256361
0.0038821703
0.0047952159
0.0058943802
0.0072142979
0.0087951283
0.010674722
0.012904949
0.015500052
0.01815145
0.020546856
0.022793705
0.024748121
0.026182414
0.026838773
0.026469125
0.024887973
0.022046519
0.01809696
0.013427093
0.0086324023
0.0044175199
0.0014487793
0.00020805685
0.00089984347
0.0034393339
0.0075138035
0.012683131
0.018480721
0.024488507
0.030377445
0.035918062
0.040971682
0.045472338
0.049488973
0.053077115
0.056259109
0.059091397
0.061635706
0.0031271108
0.0025008843
0.0019844904
0.0015621264
0.001218331
0.00094005417
0.00071621829
0.00053746451
0.00039592163
0.00028493214
0.00019887441
0.0001320831
8.223765e-05
4.6697421e-05
2.2686841e-05
8.0091899e-06
1.1111791e-06
0.0038826056
0.0047936333
0.0058891963
0.0072032723
0.0087757447
0.010649016
0.012851973
0.015470335
0.018500596
0.021550878
0.02422306
0.026669587
0.028703442
0.030055918
0.03043384
0.029575265
0.027315031
0.023669361
0.018897953
0.013519813
0.0082515774
0.0038719152
0.0010512996
0.00020831169
0.0014418566
0.0045542631
0.0091417636
0.014709369
0.020771454
0.026917534
0.032841119
0.038340433
0.043303532
0.047779296
0.051791815
0.055350327
0.058510546
0.061334122
0.063889317
0.0038844092
0.0031271315
0.0024997028
0.0019839312
0.0015617306
0.0012178676
0.00093939811
0.0007153405
0.00053641225
0.00039473553
0.00028357492
0.00019577512
0.00012884415
7.9787945e-05
4.5075888e-05
2.1772121e-05
7.6310784e-06
1.0502308e-06
0.0047940955
0.0058869204
0.0071963228
0.0087612452
0.010625407
0.012828289
0.015404719
0.018468364
0.022000225
0.025472284
0.028437792
0.031064197
0.033127137
0.034311773
0.034291547
0.032801408
0.029716328
0.025143993
0.019477728
0.013383771
0.0076980437
0.0032529995
0.00069266636
0.00034303774
0.0021790946
0.0058859894
0.010975608
0.016909913
0.023195952
0.02943954
0.035361784
0.040790822
0.045748894
0.050218544
0.054185471
0.057702273
0.060829525
0.063634314
0.066191876
0.0047963435
0.0038844308
0.0031257189
0.0024992471
0.0019838243
0.0015616091
0.0012175108
0.00093873811
0.0007143942
0.00053521322
0.0003931398
0.00027923927
0.00019092665
0.00012496958
7.699704e-05
4.3247661e-05
2.0740969e-05
7.2100904e-06
9.8214487e-07
0.0058873749
0.0071931491
0.0087520334
0.01060735
0.012804321
0.01538827
0.018393596
0.02197714
0.02603948
0.029992364
0.033246771
0.036020162
0.03804092
0.038946029
0.038381324
0.036094515
0.03202648
0.026407264
0.019790327
0.013000133
0.0069811843
0.0025909153
0.00041160493
0.00064789029
0.0031367667
0.0074471845
0.013017295
0.019279531
0.025745279
0.032044448
0.037929992
0.043389215
0.04834957
0.052760676
0.056668533
0.060131115
0.063213988
0.065990018
0.068541911
0.0058901738
0.0047963821
0.003882696
0.0031253746
0.0024995533
0.0019842348
0.0015617622
0.0012172743
0.00093808119
0.000713336
0.00053340697
0.000387243
0.00027224239
0.00018512057
0.00012055808
7.3850143e-05
4.1188676e-05
1.9591704e-05
6.7419395e-06
9.0756092e-07
0.0071935752
0.0087477089
0.010595791
0.012784617
0.015364663
0.018372458
0.021897759
0.026010375
0.030715018
0.035177431
0.038708703
0.041576872
0.043457875
0.043941879
0.042657289
0.039386823
0.034169582
0.027392588
0.019794032
0.012359731
0.0061214669
0.0019245596
0.00025120902
0.0011586047
0.0043374919
0.0092471322
0.015265822
0.021810907
0.02840921
0.034721762
0.040691448
0.046174197
0.051066985
0.055404352
0.059239084
0.062634512
0.065661469
0.068398979
0.070937774
0.0071970556
0.005890256
0.0047942364
0.0038824011
0.0031261802
0.0025007038
0.0019851686
0.001562224
0.0012171609
0.00093739105
0.00071136207
0.00052554847
0.00037740622
0.00026385584
0.00017851413
0.00011558489
7.0308935e-05
3.8893247e-05
1.8315189e-05
6.2276661e-06
8.2607361e-07
0.0087480829
0.010590316
0.012771772
0.015344545
0.018354552
0.021833469
0.025933782
0.030693548
0.036097426
0.041102675
0.044882059
0.047767106
0.049379349
0.049266552
0.047055909
0.042595064
0.036060516
0.028032945
0.019454839
0.011465641
0.0051514662
0.001300997
0.00025745922
0.0019096199
0.0058005679
0.011291542
0.017717263
0.024494659
0.031176607
0.037649901
0.043680713
0.049092143
0.05389998
0.058147691
0.061894622
0.065209618
0.068169095
0.070858654
0.073377647
0.0087523814
0.0071972119
0.0058876314
0.0047939583
0.003883688
0.0031282318
0.0025027174
0.0019866787
0.0015629867
0.0012171594
0.00093529568
0.00070105763
0.00051198909
0.00036560682
0.00025431965
0.0001710691
0.00010999288
6.6361537e-05
3.634578e-05
1.6912499e-05
5.6668796e-06
7.3834578e-07
0.010590769
0.012765818
0.015331472
0.018340732
0.021818318
0.025909211
0.030623016
0.036093942
0.042274209
0.047846633
0.051821117
0.054614055
0.055791423
0.054867959
0.051493783
0.045620461
0.037607318
0.028264766
0.018750307
0.010335612
0.0041162034
0.00077415601
0.00047751502
0.0029329203
0.0075414355
0.013582324
0.020364639
0.027319794
0.034266019
0.040859061
0.04682239
0.052142221
0.056846854
0.060988155
0.064632047
0.067853078
0.070733599
0.073366224
0.075859531
0.010596089
0.0087526283
0.0071940145
0.0058874152
0.0047957837
0.0038866367
0.0031315693
0.0025056761
0.0019887362
0.0015641039
0.0012149621
0.00092195912
0.00068264883
0.00049571544
0.000352201
0.00024357833
0.00016270445
0.0001037617
6.1984211e-05
3.3546905e-05
1.5383975e-05
5.062842e-06
6.4504396e-07
0.012766851
0.015325934
0.018331255
0.021830997
0.025894378
0.030624207
0.036029111
0.042304199
0.049340844
0.055486176
0.05957362
0.062127673
0.062660719
0.060671033
0.055865951
0.048349786
0.038714787
0.02803269
0.01767354
0.0090038904
0.0030725209
0.00040303703
0.00095815563
0.0042570391
0.0095710279
0.016117199
0.023198416
0.030552403
0.037703798
0.044244482
0.050116134
0.055323098
0.059905183
0.063922523
0.067447653
0.070561044
0.073351337
0.075918722
0.07838164
0.012773554
0.010596385
0.0087487323
0.0071938812
0.0058899871
0.0047997695
0.0038912779
0.0031363076
0.0025095083
0.0019915501
0.0015617509
0.0011978797
0.00089726798
0.00066055063
0.0004772429
0.00033711056
0.0002315209
0.00015338863
9.6857633e-05
5.7177041e-05
3.0499034e-05
1.3738047e-05
4.4209164e-06
5.4746205e-07
0.015328305
0.018328598
0.021834601
0.025903883
0.03060807
0.036069424
0.042252547
0.049431744
0.057393125
0.064095692
0.068177391
0.070300039
0.069929594
0.066574193
0.060045038
0.050657832
0.039289479
0.027295054
0.016236871
0.0075219227
0.0020876732
0.00024994441
0.0017442713
0.0059057723
0.01189491
0.018890146
0.026538901
0.034217167
0.041347753
0.047806411
0.053561137
0.05863264
0.063071775
0.06694688
0.07033714
0.073329192
0.076018553
0.078513388
0.08094171
0.015336912
0.012773812
0.010591524
0.0087486817
0.0071973633
0.0058954127
0.0048059537
0.0038976818
0.0031422943
0.0025148005
0.0019888761
0.0015400623
0.001165096
0.00086763417
0.00063549128
0.00045646444
0.00032018791
0.00021810163
0.00014307648
8.9280429e-05
5.1946355e-05
2.7218796e-05
1.1989751e-05
3.7497969e-06
4.4749613e-07
0.018334001
0.021839796
0.025920732
0.030624363
0.036102913
0.042316795
0.049417106
0.057584387
0.066528713
0.073744192
0.077655789
0.079099738
0.077510801
0.07244619
0.063881729
0.052411678
0.03924626
0.026029751
0.014474633
0.0059580252
0.0012377858
0.00037856153
0.0028767353
0.007896578
0.014513543
0.022280042
0.030413824
0.038126414
0.04519875
0.051544741
0.057155751
0.062067861
0.066342653
0.070056613
0.073295631
0.076153121
0.078731611
0.081146873
0.083537386
0.018345527
0.015337065
0.012767459
0.010591357
0.0087532775
0.0072045289
0.0059038187
0.004814362
0.0039054392
0.0031509646
0.0025115938
0.0019615781
0.0014969128
0.001125769
0.00083406599
0.00060732789
0.00043318843
0.00030136973
0.00020326265
0.00013176828
8.1043355e-05
4.632124e-05
2.3737031e-05
1.0163076e-05
3.0627511e-06
3.4774077e-07
0.021851211
0.025936822
0.030657088
0.03610269
0.042398586
0.049510577
0.057640637
0.066875556
0.076845408
0.084491184
0.088011549
0.08846505
0.085281899
0.078123864
0.067207149
0.053477217
0.038515927
0.024239365
0.012444763
0.0043968144
0.00060587656
0.0008508412
0.0043897177
0.010240409
0.017864246
0.026326355
0.0345831
0.042281539
0.049257512
0.055458486
0.060897383
0.065624878
0.069713044
0.073246436
0.076318219
0.079028384
0.08148627
0.083815512
0.086166206
0.021867183
0.018345634
0.015328569
0.012766549
0.010597009
0.0087626181
0.0072156057
0.0059152396
0.0048242405
0.0039177678
0.0031477734
0.0024776283
0.0019052283
0.0014451888
0.0010812743
0.0007963766
0.00057581685
0.00040733073
0.00028058512
0.0001870066
0.00011948863
7.2193741e-05
4.0356073e-05
2.0102194e-05
8.294245e-06
2.3776024e-06
2.5164127e-07
0.025957033
0.030697373
0.036147054
0.042478662
0.049650922
0.057794096
0.067050303
0.077423689
0.088438445
0.096380794
0.099219237
0.098296147
0.093079866
0.083411468
0.069837969
0.053727875
0.037053194
0.021955656
0.010230266
0.0029379191
0.00027780748
0.0017228555
0.0063097595
0.013425121
0.022012636
0.030732827
0.03904838
0.046684105
0.053523862
0.059545625
0.064782426
0.069298911
0.073177405
0.076511082
0.079399683
0.081950006
0.084277751
0.086515488
0.088825629
0.025978975
0.021867488
0.01833409
0.015326065
0.012772519
0.010608585
0.00877709
0.0072304616
0.0059285669
0.0048416246
0.0039215058
0.0031062103
0.0024045727
0.0018377396
0.0013867429
0.0010313705
0.00075426231
0.00054085013
0.00037880818
0.00025784245
0.00016937617
0.0001063114
6.2819968e-05
3.4135425e-05
1.6386969e-05