/*--------------------------------*- C++ -*----------------------------------*\
| =========                 |                                                 |
| \\      /  F ield         | OpenFOAM: The Open Source CFD Toolbox           |
|  \\    /   O peration     | Version:  5.0                                   |
|   \\  /    A nd           | Web:      www.OpenFOAM.org                      |
|    \\/     M anipulation  |                                                 |
\*---------------------------------------------------------------------------*/
FoamFile
{
    version     2.0;
    format      ascii;
    class       volVectorField;
    location    "40";
    object      U;
}
// * * * * * * * * * * * * * * * * * * * * * * * * * * * * * * * * * * * * * //

dimensions      [0 1 -1 0 0 0 0];

internalField   nonuniform List<vector> 
9520
(
(1.0014659 -0.00019609556 0)
(1.0014632 -0.00057397709 0)
(1.0020509 -0.00020080852 0)
(1.001458 -0.00092304278 0)
(1.0020437 -0.00058857023 0)
(1.0022883 -0.00020175218 0)
(1.0014491 -0.0012433902 0)
(1.0020301 -0.00094809397 0)
(1.0022803 -0.00059219431 0)
(1.00267 -0.00020208151 0)
(1.0014363 -0.0015357929 0)
(1.0020097 -0.0012804287 0)
(1.0022653 -0.00095542602 0)
(1.0026618 -0.00059501691 0)
(1.0029606 -0.00020027672 0)
(1.0014189 -0.0018009653 0)
(1.0019828 -0.0015864385 0)
(1.0022432 -0.0012929319 0)
(1.0026459 -0.00096368849 0)
(1.0029543 -0.00059203045 0)
(1.0032783 -0.00020138864 0)
(1.0013965 -0.0020404924 0)
(1.0019489 -0.001867376 0)
(1.0022142 -0.0016055059 0)
(1.0026221 -0.0013102576 0)
(1.0029408 -0.00096377117 0)
(1.0032783 -0.00059762996 0)
(1.0035687 -0.00020995041 0)
(1.0013689 -0.0022553977 0)
(1.0019083 -0.0021244853 0)
(1.002178 -0.0018946459 0)
(1.0025908 -0.0016349629 0)
(1.0029192 -0.0013182621 0)
(1.0032741 -0.00097803428 0)
(1.0035751 -0.00062368401 0)
(1.0038839 -0.00022993088 0)
(1.0013361 -0.0024481804 0)
(1.001861 -0.002358924 0)
(1.0021346 -0.0021613327 0)
(1.0025513 -0.0019390696 0)
(1.0028896 -0.0016548312 0)
(1.0032623 -0.0013463059 0)
(1.0035804 -0.0010224492 0)
(1.0038986 -0.00068196554 0)
(1.004208 -0.00026004609 0)
(1.0012984 -0.002618809 0)
(1.0018075 -0.0025726872 0)
(1.0020843 -0.0024065793 0)
(1.0025037 -0.002222962 0)
(1.0028511 -0.0019737464 0)
(1.0032416 -0.0017013748 0)
(1.0035792 -0.0014108041 0)
(1.003917 -0.0011165224 0)
(1.004228 -0.00076910395 0)
(1.0045788 -0.00029888798 0)
(1.0012562 -0.0027730556 0)
(1.0017489 -0.0027658259 0)
(1.0020276 -0.002631969 0)
(1.0024479 -0.0024869993 0)
(1.0028035 -0.0022746272 0)
(1.0032107 -0.0020422569 0)
(1.0035679 -0.0017885511 0)
(1.0039312 -0.0015389941 0)
(1.0042554 -0.0012555608 0)
(1.0046049 -0.00088247227 0)
(1.0049772 -0.00033941292 0)
(1.0012099 -0.0029047883 0)
(1.0016856 -0.002943092 0)
(1.0019655 -0.0028373584 0)
(1.0023845 -0.0027318506 0)
(1.0027468 -0.0025568906 0)
(1.0031683 -0.0023675185 0)
(1.0035447 -0.002154165 0)
(1.0039353 -0.001951256 0)
(1.0042821 -0.001725361 0)
(1.0046426 -0.0014386142 0)
(1.0050077 -0.0010011634 0)
(1.0054211 -0.00037791624 0)
(1.0011606 -0.0030315431 0)
(1.0016194 -0.0030989415 0)
(1.0018986 -0.0030266925 0)
(1.0023143 -0.0029568271 0)
(1.002681 -0.0028202542 0)
(1.0031136 -0.002675238 0)
(1.0035076 -0.0025055817 0)
(1.0039257 -0.0023523713 0)
(1.0043004 -0.0021825163 0)
(1.0046831 -0.0019733848 0)
(1.0050535 -0.0016313292 0)
(1.0054582 -0.0011148948 0)
(1.0058812 -0.00040857537 0)
(1.0011083 -0.0031259423 0)
(1.0015498 -0.0032489532 0)
(1.0018284 -0.0031945147 0)
(1.0022376 -0.0031645682 0)
(1.0026067 -0.0030635359 0)
(1.0030465 -0.002964023 0)
(1.0034557 -0.0028402269 0)
(1.0038993 -0.0027401509 0)
(1.0043044 -0.0026272985 0)
(1.0047174 -0.0024914499 0)
(1.0051056 -0.002236763 0)
(1.0055157 -0.0018181226 0)
(1.0059241 -0.0012057885 0)
(1.0063645 -0.00043162022 0)
(1.001054 -0.0032399609 0)
(1.0014796 -0.0033673983 0)
(1.0017544 -0.003355247 0)
(1.0021564 -0.0033500796 0)
(1.0025244 -0.0032885198 0)
(1.0029676 -0.0032320911 0)
(1.0033884 -0.0031559863 0)
(1.0038542 -0.003111572 0)
(1.0042896 -0.0030579743 0)
(1.0047373 -0.0029942161 0)
(1.0051542 -0.0028219826 0)
(1.005583 -0.002495798 0)
(1.0059931 -0.0019680687 0)
(1.006416 -0.0012752181 0)
(1.0068425 -0.00044693218 0)
(1.0009972 -0.00329211 0)
(1.0014053 -0.0035035285 0)
(1.001679 -0.0034837927 0)
(1.0020699 -0.0035258892 0)
(1.0024358 -0.0034907018 0)
(1.0028776 -0.0034802054 0)
(1.0033066 -0.0034506046 0)
(1.0037896 -0.0034638137 0)
(1.0042527 -0.0034717623 0)
(1.0047364 -0.0034807885 0)
(1.005189 -0.0033891102 0)
(1.0056487 -0.0031518915 0)
(1.0060762 -0.0027056126 0)
(1.0065011 -0.0020848213 0)
(1.0069024 -0.0013220366 0)
(1.0073253 -0.00045720944 0)
(1.0009387 -0.003410923 0)
(1.0013328 -0.0035779852 0)
(1.0015998 -0.0036286059 0)
(1.0019819 -0.0036692297 0)
(1.0023409 -0.0036811746 0)
(1.0027789 -0.0037043706 0)
(1.0032112 -0.0037238865 0)
(1.0037061 -0.0037938995 0)
(1.0041923 -0.0038655949 0)
(1.00471 -0.0039489324 0)
(1.0052021 -0.0039380724 0)
(1.0057016 -0.0037888228 0)
(1.0061607 -0.0034229715 0)
(1.0066053 -0.0028722088 0)
(1.0070036 -0.0021649927 0)
(1.0073968 -0.0013543126 0)
(1.0077917 -0.00046328493 0)
(1.0008754 -0.0034132956 0)
(1.0012542 -0.0037187591 0)
(1.0015217 -0.0037108256 0)
(1.0018897 -0.0038260697 0)
(1.0022439 -0.0038391894 0)
(1.0026724 -0.0039137698 0)
(1.0031049 -0.0039719936 0)
(1.0036046 -0.0041002011 0)
(1.0041079 -0.0042358774 0)
(1.0046551 -0.004395599 0)
(1.0051875 -0.0044673432 0)
(1.0057322 -0.004407142 0)
(1.0062343 -0.0041227803 0)
(1.0067135 -0.0036427033 0)
(1.00713 -0.0029890657 0)
(1.007519 -0.0022222464 0)
(1.0078743 -0.0013738979 0)
(1.008252 -0.00046624351 0)
(1.0008122 -0.0035498793 0)
(1.0011779 -0.0037396419 0)
(1.001439 -0.0038595925 0)
(1.0018001 -0.0039201094 0)
(1.0021426 -0.0040078972 0)
(1.0025632 -0.0040899301 0)
(1.0029888 -0.0042017908 0)
(1.0034872 -0.0043784471 0)
(1.0039994 -0.0045797493 0)
(1.00457 -0.0048171465 0)
(1.0051408 -0.0049745051 0)
(1.0057332 -0.005005737 0)
(1.006286 -0.0048059637 0)
(1.0068122 -0.0043988965 0)
(1.0072649 -0.0038010787 0)
(1.0076735 -0.0030755517 0)
(1.0080173 -0.0022583221 0)
(1.0083485 -0.0013841936 0)
(1.0086935 -0.00046618096 0)
(1.0007355 -0.003504576 0)
(1.0010956 -0.0039018662 0)
(1.001359 -0.0038857419 0)
(1.0017062 -0.0040795927 0)
(1.0020447 -0.0041137743 0)
(1.0024489 -0.0042716354 0)
(1.002867 -0.0043962539 0)
(1.0033541 -0.0046326362 0)
(1.0038682 -0.0048928025 0)
(1.0044546 -0.0052106141 0)
(1.0050598 -0.0054567044 0)
(1.0056993 -0.0055825233 0)
(1.006307 -0.0054713202 0)
(1.00689 -0.0051422784 0)
(1.0073942 -0.0046042763 0)
(1.0078411 -0.0039221834 0)
(1.0082004 -0.0031323487 0)
(1.0085164 -0.0022793077 0)
(1.0088031 -0.0013853295 0)
(1.0091203 -0.00046327253 0)
(1.0006679 -0.0036522301 0)
(1.0010088 -0.0038691885 0)
(1.0012757 -0.0040580096 0)
(1.001618 -0.00411248 0)
(1.0019425 -0.0042824499 0)
(1.0023375 -0.0043895189 0)
(1.0027364 -0.004589411 0)
(1.0032093 -0.0048479516 0)
(1.0037155 -0.0051776069 0)
(1.0043109 -0.0055724678 0)
(1.004944 -0.0059112158 0)
(1.0056267 -0.0061345651 0)
(1.0062902 -0.0061164715 0)
(1.0069363 -0.0058713864 0)
(1.0075037 -0.0053994439 0)
(1.0080056 -0.0047658129 0)
(1.0084028 -0.0040049672 0)
(1.0087331 -0.0031686484 0)
(1.008995 -0.002284903 0)
(1.0092449 -0.0013779779 0)
(1.0095271 -0.00045753128 0)
(1.0005675 -0.0035926672 0)
(1.000927 -0.0040504765 0)
(1.00119 -0.0040271311 0)
(1.0015267 -0.0042963941 0)
(1.0018475 -0.0043214363 0)
(1.002219 -0.0045639505 0)
(1.002605 -0.0047168137 0)
(1.0030509 -0.0050539537 0)
(1.0035469 -0.0054227056 0)
(1.0041413 -0.0059045354 0)
(1.004795 -0.0063345233 0)
(1.0055136 -0.0066582985 0)
(1.0062303 -0.006738091 0)
(1.006943 -0.0065838377 0)
(1.0075814 -0.0061852179 0)
(1.0081523 -0.0056071484 0)
(1.0086066 -0.004880989 0)
(1.0089759 -0.004062019 0)
(1.0092449 -0.0031833294 0)
(1.0094642 -0.0022764122 0)
(1.0096664 -0.0013621931 0)
(1.0099139 -0.00044898561 0)
(1.0004932 -0.0037023988 0)
(1.000819 -0.0039957765 0)
(1.0011116 -0.0042230562 0)
(1.0014366 -0.0042625304 0)
(1.0017478 -0.004513055 0)
(1.0021069 -0.0046049887 0)
(1.0024624 -0.0048928628 0)
(1.0028893 -0.0051936423 0)
(1.0033628 -0.0056535567 0)
(1.0039518 -0.0061972257 0)
(1.0046139 -0.0067259255 0)
(1.0053593 -0.0071493133 0)
(1.006124 -0.0073324256 0)
(1.0069035 -0.0072765812 0)
(1.0076181 -0.0069590835 0)
(1.0082681 -0.0064453864 0)
(1.0087956 -0.0057611885 0)
(1.0092248 -0.0049653638 0)
(1.0095283 -0.0040912226 0)
(1.0097515 -0.0031785342 0)
(1.0099126 -0.0022538887 0)
(1.0100685 -0.0013380457 0)
(1.0102788 -0.00043776456 0)
(1.000362 -0.0037008133 0)
(1.0007348 -0.0041481319 0)
(1.0010101 -0.0041649416 0)
(1.0013534 -0.0044738766 0)
(1.0016517 -0.0044755308 0)
(1.0019861 -0.0047974569 0)
(1.0023263 -0.0049346653 0)
(1.0027161 -0.0053747127 0)
(1.0031749 -0.0058206062 0)
(1.0037423 -0.0064696171 0)
(1.0044041 -0.0070753681 0)
(1.0051635 -0.0076046517 0)
(1.0059698 -0.0078956191 0)
(1.0068136 -0.0079461029 0)
(1.0076065 -0.0077181695 0)
(1.0083428 -0.0072777597 0)
(1.008955 -0.0066452007 0)
(1.0094621 -0.005879747 0)
(1.0098236 -0.0050153763 0)
(1.0100809 -0.0040959509 0)
(1.0102363 -0.0031539008 0)
(1.0103427 -0.0022176298 0)
(1.0104487 -0.001305902 0)
(1.010621 -0.00042401921 0)
(1.0002228 -0.0037038023 0)
(1.0006028 -0.0041501045 0)
(1.0009314 -0.0043364266 0)
(1.0012491 -0.0043982634 0)
(1.0015583 -0.0046962484 0)
(1.001871 -0.0047487827 0)
(1.0021798 -0.0051249667 0)
(1.002552 -0.0054230372 0)
(1.0029741 -0.0060205006 0)
(1.0035229 -0.0066771917 0)
(1.0041649 -0.0073962201 0)
(1.0049287 -0.0080162839 0)
(1.0057673 -0.0084249734 0)
(1.0066702 -0.0085883726 0)
(1.0075414 -0.0084588748 0)
(1.008368 -0.0081014366 0)
(1.0090737 -0.0075300565 0)
(1.0096723 -0.0068054451 0)
(1.0101124 -0.0059574896 0)
(1.0104288 -0.0050360188 0)
(1.0106105 -0.0040749516 0)
(1.0107064 -0.0031099182 0)
(1.0107511 -0.0021680616 0)
(1.0108063 -0.0012662098 0)
(1.0109396 -0.00040795103 0)
(1.000128 -0.0038214792 0)
(1.0004582 -0.0041927833 0)
(1.0008142 -0.0043322379 0)
(1.001166 -0.0045912218 0)
(1.0014492 -0.0046035026 0)
(1.0017552 -0.0049720612 0)
(1.0020453 -0.005069039 0)
(1.002378 -0.0056160627 0)
(1.0027816 -0.0060896742 0)
(1.0032836 -0.0069035016 0)
(1.003905 -0.00764909 0)
(1.004655 -0.0083939065 0)
(1.0055185 -0.0089145206 0)
(1.0064727 -0.0092003935 0)
(1.0074197 -0.0091779053 0)
(1.0083373 -0.0089126788 0)
(1.0091427 -0.0084129339 0)
(1.0098435 -0.0077395851 0)
(1.0103777 -0.0069179649 0)
(1.0107752 -0.00600105 0)
(1.0110101 -0.0050247863 0)
(1.0111299 -0.0040287601 0)
(1.0111537 -0.0030473444 0)
(1.011137 -0.002105815 0)
(1.0111402 -0.0012195395 0)
(1.0112344 -0.00038978459 0)
(0.99989784 -0.0036863242 0)
(1.0003748 -0.0043294056 0)
(1.0006793 -0.0043893793 0)
(1.0010523 -0.0045572192 0)
(1.0013537 -0.0048115336 0)
(1.0016306 -0.0048535314 0)
(1.0019088 -0.0052961427 0)
(1.0022206 -0.0055574 0)
(1.0025749 -0.0062919599 0)
(1.0030457 -0.0069974835 0)
(1.003617 -0.0079079366 0)
(1.0043519 -0.0087059965 0)
(1.0052238 -0.0093706614 0)
(1.0062221 -0.0097772298 0)
(1.0072392 -0.0098716781 0)
(1.0082457 -0.0097075487 0)
(1.0091548 -0.0092904083 0)
(1.0099658 -0.0086790529 0)
(1.0106061 -0.0078943472 0)
(1.011102 -0.0069912741 0)
(1.0114141 -0.0060062874 0)
(1.011587 -0.0049826833 0)
(1.011625 -0.0039583908 0)
(1.0115794 -0.0029668379 0)
(1.0114992 -0.002031844 0)
(1.01145 -0.0011665304 0)
(1.0115051 -0.00036975328 0)
(1.0000796 -0.0039240782 0)
(1.0001312 -0.0042191085 0)
(1.0006143 -0.0045286629 0)
(1.0009165 -0.0046346118 0)
(1.001243 -0.0047479308 0)
(1.0015158 -0.0050752867 0)
(1.0017719 -0.0051585742 0)
(1.0020574 -0.0057881188 0)
(1.0023847 -0.0062381343 0)
(1.0027866 -0.0072075231 0)
(1.0033226 -0.0080350185 0)
(1.0040138 -0.0090161998 0)
(1.0048913 -0.0097677086 0)
(1.0059177 -0.010321532 0)
(1.0069985 -0.010534761 0)
(1.0080903 -0.010482472 0)
(1.0091057 -0.010159305 0)
(1.010032 -0.0096206116 0)
(1.0107876 -0.0088829682 0)
(1.0113944 -0.0080047209 0)
(1.0118036 -0.0070195002 0)
(1.0120546 -0.0059750096 0)
(1.0121374 -0.004910651 0)
(1.0121015 -0.0038643101 0)
(1.0119812 -0.0028696075 0)
(1.0118369 -0.0019471382 0)
(1.0117354 -0.0011078646 0)
(1.011752 -0.00034808947 0)
(0.99906972 -0.0036930344 0)
(1.0003704 -0.0044984089 0)
(1.0003964 -0.0044158115 0)
(1.0008591 -0.0047501814 0)
(1.0010958 -0.0048423712 0)
(1.001399 -0.0049723511 0)
(1.0016396 -0.0053956391 0)
(1.0019009 -0.0056292469 0)
(1.002181 -0.0064695919 0)
(1.0025417 -0.00715807 0)
(1.0030014 -0.008264559 0)
(1.0036615 -0.0092000368 0)
(1.0045145 -0.010156843 0)
(1.0055648 -0.010811942 0)
(1.0066961 -0.011168042 0)
(1.0078697 -0.011233752 0)
(1.0089924 -0.011016837 0)
(1.0100369 -0.010560775 0)
(1.0109147 -0.0098804539 0)
(1.0116421 -0.0090372019 0)
(1.0121624 -0.0080625679 0)
(1.0125127 -0.0070058915 0)
(1.012667 -0.0059076553 0)
(1.0126738 -0.0048087116 0)
(1.0125527 -0.0037484514 0)
(1.0123582 -0.0027568871 0)
(1.0121496 -0.0018527978 0)
(1.0119965 -0.0010442365 0)
(1.0119753 -0.00032502708 0)
(0.99958304 -0.0039994651 0)
(0.99945026 -0.0042831426 0)
(1.0006501 -0.0047133835 0)
(1.0006332 -0.0046334812 0)
(1.0010484 -0.0049266194 0)
(1.0012367 -0.005087029 0)
(1.0015181 -0.0052566829 0)
(1.0017402 -0.0058775145 0)
(1.0019898 -0.0062922003 0)
(1.0022763 -0.0073854562 0)
(1.0026907 -0.0082350442 0)
(1.0032753 -0.0094752037 0)
(1.0041124 -0.010426567 0)
(1.005157 -0.011289053 0)
(1.0063356 -0.011754877 0)
(1.0075833 -0.011961978 0)
(1.0088135 -0.011860183 0)
(1.0099779 -0.011496835 0)
(1.0109824 -0.010883151 0)
(1.0118366 -0.01008458 0)
(1.0124791 -0.0091311865 0)
(1.0129437 -0.008073154 0)
(1.0131923 -0.0069498548 0)
(1.0132707 -0.0058042325 0)
(1.0131822 -0.0046799089 0)
(1.0129795 -0.0036120349 0)
(1.0127095 -0.002630203 0)
(1.0124371 -0.0017499385 0)
(1.0122334 -0.00097633824 0)
(1.0121756 -0.00030079924 0)
(1.0003377 -0.0037700195 1.5622648e-24)
(1.0000481 -0.0046508795 0)
(0.99979693 -0.0044695193 0)
(1.0009175 -0.0049393771 0)
(1.0008213 -0.0048153961 0)
(1.0011959 -0.0051347723 0)
(1.0013404 -0.005395696 0)
(1.001602 -0.0056912283 0)
(1.0017824 -0.0065402566 0)
(1.0020293 -0.0071879541 0)
(1.0023533 -0.0084742481 0)
(1.0028925 -0.0094923023 0)
(1.0036649 -0.010775905 0)
(1.0047115 -0.011655248 0)
(1.0059119 -0.01232812 0)
(1.0072339 -0.012655457 0)
(1.0085684 -0.012689556 0)
(1.0098538 -0.012426057 0)
(1.0109879 -0.011887903 0)
(1.0119731 -0.011142621 0)
(1.0127456 -0.010220342 0)
(1.0133348 -0.0091723087 0)
(1.0136953 -0.0080346815 0)
(1.0138691 -0.0068517585 0)
(1.0138434 -0.0056686367 0)
(1.0136694 -0.004524395 0)
(1.0133799 -0.0034569496 0)
(1.0130348 -0.0024910407 0)
(1.0126996 -0.0016396747 0)
(1.0124468 -0.00090483935 0)
(1.0123537 -0.00027562258 0)
(0.99879143 -0.0040208495 -2.2741133e-24)
(1.0007622 -0.0044489872 -1.6324106e-24)
(1.0004834 -0.0048638981 0)
(1.0001192 -0.004659663 0)
(1.0011171 -0.0051130349 0)
(1.0009614 -0.0050312295 0)
(1.0012995 -0.0053992131 0)
(1.0013955 -0.0058503689 0)
(1.001611 -0.0063069823 0)
(1.0017554 -0.0074327373 0)
(1.0020379 -0.0082765065 0)
(1.0024735 -0.0097705702 0)
(1.0032096 -0.010869275 0)
(1.004209 -0.012093097 0)
(1.0054413 -0.012804387 0)
(1.0068174 -0.013339862 0)
(1.0082583 -0.013496239 0)
(1.0096638 -0.013348076 0)
(1.0109302 -0.012891906 0)
(1.0120493 -0.012207557 0)
(1.0129564 -0.011324997 0)
(1.0136768 -0.010297212 0)
(1.0141613 -0.0091573656 0)
(1.0144492 -0.007948636 0)
(1.0145124 -0.0067158512 0)
(1.0143995 -0.0054998511 0)
(1.0141275 -0.0043457705 0)
(1.0137533 -0.0032849268 0)
(1.0133338 -0.0023409274 0)
(1.0129373 -0.0015230958 0)
(1.0126371 -0.00083037509 0)
(1.0125103 -0.00024968721 0)
(0.99873955 -0.0038118295 2.2830797e-24)
(0.99877118 -0.004762433 4.7471026e-24)
(1.0012353 -0.0046097206 0)
(1.0009171 -0.0050766481 0)
(1.0003729 -0.0047987839 0)
(1.0012608 -0.0053136609 0)
(1.001057 -0.0053100077 0)
(1.0013412 -0.0057921283 0)
(1.0013579 -0.0064725044 0)
(1.0015324 -0.0071491612 0)
(1.0016834 -0.0085329652 0)
(1.0020762 -0.0095979468 0)
(1.0027046 -0.011218041 0)
(1.0036878 -0.012280526 0)
(1.0049045 -0.013349622 0)
(1.0063478 -0.013945562 0)
(1.0078795 -0.014299154 0)
(1.009409 -0.014256503 0)
(1.0108095 -0.013894774 0)
(1.0120654 -0.013276397 0)
(1.0131098 -0.012440424 0)
(1.0139642 -0.01144156 0)
(1.0145807 -0.010310963 0)
(1.0149947 -0.0090896971 0)
(1.0151678 -0.0078190693 0)
(1.0151441 -0.0065403972 0)
(1.0149229 -0.0053034815 0)
(1.0145598 -0.0041446371 0)
(1.0140993 -0.0030978837 0)
(1.0136067 -0.0021813369 0)
(1.0131508 -0.0014012563 0)
(1.0128052 -0.00075354702 0)
(1.0126463 -0.00022317174 0)
(1.0001628 -0.0039287532 0)
(0.99877429 -0.0045813028 -4.7548728e-24)
(0.99886839 -0.0049663038 0)
(1.0015569 -0.0048015953 0)
(1.0012653 -0.005236998 0)
(1.0005668 -0.0049720224 0)
(1.0013455 -0.0055648481 0)
(1.001077 -0.0057119487 0)
(1.0012732 -0.0063453602 0)
(1.0012144 -0.0073228861 0)
(1.0013935 -0.0082172104 0)
(1.0016234 -0.009890132 0)
(1.0022171 -0.011100854 0)
(1.0031028 -0.012725785 0)
(1.0043398 -0.013655395 0)
(1.0058055 -0.014619682 0)
(1.0074433 -0.015042824 0)
(1.0090872 -0.015166415 0)
(1.0106277 -0.014891988 0)
(1.0120231 -0.014348162 0)
(1.0132064 -0.013562523 0)
(1.0141953 -0.012598987 0)
(1.0149465 -0.011487737 0)
(1.0154936 -0.01026723 0)
(1.0157922 -0.0089728318 0)
(1.0158802 -0.0076440861 0)
(1.0157398 -0.0063325943 0)
(1.0154239 -0.0050779613 0)
(1.0149622 -0.003924355 0)
(1.0144175 -0.0028975943 0)
(1.0138536 -0.0020137166 0)
(1.0133406 -0.0012751616 0)
(1.0129519 -0.0006749308 0)
(1.0127628 -0.00019626445 0)
(0.99954913 -0.0038595674 -1.020525e-24)
(1.0002376 -0.0047168379 0)
(0.99894512 -0.0047537197 -7.4103944e-24)
(0.99909097 -0.0051577698 0)
(1.0018469 -0.0049352502 0)
(1.0015411 -0.0054480489 0)
(1.0006968 -0.0052018842 0)
(1.0013676 -0.0059243901 0)
(1.0009711 -0.0062670202 0)
(1.0010822 -0.0071185295 0)
(1.0009908 -0.0084125882 0)
(1.0012474 -0.0095651485 0)
(1.0016526 -0.011464854 0)
(1.00253 -0.012688682 0)
(1.0036978 -0.014228427 0)
(1.005227 -0.015070349 0)
(1.0069302 -0.015851966 0)
(1.0087076 -0.016034632 0)
(1.0103844 -0.015896049 0)
(1.0119251 -0.01541918 0)
(1.0132488 -0.014688925 0)
(1.014371 -0.013763703 0)
(1.0152563 -0.012679589 0)
(1.0159386 -0.011471979 0)
(1.0163721 -0.010168887 0)
(1.0165878 -0.0088056409 0)
(1.0165539 -0.007431837 0)
(1.0163174 -0.006088892 0)
(1.0158909 -0.0048296371 0)
(1.0153363 -0.0036860604 0)
(1.014708 -0.0026859064 0)
(1.0140751 -0.0018394539 0)
(1.0135076 -0.0011457603 0)
(1.0130782 -0.00059507372 0)
(1.0128608 -0.00016915656 0)
(0.99997952 -0.0038387483 8.8862393e-24)
(0.99972295 -0.0047392431 1.0841632e-23)
(1.0004167 -0.0049059252 7.4060105e-24)
(0.99908979 -0.0049552643 1.0110045e-23)
(0.99932436 -0.0052988996 1.3666142e-23)
(1.0021265 -0.0050516493 0)
(1.0017245 -0.0057000133 0)
(1.0007265 -0.0055270203 0)
(1.0012414 -0.0064139446 0)
(1.0007229 -0.0070527319 0)
(1.0007937 -0.0081387056 0)
(1.0007336 -0.0098023527 0)
(1.0011765 -0.011161816 0)
(1.0018564 -0.01316475 0)
(1.0030621 -0.014301017 0)
(1.0045593 -0.015800983 0)
(1.0063761 -0.016462563 0)
(1.0082538 -0.016966062 0)
(1.0100876 -0.016873251 0)
(1.0117735 -0.016499567 0)
(1.0132413 -0.015815913 0)
(1.0144952 -0.014931542 0)
(1.0155114 -0.01387872 0)
(1.0163262 -0.012693893 0)
(1.0168972 -0.011396947 0)
(1.0172507 -0.010016538 0)
(1.0173441 -0.0085961652 0)
(1.0172147 -0.0071772198 0)
(1.0168573 -0.0058183122 0)
(1.0163318 -0.0045565947 0)
(1.0156803 -0.0034326602 0)
(1.0149709 -0.0024645422 0)
(1.0142717 -0.0016598886 0)
(1.0136527 -0.0010139476 0)
(1.0131852 -0.00051447991 0)
(1.0129414 -0.00014201048 0)
(1.0042572 -0.0041065904 -1.3548673e-23)
(1.0013708 -0.0048696959 -1.7622559e-23)
(1.0001836 -0.004902059 0)
(1.000558 -0.0051252495 -3.3387037e-23)
(0.99915255 -0.0050556029 -1.3599639e-23)
(0.99949633 -0.0054669205 -2.2655235e-23)
(1.0023167 -0.0052358964 -1.1907783e-23)
(1.0017733 -0.0060459641 0)
(1.0005995 -0.0059788118 0)
(1.0009207 -0.0071133648 0)
(1.0003542 -0.0080980219 0)
(1.0004504 -0.0094754349 0)
(1.0005276 -0.011482 0)
(1.0012823 -0.012913058 0)
(1.0023024 -0.014935821 0)
(1.0038922 -0.016012432 0)
(1.0057242 -0.017360311 0)
(1.0077594 -0.01773032 0)
(1.0097252 -0.017911802 0)
(1.0115758 -0.017562579 0)
(1.0131877 -0.016950984 0)
(1.0145738 -0.016097809 0)
(1.0157162 -0.015078549 0)
(1.0166569 -0.013922676 0)
(1.0173625 -0.012645187 0)
(1.0178576 -0.011265422 0)
(1.018092 -0.0098172721 0)
(1.0180914 -0.0083391699 0)
(1.0178343 -0.0068913543 0)
(1.0173743 -0.0055158538 0)
(1.016738 -0.004265588 0)
(1.015995 -0.0031655527 0)
(1.0152068 -0.0022352356 0)
(1.0144444 -0.0014762928 0)
(1.0137769 -0.00088057325 0)
(1.013274 -0.00043360166 0)
(1.0130058 -0.00011494311 0)
(1.000642 -0.0039427106 -1.652499e-24)
(1.0048625 -0.0052451221 3.5083381e-24)
(1.0022694 -0.005010995 -5.6433212e-24)
(1.0006778 -0.005092702 1.1802293e-23)
(1.0006579 -0.0052574835 2.4178005e-23)
(0.99930669 -0.0052026911 -1.8067269e-23)
(0.99959328 -0.0056319435 -7.5204495e-23)
(1.0023681 -0.0054679764 1.5285216e-23)
(1.0016397 -0.00649 0)
(1.0002904 -0.0066846501 0)
(1.0004896 -0.0080733806 0)
(0.99990098 -0.0094802541 0)
(1.0001413 -0.011129442 0)
(1.0004939 -0.013370281 0)
(1.0016513 -0.014767729 0)
(1.0030803 -0.016852475 0)
(1.0050695 -0.017731224 0)
(1.0071667 -0.018780467 0)
(1.0093274 -0.018815369 0)
(1.0113257 -0.018683798 0)
(1.0130978 -0.01807309 0)
(1.0146136 -0.017267375 0)
(1.0158784 -0.016272316 0)
(1.0169349 -0.015148644 0)
(1.0177667 -0.013900887 0)
(1.0184006 -0.01253901 0)
(1.0187826 -0.01108369 0)
(1.0189272 -0.0095668573 0)
(1.0187976 -0.0080456874 0)
(1.0184358 -0.0065663181 0)
(1.0178522 -0.005191924 0)
(1.017116 -0.0039543176 0)
(1.0162798 -0.002887504 0)
(1.0154161 -0.0019996148 0)
(1.0145939 -0.0012898798 0)
(1.0138811 -0.0007464385 0)
(1.0133456 -0.00035284997 0)
(1.013055 -8.8048674e-05 0)
(0.97871951 -0.003154963 7.4928085e-24)
(0.99699854 -0.0050610372 -1.5055163e-24)
(1.004852 -0.0052551734 0)
(1.0030781 -0.0052647662 9.1655906e-24)
(1.0010777 -0.005154138 1.5645675e-24)
(1.0005899 -0.0054003908 0)
(0.99937718 -0.0053543719 4.7534309e-23)
(0.99952104 -0.0058332917 6.4281408e-23)
(1.0020697 -0.0058017233 0)
(1.0013144 -0.0070939881 0)
(0.99981889 -0.0076545892 0)
(0.99993937 -0.0093822191 0)
(0.99944834 -0.011233374 0)
(1.0000041 -0.013022789 0)
(1.0007442 -0.015421971 0)
(1.0023829 -0.016793301 0)
(1.0042542 -0.01880233 0)
(1.006572 -0.019316211 0)
(1.0088384 -0.019992243 0)
(1.0110487 -0.01969542 0)
(1.0129701 -0.019246153 0)
(1.0146266 -0.018422163 0)
(1.0160069 -0.017461055 0)
(1.0171673 -0.016361889 0)
(1.0181128 -0.015151226 0)
(1.0188763 -0.01382243 0)
(1.0194055 -0.012381251 0)
(1.019705 -0.010848737 0)
(1.0197238 -0.0092749048 0)
(1.0194886 -0.0077073735 0)
(1.0189941 -0.0062158116 0)
(1.0183038 -0.0048403581 0)
(1.0174591 -0.0036300088 0)
(1.0165358 -0.0025997731 0)
(1.0155997 -0.0017593037 0)
(1.0147213 -0.0011017791 0)
(1.0139667 -0.00061227809 0)
(1.0134012 -0.00027261178 0)
(1.0130902 -6.1441245e-05 0)
(0.92257587 -0.0013842459 0)
(0.96597741 -0.004137769 0)
(0.99433496 -0.0048533396 1.5542173e-24)
(1.004427 -0.0054466679 0)
(1.0038619 -0.0053502661 3.5768149e-26)
(1.001401 -0.0052380988 -1.8175725e-23)
(1.0003886 -0.0054859633 -1.0099979e-22)
(0.99927228 -0.0055698278 -1.0527403e-22)
(0.99931313 -0.006073565 0)
(1.0014681 -0.0064445251 0)
(1.0007883 -0.007986587 0)
(0.99922387 -0.0089695269 0)
(0.99936965 -0.011068213 0)
(0.99915188 -0.013294165 0)
(1.0001694 -0.015116657 0)
(1.0013914 -0.017712589 0)
(1.0035536 -0.018868095 0)
(1.0058116 -0.020610881 0)
(1.0083529 -0.020691338 0)
(1.0106988 -0.020962404 0)
(1.0128291 -0.020326388 0)
(1.0146163 -0.019615758 0)
(1.0161136 -0.018627082 0)
(1.0173631 -0.017559258 0)
(1.0184078 -0.016383088 0)
(1.0192855 -0.01510011 0)
(1.0199541 -0.013693513 0)
(1.0204109 -0.01217034 0)
(1.0205922 -0.010568512 0)
(1.0205084 -0.0089335366 0)
(1.0201367 -0.0073374937 0)
(1.0195294 -0.0058297407 0)
(1.0187156 -0.0044728571 0)
(1.017773 -0.0032898917 0)
(1.0167627 -0.002305103 0)
(1.0157585 -0.0015158083 0)
(1.0148277 -0.00091304282 0)
(1.0140346 -0.00047874533 0)
(1.013442 -0.00019325481 0)
(1.0131125 -3.5278208e-05 0)
(0.90084668 -0.0014512196 1.9996152e-25)
(0.92297476 0.001407161 0)
(0.95818935 -0.0035696875 4.4870335e-24)
(0.98963113 -0.0049397543 5.0124834e-24)
(1.0034915 -0.0054349266 1.9627324e-24)
(1.0043526 -0.0054573579 -5.1381686e-24)
(1.0016149 -0.0053544771 -2.9161209e-25)
(1.0000818 -0.0055967257 -1.2700589e-23)
(0.99908066 -0.0058365063 1.4085287e-22)
(0.99883215 -0.0065452122 0)
(1.0008363 -0.0073181237 2.5330646e-22)
(1.0000757 -0.0092828028 0)
(0.99857806 -0.010747635 0)
(0.99895057 -0.0130895 0)
(0.99917314 -0.015624462 0)
(1.0007599 -0.017466737 0)
(1.0025323 -0.020106671 0)
(1.0051589 -0.020810241 0)
(1.007711 -0.022171135 0)
(1.0103641 -0.021801011 0)
(1.0126395 -0.021639322 0)
(1.0146049 -0.020722984 0)
(1.0162049 -0.019814221 0)
(1.0175391 -0.018721918 0)
(1.0186624 -0.017588332 0)
(1.0196327 -0.016355745 0)
(1.0204261 -0.015002736 0)
(1.0210349 -0.013514298 0)
(1.021386 -0.011912448 0)
(1.0214723 -0.010235565 0)
(1.0212526 -0.008554375 0)
(1.0207634 -0.0069258644 0)
(1.0200205 -0.0054237719 0)
(1.0190987 -0.0040823171 0)
(1.0180527 -0.0029415568 0)
(1.0169619 -0.002004558 0)
(1.0158934 -0.0012706184 0)
(1.0149143 -0.0007246487 0)
(1.0140861 -0.00034642204 0)
(1.013469 -0.00011511716 0)
(1.0131228 -9.7752644e-06 0)
(0.89277071 -0.0011778016 -4.0926162e-24)
(0.90103725 0.0012181171 0)
(0.97894181 0.0032042297 7.3195047e-24)
(0.94826182 -0.0034745103 -5.0137201e-24)
(0.98489894 -0.0046668872 -8.8588092e-25)
(1.0016849 -0.0054012109 -3.4311174e-23)
(1.004433 -0.0054946452 6.6667608e-23)
(1.0016045 -0.0054953766 3.1024808e-23)
(0.99974993 -0.0057863639 1.0963122e-22)
(0.99873477 -0.0063079972 4.8456102e-23)
(0.99822988 -0.0073354573 2.5369435e-22)
(1.0000813 -0.0085184001 -2.6402538e-22)
(0.99929504 -0.011006616 0)
(0.99807082 -0.012945089 0)
(0.99886548 -0.015429022 0)
(0.99965178 -0.018303874 0)
(1.0018782 -0.019923165 0)
(1.0041839 -0.022387583 0)
(1.0071648 -0.022517889 0)
(1.0098989 -0.023398212 0)
(1.0124761 -0.02256416 0)
(1.014569 -0.022033341 0)
(1.016304 -0.020911636 0)
(1.0177038 -0.019884991 0)
(1.0188896 -0.018745547 0)
(1.0199264 -0.017575804 0)
(1.0208231 -0.016289941 0)
(1.0215711 -0.014861356 0)
(1.0220912 -0.013289221 0)
(1.0223598 -0.011600493 0)
(1.0223162 -0.009859332 0)
(1.0219783 -0.0081274586 0)
(1.0213455 -0.0064874637 0)
(1.0204843 -0.0049868392 0)
(1.0194422 -0.0036813371 0)
(1.0183033 -0.0025818756 0)
(1.0171336 -0.0017009183 0)
(1.0160056 -0.0010251599 0)
(1.0149823 -0.0005375347 0)
(1.0141224 -0.0002158601 0)
(1.0134835 -3.8507966e-05 0)
(1.0131224 1.4608198e-05 0)
(0.88145465 -0.0011194448 -1.4042212e-24)
(0.89249523 0.00067148628 -5.0912476e-24)
(0.96587649 0.0040242866 0)
(1.0006235 0.0040234594 -1.654346e-24)
(0.93984581 -0.0030110457 1.0889192e-24)
(0.9788281 -0.0043604018 1.7371855e-23)
(0.99907447 -0.0053092523 0)
(1.0042571 -0.00554017 -3.079156e-23)
(1.0013604 -0.0056510499 4.7193472e-23)
(0.99926741 -0.006135739 -4.7838416e-23)
(0.99808588 -0.0070561388 -2.5618219e-22)
(0.99755274 -0.0084463978 -2.63908e-22)
(0.99906203 -0.010268392 0)
(0.99863057 -0.013139495 0)
(0.99788878 -0.015506862 0)
(0.99926719 -0.018109515 0)
(1.0007206 -0.021178798 0)
(1.0035519 -0.022276867 0)
(1.006337 -0.024408035 0)
(1.0095247 -0.023901847 0)
(1.0122253 -0.024202327 0)
(1.0145681 -0.022982693 0)
(1.016399 -0.022176021 0)
(1.01788 -0.020945609 0)
(1.0190971 -0.019881334 0)
(1.020178 -0.018736852 0)
(1.0211503 -0.017537831 0)
(1.0220172 -0.016190562 0)
(1.0226978 -0.014678945 0)
(1.0231534 -0.013011533 0)
(1.0233041 -0.011241193 0)
(1.0231466 -0.0094298697 0)
(1.0226608 -0.0076662885 0)
(1.0219002 -0.0060113975 0)
(1.0209035 -0.0045356862 0)
(1.0197555 -0.0032622877 0)
(1.0185211 -0.002218664 0)
(1.0172796 -0.0013948955 0)
(1.0160962 -0.00078046266 0)
(1.0150327 -0.00035260858 0)
(1.0141446 -8.7641025e-05 0)
(1.0134863 3.6162607e-05 0)
(1.0131127 3.8401377e-05 0)
(0.87438592 -0.00083438812 1.8505972e-24)
(0.88047757 0.0003728957 1.4030648e-24)
(0.95748912 0.0032728755 4.4761076e-24)
(0.99700049 0.0050204101 1.504498e-24)
(1.0043652 0.0041496133 -1.5436645e-23)
(0.93110578 -0.0025388776 -1.7573524e-23)
(0.97245189 -0.0040040453 -1.2242145e-23)
(0.99559268 -0.0051828401 0)
(1.0035497 -0.0056127042 -4.7156377e-23)
(1.0008095 -0.0059370792 1.742684e-23)
(0.99841398 -0.006758013 0)
(0.99722581 -0.0081016461 3.022454e-22)
(0.99666586 -0.0099677005 0)
(0.99799956 -0.012562278 0)
(0.99829585 -0.015651946 0)
(0.99789372 -0.018560047 0)
(1.0002672 -0.020964686 0)
(1.0024493 -0.023997825 0)
(1.0057877 -0.024383846 0)
(1.0089515 -0.025993949 0)
(1.0120548 -0.024816795 0)
(1.0145272 -0.024595341 0)
(1.0165398 -0.023098481 0)
(1.0180655 -0.022134101 0)
(1.0193111 -0.020897065 0)
(1.0203991 -0.019856057 0)
(1.0214199 -0.018721474 0)
(1.0223752 -0.017481354 0)
(1.0231995 -0.016059464 0)
(1.0238387 -0.014448922 0)
(1.024195 -0.012684693 0)
(1.0242421 -0.010824341 0)
(1.0239376 -0.0089584841 0)
(1.0233177 -0.007160148 0)
(1.0224088 -0.0055139801 0)
(1.0212919 -0.0040590277 0)
(1.0200304 -0.0028382761 0)
(1.0187107 -0.0018484436 0)
(1.0174002 -0.0010892169 0)
(1.0161665 -0.00053765903 0)
(1.0150669 -0.00017054207 0)
(1.0141539 3.7721503e-05 0)
(1.0134786 0.00010914156 0)
(1.0130935 6.2866854e-05 0)
(0.86783966 -0.00046395398 -1.083564e-24)
(0.87274398 9.5141488e-05 -1.8554076e-24)
(0.94647118 0.0029885988 -4.9868501e-24)
(0.99415105 0.0047007972 -1.5531944e-24)
(1.0049524 0.0051438065 5.9954407e-24)
(1.0001061 0.003916264 8.6103664e-24)
(0.92288054 -0.0019834325 2.6190412e-23)
(0.96523867 -0.0036733764 1.5841244e-23)
(0.99151705 -0.0050178407 4.8124348e-23)
(1.0021626 -0.0057993398 -1.7911924e-23)
(0.99992107 -0.0064272518 2.1040645e-22)
(0.99725293 -0.0077081944 -1.0855437e-22)
(0.99614694 -0.009639926 0)
(0.99571366 -0.012020814 3.7263117e-22)
(0.99725641 -0.015323627 -9.4629031e-22)
(0.99846078 -0.018663596 0)
(0.99878729 -0.021937265 0)
(1.0019458 -0.023814621 0)
(1.0049006 -0.026585195 0)
(1.0085548 -0.02608594 0)