/*--------------------------------*- C++ -*----------------------------------*\
| =========                 |                                                 |
| \\      /  F ield         | OpenFOAM: The Open Source CFD Toolbox           |
|  \\    /   O peration     | Version:  5.0                                   |
|   \\  /    A nd           | Web:      www.OpenFOAM.org                      |
|    \\/     M anipulation  |                                                 |
\*---------------------------------------------------------------------------*/
FoamFile
{
    version     2.0;
    format      ascii;
    class       volVectorField;
    location    "40";
    object      U_0;
}
// * * * * * * * * * * * * * * * * * * * * * * * * * * * * * * * * * * * * * //

dimensions      [0 1 -1 0 0 0 0];

internalField   nonuniform List<vector> 
9520
(
(1.0014626 -0.00019604482 0)
(1.0014598 -0.00057381685 0)
(1.0020475 -0.00020088119 0)
(1.0014543 -0.00092276008 0)
(1.0020401 -0.00058875994 0)
(1.0022851 -0.00020195541 0)
(1.0014452 -0.0012429523 0)
(1.0020262 -0.00094836157 0)
(1.0022769 -0.00059274698 0)
(1.0026673 -0.00020247158 0)
(1.0014321 -0.0015351644 0)
(1.0020055 -0.0012807153 0)
(1.0022616 -0.00095623653 0)
(1.0026588 -0.00059608438 0)
(1.0029585 -0.00020072994 0)
(1.0014142 -0.001800098 0)
(1.0019782 -0.0015866833 0)
(1.0022391 -0.00129389 0)
(1.0026425 -0.00096525342 0)
(1.0029518 -0.00059326978 0)
(1.0032768 -0.00020168551 0)
(1.0013915 -0.0020393432 0)
(1.0019438 -0.0018675015 0)
(1.0022096 -0.0016065123 0)
(1.0026182 -0.0013121191 0)
(1.0029379 -0.00096557926 0)
(1.0032763 -0.00059844373 0)
(1.0035675 -0.00020987226 0)
(1.0013634 -0.0022539196 0)
(1.0019026 -0.0021244212 0)
(1.0021728 -0.0018955962 0)
(1.0025862 -0.0016369521 0)
(1.0029155 -0.0013203966 0)
(1.0032714 -0.00097921894 0)
(1.0035734 -0.00062346875 0)
(1.0038822 -0.00022937294 0)
(1.0013303 -0.0024463304 0)
(1.0018547 -0.0023585999 0)
(1.0021288 -0.0021621338 0)
(1.002546 -0.0019410412 0)
(1.0028851 -0.0016570823 0)
(1.0032587 -0.0013476849 0)
(1.0035779 -0.0010221182 0)
(1.0038965 -0.00068039962 0)
(1.0042054 -0.00025907302 0)
(1.0012921 -0.0026165491 0)
(1.0018007 -0.0025720425 0)
(1.0020778 -0.0024071483 0)
(1.0024976 -0.0022247919 0)
(1.0028458 -0.0019759484 0)
(1.003237 -0.0017027624 0)
(1.0035756 -0.0014103521 0)
(1.0039142 -0.0011141235 0)
(1.004225 -0.00076633112 0)
(1.0045746 -0.00029765127 0)
(1.0012495 -0.0027703497 0)
(1.0017415 -0.002764812 0)
(1.0020205 -0.0026322395 0)
(1.0024411 -0.0024885895 0)
(1.0027972 -0.002276642 0)
(1.003205 -0.0020435024 0)
(1.0035632 -0.0017879035 0)
(1.0039274 -0.0015359272 0)
(1.0042517 -0.0012512272 0)
(1.0046005 -0.00087890038 0)
(1.0049714 -0.00033815632 0)
(1.0012029 -0.0029016187 0)
(1.0016776 -0.0029416727 0)
(1.0019578 -0.0028372836 0)
(1.0023769 -0.0027331314 0)
(1.0027396 -0.0025586242 0)
(1.0031616 -0.0023685085 0)
(1.0035389 -0.0021532382 0)
(1.0039303 -0.0019475918 0)
(1.0042775 -0.0017197156 0)
(1.0046376 -0.0014329271 0)
(1.0050016 -0.00099750306 0)
(1.0054138 -0.00037686251 0)
(1.0011531 -0.0030278829 0)
(1.0016109 -0.003097107 0)
(1.0018903 -0.0030262459 0)
(1.0023059 -0.0029577531 0)
(1.0026729 -0.002821646 0)
(1.003106 -0.002675893 0)
(1.0035007 -0.0025042964 0)
(1.0039195 -0.0023481255 0)
(1.0042947 -0.0021757496 0)
(1.0046773 -0.0019658172 0)
(1.0050469 -0.0016254309 0)
(1.0054507 -0.0011118071 0)
(1.0058728 -0.00040784854 0)
(1.0011005 -0.003121808 0)
(1.0015407 -0.0032466869 0)
(1.0018195 -0.0031936924 0)
(1.0022285 -0.0031651132 0)
(1.0025978 -0.0030645453 0)
(1.0030379 -0.0029642869 0)
(1.0034476 -0.0028385116 0)
(1.0038919 -0.0027353136 0)
(1.0042975 -0.0026195333 0)
(1.0047106 -0.0024822465 0)
(1.0050983 -0.0022287774 0)
(1.0055077 -0.0018131129 0)
(1.0059155 -0.001203638 0)
(1.0063555 -0.00043122702 0)
(1.0010458 -0.0032353288 0)
(1.00147 -0.0033647407 0)
(1.001745 -0.0033540451 0)
(1.0021466 -0.0033502307 0)
(1.0025148 -0.0032891238 0)
(1.0029581 -0.0032319257 0)
(1.0033794 -0.0031537863 0)
(1.0038455 -0.0031061175 0)
(1.0042814 -0.0030492864 0)
(1.0047293 -0.0029835714 0)
(1.0051459 -0.0028121062 0)
(1.0055742 -0.0024889325 0)
(1.0059839 -0.0019645522 0)
(1.0064068 -0.0012740303 0)
(1.0068333 -0.00044678751 0)
(1.0009886 -0.0032870336 0)
(1.0013953 -0.0035004497 0)
(1.0016691 -0.0034822451 0)
(1.0020596 -0.0035256365 0)
(1.0024255 -0.0034908858 0)
(1.0028673 -0.0034795924 0)
(1.0032965 -0.0034478836 0)
(1.0037798 -0.003457716 0)
(1.0042433 -0.0034621867 0)
(1.0047271 -0.0034688424 0)
(1.0051796 -0.003377519 0)
(1.0056389 -0.0031432632 0)
(1.0060662 -0.0027007455 0)
(1.0064913 -0.0020828463 0)
(1.0068928 -0.001321572 0)
(1.007316 -0.00045722807 0)
(1.0009299 -0.003405359 0)
(1.0013224 -0.0035745727 0)
(1.0015895 -0.0036266756 0)
(1.001971 -0.0036685783 0)
(1.00233 -0.0036809328 0)
(1.0027679 -0.0037032998 0)
(1.0032002 -0.0037206358 0)
(1.0036952 -0.0037871462 0)
(1.0041817 -0.0038551485 0)
(1.0046995 -0.0039357725 0)
(1.0051915 -0.0039248973 0)
(1.0056907 -0.0037785256 0)
(1.0061497 -0.0034167619 0)
(1.0065946 -0.0028694296 0)
(1.0069934 -0.0021641819 0)
(1.0073871 -0.0013543377 0)
(1.0077825 -0.00046340193 0)
(1.0008663 -0.0034073229 0)
(1.0012435 -0.0037149292 0)
(1.0015109 -0.0037085942 0)
(1.0018783 -0.0038249916 0)
(1.0022324 -0.0038385275 0)
(1.0026607 -0.0039122566 0)
(1.0030932 -0.0039682248 0)
(1.0035929 -0.0040928127 0)
(1.0040961 -0.0042245737 0)
(1.0046434 -0.004381272 0)
(1.0051756 -0.0044526673 0)
(1.0057201 -0.0043952365 0)
(1.0062222 -0.0041152419 0)
(1.0067018 -0.0036390698 0)
(1.0071189 -0.0029878774 0)
(1.0075088 -0.0022222501 0)
(1.0078648 -0.0013742268 0)
(1.0082429 -0.00046643078 0)
(1.0008029 -0.0035434282 0)
(1.0011668 -0.0037355322 0)
(1.0014279 -0.0038569423 0)
(1.0017883 -0.0039186608 0)
(1.0021306 -0.0040068176 0)
(1.0025509 -0.0040880042 0)
(1.0029764 -0.0041975661 0)
(1.0034748 -0.0043704679 0)
(1.0039868 -0.0045676084 0)
(1.0045572 -0.0048016575 0)
(1.0051276 -0.0049583624 0)
(1.0057197 -0.0049922577 0)
(1.0062726 -0.0047970805 0)
(1.0067992 -0.0043943557 0)
(1.0072527 -0.003799452 0)
(1.0076623 -0.0030755115 0)
(1.0080071 -0.0022588431 0)
(1.0083391 -0.0013847452 0)
(1.0086846 -0.00046642573 0)
(1.0007259 -0.0034977277 0)
(1.0010841 -0.0038973174 0)
(1.0013474 -0.0038828442 0)
(1.0016939 -0.004077702 0)
(1.0020322 -0.0041123409 0)
(1.002436 -0.0042693616 0)
(1.0028541 -0.0043916509 0)
(1.0033411 -0.0046241513 0)
(1.0038549 -0.0048798311 0)
(1.0044407 -0.0051939339 0)
(1.0050453 -0.0054390827 0)
(1.0056844 -0.0055674767 0)
(1.0062921 -0.0054610713 0)
(1.0068756 -0.0051367822 0)
(1.0073806 -0.0046021344 0)
(1.0078287 -0.0039220575 0)
(1.0081892 -0.0031330528 0)
(1.0085063 -0.0022802179 0)
(1.0087939 -0.0013860597 0)
(1.0091117 -0.00046357147 0)
(1.0006581 -0.0036448863 0)
(1.0009969 -0.0038643879 0)
(1.0012638 -0.0040546408 0)
(1.0016053 -0.0041103214 0)
(1.0019295 -0.0042806506 0)
(1.0023242 -0.0043869876 0)
(1.0027232 -0.0045845531 0)
(1.003196 -0.0048390123 0)
(1.0037016 -0.005163805 0)
(1.0042961 -0.0055545355 0)
(1.0049283 -0.0058920842 0)
(1.0056104 -0.0061179389 0)
(1.0062737 -0.0061048178 0)
(1.0069203 -0.0058648704 0)
(1.0074886 -0.0053967288 0)
(1.0079918 -0.0047655299 0)
(1.0083904 -0.0040058482 0)
(1.0087221 -0.0031699209 0)
(1.0089852 -0.0022861242 0)
(1.009236 -0.0013788722 0)
(1.0095188 -0.00045788138 0)
(1.0005574 -0.0035849347 0)
(1.0009146 -0.0040452108 0)
(1.0011775 -0.0040236031 0)
(1.0015137 -0.0042938126 0)
(1.0018341 -0.0043194489 0)
(1.0022054 -0.0045612327 0)
(1.0025916 -0.0047117883 0)
(1.0030375 -0.0050446398 0)
(1.0035326 -0.0054080219 0)
(1.0041258 -0.0058853098 0)
(1.0047783 -0.0063138552 0)
(1.005496 -0.0066400726 0)
(1.0062124 -0.0067249648 0)
(1.0069253 -0.0065762122 0)
(1.0075646 -0.0061818319 0)
(1.0081369 -0.0056066429 0)
(1.0085927 -0.0048819959 0)
(1.0089637 -0.0040636672 0)
(1.0092342 -0.0031850532 0)
(1.0094546 -0.0022779174 0)
(1.0096578 -0.0013632419 0)
(1.0099059 -0.00044938368 0)
(1.0004829 -0.0036941184 0)
(1.0008062 -0.0039902655 0)
(1.0010987 -0.0042190267 0)
(1.0014231 -0.0042598666 0)
(1.0017341 -0.0045107777 0)
(1.0020932 -0.0046022269 0)
(1.0024489 -0.0048877488 0)
(1.0028757 -0.0051839322 0)
(1.0033481 -0.0056380196 0)
(1.0039357 -0.0061766909 0)
(1.0045964 -0.006703758 0)
(1.0053406 -0.0071294556 0)
(1.0061046 -0.0073177228 0)
(1.006884 -0.0072677096 0)
(1.0075995 -0.0069549128 0)
(1.0082508 -0.0064445475 0)
(1.00878 -0.0057622637 0)
(1.0092112 -0.0049673735 0)
(1.0095163 -0.0040934759 0)
(1.0097411 -0.0031806795 0)
(1.0099034 -0.0022556548 0)
(1.0100602 -0.0013392405 0)
(1.0102712 -0.00043820631 0)
(1.0003512 -0.0036921676 0)
(1.0007216 -0.0041421626 0)
(1.0009966 -0.0041608953 0)
(1.0013396 -0.0044708303 0)
(1.0016378 -0.0044732923 0)
(1.0019723 -0.0047946109 0)
(1.0023127 -0.0049295037 0)
(1.0027023 -0.0053646666 0)
(1.0031599 -0.0058041889 0)
(1.0037258 -0.0064478947 0)
(1.0043861 -0.007051746 0)
(1.0051439 -0.0075831334 0)
(1.0059489 -0.0078791857 0)
(1.0067923 -0.0079358084 0)
(1.0075859 -0.0077130566 0)
(1.0083235 -0.0072764615 0)
(1.0089375 -0.0066462433 0)
(1.0094467 -0.0058820882 0)
(1.0098102 -0.0050181866 0)
(1.0100694 -0.0040987787 0)
(1.0102263 -0.0031564332 0)
(1.0103339 -0.0022196434 0)
(1.0104408 -0.001307228 0)
(1.0106137 -0.0004244986 0)
(1.000212 -0.0036945416 0)
(1.0005889 -0.0041438677 0)
(1.0009175 -0.0043318854 0)
(1.001235 -0.0043953771 0)
(1.0015444 -0.0046937538 0)
(1.0018572 -0.0047460627 0)
(1.0021662 -0.0051197241 0)
(1.002538 -0.0054126301 0)
(1.0029591 -0.0060034131 0)
(1.0035064 -0.0066543893 0)
(1.0041466 -0.0073712748 0)
(1.0049084 -0.0079930021 0)
(1.0057451 -0.0084066227 0)
(1.0066471 -0.0085764355 0)
(1.0075186 -0.0084526273 0)
(1.0083465 -0.0080995128 0)
(1.0090541 -0.0075309432 0)
(1.0096549 -0.0068080645 0)
(1.0100973 -0.0059608656 0)
(1.0104159 -0.0050395921 0)
(1.0105993 -0.0040783109 0)
(1.0106968 -0.0031128102 0)
(1.0107427 -0.0021702999 0)
(1.0107988 -0.0012676486 0)
(1.0109327 -0.00040846069 0)
(1.0001165 -0.0038118845 0)
(1.0004438 -0.0041861703 0)
(1.0007997 -0.004327832 0)
(1.0011518 -0.0045879446 0)
(1.0014351 -0.0046012679 0)
(1.0017414 -0.0049691876 0)
(1.0020315 -0.0050638079 0)
(1.002364 -0.0056054121 0)
(1.0027667 -0.0060719791 0)
(1.0032674 -0.0068799339 0)
(1.003887 -0.0076228465 0)
(1.0046344 -0.0083687976 0)
(1.0054952 -0.0088939997 0)
(1.0064477 -0.0091865607 0)
(1.0073947 -0.009170291 0)
(1.0083134 -0.0089099117 0)
(1.0091206 -0.0084135115 0)
(1.0098238 -0.0077423884 0)
(1.0103606 -0.0069219193 0)
(1.0107607 -0.0060054165 0)
(1.0109977 -0.0050290585 0)
(1.0111193 -0.0040326178 0)
(1.0111446 -0.0030505598 0)
(1.0111291 -0.0021082453 0)
(1.0111331 -0.0012210703 0)
(1.0112279 -0.00039031701 0)
(0.99988659 -0.0036760052 0)
(1.0003596 -0.0043224152 0)
(1.0006644 -0.0043845392 0)
(1.0010375 -0.0045543531 0)
(1.0013397 -0.0048089337 0)
(1.0016166 -0.0048509251 0)
(1.001895 -0.0052907525 0)
(1.0022065 -0.0055466067 0)
(1.0025603 -0.0062740538 0)
(1.0030302 -0.0069732482 0)
(1.0035995 -0.0078805648 0)
(1.0043313 -0.0086788478 0)
(1.0051996 -0.0093477728 0)
(1.0061955 -0.0097612354 0)
(1.0072121 -0.0098624283 0)
(1.0082192 -0.0097036676 0)
(1.00913 -0.0092904628 0)
(1.0099435 -0.0086819356 0)
(1.0105867 -0.0078988412 0)
(1.0110854 -0.0069965065 0)
(1.0114001 -0.0060115623 0)
(1.0115752 -0.0049876142 0)
(1.011615 -0.0039626929 0)
(1.0115709 -0.0029703328 0)
(1.0114917 -0.0020344306 0)
(1.0114433 -0.0011681312 0)
(1.011499 -0.00037030171 0)
(1.0000666 -0.0039135273 0)
(1.0001152 -0.0042119026 0)
(1.0005987 -0.0045239787 0)
(1.0009016 -0.0046313051 0)
(1.0012284 -0.0047457997 0)
(1.0015017 -0.0050723174 0)
(1.0017578 -0.0051533888 0)
(1.0020435 -0.0057773003 0)
(1.0023706 -0.0062201052 0)
(1.002772 -0.0071830382 0)
(1.0033059 -0.0080064474 0)
(1.0039934 -0.0089870217 0)
(1.0048664 -0.0097421687 0)
(1.0058897 -0.010303143 0)
(1.0069692 -0.010523554 0)
(1.0080611 -0.010477134 0)
(1.009078 -0.010158565 0)
(1.0100068 -0.0096234177 0)
(1.0107656 -0.0088879675 0)
(1.0113756 -0.0080108636 0)
(1.0117878 -0.007025895 0)
(1.0120414 -0.0059811484 0)
(1.0121263 -0.0049161647 0)
(1.0120921 -0.0038689894 0)
(1.0119731 -0.0028733309 0)
(1.0118298 -0.0019498433 0)
(1.0117291 -0.001109514 0)
(1.0117462 -0.00034864766 0)
(0.99905408 -0.0036816492 0)
(1.0003535 -0.0044907341 0)
(1.0003804 -0.0044109769 0)
(1.0008437 -0.0047474587 0)
(1.0010813 -0.0048397194 0)
(1.0013844 -0.0049698667 0)
(1.0016254 -0.0053901578 0)
(1.0018869 -0.0056187183 0)
(1.0021677 -0.0064518569 0)
(1.0025281 -0.0071333119 0)
(1.0029858 -0.0082350494 0)
(1.0036417 -0.0091686174 0)
(1.0044895 -0.010128609 0)
(1.0055357 -0.010790842 0)
(1.0066648 -0.011154518 0)
(1.0078377 -0.011226524 0)
(1.0089613 -0.011014952 0)
(1.0100083 -0.010563304 0)
(1.0108896 -0.0098859003 0)
(1.0116206 -0.009044288 0)
(1.0121444 -0.0080702076 0)
(1.0124977 -0.007013387 0)
(1.0126545 -0.0059145455 0)
(1.0126635 -0.0048147232 0)
(1.012544 -0.0037534369 0)
(1.0123507 -0.0027607827 0)
(1.012143 -0.0018555845 0)
(1.0119906 -0.0010459147 0)
(1.0119699 -0.00032558882 0)
(0.9995668 -0.0039880969 0)
(0.99943005 -0.0042754111 0)
(1.000633 -0.0047084803 0)
(1.0006176 -0.0046303647 0)
(1.0010331 -0.00492455 0)
(1.0012221 -0.0050839583 0)
(1.0015035 -0.0052518322 0)
(1.0017267 -0.005867108 0)
(1.0019772 -0.0062748945 0)
(1.0022641 -0.0073608885 0)
(1.0026765 -0.0082044768 0)
(1.0032566 -0.0094417412 0)
(1.0040876 -0.010395372 0)
(1.005127 -0.01126506 0)
(1.0063025 -0.011738543 0)
(1.0075484 -0.011952357 0)
(1.0087789 -0.011856738 0)
(1.0099456 -0.011498838 0)
(1.0109538 -0.010888948 0)
(1.0118121 -0.010092647 0)
(1.0124586 -0.0091401788 0)
(1.0129268 -0.0080821972 0)
(1.0131784 -0.0069583049 0)
(1.0132592 -0.0058117629 0)
(1.0131726 -0.0046863209 0)
(1.0129714 -0.00361725 0)
(1.0127026 -0.0026342159 0)
(1.012431 -0.0017527733 0)
(1.012228 -0.00097802773 0)
(1.0121706 -0.00030135921 0)
(1.0003219 -0.0037574433 1.560235e-24)
(1.0000264 -0.0046425681 0)
(0.99977696 -0.0044648192 0)
(1.0009012 -0.0049366433 0)
(1.0008058 -0.0048127219 0)
(1.0011805 -0.0051323917 0)
(1.0013259 -0.0053903623 0)
(1.0015885 -0.0056817329 0)
(1.0017709 -0.0065235342 0)
(1.0020183 -0.0071635375 0)
(1.0023408 -0.0084430486 0)
(1.0028753 -0.009456663 0)
(1.0036408 -0.010741831 0)
(1.0046812 -0.011627942 0)
(1.005877 -0.012308548 0)
(1.007196 -0.01264282 0)
(1.0085298 -0.012684077 0)
(1.0098174 -0.012427235 0)
(1.0109554 -0.011893919 0)
(1.0119451 -0.011151684 0)
(1.0127222 -0.010230823 0)
(1.0133156 -0.0091830898 0)
(1.0136796 -0.0080449254 0)
(1.0138563 -0.0068610256 0)
(1.0138329 -0.0056766735 0)
(1.0136606 -0.0045311009 0)
(1.0133725 -0.0034623201 0)
(1.0130284 -0.0024951206 0)
(1.012694 -0.0016425282 0)
(1.0124417 -0.00090652612 0)
(1.012349 -0.00027617789 0)
(0.99878169 -0.004008055 -2.2671821e-24)
(1.0007368 -0.0044411398 -1.630289e-24)
(1.0004612 -0.0048591283 0)
(1.0001 -0.0046569286 0)
(1.0011012 -0.0051108609 0)
(1.0009457 -0.0050282077 0)
(1.0012845 -0.0053949775 0)
(1.0013826 -0.0058409254 0)
(1.0016002 -0.0062913579 0)
(1.0017462 -0.0074087513 0)
(1.0020271 -0.0082445862 0)
(1.0024582 -0.0097331102 0)
(1.0031868 -0.01083213 0)
(1.0041787 -0.012062273 0)
(1.005405 -0.012780924 0)
(1.0067764 -0.013323657 0)
(1.0082156 -0.013488166 0)
(1.0096229 -0.013348057 0)
(1.0108932 -0.012897955 0)
(1.0120173 -0.012217611 0)
(1.0129297 -0.011337106 0)
(1.0136549 -0.010309951 0)
(1.0141436 -0.0091696614 0)
(1.0144349 -0.0079599014 0)
(1.0145007 -0.0067257517 0)
(1.01439 -0.0055082592 0)
(1.0141195 -0.004352678 0)
(1.0137466 -0.0032903837 0)
(1.013328 -0.002345031 0)
(1.0129321 -0.0015259432 0)
(1.0126324 -0.00083204848 0)
(1.0125059 -0.00025023687 0)
(0.99873134 -0.0037976048 2.2761213e-24)
(0.99875873 -0.0047522611 4.736615e-24)
(1.0012129 -0.0046050108 0)
(1.0008956 -0.0050742035 0)
(1.000354 -0.0047963784 0)
(1.001245 -0.0053113505 0)
(1.0010419 -0.0053052678 0)
(1.0013284 -0.0057842197 0)
(1.0013483 -0.0064573605 0)
(1.0015245 -0.0071259828 0)
(1.0016749 -0.0085007548 0)
(1.002063 -0.0095586388 0)
(1.0026836 -0.011177884 0)
(1.003658 -0.012245863 0)
(1.004867 -0.013321785 0)
(1.0063037 -0.013924981 0)
(1.0078324 -0.01428794 0)
(1.0093631 -0.014254835 0)
(1.0107675 -0.013900603 0)
(1.0120288 -0.013287408 0)
(1.0130791 -0.012454307 0)
(1.0139393 -0.011456509 0)
(1.0145607 -0.010325603 0)
(1.0149787 -0.0091032677 0)
(1.0151549 -0.0078311136 0)
(1.0151337 -0.0065507589 0)
(1.0149143 -0.0053121354 0)
(1.0145526 -0.0041516473 0)
(1.0140931 -0.0031033674 0)
(1.0136013 -0.0021854279 0)
(1.013146 -0.0014040776 0)
(1.0128008 -0.00075519845 0)
(1.0126423 -0.00022371388 0)
(1.0001517 -0.0039159159 0)
(0.99876109 -0.0045730179 -4.7443681e-24)
(0.99885312 -0.0049617565 0)
(1.0015358 -0.0047986852 0)
(1.0012443 -0.0052346254 0)
(1.0005477 -0.0049694008 0)
(1.0013308 -0.0055612971 0)
(1.0010646 -0.0057041398 0)
(1.0012644 -0.0063321048 0)
(1.0012083 -0.0072999887 0)
(1.001387 -0.008184994 0)
(1.0016131 -0.0098493401 0)
(1.0021983 -0.011057738 0)
(1.0030742 -0.012686845 0)
(1.0043014 -0.01362273 0)
(1.0057585 -0.01459418 0)
(1.0073918 -0.015027659 0)
(1.0090358 -0.015162575 0)
(1.01058 -0.014897282 0)
(1.0119812 -0.014360066 0)
(1.0131714 -0.013578336 0)
(1.0141669 -0.012616431 0)
(1.0149238 -0.011505061 0)
(1.0154757 -0.010283447 0)
(1.015778 -0.0089873487 0)
(1.0158688 -0.0076566932 0)
(1.0157305 -0.0063432477 0)
(1.0154162 -0.0050867378 0)
(1.0149558 -0.0039313947 0)
(1.014412 -0.0029030546 0)
(1.0138487 -0.0020177661 0)
(1.0133362 -0.0012779417 0)
(1.0129479 -0.00067655268 0)
(1.0127591 -0.000196795 0)
(0.99953691 -0.0038440523 -1.017268e-24)
(1.0002262 -0.0047063925 0)
(0.99893287 -0.0047485375 -7.4087949e-24)
(0.99907242 -0.0051557277 0)
(1.0018261 -0.0049331165 0)
(1.0015203 -0.0054456663 0)
(1.0006789 -0.0051981763 0)
(1.0013542 -0.0059180686 0)
(1.0009631 -0.0062538488 0)
(1.0010774 -0.0070974686 0)
(1.000987 -0.0083801233 0)
(1.0012397 -0.0095232131 0)
(1.001637 -0.011418642 0)
(1.0025027 -0.012645686 0)
(1.0036591 -0.014190017 0)
(1.0051774 -0.015039249 0)
(1.006874 -0.015832312 0)
(1.0086504 -0.016027908 0)
(1.0103304 -0.015900406 0)
(1.0118773 -0.015431883 0)
(1.0132087 -0.014706818 0)
(1.0143386 -0.013783957 0)
(1.0152306 -0.012699988 0)
(1.0159185 -0.011491243 0)
(1.0163563 -0.010186255 0)
(1.0165754 -0.0088208366 0)
(1.016544 -0.0074447825 0)
(1.0163094 -0.0060996832 0)
(1.0158842 -0.0048384367 0)
(1.0153306 -0.0036930571 0)
(1.014703 -0.0026913031 0)
(1.0140706 -0.001843439 0)
(1.0135036 -0.0011484884 0)
(1.0130745 -0.00059666012 0)
(1.0128574 -0.00016967175 0)
(0.99993762 -0.0038261242 8.8311884e-24)
(0.99970224 -0.004730719 1.0823097e-23)
(1.0004047 -0.0049002766 7.4044137e-24)
(0.99907716 -0.0049523903 1.010042e-23)
(0.99930575 -0.0052965568 1.3649143e-23)
(1.0021065 -0.0050497491 0)
(1.0017063 -0.0056967661 0)
(1.0007126 -0.005521645 0)
(1.0012356 -0.0064036846 0)
(1.0007199 -0.0070314984 0)
(1.000792 -0.0081075114 0)
(1.0007297 -0.0097589982 0)
(1.0011636 -0.011113151 0)
(1.0018316 -0.013116697 0)
(1.0030234 -0.014257327 0)
(1.0045075 -0.015763129 0)
(1.0063152 -0.016437449 0)
(1.0081902 -0.016955896 0)
(1.0100266 -0.016876173 0)
(1.0117189 -0.016512917 0)
(1.0131954 -0.015836034 0)
(1.0144582 -0.014954944 0)
(1.0154822 -0.01390264 0)
(1.0163037 -0.012716667 0)
(1.0168799 -0.011417599 0)
(1.0172372 -0.010034703 0)
(1.0173335 -0.0086117367 0)
(1.0172063 -0.0071903132 0)
(1.0168503 -0.0058291096 0)
(1.016326 -0.004565326 0)
(1.0156753 -0.0034395627 0)
(1.0149665 -0.0024698436 0)
(1.0142677 -0.0016637916 0)
(1.013649 -0.0010166152 0)
(1.0131818 -0.00051602773 0)
(1.0129382 -0.00014251029 0)
(1.0042244 -0.0040901285 -1.3466191e-23)
(1.0013284 -0.004855232 -1.759906e-23)
(1.000159 -0.0048971445 0)
(1.0005447 -0.0051220052 -3.335622e-23)
(0.99913785 -0.0050536877 -1.3582722e-23)
(0.99947795 -0.005465552 -2.259865e-23)
(1.0022999 -0.0052338795 -1.187781e-23)
(1.0017604 -0.0060410771 0)
(1.0005911 -0.0059683442 0)
(1.0009195 -0.0070950871 0)
(1.0003553 -0.0080662145 0)
(1.0004494 -0.0094323205 0)
(1.0005192 -0.0114299 0)
(1.0012597 -0.012861175 0)
(1.0022647 -0.014884792 0)
(1.0038383 -0.015968355 0)
(1.0056586 -0.017328645 0)
(1.007689 -0.017715577 0)
(1.0096562 -0.017912777 0)
(1.0115134 -0.017576359 0)
(1.013135 -0.016973425 0)
(1.0145313 -0.016124735 0)
(1.0156831 -0.015106493 0)
(1.0166317 -0.013949499 0)
(1.0173433 -0.012669619 0)
(1.0178429 -0.011286994 0)
(1.0180807 -0.0098358512 0)
(1.0180826 -0.0083548918 0)
(1.0178272 -0.0069044235 0)
(1.0173684 -0.005526546 0)
(1.016733 -0.0042741812 0)
(1.0159907 -0.0031723169 0)
(1.0152028 -0.0022404178 0)
(1.0144408 -0.0014801004 0)
(1.0137735 -0.00088317285 0)
(1.0132708 -0.00043511009 0)
(1.0130028 -0.00011543115 0)
(1.0007034 -0.0039374854 -1.6512259e-24)
(1.0048642 -0.0052384044 3.5067281e-24)
(1.0022312 -0.0050035516 -5.6463661e-24)
(1.0006521 -0.0050907818 1.179549e-23)
(1.0006469 -0.0052535631 2.4155989e-23)
(0.99928922 -0.0052007967 -1.8027108e-23)
(0.9995764 -0.0056315588 -7.5023354e-23)
(1.0023564 -0.005465984 1.5248657e-23)
(1.0016333 -0.0064823488 0)
(1.0002885 -0.006665257 0)
(1.0004934 -0.008044271 0)
(0.99990409 -0.0094352286 0)
(1.000136 -0.011076219 0)
(1.0004752 -0.013312416 0)
(1.0016143 -0.014711521 0)
(1.0030251 -0.016799121 0)
(1.0049993 -0.017693173 0)
(1.0070892 -0.018760414 0)
(1.0092498 -0.018813434 0)
(1.0112546 -0.018697692 0)
(1.0130373 -0.018097934 0)
(1.014565 -0.017298171 0)
(1.0158407 -0.01630489 0)
(1.0169067 -0.015180141 0)
(1.0177456 -0.013929673 0)
(1.0183848 -0.012564482 0)
(1.0187707 -0.0111057 0)
(1.0189181 -0.0095855612 0)
(1.0187905 -0.0080613283 0)
(1.01843 -0.0065792253 0)
(1.0178473 -0.0052024199 0)
(1.0171118 -0.0039627176 0)
(1.0162761 -0.0028940955 0)
(1.0154127 -0.0020046593 0)
(1.0145907 -0.0012935828 0)
(1.0138781 -0.00074896401 0)
(1.0133427 -0.00035431808 0)
(1.0130523 -8.8527866e-05 0)
(0.97896832 -0.003151016 7.4597174e-24)
(0.99711528 -0.0050539814 -1.5060443e-24)
(1.0048607 -0.0052518402 0)
(1.0030394 -0.0052599594 9.1663379e-24)
(1.0010525 -0.0051537963 1.5599982e-24)
(1.0005837 -0.0053992398 0)
(0.99936131 -0.0053521785 4.7408485e-23)
(0.99950761 -0.0058332106 6.4127931e-23)
(1.0020721 -0.0057945796 0)
(1.0013152 -0.007079767 0)
(0.99982256 -0.0076245482 0)
(0.99994619 -0.0093392113 0)
(0.99944841 -0.011175689 0)
(0.99998808 -0.012962126 0)
(1.0007098 -0.01535669 0)
(1.0023263 -0.016733924 0)
(1.0041797 -0.018754398 0)
(1.006487 -0.019290141 0)
(1.0087513 -0.019987043 0)
(1.0109677 -0.019708866 0)
(1.0129006 -0.019273399 0)
(1.0145707 -0.018457308 0)
(1.0159641 -0.017498889 0)
(1.0171358 -0.016398819 0)
(1.0180897 -0.015185032 0)
(1.0188594 -0.013852363 0)
(1.0193931 -0.012407157 0)
(1.0196956 -0.010870815 0)
(1.0197166 -0.0092934524 0)
(1.019483 -0.0077227779 0)
(1.0189895 -0.0062284399 0)
(1.0182999 -0.0048505863 0)
(1.0174556 -0.0036381696 0)
(1.0165325 -0.0026061709 0)
(1.0155967 -0.0017641965 0)
(1.0147184 -0.0011053717 0)
(1.0139639 -0.00061472632 0)
(1.0133986 -0.0002740369 0)
(1.0130877 -6.1909207e-05 0)
(0.92296 -0.0013934486 0)
(0.96629317 -0.0041442438 0)
(0.99448052 -0.004853988 1.5547626e-24)
(1.0044581 -0.0054457443 0)
(1.0038223 -0.0053469362 3.8687716e-26)
(1.0013742 -0.0052371374 -1.8134247e-23)
(1.0003841 -0.0054872476 -1.0071958e-22)
(0.99926113 -0.005569353 -1.0501966e-22)
(0.99930627 -0.0060709317 0)
(1.0014737 -0.0064270533 0)
(1.0007968 -0.0079597993 0)
(0.99923112 -0.0089242688 0)
(0.99937399 -0.011011629 0)
(0.99914116 -0.013226154 0)
(1.0001363 -0.015047092 0)
(1.001335 -0.017640978 0)
(1.003475 -0.018814054 0)
(1.0057188 -0.020576036 0)
(1.0082556 -0.020681234 0)
(1.0106065 -0.020975256 0)
(1.0127493 -0.020356023 0)
(1.0145521 -0.019655671 0)
(1.0160649 -0.018671067 0)
(1.0173279 -0.017602426 0)
(1.0183825 -0.016422692 0)
(1.0192675 -0.015135131 0)
(1.0199412 -0.01372383 0)
(1.0204016 -0.012196212 0)
(1.0205853 -0.010590318 0)
(1.0205031 -0.0089517335 0)
(1.0201325 -0.0073525056 0)
(1.0195259 -0.0058420105 0)
(1.0187125 -0.0044827611 0)
(1.0177701 -0.0032977856 0)
(1.01676 -0.0023112893 0)
(1.0157558 -0.0015205395 0)
(1.0148252 -0.00091652095 0)
(1.0140321 -0.00048111602 0)
(1.0134396 -0.00019463334 0)
(1.0131102 -3.5727714e-05 0)
(0.90117211 -0.001458072 1.9990082e-25)
(0.92336112 0.0014221481 0)
(0.95851332 -0.0035797964 4.4874452e-24)
(0.98982441 -0.0049469029 5.0145411e-24)
(1.0035538 -0.005437868 1.9470044e-24)
(1.0043349 -0.0054568351 -5.1093911e-24)
(1.0015946 -0.0053532455 -2.9004266e-25)
(1.0000773 -0.0055976947 -1.2678511e-23)
(0.99907123 -0.0058330171 1.405147e-22)
(0.99883233 -0.0065330426 0)
(1.0008437 -0.0072918243 2.5286873e-22)
(1.0000899 -0.0092397936 0)
(0.99858326 -0.010685196 0)
(0.99894391 -0.013020443 0)
(0.99914412 -0.015543754 0)
(1.0007029 -0.017390362 0)
(1.0024504 -0.020038434 0)
(1.0050588 -0.020769297 0)
(1.0076022 -0.022155438 0)
(1.0102593 -0.021811575 0)
(1.0125479 -0.02167164 0)
(1.0145314 -0.020768239 0)
(1.0161495 -0.019865073 0)
(1.0174996 -0.018772431 0)
(1.0186348 -0.017634622 0)
(1.0196138 -0.016396577 0)
(1.020413 -0.015038023 0)
(1.0210257 -0.013544411 0)
(1.0213795 -0.01193788 0)
(1.0214676 -0.010256861 0)
(1.021249 -0.0085720398 0)
(1.0207605 -0.0069403959 0)
(1.020018 -0.0054356037 0)
(1.0190964 -0.0040918611 0)
(1.0180504 -0.0029491597 0)
(1.0169596 -0.0020105192 0)
(1.0158912 -0.0012751792 0)
(1.0149121 -0.00072800737 0)
(1.0140839 -0.00034871512 0)
(1.0134668 -0.00011644715 0)
(1.0131207 -1.0199441e-05 0)
(0.89303693 -0.0011825682 -4.0927768e-24)
(0.90137692 0.0012348964 0)
(0.9791939 0.003203682 7.2911886e-24)
(0.94858337 -0.0034894722 -5.0157601e-24)
(0.98512942 -0.0046804183 -8.7772757e-25)
(1.0017872 -0.0054076968 -3.4244507e-23)
(1.0044264 -0.0054975237 6.6483444e-23)
(1.0015918 -0.005497203 3.0945089e-23)
(0.99974675 -0.005785083 1.0935271e-22)
(0.99873411 -0.0062964918 4.8333817e-23)
(0.99823191 -0.0073116349 2.5321295e-22)
(1.0000981 -0.0084754015 -2.6356955e-22)
(0.99930877 -0.010947059 0)
(0.99806463 -0.012867388 0)
(0.99883916 -0.015345369 0)
(0.99959634 -0.018211626 0)
(1.0017934 -0.019850158 0)
(1.0040755 -0.022332211 0)
(1.0070451 -0.022495815 0)
(1.0097795 -0.023407839 0)
(1.012372 -0.022598464 0)
(1.0144846 -0.022084674 0)
(1.016241 -0.020970509 0)
(1.0176597 -0.019943757 0)
(1.0188599 -0.018799687 0)
(1.0199068 -0.017623265 0)
(1.02081 -0.01633081 0)
(1.0215624 -0.014896178 0)
(1.0220854 -0.013318651 0)
(1.0223559 -0.0116252 0)
(1.0223135 -0.0098799136 0)
(1.0219762 -0.0081444816 0)
(1.0213438 -0.00650142 0)
(1.0204827 -0.0049981981 0)
(1.0194406 -0.0036904917 0)
(1.0183015 -0.0025891723 0)
(1.0171318 -0.001706647 0)
(1.0160037 -0.0010295458 0)
(1.0149803 -0.00054076913 0)
(1.0141204 -0.0002180723 0)
(1.0134814 -3.9790399e-05 0)
(1.0131205 1.4219774e-05 0)
(0.88165971 -0.0011274085 -1.4040887e-24)
(0.89278532 0.00068577973 -5.0916369e-24)
(0.96621118 0.0040371377 0)
(1.0006828 0.0040199995 -1.6553055e-24)
(0.94016525 -0.0030312019 1.0802034e-24)
(0.97910172 -0.0043785094 1.7334224e-23)
(0.99921923 -0.0053185409 0)
(1.0042683 -0.0055441045 -3.0712615e-23)
(1.0013564 -0.0056521018 4.7073444e-23)
(0.99927409 -0.0061275643 -4.7717726e-23)
(0.99809568 -0.0070352101 -2.5567787e-22)
(0.9975611 -0.0084093477 -2.6340763e-22)
(0.99908695 -0.010203454 0)
(0.99863433 -0.013064522 0)
(0.997867 -0.015412002 0)
(0.99921299 -0.018016208 0)
(1.0006327 -0.021086872 0)
(1.0034376 -0.022216274 0)
(1.0062025 -0.024375346 0)
(1.0093908 -0.023905946 0)
(1.0121055 -0.024240445 0)
(1.0144721 -0.023039843 0)
(1.0163269 -0.022243901 0)
(1.0178308 -0.021014345 0)
(1.0190652 -0.019944265 0)
(1.0201579 -0.018791943 0)
(1.0211377 -0.017584929 0)
(1.0220094 -0.01623057 0)
(1.0226931 -0.014712741 0)
(1.0231507 -0.013039945 0)
(1.0233025 -0.01126495 0)
(1.0231457 -0.0094496082 0)
(1.0226602 -0.0076825653 0)
(1.0218996 -0.0060247375 0)
(1.0209028 -0.0045465257 0)
(1.0197545 -0.0032710361 0)
(1.0185199 -0.0022256437 0)
(1.0172782 -0.0014003861 0)
(1.0160946 -0.00078468199 0)
(1.015031 -0.000355715 0)
(1.0141428 -8.9765514e-05 0)
(1.0134844 3.4930034e-05 0)
(1.0131109 3.7988332e-05 0)
(0.87452344 -0.0008472804 1.8483103e-24)
(0.88070759 0.00038561356 1.4028043e-24)
(0.95784609 0.0032901196 4.4763365e-24)
(0.99712177 0.0050175708 1.5045836e-24)
(1.0043331 0.004137064 -1.5348414e-23)
(0.93142307 -0.0025639337 -1.75353e-23)
(0.97276121 -0.0040238686 -1.2209334e-23)
(0.99577837 -0.0051976617 0)
(1.0035921 -0.0056164567 -4.703832e-23)
(1.000818 -0.0059338133 1.7392784e-23)
(0.99843506 -0.006739366 0)
(0.99724435 -0.0080655141 3.0165474e-22)
(0.99667943 -0.0099111409 0)
(0.99801745 -0.012476378 0)
(0.99827975 -0.015559263 0)
(0.9978616 -0.018443794 0)
(1.0001804 -0.020869368 0)
(1.0023244 -0.023916627 0)
(1.0056436 -0.024345443 0)
(1.0087969 -0.025996905 0)
(1.0119208 -0.024854922 0)
(1.0144165 -0.024660414 0)
(1.0164579 -0.023175734 0)
(1.0180101 -0.02221379 0)
(1.0192769 -0.02097075 0)
(1.0203789 -0.019919653 0)
(1.0214083 -0.01877554 0)
(1.0223688 -0.017527052 0)
(1.0231964 -0.016097969 0)
(1.0238375 -0.014481315 0)
(1.024195 -0.01271185 0)
(1.0242426 -0.010847005 0)
(1.0239383 -0.0089772691 0)
(1.0233183 -0.0071756309 0)
(1.0224091 -0.0055266496 0)
(1.0212919 -0.0040693426 0)
(1.02003 -0.0028466028 0)
(1.0187099 -0.0018551053 0)
(1.0173992 -0.0010944673 0)
(1.0161652 -0.0005417035 0)
(1.0150653 -0.0001735321 0)
(1.0141522 3.5677671e-05 0)
(1.0134769 0.00010793965 0)
(1.0130919 6.2475525e-05 0)
(0.86792318 -0.00048187599 -1.0815588e-24)
(0.87290178 0.00010182246 -1.8529319e-24)
(0.94683014 0.0030089425 -4.9897544e-24)
(0.99430986 0.0047074969 -1.5532825e-24)
(1.0049536 0.0051397446 5.9862746e-24)
(1.0000618 0.0039044715 8.5556118e-24)
(0.92319776 -0.0020120895 2.6120043e-23)
(0.96558219 -0.0036953753 1.5798008e-23)
(0.99173703 -0.0050350877 4.7983607e-23)
(1.0022405 -0.0057982114 -1.7873189e-23)
(0.99994358 -0.006416084 2.0996606e-22)
(0.99728541 -0.0076757565 -1.0834435e-22)
(0.99617361 -0.0095812738 0)
(0.99572457 -0.011942058 3.7251054e-22)
(0.99725342 -0.015214968 -9.4698755e-22)
(0.99841504 -0.018549051 0)
(0.99868315 -0.021819884 0)
(1.0018199 -0.023727609 0)
(1.0047347 -0.026528065 0)