/*--------------------------------*- C++ -*----------------------------------*\
| =========                 |                                                 |
| \\      /  F ield         | OpenFOAM: The Open Source CFD Toolbox           |
|  \\    /   O peration     | Version:  5.0                                   |
|   \\  /    A nd           | Web:      www.OpenFOAM.org                      |
|    \\/     M anipulation  |                                                 |
\*---------------------------------------------------------------------------*/
FoamFile
{
    version     2.0;
    format      ascii;
    class       volVectorField;
    location    "40";
    object      UMean;
}
// * * * * * * * * * * * * * * * * * * * * * * * * * * * * * * * * * * * * * //

dimensions      [0 1 -1 0 0 0 0];

internalField   nonuniform List<vector> 
9520
(
(1.0005432 -9.9712374e-05 0)
(1.0005304 -0.00029022263 0)
(1.0008496 -0.00011182421 0)
(1.0005072 -0.00046205277 0)
(1.0008294 -0.00032572356 0)
(1.0009893 -0.00011926654 0)
(1.0004759 -0.00061401621 0)
(1.000793 -0.00051915473 0)
(1.0009663 -0.00034759235 0)
(1.0012221 -0.00013157594 0)
(1.0004384 -0.00074569428 0)
(1.0007436 -0.00069092192 0)
(1.0009243 -0.00055443957 0)
(1.0011943 -0.00038369605 0)
(1.001417 -0.00014243865 0)
(1.0003963 -0.00085749898 0)
(1.0006841 -0.00084067498 0)
(1.0008676 -0.00073867248 0)
(1.0011438 -0.00061275336 0)
(1.0013855 -0.00041570619 0)
(1.0016552 -0.00015605635 0)
(1.000351 -0.00095041719 0)
(1.0006172 -0.00096885977 0)
(1.0007993 -0.00089990482 0)
(1.0010751 -0.00081761247 0)
(1.0013283 -0.00066461889 0)
(1.00162 -0.00045591824 0)
(1.0018805 -0.00016911098 0)
(1.0003035 -0.0010256526 0)
(1.000545 -0.0010765033 0)
(1.0007224 -0.0010385614 0)
(1.0009923 -0.00099788843 0)
(1.0012504 -0.00088811225 0)
(1.0015558 -0.00073012286 0)
(1.001842 -0.00049452622 0)
(1.0021379 -0.00018441871 0)
(1.000255 -0.0010849405 0)
(1.0004695 -0.0011648584 0)
(1.0006393 -0.0011556643 0)
(1.0008988 -0.0011540048 0)
(1.0011562 -0.0010857526 0)
(1.0014681 -0.00097769501 0)
(1.0017716 -0.00079307459 0)
(1.0020968 -0.00053988164 0)
(1.0023893 -0.00019959492 0)
(1.000206 -0.0011294825 0)
(1.0003922 -0.0012357231 0)
(1.0005522 -0.0012524856 0)
(1.0007975 -0.0012869534 0)
(1.0010496 -0.0012578907 0)
(1.0013615 -0.0011981229 0)
(1.0016752 -0.0010639398 0)
(1.0020212 -0.0008673726 0)
(1.0023458 -0.00058484917 0)
(1.002669 -0.00021678499 0)
(1.0001573 -0.0011618745 0)
(1.0003144 -0.0012904159 0)
(1.0004631 -0.0013308384 0)
(1.0006911 -0.0013979819 0)
(1.000934 -0.0014054501 0)
(1.0012403 -0.001391615 0)
(1.0015576 -0.001306566 0)
(1.0019168 -0.0011662838 0)
(1.0022655 -0.00094103516 0)
(1.002624 -0.00063587353 0)
(1.002946 -0.00023391572 0)
(1.0001092 -0.0011818952 0)
(1.0002372 -0.0013316164 0)
(1.0003733 -0.001392112 0)
(1.0005818 -0.0014888649 0)
(1.0008123 -0.0015296345 0)
(1.0011081 -0.0015589306 0)
(1.0014233 -0.0015210176 0)
(1.0017886 -0.0014360186 0)
(1.0021542 -0.0012678369 0)
(1.0025405 -0.0010249652 0)
(1.0029001 -0.00068675027 0)
(1.0032483 -0.00025242385 0)
(1.0000624 -0.0011947137 0)
(1.0001615 -0.0013592204 0)
(1.0002843 -0.0014389922 0)
(1.0004717 -0.0015610449 0)
(1.0006872 -0.0016321787 0)
(1.0009683 -0.0017011001 0)
(1.0012764 -0.0017078705 0)
(1.0016412 -0.0016764079 0)
(1.0020168 -0.0015647352 0)
(1.0024238 -0.0013841027 0)
(1.002814 -0.0011087603 0)
(1.0032024 -0.00074186699 0)
(1.0035497 -0.00027040988 0)
(1.0000164 -0.0011952054 0)
(1.0000878 -0.0013786472 0)
(1.0001969 -0.0014714919 0)
(1.0003623 -0.0016171736 0)
(1.0005608 -0.0017145628 0)
(1.0008239 -0.0018196864 0)
(1.0011203 -0.0018679593 0)
(1.0014787 -0.0018877436 0)
(1.0018578 -0.0018313904 0)
(1.0022784 -0.0017128553 0)
(1.0026931 -0.0015004673 0)
(1.0031158 -0.0012000186 0)
(1.0035043 -0.00079550788 0)
(1.0038718 -0.00028875112 0)
(0.99997263 -0.0011960956 0)
(1.0000167 -0.0013844602 0)
(1.000112 -0.0014950507 0)
(1.000255 -0.0016574504 0)
(1.0004352 -0.0017794012 0)
(1.0006776 -0.0019161053 0)
(1.0009585 -0.0020026703 0)
(1.001305 -0.0020705369 0)
(1.0016814 -0.0020678153 0)
(1.0021086 -0.0020106685 0)
(1.0025413 -0.0018616281 0)
(1.0029928 -0.0016279737 0)
(1.003418 -0.0012890805 0)
(1.0038284 -0.00085042008 0)
(1.0041926 -0.00030590851 0)
(0.99992918 -0.0011799614 0)
(0.99994826 -0.0013906087 0)
(1.0000301 -0.0015042597 0)
(1.0001505 -0.0016872872 0)
(1.0003117 -0.0018270585 0)
(1.0005314 -0.0019928328 0)
(1.0007938 -0.0021133433 0)
(1.0011236 -0.0022258816 0)
(1.0014915 -0.0022741998 0)
(1.0019185 -0.0022772081 0)
(1.0023627 -0.002191538 0)
(1.0028368 -0.0020256683 0)
(1.0032946 -0.0017529859 0)
(1.003745 -0.0013808723 0)
(1.0041518 -0.00090192672 0)
(1.0045284 -0.00032246614 0)
(0.99988901 -0.001176537 0)
(0.9998826 -0.001377438 0)
(0.99995143 -0.0015134051 0)
(1.00005 -0.0017014429 0)
(1.0001915 -0.0018628844 0)
(1.0003873 -0.0020503672 0)
(1.0006287 -0.0022023261 0)
(1.0009379 -0.0023549226 0)
(1.001292 -0.0024512929 0)
(1.0017121 -0.0025122156 0)
(1.0021608 -0.0024895218 0)
(1.0026509 -0.0023922296 0)
(1.0031364 -0.0021874729 0)
(1.003624 -0.0018828481 0)
(1.0040724 -0.0014673653 0)
(1.0044919 -0.00095190023 0)
(1.0048612 -0.00033734791 0)
(0.99984723 -0.0011451957 0)
(0.99982034 -0.0013792317 0)
(0.9998761 -0.001502133 0)
(0.99995343 -0.0017145634 0)
(1.0000758 -0.0018818517 0)
(1.0002467 -0.0020939237 0)
(1.0004656 -0.0022703311 0)
(1.0007508 -0.0024597569 0)
(1.0010865 -0.0025999882 0)
(1.0014933 -0.002715977 0)
(1.0019396 -0.0027548748 0)
(1.0024386 -0.0027266022 0)
(1.0029459 -0.0025915623 0)
(1.0034667 -0.0023569415 0)
(1.0039558 -0.0020060502 0)
(1.0044196 -0.001552045 0)
(1.0048295 -0.00099700181 0)
(1.0052026 -0.00035091465 0)
(0.99981099 -0.001142857 0)
(0.9997593 -0.0013478029 0)
(0.99980471 -0.0015065091 0)
(0.99986139 -0.001705583 0)
(0.9999646 -0.0018987745 0)
(1.0001111 -0.0021189227 0)
(1.000306 -0.0023223667 0)
(1.0005649 -0.0025411446 0)
(1.0008782 -0.0027220862 0)
(1.0012661 -0.0028889909 0)
(1.0017031 -0.0029873969 0)
(1.0022033 -0.0030275274 0)
(1.0027257 -0.0029638423 0)
(1.0032744 -0.0028020867 0)
(1.003802 -0.0025191163 0)
(1.0043111 -0.0021279298 0)
(1.0047655 -0.0016289982 0)
(1.0051777 -0.0010384214 0)
(1.0055387 -0.00036247819 0)
(0.99976867 -0.0011003298 0)
(0.99970354 -0.0013523814 0)
(0.99973515 -0.0014751432 0)
(0.99977404 -0.0017128321 0)
(0.99985878 -0.0018921989 0)
(0.99998075 -0.0021400999 0)
(1.0001517 -0.0023542212 0)
(1.0003822 -0.002603768 0)
(1.0006702 -0.0028183772 0)
(1.001034 -0.0030326416 0)
(1.0014554 -0.0031871441 0)
(1.0019491 -0.0032942078 0)
(1.0024789 -0.0033025264 0)
(1.0030488 -0.0032165051 0)
(1.0036112 -0.0030055263 0)
(1.0041648 -0.0026812888 0)
(1.0046672 -0.0022397573 0)
(1.0051254 -0.0017005456 0)
(1.0055211 -0.0010739627 0)
(1.005877 -0.00037220648 0)
(0.99973499 -0.001095902 0)
(0.99964386 -0.0013057021 0)
(0.99967134 -0.0014829841 0)
(0.99968995 -0.0016808103 0)
(0.99975825 -0.0019020755 0)
(0.99985686 -0.0021360342 0)
(1.0000031 -0.0023804344 0)
(1.000205 -0.0026439514 0)
(1.0004648 -0.0028931965 0)
(1.0008006 -0.0031476218 0)
(1.0012005 -0.0033550286 0)
(1.0016802 -0.0035261183 0)
(1.0022093 -0.00360615 0)
(1.0027925 -0.0035977751 0)
(1.0033838 -0.0034631879 0)
(1.0039792 -0.0032111656 0)
(1.0045315 -0.0028318417 0)
(1.0050416 -0.0023452176 0)
(1.0054816 -0.0017626277 0)
(1.0058686 -0.0011042153 0)
(1.0062079 -0.00037971957 0)
(0.99968705 -0.0010568967 0)
(0.99959364 -0.0013113167 0)
(0.99960425 -0.0014338715 0)
(0.99961224 -0.001692161 0)
(0.99966212 -0.001869765 0)
(0.999739 -0.0021479289 0)
(0.9998618 -0.0023798186 0)
(1.0000337 -0.0026757574 0)
(1.0002645 -0.0029433543 0)
(1.0005685 -0.0032377896 0)
(1.0009421 -0.0034916055 0)
(1.0014008 -0.0037235785 0)
(1.0019211 -0.0038735169 0)
(1.0025089 -0.003943679 0)
(1.0031217 -0.0038890607 0)
(1.0037539 -0.0037151679 0)
(1.0043554 -0.0034045498 0)
(1.0049211 -0.0029758793 0)
(1.0054144 -0.0024380599 0)
(1.0058454 -0.0018164997 0)
(1.0062092 -0.0011279187 0)
(1.0065349 -0.00038505965 0)
(0.99965733 -0.0010327657 0)
(0.99952867 -0.0012646 0)
(0.99954724 -0.0014446238 0)
(0.99953258 -0.0016386057 0)
(0.99957289 -0.001884106 0)
(0.99962698 -0.002114358 0)
(0.99972697 -0.0023942557 0)
(0.99987044 -0.0026786067 0)
(1.0000702 -0.0029823474 0)
(1.000341 -0.0033005316 0)
(1.0006836 -0.0036002529 0)
(1.0011151 -0.0038867966 0)
(1.0016185 -0.0041042298 0)
(1.0022019 -0.0042522036 0)
(1.0028275 -0.0042801125 0)
(1.0034894 -0.0041896417 0)
(1.0041367 -0.0039552984 0)
(1.0047591 -0.0035921769 0)
(1.0053125 -0.0031048091 0)
(1.0057994 -0.0025204232 0)
(1.0062032 -0.0018596834 0)
(1.0065475 -0.0011452686 0)
(1.0068523 -0.00038807829 0)
(0.99960383 -0.0010225575 0)
(0.99948591 -0.001251333 0)
(0.99947529 -0.0013927682 0)
(0.99946374 -0.0016553124 0)
(0.99948284 -0.0018267254 0)
(0.99952244 -0.0021304362 0)
(0.99959918 -0.0023605106 0)
(0.99971422 -0.0026947761 0)
(0.99988439 -0.0029905513 0)
(1.0001192 -0.0033485528 0)
(1.0004285 -0.0036787862 0)
(1.0008269 -0.0040184477 0)
(1.0013063 -0.0042980457 0)
(1.0018761 -0.0045221165 0)
(1.0025048 -0.0046334598 0)
(1.0031875 -0.0046307248 0)
(1.0038745 -0.0044798681 0)
(1.0045519 -0.0041914372 0)
(1.0051693 -0.0037630979 0)
(1.0057211 -0.0032217033 0)
(1.0061799 -0.0025882457 0)
(1.006562 -0.0018926924 0)
(1.0068767 -0.0011557193 0)
(1.007161 -0.00038878907 0)
(0.99956911 -0.00095580916 0)
(0.99941434 -0.0012354392 0)
(0.99942715 -0.0013859242 0)
(0.9993806 -0.001594773 0)
(0.99940425 -0.0018485543 0)
(0.99941863 -0.0020670238 0)
(0.99947921 -0.0023784133 0)
(0.99956646 -0.0026595697 0)
(0.999706 -0.0030099784 0)
(0.99990628 -0.0033633695 0)
(1.0001784 -0.0037389456 0)
(1.0005403 -0.0041166795 0)
(1.0009887 -0.0044569125 0)
(1.0015362 -0.0047525169 0)
(1.0021581 -0.0049469404 0)
(1.0028516 -0.0050345483 0)
(1.0035699 -0.0049735455 0)
(1.0042971 -0.0047689994 0)
(1.0049789 -0.0044103216 0)
(1.0056019 -0.0039212362 0)
(1.0061284 -0.0033206843 0)
(1.0065662 -0.0026424955 0)
(1.0069124 -0.0019143233 0)
(1.0071983 -0.0011593269 0)
(1.007458 -0.00038718877 0)
(0.99951552 -0.00099505362 0)
(0.99936677 -0.0011732419 0)
(0.9993482 -0.0013649773 0)
(0.99932248 -0.0015959421 0)
(0.99931179 -0.0017800765 0)
(0.99932676 -0.0020928138 0)
(0.99936144 -0.0023103496 0)
(0.99942714 -0.002677805 0)
(0.99953733 -0.0029755307 0)
(0.99970112 -0.0033863368 0)
(0.99993707 -0.0037635913 0)
(1.0002575 -0.0041921051 0)
(1.0006701 -0.0045792193 0)
(1.001187 -0.0049444823 0)
(1.0017924 -0.0052189081 0)
(1.0024857 -0.0053978707 0)
(1.003225 -0.0054314535 0)
(1.0039943 -0.0053193425 0)
(1.0047372 -0.005041472 0)
(1.0054341 -0.0046166821 0)
(1.0060379 -0.0040588106 0)
(1.0065466 -0.0034032097 0)
(1.0069451 -0.0026809944 0)
(1.0072578 -0.0019247396 0)
(1.0075087 -0.0011560285 0)
(1.0077427 -0.00038332616 0)
(0.9994709 -0.00087326521 0)
(0.99929706 -0.0012164294 0)
(0.99929609 -0.0013063232 0)
(0.99923322 -0.0015658486 0)
(0.99924556 -0.0017885415 0)
(0.99922219 -0.0020124526 0)
(0.99925612 -0.0023396808 0)
(0.99929201 -0.0026024943 0)
(0.99937747 -0.0029951235 0)
(0.99950695 -0.0033524072 0)
(0.99970333 -0.0037927495 0)
(0.99998266 -0.0042290046 0)
(1.0003534 -0.004674356 0)
(1.0008335 -0.0050964885 0)
(1.0014128 -0.0054494901 0)
(1.0020948 -0.0057180492 0)
(1.0028438 -0.0058492241 0)
(1.0036451 -0.0058365345 0)
(1.0044425 -0.005650315 0)
(1.0052119 -0.0053028768 0)
(1.0058985 -0.0048007169 0)
(1.0064902 -0.0041776632 0)
(1.0069599 -0.0034658313 0)
(1.0073232 -0.0027040474 0)
(1.0075924 -0.0019236436 0)
(1.0078074 -0.0011459532 0)
(1.0080138 -0.00037728244 0)
(0.99946128 -0.00096696807 0)
(0.9992366 -0.00108708 0)
(0.99922071 -0.0013497027 0)
(0.99917119 -0.0015114657 0)
(0.99914767 -0.001748992 0)
(0.99914463 -0.0020281828 0)
(0.99913913 -0.0022491179 0)
(0.99916979 -0.0026342144 0)
(0.99922364 -0.0029149747 0)
(0.99932203 -0.0033724287 0)
(0.99948136 -0.0037624149 0)
(0.99971508 -0.0042658601 0)
(1.0000434 -0.0047282147 0)
(1.0004793 -0.0052165531 0)
(1.0010249 -0.0056370094 0)
(1.0016844 -0.00599407 0)
(1.0024311 -0.0062231347 0)
(1.0032523 -0.0063149624 0)
(1.0040947 -0.0062299185 0)
(1.0049315 -0.0059730029 0)
(1.0057022 -0.0055412758 0)
(1.0063855 -0.0049646413 0)
(1.0069422 -0.0042728986 0)
(1.0073773 -0.0035089814 0)
(1.0076912 -0.0027109257 0)
(1.0079171 -0.001911217 0)
(1.0080928 -0.001129317 0)
(1.0082704 -0.00036915971 0)
(0.9991624 -0.0007995364 0)
(0.99922617 -0.0011987613 0)
(0.99915591 -0.0012171242 0)
(0.99908832 -0.0015531504 0)
(0.99907802 -0.0016993522 0)
(0.99903594 -0.001974062 0)
(0.99905022 -0.002271615 0)
(0.99903789 -0.0025292597 0)
(0.99908297 -0.0029490891 0)
(0.99914527 -0.0032855315 0)
(0.99926866 -0.003784496 0)
(0.99945986 -0.0042401175 0)
(0.99973968 -0.0047770837 0)
(1.0001298 -0.005292063 0)
(1.0006327 -0.0057879929 0)
(1.0012606 -0.0062238729 0)
(1.0019925 -0.0065509384 0)
(1.0028206 -0.0067496538 0)
(1.0036962 -0.0067734675 0)
(1.0045917 -0.0066191734 0)
(1.0054434 -0.0062732956 0)
(1.0062222 -0.0057592749 0)
(1.0068776 -0.0051018449 0)
(1.0074033 -0.0043449868 0)
(1.0077864 -0.0035312477 0)
(1.0080524 -0.0027017603 0)
(1.008229 -0.0018877238 0)
(1.008364 -0.0011063998 0)
(1.008512 -0.00035908911 0)
(0.99936167 -0.00092293183 0)
(0.99887631 -0.0010098786 0)
(0.99914848 -0.0013365077 0)
(0.99901199 -0.0014134856 0)
(0.99898865 -0.0017370172 0)
(0.99895592 -0.001929267 0)
(0.99893048 -0.0022034439 0)
(0.99893444 -0.0025586481 0)
(0.99893448 -0.00283171 0)
(0.99898185 -0.0033208199 0)
(0.99906596 -0.0036938206 0)
(0.99921399 -0.0042645793 0)
(0.9994484 -0.0047607891 0)
(0.99978516 -0.0053568722 0)
(1.0002425 -0.005891324 0)
(1.000828 -0.0064124101 0)
(1.0015344 -0.0068299967 0)
(1.0023557 -0.0071369761 0)
(1.0032508 -0.0072746311 0)
(1.0041933 -0.007233324 0)
(1.005119 -0.0069880922 0)
(1.0059927 -0.0065542022 0)
(1.0067542 -0.0059483441 0)
(1.0073854 -0.0052128207 0)
(1.0078597 -0.0043915439 0)
(1.0081927 -0.0035326176 0)
(1.008401 -0.0026767989 0)
(1.0085272 -0.0018535655 0)
(1.0086201 -0.0010775791 0)
(1.008738 -0.00034721779 0)
(0.99959345 -0.00073246455 9.9393815e-25)
(0.99910158 -0.0011620091 0)
(0.99876928 -0.0011375555 0)
(0.99900928 -0.0015446181 0)
(0.99890429 -0.001592746 0)
(0.99885876 -0.0019593186 0)
(0.99884031 -0.0021643137 0)
(0.99880187 -0.002470643 0)
(0.99881484 -0.0028674694 0)
(0.99881327 -0.0031877618 0)
(0.99887643 -0.0037307731 0)
(0.99898005 -0.004169678 0)
(0.99916593 -0.0047911306 0)
(0.99945243 -0.0053534385 0)
(0.99985477 -0.0059778906 0)
(1.0003936 -0.0065498409 0)
(1.0010623 -0.0070635958 0)
(1.0018642 -0.0074734138 0)
(1.0027641 -0.007728292 0)
(1.0037396 -0.0078076957 0)
(1.0047284 -0.0076764496 0)
(1.0056917 -0.0073401308 0)
(1.0065617 -0.0068051544 0)
(1.0073091 -0.0061089533 0)
(1.0078932 -0.0052938784 0)
(1.0083181 -0.0044123546 0)
(1.0085874 -0.0035131872 0)
(1.0087379 -0.0026363738 0)
(1.0088106 -0.0018093159 0)
(1.0088605 -0.0010432754 0)
(1.0089481 -0.0003337065 0)
(0.9993615 -0.00087817746 -1.310644e-24)
(0.99935656 -0.00094756484 -1.0386291e-24)
(0.99902192 -0.0013064009 0)
(0.9985967 -0.001324922 0)
(0.99890465 -0.0017315587 0)
(0.99876393 -0.0018080337 0)
(0.99873485 -0.0021849461 0)
(0.99869869 -0.0024382848 0)
(0.99866764 -0.0027597806 0)
(0.99867331 -0.0032293162 0)
(0.99868437 -0.0035840169 0)
(0.99875915 -0.0042078771 0)
(0.99889688 -0.0046966413 0)
(0.99912773 -0.0053922455 0)
(0.99947772 -0.0059936463 0)
(0.99995876 -0.0066640073 0)
(1.0005837 -0.0072430492 0)
(1.0013522 -0.0077604739 0)
(1.0022429 -0.0081298368 0)
(1.0032355 -0.0083355408 0)
(1.0042737 -0.008329179 0)
(1.0053169 -0.0081068057 0)
(1.0062929 -0.0076626318 0)
(1.0071621 -0.0070265522 0)
(1.0078705 -0.0062358059 0)
(1.0084089 -0.0053445412 0)
(1.008767 -0.00440707 0)
(1.0089732 -0.0034730029 0)
(1.0090599 -0.0025812785 0)
(1.0090783 -0.0017556112 0)
(1.009085 -0.0010039608 0)
(1.0091424 -0.00031872606 0)
(0.99940292 -0.00067541293 1.3155955e-24)
(0.99904173 -0.0011171812 2.894139e-24)
(0.99928733 -0.0010761033 0)
(0.99888074 -0.0015173362 0)
(0.99846565 -0.0014949553 0)
(0.99876771 -0.0019550653 0)
(0.99863027 -0.0020287259 0)
(0.99858355 -0.0024439716 0)
(0.99855008 -0.0027347807 0)
(0.99850877 -0.0030971538 0)
(0.99852058 -0.0036311915 0)
(0.99853891 -0.00404584 0)
(0.99864016 -0.0047386217 0)
(0.9988177 -0.0053001702 0)
(0.99910717 -0.0060459871 0)
(0.99953262 -0.0067044729 0)
(1.0001007 -0.0073926963 0)
(1.0008279 -0.0079902039 0)
(1.0016938 -0.0084788619 0)
(1.0026878 -0.0088108599 0)
(1.0037592 -0.0089378645 0)
(1.004869 -0.0088436394 0)
(1.0059433 -0.0085097055 0)
(1.0069346 -0.0079559262 0)
(1.0077769 -0.0072112336 0)
(1.0084469 -0.0063280825 0)
(1.0089189 -0.0053636632 0)
(1.0092109 -0.0043753495 0)
(1.0093444 -0.003413121 0)
(1.0093667 -0.0025122241 0)
(1.0093296 -0.001693211 0)
(1.0092931 -0.0009601362 0)
(1.0093208 -0.00030245286 0)
(0.99947954 -0.00079072139 0)
(0.99908498 -0.00089742751 -2.8984584e-24)
(0.99890937 -0.0012561273 0)
(0.99915358 -0.0012621072 0)
(0.9987795 -0.0017062858 0)
(0.99829907 -0.0016939555 0)
(0.99863599 -0.0021806087 0)
(0.99846692 -0.0022827565 0)
(0.9984234 -0.0027228598 0)
(0.99837295 -0.0030802083 0)
(0.99833534 -0.0034744039 0)
(0.99834605 -0.0040985323 0)
(0.99838706 -0.0045648185 0)
(0.99851909 -0.0053475216 0)
(0.99875198 -0.0059625117 0)
(0.99911111 -0.0067751393 0)
(0.99962368 -0.0074663386 0)
(1.0002945 -0.0081834155 0)
(1.0011253 -0.0087678918 0)
(1.0021036 -0.0092312255 0)
(1.0031911 -0.0094949543 0)
(1.0043512 -0.009540497 0)
(1.0055118 -0.0093345343 0)
(1.00662 -0.0088854499 0)
(1.0076003 -0.0082107899 0)
(1.008415 -0.0073579752 0)
(1.009023 -0.0063834466 0)
(1.0094288 -0.0053504224 0)
(1.009641 -0.0043183331 0)
(1.0097017 -0.0033339757 0)
(1.0096567 -0.0024302537 0)
(1.009564 -0.0016229163 0)
(1.0094849 -0.00091232373 0)
(1.0094835 -0.00028506439 0)
(0.99927474 -0.00063065315 -5.5041111e-25)
(0.99921867 -0.001025626 0)
(0.99896695 -0.0010291028 -4.9787432e-24)
(0.99869916 -0.0014589527 0)
(0.99905217 -0.0014296916 0)
(0.99864942 -0.0019301938 0)
(0.99814058 -0.0018972214 0)
(0.99847383 -0.0024370796 0)
(0.99829395 -0.0025581006 0)
(0.99823236 -0.0030450213 0)
(0.99817808 -0.003466406 0)
(0.9981361 -0.0039137074 0)
(0.99815999 -0.0046246233 0)
(0.99822735 -0.005162545 0)
(0.99840662 -0.0060195409 0)
(0.99870521 -0.0067048288 0)
(0.99914844 -0.0075625971 0)
(0.99976306 -0.0082980526 0)
(1.000542 -0.0090139286 0)
(1.0014918 -0.0095891351 0)
(1.0025768 -0.009995858 0)
(1.003769 -0.01018805 0)
(1.0049999 -0.010125328 0)
(1.0062149 -0.0098022182 0)
(1.0073313 -0.0092226647 0)
(1.0082988 -0.0084255363 0)
(1.0090605 -0.00746283 0)
(1.0096052 -0.0064005361 0)
(1.0099271 -0.0053057521 0)
(1.0100598 -0.0042359825 0)
(1.0100417 -0.0032371202 0)
(1.0099293 -0.0023364108 0)
(1.0097814 -0.001545585 0)
(1.0096606 -0.0008610534 0)
(1.0096309 -0.00026673646 0)
(0.99913313 -0.00071062672 3.1700867e-24)
(0.99897887 -0.00086680687 6.6332687e-24)
(0.99913492 -0.0011582293 4.97555e-24)
(0.99876751 -0.0012167418 7.1519295e-24)
(0.99853434 -0.0016380024 9.6036345e-24)
(0.99892175 -0.0016233695 0)
(0.99852608 -0.002157056 0)
(0.99794976 -0.0021276466 0)
(0.99830194 -0.0027112788 0)
(0.99808691 -0.0028775874 0)
(0.99802042 -0.0034045262 0)
(0.99795216 -0.0039159405 0)
(0.99792028 -0.0044131104 0)
(0.99795968 -0.005231082 0)
(0.99807108 -0.0058285747 0)
(0.9983073 -0.0067755134 0)
(0.99868837 -0.0075139481 0)
(0.99923017 -0.0084268942 0)
(0.99995569 -0.0091793098 0)
(1.0008581 -0.0098978046 0)
(1.0019256 -0.010432692 0)
(1.0031296 -0.010779419 0)
(1.0044123 -0.010870919 0)
(1.005719 -0.010692895 0)
(1.0069639 -0.010233209 0)
(1.0080862 -0.0095191505 0)
(1.0090141 -0.0085942515 0)
(1.0097194 -0.0075238425 0)
(1.0101799 -0.0063795947 0)
(1.0104177 -0.0052289426 0)
(1.0104612 -0.0041303451 0)
(1.0103645 -0.0031234554 0)
(1.0101839 -0.00223188 0)
(1.0099816 -0.0014620911 0)
(1.0098203 -0.00080685236 0)
(1.0097635 -0.00024764011 0)
(0.99944913 -0.00057061774 -4.3253792e-24)
(0.99887297 -0.00095295006 -1.1129592e-23)
(0.99888925 -0.00099967668 0)
(0.99897772 -0.0013471464 -2.3621496e-23)
(0.99860214 -0.0013834566 -9.5557037e-24)
(0.99833417 -0.0018475746 -1.5068878e-23)
(0.99880182 -0.0018170635 -7.9267195e-24)
(0.99837251 -0.0024129799 0)
(0.99774749 -0.0023757485 0)
(0.9980919 -0.0030247735 0)
(0.99785654 -0.0032363903 0)
(0.99777373 -0.003821912 0)
(0.99770429 -0.0044278222 0)
(0.99768493 -0.0049914735 0)
(0.99775697 -0.0059098053 0)
(0.99792219 -0.0065817406 0)
(0.99823357 -0.0076047358 0)
(0.99871129 -0.0084071452 0)
(0.99936358 -0.0093495106 0)
(1.0002153 -0.010123541 0)
(1.0012441 -0.010814676 0)
(1.0024426 -0.011305805 0)
(1.0037557 -0.011562051 0)
(1.0051355 -0.011544421 0)
(1.0064959 -0.011227783 0)
(1.0077687 -0.010624794 0)
(1.0088691 -0.0097667853 0)
(1.0097521 -0.0087142855 0)
(1.0103772 -0.0075400164 0)
(1.0107516 -0.0063192735 0)
(1.0108914 -0.0051224934 0)
(1.010846 -0.0040019476 0)
(1.010668 -0.0029947497 0)
(1.0104202 -0.0021178668 0)
(1.0101648 -0.0013733177 0)
(1.0099645 -0.00075023565 0)
(1.0098817 -0.00022793906 0)
(0.99979367 -0.00068021145 -2.0085544e-25)
(0.99936498 -0.00084056019 2.4569213e-24)
(0.99883088 -0.0010812349 -4.0179908e-24)
(0.9987214 -0.0011850006 8.3355877e-24)
(0.99885146 -0.0015148021 1.7107883e-23)
(0.99840757 -0.0015753466 -1.2396668e-23)
(0.99814276 -0.0020564122 -4.8648323e-23)
(0.99865447 -0.0020336265 9.9238499e-24)
(0.99820649 -0.0026862978 0)
(0.99750663 -0.002661528 0)
(0.99785454 -0.0033730516 0)
(0.99758684 -0.0036551276 0)
(0.99750035 -0.0042988495 0)
(0.99743008 -0.0050218643 0)
(0.99744146 -0.0056451708 0)
(0.9975553 -0.0066797424 0)
(0.99779415 -0.0074155486 0)
(0.99819462 -0.0085239335 0)
(0.99878345 -0.0093688023 0)
(0.99956156 -0.010344113 0)
(1.000546 -0.011111921 0)
(1.0017154 -0.011772438 0)
(1.0030394 -0.012188647 0)
(1.0044702 -0.012345108 0)
(1.0059282 -0.012191554 0)
(1.007341 -0.01172684 0)
(1.0086141 -0.010966517 0)
(1.0096859 -0.009962055 0)
(1.0104975 -0.0087828815 0)
(1.011038 -0.0075093673 0)
(1.0113086 -0.0062219559 0)
(1.0113505 -0.0049860931 0)
(1.0112105 -0.0038532418 0)
(1.010952 -0.0028522897 0)
(1.0106379 -0.0019956221 0)
(1.0103312 -0.001280134 0)
(1.0100936 -0.00069169849 0)
(1.0099862 -0.00020778755 0)
(0.99830893 -0.00049288829 1.9329756e-24)
(0.99950191 -0.00095980497 -1.0251422e-24)
(0.99940765 -0.00097256972 0)
(0.99872247 -0.0012640946 6.306092e-24)
(0.99860464 -0.0013522439 1.133658e-24)
(0.99868931 -0.001707326 0)
(0.99821347 -0.0017662871 3.1549854e-23)
(0.99791274 -0.0022895872 4.2594402e-23)
(0.99849545 -0.0022629446 0)
(0.99800254 -0.0029952535 0)
(0.99723813 -0.0029836259 0)
(0.9975737 -0.0037759388 0)
(0.99728572 -0.0041371201 0)
(0.9971956 -0.0048538856 0)
(0.9971412 -0.0056961746 0)
(0.99719349 -0.0063910019 0)
(0.99736901 -0.0075367368 0)
(0.9976957 -0.00834532 0)
(0.99820162 -0.009519169 0)
(0.99891671 -0.010411816 0)
(0.99983062 -0.011393464 0)
(1.0009624 -0.012152546 0)
(1.0022717 -0.012751811 0)
(1.0037316 -0.013083137 0)
(1.0052652 -0.01311045 0)
(1.0068019 -0.012808872 0)
(1.0082407 -0.012177282 0)
(1.0095063 -0.011253858 0)
(1.0105209 -0.010100064 0)
(1.0112539 -0.0087973307 0)
(1.0116886 -0.0074335039 0)
(1.011854 -0.0060866323 0)
(1.0117884 -0.0048232473 0)
(1.0115548 -0.00368534 0)
(1.0112157 -0.0026978768 0)
(1.0108371 -0.0018663833 0)
(1.0104812 -0.0011833845 0)
(1.0102082 -0.00063171009 0)
(1.0100776 -0.00018732939 0)
(0.99210479 -0.00039798661 0)
(0.99689528 -0.00077932988 0)
(0.99934744 -0.0010729971 1.0583989e-24)
(0.99936687 -0.0011628667 0)
(0.99867027 -0.0014242814 7.7137596e-26)
(0.99845256 -0.0015383607 -1.2605771e-23)
(0.99852803 -0.0018948432 -6.6258585e-23)
(0.99798882 -0.0019769848 -6.6748371e-23)
(0.99766866 -0.0025274218 0)
(0.99828556 -0.0025275534 0)
(0.99776907 -0.0033365664 0)
(0.99692352 -0.0033593438 0)
(0.99725667 -0.0042369047 0)
(0.99694682 -0.0047023675 0)
(0.99687072 -0.0054877185 0)
(0.99684098 -0.0064685047 0)
(0.99695541 -0.0072286669 0)
(0.99720665 -0.0084957709 0)
(0.99763934 -0.0093606411 0)
(0.99826584 -0.010603092 0)
(0.99911979 -0.011521236 0)
(1.0001846 -0.012506179 0)
(1.0014673 -0.013227367 0)
(1.0029287 -0.013755494 0)
(1.0045145 -0.013970656 0)
(1.0061536 -0.013854572 0)
(1.0077447 -0.013381442 0)
(1.0092017 -0.012573511 0)
(1.0104297 -0.011479474 0)
(1.0113772 -0.010177089 0)
(1.012007 -0.0087578126 0)
(1.0123316 -0.0073108814 0)
(1.0123783 -0.0059173515 0)
(1.0122063 -0.0046341968 0)
(1.0118767 -0.0035008109 0)
(1.011459 -0.0025330098 0)
(1.011018 -0.0017313744 0)
(1.0106152 -0.0010838749 0)
(1.0103089 -0.00057070961 0)
(1.0101566 -0.00016669816 0)
(0.98766284 -0.00054279352 1.3093639e-25)
(0.992133 0.00040916188 0)
(0.99590896 -0.00083596472 2.7240496e-24)
(0.99896622 -0.0012538536 3.696425e-24)
(0.99935335 -0.0013313145 1.2577345e-24)
(0.99859072 -0.0016044272 -2.7768087e-24)
(0.99831027 -0.0017236399 -1.4858372e-25)
(0.99832623 -0.0020972765 -6.8815251e-24)
(0.99774813 -0.0022016093 8.9690817e-23)
(0.99738063 -0.0027884977 0)
(0.9980374 -0.0028243214 1.5792419e-22)
(0.99748685 -0.003730982 0)
(0.99656945 -0.0037952521 0)
(0.99689554 -0.0047755366 0)
(0.99658148 -0.0053537751 0)
(0.99652938 -0.0062169739 0)
(0.99654435 -0.0073406768 0)
(0.99673589 -0.0081716427 0)
(0.99708192 -0.0095476649 0)
(0.99763583 -0.010473312 0)
(0.9983977 -0.011762399 0)
(0.99940552 -0.012705378 0)
(1.0006288 -0.013665715 0)
(1.0020761 -0.014339711 0)
(1.003685 -0.014765008 0)
(1.0054021 -0.014847898 0)
(1.0071259 -0.014560732 0)
(1.0087646 -0.013902625 0)
(1.0102092 -0.01290553 0)
(1.0113873 -0.011638325 0)
(1.0122395 -0.010191415 0)
(1.0127583 -0.0086622227 0)
(1.0129559 -0.0071452699 0)
(1.0128837 -0.0057135672 0)
(1.0125997 -0.0044229292 0)
(1.0121763 -0.0033011763 0)
(1.0116816 -0.002359429 0)
(1.011181 -0.0015917722 0)
(1.0107339 -0.0009823643 0)
(1.0103965 -0.00050910447 0)
(1.0102239 -0.00014601871 0)
(0.98488804 -0.00055575691 -2.4589158e-24)
(0.98770736 0.00055358876 0)
(0.99832697 0.00050066731 1.928572e-24)
(0.99434944 -0.00098657773 -3.6945791e-24)
(0.99856881 -0.0013988102 -5.8560036e-25)
(0.99926712 -0.0015131497 -2.4007786e-23)
(0.99852073 -0.0017778543 4.4727149e-23)
(0.99813306 -0.0019234546 1.9716197e-23)
(0.99810656 -0.0023010988 6.8674292e-23)
(0.99746721 -0.0024558276 2.9675388e-23)
(0.99705675 -0.0030769882 1.5533323e-22)
(0.99772992 -0.003168979 -1.6461973e-22)
(0.99716039 -0.0041840653 0)
(0.9961666 -0.0043136162 0)
(0.99650168 -0.0053953516 0)
(0.9961929 -0.0061095092 0)
(0.99618599 -0.0070458517 0)
(0.99626017 -0.0083265443 0)
(0.99654911 -0.0092142992 0)
(0.99700541 -0.010703388 0)
(0.99769688 -0.011672823 0)
(0.99860917 -0.013005606 0)
(0.99978142 -0.013949836 0)
(1.0011785 -0.014876449 0)
(1.0027911 -0.015472022 0)
(1.0045556 -0.015777615 0)
(1.0063881 -0.015696889 0)
(1.0081917 -0.01522139 0)
(1.009848 -0.014359698 0)
(1.011266 -0.013166714 0)
(1.0123631 -0.011726339 0)
(1.0131086 -0.01014001 0)
(1.0134954 -0.0085133477 0)
(1.0135629 -0.0069357968 0)
(1.0133629 -0.005480463 0)
(1.0129692 -0.0041901947 0)
(1.0124525 -0.0030889631 0)
(1.0118839 -0.0021786614 0)
(1.0113266 -0.0014487024 0)
(1.010838 -0.00087956066 0)
(1.0104716 -0.00044726981 0)
(1.0102803 -0.00012541332 0)
(0.98099613 -0.00062143585 -9.5897708e-25)
(0.98493402 0.0005563085 -3.1236636e-24)
(0.99691909 0.00078797075 0)
(0.99979458 0.00068953193 -2.0290193e-25)
(0.99279857 -0.001088888 6.3014139e-25)
(0.99798428 -0.0015553679 1.2127447e-23)
(0.9991465 -0.0016884852 0)
(0.99841486 -0.0019621349 -1.9581043e-23)
(0.99794042 -0.0021307746 2.8511934e-23)
(0.99784212 -0.0025245059 -2.9297892e-23)
(0.99714894 -0.002733905 -1.5513785e-22)
(0.99668113 -0.003409549 -1.6160027e-22)
(0.99737545 -0.0035677081 0)
(0.99678221 -0.0047143828 0)
(0.99572692 -0.0049193692 0)
(0.99607835 -0.0061139276 0)
(0.99579598 -0.0069764804 0)
(0.99584985 -0.0079865286 0)
(0.99600374 -0.0094215663 0)
(0.99640579 -0.010367 0)
(0.99698992 -0.011953259 0)
(0.9978334 -0.012966956 0)
(0.99890928 -0.014320117 0)
(1.000262 -0.01525954 0)
(1.0018388 -0.016122328 0)
(1.0036277 -0.016622336 0)
(1.0055379 -0.016774786 0)
(1.0074836 -0.016509465 0)
(1.0093392 -0.015821207 0)
(1.0109984 -0.014744273 0)
(1.0123563 -0.013350205 0)
(1.013357 -0.011739126 0)
(1.0139703 -0.010024191 0)
(1.0142186 -0.0083100552 0)
(1.0141436 -0.006687865 0)
(1.0138174 -0.0052179734 0)
(1.0133122 -0.0039401181 0)
(1.0127056 -0.0028658424 0)
(1.0120661 -0.0019923042 0)
(1.0114554 -0.0013032245 0)
(1.0109281 -0.00077612018 0)
(1.010535 -0.0003855486 0)
(1.0103265 -0.00010500812 0)
(0.9773301 -0.00066121331 1.2741503e-24)
(0.98102355 0.00060520947 9.5847728e-25)
(0.99592712 0.0008395462 2.7208533e-24)
(0.9994971 0.00097061594 1.0239927e-24)
(0.99945057 0.0005804976 -5.4569239e-24)
(0.99093507 -0.0011991002 -1.21573e-23)
(0.99731431 -0.0016964631 -8.0167259e-24)
(0.99893025 -0.0018684415 0)
(0.99828969 -0.0021477907 -2.8295081e-23)
(0.9977016 -0.0023546151 9.2454383e-24)
(0.99754014 -0.0027680847 0)
(0.99677737 -0.0030551734 1.8276767e-22)
(0.99625967 -0.0037903012 0)
(0.99695358 -0.004047419 0)
(0.99636138 -0.0053299727 0)
(0.9952488 -0.0056336291 0)
(0.9956399 -0.0069384507 0)
(0.99540041 -0.0079686757 0)
(0.99553611 -0.0090376577 0)
(0.9957865 -0.010635095 0)
(0.99631942 -0.011623287 0)
(0.99704549 -0.013304701 0)
(0.99805546 -0.014345766 0)
(0.99931187 -0.015711928 0)
(1.0008551 -0.016620633 0)
(1.002626 -0.017402795 0)
(1.0045878 -0.017772482 0)
(1.0066449 -0.017748146 0)
(1.0086799 -0.017268016 0)
(1.0105732 -0.016349956 0)
(1.0122003 -0.015046355 0)
(1.0134793 -0.013449798 0)
(1.0143537 -0.011675985 0)
(1.0148239 -0.0098421991 0)
(1.0149171 -0.008057281 0)
(1.0146991 -0.0064012993 0)
(1.0142421 -0.0049318565 0)
(1.0136293 -0.0036737547 0)
(1.0129353 -0.0026342067 0)
(1.0122286 -0.0018017886 0)
(1.011568 -0.0011563305 0)
(1.011005 -0.00067264512 0)
(1.0105874 -0.00032424391 0)
(1.0103632 -8.4817602e-05 0)
(0.9732954 -0.00070328576 -7.3514395e-25)
(0.97732919 0.00062539863 -1.2737129e-24)
(0.99432906 0.00097911839 -3.6907263e-24)
(0.99934774 0.0010815178 -1.0572127e-24)
(0.99937187 0.00084912575 3.6506242e-24)
(0.99913553 0.00071841514 3.1522168e-24)