/*--------------------------------*- C++ -*----------------------------------*\
| =========                 |                                                 |
| \\      /  F ield         | OpenFOAM: The Open Source CFD Toolbox           |
|  \\    /   O peration     | Version:  5.0                                   |
|   \\  /    A nd           | Web:      www.OpenFOAM.org                      |
|    \\/     M anipulation  |                                                 |
\*---------------------------------------------------------------------------*/
FoamFile
{
    version     2.0;
    format      ascii;
    class       volSymmTensorField;
    location    "40";
    object      UPrime2Mean;
}
// * * * * * * * * * * * * * * * * * * * * * * * * * * * * * * * * * * * * * //

dimensions      [0 2 -2 0 0 0 0];

internalField   nonuniform List<symmTensor> 
9520
(
(1.0856393e-07 -1.6893808e-08 0 3.5023792e-09 0 0)
(1.0935684e-07 -4.9520828e-08 0 2.9882452e-08 0 0)
(2.3425974e-07 -2.6765356e-08 0 3.583392e-09 0 0)
(1.1057076e-07 -7.9965299e-08 0 7.6907135e-08 0 0)
(2.3440818e-07 -7.8200946e-08 0 3.0659675e-08 0 0)
(3.0203098e-07 -3.0984615e-08 0 3.6434598e-09 0 0)
(1.1180278e-07 -1.0800184e-07 0 1.3857141e-07 0 0)
(2.3422032e-07 -1.2544576e-07 0 7.937591e-08 0 0)
(3.0197834e-07 -9.0538304e-08 0 3.1215999e-08 0 0)
(4.3160682e-07 -3.7901417e-08 0 3.7695109e-09 0 0)
(1.1263988e-07 -1.3340149e-07 0 2.0971236e-07 0 0)
(2.3342815e-07 -1.6815086e-07 0 1.4418182e-07 0 0)
(3.0169962e-07 -1.4538788e-07 0 8.1040279e-08 0 0)
(4.3133661e-07 -1.1095187e-07 0 3.2430821e-08 0 0)
(5.479174e-07 -4.314662e-08 0 3.8755904e-09 0 0)
(1.1278741e-07 -1.5577131e-07 0 2.8580623e-07 0 0)
(2.3161508e-07 -2.0607631e-07 0 2.2029466e-07 0 0)
(3.0051503e-07 -1.9506338e-07 0 1.4773325e-07 0 0)
(4.3041198e-07 -1.7841073e-07 0 8.4608012e-08 0 0)
(5.478034e-07 -1.2650888e-07 0 3.341828e-08 0 0)
(6.9371508e-07 -4.8927061e-08 0 4.0071083e-09 0 0)
(1.1198545e-07 -1.74794e-07 0 3.6342313e-07 0 0)
(2.2840168e-07 -2.3877683e-07 0 3.0343398e-07 0 0)
(2.9805867e-07 -2.3932299e-07 0 2.2673692e-07 0 0)
(4.2828453e-07 -2.3989761e-07 0 1.5525389e-07 0 0)
(5.472373e-07 -2.0394024e-07 0 8.7523391e-08 0 0)
(6.9494262e-07 -1.4390945e-07 0 3.4672849e-08 0 0)
(8.3883562e-07 -5.4032124e-08 0 4.1345357e-09 0 0)
(1.1012273e-07 -1.9012717e-07 0 4.3959499e-07 0 0)
(2.2358721e-07 -2.6602301e-07 0 3.903404e-07 0 0)
(2.9398247e-07 -2.7777366e-07 0 3.1397459e-07 0 0)
(4.2455885e-07 -2.9514225e-07 0 2.4010259e-07 0 0)
(5.4538185e-07 -2.7511624e-07 0 1.6139878e-07 0 0)
(6.9641856e-07 -2.3297792e-07 0 9.1266812e-08 0 0)
(8.4187072e-07 -1.5935698e-07 0 3.5866403e-08 0 0)
(1.0030658e-06 -5.9727196e-08 0 4.3098115e-09 0 0)
(1.0717956e-07 -2.0170687e-07 0 5.1273801e-07 0 0)
(2.1716768e-07 -2.8758347e-07 0 4.7808424e-07 0 0)
(2.8811663e-07 -3.1021656e-07 0 4.0629406e-07 0 0)
(4.187914e-07 -3.4368021e-07 0 3.3525747e-07 0 0)
(5.4183331e-07 -3.3976396e-07 0 2.5103048e-07 0 0)
(6.9706154e-07 -3.1608995e-07 0 1.6944465e-07 0 0)
(8.4648553e-07 -2.5907457e-07 0 9.4814643e-08 0 0)
(1.010064e-06 -1.7677891e-07 0 3.7505779e-08 0 0)
(1.1678063e-06 -6.5450509e-08 0 4.4894172e-09 0 0)
(1.0321132e-07 -2.092535e-07 0 5.8066743e-07 0 0)
(2.0926903e-07 -3.035588e-07 0 5.6495771e-07 0 0)
(2.8044435e-07 -3.3641e-07 0 5.0081666e-07 0 0)
(4.1084134e-07 -3.8524338e-07 0 4.3760453e-07 0 0)
(5.3605646e-07 -3.9741801e-07 0 3.5276267e-07 0 0)
(6.9619339e-07 -3.9295744e-07 0 2.656312e-07 0 0)
(8.5089178e-07 -3.5337838e-07 0 1.7699353e-07 0 0)
(1.0211779e-06 -2.8892317e-07 0 9.9638587e-08 0 0)
(1.1790338e-06 -1.9424156e-07 0 3.9164581e-08 0 0)
(1.3530123e-06 -7.2562177e-08 0 4.760543e-09 0 0)
(9.8365577e-08 -2.1327138e-07 0 6.4449081e-07 0 0)
(2.0019542e-07 -3.1387094e-07 0 6.4865307e-07 0 0)
(2.7114511e-07 -3.5646238e-07 0 5.9576627e-07 0 0)
(4.0074546e-07 -4.1954417e-07 0 5.4422308e-07 0 0)
(5.2785867e-07 -4.4774915e-07 0 4.6362185e-07 0 0)
(6.9297602e-07 -4.6296984e-07 0 3.7647367e-07 0 0)
(8.5410119e-07 -4.4200718e-07 0 2.7921317e-07 0 0)
(1.0338193e-06 -3.9689761e-07 0 1.8724593e-07 0 0)
(1.1976079e-06 -3.1893616e-07 0 1.0449639e-07 0 0)
(1.3711046e-06 -2.1608855e-07 0 4.1655615e-08 0 0)
(1.5395926e-06 -8.0056762e-08 0 5.0579648e-09 0 0)
(9.2809827e-08 -2.1301097e-07 0 6.9983631e-07 0 0)
(1.9015434e-07 -3.1918549e-07 0 7.2997205e-07 0 0)
(2.6057512e-07 -3.7029235e-07 0 6.8879312e-07 0 0)
(3.8877205e-07 -4.4665302e-07 0 6.5313917e-07 0 0)
(5.1723042e-07 -4.9036196e-07 0 5.8071884e-07 0 0)
(6.8695284e-07 -5.2555556e-07 0 4.9913266e-07 0 0)
(8.5497911e-07 -5.2427107e-07 0 3.9846014e-07 0 0)
(1.0461074e-06 -5.0059561e-07 0 2.9775317e-07 0 0)
(1.2199172e-06 -4.4079788e-07 0 1.9747841e-07 0 0)
(1.4013742e-06 -3.5683692e-07 0 1.1170111e-07 0 0)
(1.5646843e-06 -2.390698e-07 0 4.4356638e-08 0 0)
(1.7513269e-06 -8.917946e-08 0 5.4700504e-09 0 0)
(8.6844608e-08 -2.1043606e-07 0 7.5484372e-07 0 0)
(1.7977992e-07 -3.1901844e-07 0 8.0427078e-07 0 0)
(2.4905074e-07 -3.7863382e-07 0 7.8046352e-07 0 0)
(3.7539635e-07 -4.6648246e-07 0 7.6185142e-07 0 0)
(5.0443001e-07 -5.2519521e-07 0 7.0195369e-07 0 0)
(6.7790556e-07 -5.8001817e-07 0 6.3067561e-07 0 0)
(8.5276612e-07 -5.9942228e-07 0 5.3214313e-07 0 0)
(1.0562119e-06 -5.9915458e-07 0 4.2862616e-07 0 0)
(1.2433461e-06 -5.6006261e-07 0 3.1615273e-07 0 0)
(1.4391317e-06 -4.9694131e-07 0 2.1251548e-07 0 0)
(1.6075965e-06 -3.9685538e-07 0 1.1946164e-07 0 0)
(1.7866664e-06 -2.6726235e-07 0 4.8095336e-08 0 0)
(1.9652152e-06 -9.8225354e-08 0 5.870734e-09 0 0)
(8.061123e-08 -2.027399e-07 0 7.9424634e-07 0 0)
(1.6908134e-07 -3.1547242e-07 0 8.7978452e-07 0 0)
(2.3724541e-07 -3.809398e-07 0 8.6609903e-07 0 0)
(3.6100862e-07 -4.7975879e-07 0 8.7047082e-07 0 0)
(4.8995258e-07 -5.5203911e-07 0 8.2469198e-07 0 0)
(6.6594478e-07 -6.2596072e-07 0 7.6874021e-07 0 0)
(8.4695649e-07 -6.6646067e-07 0 6.7740051e-07 0 0)
(1.0626903e-06 -6.9144012e-07 0 5.7756938e-07 0 0)
(1.2652889e-06 -6.7587878e-07 0 4.5857744e-07 0 0)
(1.4803936e-06 -6.3710476e-07 0 3.4298756e-07 0 0)
(1.6625843e-06 -5.5651633e-07 0 2.2859371e-07 0 0)
(1.847563e-06 -4.4646844e-07 0 1.30164e-07 0 0)
(2.0109548e-06 -2.9521102e-07 0 5.1711651e-08 0 0)
(2.2057061e-06 -1.0812438e-07 0 6.2992152e-09 0 0)
(7.4583731e-08 -1.9541375e-07 0 8.4604624e-07 0 0)
(1.5911977e-07 -3.0591756e-07 0 9.3966759e-07 0 0)
(2.2527354e-07 -3.7956263e-07 0 9.5366143e-07 0 0)
(3.4645028e-07 -4.859204e-07 0 9.7420089e-07 0 0)
(4.7422364e-07 -5.7150014e-07 0 9.4863443e-07 0 0)
(6.5149563e-07 -6.6287873e-07 0 9.1039538e-07 0 0)
(8.3743015e-07 -7.2462203e-07 0 8.3174019e-07 0 0)
(1.0644031e-06 -7.7587306e-07 0 7.4174945e-07 0 0)
(1.2834685e-06 -7.8685511e-07 0 6.2293628e-07 0 0)
(1.5212455e-06 -7.7641949e-07 0 5.0193864e-07 0 0)
(1.7246606e-06 -7.1943177e-07 0 3.7153589e-07 0 0)
(1.9269038e-06 -6.31288e-07 0 2.5070237e-07 0 0)
(2.0910257e-06 -4.9590279e-07 0 1.4051755e-07 0 0)
(2.2657568e-06 -3.2611106e-07 0 5.5618427e-08 0 0)
(2.4460124e-06 -1.1689618e-07 0 6.6127151e-09 0 0)
(6.8665339e-08 -1.8055429e-07 0 8.645568e-07 0 0)
(1.4925296e-07 -2.9613467e-07 0 1.0151311e-06 0 0)
(2.1415218e-07 -3.7144899e-07 0 1.0259373e-06 0 0)
(3.3177311e-07 -4.8746704e-07 0 1.0804766e-06 0 0)
(4.5817544e-07 -5.8292958e-07 0 1.0688967e-06 0 0)
(6.349883e-07 -6.9108453e-07 0 1.0546798e-06 0 0)
(8.2446138e-07 -7.7305453e-07 0 9.9203754e-07 0 0)
(1.0607993e-06 -8.5106106e-07 0 9.1844981e-07 0 0)
(1.2959817e-06 -8.9093758e-07 0 8.0666848e-07 0 0)
(1.5581096e-06 -9.1306405e-07 0 6.8814532e-07 0 0)
(1.788465e-06 -8.8485485e-07 0 5.4805267e-07 0 0)
(2.0180563e-06 -8.2385879e-07 0 4.1060309e-07 0 0)
(2.1971563e-06 -7.064454e-07 0 2.7218327e-07 0 0)
(2.371698e-06 -5.5131983e-07 0 1.5184752e-07 0 0)
(2.5203217e-06 -3.5357576e-07 0 5.8500921e-08 0 0)
(2.7085508e-06 -1.2539477e-07 0 6.8554075e-09 0 0)
(6.3538258e-08 -1.7040115e-07 0 9.2233923e-07 0 0)
(1.4113949e-07 -2.7773152e-07 0 1.0526583e-06 0 0)
(2.0326974e-07 -3.6320208e-07 0 1.1148818e-06 0 0)
(3.1830471e-07 -4.8102958e-07 0 1.1715933e-06 0 0)
(4.4184178e-07 -5.8886086e-07 0 1.192314e-06 0 0)
(6.1746596e-07 -7.0974097e-07 0 1.1963968e-06 0 0)
(8.0845163e-07 -8.1171501e-07 0 1.156801e-06 0 0)
(1.0518805e-06 -9.1553625e-07 0 1.1041608e-06 0 0)
(1.3015867e-06 -9.8603746e-07 0 1.0070016e-06 0 0)
(1.5877743e-06 -1.0441902e-06 0 8.9931422e-07 0 0)
(1.8489002e-06 -1.0506807e-06 0 7.5775294e-07 0 0)
(2.1138876e-06 -1.0236069e-06 0 6.108065e-07 0 0)
(2.3215909e-06 -9.3009455e-07 0 4.4885532e-07 0 0)
(2.5135488e-06 -7.9196739e-07 0 2.9601975e-07 0 0)
(2.653084e-06 -6.0101934e-07 0 1.6037558e-07 0 0)
(2.8015849e-06 -3.8063134e-07 0 6.0811096e-08 0 0)
(2.9657906e-06 -1.3195036e-07 0 6.9379156e-09 0 0)
(5.8679578e-08 -1.4814835e-07 0 9.1462398e-07 0 0)
(1.3318005e-07 -2.6422003e-07 0 1.1394872e-06 0 0)
(1.9431775e-07 -3.4508864e-07 0 1.1642186e-06 0 0)
(3.051427e-07 -4.7416142e-07 0 1.280519e-06 0 0)
(4.2680736e-07 -5.8567253e-07 0 1.3009806e-06 0 0)
(5.9911476e-07 -7.2140531e-07 0 1.3414715e-06 0 0)
(7.9061909e-07 -8.3969144e-07 0 1.3208624e-06 0 0)
(1.0380078e-06 -9.686302e-07 0 1.2965643e-06 0 0)
(1.2997675e-06 -1.0699433e-06 0 1.2201696e-06 0 0)
(1.607864e-06 -1.1666657e-06 0 1.1325578e-06 0 0)
(1.9012283e-06 -1.2133947e-06 0 9.9893388e-07 0 0)
(2.2073482e-06 -1.2280795e-06 0 8.5201714e-07 0 0)
(2.4553828e-06 -1.1667843e-06 0 6.7292124e-07 0 0)
(2.6816953e-06 -1.0525906e-06 0 4.9183077e-07 0 0)
(2.8332343e-06 -8.6976449e-07 0 3.1447538e-07 0 0)
(2.9690339e-06 -6.511088e-07 0 1.6755081e-07 0 0)
(3.0770407e-06 -4.0171449e-07 0 6.1685546e-08 0 0)
(3.2366843e-06 -1.3736497e-07 0 6.914571e-09 0 0)
(5.5084054e-08 -1.3616475e-07 0 9.843569e-07 0 0)
(1.2765124e-07 -2.3636266e-07 0 1.1446867e-06 0 0)
(1.855197e-07 -3.3286462e-07 0 1.2668451e-06 0 0)
(2.9467557e-07 -4.555936e-07 0 1.3471031e-06 0 0)
(4.1202029e-07 -5.816801e-07 0 1.428233e-06 0 0)
(5.8203993e-07 -7.2241176e-07 0 1.4720863e-06 0 0)
(7.711871e-07 -8.5923815e-07 0 1.4890958e-06 0 0)
(1.0204112e-06 -1.0089514e-06 0 1.4899228e-06 0 0)
(1.2905086e-06 -1.1411135e-06 0 1.4431027e-06 0 0)
(1.6168974e-06 -1.2770843e-06 0 1.3836401e-06 0 0)
(1.9416114e-06 -1.3688594e-06 0 1.2689467e-06 0 0)
(2.2915026e-06 -1.4328325e-06 0 1.1333224e-06 0 0)
(2.5894143e-06 -1.4140258e-06 0 9.4657251e-07 0 0)
(2.865176e-06 -1.3337879e-06 0 7.4345526e-07 0 0)
(3.0501783e-06 -1.1661748e-06 0 5.262587e-07 0 0)
(3.1981146e-06 -9.5000073e-07 0 3.3075904e-07 0 0)
(3.2792526e-06 -6.9090001e-07 0 1.7072735e-07 0 0)
(3.3708228e-06 -4.1969068e-07 0 6.1652772e-08 0 0)
(3.4970963e-06 -1.4045065e-07 0 6.7438048e-09 0 0)
(5.173574e-08 -1.0487593e-07 0 9.5469612e-07 0 0)
(1.2223388e-07 -2.2062862e-07 0 1.2531715e-06 0 0)
(1.7948201e-07 -3.0404031e-07 0 1.2806648e-06 0 0)
(2.8429081e-07 -4.4414744e-07 0 1.4725929e-06 0 0)
(4.0047719e-07 -5.6429641e-07 0 1.5112308e-06 0 0)
(5.6503308e-07 -7.2176284e-07 0 1.6212226e-06 0 0)
(7.5259684e-07 -8.6647595e-07 0 1.6436385e-06 0 0)
(9.9946179e-07 -1.0382672e-06 0 1.6875579e-06 0 0)
(1.2748065e-06 -1.1975219e-06 0 1.6696158e-06 0 0)
(1.6142588e-06 -1.3726361e-06 0 1.6484617e-06 0 0)
(1.9672019e-06 -1.512423e-06 0 1.5634412e-06 0 0)
(2.3605681e-06 -1.6324465e-06 0 1.4524946e-06 0 0)
(2.7146516e-06 -1.6668498e-06 0 1.2702499e-06 0 0)
(3.0525596e-06 -1.6332223e-06 0 1.0550466e-06 0 0)
(3.291337e-06 -1.4921245e-06 0 8.020502e-07 0 0)
(3.4763104e-06 -1.2856453e-06 0 5.5790759e-07 0 0)
(3.5589784e-06 -1.0154265e-06 0 3.3914004e-07 0 0)
(3.6162022e-06 -7.2633997e-07 0 1.7154261e-07 0 0)
(3.6528711e-06 -4.3041332e-07 0 6.0277515e-08 0 0)
(3.7601364e-06 -1.4180818e-07 0 6.471686e-09 0 0)
(5.1004079e-08 -9.0845549e-08 0 1.0227291e-06 0 0)
(1.195503e-07 -1.8056264e-07 0 1.225225e-06 0 0)
(1.7335217e-07 -2.8963764e-07 0 1.4096504e-06 0 0)
(2.7786757e-07 -4.127404e-07 0 1.4983496e-06 0 0)
(3.8892109e-07 -5.5512997e-07 0 1.6574001e-06 0 0)
(5.519679e-07 -7.056529e-07 0 1.7239413e-06 0 0)
(7.3342838e-07 -8.7069419e-07 0 1.8166752e-06 0 0)
(9.779531e-07 -1.0525957e-06 0 1.8716205e-06 0 0)
(1.2528701e-06 -1.2400526e-06 0 1.9014466e-06 0 0)
(1.6005303e-06 -1.4502448e-06 0 1.9199608e-06 0 0)
(1.9763641e-06 -1.6398314e-06 0 1.8776026e-06 0 0)
(2.4099261e-06 -1.8206574e-06 0 1.8051353e-06 0 0)
(2.8227438e-06 -1.9186178e-06 0 1.642679e-06 0 0)
(3.2319965e-06 -1.9452654e-06 0 1.4287896e-06 0 0)
(3.5430167e-06 -1.8459269e-06 0 1.1483887e-06 0 0)
(3.789269e-06 -1.6614163e-06 0 8.5778627e-07 0 0)
(3.9034839e-06 -1.3862195e-06 0 5.7648035e-07 0 0)
(3.9581268e-06 -1.0761648e-06 0 3.4315851e-07 0 0)
(3.9400271e-06 -7.4893111e-07 0 1.6851518e-07 0 0)
(3.941834e-06 -4.3609114e-07 0 5.8003946e-08 0 0)
(4.0090557e-06 -1.4077111e-07 0 6.091046e-09 0 0)
(5.1530625e-08 -4.482581e-08 0 1.0048083e-06 0 0)
(1.1848628e-07 -1.6366939e-07 0 1.3453704e-06 0 0)
(1.7052304e-07 -2.4748851e-07 0 1.3840768e-06 0 0)
(2.7114058e-07 -3.995796e-07 0 1.6569595e-06 0 0)
(3.8239282e-07 -5.2273101e-07 0 1.6947932e-06 0 0)
(5.3855572e-07 -6.9856902e-07 0 1.8930723e-06 0 0)
(7.1822958e-07 -8.5696858e-07 0 1.9416772e-06 0 0)
(9.5422769e-07 -1.0611386e-06 0 2.0725546e-06 0 0)
(1.2276729e-06 -1.264397e-06 0 2.120655e-06 0 0)
(1.5761185e-06 -1.5097028e-06 0 2.1977886e-06 0 0)
(1.9692594e-06 -1.746933e-06 0 2.2038516e-06 0 0)
(2.4366917e-06 -1.9913962e-06 0 2.1856878e-06 0 0)
(2.9066227e-06 -2.1613573e-06 0 2.0599298e-06 0 0)
(3.3922834e-06 -2.2619908e-06 0 1.8648023e-06 0 0)
(3.7902635e-06 -2.2218033e-06 0 1.5698324e-06 0 0)
(4.1210644e-06 -2.0766099e-06 0 1.2397699e-06 0 0)
(4.29744e-06 -1.8088657e-06 0 8.9420759e-07 0 0)
(4.3825286e-06 -1.482676e-06 0 5.8817879e-07 0 0)
(4.34399e-06 -1.1176901e-06 0 3.3931522e-07 0 0)
(4.2787533e-06 -7.6347376e-07 0 1.6302338e-07 0 0)
(4.2149643e-06 -4.3422339e-07 0 5.4721356e-08 0 0)
(4.2495196e-06 -1.3769176e-07 0 5.636836e-09 0 0)
(5.4302524e-08 -3.2782801e-08 0 1.0233768e-06 0 0)
(1.2174029e-07 -1.0390907e-07 0 1.3180936e-06 0 0)
(1.6914323e-07 -2.3192382e-07 0 1.5321885e-06 0 0)
(2.6903308e-07 -3.5268347e-07 0 1.633313e-06 0 0)
(3.7524041e-07 -5.1228834e-07 0 1.8798558e-06 0 0)
(5.3135152e-07 -6.6415863e-07 0 1.9431917e-06 0 0)
(7.0156843e-07 -8.5196562e-07 0 2.1352349e-06 0 0)
(9.3379705e-07 -1.048325e-06 0 2.2227369e-06 0 0)
(1.1977902e-06 -1.2794609e-06 0 2.3556692e-06 0 0)
(1.5448111e-06 -1.5467924e-06 0 2.4639944e-06 0 0)
(1.9462787e-06 -1.8321904e-06 0 2.5400239e-06 0 0)
(2.4398643e-06 -2.1386137e-06 0 2.5855739e-06 0 0)
(2.9610988e-06 -2.3867365e-06 0 2.5160847e-06 0 0)
(3.5232015e-06 -2.5734227e-06 0 2.3600027e-06 0 0)
(4.0183514e-06 -2.6108641e-06 0 2.0686485e-06 0 0)
(4.4538419e-06 -2.5257054e-06 0 1.7113903e-06 0 0)
(4.7227507e-06 -2.2842965e-06 0 1.3048433e-06 0 0)
(4.8729026e-06 -1.9539242e-06 0 9.2088752e-07 0 0)
(4.8516085e-06 -1.5532236e-06 0 5.8631095e-07 0 0)
(4.7560258e-06 -1.1485381e-06 0 3.3062303e-07 0 0)
(4.5986687e-06 -7.6431575e-07 0 1.5454032e-07 0 0)
(4.4823541e-06 -4.2620058e-07 0 5.0766222e-08 0 0)
(4.4728764e-06 -1.323624e-07 0 5.12355e-09 0 0)
(6.1155752e-08 3.7629107e-08 0 1.0786128e-06 0 0)
(1.2471923e-07 -9.0492811e-08 0 1.3947113e-06 0 0)
(1.7341331e-07 -1.692225e-07 0 1.4997432e-06 0 0)
(2.6868932e-07 -3.3968839e-07 0 1.8218502e-06 0 0)
(3.7411683e-07 -4.6202444e-07 0 1.8581542e-06 0 0)
(5.2271569e-07 -6.5565768e-07 0 2.1559164e-06 0 0)
(6.9186697e-07 -8.1515157e-07 0 2.2007919e-06 0 0)
(9.103717e-07 -1.0430636e-06 0 2.4420931e-06 0 0)
(1.1699783e-06 -1.2695091e-06 0 2.5386373e-06 0 0)
(1.5056768e-06 -1.5697176e-06 0 2.7441244e-06 0 0)
(1.9111673e-06 -1.8906289e-06 0 2.8678217e-06 0 0)
(2.4191667e-06 -2.2584175e-06 0 2.9998998e-06 0 0)
(2.9833605e-06 -2.5864632e-06 0 3.0020117e-06 0 0)
(3.6167423e-06 -2.8687337e-06 0 2.9085853e-06 0 0)
(4.2135088e-06 -3.0015427e-06 0 2.6435966e-06 0 0)
(4.7694134e-06 -2.999319e-06 0 2.2778482e-06 0 0)
(5.1582102e-06 -2.8079516e-06 0 1.8194821e-06 0 0)
(5.4098581e-06 -2.4930003e-06 0 1.3572714e-06 0 0)
(5.4467725e-06 -2.0667265e-06 0 9.2652398e-07 0 0)
(5.3603837e-06 -1.6107485e-06 0 5.7624419e-07 0 0)
(5.1463588e-06 -1.1581858e-06 0 3.1554701e-07 0 0)
(4.9191985e-06 -7.5474856e-07 0 1.4411722e-07 0 0)
(4.7310452e-06 -4.1103459e-07 0 4.6239238e-08 0 0)
(4.6795902e-06 -1.2500826e-07 0 4.5792747e-09 0 0)
(6.6642616e-08 5.5214378e-08 0 9.9094224e-07 0 0)
(1.3712561e-07 1.9345615e-09 0 1.4469408e-06 0 0)
(1.7533966e-07 -1.5637527e-07 0 1.6092321e-06 0 0)
(2.7476876e-07 -2.7033153e-07 0 1.7789457e-06 0 0)
(3.7440784e-07 -4.5281739e-07 0 2.0829983e-06 0 0)
(5.2152455e-07 -5.9966483e-07 0 2.1335792e-06 0 0)
(6.7930742e-07 -8.0712256e-07 0 2.4417215e-06 0 0)
(8.948598e-07 -1.0010942e-06 0 2.5227085e-06 0 0)
(1.1374692e-06 -1.2648782e-06 0 2.7910972e-06 0 0)
(1.466878e-06 -1.5631415e-06 0 2.9700846e-06 0 0)
(1.8631481e-06 -1.9288411e-06 0 3.2090465e-06 0 0)
(2.3781152e-06 -2.3446077e-06 0 3.4094556e-06 0 0)
(2.97194e-06 -2.7539332e-06 0 3.5105935e-06 0 0)
(3.6673925e-06 -3.136685e-06 0 3.5009244e-06 0 0)
(4.3642268e-06 -3.380665e-06 0 3.290011e-06 0 0)
(5.0497957e-06 -3.4844061e-06 0 2.9404897e-06 0 0)
(5.5818562e-06 -3.3705364e-06 0 2.4469527e-06 0 0)
(5.9699785e-06 -3.0971995e-06 0 1.9125795e-06 0 0)
(6.1088927e-06 -2.6641943e-06 0 1.379489e-06 0 0)
(6.0757831e-06 -2.164562e-06 0 9.1955121e-07 0 0)
(5.8474746e-06 -1.6383915e-06 0 5.546319e-07 0 0)
(5.5472254e-06 -1.1528419e-06 0 2.9638631e-07 0 0)
(5.2172027e-06 -7.3199057e-07 0 1.3189944e-07 0 0)
(4.9638639e-06 -3.8958129e-07 0 4.1403538e-08 0 0)
(4.866173e-06 -1.1571128e-07 0 4.0267802e-09 0 0)
(9.2257363e-08 1.490126e-07 0 1.1635172e-06 0 0)
(1.4140331e-07 2.4939676e-08 0 1.3997085e-06 0 0)
(1.9102299e-07 -6.0446314e-08 0 1.6571834e-06 0 0)
(2.7800581e-07 -2.6010172e-07 0 1.9370762e-06 0 0)
(3.8261738e-07 -3.776046e-07 0 2.0293114e-06 0 0)
(5.2108678e-07 -5.9287563e-07 0 2.3957655e-06 0 0)
(6.7627789e-07 -7.4379448e-07 0 2.4214054e-06 0 0)
(8.7527363e-07 -9.9098826e-07 0 2.7921274e-06 0 0)
(1.1138438e-06 -1.2186974e-06 0 2.8959673e-06 0 0)
(1.4209704e-06 -1.5579146e-06 0 3.2640989e-06 0 0)
(1.8111545e-06 -1.9313958e-06 0 3.495621e-06 0 0)
(2.3162672e-06 -2.4015231e-06 0 3.8312104e-06 0 0)
(2.929532e-06 -2.8811764e-06 0 4.0221672e-06 0 0)
(3.6721577e-06 -3.367511e-06 0 4.1278848e-06 0 0)
(4.462043e-06 -3.7344177e-06 0 3.9991298e-06 0 0)
(5.2791036e-06 -3.9653525e-06 0 3.6965387e-06 0 0)
(5.9714004e-06 -3.9583358e-06 0 3.1922604e-06 0 0)
(6.5277996e-06 -3.7581432e-06 0 2.6000962e-06 0 0)
(6.8121232e-06 -3.3454631e-06 0 1.9648331e-06 0 0)
(6.8824163e-06 -2.8194606e-06 0 1.3836641e-06 0 0)
(6.6882893e-06 -2.2230676e-06 0 8.9371563e-07 0 0)
(6.357307e-06 -1.6459655e-06 0 5.256122e-07 0 0)
(5.9202386e-06 -1.1264909e-06 0 2.7312559e-07 0 0)
(5.5023683e-06 -6.9813681e-07 0 1.1868434e-07 0 0)
(5.1751394e-06 -3.6191934e-07 0 3.64539e-08 0 0)
(5.031597e-06 -1.0468084e-07 0 3.4890709e-09 0 0)
(1.1214433e-07 1.6510782e-07 0 9.4995426e-07 0 0)
(1.8303381e-07 1.4317133e-07 0 1.6008259e-06 0 0)
(1.9078751e-07 -3.4775744e-08 0 1.6338637e-06 0 0)
(2.9719088e-07 -1.5615133e-07 0 1.9733912e-06 0 0)
(3.8577266e-07 -3.7090073e-07 0 2.2317105e-06 0 0)
(5.2996682e-07 -5.0878516e-07 0 2.3235023e-06 0 0)
(6.7303281e-07 -7.3808984e-07 0 2.7214575e-06 0 0)
(8.6800705e-07 -9.1753867e-07 0 2.7695825e-06 0 0)
(1.084541e-06 -1.2057367e-06 0 3.2011731e-06 0 0)
(1.3842063e-06 -1.505283e-06 0 3.3990235e-06 0 0)
(1.7472757e-06 -1.9282369e-06 0 3.8478223e-06 0 0)
(2.2437151e-06 -2.4139921e-06 0 4.197014e-06 0 0)
(2.855977e-06 -2.9696391e-06 0 4.5485835e-06 0 0)
(3.6328133e-06 -3.5511306e-06 0 4.7695121e-06 0 0)
(4.5014244e-06 -4.0496313e-06 0 4.7609613e-06 0 0)
(5.4443386e-06 -4.4249697e-06 0 4.5383456e-06 0 0)
(6.3062906e-06 -4.5540919e-06 0 4.0559207e-06 0 0)
(7.0563067e-06 -4.4620081e-06 0 3.4293891e-06 0 0)
(7.5278257e-06 -4.1040617e-06 0 2.7008688e-06 0 0)
(7.753307e-06 -3.5787538e-06 0 1.9928884e-06 0 0)
(7.6494551e-06 -2.9256057e-06 0 1.3591901e-06 0 0)
(7.3374651e-06 -2.2558517e-06 0 8.5564251e-07 0 0)
(6.8348902e-06 -1.6226874e-06 0 4.8862335e-07 0 0)
(6.2869781e-06 -1.0832568e-06 0 2.4749341e-07 0 0)
(5.7623218e-06 -6.5262179e-07 0 1.0496106e-07 0 0)
(5.3643685e-06 -3.287466e-07 0 3.160448e-08 0 0)
(5.1746752e-06 -9.2131564e-08 0 2.9871463e-09 0 0)
(1.2998662e-07 2.1145095e-07 0 1.2332854e-06 0 0)
(2.014339e-07 1.7272058e-07 0 1.3927352e-06 0 0)
(2.3977976e-07 8.3008299e-08 0 1.8487239e-06 0 0)
(2.9547807e-07 -1.2806602e-07 0 1.9868668e-06 0 0)
(4.0978975e-07 -2.600665e-07 0 2.2528826e-06 0 0)
(5.3205102e-07 -5.0428576e-07 0 2.5741893e-06 0 0)
(6.8215534e-07 -6.4276652e-07 0 2.6327646e-06 0 0)
(8.5945315e-07 -9.1064976e-07 0 3.1091081e-06 0 0)
(1.0706383e-06 -1.1210933e-06 0 3.1848498e-06 0 0)
(1.3392887e-06 -1.485408e-06 0 3.745627e-06 0 0)
(1.6907592e-06 -1.8698647e-06 0 4.0304809e-06 0 0)
(2.1531096e-06 -2.4109836e-06 0 4.6244707e-06 0 0)
(2.7623054e-06 -3.0042656e-06 0 5.0231623e-06 0 0)
(3.5491541e-06 -3.6852036e-06 0 5.4319237e-06 0 0)
(4.481386e-06 -4.3127965e-06 0 5.5555236e-06 0 0)
(5.5363061e-06 -4.8460353e-06 0 5.4554809e-06 0 0)
(6.5688818e-06 -5.1381605e-06 0 5.0331718e-06 0 0)
(7.5293032e-06 -5.1901616e-06 0 4.4052271e-06 0 0)
(8.2250903e-06 -4.9273689e-06 0 3.6027013e-06 0 0)
(8.6574992e-06 -4.4389187e-06 0 2.7711209e-06 0 0)
(8.7042089e-06 -3.7535572e-06 0 1.9798586e-06 0 0)
(8.4718386e-06 -3.0003354e-06 0 1.3159129e-06 0 0)
(7.954496e-06 -2.2460314e-06 0 8.0359221e-07 0 0)
(7.3159292e-06 -1.5753862e-06 0 4.4677487e-07 0 0)
(6.6218005e-06 -1.0210056e-06 0 2.2034339e-07 0 0)
(5.9997358e-06 -5.9698794e-07 0 9.1360818e-08 0 0)
(5.5296303e-06 -2.9068282e-07 0 2.7047008e-08 0 0)
(5.2948669e-06 -7.8308732e-08 0 2.5384518e-09 0 0)
(5.5507937e-07 5.3881117e-07 0 9.3221773e-07 0 0)
(2.4646524e-07 2.1392743e-07 0 1.7463709e-06 0 0)
(2.5210118e-07 1.1639712e-07 0 1.643095e-06 0 0)
(3.5477239e-07 -7.5300463e-09 0 2.2157976e-06 0 0)
(4.04394e-07 -2.3110038e-07 0 2.3006464e-06 0 0)
(5.5979866e-07 -3.8335683e-07 0 2.5676044e-06 0 0)
(6.8123014e-07 -6.3973204e-07 0 2.9331744e-06 0 0)
(8.6678413e-07 -8.0156848e-07 0 2.9950003e-06 0 0)
(1.0532322e-06 -1.1102391e-06 0 3.5697372e-06 0 0)
(1.3125779e-06 -1.3848568e-06 0 3.7341194e-06 0 0)
(1.6220347e-06 -1.8398088e-06 0 4.4327866e-06 0 0)
(2.0668701e-06 -2.34303e-06 0 4.8701139e-06 0 0)
(2.6414757e-06 -3.010938e-06 0 5.5570701e-06 0 0)
(3.432504e-06 -3.7540474e-06 0 6.0498336e-06 0 0)
(4.4004909e-06 -4.5166779e-06 0 6.3834218e-06 0 0)
(5.5507622e-06 -5.2112335e-06 0 6.4284134e-06 0 0)
(6.7452103e-06 -5.689644e-06 0 6.1150557e-06 0 0)
(7.9236822e-06 -5.920729e-06 0 5.5267985e-06 0 0)
(8.8732567e-06 -5.7971696e-06 0 4.6809722e-06 0 0)
(9.5602369e-06 -5.3893752e-06 0 3.7397184e-06 0 0)
(9.8203035e-06 -4.7075258e-06 0 2.785405e-06 0 0)
(9.7347238e-06 -3.8917695e-06 0 1.939586e-06 0 0)
(9.2657845e-06 -3.0187091e-06 0 1.2498408e-06 0 0)
(8.585956e-06 -2.2034294e-06 0 7.4259777e-07 0 0)
(7.7568609e-06 -1.4992068e-06 0 4.0131825e-07 0 0)
(6.9361192e-06 -9.4259873e-07 0 1.9299716e-07 0 0)
(6.2096523e-06 -5.3202465e-07 0 7.8425279e-08 0 0)
(5.6702777e-06 -2.4848016e-07 0 2.2943055e-08 0 0)
(5.3921242e-06 -6.34697e-08 0 2.1577485e-09 0 0)
(2.2357067e-07 4.2660858e-07 0 1.2706894e-06 0 0)
(7.4136105e-07 6.2417822e-07 0 1.4215537e-06 0 0)
(3.1125824e-07 1.3961912e-07 0 2.0330011e-06 0 0)
(3.6072339e-07 3.6622327e-08 0 2.0093115e-06 0 0)
(4.7531553e-07 -1.0806029e-07 0 2.5343165e-06 0 0)
(5.498222e-07 -3.5284589e-07 0 2.6552385e-06 0 0)
(7.145243e-07 -5.0656473e-07 0 2.8974108e-06 0 0)
(8.6091703e-07 -7.9799774e-07 0 3.3504373e-06 0 0)
(1.0568466e-06 -9.8363495e-07 0 3.4337724e-06 0 0)
(1.2793525e-06 -1.3638023e-06 0 4.1695763e-06 0 0)
(1.5739777e-06 -1.7189372e-06 0 4.4404873e-06 0 0)
(1.9640457e-06 -2.2970423e-06 0 5.3439757e-06 0 0)
(2.5191558e-06 -2.9408926e-06 0 5.9023591e-06 0 0)
(3.2763433e-06 -3.779347e-06 0 6.7259962e-06 0 0)
(4.2691715e-06 -4.6439215e-06 0 7.1820802e-06 0 0)
(5.4846592e-06 -5.5080655e-06 0 7.4528656e-06 0 0)
(6.8265944e-06 -6.1873822e-06 0 7.2841684e-06 0 0)
(8.2203191e-06 -6.6295385e-06 0 6.7879953e-06 0 0)
(9.4431975e-06 -6.6903346e-06 0 5.9403554e-06 0 0)
(1.0425411e-05 -6.4127791e-06 0 4.9159662e-06 0 0)
(1.0960558e-05 -5.7804672e-06 0 3.8040294e-06 0 0)
(1.1093504e-05 -4.9356575e-06 0 2.7621607e-06 0 0)
(1.074691e-05 -3.9585781e-06 0 1.8643657e-06 0 0)
(1.0089947e-05 -2.994185e-06 0 1.1686705e-06 0 0)
(9.1710034e-06 -2.1191794e-06 0 6.7416187e-07 0 0)
(8.1822645e-06 -1.3987822e-06 0 3.5459039e-07 0 0)
(7.2158982e-06 -8.4853205e-07 0 1.6657273e-07 0 0)
(6.3918726e-06 -4.5913174e-07 0 6.6636662e-08 0 0)
(5.7859529e-06 -2.0293817e-07 0 1.9431512e-08 0 0)
(5.4668517e-06 -4.7878218e-08 0 1.8563265e-09 0 0)
(4.1474302e-08 -8.9822208e-09 -5.528944e-29 9.2238141e-07 -3.7355076e-28 3.6364973e-49)
(3.5746522e-07 4.8214393e-07 0 1.8572148e-06 0 0)
(8.2145347e-07 5.9340604e-07 0 1.691223e-06 0 0)
(4.5021085e-07 3.3933741e-08 0 2.4570675e-06 0 0)
(4.7343828e-07 -5.7307115e-08 0 2.3282774e-06 0 0)
(6.341169e-07 -2.2639715e-07 0 2.8845013e-06 0 0)
(6.9821507e-07 -4.7393187e-07 0 3.0294566e-06 0 0)
(8.9754278e-07 -6.4905459e-07 0 3.2700495e-06 0 0)
(1.0414736e-06 -9.7518563e-07 0 3.8497748e-06 0 0)
(1.2729425e-06 -1.2140629e-06 0 4.003505e-06 0 0)
(1.5154433e-06 -1.6793797e-06 0 4.9381343e-06 0 0)
(1.8838232e-06 -2.1485739e-06 0 5.3799453e-06 0 0)
(2.3727781e-06 -2.8810632e-06 0 6.4817705e-06 0 0)
(3.109165e-06 -3.712729e-06 0 7.2086782e-06 0 0)
(4.0808564e-06 -4.7096786e-06 0 8.0423381e-06 0 0)
(5.3468892e-06 -5.7169325e-06 0 8.4696092e-06 0 0)
(6.8071733e-06 -6.6134479e-06 0 8.5333e-06 0 0)
(8.4055243e-06 -7.291599e-06 0 8.1744928e-06 0 0)
(9.9099492e-06 -7.5804218e-06 0 7.379607e-06 0 0)
(1.1218446e-05 -7.4858691e-06 0 6.3113184e-06 0 0)
(1.2085108e-05 -6.9577041e-06 0 5.0607091e-06 0 0)
(1.2509687e-05 -6.1296235e-06 0 3.8190758e-06 0 0)
(1.2367465e-05 -5.0771288e-06 0 2.6881756e-06 0 0)
(1.180991e-05 -3.9710683e-06 0 1.7652913e-06 0 0)
(1.0863523e-05 -2.9118893e-06 0 1.0736513e-06 0 0)
(9.7479361e-06 -2.0000273e-06 0 6.0207487e-07 0 0)
(8.562827e-06 -1.2738179e-06 0 3.0857645e-07 0 0)
(7.4655751e-06 -7.4119923e-07 0 1.4206122e-07 0 0)
(6.5451416e-06 -3.7968006e-07 0 5.6408568e-08 0 0)
(5.8768813e-06 -1.5486794e-07 0 1.6616479e-08 0 0)
(5.5196765e-06 -3.1795203e-08 0 1.6420802e-09 0 0)
(1.9318865e-07 4.8296483e-07 3.2809874e-28 1.3074378e-06 7.9527586e-28 7.6573553e-49)
(1.2657086e-07 -5.5042746e-08 9.5131913e-29 1.4960612e-06 5.1496836e-28 3.9715082e-49)
(4.1902029e-07 3.9992558e-07 0 2.1861375e-06 0 0)
(9.7138452e-07 5.3383649e-07 0 2.0774566e-06 0 0)
(5.9458641e-07 -8.2002817e-08 0 2.8208825e-06 0 0)
(6.2245904e-07 -1.6832084e-07 0 2.6778314e-06 0 0)
(7.9791809e-07 -3.4119415e-07 0 3.2465713e-06 0 0)
(8.7345173e-07 -6.1349263e-07 0 3.4555933e-06 0 0)
(1.0810434e-06 -8.0535997e-07 0 3.7203334e-06 0 0)
(1.2410292e-06 -1.1924947e-06 0 4.4869416e-06 0 0)
(1.4912039e-06 -1.4979789e-06 0 4.7467454e-06 0 0)
(1.7889028e-06 -2.0813475e-06 0 5.9557536e-06 0 0)
(2.2490635e-06 -2.7038578e-06 0 6.5823745e-06 0 0)
(2.9076376e-06 -3.6408318e-06 0 7.9329174e-06 0 0)
(3.8670714e-06 -4.6667293e-06 0 8.7150478e-06 0 0)
(5.1315899e-06 -5.8463687e-06 0 9.5575307e-06 0 0)
(6.692851e-06 -6.945502e-06 0 9.8088649e-06 0 0)
(8.4697128e-06 -7.8836204e-06 0 9.6776966e-06 0 0)
(1.0253666e-05 -8.4391517e-06 0 8.9893518e-06 0 0)
(1.1908072e-05 -8.5805429e-06 0 7.9306872e-06 0 0)
(1.3153871e-05 -8.217287e-06 0 6.5750506e-06 0 0)
(1.39403e-05 -7.4628001e-06 0 5.1437074e-06 0 0)
(1.4089005e-05 -6.377857e-06 0 3.7639211e-06 0 0)
(1.3718638e-05 -5.1520315e-06 0 2.5785673e-06 0 0)
(1.2823957e-05 -3.9065751e-06 0 1.6425288e-06 0 0)
(1.1639792e-05 -2.781303e-06 0 9.7067428e-07 0 0)
(1.0267414e-05 -1.844142e-06 0 5.2946482e-07 0 0)
(8.9126525e-06 -1.1278226e-06 0 2.6500428e-07 0 0)
(7.6793559e-06 -6.2245651e-07 0 1.2041555e-07 0 0)
(6.6694814e-06 -2.9510888e-07 0 4.8054981e-08 0 0)
(5.9437037e-06 -1.0508224e-07 0 1.4572455e-08 0 0)
(5.551648e-06 -1.5466495e-08 0 1.5192449e-09 0 0)
(1.5566292e-07 3.4322166e-07 -2.9272479e-28 8.7904968e-07 -5.8821922e-28 7.7163078e-49)
(3.3321664e-07 7.2088227e-07 -8.3080953e-28 1.9395693e-06 -1.7608541e-27 3.0484509e-48)
(2.137784e-07 -1.7049872e-07 0 1.7987417e-06 0 0)
(5.7305344e-07 2.7872363e-07 0 2.6561426e-06 0 0)
(1.1277584e-06 4.5706127e-07 0 2.4009604e-06 0 0)
(7.8080678e-07 -2.1686008e-07 0 3.2193216e-06 0 0)
(7.7619183e-07 -2.7565621e-07 0 3.0446468e-06 0 0)
(9.8722877e-07 -4.7013454e-07 0 3.6435557e-06 0 0)
(1.0445206e-06 -7.6176034e-07 0 3.9677189e-06 0 0)
(1.2776988e-06 -9.9593287e-07 0 4.2924245e-06 0 0)
(1.4334703e-06 -1.4518691e-06 0 5.3088739e-06 0 0)
(1.7363888e-06 -1.8591075e-06 0 5.7399964e-06 0 0)
(2.1041425e-06 -2.6016467e-06 0 7.2712912e-06 0 0)
(2.7263645e-06 -3.4319069e-06 0 8.1338089e-06 0 0)
(3.6032348e-06 -4.597394e-06 0 9.6365902e-06 0 0)
(4.872187e-06 -5.8496464e-06 0 1.0472531e-05 0 0)
(6.4766178e-06 -7.1829305e-06 0 1.1175851e-05 0 0)
(8.4141671e-06 -8.3795069e-06 0 1.12498e-05 0 0)
(1.0459454e-05 -9.2381384e-06 0 1.0761851e-05 0 0)
(1.2468012e-05 -9.665707e-06 0 9.7707431e-06 0 0)
(1.4129768e-05 -9.5311556e-06 0 8.3600457e-06 0 0)
(1.5340993e-05 -8.91591e-06 0 6.7648779e-06 0 0)
(1.5867068e-05 -7.8553234e-06 0 5.1338468e-06 0 0)
(1.5780013e-05 -6.5475434e-06 0 3.6582595e-06 0 0)
(1.5031321e-05 -5.1281235e-06 0 2.4311673e-06 0 0)
(1.3854603e-05 -3.7772392e-06 0 1.5048059e-06 0 0)
(1.2346238e-05 -2.5975849e-06 0 8.6407286e-07 0 0)
(1.0758776e-05 -1.6561609e-06 0 4.591225e-07 0 0)
(9.2153029e-06 -9.6322948e-07 0 2.2576165e-07 0 0)
(7.8584567e-06 -4.9459085e-07 0 1.0231096e-07 0 0)
(6.7651531e-06 -2.0688419e-07 0 4.1810898e-08 0 0)
(5.9872965e-06 -5.4353782e-08 0 1.3342188e-08 0 0)
(5.5640197e-06 8.8513259e-10 0 1.4887151e-09 0 0)
(1.2993982e-07 1.9264091e-07 0 1.2513569e-06 0 0)
(2.7998213e-07 5.4185224e-07 7.5949343e-28 1.5049061e-06 1.3996241e-27 3.0581231e-48)
(3.8231252e-07 7.9536621e-07 0 2.2788647e-06 0 0)
(3.7527246e-07 -3.2916889e-07 0 2.2372288e-06 0 0)
(7.5353736e-07 1.3002574e-07 0 3.0524216e-06 0 0)
(1.3299879e-06 3.563018e-07 0 2.7430503e-06 0 0)
(9.7073297e-07 -3.4355219e-07 0 3.6246774e-06 0 0)
(9.5440429e-07 -3.9769688e-07 0 3.4528319e-06 0 0)
(1.1722914e-06 -6.0152328e-07 0 4.1131007e-06 0 0)