/*--------------------------------*- C++ -*----------------------------------*\
| =========                 |                                                 |
| \\      /  F ield         | OpenFOAM: The Open Source CFD Toolbox           |
|  \\    /   O peration     | Version:  5.0                                   |
|   \\  /    A nd           | Web:      www.OpenFOAM.org                      |
|    \\/     M anipulation  |                                                 |
\*---------------------------------------------------------------------------*/
FoamFile
{
    version     2.0;
    format      ascii;
    class       volScalarField;
    location    "120";
    object      ddt0(nuTilda);
}
// * * * * * * * * * * * * * * * * * * * * * * * * * * * * * * * * * * * * * //

dimensions      [0 2 -2 0 0 0 0];

internalField   nonuniform List<scalar> 
9520
(
-2.8559397e-34
-2.9717739e-32
-2.4064514e-34
-1.5155591e-30
-2.4700449e-32
-1.8377582e-34
-5.0256014e-29
-1.2424009e-30
-1.8493813e-32
-1.2338836e-34
-1.2185617e-27
-4.0619003e-29
-9.1247844e-31
-1.2063666e-32
-7.0922088e-35
-2.3046289e-26
-9.7046371e-28
-2.925616e-29
-5.7970125e-31
-6.7142307e-33
-3.6246651e-35
-3.5415291e-25
-1.8067232e-26
-6.8500466e-28
-1.811936e-29
-3.1529292e-31
-3.5149994e-33
-2.5463969e-35
-4.5484926e-24
-2.7292978e-25
-1.2479165e-26
-4.136745e-28
-9.707401e-30
-1.73793e-31
-2.9578654e-33
-3.5959995e-35
-4.9760253e-23
-3.4390215e-24
-1.8404642e-25
-7.3407632e-27
-2.1972191e-28
-5.7640364e-30
-1.7084023e-31
-4.4108219e-33
-5.3741498e-35
-4.7110051e-22
-3.6864689e-23
-2.2594941e-24
-1.0518967e-25
-3.8802717e-27
-1.4239854e-28
-6.4172893e-30
-2.5522906e-31
-5.9873349e-33
-5.5047916e-35
-3.9122232e-21
-3.4225625e-22
-2.3650808e-23
-1.2520677e-24
-5.5385207e-26
-2.7609311e-27
-1.7343306e-28
-9.3014328e-30
-3.110512e-31
-4.9801224e-33
-1.4621699e-35
-2.8905957e-20
-2.7972485e-21
-2.1541117e-22
-1.2665179e-23
-6.5421737e-25
-4.3243763e-26
-3.5750056e-27
-2.3852032e-28
-9.9947563e-30
-1.9342912e-31
1.0423465e-33
8.0747522e-35
-1.9295285e-19
-2.0427552e-20
-1.7331801e-21
-1.1057011e-22
-6.4638114e-24
-5.5596797e-25
-5.8298542e-26
-4.5872927e-27
-2.1865755e-28
-3.6501043e-30
2.051751e-31
1.2773031e-32
2.1965764e-34
-1.3209096e-18
-1.3471574e-19
-1.2449667e-20
-8.3393496e-22
-5.268337e-23
-5.8932522e-24
-7.7110224e-25
-6.8729204e-26
-3.36507e-27
-9.571646e-32
1.2535438e-29
8.8096592e-31
2.8049119e-32
3.627943e-34
-2.2246367e-17
-8.6179962e-19
-7.9842113e-20
-5.361334e-21
-3.3243916e-22
-5.0947398e-23
-8.447327e-24
-8.2256662e-25
-3.4784863e-26
2.0799837e-27
4.6131759e-28
3.7002175e-29
1.6749307e-30
4.1918595e-32
4.530594e-34
-1.1342557e-15
-1.0213593e-17
-4.3976586e-19
-2.7206974e-20
-1.2411987e-21
-3.4478137e-22
-7.8150562e-23
-8.0266548e-24
-1.6714221e-25
7.0249846e-26
1.2035735e-26
1.090136e-27
6.292528e-29
2.2980783e-30
4.8149783e-32
4.3663181e-34
-5.921309e-14
-4.326764e-16
7.6856734e-19
5.2133207e-20
6.109709e-21
-1.5039318e-21
-6.1957645e-22
-6.5202174e-23
1.8021557e-24
1.472176e-24
2.4090499e-25
2.4320429e-26
1.685375e-27
7.980872e-29
2.4296333e-30
4.1690441e-32
2.8593789e-34
-2.3034093e-12
-2.3454335e-14
2.82484e-16
1.8983842e-17
4.8576825e-19
4.0344948e-21
-4.2242963e-21
-4.5854867e-22
5.521407e-23
2.3150874e-23
3.8769976e-24
4.3149009e-25
3.4514236e-26
1.9782653e-27
7.7343246e-29
1.8523497e-30
2.0975692e-32
1.4173995e-35
-6.1034132e-11
-1.0039642e-12
2.1939828e-14
1.6962294e-15
4.3960804e-17
6.1957558e-19
-2.2760803e-20
-3.051145e-21
7.8144341e-22
2.927996e-22
5.1745925e-23
6.29725e-24
5.6551236e-25
3.7415462e-26
1.7380849e-27
5.0044383e-29
5.6114671e-31
-1.0982422e-32
-3.2462708e-34
-1.0940718e-09
-3.3020169e-11
1.0006565e-12
1.0861167e-13
3.7515463e-15
6.2814075e-17
2.8667221e-19
-2.1357921e-20
7.8570275e-21
3.0881177e-21
5.8634896e-22
7.747992e-23
7.6525198e-24
5.6353119e-25
2.9228451e-26
8.8297412e-28
3.9913239e-31
-1.2073151e-30
-4.7163401e-32
-6.497667e-34
-1.3134501e-08
-7.4335618e-10
2.8075017e-11
4.7690928e-12
2.3150187e-13
5.3367104e-15
4.544608e-17
-1.1734566e-19
6.1641853e-20
2.7787538e-20
5.7502269e-21
8.2028529e-22
8.7538657e-23
6.9587699e-24
3.789124e-25
9.5397462e-27
-4.5953556e-28
-6.1135741e-29
-3.0341876e-30
-7.8498264e-32
-8.7705301e-34
-1.0926938e-07
-1.1777706e-08
4.4045971e-10
1.4202747e-10
9.7510901e-12
3.2673481e-13
3.5266702e-15
-3.7201714e-18
2.7327236e-19
2.1834177e-19
4.9662658e-20
7.6125031e-21
8.6338717e-22
7.1852398e-23
3.8049122e-24
2.4996559e-26
-1.793584e-26
-1.9776378e-27
-1.191127e-28
-4.4400423e-30
-9.6497555e-32
-9.4288444e-34
-6.3046274e-07
-1.2233595e-07
3.5211601e-09
2.7631615e-09
2.80531e-10
1.3826901e-11
1.8778197e-13
-1.1201572e-15
-1.9829951e-17
1.4599544e-18
3.8405923e-19
6.3043116e-20
7.4810593e-21
6.293626e-22
2.8420259e-23
-1.357969e-24
-4.2089767e-25
-4.6323779e-26
-3.2714176e-27
-1.5765979e-28
-5.0243033e-30
-9.5661442e-32
-8.2111064e-34
-2.6313594e-06
-8.5669649e-07
1.0281337e-09
3.4786775e-08
5.4614322e-09
3.9373157e-10
6.8019799e-12
-1.2057652e-13
-2.4802295e-15
-7.1548305e-19
2.7204096e-18
4.7351562e-19
5.8066423e-20
4.7318482e-21
1.2816966e-22
-3.4410184e-23
-7.2784104e-24
-8.4036794e-25
-6.7812183e-26
-3.9719229e-27
-1.6507925e-28
-4.5776423e-30
-7.4913717e-32
-5.2811586e-34
-7.5539092e-06
-3.9447922e-06
-2.1655024e-07
2.7701055e-07
6.9361788e-08
7.4026631e-09
1.6186673e-10
-7.0191017e-12
-1.8521492e-13
-9.4660455e-16
2.0657169e-17
3.370421e-18
4.1220546e-19
3.0902068e-20
-2.5321823e-22
-5.2390698e-22
-1.0011965e-22
-1.2306491e-23
-1.1132314e-24
-7.5983566e-26
-3.846569e-27
-1.3709681e-28
-3.1349438e-30
-3.7721635e-32
-1.169127e-34
-1.5980825e-05
-1.2310029e-05
-1.9109929e-06
1.3838437e-06
5.6882884e-07
9.0462565e-08
2.4469817e-09
-2.4894137e-10
-8.8999275e-12
-6.5894017e-14
5.2230358e-16
3.7005976e-17
2.9001976e-18
1.7889771e-19
-1.2829811e-20
-6.134234e-21
-1.143215e-21
-1.4967246e-22
-1.4947139e-23
-1.1532387e-24
-6.76046e-26
-2.8628244e-27
-7.7903214e-29
-9.603229e-31
8.8927857e-33
3.3562873e-34
-2.5459572e-05
-2.6431884e-05
-8.229553e-06
4.199361e-06
3.0100472e-06
7.1048851e-07
2.1916926e-08
-5.5366806e-09
-2.8333243e-10
-2.7439815e-12
3.6406041e-14
1.9142371e-15
4.6998234e-17
1.1404803e-18
-1.6590932e-19
-5.9721154e-20
-1.1149153e-20
-1.545086e-21
-1.6784867e-22
-1.4295858e-23
-9.3121602e-25
-4.3500713e-26
-1.1951247e-27
1.0271421e-30
1.5198495e-30
5.5934314e-32
7.4408491e-34
-3.5214028e-05
-4.2411392e-05
-2.0395292e-05
7.4750575e-06
1.0204557e-05
3.5393366e-06
1.0294156e-07
-7.8222079e-08
-5.6627075e-09
-8.0721578e-11
1.815557e-12
1.3861818e-13
3.4689537e-15
3.897154e-17
-1.4260461e-18
-5.0231851e-19
-9.4868684e-20
-1.3780488e-20
-1.6031987e-21
-1.4746677e-22
-1.0266774e-23
-4.8281697e-25
-8.3437156e-27
8.1973554e-28
8.3653732e-29
3.8086584e-30
9.4156758e-32
1.0294197e-33
-4.3454549e-05
-5.6918702e-05
-3.5420844e-05
8.2801256e-06
2.2581161e-05
1.1139924e-05
9.4948589e-08
-7.0839593e-07
-7.52882e-08
-1.6054104e-09
6.7093007e-11
7.1230549e-12
2.5776375e-13
3.8142128e-15
6.5684309e-18
-3.7287318e-18
-7.1675012e-19
-1.0777085e-19
-1.320104e-20
-1.2804997e-21
-9.0968764e-23
-3.616224e-24
9.9893737e-26
3.0472801e-26
2.7591136e-27
1.5275373e-28
5.4334412e-30
1.1568851e-31
1.1321653e-33
-5.0310918e-05
-6.8996303e-05
-4.8019523e-05
6.109161e-06
3.4938652e-05
2.2353429e-05
-1.4485703e-06
-4.1538434e-06
-6.6210773e-07
-2.1015001e-08
1.6192608e-09
2.4306226e-10
1.311536e-11
2.8096966e-13
1.7545969e-15
-2.3960958e-17
-4.8910236e-18
-7.4930961e-19
-9.4700455e-20
-9.4105848e-21
-6.3399879e-22
-9.850319e-24
4.2271603e-24
6.8962448e-25
6.4476366e-26
4.202362e-27
1.9330567e-28
6.032065e-30
1.1541642e-31
1.0229829e-33
-5.542226e-05
-7.8546054e-05
-5.9196189e-05
3.3630756e-06
4.365318e-05
3.0786069e-05
-8.2470655e-06
-1.593938e-05
-3.8356179e-06
-1.7913222e-07
2.567517e-08
5.4280449e-09
4.3974884e-10
1.3748052e-11
1.1753587e-13
-2.5217828e-16
-3.2437517e-17
-4.6961977e-18
-5.9755584e-19
-5.8349479e-20
-3.177792e-21
1.9792175e-22
7.7803455e-23
1.1480754e-23
1.151813e-24
8.5894696e-26
4.8132652e-27
1.9539026e-28
5.421789e-30
9.2021109e-32
7.0916669e-34
-6.0606982e-05
-8.3871604e-05
-6.754226e-05
-7.9928783e-07
4.7694778e-05
3.4754194e-05
-2.1363449e-05
-4.1048101e-05
-1.4739124e-05
-9.8748102e-07
2.673483e-07
7.8838034e-08
9.5922942e-09
4.3810739e-10
4.7994664e-12
-2.8459857e-14
-4.9523683e-16
-2.7506104e-17
-3.3457367e-18
-3.0031068e-19
-6.6219672e-21
4.1163235e-21
1.023415e-21
1.5127411e-22
1.6407007e-23
1.3734067e-24
8.9202576e-26
4.3989951e-27
1.5563228e-28
3.6449195e-30
4.8409077e-32
2.3502524e-34
-6.49631e-05
-8.7989296e-05
-7.2929463e-05
-5.365559e-06
4.7249842e-05
3.2602864e-05
-3.7341486e-05
-7.5179589e-05
-3.822987e-05
-3.5271519e-06
1.8319352e-06
7.4389459e-07
1.3500417e-07
8.9800577e-09
1.1888797e-10
-2.4561237e-12
-3.3393446e-14
-2.3368594e-16
-1.6877914e-17
-1.2212022e-18
7.5338113e-20
4.8756807e-20
1.0735596e-20
1.639078e-21
1.9191264e-22
1.771486e-23
1.2865433e-24
7.2228457e-26
2.968293e-27
7.8798298e-29
9.5233428e-31
-8.695707e-33
-3.258684e-34
-6.8687412e-05
-9.0034777e-05
-7.5687034e-05
-1.0869917e-05
4.3457988e-05
2.633973e-05
-5.3602138e-05
-0.00010874042
-7.1180476e-05
-8.24052e-06
8.2907713e-06
4.5865704e-06
1.2208331e-06
1.1715007e-07
1.6564041e-09
-1.1702091e-10
-2.0842347e-12
-9.3350365e-15
-8.9092738e-17
-3.2587592e-18
1.1968086e-18
4.4337027e-19
9.4243884e-20
1.4974162e-20
1.8778768e-21
1.8783321e-22
1.4770581e-23
8.8485789e-25
3.7016037e-26
7.3787785e-28
-2.2623131e-29
-2.216401e-30
-7.0085143e-32
-8.8600144e-34
-7.1842125e-05
-9.0435583e-05
-7.5852636e-05
-1.5455641e-05
3.6702245e-05
1.9789274e-05
-6.5147383e-05
-0.00013305348
-0.00010307054
-1.3615665e-05
2.5034314e-05
1.8946637e-05
7.0852943e-06
9.6471225e-07
9.8504117e-09
-3.3133787e-09
-8.5016906e-11
-5.1075395e-13
-1.5172153e-15
-2.9402026e-19
1.0756574e-17
3.3607213e-18
7.1157059e-19
1.175434e-19
1.5587311e-20
1.6547314e-21
1.3556922e-22
7.8862461e-24
2.3032762e-25
-1.0550742e-26
-1.9100352e-27
-1.3135296e-28
-5.3359043e-30
-1.2607543e-31
-1.3620077e-33
-7.4278557e-05
-8.9517836e-05
-7.3892846e-05
-1.9191658e-05
2.9413158e-05
1.1244772e-05
-7.2374441e-05
-0.00014669056
-0.00012570482
-1.7545646e-05
5.228424e-05
5.212967e-05
2.642715e-05
4.9644857e-06
-3.7142894e-08
-5.7565784e-08
-2.2345551e-09
-2.0748812e-11
-8.4867495e-14
-6.3706736e-17
7.5590885e-17
2.2138789e-17
4.7132021e-18
8.0246441e-19
1.1087789e-19
1.2134775e-20
9.7413824e-22
4.2951942e-23
-1.7499921e-24
-5.6011772e-25
-6.2008033e-26
-4.5133126e-27
-2.2921628e-28
-7.9122174e-30
-1.6857467e-31
-1.6921191e-33
-7.5949675e-05
-8.7623624e-05
-7.0553825e-05
-2.2391324e-05
2.1721051e-05
2.4852321e-06
-7.5793456e-05
-0.00015299308
-0.00013885854
-2.0272783e-05
8.1564999e-05
9.9296679e-05
6.3964711e-05
1.5759498e-05
-1.0050994e-06
-6.247737e-07
-3.6674015e-08
-5.7345885e-10
-3.973507e-12
-1.1400022e-14
4.4362487e-16
1.3055015e-16
2.7846919e-17
4.8230431e-18
6.7736173e-19
7.3281859e-20
5.014552e-21
-4.6750636e-23
-7.2932612e-23
-1.2340034e-23
-1.3420271e-24
-1.0831264e-25
-6.6394397e-27
-3.0129681e-28
-9.5978788e-30
-1.9269406e-31
-1.8466065e-33
-7.6489209e-05
-8.5171989e-05
-6.6665497e-05
-2.498806e-05
1.3629008e-05
-6.6355279e-06
-7.8689659e-05
-0.00015117628
-0.0001462949
-2.3683643e-05
0.00010314418
0.00014276427
0.00010519145
3.0442676e-05
-7.0756835e-06
-4.3077289e-06
-3.9179631e-07
-1.0546978e-08
-1.2516332e-10
-6.5923105e-13
1.1320803e-15
7.0607204e-16
1.4950421e-16
2.5785651e-17
3.5578774e-18
3.5057021e-19
1.090871e-20
-4.4545471e-21
-1.2110148e-21
-1.8986219e-22
-2.19214e-23
-1.9788904e-24
-1.4199614e-25
-7.9835771e-27
-3.3897443e-28
-1.0246197e-29
-1.9734715e-31
-1.8288804e-33
-7.4888508e-05
-8.192114e-05
-6.3208572e-05
-2.7814548e-05
5.0802105e-06
-1.6346506e-05
-8.0833042e-05
-0.00014726467
-0.00015040199
-2.5613304e-05
0.00011203783
0.00016700088
0.00012921102
3.6436933e-05
-2.6488632e-05
-1.9196963e-05
-2.7760599e-06
-1.2808561e-07
-2.5901496e-09
-2.3484833e-11
-7.0843278e-14
3.7044709e-15
7.4645901e-16
1.2406625e-16
1.5921844e-17
1.1417512e-18
-1.1802682e-19
-6.4340676e-20
-1.4388945e-20
-2.2920122e-21
-2.8617099e-22
-2.8857655e-23
-2.3742104e-24
-1.5876572e-25
-8.4231171e-27
-3.4099452e-28
-9.9071853e-30
-1.84774e-31
-1.668064e-33
-6.9262878e-05
-7.5555323e-05
-6.1039827e-05
-3.1534806e-05
-4.3260683e-06
-2.7166292e-05
-8.2727944e-05
-0.00014166653
-0.0001493686
-3.5182226e-05
0.00011272899
0.00017382272
0.00013357654
2.7541621e-05
-6.127826e-05
-5.6716177e-05
-1.311313e-05
-1.0269064e-06
-3.495709e-08
-5.3139075e-10
-2.7083304e-12
4.5711695e-14
4.0040011e-15
5.4747855e-16
5.8463971e-17
4.1436724e-19
-1.9154076e-18
-6.3708289e-19
-1.3719416e-19
-2.2846381e-20
-3.0924168e-21
-3.4613375e-22
-3.2206577e-23
-2.4894527e-24
-1.5804271e-25
-8.0141477e-27
-3.1207558e-28
-8.7764232e-30
-1.5929034e-31
-1.4064765e-33
-6.4578763e-05
-6.0075339e-05
-6.2882886e-05
-3.6994909e-05
-1.4504728e-05
-3.8683929e-05
-8.4323629e-05
-0.00013220264
-0.00014553495
-4.3436462e-05
0.00010608897
0.00016667271
0.00012315501
7.6741509e-06
-9.9839134e-05
-0.00011635415
-4.2043124e-05
-5.4679664e-06
-3.0696263e-07
-7.499005e-09
-3.4942917e-11
3.1006132e-12
9.0719249e-14
2.7837722e-15
1.5767214e-16
-3.0827138e-17
-1.7223302e-17
-5.0542567e-18
-1.1001498e-18
-1.9350432e-19
-2.8331988e-20
-3.4916436e-21
-3.6315784e-22
-3.1843734e-23
-2.3428469e-24
-1.4235561e-25
-6.9386304e-27
-2.6080852e-28
-7.113081e-30
-1.2575618e-31
-1.0866104e-33
-6.9888237e-05
-5.7982725e-05
-5.4722759e-05
-4.4247969e-05
-2.5781061e-05
-5.0398013e-05
-8.4941303e-05
-0.00011825275
-0.00013901257
-5.0688985e-05
9.3158733e-05
0.00015679794
0.0001046992
-1.3482885e-05
-0.00013146902
-0.00017836603
-9.5066964e-05
-1.9581339e-05
-1.7511778e-06
-6.3081388e-08
5.847942e-10
1.7313339e-10
6.7402628e-12
9.1914002e-14
3.6249249e-16
-3.1073574e-16
-1.215977e-16
-3.3986227e-17
-7.6182964e-18
-1.4190584e-18
-2.2385989e-19
-3.013142e-20
-3.4650705e-21
-3.3979062e-22
-2.8321474e-23
-1.9917194e-24
-1.1594001e-25
-5.4258899e-27
-1.96125e-28
-5.1593615e-30
-8.8269165e-32
-7.4134228e-34
-5.336677e-05
-7.2311523e-05
-5.1045982e-05
-5.0890176e-05
-3.7812253e-05
-6.1941138e-05
-8.3940093e-05
-0.00010244257
-0.00013002116
-5.676225e-05
7.9370414e-05
0.00014196736
8.4926361e-05
-2.7788778e-05
-0.00014772997
-0.00022131333
-0.00016102597
-4.853568e-05
-6.449871e-06
-2.7440062e-07
2.8709052e-08
5.6476946e-09
3.4293407e-10
7.1993778e-12
3.5233798e-14
-2.1466865e-15
-7.3746985e-16
-1.9946156e-16
-4.6367054e-17
-9.1367639e-18
-1.5453087e-18
-2.2537464e-19
-2.8358715e-20
-3.0704431e-21
-2.8488979e-22
-2.2548327e-23
-1.5068067e-24
-8.3137423e-26
-3.6752893e-27
-1.2502558e-28
-3.08467e-30
-4.939987e-32
-3.8918868e-34
-5.0007985e-05
-6.5311934e-05
-7.1433632e-05
-4.3757893e-05
-4.889971e-05
-7.2341372e-05
-8.110747e-05
-8.582054e-05
-0.000118927
-6.1463126e-05
6.4982757e-05
0.0001264018
7.1451334e-05
-3.4635807e-05
-0.00014761326
-0.00023971177
-0.00021735784
-8.7423027e-05
-1.5214107e-05
-1.4176371e-07
4.6226633e-07
1.0881456e-07
1.0268641e-08
3.5091048e-10
3.0487948e-12
-1.2508576e-14
-3.9603088e-15
-1.0446937e-15
-2.5132272e-16
-5.2222347e-17
-9.4155751e-18
-1.4762749e-18
-2.0112182e-19
-2.373002e-20
-2.4104949e-21
-2.0938011e-22
-1.5429264e-23
-9.4845444e-25
-4.7155452e-26
-1.8183848e-27
-5.1306948e-29
-9.6471287e-31
-1.0038918e-32
-3.4555066e-35
-7.859634e-05
-6.1733193e-05
-7.6471309e-05
-6.6809026e-05
-3.7557144e-05
-4.8239217e-05
-7.5500154e-05
-6.8932694e-05
-0.00010688622
-6.5006192e-05
5.0942951e-05
0.00011027179
5.6638602e-05
-3.9550373e-05
-0.00013248277
-0.00023937712
-0.00025105039
-0.00012241227
-2.2297559e-05
4.6523181e-06
4.0124988e-06
1.2631122e-06
1.8204759e-07
9.9045897e-09
1.3829429e-10
-2.5157533e-13
-2.2280539e-14
-4.981705e-15
-1.2266059e-15
-2.6739332e-16
-5.1060708e-17
-8.5350902e-18
-1.2452067e-18
-1.5770021e-19
-1.7184848e-20
-1.5890667e-21
-1.2233709e-22
-7.5959273e-24
-3.5199797e-25
-9.4827778e-27
1.0217809e-28
2.4432903e-29
1.2071907e-30
3.0252786e-32
3.2836777e-34
-6.4728781e-05
-7.7706283e-05
-7.1922005e-05
-8.4190731e-05
-6.0258711e-05
-3.2711365e-05
-4.8630846e-05
-5.3171803e-05
-9.4355136e-05
-6.7119362e-05
3.7341649e-05
9.4409088e-05
4.1012934e-05
-4.6089688e-05
-0.00011972388
-0.00021046816
-0.00026647484
-0.00014408779
-1.8240928e-05
2.5220786e-05
2.0860838e-05
8.9866334e-06
1.9354208e-06
1.6333464e-07
3.4564578e-09
-2.2852836e-11
-4.6472569e-13
-2.2287281e-14
-5.4500903e-15
-1.2364505e-15
-2.4813411e-16
-4.3799174e-17
-6.7553086e-18
-9.0103535e-19
-1.0213311e-19
-9.5202365e-21
-6.7765623e-22
-2.8693402e-23
7.0216327e-25
2.7488938e-25
3.001477e-26
2.1123159e-27
1.0379426e-28
3.4867298e-30
7.259345e-32
7.0980901e-34
-3.7053169e-05
-5.2423309e-05
-8.5554281e-05
-8.71835e-05
-8.8860843e-05
-5.3382259e-05
-2.8764405e-05
-4.9668135e-05
-8.0135962e-05
-6.9211466e-05
2.4164159e-05
7.8232103e-05
2.4932001e-05
-5.3271454e-05
-0.00010694314
-0.00018320647
-0.00026765585
-0.00015266494
-1.748424e-06
6.9441962e-05
6.8188538e-05
3.9823392e-05
1.2466768e-05
1.5890517e-06
4.7386363e-08
-1.1450193e-09
-2.7489847e-11
-1.3960328e-13
-2.2351394e-14
-5.2012571e-15
-1.0865713e-15
-2.0015027e-16
-3.2079167e-17
-4.378508e-18
-4.8738583e-19
-3.9388942e-20
-1.1701942e-21
2.9765972e-22
7.096377e-23
9.5417915e-24
9.4420611e-25
7.230226e-26
4.2684914e-27
1.8902937e-28
5.935514e-30
1.1803438e-31
1.1183112e-33
-7.0585182e-05
-2.1663196e-05
-4.4357695e-05
-8.9852816e-05
-0.00010221284
-9.088886e-05
-4.619889e-05
-2.5537891e-05
-5.0844849e-05
-7.2627031e-05
1.1424202e-05
6.2133795e-05
8.3596261e-06
-6.2083883e-05
-9.4759653e-05
-0.00015375244
-0.00025361559
-0.00017802444
2.0174675e-05
0.00012651721
0.00014715207
0.00011165325
4.9069763e-05
9.1462002e-06
3.3817219e-07
-2.9982691e-08
-1.0992392e-09
-4.8604648e-12
-8.9436996e-14
-2.006619e-14
-4.3060182e-15
-8.1463758e-16
-1.3217773e-16
-1.7482948e-17
-1.6310206e-18
-2.9120144e-20
2.8645992e-20
7.8146018e-21
1.3479096e-21
1.7879517e-22
1.914949e-23
1.6731719e-24
1.1835763e-25
6.6122558e-27
2.8139961e-28
8.5791906e-30
1.6688359e-31
1.5555093e-33
-7.8287923e-05
-5.7296749e-05
-8.6028545e-06
-3.7617525e-05
-9.1930698e-05
-0.00011468162
-9.0321926e-05
-3.8857764e-05
-2.280711e-05
-5.1819926e-05
-1.0146272e-06
4.574822e-05
-8.3246502e-06
-7.0809447e-05
-8.3148595e-05
-0.00012331207
-0.00023151907
-0.0001928134
1.7581858e-05
0.00017666295
0.00022781623
0.00020530085
0.00011893392
3.0965857e-05
9.7217946e-07
-4.4093501e-07
-2.5725225e-08
-2.2536858e-10
-7.8563491e-13
-7.1982901e-14
-1.5493319e-14
-2.9398677e-15
-4.6070369e-16
-5.1295755e-17
-9.864735e-19
1.3913811e-18
4.6954771e-19
1.0258341e-19
1.7609141e-20
2.4972603e-21
2.9704047e-22
2.9668388e-23
2.4689051e-24
1.6820088e-25
9.1288972e-27
3.7980587e-28
1.1375107e-29
2.1821997e-31
2.0126097e-33
-1.3584423e-05
-8.3879022e-05
-4.2207666e-05
4.0171197e-06
-3.1758532e-05
-9.2861e-05
-0.00012010333
-8.8071949e-05
-3.2154393e-05
-2.048286e-05
-5.1988923e-05
2.9174506e-05
-2.5308163e-05
-7.9355398e-05
-7.1359858e-05
-9.3367447e-05
-0.00020395314
-0.00019977139
7.3775198e-06
0.00020558621
0.00028061092
0.00026958399
0.0001838494
6.1053523e-05
-1.6852705e-06
-3.8005311e-06
-3.5899139e-07
-6.2612386e-09
-3.160696e-11
-2.8185388e-13
-5.078764e-14
-9.2823709e-15
-1.2623267e-15
-5.1818548e-17
3.9065931e-17
1.7160654e-17
4.7016028e-18
1.0161302e-18
1.8373467e-19
2.8349935e-20
3.7523301e-21
4.2513555e-22
4.0934045e-23
3.31034e-24
2.2017733e-25
1.1719452e-26
4.7997033e-28
1.4195575e-29
2.6967907e-31
2.469096e-33
1.1887261e-05
-2.7018641e-05
-8.1064095e-05
-2.6671323e-05
1.6308309e-05
-2.605071e-05
-9.5763327e-05
-0.00012351647
-8.4736266e-05
-2.5672138e-05
-1.8359313e-05
-5.0615434e-05
-4.2332579e-05
-8.6538253e-05
-5.7606631e-05
-6.4766786e-05
-0.00017294552
-0.00020135221
-6.5106269e-06
0.00020903518
0.00031068019
0.00028435379
0.00019904673
7.1171316e-05
-1.9626266e-05
-1.982529e-05
-3.0600034e-06
-1.0251871e-07
-1.0669639e-09
-4.2273942e-12
-1.5514374e-13
-2.4805513e-14
-1.9696809e-15
6.3917321e-16
4.0263581e-16
1.3870192e-16
3.7126324e-17
8.3386817e-18
1.6142733e-18
2.7179307e-19
3.9854135e-20
5.0741943e-21
5.5742393e-22
5.2330607e-23
4.1436879e-24
2.7064524e-25
1.4192803e-26
5.7436137e-28
1.6830432e-29
3.1755427e-31
2.8938949e-33
-5.9483741e-05
-7.3010125e-06
-4.2717066e-05
-7.5688622e-05
-1.104153e-05
2.8025516e-05
-2.0980214e-05
-9.8754267e-05
-0.00012501738
-8.0237076e-05
-1.949605e-05
-1.5472438e-05
-4.8528108e-05
-9.1225929e-05
-4.0991957e-05
-3.7449361e-05
-0.0001411801
-0.00019792119
-2.2515539e-05
0.00020324101
0.0003077496
0.00026942618
0.00016966064
5.1056178e-05
-5.735294e-05
-6.4520903e-05
-1.6314025e-05
-1.0237366e-06
-2.1239528e-08
-1.5304685e-10
-7.4575387e-13
-5.1183311e-14
4.7617514e-15
6.2152709e-15
2.7467256e-15
9.0399281e-16
2.481725e-16
5.8907644e-17
1.2258102e-17
2.2471529e-18
3.6277018e-19
5.14103e-20
6.3615868e-21
6.8214795e-22
6.2753787e-23
4.8821979e-24
3.1418217e-25
1.6281479e-26
6.5293578e-28
1.9009626e-29
3.5721062e-31
2.6510889e-35
-9.3007247e-05
-7.5206904e-05
-2.9039284e-05
-5.8122242e-05
-6.799528e-05
3.8456445e-06
3.9487459e-05
-1.5861333e-05
-0.00010004032
-0.00012418269
-7.4498624e-05
-1.4063295e-05
-1.3960647e-05
-4.4546205e-05
-2.3596365e-05
-1.0652781e-05
-0.00011058502
-0.00018952818
-3.9159065e-05
0.0001902752
0.00030119972
0.00025489857
0.00012784266
1.4443614e-05
-9.5617259e-05
-0.0001368049
-5.6139394e-05
-6.4325948e-06
-2.5489084e-07
-3.6562349e-09
-1.8907865e-11
-7.4233009e-14
6.0702598e-14
3.7528664e-14
1.525345e-14
5.0613073e-15
1.4493224e-15
3.6536548e-16
8.1691661e-17
1.623482e-17
2.865663e-18
4.4790362e-19
6.1715988e-20
7.4519041e-21
7.8224037e-22
7.0712904e-23
5.4168587e-24
3.4432722e-25
1.7680177e-26
7.0461535e-28
2.0442748e-29
3.7089889e-33
1.0972703e-37
-6.2768941e-06
-9.2674822e-05
-8.7406929e-05
-4.818884e-05
-6.9037143e-05
-5.9552248e-05
1.8170806e-05
5.0546716e-05
-9.9258349e-06
-9.8871121e-05
-0.0001211358
-6.8391947e-05
-9.7567854e-06
-1.2614045e-05
-3.9791392e-05
1.7617984e-05
-8.3239259e-05
-0.00017763376
-5.5134751e-05
0.00017324479
0.00028842938
0.00024073812
0.00010685712
-2.0718552e-05
-0.0001152374
-0.00020244147
-0.00013066469
-2.6273039e-05
-1.9107583e-06
-5.2129041e-08
-5.2586052e-10
-1.5485859e-12
3.4674887e-13
1.8323274e-13
7.3451502e-14
2.5062512e-14
7.5275277e-15
2.0146166e-15
4.8242591e-16
1.0341071e-16
1.9816804e-17
3.3863476e-18
5.1407836e-19
6.9010161e-20
8.1431127e-21
8.3805797e-22
7.4561352e-23
5.6357456e-24
3.5474367e-25
1.810063e-26
7.1923893e-28
2.4164817e-31
1.7720191e-35
1.7941884e-40
4.4852697e-05
1.0979989e-05
-8.7959274e-05
-0.00010230946
-6.8578793e-05
-7.8394067e-05
-5.134795e-05
3.1560653e-05
6.1645275e-05
-3.113488e-06
-9.5036004e-05
-0.00011564718
-5.917061e-05
-5.7699243e-06
-1.2219477e-05
-3.1746681e-05
-5.6021802e-05
-0.000163333
-6.993222e-05
0.00015349935
0.00027268452
0.00022520354
8.0833434e-05
-4.021861e-05
-0.000115328
-0.00022629631
-0.0002207817
-7.2990434e-05
-9.2596269e-06
-4.5877573e-07
-8.842476e-09
-6.1040546e-11
1.4051872e-12
7.7809817e-13
3.158905e-13
1.1164035e-13
3.5177827e-14
9.9651058e-15
2.5431028e-15
5.8437558e-16
1.2070435e-16
2.2357222e-17
3.702001e-18
5.4596482e-19
7.1401203e-20
8.2342588e-21
8.3131685e-22
7.2894383e-23
5.4480409e-24
3.4056631e-25
1.7331327e-26
9.747926e-30
1.3346632e-33
3.4007632e-38
1.027506e-43
-2.9941316e-05
6.937336e-05
2.8926129e-05
-8.1456523e-05
-0.00011870953
-8.9856917e-05
-8.7390248e-05
-4.3659795e-05
4.3927324e-05
7.2680452e-05
4.8905554e-06
-8.7687964e-05
-0.00010408695
-4.7366732e-05
-2.5434697e-06
-1.1503771e-05
-2.0264285e-05
-0.0001525313
-8.21062e-05
0.00013179532
0.00025382488
0.0002055168
5.4505008e-05
-6.2393405e-05
-0.0001141428
-0.00019134082
-0.00028949838
-0.00014736908
-3.0317372e-05
-2.58661e-06
-9.0458459e-08
-1.2427212e-09
-3.0626088e-13
2.9645251e-12
1.2349514e-12
4.5267712e-13
1.4922853e-13
4.4528738e-14
1.203832e-14
2.9447744e-15
6.5040648e-16
1.2940754e-16
2.3133905e-17
3.7043868e-18
5.2956057e-19
6.7327717e-20
7.5764535e-21
7.5082954e-22
6.4887746e-23
4.8069994e-24
2.9959878e-25
2.722598e-28
6.2492539e-32
2.9996834e-36
2.3005858e-41
2.2398568e-47
-0.00014251624
-5.0591085e-06
9.1622156e-05
4.6385418e-05
-7.7241482e-05
-0.00013434062
-0.00011160757
-9.6361703e-05
-3.754024e-05
5.5789201e-05
8.3388577e-05
1.3233558e-05
-7.7543232e-05
-8.7356846e-05
-3.3227418e-05
-1.9905186e-06
-8.3174652e-06
-9.0758759e-06
-9.3395131e-05
0.00010704138
0.00023144628
0.00018406096
2.5418167e-05
-9.2276141e-05
-0.00011830521
-0.00015860121
-0.00028030804
-0.00023152763
-7.1221633e-05
-9.790619e-06
-5.8639673e-07
-1.4781901e-08
-1.2704645e-10
9.9911994e-12
4.4606435e-12
1.6871274e-12
5.7904853e-13
1.8086855e-13
5.1431867e-14
1.3287891e-14
3.1106711e-15
6.5809867e-16
1.2552803e-16
2.1535865e-17
3.3140881e-18
4.5624962e-19
5.6028761e-20
6.1181552e-21
5.9362907e-22
5.0565397e-23
3.7252565e-24
5.5575898e-27
2.0393748e-30
1.6484177e-34
2.3714738e-39
5.9879887e-45
1.9839505e-51
-0.00010315928
-0.00012969732
1.8210699e-05
0.0001125829
6.3450842e-05
-7.2908678e-05
-0.00014914609
-0.00013332662
-0.00010573445
-3.2441482e-05
6.7007807e-05
9.1890464e-05
1.8920127e-05
-6.3386234e-05
-6.6134926e-05
-1.9753519e-05
-1.3938731e-06
-4.0925931e-06
-2.7746597e-06
8.0627071e-05
0.00020536132
0.00016011159
-6.6853699e-06
-0.00012651195
-0.00012460025
-0.00012660002
-0.00024441494
-0.00029914549
-0.00012907381
-2.6351225e-05
-2.5323019e-06
-1.0947884e-07
-1.9531822e-09
2.0877784e-11
1.5245244e-11
5.8956935e-12
2.0718827e-12
6.7183758e-13
1.9925234e-13
5.3872045e-14
1.3229253e-14
2.940381e-15
5.8975872e-16
1.0647926e-16
1.7266038e-17
2.5086912e-18
3.261129e-19
3.7873989e-20
3.9310894e-21
3.6940156e-22
3.0889077e-23
8.4741835e-26
4.9154923e-29
6.3440972e-33
1.5229958e-37
7.0693395e-43
7.3843203e-49
-2.5490002e-56
5.3759734e-05
-0.00011273107
-0.0001131082
4.0087441e-05
0.00013276159
8.0488768e-05
-6.7460338e-05
-0.00016197577
-0.00015408871
-0.00011530722
-2.7702197e-05
7.9018177e-05
9.7114383e-05
2.2813666e-05
-4.5998885e-05
-4.178655e-05
-8.8737196e-06
-9.3179649e-07
-1.3254781e-06
-5.7296401e-07
0.00017549976
0.00013258203
-4.0868439e-05
-0.00016000058
-0.00013383946
-9.8850618e-05
-0.00018851147
-0.00032515207
-0.00020750091
-5.4193111e-05
-7.7097361e-06
-5.3251268e-07
-1.6491039e-08
-8.5261889e-11
5.1089205e-11
2.0050228e-11
7.1051867e-12
2.3053688e-12
7.0326479e-13
1.9675339e-13
5.0032779e-14
1.1498094e-14
2.3757649e-15
4.3902766e-16
7.2170438e-17
1.0491219e-17
1.3393953e-18
1.4928286e-19
1.4437837e-20
1.2319507e-21
9.8678837e-23
9.5391318e-25
9.0146395e-28
1.8167857e-31
6.8833164e-36
5.1462382e-41
1.0170816e-46
4.2091544e-53
-2.7517789e-59
0.00014189389
2.6628118e-05
-0.00011642794
-9.4236782e-05
6.1388385e-05
0.00015211568
9.68442e-05
-6.046121e-05
-0.0001718255
-0.00017284992
-0.00012426637
-2.2109113e-05
8.8615716e-05
9.5907881e-05
2.3969696e-05
-2.6380475e-05
-2.0181828e-05
-2.915094e-06
-3.3578339e-07
-2.8834563e-07
-7.9253741e-08
0.00010143364
-7.5302266e-05
-0.00019347607
-0.00014250506
-7.2426e-05
-0.00012698729
-0.00030915026
-0.00027882434
-0.00010771439
-1.7616159e-05
-1.7787396e-06
-8.170508e-08
-2.2767534e-10
2.8506957e-10
7.4019712e-11
2.4759283e-11
7.9126717e-12
2.3124595e-12
6.486031e-13
1.6780623e-13
3.8934993e-14
7.9998059e-15
1.429447e-15
2.1530541e-16
2.5524927e-17
1.8772033e-18
-7.1104739e-20
-5.5283652e-20
-1.1768267e-20
-1.7091994e-21
7.249627e-24
1.2681856e-26
4.0041615e-30
2.3323016e-34
2.6410393e-39
8.2394157e-45
8.1321543e-51
-6.9465586e-58
-3.8694907e-63
6.5850017e-05
0.00010447208
-4.0084076e-07
-0.00011587879
-7.3914311e-05
8.1899053e-05
0.00017054674
0.000112174
-5.1786645e-05
-0.00017826938
-0.00018933613
-0.00013385008
-1.4062434e-05
9.4522538e-05
8.6075318e-05
2.1277792e-05
-1.0689371e-05
-6.846214e-06
-6.8096047e-07
-8.8886969e-08
-4.1159914e-08
-7.3843678e-09
-0.00010776161
-0.00022177276
-0.00014714709
-4.4509353e-05
-6.6484256e-05
-0.00024964455
-0.00033200306
-0.00017280483
-4.3203086e-05
-4.1294177e-06
-1.6996211e-07
2.9831536e-08
6.4093211e-09
7.6303335e-10
1.119687e-10
2.6744622e-11
7.4101916e-12
1.9553318e-12
4.9525062e-13
1.1124106e-13
2.0986318e-14
3.0022956e-15
1.9588193e-16
-5.6068962e-17
-2.7846492e-17
-7.5178113e-18
-1.5506376e-18
-2.6334584e-19
-3.7763651e-20
1.9882456e-23
1.3396627e-25
6.9047574e-29
6.1432869e-33
1.0239742e-37
4.64017e-43
7.5913919e-49
3.2336084e-55
-3.782005e-61
-3.9326359e-67
-0.00013727633
2.6577296e-05
6.4645221e-05
-2.6130239e-05
-0.00011218996
-5.2850895e-05
0.00010244432
0.00018778687
0.00012681022
-4.141957e-05
-0.00017979921
-0.00020444801
-0.0001333395
-1.3274241e-06
8.9931095e-05
6.5779947e-05
1.4530914e-05
-2.6994575e-06
-1.5718016e-06
-1.0925092e-07
-1.4111332e-08
-3.8783229e-09
-4.5927945e-10
-0.00024196124
-0.00014526783
-1.3285091e-05
-4.8297093e-06
-0.00017296147
-0.00035321814
-0.00024359935
-8.1309995e-05
-1.1915308e-05
7.19242e-07
5.5452012e-07
1.4111282e-07
2.1709701e-08
2.1889219e-09
1.5478364e-10
2.3621832e-11
5.5760935e-12
1.2628684e-12
2.4974534e-13
3.1851535e-14
-1.8441956e-15
-2.8738333e-15
-1.1621258e-15
-3.385155e-16
-8.0792507e-17
-1.6466977e-17
-2.9137968e-18
-4.5019989e-19
-3.9944858e-22
9.6016385e-25
9.3142904e-28
1.2837599e-31
3.1210772e-36
1.9721992e-41
4.6748677e-47
4.3087475e-53
-6.2489149e-60
-4.7874977e-65
-3.5841698e-71
-0.00025069732
-0.00016314027
-1.4779772e-05
2.4803604e-05
-4.8950314e-05
-0.0001068524
-3.1613561e-05
0.00012214654
0.00020430775
0.00013943474
-3.0493496e-05
-0.00017303922
-0.00020271836
-0.0001229895
1.1931308e-05
7.5177892e-05
3.9375807e-05
6.796287e-06
-3.6904365e-07
-2.3506968e-07
-1.245455e-08
-1.4899796e-09
-2.3899255e-10
-1.8664309e-11
-0.00013745266
2.1802956e-05
5.8507197e-05
-9.4661282e-05
-0.00033945101
-0.00031279561
-0.00013068176
-2.409923e-05
4.1499729e-06
4.9050532e-06
1.8116443e-06
4.3756484e-07
6.4331541e-08
4.2513233e-09
1.5667907e-10
1.5376283e-11
2.7215896e-12
3.2552164e-13
-5.9711407e-14
-5.9881491e-14
-2.6343259e-14
-8.7798982e-15
-2.449346e-15
-5.9254246e-16
-1.2624432e-16
-2.3846949e-17
-4.0014811e-18
-8.1671315e-21
2.2537641e-24
9.5631324e-27
2.1455074e-30
7.6557175e-35
6.6256299e-40
2.1360853e-45
3.0414106e-51
1.262398e-57
-2.3620569e-63
-4.7754292e-69
-3.0580445e-75