/*--------------------------------*- C++ -*----------------------------------*\
| =========                 |                                                 |
| \\      /  F ield         | OpenFOAM: The Open Source CFD Toolbox           |
|  \\    /   O peration     | Version:  5.0                                   |
|   \\  /    A nd           | Web:      www.OpenFOAM.org                      |
|    \\/     M anipulation  |                                                 |
\*---------------------------------------------------------------------------*/
FoamFile
{
    version     2.0;
    format      ascii;
    class       volVectorField;
    location    "120";
    object      ddtCorrDdt0(U);
}
// * * * * * * * * * * * * * * * * * * * * * * * * * * * * * * * * * * * * * //

dimensions      [0 1 -2 0 0 0 0];

internalField   nonuniform List<vector> 
9520
(
(-5.4424689e-05 7.5688874e-07 0)
(-5.2624945e-05 1.8302816e-06 0)
(-5.7976429e-05 3.821673e-06 0)
(-4.9016053e-05 2.6031178e-06 0)
(-5.561825e-05 1.051766e-05 0)
(-6.4984222e-05 6.05486e-06 0)
(-4.3792483e-05 2.774855e-06 0)
(-5.1278862e-05 1.6472235e-05 0)
(-6.2210499e-05 1.7494516e-05 0)
(-7.8375117e-05 7.9989873e-06 0)
(-3.6853099e-05 2.2034443e-06 0)
(-4.4760834e-05 2.1533893e-05 0)
(-5.7630538e-05 2.7707228e-05 0)
(-7.5340798e-05 2.4198661e-05 0)
(-9.1037632e-05 7.9017844e-06 0)
(-2.7790964e-05 7.5513845e-07 0)
(-3.5948153e-05 2.5647069e-05 0)
(-5.0919222e-05 3.6941446e-05 0)
(-7.0289342e-05 3.9049727e-05 0)
(-8.8524205e-05 2.4581192e-05 0)
(-0.00010336101 6.9450995e-06 0)
(-1.5791291e-05 -1.7913078e-06 0)
(-2.4642687e-05 2.8660193e-05 0)
(-4.2187058e-05 4.5250258e-05 0)
(-6.3178489e-05 5.3216968e-05 0)
(-8.4014488e-05 4.0605939e-05 0)
(-0.00010180962 2.1469554e-05 0)
(-0.0001128591 6.4486353e-06 0)
(-7.8571693e-07 -3.0294459e-06 0)
(-1.0955009e-05 3.1182488e-05 0)
(-3.1361618e-05 5.2929564e-05 0)
(-5.3890552e-05 6.6847727e-05 0)
(-7.7950748e-05 5.6604202e-05 0)
(-9.8196847e-05 3.6253985e-05 0)
(-0.00011211608 1.8808829e-05 0)
(-0.00012185292 7.4641374e-06 0)
(1.8560531e-05 -3.7379732e-06 0)
(5.7572156e-06 3.1853352e-05 0)
(-1.8429464e-05 6.0441982e-05 0)
(-4.2664666e-05 8.0318309e-05 0)
(-7.0250342e-05 7.2864374e-05 0)
(-9.3438083e-05 5.1426194e-05 0)
(-0.00010953617 3.1917124e-05 0)
(-0.00012146159 2.0679174e-05 0)
(-0.00013229237 9.7097416e-06 0)
(3.8046861e-05 6.8251093e-07 0)
(1.409564e-05 3.1052188e-05 0)
(-5.4136301e-06 6.8520517e-05 0)
(-2.9643508e-05 9.368951e-05 0)
(-6.1131529e-05 8.9724566e-05 0)
(-8.7631225e-05 6.7186098e-05 0)
(-0.00010593803 4.5407344e-05 0)
(-0.00012006746 3.4460932e-05 0)
(-0.00013186969 2.7249983e-05 0)
(-0.00014682004 1.2041177e-05 0)
(5.2966441e-05 6.7951022e-06 0)
(1.8016775e-05 3.9039838e-05 0)
(8.1668315e-06 7.6829656e-05 0)
(-1.4504922e-05 0.00010705408 0)
(-5.0711996e-05 0.00010795875 0)
(-8.1061442e-05 8.3771677e-05 0)
(-0.00010118449 5.9341549e-05 0)
(-0.00011764877 4.8373725e-05 0)
(-0.00013127595 4.4627639e-05 0)
(-0.00014633211 3.520062e-05 0)
(-0.00016290179 1.3281593e-05 0)
(7.1935441e-05 2.0824883e-05 0)
(2.8168801e-05 4.437459e-05 0)
(2.7076592e-05 7.2875458e-05 0)
(7.0053167e-06 0.00011788915 0)
(-3.5957713e-05 0.00012657799 0)
(-7.3651694e-05 0.00010109639 0)
(-9.5920954e-05 7.3569417e-05 0)
(-0.00011425417 6.2724285e-05 0)
(-0.00012974878 6.1955256e-05 0)
(-0.0001464475 5.7398813e-05 0)
(-0.00016270279 4.0434441e-05 0)
(-0.00018042577 1.2939295e-05 0)
(9.7565275e-05 3.681292e-05 0)
(4.4971444e-05 3.5753389e-05 0)
(5.5926289e-05 5.9175237e-05 0)
(4.0135204e-05 0.00012654153 0)
(-1.4829474e-05 0.00014748309 0)
(-6.622478e-05 0.00012131309 0)
(-9.0942603e-05 8.7697261e-05 0)
(-0.00010945233 7.7207411e-05 0)
(-0.00012727691 7.9598486e-05 0)
(-0.00014598969 7.9633644e-05 0)
(-0.00016349122 6.6054087e-05 0)
(-0.00018096152 4.0595924e-05 0)
(-0.00019592479 1.108982e-05 0)
(0.00012944505 5.4126213e-05 0)
(5.6980326e-05 2.5246933e-05 0)
(9.0921833e-05 3.6431837e-05 0)
(8.3492636e-05 0.00013158944 0)
(1.1210074e-05 0.0001731009 0)
(-6.0286729e-05 0.00014747107 0)
(-8.9032251e-05 0.0001020572 0)
(-0.00010415666 9.1042662e-05 0)
(-0.00012337197 9.7743602e-05 0)
(-0.00014497988 0.00010227915 0)
(-0.00016443145 9.173311e-05 0)
(-0.0001827955 6.6995741e-05 0)
(-0.00019773973 3.4920547e-05 0)
(-0.00020736331 8.3764861e-06 0)
(0.00013418551 0.00012256563 0)
(4.4234022e-05 -4.9224258e-06 0)
(0.00012265402 4.8334699e-06 0)
(0.0001354872 0.00014122055 0)
(3.8011722e-05 0.00021260769 0)
(-6.4012895e-05 0.00018547535 0)
(-9.5405472e-05 0.00011836414 0)
(-0.00010044488 0.00010263533 0)
(-0.00011739759 0.00011596989 0)
(-0.00014260104 0.00012578599 0)
(-0.00016560373 0.00011811463 0)
(-0.00018561246 9.3467625e-05 0)
(-0.00020005467 5.8627166e-05 0)
(-0.0002102847 2.5477991e-05 0)
(-0.00021499339 5.6089393e-06 0)
(0.0001543382 9.7641461e-05 0)
(3.2793408e-05 -3.9448195e-06 0)
(0.0001529002 -3.5665805e-05 0)
(0.00019183022 0.00014766007 0)
(7.0835385e-05 0.0002698128 0)
(-8.0324795e-05 0.00024323364 0)
(-0.00011251774 0.00013378126 0)
(-9.8315616e-05 0.00010737605 0)
(-0.00010774677 0.00013247165 0)
(-0.00013755421 0.00015033259 0)
(-0.0001662184 0.00014601635 0)
(-0.0001892655 0.00012069526 0)
(-0.00020414826 8.3011176e-05 0)
(-0.00021429724 4.3613722e-05 0)
(-0.00021858874 1.5854119e-05 0)
(-0.00021924244 3.6568989e-06 0)
(0.00010018505 0.00028584827 0)
(-1.8025313e-05 -0.00010223995 0)
(0.00022412785 -0.00011204701 0)
(0.00028323453 0.00015793631 0)
(0.00010960479 0.00035119203 0)
(-0.00010990359 0.00031659835 0)
(-0.00014740463 0.00014706998 0)
(-9.8265627e-05 9.97622e-05 0)
(-9.3621869e-05 0.00014346591 0)
(-0.00012729728 0.00017569588 0)
(-0.00016505147 0.00017637859 0)
(-0.00019364302 0.00014998344 0)
(-0.0002102624 0.00010808189 0)
(-0.00022016288 6.3419803e-05 0)
(-0.00022416602 2.7395135e-05 0)
(-0.00022297322 9.5416525e-06 0)
(-0.00022201556 3.0873227e-06 0)
(7.3017242e-05 0.00016454094 0)
(-8.2760427e-05 -7.8281006e-05 0)
(0.00028879157 -0.00020968948 0)
(0.00044418761 0.00016658047 0)
(0.00014409114 0.0004511308 0)
(-0.00016164169 0.00043212136 0)
(-0.00021988277 0.00015878645 0)
(-0.00010759101 7.5734133e-05 0)
(-7.563939e-05 0.00014618069 0)
(-0.00010804597 0.00020046769 0)
(-0.00015960204 0.00021066357 0)
(-0.00019840337 0.00018288459 0)
(-0.00021867703 0.00013490457 0)
(-0.0002284125 8.4442403e-05 0)
(-0.00023215265 4.0457808e-05 0)
(-0.00022956142 1.6049919e-05 0)
(-0.00022556929 8.271492e-06 0)
(-0.00022507898 3.8461509e-06 0)
(-0.00026669966 0.00043938099 0)
(-0.00023361796 -0.00032052398 0)
(0.00045730496 -0.0004664997 0)
(0.00069611757 0.00018013924 0)
(0.00018576228 0.00061398597 0)
(-0.00025161538 0.00057909082 0)
(-0.00033123704 0.000178959 0)
(-0.00014236858 1.6719528e-05 0)
(-4.8538976e-05 0.00012762659 0)
(-7.3178866e-05 0.000222619 0)
(-0.0001455051 0.0002507995 0)
(-0.00020263355 0.00022201522 0)
(-0.00023009456 0.00016515146 0)
(-0.0002398375 0.00010610637 0)
(-0.0002406724 5.5850543e-05 0)
(-0.00023867858 2.3065414e-05 0)
(-0.00023234328 1.3362855e-05 0)
(-0.00022854255 1.1006511e-05 0)
(-0.00022932711 5.2946021e-06 0)
(-0.00013206899 0.00025779795 0)
(-0.00020307709 -0.00024989976 0)
(0.00063125503 -0.00061326201 0)
(0.0010803195 0.00017915973 0)
(0.00026449542 0.00086210798 0)
(-0.0004257284 0.00078923473 0)
(-0.00049683953 0.00017732901 0)
(-0.0001665623 -7.7066392e-05 0)
(5.2915999e-06 7.59011e-05 0)
(-8.411527e-06 0.0002322797 0)
(-0.0001133599 0.0002990146 0)
(-0.00020444003 0.00027246708 0)
(-0.00024623054 0.00020125242 0)
(-0.00025578494 0.00012922164 0)
(-0.00025288945 7.1175216e-05 0)
(-0.00024975327 3.0453583e-05 0)
(-0.0002414373 1.8015822e-05 0)
(-0.00023516446 1.8257408e-05 0)
(-0.00023302246 1.5081901e-05 0)
(-0.00023468549 6.5478998e-06 0)
(-0.0008634938 0.00071480472 0)
(-0.0007895539 -0.00095118339 0)
(0.00092237003 -0.0011335964 0)
(0.0015602239 0.0002310185 0)
(0.00035612718 0.0012140899 0)
(-0.00068859952 0.0010698321 0)
(-0.00083483177 0.00015676986 0)
(-0.00019107842 -0.00028083122 0)
(0.00013728631 -3.8158973e-05 0)
(0.0001188037 0.00023128478 0)
(-4.8301357e-05 0.00035736857 0)
(-0.0001993906 0.00034157337 0)
(-0.00026921347 0.0002482904 0)
(-0.00027942556 0.00015450423 0)
(-0.00026963563 8.5321979e-05 0)
(-0.00026141448 3.8554959e-05 0)
(-0.00025204956 2.2149393e-05 0)
(-0.00024408461 2.4498943e-05 0)
(-0.00023974674 2.607587e-05 0)
(-0.00023886177 1.8414904e-05 0)
(-0.00024066365 6.9055349e-06 0)
(-0.0005027902 0.00035084875 0)
(-0.00060862416 -0.00079981484 0)
(0.0012993931 -0.0013646176 0)
(0.0024000197 0.00014907285 0)
(0.00056841213 0.0017445016 0)
(-0.0010695704 0.0015100658 0)
(-0.0012051731 0.00011067384 0)
(-0.00020916001 -0.00056094691 0)
(0.00035429861 -0.0002037719 0)
(0.00026691431 0.00016436396 0)
(6.2083913e-05 0.00044236322 0)
(-0.00018445524 0.00044574714 0)
(-0.00030362657 0.00031480456 0)
(-0.00031656931 0.00018394007 0)
(-0.00029387461 9.6648631e-05 0)
(-0.000275167 4.4578908e-05 0)
(-0.00026369566 2.5258781e-05 0)
(-0.00025426153 3.0695929e-05 0)
(-0.0002487201 3.6119881e-05 0)
(-0.00024627212 3.1973654e-05 0)
(-0.0002452226 2.0329017e-05 0)
(-0.00024666064 6.1379266e-06 0)
(-0.0011927048 0.0010214494 0)
(-0.0015978965 -0.0019458755 0)
(0.0017804508 -0.0023427086 0)
(0.0032227449 0.00034477667 0)
(0.00071400167 0.0023873199 0)
(-0.0015942123 0.0020477647 0)
(-0.0018364838 4.602476e-05 0)
(-0.00042281319 -0.0010187189 0)
(0.0005891113 -0.00051471271 0)
(0.00049809128 0.00018459541 0)
(0.00019635706 0.0005642015 0)
(-0.00015971566 0.0006025749 0)
(-0.00035956095 0.00041773166 0)
(-0.00037776579 0.00022081213 0)
(-0.00033076685 0.00010264399 0)
(-0.00029289029 4.472238e-05 0)
(-0.00027520386 2.5957089e-05 0)
(-0.00026432522 3.6197632e-05 0)
(-0.00025924826 4.6479896e-05 0)
(-0.00025564911 4.6007483e-05 0)
(-0.0002538177 3.3769861e-05 0)
(-0.00025131127 2.0189063e-05 0)
(-0.00025183024 4.3944085e-06 0)
(-0.0010264466 0.00066347862 0)
(-0.0017518335 -0.0017419144 0)
(0.0024180029 -0.0029214196 0)
(0.004869422 3.1373289e-05 0)
(0.0011750349 0.0034965438 0)
(-0.0023765225 0.0029754847 0)
(-0.0027807899 -5.3488584e-05 0)
(-0.00066400004 -0.0016622036 0)
(0.00091728215 -0.00094516587 0)
(0.0009881792 0.00017095311 0)
(0.00036673852 0.00071735944 0)
(-0.0001298986 0.00085737621 0)
(-0.00045016599 0.00057390535 0)
(-0.00047905684 0.00027068401 0)
(-0.00038965369 9.9156216e-05 0)
(-0.00031719136 3.2880414e-05 0)
(-0.0002851934 2.129616e-05 0)
(-0.00027267422 3.9825997e-05 0)
(-0.00026925394 5.7026661e-05 0)
(-0.00026695396 6.0196249e-05 0)
(-0.00026415588 5.0108625e-05 0)
(-0.00026099998 3.1883114e-05 0)
(-0.00025662663 1.6462894e-05 0)
(-0.00025516717 1.8566019e-06 0)
(-0.0024606737 0.0012619226 0)
(-0.0026654559 -0.0034920602 0)
(0.0032500958 -0.0042951645 0)
(0.0060225183 0.00050441549 0)
(0.001297402 0.0045622663 0)
(-0.0033303178 0.0039652884 0)
(-0.0040717844 -0.00019222993 0)
(-0.0010283668 -0.0025512998 0)
(0.0013603448 -0.0016322518 0)
(0.001700086 8.5733754e-05 0)
(0.00069361959 0.00099726619 0)
(-0.00010784196 0.0011776407 0)
(-0.00058477402 0.00082211985 0)
(-0.00064789734 0.0003405484 0)
(-0.00048790263 7.6730052e-05 0)
(-0.00035199139 -6.4319391e-07 0)
(-0.00029196729 5.2717294e-06 0)
(-0.00027642233 3.9582205e-05 0)
(-0.00027671419 6.7330359e-05 0)
(-0.00027795287 7.5171381e-05 0)
(-0.00027634477 6.6528652e-05 0)
(-0.00027280803 4.7167841e-05 0)
(-0.0002666702 2.6412789e-05 0)
(-0.00026065673 8.3243632e-06 0)
(-0.00025590062 -1.3005851e-06 0)
(-0.0030529359 0.00074722607 0)
(-0.002281305 -0.002686031 0)
(0.0037704257 -0.0054244375 0)
(0.0085854651 0.00018556295 0)
(0.0018721918 0.0065141661 0)
(-0.0048248524 0.0058012599 0)
(-0.0059266324 -0.00043974817 0)
(-0.0015205317 -0.0037740294 0)
(0.0019516651 -0.002605453 0)
(0.0026675059 -8.1066248e-05 0)
(0.0012345935 0.0014377383 0)
(-9.0742698e-05 0.0016411104 0)
(-0.00079296744 0.0011722072 0)
(-0.00090114175 0.00043892317 0)
(-0.00064691863 2.3205478e-05 0)
(-0.00039943722 -6.9479234e-05 0)
(-0.00029294776 -3.1823711e-05 0)
(-0.00027113842 3.1900135e-05 0)
(-0.00027816008 7.6899112e-05 0)
(-0.00028667764 9.1477428e-05 0)
(-0.00028888819 8.412412e-05 0)
(-0.00028600978 6.3350628e-05 0)
(-0.00028000779 3.7429235e-05 0)
(-0.00027058981 1.5792716e-05 0)
(-0.00026253363 -2.5635954e-06 0)
(-0.00025385194 -4.6059415e-06 0)
(-0.0042586994 0.00093529483 0)
(-0.0021866525 -0.0056229101 0)
(0.0059620114 -0.0071495159 0)
(0.0093852611 0.0015556811 0)
(0.00010067867 0.0076145971 0)
(-0.006181805 0.0075632088 0)
(-0.0082713519 -0.00069649544 0)
(-0.0022549922 -0.0053976748 0)
(0.0027456294 -0.0040064752 0)
(0.0040324689 -0.00038533736 0)
(0.0020943047 0.0020634962 0)
(-4.5940949e-05 0.0023428198 0)
(-0.0011328049 0.0016631307 0)
(-0.0012816604 0.00057933832 0)
(-0.00088075 -8.0198032e-05 0)
(-0.00046826791 -0.00019932993 0)
(-0.000283632 -0.00010555289 0)
(-0.00024912338 1.1228135e-05 0)
(-0.00026817063 8.5287749e-05 0)
(-0.00029002081 0.00011019238 0)
(-0.00030023664 0.00010419455 0)
(-0.00030039192 8.1542675e-05 0)
(-0.0002949174 5.1174684e-05 0)
(-0.00028519655 2.1979711e-05 0)
(-0.00027293179 -8.6504553e-08 0)
(-0.00026141101 -1.3166412e-05 0)
(-0.00024954024 -7.3701877e-06 0)
(-0.0049704067 0.00036349046 0)
(-0.0014351815 -0.0051033105 0)
(0.0085202553 -0.0082294987 0)
(0.011894345 0.00054897976 0)
(2.8629819e-05 0.010829469 0)
(-0.0067688577 0.01067268 0)
(-0.011405598 -0.001294758 0)
(-0.003077037 -0.0075069259 0)
(0.0037961625 -0.0058647178 0)
(0.0058948691 -0.00087182498 0)
(0.0033566682 0.0029048386 0)
(5.5289996e-05 0.0033974926 0)
(-0.0016489842 0.0023609089 0)
(-0.0018889131 0.00076825692 0)
(-0.0012223531 -0.0002448296 0)
(-0.00057066605 -0.00042585384 0)
(-0.00025388742 -0.00023752308 0)
(-0.00019784439 -3.1128414e-05 0)
(-0.00023761572 9.1884542e-05 0)
(-0.00028322184 0.00013358186 0)
(-0.00030831237 0.00012873505 0)
(-0.00031533321 0.00010300338 0)
(-0.00031185358 6.8336595e-05 0)
(-0.00030257198 3.3276099e-05 0)
(-0.00028844982 3.279844e-06 0)
(-0.00027310191 -1.7872345e-05 0)
(-0.00025742594 -2.1503421e-05 0)
(-0.00024379036 -9.226685e-06 0)
(-0.0056218065 0.00039615442 0)
(-0.0001272813 -0.0087499869 0)
(0.011519143 -0.010777464 0)
(0.014489176 0.0037010821 0)
(-0.00094109172 0.011922429 0)
(-0.0074297141 0.012528538 0)
(-0.015527425 -0.0014978147 0)
(-0.0043333734 -0.010212521 0)
(0.0051859101 -0.0084254291 0)
(0.0084087543 -0.0015544342 0)
(0.0051064689 0.0040024107 0)
(0.00023761233 0.0049051355 0)
(-0.002401437 0.0033782915 0)
(-0.0028140928 0.0010197083 0)
(-0.0017435196 -0.00051226452 0)
(-0.00071146673 -0.00078736739 0)
(-0.00019373188 -0.0004615531 0)
(-9.7076663e-05 -0.00010880323 0)
(-0.00017087942 9.6533612e-05 0)
(-0.00025871191 0.00016534167 0)
(-0.00031039798 0.00016158423 0)
(-0.00032976044 0.00013039537 0)
(-0.00033100254 9.0514963e-05 0)
(-0.00032240534 4.81576e-05 0)
(-0.00030805942 9.7418679e-06 0)
(-0.00028981867 -1.8779933e-05 0)
(-0.00027043846 -3.3818117e-05 0)
(-0.00025183064 -2.7091197e-05 0)
(-0.00023734072 -1.0257509e-05 0)
(-0.0061815003 -0.00097758074 0)
(0.00063067424 -0.0095315037 0)
(0.014691088 -0.011524889 0)
(0.016497864 0.0019798894 0)
(-0.001106019 0.01547476 0)
(-0.010317936 0.017300224 0)
(-0.020314255 -0.0022475133 0)
(-0.005567897 -0.013586044 0)
(0.0069841945 -0.011588587 0)
(0.011698951 -0.0025145268 0)
(0.0075082795 0.0054259555 0)
(0.00054233216 0.0070288461 0)
(-0.0034701313 0.0048087868 0)
(-0.0041715877 0.0013557296 0)
(-0.0025286829 -0.00093872972 0)
(-0.00089913624 -0.0013473213 0)
(-7.9925574e-05 -0.0008240461 0)
(8.4744018e-05 -0.00023874777 0)
(-4.4009794e-05 9.8932724e-05 0)
(-0.00020386638 0.00021347427 0)
(-0.00030336967 0.00020974092 0)
(-0.00034396466 0.00016845373 0)
(-0.00035155944 0.00011875032 0)
(-0.00034543601 6.6983172e-05 0)
(-0.00032988481 1.8538363e-05 0)
(-0.00030999213 -1.8392742e-05 0)
(-0.00028856125 -4.1478536e-05 0)
(-0.00026566218 -4.3725227e-05 0)
(-0.000245613 -3.0006333e-05 0)
(-0.00023077879 -1.0606206e-05 0)
(-0.0069013621 -0.0012068581 -5.6241811e-24)
(0.0016832178 -0.011914256 0)
(0.016734693 -0.014059862 0)
(0.017530406 0.0055808384 0)
(-1.8630668e-05 0.018391421 0)
(-0.011015545 0.01936078 0)
(-0.025299245 -0.0023302861 0)
(-0.0072271026 -0.017985466 0)
(0.0094349332 -0.015979527 0)
(0.015904424 -0.0036894389 0)
(0.010637915 0.0072252039 0)
(0.0010088372 0.0098956304 0)
(-0.0049548954 0.0068677259 0)
(-0.0061241194 0.0018066187 0)
(-0.0036774462 -0.0015996288 0)
(-0.0011580609 -0.002196613 0)
(0.00012418508 -0.0013805396 0)
(0.00038700541 -0.00044562879 0)
(0.00018071409 0.00010199058 0)
(-0.00010352787 0.0002926802 0)
(-0.00028359768 0.00028621547 0)
(-0.0003590301 0.00022613065 0)
(-0.00037782081 0.0001562945 0)
(-0.0003718077 9.0279065e-05 0)
(-0.00035511807 3.0896009e-05 0)
(-0.00033322438 -1.5456067e-05 0)
(-0.000309361 -4.4100852e-05 0)
(-0.00028539581 -5.5356696e-05 0)
(-0.00026039804 -4.900264e-05 0)
(-0.00023802948 -3.1168635e-05 0)
(-0.00022434903 -1.0203047e-05 0)
(-0.0076746496 -0.0021293385 -1.4177644e-24)
(0.0018975111 -0.014027108 5.8648697e-24)
(0.018494676 -0.014229021 0)
(0.017365958 0.0058442593 0)
(-0.0013318023 0.02306692 0)
(-0.016327005 0.02567843 0)
(-0.030928565 -0.0036337478 0)
(-0.0079014985 -0.022647667 0)
(0.012877496 -0.020991509 0)
(0.021276928 -0.0053107828 0)
(0.014715274 0.0094693793 0)
(0.0016552082 0.013696933 0)
(-0.0069754677 0.0096456275 0)
(-0.0088451571 0.0024093664 0)
(-0.0053246 -0.002566914 0)
(-0.0015160062 -0.0034613052 0)
(0.00046128018 -0.0022077441 0)
(0.00086654621 -0.00074951828 0)
(0.00052019768 0.00011666853 0)
(4.9413769e-05 0.00041983219 0)
(-0.00024973839 0.0004143082 0)
(-0.00037970942 0.00031540953 0)
(-0.00041323299 0.00020900105 0)
(-0.00040513056 0.00011949263 0)
(-0.0003852579 4.6258042e-05 0)
(-0.00036003655 -9.3207103e-06 0)
(-0.00033478883 -4.5085811e-05 0)
(-0.00030720789 -6.3341537e-05 0)
(-0.0002796131 -6.3668803e-05 0)
(-0.00025388452 -5.0341373e-05 0)
(-0.00023232453 -3.1388826e-05 0)
(-0.00021800151 -9.3993754e-06 0)
(-0.0081958181 -0.0028403638 1.4253003e-24)
(0.0019909381 -0.016641629 -4.9813943e-23)
(0.019693235 -0.016079447 0)
(0.015985189 0.009124125 0)
(-0.0046209214 0.027145027 0)
(-0.028592285 0.028128328 0)
(-0.037240048 -0.0029446887 0)
(-0.012009205 -0.02928171 0)
(0.017239709 -0.027769674 0)
(0.027895325 -0.0067488858 0)
(0.019613214 0.01219155 0)
(0.0025743492 0.01867087 0)
(-0.0096907135 0.013540364 0)
(-0.012587238 0.0031755724 0)
(-0.0076012898 -0.0039704616 0)
(-0.0019918352 -0.0052843719 0)
(0.0009875592 -0.0034109633 0)
(0.0016043905 -0.0012087267 0)
(0.0010851912 0.00017204081 0)
(0.00025384012 0.00065877639 0)
(-0.00019918834 0.00063454422 0)
(-0.00041180001 0.00045707828 0)
(-0.00046829089 0.00028494763 0)
(-0.00045358742 0.0001569032 0)
(-0.00042215564 6.3443168e-05 0)
(-0.00039120467 -9.3157146e-07 0)
(-0.00036279089 -4.3401004e-05 0)
(-0.00033456859 -6.7605423e-05 0)
(-0.00030456855 -7.4295853e-05 0)
(-0.00027410323 -6.6219282e-05 0)
(-0.00024716858 -4.8820738e-05 0)
(-0.00022645325 -3.0168983e-05 0)
(-0.00021283883 -8.2979094e-06 0)
(-0.0084164805 -0.0036177148 0)
(0.0024402075 -0.019508651 4.9890834e-23)
(0.020149843 -0.016984686 0)
(0.015318593 0.010586478 0)
(-0.0070890015 0.032225387 0)
(-0.033324939 0.033410549 0)
(-0.036063721 -0.0063990905 0)
(-0.012494035 -0.036216702 0)
(0.021665902 -0.034999293 0)
(0.035925443 -0.0087063692 0)
(0.025018737 0.015702467 0)
(0.0034539111 0.02511549 0)
(-0.013277348 0.018507138 0)
(-0.017573768 0.004167315 0)
(-0.010712704 -0.005901202 0)
(-0.0026124314 -0.0078682693 0)
(0.0017808432 -0.0051112862 0)
(0.0027151404 -0.0018603191 0)
(0.0019368993 0.00023190615 0)
(0.000714908 0.0010133462 0)
(-5.7696477e-05 0.00093888146 0)
(-0.00045093895 0.0006724806 0)
(-0.00055647609 0.00039679635 0)
(-0.0005284332 0.00020505473 0)
(-0.00047433595 8.1279276e-05 0)
(-0.00042868216 5.6461549e-06 0)
(-0.00039355437 -4.0292986e-05 0)
(-0.00036323487 -6.9037966e-05 0)
(-0.00033225673 -8.1854868e-05 0)
(-0.00030085797 -7.8544448e-05 0)
(-0.00026879252 -6.4642116e-05 0)
(-0.00024219182 -4.5256233e-05 0)
(-0.0002211334 -2.5319162e-05 0)
(-0.00020853339 -7.1721037e-06 0)
(-0.0081948699 -0.0043537613 4.6162283e-24)
(0.0023624508 -0.022484868 0)
(0.019261654 -0.017556922 -7.3284181e-23)
(0.014596633 0.012464616 0)
(-0.00885286 0.037592983 0)
(-0.03612469 0.034452817 0)
(-0.034631184 -0.0080853943 0)
(-0.0079866447 -0.042373081 0)
(0.026257445 -0.04511326 0)
(0.044745944 -0.009714262 0)
(0.030565857 0.019906274 0)
(0.0020991857 0.032606482 0)
(-0.018071473 0.025081925 0)
(-0.024149429 0.0052586006 0)
(-0.014781574 -0.0085566311 0)
(-0.0033784689 -0.011401417 0)
(0.0029313196 -0.0074624158 0)
(0.0043135375 -0.0027614015 0)
(0.0031922014 0.00033497879 0)
(0.0014044024 0.0015454007 0)
(1.9618882e-05 0.0013781835 0)
(-0.00049532341 0.0010078229 0)
(-0.00069604583 0.00056238265 0)
(-0.00064650065 0.00026624645 0)
(-0.00055221589 9.7106455e-05 0)
(-0.00047586352 6.0192115e-06 0)
(-0.00042719195 -4.0584444e-05 0)
(-0.00039319165 -6.9117982e-05 0)
(-0.0003621039 -8.4868916e-05 0)
(-0.00033039712 -8.6818503e-05 0)
(-0.00029636789 -7.7690276e-05 0)
(-0.00026425915 -6.0492247e-05 0)
(-0.00023675526 -4.0548245e-05 0)
(-0.00021657061 -2.2372654e-05 0)
(-0.00020481288 -6.4094731e-06 0)
(-0.0076154949 -0.0050085757 2.5390405e-23)
(0.0019216568 -0.025415819 -9.0297505e-23)
(0.017578848 -0.017828721 7.3240661e-23)
(0.013209526 0.014230984 -7.414592e-23)
(-0.0096306441 0.042402919 5.0838278e-23)
(-0.038024419 0.038014544 0)
(-0.033938315 -0.013621743 0)
(-0.0036947421 -0.048337545 0)
(0.030078827 -0.055144238 0)
(0.055455433 -0.010396971 0)
(0.037740471 0.025580418 0)
(0.0014388872 0.041730137 0)
(-0.022910597 0.03359939 0)
(-0.032817559 0.0066791224 0)
(-0.020082275 -0.012026733 0)
(-0.0043009368 -0.016190396 0)
(0.0045876492 -0.010611489 0)
(0.0065490638 -0.0039618785 0)
(0.0049830942 0.00048387229 0)
(0.0023867949 0.0023353192 0)
(0.00023270226 0.0021878751 0)
(-0.00063478108 0.0014906734 0)
(-0.00091241837 0.00082913835 0)
(-0.00084156838 0.00034982653 0)
(-0.00067325929 0.00010206363 0)
(-0.000541427 -8.7868152e-06 0)
(-0.00046429183 -5.160521e-05 0)
(-0.00042199969 -7.274952e-05 0)
(-0.0003914959 -8.6024519e-05 0)
(-0.0003612263 -9.0593625e-05 0)
(-0.000327585 -8.6390846e-05 0)
(-0.00029272943 -7.3425228e-05 0)
(-0.00025949086 -5.5072198e-05 0)
(-0.00023215745 -3.6763318e-05 0)
(-0.00021260445 -2.0168602e-05 0)
(-0.00020156649 -6.2011e-06 0)
(-0.0067330741 -0.0055405967 -4.0187439e-23)
(0.0011378116 -0.02790779 1.2230428e-22)
(0.015025371 -0.017861546 0)
(0.011820683 0.015640018 9.9888012e-23)
(-0.01041271 0.047708602 -5.0533926e-23)
(-0.038402679 0.041490157 -1.4556918e-22)
(-0.034307926 -0.014873582 -7.2788349e-23)
(-0.003525064 -0.055898452 0)
(0.033317395 -0.06559094 0)
(0.061234551 -0.012352174 0)
(0.042659321 0.028686382 0)
(0.0055726654 0.053914143 0)
(-0.031763229 0.044478915 0)
(-0.044026951 0.0079259641 0)
(-0.02647148 -0.016520881 0)
(-0.0053566598 -0.022439766 0)
(0.0068723005 -0.014774683 0)
(0.0095818431 -0.0055303889 0)
(0.0074785744 0.00070271671 0)
(0.0037964394 0.0034761223 0)
(0.00059194594 0.0033789831 0)
(-0.00090726205 0.0022173343 0)
(-0.0012685842 0.0012466811 0)
(-0.0011610811 0.00046256114 0)
(-0.00086636101 8.9430906e-05 0)
(-0.00063970904 -5.4525992e-05 0)
(-0.00050766091 -8.6101746e-05 0)
(-0.0004471517 -8.7199959e-05 0)
(-0.00041659085 -8.8741811e-05 0)
(-0.00039108887 -9.0753279e-05 0)
(-0.00036063362 -8.9736923e-05 0)
(-0.00032544032 -8.2263838e-05 0)
(-0.00028891342 -6.7958456e-05 0)
(-0.00025521566 -5.0001717e-05 0)
(-0.00022821746 -3.3995001e-05 0)
(-0.0002090077 -1.9316562e-05 0)
(-0.00019836303 -6.7057747e-06 0)
(-0.0056315977 -0.0059795055 1.0392635e-24)
(0.00021570623 -0.029911214 -3.0374997e-23)
(0.011736495 -0.017876584 1.286765e-23)
(0.0099579607 0.017066085 -9.7946317e-24)
(-0.010563833 0.052809495 -2.7884474e-23)
(-0.037797106 0.044218281 -6.5336598e-23)
(-0.034249306 -0.016475334 -7.8551806e-23)
(-0.0030908695 -0.062840844 -9.2597295e-24)
(0.041411651 -0.072137006 0)
(0.064917941 -0.0098259606 0)
(0.046549778 0.041064833 0)
(0.00065457564 0.066563503 0)
(-0.039896094 0.053080556 0)
(-0.054955838 0.0086725972 0)
(-0.033481435 -0.022508247 0)
(-0.0063099021 -0.030609031 0)
(0.01000973 -0.020054958 0)
(0.013593843 -0.0075295724 0)
(0.010815263 0.0010046874 0)
(0.0057667173 0.0050392247 0)
(0.0011412378 0.0051129938 0)
(-0.0012932934 0.0033573564 0)
(-0.001882544 0.0017952868 0)
(-0.0016362297 0.0006554323 0)
(-0.0011901996 3.0113498e-05 0)
(-0.00078767162 -0.00015738139 0)
(-0.00056157877 -0.00016468727 0)
(-0.00046480157 -0.0001255106 0)
(-0.00043163654 -9.8837927e-05 0)
(-0.00041473576 -8.9044417e-05 0)
(-0.00039247361 -8.7457154e-05 0)
(-0.0003608359 -8.499487e-05 0)
(-0.00032349474 -7.6748485e-05 0)
(-0.00028509845 -6.2531962e-05 0)
(-0.00025104634 -4.706338e-05 0)
(-0.00022441171 -3.2971354e-05 0)
(-0.00020546379 -2.0269165e-05 0)
(-0.0001949854 -7.8745182e-06 0)
(-0.0041993615 -0.0062424909 1.2075801e-23)
(-0.00076426605 -0.031392138 3.1382666e-24)
(0.008056168 -0.017848643 0)
(0.0077728119 0.018192127 -1.8385788e-23)
(-0.010607144 0.057733399 5.3126251e-23)
(-0.036396153 0.047265638 0)
(-0.032935808 -0.017897702 3.0736846e-22)
(-0.0041537634 -0.06830317 2.7063065e-22)
(0.045552763 -0.083331196 0)
(0.066818099 -0.009117238 0)
(0.044222071 0.037810317 0)
(-0.0013538983 0.076039457 0)
(-0.033902167 0.068690302 0)
(-0.065615354 0.0092568544 0)
(-0.040885912 -0.030124764 0)
(-0.0065859962 -0.040731569 0)
(0.014235696 -0.02680506 0)
(0.01878187 -0.0099195447 0)
(0.015216245 0.0013868079 0)
(0.0084866325 0.0071329971 0)
(0.0019177186 0.0075577829 0)
(-0.0018284771 0.0050638635 0)
(-0.0028311085 0.0025987367 0)
(-0.0024180948 0.00087082712 0)
(-0.0016672799 -6.0553417e-05 0)
(-0.0010196722 -0.00034599715 0)
(-0.00063296558 -0.00032219028 0)
(-0.00046931524 -0.00021038172 0)
(-0.00042728923 -0.00012717612 0)
(-0.00042414259 -8.8599943e-05 0)
(-0.00041787402 -7.9131784e-05 0)
(-0.00039620147 -7.9802574e-05 0)
(-0.00036193429 -7.8895225e-05 0)
(-0.00032152212 -7.158342e-05 0)
(-0.00028155324 -5.9099147e-05 0)
(-0.00024698181 -4.6421077e-05 0)
(-0.00022061539 -3.4838032e-05 0)
(-0.00020177286 -2.2913179e-05 0)
(-0.00019116456 -9.6025152e-06 0)
(-0.0029318136 -0.0062640733 0)
(-0.0021424046 -0.032245671 0)
(0.0044265546 -0.017695132 -3.2335158e-24)
(0.0052433972 0.019059992 0)
(-0.010161288 0.062183174 9.2863309e-24)
(-0.033723192 0.049652033 3.1823198e-24)
(-0.031069402 -0.019112902 -4.7791236e-22)
(-0.0042086528 -0.074932859 -2.0490646e-22)
(0.045686222 -0.094959653 0)
(0.0691721 -0.010987305 0)
(0.043169685 0.05169714 0)
(0.00056495865 0.09256441 0)
(-0.038458837 0.081602684 0)
(-0.083032164 0.011730238 0)
(-0.051694283 -0.038319279 0)
(-0.0058857398 -0.05282159 0)
(0.019920012 -0.034791961 0)
(0.025314823 -0.012851972 0)
(0.020820321 0.0019223958 0)
(0.012098851 0.0098174984 0)
(0.0030659105 0.010896387 0)
(-0.0025602553 0.0075592154 0)
(-0.0042384882 0.0037751225 0)
(-0.0036529093 0.0011303407 0)
(-0.0023698879 -0.00022595939 0)
(-0.001397059 -0.00069581533 0)
(-0.00073082305 -0.0005913111 0)
(-0.00045347302 -0.0003683179 0)
(-0.00039009391 -0.00019014807 0)
(-0.00040641564 -9.5804348e-05 0)
(-0.0004277501 -6.459382e-05 0)
(-0.00042646011 -6.4586304e-05 0)
(-0.00040207651 -7.1426148e-05 0)
(-0.00036329983 -7.3843212e-05 0)
(-0.00031949857 -6.8654484e-05 0)
(-0.0002780297 -5.9118291e-05 0)
(-0.00024300775 -4.8868622e-05 0)
(-0.00021660785 -3.9220575e-05 0)
(-0.00019774409 -2.712936e-05 0)
(-0.00018667773 -1.17565e-05 0)
(-0.0038674318 -0.032414906 -3.3339375e-25)
(-0.0018597065 -0.0061250773 0)
(0.0005434291 -0.017685817 -7.108088e-24)
(0.0026439928 0.019722631 -1.6228357e-23)
(-0.0095251948 0.066048136 -4.6270948e-23)
(-0.030506298 0.051582011 -2.0211279e-22)
(-0.027662843 -0.020252978 -1.2995034e-23)
(-0.004411585 -0.081159917 1.068929e-22)
(0.044827038 -0.10611383 1.7596089e-22)
(0.069735527 -0.012696825 0)
(0.043575947 0.05541295 -5.1745539e-22)
(-0.0044136763 0.10298512 0)
(-0.063548835 0.098801553 0)
(-0.10120726 0.014465481 0)
(-0.064740477 -0.048090167 0)
(-0.0080004426 -0.068151934 0)
(0.027783262 -0.044472033 0)
(0.033367932 -0.015916623 0)
(0.027748234 0.0024938084 0)
(0.016781698 0.013198045 0)
(0.004630232 0.015265448 0)
(-0.003551835 0.011021509 0)
(-0.0062725576 0.0055113582 0)
(-0.0055018428 0.0014696489 0)
(-0.0035023646 -0.00057005492 0)
(-0.0018997306 -0.0011882159 0)
(-0.00088588346 -0.0010655536 0)
(-0.00040717802 -0.0006623888 0)
(-0.00029801782 -0.00031556856 0)
(-0.00034175921 -0.00012069846 0)
(-0.00040749899 -4.5171164e-05 0)
(-0.00044270748 -3.6028675e-05 0)
(-0.00043966793 -5.0738364e-05 0)
(-0.00040896209 -6.5631846e-05 0)
(-0.00036452362 -7.1988162e-05 0)
(-0.00031710017 -6.9680102e-05 0)
(-0.00027401737 -6.3092962e-05 0)
(-0.00023876542 -5.5089983e-05 0)
(-0.00021217906 -4.5953279e-05 0)
(-0.00019309819 -3.2809666e-05 0)
(-0.0001814805 -1.4147864e-05 0)
(-0.0035666149 -0.0178749 6.3419874e-24)
(-0.0051588945 -0.031962141 0)
(-0.00078007077 -0.0058503804 -2.2097709e-25)
(0.0005016785 0.020212936 1.6222759e-23)
(-0.0086968378 0.069174309 3.8679537e-23)
(-0.027161363 0.052702906 2.6908653e-23)
(-0.022485496 -0.021292985 3.5070449e-22)
(-0.0035818188 -0.087018519 -4.0150733e-23)
(0.042676566 -0.11810231 9.9748188e-23)
(0.067639261 -0.015183775 -2.1795886e-22)
(0.044706908 0.055770195 -5.3927977e-22)
(-0.0073544261 0.12240725 5.5580766e-22)
(-0.080252641 0.11026612 0)
(-0.099000718 0.013719197 0)
(-0.070948744 -0.059144611 0)
(-0.013428614 -0.08604356 0)
(0.037067897 -0.055045744 0)
(0.042936889 -0.019628298 0)
(0.036100387 0.0033592849 0)
(0.022719912 0.017250838 0)
(0.006901231 0.021027916 0)
(-0.0048304406 0.015841345 0)
(-0.0091273141 0.0079374441 0)
(-0.0081689978 0.001916993 0)
(-0.0052197487 -0.0011576933 0)
(-0.0026145126 -0.0019846259 0)
(-0.0011201986 -0.0018141619 0)
(-0.00030971843 -0.0011182064 0)
(-0.00012231465 -0.00054035649 0)
(-0.00019942198 -0.00018133683 0)
(-0.00033441786 -2.3502365e-05 0)
(-0.00043054176 9.74718e-06 0)