/*--------------------------------*- C++ -*----------------------------------*\
| =========                 |                                                 |
| \\      /  F ield         | OpenFOAM: The Open Source CFD Toolbox           |
|  \\    /   O peration     | Version:  5.0                                   |
|   \\  /    A nd           | Web:      www.OpenFOAM.org                      |
|    \\/     M anipulation  |                                                 |
\*---------------------------------------------------------------------------*/
FoamFile
{
    version     2.0;
    format      ascii;
    class       surfaceScalarField;
    location    "120";
    object      ddtCorrDdt0(phi);
}
// * * * * * * * * * * * * * * * * * * * * * * * * * * * * * * * * * * * * * //

dimensions      [0 3 -2 0 0 0 0];

internalField   nonuniform List<scalar> 
18820
(
-1.5614477e-06
7.4453539e-05
-2.6546483e-06
6.699513e-05
-8.3577526e-06
8.2809212e-05
-3.1902632e-06
5.7932047e-05
-1.5612871e-05
7.4236532e-05
-1.325292e-05
9.605355e-05
-2.8824468e-06
4.7640825e-05
-2.1924919e-05
6.4232264e-05
-2.5217719e-05
8.6180167e-05
-1.7493219e-05
0.0001135336
-1.5448179e-06
3.6389495e-05
-2.7165112e-05
5.2870999e-05
-3.5967509e-05
7.4964839e-05
-3.4035173e-05
0.00010269815
-1.7019313e-05
0.00013053787
7.0042014e-07
2.4344231e-05
-3.1270744e-05
4.0488051e-05
-4.5657678e-05
6.254793e-05
-4.9529346e-05
9.0440451e-05
-3.3843471e-05
0.00011950009
-1.4342689e-05
0.0001448664
2.8476415e-06
1.1938729e-05
-3.413999e-05
2.7210081e-05
-5.4463004e-05
4.9285432e-05
-6.4377417e-05
7.7382886e-05
-5.034245e-05
0.0001069231
-2.8912536e-05
0.00013405309
-1.2280992e-05
0.00015713638
4.8526711e-06
-1.4082088e-06
-3.5358579e-05
1.3157889e-05
-6.2875953e-05
3.5621178e-05
-7.8835901e-05
6.3737642e-05
-6.6949721e-05
9.3980069e-05
-4.3777556e-05
0.00012177698
-2.4499738e-05
0.000146263
-1.3186096e-05
0.00017031625
2.9605467e-06
-1.2759723e-05
-3.6429093e-05
-3.3341463e-07
-7.16122e-05
2.1898313e-05
-9.3135597e-05
4.9921972e-05
-8.4067522e-05
8.0852667e-05
-5.9159635e-05
0.00010935715
-3.7216229e-05
0.00013448933
-2.5669156e-05
0.00015874635
-1.6711442e-05
0.00018702692
-4.5826681e-06
-2.0489424e-05
-4.1353659e-05
-7.8280059e-06
-8.0731957e-05
8.7956105e-06
-0.00010758524
3.6355973e-05
-0.00010215309
6.8012237e-05
-7.5201933e-05
9.6896763e-05
-5.0350563e-05
0.00012249264
-3.8446758e-05
0.00014727046
-3.2261841e-05
0.00017430606
-2.0626246e-05
0.00020765779
-1.6446145e-05
-2.465693e-05
-4.734212e-05
-1.4492271e-05
-8.276794e-05
-5.7794615e-06
-0.00012058217
2.1806019e-05
-0.00012116977
5.5383842e-05
-9.2099376e-05
8.4917978e-05
-6.3849989e-05
0.00011040261
-5.1492077e-05
0.00013554529
-4.7707784e-05
0.00016272711
-4.0077407e-05
0.00019377429
-2.263836e-05
0.00023030539
-3.2990024e-05
-2.9844891e-05
-4.4913458e-05
-2.7077008e-05
-7.2632917e-05
-2.4613951e-05
-0.00013052695
4.1819872e-06
-0.00014155372
4.2205644e-05
-0.00011059654
7.3894678e-05
-7.7375064e-05
9.8454051e-05
-6.48049e-05
0.00012372613
-6.3275487e-05
0.0001511257
-5.9163626e-05
0.00018182997
-4.4436808e-05
0.00021559574
-2.1748325e-05
0.00025206646
-5.8040317e-05
-3.367389e-05
-3.2106058e-05
-4.2645261e-05
-5.2067126e-05
-4.7631369e-05
-0.0001380058
-1.7117906e-05
-0.00016564642
2.8292052e-05
-0.00013351335
6.5139619e-05
-9.0941358e-05
8.7475157e-05
-7.7862265e-05
0.00011152462
-7.9188316e-05
0.00013965278
-7.8415266e-05
0.00017039406
-6.5684669e-05
0.00020309858
-4.3321689e-05
0.00023719589
-1.8023351e-05
0.00027010481
-9.8499526e-05
-3.229763e-05
-1.1699334e-05
-5.4075957e-05
-2.2391795e-05
-7.231317e-05
-0.00014649371
-3.9127998e-05
-0.00019995527
1.7207036e-05
-0.00016630548
6.1102597e-05
-0.00010534257
7.955632e-05
-8.9561411e-05
9.9188956e-05
-9.5366565e-05
0.00012771708
-9.8239065e-05
0.00015949257
-8.7243099e-05
0.00019197162
-6.4414411e-05
0.00022421433
-3.6342582e-05
0.00025554373
-1.2803635e-05
0.0002829246
-0.00014508165
-2.3335828e-05
1.1213596e-05
-5.5208157e-05
1.7214428e-05
-9.3679632e-05
-0.00015671561
-6.2078755e-05
-0.00025072289
1.1652182e-05
-0.00021385776
6.4776918e-05
-0.0001205171
7.6291918e-05
-9.689763e-05
8.6907275e-05
-0.00011084577
0.00011468196
-0.00011890913
0.00014840204
-0.00010974137
0.00018200773
-8.5853778e-05
0.00021343093
-5.4845684e-05
0.00024274101
-2.5893741e-05
0.00026866257
-7.8371593e-06
0.0002907781
-0.00021038186
-9.695638e-06
5.6515412e-05
-6.8636691e-05
8.2486842e-05
-0.00012048246
-0.00016651811
-8.3867536e-05
-0.00032178505
8.9915226e-06
-0.00027943807
7.7247912e-05
-0.00013381743
7.8089663e-05
-9.5032719e-05
7.4440245e-05
-0.00012316278
9.9236604e-05
-0.00014036406
0.00013615035
-0.00013392533
0.00017260084
-0.00010844946
0.00020462012
-7.3886624e-05
0.00023249129
-3.997529e-05
0.00025684538
-1.5655173e-05
0.00027650818
-4.6619423e-06
0.0002954559
-0.00027409866
1.9893618e-05
0.00010934241
-6.2522113e-05
0.00018321573
-0.00016937064
-0.00017553379
-0.00011145943
-0.00041677867
1.1130027e-05
-0.00037362365
0.00010318974
-0.00014553088
8.8970516e-05
-7.9434329e-05
6.2501624e-05
-0.00012882912
8.0116091e-05
-0.0001620952
0.00012097881
-0.0001608038
0.00016304165
-0.00013332276
0.00019748833
-9.3858394e-05
0.00022460746
-5.520942e-05
0.0002477433
-2.4507791e-05
0.00026571916
-8.9710868e-06
0.00028084288
-3.8793745e-06
0.00029935011
-0.00037558092
7.0965383e-05
0.00021487744
-8.564076e-05
0.00035358578
-0.0002328992
-0.00018889504
-0.00015600389
-0.00055362182
2.5384134e-05
-0.0005042449
0.00014176078
-0.00015991405
0.00011757852
-4.2088803e-05
5.1631477e-05
-0.00012224393
5.5921974e-05
-0.00018252905
0.00010055716
-0.00019180488
0.00015198989
-0.00016216101
0.00019189184
-0.00011584623
0.00021948909
-7.097076e-05
0.00024038253
-3.4682254e-05
0.00025793358
-1.3677956e-05
0.00027044499
-7.3293524e-06
0.00028431571
-4.8834048e-06
0.00030424695
-0.00041236667
0.00014318118
0.00036918439
-8.3340981e-05
0.00060300762
-0.0003350711
-0.00019746049
-0.00022433066
-0.00076798778
5.8359048e-05
-0.00067760989
0.00019875464
-0.00016836263
0.00015021118
3.2896113e-05
4.2595609e-05
-9.267025e-05
2.2058681e-05
-0.00019683495
7.0229899e-05
-0.00022851411
0.00013727214
-0.00019804832
0.00018788601
-0.00014140945
0.00021746571
-8.7576111e-05
0.00023610536
-4.5679783e-05
0.00025139159
-1.8593209e-05
0.00026286233
-1.0582644e-05
0.00027371477
-9.5370602e-06
0.00028898911
-6.4406509e-06
0.00031069929
-0.00059833539
0.0002341847
0.00068017998
-0.00016781482
0.00096238428
-0.00044272794
-0.00021698202
-0.00031555043
-0.0010867915
9.4465927e-05
-0.00093227861
0.00031302778
-0.00016085436
0.00019124371
0.00017001902
1.3085337e-05
-1.5089686e-05
-3.4988812e-05
-0.00019622938
2.1449666e-05
-0.00027280415
0.00011452052
-0.00024602214
0.0001852504
-0.00017346037
0.00021994458
-0.00010549683
0.00023539502
-5.6172036e-05
0.00024660626
-2.4002943e-05
0.00025681061
-1.3517334e-05
0.00026580825
-1.386642e-05
0.00027805802
-1.2909739e-05
0.00029547451
-7.5919467e-06
0.00031830102
-0.00060857276
0.00031300881
0.001033943
-0.00011958095
0.0014083555
-0.00061379872
-0.00022076758
-0.00043894903
-0.0015513138
0.00014895982
-0.0012828207
0.00044500107
-0.00011853394
0.00027069948
0.00039311757
-3.1862866e-05
0.00011803884
-0.00012005129
-0.00017396136
-5.7264746e-05
-0.00033088388
7.9525453e-05
-0.00031531681
0.00018381526
-0.0002173436
0.00022913766
-0.00012574117
0.00024019482
-6.5172412e-05
0.00024440173
-2.8790922e-05
0.00025140066
-1.589455e-05
0.00025919511
-1.7875447e-05
0.00026982632
-1.9415434e-05
0.00028457495
-1.5220788e-05
0.00030311618
-7.9840042e-06
0.00032629278
-0.00083212196
0.00038888352
0.001590477
-0.00024353129
0.0020709816
-0.00078222272
-0.00023919237
-0.00059538754
-0.0021841462
0.00019386639
-0.0017775252
0.00064364994
-6.8711939e-05
0.00039516618
0.00074734624
-8.354151e-05
0.00032690937
-0.00024074439
-0.00015610896
-0.00013791375
-0.00041922977
3.1074927e-05
-0.00042160652
0.00018581299
-0.00028275591
0.0002492292
-0.00015027459
0.00025367475
-7.1187404e-05
0.00024621402
-3.0795849e-05
0.00024641096
-1.7125843e-05
0.00025263658
-2.1628344e-05
0.00026295368
-2.5746858e-05
0.00027616478
-2.3459343e-05
0.0002928222
-1.5732029e-05
0.0003108736
-7.4510955e-06
0.00033374973
-0.00095045984
0.00048086477
0.0021440535
-0.00016470313
0.0029062575
-0.0010788255
-0.00024444913
-0.00077698652
-0.0030658153
0.00028626084
-0.0024989275
0.00091524858
1.0474921e-05
0.00056444704
0.0012534882
-0.00011099004
0.00065056641
-0.0004072102
-0.00015205234
-0.00024481008
-0.00053960635
-1.7542288e-05
-0.00058570082
0.00019516862
-0.00038385006
0.00028690979
-0.00018234504
0.00028130387
-7.1688587e-05
0.00025417982
-2.6502564e-05
0.00024192408
-1.5754478e-05
0.00024504271
-2.4550735e-05
0.00025556253
-3.2226178e-05
0.0002694375
-3.1887269e-05
0.000284598
-2.433318e-05
0.00030142978
-1.4584463e-05
0.00031801328
-5.702755e-06
0.00033945658
-0.001194094
0.00053353948
0.0028959303
-0.0002710265
0.0040247592
-0.0012832253
-0.00031202214
-0.0010112788
-0.0041640134
0.00032118958
-0.0034848281
0.0012721386
0.0001262213
0.0007994859
0.0019679586
-0.00015003569
0.0011598714
-0.00062030444
-0.00011020191
-0.00044906525
-0.00071916083
-6.5256594e-05
-0.00081647726
0.0002132387
-0.00054005791
0.00035138401
-0.00022658676
0.00033116041
-6.2001427e-05
0.00027162393
-1.055971e-05
0.00023824217
-8.7546399e-06
0.00023492779
-2.5621395e-05
0.00024611647
-3.8691237e-05
0.00026203084
-4.0604391e-05
0.00027815849
-3.3750775e-05
0.00029401959
-2.2107782e-05
0.00030895773
-1.1589762e-05
0.0003239039
-2.6984806e-06
0.00034215774
-0.001195609
0.00065322336
0.0036018091
-0.00017235761
0.0054247818
-0.0016710706
-0.00039943368
-0.0011958437
-0.0056784748
0.00050316115
-0.0048923773
0.001728717
0.00030653378
0.0010918121
0.0029530955
-0.00018565767
0.0019005814
-0.00089075078
-1.2487756e-07
-0.00073037904
-0.0010192661
-0.00014895537
-0.0011333503
0.00025162785
-0.0007703397
0.00044353484
-0.00028897853
0.00041379219
-3.419804e-05
0.00030337139
2.5144241e-05
0.00023593116
9.0606717e-06
0.00022043447
-2.304832e-05
0.00023235996
-4.486033e-05
0.00025228968
-4.99562e-05
0.0002713864
-4.3558546e-05
0.00028797019
-3.083552e-05
0.00030275056
-1.7207705e-05
0.00031457911
-6.3244424e-06
0.00032753142
9.4492279e-07
0.00034121442
-0.0011023368
0.0006618524
0.0047777317
-0.00052272055
0.0069717549
-0.0017193524
-0.00082411932
-0.0012464164
-0.0074155076
0.00054116947
-0.0066891662
0.0022999322
0.00055227684
0.001482963
0.0042740177
-0.00022910895
0.0029583235
-0.0012434006
0.00020877101
-0.0010996368
-0.001465027
-0.00028460873
-0.00160467
0.00032238129
-0.0010952072
0.00057651507
-0.00037728189
0.00053186117
2.3231628e-05
0.00035638453
9.4438866e-05
0.00023409607
4.6351475e-05
0.00019865548
-1.3906599e-05
0.00021130382
-5.0461714e-05
0.00023796916
-6.0454737e-05
0.00026279417
-5.4388773e-05
0.00028222159
-4.0394214e-05
0.00029753355
-2.3853669e-05
0.00030939964
-9.846113e-06
0.00031810376
5.7003334e-07
0.00032790631
4.287734e-06
0.00033692765
-0.00079676019
0.00068174043
0.0062335391
-0.00079397837
0.0086466067
-0.0021975936
-0.0012694334
-0.0012740692
-0.0095125291
0.00085058741
-0.0090617731
0.0029137641
0.00094155686
0.0019106433
0.0060185024
-0.00026151349
0.0044142812
-0.0016850653
0.00054688521
-0.0015814999
-0.0020757123
-0.00048894019
-0.0023091366
0.00041987667
-0.0015559749
0.00078317003
-0.00049900177
0.00069825974
0.00012083886
0.00043427973
0.00021901071
0.00023183767
0.00011537139
0.00016509877
6.4243966e-06
0.00017834328
-5.5176881e-05
0.00021603356
-7.3080434e-05
0.00025060557
-6.7299091e-05
0.0002757128
-5.1340879e-05
0.00029317498
-3.2155128e-05
0.00030584106
-1.4414674e-05
0.0003139718
-8.8896726e-07
0.00031956594
7.3907689e-06
0.00032480237
6.7337849e-06
0.00033019453
-0.0002756738
0.0005633886
0.0080930029
-0.0011777476
0.010530352
-0.0026777444
-0.0020661864
-0.0014008694
-0.011654036
0.00086742138
-0.011675015
0.0034638222
0.0013956325
0.00245968
0.0082591702
-0.0003300118
0.0063916448
-0.0022388761
0.001050513
-0.0021886778
-0.0028876675
-0.0007695346
-0.0033405142
0.00054245274
-0.0022176224
0.0010815425
-0.00066158304
0.000945772
0.00027710128
0.00054202092
0.0004238829
0.00022943178
0.00023463222
0.00011260203
4.5084166e-05
0.00012646291
-5.8831812e-05
0.00018201942
-8.9660273e-05
0.00023263054
-8.381254e-05
0.00026713221
-6.5002171e-05
0.00028938475
-4.2615189e-05
0.00030364379
-2.1164653e-05
0.00031259891
-3.4212495e-06
0.00031650858
8.6961455e-06
0.00031826453
1.2784081e-05
0.00031875068
8.1666045e-06
0.00032202872
0.0003872886
0.0004949643
0.010236259
-0.0015798917
0.012438416
-0.0030858306
-0.0031106932
-0.0016332634
-0.014391685
0.0013367644
-0.014862268
0.0040546726
0.0018085929
0.0030508531
0.011091652
-0.00037278793
0.0089716446
-0.0029100116
0.0017563392
-0.0029446908
-0.0039435481
-0.0011327889
-0.0048033849
0.00069334452
-0.003165997
0.0014908416
-0.00087918395
0.0012991564
0.0005291483
0.00069374262
0.0007439889
0.00022193254
0.00043119807
3.2886888e-05
0.00011175558
4.595297e-05
-6.1272655e-05
0.00012892694
-0.00011361235
0.0002059929
-0.0001071842
0.00025602037
-8.3160864e-05
0.00028530562
-5.6144679e-05
0.00030292678
-2.9775239e-05
0.00031226501
-7.1436864e-06
0.00031633111
8.6650639e-06
0.00031654522
1.729724e-05
0.00031375654
1.5782435e-05
0.0003111334
8.7208346e-06
0.00031330906
0.0011518813
0.00042589439
0.012492374
-0.0017611738
0.014208287
-0.0033497821
-0.0043283455
-0.0018682005
-0.01740331
0.0013783465
-0.018362074
0.0048365713
0.0021813442
0.0036819129
0.014635178
-0.00049266125
0.012309822
-0.0037109646
0.0026903502
-0.0038440167
-0.00529154
-0.0015966901
-0.0068121346
0.00087596206
-0.0045114027
0.0020387623
-0.0011715609
0.0017832246
0.00092240298
0.000905914
0.0012340366
0.0002037049
0.00073858237
-8.5438538e-05
0.00022119616
-7.6538685e-05
-6.3278623e-05
4.797702e-05
-0.00015125617
0.00016659036
-0.00014316561
0.0002419934
-0.00010983817
0.00028271493
-7.3889769e-05
0.00030306552
-4.0538868e-05
0.00031370394
-1.235895e-05
0.00031749219
8.0247526e-06
0.00031698277
1.9369303e-05
0.00031447966
2.1910258e-05
0.00030763534
1.7015394e-05
0.00030283749
8.7524219e-06
0.00030455853
0.002005979
0.00061004901
0.014865594
-0.0019473476
0.015736036
-0.0032889413
-0.0060095902
-0.0016685566
-0.021076991
0.0018054658
-0.022299555
0.0053158287
0.0029071234
0.0041107855
0.018955748
-0.00063864759
0.016508106
-0.0046909408
0.0038806448
-0.0049012575
-0.0069826301
-0.0021529142
-0.0095005808
0.0010917542
-0.0063838258
0.0027483977
-0.0015630602
0.0024302655
0.0015112623
0.0011943755
0.0019681066
0.00017185079
0.0012017281
-0.00025943354
0.00038383067
-0.00024806561
-6.8421942e-05
-7.1386314e-05
-0.00021468608
0.00011141875
-0.00020298398
0.00022642245
-0.00015095753
0.00028312744
-9.7961444e-05
0.00030680096
-5.4438751e-05
0.00031697882
-1.8604703e-05
0.00031996303
5.8947988e-06
0.00031963434
2.0948155e-05
0.00031541624
2.7301367e-05
0.00030909565
2.3362419e-05
0.00030129644
1.6985926e-05
0.00029460295
8.4517912e-06
0.00029610954
0.002882029
0.00074425089
0.017603483
-0.0021278608
0.016833364
-0.0030446938
-0.008081621
-0.0012169271
-0.02592656
0.0031809982
-0.026802188
0.0063081012
0.0032793822
0.0049435657
0.024061327
-0.00099478803
0.021757308
-0.0058878403
0.0052651325
-0.006075428
-0.0090583699
-0.0028255015
-0.013003835
0.0013503405
-0.0089481435
0.003656086
-0.0020755028
0.0032608477
0.0023668173
0.0015747203
0.0030401581
0.00012233303
0.0018797527
-0.00050616832
0.00063047795
-0.00050607616
-9.283287e-05
-0.00022365285
-0.00033030693
4.4237405e-05
-0.0003036662
0.00021210488
-0.00021575349
0.00029122516
-0.0001325898
0.00031776446
-7.1141733e-05
0.00032351397
-2.640856e-05
0.00032479326
2.2668943e-06
0.00032360272
2.0343247e-05
0.00032025064
2.9320972e-05
0.00031340918
2.9859485e-05
0.00030260571
2.5009258e-05
0.00029328262
1.6089297e-05
0.00028696468
7.7429512e-06
0.00028837055
0.0037919186
0.00081451491
0.020642801
-0.0022950883
0.017908462
-0.003202977
-0.010304638
-0.00082169116
-0.030958715
0.0038152145
-0.030649445
0.0070282548
0.0042988155
0.0052886663
0.029823315
-0.00081841849
0.028026967
-0.0072644361
0.0066446202
-0.0072673264
-0.011600616
-0.0035331649
-0.017468878
0.0016395472
-0.012385832
0.004788042
-0.0027316438
0.00431224
0.0035692372
0.0020584361
0.0045687421
4.6148914e-05
0.0028507752
-0.0008486845
0.00098637556
-0.00086206058
-0.00012851975
-0.00047039038
-0.00049901589
-5.4946525e-05
-0.00045559748
0.00019616374
-0.00031530716
0.00031165527
-0.00018315599
0.00034179068
-9.3148114e-05
0.00033977318
-3.6410158e-05
0.00033352065
-1.5233538e-06
0.00032859026
1.9098752e-05
0.00032485644
3.0316825e-05
0.00031926439
3.3587179e-05
0.00030969345
3.0231717e-05
0.00029738975
2.3042924e-05
0.00028633974
1.4650085e-05
0.00028005707
6.325004e-06
0.00028205071
0.0046725686
0.00088777731
0.023817811
-0.002360515
0.018710353
-0.0030969986
-0.01217549
-0.0013321381
-0.035900949
0.0041205315
-0.033657043
0.0068228111
0.0070226183
0.0043044521
0.036184503
-0.0010725204
0.035827645
-0.0086190857
0.0077926606
-0.0084124735
-0.014914922
-0.0039530078
-0.02305542
0.0020533862
-0.016937369
0.0061910921
-0.0035273839
0.0055837975
0.0052215675
0.0026599143
0.0066902546
-6.3064258e-05
0.004201996
-0.001305069
0.0014837488
-0.0013460542
-0.00017915649
-0.00081142622
-0.00077060107
-0.00019881086
-0.00067096323
0.0001604095
-0.00046449566
0.00034534142
-0.00025707431
0.00038556386
-0.00012184984
0.00037048562
-4.4416618e-05
0.00034777656
-2.9335412e-06
0.00033493104
1.8457097e-05
0.00032923465
3.0543156e-05
0.00032463627
3.5661192e-05
0.00031719747
3.4253509e-05
0.00030568224
2.8646124e-05
0.00029179175
2.0600364e-05
0.00028040125
1.2408227e-05
0.00027397347
5.3731194e-06
0.00027668405
0.0054755668
0.0009190602
0.026965285
-0.0022597148
0.019139799
-0.0027899811
-0.013999979
-0.0012725221
-0.04080932
0.0035762213
-0.036030192
0.006493678
0.010340795
0.0035046364
0.042305101
-0.0018161464
0.044772401
-0.010017269
0.008809771
-0.0096361923
-0.018811015
-0.004516374
-0.02977796
0.0027695411
-0.022823674
0.0079396927
-0.0044455401
0.0071092602
0.0074290587
0.0033763086
0.0095750913
-0.00022491638
0.006039805
-0.0019008722
0.0021621405
-0.0019834647
-0.0002578347
-0.001267381
-0.0011713604
-0.00041067769
-0.0010357681
0.00016598173
-0.00069852793
0.00039442656
-0.00037191508
0.00046016713
-0.00015836968
0.00042206986
-4.7578103e-05
0.00037363689
7.1926467e-07
0.00034411677
2.1156848e-05
0.00033222788
3.1378538e-05
0.00032839859
3.6482102e-05
0.0003238186
3.658087e-05
0.00031487427
3.2762271e-05
0.00030157473
2.5992229e-05
0.00028640334
1.8650434e-05
0.00027417171
1.0691981e-05
0.00026865416
4.667088e-06
0.00027202464
0.0061600542
0.00091563415
0.029866145
-0.0019818167
0.019315043
-0.0024349776
-0.015673239
-0.0011167334
-0.04585922
0.0037773663
-0.039057482
0.0066035069
0.013581001
0.0032534742
0.048314994
-0.0025052553
0.053530731
-0.010574469
0.009398342
-0.010605835
-0.022702285
-0.0057449183
-0.038249653
0.0039553241
-0.029872689
0.0098185572
-0.0053615206
0.0088556782
0.010318692
0.0042196325
0.013398805
-0.00044740592
0.0084761259
-0.0026612332
0.0030590338
-0.0027977766
-0.0003749272
-0.0018663791
-0.0017492569
-0.0006895022
-0.0016148654
0.000168404
-0.0010341708
0.00050160585
-0.00055753037
0.00058002435
-0.00020962504
0.00051140526
-4.6093779e-05
0.00042057139
1.5222841e-05
0.00035912186
3.1834598e-05
0.00033343076
3.5447616e-05
0.00032815369
3.7290635e-05
0.00032758726
3.7326352e-05
0.00032307403
3.5015369e-05
0.00031262229
2.9980997e-05
0.00029759241
2.3033877e-05
0.00028202128
1.5354668e-05
0.00026952234
9.4250154e-06
0.00026389539
4.321567e-06
0.00026771191
0.0067037469
0.00087089332
0.032326999
-0.0015452339
0.019321549
-0.0019883417
-0.017137954
-0.00097027546
-0.050878435
0.0039024719
-0.041970572
0.0066904508
0.015008706
0.0051758034
0.054718336
-0.0031498667
0.061589459
-0.010563976
0.0095269345
-0.010703055
-0.027808862
-0.0054992512
-0.048130955
0.004136388
-0.037750029
0.011832672
-0.0062833799
0.010740419
0.014068469
0.005105914
0.018372163
-0.00075372555
0.011630132
-0.0036013998
0.0042001232
-0.0038023302
-0.00053792618
-0.0026347813
-0.0025565712
-0.0010590821
-0.0024632162
0.00015883094
-0.0015549004
0.00068911335
-0.00081572838
0.00075978454
-0.0002876815
0.00065806279
-2.953305e-05
0.00049482957
5.1596065e-05
0.00038418548
5.8286299e-05
0.00033266053
4.7357548e-05
0.00032151371
4.0048753e-05
0.00032539083
3.6961977e-05
0.0003279484
3.5149428e-05
0.0003229394
3.2055353e-05
0.00031054629
2.6881219e-05
0.00029374955
2.0280536e-05
0.0002770946
1.4003475e-05
0.0002649576
8.7744197e-06
0.00025944106
4.4038063e-06
0.000263318
0.0070942514
0.00079252743
0.034217432
-0.0010195529
0.019249603
-0.0014733068
-0.018390759
-0.00073554831
-0.055739651
0.0038909302
-0.044623351
0.0065552444
0.016303931
0.0053952293
0.059990536
-9.6395727e-05
0.069227248
-0.010787649
0.0091192217
-0.010156257
-0.032987859
-0.0055240485
-0.057295316
0.0036651179
-0.047177758
0.013564132
-0.0067947679
0.012344068
0.018919162
0.005889747
0.024672365
-0.0011942794
0.015626135
-0.0047497094
0.0056188209
-0.0050200886
-0.00075383168
-0.0035864209
-0.0036595062
-0.0015318485
-0.0036608545
0.00013854251
-0.0023481783
0.0009520959
-0.0011780023
0.0010513686
-0.00039328744
0.00086537437
9.9411987e-06
0.00061857403
0.00012191776
0.00042449602
0.0001130706
0.00032939223
7.4961121e-05
0.00030505083
4.836478e-05
0.00031319325
3.6476773e-05
0.00032587366
3.2967977e-05
0.00033012754
3.150238e-05
0.00032349118
2.8766627e-05
0.0003086573
2.4053391e-05
0.00028997966
1.8635074e-05
0.00027245987
1.3256177e-05
0.00026048967
8.9169788e-06
0.00025492546
4.8434356e-06
0.00025848544
0.00726349
0.00071234601
0.035477553
-0.00046760445
0.019147339
-0.000917306
-0.019396642
-0.0004674371
-0.060239135
0.0037639264
-0.047007686
0.006275258
0.017483324
0.0053758557
0.06540819
-2.2421687e-05
0.078579051
-0.0094481895
0.0079963958
-0.0096648155
-0.038103733
-0.0050403743
-0.066987612
0.0041682586
-0.057775523
0.014262902
-0.0072442995
0.014013681
0.02473694
0.0065263127
0.032441415
-0.0018792825
0.020552397
-0.0061205243
0.007317737
-0.0064485996
-0.0010328784
-0.0047410347
-0.0050863323
-0.0021595747
-0.0053027041
0.00010999784
-0.0035170103
0.0013073794
-0.0017102209
0.0014843038
-0.00051484882
0.0011729217
7.4440822e-05
0.00080086289
0.0002508943
0.00048958733
0.00021275181
0.00032480663
0.00012961379
0.00027473464
6.8129456e-05
0.00028528325
3.7871136e-05
0.00031179826
2.8327587e-05
0.00033051493
2.7494521e-05
0.00033413474
2.7691507e-05
0.00032456571
2.593345e-05
0.00030677274
2.2107775e-05
0.00028650893
1.7518487e-05
0.00026819204
1.3487943e-05
0.00025593247
9.692189e-06
0.00025007321
5.5673749e-06
0.0002529298
0.00068336429
0.0071953992
0.036018491
0.00017139899
0.019073022
-0.0003933041
-0.020175856
-0.00013810485
-0.064257458
0.003550876
-0.048940814
0.005697046
0.018505295
0.0052532922
0.07082197
-3.7920434e-05
0.088357134
-0.0098004968
0.0099012507
-0.011353033
-0.043774281
-0.0039942593
-0.078298556
0.0062705808
-0.069514254
0.015907005
-0.0093100151
0.016328637
0.030889153
0.0078614841
0.041885687
-0.0029179368
0.026410878
-0.0077377594
0.0092701116
-0.0080728727
-0.0013836682
-0.0060978105
-0.0069010272
-0.0029263129
-0.007534559
7.228418e-05
-0.0051852919
0.0017782993
-0.0024912194
0.0020883819
-0.0006673691
0.0016368292
0.00020215915
0.0010452003
0.00045540089
0.00059635034
0.00038575415
0.00031657786
0.00023025457
0.00022416074
0.00010880148
0.0002340589
4.4582944e-05
0.00027857131
2.1481027e-05
0.00031864731
1.8966608e-05
0.00033904653
2.2379923e-05
0.00033944781
2.4772856e-05
0.00032572744
2.4205782e-05
0.00030467032
2.1491769e-05
0.00028253703
1.7983918e-05
0.00026368815
1.4657299e-05
0.00025098092
1.0987252e-05
0.00024464862
6.5092478e-06
0.00024643304
0.0008764673
0.03582538
0.00063910643
0.0069474271
0.019165797
7.8608296e-05
-0.020786744
0.00021757028
-0.067715298
0.0033197272
-0.050259941
0.0048699958
0.019386917
0.0048154293
0.076071427
3.8412006e-06
0.098163644
-0.0098444257
0.011566927
-0.011466163
-0.045524729
-0.0096025735
-0.090195348
0.0079025492
-0.080222998
0.016979342
-0.011113008
0.017710011
0.037485304
0.0097324925
0.053381783
-0.0036345996
0.033118376
-0.0096254446
0.011406123
-0.0098737623
-0.00181153
-0.0076450261
-0.0091291773
-0.0038696535
-0.010475774
1.4901995e-05
-0.0074953395
0.0023823441
-0.003609274
0.002896368
-0.00087013479
0.0022911601
0.00043638095
0.0014026172
0.00076636361
0.00073423828
0.00066997058
0.00031213067
0.00039905879
0.00014776804
0.00018454806
0.0001484076
6.2312841e-05
0.00021632511
1.3197944e-05
0.00028685479
4.5252692e-06
0.00033309201
1.1018336e-05
0.00035041356
1.8973893e-05
0.00034525058
2.3461807e-05
0.00032647519
2.4068491e-05
0.00030208985
2.2409283e-05
0.0002781128
1.9603239e-05
0.00025873204
1.6585352e-05
0.00024539623
1.2747421e-05
0.0002384045
7.5523814e-06
0.00023889377
0.00049038389
0.019551867
0.0014426848
0.035021795
0.00056531921
0.0065491825
-0.021177645
0.00046949593
-0.070332158
0.0028344235
-0.050793249
0.00385303
0.020162627
0.0040942901
0.080872649
1.4215327e-05
0.10781455
-0.0096470565
0.013036062
-0.01131355
-0.04728933
-0.009701548
-0.1000595
0.00026159834
-0.088898688
0.01657826
-0.010351009
0.016217354
0.044680755
0.01051456
0.066800845
-0.0036865705
0.041217838
-0.011734077
0.013543009
-0.011762339
-0.0023085951
-0.0093767206
-0.011791896
-0.0049823293
-0.014232438
-0.00011300291
-0.01062123
0.0031407745
-0.0051852008
0.0039582778
-0.0011416585
0.0031678927
0.00081632336
0.0019112327
0.0012647757
0.00090420885
0.0010918656
0.0003123464
0.00068052719
3.0657759e-05
0.00031472665
1.7581114e-05
9.7405146e-05
0.00011330571
4.0234843e-06
0.00022549339
-1.7821188e-05
0.00030919872
-9.1785079e-06
0.00035329078
6.1761212e-06
0.00036321711
1.8035202e-05
0.00035068324
2.419465e-05
0.0003263556
2.5753221e-05
0.00029874311
2.4619879e-05
0.00027309727
2.2264544e-05
0.00025304072
1.9155818e-05
0.00023900118
1.4723799e-05
0.00023122587
8.6208651e-06
0.0002302865
0.00060434541
-0.021291621
0.00084345785
0.020151081
0.0019200032
0.033667107
0.00041943813
0.0060260199
-0.071909841
0.0020471726
-0.050703309
0.0027444782
0.020814613
0.0032010472
0.084942547
2.4398517e-05
0.11689197
-0.0090632036
0.014057858
-0.010668838
-0.049261533
-0.0093413294
-0.10944609
-0.00031493854
-0.10153722
0.012900146
-0.0082240294
0.014451285
0.051321064
0.0095770387
0.080626323
-0.0033109212
0.051117545
-0.013586293
0.015650714
-0.013841788
-0.0028703278
-0.011200623
-0.014855301
-0.0063133414
-0.018947885
-0.00026690267
-0.014811237
0.0040769643
-0.0073641132
0.0053196735
-0.0015067737
0.0043233691
0.0013942957
0.002589921
0.0020311217
0.0011448809
0.0017031064
0.00029297099
0.001121331
-0.00012846162
0.00051969953
-0.00017432225
0.00016147907
-4.6506091e-05
-4.1918773e-06
0.00012150908
-5.0902781e-05
0.00025856291
-4.230825e-05
0.0003423215
-1.7343668e-05
0.00037680873
5.2599084e-06
0.00037599735
1.9921856e-05
0.00035496355
2.7111001e-05
0.00032500681
2.9146185e-05
0.00029421489
2.8164833e-05
0.0002671984
2.5696066e-05
0.00024648688
2.2065846e-05
0.00023167255
1.678294e-05
0.00022305536
9.6370265e-06
0.00022066339
0.0010133497
-0.072318851
0.00059953103
-0.021047709
0.0011677988
0.020903274
0.0023341786
0.031752363
0.00021987721
0.0053887139
-0.050435669
0.0017795304
0.021301454
0.0022576383
0.088222833
-7.9234941e-05
0.12495329
-0.0080369073
0.014658477
-0.0096638063
-0.050663289
-0.0092670615
-0.11869786
-8.9545888e-05
-0.11561139
0.013759234
-0.012742713
0.017418826
0.057046924
0.0087254128
0.093217607
-0.0030142449
0.062735011
-0.014928397
0.017976532
-0.015912098
-0.0035441389
-0.013167978
-0.018270831
-0.0077850965
-0.024719981
-0.00054125431
-0.020286416
0.0052082476
-0.010337672
0.0070504978
-0.0019719781
0.0057848419
0.00224819
0.0034694498
0.0031633771
0.0014576422
0.0026159208
0.00023205486
0.0017563689
-0.0003420777
0.00083829887
-0.00044706871
0.00026677108
-0.00027962812
-1.0315044e-05
-4.0396049e-05
-9.9105777e-05
0.00016969467
-9.4099831e-05
0.00031033775
-5.706405e-05
0.00038202948
-1.8979569e-05
0.00040104111
8.5298302e-06
0.00038739264
2.463953e-05
0.00035744267
3.2025909e-05
0.00032213767
3.3883487e-05
0.00028849502
3.2571282e-05
0.00026032526
2.9558703e-05
0.00023897947
2.5096513e-05
0.00022337253
1.8787397e-05
0.00021389533
1.0544448e-05
0.00021013306
0.00088700609
-0.050309327
-6.0903812e-05
-0.071658422
0.00088863919
-0.020768564
0.0016958457
0.021541597
0.0025818687
0.029390369
2.2012875e-05
0.0046161829
0.021615056
0.001465927
0.090357868
0.00012260523
0.13177876
-0.0069047013
0.014893733
-0.0082721477
-0.051707768
-0.0086193123
-0.12754285
-0.00042205974
-0.12947251
0.013771574
-0.016501351
0.017517863
0.05592817
0.01853757
0.10469637
-0.0027533426
0.075244279
-0.015523513
0.020924278
-0.017876122
-0.0044150195
-0.015041206
-0.022048356
-0.0093904397
-0.031681475
-0.00082359483
-0.027368746
0.0065410745
-0.014295994
0.0091665564
-0.0025498593
0.0076283585
0.0034840905
0.0045489052
0.0047877712
0.0018450243
0.0039236327
0.00014989757
0.0026303747
-0.00064197482
0.0013162517
-0.00082004699
0.0004300542
-0.00061036778
-1.034045e-05
-0.00027961441
-0.00016792668
2.8409374e-05
-0.0001733384
0.00024891374
-0.00012071694
0.00037397237
-6.0817076e-05
0.00042384807
-1.4006209e-05
0.00042356583
1.5787126e-05
0.00039624525
3.1869493e-05
0.00035760546
3.8510959e-05
0.00031752153
3.9542243e-05
0.0002815233
3.7444746e-05
0.00025244242
3.3581841e-05
0.00023047913
2.8054223e-05
0.00021411941
2.0593654e-05
0.00020383535
1.1312557e-05
0.00019883469
0.00078111395
0.021720946
-0.00019725256
-0.050172978
-0.0010605949
-0.069709195
0.00096516922
-0.020037902
0.0021641506
0.021959307
0.0027106058
0.026701774
-0.00014257034
0.0036774423
0.091839171
-1.5375257e-05
0.13723039
-0.0053290081
0.014486466
-0.0064974157
-0.052259738
-0.0077201656
-0.13576436
-0.00039780162
-0.14368771
0.013793136
-0.019394194
0.016664409
0.055064792
0.018381231
0.11225058
0.010983384
0.089205319
-0.016714374
0.024762483
-0.019361701
-0.0054262841
-0.016864846
-0.026395115
-0.010694451