/*--------------------------------*- C++ -*----------------------------------*\
| =========                 |                                                 |
| \\      /  F ield         | OpenFOAM: The Open Source CFD Toolbox           |
|  \\    /   O peration     | Version:  5.0                                   |
|   \\  /    A nd           | Web:      www.OpenFOAM.org                      |
|    \\/     M anipulation  |                                                 |
\*---------------------------------------------------------------------------*/
FoamFile
{
    version     2.0;
    format      ascii;
    class       volScalarField;
    location    "120";
    object      nut;
}
// * * * * * * * * * * * * * * * * * * * * * * * * * * * * * * * * * * * * * //

dimensions      [0 2 -1 0 0 0 0];

internalField   nonuniform List<scalar> 
9520
(
3.2407562e-117
3.9622207e-109
2.4403302e-117
2.8114577e-102
2.9979406e-109
1.8961036e-117
3.586692e-96
2.13627e-102
2.3469522e-109
1.5402336e-117
1.3160691e-90
2.7376943e-96
1.6838422e-102
1.9250564e-109
1.313722e-117
1.8003702e-85
1.0095975e-90
2.1731373e-96
1.3930741e-102
1.6589195e-109
1.1710077e-117
1.0829542e-80
1.3889436e-85
8.0743176e-91
1.8132794e-96
1.2107984e-102
1.491153e-109
1.0744067e-117
3.2094501e-76
8.4084946e-81
1.1199025e-85
6.7964047e-91
1.5886433e-96
1.0950966e-102
1.3735811e-109
9.9516033e-118
5.0918858e-72
2.5102094e-76
6.8408663e-81
9.5133323e-86
6.000794e-91
1.444231e-96
1.0104947e-102
1.270789e-109
9.1435967e-118
4.6093607e-68
4.0163986e-72
2.0625586e-76
5.8681105e-81
8.465868e-86
5.4801426e-91
1.3333913e-96
9.3232002e-103
1.1629156e-109
8.2874741e-118
2.5046313e-64
3.6703659e-68
3.3350171e-72
1.7873674e-76
5.2646971e-81
7.7646484e-86
5.0593229e-91
1.2260923e-96
8.4946615e-103
1.0524067e-109
7.512746e-118
8.5200322e-61
2.0145925e-64
3.0803168e-68
2.9197192e-72
1.6171002e-76
4.8495684e-81
7.1669185e-86
4.6367794e-91
1.1128517e-96
7.6836395e-103
9.6116951e-110
7.0493398e-118
1.8875244e-57
6.9210634e-61
1.7082838e-64
2.7236223e-68
2.6643802e-72
1.4964418e-76
4.4765175e-81
6.5497822e-86
4.1978716e-91
1.0079535e-96
7.0825436e-103
9.2057349e-110
7.1436007e-118
3.0293053e-54
1.5459921e-57
5.9247731e-61
1.5250212e-64
2.5076069e-68
2.4784388e-72
1.3823271e-76
4.0828866e-81
5.924462e-86
3.8170587e-91
9.3993836e-97
6.9295159e-103
9.619688e-110
8.0226937e-118
1.0047708e-50
2.4391941e-54
1.3345046e-57
5.3392428e-61
1.4177475e-64
2.3476386e-68
2.2933114e-72
1.2594914e-76
3.6964336e-81
5.4226085e-86
3.6112384e-91
9.4045328e-97
7.4499242e-103
1.1131852e-109
9.8568175e-118
3.589998e-45
5.9888301e-51
2.0978675e-54
1.2143111e-57
5.0193694e-61
1.3383896e-64
2.1783534e-68
2.0890852e-72
1.1431749e-76
3.4145221e-81
5.2183713e-86
3.6991243e-91
1.0379206e-96
8.8289185e-103
1.3891801e-109
1.2580325e-117
2.6772333e-38
1.1433752e-45
4.4960722e-51
1.9297399e-54
1.1575817e-57
4.7908164e-61
1.2469524e-64
1.9847357e-68
1.9029992e-72
1.0681145e-76
3.3499054e-81
5.475508e-86
4.180593e-91
1.2523112e-96
1.1097419e-102
1.7605274e-109
1.5561926e-117
1.1361332e-31
8.7427961e-39
6.0458978e-46
4.4053518e-51
1.9058879e-54
1.1223914e-57
4.4901166e-61
1.1362548e-64
1.8148662e-68
1.8012195e-72
1.0701747e-76
3.6007036e-81
6.3185541e-86
5.1048728e-91
1.5733314e-96
1.3851595e-102
2.1132728e-109
1.7503447e-117
1.337428e-25
4.5155737e-32
4.6365922e-39
7.9614836e-46
6.2586008e-51
1.9518585e-54
1.0617901e-57
4.0890378e-61
1.0418913e-64
1.7411483e-68
1.8450205e-72
1.1779008e-76
4.2294788e-81
7.7630776e-86
6.3626383e-91
1.9206995e-96
1.6035721e-102
2.2651947e-109
1.7093729e-117
3.539154e-20
6.3641154e-26
2.6205157e-32
7.2553356e-39
3.3689488e-45
1.1421446e-50
1.9252002e-54
9.6446445e-58
3.7489041e-61
1.0124146e-64
1.8241592e-68
2.0780288e-72
1.4040422e-76
5.2004285e-81
9.5344332e-86
7.5461092e-91
2.1342014e-96
1.63217e-102
2.0844237e-109
1.4130379e-117
1.9791151e-15
1.965779e-20
3.8309219e-26
4.0003738e-32
3.7344551e-38
2.0039831e-44
1.7287812e-50
1.7229798e-54
8.7866886e-58
3.6806199e-61
1.0848788e-64
2.1012176e-68
2.5065061e-72
1.7195547e-76
6.2575493e-81
1.0921913e-85
8.0106487e-91
2.0582618e-96
1.4137713e-102
1.6171293e-109
9.8493056e-118
2.1808215e-11
1.2266591e-15
1.2187667e-20
5.4301885e-26
1.8156108e-31
2.6746337e-37
5.5307976e-44
1.3167981e-50
1.4808903e-54
8.6755155e-58
4.0335348e-61
1.2783223e-64
2.5596774e-68
3.0454006e-72
2.0176098e-76
6.8911183e-81
1.1033781e-85
7.3050712e-91
1.6793261e-96
1.0314196e-102
1.0632979e-109
5.9192419e-118
4.8639311e-08
1.4630014e-11
7.6168837e-16
1.5518002e-20
2.1008611e-25
1.1900328e-30
7.7872728e-37
3.1519449e-44
5.4962485e-51
1.4072395e-54
9.7219745e-58
4.8700797e-61
1.5720454e-64
3.0762002e-68
3.4706762e-72
2.1284651e-76
6.6061843e-81
9.5002137e-86
5.6198135e-91
1.1567797e-96
6.4371073e-103
6.1409383e-110
3.2542333e-118
1.5733668e-05
3.4181761e-08
9.1578671e-12
8.7197483e-16
5.0254556e-20
1.1825304e-24
3.3036517e-30
3.9392024e-37
3.1796418e-45
2.6164436e-51
1.5878314e-54
1.2063937e-57
6.0566115e-61
1.8658469e-64
3.3940311e-68
3.4972747e-72
1.9329266e-76
5.367516e-81
6.9025108e-86
3.6739469e-91
6.91379e-97
3.6181176e-103
3.3725526e-110
1.8254955e-118
0.0001548547
1.2057952e-05
2.1306369e-08
9.4149172e-12
2.3641994e-15
2.3812301e-19
3.0423497e-24
1.5662601e-30
2.6948573e-38
1.4401544e-46
2.2323518e-51
2.0315556e-54
1.522969e-57
7.1011129e-61
1.9877727e-64
3.2577842e-68
3.0052768e-72
1.4830518e-76
3.692886e-81
4.3094392e-86
2.1263515e-91
3.8421132e-97
2.0266486e-103
2.0096037e-110
1.2177108e-118
0.00036150021
0.00014018021
8.1122472e-06
1.9748465e-08
2.1337861e-11
9.3635041e-15
5.6040047e-19
1.3866788e-24
9.9834435e-32
5.0801473e-40
2.3575623e-47
2.933493e-51
2.6300688e-54
1.7676187e-57
7.2894831e-61
1.8120031e-64
2.6457897e-68
2.1808135e-72
9.7020429e-77
2.2183425e-81
2.4469953e-86
1.1903025e-91
2.2447956e-97
1.3146916e-103
1.5216638e-110
1.1077459e-118
0.00060242905
0.00033407718
0.00012002211
6.9915875e-06
3.7543683e-08
7.0174805e-11
1.9757016e-14
2.5076721e-19
9.1210803e-26
2.1623609e-33
3.9106956e-41
4.262576e-47
4.4432745e-51
3.0466978e-54
1.7457926e-57
6.2866344e-61
1.3881551e-64
1.8188976e-68
1.364053e-72
5.6594926e-77
1.2535695e-81
1.4090458e-86
7.4246525e-92
1.6178121e-97
1.1443973e-103
1.6172139e-110
1.4117619e-118
0.0008379221
0.00056005583
0.00029701964
0.0001101871
1.0466511e-05
1.0160708e-07
1.3183119e-10
8.8003732e-15
1.8285159e-20
2.7040275e-27
2.2395292e-34
1.604941e-40
2.2226828e-46
5.8816599e-51
2.888739e-54
1.4176657e-57
4.5276435e-61
9.0513071e-65
1.0945298e-68
7.8120826e-73
3.2324001e-77
7.5769727e-82
9.6031279e-87
6.0337182e-92
1.6205967e-97
1.401242e-103
2.3278693e-110
2.2728954e-118
0.0010492048
0.00078043305
0.00050206958
0.00027654033
0.00012336408
1.9728238e-05
1.6709349e-07
5.9386243e-11
7.4887041e-16
7.5189269e-22
4.0897907e-28
1.1488713e-33
2.2022448e-39
7.3884835e-46
5.2736998e-51
2.1805471e-54
9.5481001e-58
2.7999065e-61
5.2733125e-65
6.2291648e-69
4.5839305e-73
2.0888778e-77
5.7388056e-82
8.8878005e-87
6.8961083e-92
2.2319907e-97
2.2042517e-103
3.9509147e-110
3.9695503e-118
0.0012316962
0.00097817653
0.00070391702
0.0004677412
0.00029277511
0.00015050591
2.5653308e-05
7.7322329e-08
6.0763797e-12
4.2441427e-17
1.6092736e-22
2.1050848e-27
1.8142826e-32
1.1448993e-38
6.1341756e-46
3.0733919e-51
1.3546059e-54
5.5901381e-58
1.5887237e-61
3.0197035e-65
3.8164545e-69
3.2162739e-73
1.7748748e-77
6.0425291e-82
1.1431359e-86
1.0386719e-91
3.7117556e-97
3.8182362e-103
6.8269769e-110
6.6474124e-118
0.0013946848
0.0011484053
0.00088467146
0.00065787284
0.0004861352
0.00033001991
0.0001609289
1.4791356e-05
9.7469077e-09
4.7166151e-13
1.2536459e-17
7.9171971e-22
3.2298344e-26
9.8196165e-32
9.4500079e-39
9.4776106e-47
1.4642844e-51
7.459612e-55
3.1052333e-58
9.267974e-62
1.9609697e-65
2.9407532e-69
3.0704197e-73
2.1033868e-77
8.5657607e-82
1.8310776e-86
1.7729465e-91
6.3933136e-97
6.3846427e-103
1.0839826e-109
9.901223e-118
0.0015360596
0.0013010688
0.0010410583
0.00082716597
0.00067623703
0.00053263959
0.00034016452
0.00012862992
2.9476677e-06
1.0347161e-09
1.8752738e-13
5.8172501e-17
1.0898265e-20
1.7002618e-25
8.1093869e-32
7.9536118e-40
5.8529174e-48
6.995426e-52
4.0702541e-55
1.8673061e-58
6.4642186e-62
1.6707186e-65
3.1376992e-69
4.0240081e-73
3.2053858e-77
1.4217006e-81
3.1226186e-86
2.9728537e-91
1.0189333e-96
9.4914277e-103
1.493085e-109
1.261717e-117
0.0016514386
0.0014324285
0.0011830507
0.00097367305
0.00084158177
0.00072580003
0.00053975134
0.00028659072
6.8482357e-05
4.5833325e-07
5.4121021e-10
8.1962143e-13
6.786076e-16
5.3837678e-20
1.3957262e-25
6.5964246e-33
7.2696145e-42
7.0511082e-49
3.6944033e-52
2.5500933e-55
1.4140749e-58
6.1045724e-62
1.9716947e-65
4.4525384e-69
6.4282639e-73
5.3818897e-77
2.3715298e-81
4.9931985e-86
4.4524486e-91
1.4063161e-96
1.2008501e-102
1.7342524e-109
1.3512551e-117
0.0017417857
0.0015402438
0.0013067369
0.0011066935
0.00098164081
0.00088741914
0.00072437252
0.0004619364
0.00019610223
2.7338293e-05
3.0901359e-07
2.2301274e-09
7.7901485e-12
3.0463191e-15
4.3714411e-20
1.1795983e-26
5.0757055e-35
2.0879217e-44
2.5350061e-49
2.4279153e-52
2.1130873e-55
1.4779004e-58
7.8622126e-62
2.9641717e-65
7.2817548e-69
1.0694927e-72
8.6502995e-77
3.5733874e-81
6.9427148e-86
5.660854e-91
1.62648e-96
1.2665169e-102
1.677829e-109
1.2078074e-117
0.0018094192
0.0016251046
0.0014104146
0.0012237692
0.0011047017
0.0010196717
0.00087541903
0.00062629048
0.0003376005
0.00013190795
2.417953e-05
1.1608584e-06
1.6820764e-08
3.085252e-11
2.4364225e-15
3.9640294e-21
1.0016117e-28
6.5082581e-38
3.546304e-46
1.6705549e-49
2.212544e-52
2.4320615e-55
2.0466336e-58
1.2270656e-61
4.8614872e-65
1.1810314e-68
1.6370068e-72
1.2185203e-76
4.5803064e-81
8.0715559e-86
5.9610823e-91
1.5532839e-96
1.1042972e-102
1.3463442e-109
8.9993771e-118
0.0018561408
0.0016893714
0.0014943999
0.0013235138
0.0012119181
0.0011306728
0.00099709888
0.00076422909
0.00047752341
0.0002540174
0.00013213731
5.3394636e-05
6.1089576e-06
5.688882e-08
2.4217996e-11
2.4431195e-16
4.0220075e-23
1.7810604e-31
6.5625592e-41
9.9099325e-47
1.6643385e-49
2.7865927e-52
3.5685085e-55
3.2561676e-58
1.9846864e-61
7.587175e-65
1.7060742e-68
2.1438544e-72
1.4345321e-76
4.8468411e-81
7.7032394e-86
5.1440975e-91
1.2182645e-96
7.9445168e-103
8.9622701e-110
5.6011428e-118
0.0018849103
0.0017349384
0.0015605984
0.0014059483
0.0013026489
0.0012247547
0.0010974849
0.00087698217
0.00060137481
0.00037861643
0.00026130012
0.00018925034
0.00010512278
1.4635401e-05
4.3645871e-08
2.7642805e-12
3.1732821e-18
1.1372951e-25
1.9144271e-34
3.2470103e-43
9.3735343e-47
2.2774921e-49
4.2760575e-52
5.6996361e-55
5.1190159e-58
2.9467383e-61
1.0272495e-64
2.0687718e-68
2.3135341e-72
1.3793336e-76
4.1772285e-81
5.9894462e-86
3.6254749e-91
7.8438053e-97
4.7213153e-103
4.9644202e-110
2.9252616e-118
0.0018991419
0.0017647086
0.0016104306
0.0014728833
0.0013769671
0.0013022733
0.0011808174
0.00097530464
0.00070591706
0.00049294085
0.00039271152
0.00034481945
0.00026778616
0.00013921175
1.1523638e-05
5.837448e-09
4.8940032e-14
1.4281304e-20
1.9239198e-28
1.6491246e-37
5.5493371e-44
1.3692003e-46
3.6223368e-49
6.7727016e-52
8.608238e-55
7.160516e-58
3.7196828e-61
1.1496692e-64
2.0437571e-68
2.0209756e-72
1.0724266e-76
2.9174237e-81
3.7870684e-86
2.0885105e-91
4.1576725e-97
2.3275556e-103
2.3018045e-110
1.2915996e-118
0.0019014968
0.0017825509
0.0016461667
0.0015250077
0.001437048
0.0013636033
0.0012480746
0.0010572563
0.00080427285
0.00059259753
0.0005101991
0.00049778248
0.00045080555
0.00031510452
0.00012447338
2.2348646e-06
1.4654432e-10
3.3887077e-16
3.7608174e-23
2.0893578e-31
4.4752381e-40
6.635924e-44
2.2465039e-46
5.6388427e-49
9.734598e-52
1.1252742e-54
8.393532e-58
3.8326002e-61
1.0385456e-64
1.6223308e-68
1.4185609e-72
6.7216862e-77
1.6508966e-81
1.9511555e-86
9.8757259e-92
1.8259275e-97
9.5960193e-104
9.0256295e-111
4.8817509e-119
0.0018962478
0.0017925267
0.0016719745
0.0015637883
0.0014829707
0.0014107411
0.0012995447
0.0011248175
0.00089030726
0.00068431733
0.00061019544
0.00062587546
0.00062016697
0.00050666929
0.0002875164
6.4423765e-05
8.7154245e-08
1.5198395e-12
1.3444455e-18
6.3976871e-26
2.5299256e-34
7.6273813e-41
1.1105854e-43
3.4193286e-46
7.6484336e-49
1.1806153e-51
1.2182277e-54
7.9470963e-58
3.1625646e-61
7.4916042e-65
1.0293098e-68
7.9893392e-73
3.4014728e-77
7.598642e-82
8.2429662e-87
3.8685983e-92
6.7215854e-98
3.3597441e-104
3.0501719e-111
1.6153233e-119
0.0017996924
0.0018947622
0.001691926
0.0015922867
0.001515893
0.0014438573
0.0013368927
0.0011783163
0.00096466639
0.00076731441
0.00069465082
0.00072544895
0.00075182303
0.00067471026
0.00046393286
0.00019396591
8.9903997e-06
1.3350712e-09
8.9049619e-15
3.7413553e-21
1.6958571e-28
1.8704232e-35
1.556049e-40
1.6654239e-43
4.3396166e-46
8.5320155e-49
1.1705363e-51
1.058276e-54
5.9861634e-58
2.0729662e-61
4.3006269e-65
5.2207652e-69
3.6228858e-73
1.3990703e-77
2.8733098e-82
2.8961592e-87
1.2799418e-92
2.1253804e-98
1.0305953e-104
9.2250251e-112
4.8882631e-120
0.0017069004
0.0018081784
0.0018954598
0.0016115709
0.0015376609
0.0014644634
0.0013610585
0.0012194816
0.001028165
0.00084057246
0.00076771068
0.0008039074
0.0008433732
0.00079723392
0.00061701087
0.00033603265
8.1778847e-05
2.4508392e-07
1.1607407e-11
4.450905e-17
3.5498067e-23
6.9123568e-29
1.3475199e-34
3.1280292e-40
1.9365286e-43
4.4033822e-46
7.6806971e-49
9.3151998e-52
7.2726413e-55
3.5660826e-58
1.0776777e-61
1.9691297e-65
2.1300714e-69
1.3372206e-73
4.7548694e-78
9.1349693e-83
8.7369647e-88
3.7317125e-93
6.0918988e-99
2.9586497e-105
2.697964e-112
1.4757169e-120
0.0016211155
0.0017184065
0.0018123635
0.0018864648
0.0015489444
0.0014739147
0.0013739597
0.0012495961
0.0010816507
0.00090476885
0.00083126242
0.00086436803
0.0009083872
0.0008766477
0.00072927978
0.0004671857
0.00018223189
9.2605346e-06
3.3573493e-09
1.2639044e-13
2.1033429e-18
7.3207087e-23
9.4742864e-28
5.5009372e-34
2.5550012e-40
1.7182138e-43
3.5586997e-46
5.5669647e-49
5.8369447e-52
3.9392075e-55
1.6813196e-58
4.466603e-62
7.2672967e-66
7.1150709e-70
4.1280115e-74
1.3886319e-78
2.5779917e-83
2.4344776e-88
1.0525193e-93
1.776346e-99
9.0999605e-106
8.8725185e-113
5.2180097e-121
0.0015491353
0.0016218958
0.0017268428
0.0018057376
0.0018661476
0.0014732424
0.001377396
0.0012705063
0.0011258414
0.00096073586
0.00088620062
0.00091440255
0.00095572388
0.00092893216
0.00080564495
0.00057176633
0.00027996948
5.9380419e-05
2.6962041e-07
1.0571079e-10
3.29455e-14
1.271889e-17
1.1760603e-21
4.2330838e-27
2.9271246e-34
9.6406753e-41
1.2107193e-43
2.3230757e-46
3.1779422e-49
2.8762584e-52
1.6879746e-55
6.3341913e-59
1.502014e-62
2.2250559e-66
2.0348676e-70
1.1386955e-74
3.8232295e-79
7.3108873e-84
7.3420263e-89
3.4752724e-94
6.5546964e-100
3.7937518e-106
4.1724279e-113
2.7325426e-121
0.001463264
0.0015378557
0.0016237941
0.0017264937
0.0017865431
0.0018324705
0.0013733779
0.0012842037
0.0011615485
0.0010089794
0.00093387361
0.00095545656
0.00099186839
0.00096696249
0.00086076246
0.00065191775
0.00036795105
0.00012978559
7.0030936e-06
3.1041792e-08
1.2228431e-10
3.454741e-13
1.9542256e-16
4.9943958e-21
2.3175479e-27
1.4469341e-35
3.5508235e-41
6.9869402e-44
1.2042239e-46
1.4256477e-49
1.1236216e-52
5.8170975e-56
1.9625918e-59
4.2958592e-63
6.0827093e-67
5.5579307e-71
3.2710236e-75
1.2128414e-79
2.6661554e-84
3.1792254e-89
1.8134306e-94
4.1153132e-100
2.8168222e-106
3.5599085e-113
2.5869745e-121
0.0013655028
0.0014456141
0.0015264919
0.0016216404
0.0017139188
0.001753333
0.0017815773
0.0012922784
0.0011906926
0.0010501816
0.00097476682
0.00098962079
0.0010181641
0.00099258701
0.00090124073
0.00072527136
0.00044382376
0.00019934306
4.9360827e-05
3.0020598e-06
9.9211652e-08
1.5189964e-09
4.5526553e-12
7.5527719e-16
2.8668965e-21
1.0717796e-28
1.2869503e-37
1.5891833e-41
3.2609122e-44
4.9207953e-47
5.0996132e-50
3.5756822e-53
1.6893475e-56
5.3970812e-60
1.1762006e-63
1.7658606e-67
1.8366984e-71
1.3141019e-75
6.1863362e-80
1.7578403e-84
2.6969285e-89
1.9221681e-94
5.2386711e-100
4.1181322e-106
5.7233988e-113
4.3981102e-121
0.001298585
0.0013540298
0.0014243497
0.0015091784
0.0016107979
0.0016870807
0.0017028965
0.001710603
0.0012135052
0.0010853765
0.001009578
0.0010171593
0.0010376034
0.0010076844
0.00092855102
0.000783318
0.00053247178
0.00026600209
0.00012038376
4.8941999e-05
1.3218118e-05
1.1098333e-06
1.5931885e-08
1.5559223e-11
4.4694727e-16
1.6611269e-22
3.3723096e-31
4.4875323e-39
6.5125246e-42
1.212713e-44
1.6213544e-47
1.5194012e-50
9.9846494e-54
4.6626817e-57
1.5821008e-60
3.991659e-64
7.5704361e-68
1.0643702e-71
1.0570929e-75
6.7866208e-80
2.5178746e-84
4.7680502e-89
3.9552048e-94
1.1930585e-99
9.9622261e-106
1.4242088e-112
1.0979395e-120
0.0012342568
0.00129818
0.0013352126
0.0013955601
0.0014863977
0.001587824
0.0016434644
0.0016328085
0.0016181766
0.0011146195
0.0010388208
0.0010389039
0.0010498969
0.001014595
0.00094427617
0.00082761935
0.00060987481
0.00034473743
0.0001932328
0.00014249075
0.00011181507
5.8970004e-05
7.5900986e-06
4.6767619e-08
9.391573e-12
3.2370382e-17
8.1046875e-25
1.7237602e-34
1.0438315e-39
2.1916545e-42
3.7103336e-45
4.6128579e-48
4.2316437e-51
2.9370038e-54
1.5971206e-57
7.0098229e-61
2.4930925e-64
6.9346259e-68
1.4053137e-71
1.8895742e-75
1.5185029e-79
6.5708626e-84
1.3668878e-88
1.1917499e-93
3.6646813e-99
3.0547169e-105
4.2971512e-112
3.2264024e-120
0.0011392637
0.0012468687
0.001288119
0.0013080919
0.0013613107
0.0014557454
0.0015501408
0.0015808081
0.0015423536
0.0015022774
0.0010621921
0.0010552911
0.0010564413
0.0010141916
0.00095072493
0.00086000091
0.00067658653
0.00042251251
0.00026202706
0.00023635283
0.00023835885
0.00020620198
0.00012162392
1.596162e-05
2.8670683e-08
8.462195e-13
2.5653519e-19
4.8365789e-28
5.6959492e-37
3.0098888e-40
6.2853825e-43
1.0359089e-45
1.3469172e-48
1.4325056e-51
1.2986428e-54
1.0233022e-57
6.8572056e-61
3.6610049e-64
1.4229662e-67
3.6671459e-71
5.7375821e-75
5.0150047e-79
2.2549069e-83
4.7120175e-88
4.0513815e-93
1.2151982e-98
9.8201158e-105
1.3348729e-111
9.6668657e-120
0.0010799548
0.0011583876
0.0012504069
0.0012696884
0.0012736033
0.0013200933
0.001414988
0.0014954542
0.0014982642
0.0014295226
0.00136256
0.0010660804
0.0010572911
0.001007962
0.00094993513
0.000882372
0.00073310259
0.0004959433
0.00033052785
0.00031302651
0.00036117368
0.00036810975
0.00029777668
0.00015132634
1.082653e-05
3.2477271e-09
1.0666716e-14
3.2054276e-22
1.6751642e-31
3.9722523e-38
8.1329932e-41
1.7851617e-43
3.3783269e-46
5.7245276e-49
8.9573931e-52
1.279627e-54
1.5696341e-57
1.5124111e-60
1.0425151e-63
4.7309226e-67
1.3176936e-70
2.115145e-74
1.8383029e-78
8.0657111e-83
1.6253911e-87
1.3426272e-92
3.8663322e-98
3.0027276e-104
3.9299311e-111
2.7455045e-119
0.0010710063
0.0010919321
0.0011715706
0.0012459086
0.0012435404
0.0012319367
0.0012710286
0.001360642
0.0014222791
0.0013937
0.0012943263
0.0012026941
0.0010524427
0.00099643547
0.00094388774
0.0008970006
0.00077982231
0.00056373069
0.00039625816
0.00037950829
0.00045953807
0.00051484709
0.0004818041
0.00033709288
0.00012949717
1.8909756e-06
6.5067759e-11
2.7000873e-17
1.9120287e-25
1.0971992e-34
8.4941739e-39
2.4530539e-41
6.9914776e-44
1.9578742e-46
5.3615841e-49
1.3562766e-51
2.8831067e-54
4.6633282e-57
5.2868279e-60
3.9322004e-63
1.8181545e-66
4.9845542e-70
7.728645e-74
6.4321756e-78
2.6878546e-82
5.1550289e-87
4.0634588e-92
1.1206597e-97
8.3685343e-104
1.0572657e-110
7.1551217e-119
0.0010414165
0.0010689007
0.0010981764
0.0011786335
0.0012337084
0.0012100873
0.0011816547
0.0012118013
0.0012904763
0.0013283173
0.0012669185
0.0011402325
0.0010265359
0.00098004819
0.00093431637
0.00090638024
0.00081771729
0.00062539342
0.00045804462
0.00043943075
0.00052804181
0.00062487653
0.00062957262
0.00052356103
0.00030124764
6.7058811e-05
6.4829239e-08
3.2074597e-13
3.2560226e-20
6.4294324e-29
1.3931517e-36
2.7974235e-39
1.2397737e-41
5.8603321e-44
2.7655132e-46
1.1777512e-48
4.05887e-51
1.0320574e-53
1.8088061e-56
2.0830811e-59
1.5146912e-62
6.7072494e-66
1.7441606e-69
2.5576356e-73
2.0154571e-77
7.9689102e-82
1.4528052e-86
1.094264e-91
2.8990187e-97
2.0902798e-103
2.561972e-110
3.3016947e-127
0.00095891547
0.0010230872
0.0010593288
0.0011010729
0.0011793236
0.0012139256
0.0011684137
0.0011219994
0.0011399699
0.0012021341
0.0012131992
0.0011204572
0.00096903186
0.00082308067
0.00092170959
0.00091218284
0.00084897692
0.00068061063
0.00051577242
0.00049274787
0.0005858392
0.00069118965
0.00072942638
0.00066155522
0.00047871205
0.00020686766
9.5965325e-06
6.1004435e-10
7.4433209e-16
2.0018644e-23
2.157006e-32
2.9240155e-37
1.9286233e-39
1.5338753e-41
1.1972672e-43
8.068022e-46
4.2287176e-48
1.5985487e-50
4.1353761e-53
7.0579558e-56
7.7325079e-59
5.2903887e-62
2.1964634e-65
5.3597116e-69
7.3998912e-73
5.5119468e-77
2.0659806e-81
3.5931269e-86
2.5979501e-91
6.646548e-97
4.6537174e-103
1.7993565e-118
6.5897589e-137
0.00090638938
0.00093287647
0.000998127
0.001047339
0.0011009245
0.0011727586
0.0011861309
0.0011177828
0.0010521623
0.0010535216
0.0010951839
0.0010778031
0.0009540496
0.00077155711
0.00059802427
0.00091604015
0.00087513814
0.00073005884
0.00056953566
0.00054083864
0.00063293742
0.00074512975
0.0007906262
0.00074576373
0.0006138137
0.0003618294
9.3840978e-05
2.0932814e-07
2.6045437e-12
8.5749907e-19
6.7383784e-27
8.9815384e-35
2.6596651e-37
3.4494666e-39
4.2176225e-41
4.2330225e-43
3.1970358e-45
1.7172744e-47
6.3152084e-50
1.5461999e-52
2.4659308e-55
2.512947e-58
1.5996128e-61
6.1987488e-65
1.4187436e-68
1.8481771e-72
1.3044702e-76
4.6578808e-81
7.771312e-86
5.4263126e-91
1.3490671e-96
5.0347358e-111
5.7965636e-128
3.7078212e-148
0.00091697142
0.00088719636
0.00090246413
0.00097007144
0.001031864
0.0010950949
0.0011582061
0.0011492147
0.0010580774
0.00097029817
0.00095170141
0.00096917102
0.00092153641
0.00075974252
0.00055199518
0.0003700748
0.00090037596
0.00077410278
0.00061955808
0.0005846332
0.0006726593
0.00078581474
0.0008357991
0.00079956105
0.00069471621
0.00049826663
0.00021219459
1.2149157e-05
1.6038041e-09
5.3501162e-15
5.0719593e-22
2.0382187e-30
3.5668005e-35
6.5090754e-37
1.1788681e-38
1.6721952e-40
1.7420098e-42
1.2824384e-44
6.4961384e-47
2.2177606e-49
5.0120765e-52
7.3769891e-55
6.9564129e-58
4.116395e-61
1.491649e-64
3.2137018e-68
3.9693658e-72
2.6663351e-76
9.1266758e-81
1.4703859e-85
9.982507e-91
2.2661982e-104
2.67015e-120
5.2788406e-139
4.6501081e-161
0.00092205273
0.00091319418
0.00086397253
0.0008679988
0.00093792885
0.0010112072
0.0010818357
0.0011342833
0.0011034135
0.00098713334
0.00087568533
0.00083494035
0.00082700852
0.00073696715
0.00054131626
0.00033235003
0.00017077095
0.00081447269
0.00066603257
0.00062465444
0.00070623676
0.00081788429
0.00086687453
0.0008343212
0.00074852149
0.00060032944
0.00033173689
8.014339e-05
2.0848543e-07
5.6296835e-12
5.5009133e-18
1.6862369e-25
1.2348479e-32
1.0144271e-34
2.5753026e-36
4.9461501e-38
6.8593444e-40
6.7159433e-42
4.5619741e-44
2.1166222e-46
6.6111935e-49
1.3704634e-51
1.8586827e-54
1.6240494e-57
8.962513e-61
3.0506117e-64
6.2201079e-68
7.3230459e-72
4.7113212e-76
1.556818e-80
2.4395261e-85
2.6162738e-98
1.9996e-113
4.1231123e-131
9.3325015e-152
2.6668152e-175
0.00085091154
0.0009374574
0.00090430727
0.00083659789
0.00082911602
0.00090012573
0.00098362809
0.001059429
0.001100566
0.0010464841
0.000904207
0.00076858634
0.00070684436
0.00065950243
0.00052732115
0.00032119919
0.00014389918
2.6270306e-05
0.00070884234
0.00066100435
0.00073414808
0.00084223818
0.00088817311
0.00085300503
0.00077945728
0.00067017726
0.0004567721
0.00016666935
6.3619946e-06
1.2234456e-09
9.6498327e-15
2.9676168e-21
7.4001151e-29
1.3911142e-32
4.383851e-34
1.0992355e-35
1.9700631e-37
2.4986545e-39
2.2214871e-41
1.368521e-43
5.7699875e-46
1.6445898e-48
3.1288324e-51
3.9204429e-54
3.1869497e-57
1.6485858e-60
5.3015495e-64
1.029696e-67
1.1621485e-71
7.2143531e-76
2.3189825e-80
1.000373e-92
3.8636218e-107
5.3704423e-124
1.1415882e-143
5.5021185e-166
2.3185727e-190
0.00074791416
0.0008824341
0.00094602495
0.0008907986
0.00080462033
0.00078513882
0.00085536346
0.00094729345
0.0010266179
0.0010553482
0.0009773159
0.0008073991
0.00064999939
0.00055833775
0.0004697098
0.00031253989
0.00013428438
1.5239147e-05
1.5462178e-07
0.00069348097
0.00075657292
0.00085876709
0.00090017181
0.0008591775
0.00079136853
0.00071206349
0.00055458458
0.00027843651
4.2638772e-05
6.962293e-08
3.3695445e-12
8.492905e-18
1.06002e-24
2.7003734e-30
5.9370897e-32
1.8650959e-33
4.1858438e-35
6.7111834e-37
7.6314391e-39
6.1047479e-41
3.3984398e-43
1.3016521e-45
3.3916374e-48
5.9416737e-51
6.9091138e-54
5.2538569e-57
2.5634235e-60
7.8408853e-64
1.4613366e-67
1.5912127e-71
9.6076976e-76
1.4897475e-87
2.4800303e-101
1.831985e-117
2.4806623e-136
8.2455612e-158
3.5278239e-181
6.8956895e-206
0.00072234016
0.00078320369
0.00090772327
0.00094867057
0.00087234382
0.00076799142
0.00073538367
0.00080237766
0.00090091516
0.0009817922
0.00099733609
0.00089265655
0.00069457974
0.00051248395
0.00039159851
0.00027536455
0.00012945221
1.1621809e-05
6.0359684e-08
1.2580602e-10
0.00077323609
0.00086681682
0.00090257769
0.00085388641
0.00078761183
0.000731504
0.0006268472
0.00038794844
0.00012635478
1.3192159e-06
2.9845398e-10
4.6971008e-15
4.4099248e-21
2.0558255e-27
6.9239931e-30
2.5224518e-31
6.8111249e-33
1.3269051e-34
1.8843539e-36
1.9145926e-38
1.3772101e-40
6.935821e-43
2.4193646e-45
5.7842314e-48
9.3745669e-51
1.017298e-53
7.2830045e-57
3.3755708e-60
9.8945626e-64
1.7824771e-67
1.8870702e-71
9.6639042e-83
6.2045044e-96
2.0953968e-111
1.4698542e-129
2.463526e-150
4.8060093e-173
6.3062301e-197
1.0029044e-221
0.00078450289
0.00074775373
0.00081510315
0.00092684706
0.00094553336
0.00084899427
0.00072605302
0.00067920807
0.00074080294
0.00084343631
0.00092422237
0.00092474553
0.00078757901
0.0005583469
0.00035811065
0.00022390145
0.00010814628
1.0365671e-05
3.7034575e-08
3.8197054e-11
2.3025537e-14
0.00086583595
0.00089410386
0.00083755243
0.00077073377
0.00073369281
0.00067394848
0.00048968008
0.00021612552
2.1996175e-05
8.6990843e-09
6.4932848e-13
4.2961427e-18
6.2315805e-24
1.2836727e-27
3.0105904e-29
9.1110765e-31
2.0580803e-32
3.4271223e-34
4.3055656e-36
3.9156622e-38
2.5381174e-40
1.1597617e-42
3.6985232e-45
8.1521177e-48
1.2292066e-50
1.2528543e-53
8.5056765e-57
3.7745396e-60
1.0691805e-63
1.8753374e-67
2.9652348e-78
6.7539876e-91
9.391918e-106
3.0023335e-123
2.163704e-143
1.544216e-165
5.8864766e-189
5.6141459e-213
7.6808713e-238
0.00085592623
0.00079032747
0.00077058932
0.00084329052
0.00093994321
0.00093659428
0.00081972676
0.00067822256
0.00061642068
0.00067019798
0.00077368236
0.00085193514
0.00083033246
0.00065129181
0.00039959782
0.00020366015
7.7284413e-05
6.3846621e-06
3.0739943e-08
1.8856229e-11
5.2887401e-15
9.5572399e-19
0.00087437811
0.0008106793
0.00074315086
0.00072240645
0.00070161041
0.0005751981
0.00031234591
8.1797064e-05
4.6247466e-07
3.0841222e-11
1.6168486e-15
5.1152456e-20
7.4784864e-24
1.0311924e-26
1.2281101e-28
2.6805652e-30
4.9385631e-32
7.1103183e-34
7.9688198e-36
6.506442e-38
3.8124245e-40
1.5867673e-42
4.648181e-45
9.4987221e-48
1.3411349e-50
1.2931995e-53
8.3920222e-57
3.5963726e-60
9.9364087e-64
4.5850194e-74
3.4670638e-86
1.8364781e-100
2.4534772e-117
6.9194014e-137
1.6264857e-158
1.5810998e-181
3.0382151e-205
3.1041956e-229
5.0267012e-254
0.00084333485
0.00083758056
0.00079311137
0.00079161875
0.00086698035
0.00094663402
0.00092111031
0.00078377037
0.00062392743
0.00054685872
0.00059030675
0.00068995587
0.00076257105
0.00070232589
0.00048286337
0.00023614899
6.6784181e-05
2.7718414e-06
1.6353817e-08
1.4197397e-11
1.9876442e-15
1.6207203e-19
8.9314403e-24
0.00077436645
0.00070731857
0.00070138771
0.00071487721
0.0006426265
0.00041142243
0.00015528823
7.4270393e-06
3.8183727e-09
4.9731139e-13
6.3304956e-16
8.2155379e-19
4.229843e-22
1.7479324e-25
4.2343597e-28
5.9778484e-30
9.2251853e-32
1.1855514e-33
1.1922197e-35
8.7683959e-38
4.6624566e-40
1.7757552e-42
4.8046759e-45
9.1618663e-48
1.2201178e-50
1.1219662e-53
7.0198417e-57
2.931903e-60
3.7580099e-70
8.9258364e-82
1.6938013e-95
8.8862047e-112
9.2552019e-131
6.684726e-152
1.6396281e-174
5.312407e-198
1.0158876e-221
1.7394651e-245
3.3271226e-270
0.00072978091
0.00080249635
0.00081453989
0.00079452894
0.00080991466
0.00088504619
0.00094643951
0.00089799115
0.00074043726
0.00056251667
0.00047094782
0.00050198441
0.00060146507
0.00064454504
0.00053501983
0.00030058478
9.0162536e-05
2.1754888e-06
6.188583e-09
7.0075324e-12
1.2852312e-15
4.393542e-20
1.1261122e-24
2.0166074e-29
0.00066543414
0.00067396305
0.00071828184
0.0006955259
0.00050834298
0.00023643136
4.1310152e-05
1.4454512e-07
1.8715709e-10
3.0857322e-12
3.0857876e-14
7.14805e-17
3.3288848e-20
2.2871542e-24
9.7209025e-28
9.9457457e-30
1.3532796e-31
1.5946593e-33
1.4398566e-35
9.574922e-38
4.640999e-40
1.6261526e-42
4.0898281e-45
7.3302853e-48
9.2822507e-51
8.2115866e-54
5.0002233e-57
1.7020787e-66
1.2101093e-77
7.8188546e-91
1.5363692e-106
5.7053741e-125
1.2069951e-145
7.3654641e-168
4.3432063e-191
1.006093e-214
4.1277099e-238
1.0968019e-261
2.0941188e-286
0.00061949473
0.00067831999
0.00075673377
0.00078973188
0.00079417429
0.00082405119
0.00089606646
0.00093785565
0.00086697774
0.00068810767
0.00049380739
0.00039066404
0.00041690393
0.00049300771
0.00049236162
0.00034599302
0.00013527026
4.898696e-06
5.340901e-09
2.5435064e-12
5.7697648e-16
2.3065105e-20
2.1791822e-25
1.9164995e-30
1.1488109e-35
0.00064293356
0.00071582607
0.00073780905
0.00060019278
0.00032654116
0.00010056502
2.6246904e-06
1.8738231e-08
1.9933922e-09
1.6343311e-10
2.0337743e-12
4.7986789e-15
7.5198424e-19
8.4165982e-24
1.2945435e-27
1.2636163e-29
1.5942721e-31
1.72374e-33
1.4025568e-35
8.469456e-38
3.7612778e-40
1.2199355e-42
2.872511e-45
4.8785779e-48
5.9265652e-51
5.0925877e-54
4.4130979e-63
8.9897447e-74
1.8924714e-86
1.3407227e-101
1.7391562e-119
1.0465584e-139
1.547267e-161
1.8080404e-184
5.1626862e-208
2.4798591e-231
2.2369401e-254
6.9314908e-278
1.2195768e-302
0.00061027884
0.00057047557
0.00062266369
0.00070787254
0.00076308683
0.00079006626
0.0008319429
0.0008981991
0.00092032572
0.0008252133
0.00062634304
0.00041493109
0.00030532492
0.00031973928
0.00036335145
0.00031929025
0.00016954409