/*--------------------------------*- C++ -*----------------------------------*\
| =========                 |                                                 |
| \\      /  F ield         | OpenFOAM: The Open Source CFD Toolbox           |
|  \\    /   O peration     | Version:  5.0                                   |
|   \\  /    A nd           | Web:      www.OpenFOAM.org                      |
|    \\/     M anipulation  |                                                 |
\*---------------------------------------------------------------------------*/
FoamFile
{
    version     2.0;
    format      ascii;
    class       volScalarField;
    location    "120";
    object      nuTilda_0;
}
// * * * * * * * * * * * * * * * * * * * * * * * * * * * * * * * * * * * * * //

dimensions      [0 2 -1 0 0 0 0];

internalField   nonuniform List<scalar> 
9520
(
5.8384252e-33
6.1392704e-31
5.4384826e-33
3.1685656e-29
5.7255472e-31
5.1056224e-33
1.0648804e-27
2.9581541e-29
5.3852116e-31
4.8466171e-33
2.6208623e-26
9.95287e-28
2.7870567e-29
5.1244289e-31
4.6572362e-33
5.0403644e-25
2.4526427e-26
9.3936857e-28
2.6577948e-29
4.9368787e-31
4.5249589e-33
7.8935184e-24
4.7234922e-25
2.3191798e-26
8.9771354e-28
2.5660142e-29
4.8067623e-31
4.4285191e-33
1.0356715e-22
7.4091108e-24
4.4755518e-25
2.2211882e-26
8.6844725e-28
2.5022682e-29
4.7090366e-31
4.3445983e-33
1.1623306e-21
9.7388583e-23
7.0359475e-24
4.296282e-25
2.1529568e-26
8.479679e-28
2.4524756e-29
4.618486e-31
4.2537523e-33
1.1337446e-20
1.0953005e-21
9.2712746e-23
6.7706161e-24
4.1725115e-25
2.1045931e-26
8.3121529e-28
2.4036795e-29
4.5173332e-31
4.1504938e-33
9.733873e-20
1.0708899e-20
1.0454556e-21
8.9443983e-23
6.5890014e-24
4.0832e-25
2.063003e-26
8.1399006e-28
2.3484497e-29
4.4058738e-31
4.0495297e-33
7.4336981e-19
9.2173912e-20
1.0248816e-20
1.0111771e-21
8.7228218e-23
6.4549927e-24
4.0023204e-25
2.0185697e-26
7.9451326e-28
2.2901626e-29
4.3065646e-31
3.9847171e-33
5.0999231e-18
7.0566566e-19
8.8442157e-20
9.9374112e-21
9.8825293e-22
8.5552786e-23
6.3272474e-24
3.9133235e-25
1.9689878e-26
7.7503219e-28
2.2436325e-29
4.2592878e-31
3.9967254e-33
3.2280336e-17
4.8512428e-18
6.7870705e-19
8.59607e-20
9.7337355e-21
9.7053695e-22
8.3874947e-23
6.1834129e-24
3.8162665e-25
1.92253e-26
7.6146596e-28
2.2308024e-29
4.3050284e-31
4.1131771e-33
2.4508173e-16
3.0574842e-17
4.6756227e-18
6.6121795e-19
8.4403149e-20
9.5746385e-21
9.5190575e-22
8.1946566e-23
6.0312863e-24
3.7322516e-25
1.8956531e-26
7.6135007e-28
2.2708626e-29
4.4639371e-31
4.3298318e-33
5.997177e-15
2.1525859e-16
2.94405e-17
4.5661347e-18
6.5104837e-19
8.3196608e-20
9.3974062e-21
9.2996211e-22
7.997932e-23
5.9118918e-24
3.6956981e-25
1.9065217e-26
7.8013143e-28
2.3688746e-29
4.7177812e-31
4.6025849e-33
3.133963e-13
4.5014695e-15
2.0027635e-16
2.882769e-17
4.5115532e-18
6.4351004e-19
8.1740153e-20
9.1811203e-21
9.0843318e-22
7.8617924e-23
5.8821796e-24
3.739323e-25
1.9652473e-26
8.175079e-28
2.5082745e-29
5.0065182e-31
4.8555462e-33
1.4220844e-11
2.3671689e-13
3.8325949e-15
1.9909274e-16
2.8734321e-17
4.47689e-18
6.331897e-19
7.9860758e-20
8.9769321e-21
8.9584089e-22
7.8634199e-23
5.9876574e-24
3.8748078e-25
2.0657056e-26
8.6557546e-28
2.6518762e-29
5.2424627e-31
5.0029199e-33
4.6828962e-10
1.1283843e-11
2.0161961e-13
4.093015e-15
2.1715127e-16
2.8904926e-17
4.415433e-18
6.1853813e-19
7.8137065e-20
8.8821946e-21
9.0098316e-22
8.0521898e-23
6.2324947e-24
4.0794111e-25
2.1829714e-26
9.101266e-28
2.7519814e-29
5.3371619e-31
4.9764264e-33
1.0618592e-08
3.8877649e-10
9.8313072e-12
2.2474554e-13
5.8587839e-15
2.5229045e-16
2.8808751e-17
4.310551e-18
6.0515365e-19
7.7557557e-20
8.983629e-21
9.2796118e-22
8.4126979e-23
6.5633045e-24
4.2954469e-25
2.278933e-26
9.348895e-28
2.7657644e-29
5.2306006e-31
4.7481529e-33
1.6325779e-07
9.1650899e-09
3.4191749e-10
1.0895179e-11
3.37924e-13
9.1549718e-15
2.8006452e-16
2.8023947e-17
4.2105526e-18
6.0219888e-19
7.8886374e-20
9.3050179e-21
9.7243825e-22
8.8510717e-23
6.8760148e-24
4.4457313e-25
2.3144481e-26
9.2701253e-28
2.6698732e-29
4.912026e-31
4.3409851e-33
1.6724566e-06
1.4485612e-07
8.122474e-09
3.7207986e-10
1.5877866e-11
5.5331939e-13
1.1830755e-14
2.6205518e-16
2.6979315e-17
4.1957562e-18
6.1595388e-19
8.2175574e-20
9.7757176e-21
1.0211415e-21
9.2150868e-23
7.0471092e-24
4.4595483e-25
2.2630785e-26
8.8158121e-28
2.468936e-29
4.4254833e-31
3.8235835e-33
1.1504459e-05
1.5137982e-06
1.2845789e-07
8.6075652e-09
5.2112801e-10
2.5423338e-11
7.2496864e-13
1.0316867e-14
2.1077809e-16
2.6626666e-17
4.315517e-18
6.4557652e-19
8.6541963e-20
1.0237971e-20
1.0554802e-21
9.3438483e-23
6.9771093e-24
4.2983876e-25
2.1207158e-26
8.0357345e-28
2.1953768e-29
3.8589049e-31
3.2924323e-33
5.3209237e-05
1.0533233e-05
1.3454673e-06
1.3259539e-07
1.1531626e-08
8.0307281e-10
3.2917484e-11
6.1390613e-13
5.8304859e-15
1.7493435e-16
2.7431854e-17
4.5541974e-18
6.8182623e-19
9.0357752e-20
1.0497437e-20
1.0580634e-21
9.1267669e-23
6.6280956e-24
3.9706963e-25
1.9078346e-26
7.067743e-28
1.9010534e-29
3.3212117e-31
2.8476584e-33
0.00016702391
4.8963607e-05
9.3518073e-06
1.3523332e-06
1.6993102e-07
1.7020301e-08
1.020157e-09
2.7428216e-11
3.1505024e-13
2.6876385e-15
1.67935e-16
2.9171008e-17
4.8282415e-18
7.0976269e-19
9.1844822e-20
1.0396313e-20
1.0193085e-21
8.5467387e-23
6.039589e-24
3.5309167e-25
1.6643612e-26
6.1016772e-28
1.6438454e-29
2.9153967e-31
2.5702415e-33
0.00036474744
0.00015428357
4.3485464e-05
9.1612963e-06
1.6572716e-06
2.3980079e-07
2.1142447e-08
8.4164574e-10
1.3828652e-11
1.1669128e-13
1.699231e-15
1.7966876e-16
3.1122713e-17
5.0137204e-18
7.1482011e-19
8.9796243e-20
9.8750887e-21
9.4128944e-22
7.6898677e-23
5.318547e-24
3.0651546e-25
1.4391848e-26
5.3306845e-28
1.4735785e-29
2.7155832e-31
2.506116e-33
0.00060433232
0.0003381203
0.00013700987
4.1598598e-05
1.0748834e-05
2.2323819e-06
2.8981111e-07
1.7359586e-08
4.2759213e-10
5.2980651e-12
6.0809643e-14
1.95861e-15
1.9926787e-16
3.2305172e-17
5.0012728e-18
6.8927767e-19
8.4057514e-20
8.9963996e-21
8.3739869e-22
6.7214202e-23
4.6105752e-24
2.6686392e-25
1.2777625e-26
4.9049755e-28
1.4211551e-29
2.753084e-31
2.659361e-33
0.00083970886
0.00056270622
0.00030160905
0.00012849474
4.6753478e-05
1.3803388e-05
2.6201925e-06
2.3762002e-07
9.0446266e-09
1.7706986e-10
2.9745525e-12
8.5786122e-14
2.9548442e-15
2.1384887e-16
3.1901049e-17
4.750697e-18
6.3532963e-19
7.5567342e-20
7.9256719e-21
7.2847603e-22
5.8410869e-23
4.0621646e-24
2.4218822e-25
1.2114273e-26
4.8997331e-28
1.4930041e-29
3.0127119e-31
2.9939842e-33
0.0010511079
0.00078306208
0.00050471477
0.00028069549
0.00013899307
5.7154189e-05
1.5680217e-05
2.1536608e-06
1.286202e-07
4.0639157e-09
1.0934905e-10
4.4379276e-12
1.6522135e-13
3.9982909e-15
2.0838304e-16
2.9756479e-17
4.306019e-18
5.6360492e-19
6.602954e-20
6.8827824e-21
6.3722121e-22
5.2319813e-23
3.7845895e-24
2.3720102e-25
1.2508829e-26
5.3025509e-28
1.6710592e-29
3.4380698e-31
3.4424023e-33
0.0012337583
0.00098102951
0.00070632631
0.00046911038
0.00029557459
0.0001623162
6.2796741e-05
1.2955384e-05
1.220261e-06
6.2607187e-08
2.7394155e-09
1.634554e-10
8.8582849e-12
2.5049969e-13
3.8340154e-15
1.8233634e-16
2.6431465e-17
3.7676645e-18
4.8916125e-19
5.7419364e-20
6.0847556e-21
5.8253527e-22
5.0162845e-23
3.8284814e-24
2.5232527e-25
1.3847721e-26
6.0199587e-28
1.9173298e-29
3.9434746e-31
3.9184315e-33
0.0013968799
0.0011515006
0.00088721619
0.00065853646
0.00048607778
0.00033216543
0.0001724819
5.2324336e-05
7.721807e-06
6.4248981e-07
4.5781056e-08
4.0532851e-09
3.2393387e-10
1.3569699e-11
2.4014606e-13
2.415915e-15
1.5159571e-16
2.2773084e-17
3.2521621e-18
4.2727188e-19
5.1496632e-20
5.6937467e-21
5.7503522e-22
5.2276153e-23
4.1740237e-24
2.8375574e-25
1.5828659e-26
6.8990457e-28
2.1816315e-29
4.4301162e-31
4.3326709e-33
0.001538407
0.0013042965
0.0010437744
0.0008276719
0.00067530725
0.00053269547
0.00034397485
0.00014516557
3.2952319e-05
4.3952441e-06
5.0647654e-07
6.6829919e-08
7.8165481e-09
4.9279193e-10
1.3011816e-11
1.3017238e-13
1.2075382e-15
1.2603479e-16
1.9565967e-17
2.861781e-18
3.9004552e-19
4.9410842e-20
5.7794909e-21
6.1466889e-22
5.8051504e-23
4.7372378e-24
3.2435261e-25
1.8022149e-26
7.7575153e-28
2.411095e-29
4.8039775e-31
4.6080327e-33
0.0016539205
0.0014357674
0.0011858861
0.00097419577
0.00084039047
0.00072536396
0.0005423721
0.00029337156
9.6829636e-05
2.0269955e-05
3.7136853e-06
7.2916088e-07
1.2362659e-07
1.1702612e-08
4.7178713e-10
6.9939304e-12
4.0464875e-14
7.1084355e-16
1.0738039e-16
1.7391391e-17
2.6664199e-18
3.8401056e-19
5.1443255e-20
6.3034708e-21
6.9086137e-22
6.6091622e-23
5.3862808e-24
3.6499775e-25
1.9954446e-26
8.4164233e-28
2.559766e-29
4.9925227e-31
4.6927743e-33
0.001744386
0.0015436318
0.0013096258
0.001107332
0.00098045219
0.00088698855
0.00072705018
0.00046748268
0.00020657767
6.4339174e-05
1.8236186e-05
5.2740317e-06
1.2812693e-06
1.8068389e-07
1.1171308e-08
2.5599813e-10
2.0833156e-12
9.3803998e-15
5.4960112e-16
9.6573936e-17
1.6571799e-17
2.6927589e-18
4.0871854e-19
5.6937326e-20
7.1283113e-21
7.849147e-22
7.4464608e-23
5.9725661e-24
3.9672476e-25
2.1210806e-26
8.7374834e-28
2.5969239e-29
4.9569233e-31
4.5680378e-33
0.0018121214
0.0016284898
0.0014132745
0.0012245221
0.0011036783
0.0010193678
0.00087830178
0.00063198086
0.0003442049
0.00014714867
6.1131253e-05
2.5507314e-05
8.7493921e-06
1.814487e-06
1.7178536e-07
6.1680021e-09
7.8143134e-11
3.9519463e-13
3.3697136e-15
4.9446508e-16
9.4232672e-17
1.7145949e-17
2.9191173e-18
4.5673519e-19
6.4447696e-20
8.0487283e-21
8.7372514e-22
8.1198712e-23
6.361414e-24
4.1239305e-25
2.1510496e-26
8.6472516e-28
2.5123063e-29
4.6968687e-31
4.2488889e-33
0.0018589223
0.0016927113
0.0014971714
0.0013243698
0.0012111077
0.0011306097
0.0010001344
0.00077011989
0.00048347991
0.00025973763
0.0001455431
8.38822e-05
3.9811183e-05
1.191637e-05
1.716469e-06
9.7230485e-08
1.967916e-09
1.607362e-11
7.0365496e-14
2.4407918e-15
4.9333072e-16
9.9733005e-17
1.8862258e-17
3.2785138e-18
5.152819e-19
7.2082351e-20
8.8315658e-21
9.3559959e-22
8.466998e-23
6.4591401e-24
4.0806846e-25
2.0756174e-26
8.1471209e-28
2.3164336e-29
4.2473934e-31
3.7782013e-33
0.0018877458
0.0017382017
0.0015632387
0.0014069005
0.0013020834
0.0012249627
0.0011005762
0.00088295819
0.00060724851
0.00038165811
0.00026341264
0.00019482099
0.00012303778
5.1793061e-05
1.1201323e-05
1.0030546e-06
3.2971319e-08
4.5425999e-10
2.912274e-12
1.856222e-14
2.4025976e-15
5.331497e-16
1.1097692e-16
2.1209624e-17
3.6731669e-18
5.6924605e-19
7.7828153e-20
9.277227e-21
9.5463634e-22
8.3938623e-23
6.2306456e-24
3.8363511e-25
1.904018e-26
7.3064898e-28
2.0362062e-29
3.6684459e-31
3.2154812e-33
0.0019019927
0.0017678782
0.001612925
0.0014739179
0.0013766725
0.0013027786
0.0011839671
0.00098113006
0.00071179512
0.00049510744
0.0003912686
0.00034274162
0.0002689762
0.00015228607
4.8332223e-05
6.8016383e-06
3.6728711e-07
8.5490773e-09
9.2203037e-11
4.9870849e-13
1.1860076e-14
2.6394679e-15
5.9872481e-16
1.2455002e-16
2.3529022e-17
3.9981735e-18
6.0398385e-19
8.0136474e-20
9.2595073e-21
9.2397863e-22
7.8912347e-23
5.7025891e-24
3.4249994e-25
1.6607353e-26
6.2415916e-28
1.7081551e-29
3.030524e-31
2.6239716e-33
0.0019042862
0.0017856012
0.0016485345
0.0015261383
0.0014370482
0.0013644402
0.0012512685
0.0010628871
0.00081014918
0.00059438638
0.00050747908
0.00049326791
0.00044803787
0.00031742956
0.00014128028
3.066574e-05
2.7159366e-06
1.0608068e-07
1.9383709e-09
1.6743845e-11
1.1308182e-13
1.2380691e-14
2.9878545e-15
6.6917194e-16
1.3648692e-16
2.518292e-17
4.16453e-18
6.0919323e-19
7.8215632e-20
8.7503522e-21
8.4673638e-22
7.0297091e-23
4.9518233e-24
2.9051445e-25
1.3787514e-26
5.0867887e-28
1.3702447e-29
2.4006211e-31
2.0594532e-33
0.0018988323
0.0017953354
0.0016742644
0.0015650504
0.0014833017
0.0014119585
0.0013027802
0.0011302097
0.00089605986
0.00068619503
0.00060703836
0.00062058448
0.00061642292
0.0005072134
0.00029386745
9.4122804e-05
1.3429304e-05
8.6793115e-07
2.6647411e-08
3.9367219e-10
3.1070718e-12
7.184069e-14
1.4084126e-14
3.3213001e-15
7.2284584e-16
1.4337867e-16
2.5715303e-17
4.1126846e-18
5.8129822e-19
7.2168234e-20
7.8188942e-21
7.3439603e-22
5.9360143e-23
4.0833936e-24
2.3448009e-25
1.0919514e-26
3.9662923e-28
1.0550284e-29
1.8319358e-31
1.5631711e-33
0.001802118
0.0018970169
0.0016942813
0.0015937443
0.001516586
0.0014454791
0.0013401622
0.0011833277
0.00097022819
0.00076934674
0.00069151002
0.00072018409
0.00074816596
0.00067537959
0.00046924787
0.00020609454
4.5236778e-05
4.7243774e-06
2.4031772e-07
6.1145928e-09
8.8497593e-11
1.5787456e-12
8.5539861e-14
1.560085e-14
3.529054e-15
7.4369285e-16
1.4322994e-16
2.4854849e-17
3.8359516e-18
5.2366707e-19
6.2893242e-20
6.6062728e-21
6.0335038e-22
4.7590923e-23
3.2055032e-24
1.8070595e-25
8.288957e-27
2.9765024e-28
7.8564082e-30
1.3591333e-31
1.1596984e-33
0.0017095049
0.0018103713
0.0018975209
0.0016132896
0.0015387573
0.0014664954
0.00136432
0.0012239706
0.0010334604
0.0008427724
0.00076490131
0.0007988753
0.00084024914
0.0007984391
0.00062277069
0.00034539182
0.0001082326
1.7447221e-05
1.4431037e-06
6.3714587e-08
1.8807179e-09
6.8901225e-11
2.5734383e-12
1.0202559e-13
1.6223354e-14
3.5461586e-15
7.2522325e-16
1.3543908e-16
2.2656896e-17
3.3740556e-18
4.4518948e-19
5.1795924e-20
5.2857798e-21
4.7077565e-22
3.6371639e-23
2.4089849e-24
1.3400975e-25
6.0933914e-27
2.1781833e-28
5.7497873e-30
9.9900531e-32
8.5894337e-34
0.0016231626
0.0017211367
0.0018143092
0.001888387
0.0015504726
0.0014763513
0.0013771667
0.0012534999
0.0010866042
0.00090712752
0.00082886037
0.00085979193
0.00090589628
0.00087825115
0.00073537709
0.00047672626
0.00019653795
4.5695771e-05
5.944901e-06
4.6337417e-07
2.9169591e-08
2.210143e-09
1.3257891e-10
3.6812628e-12
9.748447e-14
1.5767826e-14
3.366225e-15
6.6993388e-16
1.2064507e-16
1.9460102e-17
2.7991364e-18
3.5760712e-19
4.0413621e-20
4.0221823e-21
3.5117873e-22
2.6751595e-23
1.7561656e-24
9.7344353e-26
4.4375472e-27
1.5986846e-28
4.2744577e-30
7.5482937e-32
6.6060257e-34
0.0015511008
0.0016243715
0.0017295491
0.0018074229
0.0018679977
0.0014760423
0.0013804877
0.0012738029
0.0011303853
0.00096322409
0.00088425511
0.00091033247
0.0009536695
0.00093070904
0.00081161104
0.0005814767
0.00029173062
9.081241e-05
1.7825082e-05
2.4797899e-06
3.2513692e-07
4.5191217e-08
4.4365233e-09
1.9416357e-10
3.1730552e-12
7.6765493e-14
1.4464264e-14
3.0291833e-15
5.8301541e-16
1.0119954e-16
1.5762518e-17
2.1952993e-18
2.7257492e-19
3.0084265e-20
2.9426631e-21
2.5450789e-22
1.9367774e-23
1.2800225e-24
7.1996491e-26
3.3545361e-27
1.2416314e-28
3.4204841e-30
6.2220081e-32
5.5921178e-34
0.0014662771
0.0015402385
0.0016266723
0.0017290421
0.0017880071
0.0018342978
0.0013762584
0.0012868896
0.0011656539
0.0010115689
0.00093239003
0.00095192951
0.00099031236
0.00096886734
0.0008661001
0.00066139617
0.00037929776
0.00014829185
4.1873273e-05
1.022653e-05
2.5348414e-06
5.8146023e-07
8.9810098e-08
6.4144722e-09
1.6853267e-10
1.5114559e-12
5.991024e-14
1.2620421e-14
2.573332e-15
4.7768517e-16
8.0092318e-17
1.2088463e-17
1.6390756e-18
1.9941509e-19
2.1751693e-20
2.1256937e-21
1.8601875e-22
1.4496977e-23
9.9106888e-25
5.8134646e-26
2.8358565e-27
1.0988131e-28
3.1559966e-30
5.9438189e-32
5.4834929e-34
0.0013679935
0.0014485892
0.001529241
0.0016248027
0.00171624
0.0017546255
0.0017834219
0.001294396
0.0011943459
0.0010528311
0.00097374195
0.00098663565
0.0010171439
0.00099467142
0.00090603551
0.000733564
0.00045500137
0.00021184458
8.1968154e-05
3.2715167e-05
1.3559774e-05
4.7475093e-06
1.1124642e-06
1.2678515e-07
5.6308989e-09
7.8940168e-11
4.6750871e-13
4.9037132e-14
1.0443049e-14
2.0596878e-15
3.6978081e-16
6.0201612e-17
8.8779108e-18
1.186832e-18
1.4412506e-19
1.5936171e-20
1.6066704e-21
1.474524e-22
1.2185548e-23
8.8764425e-25
5.5438472e-26
2.8594614e-27
1.1602436e-28
3.4513009e-30
6.6592001e-32
6.2322242e-34
0.001300124
0.0013560755
0.0014276055
0.0015124728
0.0016141375
0.001689163
0.0017040519
0.0017124917
0.0012166499
0.0010880895
0.0010090057
0.0010147357
0.0010371444
0.0010099979
0.0009328421
0.00079054255
0.00054324028
0.0002758101
0.0001370141
8.023623e-05
4.9558666e-05
2.5015449e-05
8.5824166e-06
1.5222722e-06
1.1207832e-07
2.7882058e-09
1.8890209e-11
2.0143391e-13
3.9274465e-14
8.1633868e-15
1.5617711e-15
2.7333269e-16
4.3760794e-17
6.4294532e-18
8.7157794e-19
1.0963804e-19
1.2834243e-20
1.3936549e-21
1.3875545e-22
1.2392052e-23
9.653858e-25
6.3596535e-26
3.4096889e-27
1.4200285e-28
4.2907273e-30
8.3410452e-32
7.8147391e-34
0.0012370648
0.0012991647
0.0013369707
0.0013989278
0.0014902271
0.0015912487
0.0016452976
0.0016338563
0.0016201182
0.0011174446
0.0010386917
0.0010370442
0.0010500213
0.0010172009
0.00094809596
0.00083372566
0.00061990455
0.00035369107
0.00020082227
0.00015223628
0.00012628567
8.6973159e-05
4.2135764e-05
1.130653e-05
1.3514534e-06
5.8631714e-08
7.4389067e-10
2.8453619e-12
1.3982904e-13
2.9939598e-14
6.0749263e-15
1.1407165e-15
1.9842306e-16
3.2167702e-17
4.9024144e-18
7.0766497e-19
9.6884778e-20
1.247514e-20
1.4847794e-21
1.595929e-22
1.5091347e-23
1.2229781e-24
8.2548834e-26
4.4841511e-27
1.8774106e-28
5.6721422e-30
1.0984429e-31
1.0224819e-33
0.0011422832
0.0012492037
0.0012886349
0.0013096109
0.0013647404
0.0014600259
0.0015535575
0.0015823873
0.0015433168
0.0015042744
0.0010624864
0.0010540103
0.0010571575
0.0010170915
0.00095410303
0.00086497078
0.00068568981
0.00043111897
0.00026610405
0.00023624482
0.00023651485
0.00020709112
0.00013505576
5.3083296e-05
1.0066214e-05
7.4603008e-07
1.7640687e-08
1.1669043e-10
6.7886649e-13
1.0251931e-13
2.1915375e-14
4.4137288e-15
8.3717712e-16
1.5088259e-16
2.6107792e-17
4.3600451e-18
6.9930232e-19
1.0602429e-19
1.485914e-20
1.8804174e-21
2.1015959e-22
2.0312894e-23
1.6630604e-24
1.1243306e-25
6.0881816e-27
2.5337028e-28
7.5968389e-30
1.4587159e-31
1.3456542e-33
0.0010806853
0.0011616114
0.0012522034
0.0012697541
0.0012749167
0.0013235673
0.0014194737
0.0014988062
0.0014996125
0.0014304247
0.0013645962
0.0010653897
0.0010586127
0.0010111511
0.00095287145
0.0008862357
0.00074113806
0.00050432407
0.00033317222
0.00030923428
0.00035394202
0.00036125516
0.0002954308
0.00016199613
4.7376037e-05
5.8754223e-06
2.5182058e-07
3.3280334e-09
1.5925969e-11
3.4779687e-13
7.3898082e-14
1.5978481e-14
3.3262819e-15
6.7297308e-16
1.3339751e-16
2.5848707e-17
4.8243691e-18
8.4835749e-19
1.3730021e-19
2.0026919e-20
2.5865181e-21
2.9112182e-22
2.8110671e-23
2.2880864e-24
1.5331996e-25
8.2203958e-27
3.3866012e-28
1.0054039e-29
1.9123391e-31
1.748298e-33
0.0010709351
0.0010931447
0.0011747157
0.0012471516
0.0012431712
0.001233053
0.0012746201
0.0013652667
0.0014255326
0.0013948397
0.0012951894
0.0012047347
0.0010543738
0.00099986703
0.00094631
0.00089981605
0.00078669614
0.00057188753
0.00039843446
0.00037439055
0.00045016007
0.00050617718
0.00047645962
0.00033787346
0.00014539757
2.9360516e-05
2.2244318e-06
5.6661845e-08
5.2086492e-10
2.5403246e-12
2.3616107e-13
5.4640889e-14
1.2590075e-14
2.8862603e-15
6.5796018e-16
1.4713255e-16
3.15293e-17
6.3154553e-18
1.1581716e-18
1.9122625e-19
2.8042209e-20
3.6089562e-21
4.0280551e-22
3.8482077e-23
3.0946147e-24
2.0482597e-25
1.0854435e-26
4.4237334e-28
1.3004683e-29
2.4517674e-31
2.2236286e-33
0.001043962
0.0010695202
0.0010999545
0.0011816012
0.0012343961
0.0012093118
0.001182595
0.0012155245
0.0012951783
0.0013314418
0.0012678737
0.0011410551
0.0010285939
0.00098366408
0.00093614002
0.00090820082
0.00082341663
0.00063326538
0.00046023313
0.00043385452
0.00051835042
0.00061633922
0.00062465599
0.0005232816
0.00030721075
9.6295862e-05
1.2506049e-05
5.9114844e-07
1.0577299e-08
7.0605443e-11
8.4672349e-13
1.7827895e-13
4.5834276e-14
1.1973472e-14
3.1283692e-15
7.9741762e-16
1.9296129e-16
4.3304902e-17
8.8591174e-18
1.6321564e-18
2.6808333e-19
3.8900637e-20
4.9414794e-21
5.4394488e-22
5.1263627e-23
4.0659278e-24
2.6572696e-25
1.3922461e-26
5.6172859e-28
1.6368882e-29
3.0626075e-31
1.8302283e-35
0.0009625949
0.0010261956
0.00106073
0.0011034219
0.0011820313
0.0012140874
0.0011672469
0.0011227793
0.0011437719
0.0012068397
0.0012161604
0.0011212774
0.00096990406
0.00082518457
0.0009229087
0.00091303276
0.00085355016
0.00068808576
0.00051820658
0.00048723357
0.00057613779
0.00068300712
0.00072576911
0.00066207319
0.00048386796
0.0002189134
4.6267575e-05
3.9012578e-06
1.3000767e-07
1.668235e-09
9.5383838e-12
5.6919788e-13
1.6147505e-13
4.8049919e-14
1.4246602e-14
4.0759885e-15
1.0960065e-15
2.7172511e-16
6.1290001e-17
1.2461196e-17
2.2679433e-18
3.6694267e-19
5.2399822e-20
6.551578e-21
7.1041462e-22
6.6016354e-23
5.1665098e-24
3.3369516e-25
1.7305337e-26
6.9212697e-28
2.0020485e-29
2.7996209e-33
6.869685e-38
0.00090696977
0.0009365098
0.0010016745
0.0010494341
0.0011036925
0.0011751805
0.0011857911
0.0011162445
0.0010527637
0.0010573261
0.0010998301
0.0010806099
0.00095481947
0.00077259889
0.00060042532
0.000915869
0.00087870889
0.00073705038
0.00057231163
0.00053566833
0.00062353391
0.00073739795
0.00078762899
0.00074733653
0.00061905873
0.00037173659
0.00011861471
1.6832995e-05
9.9949363e-07
2.3995993e-08
2.2621802e-10
2.3934557e-12
5.5211641e-13
1.8574479e-13
6.1659207e-14
1.9501419e-14
5.7480706e-15
1.5564049e-15
3.8340996e-16
8.5324308e-17
1.7059059e-17
3.0493762e-18
4.8458194e-19
6.8018011e-20
8.3693043e-21
8.9442131e-22
8.2002109e-23
6.3400737e-24
4.0525137e-25
2.0833055e-26
8.2724231e-28
2.0387826e-31
1.1842116e-35
1.0569825e-40
0.00091582024
0.00088716606
0.00090590432
0.00097415782
0.0010347002
0.0010982139
0.0011603538
0.0011484121
0.0010561728
0.00097070824
0.00095543705
0.0009737008
0.00092412169
0.00076058946
0.00055358803
0.00037373993
0.00090296321
0.00078054604
0.00062271235
0.00057998488
0.00066371324
0.000778554
0.00083367405
0.00080172642
0.00069968687
0.00050790839
0.00022657543
4.9835496e-05
4.9771709e-06
2.1322917e-07
3.7482372e-09
2.9752816e-11
1.8768224e-12
6.8758535e-13
2.5199098e-13
8.6946769e-14
2.7783363e-14
8.1416027e-15
2.1731229e-15
5.2557486e-16
1.146561e-16
2.2469474e-17
3.9394843e-18
6.147195e-19
8.4849502e-20
1.0283608e-20
1.0844503e-21
9.8198306e-23
7.5122679e-24
4.7598047e-25
2.4296842e-26
9.403531e-30
9.7677375e-34
2.05412e-38
6.2926053e-44
0.00092370146
0.00091116605
0.00086331608
0.00087125942
0.0009426123
0.0010148203
0.0010852972
0.0011361794
0.0011021922
0.00098487969
0.00087589265
0.00083852739
0.0008312638
0.00073935796
0.00054263448
0.00033589301
0.00018168324
0.0008204966
0.00066952526
0.00062066209
0.00069788891
0.00081128421
0.00086566807
0.00083721273
0.00075329591
0.00060828829
0.00034503478
0.00010805626
1.6851575e-05
1.2142311e-06
3.8253254e-08
5.0650936e-10
8.150203e-12
2.4276104e-12
9.6864752e-13
3.6068546e-13
1.2383512e-13
3.8976737e-14
1.1196641e-14
2.9240353e-15
6.9168395e-16
1.4767569e-16
2.8355227e-17
4.8775851e-18
7.4793845e-19
1.0163309e-19
1.2149014e-20
1.2658581e-21
1.1339141e-22
8.5981668e-24
5.4099539e-25
3.0867286e-28
5.1165125e-32
1.9329781e-36
1.3309477e-41
1.7365664e-47
0.00085655449
0.00093820897
0.00090148918
0.0008353413
0.00083225832
0.00090538579
0.00098804057
0.0010632381
0.001102272
0.0010448731
0.00090163936
0.00076863439
0.00071026942
0.00066344724
0.00052981339
0.00032463751
0.00015739961
6.3432273e-05
0.00071266436
0.00065780709
0.00072654499
0.00083638823
0.00088800414
0.00085688579
0.00078431356
0.00067674388
0.00046858199
0.00018435861
4.1257975e-05
4.6612114e-06
2.4757589e-07
5.8382256e-09
7.2814121e-11
8.3086056e-12
3.4989362e-12
1.3932158e-12
5.1012357e-13
1.7131719e-13
5.2644122e-14
1.4758992e-14
3.7633992e-15
8.7012008e-16
1.8183245e-16
3.4229563e-17
5.7827248e-18
8.7249774e-19
1.1688497e-19
1.3803121e-20
1.423044e-21
1.2633356e-22
9.5132256e-24
7.68679e-27
1.91028e-30
1.1626885e-34
1.4002897e-39
3.6908762e-45
2.9981665e-51
0.00075203493
0.00088760798
0.00094593758
0.00088724241
0.00080278708
0.00078817114
0.00086118052
0.00095251227
0.0010307956
0.0010569096
0.00097535409
0.00080463729
0.00065008588
0.00056168304
0.00047366748
0.0003167876
0.00014889573
5.2683603e-05
1.540147e-05
0.00069116208
0.00074986357
0.000853765
0.00090115419
0.00086428222
0.00079637913
0.00071734256
0.00056461437
0.00029304584
7.8583583e-05
1.2815439e-05
1.0702037e-06
4.2713507e-08
8.0173542e-10
3.1149708e-11
1.1935896e-11
5.0300536e-12
1.9488874e-12
6.9410072e-13
2.2684548e-13
6.789408e-14
1.8558978e-14
4.6201901e-15
1.0445324e-15
2.1382551e-16
3.9507352e-17
6.5638339e-18
9.7595967e-19
1.2911544e-19
1.50905e-20
1.5418075e-21
1.3592562e-22
1.512245e-25
5.4149488e-29
5.0036749e-33
9.569898e-38
4.0803323e-43
5.8911946e-49
3.9630324e-55
0.00072090998
0.00078764449
0.00091229687
0.00094779744
0.00086808384
0.00076559565
0.00073828778
0.00080869696
0.00090691672
0.00098635532
0.00099877703
0.00089034184
0.00069182358
0.00051295036
0.00039546794
0.00028129249
0.00014498379
4.8382323e-05
1.2150457e-05
2.5955574e-06
0.0007675693
0.00086279774
0.00090479438
0.00086019874
0.00079290244
0.00073569279
0.00063465929
0.00040177536
0.00014768082
2.7047975e-05
3.2827467e-06
2.0714481e-07
6.4453456e-09
1.6521325e-10
3.9209573e-11
1.7153489e-11
6.962962e-12
2.6046345e-12
9.0001806e-13
2.8598872e-13
8.3353961e-14
2.2221701e-14
5.4042411e-15
1.1957929e-15
2.4007332e-16
4.3596708e-17
7.1347187e-18
1.0472805e-18
1.3707897e-19
1.5884983e-20
1.6115421e-21
2.4170303e-24
1.212845e-27
1.6387281e-31
4.7274876e-36
3.0177349e-41
6.3461827e-47
6.849744e-53
4.375052e-59
0.00078002491
0.00074726681
0.00081967329
0.00093074128
0.00094389804
0.00084406756
0.00072313828
0.00068196124
0.00074754459
0.00085016624
0.00092918054
0.00092606652
0.00078504793
0.00055604466
0.00035993781
0.00023129097
0.00012753132
4.676021e-05
1.0742139e-05
1.9254409e-06
3.0200563e-07
0.00086293393
0.00089756669
0.00084504638
0.00077630066
0.00073686922
0.00067941918
0.00050229542
0.00023216914
6.0786095e-05
7.6269442e-06
7.0976492e-07
3.589168e-08
1.2192262e-09
1.4354749e-10
5.661115e-11
2.3674036e-11
9.1940109e-12
3.3075887e-12
1.1085136e-12
3.4261818e-13
9.7294826e-14
2.5315411e-14
6.0201662e-15
1.3052793e-15
2.5736525e-16
4.6009494e-17
7.4301331e-18
1.0788182e-18
1.3999834e-19
1.6114476e-20
3.2038165e-23
2.2063835e-26
4.2465291e-30
1.7897262e-34
1.6443961e-39
4.773512e-45
6.6978686e-51
6.6967138e-57
4.1052141e-63
0.00085430495
0.00078718422
0.00077104839
0.00084784011
0.0009431098
0.00093422916
0.00081417557
0.00067484499
0.00061900544
0.00067728575
0.00078108622
0.00085731838
0.00083147252
0.00064881025
0.0003987399
0.00021065186
0.00010297851
4.0649882e-05
1.0255675e-05
1.6125731e-06
2.089498e-07
2.4249895e-08
0.00087901689
0.00081917638
0.00074886822
0.00072454375
0.00070480943
0.0005855086
0.00032737174
0.00010989134
2.0674348e-05
1.8576886e-06
1.5613919e-07
1.1296064e-08
1.2143823e-09
2.3873723e-10
8.036317e-11
3.105882e-11
1.1465509e-11
3.9771448e-12
1.2953224e-12
3.8971401e-13
1.0791145e-13
2.7430195e-14
6.3860148e-15
1.358648e-15
2.6351816e-16
4.6459878e-17
7.4184394e-18
1.0677233e-18
1.3769161e-19
3.578118e-22
3.3262593e-25
8.9436676e-29
5.3890854e-33
6.9625977e-38
2.7201943e-43
4.8071875e-49
5.7091609e-55
5.8042983e-61
3.6969318e-67
0.00084904009
0.00083737854
0.00079139601
0.00079298478
0.00087140434
0.00094905217
0.00091801872
0.00077765128
0.000620168
0.00054931771
0.00059764569
0.00069803919
0.00076805744
0.00070321521
0.00048123084
0.00023988955
9.4533203e-05
3.2300264e-05
8.7649767e-06
1.5024148e-06
1.6344019e-07
1.5553741e-08
1.3412409e-09
0.00078359281
0.00071297876
0.00070239293
0.00071580484
0.00064994727
0.0004260493
0.00017432936
4.3198457e-05
6.180843e-06
6.404247e-07
1.1717658e-07
2.1915899e-08
3.2925478e-09
4.7838984e-10
1.0947735e-10
3.8038437e-11
1.343221e-11
4.5280735e-12
1.435271e-12
4.2068792e-13
1.1369558e-13
2.8266351e-14
6.451289e-15
1.3489714e-15
2.5784009e-16
4.4921295e-17
7.107355e-18
1.0163465e-18
3.4098213e-21
4.2200098e-24
1.5610769e-27
1.3241051e-31
2.371195e-36
1.2259319e-41
2.7251113e-47
3.6723872e-53
4.3692812e-59
5.0364378e-65
3.3351787e-71
0.00073935845
0.00080913891
0.00081583545
0.00079424622
0.00081209307
0.00088931707
0.00094810918
0.00089421146
0.00073379732
0.00055852329
0.00047342348
0.00050943448
0.00060970298
0.00064988904
0.00053594028
0.00030182528
0.00011181663
3.0197684e-05
6.8646315e-06
1.2605487e-06
1.4656467e-07
1.1211332e-08
7.9890871e-10
5.1999905e-11
0.00067083187
0.00067370879
0.00071690105
0.00069994389
0.00052199652
0.00025271403
7.7534953e-05
1.5316788e-05
2.8133128e-06
9.78286e-07
3.069217e-07
6.6907754e-08
9.8347257e-09
9.1042811e-10
1.3510818e-10
4.3306163e-11
1.4813412e-11
4.8857364e-12
1.507504e-12
4.3087449e-13
1.1378397e-13
2.7704574e-14
6.2085427e-15
1.2782397e-15
2.4125569e-16
4.1625904e-17
6.5411633e-18
2.8016554e-20
4.5609215e-23
2.2919125e-26
2.704343e-30
6.6542595e-35
4.4995904e-40
1.2548708e-45
1.9574766e-51
2.4364883e-57
3.5057685e-63
4.4931668e-69
2.9696107e-75
0.0006244592
0.00068794149
0.00076426713
0.00079257041
0.00079529527
0.0008269684
0.00090015137
0.00093880927
0.00086251344
0.00068104286
0.00048984798
0.00039351765
0.00042480463
0.00050126899
0.00049741765
0.00034827336
0.00014832993
3.750981e-05
6.5945222e-06
9.7685437e-07
1.2008084e-07
9.54072e-09
5.2929386e-10
2.886743e-11
1.4286365e-12
0.00064130749
0.00071209613
0.00073928054
0.00061210802
0.00034260115
0.000125341
3.2142484e-05
8.890434e-06
4.9538383e-06
2.6388658e-06
8.766206e-07
1.9298569e-07
2.1680196e-08
1.2724791e-09
1.4589637e-10
4.6085858e-11
1.546347e-11
4.9914718e-12
1.5005819e-12
4.1868136e-13
1.0817193e-13
2.5834179e-14
5.6947095e-15
1.1567459e-15
2.1606467e-16
3.7007755e-17
2.0023353e-19
4.2411813e-22
2.8634251e-25
4.6556992e-29
1.5660295e-33
1.375039e-38
4.7817828e-44
8.8317009e-50
1.1534564e-55
1.7276858e-61
3.0162515e-67
4.0067052e-73
2.5926093e-79
0.00060716942
0.00057476182
0.00063228539
0.00071643972
0.00076747921
0.00079260522
0.00083555221
0.00090207584
0.00092067077
0.00082013735
0.00061897578
0.0004117777
0.00030985082
0.00032847918
0.00037166525
0.00032504505
0.00017937635
5.2843019e-05
8.6717539e-06
9.6953673e-07
9.2284803e-08
7.623243e-09
4.2218956e-10
1.7573397e-11
7.5404681e-13
2.9636554e-14
0.00070462062
0.00077164663
0.00069417948
0.00044060732
0.00018716747
5.9641593e-05
2.298555e-05
1.6611193e-05