/*--------------------------------*- C++ -*----------------------------------*\
| =========                 |                                                 |
| \\      /  F ield         | OpenFOAM: The Open Source CFD Toolbox           |
|  \\    /   O peration     | Version:  5.0                                   |
|   \\  /    A nd           | Web:      www.OpenFOAM.org                      |
|    \\/     M anipulation  |                                                 |
\*---------------------------------------------------------------------------*/
FoamFile
{
    version     2.0;
    format      ascii;
    class       volScalarField;
    location    "120";
    object      nuTilda;
}
// * * * * * * * * * * * * * * * * * * * * * * * * * * * * * * * * * * * * * //

dimensions      [0 2 -1 0 0 0 0];

internalField   nonuniform List<scalar> 
9520
(
5.8281974e-33
6.1286303e-31
5.429882e-33
3.1631406e-29
5.7167221e-31
5.0990706e-33
1.0630818e-27
2.9537166e-29
5.3786214e-31
4.8422312e-33
2.6165024e-26
9.9383664e-28
2.7838064e-29
5.1201431e-31
4.6547217e-33
5.0321207e-25
2.4491786e-26
9.3832683e-28
2.6557361e-29
4.9344982e-31
4.5236697e-33
7.8808537e-24
4.7170451e-25
2.3167416e-26
8.9707027e-28
2.5648959e-29
4.8055084e-31
4.427598e-33
1.0340454e-22
7.3993749e-24
4.4711116e-25
2.21972e-26
8.6810272e-28
2.5016463e-29
4.7079645e-31
4.3432938e-33
1.1605523e-21
9.7265953e-23
7.0294019e-24
4.2936771e-25
2.1521763e-26
8.4776107e-28
2.4518563e-29
4.6168911e-31
4.2518263e-33
1.1320616e-20
1.0939865e-21
9.2632423e-23
6.7668845e-24
4.1711318e-25
2.104081e-26
8.3098289e-28
2.4027599e-29
4.5151985e-31
4.148565e-33
9.7199006e-20
1.0696703e-20
1.0446152e-21
8.9399583e-23
6.58703e-24
4.0822056e-25
2.0623761e-26
8.1365616e-28
2.3473472e-29
4.4041542e-31
4.0491137e-33
7.4233771e-19
9.2074253e-20
1.0241165e-20
1.0107283e-21
8.7204914e-23
6.4534339e-24
4.0010312e-25
2.017717e-26
7.9416162e-28
2.2895127e-29
4.3070721e-31
3.9877783e-33
5.0930357e-18
7.0493799e-19
8.8380628e-20
9.9334966e-21
9.8802265e-22
8.5532742e-23
6.3251508e-24
3.911692e-25
1.9682268e-26
7.7491904e-28
2.2444458e-29
4.2640527e-31
4.0047858e-33
3.2233238e-17
4.846445e-18
6.7826544e-19
8.5931242e-20
9.7318606e-21
9.7032456e-22
8.3847302e-23
6.180984e-24
3.8151173e-25
1.9225805e-26
7.619438e-28
2.2340589e-29
4.3152699e-31
4.1263212e-33
2.4429198e-16
3.0544198e-17
4.6727952e-18
6.6102944e-19
8.4391364e-20
9.5728031e-21
9.5160393e-22
8.1917742e-23
6.03015e-24
3.733108e-25
1.8973812e-26
7.6270941e-28
2.2769545e-29
4.4790745e-31
4.3460897e-33
5.9570143e-15
2.1489957e-16
2.9425074e-17
4.5651899e-18
6.5100516e-19
8.3184182e-20
9.3946236e-21
9.2968418e-22
7.9975062e-23
5.9146023e-24
3.7001605e-25
1.9105075e-26
7.8241262e-28
2.3771487e-29
4.7350023e-31
4.6180804e-33
3.113004e-13
4.4864297e-15
2.0031769e-16
2.8829976e-17
4.5117854e-18
6.4345561e-19
8.171816e-20
9.1789011e-21
9.0852041e-22
7.8673442e-23
5.8910505e-24
3.7481808e-25
1.9713391e-26
8.2037317e-28
2.5169339e-29
5.0212338e-31
4.8654624e-33
1.4139309e-11
2.3590527e-13
3.8437672e-15
1.997972e-16
2.8752101e-17
4.4770308e-18
6.3303999e-19
7.9845509e-20
8.9791627e-21
8.9670385e-22
7.8776257e-23
6.0033214e-24
3.8872482e-25
2.0727871e-26
8.6832128e-28
2.6583679e-29
5.2495799e-31
5.002971e-33
4.6612443e-10
1.1249078e-11
2.0247698e-13
4.1556507e-15
2.1875863e-16
2.8927291e-17
4.414625e-18
6.1843883e-19
7.8167495e-20
8.8930339e-21
9.028721e-22
8.0749853e-23
6.2528233e-24
4.0927626e-25
2.1891128e-26
9.1186187e-28
2.7537661e-29
5.3327283e-31
4.9643123e-33
1.0579708e-08
3.8762619e-10
9.870247e-12
2.2874904e-13
5.9957982e-15
2.5456207e-16
2.8818917e-17
4.3098574e-18
6.0545576e-19
7.7671388e-20
9.0049717e-21
9.3075889e-22
8.4401337e-23
6.5833435e-24
4.3057108e-25
2.281936e-26
9.3482348e-28
2.7611811e-29
5.2132236e-31
4.7244881e-33
1.6278875e-07
9.1390184e-09
3.43016e-10
1.1070634e-11
3.4637392e-13
9.3475556e-15
2.8167013e-16
2.8019948e-17
4.2129178e-18
6.0322063e-19
7.9095228e-20
9.3345727e-21
9.7556837e-22
8.875717e-23
6.889202e-24
4.4488127e-25
2.3125992e-26
9.2473832e-28
2.6587794e-29
4.8835744e-31
4.3093899e-33
1.6685386e-06
1.444403e-07
8.1401168e-09
3.7729536e-10
1.6233846e-11
5.6508226e-13
1.1954335e-14
2.6188824e-16
2.6990142e-17
4.2037763e-18
6.17755e-19
8.2449338e-20
9.8065071e-21
1.0236739e-21
9.2281349e-23
7.0474459e-24
4.4527345e-25
2.2558003e-26
8.7724942e-28
2.4529062e-29
4.390843e-31
3.7899145e-33
1.1481736e-05
1.5094545e-06
1.286086e-07
8.7090319e-09
5.3129917e-10
2.5920075e-11
7.3148053e-13
1.0273305e-14
2.1007047e-16
2.668042e-17
4.329433e-18
6.4784027e-19
8.6808028e-20
1.0260016e-20
1.0564255e-21
9.3382231e-23
6.961441e-24
4.2814582e-25
2.1088687e-26
7.9790091e-28
2.1774018e-29
3.8248776e-31
3.2634214e-33
5.3114065e-05
1.050268e-05
1.3457143e-06
1.3387322e-07
1.1729483e-08
8.1718919e-10
3.3150447e-11
6.093649e-13
5.7416802e-15
1.7492873e-16
2.753049e-17
4.5711825e-18
6.838859e-19
9.0522136e-20
1.0501252e-20
1.0567439e-21
9.0999612e-23
6.5975411e-24
3.9462276e-25
1.8935892e-26
7.0088857e-28
1.8848411e-29
3.2949142e-31
2.8293855e-33
0.00016674967
4.8822429e-05
9.3452115e-06
1.3625218e-06
1.7244124e-07
1.7285213e-08
1.0256122e-09
2.7167286e-11
3.0844047e-13
2.655043e-15
1.6869959e-16
2.9292027e-17
4.8428292e-18
7.1082382e-19
9.1828554e-20
1.0376701e-20
1.0156465e-21
8.5021759e-23
5.9995517e-24
3.5037521e-25
1.6506969e-26
6.053374e-28
1.6329412e-29
2.9026355e-31
2.5668318e-33
0.00036416649
0.00015384185
4.3421125e-05
9.2123325e-06
1.6778395e-06
2.4303098e-07
2.1223048e-08
8.3245919e-10
1.3511883e-11
1.14429e-13
1.7198118e-15
1.8102658e-16
3.1225529e-17
5.0197642e-18
7.1430138e-19
8.9569362e-20
9.8334828e-21
9.3588828e-22
7.6362764e-23
5.2774561e-24
3.0412424e-25
1.4291661e-26
5.3039925e-28
1.4705475e-29
2.7195962e-31
2.5189045e-33
0.00060340596
0.00033717038
0.00013672459
4.1754389e-05
1.085756e-05
2.2576898e-06
2.9050349e-07
1.7156461e-08
4.1757282e-10
5.2041686e-12
6.2246035e-14
2.0305013e-15
2.0098626e-16
3.2343594e-17
4.9948914e-18
6.8708526e-19
8.3653366e-20
8.9408144e-21
8.3139891e-22
6.6706691e-23
4.577814e-24
2.6535701e-25
1.2737985e-26
4.906735e-28
1.4270113e-29
2.7738572e-31
2.68661e-33
0.00083842861
0.00056118086
0.00030089425
0.00012877584
4.7121679e-05
1.3929054e-05
2.6231036e-06
2.347616e-07
8.8450817e-09
1.7432201e-10
3.0455579e-12
9.0987768e-14
3.0835341e-15
2.1525541e-16
3.1846994e-17
4.7323503e-18
6.3190229e-19
7.5073025e-20
7.8685442e-21
7.2326272e-22
5.8052265e-23
4.0457422e-24
2.4195173e-25
1.2146972e-26
4.9309741e-28
1.506972e-29
3.0469185e-31
3.0311399e-33
0.0010495281
0.00078101478
0.00050346723
0.00028101568
0.0001398072
5.7548033e-05
1.567947e-05
2.1278505e-06
1.2596624e-07
4.0095612e-09
1.119518e-10
4.7044167e-12
1.7476005e-13
4.1372063e-15
2.0859474e-16
2.9620738e-17
4.2802012e-18
5.5975019e-19
6.5560725e-20
6.8377426e-21
6.3407759e-22
5.2202288e-23
3.7891363e-24
2.3835247e-25
1.261041e-26
5.3581255e-28
1.6906772e-29
3.4795944e-31
3.4828236e-33
0.0012319309
0.00097854734
0.00070463198
0.00046936284
0.00029683307
0.00016310221
6.2730524e-05
1.2804411e-05
1.1969168e-06
6.1900258e-08
2.8017617e-09
1.7252292e-10
9.3418103e-12
2.6068783e-13
3.8955581e-15
1.8145681e-16
2.6255744e-17
3.7409414e-18
4.8581095e-19
5.7090547e-20
6.0632536e-21
5.8231958e-22
5.0326451e-23
3.854022e-24
2.5467756e-25
1.3999693e-26
6.0893914e-28
1.9388641e-29
3.9844313e-31
3.9544938e-33
0.0013948679
0.0011486745
0.00088512485
0.00065869731
0.0004876502
0.00033324285
0.0001721537
5.174624e-05
7.5865337e-06
6.3651269e-07
4.676194e-08
4.2552498e-09
3.4008403e-10
1.406562e-11
2.4421979e-13
2.4056307e-15
1.5043182e-16
2.2606105e-17
3.2311174e-18
4.2525255e-19
5.1393649e-20
5.7021575e-21
5.7794891e-22
5.269669e-23
4.2157635e-24
2.8684536e-25
1.6000676e-26
6.9684148e-28
2.2007334e-29
4.4622306e-31
4.3570926e-33
0.0015362106
0.0013012787
0.0010413859
0.00082768812
0.00067702293
0.00053390076
0.00034315599
0.00014367956
3.2432292e-05
4.3626493e-06
5.1660891e-07
6.9755746e-08
8.1674673e-09
5.0851067e-10
1.317496e-11
1.2905738e-13
1.1897202e-15
1.2505985e-16
1.9448791e-17
2.8515526e-18
3.8989278e-19
4.9569164e-20
5.8172484e-21
6.2016919e-22
5.8642831e-23
4.7863852e-24
3.2752301e-25
1.8177279e-26
7.8118318e-28
2.423615e-29
4.820107e-31
4.6151981e-33
0.0016515692
0.0014326017
0.0011833046
0.00097404997
0.00084208926
0.00072648068
0.00054096215
0.00029065312
9.5480185e-05
2.015524e-05
3.7825779e-06
7.5669129e-07
1.2854585e-07
1.2023003e-08
4.7570421e-10
6.9011225e-12
3.9269178e-14
7.0260355e-16
1.0679341e-16
1.7351147e-17
2.6696961e-18
3.8583427e-19
5.1835752e-20
6.3627297e-21
6.9774384e-22
6.6722238e-23
5.4317111e-24
3.6752197e-25
2.005649e-26
8.4425823e-28
2.5624951e-29
4.9880089e-31
4.6797582e-33
0.0017419032
0.0015403937
0.0013069451
0.0011069852
0.00098201358
0.00088787428
0.00072504711
0.00046355471
0.00020406396
6.4076672e-05
1.8545896e-05
5.4432025e-06
1.3255682e-06
1.8483837e-07
1.1222447e-08
2.516511e-10
2.0091218e-12
9.0536817e-15
5.4652651e-16
9.647811e-17
1.6618182e-17
2.7091175e-18
4.1214194e-19
5.7476087e-20
7.1953367e-21
7.9156299e-22
7.4981904e-23
6.0030539e-24
3.9795728e-25
2.1231735e-26
8.7269941e-28
2.5882627e-29
4.9304454e-31
4.5350667e-33
0.001809528
0.0016252393
0.0014105935
0.0012240077
0.0011049958
0.0010200163
0.00087588147
0.00062717853
0.00034056347
0.00014672552
6.206154e-05
2.6196578e-05
9.0053189e-06
1.8484654e-06
1.7201615e-07
6.0461424e-09
7.5128028e-11
3.7740419e-13
3.317203e-15
4.9457131e-16
9.4637323e-17
1.7268915e-17
2.9448319e-18
4.6094532e-19
6.5001294e-20
8.1068973e-21
8.7841761e-22
8.1463002e-23
6.3680813e-24
4.1190617e-25
2.1436254e-26
8.5978847e-28
2.4925464e-29
4.6505669e-31
4.1991498e-33
0.0018562442
0.0016894961
0.0014945593
0.0013237177
0.0012121622
0.0011309528
0.00099745561
0.00076482795
0.0004790357
0.00025920581
0.00014747732
8.5773623e-05
4.0760846e-05
1.208978e-05
1.7140025e-06
9.5128885e-08
1.8888534e-09
1.535015e-11
6.7416937e-14
2.4392345e-15
4.9613769e-16
1.0053837e-16
1.9031837e-17
3.307126e-18
5.1919711e-19
7.2505061e-20
8.8646143e-21
9.3691516e-22
8.4585697e-23
6.4373884e-24
4.0574142e-25
2.0589336e-26
8.0631393e-28
2.287615e-29
4.1862543e-31
3.7170331e-33
0.0018850106
0.0017350567
0.0015607446
0.001406129
0.0013028601
0.0012249932
0.0010977796
0.00087743815
0.00060233602
0.00038105397
0.000266417
0.00019841053
0.00012532301
5.2337447e-05
1.1158667e-05
9.8035786e-07
3.1686535e-08
4.3424494e-10
2.7740686e-12
1.8170588e-14
2.418997e-15
5.3787879e-16
1.1197488e-16
2.1380765e-17
3.6969157e-18
5.7176364e-19
7.7990339e-20
9.2732739e-21
9.5178107e-22
8.3475466e-23
6.1810766e-24
3.7967033e-25
1.8798656e-26
7.1973979e-28
2.0015794e-29
3.5991274e-31
3.1492116e-33
0.0018992407
0.0017648229
0.0016105679
0.0014730479
0.001377156
0.0013024841
0.001181072
0.00097567425
0.00070661765
0.00049439454
0.00039505804
0.0003478847
0.00027271134
0.00015331991
4.8054032e-05
6.6456752e-06
3.5352675e-07
8.1806004e-09
8.7846877e-11
4.7586989e-13
1.1905668e-14
2.6649732e-15
6.0406282e-16
1.2546008e-16
2.3652535e-17
4.0099083e-18
6.0423374e-19
7.9957144e-20
9.2138403e-21
9.1695988e-22
7.8110201e-23
5.6306472e-24
3.3736241e-25
1.6319636e-26
6.119829e-28
1.6714494e-29
2.9599904e-31
2.5587364e-33
0.0019015953
0.0017826629
0.0016462982
0.0015251612
0.0014372213
0.0013637955
0.0012483026
0.0010575715
0.00080481421
0.00059360755
0.0005115963
0.00049926693
0.00045259954
0.00031863056
0.00014027155
2.9972275e-05
2.6182401e-06
1.0160152e-07
1.84819e-09
1.5930238e-11
1.1076763e-13
1.2515314e-14
3.0144209e-15
6.7352212e-16
1.3703136e-16
2.5218262e-17
4.159315e-18
6.0674102e-19
7.7681916e-20
8.6663826e-21
8.3633134e-22
6.9253418e-23
4.8663071e-24
2.8481556e-25
1.3486094e-26
4.965094e-28
1.3349709e-29
2.3349721e-31
2.0002987e-33
0.0018963469
0.0017926375
0.001672102
0.0015639343
0.0014831333
0.0014109205
0.0012997551
0.0011250964
0.00089075016
0.00068507537
0.00061117177
0.00062681272
0.00062111462
0.00050805901
0.00029157133
9.2076403e-05
1.2966774e-05
8.3198932e-07
2.5430399e-08
3.7531319e-10
3.0187623e-12
7.3627323e-14
1.4227785e-14
3.3403466e-15
7.2478717e-16
1.4336062e-16
2.5640622e-17
4.0889078e-18
5.7625867e-19
7.1336473e-20
7.7069963e-21
7.2192977e-22
5.8204588e-23
3.9943609e-24
2.2884458e-25
1.063454e-26
3.8556059e-28
1.0239738e-29
1.7756961e-31
1.5136134e-33
0.0017998025
0.0018948615
0.0016920506
0.0015924274
0.0015160485
0.0014440284
0.0013370915
0.0011785708
0.00096504443
0.0007679175
0.0006954027
0.00072614406
0.00075246556
0.00067549414
0.00046553989
0.00020189642
4.3750343e-05
4.5328742e-06
2.2964116e-07
5.8573528e-09
8.7572938e-11
1.7012906e-12
8.8980062e-14
1.5698386e-14
3.5338776e-15
7.4241349e-16
1.4257996e-16
2.466838e-17
3.7958081e-18
5.1665601e-19
6.1872101e-20
6.4809655e-21
5.9036544e-22
4.6456042e-23
3.1222585e-24
1.7566294e-25
8.0438803e-27
2.8846493e-28
7.6066085e-30
1.3150928e-31
1.1217457e-33
0.0017070227
0.0018082875
0.0018955591
0.0016117083
0.0015378119
0.0014646296
0.0013612503
0.0012197197
0.0010284984
0.00084107506
0.00076832466
0.00080447175
0.00084388203
0.0007977945
0.00061792516
0.00033895155
0.00010486448
1.6761319e-05
1.3823603e-06
6.158951e-08
1.9098919e-09
7.5634575e-11
2.8298859e-12
1.054189e-13
1.6232185e-14
3.5341663e-15
7.2070997e-16
1.3419466e-16
2.2380304e-17
3.3228423e-18
4.3714877e-19
5.0718058e-20
5.1622855e-21
4.5870782e-22
3.5369182e-23
2.3387289e-24
1.299351e-25
5.9034515e-27
2.1098155e-28
5.5707446e-30
9.6851824e-32
8.3345952e-34
0.0016212512
0.0017185271
0.0018124721
0.0018865651
0.0015490931
0.0014740786
0.0013741479
0.0012498231
0.0010819524
0.00090520267
0.0008317849
0.00086485477
0.00090882453
0.00087711087
0.00072993614
0.00046872903
0.00019082322
4.3996796e-05
5.7225891e-06
4.5466753e-07
3.0331516e-08
2.4269847e-09
1.4551179e-10
3.9465833e-12
9.8709702e-14
1.5686887e-14
3.3391581e-15
6.6267058e-16
1.1896847e-16
1.9131479e-17
2.7438044e-18
3.4956984e-19
3.9406207e-20
3.9135333e-21
3.4113898e-22
2.5960507e-23
1.7035706e-24
9.4460131e-26
4.3109813e-27
1.5560168e-28
4.1703402e-30
7.3837263e-32
6.4782714e-34
0.0015492838
0.0016220312
0.0017269623
0.0018058471
0.00186625
0.0014734064
0.0013775834
0.0012707263
0.0011261204
0.00096112062
0.00088665937
0.00091483638
0.00095611826
0.00092934456
0.00080618431
0.0005728072
0.00028400537
8.7758479e-05
1.7308194e-05
2.4812367e-06
3.4306177e-07
4.9324436e-08
4.8203254e-09
2.0698012e-10
3.2793169e-12
7.6275379e-14
1.4319555e-14
2.9913121e-15
5.7395909e-16
9.9327018e-17
1.5426384e-17
2.1428165e-18
2.6545525e-19
2.9248107e-20
2.8581799e-21
2.4721733e-22
1.8835029e-23
1.2476488e-24
7.0413671e-26
3.2950841e-27
1.2256023e-28
3.3929796e-30
6.1997214e-32
5.5925909e-34
0.0014634302
0.0015380063
0.0016239291
0.0017266132
0.001786655
0.0018325768
0.0013735665
0.0012844193
0.001161811
0.0010093282
0.00093428597
0.00095585299
0.00099223391
0.00096734302
0.00086123665
0.00065272421
0.00037036442
0.00014403017
4.1142366e-05
1.0419163e-05
2.6872815e-06
6.2897117e-07
9.6554883e-08
6.7729086e-09
1.732812e-10
1.4998137e-12
5.9101833e-14
1.2440577e-14
2.5292678e-15
4.6812517e-16
7.8274898e-17
1.1786045e-17
1.595174e-18
1.9388803e-19
2.1154021e-20
2.0710286e-21
1.8188152e-22
1.4247765e-23
9.802774e-25
5.7915028e-26
2.8459234e-27
1.1102135e-28
3.2071916e-30
6.0676031e-32
5.6155894e-34
0.0013656937
0.0014457843
0.0015266447
0.0016217757
0.0017140401
0.0017534491
0.0017816897
0.0012924917
0.0011909427
0.0010505037
0.00097514469
0.00098998957
0.0010185103
0.00099294801
0.00090167442
0.00072592896
0.00044551011
0.0002068476
8.1439915e-05
3.3688532e-05
1.434152e-05
5.0823449e-06
1.1835411e-06
1.3264054e-07
5.7471678e-09
7.798057e-11
4.507832e-13
4.8236286e-14
1.0247836e-14
2.0156084e-15
3.6097672e-16
5.8655617e-17
8.6409543e-18
1.1554901e-18
1.4061704e-19
1.561635e-20
1.5850119e-21
1.4670622e-22
1.2236955e-23
8.9957551e-25
5.665141e-26
2.9424812e-27
1.2004627e-28
3.5853113e-30
6.9368589e-32
6.5029728e-34
0.0012987965
0.0013542241
0.0014245249
0.0015093345
0.001610935
0.001687206
0.0017030196
0.0017107249
0.0012137464
0.0010856781
0.0010099298
0.0010175077
0.0010379363
0.0010080345
0.00092896042
0.00078388547
0.00053366055
0.00027053972
0.000137135
8.285336e-05
5.208555e-05
2.6484942e-05
9.0360751e-06
1.5786661e-06
1.1362306e-07
2.7428583e-09
1.7905735e-11
1.965101e-13
3.8476325e-14
7.978513e-15
1.5233541e-15
2.6630099e-16
4.2643444e-17
6.2789741e-18
8.5524492e-19
1.0840386e-19
1.2816964e-20
1.4073496e-21
1.4162438e-22
1.2764358e-23
1.0016279e-24
6.6346114e-26
3.5710815e-27
1.4912334e-28
4.5137625e-30
8.7838983e-32
8.2339842e-34
0.0012344901
0.0012983919
0.0013354126
0.0013957425
0.0014865585
0.001587965
0.0016435964
0.0016329425
0.0016183127
0.0011149054
0.0010391526
0.0010392373
0.0010502215
0.00101494
0.00094467274
0.00082813049
0.00061079112
0.00034752606
0.00020177206
0.00015694539
0.00013168577
9.1051194e-05
4.3903744e-05
1.1627402e-05
1.3617994e-06
5.7481104e-08
7.0466708e-10
2.6781777e-12
1.3665116e-13
2.9228683e-14
5.9233169e-15
1.1122744e-15
1.9386872e-16
3.1580532e-17
4.8515744e-18
7.0794415e-19
9.8117572e-20
1.2783854e-20
1.5366059e-21
1.663789e-22
1.5812722e-23
1.2857053e-24
8.697112e-26
4.730635e-27
1.9821361e-28
5.9910741e-30
1.1604416e-31
1.0802561e-33
0.0011395372
0.0012470976
0.0012883344
0.0013083003
0.0013615023
0.0014559128
0.0015502888
0.0015809508
0.0015425038
0.0015024353
0.001062509
0.0010556137
0.0010567613
0.0010145366
0.00095111671
0.00086047654
0.00067733766
0.00042439973
0.00026700404
0.0002427686
0.00024480694
0.00021451164
0.00013929466
5.4154145e-05
1.0089057e-05
7.2943998e-07
1.672536e-08
1.0894509e-10
6.5161045e-13
9.9978926e-14
2.1372731e-14
4.3120094e-15
8.2160655e-16
1.4926363e-16
2.6118865e-17
4.4188172e-18
7.1767416e-19
1.0994089e-19
1.5523463e-20
1.9739695e-21
2.2123627e-22
2.1415638e-23
1.7546059e-24
1.1865876e-25
6.425625e-27
2.6739615e-28
8.0166496e-30
1.5392274e-31
1.4199083e-33
0.0010802611
0.0011586521
0.0012506348
0.0012699104
0.0012738233
0.0013202971
0.0014151651
0.0014956131
0.0014984232
0.0014296974
0.0013627519
0.0010663959
0.0010576101
0.001008311
0.00095032811
0.00088282571
0.00073374712
0.00049732712
0.00033372658
0.00031681524
0.00036408905
0.00037090429
0.00030190999
0.00016406652
4.726735e-05
5.7343389e-06
2.3907388e-07
3.1124185e-09
1.4842765e-11
3.3793631e-13
7.2131666e-14
1.5661961e-14
3.2854856e-15
6.7223579e-16
1.3505587e-16
2.6518073e-17
5.0032465e-18
8.8656016e-19
1.4415969e-19
2.1080381e-20
2.7254793e-21
3.0682513e-22
2.9619552e-23
2.409908e-24
1.6141237e-25
8.650721e-27
3.5627229e-28
1.0574732e-29
2.0112462e-31
1.8388692e-33
0.0010713184
0.0010922313
0.0011718292
0.0012461385
0.001243772
0.0012321719
0.0012712483
0.0013608334
0.0014224549
0.0013938838
0.0012945395
0.0012029403
0.0010527641
0.00099679225
0.00094428639
0.00089744126
0.00078039557
0.00056480943
0.0003985004
0.00038209663
0.00046134107
0.00051626793
0.00048339839
0.00034022085
0.00014457587
2.86315e-05
2.115909e-06
5.3122771e-08
4.8427729e-10
2.395482e-12
2.3081885e-13
5.3818164e-14
1.2538888e-14
2.914428e-15
6.7370432e-16
1.5240424e-16
3.2922499e-17
6.6260854e-18
1.2180118e-18
2.0126495e-19
2.9509997e-20
3.7953911e-21
4.2324535e-22
4.0397772e-23
3.246094e-24
2.1470942e-25
1.1372324e-26
4.6332096e-28
1.3618371e-29
2.5675645e-31
2.3291921e-33
0.0010417441
0.0010692134
0.0010984717
0.0011788892
0.0012339431
0.0012103322
0.0011819104
0.0012120428
0.0012906889
0.0013285187
0.001267141
0.0011405072
0.0010268735
0.00098041673
0.00093472398
0.00090681329
0.00081824152
0.00062627481
0.00045972632
0.00044135664
0.00052939879
0.00062583177
0.0006304971
0.00052486882
0.00030496633
9.3937496e-05
1.1927586e-05
5.5570827e-07
9.8477743e-09
6.5378226e-11
8.213885e-13
1.7669858e-13
4.6083596e-14
1.2219037e-14
3.2329335e-15
8.313255e-16
2.0219462e-16
4.5484951e-17
9.3109862e-18
1.7147306e-18
2.8137773e-19
4.0780202e-20
5.1735725e-21
5.6878616e-22
5.3545206e-23
4.2432145e-24
2.7712491e-25
1.451273e-26
5.8539158e-28
1.7057775e-29
3.1920919e-31
1.927508e-35
0.00095930026
0.0010234261
0.0010596464
0.0011013663
0.0011795791
0.0012141684
0.0011686766
0.0011222831
0.0011402426
0.0012023789
0.0012134406
0.0011207416
0.00096941198
0.00082360496
0.00092212925
0.00091261178
0.00084946556
0.00068135836
0.00051709898
0.00049427258
0.00058693561
0.00069196607
0.00073010929
0.0006623711
0.00048022446
0.00021392515
4.4274941e-05
3.6778546e-06
1.2123691e-07
1.5432561e-09
8.8961482e-12
5.6749873e-13
1.6394803e-13
4.9486541e-14
1.4819455e-14
4.264256e-15
1.1495936e-15
2.8517509e-16
6.4286708e-17
1.3054938e-17
2.3724598e-18
3.8323749e-19
5.4639859e-20
6.8214819e-21
7.3869425e-22
6.8568628e-23
5.3617866e-24
3.4609703e-25
1.7941785e-26
7.1748672e-28
2.0756364e-29
2.9349086e-33
7.2750186e-38
0.0009068242
0.00093328297
0.00099848245
0.0010476633
0.0011012176
0.0011730172
0.0011863856
0.0011180705
0.0010524851
0.0010538406
0.0010954786
0.0010781088
0.00095444187
0.00077215591
0.00059901309
0.00091646692
0.0008755998
0.00073071143
0.00057062308
0.00054209801
0.00063387186
0.00074579487
0.00079120533
0.00074640321
0.00061473971
0.0003643504
0.00011396672
1.5917239e-05
9.33615e-07
2.2212249e-08
2.0832857e-10
2.3444965e-12
5.6560083e-13
1.9265356e-13
6.4394524e-14
2.0428052e-14
6.024989e-15
1.6302228e-15
4.0102602e-16
8.9088648e-17
1.7778321e-17
3.171943e-18
5.0313931e-19
7.0502953e-20
8.6618542e-21
9.2446871e-22
8.4670893e-23
6.5415474e-24
4.1792266e-25
2.1479342e-26
8.5292406e-28
2.1263707e-31
1.249274e-35
1.1238035e-40
0.00091739869
0.00088765112
0.0009028986
0.00097044701
0.0010321974
0.0010953909
0.0011584715
0.0011494863
0.0010583988
0.00097067784
0.00095209196
0.00096954677
0.00092195434
0.00076036052
0.00055315971
0.00037261201
0.00090081367
0.00077468539
0.0006204764
0.00058570572
0.00067348273
0.00078641072
0.00083631539
0.00080011638
0.0006954421
0.0004996277
0.00021872396
4.7281318e-05
4.6572364e-06
1.9751423e-07
3.4472247e-09
2.7697565e-11
1.9310092e-12
7.166622e-13
2.6368492e-13
9.1054554e-14
2.9071751e-14
8.5051473e-15
2.2655699e-15
5.4674644e-16
1.1901486e-16
2.3274238e-17
4.0723234e-18
6.3425094e-19
8.739645e-20
1.0576552e-20
1.113954e-21
1.007808e-22
7.7050324e-24
4.8802155e-25
2.490951e-26
9.7543888e-30
1.0254837e-33
2.1798979e-38
6.679541e-44
0.00092247146
0.00091362624
0.00086445311
0.00086846854
0.00093832967
0.0010115535
0.0010821386
0.0011345601
0.0011037084
0.00098750317
0.00087615174
0.0008354472
0.00082752383
0.00073761977
0.00054252882
0.00033548886
0.00018096259
0.00081500043
0.00066682684
0.00062558952
0.0007069804
0.00081843251
0.0008673528
0.00083483006
0.00074914823
0.00060128407
0.00033462744
0.00010287829
1.5801471e-05
1.1255301e-06
3.5172618e-08
4.644417e-10
8.1636287e-12
2.5378089e-12
1.0141589e-12
3.7727361e-13
1.2927846e-13
4.0594355e-14
1.1632274e-14
3.030195e-15
7.1504244e-16
1.5230547e-16
2.9179707e-17
5.0091001e-18
7.6666786e-19
1.0400558e-19
1.2415089e-20
1.2921463e-21
1.1565842e-22
8.7658752e-24
5.5144196e-25
3.1839257e-28
5.343134e-32
2.04324e-36
1.41674e-41
1.8226102e-47
0.00085139615
0.00093786369
0.00090474906
0.00083711158
0.00082963079
0.00090055982
0.00098399308
0.0010597445
0.0011008601
0.0010468124
0.00090464851
0.00076919211
0.0007075504
0.00066031073
0.00052859021
0.0003245593
0.00015710673
6.3109436e-05
0.00070954327
0.00066183551
0.00073483321
0.00084275339
0.00088862708
0.00085349027
0.00078003551
0.00067095118
0.00045836108
0.00017618943
3.8784354e-05
4.3250008e-06
2.2759871e-07
5.3375289e-09
6.8606725e-11
8.6806733e-12
3.6628806e-12
1.4548246e-12
5.3116445e-13
1.7786007e-13
5.4496572e-14
1.5235492e-14
3.8744409e-15
8.9350107e-16
1.8627011e-16
3.4986953e-17
5.8986505e-18
8.8836958e-19
1.1882337e-19
1.4013678e-20
1.4433834e-21
1.2806082e-22
9.6402684e-24
7.8831894e-27
1.9837119e-30
1.2229114e-34
1.4880955e-39
3.916666e-45
3.0791334e-51
0.00074854354
0.00088288574
0.00094642498
0.00089125509
0.00080517696
0.00078571275
0.0008558428
0.00094768578
0.0010269534
0.0010556681
0.00097769289
0.0008079538
0.00065084618
0.00055946546
0.00047129172
0.00031605854
0.00014884413
5.2539187e-05
1.5302758e-05
0.00069423272
0.00075721514
0.00085926099
0.00090061207
0.00085965382
0.00079192931
0.00071275391
0.00055568735
0.00028239651
7.4086136e-05
1.1908945e-05
9.8389424e-07
3.9006377e-08
7.362001e-10
3.1976941e-11
1.249636e-11
5.2451556e-12
2.023941e-12
7.1830132e-13
2.3398665e-13
6.9814728e-14
1.9027971e-14
4.7237885e-15
1.0651696e-15
2.1752305e-16
4.0101777e-17
6.6493704e-18
9.8696056e-19
1.3037838e-19
1.5219993e-20
1.5538632e-21
1.3692741e-22
1.541776e-25
5.5904785e-29
5.2339519e-33
1.0130264e-37
4.3441886e-43
6.1754958e-49
3.9652436e-55
0.0007230302
0.00078377736
0.00090815115
0.00094906936
0.00087282111
0.00076860396
0.00073603772
0.00080292065
0.00090134743
0.00098215838
0.00099769436
0.00089310923
0.00069533051
0.00051384298
0.00039386463
0.00027979256
0.00014465511
4.8349076e-05
1.2103624e-05
2.5751694e-06
0.00077384806
0.00086729985
0.00090301381
0.00085436657
0.00078817732
0.00073216151
0.00062772484
0.00039008936
0.00014039567
2.5180107e-05
3.019835e-06
1.8913973e-07
5.8947801e-09
1.6316487e-10
4.1110743e-11
1.7887122e-11
7.2212406e-12
2.6876613e-12
9.2508972e-13
2.9295756e-13
8.5113119e-14
2.2622522e-14
5.4862073e-15
1.2107452e-15
2.4249039e-16
4.3940213e-17
7.1772003e-18
1.0518e-18
1.374862e-19
1.5916176e-20
1.613757e-21
2.4495221e-24
1.2447045e-27
1.7042002e-31
4.9791832e-36
3.2084033e-41
6.7301065e-47
7.0229865e-53
4.2863234e-59
0.00078509451
0.0007483951
0.00081563289
0.00092725849
0.00094593577
0.00084949957
0.00072674022
0.00067997455
0.00074143763
0.00084392757
0.00092463471
0.00092516228
0.00078816162
0.00055950929
0.00036085924
0.00023037818
0.00012680733
4.6652005e-05
1.0730293e-05
1.915239e-06
2.9918494e-07
0.00086631821
0.00089454641
0.00083804919
0.00077132342
0.00073434914
0.00067471759
0.00049106304
0.00022230664
5.7047907e-05
7.0264328e-06
6.4997453e-07
3.3256182e-08
1.23061e-09
1.5532542e-10
5.9391021e-11
2.457694e-11
9.4781227e-12
3.3897695e-12
1.1313113e-12
3.484569e-13
9.8631927e-14
2.5585203e-14
6.0670553e-15
1.3120038e-15
2.5807753e-16
4.603978e-17
7.4215416e-18
1.0759554e-18
1.3946249e-19
1.6040056e-20
3.2272398e-23
2.2505687e-26
4.389621e-30
1.8744515e-34
1.7416208e-39
5.0812324e-45
7.011656e-51
6.6907304e-57
3.9735447e-63
0.00085641756
0.00079090737
0.00077119098
0.00084378575
0.00094034425
0.00093700539
0.00082027038
0.00067901239
0.00061735086
0.00067097006
0.00077426344
0.00085241904
0.00083084945
0.0006521453
0.00040185377
0.00021145819
0.00010261395
4.0404723e-05
1.0230391e-05
1.6094473e-06
2.0749202e-07
2.3987112e-08
0.00087483888
0.00081120713
0.0007437842
0.00072308622
0.00070232763
0.00057622373
0.00031553221
0.00010385792
1.9193759e-05
1.7218512e-06
1.5202278e-07
1.2701648e-08
1.4945912e-09
2.7124036e-10
8.4691762e-11
3.2021859e-11
1.1727235e-11
4.0452919e-12
1.312307e-12
3.9344185e-13
1.0858598e-13
2.7517032e-14
6.3880501e-15
1.3555619e-15
2.6231062e-16
4.6153684e-17
7.357055e-18
1.057459e-18
1.3623293e-19
3.58222e-22
3.3718526e-25
9.1878491e-29
5.610633e-33
7.3371884e-38
2.8921811e-43
5.0940259e-49
5.8435493e-55
5.6816561e-61
3.5606871e-67
0.00084382801
0.0008380911
0.00079368407
0.00079218695
0.0008674493
0.00094703038
0.00092153643
0.00078436686
0.00062486366
0.00054803953
0.0005912965
0.0006906819
0.00076317343
0.00070304874
0.00048441411
0.00024227147
9.5078258e-05
3.2210987e-05
8.7087973e-06
1.4983674e-06
1.6294352e-07
1.5416241e-08
1.3248789e-09
0.00077494249
0.00070801706
0.00070211213
0.00071557483
0.00064346422
0.0004133265
0.00016577887
4.0402136e-05
5.7915747e-06
6.7764079e-07
1.4082844e-07
2.7934004e-08
4.2413395e-09
5.714179e-10
1.1550214e-10
3.8873349e-11
1.3624097e-11
4.5704086e-12
1.4432103e-12
4.2151698e-13
1.1354269e-13
2.8141606e-14
6.4047126e-15
1.3358287e-15
2.5475661e-16
4.4299418e-17
6.9980709e-18
9.9953782e-19
3.3926426e-21
4.2509263e-24
1.5935459e-27
1.3700107e-31
2.4846151e-36
1.2985528e-41
2.8997976e-47
3.8390255e-53
4.3590387e-59
4.8732684e-65
3.2098633e-71
0.00073042717
0.00080303854
0.00081507677
0.00079509651
0.00081045591
0.00088549656
0.00094683697
0.00089844065
0.00074110797
0.00056367221
0.00047253636
0.00050334335
0.00060241487
0.00064538549
0.00053626376
0.00030449747
0.00011324499
3.0451033e-05
6.8534134e-06
1.2521712e-06
1.4610611e-07
1.1158819e-08
7.9043333e-10
5.1332067e-11
0.00066622308
0.0006747519
0.00071897958
0.00069625184
0.00050962215
0.00024167451
7.3030596e-05
1.4541657e-05
3.0085296e-06
1.1796058e-06
3.8199559e-07
8.541483e-08
1.2525269e-08
1.0847596e-09
1.4107065e-10
4.3829172e-11
1.4900379e-11
4.8938749e-12
1.504246e-12
4.2840837e-13
1.1275695e-13
2.7370448e-14
6.1166139e-15
1.2562006e-15
2.3658959e-16
4.0748449e-17
6.3943952e-18
2.7701961e-20
4.565011e-23
2.3244707e-26
2.7802593e-30
6.9304266e-35
4.7420005e-40
1.3340685e-45
2.0725059e-51
2.4895463e-57
3.4287397e-63
4.327585e-69
2.8620538e-75
0.00062040527
0.00067906567
0.00075734048
0.0007902996
0.00079473937
0.0008245727
0.00089650617
0.00093826132
0.00086746134
0.00068888734
0.00049531105
0.00039295853
0.00041885038
0.00049440864
0.00049379347
0.00034892446
0.00015010537
3.8120327e-05
6.6709459e-06
9.7660635e-07
1.1926471e-07
9.5057643e-09
5.2599066e-10
2.8514083e-11
1.4101273e-12
0.00064380602
0.0007165356
0.00073846262
0.00060112944
0.0003294475
0.00011884361
3.0913511e-05
9.5628329e-06
5.8706989e-06
3.1833582e-06
1.0805468e-06
2.3895792e-07
2.6411569e-08
1.4620415e-09
1.4919636e-10
4.6204817e-11
1.5431801e-11
4.9609054e-12
1.4856496e-12
4.1302817e-13
1.0635716e-13
2.5323744e-14
5.5670104e-15
1.1281175e-15
2.1029398e-16
3.5961296e-17
1.9674703e-19
4.2175661e-22
2.885007e-25
4.7550958e-29
1.6207416e-33
1.4407662e-38
5.0648988e-44
9.3939907e-50
1.2040577e-55
1.7211066e-61
2.9176068e-67
3.8569102e-73
2.5047995e-79
0.00061125467
0.00057155092
0.00062354533
0.0007085615
0.00076369098
0.00079063415
0.00083245334
0.00089863704
0.00092074781
0.0008257487
0.00062728833
0.00041705806
0.00030899841
0.00032296813
0.00036588452
0.00032261785
0.00018005795
5.3671543e-05
8.8465527e-06
9.8427203e-07
9.2415576e-08
7.5715221e-09
4.2026442e-10
1.7432783e-11
7.4395265e-13
2.9280498e-14
0.00071147237
0.00077366689
0.00068522954
0.00042589764
0.00017847606
5.7891505e-05
2.4731748e-05
1.9259654e-05