/*--------------------------------*- C++ -*----------------------------------*\
| =========                 |                                                 |
| \\      /  F ield         | OpenFOAM: The Open Source CFD Toolbox           |
|  \\    /   O peration     | Version:  5.0                                   |
|   \\  /    A nd           | Web:      www.OpenFOAM.org                      |
|    \\/     M anipulation  |                                                 |
\*---------------------------------------------------------------------------*/
FoamFile
{
    version     2.0;
    format      ascii;
    class       volScalarField;
    location    "120";
    object      p;
}
// * * * * * * * * * * * * * * * * * * * * * * * * * * * * * * * * * * * * * //

dimensions      [0 2 -2 0 0 0 0];

internalField   nonuniform List<scalar> 
9520
(
3.5626084e-05
3.5426865e-05
6.6613871e-05
3.4853236e-05
6.6962193e-05
0.00010715641
3.3702648e-05
6.7265076e-05
0.00010801712
0.00014225174
3.178687e-05
6.6937807e-05
0.00010893488
0.00014421692
0.00017762379
2.9003517e-05
6.5408565e-05
0.00010891227
0.00014689274
0.00018110602
0.00020874084
2.5645863e-05
6.2075819e-05
0.00010700377
0.00014891554
0.00018636894
0.00021451826
0.00023701294
2.0966908e-05
5.6041808e-05
0.00010239415
0.00014878553
0.0001915249
0.0002238749
0.00024550799
0.00025991352
1.3022419e-05
4.7444942e-05
9.4565186e-05
0.00014483558
0.00019458259
0.00023433288
0.0002598542
0.00027163087
0.00027709436
5.5744275e-06
4.0383847e-05
8.3001557e-05
0.00013605079
0.00019371622
0.00024342668
0.00027708315
0.00029204029
0.00029241601
0.00028655875
3.8335654e-06
3.2795804e-05
6.7631077e-05
0.00012181954
0.00018706683
0.00024879078
0.00029440311
0.00031770521
0.00031954323
0.000305796
0.0002873944
4.9523034e-06
2.1167915e-05
4.7158819e-05
0.00010144177
0.00017351206
0.0002484657
0.00030910891
0.00034543473
0.00035468655
0.00034018289
0.0003106736
0.00027850761
1.15096e-05
8.0775691e-06
2.1666153e-05
7.3309053e-05
0.00015148146
0.00024029117
0.00031871602
0.00037207849
0.00039433068
0.00038562101
0.00035257847
0.00030577902
0.00026041577
1.2411022e-05
-3.3967303e-06
-8.0609209e-06
3.7834611e-05
0.00011821127
0.00022282914
0.0003211556
0.00039475739
0.00043496186
0.00043823849
0.00040880874
0.00035539386
0.00029153992
0.00023248115
3.7253225e-05
-1.3300994e-05
-3.9150845e-05
-5.9528082e-06
7.3539799e-05
0.00019580677
0.00031485794
0.00041085955
0.00047352023
0.00049428279
0.0004752612
0.00042280118
0.00034871526
0.00026712969
0.00019442253
4.3798455e-05
-1.0744002e-05
-6.9433966e-05
-5.6173978e-05
1.5469184e-05
0.00015705006
0.00029972707
0.00041876162
0.00050725716
0.00055024497
0.00054797282
0.00050388816
0.00042726102
0.00033118933
0.00023212176
0.00014650788
9.075061e-05
1.3313568e-05
-9.0853384e-05
-0.00011746561
-5.6544618e-05
0.00010350657
0.00027519686
0.00041809113
0.0005336862
0.00060278578
0.00062309566
0.00059457483
0.00052322077
0.00042023735
0.00030229822
0.00018659619
8.9213918e-05
0.00013389099
4.7218259e-05
-0.00011034475
-0.00019070077
-0.00014670568
3.3251547e-05
0.00024150918
0.00040911069
0.00055089522
0.0006490198
0.00069661373
0.0006907123
0.00063257862
0.00053084573
0.00040092571
0.00026171696
0.00013093161
2.3229582e-05
0.00023213931
9.0679061e-05
-0.00012195362
-0.00028360474
-0.00025799132
-5.6898231e-05
0.00019952009
0.00039533936
0.00055914717
0.00068550477
0.00076444037
0.00078798229
0.00075129107
0.00065890666
0.00052483895
0.00036828387
0.00020964914
6.5717334e-05
-5.0575628e-05
0.0003057483
0.00013163625
-9.5332243e-05
-0.00038968782
-0.00040322037
-0.00016826781
0.00015066726
0.00037439135
0.0005577753
0.00070884843
0.00082198741
0.00088196757
0.00087505729
0.00080076241
0.00067063554
0.00050357206
0.00032241231
0.0001464706
-8.2590787e-06
-0.0001312096
0.00039906516
0.00022725213
-5.1941565e-05
-0.00052402065
-0.00058062671
-0.00029616021
9.7332297e-05
0.00035846525
0.00053628375
0.00071283043
0.00086524498
0.00096780581
0.00099953745
0.00095245752
0.000834938
0.00066511108
0.00046728154
0.00026332398
7.2808485e-05
-9.0062722e-05
-0.00021756546
0.0004725231
0.00033060674
4.6710457e-05
-0.0006701346
-0.00082624997
-0.00045216806
2.4218727e-05
0.00034988359
0.00050024348
0.0007036392
0.00088853789
0.0010409269
0.0011201745
0.0011099567
0.0010140981
0.00084996293
0.0006423267
0.00041528872
0.00019138365
-1.050134e-05
-0.00017860422
-0.00030842877
0.0005901957
0.00052495206
0.00013347787
-0.00085677707
-0.0011323357
-0.00064065799
-4.903057e-05
0.00033961288
0.00048557528
0.00066814904
0.00089796603
0.001096724
0.001232572
0.0012692282
0.0012045921
0.0010550652
0.00084548353
0.00060133913
0.00034757198
0.00010724636
-0.00010243913
-0.00027266259
-0.00040255026
0.00072267983
0.00069185995
0.00033753224
-0.0010303266
-0.0015772396
-0.00085476004
-0.00012716558
0.00036333011
0.00050243059
0.00061017645
0.00088449613
0.0011312784
0.0013326033
0.0014269398
0.0014032056
0.0012773073
0.0010742118
0.00082008618
0.00054137966
0.00026452356
1.1836708e-05
-0.00020183686
-0.00037098876
-0.00049870521
0.00094064681
0.00094734679
0.00046429138
-0.0012501734
-0.0020365573
-0.0010983232
-0.00020755038
0.00042620113
0.00054519111
0.00054346111
0.00082775267
0.0011381244
0.0014147887
0.0015803526
0.001608074
0.0015141204
0.0013255873
0.0010694217
0.00077228267
0.00046252794
0.00016687506
-9.3780273e-05
-0.0003074326
-0.00047232535
-0.00059567805
0.0011541917
0.0011003824
0.00067401277
-0.0015411785
-0.0027077768
-0.0013794329
-0.00029845465
0.00054548956
0.00062676621
0.00047897894
0.00071526842
0.0011042839
0.0014705905
0.001728109
0.0018180404
0.0017635877
0.0015966726
0.0013464332
0.001038766
0.00070178973
0.00036524094
5.5529443e-05
-0.00020836076
-0.00041782884
-0.00057532853
-0.00069228193
0.0013712542
0.0015014129
0.00079801224
-0.0019156935
-0.003250101
-0.0017383162
-0.00041559724
0.00073259808
0.00077181655
0.00041446172
0.00054830255
0.0010096592
0.0014927185
0.0018657201
0.0020338477
0.0020243454
0.0018843416
0.0016475829
0.0013381075
0.00098164549
0.00060868722
0.00025016884
-6.8305858e-05
-0.00033036476
-0.00053148364
-0.00067871959
-0.00078742676
0.0015718003
0.0017600443
0.00087302542
-0.0022160099
-0.0039898333
-0.0021623197
-0.00056815332
0.0010047114
0.00094938694
0.00036134324
0.00030797143
0.00083798779
0.0014696311
0.0019900681
0.0022560855
0.0022968749
0.0021865245
0.0019687804
0.001666336
0.0012998572
0.00089779254
0.00049330495
0.0001184178
-0.00020307207
-0.00045832834
-0.00064713816
-0.00078144186
-0.0008801212
0.0016648118
0.0020897495
0.00097275445
-0.0026242545
-0.0046614326
-0.0027350928
-0.00081161267
0.001393504
0.0012574808
0.00031791006
-1.0971284e-05
0.00055596951
0.0013884065
0.0020974116
0.0024883867
0.0025834592
0.0025026113
0.0023060299
0.0020182188
0.0016524907
0.0012312131
0.00078730216
0.00035643752
-2.8657439e-05
-0.00034725134
-0.00059074786
-0.00076366131
-0.00088230388
-0.00096942277
0.0018120458
0.0024144942
0.0010588835
-0.0028207796
-0.0054895095
-0.0034770766
-0.0010792937
0.0019104057
0.0016581953
0.00031560029
-0.0004447377
0.00014267765
0.0012281177
0.0021863727
0.0027342133
0.0028905601
0.0028326467
0.002655692
0.0023873791
0.0020339004
0.0016059656
0.0011320346
0.00064994155
0.0001989549
-0.00018942328
-0.00049893722
-0.00072598278
-0.0008795219
-0.00098019114
-0.0010544324
0.0019815626
0.0025388305
0.0012368086
-0.0030257406
-0.0065001357
-0.0044040296
-0.0013747758
0.0026350235
0.0021512608
0.00034989527
-0.0010075752
-0.00045740002
0.00097231712
0.0022467419
0.0030044875
0.003224355
0.0031809336
0.0030134203
0.0027663698
0.002437569
0.0020175475
0.0015258311
0.0010004785
0.00048582594
2.2376832e-05
-0.00036215935
-0.00065644134
-0.0008626614
-0.00099346408
-0.0010744288
-0.0011344669
0.0021010816
0.0025614729
0.0013934007
-0.0034507667
-0.0077092045
-0.0056419864
-0.0017921574
0.0035011811
0.0027123868
0.00046619039
-0.0017513287
-0.0012803944
0.00059418604
0.0022726132
0.0033038698
0.0036001655
0.0035510397
0.0033824021
0.0031467604
0.0028582791
0.0024598483
0.00196493
0.0014072875
0.0008356514
0.00029644173
-0.00017166374
-0.00054527722
-0.00081839571
-0.00099911209
-0.0011050182
-0.0011640633
-0.0012092313
0.0021496747
0.0023630832
0.0017067183
-0.0040308254
-0.008731651
-0.0067524766
-0.0022446341
0.0045872882
0.0032449465
0.00065199982
-0.0027076813
-0.0024217887
7.8200349e-05
0.0022399279
0.0036492471
0.0040272647
0.003956733
0.0037567141
0.0035271717
0.0032826991
0.0029223056
0.0024421949
0.0018679806
0.0012485821
0.00063851573
8.3441883e-05
-0.00038088631
-0.00073633674
-0.00098307736
-0.0011339612
-0.0012127695
-0.0012482929
-0.001278188
0.0021018864
0.0020749495
0.0021077642
-0.0046753623
-0.0094805852
-0.0076671016
-0.0024200259
0.0057453138
0.0037382117
0.00099115607
-0.0039760498
-0.0038436769
-0.00059349464
0.0021197306
0.0040427629
0.0045297656
0.0044020346
0.0041438342
0.0038928293
0.003673873
0.0033943434
0.0029464513
0.002376289
0.0017243758
0.0010501873
0.00040979429
-0.00015133728
-0.00060305104
-0.00093354554
-0.0011484376
-0.0012666997
-0.001314994
-0.0013267339
-0.0013409835
0.0019487136
0.0017672709
0.0023693035
-0.0052025054
-0.01022311
-0.0085233865
-0.0025170928
0.0064375942
0.0041355707
0.0014296809
-0.0055743902
-0.0055824429
-0.0015043283
0.0018605083
0.0044954344
0.0051164752
0.0049097654
0.0045341453
0.0042392021
0.0040370081
0.0038456684
0.0034638798
0.0029231612
0.0022595818
0.0015336352
0.00081287266
0.00015224648
-0.00040532466
-0.00083600132
-0.0011347604
-0.001313139
-0.0013952843
-0.0014111674
-0.0013989572
-0.0013973671
0.001693924
0.001473544
0.0023916419
-0.0056592973
-0.010777649
-0.0094155473
-0.0025196196
0.0065152858
0.0045445093
0.0016609205
-0.0077596508
-0.0073685929
-0.0027992593
0.0013612677
0.0049978661
0.0058105802
0.0054764292
0.0049563154
0.0045523164
0.0043604917
0.0042603107
0.0039907261
0.0034975694
0.0028474841
0.0020884778
0.0012960404
0.00053773411
-0.00013194609
-0.00067601948
-0.0010774295
-0.001337794
-0.0014752718
-0.001518127
-0.0015011863
-0.0014646618
-0.0014472184
0.001352131
0.001161816
0.0021257913
-0.0059863185
-0.011173656
-0.010327417
-0.002836622
0.0065959052
0.0047600149
0.00185101
-0.010127695
-0.010294361
-0.0045453177
0.00055404161
0.0055312285
0.0066187179
0.0061225588
0.0053914684
0.004834256
0.0046145103
0.0046167215
0.0044957157
0.0040995236
0.0034803495
0.0027092631
0.0018601861
0.0010106395
0.0002270157
-0.00044026912
-0.00096079122
-0.0013244729
-0.0015404762
-0.001632759
-0.0016347064
-0.0015846535
-0.0015236068
-0.0014904926
0.00094616218
0.00080139664
0.0016001458
-0.0061341649
-0.011381498
-0.011057353
-0.0034190225
0.0061927384
0.0046771331
0.0015411925
-0.013129283
-0.013218193
-0.0063202437
-0.00058387113
0.0061276235
0.0075398268
0.0068276085
0.0058638745
0.005057603
0.0047807364
0.0048841699
0.0049583283
0.0047048072
0.0041581199
0.0033939211
0.0025036659
0.0015736087
0.00067925261
-0.0001167206
-0.00076980884
-0.0012563621
-0.0015743626
-0.0017403745
-0.0017843226
-0.0017443456
-0.0016611083
-0.0015756916
-0.0015272504
0.00049826248
0.00038771524
0.00085324471
-0.0061077302
-0.011269944
-0.011630459
-0.0040043677
0.005435494
0.0043319289
0.00063952268
-0.015028486
-0.016996634
-0.0087486378
-0.0022338799
0.0067492324
0.0085332907
0.0075752621
0.0063447879
0.0052293311
0.0048103106
0.005038368
0.0053490893
0.005298952
0.004867642
0.0041372743
0.0032260139
0.0022282977
0.0012299831
0.00030462787
-0.00049039424
-0.0011169045
-0.001559401
-0.0018242641
-0.0019354872
-0.0019290471
-0.0018465633
-0.0017302526
-0.0016209178
-0.0015575951
2.84028e-05
-7.7532739e-05
-8.3122214e-05
-0.0058818507
-0.010848788
-0.011966411
-0.0045991293
0.004261029
0.0038701128
0.00051025066
-0.016957202
-0.021093493
-0.0123183
-0.0049460325
0.0072002582
0.0094366206
0.008309742
0.0068422555
0.005298126
0.0046828203
0.0050203724
0.0056442896
0.0058616926
0.0055972341
0.0049377582
0.0040229293
0.0029719598
0.0018817223
0.00083113798
-0.00011022984
-0.00089006555
-0.0014776894
-0.0018664644
-0.0020714983
-0.0021242745
-0.0020660803
-0.0019409682
-0.0017919445
-0.0016593357
-0.0015816992
-0.00058822258
-0.00043370375
-0.0011558962
-0.0054577238
-0.010124952
-0.011967973
-0.0051604197
0.0026741065
0.0028566615
0.00088144032
-0.01919141
-0.025164269
-0.016143835
-0.0077504665
0.0075190843
0.010247289
0.0089259681
0.0072985213
0.0052692613
0.0043170795
0.0048155155
0.005791276
0.0063749744
0.0063352012
0.005790811
0.004891296
0.0038061042
0.0026345578
0.0014668664
0.00038028601
-0.00056115841
-0.0013113789
-0.0018480884
-0.0021741635
-0.0023137775
-0.002305428
-0.0021946314
-0.00202718
-0.0018461297
-0.0016910766
-0.0015997845
-0.0022825987
-0.0011225015
-0.00086490734
-0.0048558639
-0.0091210202
-0.011495416
-0.0057107944
0.00064149438
0.001356108
0.00095664265
-0.020752892
-0.029045913
-0.019833968
-0.0097487889
0.0073756153
0.0109336
0.0093293089
0.0076937842
0.0050636918
0.0036915568
0.0042787383
0.0057567565
0.0068031449
0.0070799559
0.006689018
0.0058312864
0.0047260841
0.0034844805
0.0022134288
0.00098779398
-0.00011797909
-0.0010433854
-0.0017496884
-0.0022239835
-0.0024794272
-0.0025491265
-0.0024778278
-0.0023141576
-0.0021049703
-0.0018928319
-0.0017163369
-0.0016120954
-0.004132262
-0.0033756458
-0.0016783602
-0.0012400412
-0.0078620584
-0.010494511
-0.0063174573
-0.0017910273
-0.00055052507
0.00060383136
-0.022102843
-0.033280525
-0.023359734
-0.011522135
0.0061602958
0.01145552
0.0093094761
0.0079124121
0.0046814519
0.002680245
0.0033989954
0.0054434014
0.0071194034
0.0078081433
0.0076352349
0.0068434081
0.0057247948
0.0044303345
0.0030680514
0.001714298
0.00044827068
-0.00065881032
-0.0015519628
-0.0022002327
-0.0026014915
-0.002779475
-0.0027758655
-0.0026404898
-0.0024242099
-0.0021741969
-0.0019321671
-0.0017353368
-0.0016189335
-0.0064216043
-0.0033853
-0.0043448967
-0.0022371477
-0.0015405655
-0.00906123
-0.0070226397
-0.0045011779
-0.0028681319
-0.00022717997
-0.023692379
-0.036652281
-0.027288609
-0.014928683
0.0049004274
0.011185851
0.0088467946
0.0079422734
0.0039822332
0.0012624818
0.0019615683
0.0047954355
0.0072619917
0.0085257348
0.0086219924
0.0079306166
0.006797056
0.0054649967
0.0040230166
0.0025579081
0.0011424342
-0.00014589417
-0.0012369418
-0.0020816023
-0.0026583339
-0.0029769444
-0.0030718477
-0.0029925163
-0.0027925718
-0.0025243884
-0.0022348289
-0.0019643292
-0.0017483858
-0.0016206073
-0.0072839717
-0.0048729909
-0.0026832513
-0.0051625931
-0.0027863
-0.0017602788
-0.0078384659
-0.0074638016
-0.0055779331
-0.0016066499
-0.025072352
-0.039774857
-0.030813576
-0.019410576
0.0015975291
0.011087909
0.0077477034
0.007557976
0.0030447837
-0.00074768626
-8.2888067e-05
0.0036318792
0.0071850934
0.0091903474
0.0096706988
0.0090852283
0.0079522714
0.006573173
0.0050702461
0.0035102016
0.0019626937
0.00050287548
-0.00078989814
-0.0018472383
-0.0026269454
-0.0031194115
-0.0033469687
-0.0033543332
-0.003197756
-0.0029333518
-0.0026144548
-0.0022870315
-0.0019896461
-0.0017558241
-0.0016174456
-0.008639879
-0.0053013908
-0.0032968629
-0.0020436841
-0.0057687434
-0.0033290585
-0.001896459
-0.010507965
-0.0085421092
-0.0035846033
-0.026025505
-0.042195576
-0.034354495
-0.023954409
-0.0021901017
0.0090095967
0.0061677137
0.0069450023
0.0015147611
-0.0033619333
-0.0030647243
0.0018445227
0.0067926466
0.009791712
0.01075749
0.010318792
0.0091718523
0.0077565374
0.0061926733
0.0045573107
0.0029015267
0.0012886774
-0.00019938217
-0.0014784766
-0.0024838402
-0.0031825879
-0.0035790695
-0.003708473
-0.0036249001
-0.0033903723
-0.0030622903
-0.0026944914
-0.0023311426
-0.0020084581
-0.001757932
-0.0016097333
-0.013488159
-0.0093115691
-0.0033467193
-0.0017690721
-0.0015258387
-0.0061264335
-0.0038498113
-0.0019668333
-0.011536934
-0.0060406296
-0.026506607
-0.043658652
-0.037343315
-0.02816101
-0.0064750074
0.0062469927
0.0041931536
0.0057104146
-0.00014851498
-0.0070460876
-0.0070439136
-0.00076226719
0.0059739849
0.010232399
0.011892382
0.011603387
0.010472113
0.0089907736
0.0073769886
0.0056803219
0.0039427881
0.0022049477
0.00053970591
-0.00095995947
-0.0022061493
-0.0031406525
-0.003743151
-0.0040331664
-0.004058574
-0.0038816316
-0.0035694605
-0.0031793024
-0.0027648385
-0.0023674053
-0.0020208911
-0.001754894
-0.0015978133
-0.014306853
-0.016277338
-0.0098381087
-0.0015593765
-0.00039003102
-0.001114532
-0.0062153777
-0.0043346594
-0.0020182367
-0.0090667696
-0.026391111
-0.043917244
-0.03958962
-0.031662221
-0.011009758
0.001675765
0.002751483
0.0033573467
-0.0029640483
-0.011264683
-0.012472276
-0.0042670097
0.0045154456
0.010435274
0.013013266
0.012946561
0.011798537
0.010277146
0.0085934525
0.0068556061
0.0050637929
0.0032367474
0.0014245665
-0.0002810974
-0.0017743759
-0.0029671438
-0.0038116378
-0.0043033663
-0.0044777441
-0.0043945189
-0.0041228409
-0.0037347762
-0.0032846242
-0.0028255614
-0.0023956299
-0.0020269377
-0.0017470532
-0.0015821957
-0.012501723
-0.016771655
-0.018633592
-0.010094083
-4.4205539e-05
0.0008384185
-0.00083403295
-0.0060326866
-0.0046658391
-0.0021008161
-0.025507389
-0.04282285
-0.040697166
-0.034160752
-0.015701545
-0.0042163774
-0.00073780459
0.00077842953
-0.005332027
-0.017400181
-0.018889823
-0.0086483389
0.0021423995
0.010183151
0.014056752
0.014302046
0.013147051
0.011552072
0.009830506
0.0080469812
0.0062348393
0.0043596655
0.0024432619
0.00056117033
-0.0011712535
-0.002637339
-0.0037550289
-0.0044904939
-0.00485802
-0.0049089396
-0.0047138407
-0.0043475397
-0.0038851001
-0.0033781343
-0.0028759863
-0.0024155785
-0.0020271925
-0.0017353881
-0.001563342
-0.023840068
-0.015977798
-0.018851654
-0.020506303
-0.010055904
0.0010841256
0.0018807541
-0.00070050375
-0.0056555216
-0.004728077
-0.0021253247
-0.040254403
-0.040553729
-0.035307758
-0.020418127
-0.011586983
-0.0062575466
-0.0022153543
-0.006935169
-0.022562535
-0.026689174
-0.014519959
-0.001252334
0.0093121998
0.014946171
0.015573817
0.014448195
0.012818339
0.011020453
0.0092314233
0.0074131152
0.0055402312
0.0035735938
0.0015606566
-0.00038640929
-0.0021279933
-0.0035428453
-0.0045627028
-0.0051706633
-0.0054018522
-0.005323157
-0.0050149768
-0.0045570966
-0.0040213315
-0.0034585592
-0.0029156101
-0.0024285059
-0.0020236146
-0.0017208115
-0.0015410041
-0.036351636
-0.021463214
-0.018696146
-0.020513147
-0.021796685
-0.0097814424
0.0018246705
0.0026820934
-0.00070668747
-0.0051954687
-0.0047095147
-0.0020375838
-0.038992719
-0.03482753
-0.025029061
-0.019918286
-0.013172074
-0.0063133831
-0.0089670566
-0.027354944
-0.034088557
-0.023122353
-0.006430662
0.0073969779
0.015558191
0.016734871
0.015596996
0.013973837
0.012166136
0.01033598
0.008564265
0.006731555
0.0047815406
0.00270088
0.00058246669
-0.0014197071
-0.003146734
-0.0044851032
-0.0053825061
-0.005845273
-0.0059298131
-0.0057177792
-0.0052973515
-0.0047493634
-0.0041413163
-0.003524987
-0.0029466754
-0.0024378394
-0.0020175232
-0.0017018936
-0.0015133823
-0.035761431
-0.031206406
-0.018612386
-0.020221958
-0.021582167
-0.02247598
-0.0093366399
0.0022549835
0.0032299951
-0.00083124777
-0.0047374811
-0.0045308226
-0.0019118459
-0.032637107
-0.029527645
-0.028614218
-0.021367773
-0.011769944
-0.012097772
-0.031430136
-0.044081473
-0.034029909
-0.013830727
0.0039697305
0.015299454
0.01749586
0.01657669
0.014957789
0.013147047
0.011355887
0.0096084039
0.0078884036
0.0060199592
0.0039519251
0.0017280624
-0.00050003471
-0.0025378371
-0.004222541
-0.0054561518
-0.0062057578
-0.0065074628
-0.0064379401
-0.0060914412
-0.0055595617
-0.0049213699
-0.0042434089
-0.0035808041
-0.0029745915
-0.0024449407
-0.0020048654
-0.0016743965
-0.0014809922
-0.028718637
-0.030955945
-0.025431882
-0.015535088
-0.020838616
-0.021917681
-0.022568519
-0.0088178002
0.0024619817
0.0035755854
-0.00096063854
-0.004361417
-0.0043147268
-0.0018306101
-0.033572243
-0.037365822
-0.030865317
-0.018887494
-0.015878346
-0.036484413
-0.053481457
-0.04872272
-0.022641293
0.00033851448
0.013922018
0.017629199
0.016898594
0.01569784
0.01394454
0.012162523
0.010530906
0.0089239571
0.0072353881
0.0052712419
0.0030296719
0.00063627274
-0.0016920926
-0.003738712
-0.0053502292
-0.0064445386
-0.0070234142
-0.0071514783
-0.0069238045
-0.006442069
-0.0057974674
-0.0050705728
-0.0043321978
-0.0036340293
-0.003000486
-0.0024415547
-0.0019772584
-0.001642245
-0.0014442746
-0.036530429
-0.023646105
-0.025468447
-0.019453301
-0.012535178
-0.02070674
-0.021541888
-0.022117548
-0.0082747072
0.0024541516
0.0037668793
-0.0011732756
-0.0041189326
-0.0038932181
-0.0017357126
-0.045905276
-0.041278442
-0.027693182
-0.019953406
-0.042053088
-0.06387718
-0.062005879
-0.035207325
-0.0072542674
0.012718586
0.016677548
0.016859619
0.015893233
0.014437322
0.012762441
0.011188735
0.0098102081
0.0083375537
0.0066030312
0.0044542928
0.0019818363
-0.00059042617
-0.0029987813
-0.0050228673
-0.0065171602
-0.0074384855
-0.0078275496
-0.0077733931
-0.007384331
-0.0067639812
-0.0060073096
-0.0052029524
-0.0044191089
-0.0036856133
-0.0030100996
-0.0024137961
-0.0019447564
-0.0016054187
-0.0014032689
-0.053632361
-0.038532814
-0.018359192
-0.020038447
-0.013589166
-0.0096603122
-0.019860437
-0.020602449
-0.021173002
-0.0078437966
0.0021662387
0.0037285008
-0.0014042511
-0.0038379189
-0.003386918
-0.0016643185
-0.051904613
-0.037308907
-0.024082952
-0.047791651
-0.073509621
-0.078083881
-0.048451816
-0.018293249
0.0065753278
0.01643854
0.014538083
0.015665865
0.014492314
0.01300094
0.011602865
0.010383006
0.0092808892
0.0078596917
0.0059520523
0.0035186733
0.00077082817
-0.0019686404
-0.0044315428
-0.0063747889
-0.0077065089
-0.0084278041
-0.0086122242
-0.0083687715
-0.0078119057
-0.0070513772
-0.0061961264
-0.0053340385
-0.0045048433
-0.0037129697
-0.0029824477
-0.0023805907
-0.0019071964
-0.0015640464
-0.0013578424
-0.061431791
-0.060041402
-0.039095481
-0.012999159
-0.014795652
-0.0081218268
-0.0068833148
-0.018420985
-0.019188749
-0.020000923
-0.0074203274
0.001972117
0.0035549186
-0.0015512744
-0.0036208886
-0.0028961321
-0.0015689104
-0.046371857
-0.028857799
-0.053335206
-0.081805608
-0.091816306
-0.063623871
-0.032079754
-0.00044879735
0.012385232
0.017055841
0.014435285
0.01410711
0.012853138
0.011572346
0.010668748
0.0098819554
0.0089791774
0.007446275
0.0052098953
0.0024008333
-0.00062870786
-0.0035178337
-0.0059609089
-0.0077730387
-0.0089055582
-0.0094042526
-0.0093711988
-0.0089277257
-0.0081981272
-0.0073124247
-0.0063841759
-0.0054642859
-0.0045558597
-0.0036862702
-0.0029483143
-0.0023417348
-0.0018648153
-0.001517985
-0.0013079867
-0.053702669
-0.068785332
-0.064128565
-0.037989555
-0.0082336176
-0.0096822693
-0.0032316461
-0.0042799372
-0.016570245
-0.017527069
-0.018463439
-0.0066769833
0.0019297363
0.0032251758
-0.0015996079
-0.0033310973
-0.0023735299
-0.0013832726
-0.034827358
-0.057821735
-0.08799976
-0.10360072
-0.080720787
-0.046339108
-0.0099216266
0.0084653574
0.010123312
0.012786828
0.012949739
0.012176337
0.01114482
0.010396878
0.010153491
0.0097699516
0.0088685803
0.0069992454
0.0042797515
0.0010463984
-0.0022264957
-0.0052178223
-0.0075744172
-0.009204391
-0.010104
-0.010359214
-0.010091844
-0.0094384495
-0.0085518211
-0.0075738916
-0.0065721432
-0.005547126
-0.0045318216
-0.0036511271
-0.0029077828
-0.0022977717
-0.0018175557
-0.0014672901
-0.0012536882
-0.041310726
-0.058859557
-0.073175503
-0.065838096
-0.035909989
-0.0044448845
-0.005079183
0.00099166496
-0.0018878552
-0.014531671
-0.015563574
-0.016788309
-0.0058600652
0.0017820751
0.002832613
-0.001516052
-0.0029724713
-0.0020976989
-0.0012193853
-0.060361547
-0.091262408
-0.1118177
-0.096376173
-0.059065844
-0.020772904
4.54765e-05
0.0079803862
0.0090821811
0.011220755
0.010925553
0.010001082
0.0096486285
0.0097498511
0.010223243
0.010033346
0.0088279845
0.0063774883
0.0030660249
-0.00056596304
-0.0040659638
-0.0070448192
-0.0092576443
-0.010655751
-0.011290659
-0.011276742
-0.010757881
-0.0099098481
-0.0089067842
-0.0078368413
-0.0066975664
-0.0055281891
-0.0044961371
-0.0036086808
-0.0028618155
-0.002248661
-0.0017654049
-0.0014119127
-0.0011948892
-0.060261791
-0.047443404
-0.061395179
-0.074699504
-0.065071339
-0.033209105
-0.0016933453
-0.00097936143
0.0044364386
0.00029660691
-0.012457545
-0.013831589
-0.014873942
-0.0052428382
0.001497794
0.0023681969
-0.0013884193
-0.002595421
-0.0017559344
-0.0010312889
-0.090646928
-0.11506427
-0.10771301
-0.070556291
-0.032834188
-0.0096574241
0.0022675472
0.0054232154
0.0080872497
0.0090184998
0.0084094169
0.0079843585
0.0087732696
0.0099343835
0.010911019
0.010527142
0.0086552724
0.0054271825
0.001515244
-0.0024788539
-0.0061233337
-0.0089971568
-0.010993719
-0.012112619
-0.012445445
-0.012134824
-0.011377005
-0.01038412
-0.0092652219
-0.0080186191
-0.0066872078
-0.005492663
-0.0044517083
-0.0035603856
-0.0028103724
-0.0021943428
-0.0017083406
-0.0013517829
-0.0011316862
-0.085922468
-0.057164308
-0.050915687
-0.061604759
-0.073286908
-0.062208225
-0.030112133
2.9225411e-05
0.0025867731
0.0071158695
0.0023758306
-0.010647497
-0.012397565
-0.012860494
-0.0045987801
0.0011719766
0.0016674478
-0.0011169461
-0.0020250472
-0.0015395633
-0.00085726318
-0.11245802
-0.11351075
-0.079756187
-0.04493362
-0.021277065
-0.0065051449
-2.4976005e-05
0.0047584968
0.0064120259
0.005767878
0.0059140246
0.0066832066
0.0090071513
0.011092277
0.012039747
0.010991845
0.0081141832
0.0040457345
-0.00042171178
-0.0047187659
-0.0083526788
-0.011048865
-0.012762523
-0.013550227
-0.013538796
-0.012938088
-0.012001018
-0.010865179
-0.0095211547
-0.0080219544
-0.006652907
-0.0054468442
-0.0044009782
-0.003506242
-0.0027533561
-0.002134886
-0.001646384
-0.0012872067
-0.0010639506
-0.10423967
-0.077053742
-0.051793561
-0.050449778
-0.059912297
-0.069420713
-0.057561014
-0.026930101
0.00082956204
0.005004412
0.008764395
0.0040285362
-0.0094367975
-0.010681255
-0.010951401
-0.0038928678
0.0008493617
0.0011025829
-0.00095538045
-0.0017625208
-0.001213818
-0.00064108712
-0.11319901
-0.084579713
-0.05603554
-0.034051695
-0.019335822
-0.0080473845
-0.00097336845
0.0039560123
0.0029867159
0.0022582316
0.0039992137
0.0067182344
0.010688781
0.012996466
0.013326088
0.011051886
0.0070296612
0.002156318
-0.0027848853
-0.007232833
-0.010739693
-0.013170782
-0.014533046
-0.014928801
-0.014569775
-0.01374918
-0.012637767
-0.011217857
-0.0095462293
-0.0079905651
-0.0066066257
-0.0053939832
-0.0043438795
-0.0034460691
-0.002690933
-0.002070361
-0.0015798482
-0.0012178208
-0.00099180333
-0.10654434
-0.0910778
-0.065528332
-0.044575025
-0.046615113
-0.056265827
-0.06358619
-0.0516418
-0.024048687
0.00086426808
0.0061471484
0.0098984725
0.0048106406
-0.0082461968
-0.0083181427
-0.0092605372
-0.0030625206
0.00050451913
0.00053614271
-0.00076110984
-0.00126241
-0.00099150196
-0.00071833208
-0.08429247
-0.064800732
-0.047528979
-0.034921621
-0.019193492
-0.0098439093
-0.00048969284
0.00047413783
-0.0011005297
-0.00086837503
0.0034935074
0.0087736333
0.013723671
0.015420824
0.014214041
0.010430997
0.0052881676
-0.00028038772
-0.0055551666
-0.0099733657
-0.013257954
-0.015327411
-0.016253539
-0.016239036
-0.015613008
-0.014582894
-0.013117726
-0.011275348
-0.0095207125
-0.0079456811
-0.006552277
-0.0053338785
-0.0042802142
-0.0033801147
-0.0026232199
-0.0020011204
-0.0015082921
-0.0011438394
-0.00091524012
-0.079781459
-0.093766141
-0.075615495
-0.052351915
-0.035992986
-0.040110651
-0.050426554
-0.056623811
-0.04490577
-0.021742031
0.00081749236
0.0072387283
0.0098103123
0.0056692808
-0.0065520094
-0.0062220915
-0.0075345269
-0.0025680158
0.00024746767
0.00021086772
-0.00063745463
-0.0012094232
-0.00076205287
-0.00050629947
-0.069064538
-0.060447013
-0.051873296
-0.034969789
-0.022158363
-0.0081348626
-0.0028885451
-0.0050798415
-0.005083839
-0.0024479098
0.0056549367
0.012941333
0.017219153
0.017391452
0.014234131
0.0089669972
0.0028389287
-0.0032644328
-0.0086671277
-0.01292235
-0.015853264
-0.017450975
-0.017902667
-0.01756847
-0.016694685
-0.015228923
-0.013223457
-0.011259848
-0.0094804232
-0.0078910015
-0.0064896012
-0.0052665073
-0.0042102186
-0.0033086362
-0.0025506357
-0.001926589
-0.0014316574
-0.0010653421
-0.00083443804
-0.067301521
-0.071956276
-0.077563881
-0.059565408
-0.039256511
-0.026734142
-0.03209825
-0.042865185
-0.048730025
-0.038412717
-0.018792198
0.0016039597
0.0078850108
0.0098921358
0.0056111324
-0.0046162513
-0.0048964977
-0.0058240084
-0.0020790946
4.6233887e-05
1.978438e-05
-0.0005164222
-0.00071221298
-0.00060159922
-0.00037234148
-0.071362206
-0.069596101
-0.05461176
-0.038733759
-0.019267407
-0.008525255
-0.0091857673
-0.011397202
-0.0083378989
-0.00032879227
0.011013364
0.01818976
0.020594789
0.018276675
0.013170991
0.0065978239
-0.0003074745
-0.0067401793
-0.012074222
-0.016017938
-0.018446291
-0.019506716
-0.0195823
-0.01896029
-0.01755635
-0.015404117
-0.013224371
-0.011229027
-0.0094274629
-0.0078266589
-0.0064185137
-0.0051920734
-0.0041344174
-0.0032320541
-0.0024723525
-0.0018462834
-0.0013504079
-0.00098260383
-0.0007493774
-0.07906526
-0.061363786
-0.061136587
-0.060834707
-0.04423208
-0.026954309
-0.017513196
-0.023709494
-0.034397598
-0.040194533
-0.031693797
-0.015016316
0.0033190286
0.0081337543
0.0093500387
0.0052034239
-0.0028762436
-0.0037455454
-0.0043349772
-0.0016440061
-8.8349789e-05
-3.2983634e-05
-0.00039196286
-0.00068164328
-0.0004196757
-0.00025497788
-0.086790074
-0.077451252
-0.060425901
-0.03452596
-0.016934279
-0.014951093
-0.017063927
-0.018556803
-0.0082009955
0.0065999961
0.01797721
0.023327146
0.022611601
0.017777381
0.010979863
0.0033306786
-0.0041225058
-0.010634891
-0.015720484
-0.019151573
-0.020985046
-0.021611327
-0.021358969
-0.020099903
-0.017829631
-0.015430343
-0.013210603
-0.011181003
-0.0093630587
-0.0077522758
-0.0063393762
-0.005111394
-0.0040531582
-0.0031491726
-0.0023873553
-0.0017612307
-0.0012647755
-0.00089566697
-0.00066022711
-0.10173903
-0.082734141
-0.054915111
-0.04852272
-0.04519563
-0.030271064
-0.015434105
-0.0088787264
-0.015725244
-0.026549009
-0.029636862
-0.025913277
-0.011090509
0.0043796355
0.0080841861
0.0086072375
0.0046463552
-0.0016264476
-0.0026418896
-0.0030396018