/*--------------------------------*- C++ -*----------------------------------*\
| =========                 |                                                 |
| \\      /  F ield         | OpenFOAM: The Open Source CFD Toolbox           |
|  \\    /   O peration     | Version:  5.0                                   |
|   \\  /    A nd           | Web:      www.OpenFOAM.org                      |
|    \\/     M anipulation  |                                                 |
\*---------------------------------------------------------------------------*/
FoamFile
{
    version     2.0;
    format      ascii;
    class       surfaceScalarField;
    location    "120";
    object      phi;
}
// * * * * * * * * * * * * * * * * * * * * * * * * * * * * * * * * * * * * * //

dimensions      [0 3 -1 0 0 0 0];

internalField   nonuniform List<scalar> 
18820
(
-0.00012716399
-1.3549047
-0.0002438512
-1.2671172
-0.00012866474
-1.354776
-0.00034853091
-1.1851243
-0.00024651523
-1.2669994
-0.00013385117
-1.3546422
-0.00043977514
-1.108513
-0.00035217334
-1.1850187
-0.00025643936
-1.2668768
-0.00014561068
-1.3544965
-0.0005160779
-1.036912
-0.00044401259
-1.1084211
-0.00036683668
-1.1849083
-0.00027984203
-1.2667426
-0.00015481257
-1.3543417
-0.00057574682
-0.96997214
-0.00052030229
-1.0368357
-0.00046355458
-1.1083244
-0.0004024822
-1.1847856
-0.00029887428
-1.2665985
-0.00016193025
-1.3541798
-0.00061709804
-0.90737578
-0.00057906216
-0.96991338
-0.00054510525
-1.0367541
-0.00051287762
-1.108214
-0.00043222472
-1.1846523
-0.00031465429
-1.2664458
-0.00016284536
-1.354017
-0.00063725986
-0.84883232
-0.00061793337
-0.90733691
-0.00061029581
-0.96984819
-0.00060991118
-1.0366571
-0.0005549482
-1.1080913
-0.00045884191
-1.1845081
-0.00031801909
-1.2662906
-0.00016134499
-1.3538556
-0.00063617737
-0.79407481
-0.00063524821
-0.84881501
-0.00065785448
-0.90728935
-0.00069191232
-0.96976618
-0.00066674348
-1.0365453
-0.00059547226
-1.1079547
-0.00046693619
-1.1843592
-0.00031621123
-1.2661357
-0.00015942099
-1.3536962
-0.00061600958
-0.74284513
-0.00063866733
-0.79407139
-0.00068961427
-0.84878325
-0.00075782701
-0.90722344
-0.0007676136
-0.96966531
-0.00072496354
-1.0364158
-0.00061099811
-1.1078106
-0.00046717067
-1.1842082
-0.00031280896
-1.2659824
-0.00015889329
-1.3535373
-0.00057966532
-0.69490967
-0.00063079572
-0.74285301
-0.00070410066
-0.79405691
-0.00080584925
-0.84873523
-0.00085750767
-0.90713354
-0.0008474386
-0.96954284
-0.00075098771
-1.0362758
-0.00061588248
-1.1076619
-0.00046396199
-1.1840571
-0.00031203681
-1.2658292
-0.0001587947
-1.3533785
-0.00052744828
-0.65005223
-0.00060815165
-0.69493231
-0.00069729192
-0.74285981
-0.0008316001
-0.79403116
-0.00093429154
-0.84865844
-0.00096242598
-0.90701856
-0.00088738361
-0.96940644
-0.00076323693
-1.0361285
-0.00061489401
-1.107511
-0.00046423895
-1.1839049
-0.00031219166
-1.2656758
-0.00015738476
-1.3532211
-0.00046159235
-0.60808156
-0.00056809
-0.65009229
-0.0006651218
-0.69496448
-0.00083022366
-0.74286119
-0.00099380547
-0.79397164
-0.0010691365
-0.84855173
-0.0010211007
-0.90688484
-0.0009095214
-0.96926016
-0.0007669025
-1.0359764
-0.00061805703
-1.1073571
-0.00046544574
-1.1837516
-0.00031007342
-1.2655231
-0.00015263149
-1.3530685
-0.0003819358
-0.56881952
-0.0005119004
-0.60813775
-0.00060309629
-0.65015431
-0.00079741328
-0.69499729
-0.0010315439
-0.74282345
-0.0011686127
-0.79387217
-0.0011549611
-0.84841787
-0.001055023
-0.90673934
-0.00092032926
-0.96910673
-0.00077530671
-1.0358192
-0.00062180578
-1.1072008
-0.00046320128
-1.1835985
-0.000301545
-1.2653742
-0.00014351392
-1.352925
-0.0003131791
-0.53205122
-0.00045423531
-0.56887719
-0.00051513197
-0.60822572
-0.00072888183
-0.65022285
-0.0010471289
-0.69498171
-0.0012670282
-0.74272504
-0.001293689
-0.79373344
-0.0012009108
-0.84827198
-0.0010746984
-0.90658497
-0.00093649714
-0.96894554
-0.00078377208
-1.0356572
-0.00062080479
-1.1070432
-0.00045135319
-1.1834487
-0.00028425994
-1.2652335
-0.00013037064
-1.3527946
-0.00023694862
-0.49766908
-0.00038895176
-0.5321165
-0.00040632394
-0.568986
-0.00062455435
-0.60833005
-0.0010399776
-0.65023
-0.001370977
-0.69487776
-0.0014428875
-0.74257584
-0.0013486198
-0.79358573
-0.0012280925
-0.84811859
-0.0011005858
-0.90642088
-0.00095263947
-0.96877667
-0.00078609047
-1.0354919
-0.0006065427
-1.106888
-0.00042661979
-1.1833063
-0.0002585697
-1.2651053
-0.00011465954
-1.3526799
-0.00021116293
-0.465429
-0.00034468318
-0.49771335
-0.00025602533
-0.5322668
-0.00046799428
-0.56914256
-0.0010108238
-0.6083592
-0.0014861891
-0.65011479
-0.0016101441
-0.6947105
-0.0015002811
-0.74242418
-0.0013773487
-0.79343647
-0.0012645135
-0.84795466
-0.0011283552
-0.90624516
-0.00096140921
-0.96860136
-0.00077094632
-1.0353275
-0.0005751016
-1.1067395
-0.00038907408
-1.1831758
-0.0002272923
-1.2649926
-9.8435715e-05
-1.3525815
-0.00019632723
-0.43531129
-0.00031506694
-0.46545862
-7.1560158e-05
-0.49789781
-0.00023232008
-0.53250248
-0.00096021421
-0.56919317
-0.0016180477
-0.60822734
-0.0018113092
-0.64991362
-0.0016606864
-0.6945501
-0.0015187506
-0.74228278
-0.0014232106
-0.79327778
-0.0013087465
-0.84777427
-0.0011482122
-0.90605836
-0.00094813013
-0.96842417
-0.00073356476
-1.0351691
-0.00052627229
-1.1066023
-0.00034231614
-1.1830608
-0.00019465154
-1.2648964
-8.3487166e-05
-1.352498
-0.00028688171
-0.40701589
-0.00031218883
-0.43531417
0.00021006856
-0.46574025
0.00011129377
-0.49824142
-0.0008820932
-0.5325806
-0.0017828412
-0.56902837
-0.0020573613
-0.60798129
-0.0018392149
-0.64973509
-0.0016464661
-0.69442238
-0.0015679877
-0.742138
-0.001488738
-0.79309779
-0.001346906
-0.84757558
-0.001141451
-0.90586504
-0.00090630783
-0.96825143
-0.00067358431
-1.0350218
-0.00046375644
-1.1064809
-0.00029261927
-1.1829628
-0.00016443103
-1.2648155
-7.0754673e-05
-1.3524273
-0.00039874831
-0.38063592
-0.00037342671
-0.40695465
0.00051240058
-0.4356165
0.00059497925
-0.46622393
-0.00075740504
-0.49836611
-0.0020116958
-0.53235174
-0.0023660834
-0.56871965
-0.0020313542
-0.60778915
-0.0017490922
-0.64963247
-0.0016835687
-0.6943068
-0.0016585823
-0.74196815
-0.0015565391
-0.79288815
-0.0013545661
-0.84736246
-0.0010977648
-0.90567358
-0.00083494996
-0.96809006
-0.00059490534
-1.0348906
-0.00039574907
-1.1063777
-0.00024595893
-1.1828813
-0.00013863392
-1.2647476
-6.0326679e-05
-1.3523669
-0.0006705723
-0.35574599
-0.00047933905
-0.38053
0.00099843688
-0.40744069
0.0012556347
-0.43627716
-0.00058205847
-0.46639928
-0.0023337251
-0.49804408
-0.0027767583
-0.53194107
-0.0022367243
-0.56851428
-0.0018054379
-0.6077328
-0.0017431373
-0.6495729
-0.001802742
-0.69416264
-0.0017736939
-0.741751
-0.0015914948
-0.79265122
-0.001313411
-0.84714682
-0.0010147392
-0.90549379
-0.00073888707
-0.96794608
-0.00050708313
-1.0347793
-0.00033090544
-1.1062928
-0.00020578314
-1.1828142
-0.00011739655
-1.2646905
-5.1856303e-05
-1.3523151
-0.00095430574
-0.33259202
-0.00068256586
-0.35554277
0.0014811828
-0.38101275
0.0021586485
-0.4083437
-0.00030486123
-0.43655436
-0.0027871401
-0.46594587
-0.0033453384
-0.4974755
-0.0024778725
-0.53169992
-0.0017928482
-0.56852687
-0.001732833
-0.60774311
-0.001901018
-0.64947462
-0.0019940208
-0.69394231
-0.0018579418
-0.74148455
-0.0015607304
-0.7924039
-0.0012183811
-0.84694317
-0.00089896812
-0.90533371
-0.00062929684
-0.96782387
-0.00042198805
-1.0346882
-0.00027441864
-1.1062242
-0.00017251757
-1.182759
-9.9879391e-05
-1.2646425
-4.4898857e-05
-1.3522702
-0.0014251082
-0.31070276
-0.00091220904
-0.33236238
0.0022496435
-0.35631123
0.0033200236
-0.38217412
5.1064955e-05
-0.40869963
-0.0034116345
-0.43592986
-0.0041275846
-0.46516362
-0.0027819675
-0.49717141
-0.0016978553
-0.53179491
-0.0016188229
-0.56864088
-0.0019481996
-0.60769593
-0.0022132675
-0.64925538
-0.0021630259
-0.69363723
-0.0018510476
-0.74119424
-0.0014531037
-0.79216918
-0.0010787683
-0.84676337
-0.00076449418
-0.90519852
-0.00052144829
-0.96772441
-0.00034708471
-1.0346155
-0.00022710794
-1.1061696
-0.00014482942
-1.1827141
-8.5166813e-05
-1.2646022
-3.89409e-05
-1.3522312
-0.0019103984
-0.29018762
-0.0012700867
-0.31034489
0.0029811505
-0.33309388
0.004843904
-0.35783511
0.00058969381
-0.38271275
-0.0042792581
-0.407832
-0.0052005478
-0.4348569
-0.0031774108
-0.46476818
-0.0014908614
-0.4973784
-0.0013315696
-0.53208217
-0.0019265796
-0.5686625
-0.0024283051
-0.60748089
-0.0025198384
-0.64889856
-0.0022009301
-0.69328735
-0.0017292601
-0.74091808
-0.001282232
-0.79196572
-0.00091407055
-0.8466138
-0.00063080327
-0.90508916
-0.000425727
-0.96764576
-0.00028350829
-1.0345591
-0.00018731374
-1.1061271
-0.00012108061
-1.1826782
-7.2476684e-05
-1.2645687
-3.3405049e-05
-1.3521978
-0.0026638252
-0.27023372
-0.0015913868
-0.28986632
0.0041047433
-0.31146848
0.0066703635
-0.33492034
0.0012606847
-0.3585061
-0.0054264273
-0.38156558
-0.0066363998
-0.40639615
-0.0037077143
-0.4343266
-0.0011450853
-0.46511395
-0.00080192961
-0.49790804
-0.0017731102
-0.53223564
-0.002643781
-0.56844703
-0.0029400523
-0.60706068
-0.0026348438
-0.64846465
-0.00206126
-0.69295535
-0.0015143212
-0.74068599
-0.0010784538
-0.79180134
-0.0007501549
-0.84649445
-0.00051163025
-0.90500326
-0.00034365588
-0.96758562
-0.00022919588
-1.0345173
-0.00015274633
-1.1060954
-9.9996342e-05
-1.1826506
-6.0926518e-05
-1.2645412
-2.7882758e-05
-1.35217
-0.0034733447
-0.25116202
-0.0020084119
-0.2698167
0.0050600657
-0.29082164
0.0087850713
-0.31358319
0.002217699
-0.33587736
-0.007008747
-0.35692378
-0.0085419953
-0.37965999
-0.004409366
-0.4056945
-0.00063256259
-0.43483912
3.9373319e-05
-0.46595526
-0.0014179908
-0.49826316
-0.0028562389
-0.53202318
-0.0034475672
-0.56793951
-0.0031775733
-0.60651795
-0.002470311
-0.6480556
-0.0017808084
-0.69268886
-0.0012562506
-0.74050819
-0.00087747734
-0.79167401
-0.00060466811
-0.84640141
-0.00040909169
-0.90493782
-0.00027259261
-0.96754222
-0.000181336
-1.0344887
-0.00012145906
-1.106074
-8.059708e-05
-1.182631
-4.9676594e-05
-1.2645194
-2.2379699e-05
-1.3521476
-0.0044208045
-0.23297857
-0.0022953876
-0.25087504
0.0066819537
-0.27143858
0.011025224
-0.2930618
0.0032682435
-0.31463373
-0.0089863563
-0.33389975
-0.010991653
-0.35447412
-0.0053512527
-0.3787181
8.9795437e-05
-0.40641686
0.0012946334
-0.43609438
-0.00077898213
-0.46659426
-0.0030533708
-0.49806603
-0.0040856827
-0.53138506
-0.0038656849
-0.5672514
-0.0029797281
-0.60600853
-0.0020886585
-0.64774775
-0.0014435787
-0.69250153
-0.0010074048
-0.74037827
-0.00070245021
-0.79157623
-0.00048042021
-0.84633008
-0.00031961469
-0.9048908
-0.0002091265
-0.96751443
-0.00013758703
-1.0344725
-9.2317045e-05
-1.1060622
-6.2186676e-05
-1.1826185
-3.8514273e-05
-1.2645033
-1.7257417e-05
-1.3521303
-0.0053500208
-0.21577192
-0.0025394938
-0.23273447
0.0087785168
-0.2529716
0.013740185
-0.27415354
0.0045987595
-0.29439231
-0.011375688
-0.3122444
-0.014108787
-0.33078261
-0.0065501465
-0.35327523
0.0010710197
-0.37969933
0.0030680584
-0.40819028
0.00024130546
-0.43711467
-0.0032070111
-0.46644062
-0.0049032333
-0.49724848
-0.004762942
-0.53048781
-0.0036199713
-0.56661116
-0.0024464379
-0.60565075
-0.0016325149
-0.64755881
-0.0011298601
-0.69237908
-0.00079901552
-0.7402817
-0.00055649736
-0.79150015
-0.00037211553
-0.84627758
-0.00023886103
-0.90486106
-0.00015065651
-0.96750136
-9.6846977e-05
-1.034468
-6.4882695e-05
-1.1060595
-4.4470111e-05
-1.1826125
-2.7852957e-05
-1.2644927
-1.2963246e-05
-1.3521174
-0.0062825164
-0.1996197
-0.002511292
-0.21580012
0.011478173
-0.23543412
0.016851894
-0.25608331
0.0057966727
-0.27535146
-0.0140108
-0.2917572
-0.017993215
-0.30835997
-0.0081152577
-0.3292175
0.0023716583
-0.35457587
0.0054876745
-0.38211894
0.0017488288
-0.40969781
-0.0032862202
-0.43703546
-0.0059570045
-0.46538685
-0.0059517076
-0.49605971
-0.0044412497
-0.52966653
-0.0028622542
-0.56619534
-0.001811687
-0.60547158
-0.0012278542
-0.64746082
-0.00088304388
-0.69229505
-0.000633572
-0.74020463
-0.0004311754
-0.79144109
-0.00027368168
-0.84624276
-0.0001638845
-0.90484784
-9.5955836e-05
-0.96750225
-5.8245847e-05
-1.0344746
-3.8647238e-05
-1.1060654
-2.7443969e-05
-1.1826129
-1.874715e-05
-1.2644869
-9.820696e-06
-1.3521075
-0.0071863148
-0.18437332
-0.002384752
-0.19974624
0.014687614
-0.21900956
0.020398041
-0.23898027
0.0072380861
-0.25752472
-0.01733444
-0.27202782
-0.022685992
-0.28706442
-0.010062947
-0.30641228
0.0040504991
-0.33089634
0.0086821872
-0.35777038
0.0038707836
-0.3842409
-0.0032561315
-0.4097279
-0.0073170791
-0.43567538
-0.0075329869
-0.46380557
-0.0055104117
-0.49499055
-0.0033470689
-0.52918171
-0.0019629913
-0.56604404
-0.0012758478
-0.60542359
-0.00093610233
-0.64740776
-0.00070384439
-0.69222478
-0.00049682535
-0.74013898
-0.00031735179
-0.79139742
-0.00018132155
-0.84622532
-9.2816913e-05
-0.90485098
-4.3354236e-05
-0.96751714
-2.0906772e-05
-1.0344924
-1.3792146e-05
-1.106079
-1.263165e-05
-1.182619
-1.1961097e-05
-1.2644847
-7.98518e-06
-1.3520995
-0.0099356986
-0.1998628
-0.0020767681
-0.1846813
0.018062385
-0.20312101
0.023988718
-0.22260024
0.0085657496
-0.24030793
-0.020671567
-0.2541876
-0.028127334
-0.26658648
-0.012481224
-0.28464615
0.0062531456
-0.30861493
0.012798875
-0.33501303
0.0067294883
-0.36062908
-0.0030711752
-0.38442585
-0.0090642054
-0.40798077
-0.0096331036
-0.43357527
-0.0069115291
-0.46240446
-0.0039168815
-0.49442074
-0.0020590451
-0.52908566
-0.0012396363
-0.56608025
-0.00093031432
-0.60542937
-0.00075452539
-0.64735708
-0.00056782257
-0.69215378
-0.00037416421
-0.74008216
-0.00020872101
-0.79137002
-9.1791066e-05
-0.84622635
-2.3320886e-05
-0.90487101
7.835378e-06
-0.96754589
1.4183367e-05
-1.0345204
7.6824298e-06
-1.1060993
-1.5637626e-06
-1.1826294
-7.822849e-06
-1.2644849
-7.4122781e-06
-1.3520921
-0.012233746
-0.19707035
-0.003483038
-0.19845653
0.021514861
-0.18813378
0.027322949
-0.20645524
0.0089456828
-0.22298017
-0.024629324
-0.23635018
-0.034293127
-0.2480218
-0.015126698
-0.263941
0.0091180571
-0.28751106
0.017971866
-0.31378792
0.010466256
-0.3387498
-0.0026937508
-0.36100651
-0.011295916
-0.38219414
-0.012395619
-0.40521825
-0.0087494154
-0.43173738
-0.0045928937
-0.46172844
-0.002063793
-0.49441599
-0.0010676681
-0.52925763
-0.00083308716
-0.56617748
-0.00076779899
-0.6054161
-0.00064172374
-0.64728318
-0.00044971594
-0.69207823
-0.00025338999
-0.7400375
-9.9673328e-05
-0.79136214
-2.5512157e-06
-0.84624712
4.5972216e-05
-0.90490915
5.6515594e-05
-0.96758822
4.4819108e-05
-1.0345575
2.4725735e-05
-1.1061256
5.4947317e-06
-1.1826428
-6.35691e-06
-1.264486
-7.9555614e-06
-1.3520842
-0.01411409
-0.19404284
-0.0043534669
-0.19619992
0.023482093
-0.20042376
0.030282206
-0.19109303
0.008715673
-0.20622523
-0.029857279
-0.21775222
-0.040865274
-0.22977803
-0.018637872
-0.24451063
0.012847675
-0.26767062
0.024361527
-0.29390072
0.015158346
-0.31848001
-0.002063559
-0.33937999
-0.014127193
-0.35817523
-0.015993066
-0.3785967
-0.011142334
-0.40282534
-0.005398586
-0.43093169
-0.0019314743
-0.46186076
-0.00069463076
-0.49478903
-0.00058578801
-0.52950493
-0.00071981206
-0.56622546
-0.00071425825
-0.60534357
-0.00055075266
-0.64718214
-0.00032564017
-0.69200598
-0.00012504315
-0.74001213
1.3745179e-05
-0.79137844
8.9092849e-05
-0.84629024
0.00011103015
-0.90496366
9.8491295e-05
-0.96764189
6.9059343e-05
-1.0346018
3.5936508e-05
-1.1061561
8.420429e-06
-1.1826575
-7.354566e-06
-1.2644866
-1.0068807e-05
-1.3520741
-0.01561939
-0.19097049
-0.0047881077
-0.1936082
0.026037135
-0.19875496
0.031849144
-0.2019907
0.0080524534
-0.19042981
-0.035544892
-0.20053762
-0.046992015
-0.21162548
-0.022158557
-0.22625734
0.017157001
-0.24881996
0.032006685
-0.27531578
0.020813538
-0.29955591
-0.0011759327
-0.31936764
-0.017684485
-0.3358227
-0.0206036
-0.3535647
-0.014231846
-0.37550719
-0.0063613579
-0.40186256
-0.0016038783
-0.43125929
-3.6923088e-05
-0.46251847
-0.00011852273
-0.4952563
-0.00057164292
-0.5296531
-0.00077184305
-0.56616788
-0.00068347767
-0.60521084
-0.00043913145
-0.64706865
-0.00018046444
-0.69195056
1.5271982e-05
-0.74001365
0.00013138745
-0.79142073
0.00017527441
-0.84635448
0.00016814614
-0.90503332
0.00013247033
-0.9677053
8.5732152e-05
-1.0346516
4.1093786e-05
-1.1061887
7.2185614e-06
-1.1826721
-1.1268607e-05
-1.2644854
-1.3203594e-05
-1.3520609
-0.016765495
-0.18800343
-0.0049218422
-0.19083675
0.028931179
-0.19650224
0.033848714
-0.20075453
0.0066412394
-0.20057949
-0.041321637
-0.18465307
-0.052648014
-0.19488162
-0.02467561
-0.20910842
0.02225215
-0.23135249
0.040904058
-0.25771733
0.027331719
-0.28183396
-7.6308391e-05
-0.30065553
-0.022162264
-0.31488986
-0.026432897
-0.3299934
-0.018157192
-0.34963935
-0.0075065474
-0.374362
-0.0010124865
-0.40245396
0.0010057287
-0.43230194
0.00065752049
-0.46329451
-0.0002660146
-0.49556192
-0.00081609015
-0.52960885
-0.00085064207
-0.56600071
-0.00061215211
-0.60503782
-0.00028367361
-0.64696544
-1.0297722e-05
-0.69192499
0.00016573287
-0.740048
0.00024508275
-0.79149054
0.00025226478
-0.8464386
0.00021521594
-0.90511606
0.00015676619
-0.96777634
9.4455477e-05
-1.034705
4.0476127e-05
-1.106222
1.9888601e-06
-1.1826854
-1.7263274e-05
-1.2644813
-1.7107861e-05
-1.3520438
-0.017575801
-0.18528304
-0.0048571804
-0.18806809
0.031926882
-0.19383246
0.036082081
-0.19873561
0.0055894302
-0.19970272
-0.047740745
-0.19416038
-0.057919884
-0.1793812
-0.026485313
-0.19307192
0.028045093
-0.21490136
0.050981126
-0.24142956
0.034992482
-0.26537809
0.00096554094
-0.28287581
-0.027796823
-0.29502098
-0.0336735
-0.30764925
-0.02307897
-0.32507163
-0.0088599622
-0.34828594
-6.8316753e-05
-0.37530617
0.0025500158
-0.40399824
0.0018461241
-0.43349054
0.00025965767
-0.46382019
-0.0008248643
-0.49555315
-0.0010812056
-0.52937829
-0.00086678568
-0.56574608
-0.00045866374
-0.60486283
-7.8854675e-05
-0.64689688
0.00018206202
-0.69194132
0.00031539865
-0.74011831
0.00034850895
-0.79158679
0.00031687922
-0.84654026
0.00025007978
-0.90520938
0.00017085145
-0.96785273
9.5559227e-05
-1.0347601
3.464522e-05
-1.1062546
-6.2626849e-06
-1.1826964
-2.4790851e-05
-1.2644736
-2.1519646e-05
-1.3520223
-0.018064804
-0.18296283
-0.0047027523
-0.18543747
0.034785807
-0.19092702
0.038445309
-0.19619568
0.0047815296
-0.19792771
-0.053808107
-0.19363536
-0.06486038
-0.18721988
-0.027630215
-0.1782363
0.034340449
-0.19936727
0.061316356
-0.22523659
0.043285185
-0.24972227
0.0024305966
-0.26684315
-0.034779492
-0.27589314
-0.042554631
-0.28613985
-0.029075816
-0.30165241
-0.010443807
-0.32348778
0.0013272279
-0.34968148
0.0047294421
-0.37748559
0.0035709082
-0.40572303
0.0010866476
-0.43431753
-0.0007713935
-0.46387366
-0.0014058893
-0.49522847
-0.0012345746
-0.5290105
-0.00074008229
-0.56546466
-0.00021429874
-0.60472739
0.00016656643
-0.64688139
0.00037956267
-0.69200548
0.00045417289
-0.74022398
0.00043669335
-0.7917066
0.00036621592
-0.8466564
0.00027198791
-0.90531051
0.00017512222
-0.9679323
8.9731427e-05
-1.0348152
2.4196963e-05
-1.1062851
-1.7228588e-05
-1.1827039
-3.3394608e-05
-1.2644617
-2.61541e-05
-1.3519961
-0.018250812
-0.18114789
-0.0045181983
-0.18314739
0.037294892
-0.18794656
0.040737105
-0.19321881
0.0042319089
-0.19564606
-0.059479538
-0.19225628
-0.071408685
-0.18708705
-0.032457886
-0.18239221
0.041126881
-0.18502273
0.071652526
-0.20970344
0.051693629
-0.23364504
0.0048662607
-0.25215793
-0.04283662
-0.25878602
-0.052998358
-0.26544941
-0.036127678
-0.27908798
-0.012225604
-0.29987061
0.0032991032
-0.32545966
0.0076865845
-0.35263862
0.0059638092
-0.37987849
0.0023121099
-0.40694849
-0.00062233837
-0.43446659
-0.0018461238
-0.46343342
-0.0017784208
-0.49468462
-0.0011592794
-0.5285913
-0.00045090624
-0.56522805
0.00010288456
-0.6046637
0.00042987731
-0.6469317
0.0005665352
-0.69211784
0.00057408225
-0.74036137
0.00050558093
-0.79184597
0.00039911276
-0.84678353
0.00028133001
-0.90541672
0.00017036468
-0.96801293
7.7842216e-05
-1.0348688
1.003512e-05
-1.1063124
-2.9931788e-05
-1.1827074
-4.2519765e-05
-1.2644454
-3.0768978e-05
-1.3519654
-0.018145437
-0.17994751
-0.0043433047
-0.18132278
0.039318436
-0.18517093
0.042790691
-0.19000014
0.0038405153
-0.19282742
-0.064657996
-0.19046761
-0.077414242
-0.18625072
-0.036883106
-0.18266183
0.043815316
-0.18508064
0.081762584
-0.19513279
0.059859169
-0.21786898
0.0075892576
-0.23636804
-0.050866169
-0.24412838
-0.064975052
-0.24680932
-0.044212333
-0.25736476
-0.014051494
-0.27726209
0.0059933064
-0.30256481
0.011576557
-0.32934963
0.0091707865
-0.3558456
0.0040446512
-0.38161104
-0.0003418715
-0.40722896
-0.0024279786
-0.43388473
-0.0025651431
-0.4626467
-0.0017802038
-0.4940637
-0.00082091224
-0.5282213
-3.3105194e-05
-0.56509207
0.00045660483
-0.60469043
0.00068335989
-0.64704853
0.00072945494
-0.69227322
0.00066911809
-0.7405249
0.00055337821
-0.79200023
0.00041590313
-0.8469181
0.00027903643
-0.90552539
0.00015771985
-0.96809281
6.0960828e-05
-1.0349197
-6.58366e-06
-1.1063357
-4.3615327e-05
-1.1827063
-5.1694782e-05
-1.2644244
-3.5199282e-05
-1.3519302
-0.17945225
-0.017852353
-0.0042712479
-0.18001956
0.040793663
-0.18279801
0.044459601
-0.18683984
0.0035820719
-0.1897417
-0.069232252
-0.18825316
-0.082822812
-0.18505904
-0.040833209
-0.18230062
0.046962943
-0.18580946
0.089697909
-0.19301597
0.067319678
-0.2025933
0.0089969137
-0.21927664
-0.059018281
-0.22821592
-0.078723042
-0.23038039
-0.053855661
-0.237166
-0.015777582
-0.25563867
0.0095975338
-0.28086632
0.016547461
-0.30753572
0.013334796
-0.33351364
0.0064073922
-0.35820834
0.00012596718
-0.38207887
-0.0031852987
-0.40647164
-0.0036758989
-0.43277398
-0.002690442
-0.46173646
-0.0013676027
-0.49351701
-0.00027096828
-0.52798343
0.00045078431
-0.56508624
0.00080344671
-0.60481052
0.00090487434
-0.64722395
0.00085920214
-0.6924633
0.00073657194
-0.7407081
0.00058041542
-0.79216474
0.00041777197
-0.84705684
0.00026655918
-0.90563423
0.00013851963
-0.96817037
4.0365008e-05
-1.0349667
-2.4886884e-05
-1.1063544
-5.7558986e-05
-1.1827004
-6.0612952e-05
-1.264399
-3.9307656e-05
-1.3518908
-0.17930516
-0.0044183421
-0.17971478
-0.017401893
0.041586008
-0.18081191
0.045658404
-0.18399681
0.0033888617
-0.18664663
-0.073057734
-0.18591622
-0.087451404
-0.18362457
-0.044302049
-0.1815902
0.050504249
-0.18584192
0.09811728
-0.19422883
0.076152939
-0.20184923
0.0089418215
-0.2025382
-0.068331221
-0.2099637
-0.093050765
-0.2138882
-0.065282017
-0.21895404
-0.017928949
-0.23501463
0.01436865
-0.26040979
0.022750953
-0.28706981
0.018585701
-0.31278662
0.0095340211
-0.33664027
0.00084111776
-0.35892349
-0.0041502152
-0.38111396
-0.0052080067
-0.40493953
-0.0039945909
-0.43146983
-0.00216706
-0.46093701
-0.00063263187
-0.49315534
0.00039548597
-0.52792814
0.00092863795
-0.56521144
0.001106632
-0.60501228
0.0010810335
-0.64744578
0.00095206339
-0.69267879
0.00077694584
-0.74090463
0.00058833515
-0.79233531
0.00040659774
-0.84719687
0.00024559099
-0.9057413
0.00011426092
-0.96824426
1.7332964e-05
-1.0350089
-4.3897875e-05
-1.1063681
-7.1256399e-05
-1.1826898
-6.8982323e-05
-1.2643694
-4.3009206e-05
-1.3518478
-0.17942908
0.041709933
-0.1793747
-0.0047584217
-0.18086778
-0.016822959
0.046377824
-0.18153133
0.0032074214
-0.18381537
-0.076033992
-0.18367037
-0.09116919
-0.18219843
-0.047197335
-0.18072928
0.05426322
-0.18534917
0.10682564
-0.19455029
0.085426196
-0.20350209
0.013949541
-0.20685695
-0.078289269
-0.19258016
-0.10634665
-0.19666782
-0.077093125
-0.20207709
-0.020885279
-0.21599771
0.020279124
-0.2409251
0.030301588
-0.26796042
0.025043565
-0.29352768
0.013548664
-0.31680127
0.0018862932
-0.33768544
-0.0053722743
-0.35770143
-0.0072805574
-0.37904141
-0.0058153694
-0.40311875
-0.00331178
-0.43032511
-0.0011548561
-0.46041478
0.00028006658
-0.49303992
0.001063839
-0.52806334
0.0013435638
-0.56544837
0.0013435649
-0.60527481
0.0012058576
-0.64769957
0.0010088403
-0.69291069
0.00079265717
-0.74110895
0.00057963775
-0.79250835
0.00038454414
-0.84733583
0.00021796205
-0.905845
8.649179e-05
-0.96831342
-6.9333013e-06
-1.0350459
-6.2823575e-05
-1.1063765
-8.4275604e-05
-1.1826745
-7.6609283e-05
-1.2643358
-4.6273811e-05
-1.3518016
-0.17969726
0.046645997
-0.17885564
0.041190878
-0.18038786
-0.0052383393
-0.18276197
-0.016111095
0.003135456
-0.18145936
-0.078086656
-0.18176271
-0.093876494
-0.18096307
-0.04947014
-0.17992563
0.058060653
-0.18452672
0.11547856
-0.19400208
0.094960396
-0.20408449
0.019632313
-0.20918486
-0.083335005
-0.20181121
-0.11823558
-0.18069123
-0.087483532
-0.18627741
-0.024268273
-0.1986941
0.026979592
-0.22269817
0.039379401
-0.25000292
0.032757617
-0.27567447
0.018591707
-0.29857072
0.0033400815
-0.31825506
-0.0068768501
-0.33618087
-0.010029906
-0.35495208
-0.0083076191
-0.37654916
-0.0049063507
-0.40152418
-0.0018915102
-0.42958845
0.00010577418
-0.46024049
0.0012136105
-0.4931897
0.0016340326
-0.52835381
0.0016617744
-0.56576658
0.001507808
-0.60557676
0.0012815126
-0.64797225
0.0010333513
-0.69315138
0.00078720118
-0.74131651
0.00055714408
-0.79268095
0.00035387808
-0.84747174
0.00018551105
-0.90594402
5.6667542e-05
-0.96837702
-3.1515152e-05
-1.0350772
-8.1068925e-05
-1.1063797
-9.6308567e-05
-1.1826548
-8.3428801e-05
-1.2642986
-4.9082362e-05
-1.3517525
-0.17977366
0.0032118604
-0.17875419
0.046544541
-0.17930063
0.040103646
-0.18222183
-0.0057784817
-0.1851771
-0.015287558
-0.07915001
-0.18039601
-0.095518765
-0.18012044
-0.051033421
-0.17939979
0.0616996
-0.18356457
0.12372183
-0.19276998
0.10444812
-0.20348981
0.025318289
-0.20977046
-0.08777882
-0.20474104
-0.12963962
-0.19040717
-0.096553858
-0.1716209
-0.027570656
-0.18297503
0.033978818
-0.20569332
0.049903212
-0.23322199
0.041827818
-0.25907312
0.024746647
-0.28182941
0.0053222542
-0.30055289
-0.0087155926
-0.31641631
-0.013626378
-0.3325844
-0.011643864
-0.35161584
-0.0070781647
-0.37437734
-0.0029034451
-0.40051225
-0.00012987984
-0.4293528
0.0013945812
-0.46042146
0.0020027994
-0.49355846
0.0020583249
-0.52875036
0.0018741496
-0.56613292
0.0016037654
-0.60589901
0.0013143312
-0.64825323
0.0010308146
-0.69339499
0.00076443829
-0.74152381
0.00052372464
-0.79285079
0.00031681821
-0.84760305
0.0001499589
-0.90603732
2.6000716e-05
-0.96843454
-5.5598685e-05
-1.0351026
-9.8211072e-05
-1.1063778
-0.00010721651
-1.182631
-8.9371242e-05
-1.2642583
-5.1459145e-05
-1.351701
-0.17973207
-0.079191599
-0.1791407
0.0035983763
-0.17883348
0.046077397
-0.18047176
0.038353576
-0.18466017
-0.0062954117
-0.18802822
-0.014402974
-0.09626467
-0.1796501
-0.052049776
-0.17910408
0.065081595
-0.18278178
0.13120103
-0.19104378
0.11345226
-0.20177412
0.031317902
-0.20948942
-0.092018377
-0.20553091
-0.14082994
-0.19355072
-0.11076591
-0.17619512
-0.030595899
-0.16859566
0.041064594
-0.19006081
0.061664653
-0.21745476
0.052252339
-0.24364651
0.032109278
-0.26643575
0.0079284969
-0.28443566
-0.010892252
-0.29837623
-0.01825018
-0.31179251
-0.016042444
-0.32818582
-0.0099611316
-0.34873287
-0.0042537122
-0.37302708
-0.00043408122
-0.40020804
0.0016396191
-0.42959784
0.0024816887
-0.46090035
0.002566395
-0.49406653
0.0023281378
-0.52920434
0.0019890936
-0.56651825
0.0016414695
-0.60622615
0.0013122795
-0.64853469
0.0010067948
-0.69363735
0.00072817132
-0.74172826
0.00048211639
-0.79301609
0.00027541421
-0.84772851
0.00011277702
-0.90612409
-4.5389527e-06
-0.9684856
-7.8617703e-05
-1.0351222
-0.00011400467
-1.1063711
-0.00011689644
-1.1826035
-9.4474661e-05
-1.2642153
-5.3428151e-05
-1.3516476
-0.17977094
-0.096225798
-0.18027046
-0.078061839
-0.17930636
0.0040712572
-0.17943063
0.04503627
-0.18232454
0.036017944
-0.18754001
-0.0067836166
-0.19119432
-0.013532997
-0.052392665
-0.17930721
0.067836448
-0.18185894
0.13756333
-0.18914407
0.12160519
-0.19919671
0.037112926
-0.20756914
-0.095745847
-0.20576195
-0.15124924
-0.19511161
-0.12446574
-0.17985089
-0.043620114
-0.1631709
0.048331814
-0.17586288
0.07420253
-0.20259868
0.064018619
-0.22922104
0.040584358
-0.25212159
0.011209746
-0.269717
-0.013477073
-0.28185084
-0.024118494
-0.29250792
-0.021719057
-0.3061159
-0.013714613
-0.32443234
-0.0060025101
-0.34698408
-0.0008037489
-0.37265741
0.0019870828
-0.40055551
0.0031154098
-0.43023156
0.003231544
-0.4615655
0.0029032011
-0.4946416
0.0024577759
-0.52967303
0.0020238818
-0.56690066
0.0016339943
-0.60654786
0.0012838254
-0.64881172
0.00096658463
-0.69387576
0.00068188217
-0.74192802
0.00043478834
-0.79317547
0.0002314308
-0.84784716
7.5164534e-05
-0.90620379
-3.4226117e-05
-0.96852999
-0.00010021822
-1.035136
-0.00012829744
-1.1063597
-0.00012536918
-1.1825726
-9.8779413e-05
-1.26417
-5.5032398e-05
-1.3515926
-0.18030713
-0.051856479
-0.18142249
-0.095073773
-0.18149676
-0.075871445
-0.18017464
0.0048152638
-0.18070273
0.04341446
-0.18467012
0.033148048
-0.19068735
-0.0072905956
-0.19444927
-0.012774122
0.070067167
-0.18153793
0.14271253
-0.18700814
0.12841404
-0.19595293
0.042532239
-0.20461603
-0.098997861
-0.20431713
-0.16118335
-0.19582784
-0.1373557
-0.18222166
-0.056485535
-0.16698547
0.04585958
-0.16069867
0.08754931
-0.18920966
0.076943055
-0.21552312
0.050162609
-0.23879929
0.014999471
-0.25591131
-0.016625077
-0.266569
-0.031472374
-0.27449696
-0.028948834
-0.28527814
-0.018485426
-0.30134509
-0.0081994216
-0.32223542
-0.0012362743
-0.34655155
0.0024867189
-0.37315705
0.0039659382
-0.40140604
0.0041077027
-0.43110772
0.0036448525
-0.46230715
0.0030383002
-0.49522212
0.0024751798
-0.53012432
0.0019993543
-0.56726602
0.0015944044
-0.60685844
0.0012366572
-0.64908179
0.00091477595
-0.69410866
0.00062856299
-0.7421218
0.00038384411
-0.79332788
0.00018631329
-0.84795831
3.8046513e-05
-0.90627607
-6.2559053e-05
-0.96856765
-0.00012013518
-1.0351442
-0.00014105854
-1.106344
-0.00013267632
-1.1825387
-0.00010235971
-1.2641226
-5.6312424e-05
-1.3515362
-0.18208284
0.071842872
-0.18261375
-0.050665216
-0.18374747
-0.092823065
-0.18350229
-0.072543796
-0.18138014
0.0054926773
-0.18249217
0.041236511
-0.1873196
0.029780302
-0.19386362
-0.0078762463
-0.19762514
-0.012245456
0.14626416
-0.18508956
0.13381082
-0.19240491
0.047223183
-0.20064387
-0.10160089
-0.202013
-0.17008384
-0.19541664
-0.14935759
-0.18382595
-0.069027858
-0.16967933
0.042440267
-0.16356616
0.096582791
-0.16973215
0.090559355
-0.20282596
0.060782353