/*--------------------------------*- C++ -*----------------------------------*\
| =========                 |                                                 |
| \\      /  F ield         | OpenFOAM: The Open Source CFD Toolbox           |
|  \\    /   O peration     | Version:  5.0                                   |
|   \\  /    A nd           | Web:      www.OpenFOAM.org                      |
|    \\/     M anipulation  |                                                 |
\*---------------------------------------------------------------------------*/
FoamFile
{
    version     2.0;
    format      ascii;
    class       surfaceScalarField;
    location    "120";
    object      phi_0;
}
// * * * * * * * * * * * * * * * * * * * * * * * * * * * * * * * * * * * * * //

dimensions      [0 3 -1 0 0 0 0];

internalField   nonuniform List<scalar> 
18820
(
-0.0001271068
-1.354907
-0.00024375396
-1.2671194
-0.00012836475
-1.3547787
-0.00034841355
-1.1851262
-0.00024595522
-1.2670018
-0.00013337945
-1.3546453
-0.00043966769
-1.1085145
-0.00035138675
-1.1850207
-0.00025554192
-1.2668796
-0.00014499257
-1.3545003
-0.00051601682
-1.0369131
-0.00044303723
-1.1084228
-0.000365556
-1.1849107
-0.00027863903
-1.266746
-0.0001542171
-1.3543461
-0.00057576379
-0.96997283
-0.00051917789
-1.0368369
-0.00046192711
-1.1083264
-0.0004007302
-1.1847886
-0.0002976892
-1.2666025
-0.00016143451
-1.3541847
-0.00061718821
-0.90737605
-0.00057783164
-0.96991418
-0.00054316072
-1.0367557
-0.00051059775
-1.1082166
-0.00043045969
-1.1846559
-0.00031365383
-1.2664503
-0.00016242393
-1.3540222
-0.00063741756
-0.84883213
-0.00061665512
-0.90733723
-0.00060804627
-0.96984929
-0.00060711479
-1.0366592
-0.00055259713
-1.1080944
-0.00045732455
-1.1845122
-0.000317178
-1.2662955
-0.00016088978
-1.3538613
-0.00063626221
-0.79407423
-0.00063392514
-0.84881486
-0.00065528535
-0.90728999
-0.00068860157
-0.96976781
-0.00066378539
-1.036548
-0.00059341803
-1.1079583
-0.00046565672
-1.1843637
-0.00031532559
-1.2661411
-0.00015883896
-1.3537025
-0.00061581859
-0.74284429
-0.00063716539
-0.79407099
-0.00068671057
-0.84878344
-0.00075399272
-0.9072246
-0.00076401078
-0.96966758
-0.00072234706
-1.0364191
-0.00060926434
-1.1078147
-0.00046584386
-1.1842132
-0.00031168583
-1.2659882
-0.00015817212
-1.3535443
-0.00057905368
-0.69490868
-0.00062908259
-0.74285237
-0.00070111632
-0.79405659
-0.00080153929
-0.84873589
-0.00085322301
-0.90713539
-0.00084422749
-0.9695457
-0.00074878559
-1.0362795
-0.00061410462
-1.1076665
-0.00046230187
-1.1840626
-0.00031063558
-1.2658358
-0.00015800386
-1.3533863
-0.00052625496
-0.65005105
-0.00060653438
-0.69493123
-0.00069466221
-0.74285883
-0.00082691556
-0.79403121
-0.00092926988
-0.84865984
-0.0009585604
-0.90702105
-0.00088471115
-0.96940977
-0.00076099802
-1.0361326
-0.00061269291
-1.1075161
-0.00046217157
-1.183911
-0.00031063881
-1.2656831
-0.00015662874
-1.3532297
-0.00045952291
-0.60808025
-0.00056694268
-0.65009065
-0.00066321164
-0.69496268
-0.00082523831
-0.7428605
-0.00098790385
-0.79397258
-0.0010644536
-0.84855395
-0.0010179561
-0.90688781
-0.00090682951
-0.96926394
-0.00076414817
-1.0359812
-0.00061531842
-1.1073629
-0.00046315168
-1.1837585
-0.0003085661
-1.2655312
-0.00015201081
-1.3530777
-0.00037845152
-0.56881827
-0.00051149397
-0.6081357
-0.00060222672
-0.65015163
-0.00079207472
-0.69499584
-0.0010243831
-0.74282402
-0.0011627537
-0.79387428
-0.001151317
-0.84842059
-0.0010519256
-0.90674271
-0.00091701195
-0.96911108
-0.0007718773
-1.0358246
-0.00061876091
-1.1072073
-0.0004609609
-1.1836061
-0.00030029207
-1.2653829
-0.00014307988
-1.3529346
-0.00030809536
-0.53205026
-0.00045466829
-0.56887509
-0.00051566327
-0.60822227
-0.00072310913
-0.6502206
-0.0010381057
-0.69498212
-0.0012594646
-0.74272731
-0.0012895247
-0.79373607
-0.0011975642
-0.84827495
-0.0010708421
-0.90658888
-0.00093234735
-0.96895061
-0.00077994438
-1.0356634
-0.000617821
-1.1070505
-0.00044946201
-1.183457
-0.00028338162
-1.2652426
-0.00013011169
-1.3528045
-0.00022961885
-0.49766859
-0.00039101553
-0.53211391
-0.00040918675
-0.56898157
-0.00061833506
-0.60832704
-0.0010283454
-0.65023036
-0.0013610637
-0.69488052
-0.0014382791
-0.74257856
-0.001345355
-0.79358828
-0.001223808
-0.84812198
-0.0010956874
-0.90642554
-0.00094797006
-0.96878258
-0.00078232445
-1.0354989
-0.00060399594
-1.1068959
-0.00042526288
-1.1833151
-0.00025805295
-1.2651147
-0.0001145094
-1.35269
-0.00020163423
-0.46542953
-0.00034865161
-0.49771095
-0.00026250578
-0.53226059
-0.00046130739
-0.5691386
-0.0009957012
-0.60835968
-0.0014728985
-0.65011852
-0.0016051637
-0.69471363
-0.0014975961
-0.74242632
-0.0013728697
-0.79343921
-0.0012588551
-0.84795881
-0.0011227484
-0.90625076
-0.00095678215
-0.96860812
-0.00076771404
-1.0353352
-0.00057322668
-1.106748
-0.00038826515
-1.1831849
-0.00022700516
-1.2650022
-9.8308116e-05
-1.3525917
-0.00018333884
-0.43531363
-0.00032281033
-0.46545537
-8.418551e-05
-0.49788927
-0.00022492985
-0.53249697
-0.0009400774
-0.56919422
-0.0016000776
-0.6082325
-0.0018058873
-0.6499178
-0.0016593711
-0.69455186
-0.0015145096
-0.74228468
-0.0014168351
-0.79328123
-0.0013020537
-0.84777951
-0.0011425847
-0.90606496
-0.00094414473
-0.96843169
-0.00073115634
-1.0351773
-0.00052512726
-1.1066111
-0.00034188073
-1.18307
-0.00019441199
-1.2649061
-8.3319036e-05
-1.3525084
-0.00027278677
-0.40702073
-0.00032551278
-0.43531093
0.0001884363
-0.46572799
0.00011932329
-0.49823353
-0.00085411485
-0.53258293
-0.0017586796
-0.56903562
-0.0020517532
-0.60798664
-0.0018406547
-0.64973651
-0.0016432787
-0.69442309
-0.0015611083
-0.7421404
-0.0014807501
-0.79310254
-0.0013400272
-0.84758207
-0.0011365898
-0.90587251
-0.00090334159
-0.96825951
-0.00067207722
-1.0350303
-0.0004631696
-1.1064898
-0.00029227751
-1.1829721
-0.00016410317
-1.2648253
-7.0527562e-05
-1.3524378
-0.00037851279
-0.38064401
-0.00039798731
-0.40694826
0.00047781961
-0.43560031
0.00060417728
-0.46621285
-0.00071781555
-0.49836983
-0.0019783928
-0.53236322
-0.0023609362
-0.56872643
-0.0020378264
-0.60778947
-0.0017486631
-0.64963113
-0.0016767067
-0.69430749
-0.0016490148
-0.74197214
-0.0015479755
-0.79289459
-0.0013486033
-0.84737005
-0.0010942009
-0.90568165
-0.00083310322
-0.96809848
-0.00059415514
-1.0348994
-0.00039531993
-1.1063868
-0.00024548495
-1.1828907
-0.0001381792
-1.2647576
-6.005597e-05
-1.3523778
-0.0006498068
-0.3557568
-0.00051679433
-0.3805252
0.0009479052
-0.40741834
0.0012655906
-0.43626173
-0.00052555244
-0.46640511
-0.0022880288
-0.49806019
-0.0027735438
-0.53195061
-0.002251291
-0.56851297
-0.0018096738
-0.60772846
-0.0017370228
-0.64957081
-0.0017910729
-0.69416543
-0.0017626759
-0.74175744
-0.0015840145
-0.79265918
-0.0013091765
-0.84715508
-0.0010126141
-0.90550214
-0.00073800037
-0.96795464
-0.00050659018
-1.0347881
-0.00033029981
-1.106302
-0.00020510083
-1.1828238
-0.00011685502
-1.2647008
-5.1569704e-05
-1.3523262
-0.00092621945
-0.33260556
-0.00073991737
-0.35553368
0.0014069019
-0.3809842
0.0021700151
-0.40832277
-0.00022524481
-0.43656204
-0.0027238604
-0.46596928
-0.0033442778
-0.49748946
-0.0025052984
-0.53169661
-0.001804444
-0.5685182
-0.0017272899
-0.60773819
-0.0018861265
-0.64947576
-0.0019792129
-0.6939489
-0.0018481836
-0.74149327
-0.0015556871
-0.79241267
-0.0012160954
-0.8469516
-0.00089804985
-0.90534209
-0.00062878588
-0.96783244
-0.00042126292
-1.0346971
-0.00027351752
-1.1062335
-0.00017168467
-1.182769
-9.9316022e-05
-1.2646531
-4.4630336e-05
-1.3522816
-0.0013933899
-0.31071961
-0.00098979606
-0.33235568
0.0021452399
-0.35627202
0.0033326223
-0.38214681
0.00016290546
-0.40871092
-0.0033227647
-0.43596313
-0.0041300472
-0.46518351
-0.0028276203
-0.49716713
-0.001720844
-0.53178021
-0.001613271
-0.56863222
-0.0019289075
-0.60769541
-0.0021925847
-0.64926239
-0.0021497282
-0.69364735
-0.0018449481
-0.74120401
-0.0014508709
-0.79217789
-0.0010780506
-0.8467716
-0.00076406273
-0.90520682
-0.00052063674
-0.96773307
-0.00034596257
-1.0346247
-0.00022597866
-1.1061792
-0.00014396097
-1.1827244
-8.4641763e-05
-1.2646131
-3.8734855e-05
-1.3522428
-0.0018706012
-0.29020648
-0.001375501
-0.3103339
0.0028367593
-0.3330472
0.0048601319
-0.35779953
0.00074173639
-0.38272564
-0.0041554622
-0.40787822
-0.0052081472
-0.43488503
-0.0032489295
-0.4647622
-0.0015319837
-0.49735599
-0.0013271859
-0.53206629
-0.0019007494
-0.56866038
-0.00239933
-0.60748866
-0.0025010475
-0.64891107
-0.0021933755
-0.69329892
-0.001727469
-0.74092741
-0.0012821397
-0.7919738
-0.00091392407
-0.84662174
-0.00062997436
-0.90509748
-0.00042438715
-0.96765464
-0.00028207534
-1.0345686
-0.0001861125
-1.1061371
-0.00012028811
-1.1826887
-7.2057845e-05
-1.2645798
-3.3306318e-05
-1.3522095
-0.0026247297
-0.27025666
-0.0017230844
-0.2898589
0.0039113236
-0.31140847
0.0066913452
-0.33487841
0.0014685139
-0.3585263
-0.005252738
-0.38162836
-0.0066518411
-0.40643453
-0.0038148912
-0.43431907
-0.0012124606
-0.46508173
-0.00080101364
-0.49788217
-0.0017363436
-0.5322307
-0.0026034005
-0.56845631
-0.0029131378
-0.60707657
-0.0026252433
-0.6484792
-0.0020605908
-0.6929658
-0.0015155756
-0.74069398
-0.001078983
-0.79180875
-0.0007494404
-0.84650227
-0.00051008509
-0.90501178
-0.00034189927
-0.96759482
-0.00022765028
-1.034527
-0.0001516455
-1.1061057
-9.9376501e-05
-1.1826614
-6.0695891e-05
-1.2645524
-2.791299e-05
-1.3521816
-0.0034390031
-0.25118487
-0.0021835113
-0.26979623
0.0048121882
-0.29075977
0.0088226919
-0.31353982
0.002489614
-0.33589951
-0.0067721745
-0.35700687
-0.0085681144
-0.37971209
-0.0045644067
-0.40568501
-0.00073744584
-0.43479408
3.3484358e-05
-0.46591622
-0.0013648929
-0.49825362
-0.0027989187
-0.53203518
-0.0034091624
-0.56796028
-0.0031650705
-0.60653675
-0.0024718796
-0.64806791
-0.0017846308
-0.69269675
-0.0012581531
-0.74051481
-0.00087711112
-0.79168107
-0.00060293795
-0.84640942
-0.00040697217
-0.90494671
-0.00027066851
-0.9675518
-0.0001798988
-1.0344988
-0.00012060375
-1.1060845
-8.0238382e-05
-1.1826418
-4.9690654e-05
-1.2645306
-2.2526908e-05
-1.3521591
-0.0043992796
-0.23300179
-0.0025237541
-0.25084462
0.006375756
-0.2713598
0.011079983
-0.29301706
0.0036165916
-0.31466679
-0.0086669965
-0.33400469
-0.01103383
-0.35454115
-0.0055693136
-0.37870718
-6.6673692e-05
-0.40635578
0.0012775617
-0.43603816
-0.00070339811
-0.46657772
-0.0029707537
-0.49808178
-0.0040309646
-0.53141338
-0.0038491796
-0.56727617
-0.0029850477
-0.60602358
-0.0020970487
-0.6477555
-0.0014479892
-0.69250691
-0.0010077812
-0.74038414
-0.00070056364
-0.79158345
-0.00047786191
-0.84633853
-0.00031723938
-0.90490014
-0.00020730462
-0.96752439
-0.00013643736
-1.034483
-9.1794068e-05
-1.1060729
-6.2144952e-05
-1.1826294
-3.8768272e-05
-1.2645144
-1.7488904e-05
-1.3521416
-0.0053490386
-0.21579084
-0.0028354555
-0.23269009
0.0084069397
-0.25287581
0.013824489
-0.27410431
0.0050257976
-0.29442626
-0.010964491
-0.3123693
-0.014169525
-0.33086899
-0.0068492015
-0.35326126
0.00084401041
-0.37961787
0.0030341701
-0.40811239
0.00034689931
-0.43708846
-0.0030873476
-0.46646112
-0.0048250814
-0.49728767
-0.0047411122
-0.53052144
-0.0036312436
-0.56662998
-0.0024623086
-0.60565832
-0.0016412252
-0.64756226
-0.0011316231
-0.69238307
-0.0007970019
-0.7402877
-0.00055335617
-0.79150795
-0.00036916117
-0.8462866
-0.00023655829
-0.90487088
-0.00014913685
-0.96751169
-9.6083992e-05
-1.0344787
-6.4747917e-05
-1.1060703
-4.4766724e-05
-1.1826234
-2.8293161e-05
-1.2645036
-1.3242602e-05
-1.3521284
-0.0063063021
-0.19963628
-0.002885512
-0.21574079
0.011040591
-0.23532374
0.016974921
-0.25602624
0.0063239113
-0.27540242
-0.013486882
-0.29190387
-0.018071656
-0.30846717
-0.0085168953
-0.3292013
0.0020527382
-0.35446999
0.005430355
-0.38201405
0.0018935798
-0.40965907
-0.0031139763
-0.43706183
-0.0058452591
-0.46544095
-0.0059227845
-0.49610599
-0.0044620453
-0.52969064
-0.0028897843
-0.5662025
-0.0018274552
-0.60547209
-0.0012319839
-0.6474619
-0.00088092844
-0.69229914
-0.00062957607
-0.74021148
-0.00042739495
-0.79144972
-0.00027073693
-0.84625243
-0.00016188793
-0.90485813
-9.4889045e-05
-0.96751289
-5.7978472e-05
-1.0344854
-3.8938681e-05
-1.1060762
-2.8039447e-05
-1.1826236
-1.9287929e-05
-1.2644975
-1.0117074e-05
-1.3521182
-0.0072377748
-0.18438747
-0.0028414976
-0.19968029
0.014189741
-0.21888994
0.020566916
-0.23891573
0.0078750071
-0.25757734
-0.016686277
-0.27220303
-0.022781632
-0.2871939
-0.010593138
-0.30639093
0.0036127023
-0.33076126
0.0085937685
-0.35763341
0.004065665
-0.38418614
-0.0030116495
-0.4097614
-0.0071576632
-0.43574943
-0.0074945676
-0.46386916
-0.0055459842
-0.49502205
-0.0033924036
-0.52918802
-0.0019897616
-0.56604019
-0.001283832
-0.60542024
-0.00093386711
-0.64740896
-0.00069848762
-0.69223023
-0.00049175963
-0.74014711
-0.00031346296
-0.79140699
-0.00017869902
-0.84623561
-9.137284e-05
-0.90486165
-4.2902986e-05
-0.96752796
-2.1172221e-05
-1.0345032
-1.4456247e-05
-1.1060898
-1.338175e-05
-1.1826296
-1.2539704e-05
-1.2644951
-8.2807451e-06
-1.35211
-0.010017936
-0.19988366
-0.0026200683
-0.1846089
0.017513734
-0.20300429
0.02422007
-0.22254309
0.0093358166
-0.24037654
-0.019883117
-0.2543805
-0.028253726
-0.26673093
-0.013168535
-0.2846185
0.0056659251
-0.30844415
0.012670852
-0.33483835
0.0069873891
-0.36055513
-0.0027299779
-0.38446781
-0.0088384234
-0.40808064
-0.009582008
-0.43366199
-0.0069691516
-0.462446
-0.0039888319
-0.49442563
-0.0021023659
-0.52907542
-0.0012532903
-0.56607073
-0.00092777989
-0.60542633
-0.00074684481
-0.6473606
-0.00056060061
-0.69216139
-0.00036881669
-0.74009176
-0.00020525537
-0.79138044
-8.9857083e-05
-0.84623713
-2.2653558e-05
-0.9048819
7.6459969e-06
-0.96755678
1.3470006e-05
-1.0345311
6.750431e-06
-1.1061099
-2.3539406e-06
-1.1826397
-8.3950534e-06
-1.264495
-7.6951323e-06
-1.3521023
-0.01234769
-0.19709599
-0.0041269019
-0.19837683
0.020931138
-0.1880263
0.027629816
-0.20641403
0.0098915401
-0.22309882
-0.023681593
-0.23657807
-0.034438264
-0.24819596
-0.015999905
-0.26389956
0.0083442007
-0.28729677
0.017798183
-0.31357148
0.010801704
-0.33865266
-0.0022265363
-0.36105857
-0.010979189
-0.38232704
-0.012327993
-0.40533465
-0.008838996
-0.43179214
-0.0047036593
-0.46173117
-0.0021313076
-0.49439668
-0.0010899103
-0.5292388
-0.00082948701
-0.56616903
-0.00075586871
-0.6054173
-0.00063087696
-0.64729033
-0.00044207086
-0.69208814
-0.00024871147
-0.7400483
-9.7165484e-05
-0.79137313
-1.631835e-06
-0.84625815
4.5910654e-05
-0.90492016
5.5827714e-05
-0.96759914
4.3821174e-05
-1.0345682
2.3713452e-05
-1.106136
4.6525206e-06
-1.1826528
-6.8930922e-06
-1.2644958
-8.2104654e-06
-1.3520941
-0.014260985
-0.19407103
-0.0051091712
-0.19611372
0.022865328
-0.20031102
0.030669839
-0.19106632
0.0098439291
-0.20636642
-0.028776336
-0.21800407
-0.041052643
-0.22996369
-0.019721768
-0.2444741
0.011851022
-0.26740638
0.024143618
-0.29364221
0.015589545
-0.31835932
-0.0014358391
-0.33944336
-0.013688464
-0.3583493
-0.015904382
-0.37875065
-0.011276749
-0.4028969
-0.0055646308
-0.43093117
-0.0020335951
-0.46182888
-0.00072924694
-0.49475735
-0.00058059653
-0.52948769
-0.00070172838
-0.56622317
-0.00069799003
-0.60535019
-0.00053958084
-0.64719282
-0.00031919297
-0.69201765
-0.00012177876
-0.74002369
1.5020555e-05
-0.79138978
8.9165601e-05
-0.84630141
0.00011038885
-0.90497473
9.7465323e-05
-0.96765278
6.7925524e-05
-1.0346124
3.492181e-05
-1.1061662
7.6536833e-06
-1.1826673
-7.8358696e-06
-1.2644962
-1.0271726e-05
-1.3520838
-0.015798242
-0.19100131
-0.0056604307
-0.19351977
0.025398086
-0.19864648
0.032304204
-0.20194538
0.0093592925
-0.19058169
-0.034361568
-0.20078119
-0.047281239
-0.21177548
-0.023475342
-0.22621011
0.015883326
-0.2485064
0.031754458
-0.27501722
0.021365358
-0.29941802
-0.00034732318
-0.31944784
-0.017084035
-0.33604779
-0.020489625
-0.35376405
-0.014427781
-0.37559962
-0.0066040675
-0.40185746
-0.0017540685
-0.4312107
-8.8787273e-05
-0.46246934
-0.00011105438
-0.49522689
-0.00054360557
-0.52964581
-0.0007478615
-0.5661733
-0.00066698652
-0.60522278
-0.00043009512
-0.64708191
-0.00017622137
-0.69196321
1.6808507e-05
-0.74002548
0.00013149304
-0.79143211
0.00017465684
-0.84636568
0.00016711855
-0.90504438
0.00013127312
-0.96771613
8.4587874e-05
-1.0346621
4.0144437e-05
-1.1061987
6.5434936e-06
-1.1826817
-1.1667798e-05
-1.2644948
-1.337244e-05
-1.3520704
-0.01697352
-0.18803539
-0.0059092356
-0.19075251
0.028282837
-0.19640453
0.03436923
-0.20071151
0.0081262365
-0.20071233
-0.040059169
-0.18488409
-0.053060408
-0.19500202
-0.026216726
-0.20903409
0.020663124
-0.23098991
0.040623791
-0.25737573
0.028023553
-0.28167542
0.00099841982
-0.30076377
-0.021355157
-0.31517671
-0.026290226
-0.33024719
-0.018435197
-0.34975664
-0.0078534373
-0.37435025
-0.001227992
-0.40238354
0.00093031829
-0.4322298
0.00066847228
-0.46324887
-0.00022322153
-0.49554727
-0.00077900971
-0.52961466
-0.00082574664
-0.56601454
-0.00059907873
-0.6050538
-0.00027819401
-0.64697994
-8.6931837e-06
-0.69193771
0.0001656842
-0.74005967
0.00024436093
-0.79150181
0.00025121226
-0.84644977
0.00021399909
-0.9051271
0.00015555257
-0.9677871
9.3375525e-05
-1.0347153
3.9627873e-05
-1.1062318
1.3888246e-06
-1.1826948
-1.7600824e-05
-1.2644905
-1.7251634e-05
-1.3520532
-0.017808676
-0.18531504
-0.0059500797
-0.18799454
0.03127726
-0.19374693
0.036662948
-0.19869824
0.0072577167
-0.19984299
-0.046375043
-0.19439645
-0.058451072
-0.17949342
-0.028245885
-0.19297286
0.026149895
-0.21452086
0.050689297
-0.24105542
0.03582711
-0.26517929
0.0023516238
-0.28302862
-0.026740542
-0.29537838
-0.03350174
-0.3079652
-0.023464246
-0.32521814
-0.0093448953
-0.34826518
-0.00037029975
-0.37520795
0.0024435476
-0.40389677
0.001862212
-0.43342354
0.00032373092
-0.46379582
-0.00076691936
-0.49555937
-0.0010443113
-0.5293961
-0.00084717371
-0.56576644
-0.00045146384
-0.60488053
-7.7380907e-05
-0.64691125
0.00018145514
-0.69195348
0.00031428182
-0.74012959
0.0003473122
-0.79159791
0.00031564332
-0.84655141
0.00024885341
-0.90522041
0.00016970731
-0.96786343
9.4587011e-05
-1.0347703
3.3906928e-05
-1.1062643
-6.745906e-06
-1.1827056
-2.5083194e-05
-1.2644827
-2.1651723e-05
-1.3520315
-0.018317347
-0.18299347
-0.0058849322
-0.18538018
0.034139681
-0.19085696
0.039079463
-0.19616344
0.0066321882
-0.19807272
-0.052343647
-0.19387438
-0.065445264
-0.18740226
-0.029625478
-0.17811383
0.032166758
-0.19898972
0.061026655
-0.22485822
0.044301065
-0.24952937
0.0041763398
-0.26700401
-0.033445548
-0.27632362
-0.042357627
-0.28652249
-0.029599943
-0.3018295
-0.011108269
-0.32345477
0.00091343668
-0.34954892
0.0045835325
-0.37734793
0.0035940983
-0.40562866
0.0011804502
-0.43428026
-0.00068278665
-0.46387995
-0.0013504478
-0.49525323
-0.0012058669
-0.52903741
-0.00073027348
-0.56548763
-0.00021353831
-0.60474437
0.00016459558
-0.64689439
0.00037747716
-0.69201668
0.00045254968
-0.74023483
0.00043536844
-0.79171764
0.00036501722
-0.84666758
0.00027085613
-0.90532155
0.00017409441
-0.96794294
8.8875698e-05
-1.0348252
2.3559119e-05
-1.1062946
-1.7663129e-05
-1.182713
-3.3664745e-05
-1.2644707
-2.6290059e-05
-1.3520052
-0.01851738
-0.181176
-0.0057689198
-0.18310948
0.036654024
-0.18789453
0.041417116
-0.19319462
0.0062598601
-0.19579112
-0.057926364
-0.19249
-0.072041648
-0.187278
-0.034650459
-0.18237728
0.038690641
-0.18463771
0.071381345
-0.20934441
0.052895311
-0.23345247
0.0069477926
-0.25230082
-0.041174188
-0.25927537
-0.052792443
-0.2658888
-0.036830634
-0.2792918
-0.013117425
-0.29982035
0.0027438884
-0.32528522
0.0074916976
-0.35245708
0.0059963953
-0.37975023
0.0024464873
-0.40689469
-0.00049032574
-0.43447272
-0.0017624265
-0.46346797
-0.0017369881
-0.49472211
-0.0011459519
-0.52862173
-0.0004517551
-0.56524942
9.8299073e-05
-0.60467808
0.00042579556
-0.64694271
0.00056392224
-0.69212805
0.00057247142
-0.74037193
0.00050441624
-0.79185704
0.00039807743
-0.8467948
0.00028034146
-0.9054278
0.00016946168
-0.96802352
7.7090762e-05
-1.0348788
9.4569172e-06
-1.1063217
-3.0340641e-05
-1.1827164
-4.2796656e-05
-1.2644542
-3.0921688e-05
-1.3519743
-0.018417788
-0.17997309
-0.0056397987
-0.18130512
0.038683062
-0.18513852
0.043507587
-0.189985
0.00603576
-0.19297052
-0.063026927
-0.19069055
-0.07809025
-0.1864414
-0.039278782
-0.18264968
0.041055269
-0.18474191
0.081533094
-0.19478946
0.061247897
-0.217697
0.010027392
-0.23653207
-0.048829081
-0.24464593
-0.064759179
-0.24730863
-0.045129322
-0.25759011
-0.015223485
-0.27718574
0.0052640481
-0.30234051
0.011323148
-0.32911667
0.0092154464
-0.35567613
0.0042318355
-0.38153558
-0.00015019242
-0.40723483
-0.0023026176
-0.43393253
-0.0025050529
-0.46269991
-0.0017629143
-0.49410515
-0.0008243541
-0.52824913
-4.2459431e-05
-0.56510866
0.00044889678
-0.60470118
0.00067878775
-0.64705758
0.00072715311
-0.69228273
0.00066792482
-0.74053544
0.00055253039
-0.79201149
0.00041507873
-0.84692954
0.00027819288
-0.90553653
0.0001569223
-0.96810335
6.0279638e-05
-1.0349296
-7.1238992e-06
-1.106345
-4.4034573e-05
-1.1827151
-5.2001249e-05
-1.2644331
-3.5378951e-05
-1.3519389
-0.17947715
-0.018122111
-0.0055876162
-0.18002527
0.040162143
-0.1827842
0.045205086
-0.18683602
0.0059299138
-0.18987915
-0.06754325
-0.18845419
-0.083535942
-0.18524486
-0.043431673
-0.1822885
0.043862008
-0.18545642
0.089400355
-0.19260917
0.068918291
-0.20245986
0.01184599
-0.2195156
-0.056568585
-0.22879256
-0.078441698
-0.23096341
-0.054999703
-0.23743825
-0.017290129
-0.25552347
0.0086616438
-0.28058334
0.016226979
-0.30724434
0.013394477
-0.3332957
0.006661632
-0.35810593
0.00039824108
-0.38208401
-0.0030004505
-0.40653699
-0.0035884526
-0.43284913
-0.0026682921
-0.46179453
-0.0013760121
-0.49355349
-0.00028789079
-0.5280037
0.00043679797
-0.56509656
0.00079526448
-0.60481766
0.00090113596
-0.64723156
0.00085779767
-0.6924726
0.00073599679
-0.7407189
0.00057992013
-0.79217633
0.00041714029
-0.84706848
0.00026582496
-0.90564543
0.00013778512
-0.96818086
3.9704459e-05
-1.0349764
-2.5446239e-05
-1.1063635
-5.8022642e-05
-1.1827091
-6.096781e-05
-1.2644075
-3.9522005e-05
-1.3518994
-0.17933636
-0.0057284117
-0.17973833
-0.017662548
0.040951727
-0.18081486
0.046426447
-0.18400556
0.0058651131
-0.18677122
-0.071335543
-0.18608686
-0.088196703
-0.18379343
-0.047096312
-0.18158022
0.047059852
-0.18548635
0.09776204
-0.1938181
0.077822084
-0.20151296
0.012222332
-0.2028362
-0.065510322
-0.21057386
-0.092713644
-0.21452062
-0.066670688
-0.21929243
-0.019856943
-0.23487144
0.013196795
-0.26005862
0.02235737
-0.28671373
0.018663523
-0.31251338
0.0098707229
-0.33650479
0.0012201634
-0.35892785
-0.0038826161
-0.38120184
-0.005081396
-0.40504405
-0.003966087
-0.43155134
-0.0021844475
-0.4609861
-0.00066101388
-0.49318036
0.00037118221
-0.52793808
0.0009144023
-0.5652157
0.0011002205
-0.60501674
0.0010790433
-0.64745281
0.00095182407
-0.69268843
0.00077699765
-0.74091598
0.00058813467
-0.79234733
0.00040609297
-0.84720875
0.00024490541
-0.90575256
0.00011353006
-0.96825468
1.6636843e-05
-1.0350185
-4.4518485e-05
-1.1063771
-7.1791886e-05
-1.1826983
-6.9402156e-05
-1.2643776
-4.3261719e-05
-1.3518561
-0.1794466
0.041061968
-0.17942623
-0.0060405145
-0.18088888
-0.017069019
0.047160421
-0.18154883
0.0057795875
-0.18392004
-0.074301448
-0.18380531
-0.091943361
-0.1823402
-0.050169239
-0.18072051
0.050480972
-0.18500134
0.10642111
-0.19414542
0.087162975
-0.20315899
0.01759302
-0.20688365
-0.075169929
-0.19317659
-0.10604257
-0.19724493
-0.078750226
-0.20244108
-0.023299283
-0.21585009
0.018822923
-0.24049756
0.029835388
-0.26753664
0.025142231
-0.29319244
0.013984051
-0.31662671
0.0024019622
-0.33768659
-0.0049927555
-0.35781771
-0.0070986987
-0.37918454
-0.0057784653
-0.40323167
-0.0033436733
-0.43039211
-0.0012014761
-0.46044563
0.0002404059
-0.49304959
0.0010395193
-0.5280632
0.0013325554
-0.56544803
0.0013403945
-0.60527809
0.0012060061
-0.64770699
0.0010097336
-0.69292117
0.00079320971
-0.74112106
0.00057961508
-0.79252085
0.00038407415
-0.84734792
0.00021724946
-0.90585627
8.569758e-05
-0.96832375
-7.7124672e-06
-1.0350553
-6.3543045e-05
-1.1063853
-8.4905877e-05
-1.1826828
-7.7101566e-05
-1.2643438
-4.6565246e-05
-1.3518096
-0.17971905
0.047432874
-0.17888566
0.0405214
-0.18045683
-0.0064725634
-0.18277797
-0.016337971
0.0057650352
-0.18153428
-0.076362454
-0.18185903
-0.094671721
-0.18107695
-0.052590899
-0.17991854
0.053960241
-0.18419978
0.11503956
-0.19361979
0.096774194
-0.20375664
0.023627745
-0.20919372
-0.079777665
-0.20227592
-0.11801545
-0.18120372
-0.089387491
-0.18660767
-0.027181767
-0.19855859
0.02517573
-0.22220289
0.038842579
-0.24950476
0.032879441
-0.27527385
0.019140893
-0.29834928
0.0040275983
-0.31825235
-0.0063471114
-0.33633223
-0.0097716657
-0.35514475
-0.0082595468
-0.37670346
-0.0049602223
-0.40161512
-0.0019662203
-0.42962737
4.3847616e-05
-0.46024908
0.0011735046
-0.49318357
0.0016158054
-0.52834645
0.0016564282
-0.56576407
0.0015083393
-0.60558042
0.001283651
-0.64798091
0.0010351298
-0.69316309
0.00078804838
-0.74132949
0.00055715409
-0.79269393
0.00035333875
-0.84748401
0.00018469171
-0.90595527
5.5747838e-05
-0.96838721
-3.2425395e-05
-1.0350864
-8.1914703e-05
-1.1063883
-9.7045459e-05
-1.1826628
-8.399627e-05
-1.2643064
-4.941069e-05
-1.3517602
-0.17981041
0.0058563894
-0.17877556
0.047322769
-0.17934224
0.039406806
-0.18230622
-0.0069443048
-0.18518594
-0.015491129
-0.077438122
-0.18045861
-0.096329071
-0.18020168
-0.054277358
-0.17939049
0.057316383
-0.18327468
0.12326323
-0.19242344
0.10631834
-0.20316394
0.029656252
-0.20978515
-0.083733223
-0.20523816
-0.12925637
-0.19103499
-0.098666624
-0.17192458
-0.030939048
-0.18285039
0.031766333
-0.2051492
0.049289568
-0.23264988
0.041976593
-0.25860191
0.025423079
-0.28155603
0.00622059
-0.30054227
-0.0079892549
-0.31661021
-0.013263887
-0.33284001
-0.011581858
-0.35182243
-0.0071644138
-0.37449927
-0.0030195454
-0.4005618
-0.00022468278
-0.42935884
0.0013317566
-0.46040733
0.0019733709
-0.49354114
0.0020493815
-0.5287394
0.0018750352
-0.56613076
0.0016077196
-0.60590449
0.0013180194
-0.6482638
0.0010331187
-0.69340816
0.00076534066
-0.74153768
0.00052361403
-0.7928642
0.00031610609
-0.84761542
0.00014896063
-0.90604848
2.490686e-05
-0.96844454
-5.6670737e-05
-1.0351117
-9.9198277e-05
-1.1063861
-0.00010806401
-1.1826388
-9.0011611e-05
-1.2642658
-5.1820348e-05
-1.3517083
-0.17976352
-0.077485011
-0.17913795
0.0062187795
-0.17886493
0.04684546
-0.18053204
0.037632622
-0.18475462
-0.0073756326
-0.18802984
-0.01457845
-0.097084597
-0.17970309
-0.055375367
-0.17910367
0.060458726
-0.18253284
0.13073507
-0.19074652
0.11536558
-0.20147069
0.035983926
-0.20949161
-0.087491143
-0.20602723
-0.14031343
-0.1941811
-0.11284107
-0.17686055
-0.03438413
-0.1684795
0.038411908
-0.18949596
0.060952912
-0.21681254
0.052435114
-0.2431084
0.032927086
-0.26610591
0.0090816628
-0.28441711
-0.009911025
-0.2986205
-0.017749052
-0.31212504
-0.015963552
-0.32845832
-0.010094109
-0.34889274
-0.0044291236
-0.37308969
-0.0005760431
-0.40021044
0.0015454726
-0.42957255
0.0024354331
-0.46086939
0.0025518581
-0.49404362
0.0023292259
-0.52919359
0.0019956461
-0.56651869
0.0016480747
-0.60623455
0.0013169083
-0.64854759
0.0010092233
-0.69365204
0.00072888844
-0.74174295
0.00048174018
-0.79302984
0.00027443813
-0.8477409
0.0001115438
-0.90613512
-5.8403611e-06
-0.96849537
-7.9868126e-05
-1.035131
-0.00011513867
-1.1063791
-0.00011785154
-1.1826109
-9.5180543e-05
-1.2642224
-5.3817113e-05
-1.3516545
-0.17979849
-0.09704962
-0.18026385
-0.076359104
-0.1792665
0.0066203481
-0.17946435
0.045777763
-0.18240131
0.035279313
-0.18763993
-0.0077655476
-0.19118983
-0.013674778
-0.055774349
-0.1793041
0.063021397
-0.18166634
0.13711239
-0.18891016
0.12354351
-0.19892445
0.042083585
-0.20757034
-0.090721531
-0.20626123
-0.15062926
-0.1957114
-0.12651078
-0.18051139
-0.04769802
-0.16354666
0.045183185
-0.17525078
0.073358929
-0.20190198
0.06424042
-0.22861785
0.041565127
-0.25174644
0.012669911
-0.26969416
-0.012171032
-0.2821571
-0.023434866
-0.29293469
-0.021621418
-0.30646718
-0.013914478
-0.32463795
-0.0062599594
-0.3470619
-0.0010115384
-0.3726542
0.0018501822
-0.40051515
0.0030455554
-0.43018268
0.0032086043
-0.46152614
0.0029042747
-0.49461866
0.0024679899
-0.52966594
0.0020348269
-0.56690544
0.0016422224
-0.60655986
0.0012887302
-0.64882709
0.00096875002
-0.6938919
0.00068219876
-0.74194341
0.00043402346
-0.79318942
0.00023012093
-0.84785948
7.3659038e-05
-0.90621462
-3.5754491e-05
-0.96853948
-0.00010165427
-1.0351445
-0.00012957492
-1.1063673
-0.00012642219
-1.1825797
-9.9541444e-05
-1.2641767
-5.5442824e-05
-1.3515991
-0.18029716
-0.055275685
-0.18141114
-0.095902337
-0.18144539
-0.074180216
-0.18009655
0.0072525535
-0.18074409
0.044120542
-0.18476108
0.032400473
-0.19078882
-0.0081665596
-0.19443944
-0.012876615
0.065130656
-0.18141336
0.14227919
-0.18683314
0.13036229
-0.19572893
0.047770565
-0.20461143
-0.09350194
-0.20478994
-0.16048685
-0.19640364
-0.13935581
-0.18286637
-0.06080076
-0.16740865
0.042009866
-0.16037334
0.086584451
-0.1884763
0.077198911
-0.21486047
0.051326319
-0.23837904
0.016823728
-0.25590026
-0.014896198
-0.266969
-0.030553685
-0.27503828
-0.028831774
-0.28572433
-0.018777901
-0.30160375
-0.0085686526
-0.32232926
-0.0015323588
-0.34654108
0.0022930332
-0.37309705
0.0038642284
-0.40133382
0.0040725198
-0.43104659
0.0036457019
-0.46226756
0.00305363
-0.4952043
0.0024924882
-0.5301236
0.0020130396
-0.56727626
0.0016031775
-0.60687431
0.0012412121
-0.64909956
0.00091634402
-0.69412605
0.00062830647
-0.7421377
0.00038260021
-0.7933419
0.00018462437
-0.84797044
3.6250667e-05
-0.90628662
-6.4324206e-05
-0.96857681
-0.00012175389
-1.0351523
-0.00014246891
-1.1063513
-0.00013381323
-1.1825454
-0.00010316499
-1.264129
-5.6737673e-05
-1.3515423
-0.18203111
0.066864612
-0.18261967
-0.05406715
-0.18370082
-0.093646901
-0.18341473
-0.070862032
-0.18127962
0.0077880864
-0.18254004
0.041899496
-0.18742232
0.029033972
-0.1939619
-0.0086441048
-0.19761043
-0.012304951
0.14585709
-0.18499126
0.13576515
-0.192236
0.05267724
-0.20063561
-0.095672906
-0.20244047
-0.16933966
-0.19593712
-0.15131783
-0.18444162
-0.0735481
-0.17011903
0.03789154
-0.16329032
0.0952122
-0.16900109
0.090861445