/*--------------------------------*- C++ -*----------------------------------*\
| =========                 |                                                 |
| \\      /  F ield         | OpenFOAM: The Open Source CFD Toolbox           |
|  \\    /   O peration     | Version:  5.0                                   |
|   \\  /    A nd           | Web:      www.OpenFOAM.org                      |
|    \\/     M anipulation  |                                                 |
\*---------------------------------------------------------------------------*/
FoamFile
{
    version     2.0;
    format      ascii;
    class       volScalarField;
    location    "120";
    object      pMean;
}
// * * * * * * * * * * * * * * * * * * * * * * * * * * * * * * * * * * * * * //

dimensions      [0 2 -2 0 0 0 0];

internalField   nonuniform List<scalar> 
9520
(
-5.8349636e-05
-5.6773216e-05
-9.7643774e-05
-5.397605e-05
-9.3556836e-05
-0.00016148174
-5.0369142e-05
-8.6303415e-05
-0.00015487125
-0.00021970331
-4.6218418e-05
-7.6758229e-05
-0.00014295271
-0.00021037646
-0.00028828373
-4.1807816e-05
-6.5657153e-05
-0.0001271462
-0.000193687
-0.00027618275
-0.00036065492
-3.7328942e-05
-5.3739279e-05
-0.00010866128
-0.00017151587
-0.00025446422
-0.00034574068
-0.0004403045
-3.3039069e-05
-4.1584241e-05
-8.8663735e-05
-0.00014553562
-0.00022549421
-0.00031888881
-0.00042248366
-0.00052640163
-2.9054648e-05
-2.9688365e-05
-6.8105932e-05
-0.00011732598
-0.0001913663
-0.0002828872
-0.00039029583
-0.00050575617
-0.00061992355
-2.5513359e-05
-1.8333114e-05
-4.7943866e-05
-8.8194478e-05
-0.00015404377
-0.00024018979
-0.00034692219
-0.00046828889
-0.00059652145
-0.00072091608
-2.1956875e-05
-8.1922e-06
-2.873041e-05
-5.931564e-05
-0.00011520391
-0.00019311966
-0.00029514491
-0.00041746574
-0.00055385691
-0.00069498268
-0.0008295893
-1.9486891e-05
9.4409929e-07
-1.1181497e-05
-3.1558933e-05
-7.6374437e-05
-0.00014371984
-0.0002376045
-0.00035631931
-0.00049560608
-0.0006474518
-0.00080139481
-0.00094574071
-1.6104189e-05
8.2914428e-06
4.6543702e-06
-5.9023522e-06
-3.8795161e-05
-9.3895432e-05
-0.00017666182
-0.00028775016
-0.0004249613
-0.00058207907
-0.00074943952
-0.00091570705
-0.001069109
-1.5544086e-05
1.5562868e-05
1.7653819e-05
1.7353127e-05
-3.6959509e-06
-4.5171133e-05
-0.00011454
-0.00021442466
-0.00034499335
-0.00050209164
-0.00067743741
-0.00086003401
-0.0010377309
-0.0011990658
-1.1432868e-05
1.9133956e-05
2.9377775e-05
3.7133941e-05
2.8381831e-05
9.4628083e-07
-5.3123836e-05
-0.00013885804
-0.0002585728
-0.00041062875
-0.00058852207
-0.00078223507
-0.00097919137
-0.0011669837
-0.0013349686
-1.3820218e-05
2.5181911e-05
3.6701757e-05
5.4623323e-05
5.6235178e-05
4.3642053e-05
5.8312393e-06
-6.3225673e-05
-0.00016846215
-0.00031069211
-0.00048577356
-0.00068518837
-0.00089665085
-0.0011066844
-0.0013029003
-0.0014758298
-9.04779e-06
2.3983758e-05
4.542993e-05
6.6924495e-05
8.076775e-05
8.1542467e-05
6.1105169e-05
1.0448209e-05
-7.7174212e-05
-0.0002052404
-0.0003722101
-0.00057176775
-0.00079257296
-0.0010208011
-0.0012420964
-0.0014445911
-0.0016207697
-1.3033699e-05
3.1594826e-05
4.6904352e-05
7.9532897e-05
9.9341094e-05
0.0001151585
0.00011111584
8.0510206e-05
1.2945377e-05
-9.7034711e-05
-0.00025090354
-0.00044489126
-0.0006694744
-0.00091121658
-0.0011544942
-0.0013847526
-0.0015911832
-0.0017685037
-8.1078571e-06
2.7028722e-05
5.475664e-05
8.4226538e-05
0.0001168781
0.00014193115
0.00015605054
0.00014521039
9.9964898e-05
1.1206579e-05
-0.00012487034
-0.00030764163
-0.0005300309
-0.00077992007
-0.0010412448
-0.0012973874
-0.0015338699
-0.0017414657
-0.0019178809
-1.1937827e-05
3.4639961e-05
5.081688e-05
9.3583672e-05
0.00012502235
0.000166151
0.00019334977
0.00020441718
0.00018187409
0.00011728239
2.8856737e-06
-0.00016319082
-0.00037721517
-0.00062917353
-0.00090364338
-0.0011827282
-0.0014488783
-0.0016883772
-0.001894365
-0.0020674563
-7.0867019e-06
2.7354665e-05
5.721567e-05
9.0278928e-05
0.00013597648
0.00017966695
0.00022663514
0.00025543609
0.00025809125
0.00021884574
0.0001298688
-1.4796438e-05
-0.00021425195
-0.00046170186
-0.00074336339
-0.0010412023
-0.0013353659
-0.0016081102
-0.0018472347
-0.002048457
-0.0022160982
-7.4739566e-06
3.1119284e-05
4.8977031e-05
9.5496598e-05
0.00013287854
0.00019431298
0.0002480947
0.00030134416
0.00032577934
0.00031478613
0.00025331788
0.00013469352
-4.4527191e-05
-0.00028064008
-0.00056270554
-0.00087371354
-0.0011927056
-0.0014986017
-0.0017741265
-0.002009081
-0.0022025637
-0.00236243
-3.9614889e-06
2.1264428e-05
5.1497649e-05
8.5629534e-05
0.00013744575
0.00019347034
0.00026953222
0.00033473495
0.00038753064
0.00040211623
0.00037162808
0.00028212673
0.00012872313
-8.9454442e-05
-0.00036457414
-0.00068196736
-0.0010208493
-0.0013580262
-0.0016716558
-0.0019456819
-0.0021726996
-0.0023552143
-0.0025053333
-1.3924381e-06
2.0109121e-05
4.2511371e-05
8.6843641e-05
0.00012483249
0.00019941178
0.00027414624
0.00036702466
0.00043653517
0.00048297582
0.00048165185
0.00042539317
0.00030197273
0.00010829952
-0.0001523969
-0.00046846891
-0.00082072347
-0.001185213
-0.0015366718
-0.001853466
-0.0021215427
-0.0023365789
-0.0025052485
-0.0026435511
-2.9882593e-07
9.2217394e-06
3.8142105e-05
7.3164726e-05
0.00012287865
0.00018583928
0.00028416399
0.00038146931
0.00048366941
0.00055103309
0.00058478943
0.00056112087
0.00047256935
0.00030883767
7.0065201e-05
-0.00023647362
-0.00059425002
-0.00098009588
-0.0013667136
-0.0017278654
-0.0020428651
-0.0023001775
-0.0024994631
-0.0026513319
-0.0027761135
7.9694585e-06
1.961585e-06
2.9284062e-05
6.6698208e-05
0.00010311012
0.00018186472
0.00027263176
0.00040029433
0.00051218385
0.00061626182
0.00067480466
0.00068983215
0.00063670687
0.00050892764
0.00029876063
1.0197368e-05
-0.00034434379
-0.00074380346
-0.0011605464
-0.0015650183
-0.0019306076
-0.0022383485
-0.0024802002
-0.0026598445
-0.0027923981
-0.0029020248
9.5105897e-06
-5.1888513e-06
1.5225759e-05
5.1532611e-05
8.9902198e-05
0.00015639269
0.00026869586
0.00039604699
0.00054452704
0.00066197137
0.00076074603
0.00080527813
0.0007942132
0.00070427908
0.0005299786
0.00026728427
-7.4740339e-05
-0.00047870924
-0.00091831336
-0.0013623256
-0.001779387
-0.0021435183
-0.0024384326
-0.002659952
-0.002816504
-0.0029273397
-0.003020491
1.5583333e-05
-1.8829806e-05
7.3692283e-06
2.8524314e-05
6.5175422e-05
0.00013673964
0.00024056069
0.00039842519
0.00055253563
0.00071084375
0.00082600594
0.00091537979
0.00093870708
0.00089395002
0.00075901397
0.00053070761
0.00021022563
-0.0001882689
-0.00064161777
-0.0011187292
-0.0015851184
-0.0020087329
-0.0023650915
-0.002641326
-0.0028380145
-0.0029681049
-0.0030552634
-0.0031308137
1.8370746e-05
-2.3375393e-05
-1.0113016e-05
9.0767136e-06
3.1906905e-05
9.9328832e-05
0.00021544289
0.00037395609
0.00056686258
0.00073382495
0.00089348109
0.0010033911
0.0010768695
0.0010714288
0.00098402293
0.00079532077
0.00050605306
0.00012316435
-0.00033339995
-0.00083482311
-0.0013453417
-0.0018282909
-0.0022516221
-0.0025934749
-0.0028453864
-0.0030127713
-0.003113581
-0.003175337
-0.0032324329
2.8953406e-05
-3.753781e-05
-2.3176705e-05
-1.7423292e-05
-5.3167596e-06
5.3942686e-05
0.00016833343
0.00035160425
0.00055219937
0.00076235878
0.00093243869
0.0010920721
0.0011922255
0.0012421545
0.0011983789
0.001058426
0.00080728521
0.00045078733
2.1671349e-06
-0.00051283902
-0.0010594275
-0.0015981386
-0.0020906448
-0.0025062793
-0.0028268133
-0.003048709
-0.0031828896
-0.003251862
-0.00328689
-0.0033249268
4.1063392e-05
-4.546491e-05
-4.5359239e-05
-4.0454982e-05
-5.2170926e-05
-5.1005565e-06
0.00011038608
0.00030212351
0.00053890596
0.00075987531
0.00097554659
0.0011488707
0.0013064151
0.0013900673
0.0014061932
0.0013130935
0.0011104274
0.00078894762
0.00036016916
-0.00015649574
-0.00072860226
-0.001316168
-0.0018763777
-0.0023706322
-0.0027706998
-0.0030629613
-0.00324964
-0.0033469469
-0.0033820701
-0.0033893865
-0.0034080064
5.8783762e-05
-6.1813439e-05
-6.4695549e-05
-7.6680256e-05
-9.6506513e-05
-7.9974914e-05
3.1551853e-05
0.00024094651
0.00049319987
0.00075720498
0.00098400002
0.0012078046
0.0013854875
0.0015356841
0.0015919261
0.0015622713
0.001408077
0.0011333106
0.00073462063
0.00022937948
-0.00035588675
-0.00098236389
-0.0016050174
-0.0021789188
-0.0026662467
-0.0030425647
-0.0032998908
-0.0034463548
-0.0035038049
-0.0035034372
-0.0034824213
-0.0034815102
8.0192166e-05
-7.7565907e-05
-9.052568e-05
-0.00011098523
-0.00015701037
-0.0001522614
-7.1223413e-05
0.00015345183
0.00043273636
0.00071712816
0.0009892292
0.0012262708
0.0014650308
0.0016430574
0.0017745941
0.0017907268
0.0017019944
0.0014759347
0.0011204495
0.00063862307
5.4250619e-05
-0.00059875046
-0.0012749977
-0.0019254554
-0.0025039572
-0.0029751095
-0.003319485
-0.003535351
-0.0036373332
-0.0036523249
-0.0036153415
-0.0035657283
-0.0035454038
0.00010362698
-9.8123153e-05
-0.00011820366
-0.00015510927
-0.00021488562
-0.00024181086
-0.0001732399
3.193665e-05
0.00033987136
0.00065917816
0.00095170346
0.001236864
0.0014982889
0.0017500288
0.0019179118
0.0020157596
0.0019770737
0.0018173582
0.0015093286
0.0010653643
0.00049576762
-0.00016917806
-0.00088703939
-0.0016068858
-0.0022761591
-0.0028492489
-0.0032945773
-0.0035988439
-0.0037673734
-0.0038209792
-0.0037915988
-0.0037172996
-0.0036391718
-0.0035997559
0.00012976497
-0.00012445913
-0.00014869136
-0.00020101228
-0.00028536903
-0.00032732954
-0.00029568784
-9.4516021e-05
0.00020174
0.00056075522
0.00088926361
0.0011967671
0.001520461
0.0018052821
0.0020605958
0.0022013596
0.0022490644
0.0021422806
0.0019002514
0.0015010934
0.00096200239
0.00030075583
-0.0004440609
-0.0012222776
-0.0019774391
-0.0026552303
-0.003212045
-0.0036217117
-0.0038781373
-0.0039938292
-0.0039959975
-0.0039208189
-0.0038089948
-0.0037027406
-0.0036447393
0.00015444106
-0.00014985756
-0.00018265174
-0.00025306303
-0.00035674375
-0.0004328143
-0.00041364483
-0.00024842163
4.8455496e-05
0.00040775083
0.00077372983
0.0011221565
0.0014831507
0.0018466496
0.0021469276
0.0023873794
0.0024818942
0.002464914
0.0022776919
0.001943068
0.0014441319
0.00080405279
4.9035277e-05
-0.00077321648
-0.001604918
-0.0023854214
-0.0030600647
-0.003589213
-0.0039534904
-0.0041546859
-0.0042129433
-0.0041611273
-0.0040393757
-0.0038902532
-0.0037565264
-0.0036806043
0.0001796252
-0.00017525322
-0.00021535664
-0.00031330581
-0.00043355349
-0.00053975031
-0.00056146861
-0.00039801523
-0.0001401984
0.00022530659
0.0005967559
0.00097898979
0.0014035284
0.0018196143
0.0022182226
0.0025129929
0.0027155331
0.0027491213
0.0026541619
0.0023755113
0.0019382538
0.0013313704
0.00058543015
-0.00026368014
-0.0011584772
-0.0020347197
-0.0028286693
-0.003487515
-0.0039772955
-0.0042866878
-0.004426093
-0.0044228668
-0.0043153895
-0.0041468182
-0.0039610275
-0.0038007279
-0.0037076664
0.00020433735
-0.00019848702
-0.00024950907
-0.00037363759
-0.00051870963
-0.00065072418
-0.00071339045
-0.00059291303
-0.0003259473
-4.1626972e-06
0.00036835765
0.00076658887
0.0012420233
0.0017419361
0.0022143269
0.0026247023
0.0028856519
0.0030345346
0.0029933328
0.0028086326
0.0024277782
0.0018778351
0.0011556016
0.00030035675
-0.00064066393
-0.0016008882
-0.0025103031
-0.0033043134
-0.0039338787
-0.0043725609
-0.0046181894
-0.0046898531
-0.0046221509
-0.0044579264
-0.0042428712
-0.0040213836
-0.0038356205
-0.0037262864
0.00022609559
-0.00021749076
-0.00028067085
-0.000435765
-0.00060073274
-0.0007738658
-0.00086868066
-0.00079782645
-0.00057497463
-0.00023361923
8.5242067e-05
0.0004789161
0.00099702912
0.001570663
0.0021545081
0.0026552467
0.0030432857
0.0032529272
0.0033337992
0.003206195
0.0029205771
0.0024264267
0.0017534718
0.00090942184
-5.634566e-05
-0.001084586
-0.0021002747
-0.0030294402
-0.0038086482
-0.0043950197
-0.0047711729
-0.0049447894
-0.0049438891
-0.0048093701
-0.0045881397
-0.0043273979
-0.0040714891
-0.0038615352
-0.0037368872
0.00024296737
-0.00023027655
-0.00030692033
-0.00049463615
-0.00068188359
-0.00089098527
-0.0010401685
-0.0010079223
-0.00084033727
-0.00054314154
-0.00020416147
0.00012293804
0.00064724816
0.0012953803
0.0019885993
0.0026266737
0.003112294
0.0034606692
0.0036042463
0.0036049727
0.0033803162
0.0029821152
0.0023620512
0.0015562985
0.00058577205
-0.00048932786
-0.0015969432
-0.0026554588
-0.0035887771
-0.0043373553
-0.0048664629
-0.0051691668
-0.0052635854
-0.005186078
-0.0049834903
-0.0047055704
-0.0044004073
-0.0041116093
-0.0038788617
-0.0037399349
-0.00023315576
0.00024360144
-0.00032687534
-0.00054627173
-0.00075527691
-0.0010036512
-0.0012024914
-0.0012436357
-0.0011173994
-0.0008749125
-0.00059007586
-0.00024065703
0.00021331494
0.00089428162
0.0017024267
0.0024803047
0.0031198605
0.0035723749
0.0038655651
0.0039308729
0.0038415988
0.0035086541
0.0029839018
0.0022246385
0.001277511
0.00017777436
-0.0010019886
-0.0021780862
-0.0032639146
-0.0041841359
-0.0048854815
-0.0053434794
-0.0055627147
-0.00557168
-0.0054148004
-0.0051435694
-0.0048099844
-0.0044620311
-0.0041420912
-0.0038880457
-0.0037359268
-0.00033540703
-0.00023393547
0.00022747288
-0.00058664386
-0.00081605312
-0.0011037424
-0.001356845
-0.0014709958
-0.0014300996
-0.0012254696
-0.0010022032
-0.0007252985
-0.00023152579
0.00038708606
0.0012690524
0.0022012274
0.0029996669
0.0036228044
0.0040229788
0.0042493411
0.0042279301
0.0040383235
0.0035822017
0.002914404
0.0020034265
0.00090805339
-0.00032037252
-0.0015965245
-0.0028267546
-0.0039219817
-0.0048103499
-0.0054476324
-0.0058212736
-0.0059480122
-0.0058666328
-0.0056284684
-0.0052890362
-0.0049012891
-0.0045125103
-0.0041633174
-0.0038895616
-0.0037253476
-0.00060758838
-0.00034185968
-0.00023178859
0.00020388779
-0.00085914517
-0.0011838694
-0.0014928385
-0.0016907955
-0.0017399409
-0.0016254928
-0.0014358928
-0.0012459163
-0.00082459569
-0.00013578676
0.00070568973
0.0017559871
0.0027322067
0.0035347912
0.0041192265
0.0044542868
0.00460766
0.0044920335
0.0041868476
0.0035886774
0.0027610758
0.001687161
0.00043957186
-0.00091332038
-0.0022734894
-0.0035403146
-0.0046247077
-0.0054615682
-0.0060180714
-0.0062950157
-0.0063215956
-0.0061460775
-0.0058260265
-0.0054194344
-0.0049795572
-0.0045521572
-0.004175737
-0.0038839176
-0.0037087008
-0.00087634656
-0.00061903162
-0.00034507595
-0.0002172998
0.00017673795
-0.0012368184
-0.0015997956
-0.0018909311
-0.0020444824
-0.0020281441
-0.0019318058
-0.0017855791
-0.0014733676
-0.00083701247
0.00011395775
0.0011482237
0.0022821158
0.0032882817
0.0040669866
0.0045994537
0.0048636862
0.0049404791
0.0047163272
0.0042748356
0.0035141427
0.0025104732
0.0012646957
-0.0001353793
-0.0016039425
-0.0030319536
-0.0043145591
-0.0053661025
-0.0061312595
-0.0065908921
-0.0067600676
-0.0066801535
-0.0064082247
-0.0060064916
-0.0055345984
-0.0050449431
-0.0045813507
-0.0041798782
-0.0038716576
-0.0036864875
-0.0012514883
-0.00087778052
-0.00062059703
-0.0003349083
-0.00019499957
0.00014953399
-0.0016685944
-0.0020565213
-0.0023287909
-0.0024286146
-0.002434857
-0.0024009569
-0.0021382935
-0.0016153492
-0.00069360418
0.00049503532
0.0016309327
0.0028379573
0.0038463278
0.0045832027
0.0050620826
0.0052558603
0.0052431887
0.004889255
0.0042866681
0.0033426314
0.0021486094
0.00072566511
-0.00082267429
-0.0023935957
-0.00386909
-0.005143845
-0.0061391261
-0.0068124877
-0.0071601712
-0.0072119594
-0.0070209006
-0.006651427
-0.006169325
-0.0056344023
-0.0050977354
-0.0046006412
-0.0041763577
-0.003853321
-0.0036591893
-0.0016847053
-0.0012393092
-0.00086271636
-0.00060042821
-0.00031719934
-0.0001700488
0.0001238322
-0.0021745787
-0.0025735549
-0.0028083414
-0.0029348866
-0.0030223142
-0.0028931159
-0.0024115884
-0.0016025273
-0.00041250451
0.00092147996
0.0021573932
0.0034070448
0.0043934793
0.0050843124
0.0055163778
0.005630833
0.0055060282
0.0049940212
0.0042047849
0.0030579118
0.0016619386
6.0837546e-05
-0.0016264738
-0.0032812577
-0.0047801378
-0.0060210307
-0.0069359784
-0.0074980049
-0.0077200882
-0.0076466725
-0.0073413246
-0.0068745596
-0.0063139514
-0.0057190207
-0.0051384759
-0.0046107395
-0.0041657402
-0.0038293403
-0.0036272479
-0.0022231068
-0.0016594861
-0.0012004637
-0.00082054246
-0.00056469014
-0.00029331774
-0.00014287042
9.8669292e-05
-0.002758997
-0.0031422227
-0.0034105169
-0.0036345117
-0.0036529702
-0.0033164618
-0.0025399231
-0.0014475689
-7.8047674e-05
0.0013922332
0.0027086982
0.0039660935
0.0049282083
0.0055852698
0.0059685113
0.0059790361
0.005711853
0.0050108721
0.0040099467
0.0026429798
0.0010381019
-0.00073737659
-0.0025484887
-0.0042638294
-0.0057584388
-0.006937792
-0.0077481811
-0.0081805054
-0.0082651594
-0.0080605623
-0.0076394458
-0.0070764845
-0.0064402742
-0.0057888683
-0.0051679813
-0.0046122112
-0.0041483088
-0.0038000435
-0.0035911329
-0.0028549509
-0.0022102455
-0.0015942416
-0.0011236271
-0.00076117753
-0.00051796399
-0.00026433936
-0.00011600837
7.8086738e-05
-0.0034038687
-0.0038288604
-0.0042101118
-0.0043961878
-0.0042273345
-0.0036094515
-0.0025356064
-0.0012328635
0.00030028947
0.0018935722
0.0032492691
0.0045148767
0.0054739132
0.0060999939
0.0064095403
0.0062837883
0.005838323
0.0049180868
0.0036817835
0.0020816193
0.00026558348
-0.0016741802
-0.003588159
-0.0053358732
-0.0067956841
-0.0078846695
-0.0085669115
-0.0088528382
-0.0087903113
-0.0084505052
-0.0079133704
-0.0072566234
-0.0065486515
-0.0058448944
-0.0051867829
-0.0046050753
-0.0041242034
-0.0037660072
-0.0035514621
-0.0035531385
-0.0028664725
-0.0021391193
-0.0014806467
-0.0010231957
-0.00068889093
-0.000464323
-0.00023439019
-8.8876174e-05
6.0946751e-05
-0.0041589313
-0.0047094726
-0.0050879744
-0.0051142133
-0.0046900595
-0.0037824297
-0.0024686345
-0.00097265359
0.00072142004
0.0023850588
0.0037794268
0.00508604
0.0060530157
0.0066212345
0.0068231096
0.0065197863
0.0058602891
0.0046925105
0.0032004442
0.0013583977
-0.0006647475
-0.0027521466
-0.0047420299
-0.0064898357
-0.0078818477
-0.0088514253
-0.0093832079
-0.0095082126
-0.0092909693
-0.00881357
-0.0081617992
-0.0074150205
-0.0066400521
-0.0058875413
-0.0051945203
-0.0045892131
-0.0040943669
-0.0037284505
-0.0035088325
-0.0043476414
-0.0035905107
-0.0027938775
-0.0020008952
-0.0013365656
-0.00090739783
-0.00060862015
-0.00040896571
-0.00020072136
-6.7227719e-05
4.7494099e-05
-0.005094342
-0.0056793707
-0.0059346835
-0.00574351
-0.005055301
-0.0038961068
-0.0023518818
-0.00065942482
0.001127409
0.0028654586
0.0043481608
0.0057168253
0.0066584076
0.007132398
0.0071821316
0.0066594696
0.0057526807
0.0043110511
0.002546336
0.00045998495
-0.001759545
-0.0039708318
-0.0060039694
-0.0077156582
-0.0090055607
-0.0098272736
-0.010188319
-0.010140273
-0.0097628049
-0.0091474366
-0.0083843252
-0.0075527431
-0.0067147542
-0.0059159405
-0.0051907273
-0.0045662395
-0.0040612425
-0.0036883965
-0.0034631776
-0.0052984819
-0.0043903427
-0.0035124679
-0.0026302891
-0.0018179326
-0.0011734223
-0.00078461512
-0.00052703147
-0.00034977384
-0.00016879717
-4.9959594e-05
3.7418137e-05
-0.0061251127
-0.0066296079
-0.006719031
-0.0063015949
-0.0053744866
-0.0039578201
-0.0021719979
-0.00036140739
0.0015172579
0.0033997354
0.0050038762
0.0063924369
0.0072793334
0.0076061022
0.0074568654
0.0066756759
0.0054889526
0.0037501577
0.0017013382
-0.00062533964
-0.0030223812
-0.0053266389
-0.0073648529
-0.0090014036
-0.010154387
-0.010801351
-0.010973782
-0.010742896
-0.010202127
-0.0094510026
-0.0085818178
-0.0076697848
-0.0067712014
-0.0059291305
-0.005177969
-0.0045404174
-0.0040263049
-0.0036442683
-0.0034115249
-0.0063436601
-0.0053124979
-0.0042813321
-0.0033138429
-0.0024049083
-0.0016061083
-0.0010030778
-0.00066192459
-0.00044153639
-0.00029613724
-0.00013811187
-3.0846555e-05
2.8724805e-05
-0.0071451985
-0.0075453304
-0.0074639208
-0.0068325072
-0.0056451662
-0.0039494188
-0.0020057656
-0.00010332324
0.001960933
0.0040426377
0.0057280301
0.0071073783
0.0078846526
0.0080091634
0.0076186856
0.0065395061
0.0050421849
0.0029868244
0.00064905851
-0.0019059518
-0.0044531283
-0.0068123907
-0.0088129211
-0.010333361
-0.011315355
-0.011762828
-0.011731279
-0.011310586
-0.010606793
-0.0097247822
-0.0087540451
-0.0077636627
-0.0068077548
-0.0059309406
-0.0051629958
-0.0045136061
-0.0039847155
-0.0035904303
-0.0033539108
-0.0073848159
-0.0063206954
-0.0051343716
-0.0040181632
-0.0030330744
-0.0021361919
-0.0013815106
-0.00083359339
-0.00053781337
-0.00036524995
-0.00024559906
-0.00010490092
-1.7491451e-05
2.5842943e-05
-0.0081571773
-0.0084597839
-0.0082050259
-0.0073205113
-0.0058362572
-0.0039567559
-0.0018907244
0.00019089905
0.0025310043
0.0047900756
0.0065258191
0.0078295164
0.0084330428
0.008308832
0.0076359153
0.0062205297
0.0043842214
0.0019992537
-0.00062436409
-0.0033865066
-0.0060476678
-0.0084173618
-0.010333776
-0.011696625
-0.012475081
-0.012700785
-0.012453014
-0.01183973
-0.010976685
-0.0099680281
-0.0088971968
-0.0078318112
-0.0068298132
-0.0059313546
-0.0051480187
-0.0044759112
-0.0039260373
-0.0035310326
-0.003291599
-0.0084370592
-0.0073275075
-0.0060567959
-0.0047685059
-0.0036536824
-0.0026936062
-0.0018459151
-0.0011541276
-0.00066431674
-0.0004290624
-0.00029177064
-0.00019414456
-8.1066836e-05
-3.325167e-07
1.9528249e-05
-0.0092092418
-0.0093950556
-0.0089114267
-0.0077209661
-0.0060462084
-0.0040273206
-0.001762002
0.00061605205
0.0032279567
0.00565404
0.0073656145
0.0085143732
0.0088945853
0.0084723377
0.0074753088
0.0056865907
0.0034872265
0.00076743758
-0.0021290766
-0.005067309
-0.0077977009
-0.010127334
-0.011910994
-0.013075306
-0.013619744
-0.013604626
-0.013133378
-0.012329269
-0.011310285
-0.0101753
-0.0090074791
-0.0078814987
-0.0068514862
-0.0059329465
-0.005116058
-0.0044100453
-0.0038621934
-0.0034665258
-0.0032246051
-0.009573645
-0.0083618514
-0.0069790113
-0.0055677039
-0.0042821282
-0.0032168545
-0.0023223987
-0.0015468473
-0.00092419838
-0.00051644623
-0.0003254078
-0.00022036331
-0.00015426801
-5.1552074e-05
5.6708884e-06
1.8316656e-05
-0.010305245
-0.010302749
-0.0095213763
-0.0081394412
-0.006333581
-0.0041047507
-0.0015147589
0.0012019449
0.0040765483
0.0065977337
0.0081939092
0.0091305904
0.0092378789
0.0084649979
0.0070992983
0.0049045201
0.0023239874
-0.00072522814
-0.0038709939
-0.0069436687
-0.0096905095
-0.011925251
-0.013526505
-0.014452483
-0.014735459
-0.01446615
-0.013769939
-0.012776572
-0.011600097
-0.010341095
-0.0090943466
-0.0079320559
-0.006875781
-0.0059092514
-0.0050406956
-0.004339332
-0.003792744
-0.0033970646
-0.0031529204
-0.010777689
-0.0095209359
-0.0079423666
-0.0063644085
-0.0049384422
-0.0037125584
-0.0027407533
-0.0019366571
-0.0012416779
-0.00072139385
-0.00037443644
-0.00022633329
-0.00016574735
-0.00010783769
-3.38534e-05
1.8220219e-05
1.0283532e-05
-0.011379839
-0.011105744
-0.010148535
-0.0086517669
-0.0066508958
-0.0040814703
-0.0010889707
0.0019751284
0.0050347136
0.0075509356
0.0089734676
0.0096409744
0.0094244112
0.00824585
0.0064708638
0.0038421206
0.00087102395
-0.0024913634
-0.0058506308
-0.0090057443
-0.011709483
-0.013791289
-0.015160235
-0.015810579
-0.015810832
-0.015281031
-0.014358603
-0.013171329
-0.011838212
-0.010477338
-0.0091836399
-0.0079869729
-0.0068638562
-0.005822031
-0.0049607049
-0.0042622733
-0.0037181841
-0.0033226243
-0.0030765679
-0.011963057
-0.010767737
-0.0090590862
-0.0072111047
-0.0055879492
-0.0042169637
-0.0031014274
-0.0022481394
-0.001542416
-0.00096904765
-0.00052538592
-0.00023866612
-0.00014966536
-0.00010594566
-7.3903813e-05
-1.0151042e-05
2.0180549e-05
9.4228021e-06
-0.012342168
-0.011917309
-0.010877695
-0.0092166989
-0.0068863288
-0.0038596577
-0.00046179043
0.0028887718
0.0060458334
0.0084841893
0.0096783516
0.010008302
0.0094132866
0.007772304
0.0055507022
0.0024673479
-0.0008912984
-0.0045386375
-0.0080625221
-0.011238557
-0.013833762
-0.01570246
-0.016790724
-0.017134433
-0.016839032
-0.01604322
-0.014885529
-0.013502664
-0.012039341
-0.01061797
-0.0092794174
-0.007991583
-0.0067624164
-0.0057301827
-0.0048733634
-0.0041799899
-0.0036384368
-0.0032432383
-0.0029955772
-0.013026932
-0.011991964
-0.010273976
-0.0082293729
-0.0062938911
-0.0047077636
-0.0034540241
-0.0024771465
-0.0017488215
-0.0011871417
-0.00069993689
-0.00033485104
-0.00013386084
-6.9420934e-05
-6.0914979e-05
-3.4835296e-05
5.7378502e-06
2.6903181e-05
5.2843683e-06
-0.013294647
-0.012831225
-0.01167505
-0.0097244068
-0.0069199648
-0.003414505
0.00034317807
0.0039043085
0.0070764644
0.0093742923
0.010269527
0.010189322
0.0091555922
0.0069994055
0.004299254
0.00075320708
-0.0029786627
-0.0068683235
-0.010495234
-0.013621874
-0.016038351
-0.0176334
-0.018398561
-0.018414125
-0.0178115
-0.016734525
-0.015335536
-0.013788156
-0.01224733
-0.010767754
-0.0093069341
-0.0078735842
-0.0066559109
-0.005629712
-0.0047807506
-0.0040922563
-0.0035535443
-0.0031589615
-0.0029100093
-0.014059481
-0.013091939
-0.011462688
-0.0093492905
-0.0071764953
-0.0052592338
-0.0037869889
-0.0026841085
-0.0018519442
-0.0012976946
-0.00083600133
-0.00044228052
-0.00018468185
-2.7506905e-05
-8.1185277e-06
-1.067185e-05
-3.6427915e-06
2.2585423e-05
3.2859355e-05
2.9632188e-06
-0.014335635
-0.013817483
-0.012437071
-0.010034616
-0.0067227649
-0.0027706998
0.0012723262
0.0049862569
0.0080997095
0.010172107
0.010692782
0.010127006
0.008600411
0.0058810756
0.0026782451
-0.0013245056
-0.0054000663
-0.0094746772
-0.013130761
-0.016129497
-0.018294297
-0.01956017
-0.019970168
-0.019637932
-0.018704689
-0.017334157
-0.015729508
-0.014083671
-0.012467873
-0.010826776
-0.009170136
-0.0077494013
-0.0065392424
-0.0055239132
-0.0046823872
-0.0039991842
-0.0034635754
-0.0030699016
-0.0028199244
-0.015152702
-0.014132783
-0.012525001
-0.010431489
-0.00815262
-0.0059813263
-0.0041809452
-0.0028656692
-0.0019216649
-0.0012929579
-0.00085148783
-0.00050387055
-0.00024029545
-3.5431987e-05
5.3862081e-05
5.7077053e-05
2.9562046e-05
2.6613841e-05
3.67733e-05
3.2799579e-05
1.1909978e-06
-0.015439272
-0.014781146
-0.013014646
-0.010113844
-0.0063151663
-0.0019791504
0.0022995523
0.006115592
0.0090894459
0.010829206
0.010893354
0.0097651599
0.00769491
0.0043706651
0.00065204422
-0.0037849445
-0.0081568802
-0.012343852
-0.015943046
-0.018729259
-0.02057287
-0.021465153
-0.021490073
-0.020775847
-0.019490644
-0.017865962
-0.016137733
-0.014396209
-0.012569768
-0.010669186
-0.0090250796
-0.0076131828
-0.0064171794
-0.0054120587
-0.004578487
-0.0039008269
-0.0033686834
-0.0029761838
-0.00272537
-0.016290714
-0.015201346
-0.013499611
-0.011385552
-0.0090777096
-0.0067816892
-0.0047310262
-0.0031050171
-0.0019613729
-0.0012489053
-0.00074599314
-0.00044011175
-0.00024536987
-3.8401608e-05
8.3180776e-05
0.00013729782
0.00010502227
6.6394992e-05
5.1882748e-05
4.0715908e-05
3.8679135e-05
-4.4459841e-06
-0.01652464
-0.015576069
-0.013369916
-0.0099803051
-0.0057562031
-0.0010627191
0.003399836
0.0072664927
0.0099892611
0.011281431
0.010810734
0.0090456671
0.0063867845
0.0024248419
-0.001808063
-0.0066390004
-0.01124161
-0.015452288
-0.018898426
-0.021388447
-0.02285212
-0.023328577
-0.022920603
-0.021790857
-0.020195834
-0.018417877
-0.016568939
-0.014555906
-0.012389892
-0.010499916
-0.0088656928
-0.0074714774
-0.0062887097
-0.0052944322
-0.0044690715
-0.0037974427
-0.003269063
-0.0028778352
-0.0026263953
-0.017408349
-0.016288502
-0.014463133
-0.012223361
-0.0098687453
-0.007516443
-0.0053390038
-0.0034780213
-0.0020542612
-0.0011736246
-0.00060259618
-0.00024922639
-0.00012939063
1.3667206e-05
0.00013004175
0.00019857373
0.00019634984
0.00014391723
9.5555373e-05
6.2681597e-05
5.539245e-05
3.27732e-05
-3.3420508e-06
-0.017456186
-0.016160979
-0.013529247
-0.0096983337
-0.0050538523
-4.3039116e-05
0.004563288
0.0083999917
0.01072685
0.011456586
0.010384584
0.0079082971
0.0046192332
3.2009873e-06
-0.0047268067
-0.0098889875
-0.014634715
-0.018765706
-0.021960573
-0.024080759
-0.025107737
-0.025103904
-0.02421347
-0.022711465
-0.02092883
-0.019000919
-0.016805855
-0.014353123
-0.01219308
-0.010313509
-0.0087006502
-0.007322937
-0.0061541733
-0.0051710605
-0.0043545283
-0.0036892818
-0.0031646208
-0.0027748203
-0.0025231958
-0.018384229
-0.017341373
-0.015418663
-0.013014206
-0.010516472
-0.0081091373
-0.0058667435
-0.0038864971
-0.0022605818
-0.0011508047
-0.00042761968
-2.0280583e-05
0.00011198789
0.00018311028
0.00023470178
0.00028174037
0.00028052504
0.00023809297
0.00017398014
0.00010999941
8.3676383e-05
5.2551165e-05
3.8741349e-05
-1.0137402e-05
-0.018186371
-0.01657406
-0.013554535
-0.0092714177
-0.0042243125
0.0010806227
0.0057709923
0.0094597732
0.011226126
0.011288372
0.0095490496
0.006286405
0.0023375378
-0.0029307008
-0.0081190201
-0.013524013
-0.01830354
-0.022245398
-0.025099604
-0.02677683
-0.02728315
-0.026729135
-0.025398224
-0.023670455
-0.021704491
-0.01934006
-0.016580956
-0.014125653
-0.011975691
-0.01012113
-0.0085282225
-0.0071679511
-0.0060136131
-0.0050424524
-0.004235159
-0.0035760802
-0.0030550838
-0.0026675613
-0.0024158843
-0.019164997
-0.018264915
-0.016329159
-0.013772475
-0.011085485
-0.0085362374
-0.0062439663
-0.004196783
-0.002478301
-0.0012138207
-0.00029443439
0.00024316542
0.00039193485
0.00047456822
0.00044667993
0.00042071825
0.00038837885
0.00033532338
0.00027122179
0.00018843216
0.00013235897
8.5282825e-05
6.38376e-05
3.1848382e-05
-7.6941846e-06
-0.018780585
-0.016878589
-0.013450745
-0.0087051111
-0.0032609888
0.0022948822
0.0069653794
0.010361409
0.011414153
0.010699449
0.0082297145
0.0041112383
-0.00051252235
-0.0064055441
-0.011984608
-0.017517315
-0.022208634
-0.025858668
-0.028281729
-0.029409118
-0.029300067
-0.02823342
-0.026635948
-0.024688058
-0.022177749
-0.019096011
-0.016320248
-0.013873397
-0.011751744
-0.0099206291
-0.008348835
-0.0070065579
-0.0058676886
-0.0049089433
-0.0041104528
-0.0034571794
-0.0029412306
-0.0025562195
-0.0023046055
-0.019841328
-0.018999621
-0.017116136
-0.014470538
-0.011598746
-0.0088592923
-0.0064409844
-0.0043530748
-0.0025858977
-0.0012648209
-0.00022709714
0.00047185947
0.00071444058
0.00080496189
0.00077080188
0.00065576737
0.00055179131
0.00045854242
0.00037986604
0.00028543756
0.00020971551
0.00013524158
9.9608326e-05
5.7748956e-05
3.6566566e-05
-1.2727428e-05
-0.01930264
-0.017083514
-0.013213967
-0.0079858668
-0.0021624251