/*--------------------------------*- C++ -*----------------------------------*\
| =========                 |                                                 |
| \\      /  F ield         | OpenFOAM: The Open Source CFD Toolbox           |
|  \\    /   O peration     | Version:  5.0                                   |
|   \\  /    A nd           | Web:      www.OpenFOAM.org                      |
|    \\/     M anipulation  |                                                 |
\*---------------------------------------------------------------------------*/
FoamFile
{
    version     2.0;
    format      ascii;
    class       volScalarField;
    location    "120";
    object      pPrime2Mean;
}
// * * * * * * * * * * * * * * * * * * * * * * * * * * * * * * * * * * * * * //

dimensions      [0 4 -4 0 0 0 0];

internalField   nonuniform List<scalar> 
9520
(
4.7143734e-07
4.3542428e-07
3.2059095e-06
3.7484632e-07
2.9604211e-06
8.6772656e-06
3.0164069e-07
2.5470858e-06
8.0154329e-06
1.7112993e-05
2.2627131e-07
2.0470318e-06
6.9006928e-06
1.5814007e-05
2.8969431e-05
1.567823e-07
1.5314667e-06
5.5510234e-06
1.3624516e-05
2.6785202e-05
4.485855e-05
9.856079e-08
1.0551824e-06
4.1580943e-06
1.0970802e-05
2.310025e-05
4.1503726e-05
6.5567686e-05
5.4559897e-08
6.5493503e-07
2.869737e-06
8.2283352e-06
1.8627966e-05
3.5837807e-05
6.0711375e-05
9.203325e-05
2.5794701e-08
3.5083285e-07
1.7855135e-06
5.687634e-06
1.3998003e-05
2.8949938e-05
5.2499183e-05
8.5292734e-05
0.00012534382
1.1858735e-08
1.4947496e-07
9.6037448e-07
3.5453128e-06
9.6995927e-06
2.1803892e-05
4.2496419e-05
7.3877804e-05
0.00011628026
0.00016672728
1.1484206e-08
4.751377e-08
4.1261448e-07
1.9108381e-06
6.0660303e-06
1.5152284e-05
3.2092487e-05
5.9942926e-05
0.00010090636
0.00015484374
0.00021754324
2.2982721e-08
3.5095603e-08
1.3332276e-07
8.2204315e-07
3.2851853e-06
9.5118964e-06
2.2378681e-05
4.5407089e-05
8.2091373e-05
0.00013465017
0.00020228497
0.00027926599
4.478138e-08
9.8642805e-08
9.5979584e-08
2.6304266e-07
1.4243935e-06
5.1783508e-06
1.4111295e-05
3.1787474e-05
6.2400703e-05
0.0001098678
0.00017630551
0.0002600238
0.00035346712
7.5524869e-08
2.2350829e-07
2.6380992e-07
1.8246223e-07
4.6070968e-07
2.2625355e-06
7.7301038e-06
2.0146647e-05
4.3877598e-05
8.3837634e-05
0.00014432493
0.00022719086
0.00032958346
0.00044179049
1.1460532e-07
3.95219e-07
5.9662214e-07
5.0858191e-07
3.0995385e-07
7.3513352e-07
3.4079931e-06
1.111389e-05
2.7969894e-05
5.9242306e-05
0.00011059993
0.0001866394
0.00028873681
0.00041256891
0.00054592501
1.6203774e-07
6.0064775e-07
1.0542214e-06
1.1613256e-06
8.5253468e-07
4.7147594e-07
1.1129611e-06
4.94916e-06
1.5552302e-05
3.8007129e-05
7.8578531e-05
0.00014369032
0.00023810754
0.00036247033
0.00051064233
0.00066757068
2.1836092e-07
8.3060032e-07
1.6005131e-06
2.0609316e-06
1.9541843e-06
1.2904614e-06
6.7229043e-07
1.6257466e-06
7.0053386e-06
2.1320629e-05
5.0769734e-05
0.00010269435
0.00018423402
0.0003001366
0.0004499951
0.00062549262
0.00080840477
2.8512363e-07
1.0739486e-06
2.2038176e-06
3.1347996e-06
3.4806318e-06
2.9865968e-06
1.8282095e-06
9.1612758e-07
2.3211085e-06
9.7282179e-06
2.8758366e-05
6.6864325e-05
0.00013251605
0.00023347727
0.00037423204
0.000552967
0.00075880361
0.00097004344
3.6217279e-07
1.3326971e-06
2.839789e-06
4.3188194e-06
5.3074566e-06
5.3527881e-06
4.2835116e-06
2.4692479e-06
1.2143877e-06
3.2618067e-06
1.331112e-05
3.8278881e-05
8.7003504e-05
0.00016909316
0.00029278242
0.0004619805
0.00067306631
0.00091221753
0.0011540079
4.5012557e-07
1.5896512e-06
3.4916233e-06
5.5614364e-06
7.3260192e-06
8.1957581e-06
7.7359715e-06
5.8737143e-06
3.2238924e-06
1.5796542e-06
4.5307315e-06
1.7997125e-05
5.0382158e-05
0.00011201587
0.0002136013
0.00036361946
0.00056502815
0.00081196541
0.0010872989
0.0013616856
5.4636521e-07
1.8725301e-06
4.1423e-06
6.8213353e-06
9.445833e-06
1.1346692e-05
1.1902548e-05
1.0705781e-05
7.8000268e-06
4.0962682e-06
2.0265684e-06
6.2358158e-06
2.4091218e-05
6.5667791e-05
0.00014285538
0.00026734225
0.00044755214
0.00068505508
0.00097129484
0.0012855004
0.0015942977
6.4788685e-07
2.1410936e-06
4.8018975e-06
8.0712276e-06
1.1597641e-05
1.4663334e-05
1.6532955e-05
1.656565e-05
1.4368345e-05
1.0098149e-05
5.0784271e-06
2.5724405e-06
8.5204522e-06
3.1974768e-05
8.4848602e-05
0.0001806091
0.00033173912
0.0005462212
0.00082374636
0.0011526054
0.0015081281
0.0018528635
7.5114309e-07
2.4708147e-06
5.4456538e-06
9.2994667e-06
1.3729027e-05
1.8037975e-05
2.1415974e-05
2.3095192e-05
2.2379933e-05
1.8827809e-05
1.2782457e-05
6.1457434e-06
3.2445143e-06
1.1576724e-05
4.2119939e-05
0.00010876416
0.00022650095
0.00040832922
0.00066132173
0.00098275403
0.0013573411
0.0017563056
0.0021381789
8.5286153e-07
2.770276e-06
6.1338443e-06
1.0493061e-05
1.5817498e-05
2.1385694e-05
2.6387487e-05
2.9991771e-05
3.1338759e-05
2.9552081e-05
2.4163562e-05
1.5836108e-05
7.2618834e-06
4.0906351e-06
1.5658502e-05
5.5106434e-05
0.00013839112
0.00028189464
0.00049875057
0.00079457639
0.0011636708
0.0015867981
0.002030948
0.0024507922
9.4360094e-07
3.1647412e-06
6.8070623e-06
1.1687907e-05
1.7836631e-05
2.4666594e-05
3.1322462e-05
3.7014301e-05
4.0822592e-05
4.160344e-05
3.8265464e-05
3.0413854e-05
1.9215774e-05
8.3872939e-06
5.188926e-06
2.1097607e-05
7.1635556e-05
0.00017485546
0.00034829049
0.00060472422
0.00094769908
0.0013679937
0.0018420955
0.0023327358
0.0027909919
1.052124e-06
3.5410537e-06
7.5897242e-06
1.2856999e-05
1.9829999e-05
2.7838347e-05
3.6147349e-05
4.3980421e-05
5.0490045e-05
5.440698e-05
5.420922e-05
4.8655234e-05
3.7581955e-05
2.2858171e-05
9.4849118e-06
6.6604404e-06
2.8318259e-05
9.254896e-05
0.00021943902
0.00042731913
0.00072803139
0.0011223709
0.0015970896
0.0021241443
0.0026621
0.0031587978
1.1655118e-06
3.9915817e-06
8.3841408e-06
1.4109145e-05
2.1764318e-05
3.0950164e-05
4.0810557e-05
5.076983e-05
6.0077625e-05
6.7492513e-05
7.1227855e-05
6.9421035e-05
6.0818749e-05
4.5645079e-05
2.6681803e-05
1.0524517e-05
8.6797141e-06
3.7857993e-05
0.00011884312
0.00027358583
0.00052072854
0.00087047707
0.0013202048
0.0018521587
0.0024336266
0.0030192071
0.0035539606
1.3028751e-06
4.4201623e-06
9.2589533e-06
1.5379854e-05
2.3777614e-05
3.3966886e-05
4.5343726e-05
5.7312428e-05
6.9406961e-05
8.0489537e-05
8.8688815e-05
9.1705932e-05
8.7468976e-05
7.4832926e-05
5.4554069e-05
3.0581342e-05
1.1485051e-05
1.1492502e-05
5.0386968e-05
0.00015168696
0.00033890047
0.00063036577
0.0010338712
0.0015427053
0.0021342078
0.0027709738
0.0034039566
0.0039759682
1.4444939e-06
4.8326113e-06
1.0084168e-05
1.6740809e-05
2.5793856e-05
3.7071981e-05
4.9733316e-05
6.3614784e-05
7.8368712e-05
9.3143267e-05
0.00010608467
0.00011467192
0.00011623252
0.00010858165
9.0756508e-05
6.4216063e-05
3.4419164e-05
1.2365713e-05
1.5435873e-05
6.6733412e-05
0.0001924323
0.00041714416
0.000758145
0.0012199886
0.0017912355
0.0024440198
0.0031363571
0.0038159818
0.0044240558
1.5938749e-06
5.2381469e-06
1.0887913e-05
1.802368e-05
2.7953976e-05
4.0173075e-05
5.4174184e-05
6.9685918e-05
8.6946569e-05
0.00010528371
0.00012306156
0.00013763817
0.0001460107
0.0001452282
0.00013299628
0.00010860132
7.4472174e-05
3.8023401e-05
1.3201871e-05
2.0966358e-05
8.7904575e-05
0.00024262492
0.00051022086
0.00090602703
0.0014305325
0.0020669794
0.0027821357
0.0035296803
0.0042546572
0.0048972239
1.7385433e-06
5.5220131e-06
1.1640945e-05
1.9293407e-05
3.0005626e-05
4.3469953e-05
5.8610777e-05
7.5721563e-05
9.5157298e-05
0.00011686397
0.00013936831
0.00016012368
0.00017590111
0.00018334489
0.00017916922
0.00016091892
0.00012829166
8.5078121e-05
4.1194405e-05
1.4090237e-05
2.8688674e-05
0.0001151119
0.00030400546
0.00062015308
0.0010759851
0.0016670913
0.0023709143
0.0031488361
0.0039505804
0.0047191122
0.0053942591
1.8464712e-06
5.804596e-06
1.2224963e-05
2.0469104e-05
3.2072224e-05
4.6644659e-05
6.3290144e-05
8.170933e-05
0.00010320346
0.00012788932
0.00015491452
0.00018177114
0.00020525075
0.00022174747
0.0002274374
0.00021853895
0.00019246281
0.00014962444
9.5697108e-05
4.3723173e-05
1.5218953e-05
3.9390069e-05
0.00014978672
0.0003785071
0.00074906036
0.0012699617
0.0019311032
0.0027037803
0.003544133
0.0043984342
0.0052082496
0.005913759
1.9098631e-06
5.9530316e-06
1.2769859e-05
2.1451307e-05
3.4002273e-05
4.9819339e-05
6.7831669e-05
8.7965738e-05
0.00011111688
0.00013856589
0.00016967509
0.00020243542
0.00023356471
0.00025955052
0.00027626309
0.00027912359
0.00026374056
0.00022758555
0.00017224507
0.00010590696
4.5417091e-05
1.6906416e-05
5.4069463e-05
0.00019359714
0.00046823951
0.00089912968
0.0014898276
0.0022238156
0.0030660611
0.0039677654
0.0048723713
0.0057207675
0.0064541592
1.9115546e-06
6.0190079e-06
1.3116977e-05
2.2322683e-05
3.5687169e-05
5.2737411e-05
7.2361865e-05
9.41127e-05
0.00011929652
0.00014896232
0.00018385202
0.00022205883
0.00026061155
0.0002960734
0.00032445875
0.00034069459
0.00033918875
0.00031500977
0.00026604568
0.00019564155
0.00011521833
4.6137135e-05
1.9639252e-05
7.3971952e-05
0.00024845279
0.00057546708
0.0010725741
0.0017373348
0.0025462527
0.0034579655
0.0044192038
0.0053712911
0.0062551854
0.0070137625
1.8508315e-06
5.9572587e-06
1.3301199e-05
2.2900413e-05
3.7134996e-05
5.5338398e-05
7.6547921e-05
0.00010026859
0.00012741669
0.0001595627
0.00019754342
0.00024083454
0.0002862698
0.00033095907
0.00037110054
0.00040168212
0.00041628894
0.00040825484
0.00037234914
0.00030738244
0.00021915221
0.00012310315
4.5836459e-05
2.4118805e-05
0.00010061245
0.00031650563
0.00070259041
0.001271585
0.0020140738
0.0028991829
0.0038794209
0.0048976585
0.0058938845
0.0068098718
0.0075907675
1.7324677e-06
5.748355e-06
1.3277014e-05
2.3260388e-05
3.8121669e-05
5.7571848e-05
8.0333913e-05
0.00010598383
0.00013561792
0.0001700781
0.00021132771
0.00025892013
0.00031072022
0.00036399015
0.0004156528
0.0004608506
0.00049299223
0.00050414585
0.00048669125
0.00043549585
0.00035091415
0.00024197976
0.00012902616
4.4611393e-05
3.1301202e-05
0.00013580121
0.0004001293
0.0008521035
0.0014982832
0.0023214273
0.0032830987
0.0043300685
0.0054020954
0.0064386596
0.0073830727
0.0081832977
1.5701385e-06
5.4004048e-06
1.3007458e-05
2.3376654e-05
3.8774213e-05
5.9160264e-05
8.3557629e-05
0.00011125709
0.00014321946
0.00018075554
0.00022490455
0.00027701382
0.00033414164
0.00039531171
0.00045776538
0.00051743215
0.00056766773
0.00060004691
0.00060511188
0.00057457463
0.00050391282
0.00039573757
0.00026321286
0.00013249204
4.2750344e-05
4.244476e-05
0.00018165464
0.00050191351
0.0010265465
0.0017546647
0.0026605346
0.0036981941
0.0048092702
0.0059312557
0.0070039689
0.0079729411
0.0087894299
1.390056e-06
4.9523045e-06
1.2511685e-05
2.318503e-05
3.9081498e-05
6.0229782e-05
8.5984553e-05
0.00011568665
0.00015039601
0.00019067518
0.00023876803
0.00029477564
0.0003572654
0.00042512528
0.00049750513
0.00057089173
0.00063923883
0.00069382831
0.0007242551
0.00071972703
0.00067167549
0.00057677825
0.00044073169
0.00028185433
0.00013309018
4.0796673e-05
5.9146874e-05
0.0002405954
0.0006246247
0.001228451
0.0020425498
0.0030322517
0.00414436
0.0053161178
0.0064836802
0.0075880376
0.0085775657
0.0094072198
1.2343283e-06
4.4775529e-06
1.1853954e-05
2.2698993e-05
3.8922621e-05
6.0831094e-05
8.7696497e-05
0.00011914111
0.00015630047
0.00020021831
0.00025168671
0.00031314103
0.00037996156
0.00045412941
0.00053504715
0.00062119099
0.00070691538
0.00078401486
0.00084137045
0.00086672476
0.00084822306
0.00077744879
0.00065297136
0.00048456333
0.00029685587
0.00013056266
3.9606864e-05
8.3381424e-05
0.00031534764
0.00077116288
0.0014602809
0.0023635288
0.0034371295
0.0046211776
0.005849452
0.0070577357
0.0081889941
0.009194998
0.010034727
1.1408275e-06
4.0780433e-06
1.1146255e-05
2.1989391e-05
3.831049e-05
6.0732985e-05
8.8822653e-05
0.00012168306
0.00016101991
0.00020779708
0.00026428922
0.00033039931
0.00040355308
0.00048255656
0.00057108117
0.00066843644
0.00077050706
0.00086948152
0.00095447139
0.0010120498
0.0010282757
0.0009905153
0.00089100399
0.00073104857
0.00052569564
0.00030716999
0.00012487343
4.0419322e-05
0.00011751837
0.00040891951
0.00094450421
0.0017243675
0.0027189184
0.0038753874
0.0051279278
0.0064078828
0.0076516449
0.0088048982
0.0098232782
0.010670036
3.8618281e-06
1.1227919e-06
1.0541356e-05
2.1193819e-05
3.7343397e-05
5.9947755e-05
8.9019314e-05
0.0001235898
0.00016459754
0.00021400683
0.0002740267
0.00034757411
0.00042608902
0.00051187377
0.000606047
0.00071333168
0.00082998729
0.00094982919
0.0010620006
0.0011530633
0.0012073736
0.0012094529
0.0011461761
0.0010110546
0.00080921722
0.00056241326
0.00031181662
0.00011629845
4.4911449e-05
0.00016433326
0.00052456214
0.0011476348
0.0020228471
0.0031097166
0.0043469083
0.0056636004
0.0069898172
0.0082635161
0.0094337697
0.010460459
0.011311277
1.0204341e-05
3.8866358e-06
1.1837482e-06
2.0503446e-05
3.6212582e-05
5.8601201e-05
8.8258008e-05
0.00012436452
0.00016752223
0.00021880841
0.00028202471
0.00036074017
0.00044871095
0.00054015913
0.00064157527
0.00075640763
0.00088603204
0.0010248398
0.0011632776
0.0012876572
0.0013820505
0.0014286426
0.001410505
0.0013143589
0.0011358474
0.00088531773
0.00059286547
0.00030998078
0.00010551604
5.5257839e-05
0.0002270123
0.00066571524
0.0013834773
0.0023575961
0.0035365736
0.00485123
0.0062269168
0.0075934878
0.0088913737
0.010073614
0.011104626
0.01195664
2.0129946e-05
1.0235139e-05
4.1446469e-06
1.3065929e-06
3.5183972e-05
5.6963645e-05
8.6674569e-05
0.00012394661
0.00016916836
0.00022304731
0.00028830984
0.00037200012
0.00046603099
0.00056870277
0.00067607469
0.00079948689
0.00093921739
0.0010951303
0.0012578188
0.0014147775
0.001549515
0.0016435882
0.0016769694
0.0016313005
0.0014936819
0.0012630892
0.00095682631
0.00061514736
0.00030112315
9.3708729e-05
7.4158221e-05
0.0003091237
0.000835937
0.0016548115
0.0027301763
0.0039997634
0.0053875574
0.0068163517
0.0082169846
0.0095331879
0.010722448
0.011753917
0.012604389
3.4556948e-05
2.0194493e-05
1.063282e-05
4.5729939e-06
1.4610961e-06
5.5413347e-05
8.4620329e-05
0.00012248787
0.0001694091
0.00022587278
0.00029428294
0.00038104952
0.00048189065
0.00059023339
0.00071093253
0.00084136992
0.00099154415
0.0011612599
0.0013461625
0.0015335828
0.0017082141
0.0018506237
0.0019397955
0.001953196
0.001871175
0.0016820935
0.0013898942
0.0010208967
0.00062740777
0.00028511091
8.2650682e-05
0.00010487336
0.00041457057
0.0010388208
0.0019641953
0.0031417813
0.0044991755
0.0059547724
0.0074301655
0.0088582868
0.010186903
0.01137832
0.012406536
0.013252875
5.4388996e-05
3.452194e-05
2.0692303e-05
1.1298283e-05
5.0683129e-06
1.6117082e-06
8.2590202e-05
0.00012042317
0.00016842024
0.0002271284
0.0002988013
0.00039013836
0.00049495739
0.00061073693
0.00073667161
0.00088358286
0.0010422313
0.0012253306
0.0014287509
0.0016444848
0.0018568544
0.0020475283
0.0021942109
0.0022727043
0.0022576978
0.0021287185
0.0018767491
0.001512769
0.0010744409
0.00062799822
0.00026235728
7.4787539e-05
0.0001512185
0.00054752269
0.001277902
0.0023138851
0.0035931997
0.0050343067
0.0065514603
0.0080664346
0.0095152959
0.010850463
0.012039328
0.013060767
0.013900542
8.1155912e-05
5.416259e-05
3.5081668e-05
2.1494711e-05
1.2063165e-05
5.529006e-06
1.7341202e-06
0.00011834917
0.00016673655
0.00022694408
0.00030156606
0.00039751221
0.00050863848
0.00062808839
0.00076158024
0.00091348291
0.0010933342
0.0012870563
0.0015078247
0.0017477447
0.001995698
0.0022324316
0.0024370985
0.0025836677
0.0026440244
0.0025901152
0.0024015881
0.0020739229
0.0016276339
0.0011142653
0.00061564686
0.00023397205
7.3296291e-05
0.00021753587
0.00071232548
0.0015565563
0.0027057663
0.0040847829
0.0056042738
0.0071759343
0.0087230884
0.010185866
0.011521837
0.01270364
0.013714985
0.014545936
0.00011696526
8.0694984e-05
5.4751495e-05
3.6055634e-05
2.2389395e-05
1.2771521e-05
5.8798036e-06
1.8118351e-06
0.00016505829
0.00022592513
0.00030263185
0.00040260786
0.00052045184
0.00064703195
0.00078319067
0.00094261579
0.0011275723
0.00134894
0.0015833684
0.0018456903
0.0021248035
0.0024053428
0.0026658263
0.0028817922
0.0030222877
0.0030548253
0.0029490829
0.0026863344
0.002268955
0.0017299199
0.0011372506
0.00058966032
0.00020189105
8.2126725e-05
0.00030863038
0.00091339142
0.0018778994
0.0031412884
0.0046164318
0.0062078264
0.0078262739
0.0093979429
0.010867837
0.012199039
0.013369503
0.014367661
0.015187706
0.00016420592
0.00011672304
8.1274236e-05
5.5930243e-05
3.7160144e-05
2.3178478e-05
1.3308005e-05
6.08102e-06
1.834466e-06
0.00022485825
0.00030257719
0.00040520342
0.00052943683
0.00066425579
0.0008080722
0.00096823197
0.0011610169
0.0013881704
0.0016586625
0.001938525
0.002246698
0.0025660412
0.0028799484
0.0031634844
0.0033866973
0.0035128814
0.0035051795
0.003331987
0.0029782617
0.0024562729
0.0018147173
0.00114058
0.00055012492
0.00016898636
0.00010599596
0.00042967831
0.0011550777
0.0022446856
0.0036214171
0.0051875901
0.0068433785
0.0085003599
0.010088739
0.011559054
0.012880147
0.014035254
0.015017371
0.015824608
0.00022469216
0.00016465336
0.00011767668
8.2599453e-05
5.7319171e-05
3.812872e-05
2.3717372e-05
1.3601433e-05
6.1305633e-06
1.7964818e-06
0.00030222762
0.00040581961
0.00053474886
0.00067834929
0.00083188782
0.00099939436
0.0011906748
0.0014235757
0.0017038308
0.0020303767
0.0023617541
0.0027171704
0.0030788843
0.0034276472
0.0037324178
0.0039566388
0.0040573754
0.0039938512
0.003734712
0.00327134
0.0026294706
0.0018769955
0.0011219989
0.00049811826
0.00013916305
0.0001503461
0.00058610503
0.0014415541
0.0026592178
0.0041465961
0.005797259
0.0075090402
0.0091959161
0.010793174
0.012257398
0.013563313
0.014699335
0.015662798
0.016455506
0.00030263127
0.00022590467
0.00016634907
0.00011941248
8.4172718e-05
5.8539437e-05
3.8759794e-05
2.3928572e-05
1.3632304e-05
6.0589841e-06
1.7123502e-06
0.00040531293
0.00053668909
0.00068768215
0.00085283136
0.001030701
0.0012286028
0.0014573952
0.0017399756
0.0020831278
0.0024749587
0.0028592316
0.0032651454
0.0036731405
0.0040574035
0.0043796515
0.0045957229
0.0046564446
0.0045179875
0.0041514752
0.0035582062
0.002781483
0.0019118779
0.001080109
0.00043589665
0.00011740082
0.00022125608
0.00078343809
0.0017766689
0.0031232664
0.0047167325
0.0064440178
0.008202661
0.0099105449
0.01150893
0.012960805
0.01424679
0.015360294
0.016302736
0.017079371
0.00040496083
0.00030422834
0.00022831011
0.0001687397
0.00012127081
8.5520776e-05
5.9302232e-05
3.894387e-05
2.3803024e-05
1.3443048e-05
5.8975527e-06
1.5880472e-06
0.00053610517
0.00069218663
0.00086828946
0.0010600597
0.0012685176
0.0015028759
0.0017774771
0.0021219585
0.002538513
0.0029976501
0.0034394158
0.0039022615
0.0043597349
0.0047785992
0.0051117168
0.0053069827
0.0053091345
0.0050727986
0.0045746685
0.0038302204
0.0029048224
0.0019149877
0.0010146672
0.00036705941
0.00010974397
0.0003253116
0.0010271402
0.0021638181
0.0036380121
0.0053311948
0.00712606
0.0089218646
0.010641767
0.012233706
0.013667293
0.014928938
0.016016788
0.016936081
0.017725176
0.00053452856
0.00040529266
0.00030670452
0.00023119234
0.00017092449
0.00012266535
8.6258681e-05
5.9455099e-05
3.866195e-05
2.3419797e-05
1.3077785e-05
5.5941714e-06
1.453742e-06
0.00069259368
0.00087753354
0.0010838291
0.0013079325
0.0015523105
0.0018308685
0.00216313
0.0025823767
0.0030749934
0.003606957
0.0041159287
0.0046413341
0.0051505314
0.0056003911
0.0059343368
0.0060919478
0.0060124452
0.0056513167
0.0049948205
0.0040776355
0.0029919239
0.0018828293
0.0009268785
0.00029666133
0.00012323312
0.00046943127
0.0013224308
0.0026058335
0.0042040054
0.005988828
0.0078412239
0.0096640961
0.011387058
0.012965259
0.014374983
0.015608216
0.016667572
0.017588804
0.018407076
0.00069052221
0.00053256777
0.00040624012
0.00030928266
0.00023343167
0.00017218879
0.00012312315
8.6197305e-05
5.8979847e-05
3.8037399e-05
2.2800387e-05
1.2492112e-05
5.2882002e-06
1.3200169e-06
0.00088086399
0.0011006001
0.0013422745
0.0016030945
0.001890204
0.0022248259
0.0026293432
0.0031299242
0.0036998039
0.0043183412
0.0049028886
0.0054967598
0.0060573899
0.0065314072
0.0068520513
0.0069501627
0.0067609856
0.0062441797
0.0054006049
0.0042898601
0.0030355619
0.0018132201
0.00081965813
0.00023126486
0.00016577032
0.00066065949
0.0016741143
0.003104888
0.0048211456
0.0066879705
0.0085870383
0.010426672
0.012143913
0.013701434
0.015082084
0.016283174
0.01733718
0.018275648
0.019106626
0.00087953169
0.0006865684
0.00053060429
0.00040712484
0.00031075249
0.00023419458
0.00017198551
0.00012245948
8.5330624e-05
5.8053319e-05
3.7070082e-05
2.1871557e-05
1.1871686e-05
4.8737136e-06
1.1859329e-06
0.0011100365
0.0013693883
0.0016495102
0.0019528809
0.0022950647
0.0027025971
0.0031869462
0.0037652876
0.0044289547
0.005146793
0.0058174307
0.0064831192
0.0070918631
0.0075796209
0.0078675974
0.0078787115
0.0075465715
0.0068394791
0.0057789857
0.0044558427
0.0030293623
0.0017057137
0.00069785515
0.00017890343
0.00024592195
0.00090594364
0.00208642
0.0036624185
0.0054886641
0.0074264906
0.0093607863
0.011206857
0.012909876
0.014440139
0.015786876
0.016978324
0.018040721
0.018982976
0.019823576
0.0011126883
0.00087415772
0.00068158362
0.00052842998
0.00040668117
0.00031024137
0.00023288711
0.00017019381
0.0001207167
8.3909484e-05
5.6616536e-05
3.5643475e-05
2.0837998e-05
1.1072693e-05
4.4554359e-06
1.0753341e-06
0.0013880425
0.0016884385
0.0020116006
0.0023708856
0.0027869669
0.0032767629
0.0038359002
0.0045016517
0.0052768912
0.0061128945
0.0068769562
0.0076148229
0.0082657526
0.0087514978
0.0089814056
0.0088717279
0.0083579247
0.0074227027
0.0061154647
0.0045645887
0.0029683667
0.0015620095
0.00056838359
0.00014895716
0.00037267657
0.0012119075
0.0025628481
0.0042790521
0.0062051388
0.0082018558
0.010159599
0.012001912
0.013682518
0.015179322
0.016515255
0.017708917
0.018767721
0.019710436
0.02055762
0.0013980554
0.0011086185
0.00086609447
0.00067581796
0.00052485459
0.00040403558
0.00030719091
0.00022953694
0.00016696357
0.00011833759
8.1798034e-05
5.454642e-05
3.3994026e-05
1.9589277e-05
1.0239893e-05
4.0136782e-06
9.7140183e-07
0.0017176387
0.0020621187
0.0024435239
0.0028793561
0.0033810639
0.0039463677
0.0045791405
0.0053534966
0.0062667508
0.0072370945
0.0080982775
0.008907856
0.0095895919
0.010051536
0.010191005
0.0099198939
0.0091803717
0.0079768095
0.006394521
0.0046058032
0.002849654
0.0013863169
0.00044025805
0.00015195062
0.00055517213
0.0015846092
0.0031060128
0.0049545758
0.0069685608
0.0090112464
0.010980517
0.012809053
0.014459399
0.015947779
0.017282364
0.01846619
0.019517759
0.020457581
0.021308388
0.0017358505
0.0013983506
0.0010989746
0.00085598157
0.00066825105
0.00051900039
0.00039865056
0.00030180712
0.00022443877
0.00016305059
0.00011505385
7.8878396e-05
5.2092938e-05
3.2083856e-05
1.8263645e-05
9.3686633e-06
3.5503879e-06
8.8006218e-07
0.0021010832
0.0025066392
0.0029687672
0.0034957895
0.0040756619
0.0047102956
0.0054362953
0.0063451842
0.0074221146
0.0085370458
0.0095020949
0.010377029
0.011072528
0.011481656
0.01149039
0.01100991
0.0099956686
0.0084824352
0.0066002041
0.0045706538
0.0026729568
0.0011856326
0.00032451261
0.0001992838
0.00080237017
0.0020292749
0.0037175376
0.0056879889
0.0077764597
0.0098516206
0.011820428
0.013625411
0.015273896
0.016760272
0.01807972
0.019249682
0.020290288
0.021223857
0.022075451
0.0021261793
0.001740629
0.0013887531
0.0010847446
0.0008432097
0.00065813595
0.00051032747
0.00039089695
0.00029458732
0.00021871573
0.00015791115
0.00011071466
7.5344575e-05
4.9306035e-05
3.0024058e-05
1.6911291e-05
8.4464408e-06
3.1720537e-06
7.7327633e-07
0.0025551717
0.003045958
0.0036064768
0.00421925
0.0048657436
0.0055873694
0.0064315706
0.007504345
0.0087579853
0.010039566
0.011107356
0.012036644
0.01272173
0.013040433
0.012869315
0.01212405
0.010781904
0.0089183229
0.0067169348
0.0044526194
0.0024412149
0.00096988436
0.00023402387
0.0003028574
0.0011226654
0.002550087
0.00439807
0.0064776233
0.0086259641
0.010719624
0.012676016
0.0144908
0.01614009
0.017607034
0.018906852
0.020058783
0.021084621
0.022008616
0.022858318
0.0025861849
0.0021341143
0.0017305173
0.0013707088
0.0010657701
0.00082731812
0.00064508927
0.00049945452
0.00038137038
0.0002870106
0.00021152481
0.00015160005
0.00010547616
7.1423803e-05
4.6261086e-05
2.7944818e-05
1.5482879e-05
7.6436905e-06
2.7754524e-06
6.6735915e-07
0.0031036075
0.0036996166
0.0043573419
0.0050401933
0.0057686277
0.0065973704
0.0075949445
0.008837202
0.010308175
0.011767363
0.012933724
0.013899717
0.01454143
0.014722194
0.01431248
0.013239721
0.011513635
0.0092620157
0.006730508
0.0042483881
0.0021610724
0.00075197151
0.00018316481
0.00047456818
0.0015235381
0.0031501341
0.0051473842
0.0073211818
0.0095136644
0.011611531
0.013595612
0.015418293
0.017045172
0.018487618
0.019763121
0.02089271
0.021899937
0.022811104
0.02365644
0.0031380404
0.0025957028
0.0021227908
0.0017071276
0.0013440484
0.001042163
0.00080835753
0.00063012762
0.00048709297
0.00037197265
0.00027767444
0.00020302829
0.00014406198
9.9857607e-05
6.7136054e-05
4.3170866e-05
2.5764489e-05
1.4182203e-05
6.8418479e-06
2.4744362e-06
5.6173865e-07
0.0037647405
0.0044703562
0.0052094645
0.0059751664
0.0068055623
0.007761402
0.0089327115
0.010386608
0.012096447
0.013745606
0.015000642
0.015977036
0.016531975
0.01651609
0.015798853
0.014329134
0.012162278
0.0094908333
0.0066292554
0.0039587293
0.0018432681
0.00054757154
0.00018723687
0.00072581364
0.0020114145
0.0038314664
0.0059643517
0.0082155244
0.01043554
0.012586504
0.01459103
0.016390085
0.017988754
0.019401398
0.020647695
0.021750516
0.022735277
0.023630476
0.024469212
0.0037986852
0.0031455676
0.0025810391
0.0020933588
0.0016708052
0.0013100455
0.0010147305
0.00078793788
0.00061411704
0.00047544547
0.00036038066
0.00026694532
0.00019275061
0.00013616085
9.3812451e-05
6.2756243e-05
3.9929466e-05
2.3742222e-05
1.2901809e-05
6.1623752e-06
2.1420579e-06
4.6000973e-07
0.0045437622
0.0053467709
0.0061781602
0.0070476969
0.0079962259
0.0091268124
0.01048657
0.012176201
0.014152425
0.016000712
0.017326093
0.018276204
0.018688908
0.018405085
0.017300849
0.015359295
0.012696833
0.0095831665
0.0064053267
0.0035893447
0.001502758
0.00037461822
0.00026184889
0.0010672475
0.0025916402
0.0045949552
0.0068466169
0.009156573
0.011464042
0.013655012
0.015637232
0.017405893
0.018970271
0.020347527
0.021559539
0.022631083
0.023589556
0.024465792
0.025295968
0.0045754025
0.0037988701
0.0031234442
0.0025430591
0.0020464706
0.0016241017
0.0012707389
0.00098620106
0.00076717272
0.00059965232
0.00046117504
0.00034725548
0.00025358872
0.00018215581
0.00012773753
8.7703507e-05
5.8204644e-05
3.6877788e-05
2.1728431e-05
1.1716129e-05
5.458977e-06
1.87194e-06
3.6861836e-07
0.0054323521
0.0063431771
0.007289839
0.0082837338
0.009387853
0.010702572
0.012278023
0.014237303
0.016508963
0.018558412
0.01992594
0.020800734
0.021001569
0.020364639
0.018783601
0.016292202
0.013085083
0.0095200575
0.0060560742
0.0031515274
0.0011584166
0.00025263153
0.0004225815
0.0015086477
0.0032681581
0.0054397815
0.0077904549
0.010232524
0.012608501
0.014782258
0.016734098
0.018465279
0.019988915
0.021324933
0.02249742
0.02353313
0.024461557
0.025316064
0.026136113
0.0054646343
0.0045647089
0.0037643262
0.0030731764
0.0024833136
0.0019862739
0.0015708425
0.0012307576
0.00095829133
0.00074949122
0.00058224129
0.00044524918
0.00033019597
0.00023998338
0.00017091977
0.0001194652
8.1489584e-05
5.3879779e-05
3.3824215e-05
1.9796815e-05
1.0505112e-05
4.8116355e-06
1.5892341e-06
2.8872846e-07
0.0064437153
0.0074886213
0.0085729643
0.0097138298
0.010989594
0.012517963
0.014340591
0.016606539
0.01919859
0.021443282
0.022812901
0.023548625
0.02345158
0.022361378
0.020204569
0.017085609
0.013295235
0.0092870817
0.0055853584
0.0026623052
0.00083246818
0.00020235367
0.0006847519
0.0020583243
0.0040427271
0.0063632231
0.0089020128
0.011452331
0.013821672
0.015968316
0.017881363
0.019567528
0.021043621
0.02233231
0.023459904
0.024455214
0.02535003
0.026180373
0.026988894
0.0064788198
0.0054452214
0.0045144024
0.0036977882
0.0029974095
0.002408055
0.001918697
0.0015178469
0.0011925759
0.00093548924
0.00072837921
0.00056308879
0.00042381226
0.00031292683
0.00022555633
0.00016005761
0.00011118886
7.5558498e-05
4.9524289e-05
3.0839571e-05
1.7807191e-05
9.3045178e-06
4.1452299e-06
1.3303666e-06
2.2060446e-07
0.0076099131
0.0088143178
0.01005624
0.011359474
0.012847762
0.014597096
0.016716917
0.019322033
0.0222538
0.024677988
0.025995306
0.026510588
0.026010914
0.02435177
0.021513516
0.017694398
0.01329812
0.0088764106
0.0050044067
0.0021441869
0.00055023137
0.00024547286
0.0010624665
0.0027219463
0.0049145707
0.0074908159
0.01019149
0.012753624
0.015103841
0.01721316
0.019078475
0.020711645
0.022133064
0.023368123
0.024445367
0.02539587
0.026253764
0.027057603
0.027853526
0.0076515284
0.0064528505
0.0053800087
0.0044279128
0.0036021566
0.0029046212
0.0023255585
0.0018529903
0.0014683706
0.0011627753
0.00090899595
0.00070535494
0.00053663658
0.00040220842
0.00029455856
0.00021167958
0.00014921764
0.00010323262
6.9560315e-05
4.5193413e-05
2.7756416e-05
1.5792829e-05
8.0702896e-06
3.4926368e-06
1.0728136e-06
1.6341505e-07
0.0089639675
0.010349162
0.011761641
0.013255534
0.01496761
0.016988376
0.019448164
0.022422104
0.025706931
0.028282806
0.029475772
0.029667868
0.028639632
0.026281273
0.022653261
0.018072767
0.013069895
0.0082885196
0.0043321748
0.0016252662
0.00033996653
0.00040326095
0.0015668901
0.0035019698
0.0060285589
0.0088369541
0.011579081
0.014136871
0.016455255
0.018516453
0.020324568
0.021896336
0.023255655
0.024430608
0.02545217
0.026353617
0.027171346
0.027946534
0.02872919
0.0090189053
0.0076228891
0.0063752989
0.0052731412
0.0043089992
0.0034886127
0.0028058843
0.0022476075
0.001793186
0.0014313496
0.0011288634
0.00088054377
0.00067264339
0.00050990126
0.00037922399
0.0002768157
0.0001976973
0.00013869374
9.515528e-05
6.3518677e-05
4.0705578e-05
2.4607383e-05
1.3708423e-05
6.8184425e-06
2.8392118e-06
8.2888129e-07
1.1547084e-07
0.010537845
0.012119138
0.013720933
0.015446177
0.01740228
0.019742109
0.022577917
0.025945035
0.029589516
0.032274415
0.033248323
0.032988905
0.031283725
0.028083754
0.023561268
0.018177338
0.012594786
0.0075334708