/*--------------------------------*- C++ -*----------------------------------*\
| =========                 |                                                 |
| \\      /  F ield         | OpenFOAM: The Open Source CFD Toolbox           |
|  \\    /   O peration     | Version:  5.0                                   |
|   \\  /    A nd           | Web:      www.OpenFOAM.org                      |
|    \\/     M anipulation  |                                                 |
\*---------------------------------------------------------------------------*/
FoamFile
{
    version     2.0;
    format      ascii;
    class       volVectorField;
    location    "120";
    object      U;
}
// * * * * * * * * * * * * * * * * * * * * * * * * * * * * * * * * * * * * * //

dimensions      [0 1 -1 0 0 0 0];

internalField   nonuniform List<vector> 
9520
(
(1.0118215 5.3571156e-05 0)
(1.0119345 0.00015612788 0)
(1.0116611 5.6354272e-05 0)
(1.0121361 0.00024950625 0)
(1.0117772 0.00016367066 0)
(1.0115938 6.0850059e-05 0)
(1.012407 0.00033197751 0)
(1.0119852 0.00026149584 0)
(1.0117115 0.00017646522 0)
(1.011473 6.8455669e-05 0)
(1.0127291 0.00040281453 0)
(1.0122664 0.00034775404 0)
(1.0119226 0.00028212627 0)
(1.0115928 0.00019927718 0)
(1.0113709 7.5084548e-05 0)
(1.0130867 0.00046037829 0)
(1.0126035 0.0004215165 0)
(1.0122089 0.00037590887 0)
(1.0118073 0.00031974954 0)
(1.011492 0.00022012703 0)
(1.0112447 8.0972169e-05 0)
(1.013466 0.00050303727 0)
(1.0129821 0.00048070748 0)
(1.0125535 0.00045694141 0)
(1.012099 0.00042892353 0)
(1.0117086 0.00035478106 0)
(1.0113654 0.00023928847 0)
(1.0111273 8.4257103e-05 0)
(1.0138553 0.00052937488 0)
(1.0133898 0.00052415213 0)
(1.0129422 0.0005234543 0)
(1.0124517 0.00052643301 0)
(1.0120036 0.00047905275 0)
(1.0115817 0.00038846325 0)
(1.0112465 0.00024985297 0)
(1.0110028 8.6688799e-05 0)
(1.0142515 0.00053987269 0)
(1.0138184 0.00055061551 0)
(1.0133619 0.00057492737 0)
(1.0128521 0.00061099803 0)
(1.0123614 0.00059312186 0)
(1.0118764 0.00052956681 0)
(1.0114609 0.0004082332 0)
(1.0111187 0.00025678561 0)
(1.0108851 8.9129338e-05 0)
(1.0146424 0.00052927511 0)
(1.0142537 0.00055335445 0)
(1.0138015 0.00061014434 0)
(1.0132893 0.00068033447 0)
(1.0127687 0.00069620012 0)
(1.0122343 0.00066354509 0)
(1.0117529 0.00056078044 0)
(1.0113283 0.0004219644 0)
(1.010998 0.00026301294 0)
(1.0107652 9.231238e-05 0)
(1.0150168 0.00050307371 0)
(1.0146825 0.0005561882 0)
(1.0142447 0.0006317772 0)
(1.0137491 0.00073489302 0)
(1.0132124 0.00078931089 0)
(1.0126424 0.00079032181 0)
(1.0121074 0.0007089521 0)
(1.0116139 0.00058368329 0)
(1.0112022 0.00043357748 0)
(1.0108743 0.0002718631 0)
(1.0106475 9.5579448e-05 0)
(1.0153651 0.00047232334 0)
(1.0150981 0.00054164137 0)
(1.0146846 0.00063724905 0)
(1.0142208 0.00077024736 0)
(1.0136835 0.00087058088 0)
(1.0130897 0.00090999523 0)
(1.0125114 0.00085303496 0)
(1.0119613 0.00074382676 0)
(1.0114806 0.00060249703 0)
(1.0110706 0.00044906539 0)
(1.010753 0.00028203096 0)
(1.0105288 9.7878211e-05 0)
(1.0156986 0.00040526753 0)
(1.0154928 0.00051745193 0)
(1.0151174 0.00062046992 0)
(1.014699 0.00078406237 0)
(1.0141753 0.00093768176 0)
(1.0135682 0.0010217543 0)
(1.0129537 0.00099365982 0)
(1.0123578 0.00090266799 0)
(1.0118191 0.00077233651 0)
(1.0113386 0.0006264053 0)
(1.0109418 0.00046632795 0)
(1.01063 0.00029042184 0)
(1.0104122 9.803403e-05 0)
(1.0160262 0.00038747233 0)
(1.0158768 0.0004680449 0)
(1.0155398 0.00058160466 0)
(1.0151832 0.00076799509 0)
(1.0146888 0.00098790008 0)
(1.0140734 0.0011251031 0)
(1.0134248 0.0011321233 0)
(1.0127914 0.0010604632 0)
(1.0122054 0.00094377215 0)
(1.0116647 0.00080713372 0)
(1.0111993 0.00065229152 0)
(1.0108096 0.00048077817 0)
(1.0105089 0.00029270928 0)
(1.0103008 9.538665e-05 0)
(1.0163181 0.00023596933 0)
(1.0162527 0.00043227672 0)
(1.0159467 0.00051065882 0)
(1.0156706 0.00072652345 0)
(1.0152208 0.0010111974 0)
(1.0145991 0.0012220972 0)
(1.0139141 0.0012730649 0)
(1.0132501 0.0012179803 0)
(1.0126279 0.0011167588 0)
(1.0120377 0.00099248531 0)
(1.0115117 0.00084388826 0)
(1.0110539 0.00067418173 0)
(1.0106798 0.00048541518 0)
(1.0103922 0.00028586293 0)
(1.0101979 8.9944284e-05 0)
(1.0165944 0.00031329771 0)
(1.0165392 0.00036121412 0)
(1.0163054 0.00042861723 0)
(1.016147 0.00063877517 0)
(1.0157682 0.001020336 0)
(1.0151373 0.0013213646 0)
(1.0144111 0.0014211313 0)
(1.0137224 0.0013766953 0)
(1.0130743 0.0012904126 0)
(1.0124473 0.0011823927 0)
(1.0118688 0.0010432995 0)
(1.0113491 0.00087544993 0)
(1.0109109 0.00068222654 0)
(1.0105539 0.00047522564 0)
(1.0102841 0.00026947041 0)
(1.0101061 8.2328693e-05 0)
(1.0168196 6.9963118e-05 0)
(1.0168137 0.00031971401 0)
(1.0166123 0.00030504273 0)
(1.0166212 0.00053558431 0)
(1.0163165 0.00099382524 0)
(1.015692 0.0014313851 0)
(1.0149079 0.0015836837 0)
(1.0141949 0.0015374155 0)
(1.013534 0.0014616982 0)
(1.012885 0.0013746666 0)
(1.0122615 0.0012514179 0)
(1.0116856 0.0010879452 0)
(1.0111884 0.00088850527 0)
(1.0107706 0.00066988307 0)
(1.0104366 0.00044892275 0)
(1.0101875 0.00024575899 0)
(1.0100266 7.3651934e-05 0)
(1.0170459 0.00029950144 0)
(1.0168778 0.0002760221 0)
(1.0168553 0.00016171178 0)
(1.0171074 0.00034076979 0)
(1.0168908 0.00096576175 0)
(1.0162493 0.0015508723 0)
(1.0153956 0.0017695568 0)
(1.0146501 0.0017057592 0)
(1.0139951 0.0016263994 0)
(1.0133419 0.0015641937 0)
(1.0126832 0.0014674332 0)
(1.0120556 0.0013141576 0)
(1.011502 0.0011090386 0)
(1.0110281 0.00087520944 0)
(1.0106394 0.00063467979 0)
(1.0103311 0.00040960074 0)
(1.0101041 0.00021873851 0)
(1.009959 6.5110806e-05 0)
(1.0171937 1.7640826e-05 0)
(1.0170215 0.00028249489 0)
(1.0169888 -1.2441845e-05 0)
(1.0175842 0.00010719782 0)
(1.0175442 0.00088887143 0)
(1.0168154 0.0016959876 0)
(1.0158527 0.0020005332 0)
(1.0150612 0.0018839783 0)
(1.0144394 0.0017806141 0)
(1.0138078 0.0017448603 0)
(1.0131306 0.0016867785 0)
(1.0124552 0.0015553569 0)
(1.0118435 0.0013482492 0)
(1.0113156 0.0010966469 0)
(1.0108784 0.00083225289 0)
(1.0105202 0.00057969827 0)
(1.01024 0.00036380447 0)
(1.0100337 0.00019235091 0)
(1.0099018 5.7577209e-05 0)
(1.0173581 0.00046992063 0)
(1.0167169 0.00025923616 0)
(1.0170572 -0.00036566878 0)
(1.0181131 -0.00030779402 0)
(1.0182958 0.00082538999 0)
(1.0174308 0.0018764654 0)
(1.0162646 0.0022829108 0)
(1.0154179 0.0020929506 0)
(1.0148395 0.0019101976 0)
(1.0142754 0.001901467 0)
(1.013604 0.00190234 0)
(1.0128832 0.0018110887 0)
(1.0122077 0.001610568 0)
(1.0116237 0.0013400735 0)
(1.0111405 0.001046239 0)
(1.0107408 0.00076166246 0)
(1.0104174 0.00051386863 0)
(1.0101636 0.0003184948 0)
(1.0099747 0.00016897566 0)
(1.0098532 5.1367757e-05 0)
(1.0172995 0.00018548759 0)
(1.0167192 0.00038603453 0)
(1.0168298 -0.0005194753 0)
(1.0185536 -0.00078276819 0)
(1.0191778 0.00063127206 0)
(1.0181249 0.0021589074 0)
(1.0166131 0.0026362223 0)
(1.0156894 0.0023001241 0)
(1.0152215 0.0020197532 0)
(1.0147432 0.0020151259 0)
(1.0141087 0.002096409 0)
(1.0133449 0.0020800782 0)
(1.012594 0.0019008643 0)
(1.0119457 0.0016117402 0)
(1.011415 0.0012827172 0)
(1.0109792 0.00095974528 0)
(1.0106219 0.00067406762 0)
(1.0103317 0.00044730378 0)
(1.0101006 0.00027818374 0)
(1.0099252 0.00014921047 0)
(1.0098117 4.6291686e-05 0)
(1.0171863 0.00094655035 0)
(1.0157945 0.00047620432 0)
(1.0165966 -0.0013096235 0)
(1.0191912 -0.0015472922 0)
(1.020226 0.0005156988 0)
(1.0189111 0.0025063382 0)
(1.0169062 0.0031404994 0)
(1.0158249 0.0025324824 0)
(1.0155531 0.0020465934 0)
(1.0152354 0.0020443506 0)
(1.0146608 0.002256014 0)
(1.0138548 0.0023540841 0)
(1.0130093 0.0022250509 0)
(1.0122771 0.001920022 0)
(1.0116918 0.0015480464 0)
(1.0112229 0.001178658 0)
(1.0108394 0.00084857894 0)
(1.0105232 0.00058371446 0)
(1.0102621 0.00038703536 0)
(1.0100489 0.00024394133 0)
(1.0098836 0.00013275107 0)
(1.0097758 4.1902847e-05 0)
(1.0168606 0.00064755764 0)
(1.0155412 0.00065615642 0)
(1.0158321 -0.0012748217 0)
(1.0195479 -0.0024486017 0)
(1.0215499 7.5224573e-05 0)
(1.0198633 0.0030880139 0)
(1.01711 0.0038109213 0)
(1.0157493 0.0028336475 0)
(1.0157132 0.0019868732 0)
(1.0157537 0.0020056123 0)
(1.015258 0.0023306694 0)
(1.0144351 0.0026347369 0)
(1.0134633 0.0025915367 0)
(1.0126158 0.0022768985 0)
(1.0119617 0.0018509125 0)
(1.0114598 0.0014232617 0)
(1.0110571 0.0010412476 0)
(1.0107236 0.00073143839 0)
(1.0104437 0.00050062472 0)
(1.0102063 0.00033516191 0)
(1.0100064 0.00021457161 0)
(1.0098485 0.00011905932 0)
(1.0097446 3.7783905e-05 0)
(1.0157902 0.0017496202 0)
(1.0139866 0.00097737919 0)
(1.0151875 -0.0028496158 0)
(1.020338 -0.0037201892 0)
(1.0230611 -0.0001375333 0)
(1.0209549 0.0037283222 0)
(1.0172157 0.0047671227 0)
(1.0154076 0.0031827742 0)
(1.0156694 0.0018461008 0)
(1.016233 0.0017819134 0)
(1.0159478 0.0023721126 0)
(1.0150815 0.0028991569 0)
(1.0139747 0.0030162845 0)
(1.012962 0.0027003642 0)
(1.0122157 0.0022030849 0)
(1.0116779 0.0016993239 0)
(1.0112621 0.0012547461 0)
(1.0109205 0.0008937379 0)
(1.0106313 0.00062228708 0)
(1.0103812 0.00042765799 0)
(1.0101623 0.00029032414 0)
(1.0099721 0.00018852695 0)
(1.0098192 0.00010714579 0)
(1.0097176 3.3669375e-05 0)
(1.0127155 0.0014230605 0)
(1.0127718 0.0011774376 0)
(1.0137424 -0.0024131569 0)
(1.0204529 -0.0053305642 0)
(1.0250929 -0.0010612028 0)
(1.0223115 0.00488439 0)
(1.0171264 0.0060296805 0)
(1.014717 0.0036934984 0)
(1.0153688 0.0015245916 0)
(1.0166701 0.0013456736 0)
(1.0167934 0.0022828036 0)
(1.0158414 0.0031685475 0)
(1.0145401 0.0035133402 0)
(1.0133189 0.003217332 0)
(1.0124405 0.0026212589 0)
(1.0118614 0.0020126504 0)
(1.0114417 0.0014907318 0)
(1.0111019 0.0010722032 0)
(1.0108124 0.00075495273 0)
(1.0105593 0.00052472384 0)
(1.0103335 0.00036314391 0)
(1.0101286 0.00024991561 0)
(1.0099451 0.00016476463 0)
(1.0097949 9.5414569e-05 0)
(1.0096947 2.9404608e-05 0)
(1.0070021 0.0030059118 0)
(1.0075912 0.0017424212 0)
(1.0122035 -0.0050675362 0)
(1.0216994 -0.0070659586 0)
(1.0270806 -0.0012396657 0)
(1.0238392 0.0059454276 0)
(1.016901 0.0077501281 0)
(1.0135593 0.0043181087 0)
(1.0146988 0.0010886931 0)
(1.0170296 0.0005489762 0)
(1.017838 0.0020155377 0)
(1.0168261 0.0034358574 0)
(1.0151855 0.0041031669 0)
(1.0136729 0.0038636113 0)
(1.0126176 0.0031295915 0)
(1.0119915 0.0023715651 0)
(1.0115812 0.0017487956 0)
(1.0112571 0.0012657434 0)
(1.0109765 0.00089992735 0)
(1.0107285 0.00062949995 0)
(1.0105055 0.00043655297 0)
(1.0102992 0.00030374668 0)
(1.0101044 0.00021147779 0)
(1.0099251 0.00014206101 0)
(1.0097752 8.2513644e-05 0)
(1.0096759 2.4965029e-05 0)
(0.99976337 0.0028435234 0)
(1.0010519 0.0015550235 0)
(1.0080106 -0.0040265918 0)
(1.0203435 -0.0092803588 0)
(1.028667 -0.0031528589 0)
(1.025665 0.0081136458 0)
(1.0162087 0.0099825154 0)
(1.0117837 0.0052100093 0)
(1.0135589 0.00037129472 0)
(1.0172766 -0.00059977582 0)
(1.0190857 0.0014209668 0)
(1.0181115 0.0037056185 0)
(1.0159976 0.0048234045 0)
(1.0140161 0.004674532 0)
(1.0127233 0.0037602853 0)
(1.0120392 0.0027849885 0)
(1.0116617 0.0020256308 0)
(1.0113752 0.0014692444 0)
(1.011116 0.0010556344 0)
(1.0108794 0.00074406633 0)
(1.010666 0.00051432623 0)
(1.0104685 0.00035373741 0)
(1.0102776 0.00024622312 0)
(1.0100894 0.00017323405 0)
(1.0099114 0.00011867772 0)
(1.00976 6.8389273e-05 0)
(1.0096612 2.0589702e-05 0)
(0.99042059 0.0044470588 0)
(0.99222545 0.0025709684 0)
(1.0029539 -0.0079443643 0)
(1.0205669 -0.011318399 0)
(1.0289883 -0.0030241919 0)
(1.0276166 0.0097541578 0)
(1.0153961 0.012816204 0)
(1.00924 0.0063559751 0)
(1.011783 -0.00051770047 0)
(1.0173907 -0.0023574437 0)
(1.0206374 0.00048948016 0)
(1.0197968 0.0039135242 0)
(1.0170517 0.0057534616 0)
(1.0143707 0.0057093522 0)
(1.0127184 0.0045498037 0)
(1.011969 0.0032630424 0)
(1.0116563 0.0023130395 0)
(1.0114441 0.0016715242 0)
(1.0112257 0.0012160502 0)
(1.011007 0.00086840898 0)
(1.0108059 0.00060003771 0)
(1.0106232 0.00040439915 0)
(1.0104474 0.00027259762 0)
(1.0102677 0.00018880713 0)
(1.010083 0.00013452641 0)
(1.0099036 9.3794162e-05 0)
(1.0097494 5.4272198e-05 0)
(1.0096501 1.6755893e-05 0)
(0.98022864 0.0045965915 0)
(0.98241341 0.0017262806 0)
(0.99583334 -0.0078776687 0)
(1.0186998 -0.014132366 0)
(1.02975 -0.0060737877 0)
(1.0285802 0.013138036 0)
(1.0138235 0.016498605 0)
(1.0057142 0.0077712311 0)
(1.0092676 -0.0018261712 0)
(1.0173061 -0.0046827476 0)
(1.022549 -0.0010394529 0)
(1.0220274 0.0040990929 0)
(1.0184313 0.0069282783 0)
(1.0147509 0.0070815717 0)
(1.0125513 0.0055443389 0)
(1.0117278 0.0038225924 0)
(1.0115296 0.00259525 0)
(1.0114489 0.0018526116 0)
(1.0113033 0.0013682601 0)
(1.011111 0.00099886874 0)
(1.0109214 0.00069656273 0)
(1.0107537 0.00046096147 0)
(1.0105994 0.00029568495 0)
(1.0104412 0.00019158202 0)
(1.0102688 0.00013083202 0)
(1.0100844 9.5073441e-05 0)
(1.0099012 6.7913072e-05 0)
(1.0097431 4.1770564e-05 0)
(1.0096418 1.3912075e-05 0)
(0.96841529 0.0057704243 0)
(0.97153213 0.0025953648 0)
(0.98898048 -0.012554238 0)
(1.0159214 -0.017466358 0)
(1.0296175 -0.0050596911 0)
(1.0284182 0.014866957 0)
(1.0114958 0.020901447 0)
(1.0008068 0.0098050443 0)
(1.0057499 -0.0034546075 0)
(1.0170127 -0.0079852918 0)
(1.02492 -0.0031180312 0)
(1.0249281 0.0040938201 0)
(1.0202621 0.0084820887 0)
(1.015166 0.0088914901 0)
(1.0121634 0.0068400547 0)
(1.0112326 0.0044676342 0)
(1.0112363 0.0028556081 0)
(1.0113701 0.0019794265 0)
(1.0113498 0.0014887289 0)
(1.0111981 0.001126643 0)
(1.0110149 0.00080490742 0)
(1.0108555 0.0005297121 0)
(1.0107223 0.00032202352 0)
(1.0105936 0.00018604387 0)
(1.0104491 0.00010846974 0)
(1.0102805 7.0672578e-05 0)
(1.0100934 5.4285366e-05 0)
(1.0099042 4.4138003e-05 0)
(1.0097401 3.2227725e-05 0)
(1.0096353 1.2363505e-05 0)
(0.95508995 0.0063588895 1.1520111e-23)
(0.95936391 0.0016029228 0)
(0.97983185 -0.014078026 0)
(1.0119039 -0.020727318 0)
(1.0285405 -0.0090777374 0)
(1.0289327 0.019764914 0)
(1.0060414 0.026171898 0)
(0.99388841 0.011912216 0)
(1.0011288 -0.0055378126 0)
(1.0163619 -0.012065872 0)
(1.0278424 -0.0061667375 0)
(1.028702 0.0040404227 0)
(1.0226531 0.010429979 0)
(1.0156401 0.011325343 0)
(1.0114733 0.0085169734 0)
(1.0103822 0.0052316292 0)
(1.0107064 0.003053621 0)
(1.0111866 0.0020081401 0)
(1.0113706 0.00154186 0)
(1.011283 0.0012346984 0)
(1.0110973 0.00092419587 0)
(1.0109304 0.00061770351 0)
(1.0108093 0.00036075762 0)
(1.0107121 0.00017925554 0)
(1.0106061 7.1626151e-05 0)
(1.0104719 2.1382105e-05 0)
(1.0103031 9.5880012e-06 0)
(1.0101092 1.5909976e-05 0)
(1.0099115 2.5235141e-05 0)
(1.0097395 2.6581445e-05 0)
(1.0096297 1.2344921e-05 0)
(0.93979283 0.0074983623 -2.1594218e-23)
(0.9450842 0.0018786521 -1.2046903e-23)
(0.9700582 -0.018123375 0)
(1.0044279 -0.024168111 0)
(1.0250728 -0.0074850063 0)
(1.0259284 0.022152971 0)
(1.0043379 0.032394911 0)
(0.98505144 0.014977653 0)
(0.994781 -0.0084905737 0)
(1.0155377 -0.01756733 0)
(1.0313677 -0.0099793297 0)
(1.0334892 0.0036066243 0)
(1.0257769 0.013011299 0)
(1.0161625 0.014511495 0)
(1.0103756 0.010747481 0)
(1.0090442 0.0061149176 0)
(1.0098484 0.0031548856 0)
(1.0108649 0.0018711875 0)
(1.0113702 0.0014762981 0)
(1.0113891 0.0012973298 0)
(1.0111891 0.0010510776 0)
(1.0109886 0.00073328148 0)
(1.0108592 0.0004235615 0)
(1.0107857 0.00018204609 0)
(1.0107243 2.6786675e-05 0)
(1.0106387 -4.9324541e-05 0)
(1.0105096 -6.6113247e-05 0)
(1.0103353 -4.7101255e-05 0)
(1.0101306 -1.5185835e-05 0)
(1.009922 1.3007487e-05 0)
(1.0097403 2.5057457e-05 0)
(1.0096243 1.3933608e-05 0)
(0.92354733 0.0085434612 2.1677514e-23)
(0.92900014 0.0014829042 2.3521531e-23)
(0.95705012 -0.021022156 0)
(0.99518812 -0.026624183 0)
(1.0164938 -0.0095564484 0)
(1.01371 0.027491266 0)
(0.99610606 0.039295566 0)
(0.97616683 0.017621249 0)
(0.98700428 -0.011815122 0)
(1.0141495 -0.024084492 0)
(1.0356453 -0.01523258 0)
(1.0394999 0.0031286108 0)
(1.0297308 0.016177159 0)
(1.0167568 0.018735598 0)
(1.0087358 0.013623014 0)
(1.0070523 0.007198532 0)
(1.0085412 0.0030716792 0)
(1.0103621 0.0014860124 0)
(1.0113667 0.0012287447 0)
(1.0115327 0.0012781225 0)
(1.0113196 0.0011797775 0)
(1.0110498 0.0008880951 0)
(1.0108767 0.00052600678 0)
(1.0108089 0.00020864437 0)
(1.0107896 -1.4304286e-05 0)
(1.0107622 -0.00013575086 0)
(1.0106908 -0.00017096816 0)
(1.0105598 -0.0001476373 0)
(1.0103754 -9.526751e-05 0)
(1.010157 -3.7169132e-05 0)
(1.0099346 8.6081821e-06 0)
(1.0097413 2.7576625e-05 0)
(1.0096178 1.7252455e-05 0)
(0.90729422 0.0097060141 0)
(0.91224845 0.0014623588 -2.3561821e-23)
(0.94194791 -0.024447744 0)
(0.98259521 -0.030098988 0)
(1.005565 -0.007383662 0)
(0.99981367 0.032174402 0)
(0.97873239 0.045919247 0)
(0.96545357 0.022577844 0)
(0.97758695 -0.016974982 0)
(1.0126506 -0.032429026 0)
(1.0404679 -0.021237372 0)
(1.0467367 0.0020046577 0)
(1.0346939 0.020361674 0)
(1.0173441 0.024148451 0)
(1.0063773 0.0174136 0)
(1.0042048 0.0084394881 0)
(1.0066469 0.0027765152 0)
(1.00962 0.00071451294 0)
(1.0113748 0.00069007226 0)
(1.0118156 0.0011412366 0)
(1.0115278 0.0012945178 0)
(1.0111472 0.0010944886 0)
(1.0108749 0.00069129402 0)
(1.0107785 0.00027876399 0)
(1.0107898 -3.7068547e-05 0)
(1.0108262 -0.00022801928 0)
(1.0108267 -0.00030085025 0)
(1.0107603 -0.00028583639 0)
(1.0106215 -0.00021903439 0)
(1.0104218 -0.00013125826 0)
(1.0101865 -4.7937776e-05 0)
(1.0099468 1.2232861e-05 0)
(1.0097412 3.6972178e-05 0)
(1.0096093 2.2280375e-05 0)
(0.89161551 0.010876345 -4.3808013e-24)
(0.89575885 0.0013298573 0)
(0.92545412 -0.027871208 -2.6225396e-23)
(0.96708066 -0.033032133 0)
(0.99202864 -0.0079562212 0)
(0.98550521 0.038999831 0)
(0.96261296 0.051998786 0)
(0.95260912 0.025029001 0)
(0.96808779 -0.021431703 0)
(1.0097521 -0.04189462 0)
(1.045806 -0.029019312 0)
(1.0545193 0.00095581552 0)
(1.0404909 0.025339671 0)
(1.017931 0.031092365 0)
(1.0030989 0.022208266 0)
(1.0002407 0.0099944094 0)
(1.0039871 0.0020879566 0)
(1.0085772 -0.00054100001 0)
(1.0114198 -0.00027691544 0)
(1.0122838 0.00078901746 0)
(1.0119161 0.001386362 0)
(1.0113339 0.0013613017 0)
(1.0108787 0.00094591853 0)
(1.010696 0.00042156293 0)
(1.0107142 -2.168258e-05 0)
(1.0108124 -0.00031276354 0)
(1.0108978 -0.00044804499 0)
(1.0109155 -0.00045893139 0)
(1.0108461 -0.00038834795 0)
(1.0106924 -0.00027508094 0)
(1.0104728 -0.00015263832 0)
(1.0102167 -4.6784869e-05 0)
(1.0099592 2.4996542e-05 0)
(1.0097393 5.1117229e-05 0)
(1.0095981 2.878208e-05 0)
(0.87721287 0.012001745 3.1355239e-23)
(0.8803034 0.0013499908 3.2613598e-23)
(0.90817928 -0.031078459 2.6210099e-23)
(0.94919126 -0.035885122 -6.6613931e-23)
(0.9759699 -0.0081434652 -1.3151059e-22)
(0.9696834 0.044637489 0)
(0.94689916 0.057255296 0)
(0.93896447 0.028755011 0)
(0.95854042 -0.028504599 0)
(1.007324 -0.05316073 0)
(1.0510624 -0.036837568 0)
(1.0624958 -0.0010692323 0)
(1.0465768 0.032028922 0)
(1.0179571 0.039758616 0)
(0.99862617 0.028326772 0)
(0.99489245 0.011744379 0)
(1.0003682 0.0010236681 0)
(1.0071422 -0.0025304713 0)
(1.011526 -0.0017959854 0)
(1.0130255 0.00012025485 0)
(1.0126094 0.0014483818 0)
(1.0116469 0.0016935803 0)
(1.0109348 0.0013374419 0)
(1.010569 0.00067441797 0)
(1.0105525 6.1609273e-05 0)
(1.0107035 -0.00037235558 0)
(1.0108833 -0.00060299056 0)
(1.0110042 -0.00066235952 0)
(1.0110273 -0.00060266296 0)
(1.0109453 -0.00047206227 0)
(1.0107699 -0.00031260831 0)
(1.0105262 -0.00015829435 0)
(1.0102469 -3.3562206e-05 0)
(1.0099698 4.6292685e-05 0)
(1.0097348 6.953306e-05 0)
(1.0095838 3.6439353e-05 0)
(0.86476726 0.013039839 -4.0513039e-23)
(0.86649339 0.0014677788 -4.5958189e-23)
(0.89112527 -0.033929415 0)
(0.92990995 -0.038704987 2.6582514e-22)
(0.95698831 -0.0076341329 1.3091669e-22)
(0.95306092 0.049409735 3.6330859e-23)
(0.92994444 0.06402061 2.039952e-23)
(0.92461577 0.027850978 0)
(0.94822752 -0.034109264 0)
(1.0029832 -0.065600709 0)
(1.0576668 -0.047650488 0)
(1.0726512 -0.00091291793 0)
(1.0512505 0.040111607 0)
(1.0161536 0.050546649 0)
(0.99244587 0.035929152 0)
(0.98778422 0.013897881 0)
(0.99556505 -0.00075182794 0)
(1.0052462 -0.005316027 0)
(1.0117153 -0.0041167328 0)
(1.0141524 -0.00096133007 0)
(1.0137126 0.0014133767 0)
(1.0122374 0.0021882075 0)
(1.0110437 0.0018861135 0)
(1.0104219 0.0011003658 0)
(1.0102939 0.00025347917 0)
(1.0104797 -0.00038251294 0)
(1.0107609 -0.00075303272 0)
(1.011004 -0.00089052598 0)
(1.0111432 -0.00086037415 0)
(1.0111584 -0.00072385752 0)
(1.0110546 -0.00053293112 0)
(1.010852 -0.00033029039 0)
(1.0105802 -0.00014806441 0)
(1.0102761 -8.1538787e-06 0)
(1.0099779 7.4698596e-05 0)
(1.0097271 9.1549596e-05 0)
(1.009566 4.4932846e-05 0)
(0.85479129 0.013956392 4.4114445e-24)
(0.85506954 0.0017792697 7.6191383e-24)
(0.87496718 -0.036298061 3.3175724e-23)
(0.90991198 -0.04106827 -9.9657075e-23)
(0.93685479 -0.0076080539 -2.0755717e-22)
(0.93366261 0.05539744 1.318712e-22)
(0.91367664 0.069936861 -2.0456478e-22)
(0.90781859 0.032267856 3.9782635e-23)
(0.93842702 -0.04295147 0)
(0.99722856 -0.077078364 0)
(1.0578416 -0.055893888 0)
(1.0798605 -0.0056003129 0)
(1.0588629 0.049452346 0)
(1.0121276 0.06372236 0)
(0.98330737 0.045007978 0)
(0.97859866 0.016322893 0)
(0.98931489 -0.0031637358 0)
(1.0027745 -0.0093248674 0)
(1.0120252 -0.007326892 0)
(1.0157968 -0.0026625073 0)
(1.0153962 0.0012699047 0)
(1.0132363 0.0028536507 0)
(1.011295 0.0027079606 0)
(1.0102404 0.0017526591 0)
(1.0099285 0.00060473115 0)
(1.0101156 -0.0003100363 0)
(1.0105039 -0.00088153783 0)
(1.0108904 -0.0011367673 0)
(1.0111715 -0.0011596578 0)
(1.0113102 -0.0010313198 0)
(1.0113047 -0.00081713644 0)
(1.0111712 -0.00056915097 0)
(1.0109361 -0.00032771329 0)
(1.0106336 -0.00012222036 0)
(1.0103027 2.7944672e-05 0)
(1.0099827 0.00010927718 0)
(1.0097158 0.00011617961 0)
(1.0095448 5.3878499e-05 0)
(0.84776794 0.014681669 7.4705743e-24)
(0.84648717 0.0021559401 -3.9567652e-25)
(0.86083621 -0.038038131 0)
(0.89000535 -0.043062237 -2.6420015e-23)
(0.91558801 -0.0070967702 -2.7371555e-23)
(0.91409269 0.060686202 0)
(0.89569922 0.076410211 -1.0250147e-22)
(0.89182327 0.035995295 -4.5795116e-23)
(0.92357881 -0.049255016 0)
(0.99205354 -0.088904831 0)
(1.0547591 -0.069557941 0)
(1.081097 -0.006090907 0)
(1.0733988 0.060825756 0)
(1.0116328 0.07812498 0)
(0.97119642 0.055463292 0)
(0.96660035 0.01895733 0)
(0.98146635 -0.0066650261 0)
(0.99964013 -0.014497265 0)
(1.0124754 -0.0118659 0)
(1.018095 -0.00503764 0)
(1.0178506 0.00088397639 0)
(1.0148158 0.003770206 0)
(1.011801 0.0039056147 0)
(1.0100176 0.0027202491 0)
(1.0094425 0.0011982562 0)
(1.0095754 -0.00012112841 0)
(1.0100788 -0.00097278466 0)
(1.0106355 -0.0013952744 0)
(1.0110883 -0.0014996281 0)
(1.0113791 -0.0013956551 0)
(1.0114992 -0.0011678466 0)
(1.0114621 -0.00087981795 0)
(1.0112918 -0.00057998557 0)
(1.0110203 -0.00030534187 0)
(1.0106851 -8.1825074e-05 0)
(1.010326 7.2949695e-05 0)
(1.0099838 0.00014849752 0)
(1.009701 0.00014253636 0)
(1.0095201 6.304986e-05 0)
(0.84455758 0.015243366 0)
(0.84128347 0.0027344383 0)
(0.84941441 -0.039157288 4.0725034e-25)
(0.87162289 -0.044524052 0)
(0.89426922 -0.0065585543 6.7603067e-24)
(0.89383952 0.066054118 1.4591854e-22)
(0.87823258 0.082502639 1.3924386e-22)
(0.87500038 0.040250098 -1.2464595e-22)
(0.90712446 -0.053142904 0)
(0.97992037 -0.10165676 0)
(1.0500268 -0.074233706 0)
(1.0787138 -0.012956035 0)
(1.0771994 0.071777666 0)
(1.0163467 0.09644895 0)
(0.96018534 0.067561351 0)
(0.95143358 0.021609456 0)
(0.97163474 -0.011327825 0)
(0.9958266 -0.021456743 0)
(1.013098 -0.017641608 0)
(1.0212097 -0.0084958924 0)
(1.0213119 0.00030508978 0)
(1.0171625 0.0049241556 0)
(1.0126825 0.0056383359 0)
(1.0098074 0.0041486654 0)
(1.0087555 0.0020852929 0)
(1.0088261 0.00025321545 0)
(1.009442 -0.0009982506 0)
(1.0102035 -0.001662266 0)
(1.0108676 -0.0018830998 0)
(1.0113439 -0.0018203012 0)
(1.0116181 -0.0015883009 0)
(1.0117043 -0.001266241 0)
(1.0116262 -0.00091087615 0)
(1.0114139 -0.00056600825 0)
(1.0111029 -0.00026439441 0)
(1.0107331 -2.8953982e-05 0)
(1.0103454 0.00012520601 0)
(1.0099809 0.00019080973 0)
(1.0096825 0.00016986755 0)
(1.0094922 7.2184072e-05 0)
(0.83946523 0.0034832696 -4.8456907e-25)
(0.84506194 0.015657571 0)
(0.84064834 -0.03959092 -9.4512623e-24)
(0.85588046 -0.045369288 -2.9261802e-23)
(0.8742036 -0.0059223038 -3.9468179e-24)
(0.87443286 0.070872642 -7.4463325e-23)
(0.86145868 0.088224231 7.0107848e-24)
(0.85903297 0.044188091 -7.6699589e-23)
(0.89003217 -0.058024783 1.9678723e-22)
(0.96306756 -0.11256691 0)
(1.0386505 -0.087901343 -1.491069e-21)
(1.0720504 -0.0091933556 0)
(1.0627828 0.081817389 0)
(1.0125062 0.11620288 0)
(0.95157132 0.082598947 0)
(0.93411961 0.024006692 0)
(0.95994493 -0.01743888 0)
(0.99114758 -0.029995082 0)
(1.0139618 -0.025354387 0)
(1.0252668 -0.012911034 0)
(1.0260283 -0.00078701507 0)
(1.0205465 0.0065074698 0)
(1.014058 0.0080308842 0)
(1.0096438 0.0062380518 0)
(1.0078184 0.0033880249 0)
(1.0077875 0.00086746199 0)
(1.0085286 -0.00095170176 0)
(1.0095509 -0.0019346696 0)
(1.0104786 -0.0023162363 0)
(1.011183 -0.0023130577 0)
(1.0116434 -0.0020843227 0)
(1.0118795 -0.0017326978 0)
(1.0119195 -0.0013253273 0)
(1.0117935 -0.00091110248 0)
(1.0115349 -0.0005287206 0)
(1.0111823 -0.00020698006 0)
(1.0107768 3.4010945e-05 0)
(1.0103603 0.00018263399 0)
(1.0099739 0.00023519851 0)
(1.0096604 0.00019748719 0)
(1.0094614 8.1160697e-05 0)
(0.835106 -0.039273136 7.7341534e-24)
(0.84146901 0.0044836085 0)
(0.8498991 0.01597457 -1.0887436e-23)
(0.8426503 -0.045653389 2.9246777e-23)
(0.85659193 -0.0051340637 7.8152477e-24)
(0.85684087 0.075034601 2.7289544e-22)
(0.84666083 0.093226309 -2.8836001e-22)
(0.84470441 0.047967697 -7.4727593e-24)
(0.87315843 -0.062912638 6.0572438e-23)
(0.94448642 -0.12379518 1.1174083e-23)
(1.0221914 -0.10137872 -1.6391033e-21)
(1.0605442 -0.013157251 1.5652099e-21)
(1.0435432 0.09528498 0)
(0.99322303 0.13436454 0)
(0.94078045 0.099515557 0)
(0.91810517 0.027730409 0)
(0.94540609 -0.025744723 0)
(0.98599704 -0.040794775 0)
(1.0149794 -0.034569276 0)
(1.0304319 -0.019028897 0)
(1.0322848 -0.0021554662 0)
(1.0252118 0.0083627822 0)
(1.0161267 0.011351216 0)
(1.0095321 0.0091760961 0)
(1.0065845 0.0052938247 0)
(1.006319 0.0017569533 0)
(1.0072703 -0.00076359267 0)
(1.0086133 -0.0022250938 0)
(1.009886 -0.0028230199 0)
(1.0108755 -0.0028913904 0)
(1.0115599 -0.0026669217 0)
(1.0119732 -0.0022858925 0)
(1.012155 -0.0018279433 0)
(1.01214 -0.0013462881 0)
(1.0119607 -0.00088244982 0)
(1.0116531 -0.00047052517 0)
(1.0112573 -0.00013584497 0)
(1.0108156 0.00010478023 0)
(1.0103704 0.00024343032 0)
(1.0099628 0.00028040024 0)
(1.0096351 0.00022480333 0)
(1.009428 8.9868705e-05 0)
(0.83334178 -0.045394558 6.039374e-24)
(0.8340208 -0.038323815 2.3546941e-23)
(0.84798204 0.0056110914 0)
(0.8582075 0.01607612 -3.4909933e-24)
(0.84202702 -0.0043224168 1.1723595e-25)
(0.84220706 0.078341399 -1.1827444e-22)
(0.83465641 0.097316042 0)
(0.83304325 0.05122066 7.4228359e-24)
(0.85744873 -0.067451836 -1.6042688e-23)
(0.92478735 -0.13517399 -1.1026849e-23)
(1.0025056 -0.11322733 1.7525748e-21)
(1.0459595 -0.024590899 1.7177626e-21)
(1.0285367 0.10778119 0)
(0.9729267 0.15093672 0)
(0.92700532 0.11620993 0)
(0.90403764 0.032004321 0)
(0.93000658 -0.034862784 0)
(0.97966121 -0.053576994 0)
(1.016394 -0.046297795 0)
(1.0367198 -0.026303064 0)
(1.0403174 -0.0045113821 0)
(1.0315441 0.010914141 0)
(1.0190191 0.015719893 0)
(1.0095112 0.013286154 0)
(1.0049617 0.0079686116 0)
(1.0042946 0.003041946 0)
(1.0055328 -0.00045411885 0)
(1.0073103 -0.0025435964 0)
(1.0090393 -0.0034188587 0)
(1.0103959 -0.0035805266 0)
(1.0113553 -0.0033550346 0)
(1.0119757 -0.0029365246 0)
(1.0123209 -0.002424724 0)
(1.0124378 -0.0018760291 0)
(1.0123616 -0.0013317049 0)
(1.0121254 -0.00082779394 0)
(1.0117666 -0.00039449695 0)
(1.0113268 -5.397539e-05 0)
(1.0108491 0.00018096245 0)
(1.0103757 0.00030605915 0)
(1.0099478 0.00032545731 0)
(1.0096068 0.00025150746 0)
(1.0093923 9.8262687e-05 0)
(0.83142318 -0.0035600746 -8.9344329e-24)
(0.82871396 -0.044720695 -5.3323973e-24)
(0.83794697 -0.036823607 -2.1224861e-23)
(0.85854625 0.0067668348 -9.9487646e-24)
(0.86906957 0.015971893 5.4006333e-23)
(0.83169318 0.080799083 1.0997346e-22)
(0.82634421 0.1004122 4.6222674e-23)
(0.82468839 0.053897851 0)
(0.84376009 -0.071840589 3.1598685e-24)
(0.90466555 -0.14587986 -3.4844462e-22)
(0.98017627 -0.12608325 0)
(1.0270495 -0.031021917 -2.131e-21)
(1.0166544 0.10880311 0)
(0.95510181 0.16819773 0)
(0.91339071 0.12616408 0)
(0.89119588 0.039010671 0)
(0.91472693 -0.046500048 0)
(0.97261333 -0.069033732 0)
(1.0179633 -0.059395605 0)
(1.044282 -0.036037568 0)
(1.0504079 -0.0071511648 0)
(1.0397723 0.013682471 0)
(1.0230291 0.021619447 0)
(1.00954 0.018785981 0)
(1.0028168 0.011704512 0)
(1.0015588 0.0048167552 0)
(1.0031444 -9.7151913e-06 0)
(1.0055432 -0.0028985709 0)
(1.0078771 -0.0041744173 0)
(1.0097191 -0.0044281325 0)
(1.0110211 -0.0041792985 0)
(1.0118838 -0.0037019188 0)
(1.0124118 -0.0031239043 0)
(1.0126766 -0.0025045728 0)
(1.0127222 -0.0018806605 0)
(1.012581 -0.0012851298 0)
(1.0122855 -0.00075061374 0)
(1.0118743 -0.00030402751 0)
(1.0113903 3.5902652e-05 0)
(1.0108769 0.00026042956 0)
(1.0103763 0.00036913381 0)
(1.0099291 0.00036986017 0)
(1.0095758 0.00027726233 0)
(1.0093547 0.00010633353 0)
(0.82602375 0.082090439 5.164116e-24)
(0.82627393 -0.0029827639 6.7859004e-24)
(0.82938753 -0.043769285 1.3404794e-23)
(0.84653034 -0.034801814 1.0243343e-23)
(0.87203976 0.0078600954 -3.843301e-23)
(0.88222315 0.015634348 -3.3980715e-23)
(0.822197 0.10253389 -1.0322834e-22)
(0.82033863 0.056064216 -5.8023135e-23)
(0.83321431 -0.075580101 -6.5776384e-23)
(0.88500451 -0.15555219 3.2639216e-22)
(0.95572097 -0.13821867 -1.9491308e-21)
(1.0052483 -0.039383887 9.1864787e-22)
(0.99495505 0.11651578 0)
(0.94241687 0.18202667 -5.3376683e-22)
(0.89435625 0.14530165 -7.7620255e-22)
(0.87791063 0.038606724 0)
(0.90074528 -0.054815516 0)
(0.96447125 -0.086398517 0)
(1.0199022 -0.075856052 0)
(1.0530354 -0.046800137 0)
(1.0627006 -0.011563967 0)
(1.0503838 0.017605984 0)
(1.0282301 0.029074596 0)
(1.0096238 0.026204358 0)
(0.99996373 0.016657368 0)
(0.99789522 0.0072665275 0)
(0.99990931 0.00056031341 0)
(1.0031755 -0.0033507055 0)
(1.0063162 -0.0051372671 0)
(1.00881 -0.0054939986 0)