/*--------------------------------*- C++ -*----------------------------------*\
| =========                 |                                                 |
| \\      /  F ield         | OpenFOAM: The Open Source CFD Toolbox           |
|  \\    /   O peration     | Version:  5.0                                   |
|   \\  /    A nd           | Web:      www.OpenFOAM.org                      |
|    \\/     M anipulation  |                                                 |
\*---------------------------------------------------------------------------*/
FoamFile
{
    version     2.0;
    format      ascii;
    class       volVectorField;
    location    "120";
    object      U_0;
}
// * * * * * * * * * * * * * * * * * * * * * * * * * * * * * * * * * * * * * //

dimensions      [0 1 -1 0 0 0 0];

internalField   nonuniform List<vector> 
9520
(
(1.0118232 5.3543444e-05 0)
(1.0119362 0.00015606088 0)
(1.011663 5.6217139e-05 0)
(1.0121377 0.00024941081 0)
(1.011779 0.00016329327 0)
(1.0115959 6.0634694e-05 0)
(1.0124083 0.00033187507 0)
(1.0119869 0.00026090495 0)
(1.0117136 0.00017584257 0)
(1.0114756 6.8173343e-05 0)
(1.0127302 0.00040273146 0)
(1.0122678 0.00034698117 0)
(1.0119245 0.00028114002 0)
(1.0115953 0.00019842204 0)
(1.0113739 7.4808449e-05 0)
(1.0130876 0.00046034557 0)
(1.0126046 0.00042059501 0)
(1.0122105 0.00037459286 0)
(1.0118096 0.00031836886 0)
(1.011495 0.00021926681 0)
(1.0112481 8.0732262e-05 0)
(1.0134664 0.00050309383 0)
(1.0129828 0.00047967583 0)
(1.0125548 0.00045532729 0)
(1.0121011 0.00042704009 0)
(1.0117114 0.00035335849 0)
(1.0113688 0.00023854638 0)
(1.0111311 8.4035444e-05 0)
(1.0138551 0.00052946963 0)
(1.01339 0.00052302601 0)
(1.0129431 0.00052156232 0)
(1.0124535 0.00052406385 0)
(1.0120062 0.0004770668 0)
(1.011585 0.00038720794 0)
(1.0112502 0.00024920799 0)
(1.0110069 8.6430546e-05 0)
(1.0142507 0.00053999494 0)
(1.0138181 0.00054946409 0)
(1.0133624 0.00057276229 0)
(1.0128535 0.00060814652 0)
(1.0123638 0.00059056076 0)
(1.0118795 0.00052778295 0)
(1.0114646 0.00040713696 0)
(1.0111228 0.00025607243 0)
(1.0108896 8.879099e-05 0)
(1.0146409 0.00052922805 0)
(1.014253 0.00055222045 0)
(1.0138015 0.00060768265 0)
(1.0132902 0.00067699948 0)
(1.0127707 0.00069303951 0)
(1.0122372 0.00066120999 0)
(1.0117564 0.00055921843 0)
(1.0113323 0.00042077561 0)
(1.0110025 0.00026206428 0)
(1.0107702 9.1891748e-05 0)
(1.0150147 0.00050280821 0)
(1.0146817 0.0005547742 0)
(1.0142443 0.00062900965 0)
(1.0137495 0.00073107208 0)
(1.0132141 0.00078549874 0)
(1.0126451 0.00078740409 0)
(1.0121108 0.00070690725 0)
(1.0116179 0.00058201389 0)
(1.0112066 0.00043202464 0)
(1.0108792 0.00027063236 0)
(1.010653 9.5116264e-05 0)
(1.0153624 0.00047156389 0)
(1.0150969 0.00054003737 0)
(1.0146834 0.00063461729 0)
(1.0142204 0.00076602679 0)
(1.0136846 0.00086609818 0)
(1.0130921 0.00090646627 0)
(1.0125147 0.00085049567 0)
(1.0119652 0.00074166078 0)
(1.011485 0.00060034202 0)
(1.0110755 0.00044705964 0)
(1.0107586 0.00028061818 0)
(1.0105349 9.7429297e-05 0)
(1.015695 0.00040394179 0)
(1.015491 0.00051616761 0)
(1.0151153 0.00061832086 0)
(1.0146974 0.00077950914 0)
(1.0141758 0.00093244003 0)
(1.0135704 0.0010175079 0)
(1.0129568 0.00099062857 0)
(1.0123615 0.0008999998 0)
(1.0118234 0.00076956839 0)
(1.0113436 0.00062362406 0)
(1.0109474 0.00046402088 0)
(1.0106362 0.00028901014 0)
(1.0104189 9.7652683e-05 0)
(1.0160215 0.00038556605 0)
(1.0158745 0.00046714894 0)
(1.0155364 0.00058025039 0)
(1.0151801 0.00076322283 0)
(1.0146883 0.00098171886 0)
(1.0140754 0.0011199201 0)
(1.0134278 0.0011285921 0)
(1.012795 0.0010573147 0)
(1.0122096 0.00094037293 0)
(1.0116696 0.00080356335 0)
(1.0112049 0.00064908965 0)
(1.0108159 0.00047844825 0)
(1.0105157 0.00029150663 0)
(1.0103079 9.510265e-05 0)
(1.0163131 0.00023161787 0)
(1.0162509 0.00043245933 0)
(1.0159421 0.00051041605 0)
(1.0156656 0.00072135123 0)
(1.0152195 0.001003564 0)
(1.0146013 0.0012155488 0)
(1.0139174 0.0012689684 0)
(1.0132536 0.001214431 0)
(1.0126318 0.0011127249 0)
(1.0120425 0.00098809601 0)
(1.0115174 0.00083976842 0)
(1.0110602 0.0006709329 0)
(1.0106867 0.00048339481 0)
(1.0103994 0.00028500008 0)
(1.0102052 8.9758224e-05 0)
(1.0165888 0.00030992414 0)
(1.0165378 0.00036140188 0)
(1.0162996 0.0004298142 0)
(1.01614 0.00063329838 0)
(1.0157657 0.0010106054 0)
(1.0151402 0.0013127467 0)
(1.014415 0.0014165116 0)
(1.0137257 0.0013729916 0)
(1.0130779 0.001285804 0)
(1.0124519 0.0011771478 0)
(1.0118745 0.0010382092 0)
(1.0113555 0.00087125828 0)
(1.0109178 0.00067936565 0)
(1.0105612 0.00047374716 0)
(1.0102915 0.00026894822 0)
(1.0101135 8.2209898e-05 0)
(1.0168158 5.997666e-05 0)
(1.016814 0.00032340905 0)
(1.0166039 0.00030897564 0)
(1.016611 0.00052963687 0)
(1.0163126 0.00098110249 0)
(1.0156961 0.0014201379 0)
(1.0149131 0.001578625 0)
(1.0141983 0.0015340006 0)
(1.0135372 0.0014567084 0)
(1.0128893 0.0013685363 0)
(1.0122672 0.0012452705 0)
(1.0116922 0.0010827403 0)
(1.0111956 0.00088478261 0)
(1.0107781 0.00066773122 0)
(1.0104442 0.00044801988 0)
(1.0101951 0.00024545379 0)
(1.0100341 7.3550026e-05 0)
(1.0170433 0.00029387432 0)
(1.0168805 0.00027891899 0)
(1.0168444 0.0001691276 0)
(1.0170914 0.00033434436 0)
(1.0168858 0.00094936703 0)
(1.0162553 0.0015354827 0)
(1.0154034 0.0017641403 0)
(1.0146538 0.0017032351 0)
(1.0139977 0.0016213203 0)
(1.0133456 0.0015571959 0)
(1.0126887 0.0014600889 0)
(1.0120624 0.0013078136 0)
(1.0115095 0.0011043969 0)
(1.0110359 0.00087234369 0)
(1.0106473 0.00063334639 0)
(1.0103389 0.0004090896 0)
(1.0101118 0.00021846786 0)
(1.0099666 6.497827e-05 0)
(1.017203 2.3217499e-06 0)
(1.0170293 0.00029394464 0)
(1.0169717 4.2118799e-06 0)
(1.0175592 0.00010003378 0)
(1.0175378 0.00086650376 0)
(1.0168248 0.0016753346 0)
(1.0158646 0.0019944754 0)
(1.0150662 0.0018836156 0)
(1.014441 0.0017761981 0)
(1.0138103 0.0017370833 0)
(1.0131356 0.0016780246 0)
(1.0124622 0.0015476535 0)
(1.0118514 0.0013425721 0)
(1.0113238 0.0010930505 0)
(1.0108866 0.00083041105 0)
(1.0105283 0.00057896831 0)
(1.0102479 0.00036337069 0)
(1.0100415 0.00019197295 0)
(1.0099096 5.7390172e-05 0)
(1.0173632 0.00046147148 0)
(1.0167233 0.0002682554 0)
(1.0170336 -0.00034369213 0)
(1.0180743 -0.00031531119 0)
(1.0182869 0.00079397378 0)
(1.0174467 0.0018482874 0)
(1.0162825 0.0022770834 0)
(1.0154237 0.0020959954 0)
(1.0148392 0.0019075966 0)
(1.0142756 0.0018933484 0)
(1.0136079 0.0018918789 0)
(1.0128903 0.0018016217 0)
(1.0122162 0.0016036535 0)
(1.0116325 0.0013357033 0)
(1.0111491 0.0010438942 0)
(1.0107494 0.00076070723 0)
(1.0104256 0.00051329258 0)
(1.0101716 0.00031786895 0)
(1.0099827 0.00016844487 0)
(1.0098612 5.1134268e-05 0)
(1.0173287 0.00016074285 0)
(1.016746 0.00042061465 0)
(1.0167954 -0.00047851571 0)
(1.0184975 -0.00079256406 0)
(1.019166 0.00058699778 0)
(1.0181505 0.002120741 0)
(1.0166433 0.0026314198 0)
(1.0156959 0.0023107284 0)
(1.0152164 0.0020213206 0)
(1.0147389 0.0020070334 0)
(1.0141103 0.002083854 0)
(1.0133518 0.0020681771 0)
(1.0126034 0.0018923301 0)
(1.0119553 0.0016065298 0)
(1.0114242 0.0012799214 0)
(1.0109881 0.00095854849 0)
(1.0106304 0.00067337274 0)
(1.01034 0.00044647096 0)
(1.0101088 0.00027726669 0)
(1.0099334 0.00014855447 0)
(1.0098199 4.6044487e-05 0)
(1.0172052 0.00093487561 0)
(1.0158162 0.00050486848 0)
(1.0165482 -0.0012611609 0)
(1.0191051 -0.0015548935 0)
(1.0202072 0.00045206998 0)
(1.0189508 0.0024525426 0)
(1.016949 0.0031377582 0)
(1.0158315 0.002553153 0)
(1.0155402 0.0020537135 0)
(1.0152258 0.0020385406 0)
(1.0146586 0.0022403817 0)
(1.0138614 0.0023384806 0)
(1.0130199 0.0022142104 0)
(1.0122881 0.001913839 0)
(1.0117019 0.0015449127 0)
(1.0112323 0.0011772994 0)
(1.0108483 0.00084780849 0)
(1.0105318 0.00058268071 0)
(1.0102705 0.00038576905 0)
(1.0100572 0.00024280604 0)
(1.0098919 0.00013202122 0)
(1.0097842 4.1682301e-05 0)
(1.0169041 0.00061325725 0)
(1.0155959 0.00072716004 0)
(1.0157657 -0.0011899908 0)
(1.0194321 -0.0024638305 0)
(1.0215265 -1.1688379e-05 0)
(1.0199225 0.0030151566 0)
(1.0171759 0.0038110326 0)
(1.0157639 0.0028708693 0)
(1.0156917 0.0020051194 0)
(1.0157359 0.0019990514 0)
(1.0152511 0.0023105474 0)
(1.0144409 0.0026135336 0)
(1.013476 0.0025771032 0)
(1.012629 0.0022695 0)
(1.0119731 0.0018476483 0)
(1.0114698 0.0014219605 0)
(1.0110664 0.0010404948 0)
(1.0107326 0.00073023363 0)
(1.0104525 0.00049900295 0)
(1.010215 0.00033353061 0)
(1.0100151 0.00021336527 0)
(1.0098571 0.00011833161 0)
(1.0097532 3.7624846e-05 0)
(1.0158285 0.0017277117 0)
(1.0140462 0.0010393771 0)
(1.0150975 -0.0027457416 0)
(1.020163 -0.0037255939 0)
(1.0230223 -0.00026564812 0)
(1.0210431 0.0036224909 0)
(1.0173152 0.0047715826 0)
(1.0154299 0.0032432426 0)
(1.0156358 0.0018795613 0)
(1.0161977 0.0017755226 0)
(1.0159349 0.0023464072 0)
(1.0150864 0.0028688169 0)
(1.0139909 0.0029963696 0)
(1.0129788 0.0026913222 0)
(1.0122292 0.0022000604 0)
(1.0116887 0.0016985207 0)
(1.0112718 0.0012542094 0)
(1.0109297 0.00089243421 0)
(1.0106404 0.00062030801 0)
(1.0103902 0.00042553045 0)
(1.0101713 0.00028853848 0)
(1.009981 0.00018738095 0)
(1.009828 0.00010655163 0)
(1.0097263 3.3600189e-05 0)
(1.0128047 0.0013816769 0)
(1.0128638 0.0013056756 0)
(1.0136199 -0.0022581621 0)
(1.0202363 -0.0053542585 0)
(1.0250522 -0.0012266637 0)
(1.0224351 0.0047442221 0)
(1.0172721 0.0060404264 0)
(1.0147517 0.0037861896 0)
(1.0153188 0.0015824479 0)
(1.0166093 0.0013418759 0)
(1.0167691 0.0022469368 0)
(1.0158458 0.0031266716 0)
(1.0145612 0.0034846905 0)
(1.0133418 0.0032059947 0)
(1.0124574 0.0026191867 0)
(1.0118734 0.0020131328 0)
(1.0114516 0.0014908237 0)
(1.0111112 0.0010709429 0)
(1.0108217 0.00075262908 0)
(1.0105687 0.00052207693 0)
(1.0103429 0.00036078013 0)
(1.0101379 0.00024822895 0)
(1.0099542 0.00016381005 0)
(1.0098038 9.5111491e-05 0)
(1.0097034 2.9446976e-05 0)
(1.0071125 0.0029812382 0)
(1.007668 0.0018399546 0)
(1.0120624 -0.0048758706 0)
(1.0213971 -0.0070791799 0)
(1.0270227 -0.0014781663 0)
(1.0240171 0.0057383719 0)
(1.0171132 0.0077713175 0)
(1.0136103 0.0044550358 0)
(1.0146269 0.0011810469 0)
(1.0169339 0.00055051446 0)
(1.0177948 0.0019635954 0)
(1.0168302 0.0033773087 0)
(1.0152144 0.0040621455 0)
(1.013705 0.0038490468 0)
(1.0126402 0.0031296409 0)
(1.0120051 0.0023746244 0)
(1.0115911 0.0017502739 0)
(1.0112662 0.0012647935 0)
(1.0109859 0.00089728735 0)
(1.0107382 0.00062628993 0)
(1.0105153 0.00043357328 0)
(1.010309 0.00030148915 0)
(1.010114 0.00021013335 0)
(1.0099343 0.00014148505 0)
(1.0097842 8.2595656e-05 0)
(1.0096846 2.5123104e-05 0)
(0.99991657 0.0028141293 0)
(1.0011231 0.0017622826 0)
(1.0077881 -0.0037714375 0)
(1.0200119 -0.0093445284 0)
(1.0286695 -0.0034332373 0)
(1.0258912 0.0078476319 0)
(1.0165042 0.01001507 0)
(1.0118598 0.0054056896 0)
(1.0134575 0.00051417875 0)
(1.0171317 -0.00058824018 0)
(1.0190124 0.0013460399 0)
(1.0181146 0.0036218699 0)
(1.0160391 0.0047650046 0)
(1.014062 0.0046553403 0)
(1.0127541 0.0037643338 0)
(1.0120551 0.0027928354 0)
(1.0116711 0.0020298068 0)
(1.0113835 0.0014690652 0)
(1.011125 0.0010527184 0)
(1.0108892 0.00074020902 0)
(1.0106761 0.00051064611 0)
(1.0104787 0.00035084148 0)
(1.0102876 0.00024439176 0)
(1.0100991 0.00017243433 0)
(1.0099207 0.00011866554 0)
(1.009769 6.8841781e-05 0)
(1.0096697 2.084302e-05 0)
(0.99060071 0.0044435347 0)
(0.99226797 0.0027594722 0)
(1.0026388 -0.0076550834 0)
(1.0201501 -0.011346937 0)
(1.0289918 -0.0034189856 0)
(1.0278661 0.0093778656 0)
(1.0158043 0.01287221 0)
(1.0093437 0.0066278988 0)
(1.0116425 -0.00030875966 0)
(1.0171787 -0.0023297206 0)
(1.0205197 0.00038349104 0)
(1.0197972 0.0037919046 0)
(1.0171122 0.0056703489 0)
(1.0144384 0.0056839488 0)
(1.0127613 0.0045601631 0)
(1.0119884 0.0032791762 0)
(1.0116645 0.0023219942 0)
(1.0114504 0.0016728786 0)
(1.0112335 0.0012129144 0)
(1.0110165 0.00086373603 0)
(1.0108163 0.00059549861 0)
(1.0106339 0.00040074812 0)
(1.010458 0.00027015736 0)
(1.010278 0.00018760284 0)
(1.0100928 0.00013438491 0)
(1.0099129 9.4408848e-05 0)
(1.0097582 5.5011977e-05 0)
(1.0096584 1.7071595e-05 0)
(0.98043074 0.0045882838 0)
(0.98240501 0.0020426384 0)
(0.9954099 -0.007496279 0)
(1.0181929 -0.01427384 0)
(1.0297837 -0.0065126718 0)
(1.028858 0.012697016 0)
(1.0143795 0.016564994 0)
(1.00586 0.0081410664 0)
(1.0090753 -0.0015267809 0)
(1.017003 -0.0046323141 0)
(1.0223696 -0.0011860893 0)
(1.0220226 0.0039233231 0)
(1.0185197 0.0068091274 0)
(1.0148521 0.0070479372 0)
(1.0126128 0.0055648533 0)
(1.011752 0.0038519152 0)
(1.0115354 0.0026122665 0)
(1.0114515 0.0018567397 0)
(1.0113086 0.0013649549 0)
(1.0111195 0.0009930731 0)
(1.0109319 0.00069087074 0)
(1.0107648 0.0004563457 0)
(1.0106106 0.00029246226 0)
(1.0104521 0.00018985121 0)
(1.0102793 0.00013045829 0)
(1.0100943 9.5710056e-05 0)
(1.0099105 6.907834e-05 0)
(1.0097517 4.2697985e-05 0)
(1.0096499 1.4260879e-05 0)
(0.968634 0.0058144889 0)
(0.97149667 0.0029465093 0)
(0.98844368 -0.012150844 0)
(1.0153426 -0.017549873 0)
(1.0296579 -0.0056258593 0)
(1.0288068 0.014255978 0)
(1.0122241 0.020997471 0)
(1.0009934 0.010297235 0)
(1.0054906 -0.00304265 0)
(1.016591 -0.0079029287 0)
(1.0246559 -0.0033175186 0)
(1.0249141 0.0038416792 0)
(1.0203901 0.0083122585 0)
(1.0153161 0.0088469192 0)
(1.0122526 0.0068766467 0)
(1.011263 0.0045173346 0)
(1.0112377 0.0028856234 0)
(1.0113659 0.0019881524 0)
(1.0113505 0.0014852926 0)
(1.0112047 0.0011191132 0)
(1.011025 0.00079750364 0)
(1.0108671 0.00052374917 0)
(1.0107343 0.00031780449 0)
(1.0106054 0.00018365148 0)
(1.0104603 0.00010778488 0)
(1.0102911 7.1287869e-05 0)
(1.0101033 5.5713425e-05 0)
(1.0099133 4.5637606e-05 0)
(1.0097485 3.3247952e-05 0)
(1.0096432 1.2721183e-05 0)
(0.95533434 0.0064111082 1.1808228e-23)
(0.95929258 0.0020372999 0)
(0.97922162 -0.013585495 0)
(1.0112869 -0.02094156 0)
(1.0285508 -0.0097522974 0)
(1.0293493 0.019081708 0)
(1.0069466 0.026276684 0)
(0.99412976 0.012564077 0)
(1.0007785 -0.0049693001 0)
(1.0157883 -0.011944425 0)
(1.027468 -0.0064331996 0)
(1.0286737 0.0036852131 0)
(1.022836 0.01018717 0)
(1.0158607 0.011266123 0)
(1.011603 0.0085783556 0)
(1.0104212 0.005312161 0)
(1.0107 0.0031035387 0)
(1.0111714 0.0020241246 0)
(1.0113632 0.0015382119 0)
(1.0112859 0.0012243006 0)
(1.0111068 0.00091405533 0)
(1.0109425 0.00060969801 0)
(1.0108221 0.00035521944 0)
(1.0107248 0.00017604243 0)
(1.0106182 7.0509952e-05 0)
(1.0104833 2.1888571e-05 0)
(1.0103137 1.1095029e-05 0)
(1.0101189 1.7804488e-05 0)
(1.0099204 2.6904114e-05 0)
(1.0097476 2.7634004e-05 0)
(1.0096374 1.2684284e-05 0)
(0.94006518 0.0075834084 -2.1477794e-23)
(0.94500416 0.002390686 -1.2347618e-23)
(0.96938638 -0.017629429 0)
(1.0038206 -0.024393474 0)
(1.0251375 -0.0083244281 0)
(1.026535 0.021245368 0)
(1.0054472 0.032549548 0)
(0.98531307 0.015799078 0)
(0.99430321 -0.0077441522 0)
(1.0147704 -0.017391956 0)
(1.0308496 -0.010329617 0)
(1.0334408 0.0031146447 0)
(1.0260345 0.012670013 0)
(1.0164812 0.014432789 0)
(1.0105635 0.010845053 0)
(1.009095 0.0062412775 0)
(1.0098292 0.0032343504 0)
(1.0108322 0.0018977452 0)
(1.0113507 0.0014718679 0)
(1.0113867 0.0012822587 0)
(1.0111973 0.0010363085 0)
(1.0110015 0.00072210842 0)
(1.0108733 0.00041617728 0)
(1.0107995 0.00017781662 0)
(1.0107375 2.5125515e-05 0)
(1.0106509 -4.9036074e-05 0)
(1.010521 -6.4582609e-05 0)
(1.0103458 -4.4939382e-05 0)
(1.0101402 -1.302189e-05 0)
(1.0099306 1.4705123e-05 0)
(1.0097483 2.6109117e-05 0)
(1.0096318 1.4241282e-05 0)
(0.92383819 0.0086544705 2.1560564e-23)
(0.92891367 0.0020904048 2.5575027e-23)
(0.95633552 -0.020462401 0)
(0.99463138 -0.026967277 0)
(1.0166759 -0.010545433 0)
(1.0147567 0.026497417 0)
(0.99743902 0.03943465 0)
(0.97656921 0.018686252 0)
(0.98636501 -0.01082696 0)
(1.0131435 -0.023862611 0)
(1.0349546 -0.015684918 0)
(1.0394226 0.0024558967 0)
(1.0300889 0.015697605 0)
(1.0172105 0.018632209 0)
(1.0090041 0.013772964 0)
(1.0071187 0.0073908723 0)
(1.0085022 0.0031940609 0)
(1.0103025 0.0015285628 0)
(1.0113268 0.0012219465 0)
(1.0115231 0.0012542493 0)
(1.0113261 0.0011570707 0)
(1.0110638 0.00087189705 0)
(1.0108927 0.00051596262 0)
(1.0108244 0.00020312848 0)
(1.010804 -1.6553431e-05 0)
(1.0107755 -0.0001357601 0)
(1.0107032 -0.00016950557 0)
(1.0105713 -0.00014534094 0)
(1.0103859 -9.2753154e-05 0)
(1.0101664 -3.4941281e-05 0)
(1.0099431 1.0233665e-05 0)
(1.0097491 2.8571483e-05 0)
(1.0096251 1.7518191e-05 0)
(0.90759278 0.0098452981 0)
(0.9121455 0.002177161 -2.5618553e-23)
(0.941219 -0.023865875 0)
(0.98206426 -0.030499121 0)
(1.0058422 -0.0085585966 0)
(1.0010282 0.030995158 0)
(0.98000964 0.046184776 0)
(0.96586314 0.023893794 0)
(0.97678219 -0.015731955 0)
(1.0113562 -0.032144255 0)
(1.0395897 -0.021819791 0)
(1.0466406 0.0011084874 0)
(1.0351847 0.019708485 0)
(1.0179775 0.024013342 0)
(1.0067554 0.017635504 0)
(1.0042913 0.0087252467 0)
(1.006578 0.0029594509 0)
(1.00952 0.00077976766 0)
(1.0113042 0.00068053101 0)
(1.0117897 0.001104504 0)
(1.0115291 0.0012610173 0)
(1.0111627 0.0010706567 0)
(1.010894 0.00067733679 0)
(1.0107966 0.00027159608 0)
(1.010806 -3.9898928e-05 0)
(1.0108408 -0.00022824545 0)
(1.01084 -0.00029950238 0)
(1.0107727 -0.00028350699 0)
(1.0106329 -0.00021627733 0)
(1.0104321 -0.00012862646 0)
(1.0101957 -4.5791081e-05 0)
(1.0099551 1.3716621e-05 0)
(1.0097488 3.778511e-05 0)
(1.0096165 2.2504186e-05 0)
(0.89190607 0.011042374 -4.5280685e-24)
(0.89566021 0.0021553052 0)
(0.92475803 -0.027273961 -2.4144627e-23)
(0.96657609 -0.03349353 0)
(0.99236961 -0.0093241791 0)
(0.98681246 0.037793232 0)
(0.9638344 0.052331254 0)
(0.95285753 0.026565696 0)
(0.96711586 -0.019830925 0)
(1.008142 -0.041576257 0)
(1.0447338 -0.029753704 0)
(1.0544543 -0.00022886412 0)
(1.0411522 0.024445908 0)
(1.0188014 0.030922965 0)
(1.0036205 0.022528967 0)
(1.0003517 0.010407827 0)
(1.0038752 0.0023545037 0)
(1.0084191 -0.00044446484 0)
(1.0113041 -0.00029102512 0)
(1.0122334 0.00073264931 0)
(1.0119151 0.0013370554 0)
(1.0113512 0.0013254618 0)
(1.0109029 0.00092615237 0)
(1.0107182 0.00041231469 0)
(1.0107331 -2.5008151e-05 0)
(1.0108285 -0.00031296196 0)
(1.0109123 -0.00044668009 0)
(1.0109289 -0.00045661142 0)
(1.0108585 -0.00038550615 0)
(1.0107036 -0.00027218843 0)
(1.010483 -0.00015006866 0)
(1.0102258 -4.4806993e-05 0)
(1.0099673 2.6300111e-05 0)
(1.0097468 5.1821588e-05 0)
(1.0096052 2.8977879e-05 0)
(0.87748301 0.012191585 3.0620437e-23)
(0.8802228 0.0022802217 3.5436562e-23)
(0.90754388 -0.030478512 2.4130559e-23)
(0.94873527 -0.036413267 -6.4471089e-23)
(0.97633948 -0.0096864088 -1.3380761e-22)
(0.97105752 0.043306681 0)
(0.94809535 0.057787077 0)
(0.93904813 0.030524978 0)
(0.95743335 -0.026541466 0)
(1.0053327 -0.052841567 0)
(1.0497351 -0.037786866 0)
(1.0624553 -0.0025878886 0)
(1.0474442 0.030843171 0)
(1.0191385 0.039543463 0)
(0.99933466 0.02877645 0)
(0.99503265 0.012330735 0)
(1.0001945 0.0014020807 0)
(1.006903 -0.0023924004 0)
(1.011346 -0.0018167078 0)
(1.0129403 3.4813021e-05 0)
(1.0126015 0.0013699981 0)
(1.0116694 0.0016403743 0)
(1.0109669 0.0013082934 0)
(1.0105982 0.00066234355 0)
(1.0105756 5.8220519e-05 0)
(1.0107219 -0.00037196265 0)
(1.0108991 -0.00060121019 0)
(1.0110185 -0.00065991657 0)
(1.0110406 -0.00059980253 0)
(1.0109576 -0.00046906767 0)
(1.0107811 -0.00030976924 0)
(1.0105362 -0.00015590393 0)
(1.0102558 -3.1795002e-05 0)
(1.0099778 4.7452252e-05 0)
(1.0097421 7.0155489e-05 0)
(1.0095907 3.662766e-05 0)
(0.86500635 0.013248989 -3.9350437e-23)
(0.86644338 0.002488536 -4.9875659e-23)
(0.89058206 -0.033330338 0)
(0.92950157 -0.039284227 2.6429791e-22)
(0.9573869 -0.0093693406 1.3320068e-22)
(0.95444793 0.047960505 4.1828734e-23)
(0.93115249 0.064602383 2.2986385e-23)
(0.92469681 0.029881297 0)
(0.94701455 -0.031800334 0)
(1.0007856 -0.065217703 0)
(1.056187 -0.048691985 0)
(1.0724985 -0.0028558753 0)
(1.0524484 0.038543028 0)
(1.0177334 0.050294825 0)
(0.9933789 0.036545676 0)
(0.98795711 0.01470979 0)
(0.99530621 -0.00022570574 0)
(1.0048969 -0.0051236876 0)
(1.0114458 -0.0041470391 0)
(1.0140172 -0.001088763 0)
(1.0136927 0.001291975 0)
(1.0122702 0.0021091053 0)
(1.0110887 0.0018422315 0)
(1.0104626 0.0010845349 0)
(1.0103238 0.0002507258 0)
(1.0105015 -0.00038038434 0)
(1.010778 -0.00074998228 0)
(1.0110191 -0.00088756697 0)
(1.0111573 -0.00085743844 0)
(1.0111717 -0.00072089099 0)
(1.0110669 -0.00053001402 0)
(1.0108632 -0.00032763264 0)
(1.0105901 -0.00014589164 0)
(1.0102849 -6.5804446e-06 0)
(1.0099858 7.5752887e-05 0)
(1.0097343 9.2140546e-05 0)
(1.0095728 4.5139642e-05 0)
(0.8549916 0.014181432 4.3672867e-24)
(0.85505521 0.0028727536 8.5758315e-24)
(0.87454238 -0.035701533 3.2753422e-23)
(0.90956731 -0.041699519 -1.0034067e-22)
(0.93725949 -0.0095290681 -2.0816022e-22)
(0.93502651 0.053856391 1.328999e-22)
(0.91488272 0.070577767 -1.9977635e-22)
(0.90787765 0.034564436 4.0365791e-23)
(0.93691748 -0.040396753 0)
(0.99490746 -0.076779513 0)
(1.0562316 -0.057386919 0)
(1.0798421 -0.0080240463 0)
(1.06033 0.047574216 0)
(1.0140979 0.063455998 0)
(0.98448572 0.045845625 0)
(0.97879931 0.017429769 0)
(0.98893961 -0.0024505894 0)
(1.0022799 -0.0090634398 0)
(1.011636 -0.0073703286 0)
(1.0155919 -0.0028474553 0)
(1.0153579 0.0010857768 0)
(1.0132839 0.0027339508 0)
(1.0113625 0.0026447695 0)
(1.0102981 0.0017303464 0)
(1.0099698 0.00060439498 0)
(1.0101425 -0.0003040618 0)
(1.0105228 -0.00087561412 0)
(1.010906 -0.0011324345 0)
(1.011186 -0.0011563843 0)
(1.0113243 -0.0010284508 0)
(1.0113181 -0.00081434456 0)
(1.0111836 -0.00056644462 0)
(1.0109472 -0.00032528074 0)
(1.0106434 -0.00012025859 0)
(1.0103114 2.9404509e-05 0)
(1.0099905 0.00011029228 0)
(1.0097229 0.00011680501 0)
(1.0095515 5.4127652e-05 0)
(0.84791714 0.014915835 7.1506815e-24)
(0.84651054 0.0033029891 -5.2451246e-25)
(0.86054403 -0.037444831 0)
(0.88973562 -0.043734799 -2.5740345e-23)
(0.91599489 -0.0091963692 -3.0139174e-23)
(0.91540511 0.059041988 0)
(0.89685833 0.077103734 -1.1392465e-22)
(0.89192971 0.038494891 -5.6153915e-23)
(0.92192439 -0.04633283 0)
(0.9896687 -0.088656837 0)
(1.0532273 -0.070945434 0)
(1.081146 -0.008854974 0)
(1.0746805 0.058403787 0)
(1.0139882 0.077846475 0)
(0.97263416 0.056580901 0)
(0.96680352 0.020429353 0)
(0.98093483 -0.00571307 0)
(0.99895766 -0.014153459 0)
(1.0119281 -0.011926072 0)
(1.0177941 -0.0052999033 0)
(1.0177862 0.00061202113 0)
(1.014884 0.0035897271 0)
(1.0119031 0.0038142305 0)
(1.0101034 0.0026908164 0)
(1.0095009 0.0012016588 0)
(1.0096103 -0.00010816511 0)
(1.0101001 -0.00096113074 0)
(1.0106511 -0.0013878976 0)
(1.0111025 -0.0014953703 0)
(1.0113934 -0.0013928455 0)
(1.0115134 -0.0011654008 0)
(1.0114756 -0.00087734884 0)
(1.0113043 -0.00057753157 0)
(1.0110313 -0.00030311604 0)
(1.0106947 -7.9997558e-05 0)
(1.0103345 7.4381177e-05 0)
(1.0099914 0.00014957929 0)
(1.009708 0.00014325742 0)
(1.0095267 6.3361351e-05 0)
(0.84466366 0.015478322 0)
(0.84135984 0.003912852 0)
(0.84925312 -0.038570917 5.3996141e-25)
(0.87144084 -0.045228543 0)
(0.89465995 -0.0088257976 6.4894843e-24)
(0.89507281 0.064331866 1.4331302e-22)
(0.87932497 0.083242208 1.5703591e-22)
(0.87511414 0.042996927 -1.222102e-22)
(0.90545434 -0.049810398 0)
(0.97745393 -0.10132343 0)
(1.0485157 -0.076113772 0)
(1.0787336 -0.016326638 0)
(1.078683 0.068904633 0)
(1.019335 0.096084792 0)
(0.96200725 0.068981504 0)
(0.95160264 0.023517597 0)
(0.97089406 -0.010094075 0)
(0.994908 -0.021011951 0)
(1.0123494 -0.017724588 0)
(1.0207807 -0.008857355 0)
(1.0212088 -8.8143322e-05 0)
(1.017259 0.0046546842 0)
(1.0128362 0.0055057201 0)
(1.0099377 0.0041108576 0)
(1.0088388 0.0020952487 0)
(1.0088742 0.00027911715 0)
(1.0094663 -0.00097679713 0)
(1.0102183 -0.0016492262 0)
(1.0108803 -0.0018766329 0)
(1.0113574 -0.0018172931 0)
(1.0116326 -0.0015864341 0)
(1.0117188 -0.0012643728 0)
(1.01164 -0.00090874626 0)
(1.0114264 -0.00056376179 0)
(1.0111139 -0.00026228885 0)
(1.0107427 -2.7132595e-05 0)
(1.0103538 0.0001267237 0)
(1.0099884 0.00019204912 0)
(1.0096893 0.00017074112 0)
(1.0094987 7.2572936e-05 0)
(0.83960507 0.0046679144 -4.7150305e-25)
(0.84513049 0.015887336 0)
(0.84062655 -0.039005631 -9.2047625e-24)
(0.85578974 -0.046098117 -2.8719853e-23)
(0.87456897 -0.0083388539 -4.195539e-25)
(0.87556404 0.069096322 -6.5719488e-23)
(0.86240932 0.089005068 7.0168529e-24)
(0.85914939 0.047167609 -8.2167892e-23)
(0.88839067 -0.054300401 1.9521958e-22)
(0.96057882 -0.11217916 0)
(1.0371276 -0.089930834 -1.4614638e-21)
(1.0722829 -0.012939926 0)
(1.0651338 0.07833802 0)
(1.0161275 0.11579245 0)
(0.95385545 0.08438937 0)
(0.93435201 0.026467507 0)
(0.95891683 -0.015863604 0)
(0.98993843 -0.029445424 0)
(1.0129645 -0.025462125 0)
(1.0246714 -0.013397477 0)
(1.0258724 -0.0013394042 0)
(1.0206812 0.0061142719 0)
(1.0142861 0.0078374678 0)
(1.0098408 0.0061894924 0)
(1.0079419 0.0034112504 0)
(1.0078532 0.00091159505 0)
(1.008558 -0.0009130771 0)
(1.0095636 -0.0019110749 0)
(1.0104878 -0.0023053251 0)
(1.011194 -0.0023092357 0)
(1.011657 -0.0020832291 0)
(1.0118946 -0.0017319189 0)
(1.0119345 -0.0013239989 0)
(1.0118075 -0.00090921019 0)
(1.0115475 -0.00052655989 0)
(1.0111933 -0.00020484696 0)
(1.0107863 3.5971462e-05 0)
(1.0103685 0.00018437546 0)
(1.0099812 0.00023668099 0)
(1.0096671 0.00019856567 0)
(1.0094677 8.163519e-05 0)
(0.83523154 -0.038681573 7.5129973e-24)
(0.84165719 0.0056528975 0)
(0.84992956 0.016194207 -1.0781891e-23)
(0.8426347 -0.046400614 2.8705007e-23)
(0.85692258 -0.0076663948 6.8973457e-24)
(0.85781429 0.073237098 2.6992816e-22)
(0.84741034 0.094044361 -2.9767441e-22)
(0.84479883 0.051164923 -6.6253114e-24)
(0.87160351 -0.058768953 5.972917e-23)
(0.94206819 -0.12332414 2.0985841e-23)
(1.0206275 -0.10342528 -1.6086656e-21)
(1.0608982 -0.017606008 1.5336643e-21)
(1.0464741 0.091413836 0)
(0.99674889 0.13392481 0)
(0.9432842 0.1016725 0)
(0.91851996 0.03083823 0)
(0.94403641 -0.023798782 0)
(0.98444374 -0.040117996 0)
(1.0136821 -0.034712734 0)
(1.0296256 -0.019665459 0)
(1.0320516 -0.0029169329 0)
(1.0253968 0.0077968686 0)
(1.0164595 0.011072733 0)
(1.0098252 0.0091136108 0)
(1.0067689 0.0053395459 0)
(1.0064097 0.0018303113 0)
(1.0073075 -0.00069771463 0)
(1.008622 -0.0021851623 0)
(1.0098886 -0.0028041924 0)
(1.0108813 -0.0028855567 0)
(1.0115708 -0.0026667234 0)
(1.0119878 -0.0022868406 0)
(1.012171 -0.0018281128 0)
(1.0121556 -0.001345307 0)
(1.0119751 -0.00088060571 0)
(1.0116656 -0.00046826318 0)
(1.0112682 -0.0001334924 0)
(1.010825 0.00010703845 0)
(1.0103785 0.00024551867 0)
(1.0099699 0.00028221507 0)
(1.0096416 0.00022612244 0)
(1.0094341 9.0432795e-05 0)
(0.8333779 -0.046149494 5.9963504e-24)
(0.83425827 -0.037711776 2.3208794e-23)
(0.84820654 0.0067448501 0)
(0.85819142 0.016281004 -3.3204208e-24)
(0.84228993 -0.0069387625 1.0271787e-24)
(0.84297637 0.076542628 -1.1772475e-22)
(0.83519532 0.098160818 0)
(0.83310179 0.054612568 6.5809561e-24)
(0.8560477 -0.062911271 -7.3813495e-24)
(0.92250464 -0.1346582 -2.0709373e-23)
(1.0009157 -0.11541887 1.7235368e-21)
(1.0462047 -0.029403854 1.6852933e-21)
(1.0316572 0.10353471 0)
(0.97621939 0.15065324 0)
(0.92939646 0.11864172 0)
(0.90462082 0.035883735 0)
(0.92834161 -0.032426016 0)
(0.97768147 -0.052809862 0)
(1.0147533 -0.046470627 0)
(1.0356487 -0.027120613 0)
(1.0399828 -0.0055364354 0)
(1.0317916 0.010118719 0)
(1.0194967 0.015319502 0)
(1.0099415 0.013204458 0)
(1.0052335 0.0080495435 0)
(1.0044229 0.0031617644 0)
(1.0055781 -0.00034910794 0)
(1.0073125 -0.0024749926 0)
(1.0090305 -0.0033865265 0)
(1.0103923 -0.003571021 0)
(1.0113605 -0.0033558741 0)
(1.011988 -0.0029400913 0)
(1.012337 -0.0024274233 0)
(1.0124549 -0.0018768048 0)
(1.0123779 -0.001330777 0)
(1.01214 -0.00082574634 0)
(1.0117792 -0.00039190317 0)
(1.0113376 -5.1204629e-05 0)
(1.0108582 0.00018368204 0)
(1.0103837 0.00030860496 0)
(1.0099548 0.00032765937 0)
(1.0096131 0.00025309102 0)
(1.0093982 9.8914751e-05 0)
(0.83159195 -0.0062131838 -8.946907e-24)
(0.82881494 -0.045479671 -5.2758427e-24)
(0.83829494 -0.036186856 -2.0920354e-23)
(0.85878431 0.0078483301 -9.9073584e-24)
(0.86899937 0.016158015 5.2892732e-23)
(0.83221235 0.079015141 1.0942842e-22)
(0.82666996 0.1012733 4.7028657e-23)
(0.82474565 0.057449006 0)
(0.84258154 -0.066934674 -4.3095277e-24)
(0.90258039 -0.14532758 -3.357681e-22)
(0.97862816 -0.12835747 0)
(1.0274412 -0.0363326 -2.0992805e-21)
(1.0198355 0.1037829 0)
(0.95846088 0.16782056 0)
(0.91564023 0.12905071 0)
(0.89181505 0.04354585 0)
(0.91289373 -0.043535948 0)
(0.97015581 -0.068119332 0)
(1.0159215 -0.059619847 0)
(1.0428934 -0.037054102 0)
(1.0499289 -0.0085082973 0)
(1.0400982 0.012576471 0)
(1.0237035 0.021057126 0)
(1.0101615 0.018680195 0)
(1.0032121 0.011837939 0)
(1.0017413 0.005006822 0)
(1.0031985 0.00015273955 0)
(1.0055356 -0.0027877683 0)
(1.0078504 -0.004122182 0)
(1.0096998 -0.0044118253 0)
(1.0110158 -0.004180975 0)
(1.0118909 -0.0037092946 0)
(1.0124266 -0.0031306287 0)
(1.0126947 -0.002508418 0)
(1.0127406 -0.0018815721 0)
(1.0125979 -0.0012838939 0)
(1.0123002 -0.00074807735 0)
(1.0118869 -0.00030086412 0)
(1.0114008 3.927193e-05 0)
(1.0108858 0.00026374617 0)
(1.010384 0.00037222134 0)
(1.0099359 0.00037248891 0)
(1.0095819 0.00027911995 0)
(1.0093603 0.00010706961 0)
(0.82625278 0.080319797 5.1831471e-24)
(0.82631527 -0.0056283892 6.7755085e-24)
(0.8295369 -0.044513403 1.3280051e-23)
(0.84700012 -0.034141423 1.020266e-23)
(0.87227173 0.0088691126 -3.9797169e-23)
(0.88209518 0.015798139 -3.3070129e-23)
(0.82237607 0.10340845 -1.0408229e-22)
(0.82038571 0.059742025 -5.775093e-23)
(0.83223319 -0.070370525 -5.9453355e-23)
(0.88319675 -0.1549891 3.1475267e-22)
(0.95427271 -0.14056242 -1.9340229e-21)
(1.0055242 -0.045136752 9.1760891e-22)
(0.99805446 0.11086373 0)
(0.94594538 0.18133495 -5.6524747e-22)
(0.89662301 0.14827823 -7.7207947e-22)
(0.87869489 0.043798803 0)
(0.89886689 -0.051098092 0)
(0.96151161 -0.085422263 0)
(1.0174115 -0.076104363 0)
(1.0512659 -0.048042887 0)
(1.0620415 -0.013319021 0)
(1.0508028 0.016108741 0)
(1.0291685 0.028283697 0)
(1.0105097 0.026068206 0)
(1.0005241 0.016867933 0)
(0.99815175 0.0075585086 0)
(0.99997479 0.00080679346 0)
(1.0031508 -0.003180823 0)
(1.0062626 -0.0050530201 0)
(1.0087661 -0.00546707 0)