/*--------------------------------*- C++ -*----------------------------------*\
| =========                 |                                                 |
| \\      /  F ield         | OpenFOAM: The Open Source CFD Toolbox           |
|  \\    /   O peration     | Version:  5.0                                   |
|   \\  /    A nd           | Web:      www.OpenFOAM.org                      |
|    \\/     M anipulation  |                                                 |
\*---------------------------------------------------------------------------*/
FoamFile
{
    version     2.0;
    format      ascii;
    class       volVectorField;
    location    "120";
    object      UMean;
}
// * * * * * * * * * * * * * * * * * * * * * * * * * * * * * * * * * * * * * //

dimensions      [0 1 -1 0 0 0 0];

internalField   nonuniform List<vector> 
9520
(
(1.0054733 -9.8441413e-05 0)
(1.005548 -0.00028846348 0)
(1.0057681 -9.9360009e-05 0)
(1.0056809 -0.00046383971 0)
(1.0058405 -0.00029085734 0)
(1.0058833 -0.00010066818 0)
(1.0058599 -0.00062530097 0)
(1.0059691 -0.00046754346 0)
(1.0059547 -0.00029506961 0)
(1.0060771 -0.00010383358 0)
(1.0060736 -0.00077303654 0)
(1.0061426 -0.00063005811 0)
(1.0060817 -0.00047420435 0)
(1.0061464 -0.0003039767 0)
(1.0062261 -0.00010692587 0)
(1.0063119 -0.00090808796 0)
(1.0063498 -0.00077858342 0)
(1.006253 -0.00063881527 0)
(1.0062701 -0.00048829338 0)
(1.0062943 -0.00031323159 0)
(1.0064004 -0.00011173723 0)
(1.006566 -0.001031402 0)
(1.0065814 -0.00091415672 0)
(1.0064578 -0.00078898943 0)
(1.006437 -0.00065736302 0)
(1.0064156 -0.00050307127 0)
(1.0064667 -0.00032718342 0)
(1.0065596 -0.00011659453 0)
(1.0068283 -0.0011438329 0)
(1.0068289 -0.0010377976 0)
(1.0066868 -0.00092569699 0)
(1.0066368 -0.00081125643 0)
(1.0065791 -0.000676888 0)
(1.0065845 -0.00052534556 0)
(1.0066243 -0.00034146733 0)
(1.0067325 -0.00012286285 0)
(1.0070924 -0.0012471667 0)
(1.0070853 -0.0011506576 0)
(1.0069319 -0.0010497842 0)
(1.0068603 -0.00095092892 0)
(1.0067748 -0.00083460307 0)
(1.0067435 -0.00070658375 0)
(1.0067391 -0.00054827165 0)
(1.0067955 -0.00035986741 0)
(1.0068988 -0.00012927883 0)
(1.0073528 -0.0013408648 0)
(1.0073435 -0.0012538497 0)
(1.0071854 -0.0011620224 0)
(1.0070996 -0.0010772591 0)
(1.0069937 -0.00097713856 0)
(1.0069337 -0.00087069283 0)
(1.0068938 -0.00073724963 0)
(1.006907 -0.00057796291 0)
(1.0069601 -0.00037877742 0)
(1.0070759 -0.00013670427 0)
(1.0076052 -0.0014295978 0)
(1.0075993 -0.001347053 0)
(1.0074415 -0.0012645039 0)
(1.0073479 -0.0011912867 0)
(1.0072282 -0.0011052817 0)
(1.0071465 -0.0010184304 0)
(1.0070786 -0.00090804307 0)
(1.0070569 -0.00077731143 0)
(1.0070684 -0.00060860444 0)
(1.0071358 -0.00040076563 0)
(1.0072496 -0.0001441852 0)
(1.0078463 -0.0015052142 0)
(1.0078479 -0.0014351813 0)
(1.0076952 -0.0013572595 0)
(1.0075992 -0.0012946167 0)
(1.0074716 -0.0012200215 0)
(1.0073743 -0.0011504611 0)
(1.007285 -0.0010612371 0)
(1.0072354 -0.0009573961 0)
(1.0072136 -0.00081889185 0)
(1.0072412 -0.00064453804 0)
(1.0073082 -0.00042298192 0)
(1.0074325 -0.00015226122 0)
(1.0080736 -0.0015881077 0)
(1.0080869 -0.0015119786 0)
(1.0079421 -0.0014436173 0)
(1.0078487 -0.0013872113 0)
(1.007718 -0.0013228212 0)
(1.0076109 -0.0012677479 0)
(1.0075058 -0.0011973322 0)
(1.0074344 -0.0011186067 0)
(1.0073861 -0.0010089954 0)
(1.0073818 -0.00086815628 0)
(1.0074109 -0.00068102236 0)
(1.0074903 -0.00044708624 0)
(1.0076134 -0.00016018829 0)
(1.0082852 -0.0016405969 0)
(1.0083123 -0.0015933197 0)
(1.0081793 -0.0015186251 0)
(1.0080923 -0.0014729153 0)
(1.0079631 -0.0014143352 0)
(1.0078508 -0.0013718222 0)
(1.0077349 -0.001317189 0)
(1.0076468 -0.0012612271 0)
(1.0075775 -0.0011790721 0)
(1.007548 -0.0010708237 0)
(1.0075474 -0.00091854094 0)
(1.0075911 -0.00072098134 0)
(1.0076706 -0.00047082092 0)
(1.0078014 -0.00016828589 0)
(1.0084806 -0.0017333692 0)
(1.008526 -0.0016483439 0)
(1.0084036 -0.0015973301 0)
(1.0083272 -0.0015473878 0)
(1.0082027 -0.0014975413 0)
(1.0080895 -0.0014630485 0)
(1.0079668 -0.0014219919 0)
(1.0078665 -0.0013859261 0)
(1.007781 -0.0013291594 0)
(1.0077314 -0.0012524415 0)
(1.0077076 -0.0011346663 0)
(1.0077243 -0.00097434498 0)
(1.0077701 -0.00076058508 0)
(1.0078589 -0.00049520665 0)
(1.0079877 -0.00017596312 0)
(1.0086571 -0.0017495997 0)
(1.0087195 -0.0017373377 0)
(1.0086148 -0.0016513941 0)
(1.0085502 -0.0016234032 0)
(1.0084342 -0.0015694892 0)
(1.0083234 -0.0015446688 0)
(1.0081977 -0.0015126471 0)
(1.0080887 -0.0014937934 0)
(1.0079906 -0.0014596879 0)
(1.007925 -0.0014127506 0)
(1.0078833 -0.0013290404 0)
(1.0078792 -0.00120623 0)
(1.0079006 -0.001030172 0)
(1.0079584 -0.00080170809 0)
(1.008046 -0.00051844992 0)
(1.0081788 -0.00018336726 0)
(1.0088171 -0.0018680329 0)
(1.0089004 -0.0017575988 0)
(1.0088064 -0.0017364474 0)
(1.0087611 -0.0016768485 0)
(1.0086544 -0.001641269 0)
(1.0085499 -0.0016140093 0)
(1.0084241 -0.001591449 0)
(1.0083093 -0.001585488 0)
(1.0082014 -0.0015713731 0)
(1.0081232 -0.0015518998 0)
(1.0080672 -0.0015010756 0)
(1.0080474 -0.0014159931 0)
(1.0080513 -0.0012786594 0)
(1.0080879 -0.0010888784 0)
(1.0081463 -0.00084126636 0)
(1.0082388 -0.00054105906 0)
(1.0083678 -0.00019004101 0)
(1.0089539 -0.0018392042 0)
(1.0090577 -0.0018746704 0)
(1.0089862 -0.0017558508 0)
(1.008952 -0.0017585164 0)
(1.0088635 -0.0016922684 0)
(1.008766 -0.001681014 0)
(1.0086436 -0.0016568797 0)
(1.008525 -0.0016630363 0)
(1.0084102 -0.0016650847 0)
(1.0083214 -0.001670445 0)
(1.0082536 -0.0016505832 0)
(1.0082214 -0.0016026723 0)
(1.0082129 -0.0015051555 0)
(1.0082356 -0.0013558612 0)
(1.0082758 -0.0011460404 0)
(1.0083416 -0.00088026253 0)
(1.00843 -0.00056161891 0)
(1.0085587 -0.00019600652 0)
(1.0090756 -0.0019932752 0)
(1.0092034 -0.0018436095 0)
(1.0091427 -0.0018679542 0)
(1.0091318 -0.0017799179 0)
(1.0090554 -0.0017679787 0)
(1.0089723 -0.0017280626 0)
(1.0088531 -0.0017173394 0)
(1.0087338 -0.0017254824 0)
(1.0086133 -0.001742498 0)
(1.0085161 -0.0017687374 0)
(1.0084382 -0.001777655 0)
(1.0083956 -0.0017656331 0)
(1.0083778 -0.0017082927 0)
(1.0083919 -0.0016015107 0)
(1.0084222 -0.0014321044 0)
(1.0084735 -0.001203274 0)
(1.0085364 -0.00091622756 0)
(1.0086243 -0.00058024772 0)
(1.0087463 -0.00020093873 0)
(1.0091616 -0.0019157513 0)
(1.0093172 -0.0020029915 0)
(1.0092864 -0.0018370406 0)
(1.0092903 -0.0018884182 0)
(1.0092373 -0.001788527 0)
(1.0091638 -0.0017958481 0)
(1.0090538 -0.0017581001 0)
(1.0089327 -0.0017799284 0)
(1.008809 -0.0018029861 0)
(1.0087041 -0.0018487133 0)
(1.0086178 -0.0018825786 0)
(1.0085657 -0.0019045572 0)
(1.0085401 -0.0018869384 0)
(1.0085485 -0.0018240413 0)
(1.0085748 -0.0016981559 0)
(1.0086208 -0.0015097061 0)
(1.0086722 -0.001256957 0)
(1.0087364 -0.00094945977 0)
(1.008816 -0.00059588426 0)
(1.0089329 -0.00020479955 0)
(1.0092312 -0.0020991732 0)
(1.0094076 -0.0019122816 0)
(1.0093984 -0.0019937315 0)
(1.0094331 -0.0018600118 0)
(1.0093992 -0.0018921154 0)
(1.0093482 -0.0018110786 0)
(1.009241 -0.0018147115 0)
(1.009123 -0.001813932 0)
(1.0089946 -0.0018528272 0)
(1.0088838 -0.0019098095 0)
(1.0087897 -0.0019670422 0)
(1.0087287 -0.0020193291 0)
(1.0086956 -0.002040161 0)
(1.0086994 -0.0020217247 0)
(1.0087249 -0.001942 0)
(1.0087721 -0.0017981485 0)
(1.0088226 -0.0015838674 0)
(1.0088787 -0.0013077242 0)
(1.008935 -0.00097805564 0)
(1.0090079 -0.00060843185 0)
(1.0091148 -0.0002073532 0)
(1.0092341 -0.0019912687 0)
(1.00947 -0.0021130454 0)
(1.0094934 -0.0018998623 0)
(1.009547 -0.0020156048 0)
(1.0095471 -0.0018651996 0)
(1.0095126 -0.0019038346 0)
(1.0094226 -0.0018211828 0)
(1.0093005 -0.0018589043 0)
(1.0091715 -0.0018817834 0)
(1.0090536 -0.0019577009 0)
(1.0089522 -0.0020307335 0)
(1.0088825 -0.0021113095 0)
(1.0088415 -0.002167499 0)
(1.0088402 -0.0021930111 0)
(1.0088658 -0.0021613106 0)
(1.0089176 -0.0020660209 0)
(1.008975 -0.0018955789 0)
(1.0090352 -0.0016555979 0)
(1.0090857 -0.0013526427 0)
(1.0091359 -0.0010019057 0)
(1.0091957 -0.0006171928 0)
(1.0092929 -0.0002085717 0)
(1.0092185 -0.0021699714 0)
(1.0094729 -0.0019801482 0)
(1.0095484 -0.0021050202 0)
(1.0096403 -0.0019270124 0)
(1.0096688 -0.0020203313 0)
(1.0096669 -0.0018698251 0)
(1.0095837 -0.0018979725 0)
(1.0094717 -0.0018550461 0)
(1.0093354 -0.0019173862 0)
(1.0092144 -0.0019843214 0)
(1.0091047 -0.0020789239 0)
(1.0090259 -0.0021802546 0)
(1.0089761 -0.0022694243 0)
(1.0089681 -0.0023367419 0)
(1.0089926 -0.0023537831 0)
(1.0090501 -0.0023103851 0)
(1.0091186 -0.0021891902 0)
(1.0091919 -0.0019917905 0)
(1.0092508 -0.0017208919 0)
(1.009298 -0.0013916825 0)
(1.009334 -0.0010197046 0)
(1.0093806 -0.00062198241 0)
(1.0094646 -0.00020829297 0)
(1.0089935 -0.0020706942 0)
(1.0094617 -0.0021997228 0)
(1.0095523 -0.0019655794 0)
(1.0096946 -0.0021352607 0)
(1.0097697 -0.0019329834 0)
(1.009797 -0.0020141868 0)
(1.0097392 -0.0018506963 0)
(1.0096213 -0.0019137218 0)
(1.0094907 -0.0019065522 0)
(1.0093612 -0.0020137946 0)
(1.0092479 -0.0021049061 0)
(1.0091583 -0.0022310079 0)
(1.0090988 -0.0023459183 0)
(1.0090819 -0.002452572 0)
(1.0091027 -0.0025175297 0)
(1.0091642 -0.0025282033 0)
(1.0092452 -0.002461196 0)
(1.0093369 -0.0023132407 0)
(1.009415 -0.0020818 0)
(1.0094752 -0.0017797869 0)
(1.0095093 -0.0014227356 0)
(1.0095313 -0.0010311887 0)
(1.0095599 -0.00062240573 0)
(1.00963 -0.00020650326 0)
(1.0082175 -0.0022045382 0)
(1.0092447 -0.0020533223 0)
(1.0095235 -0.00218016 0)
(1.0096946 -0.0019980316 0)
(1.0098364 -0.0021520733 0)
(1.0099123 -0.0019161093 0)
(1.0098701 -0.0019730983 0)
(1.0097657 -0.001850977 0)
(1.0096239 -0.0019516648 0)
(1.009499 -0.0020000219 0)
(1.009378 -0.0021303279 0)
(1.0092815 -0.0022579043 0)
(1.0092094 -0.0024008374 0)
(1.0091814 -0.00254029 0)
(1.009195 -0.0026512957 0)
(1.0092571 -0.0027167081 0)
(1.009349 -0.0027077926 0)
(1.0094609 -0.0026159223 0)
(1.0095649 -0.0024321695 0)
(1.0096507 -0.0021655821 0)
(1.0097014 -0.0018292671 0)
(1.0097229 -0.0014454755 0)
(1.0097241 -0.0010355977 0)
(1.0097336 -0.00061836835 0)
(1.0097875 -0.00020317535 0)
(1.0063355 -0.002164663 0)
(1.0084341 -0.0022615146 0)
(1.0093245 -0.0020342411 0)
(1.0096642 -0.0022352743 0)
(1.009849 -0.0020123071 0)
(1.0099947 -0.0021292651 0)
(1.0099909 -0.0018547587 0)
(1.0098837 -0.0019491309 0)
(1.0097504 -0.0018798064 0)
(1.0096144 -0.0020367951 0)
(1.0094998 -0.002116035 0)
(1.0093931 -0.0022799471 0)
(1.0093101 -0.0024297251 0)
(1.0092668 -0.0026023247 0)
(1.0092696 -0.0027541134 0)
(1.0093274 -0.0028737324 0)
(1.0094263 -0.0029253591 0)
(1.0095571 -0.0028953118 0)
(1.0096899 -0.0027675647 0)
(1.0098098 -0.0025459835 0)
(1.0098918 -0.0022392456 0)
(1.0099335 -0.0018688999 0)
(1.0099337 -0.0014586088 0)
(1.0099129 -0.0010327196 0)
(1.0099 -0.00060974172 0)
(1.0099366 -0.00019832404 0)
(1.0035068 -0.0022008575 0)
(1.0065257 -0.0021551441 0)
(1.008493 -0.0022109408 0)
(1.0094704 -0.0020845199 0)
(1.0098244 -0.0022762591 0)
(1.0100301 -0.0019701903 0)
(1.0100776 -0.0020409854 0)
(1.0099907 -0.0018078178 0)
(1.0098472 -0.0019619634 0)
(1.009722 -0.0019632197 0)
(1.0096006 -0.0021473326 0)
(1.0094979 -0.0022642337 0)
(1.0094002 -0.0024487067 0)
(1.0093404 -0.0026351735 0)
(1.0093271 -0.0028275663 0)
(1.0093757 -0.00299743 0)
(1.0094758 -0.0031107377 0)
(1.0096213 -0.0031468687 0)
(1.0097823 -0.0030827671 0)
(1.0099403 -0.0029162546 0)
(1.0100642 -0.0026497647 0)
(1.010143 -0.0023020878 0)
(1.0101654 -0.0018967034 0)
(1.0101432 -0.0014617834 0)
(1.0100955 -0.0010222578 0)
(1.0100585 -0.00059654367 0)
(1.0100766 -0.00019198362 0)
(1.0000494 -0.0022062592 0)
(1.003618 -0.0022763456 0)
(1.0065607 -0.0021409433 0)
(1.0086659 -0.0022840302 0)
(1.0096476 -0.0021210094 0)
(1.0100205 -0.0022421828 0)
(1.010124 -0.0018468885 0)
(1.0100588 -0.0019627027 0)
(1.0099297 -0.0018084679 0)
(1.0097981 -0.0020398026 0)
(1.0096953 -0.0020762548 0)
(1.0095853 -0.0022874032 0)
(1.0094849 -0.0024296265 0)
(1.009403 -0.0026522199 0)
(1.0093698 -0.0028682393 0)
(1.0094025 -0.0030884365 0)
(1.009498 -0.0032613941 0)
(1.0096518 -0.0033664903 0)
(1.0098371 -0.0033724047 0)
(1.0100334 -0.0032705873 0)
(1.010205 -0.0030559556 0)
(1.0103336 -0.00274259 0)
(1.0103977 -0.0023514087 0)
(1.0103995 -0.0019121174 0)
(1.0103479 -0.0014544058 0)
(1.0102714 -0.0010041672 0)
(1.0102083 -0.00057887137 0)
(1.0102068 -0.00018420478 0)
(0.99554099 -0.0021776826 0)
(1.0001087 -0.002231364 0)
(1.0036344 -0.0022146307 0)
(1.0067173 -0.0022386111 0)
(1.0089298 -0.0023540202 0)
(1.0098696 -0.002057942 0)
(1.0101228 -0.0020899917 0)
(1.0100864 -0.0017319935 0)
(1.0099681 -0.0019467256 0)
(1.0098582 -0.0018872742 0)
(1.0097599 -0.0021525007 0)
(1.0096703 -0.0022148125 0)
(1.0095563 -0.0024406909 0)
(1.0094603 -0.0026289301 0)
(1.0093992 -0.0028869987 0)
(1.0094104 -0.0031432341 0)
(1.0094939 -0.0033764343 0)
(1.0096489 -0.0035506131 0)
(1.0098519 -0.0036314695 0)
(1.0100829 -0.0036027116 0)
(1.0103037 -0.0034515374 0)
(1.01049 -0.003185575 0)
(1.0106109 -0.0028208321 0)
(1.0106588 -0.002386243 0)
(1.010631 -0.0019140839 0)
(1.010548 -0.0014362892 0)
(1.0104393 -0.00097851797 0)
(1.0103486 -0.00055683959 0)
(1.0103269 -0.00017506658 0)
(0.99049077 -0.002224053 0)
(0.99555724 -0.0022534744 0)
(1.0000877 -0.0022096147 0)
(1.0037795 -0.00235755 0)
(1.0070128 -0.0023048775 0)
(1.0092375 -0.0023132396 0)
(1.0099846 -0.0018528523 0)
(1.0100536 -0.0019408502 0)
(1.0099609 -0.0016980031 0)
(1.0098713 -0.0020289167 0)
(1.0098119 -0.0020075221 0)
(1.0097302 -0.0022843174 0)
(1.009629 -0.0023600221 0)
(1.0095063 -0.0026250186 0)
(1.0094213 -0.0028626186 0)
(1.009401 -0.0031705318 0)
(1.0094655 -0.0034529644 0)
(1.0096138 -0.0036973275 0)
(1.0098266 -0.0038552866 0)
(1.0100858 -0.0039063735 0)
(1.0103531 -0.0038294861 0)
(1.0106001 -0.0036244488 0)
(1.0107882 -0.0033004046 0)
(1.0108998 -0.0028831038 0)
(1.0109205 -0.002404995 0)
(1.010861 -0.0019021755 0)
(1.0107412 -0.001407392 0)
(1.0105984 -0.00094546974 0)
(1.0104789 -0.00053067762 0)
(1.0104367 -0.000164658 0)
(0.98432219 -0.0021528838 -1.5252496e-26)
(0.99050143 -0.0022871797 0)
(0.99556738 -0.0021979423 0)
(1.0002241 -0.0023772102 0)
(1.0041013 -0.002487729 0)
(1.0073945 -0.0022121147 0)
(1.0094063 -0.0020767872 0)
(1.0098796 -0.0016448997 0)
(1.0098807 -0.0018938203 0)
(1.0098365 -0.0017860621 0)
(1.0098192 -0.0021620842 0)
(1.0097855 -0.0021381376 0)
(1.0096823 -0.0024108238 0)
(1.0095557 -0.0025305665 0)
(1.0094312 -0.0028463859 0)
(1.0093804 -0.0031518488 0)
(1.009415 -0.0034974405 0)
(1.0095489 -0.0038038723 0)
(1.0097628 -0.0040408795 0)
(1.0100416 -0.0041762027 0)
(1.010349 -0.0041826202 0)
(1.0106552 -0.0040514822 0)
(1.0109156 -0.0037834277 0)
(1.011104 -0.0033986283 0)
(1.0111936 -0.0029270608 0)
(1.0111846 -0.0024067897 0)
(1.0110856 -0.0018761273 0)
(1.0109269 -0.0013678086 0)
(1.0107479 -0.00090533992 0)
(1.0105989 -0.00050063706 0)
(1.0105358 -0.00015307794 0)
(0.97630963 -0.0021878337 -8.4295394e-25)
(0.9842326 -0.0022442435 1.5029813e-26)
(0.99050789 -0.0022714491 0)
(0.99573312 -0.0024086183 0)
(1.0005613 -0.0025115291 0)
(1.0045105 -0.0024459411 0)
(1.0076865 -0.0018896821 0)
(1.0093034 -0.0018337602 0)
(1.0096488 -0.001572441 0)
(1.009724 -0.0020011627 0)
(1.0097835 -0.0019367172 0)
(1.0098034 -0.0022949425 0)
(1.00974 -0.0022482166 0)
(1.009589 -0.0025522097 0)
(1.0094429 -0.0027399755 0)
(1.0093442 -0.0031314814 0)
(1.0093482 -0.0034942137 0)
(1.0094565 -0.0038744576 0)
(1.0096632 -0.0041848174 0)
(1.0099518 -0.0044077216 0)
(1.0102906 -0.0045039026 0)
(1.0106499 -0.0044583623 0)
(1.0109828 -0.0042616817 0)
(1.0112554 -0.0039262651 0)
(1.01143 -0.0034769423 0)
(1.0114947 -0.002951258 0)
(1.0114459 -0.0023910488 0)
(1.011305 -0.0018357953 0)
(1.0111037 -0.0013178715 0)
(1.0108872 -0.00085849323 0)
(1.0107082 -0.00046702601 0)
(1.0106243 -0.00014045351 0)
(0.96770528 -0.0020571209 8.4417595e-25)
(0.97606586 -0.0022954219 -8.6184511e-25)
(0.9842008 -0.0022113448 0)
(0.99071059 -0.0025178964 0)
(0.99611416 -0.002584562 0)
(1.0009568 -0.0024333141 0)
(1.004814 -0.0021120019 0)
(1.0076859 -0.0015600096 0)
(1.0090533 -0.0017625853 0)
(1.0094563 -0.001692851 0)
(1.009675 -0.002185211 0)
(1.00979 -0.0020716446 0)
(1.0097686 -0.0023848234 0)
(1.0096326 -0.0023586446 0)
(1.009438 -0.0027318636 0)
(1.0093055 -0.0030218553 0)
(1.0092613 -0.0034814266 0)
(1.0093423 -0.0038965221 0)
(1.0095304 -0.004290083 0)
(1.0098192 -0.0045970045 0)
(1.0101791 -0.0047878746 0)
(1.0105823 -0.0048370934 0)
(1.0109829 -0.0047260306 0)
(1.0113419 -0.004457501 0)
(1.0116119 -0.0040485067 0)
(1.0117693 -0.0035332726 0)
(1.0117968 -0.0029546335 0)
(1.0117052 -0.0023571729 0)
(1.0115165 -0.0017815002 0)
(1.0112708 -0.0012579721 0)
(1.0110158 -0.000805393 0)
(1.0108068 -0.00043015934 0)
(1.0107022 -0.00012692561 0)
(0.95874168 -0.0020104309 0)
(0.96720552 -0.0021744454 8.6081664e-25)
(0.97598266 -0.0022859731 0)
(0.9843731 -0.0025008643 0)
(0.99114189 -0.0027047299 0)
(0.99650994 -0.0025153008 0)
(1.0011748 -0.0020314465 0)
(1.0048238 -0.0017356125 0)
(1.0074948 -0.0014527141 0)
(1.0088561 -0.0019349095 0)
(1.0094166 -0.0019086077 0)
(1.0097164 -0.0023395775 0)
(1.0097799 -0.0021325211 0)
(1.0096514 -0.0024537675 0)
(1.0094436 -0.0025074864 0)
(1.0092464 -0.0029941474 0)
(1.0091667 -0.0033820418 0)
(1.0092034 -0.0039027056 0)
(1.0093707 -0.0043464275 0)
(1.0096479 -0.0047447942 0)
(1.0100173 -0.0050294495 0)
(1.0104534 -0.0051800922 0)
(1.0109126 -0.0051669275 0)
(1.0113546 -0.0049823665 0)
(1.011725 -0.0046332453 0)
(1.0119887 -0.0041474243 0)
(1.0121145 -0.0035657706 0)
(1.0121011 -0.0029358985 0)
(1.0119583 -0.0023054007 0)
(1.0117196 -0.0017134795 0)
(1.0114274 -0.0011887115 0)
(1.0111334 -0.00074654798 0)
(1.0108944 -0.00039037392 0)
(1.0107697 -0.00011253049 0)
(0.94937465 -0.0018013547 1.4137876e-27)
(0.95783461 -0.0021379278 0)
(0.96700285 -0.0021725557 1.7106202e-24)
(0.97610231 -0.0026268156 0)
(0.98478241 -0.0027123013 0)
(0.99158898 -0.0026015504 0)
(0.99667665 -0.0020809674 0)
(1.0011134 -0.0015994401 0)
(1.0046667 -0.0016183717 0)
(1.0073809 -0.0016481098 0)
(1.0088615 -0.0022184628 0)
(1.0095065 -0.0020701552 0)
(1.0097439 -0.0023823819 0)
(1.0096631 -0.0021452139 0)
(1.0094219 -0.0025574873 0)
(1.0091929 -0.0027524557 0)
(1.0090466 -0.0033514258 0)
(1.0090524 -0.0038262812 0)
(1.009182 -0.0043814251 0)
(1.0094445 -0.0048429804 0)
(1.0098098 -0.0052272856 0)
(1.010266 -0.0054813909 0)
(1.0107722 -0.0055754084 0)
(1.0112888 -0.0054903909 0)
(1.0117585 -0.0052208564 0)
(1.0121365 -0.0047855494 0)
(1.0123779 -0.0042200885 0)
(1.0124676 -0.0035723826 0)
(1.0124019 -0.0028951334 0)
(1.0122052 -0.0022355841 0)
(1.0119124 -0.0016324741 0)
(1.0115727 -0.001110728 0)
(1.0112397 -0.0006825021 0)
(1.0109713 -0.00034803234 0)
(1.010827 -9.7473142e-05 0)
(0.93990588 -0.0016341996 3.9278099e-24)
(0.94799099 -0.0019351152 -3.3564803e-24)
(0.95745434 -0.002161837 -1.7075877e-24)
(0.96696223 -0.0025486928 -3.0947642e-24)
(0.97647976 -0.0028803491 -4.5036434e-24)
(0.98520436 -0.0025873211 0)
(0.99180196 -0.0021061638 0)
(0.99655927 -0.0016157154 0)
(1.0009387 -0.0014836289 0)
(1.0046589 -0.001881645 0)
(1.0075237 -0.0019686985 0)
(1.0090213 -0.0024253255 0)
(1.00959 -0.0020692282 0)
(1.0096339 -0.002341521 0)
(1.0093953 -0.002188604 0)
(1.009105 -0.0027722653 0)
(1.0089262 -0.0031145806 0)
(1.0088716 -0.0038080671 0)
(1.0089777 -0.0043378947 0)
(1.0092082 -0.0049143324 0)
(1.0095652 -0.0053741623 0)
(1.0100249 -0.0057373086 0)
(1.0105644 -0.005943517 0)
(1.0111433 -0.0059707189 0)
(1.0117056 -0.0057996286 0)
(1.0121995 -0.0054371235 0)
(1.0125682 -0.0049101317 0)
(1.0127818 -0.00426361 0)
(1.0128213 -0.0035526761 0)
(1.0126998 -0.0028314456 0)
(1.0124426 -0.0021485989 0)
(1.0120944 -0.0015390926 0)
(1.0117063 -0.0010247915 0)
(1.0113346 -0.00061384444 0)
(1.0110375 -0.00030350547 0)
(1.0108744 -8.1818925e-05 0)
(0.93047685 -0.0013376647 -6.184667e-24)
(0.9380098 -0.0017557693 6.4021214e-24)
(0.94739654 -0.0019671273 0)
(0.95713538 -0.002582454 1.2311798e-23)
(0.96719079 -0.0028233122 4.4749799e-24)
(0.97688583 -0.0027746017 7.9266469e-24)
(0.98537795 -0.0020363428 3.9957885e-24)
(0.99175077 -0.0016113612 0)
(0.99636141 -0.0015114756 0)
(1.000949 -0.001811719 0)
(1.005009 -0.0022989353 0)
(1.0078584 -0.002178435 0)
(1.0091752 -0.0024110339 0)
(1.0095005 -0.0019370079 0)
(1.0093242 -0.0023237454 0)
(1.0090085 -0.002361798 0)
(1.008763 -0.0031289073 0)
(1.0086863 -0.0035942256 0)
(1.0087416 -0.0043430389 0)
(1.0089532 -0.0049104746 0)
(1.0092835 -0.0054884227 0)
(1.0097396 -0.0059399946 0)
(1.0102933 -0.0062655295 0)
(1.0109205 -0.0064133143 0)
(1.0115633 -0.0063574584 0)
(1.0121686 -0.0060899965 0)
(1.01267 -0.0056257607 0)
(1.0130228 -0.0050032381 0)
(1.0131921 -0.0042766433 0)
(1.0131766 -0.0035049535 0)
(1.0129897 -0.0027459451 0)
(1.01267 -0.0020447993 0)
(1.0122641 -0.0014343544 0)
(1.0118278 -0.00093167577 0)
(1.0114182 -0.00054119611 0)
(1.0110934 -0.00025714931 0)
(1.0109122 -6.5697769e-05 0)
(0.92093605 -0.0010571627 -2.678451e-25)
(0.92800625 -0.0014314322 -1.9517035e-24)
(0.93716854 -0.0018046043 2.5515377e-24)
(0.94670837 -0.0024237 -5.4330816e-24)
(0.95711818 -0.0028967754 -9.5596373e-24)
(0.96745445 -0.002695626 7.1080969e-24)
(0.97706898 -0.0022165472 2.8155074e-23)
(0.98528436 -0.0014772711 -4.5226102e-24)
(0.9916436 -0.0015368526 0)
(0.9963866 -0.001927833 0)
(1.0013809 -0.0022816422 0)
(1.0056113 -0.002586166 0)
(1.0081771 -0.0021029167 0)
(1.0091114 -0.0022068092 0)
(1.0091532 -0.0018191857 0)
(1.008858 -0.0024595779 0)
(1.0085868 -0.0027103716 0)
(1.0084534 -0.0036239714 0)
(1.0084991 -0.0041648848 0)
(1.0086666 -0.0049448913 0)
(1.0089799 -0.0055288336 0)
(1.009413 -0.0061036423 0)
(1.0099689 -0.0065328439 0)
(1.0106238 -0.0068105307 0)
(1.0113326 -0.0068822726 0)
(1.0120388 -0.0067306347 0)
(1.0126714 -0.0063544022 0)
(1.0131729 -0.0057817784 0)
(1.0134916 -0.0050621711 0)
(1.01361 -0.0042566102 0)
(1.0135269 -0.0034301678 0)
(1.0132718 -0.0026382296 0)
(1.0128852 -0.0019255076 0)
(1.0124213 -0.0013191465 0)
(1.0119371 -0.00083226199 0)
(1.0114905 -0.00046518894 0)
(1.0111393 -0.00020934429 0)
(1.010941 -4.925723e-05 0)
(0.91122986 -0.00064223299 2.5287718e-24)
(0.91783141 -0.0011081781 6.8380049e-25)
(0.92688426 -0.001496399 0)
(0.93607392 -0.0022833412 -3.8082725e-24)
(0.94636266 -0.0027665066 -1.785731e-24)
(0.95712567 -0.0027724174 0)
(0.96752073 -0.0020834788 -2.1857131e-23)
(0.97701595 -0.001655046 -2.3019689e-23)
(0.98515264 -0.0013869701 0)
(0.99180333 -0.0020374656 0)
(0.99687738 -0.002534267 0)
(1.0021285 -0.0025592851 0)
(1.0062222 -0.0024985126 0)
(1.0082138 -0.0017806035 0)
(1.0087325 -0.0020118076 0)
(1.0086098 -0.001884329 0)
(1.0083462 -0.002811569 0)
(1.0082061 -0.0032252632 0)
(1.0082077 -0.0042208832 0)
(1.0083739 -0.0048070803 0)
(1.0086452 -0.0055953382 0)
(1.0090599 -0.0061926543 0)
(1.009597 -0.0067532878 0)
(1.0102621 -0.0071517919 0)
(1.0110168 -0.0073636619 0)
(1.0118089 -0.0073453249 0)
(1.0125648 -0.007081888 0)
(1.0132175 -0.0065870228 0)
(1.0136995 -0.0059010261 0)
(1.0139756 -0.0050833993 0)
(1.0140275 -0.0042038324 0)
(1.0138724 -0.0033271379 0)
(1.0135419 -0.0025102436 0)
(1.0130876 -0.0017915135 0)
(1.0125651 -0.0011946459 0)
(1.012034 -0.00072741015 0)
(1.0115518 -0.0003864455 0)
(1.0111754 -0.00016045507 0)
(1.0109611 -3.2661843e-05 0)
(0.90165099 -0.00024422519 0)
(0.90743873 -0.00062240986 0)
(0.91636428 -0.0011792171 -7.0580676e-25)
(0.92532649 -0.0019872635 0)
(0.9353519 -0.0026474525 -9.3251687e-25)
(0.94600398 -0.0026387049 1.1449225e-23)
(0.956971 -0.0021408216 5.4709909e-23)
(0.96739118 -0.0014686824 4.3756111e-23)
(0.9769506 -0.0015841226 0)
(0.98531774 -0.0019514321 0)
(0.99244196 -0.0027179214 0)
(0.99771243 -0.0029498028 0)
(1.0029451 -0.0023846305 0)
(1.0065265 -0.0020702206 0)
(1.0078407 -0.0014556361 0)
(1.0081192 -0.0020371373 0)
(1.008014 -0.0022141812 0)
(1.0078878 -0.0033609281 0)
(1.0079053 -0.0038565112 0)
(1.0080346 -0.0048915538 0)
(1.0083066 -0.0054986851 0)
(1.008675 -0.0062933988 0)
(1.0091921 -0.0068973984 0)
(1.0098435 -0.0074400543 0)
(1.0106223 -0.0077902014 0)
(1.0114815 -0.0079207795 0)
(1.0123468 -0.0077929466 0)
(1.013146 -0.0074043192 0)
(1.0137987 -0.0067816717 0)
(1.0142509 -0.0059786708 0)
(1.0144658 -0.0050660541 0)
(1.0144448 -0.0041163233 0)
(1.0142074 -0.003198076 0)
(1.0138 -0.0023620746 0)
(1.0132757 -0.0016444277 0)
(1.0126954 -0.0010619221 0)
(1.0121186 -0.00061804179 0)
(1.0116025 -0.00030555302 0)
(1.0112024 -0.00011080413 0)
(1.0109731 -1.5830862e-05 0)
(0.89708035 -0.0001353575 -9.2661741e-26)
(0.90161884 0.00032524788 0)
(0.90558243 -0.00069593909 -1.7639324e-24)
(0.91426897 -0.0016688634 -3.1778133e-24)
(0.92417426 -0.00237148 -2.5537151e-24)
(0.93458096 -0.0025098221 4.4802634e-24)
(0.9455167 -0.0019833457 2.0654518e-24)
(0.95664862 -0.001505389 5.1644078e-24)
(0.96728078 -0.0013916164 -5.742758e-23)
(0.97719924 -0.0022233219 0)
(0.98598074 -0.0027264392 -3.6153367e-23)
(0.99341951 -0.0031415718 0)
(0.99861704 -0.0028241955 0)
(1.0035269 -0.0017866936 0)
(1.006297 -0.0016352959 0)
(1.0071661 -0.0013894643 0)
(1.007454 -0.0023853666 0)
(1.0074891 -0.0027772224 0)
(1.0075301 -0.0040410652 0)
(1.0076914 -0.0045652404 0)
(1.0079257 -0.0056075434 0)
(1.0082881 -0.0062361051 0)
(1.0087517 -0.0070369701 0)
(1.0093832 -0.0076485592 0)
(1.0101584 -0.0081585131 0)
(1.0110604 -0.0084443234 0)
(1.0120178 -0.0084720767 0)
(1.0129522 -0.0082173944 0)
(1.0137753 -0.007689769 0)
(1.0144162 -0.0069322591 0)
(1.0148175 -0.0060123161 0)
(1.0149622 -0.0050073008 0)
(1.0148544 -0.003996043 0)
(1.0145318 -0.0030423493 0)
(1.0140428 -0.0021962535 0)
(1.013449 -0.0014853496 0)
(1.0128118 -0.00092223134 0)
(1.0121911 -0.00050500735 0)
(1.0116429 -0.00022309991 0)
(1.0112207 -6.0676528e-05 0)
(1.0109775 1.0106242e-06 0)
(0.89484039 -0.00021254622 1.5388937e-24)
(0.89709727 0.00056577722 0)
(0.91116378 0.00071420791 2.5324923e-24)
(0.90289625 -0.0011727334 3.1752151e-24)
(0.91262231 -0.0020582572 9.8435297e-25)
(0.92292512 -0.0022211828 2.3913487e-23)
(0.93371701 -0.0018258381 -4.5568195e-23)
(0.94488103 -0.0013274892 -2.0563648e-23)
(0.95636488 -0.0014391502 -5.7621581e-23)
(0.96750877 -0.0020990172 -2.0152368e-23)
(0.97796116 -0.0031086336 -6.4653655e-23)
(0.98699239 -0.0032162945 3.7466479e-23)
(0.99441934 -0.0029627062 0)
(0.99923682 -0.0021647267 0)
(1.0035693 -0.0011558877 0)
(1.0056561 -0.0015166707 0)
(1.0064238 -0.0017171685 0)
(1.0068883 -0.0030154334 0)
(1.0070897 -0.0034869099 0)
(1.0072775 -0.0047975309 0)
(1.0075501 -0.0053151265 0)
(1.0078629 -0.0063629257 0)
(1.0083083 -0.0070202927 0)
(1.0088801 -0.0078359179 0)
(1.00964 -0.0084452882 0)
(1.0105549 -0.0089077372 0)
(1.0115804 -0.0091046962 0)
(1.0126339 -0.0090090128 0)
(1.01362 -0.0086085889 0)
(1.0144545 -0.0079305386 0)
(1.0150602 -0.0070342204 0)
(1.0153987 -0.0059979355 0)
(1.0154558 -0.0049082191 0)
(1.0152563 -0.0038417255 0)
(1.0148408 -0.0028631887 0)
(1.0142702 -0.0020132714 0)
(1.0136068 -0.0013160469 0)
(1.0129144 -0.0007766951 0)
(1.0122519 -0.00038919166 0)
(1.0116735 -0.00013961797 0)
(1.0112308 -1.0388344e-05 0)
(1.0109748 1.7827469e-05 0)
(0.89153376 -0.00066263408 8.5185209e-25)
(0.89484686 0.00048975767 2.1548435e-24)
(0.90745874 0.0010447284 0)
(0.92083411 0.0011264261 -2.9200794e-25)
(0.90070155 -0.0015566049 -1.2734061e-24)
(0.910804 -0.0018879817 -1.3349018e-23)
(0.92161942 -0.0015138178 0)
(0.93272476 -0.0011409734 2.0428725e-23)
(0.94429307 -0.001280402 -2.9708451e-23)
(0.95642021 -0.0022219171 1.9888199e-23)
(0.96826641 -0.0030811575 9.3472605e-23)
(0.97910087 -0.0037300037 6.7019486e-23)
(0.98802794 -0.0029938033 0)
(0.99506389 -0.0022008581 0)
(0.99937583 -0.0014207562 0)
(1.0031564 -0.00089484893 0)
(1.0048894 -0.0018826007 0)
(1.0058329 -0.00236548 0)
(1.0064782 -0.0038097929 0)
(1.0068179 -0.0042700725 0)
(1.0071099 -0.0055830051 0)
(1.0074534 -0.0060943594 0)
(1.0078283 -0.0071608444 0)
(1.0083675 -0.0078668327 0)
(1.009068 -0.0086943339 0)
(1.0099785 -0.0092890392 0)
(1.0110408 -0.0096784336 0)
(1.0121916 -0.0097626854 0)
(1.0133274 -0.0095197786 0)
(1.0143529 -0.0089569661 0)
(1.0151741 -0.0081196416 0)
(1.0157298 -0.0070821925 0)
(1.0159846 -0.0059352702 0)
(1.015946 -0.004766942 0)
(1.0156437 -0.0036567655 0)
(1.0151344 -0.0026604551 0)
(1.0144802 -0.0018160194 0)
(1.0137489 -0.0011377591 0)
(1.0130033 -0.00062654789 0)
(1.0123012 -0.00027138474 0)
(1.0116947 -5.5630869e-05 0)
(1.0112332 3.9809474e-05 0)
(1.0109656 3.4484802e-05 0)
(0.88882354 -0.0010349946 -1.3158706e-24)
(0.89153464 7.8216663e-05 -8.629361e-25)
(0.90565362 0.00097479228 -1.8304118e-24)
(0.9178144 0.0015095715 -7.1983246e-25)
(0.93030974 0.0013939357 -6.0795202e-24)
(0.8982888 -0.0013606165 1.3625801e-23)
(0.90898371 -0.0011533517 1.0224891e-23)
(0.92019767 -0.00080553712 0)
(0.93178014 -0.0010962435 3.0931218e-23)
(0.94401697 -0.0021462608 -9.8088802e-24)
(0.9570015 -0.003310662 0)
(0.96943648 -0.0037869714 -1.12658e-22)
(0.98029976 -0.0036064794 0)
(0.98869978 -0.0021100945 0)
(0.99525307 -0.0013749771 0)
(0.99913415 -0.0010609261 0)
(1.0025546 -0.0012304012 0)
(1.0042773 -0.002639969 0)
(1.0054507 -0.0031838267 0)
(1.0062192 -0.0046760129 0)
(1.0066469 -0.0050692813 0)
(1.0069869 -0.0063770046 0)
(1.0073715 -0.0069080357 0)
(1.0078159 -0.008024127 0)
(1.0084753 -0.0087874474 0)
(1.0093344 -0.0096192859 0)
(1.010412 -0.010172987 0)
(1.0116294 -0.010462601 0)
(1.0128959 -0.010404863 0)
(1.0141027 -0.0099926157 0)
(1.0151425 -0.0092528899 0)
(1.0159328 -0.0082499071 0)
(1.0164142 -0.0070739088 0)
(1.0165733 -0.0058215791 0)
(1.0164245 -0.0045863985 0)
(1.0160165 -0.0034405974 0)
(1.0154089 -0.0024380786 0)
(1.0146728 -0.0016052308 0)
(1.013875 -0.00095229518 0)
(1.0130787 -0.00047286978 0)
(1.0123395 -0.00015238667 0)
(1.0117071 2.8400152e-05 0)
(1.0112285 8.9658988e-05 0)
(1.0109503 5.0954914e-05 0)
(0.88577328 -0.00081338246 8.0199159e-25)
(0.88876766 -0.00027016041 1.3169644e-24)
(0.90291012 0.00059855536 3.4285226e-24)
(0.91647554 0.0014592073 7.4327525e-25)
(0.92793614 0.0018131666 -1.8867908e-24)
(0.93963792 0.0016820614 3.835703e-24)
(0.89592579 -0.00059620891 -2.223452e-23)
(0.90705564 -0.000415287 -1.3671326e-23)
(0.91882098 -0.00076476927 -3.990236e-23)