/*--------------------------------*- C++ -*----------------------------------*\
| =========                 |                                                 |
| \\      /  F ield         | OpenFOAM: The Open Source CFD Toolbox           |
|  \\    /   O peration     | Version:  5.0                                   |
|   \\  /    A nd           | Web:      www.OpenFOAM.org                      |
|    \\/     M anipulation  |                                                 |
\*---------------------------------------------------------------------------*/
FoamFile
{
    version     2.0;
    format      ascii;
    class       volSymmTensorField;
    location    "120";
    object      UPrime2Mean;
}
// * * * * * * * * * * * * * * * * * * * * * * * * * * * * * * * * * * * * * //

dimensions      [0 2 -2 0 0 0 0];

internalField   nonuniform List<symmTensor> 
9520
(
(2.1145528e-05 2.9714354e-07 0 1.4487664e-08 0 0)
(2.1718105e-05 8.7335531e-07 0 1.2552178e-07 0 0)
(1.9444683e-05 2.9702091e-07 0 1.5058242e-08 0 0)
(2.276868e-05 1.4155465e-06 0 3.3066725e-07 0 0)
(2.0020798e-05 8.7574791e-07 0 1.3057265e-07 0 0)
(1.869086e-05 3.0268101e-07 0 1.5462573e-08 0 0)
(2.4239106e-05 1.9246308e-06 0 6.1547764e-07 0 0)
(2.1082731e-05 1.4241101e-06 0 3.438297e-07 0 0)
(1.926659e-05 8.9204119e-07 0 1.3381696e-07 0 0)
(1.7568367e-05 3.0811864e-07 0 1.6253997e-08 0 0)
(2.6078441e-05 2.4006775e-06 0 9.6865734e-07 0 0)
(2.2575797e-05 1.945083e-06 0 6.399057e-07 0 0)
(2.0326894e-05 1.4539886e-06 0 3.5247146e-07 0 0)
(1.8138899e-05 9.1083452e-07 0 1.4094332e-07 0 0)
(1.6666189e-05 3.1373069e-07 0 1.7090182e-08 0 0)
(2.8240751e-05 2.8411853e-06 0 1.3818224e-06 0 0)
(2.4453463e-05 2.4395324e-06 0 1.0069933e-06 0 0)
(2.1819382e-05 1.9921391e-06 0 6.5600963e-07 0 0)
(1.9195955e-05 1.4898132e-06 0 3.7145727e-07 0 0)
(1.7234593e-05 9.2808469e-07 0 1.4803317e-07 0 0)
(1.5657317e-05 3.1945522e-07 0 1.8203622e-08 0 0)
(3.0679938e-05 3.2430935e-06 0 1.8484446e-06 0 0)
(2.6674272e-05 2.9052012e-06 0 1.436222e-06 0 0)
(2.3699975e-05 2.5081867e-06 0 1.032244e-06 0 0)
(2.0689139e-05 2.0507954e-06 0 6.9165813e-07 0 0)
(1.8286038e-05 1.5222384e-06 0 3.9024694e-07 0 0)
(1.6215613e-05 9.4724409e-07 0 1.5787714e-07 0 0)
(1.4757828e-05 3.2304483e-07 0 1.9327812e-08 0 0)
(3.3349025e-05 3.6039494e-06 0 2.3645329e-06 0 0)
(2.9196035e-05 3.3385394e-06 0 1.9208189e-06 0 0)
(2.5929657e-05 3.0002378e-06 0 1.4717153e-06 0 0)
(2.2577322e-05 2.5967139e-06 0 1.0888768e-06 0 0)
(1.9773351e-05 2.1038173e-06 0 7.2703703e-07 0 0)
(1.7251901e-05 1.5593164e-06 0 4.1670092e-07 0 0)
(1.5307877e-05 9.5943021e-07 0 1.6767776e-07 0 0)
(1.3809761e-05 3.2580399e-07 0 2.0666841e-08 0 0)
(3.6200069e-05 3.9175054e-06 0 2.9264172e-06 0 0)
(3.1977695e-05 3.7355218e-06 0 2.4564024e-06 0 0)
(2.8468121e-05 3.4653622e-06 0 1.966832e-06 0 0)
(2.4824146e-05 3.1263664e-06 0 1.5533268e-06 0 0)
(2.1658214e-05 2.6771303e-06 0 1.1453676e-06 0 0)
(1.8722419e-05 2.1654753e-06 0 7.7737876e-07 0 0)
(1.6329165e-05 1.5841854e-06 0 4.4302606e-07 0 0)
(1.4345718e-05 9.6951499e-07 0 1.7947488e-07 0 0)
(1.2950761e-05 3.2551994e-07 0 2.196092e-08 0 0)
(3.9185971e-05 4.1873856e-06 0 3.5344533e-06 0 0)
(3.4965924e-05 4.091011e-06 0 3.0392779e-06 0 0)
(3.1269507e-05 3.9003616e-06 0 2.5125721e-06 0 0)
(2.7392422e-05 3.6368705e-06 0 2.0771396e-06 0 0)
(2.3907461e-05 3.2414899e-06 0 1.6349311e-06 0 0)
(2.0592743e-05 2.7715794e-06 0 1.226486e-06 0 0)
(1.7780626e-05 2.2092788e-06 0 8.2765556e-07 0 0)
(1.5342788e-05 1.6062586e-06 0 4.7494701e-07 0 0)
(1.3472931e-05 9.7026737e-07 0 1.9085292e-07 0 0)
(1.2075015e-05 3.2350631e-07 0 2.3386571e-08 0 0)
(4.2260305e-05 4.3972589e-06 0 4.1862815e-06 0 0)
(3.8124337e-05 4.4076379e-06 0 3.6696986e-06 0 0)
(3.4290801e-05 4.2984964e-06 0 3.1058833e-06 0 0)
(3.024352e-05 4.1242621e-06 0 2.654717e-06 0 0)
(2.6486293e-05 3.7945237e-06 0 2.1875069e-06 0 0)
(2.2833178e-05 3.3780788e-06 0 1.7533766e-06 0 0)
(1.9630568e-05 2.8421623e-06 0 1.3080124e-06 0 0)
(1.6763332e-05 2.2501482e-06 0 8.8900219e-07 0 0)
(1.4445421e-05 1.6122136e-06 0 5.0582259e-07 0 0)
(1.2579449e-05 9.6578146e-07 0 2.0344255e-07 0 0)
(1.1281252e-05 3.1856553e-07 0 2.4714403e-08 0 0)
(4.5383107e-05 4.5856107e-06 0 4.89043e-06 0 0)
(4.1403579e-05 4.666557e-06 0 4.3448891e-06 0 0)
(3.7489538e-05 4.6603342e-06 0 3.7456446e-06 0 0)
(3.3333793e-05 4.5811171e-06 0 3.280113e-06 0 0)
(2.9356735e-05 4.3320501e-06 0 2.7972791e-06 0 0)
(2.5411977e-05 3.983367e-06 0 2.3495028e-06 0 0)
(2.1851978e-05 3.4844334e-06 0 1.8733004e-06 0 0)
(1.8579506e-05 2.9103448e-06 0 1.4080643e-06 0 0)
(1.5833336e-05 2.2674038e-06 0 9.4866559e-07 0 0)
(1.3520303e-05 1.6094708e-06 0 5.4019622e-07 0 0)
(1.1768388e-05 9.5232919e-07 0 2.1517312e-07 0 0)
(1.0494508e-05 3.1151567e-07 0 2.6080606e-08 0 0)
(4.8516328e-05 4.6646803e-06 0 5.6411298e-06 0 0)
(4.4769378e-05 4.8945714e-06 0 5.0722445e-06 0 0)
(4.0816679e-05 4.9734927e-06 0 4.4288888e-06 0 0)
(3.6617934e-05 5.0071984e-06 0 3.9543339e-06 0 0)
(3.2475426e-05 4.8475179e-06 0 3.4593537e-06 0 0)
(2.829588e-05 4.5834306e-06 0 3.0082178e-06 0 0)
(2.4416725e-05 4.1352315e-06 0 2.5148952e-06 0 0)
(2.0767932e-05 3.5897178e-06 0 2.0213065e-06 0 0)
(1.7611658e-05 2.9465736e-06 0 1.506066e-06 0 0)
(1.4866056e-05 2.2724226e-06 0 1.015519e-06 0 0)
(1.2678134e-05 1.5910971e-06 0 5.7231234e-07 0 0)
(1.0961845e-05 9.324215e-07 0 2.2731998e-07 0 0)
(9.7852945e-06 3.0201521e-07 0 2.72827e-08 0 0)
(5.1633124e-05 4.8114005e-06 0 6.4590331e-06 0 0)
(4.817849e-05 5.0302363e-06 0 5.8497661e-06 0 0)
(4.4232725e-05 5.2582777e-06 0 5.1637487e-06 0 0)
(4.005405e-05 5.3881372e-06 0 4.6738598e-06 0 0)
(3.5805579e-05 5.3385861e-06 0 4.1720249e-06 0 0)
(3.1446463e-05 5.1709825e-06 0 3.7231658e-06 0 0)
(2.7293082e-05 4.7907332e-06 0 3.2259656e-06 0 0)
(2.330346e-05 4.2884346e-06 0 2.7199381e-06 0 0)
(1.9759677e-05 3.6538794e-06 0 2.1674535e-06 0 0)
(1.6595179e-05 2.9669655e-06 0 1.6165583e-06 0 0)
(1.3981581e-05 2.2541983e-06 0 1.0783278e-06 0 0)
(1.1835606e-05 1.5615788e-06 0 6.0584242e-07 0 0)
(1.0233877e-05 9.0502146e-07 0 2.3804402e-07 0 0)
(9.0998127e-06 2.9043564e-07 0 2.8427213e-08 0 0)
(5.4705534e-05 4.69264e-06 0 7.3327293e-06 0 0)
(5.1639563e-05 5.2088738e-06 0 6.7009173e-06 0 0)
(4.76961e-05 5.4549835e-06 0 5.9427769e-06 0 0)
(4.3602237e-05 5.7417349e-06 0 5.4469229e-06 0 0)
(3.9299693e-05 5.7929155e-06 0 4.9311687e-06 0 0)
(3.4822166e-05 5.7425491e-06 0 4.4934561e-06 0 0)
(3.0444042e-05 5.4449058e-06 0 4.0007135e-06 0 0)
(2.615858e-05 5.0033797e-06 0 3.4966141e-06 0 0)
(2.2254957e-05 4.3904024e-06 0 2.9242228e-06 0 0)
(1.8690112e-05 3.6986191e-06 0 2.3332208e-06 0 0)
(1.5659681e-05 2.9552791e-06 0 1.7212239e-06 0 0)
(1.3090096e-05 2.2195322e-06 0 1.1444814e-06 0 0)
(1.1073456e-05 1.5188264e-06 0 6.3558318e-07 0 0)
(9.5282942e-06 8.7118241e-07 0 2.4834295e-07 0 0)
(8.4870839e-06 2.7708061e-07 0 2.934835e-08 0 0)
(5.771514e-05 4.8811378e-06 0 8.3044297e-06 0 0)
(5.5050727e-05 5.1625216e-06 0 7.6193391e-06 0 0)
(5.1191945e-05 5.6834138e-06 0 6.7925184e-06 0 0)
(4.7224968e-05 6.0197605e-06 0 6.2683403e-06 0 0)
(4.2921302e-05 6.2207114e-06 0 5.7441313e-06 0 0)
(3.8385226e-05 6.2848138e-06 0 5.3142053e-06 0 0)
(3.3836493e-05 6.0928185e-06 0 4.836117e-06 0 0)
(2.9300789e-05 5.7288951e-06 0 4.344878e-06 0 0)
(2.5071149e-05 5.153585e-06 0 3.7690957e-06 0 0)
(2.1131337e-05 4.4696671e-06 0 3.1572492e-06 0 0)
(1.7697426e-05 3.7011144e-06 0 2.4917943e-06 0 0)
(1.4709235e-05 2.9211791e-06 0 1.8323404e-06 0 0)
(1.2280639e-05 2.164798e-06 0 1.2036067e-06 0 0)
(1.0330956e-05 1.4646516e-06 0 6.6448921e-07 0 0)
(8.8971759e-06 8.3185745e-07 0 2.566696e-07 0 0)
(7.9088048e-06 2.6206593e-07 0 3.0133712e-08 0 0)
(6.0664645e-05 4.5022891e-06 0 9.3706018e-06 0 0)
(5.8501332e-05 5.3659362e-06 0 8.6507747e-06 0 0)
(5.4644002e-05 5.7041199e-06 0 7.7071465e-06 0 0)
(5.0901725e-05 6.3165421e-06 0 7.1662605e-06 0 0)
(4.6629844e-05 6.5803428e-06 0 6.6071816e-06 0 0)
(4.2097291e-05 6.806324e-06 0 6.1931226e-06 0 0)
(3.7429679e-05 6.7250073e-06 0 5.7284168e-06 0 0)
(3.269175e-05 6.4592824e-06 0 5.2617104e-06 0 0)
(2.8176188e-05 5.9387572e-06 0 4.6959294e-06 0 0)
(2.3895818e-05 5.2784097e-06 0 4.0812206e-06 0 0)
(2.007787e-05 4.4949628e-06 0 3.3824998e-06 0 0)
(1.6680845e-05 3.6746141e-06 0 2.6613676e-06 0 0)
(1.3841474e-05 2.8587059e-06 0 1.9327209e-06 0 0)
(1.1487249e-05 2.0926726e-06 0 1.2618057e-06 0 0)
(9.666069e-06 1.4006134e-06 0 6.8807129e-07 0 0)
(8.3000859e-06 7.8722554e-07 0 2.638409e-07 0 0)
(7.3969271e-06 2.4610635e-07 0 3.0664857e-08 0 0)
(6.3523199e-05 4.7849109e-06 0 1.0532975e-05 0 0)
(6.1890959e-05 5.0370496e-06 0 9.7937775e-06 0 0)
(5.8149922e-05 5.943031e-06 0 8.7418413e-06 0 0)
(5.4537552e-05 6.4160713e-06 0 8.1301904e-06 0 0)
(5.0411013e-05 6.9508742e-06 0 7.5526995e-06 0 0)
(4.5920872e-05 7.2687058e-06 0 7.1263602e-06 0 0)
(4.1189602e-05 7.3445834e-06 0 6.6836571e-06 0 0)
(3.629529e-05 7.1862906e-06 0 6.243393e-06 0 0)
(3.1540105e-05 6.7405257e-06 0 5.6995267e-06 0 0)
(2.6955704e-05 6.1204986e-06 0 5.0979907e-06 0 0)
(2.2779709e-05 5.3357285e-06 0 4.3863123e-06 0 0)
(1.8990705e-05 4.4843354e-06 0 3.6251513e-06 0 0)
(1.5745998e-05 3.6096464e-06 0 2.8165697e-06 0 0)
(1.2985606e-05 2.7717473e-06 0 2.0327017e-06 0 0)
(1.0774897e-05 2.0051974e-06 0 1.3099406e-06 0 0)
(9.0343216e-06 1.3268379e-06 0 7.088022e-07 0 0)
(7.7715307e-06 7.3959122e-07 0 2.687431e-07 0 0)
(6.9244523e-06 2.2921209e-07 0 3.1012985e-08 0 0)
(6.6327406e-05 4.0843246e-06 0 1.1926775e-05 0 0)
(6.5431641e-05 5.3631582e-06 0 1.1128952e-05 0 0)
(6.1602095e-05 5.6932923e-06 0 9.8988019e-06 0 0)
(5.8235102e-05 6.6912594e-06 0 9.215895e-06 0 0)
(5.4208952e-05 7.1439387e-06 0 8.5679643e-06 0 0)
(4.9850051e-05 7.7369117e-06 0 8.1461169e-06 0 0)
(4.5077363e-05 7.9197781e-06 0 7.7005993e-06 0 0)
(4.0078388e-05 7.9104973e-06 0 7.2946851e-06 0 0)
(3.5120683e-05 7.5500771e-06 0 6.7759672e-06 0 0)
(3.0277367e-05 6.9906433e-06 0 6.2028065e-06 0 0)
(2.5776351e-05 6.2199106e-06 0 5.4966041e-06 0 0)
(2.1620843e-05 5.3504481e-06 0 4.7173346e-06 0 0)
(1.7982386e-05 4.4231796e-06 0 3.8502464e-06 0 0)
(1.4818308e-05 3.5120647e-06 0 2.9727814e-06 0 0)
(1.2213805e-05 2.6623757e-06 0 2.1168369e-06 0 0)
(1.0094996e-05 1.9023843e-06 0 1.353214e-06 0 0)
(8.4751997e-06 1.2474484e-06 0 7.2330134e-07 0 0)
(7.2828758e-06 6.8880407e-07 0 2.7205148e-07 0 0)
(6.5096643e-06 2.122068e-07 0 3.1108781e-08 0 0)
(6.8914994e-05 4.5043548e-06 0 1.3389367e-05 0 0)
(6.8878517e-05 4.6246036e-06 0 1.2769886e-05 0 0)
(6.5184431e-05 6.0313718e-06 0 1.1252893e-05 0 0)
(6.1940668e-05 6.5251828e-06 0 1.0444707e-05 0 0)
(5.8104628e-05 7.4768984e-06 0 9.7258216e-06 0 0)
(5.384841e-05 8.0463252e-06 0 9.2416398e-06 0 0)
(4.9096822e-05 8.5025144e-06 0 8.8112345e-06 0 0)
(4.4001046e-05 8.6046862e-06 0 8.4153184e-06 0 0)
(3.8884995e-05 8.3668217e-06 0 7.9293004e-06 0 0)
(3.3821839e-05 7.878285e-06 0 7.3893092e-06 0 0)
(2.9040236e-05 7.1427697e-06 0 6.7073449e-06 0 0)
(2.4548536e-05 6.270277e-06 0 5.9313853e-06 0 0)
(2.0535011e-05 5.3003832e-06 0 5.0287086e-06 0 0)
(1.697582e-05 4.3202978e-06 0 4.0790925e-06 0 0)
(1.3976779e-05 3.3828949e-06 0 3.1067602e-06 0 0)
(1.1473878e-05 2.5306325e-06 0 2.1940496e-06 0 0)
(9.4926105e-06 1.7904037e-06 0 1.384485e-06 0 0)
(7.9566098e-06 1.161876e-06 0 7.3369378e-07 0 0)
(6.8544866e-06 6.3767224e-07 0 2.7312919e-07 0 0)
(6.1346386e-06 1.9512479e-07 0 3.1003716e-08 0 0)
(7.1443654e-05 3.3983154e-06 0 1.5316154e-05 0 0)
(7.2510458e-05 5.1350198e-06 0 1.4656332e-05 0 0)
(6.8704362e-05 5.3709585e-06 0 1.2930633e-05 0 0)
(6.5760415e-05 6.8589936e-06 0 1.1929758e-05 0 0)
(6.2064877e-05 7.3878957e-06 0 1.1049209e-05 0 0)
(5.8012391e-05 8.4861686e-06 0 1.0503706e-05 0 0)
(5.321727e-05 8.9557382e-06 0 1.0014585e-05 0 0)
(4.8070296e-05 9.3104863e-06 0 9.6383713e-06 0 0)
(4.279688e-05 9.1667757e-06 0 9.1578289e-06 0 0)
(3.7554847e-05 8.7818485e-06 0 8.6603508e-06 0 0)
(3.253279e-05 8.0932132e-06 0 8.0113265e-06 0 0)
(2.7746289e-05 7.238872e-06 0 7.2613402e-06 0 0)
(2.3383501e-05 6.2398281e-06 0 6.3465396e-06 0 0)
(1.9445069e-05 5.1989378e-06 0 5.3482975e-06 0 0)
(1.605604e-05 4.1743274e-06 0 4.2791185e-06 0 0)
(1.316663e-05 3.222884e-06 0 3.2319457e-06 0 0)
(1.0816921e-05 2.3847334e-06 0 2.2518784e-06 0 0)
(8.9321723e-06 1.6678545e-06 0 1.4081754e-06 0 0)
(7.5029992e-06 1.0754201e-06 0 7.3789836e-07 0 0)
(6.4666085e-06 5.8597438e-07 0 2.7248269e-07 0 0)
(5.8073759e-06 1.7869282e-07 0 3.0683379e-08 0 0)
(7.3397035e-05 3.9153715e-06 0 1.736031e-05 0 0)
(7.6309645e-05 3.7869184e-06 0 1.7309462e-05 0 0)
(7.2578581e-05 5.8815163e-06 0 1.4994457e-05 0 0)
(6.9674654e-05 6.2647348e-06 0 1.3808403e-05 0 0)
(6.6221287e-05 7.7304345e-06 0 1.2685804e-05 0 0)
(6.2310533e-05 8.532443e-06 0 1.1959622e-05 0 0)
(5.7554233e-05 9.5330139e-06 0 1.1415436e-05 0 0)
(5.2261059e-05 9.9101292e-06 0 1.0967297e-05 0 0)
(4.6858357e-05 9.9807674e-06 0 1.0494701e-05 0 0)
(4.144843e-05 9.6794028e-06 0 1.0012285e-05 0 0)
(3.6221686e-05 9.0680216e-06 0 9.4096296e-06 0 0)
(3.1182436e-05 8.2459465e-06 0 8.6993772e-06 0 0)
(2.6505156e-05 7.2374947e-06 0 7.7981396e-06 0 0)
(2.2208721e-05 6.1477636e-06 0 6.7763234e-06 0 0)
(1.8440467e-05 5.0402605e-06 0 5.6326964e-06 0 0)
(1.516699e-05 3.9875134e-06 0 4.469059e-06 0 0)
(1.2444579e-05 3.0415662e-06 0 3.3290622e-06 0 0)
(1.0204106e-05 2.2223508e-06 0 2.2979481e-06 0 0)
(8.4427746e-06 1.543292e-06 0 1.419729e-06 0 0)
(7.0914363e-06 9.8720032e-07 0 7.3755516e-07 0 0)
(6.128918e-06 5.3621236e-07 0 2.6986463e-07 0 0)
(5.51626e-06 1.6294322e-07 0 3.017249e-08 0 0)
(7.5263803e-05 2.3789491e-06 0 1.990484e-05 0 0)
(7.9990133e-05 4.5217073e-06 0 2.028857e-05 0 0)
(7.6691317e-05 4.5109472e-06 0 1.7815781e-05 0 0)
(7.4013171e-05 6.6797159e-06 0 1.623264e-05 0 0)
(7.0682298e-05 7.1568552e-06 0 1.4800927e-05 0 0)
(6.6974674e-05 8.9750657e-06 0 1.3808607e-05 0 0)
(6.2076758e-05 9.754007e-06 0 1.3058087e-05 0 0)
(5.6683619e-05 1.0625186e-05 0 1.2523493e-05 0 0)
(5.1046161e-05 1.070874e-05 0 1.1945229e-05 0 0)
(4.5497746e-05 1.0591808e-05 0 1.1477771e-05 0 0)
(4.0083023e-05 1.0044924e-05 0 1.0896631e-05 0 0)
(3.482814e-05 9.2870723e-06 0 1.0245581e-05 0 0)
(2.987296e-05 8.2856059e-06 0 9.3761828e-06 0 0)
(2.5245829e-05 7.1638034e-06 0 8.3585188e-06 0 0)
(2.111445e-05 5.9818628e-06 0 7.1652349e-06 0 0)
(1.7465289e-05 4.8292334e-06 0 5.906679e-06 0 0)
(1.4370615e-05 3.7697365e-06 0 4.6213464e-06 0 0)
(1.1770282e-05 2.836468e-06 0 3.4099125e-06 0 0)
(9.6692957e-06 2.0556495e-06 0 2.3239165e-06 0 0)
(7.9982956e-06 1.4146324e-06 0 1.4226606e-06 0 0)
(6.7348264e-06 9.0222251e-07 0 7.3169413e-07 0 0)
(5.828345e-06 4.8830304e-07 0 2.6565285e-07 0 0)
(5.2625704e-06 1.4835956e-07 0 2.9498686e-08 0 0)
(7.4430746e-05 2.6217438e-06 0 2.3058386e-05 0 0)
(8.4194557e-05 2.1947489e-06 0 2.4561966e-05 0 0)
(8.1135609e-05 5.1985685e-06 0 2.1498035e-05 0 0)
(7.8920271e-05 5.3057381e-06 0 1.9697327e-05 0 0)
(7.5780704e-05 7.477684e-06 0 1.7708768e-05 0 0)
(7.2175122e-05 8.5349921e-06 0 1.626342e-05 0 0)
(6.7123892e-05 1.0354679e-05 0 1.5201207e-05 0 0)
(6.1329383e-05 1.101661e-05 0 1.4373857e-05 0 0)
(5.5459764e-05 1.1534438e-05 0 1.3643753e-05 0 0)
(4.967102e-05 1.1428601e-05 0 1.3062472e-05 0 0)
(4.4112033e-05 1.1040154e-05 0 1.2507714e-05 0 0)
(3.8661598e-05 1.0338762e-05 0 1.1892899e-05 0 0)
(3.3463178e-05 9.378434e-06 0 1.1081229e-05 0 0)
(2.8535257e-05 8.241619e-06 0 1.0089122e-05 0 0)
(2.4060008e-05 6.9976156e-06 0 8.8734265e-06 0 0)
(2.0047772e-05 5.7504343e-06 0 7.544575e-06 0 0)
(1.658674e-05 4.5747995e-06 0 6.1328562e-06 0 0)
(1.3626472e-05 3.5190484e-06 0 4.7526597e-06 0 0)
(1.1181021e-05 2.6227139e-06 0 3.4606685e-06 0 0)
(9.1839333e-06 1.881203e-06 0 2.3359891e-06 0 0)
(7.6150861e-06 1.2903717e-06 0 1.4145868e-06 0 0)
(6.4172609e-06 8.1966021e-07 0 7.214812e-07 0 0)
(5.5674002e-06 4.4392768e-07 0 2.5990769e-07 0 0)
(5.0391138e-06 1.3497498e-07 0 2.8682986e-08 0 0)
(6.8294888e-05 -2.3982969e-06 0 2.629928e-05 0 0)
(8.6004356e-05 3.0737003e-06 0 2.970951e-05 0 0)
(8.6502926e-05 2.6915581e-06 0 2.6716276e-05 0 0)
(8.4564443e-05 5.7778597e-06 0 2.4489905e-05 0 0)
(8.2014939e-05 5.9476297e-06 0 2.193085e-05 0 0)
(7.8433161e-05 8.9308122e-06 0 1.9774176e-05 0 0)
(7.2895648e-05 1.0146654e-05 0 1.8149757e-05 0 0)
(6.6593023e-05 1.1753976e-05 0 1.6836589e-05 0 0)
(6.013281e-05 1.2065942e-05 0 1.5670354e-05 0 0)
(5.407865e-05 1.2341083e-05 0 1.4911057e-05 0 0)
(4.8290658e-05 1.1970781e-05 0 1.4249096e-05 0 0)
(4.2686396e-05 1.1414205e-05 0 1.3679042e-05 0 0)
(3.725716e-05 1.0495361e-05 0 1.2907513e-05 0 0)
(3.2056585e-05 9.3751411e-06 0 1.196934e-05 0 0)
(2.7258035e-05 8.0841191e-06 0 1.0753403e-05 0 0)
(2.2897353e-05 6.7509502e-06 0 9.3807428e-06 0 0)
(1.9080009e-05 5.4602764e-06 0 7.8656877e-06 0 0)
(1.5765051e-05 4.2762539e-06 0 6.3337554e-06 0 0)
(1.2974903e-05 3.2531744e-06 0 4.8425094e-06 0 0)
(1.0647999e-05 2.3962544e-06 0 3.4913291e-06 0 0)
(8.7673487e-06 1.711692e-06 0 2.3294217e-06 0 0)
(7.2743423e-06 1.1683077e-06 0 1.3980181e-06 0 0)
(6.1434977e-06 7.432461e-07 0 7.0682421e-07 0 0)
(5.3377467e-06 4.0306474e-07 0 2.5286635e-07 0 0)
(4.8437667e-06 1.2298778e-07 0 2.7747381e-08 0 0)
(6.0889875e-05 -1.0125073e-05 0 3.0632232e-05 0 0)
(8.3900735e-05 -5.0654372e-06 0 3.5968274e-05 0 0)
(9.0033609e-05 3.6507651e-06 0 3.3764081e-05 0 0)
(9.1951497e-05 2.9579522e-06 0 3.1460323e-05 0 0)
(8.9625058e-05 6.1290723e-06 0 2.8174917e-05 0 0)
(8.6439384e-05 7.4685937e-06 0 2.5003771e-05 0 0)
(8.0109134e-05 1.0729639e-05 0 2.2477792e-05 0 0)
(7.2758027e-05 1.1722401e-05 0 2.0309644e-05 0 0)
(6.5496896e-05 1.290866e-05 0 1.8403004e-05 0 0)
(5.8782465e-05 1.2982659e-05 0 1.7121127e-05 0 0)
(5.2739192e-05 1.2954238e-05 0 1.6275421e-05 0 0)
(4.6910645e-05 1.244212e-05 0 1.5615383e-05 0 0)
(4.1265229e-05 1.1644954e-05 0 1.489472e-05 0 0)
(3.5795743e-05 1.0548843e-05 0 1.3996894e-05 0 0)
(3.0691764e-05 9.2363373e-06 0 1.2806656e-05 0 0)
(2.5996436e-05 7.8288423e-06 0 1.1412344e-05 0 0)
(2.1834512e-05 6.4273448e-06 0 9.8194613e-06 0 0)
(1.8174049e-05 5.1125785e-06 0 8.158204e-06 0 0)
(1.5044433e-05 3.953421e-06 0 6.4807997e-06 0 0)
(1.2388043e-05 2.9676592e-06 0 4.9050793e-06 0 0)
(1.0191848e-05 2.1739067e-06 0 3.4933736e-06 0 0)
(8.3986701e-06 1.5432244e-06 0 2.3086665e-06 0 0)
(6.9832867e-06 1.0553512e-06 0 1.372327e-06 0 0)
(5.9029236e-06 6.7236194e-07 0 6.885424e-07 0 0)
(5.1378052e-06 3.6652186e-07 0 2.4473581e-07 0 0)
(4.6718792e-06 1.1241699e-07 0 2.671518e-08 0 0)
(7.8912248e-05 -2.2201103e-05 0 3.4506496e-05 0 0)
(8.1368236e-05 -1.4841531e-05 0 4.4040616e-05 0 0)
(9.0202971e-05 -5.3969361e-06 0 4.2783286e-05 0 0)
(9.8048558e-05 3.997233e-06 0 4.152634e-05 0 0)
(0.00010007505 2.6322417e-06 0 3.7396125e-05 0 0)
(9.6878681e-05 7.6584853e-06 0 3.2978749e-05 0 0)
(8.9615863e-05 9.5609147e-06 0 2.9176561e-05 0 0)
(8.0712252e-05 1.2370718e-05 0 2.5504279e-05 0 0)
(7.1947655e-05 1.3016472e-05 0 2.2307422e-05 0 0)
(6.4244213e-05 1.3894438e-05 0 2.0137611e-05 0 0)
(5.7552162e-05 1.3675404e-05 0 1.8707472e-05 0 0)
(5.1467782e-05 1.3509962e-05 0 1.7863954e-05 0 0)
(4.5521554e-05 1.277186e-05 0 1.70634e-05 0 0)
(3.9764649e-05 1.1766246e-05 0 1.6213514e-05 0 0)
(3.4347311e-05 1.0440746e-05 0 1.5035781e-05 0 0)
(2.9330536e-05 8.9807314e-06 0 1.3639671e-05 0 0)
(2.4832714e-05 7.4756046e-06 0 1.1991918e-05 0 0)
(2.0837681e-05 6.0305859e-06 0 1.022756e-05 0 0)
(1.7378389e-05 4.728798e-06 0 8.3842146e-06 0 0)
(1.4397972e-05 3.6016328e-06 0 6.5930433e-06 0 0)
(1.1887436e-05 2.6838637e-06 0 4.9270492e-06 0 0)
(9.7919944e-06 1.9505011e-06 0 3.4739576e-06 0 0)
(8.0868463e-06 1.3869015e-06 0 2.2719896e-06 0 0)
(6.7286429e-06 9.4950214e-07 0 1.3392696e-06 0 0)
(5.6952721e-06 6.0911284e-07 0 6.6705608e-07 0 0)
(4.9622913e-06 3.342981e-07 0 2.3573231e-07 0 0)
(4.5203368e-06 1.0330306e-07 0 2.5611645e-08 0 0)
(0.00013546335 -3.2668993e-05 0 3.9870194e-05 0 0)
(0.00010338348 -3.3076892e-05 0 5.2947917e-05 0 0)
(9.1287865e-05 -1.7395273e-05 0 5.4527123e-05 0 0)
(0.00010198896 -6.2289225e-06 0 5.4731222e-05 0 0)
(0.00011026158 3.4616178e-06 0 5.1344763e-05 0 0)
(0.00011146914 3.8512603e-06 0 4.5014997e-05 0 0)
(0.0001026727 9.9211591e-06 0 3.9543444e-05 0 0)
(9.156478e-05 1.1285132e-05 0 3.380453e-05 0 0)
(8.0567278e-05 1.3721165e-05 0 2.8255157e-05 0 0)
(7.0967705e-05 1.4105424e-05 0 2.450456e-05 0 0)
(6.3240123e-05 1.4602825e-05 0 2.2065117e-05 0 0)
(5.6522231e-05 1.4337816e-05 0 2.0568429e-05 0 0)
(5.018162e-05 1.3949252e-05 0 1.9590857e-05 0 0)
(4.4014602e-05 1.2985649e-05 0 1.8653609e-05 0 0)
(3.8237756e-05 1.1696827e-05 0 1.7483867e-05 0 0)
(3.2886127e-05 1.0193445e-05 0 1.6067073e-05 0 0)
(2.8060221e-05 8.602339e-06 0 1.438245e-05 0 0)
(2.373913e-05 7.0314082e-06 0 1.2540183e-05 0 0)
(1.9961992e-05 5.5829658e-06 0 1.0557084e-05 0 0)
(1.6667459e-05 4.3039107e-06 0 8.5682831e-06 0 0)
(1.3849309e-05 3.2470376e-06 0 6.6509487e-06 0 0)
(1.1454e-05 2.3952063e-06 0 4.9185701e-06 0 0)
(9.4567742e-06 1.7416896e-06 0 3.4293094e-06 0 0)
(7.8166379e-06 1.238824e-06 0 2.2224797e-06 0 0)
(6.5117079e-06 8.5538981e-07 0 1.2994516e-06 0 0)
(5.5137304e-06 5.5313596e-07 0 6.4302227e-07 0 0)
(4.8080915e-06 3.0657427e-07 0 2.260591e-07 0 0)
(4.3857822e-06 9.5609744e-08 0 2.4461868e-08 0 0)
(0.0002290216 -4.5570996e-05 0 4.4314911e-05 0 0)
(0.000166532 -4.7530234e-05 0 6.4609991e-05 0 0)
(0.00011791642 -4.0013777e-05 0 6.9003891e-05 0 0)
(0.00010808817 -2.1189218e-05 0 7.2266637e-05 0 0)
(0.0001201783 -8.3240502e-06 0 7.0332942e-05 0 0)
(0.00012792489 4.7270102e-06 0 6.3696395e-05 0 0)
(0.00012153432 6.2815283e-06 0 5.5696336e-05 0 0)
(0.00010714215 1.1387685e-05 0 4.6717976e-05 0 0)
(9.2821241e-05 1.2744664e-05 0 3.7929807e-05 0 0)
(8.0206524e-05 1.4865006e-05 0 3.1313621e-05 0 0)
(7.0424364e-05 1.4812599e-05 0 2.6984911e-05 0 0)
(6.265752e-05 1.5320167e-05 0 2.4308415e-05 0 0)
(5.5480673e-05 1.4942448e-05 0 2.2649241e-05 0 0)
(4.8713325e-05 1.4271667e-05 0 2.1514826e-05 0 0)
(4.2419138e-05 1.2970836e-05 0 2.0197926e-05 0 0)
(3.6674418e-05 1.1463898e-05 0 1.8734145e-05 0 0)
(3.1506298e-05 9.7980986e-06 0 1.6993418e-05 0 0)
(2.6863453e-05 8.114697e-06 0 1.5094639e-05 0 0)
(2.2777531e-05 6.5177644e-06 0 1.2999257e-05 0 0)
(1.9182398e-05 5.0793181e-06 0 1.0839344e-05 0 0)
(1.6067993e-05 3.8689803e-06 0 8.6833739e-06 0 0)
(1.3380636e-05 2.8816993e-06 0 6.6681146e-06 0 0)
(1.109438e-05 2.1228945e-06 0 4.872992e-06 0 0)
(9.171698e-06 1.5419285e-06 0 3.3643544e-06 0 0)
(7.5901821e-06 1.1073395e-06 0 2.1607929e-06 0 0)
(6.3234172e-06 7.7145984e-07 0 1.2541631e-06 0 0)
(5.3555406e-06 5.0516691e-07 0 6.1702337e-07 0 0)
(4.6715601e-06 2.8325247e-07 0 2.1596134e-07 0 0)
(4.2653916e-06 8.9292158e-08 0 2.3287812e-08 0 0)
(0.00036945977 -6.07444e-05 0 4.9696338e-05 0 0)
(0.00026728638 -6.8373972e-05 0 7.6568656e-05 0 0)
(0.0001848402 -5.7798551e-05 0 8.7338146e-05 0 0)
(0.00014002292 -4.9680766e-05 0 9.4491292e-05 0 0)
(0.00013344822 -2.720486e-05 0 9.5553235e-05 0 0)
(0.00014580695 -8.0757473e-06 0 9.0006752e-05 0 0)
(0.00014539921 7.0610342e-06 0 8.0901732e-05 0 0)
(0.00013038574 7.1368395e-06 0 6.7484439e-05 0 0)
(0.00011117239 1.2723313e-05 0 5.3159054e-05 0 0)
(9.3779165e-05 1.4055556e-05 0 4.2556874e-05 0 0)
(8.0542395e-05 1.5444737e-05 0 3.483508e-05 0 0)
(7.0665898e-05 1.5581946e-05 0 2.9803523e-05 0 0)
(6.2081934e-05 1.6101618e-05 0 2.6875049e-05 0 0)
(5.4144115e-05 1.5434933e-05 0 2.5017765e-05 0 0)
(4.7066894e-05 1.4311943e-05 0 2.3394325e-05 0 0)
(4.0752764e-05 1.2758681e-05 0 2.1693193e-05 0 0)
(3.5177172e-05 1.105451e-05 0 1.9858741e-05 0 0)
(3.0200756e-05 9.2733607e-06 0 1.7889868e-05 0 0)
(2.5809561e-05 7.5350258e-06 0 1.5710162e-05 0 0)
(2.1927083e-05 5.932743e-06 0 1.3410442e-05 0 0)
(1.8530375e-05 4.5549516e-06 0 1.1038031e-05 0 0)
(1.5563596e-05 3.4149263e-06 0 8.7466939e-06 0 0)
(1.2997474e-05 2.532958e-06 0 6.6336546e-06 0 0)
(1.0796678e-05 1.859419e-06 0 4.7971964e-06 0 0)
(8.9368049e-06 1.3638809e-06 0 3.2793671e-06 0 0)
(7.3965211e-06 9.8899751e-07 0 2.0890564e-06 0 0)
(6.1617716e-06 7.0006597e-07 0 1.2046255e-06 0 0)
(5.2162529e-06 4.6495084e-07 0 5.8968211e-07 0 0)
(4.5496622e-06 2.6420442e-07 0 2.056242e-07 0 0)
(4.1566256e-06 8.4270926e-08 0 2.2111094e-08 0 0)
(0.00058816707 -7.4317343e-05 -2.1392608e-27 5.49945e-05 3.3263042e-26 4.9559064e-47)
(0.00041722547 -9.1629964e-05 0 9.0497879e-05 0 0)
(0.0002919573 -8.3141129e-05 0 0.00010767684 0 0)
(0.00021041058 -7.1836667e-05 0 0.00012307027 0 0)
(0.00017367722 -6.4016766e-05 0 0.00012847855 0 0)
(0.00016809918 -2.9887108e-05 0 0.0001257329 0 0)
(0.00017267779 -6.3770139e-06 0 0.00011797919 0 0)
(0.00016283138 6.2695481e-06 0 9.9641422e-05 0 0)
(0.00013934195 8.2747277e-06 0 7.8135785e-05 0 0)
(0.00011467851 1.4099785e-05 0 6.0582901e-05 0 0)
(9.5777979e-05 1.4438046e-05 0 4.792849e-05 0 0)
(8.2262416e-05 1.6139746e-05 0 3.8650066e-05 0 0)
(7.0963712e-05 1.6652222e-05 0 3.3087724e-05 0 0)
(6.1019171e-05 1.6790997e-05 0 2.9875675e-05 0 0)
(5.2490016e-05 1.5556347e-05 0 2.7341744e-05 0 0)
(4.5304437e-05 1.41108e-05 0 2.5164558e-05 0 0)
(3.9131731e-05 1.2342384e-05 0 2.302883e-05 0 0)
(3.3758216e-05 1.0497447e-05 0 2.095294e-05 0 0)
(2.9049844e-05 8.6313448e-06 0 1.8688307e-05 0 0)
(2.4885751e-05 6.8660495e-06 0 1.6280902e-05 0 0)
(2.1221322e-05 5.3102147e-06 0 1.3723362e-05 0 0)
(1.7990872e-05 4.00024e-06 0 1.1174502e-05 0 0)
(1.515914e-05 2.9753569e-06 0 8.7415934e-06 0 0)
(1.2690615e-05 2.1914954e-06 0 6.5566767e-06 0 0)
(1.0556529e-05 1.6229681e-06 0 4.6906891e-06 0 0)
(8.7420728e-06 1.2022346e-06 0 3.177598e-06 0 0)
(7.2338253e-06 8.8901854e-07 0 2.0093207e-06 0 0)
(6.0206559e-06 6.4013058e-07 0 1.151906e-06 0 0)
(5.0925919e-06 4.3237524e-07 0 5.6155135e-07 0 0)
(4.4396635e-06 2.4917421e-07 0 1.9524052e-07 0 0)
(4.0572301e-06 8.044415e-08 0 2.0951985e-08 0 0)
(0.00089128381 -8.6347017e-05 -1.9149259e-26 6.1387555e-05 -4.8717175e-26 1.5714979e-46)
(0.00063897462 -0.00011559307 2.2221322e-26 0.00010751214 -1.9066971e-27 5.413057e-47)
(0.0004458842 -0.00011053947 0 0.0001302753 0 0)
(0.00032186328 -0.00010247199 0 0.00015510811 0 0)
(0.00024951483 -9.2224144e-05 0 0.00016997471 0 0)
(0.00021878517 -7.6047113e-05 0 0.000171749 0 0)
(0.000205759 -2.9537371e-05 0 0.00016918853 0 0)
(0.00020336925 -9.4855489e-06 0 0.00014920913 0 0)
(0.00018179474 6.2515346e-06 0 0.00011662216 0 0)
(0.00014739106 1.00814e-05 0 9.0583782e-05 0 0)
(0.00011959576 1.3950234e-05 0 6.9332342e-05 0 0)
(0.00010010722 1.4952271e-05 0 5.3440595e-05 0 0)
(8.4133613e-05 1.7558877e-05 0 4.3078041e-05 0 0)
(7.0441252e-05 1.7680537e-05 0 3.7071735e-05 0 0)
(5.9428143e-05 1.6961334e-05 0 3.2834255e-05 0 0)
(5.066156e-05 1.5366819e-05 0 2.9439577e-05 0 0)
(4.3555923e-05 1.3683769e-05 0 2.6715104e-05 0 0)
(3.759099e-05 1.1764483e-05 0 2.4331323e-05 0 0)
(3.2507216e-05 9.7989684e-06 0 2.1954424e-05 0 0)
(2.8049539e-05 7.8798771e-06 0 1.9451387e-05 0 0)
(2.4128433e-05 6.1411109e-06 0 1.6745756e-05 0 0)
(2.0648846e-05 4.6444821e-06 0 1.3967596e-05 0 0)
(1.756892e-05 3.4547308e-06 0 1.122411e-05 0 0)
(1.4848247e-05 2.5396298e-06 0 8.6794288e-06 0 0)
(1.2451207e-05 1.8817876e-06 0 6.4348141e-06 0 0)
(1.0367701e-05 1.4061726e-06 0 4.5577707e-06 0 0)
(8.5826928e-06 1.0659307e-06 0 3.0619808e-06 0 0)
(7.0943328e-06 8.0467549e-07 0 1.9232332e-06 0 0)
(5.8968552e-06 5.921959e-07 0 1.0973561e-06 0 0)
(4.9813835e-06 4.0702024e-07 0 5.3317194e-07 0 0)
(4.3391938e-06 2.378697e-07 0 1.8497105e-07 0 0)
(3.9653299e-06 7.7692844e-08 0 1.9822347e-08 0 0)
(0.0013095841 -8.8798073e-05 2.4003909e-26 6.8357504e-05 5.3723839e-26 1.5819331e-46)
(0.00093903709 -0.00013726823 -1.1897444e-26 0.00012696475 1.868907e-27 3.4577733e-46)
(0.00067029474 -0.00014042865 0 0.00015917027 0 0)
(0.00047871786 -0.00013394981 0 0.00019009967 0 0)
(0.00036602384 -0.00013040199 0 0.00021785161 0 0)
(0.00030047902 -0.00011156425 0 0.00023055526 0 0)
(0.00026806109 -8.602728e-05 0 0.00023547108 0 0)
(0.00025134325 -3.5149201e-05 0 0.00021794132 0 0)
(0.00023929522 -1.0488875e-05 0 0.00017794247 0 0)
(0.00019865211 7.6058402e-06 0 0.00013698278 0 0)
(0.00015736753 9.4026339e-06 0 0.00010526863 0 0)
(0.00012832445 1.3914084e-05 0 7.7858468e-05 0 0)
(0.00010475802 1.6924533e-05 0 5.9741607e-05 0 0)
(8.4613781e-05 1.9037484e-05 0 4.8649865e-05 0 0)
(6.9081796e-05 1.7928269e-05 0 4.1023041e-05 0 0)
(5.7605522e-05 1.6717466e-05 0 3.5354298e-05 0 0)
(4.8808745e-05 1.4943006e-05 0 3.1210373e-05 0 0)
(4.1882012e-05 1.3090102e-05 0 2.8225446e-05 0 0)
(3.6233763e-05 1.1018107e-05 0 2.555768e-05 0 0)
(3.1430231e-05 8.9675734e-06 0 2.2941042e-05 0 0)
(2.724426e-05 7.0490965e-06 0 2.0108401e-05 0 0)
(2.3525954e-05 5.3543819e-06 0 1.7136406e-05 0 0)
(2.0214808e-05 3.9776755e-06 0 1.4104474e-05 0 0)
(1.726053e-05 2.9069409e-06 0 1.1200558e-05 0 0)
(1.4617794e-05 2.1388911e-06 0 8.5544389e-06 0 0)
(1.227725e-05 1.5947668e-06 0 6.2736638e-06 0 0)
(1.0218726e-05 1.2226693e-06 0 4.4024701e-06 0 0)
(8.4518757e-06 9.5028523e-07 0 2.9348762e-06 0 0)
(6.9745202e-06 7.3832407e-07 0 1.8334019e-06 0 0)
(5.7862164e-06 5.5541214e-07 0 1.0419815e-06 0 0)
(4.8799105e-06 3.8839393e-07 0 5.0504014e-07 0 0)
(4.2461671e-06 2.2994919e-07 0 1.7497669e-07 0 0)
(3.8793532e-06 7.5906544e-08 0 1.8730379e-08 0 0)
(0.0018554925 -8.8744037e-05 0 7.578159e-05 0 0)
(0.0013518301 -0.00014838281 -3.0361984e-26 0.00014985536 1.1308779e-26 3.46424e-46)
(0.00096698294 -0.00016656768 0 0.00019083453 0 0)
(0.00070280991 -0.00016972255 0 0.00023584791 0 0)
(0.00052529473 -0.00016664738 0 0.0002683956 0 0)
(0.00042132692 -0.00016020068 0 0.00029922368 0 0)
(0.00035827022 -0.00013436058 0 0.00031943916 0 0)
(0.00033026182 -0.00010457526 0 0.00031034717 0 0)
(0.00030923343 -3.6764667e-05 0 0.00026380024 0 0)
(0.00027236476 -8.7209543e-06 0 0.00021242456 0 0)
(0.00021717561 4.7867366e-06 0 0.00016121985 0 0)
(0.00017346519 8.6224979e-06 0 0.00011887949 0 0)
(0.0001376978 1.661877e-05 0 8.7310989e-05 0 0)
(0.0001070476 1.9158394e-05 0 6.7986302e-05 0 0)
(8.3787754e-05 1.9269446e-05 0 5.4216295e-05 0 0)
(6.7452718e-05 1.7596234e-05 0 4.4148802e-05 0 0)
(5.5713282e-05 1.6270862e-05 0 3.736364e-05 0 0)
(4.7004532e-05 1.4363532e-05 0 3.2929647e-05 0 0)
(4.0408056e-05 1.2301776e-05 0 2.9691076e-05 0 0)
(3.5087773e-05 1.0115397e-05 0 2.6800666e-05 0 0)