/*--------------------------------*- C++ -*----------------------------------*\
| =========                 |                                                 |
| \\      /  F ield         | OpenFOAM: The Open Source CFD Toolbox           |
|  \\    /   O peration     | Version:  5.0                                   |
|   \\  /    A nd           | Web:      www.OpenFOAM.org                      |
|    \\/     M anipulation  |                                                 |
\*---------------------------------------------------------------------------*/
FoamFile
{
    version     2.0;
    format      ascii;
    class       volScalarField;
    location    "140";
    object      p;
}
// * * * * * * * * * * * * * * * * * * * * * * * * * * * * * * * * * * * * * //

dimensions      [0 2 -2 0 0 0 0];

internalField   nonuniform List<scalar> 
9200
(
0.0010322174
0.0010483991
0.0028325429
0.0010627367
0.0028715573
0.0046709872
0.0010919662
0.0029158383
0.0047304081
0.0063699975
0.0011226089
0.0029958092
0.0048048992
0.0064446408
0.0080023821
0.0011575393
0.0030926934
0.0049305694
0.0065422257
0.0080897638
0.0095249556
0.0011944083
0.0032132525
0.0050862418
0.006701303
0.0082059613
0.0096212559
0.010956969
0.0012287004
0.0033549961
0.0052814518
0.0069014732
0.0083909613
0.0097506813
0.011059679
0.012291824
0.0012642693
0.0035134413
0.0055161073
0.0071548245
0.008622609
0.0099524268
0.011197495
0.01239956
0.013537667
0.001312815
0.0036842064
0.0057898081
0.0074624791
0.0089095323
0.010201045
0.011408352
0.012544178
0.013648508
0.014697765
0.0013445893
0.0039001204
0.0061069162
0.0078319554
0.0092523146
0.010499217
0.011665137
0.012762611
0.013797846
0.014810854
0.015777529
0.0013412234
0.0041453772
0.0064730048
0.008276773
0.0096600093
0.010845005
0.011965486
0.013025388
0.0140214
0.014963991
0.015892194
0.016781808
0.0013035595
0.0043911596
0.0068916706
0.0087987516
0.010139936
0.011244864
0.012305204
0.013325772
0.014287764
0.015190976
0.01604924
0.016897273
0.017715409
0.0012532012
0.0046060913
0.0073525095
0.0094151707
0.010709653
0.011698966
0.012683388
0.013656577
0.014586665
0.015462388
0.016280295
0.01705787
0.017830651
0.018583077
0.0011853137
0.0047510254
0.0078337048
0.010141641
0.011381767
0.012225278
0.013076297
0.013996943
0.014906191
0.015764351
0.016558044
0.017293838
0.017994056
0.018696823
0.019389587
0.0010025537
0.0048495299
0.0082980815
0.010992488
0.012181686
0.012837141
0.013447645
0.014335997
0.015218535
0.016083822
0.016870226
0.017579767
0.018234061
0.018861603
0.019500375
0.020139696
0.00052345186
0.0048814296
0.0086946992
0.011983368
0.013135505
0.013549031
0.013881427
0.014630046
0.015509073
0.016393854
0.017203525
0.017905552
0.018529476
0.01910334
0.019664619
0.020245962
0.020838095
-0.00046001841
0.0046601874
0.0089875055
0.013123503
0.014266135
0.014386544
0.014360852
0.014864228
0.015780783
0.016680321
0.017534382
0.018261444
0.018870282
0.019405715
0.019904946
0.020407507
0.020938269
0.021489419
-0.0016452311
0.0040350792
0.0092078666
0.014415473
0.015594978
0.015383665
0.01486941
0.015034287
0.015944546
0.01693663
0.017862681
0.018635154
0.019253059
0.019759819
0.020209695
0.02064282
0.021094847
0.021581985
0.022098156
-0.0029084544
0.0031504003
0.0093540328
0.015890542
0.017132154
0.016580904
0.015408836
0.015132926
0.015970577
0.017107864
0.018162712
0.019026258
0.019672059
0.020165549
0.020570464
0.020944906
0.021321448
0.021731383
0.022181737
0.022668495
-0.0048102039
0.0018943806
0.0091287173
0.017526575
0.018909695
0.017572778
0.015980442
0.01512449
0.015816855
0.017145292
0.01840312
0.019411887
0.020123081
0.020618729
0.020989996
0.021305118
0.021615821
0.021945764
0.022321902
0.022741859
0.023204398
-0.0072104942
-0.00026213388
0.0082659058
0.019219767
0.020863469
0.019135022
0.016564146
0.014961118
0.015426253
0.016988344
0.0185482
0.01977889
0.020601329
0.021120905
0.021465315
0.021727846
0.021968539
0.022227763
0.022520871
0.022870826
0.023266347
0.02370971
-0.011033138
-0.0038420904
0.0063348856
0.020897242
0.023021433
0.020840242
0.01722389
0.014598093
0.014711608
0.016566179
0.018555575
0.020108478
0.021106756
0.021676293
0.022001125
0.022210475
0.022385001
0.022566807
0.0227863
0.023051329
0.02338219
0.023759397
0.024188035
-0.015223708
-0.0081895676
0.0040040794
0.022578752
0.025450169
0.022672725
0.017929888
0.013994092
0.013573446
0.015788944
0.018377957
0.020385367
0.021639755
0.02229133
0.022602524
0.022757683
0.022861836
0.022969005
0.023106324
0.023296169
0.023541281
0.023860358
0.024225338
0.024642623
-0.019652906
-0.012489839
0.0018358002
0.024062514
0.028169756
0.024569172
0.018663726
0.013070838
0.011898093
0.014545664
0.017955511
0.020584375
0.02220347
0.022975961
0.023278774
0.023373573
0.023402023
0.023429851
0.023488026
0.023592585
0.023762022
0.023995826
0.024309904
0.024667049
0.025076284
-0.023621924
-0.016536482
-0.00041615311
0.024823159
0.031017889
0.026419781
0.019376253
0.01170373
0.0094509463
0.012689113
0.017204828
0.020673433
0.022795769
0.023740017
0.024042046
0.024065783
0.024006657
0.023949921
0.023925939
0.023949031
0.024032094
0.024190152
0.024420353
0.024733896
0.025086687
0.025491585
-0.026600584
-0.020149911
-0.0027445748
0.024869785
0.033607115
0.028035181
0.019904584
0.009737914
0.0060074888
0.010077028
0.016015111
0.020597133
0.023409259
0.024596788
0.024906649
0.024843923
0.024678921
0.024526396
0.024418372
0.024360378
0.024358954
0.024432133
0.024585844
0.02481724
0.025134647
0.025487248
0.025890712
-0.028481029
-0.023279604
-0.0051396403
0.024555936
0.035674081
0.029220428
0.020172173
0.0071386086
0.0013925051
0.0066722471
0.014209686
0.020261107
0.024030307
0.025556857
0.025887779
0.025719288
0.025422401
0.025156483
0.024958798
0.024822354
0.024740143
0.024728509
0.024793112
0.024949661
0.025187971
0.025515352
0.025871758
0.026275665
-0.029473775
-0.026003492
-0.0074987233
0.023760013
0.037303577
0.0298102
0.020152322
0.0039810436
-0.0043227578
0.0023901372
0.011569584
0.019538041
0.024622352
0.026622775
0.026996512
0.026702173
0.026240011
0.02583478
0.0255378
0.025326156
0.025171714
0.025073064
0.025054721
0.025116664
0.025283111
0.02553697
0.025879551
0.026242562
0.026648428
-0.029895858
-0.028322812
-0.0096295269
0.022499406
0.03757179
0.029673605
0.019729443
0.00017177025
-0.01124189
-0.0032616899
0.0079382318
0.018249376
0.02514523
0.027780793
0.02823444
0.02779699
0.027132046
0.026554912
0.02614231
0.025857272
0.025643295
0.025473143
0.025366493
0.025337456
0.025407537
0.025594295
0.025869609
0.026229953
0.02660149
0.027010623
-0.029873851
-0.030156051
-0.011500716
0.020948402
0.036550756
0.028718683
0.018899078
-0.0042800523
-0.020009336
-0.011107979
0.0031798943
0.016045546
0.025513887
0.02900023
0.029586453
0.028998753
0.028094926
0.027304792
0.026753642
0.026395691
0.026137768
0.025917976
0.025734491
0.025615163
0.025584831
0.025675101
0.025888136
0.026188244
0.02656825
0.026950262
0.027363542
-0.029574991
-0.031608946
-0.01322164
0.019147358
0.034695514
0.02717537
0.017747555
-0.0093138623
-0.030040035
-0.021175193
-0.003116343
0.012952206
0.025481824
0.030205041
0.031015106
0.030288076
0.029113457
0.028067175
0.027347806
0.026913348
0.026630857
0.026389753
0.026154996
0.025950913
0.025819831
0.025803629
0.025922188
0.02616522
0.026494079
0.026896546
0.027290378
0.027708223
-0.028878091
-0.032779045
-0.015142318
0.017053969
0.032261279
0.025336307
0.015998765
-0.01476328
-0.040192636
-0.033281562
-0.011580648
0.0086370321
0.024880986
0.031268783
0.032435814
0.031623836
0.030160555
0.028814975
0.027891979
0.027374118
0.027088678
0.026863852
0.026614558
0.026347828
0.02611804
0.025987707
0.025997129
0.026149926
0.026429344
0.02679054
0.027216976
0.027622959
0.028045559
-0.027481345
-0.033131181
-0.017083285
0.014012693
0.029621154
0.023149823
0.013455585
-0.02054299
-0.05045331
-0.046459859
-0.022394563
0.001966288
0.023572303
0.032044277
0.033743683
0.032927102
0.031190069
0.029510214
0.028344341
0.027730729
0.027466354
0.027303255
0.027092815
0.02680098
0.026487586
0.026239615
0.026123781
0.026166907
0.026362456
0.026683996
0.027079551
0.027530437
0.027949038
0.028376234
-0.025497437
-0.032655077
-0.018721947
0.010503338
0.025656168
0.0207747
0.010235559
-0.026465816
-0.060808612
-0.059944218
-0.034587152
-0.0059813513
0.021298318
0.032790872
0.034808581
0.034093732
0.032133924
0.03009715
0.028646927
0.027920498
0.027706893
0.027657661
0.027553674
0.027300375
0.026933395
0.026572778
0.026318643
0.026229413
0.026317711
0.026563757
0.026931159
0.027362814
0.02783832
0.028269397
0.028700738
-0.023245172
-0.031527743
-0.019966006
0.0065526529
0.021203531
0.017673864
0.0064054133
-0.032132463
-0.070771291
-0.073052295
-0.046905364
-0.013984595
0.018029537
0.03333227
0.035626925
0.034991091
0.032894051
0.030496602
0.028719422
0.02784717
0.027730166
0.027869825
0.027937211
0.027824012
0.027456275
0.026999745
0.026601166
0.026357004
0.026309553
0.026454129
0.026757253
0.027173412
0.027642275
0.028141828
0.028584606
0.029019497
-0.020713229
-0.029769677
-0.020836818
0.0022625671
0.015754998
0.014556062
0.0026067425
-0.037629162
-0.079764481
-0.085295086
-0.058352133
-0.022203976
0.013800801
0.032741374
0.035638755
0.035424618
0.033360795
0.0306168
0.028471392
0.027410088
0.027397153
0.027920719
0.028140473
0.028341233
0.028050258
0.027533043
0.026991371
0.026574718
0.02636075
0.026370656
0.026581163
0.026946078
0.02741284
0.02791861
0.028441245
0.02889508
0.029332753
-0.017908884
-0.027381827
-0.021348592
-0.0023711398
0.0094489653
0.010462067
-0.00099574186
-0.041428735
-0.087953208
-0.096087049
-0.068839778
-0.03098305
0.0090840232
0.030628396
0.034800323
0.035072277
0.033400172
0.03034363
0.027802751
0.026503069
0.026588479
0.02753146
0.028573344
0.028816978
0.028704902
0.028181294
0.027511674
0.026907887
0.026498798
0.026336122
0.026418
0.026703232
0.027133086
0.02765143
0.028193222
0.028737409
0.029201107
0.029640637
-0.014885327
-0.024419774
-0.021453694
-0.0072709823
0.0023067006
0.0050500465
-0.0049330258
-0.044580957
-0.093558893
-0.10624432
-0.079091487
-0.039793144
0.0040348274
0.027320951
0.033447081
0.03388752
0.032837613
0.029584312
0.026605622
0.024995599
0.025142206
0.026606843
0.028274329
0.029260326
0.029401306
0.028950136
0.028182605
0.02738614
0.026752176
0.026378399
0.026288592
0.026456185
0.026823009
0.027321496
0.027890993
0.02846701
0.029030601
0.029502856
0.029943316
-0.011753193
-0.021009043
-0.021151509
-0.012275005
-0.0055295558
-0.0014611379
-0.0091548351
-0.047471023
-0.099059137
-0.11415002
-0.088593202
-0.047853192
-0.0016236923
0.022791481
0.031444463
0.031937485
0.031499214
0.02826474
0.024754791
0.022748271
0.022858238
0.024936939
0.027533509
0.029396646
0.030108372
0.029837138
0.029023401
0.028039025
0.02715607
0.026528778
0.026221683
0.026225688
0.026491278
0.026944307
0.027513531
0.028131933
0.028739818
0.029320904
0.029800375
0.030240718
-0.017221005
-0.0085945951
-0.020361598
-0.017319172
-0.013934142
-0.0090772745
-0.013661303
-0.050042927
-0.10298781
-0.12979227
-0.0971347
-0.054739129
-0.0075779479
0.017376872
0.028640045
0.029234843
0.029272826
0.02628018
0.022149123
0.019602137
0.019497179
0.022237813
0.026091692
0.02916066
0.030719476
0.030827159
0.030046936
0.028896286
0.027746533
0.026826294
0.026249376
0.02603962
0.0261567
0.02652986
0.027071957
0.027709634
0.028374842
0.029012304
0.029608565
0.030093683
0.030532897
-0.019057707
-0.013069184
-0.0054903705
-0.022416559
-0.0228184
-0.017768209
-0.018488119
-0.052343022
-0.10536164
-0.13738977
-0.10858583
-0.06208456
-0.013595391
0.011906884
0.024710003
0.025769707
0.026116747
0.023513945
0.018715617
0.015425094
0.01479213
0.018137847
0.023619441
0.028363597
0.031140877
0.031874717
0.031255985
0.029983488
0.028561103
0.027310721
0.026411682
0.025928575
0.025844467
0.026090816
0.026576872
0.027208174
0.027911098
0.028620461
0.029284585
0.029893454
0.030382699
0.030819767
-0.02736218
-0.017403818
-0.0086767335
-0.0025200577
-0.032000074
-0.026968487
-0.02384291
-0.054290003
-0.1060442
-0.14392167
-0.12001527
-0.070167452
-0.022246567
0.0063194258
0.019653582
0.021442068
0.021961086
0.019904657
0.014450076
0.010113351
0.0084916309
0.012174075
0.019659766
0.026715611
0.031219098
0.032917778
0.032634997
0.031316463
0.029632794
0.028024005
0.026749489
0.025931016
0.025582204
0.025649013
0.026034325
0.026634865
0.027354532
0.028119729
0.028869082
0.029556447
0.030175521
0.030667331
0.031101238
-0.041272643
-0.031949516
-0.015482862
-0.0043170438
0.00031026765
-0.036222483
-0.0295074
-0.055826583
-0.10459576
-0.14663027
-0.1299734
-0.077003614
-0.031117139
-0.003207481
0.014274218
0.015967145
0.016874457
0.015423617
0.0093854914
0.0036801016
0.00025610686
0.0037034591
0.013612192
0.023808563
0.030702694
0.033846882
0.034146664
0.0328953
0.030986634
0.029004033
0.027306424
0.026087922
0.025405485
0.025227781
0.025462442
0.025991816
0.026707371
0.027512942
0.028335863
0.029120727
0.029828046
0.030454643
0.030947443
0.031377259
-0.045461487
-0.050417674
-0.036110574
-0.013352148
-0.00014743427
0.0029994263
-0.034976886
-0.05680999
-0.1011939
-0.14418937
-0.13511439
-0.082714249
-0.040255761
-0.012362359
0.005022237
0.01009772
0.010811367
0.010130052
0.0036133586
-0.0039606663
-0.010232896
-0.0082382378
0.004504182
0.019187436
0.029276497
0.034486543
0.035714505
0.034695658
0.032630836
0.030279376
0.028123636
0.026440303
0.025354657
0.024858169
0.02487897
0.025291813
0.025968346
0.026797478
0.027683934
0.028559535
0.029375395
0.030099004
0.030730578
0.031222871
0.031647684
-0.04010352
-0.05452179
-0.059089562
-0.039764052
-0.011150652
0.0037751943
0.0055705376
-0.057042082
-0.096391883
-0.13713727
-0.13542503
-0.087209283
-0.048982783
-0.022933394
-0.0041357525
0.0015903837
0.0042895848
0.0040046343
-0.0028216925
-0.012691645
-0.023176281
-0.02345534
-0.0076300717
0.012323671
0.026253984
0.03457895
0.037203658
0.036654476
0.034548839
0.03186326
0.02923032
0.027030835
0.025462011
0.024577068
0.024311134
0.024546932
0.025144698
0.025968592
0.026906547
0.027867932
0.028790654
0.029632768
0.030369083
0.031003114
0.031493466
0.031912481
-0.056282121
-0.04499211
-0.062877968
-0.067154313
-0.042889895
-0.0089633268
0.0073800958
0.0081071292
-0.090316324
-0.12842643
-0.1320734
-0.090131672
-0.057116303
-0.033925465
-0.015963453
-0.0061712616
-0.0039372797
-0.0025207197
-0.0098617392
-0.022604664
-0.037942659
-0.041832363
-0.022720603
0.0028259784
0.020509946
0.03343598
0.038381149
0.038653762
0.036683996
0.033744687
0.030641955
0.027890648
0.025773739
0.024414552
0.023787309
0.023778725
0.024242471
0.025028095
0.025995171
0.027035669
0.028065073
0.029028835
0.029892323
0.030637863
0.031272004
0.031759122
0.032171532
-0.083057774
-0.054569088
-0.049157241
-0.070172682
-0.07446742
-0.045411815
-0.0068142258
0.010640053
0.010500288
-0.11827163
-0.12606654
-0.091089615
-0.064371997
-0.045354548
-0.029264192
-0.016558615
-0.011160177
-0.0098673166
-0.017072699
-0.033403452
-0.054134551
-0.062052428
-0.040854869
-0.0099265892
0.012125452
0.03072017
0.038783445
0.040488799
0.038930521
0.035872507
0.032350161
0.029032344
0.02631942
0.024407761
0.023334807
0.023007198
0.023276053
0.023975464
0.024946501
0.026049969
0.027185319
0.028274895
0.029273324
0.03015347
0.030905015
0.03153716
0.032019717
0.032424698
-0.1066236
-0.07466327
-0.05191805
-0.052410492
-0.076041178
-0.080885495
-0.047261616
-0.0047242022
0.013540716
0.01265586
-0.11778565
-0.089781
-0.070345477
-0.056824175
-0.043658847
-0.029442018
-0.020496316
-0.016215321
-0.023859935
-0.045277285
-0.070108983
-0.083450396
-0.062622253
-0.026226148
0.00090292956
0.026353545
0.038308045
0.041812656
0.041110655
0.038149672
0.034311356
0.030448381
0.027109226
0.024583928
0.022982452
0.022254705
0.022257899
0.022817784
0.023753122
0.024903011
0.026134275
0.027355179
0.028496425
0.029523338
0.030415874
0.031170536
0.031798383
0.032274862
0.032671811
-0.10720109
-0.093513631
-0.065563907
-0.048265974
-0.054853318
-0.080289514
-0.086178617
-0.048416527
-0.0027302671
0.016040062
0.014561733
-0.086351083
-0.074684392
-0.067933688
-0.058649235
-0.044649287
-0.032733531
-0.023924864
-0.029252915
-0.053603611
-0.087312328
-0.10472754
-0.086963722
-0.047278313
-0.014669549
0.019050213
0.036491441
0.042428741
0.042949997
0.040415818
0.036435462
0.03210371
0.028134673
0.024955047
0.022752096
0.021541243
0.021203136
0.02156001
0.022415214
0.023580644
0.024899712
0.02624813
0.027544052
0.028728721
0.029778672
0.030679629
0.031433996
0.032054806
0.03252406
0.032913087
-0.081207332
-0.094691961
-0.079745384
-0.05591206
-0.044081308
-0.056193571
-0.083010214
-0.089744272
-0.048759371
-0.00087513345
0.018150201
0.016151698
-0.077333653
-0.078534657
-0.074193696
-0.061965106
-0.047408037
-0.03380929
-0.035648695
-0.059544934
-0.098022657
-0.12737673
-0.11237709
-0.071204972
-0.031638369
0.0088944821
0.031809873
0.041921775
0.044163578
0.042435924
0.03857774
0.033915748
0.029365822
0.025511092
0.022653819
0.020882641
0.020123383
0.020208596
0.020929916
0.02207631
0.023462052
0.024937124
0.026390354
0.027750601
0.028971701
0.030039521
0.030943878
0.031693585
0.03230542
0.032767894
0.03316049
-0.078065666
-0.07424046
-0.081206438
-0.065705101
-0.046131555
-0.039539372
-0.056460728
-0.083986376
-0.090547621
-0.048233509
0.00084126489
0.019878711
0.017338227
-0.088275583
-0.090211829
-0.081012575
-0.064343242
-0.045663251
-0.043416132
-0.06527029
-0.10791163
-0.14251268
-0.14131287
-0.098164841
-0.049449545
-0.0030305864
0.024820321
0.038962362
0.044427809
0.043951642
0.040548877
0.03575852
0.030730956
0.026222593
0.022678638
0.020282822
0.019026654
0.018766618
0.019294383
0.020379369
0.021807056
0.023399695
0.025014142
0.026559356
0.027974879
0.029225801
0.030304275
0.031205228
0.031947432
0.032551775
0.033019283
0.0334182
-0.09659043
-0.076871908
-0.065732469
-0.06736371
-0.0518845
-0.036555638
-0.034539928
-0.055839793
-0.083029606
-0.088978214
-0.047017376
0.0026065163
0.021132922
0.018332718
-0.10629768
-0.10118455
-0.083185881
-0.059196004
-0.05239953
-0.071429631
-0.11559801
-0.16208098
-0.16514536
-0.12736404
-0.070407235
-0.017227934
0.016307319
0.033829309
0.042994855
0.044631048
0.0421267
0.037470309
0.032122951
0.027028554
0.022796357
0.019733008
0.017910852
0.017233941
0.017503168
0.018477811
0.019917393
0.021611282
0.023393305
0.025131277
0.026755302
0.028217714
0.029488422
0.03056742
0.031460829
0.032198976
0.03280971
0.033279908
0.033679283
-0.12156269
-0.10332083
-0.074209554
-0.056521739
-0.053779357
-0.03863135
-0.027159688
-0.02927553
-0.054169282
-0.079776302
-0.085108108
-0.045192063
0.0045359524
0.022100264
0.019099376
-0.12210248
-0.10338152
-0.074220499
-0.062128703
-0.0784058
-0.12202785
-0.17549965
-0.19990725
-0.15477277
-0.092043104
-0.033133346
0.0059769803
0.027636693
0.039703009
0.044007094
0.043001669
0.038825945
0.033394924
0.027836649
0.022953579
0.019203292
0.016763018
0.015601195
0.015547375
0.016357765
0.017772166
0.019550201
0.021489171
0.023437816
0.025286938
0.026979679
0.028475427
0.02975116
0.03082499
0.031717189
0.032470616
0.033074649
0.033545631
0.033943474
-0.14311389
-0.13551475
-0.10815236
-0.070530716
-0.04740053
-0.040807059
-0.026194979
-0.018019944
-0.023895545
-0.051423132
-0.074966607
-0.080731423
-0.0422952
0.0063054701
0.022725312
0.019565531
-0.12444756
-0.090673164
-0.072136849
-0.08560672
-0.1283361
-0.18567374
-0.22265152
-0.19381663
-0.11265639
-0.049566569
-0.0052431902
0.019584774
0.034817907
0.042046514
0.042749305
0.039556008
0.034356102
0.0285139
0.023068733
0.018644257
0.015552758
0.01384934
0.013409218
0.014001085
0.015349666
0.017186885
0.01927927
0.021438215
0.023535357
0.025483558
0.027227676
0.028735789
0.030008501
0.031087818
0.032007001
0.032747148
0.033346952
0.033815534
0.034210731
-0.14562615
-0.16349982
-0.14724965
-0.11106818
-0.066191485
-0.038752497
-0.028762414
-0.014813589
-0.0093254
-0.018348573
-0.047830212
-0.070788484
-0.074427641
-0.039067764
0.0077541314
0.022982623
0.01968882
-0.10739982
-0.081909357
-0.092513362
-0.13408692
-0.19315472
-0.24293296
-0.23007011
-0.14343991
-0.071277135
-0.017250684
0.010241201
0.028253231
0.038422699
0.041245051
0.039489401
0.034800428
0.028900281
0.023025964
0.017983103
0.014232263
0.011945094
0.011063014
0.011381539
0.012622451
0.014492586
0.016725295
0.019102093
0.021459869
0.0236901
0.025715285
0.027481973
0.028990969
0.030277308
0.031403249
0.032299455
0.033033781
0.033624275
0.034089733
0.034480799
-0.12264042
-0.16601027
-0.1815504
-0.15663845
-0.11200331
-0.061437358
-0.030583578
-0.017729542
-0.0047059292
-0.0011551071
-0.012919891
-0.044500985
-0.065843733
-0.068277754
-0.035486999
0.0087229032
0.022699974
0.019517428
-0.091183911
-0.099174049
-0.13834128
-0.19713227
-0.25781437
-0.26477116
-0.17935027
-0.099087563
-0.036438609
9.177398e-05
0.02027621
0.032801045
0.038237804
0.038527742
0.034460089
0.028807276
0.022688431
0.017118498
0.012734959
0.0098399553
0.0084702818
0.0084655499
0.0095560735
0.011430699
0.013792222
0.016385497
0.019020153
0.021560174
0.023896179
0.025958379
0.027731229
0.029265795
0.030625875
0.031718821
0.032605133
0.033326057
0.033907102
0.034367617
0.034753574
-0.099622172
-0.1354309
-0.18360084
-0.19675895
-0.16356782
-0.11121613
-0.056484261
-0.023016269
-0.0081072434
0.0038809696
0.0059795071
-0.0076107018
-0.041417738
-0.060158659
-0.061569136
-0.031701016
0.0093307291
0.021716451
0.019034117
-0.10511522
-0.14007749
-0.19704973
-0.26622525
-0.29183304
-0.2162989
-0.12885528
-0.056573174
-0.017481515
0.011109986
0.025736783
0.033496117
0.035370186
0.033163465
0.028009973
0.021889719
0.015934003
0.010970313
0.0074700325
0.0055792321
0.0052080046
0.0061078698
0.0079585265
0.010433825
0.013247469
0.016170375
0.019043018
0.021729135
0.024120571
0.02619649
0.028010734
0.029657254
0.030972202
0.032051474
0.032916968
0.03362518
0.034194497
0.03464914
0.035028781
-0.10937176
-0.10651972
-0.14433532
-0.19661066
-0.20898518
-0.16735353
-0.10911961
-0.051802563
-0.016626682
-0.00075583796
0.010015415
0.013167233
-0.0037123587
-0.03766149
-0.0539034
-0.054377176
-0.027796685
0.009619105
0.020086456
0.018170186
-0.13908126
-0.19286675
-0.26608718
-0.31248783
-0.25160471
-0.15559809
-0.080799126
-0.032549488
-0.0063074958
0.018906562
0.02658092
0.030719677
0.030401534
0.026289788
0.020444862
0.014285139
0.0088392751
0.0047513886
0.0023248439
0.0015517127
0.0022255341
0.0040247403
0.0065988343
0.0096308989
0.012863761
0.016092022
0.019161752
0.021924127
0.024339853
0.026478498
0.028456832
0.030043946
0.031340151
0.03239061
0.033237023
0.033929917
0.03448635
0.034933726
0.035306258
-0.13546658
-0.1107052
-0.11164514
-0.14852509
-0.20426827
-0.215581
-0.16702419
-0.10610079
-0.047713208
-0.011668565
0.0047440307
0.023862047
0.017690851
8.8494251e-06
-0.033269459
-0.04692768
-0.046640027
-0.023758809
0.0094215028
0.017980399
0.016882142
-0.18458454
-0.25631059
-0.31822886
-0.27913193
-0.17993856
-0.10478072
-0.052953019
-0.019791702
0.0025501447
0.020655401
0.023303249
0.026054866
0.023348085
0.018174281
0.012023905
0.0062150758
0.0015971385
-0.0013748466
-0.002572861
-0.0021546901
-0.00043008373
0.0022307224
0.0054803444
0.0090342833
0.012659445
0.016138479
0.019316585
0.022113679
0.024620905
0.026993757
0.028895546
0.030457986
0.031714582
0.032739445
0.03356355
0.034240056
0.034781865
0.035221195
0.035585741
-0.17288561
-0.12874243
-0.10850995
-0.11488313
-0.14861479
-0.20639177
-0.2131709
-0.16316749
-0.10223449
-0.043870564
-0.00730031
0.010274474
0.020594163
0.021951791
0.0035114481
-0.02837641
-0.039403665
-0.038715723
-0.01954509
0.0087911979
0.015661541
0.015119754
-0.24004686
-0.30406129
-0.29169641
-0.19939992
-0.12797494
-0.073559428
-0.038912045
-0.010788145
0.0071906257
0.014928197
0.019317864
0.019130873
0.014830806
0.0090020213
0.002984214
-0.002108832
-0.0056016882
-0.0072500304
-0.0071091618
-0.0054766991
-0.0027373963
0.00073370168
0.004623974
0.0086695202
0.012617475
0.016234272
0.019461538
0.022388784
0.02522361
0.027498303
0.029368748
0.030877978
0.032100148
0.033095688
0.033896355
0.034554666
0.03508075
0.035511034
0.035867074
-0.21907976
-0.15772018
-0.11930457
-0.10337204
-0.11392549
-0.14567478
-0.20112404
-0.20329061
-0.15669343
-0.097041308
-0.039935168
-0.001778972
0.014181376
0.02529019
0.02572817
0.0066201939
-0.023003026
-0.031659702
-0.030812337
-0.015094547
0.0079836308
0.013306629
0.012708939
-0.28196263
-0.28876277
-0.21195864
-0.14759964
-0.094048298
-0.058705823
-0.029559541
-0.0040337968
-8.4584553e-05
0.011518506
0.012988496
0.010383152
0.0050478825
-0.00098374569
-0.0064504772
-0.010469086
-0.012564323
-0.012727766
-0.011199046
-0.0083830945
-0.0046828154
-0.00043595581
0.0040621817
0.008511887
0.012636061
0.016319235
0.019722352
0.023102536
0.025810498
0.028046658
0.029846546
0.031310601
0.032493981
0.033459229
0.034234398
0.034873329
0.035382347
0.035803174
0.036149911
-0.25373455
-0.19369288
-0.14039656
-0.10738304
-0.09537262
-0.10772431
-0.13918685
-0.18731751
-0.18972889
-0.14787416
-0.090635444
-0.034653628
0.0037656148
0.018076082
0.028102386
0.028633036
0.0093275565
-0.017130348
-0.02374991
-0.023169005
-0.010558679
0.0070213725
0.011111873
0.0099285875
-0.27353024
-0.21746768
-0.15954555
-0.11246076
-0.07915077
-0.049261214
-0.024656877
-0.0014454681
-0.001083697
0.0060805501
0.0043515954
0.00012748014
-0.0058009793
-0.011555047
-0.016039888
-0.018633475
-0.019104186
-0.017694107
-0.0147969
-0.010852058
-0.0062235607
-0.0012349859
0.0037610758
0.0084282266
0.012648639
0.016547805
0.020576773
0.023791404
0.026453689
0.028597174
0.030338404
0.031752282
0.032896118
0.033828907
0.034576989
0.035195344
0.035686721
0.036096959
0.036434023
-0.24801187
-0.22026951
-0.16637561
-0.12167627
-0.093966046
-0.084553231
-0.09776741
-0.12869999
-0.16878209
-0.17575742
-0.13581814
-0.083679036
-0.02704425
0.0085595851
0.021568172
0.030002794
0.030605506
0.011735351
-0.011385714
-0.015954663
-0.016397404
-0.0066223567
0.0062948108
0.0090988056
0.0075071882
-0.21393269
-0.16317358
-0.12718308
-0.09857318
-0.070452252
-0.046257596
-0.021776821
-0.010940105
-0.0041245655
-0.0021658535
-0.0061269434
-0.011500923
-0.017475445
-0.022457664
-0.025511636
-0.02636492
-0.02506847
-0.022082987
-0.017869107
-0.012824803
-0.0073025961
-0.0017100187
0.0035482531
0.0083314557
0.012878904
0.017586712
0.021391847
0.024552759
0.027095254
0.029162877
0.030839988
0.032203322
0.033305157
0.034203788
0.03492345
0.035521038
0.035992801
0.036392104
0.036719113
-0.20015563
-0.21571994
-0.18572115
-0.13843354
-0.10220537
-0.079508125
-0.071951151
-0.085462276
-0.11569034
-0.1482444
-0.15541706
-0.12543241
-0.072277048
-0.019775812
0.012440279
0.024447632
0.031432267
0.031396336
0.013761103
-0.0058507383
-0.0095572086
-0.010613826
-0.0036564274
0.0056855367
0.0073232587
0.0056876763
-0.16074376
-0.136825
-0.11528016
-0.091605458
-0.069496123
-0.046865037
-0.026479268
-0.013390041
-0.010638779
-0.012826895
-0.018319111
-0.024285317
-0.029709814
-0.033375651
-0.034570496
-0.033458313
-0.030361081
-0.025844324
-0.020337744
-0.014227948
-0.0079828808
-0.0020822629
0.0033154261
0.0085107745
0.014117921
0.018558597
0.0222998
0.025307114
0.027752509
0.029738818
0.031351827
0.032661982
0.033719953
0.034583367
0.035274564
0.035848704
0.036300284
0.036688068
0.037004932
-0.15319717
-0.17826611
-0.18194104
-0.15193049
-0.1119218
-0.082751612
-0.064496119
-0.05858174
-0.071823341
-0.10224963
-0.12730218
-0.13872962
-0.11028126
-0.060973767
-0.012636083
0.015589175
0.026458239
0.031604498
0.030897166
0.015053132
-0.00070678917
-0.0050691109
-0.0061237462
-0.0012109398
0.0051267567
0.0058370396
0.0043080589
-0.14046485
-0.12721597
-0.11113593
-0.093700864
-0.075038583
-0.049547462
-0.029478372
-0.017085867
-0.020290854
-0.025625393
-0.032073325
-0.037969886
-0.042150701
-0.043941927
-0.042945154
-0.039774914
-0.034906089
-0.028874649
-0.022109669
-0.015145043
-0.0085458649
-0.0024843789
0.0034386693
0.010034895
0.015262154
0.01964983
0.023192418
0.026077319
0.028420256
0.030325722
0.031871988
0.033127007
0.034140278
0.034968931
0.03562798
0.036178052
0.036608471
0.036984485
0.037291215
-0.1377835
-0.14115563
-0.15272574
-0.14902253
-0.1207343
-0.087504766
-0.064098085
-0.049642839
-0.04519778
-0.05737218
-0.088052532
-0.11226495
-0.11974618
-0.094741702
-0.049492178
-0.0059780586
0.018187939
0.027651288
0.030827632
0.029221066
0.015652113
0.0029511659
-0.0015869345
-0.002794117
0.00066556523
0.0046356954
0.0046568533
0.0032702593
-0.13353799
-0.12767761
-0.1178951
-0.10420537
-0.078969937
-0.053136288
-0.029851077
-0.024688178
-0.032507019
-0.040481577
-0.047111359
-0.052167481
-0.054357208
-0.053793463
-0.050437295
-0.045201941
-0.038564313
-0.031054381
-0.023289443
-0.015928702
-0.0091530802
-0.0024302426
0.0053011452
0.011403577
0.016567662
0.02071197
0.02410136
0.026857579
0.029099301
0.030921651
0.032399099
0.033598554
0.03456817
0.035357125
0.035983457
0.036508129
0.036916949
0.037280927
0.037577716
-0.13519474
-0.13034761
-0.12550124
-0.12637443
-0.11839468
-0.093029624
-0.065348226
-0.046876808
-0.035784437
-0.031833867
-0.043592584
-0.074863753
-0.09607303
-0.10096761
-0.078451763
-0.038381482
2.4223693e-05
0.020114571
0.02802968
0.029630329
0.026654009
0.015838813
0.0053075343
0.0011810301
-0.00010922886
0.0019342032
0.0042353939
0.0037542853
0.0024951091
-0.14023684
-0.14054576
-0.13442605
-0.11473688
-0.083501089
-0.051654431
-0.033392433
-0.035837707
-0.047168066
-0.057199779
-0.062987217
-0.066336095
-0.065857369
-0.062639079
-0.056879697
-0.049554163
-0.041185562
-0.03251643
-0.024319772
-0.016777409
-0.0091825113
-0.00015305401
0.0069312645
0.012980974
0.017829098
0.021790005
0.025019089
0.027649426
0.029787745
0.031525108
0.032933739
0.034079577
0.034999203
0.035747792
0.036339802
0.036838458
0.037225255
0.037577043
0.03786403
-0.14826558
-0.13352833
-0.11980253
-0.10793876
-0.10144197
-0.091264966
-0.069320378
-0.045932223
-0.031293027
-0.022603137
-0.020898027
-0.030738949
-0.061860002
-0.079693548
-0.081820357
-0.062370439
-0.027641877
0.0050077335
0.021262022
0.027609445
0.028074056