/*--------------------------------*- C++ -*----------------------------------*\
| =========                 |                                                 |
| \\      /  F ield         | OpenFOAM: The Open Source CFD Toolbox           |
|  \\    /   O peration     | Version:  5.0                                   |
|   \\  /    A nd           | Web:      www.OpenFOAM.org                      |
|    \\/     M anipulation  |                                                 |
\*---------------------------------------------------------------------------*/
FoamFile
{
    version     2.0;
    format      ascii;
    class       surfaceScalarField;
    location    "140";
    object      phi;
}
// * * * * * * * * * * * * * * * * * * * * * * * * * * * * * * * * * * * * * //

dimensions      [0 3 -1 0 0 0 0];

internalField   nonuniform List<scalar> 
18180
(
-0.0011813402
-1.3865893
-0.0023094364
-1.2969135
-0.0012052645
-1.385384
-0.0033757312
-1.2132158
-0.0023633012
-1.2957554
-0.001185845
-1.3841982
-0.0043973818
-1.1350927
-0.0034798696
-1.2120992
-0.0023255029
-1.2946158
-0.001154561
-1.3830436
-0.0053624314
-1.0621352
-0.004577128
-1.1339954
-0.0034281897
-1.2109965
-0.0022615848
-1.2935087
-0.0011097287
-1.3819339
-0.0062604142
-0.99400163
-0.0056727011
-1.0610396
-0.0045187284
-1.1329049
-0.0033296726
-1.2099285
-0.0021663523
-1.2924521
-0.0010614104
-1.3808725
-0.0070836024
-0.93035147
-0.006789742
-0.99288458
-0.0056267046
-1.0599317
-0.0043821274
-1.1318524
-0.0031780239
-1.2089168
-0.0020641996
-1.2914493
-0.0010160533
-1.3798564
-0.0078385351
-0.87089414
-0.0079584909
-0.92918272
-0.0067943951
-0.99171689
-0.0054454584
-1.0588683
-0.0041573345
-1.1308731
-0.0030167818
-1.2079642
-0.001969487
-1.2904959
-0.00097369263
-1.3788827
-0.0085074243
-0.81537116
-0.0092174017
-0.86963523
-0.0080795883
-0.92789752
-0.0065524491
-0.9906099
-0.0051139089
-1.0579118
-0.0039224004
-1.1299675
-0.0028724559
-1.2070612
-0.0018854277
-1.2895842
-0.00093030134
-1.3779524
-0.0090380155
-0.76350929
-0.010674831
-0.81391373
-0.0095692606
-0.86814556
-0.0077427823
-0.92670719
-0.0060558411
-0.98966797
-0.0047760016
-1.0570582
-0.0037233722
-1.1291166
-0.0027521334
-1.2061945
-0.0018049247
-1.2887095
-0.00088293006
-1.3770695
-0.0093888606
-0.71516482
-0.012423439
-0.76176069
-0.011347464
-0.81213553
-0.0090561055
-0.86683224
-0.0069905646
-0.92577247
-0.0055652885
-0.98887868
-0.0045124066
-1.0562691
-0.0035717715
-1.1282969
-0.0026424012
-1.205357
-0.0017197642
-1.2878727
-0.0008305477
-1.3762389
-0.0095228589
-0.67014861
-0.014605275
-0.71298298
-0.013465572
-0.75964258
-0.010521946
-0.81066968
-0.0079143762
-0.86590843
-0.0062688195
-0.92506894
-0.0052162258
-0.98817486
-0.0043368527
-1.055504
-0.0034434172
-1.1274959
-0.0025266839
-1.2045501
-0.0016242669
-1.287079
-0.00077318773
-1.3754657
-0.009422551
-0.62825443
-0.017363544
-0.66739034
-0.016055458
-0.71039309
-0.012230077
-0.75793445
-0.0088156786
-0.80976838
-0.0068515957
-0.86532565
-0.0057994452
-0.92448572
-0.0050244
-0.98748732
-0.0042069847
-1.0547405
-0.0033109181
-1.1267117
-0.0023930986
-1.2037813
-0.0015152081
-1.286337
-0.00071104866
-1.3747547
-0.0090952798
-0.58927732
-0.020842455
-0.62477552
-0.019315376
-0.66413042
-0.014284231
-0.70833894
-0.0096849373
-0.75706519
-0.0072372524
-0.80938272
-0.0062052957
-0.8649198
-0.0055999246
-0.92391019
-0.0049184193
-0.98677588
-0.0040798435
-1.0539716
-0.0031520535
-1.1259527
-0.0022353651
-1.2030611
-0.0013925828
-1.2856554
-0.00064514219
-1.3741095
-0.0085549643
-0.55298276
-0.025188912
-0.58493086
-0.02346413
-0.62062676
-0.016791578
-0.66162307
-0.010530837
-0.70749304
-0.0073232083
-0.75697923
-0.0063243927
-0.80926363
-0.005993796
-0.86452593
-0.0055499661
-0.92327865
-0.0048353086
-0.98602042
-0.0039180517
-1.0532056
-0.0029520222
-1.1252361
-0.0020532262
-1.2024005
-0.0012601809
-1.2850404
-0.00057811667
-1.3735314
-0.0077756715
-0.51906757
-0.030548713
-0.54762296
-0.028733648
-0.57966134
-0.019881801
-0.61753654
-0.011347607
-0.6608063
-0.0070403713
-0.70777588
-0.0060476649
-0.75725596
-0.0061403468
-0.80911708
-0.0060526683
-0.86402323
-0.0055758405
-0.92253811
-0.0047109209
-0.98522755
-0.003689792
-1.0524678
-0.0027095139
-1.1245798
-0.0018527684
-1.2018079
-0.0011248927
-1.2844936
-0.00051366584
-1.3730178
-0.0067578633
-0.48714615
-0.037053911
-0.51256237
-0.035345462
-0.54101114
-0.023698337
-0.57584481
-0.012129254
-0.61675489
-0.0062765472
-0.66157013
-0.0052162804
-0.70860726
-0.0059812248
-0.75741508
-0.0064503422
-0.8087194
-0.0063195987
-0.86327947
-0.0055619316
-0.9216871
-0.0044798622
-0.98443748
-0.003385442
-1.0517919
-0.0024347569
-1.1239978
-0.0016456335
-1.2012872
-0.00099461662
-1.2840127
-0.00045507319
-1.3725627
-0.0056805378
-0.45729046
-0.044775572
-0.47942448
-0.043492692
-0.50441514
-0.028373919
-0.53633556
-0.012867795
-0.57510627
-0.0048954946
-0.61813595
-0.0036717045
-0.6631147
-0.0053205076
-0.70926798
-0.0067200832
-0.75714534
-0.0071088443
-0.80793016
-0.00653257
-0.86230883
-0.0053684679
-0.9207985
-0.0041135361
-0.98370938
-0.0030230871
-1.0512035
-0.0021454989
-1.1234979
-0.0014450428
-1.2008367
-0.00087610835
-1.2835916
-0.00040445996
-1.3721582
-0.0038809326
-0.4303965
-0.053675751
-0.44839028
-0.053232719
-0.46968446
-0.03397938
-0.49880968
-0.013552454
-0.5356509
-0.0027437636
-0.577258
-0.001215635
-0.62059201
-0.0039869737
-0.66444824
-0.0067666287
-0.70922143
-0.0079351623
-0.75631902
-0.0076643769
-0.80679835
-0.0064212361
-0.86125606
-0.0049384838
-0.91997355
-0.0036417871
-0.98309068
-0.0026337187
-1.0507153
-0.0018631895
-1.1230798
-0.0012622154
-1.2004506
-0.00077382248
-1.2832223
-0.00036300899
-1.3717952
-0.00071455478
-0.40656065
-0.06321508
-0.42085717
-0.064441653
-0.43718135
-0.040559081
-0.46310475
-0.014161693
-0.49820044
0.00034501416
-0.53873968
0.0023784432
-0.58085208
-0.0017861398
-0.62279285
-0.0064594917
-0.66475537
-0.0088469919
-0.7083096
-0.0090191176
-0.75496428
-0.0076978007
-0.80552179
-0.0059140053
-0.86028054
-0.0043250143
-0.91929032
-0.0031226486
-0.98260175
-0.0022515665
-1.0503269
-0.0016066495
-1.1227353
-0.001104728
-1.2001197
-0.0006898355
-1.2828954
-0.00033109487
-1.3714641
0.004147609
-0.38294719
-0.072777276
-0.39699845
-0.077520402
-0.40777842
-0.048453054
-0.42928738
-0.014637915
-0.46262853
0.0045458225
-0.50240125
0.0073581358
-0.54371937
0.0015114868
-0.5841497
-0.0056607763
-0.62359156
-0.0098662202
-0.66373614
-0.010724902
-0.70660382
-0.0093132971
-0.75334879
-0.0071089356
-0.80432686
-0.0051093837
-0.85949617
-0.003628984
-0.91878399
-0.0026112412
-0.98224208
-0.0019063032
-1.0500273
-0.0013883713
-1.1224517
-0.00097632958
-1.1998332
-0.0006242128
-1.2826023
-0.0003078516
-1.3711563
0.0095764365
-0.35794441
-0.081369931
-0.37435453
-0.093126896
-0.38139196
-0.058526865
-0.39770461
-0.015140027
-0.42878527
0.0099941024
-0.46807681
0.013954815
-0.50899793
0.0061611369
-0.54836902
-0.0042147476
-0.58559573
-0.011003069
-0.62245471
-0.012923866
-0.66153718
-0.011421204
-0.70449591
-0.0086277594
-0.75182996
-0.006045341
-0.8033909
-0.0041674147
-0.85895774
-0.0029405037
-0.91845472
-0.0021525017
-0.98199588
-0.0016173223
-1.0497983
-0.0012137031
-1.1222143
-0.00087729116
-1.1995802
-0.00057537395
-1.2823348
-0.00029110723
-1.3708652
0.014065869
-0.33212277
-0.089973375
-0.34934097
-0.11098606
-0.35649537
-0.071679824
-0.368239
-0.016309134
-0.39653551
0.016827388
-0.43561855
0.022397292
-0.47651929
0.012442246
-0.51527904
-0.0019417827
-0.55064198
-0.012270003
-0.5843288
-0.01579164
-0.61958694
-0.014216785
-0.6587416
-0.010601606
-0.70252207
-0.0071952865
-0.75068002
-0.0047554717
-0.80280284
-0.0032314012
-0.85866684
-0.0023295552
-0.91827767
-0.0017756339
-0.98183757
-0.0013924086
-1.0496196
-0.0010816905
-1.1220099
-0.00080497366
-1.1993506
-0.00054052253
-1.2820854
-0.0002783659
-1.3705868
0.018043944
-0.30644865
-0.099531119
-0.32256502
-0.12922013
-0.3311069
-0.087839165
-0.34033603
-0.018764512
-0.36578362
0.025125949
-0.40483407
0.032892939
-0.4461142
0.020616742
-0.48469379
0.0013563694
-0.51857719
-0.01368229
-0.5492297
-0.019540519
-0.58057992
-0.017940959
-0.61586277
-0.013200459
-0.65614275
-0.0086385021
-0.70107885
-0.0054107367
-0.75002475
-0.0034702789
-0.80256396
-0.0024117779
-0.85858462
-0.0018406393
-0.91821267
-0.0014923316
-0.98173765
-0.0012290556
-1.0494723
-0.0009872064
-1.1218277
-0.00075465158
-1.1991364
-0.00051624383
-1.2818475
-0.00026809084
-1.3703187
0.021954759
-0.28169788
-0.10926553
-0.29671424
-0.14609606
-0.30568909
-0.10482013
-0.31412594
-0.022429916
-0.33667062
0.034905109
-0.37556278
0.045636194
-0.41757732
0.030891402
-0.45638886
0.0059170726
-0.48925449
-0.015235872
-0.51702361
-0.024426356
-0.54434386
-0.022877163
-0.57564371
-0.016621636
-0.61244159
-0.010469462
-0.65431179
-0.006151656
-0.70033793
-0.0036345773
-0.74986045
-0.0023620524
-0.80261369
-0.0017764721
-0.85864879
-0.0014899581
-0.91821504
-0.0012990063
-0.9816677
-0.0011177136
-1.0493417
-0.00092322211
-1.1216591
-0.00072068341
-1.198932
-0.00049940288
-1.2816162
-0.00026001349
-1.3700587
0.025667227
-0.25777558
-0.11861286
-0.27235055
-0.16143748
-0.28137282
-0.12086438
-0.28964483
-0.02710325
-0.30945261
0.04600931
-0.34777482
0.06067629
-0.39060288
0.043286595
-0.42997251
0.011861733
-0.46233352
-0.016968545
-0.48752182
-0.030749299
-0.51070067
-0.029351355
-0.53786967
-0.021087076
-0.57117827
-0.012792532
-0.61011852
-0.0069941322
-0.65346931
-0.0036910118
-0.7002815
-0.0021278979
-0.75009461
-0.001532428
-0.80285773
-0.0013476301
-0.85879112
-0.0012699281
-0.91824412
-0.0011806991
-0.98160471
-0.001045997
-1.049219
-0.00088214159
-1.1214977
-0.00069795938
-1.1987334
-0.00048780003
-1.2813884
-0.00025436895
-1.3698043
0.029121238
-0.23520349
-0.12741277
-0.24897567
-0.17588785
-0.25790018
-0.13574591
-0.26649129
-0.032562447
-0.28418564
0.057922968
-0.32136626
0.077740268
-0.3648388
0.057642223
-0.40495851
0.019060594
-0.43717137
-0.019073462
-0.4602286
-0.038878273
-0.47939284
-0.037729603
-0.50232242
-0.026840897
-0.53211585
-0.015718319
-0.56825249
-0.0079497369
-0.60916291
-0.0035936799
-0.65356664
-0.0016397639
-0.70076963
-0.0010394216
-0.75058761
-0.0010117902
-0.80319357
-0.0011101227
-0.85895092
-0.0011572539
-0.91826756
-0.001115681
-0.98153503
-0.0010017708
-1.0490993
-0.00085667345
-1.1213389
-0.00068280144
-1.1985384
-0.00047985853
-1.2811629
-0.00025077086
-1.3695536
0.032304823
-0.21422842
-0.13550659
-0.22710968
-0.18935533
-0.23550819
-0.1494701
-0.24417599
-0.038427104
-0.26062663
0.070081046
-0.29634372
0.096541768
-0.34016776
0.07390577
-0.38110235
0.027465254
-0.41336316
-0.021916926
-0.43432791
-0.049314792
-0.44979208
-0.048397575
-0.46872487
-0.034143575
-0.49501974
-0.019354588
-0.52847958
-0.0090213265
-0.5671809
-0.0032829817
-0.60947361
-0.00081013286
-0.65439627
-0.00020829899
-0.70160075
-0.00041030138
-0.7511891
-0.00077350374
-0.80353019
-0.0010257075
-0.85908247
-0.0011191809
-0.91826406
-0.0010795675
-0.98145723
-0.00097619905
-1.0489798
-0.00084088309
-1.1211809
-0.00067243025
-1.1983459
-0.00047392581
-1.2809398
-0.00024814817
-1.3693054
0.035227767
-0.19493139
-0.14281175
-0.20692326
-0.20179367
-0.21467134
-0.16179564
-0.22318265
-0.043913551
-0.23868955
0.08213866
-0.27268424
0.11679737
-0.31659932
0.092228962
-0.35849096
0.037709309
-0.3913464
-0.025257073
-0.41002302
-0.06242705
-0.42121565
-0.061650888
-0.43653877
-0.043225178
-0.45964327
-0.023794979
-0.49057935
-0.010194849
-0.52730606
-0.0026862457
-0.56777764
0.00046550715
-0.61074925
0.0010712989
-0.65567587
0.00054940833
-0.70256046
-0.0001968342
-0.75176577
-0.00075588375
-0.80380002
-0.0010453662
-0.85915628
-0.0011180054
-0.91822563
-0.0010651469
-0.98136828
-0.00096474266
-1.048856
-0.00083061243
-1.1210227
-0.00066413496
-1.1981556
-0.00046848528
-1.2807194
-0.00024552629
-1.3690599
0.037908409
-0.17730328
-0.14929849
-0.18844464
-0.21324234
-0.19547458
-0.17275486
-0.20371212
-0.0486122
-0.218484
0.093911321
-0.25046221
0.13761312
-0.29349999
0.11233318
-0.33670353
0.050663515
-0.37144516
-0.027584448
-0.38901903
-0.077561035
-0.39488903
-0.077520475
-0.40534607
-0.054119426
-0.42564452
-0.029088508
-0.45434974
-0.011428273
-0.48934593
-0.0017131239
-0.52827918
0.0023096684
-0.5696218
0.0029298206
-0.61260778
0.0019826925
-0.65710916
0.00070143331
-0.70345873
-0.00030317441
-0.75221848
-0.00088259802
-0.80396279
-0.0011163056
-0.85915798
-0.0011360503
-0.91815472
-0.0010662459
-0.98126678
-0.00095938936
-1.0487272
-0.00082084405
-1.120866
-0.00065561684
-1.1979685
-0.00046265183
-1.2805023
-0.00024248658
-1.3688174
0.039719116
-0.1895457
-0.15500826
-0.1715935
-0.22372365
-0.17796334
-0.18246161
-0.18576783
-0.052418626
-0.19990569
0.10523432
-0.229807
0.15829769
-0.27114678
0.13285641
-0.31402323
0.064951725
-0.35099174
-0.027384079
-0.37164553
-0.093220375
-0.37335969
-0.095732682
-0.37667683
-0.06670569
-0.3927598
-0.035131626
-0.4196014
-0.012641116
-0.4531369
-0.00025459133
-0.49080446
0.0048520189
-0.53082153
0.0055120256
-0.572204
0.0040249457
-0.61465003
0.00202396
-0.65843168
0.00039118468
-0.70415309
-0.00061143189
-0.75248965
-0.0010764197
-0.80400267
-0.0011996945
-0.85909434
-0.0011617607
-0.91805921
-0.0010695459
-0.98115662
-0.00094873444
-1.0485993
-0.00080874301
-1.1207128
-0.00064621112
-1.197785
-0.00045619823
-1.2802886
-0.00023898107
-1.3685784
0.042000806
-0.18384341
-0.1601925
-0.18436146
-0.23322931
-0.16208784
-0.19101168
-0.16941327
-0.055351908
-0.18283455
0.11600248
-0.21067386
0.17828229
-0.2497916
0.15321855
-0.29150892
0.079351419
-0.32842292
-0.024481311
-0.35389451
-0.10872422
-0.35614169
-0.1160275
-0.35306487
-0.08155924
-0.36182328
-0.041726262
-0.38616517
-0.013684249
-0.41855827
0.0018170835
-0.45520857
0.0082270406
-0.49417948
0.0089734357
-0.53428294
0.0068308899
-0.57500995
0.0038946345
-0.6165207
0.0014031424
-0.65944364
-0.00020331267
-0.70456121
-0.0010047481
-0.75256132
-0.0012739557
-0.80392841
-0.0012745202
-0.85898158
-0.0011801358
-0.91794862
-0.0010605779
-0.98104478
-0.00093273735
-1.0484753
-0.00079545176
-1.1205636
-0.0006360921
-1.1976051
-0.00044906065
-1.2800785
-0.00023512052
-1.3683433
0.044571525
-0.17792502
-0.16430551
-0.1797304
-0.24276052
-0.17483025
-0.19850185
-0.15459767
-0.057565568
-0.16719961
0.1261243
-0.19295637
0.19715727
-0.22954884
0.17295874
-0.26953179
0.09367336
-0.30583086
-0.020583913
-0.33232032
-0.12326886
-0.33934987
-0.13850457
-0.33366462
-0.099987561
-0.33463655
-0.049416561
-0.35413298
-0.014325965
-0.38552345
0.0046391667
-0.42138035
0.012566904
-0.45954843
0.013468554
-0.4986746
0.010567857
-0.53801991
0.0064588186
-0.57757413
0.0028266637
-0.61794422
0.00037897156
-0.66002593
-0.00090606328
-0.70465989
-0.0013848544
-0.75245042
-0.0014343047
-0.80376863
-0.001320309
-0.85884141
-0.0011751829
-0.91783401
-0.0010393423
-0.98093817
-0.00091334876
-1.0483574
-0.0007801908
-1.1204195
-0.00062471339
-1.1974294
-0.00044132551
-1.2798723
-0.00023106691
-1.3681122
0.047344993
-0.17185331
-0.1674459
-0.17478463
-0.25128345
-0.17120747
-0.2081231
-0.165209
-0.059147557
-0.15301568
0.1355107
-0.17658601
0.2147533
-0.2105524
0.191599
-0.24818909
0.10764139
-0.28349982
-0.01782503
-0.30858975
-0.13698967
-0.31859951
-0.16305762
-0.31479682
-0.12233195
-0.31132023
-0.059942494
-0.32411062
-0.014527799
-0.35393114
0.0083729553
-0.38925724
0.017993196
-0.42680665
0.019140309
-0.46522019
0.015407493
-0.50351424
0.0098804018
-0.54144149
0.0047769659
-0.57952443
0.0011858191
-0.61875107
-0.00078552332
-0.66014647
-0.001567609
-0.70447714
-0.0016824881
-0.75220224
-0.0015281292
-0.80356081
-0.0013220801
-0.85869451
-0.0011461786
-0.91772718
-0.0010090818
-0.98084244
-0.00088972559
-1.0482479
-0.00076286708
-1.1202814
-0.00061260443
-1.1972581
-0.00043333308
-1.27967
-0.00022693872
-1.3678853
0.05030992
-0.1659619
-0.16959223
-0.16970698
-0.25864873
-0.16741935
-0.21669268
-0.16263789
-0.06650759
-0.15784897
0.14417904
-0.16168402
0.23102473
-0.19285744
0.20885591
-0.22780932
0.12083572
-0.26138343
-0.01638114
-0.28494371
-0.15095553
-0.29462388
-0.18715942
-0.29449771
-0.1470138
-0.29011497
-0.074437061
-0.29682566
-0.014870235
-0.32376818
0.013221796
-0.35877998
0.024597535
-0.39586158
0.026111831
-0.43377817
0.021515806
-0.4713285
0.014337345
-0.50797118
0.0073914017
-0.54405593
0.0022816231
-0.58062024
-0.00064431957
-0.61889228
-0.0018663269
-0.65984775
-0.0020778084
-0.70408182
-0.001857363
-0.75187301
-0.0015441921
-0.80333869
-0.0012822057
-0.85855848
-0.0010991824
-0.91763708
-0.00097184658
-0.98076032
-0.00086328532
-1.0481474
-0.00074488429
-1.1201491
-0.00060035731
-1.1970911
-0.00042529859
-1.2794717
-0.00022288875
-1.3676624
0.053402178
-0.16051024
-0.17074813
-0.164806
-0.26468847
-0.16366724
-0.22413994
-0.1599721
-0.073076172
-0.15606931
0.14533714
-0.15900707
0.2458974
-0.17655669
0.22461259
-0.20861411
0.13299959
-0.23997318
-0.015528432
-0.26223614
-0.16503853
-0.27086071
-0.20874394
-0.27303936
-0.17119891
-0.27031261
-0.091856504
-0.27269552
-0.016461403
-0.2952345
0.019376828
-0.32992322
0.032454849
-0.3666373
0.034461237
-0.40421099
0.029034241
-0.4412966
0.020013073
-0.47700423
0.01083211
-0.51141189
0.0037496927
-0.545524
-0.00048228871
-0.58078227
-0.0023360648
-0.61842254
-0.0026951932
-0.65923036
-0.0023795313
-0.70355965
-0.0018990174
-0.75151818
-0.0014882327
-0.80313267
-0.0012089806
-0.85844868
-0.0010393539
-0.91756957
-0.00093020246
-0.9806934
-0.00083590948
-1.0480564
-0.00072678751
-1.1200226
-0.00058817907
-1.1969282
-0.00041751283
-1.2792771
-0.00021904631
-1.3674434
0.056575378
-0.15561141
-0.17098879
-0.16026958
-0.26941318
-0.1600813
-0.23043991
-0.15736727
-0.078869248
-0.15417902
0.14660844
-0.15734061
0.25604702
-0.16915668
0.23873656
-0.19068067
0.14394446
-0.21955898
-0.015212599
-0.24028902
-0.17874549
-0.24852917
-0.22816376
-0.25144089
-0.19313154
-0.25110672
-0.11045748
-0.25171164
-0.020044382
-0.26911254
0.026627932
-0.3024856
0.041641963
-0.33911033
0.044212644
-0.3763887
0.038064428
-0.41324117
0.027081194
-0.44836472
0.015280668
-0.48145279
0.0057047313
-0.51336693
-0.00028918336
-0.5457171
-0.0030412509
-0.58007708
-0.0036288584
-0.61748887
-0.0031859849
-0.65842391
-0.002460909
-0.70299776
-0.0018185991
-0.75118781
-0.0013736572
-0.80296799
-0.0011122389
-0.8583758
-0.00097185738
-0.91752791
-0.00088721471
-0.9806421
-0.00080889781
-1.0479743
-0.00070940046
-1.1199014
-0.00057675701
-1.196769
-0.00041027993
-1.2790858
-0.0002155191
-1.3672278
0.059787422
-0.1513285
-0.17039081
-0.15620939
-0.27287849
-0.15680427
-0.23556611
-0.1549551
-0.083857604
-0.15237891
0.14797276
-0.15554334
0.26607951
-0.1673731
0.25211695
-0.18253707
0.15355698
-0.20029319
-0.01539068
-0.2193809
-0.19189859
-0.22713592
-0.24631079
-0.23038215
-0.2128443
-0.23172814
-0.12894324
-0.23262096
-0.026069111
-0.24568691
0.03421189
-0.2766965
0.052306972
-0.31315061
0.05528724
-0.35018493
0.048660681
-0.38698496
0.035701041
-0.42186102
0.020938862
-0.45402292
0.0082800018
-0.48402806
-5.8118853e-05
-0.51359799
-0.0040558469
-0.54470251
-0.0049947207
-0.57871122
-0.0043922702
-0.61628259
-0.0033252281
-0.65755959
-0.0023436233
-0.70247274
-0.0016404872
-0.75092098
-0.0012187466
-0.80286148
-0.0010026747
-0.85834498
-0.00090254316
-0.91751259
-0.00084553236
-0.98060546
-0.00078378417
-1.0478999
-0.00069363972
-1.1197845
-0.0005664398
-1.1966128
-0.00040374966
-1.2788976
-0.00021237701
-1.3670155
0.063039804
-0.14781026
-0.16894587
-0.15277344
-0.27509966
-0.15398822
-0.23951489
-0.15285549
-0.087953758
-0.15085895
0.14938824
-0.15379439
0.27574754
-0.16521137
0.26499354
-0.18024969
0.16852787
-0.19750795
-0.015589226
-0.20009464
-0.20415148
-0.20712801
-0.26313608
-0.21031064
-0.23073755
-0.21248889
-0.14618255
-0.21448883
-0.034112343
-0.22457772
0.041203016
-0.25267803
0.064322456
-0.28871199
0.067648825
-0.32551219
0.060814085
-0.36233833
0.046007542
-0.39729146
0.028028239
-0.4289504
0.011656231
-0.45739915
0.00027122685
-0.4843574
-0.0054529857
-0.51220085
-0.0069337769
-0.54276345
-0.0061407241
-0.57696276
-0.0046107258
-0.61499709
-0.0031520074
-0.65675121
-0.0020699738
-0.70204325
-0.0013966599
-0.75074307
-0.0010431357
-0.80282102
-0.00089086716
-0.85835666
-0.00083640322
-0.91752172
-0.00080749667
-0.98058175
-0.00076170725
-1.0478319
-0.00067980494
-1.1196712
-0.00055735523
-1.1964592
-0.00039807718
-1.2787119
-0.00020965476
-1.3668058
-0.14518825
0.066335469
-0.1666467
-0.15010943
-0.27614348
-0.15172962
-0.24233671
-0.15116639
-0.091076608
-0.14973264
0.15087671
-0.15234742
0.28478703
-0.16283387
0.27709308
-0.17731091
0.18285176
-0.19457358
-0.004114954
-0.20898223
-0.21543067
-0.18881545
-0.27861671
-0.19164737
-0.24685766
-0.19419053
-0.1616207
-0.19705074
-0.043142245
-0.20545892
0.047104546
-0.23047925
0.0773596
-0.26571518
0.08122524
-0.3022884
0.074445657
-0.33914377
0.058108887
-0.37443967
0.036780214
-0.40604343
0.016057649
-0.43335182
0.00076772529
-0.45789565
-0.007335189
-0.4824752
-0.0096174352
-0.50951719
-0.0086060766
-0.5402981
-0.0064615944
-0.5751119
-0.0043517309
-0.61379737
-0.0027365488
-0.65608463
-0.0016926178
-0.70174729
-0.0011194055
-0.7506668
-0.0008639995
-0.80284789
-0.0007848892
-0.85840817
-0.00077679393
-0.91755242
-0.00077454507
-0.98056891
-0.00074289647
-1.0477688
-0.00066830185
-1.1195602
-0.00054991955
-1.1963074
-0.00039333064
-1.2785282
-0.00020735447
-1.3665985
-0.14826056
-0.16357439
-0.1435421
0.069689874
-0.27615945
-0.15009346
-0.24412437
-0.14994196
-0.093285784
-0.14895722
0.15266369
-0.15151962
0.29289496
-0.16045536
0.28814978
-0.17389057
0.19625069
-0.19070984
0.0075617698
-0.2062503
-0.21548577
-0.20892713
-0.29291967
-0.1745125
-0.26123649
-0.17726853
-0.17521068
-0.18060055
-0.052148539
-0.18804445
0.05182405
-0.21017843
0.091015926
-0.24413558
0.095926641
-0.28041658
0.089407827
-0.31725057
0.07204827
-0.35308315
0.047426869
-0.38508633
0.02175625
-0.41174204
0.001544458
-0.43412855
-0.0097827651
-0.45544807
-0.013242699
-0.47884994
-0.01199952
-0.50612375
-0.0090506879
-0.537709
-0.0060700982
-0.57339353
-0.0037284647
-0.61280545
-0.0021625911
-0.65561466
-0.0012629182
-0.70160378
-0.00083624189
-0.75069456
-0.00069411172
-0.80293867
-0.00068912736
-0.85849584
-0.00072546477
-0.9176015
-0.00074737697
-0.98056443
-0.00072801297
-1.0477091
-0.00065952559
-1.1194506
-0.00054400734
-1.1961567
-0.00038947748
-1.2783461
-0.00020545193
-1.366393
-0.14906641
-0.2753536
-0.14734847
-0.15976802
-0.14290627
0.073030042
-0.24506339
-0.14915444
-0.09468124
-0.14854651
0.15486359
-0.15115712
0.29992713
-0.15855179
0.29789168
-0.17019725
0.20831618
-0.18595607
0.018736594
-0.20188466
-0.2140749
-0.20766117
-0.30332199
-0.19852481
-0.27399804
-0.16175095
-0.1871057
-0.16537351
-0.060533271
-0.17221582
0.055529749
-0.19175015
0.10484168
-0.22400418
0.11161181
-0.25982075
0.10552547
-0.29653422
0.087799712
-0.33300201
0.060194686
-0.36585097
0.029069492
-0.39239957
0.0027623946
-0.41295997
-0.012886544
-0.43102477
-0.018053242
-0.45063753
-0.016573809
-0.47427565
-0.012580199
-0.50259424
-0.0084532411
-0.53532586
-0.0051462111
-0.57197578
-0.0028707369
-0.6120973
-0.0015100661
-0.65536751
-0.0008242529
-0.70161577
-0.00056782998
-0.75082084
-0.00054085915
-0.80308694
-0.00060712224
-0.85861418
-0.0006844207
-0.91766446
-0.00072738685
-0.98056506
-0.00071774816
-1.0476508
-0.00065333282
-1.1193413
-0.00053967621
-1.1960065
-0.00038648934
-1.278165
-0.00020389765
-1.3661891
-0.14882058
-0.24530922
-0.14909614
-0.27360593
-0.14711649
-0.15555781
-0.14322085
0.076220235
-0.095152908
-0.14868277
0.15735492
-0.15103784
0.30600452
-0.15723451
0.30590385
-0.16656396
0.21887761
-0.18075869
0.029187776
-0.19640725
-0.21154331
-0.20441625
-0.3125572
-0.19842596
-0.28922896
-0.18329389
-0.19756964
-0.15128701
-0.068051904
-0.15785487
0.058387174
-0.17507324
0.11846386
-0.20537233
0.12803542
-0.24042779
0.12260173
-0.27689701
0.10523295
-0.31396745
0.075234856
-0.34804219
0.038341835
-0.37512331
0.0046560481
-0.39429322
-0.016733762
-0.40911276
-0.024332726
-0.42474529
-0.022631716
-0.44457962
-0.017285025
-0.46957082
-0.011665259
-0.49938222
-0.0070986312
-0.53337344
-0.0038868353
-0.57095968
-0.0019003846
-0.61170699
-0.00084570352
-0.65534606
-0.00040923633
-0.70177436
-0.00032677948
-0.75103492
-0.00041022975
-0.80328383
-0.00054295376
-0.85875565
-0.00065569715
-0.91773615
-0.00071504686
-0.98056776
-0.00071197387
-1.0475922
-0.00064976239
-1.1192312
-0.00053680615
-1.1958562
-0.0003842398
-1.2779847
-0.00020263549
-1.3659865
-0.14946418
-0.094509307
-0.14991604
-0.24448931
-0.14978473
-0.27093769
-0.14761324
-0.15116542
-0.14423546
0.079190932
0.16025695
-0.1515848
0.31124037
-0.15627368
0.3120729
-0.16340356
0.22764593
-0.17533228
0.03865229
-0.1902232
-0.20782995
-0.20012061
-0.32048414
-0.19648932
-0.30299787
-0.18465705
-0.21703278
-0.16383075
-0.07461853
-0.14472039
0.060594155
-0.16006186
0.13158365
-0.18819303
0.14487217
-0.22220909
0.14035918
-0.25818523
0.12403679
-0.29570086
0.09235553
-0.33108813
0.049676261
-0.35937661
0.0074427306
-0.37790999
-0.021378359
-0.38964863
-0.032405605
-0.40103988
-0.030530869
-0.41684613
-0.023430906
-0.43843374
-0.015882915
-0.46535317
-0.0096990595
-0.49678179
-0.005282168
-0.53197811
-0.0024732862
-0.57038678
-0.00091734835
-0.61163534
-0.00021957062
-0.65553572
-3.8565618e-05
-0.70206257
-0.00012217825
-0.75132297
-0.00030848072
-0.8035183
-0.00049871726
-0.85891263
-0.00063910437
-0.91781209
-0.00070997817
-0.98056976
-0.00071039418
-1.0475316
-0.0006485483
-1.1191195
-0.00053515902
-1.1957053
-0.00038261113
-1.2778047
-0.00020159235
-1.3657849
-0.15291412
0.16370689
-0.15143433
-0.092991025
-0.151824
-0.24245004
-0.15116958
-0.26738135
-0.14877666
-0.14662422
-0.14597458
0.081801199
0.3154878
-0.15583223
0.31662375
-0.16082454
0.23430117
-0.1700588
0.046802851
-0.18348284
-0.2034687
-0.19458445
-0.3270821
-0.19352265
-0.31514167
-0.18434551
-0.23489917
-0.16679066
-0.095961749
-0.14248753
0.062526171
-0.1466524
0.14391027
-0.17238847
0.16182183
-0.2051427
0.1584477
-0.24029761
0.14357003
-0.27771848
0.11073686
-0.31408219
0.062431784
-0.34384365
0.01073918
-0.36267306
-0.0271048
-0.37218355
-0.042629582
-0.37942465
-0.040687155
-0.39088359
-0.031315291
-0.40896175
-0.021287192
-0.43302946
-0.01305934
-0.46199289
-0.0071214241
-0.49494254
-0.0032653089
-0.53118608
-0.0010516174
-0.57025251
3.9063285e-06
-0.61185882
0.00033623319
-0.65591052
0.00027452416
-0.70245928
3.7450969e-05
-0.7516689
-0.00023833129
-0.80377869
-0.00047389901
-0.85907783
-0.00063405803
-0.91788801
-0.00071154941
-0.9805686
-0.00071259379
-1.0474675
-0.00064932385
-1.1190053
-0.00053457103
-1.1955533
-0.00038145234
-1.2776249
-0.00020070215
-1.3655842
-0.15604797
0.31862165
-0.15460203
0.16687459
-0.15446708
-0.090347943
-0.15450369
-0.23911593
-0.15332402
-0.26283399
-0.15063922
-0.14195958
-0.14837125
0.083983559
0.3196144
-0.15882289
0.23870719
-0.16523055
0.053393463
-0.17664941
-0.19874077
-0.18821078
-0.3321841
-0.18948245
-0.32567194
-0.18299238
-0.25117472
-0.16806997
-0.11625261
-0.14649979
0.048159242
-0.1281206
0.15574081
-0.15848295
0.17853831
-0.18910494
0.17648892
-0.22318392
0.16313873
-0.2598663
0.12911317
-0.29609479
0.075207793
-0.32685819
0.013316238
-0.34642071
-0.035327163
-0.3544507
-0.055696814
-0.35911632
-0.053601745
-0.36651006
-0.041272195
-0.38092669
-0.02805222
-0.40219672
-0.017276919
-0.42881188
-0.0094589999
-0.45965531
-0.0043019838
-0.49390586
-0.001255096
-0.53098261
0.00027039613
-0.570519
0.00081721671
-0.6123398
0.00080341085
-0.65643941
0.0005192326
-0.70294106
0.00014815877
-0.75205539
-0.0001987969
-0.80405379
-0.00046724514
-0.85924465
-0.00063949842
-0.91796006
-0.00071902376
-0.98056217
-0.00071793318
-1.0473989
-0.00065175631
-1.1188881
-0.00053473294
-1.1954
-0.00038061015
-1.277445
-0.00019989257
-1.3653843
-0.15750053
0.32106696
-0.15620578
0.32022541
-0.15757892
0.16998643
-0.15831698
-0.086534656
-0.15802259
-0.23441735
-0.15626822
-0.257205
-0.15318614
-0.13714469
-0.1513223
0.085748807
0.24090579
-0.16102149
0.058170609
-0.1700077
-0.19384951
-0.18154066
-0.33561468
-0.1847802
-0.33438298
-0.18077142
-0.26574552
-0.16842158
-0.13509246
-0.14923012
0.032782269
-0.13112282
0.15550763
-0.12788742
0.19477609
-0.17472073
0.19410258
-0.2067186
0.18212631
-0.2421715
0.14676519
-0.27751832
0.086971846
-0.30785885
0.014562835
-0.32810479
-0.048232251
-0.33351562
-0.073047158
-0.33710035
-0.069827582
-0.34289048
-0.053674996
-0.35410726
-0.036339991
-0.37263891
-0.022419541
-0.3970541
-0.01232964
-0.42594124
-0.0055933288
-0.45836397
-0.0015228453
-0.49363811
0.00059978303
-0.53131199
0.0014305671
-0.57113235
0.0014952184
-0.61303161
0.0011676143
-0.65708779
0.00068982731
-0.70348273
0.00021151194
-0.7524657
-0.00018761291
-0.80433342
-0.00047701043
-0.85940713
-0.00065413604
-0.91802495
-0.00073144858
-0.98054866
-0.000725825
-1.0473248
-0.00065537652
-1.1187675
-0.00053541855
-1.1952452
-0.00037994049
-1.2772649
-0.00019910113
-1.3651852
-0.1576044
0.24100966
-0.15608776
0.32094894
-0.15803587
0.32068235
-0.16116044
0.17282989
-0.16288149
-0.081675758
-0.16223698
-0.22844859
-0.15985797
-0.25053316
-0.15629268
-0.13217431
-0.15469248
0.087040081
0.060944966
-0.16379585
-0.18895091
-0.17490629
-0.3374125
-0.17974284
-0.34119614
-0.17796704
-0.27851002
-0.16800691
-0.15229068
-0.15122336
0.017453135
-0.13390099
0.15432858
-0.12994377
0.20358363
-0.13669496
0.21099562
-0.19161377
0.20018917
-0.22478146
0.16346538
-0.25887169
0.097836277
-0.28838275
0.014809196
-0.30810521
-0.065254754
-0.31108229
-0.095787568
-0.31077521
-0.089616569
-0.31731137
-0.068627023
-0.32793845
-0.046288708
-0.34415854
-0.028512786
-0.36654567
-0.015736451
-0.39364729
-0.0071309343
-0.42440363
-0.0018351583
-0.45805165
0.0010169708
-0.4940553
0.0022110504
-0.53209248
0.002388443
-0.57202558
0.002021439
-0.61388543
0.0014226123
-0.65782058
0.00078893716
-0.70406015
0.00023151918
-0.75288483
-0.00020183873
-0.80460859
-0.00050102969
-0.85956024
-0.00067649509
-0.9180799
-0.00074780453
-0.98052668
-0.00073555632
-1.0472447
-0.00065978512
-1.1186431