/*--------------------------------*- C++ -*----------------------------------*\
| =========                 |                                                 |
| \\      /  F ield         | OpenFOAM: The Open Source CFD Toolbox           |
|  \\    /   O peration     | Version:  5.0                                   |
|   \\  /    A nd           | Web:      www.OpenFOAM.org                      |
|    \\/     M anipulation  |                                                 |
\*---------------------------------------------------------------------------*/
FoamFile
{
    version     2.0;
    format      ascii;
    class       surfaceScalarField;
    location    "140";
    object      phi_0;
}
// * * * * * * * * * * * * * * * * * * * * * * * * * * * * * * * * * * * * * //

dimensions      [0 3 -1 0 0 0 0];

internalField   nonuniform List<scalar> 
18180
(
-0.0011794521
-1.3865458
-0.0023054479
-1.2968727
-0.0012029573
-1.3853428
-0.0033693722
-1.2131773
-0.0023584907
-1.2957171
-0.0011837307
-1.3841591
-0.0043880434
-1.1350562
-0.0034723486
-1.2120635
-0.0023212754
-1.2945796
-0.0011526347
-1.3830064
-0.0053490669
-1.0621005
-0.00456625
-1.1339623
-0.0034217625
-1.210963
-0.0022579318
-1.2934743
-0.0011078831
-1.3818986
-0.0062412401
-0.99396844
-0.0056571993
-1.0610096
-0.004509817
-1.1328743
-0.00332442
-1.2098965
-0.0021629593
-1.2924192
-0.0010594579
-1.3808391
-0.0070559097
-0.93031982
-0.0067672703
-0.99285837
-0.0056147704
-1.0599046
-0.0043755159
-1.1318232
-0.0031733229
-1.2088862
-0.0020606244
-1.2914181
-0.001013953
-1.3798251
-0.0077987219
-0.87086435
-0.0079252927
-0.9291618
-0.0067786408
-0.99169449
-0.0054380669
-1.058842
-0.0041518265
-1.1308447
-0.003011756
-1.207935
-0.0019655227
-1.2904665
-0.00097160163
-1.3788535
-0.0084483958
-0.81534485
-0.0091674167
-0.86962223
-0.008059159
-0.92788128
-0.0065454953
-0.99058707
-0.0051085993
-1.0578853
-0.0039163013
-1.1299401
-0.0028666173
-1.2070339
-0.001881267
-1.2895568
-0.00092843243
-1.3779251
-0.0089503713
-0.76348882
-0.01060065
-0.81391161
-0.0095441153
-0.86813727
-0.0077382879
-0.92668849
-0.0060525085
-0.98964316
-0.0047695043
-1.0570321
-0.0037156926
-1.129091
-0.0027457591
-1.2061694
-0.001800992
-1.2886843
-0.00088140425
-1.3770437
-0.0092593151
-0.71515288
-0.012318949
-0.76177052
-0.011318372
-0.81213736
-0.0090574948
-0.86681806
-0.0069920491
-0.92574895
-0.0055595796
-0.98885308
-0.0045029462
-1.0562448
-0.003562979
-1.1282738
-0.0026362417
-1.2053342
-0.0017164363
-1.2878492
-0.00082941738
-1.3762143
-0.0093331972
-0.67014811
-0.014462154
-0.71300968
-0.013431908
-0.75965699
-0.010534061
-0.81066079
-0.0079246095
-0.8658855
-0.0062658926
-0.92504263
-0.0052052165
-0.98815081
-0.0043252741
-1.0554825
-0.0034346841
-1.1274754
-0.0025214508
-1.2045292
-0.0016218176
-1.2870568
-0.000772499
-1.3754418
-0.0091490945
-0.62826886
-0.017169528
-0.66744074
-0.016017025
-0.71042456
-0.012259192
-0.75793186
-0.0088410518
-0.80974435
-0.006854343
-0.86529705
-0.0057873033
-0.92446055
-0.0050095539
-0.98746653
-0.0041950573
-1.0547222
-0.0033033242
-1.1266935
-0.0023893053
-1.2037617
-0.0015138154
-1.2863155
-0.00071083316
-1.374731
-0.0087078558
-0.58931116
-0.020581268
-0.62485712
-0.019273895
-0.66418387
-0.014339354
-0.7083444
-0.0097355761
-0.75703733
-0.0072501936
-0.8093485
-0.0061930684
-0.86489129
-0.0055813205
-0.92388878
-0.0049022548
-0.98675933
-0.004069119
-1.0539564
-0.0031465823
-1.1259362
-0.002233303
-1.2030422
-0.0013922628
-1.2856341
-0.00064535253
-1.3740856
-0.0080257158
-0.55303964
-0.02484065
-0.58505177
-0.023423314
-0.6207077
-0.016885094
-0.66163813
-0.010619308
-0.70746067
-0.0073537157
-0.75693381
-0.0063137839
-0.80922778
-0.0059713269
-0.86450128
-0.0055280126
-0.92326302
-0.0048199762
-0.98600848
-0.0039101724
-1.0531928
-0.0029492579
-1.1252203
-0.0020529209
-1.2023815
-0.0012607536
-1.2850187
-0.00057860708
-1.373507
-0.0070897628
-0.51915004
-0.030091344
-0.54778895
-0.028699685
-0.5797754
-0.020029704
-0.61756309
-0.011490562
-0.66076688
-0.00709821
-0.70771617
-0.0060386012
-0.75720899
-0.0061108843
-0.80908823
-0.0060215786
-0.86400771
-0.0055531754
-0.92252982
-0.0046993012
-0.98521935
-0.0036860812
-1.0524559
-0.0027094445
-1.1245637
-0.0018539174
-1.2017884
-0.0011260275
-1.2844713
-0.00051425281
-1.3729927
-0.0059031877
-0.48725611
-0.036467053
-0.51277434
-0.035325334
-0.5411633
-0.023920202
-0.5758849
-0.012348406
-0.61670525
-0.0063741808
-0.66149091
-0.0052125563
-0.70854222
-0.0059378347
-0.75738204
-0.0064045581
-0.80870525
-0.0062844796
-0.86327641
-0.0055441624
-0.92168496
-0.0044746538
-0.98443078
-0.0033860412
-1.0517793
-0.002436932
-1.1239807
-0.00164769
-1.2012667
-0.00099593797
-1.2839896
-0.00045560094
-1.3725371
-0.0046078899
-0.45742397
-0.044040471
-0.47968269
-0.043491343
-0.50460833
-0.028692855
-0.53639064
-0.013190635
-0.57504268
-0.0050484722
-0.61803096
-0.0036774951
-0.66302597
-0.0052571757
-0.70922288
-0.0066540767
-0.75713252
-0.0070558215
-0.8079339
-0.0065052633
-0.86231531
-0.0053609163
-0.9207987
-0.0041153378
-0.98370148
-0.0030270734
-1.0511892
-0.0021490677
-1.1234794
-0.0014473939
-1.2008153
-0.00087728948
-1.2835679
-0.00040480878
-1.3721323
-0.0025481178
-0.43053
-0.052757035
-0.44870741
-0.053255625
-0.46991841
-0.034421228
-0.49887995
-0.014012369
-0.53556891
-0.0029708611
-0.57712029
-0.0012363348
-0.62047212
-0.003898393
-0.66438475
-0.0066678855
-0.70920907
-0.0078574459
-0.7563309
-0.0076235915
-0.80681558
-0.0064106527
-0.86126557
-0.0049422159
-0.91997182
-0.0036488332
-0.98307972
-0.0026397159
-1.0506986
-0.0018671404
-1.1230596
-0.0012643216
-1.2004282
-0.00077462797
-1.2831981
-0.00036308491
-1.3717693
0.00090793955
-0.40667555
-0.062065556
-0.42122148
-0.064503981
-0.43745905
-0.041150403
-0.46318924
-0.014791698
-0.49810062
2.2062885e-05
-0.53856184
0.0023355565
-0.58069218
-0.0016658495
-0.62270466
-0.0063117374
-0.6647409
-0.0087332122
-0.7083333
-0.0089581431
-0.75499635
-0.0076827015
-0.80554353
-0.0059209544
-0.86028684
-0.0043370249
-0.91928363
-0.0031325381
-0.9825869
-0.0022579848
-1.0503077
-0.0016100842
-1.1227138
-0.0011061873
-1.2000967
-0.00069012797
-1.282871
-0.00033086081
-1.3714384
0.0059991264
-0.38304623
-0.071323725
-0.39741738
-0.07760396
-0.4081215
-0.049215142
-0.42939432
-0.015478547
-0.46250239
0.0040925798
-0.50217114
0.0072838489
-0.54351013
0.0016712737
-0.5840293
-0.0054444805
-0.62357192
-0.0096988251
-0.66377529
-0.010634559
-0.70665688
-0.0092913062
-0.75338774
-0.0071206665
-0.80434382
-0.0051291225
-0.85949474
-0.003645142
-0.91877103
-0.0026215361
-0.98222335
-0.0019117399
-1.0500061
-0.0013906612
-1.1224294
-0.00097690428
-1.1998099
-0.00062395422
-1.2825779
-0.00030737099
-1.371131
0.011671153
-0.35805661
-0.079565155
-0.3748048
-0.093188118
-0.38183322
-0.059474129
-0.39786251
-0.016241402
-0.42863146
0.0093824051
-0.46779221
0.013842068
-0.50872936
0.0063689776
-0.54820783
-0.0039060647
-0.58556772
-0.010757333
-0.62251341
-0.012791086
-0.66161876
-0.011389628
-0.70455856
-0.0086471317
-0.75186128
-0.006076852
-0.80339609
-0.0041933542
-0.85894653
-0.0029569615
-0.9184356
-0.0021610924
-0.98197399
-0.0016208178
-1.0497759
-0.0012145543
-1.1221917
-0.00087691954
-1.1995569
-0.00057462264
-1.2823107
-0.00029051883
-1.3708405
0.016470758
-0.33229116
-0.08779828
-0.34982348
-0.11094974
-0.35704318
-0.072828661
-0.36847869
-0.017743766
-0.39636015
0.016022986
-0.43527204
0.022232388
-0.47618253
0.012707019
-0.5150674
-0.0015120339
-0.55060186
-0.011913198
-0.58441185
-0.015597719
-0.61970678
-0.014172094
-0.65883629
-0.010633115
-0.70257258
-0.0072446113
-0.75069352
-0.0047963171
-0.80279312
-0.0032574141
-0.85864607
-0.0023430488
-0.91825365
-0.0017810781
-0.98181373
-0.0013935521
-1.0495969
-0.0010811109
-1.1219875
-0.00080376269
-1.1993278
-0.00053941198
-1.2820618
-0.00027778935
-1.3705627
0.020745316
-0.30663951
-0.09701158
-0.32307786
-0.12907838
-0.33169484
-0.089215943
-0.3406559
-0.020627417
-0.36559504
0.024081022
-0.40441818
0.032661861
-0.44570152
0.020945944
-0.48442146
0.0019408573
-0.51852029
-0.013171272
-0.54934379
-0.019259903
-0.58074967
-0.017879295
-0.61599957
-0.013250814
-0.65621859
-0.0087143869
-0.7011028
-0.0054737217
-0.75001612
-0.0035107018
-0.80253984
-0.0024327649
-0.85855636
-0.001849002
-0.91818572
-0.0014939819
-0.9817133
-0.0012279608
-1.0494501
-0.0009853941
-1.1218059
-0.0007528348
-1.1991144
-0.00051493709
-1.2818246
-0.00026755909
-1.3702952
0.024914695
-0.28188581
-0.10644976
-0.29720133
-0.14591474
-0.3062415
-0.10642096
-0.31448982
-0.024810898
-0.33647242
0.033560031
-0.37507405
0.045329384
-0.41708571
0.031295324
-0.4560509
0.0066970264
-0.48917763
-0.014515172
-0.51717639
-0.024026352
-0.54457734
-0.022794562
-0.5758344
-0.016700831
-0.61254956
-0.010584369
-0.65434861
-0.0062468088
-0.70032972
-0.0036961581
-0.74983066
-0.0023942331
-0.80257837
-0.0017891686
-0.85861619
-0.001492315
-0.91818739
-0.001296987
-0.98164428
-0.0011148318
-1.0493206
-0.0009204914
-1.1216382
-0.00071853647
-1.1989108
-0.0004980353
-1.2815942
-0.00025949132
-1.3700357
0.02884449
-0.25795384
-0.11551334
-0.27282223
-0.1612302
-0.28188587
-0.12264435
-0.29001812
-0.030037512
-0.3092632
0.044310626
-0.34722302
0.060291053
-0.39003572
0.043784813
-0.4295752
0.012885493
-0.46223936
-0.015968118
-0.48772468
-0.030188784
-0.51101396
-0.029244931
-0.53812697
-0.02120921
-0.57132602
-0.012963179
-0.61017075
-0.0071349036
-0.65346052
-0.0037828354
-0.70024304
-0.002176374
-0.75004852
-0.0015514973
-0.80281604
-0.0013508584
-0.85875765
-0.00126651
-0.91821787
-0.0011757851
-0.98158332
-0.0010419084
-1.0491992
-0.00087887155
-1.1214779
-0.00069571862
-1.1987131
-0.00048646571
-1.2813672
-0.00025383569
-1.3697818
0.032480598
-0.23537027
-0.12403961
-0.24942757
-0.17566216
-0.25839026
-0.13766856
-0.26686165
-0.036034977
-0.28402066
0.055813466
-0.32076604
0.077278452
-0.36421041
0.058259839
-0.40451074
0.020380211
-0.43706991
-0.017701869
-0.46050561
-0.038106978
-0.47980649
-0.037598042
-0.50266085
-0.027024842
-0.53231134
-0.015966602
-0.5683226
-0.008153548
-0.6091521
-0.0037275598
-0.65351579
-0.0017113052
-0.70070811
-0.0010676584
-0.75053236
-0.0010161029
-0.80315079
-0.0011044539
-0.8589197
-0.0011491893
-0.91824446
-0.0011091115
-0.98151612
-0.00099703116
-1.049081
-0.00085324802
-1.1213204
-0.00068064646
-1.1985189
-0.00047864889
-1.2811424
-0.00025027154
-1.3695316
0.035817651
-0.21438474
-0.13187227
-0.22753761
-0.18912813
-0.2359616
-0.15153863
-0.2445202
-0.042409094
-0.26048754
0.067499084
-0.29570627
0.095990695
-0.33947829
0.074640888
-0.38059146
0.029120173
-0.41325071
-0.020069446
-0.43470234
-0.048281463
-0.45033113
-0.048244629
-0.4691599
-0.034414721
-0.49527097
-0.019708451
-0.52856949
-0.0093100327
-0.56716611
-0.0034737358
-0.60940593
-0.00091340253
-0.6543137
-0.00024939017
-0.70152638
-0.00041598388
-0.75113248
-0.00076411021
-0.80349114
-0.0010129265
-0.85905597
-0.0011084338
-0.91824514
-0.0010724801
-0.98144067
-0.00097116003
-1.0489631
-0.00083762297
-1.1211634
-0.00067053856
-1.198327
-0.00047293949
-1.2809197
-0.00024775595
-1.3692838
0.038870475
-0.19507822
-0.1389328
-0.20732421
-0.20158339
-0.21508236
-0.16401172
-0.2234885
-0.048358977
-0.23857032
0.079045042
-0.27203349
0.11613617
-0.31585175
0.09305571
-0.35789311
0.039689472
-0.39116076
-0.022866934
-0.41045322
-0.061100827
-0.42188297
-0.061495672
-0.43708008
-0.043617734
-0.45995689
-0.024289635
-0.49068979
-0.010595006
-0.52728452
-0.0029517864
-0.56768806
0.00031975074
-0.61063908
0.0010125397
-0.65557563
0.00054198239
-0.70248434
-0.00018164856
-0.75171494
-0.00073566268
-0.8037684
-0.0010280776
-0.85913632
-0.0011066649
-0.91821095
-0.0010576732
-0.98135416
-0.00095983715
-1.0488409
-0.0008278496
-1.1210061
-0.00066267729
-1.1981373
-0.00046779493
-1.2806997
-0.00024528781
-1.3690385
0.041661198
-0.17744136
-0.14519303
-0.188818
-0.21306262
-0.19584498
-0.1751182
-0.20397588
-0.053472034
-0.21837545
0.090291686
-0.24981696
0.13683911
-0.29273644
0.11327737
-0.33607341
0.052936055
-0.37113969
-0.024619846
-0.38940785
-0.075933675
-0.39562037
-0.077398334
-0.40598031
-0.05467824
-0.42601958
-0.029767138
-0.45447938
-0.011971114
-0.48931368
-0.0020743262
-0.52816198
0.0021084634
-0.56947678
0.0028474453
-0.61247399
0.0019730124
-0.65700666
0.00072519083
-0.70339118
-0.00027158512
-0.75217901
-0.0008554768
-0.803941
-0.0010977481
-0.85914524
-0.0011246145
-0.91814401
-0.0010590294
-0.98125497
-0.00095542709
-1.0487133
-0.00081887447
-1.1208499
-0.00065467274
-1.1979504
-0.00046228342
-1.2804827
-0.00024240977
-1.3687961
0.043551208
-0.189671
-0.15069356
-0.17194083
-0.22358607
-0.17829455
-0.18496997
-0.1859932
-0.057648598
-0.19979932
0.10109562
-0.22917938
0.15742167
-0.27039952
0.13392386
-0.31338292
0.06753339
-0.35067074
-0.023809806
-0.37194973
-0.091243888
-0.37409764
-0.095639935
-0.37737877
-0.067474246
-0.39318431
-0.03604254
-0.41974418
-0.013361977
-0.45308852
-0.00073441791
-0.49065359
0.0045807022
-0.53063422
0.0053987442
-0.57202807
0.0040121463
-0.61451312
0.0020598261
-0.65834129
0.00043945392
-0.70410222
-0.00056950407
-0.75246499
-0.0010469565
-0.80399179
-0.0011817517
-0.8590881
-0.0011511132
-0.91805193
-0.0010637751
-0.98114662
-0.00094608323
-1.0485861
-0.0008075429
-1.120697
-0.00064577095
-1.1977669
-0.00045614777
-1.2802689
-0.00023905091
-1.3685571
0.045894212
-0.18396597
-0.15565837
-0.18470619
-0.2331433
-0.16238359
-0.19366266
-0.16960186
-0.060915417
-0.18272638
0.11137214
-0.21007584
0.17732314
-0.24908086
0.1544262
-0.29090186
0.08225924
-0.32810878
-0.020341759
-0.35413879
-0.1062859
-0.35690772
-0.11588331
-0.35385426
-0.082544243
-0.36230877
-0.042917599
-0.38630925
-0.014619456
-0.4184867
0.0011947716
-0.45501771
0.007869553
-0.49394244
0.0088204588
-0.53405593
0.0068135747
-0.5748295
0.0039468921
-0.61640019
0.0014750961
-0.65937693
-0.00013969042
-0.70453203
-0.00095914152
-0.7525528
-0.0012457981
-0.80392775
-0.0012585555
-0.85898066
-0.0011717747
-0.91794393
-0.0010569164
-0.98103579
-0.000931285
-1.0484624
-0.00079504714
-1.1205477
-0.00063617503
-1.1975869
-0.00044930427
-1.2800587
-0.00023531303
-1.3683217
0.048509432
-0.1780439
-0.15955681
-0.18006753
-0.24268915
-0.17516034
-0.2012843
-0.15476195
-0.06342524
-0.16709204
0.12104126
-0.1923955
0.1961366
-0.2288893
0.17429366
-0.26894832
0.096893869
-0.30553649
-0.015857655
-0.33259288
-0.1202624
-0.34016228
-0.13820488
-0.33458615
-0.10114626
-0.33525224
-0.050943785
-0.35428259
-0.015509423
-0.38541928
0.0038515512
-0.42114348
0.012106785
-0.45925494
0.013265696
-0.49838768
0.01054368
-0.53778603
0.0065322756
-0.57741489
0.0029311809
-0.61785627
0.00047365644
-0.65999028
-0.00083687481
-0.7046543
-0.0013415476
-0.75245705
-0.0014101817
-0.80377612
-0.0013082551
-0.85884418
-0.0011701038
-0.91783074
-0.0010376997
-0.98092937
-0.00091315955
-1.0483443
-0.00078061361
-1.1204033
-0.00062527262
-1.1974109
-0.00044181823
-1.2798522
-0.00023135687
-1.3680904
0.05131221
-0.17196441
-0.16249467
-0.17510605
-0.25123625
-0.17152043
-0.21095091
-0.16549373
-0.065277837
-0.15290936
0.13002285
-0.17607362
0.2136934
-0.2099523
0.1930463
-0.24764193
0.11117659
-0.28323104
-0.012474616
-0.30891953
-0.13339162
-0.31946366
-0.16251672
-0.31585045
-0.12361324
-0.31211918
-0.061881711
-0.32431431
-0.016006699
-0.35378531
0.0074008769
-0.38896861
0.017414248
-0.42645094
0.018875954
-0.4648652
0.015372672
-0.50321667
0.0099799174
-0.54123368
0.0049249868
-0.57940869
0.0013237322
-0.61870634
-0.0006827432
-0.66014441
-0.0015022681
-0.70449358
-0.001646138
-0.7522211
-0.0015104418
-0.80357393
-0.0013149375
-0.85869934
-0.0011442889
-0.91772415
-0.0010093573
-0.98083317
-0.00089075708
-1.0482341
-0.00076398482
-1.1202646
-0.00061355043
-1.1972392
-0.00043402521
-1.2796495
-0.00022729835
-1.3678631
0.054292682
-0.1660623
-0.16445848
-0.17000059
-0.25863473
-0.16770757
-0.21956374
-0.1629076
-0.072835114
-0.15793646
0.13832262
-0.16120912
0.22993372
-0.19231395
0.21040597
-0.22731198
0.12468426
-0.2611496
-0.010382316
-0.28532334
-0.14682202
-0.29548913
-0.18640736
-0.29557302
-0.14843004
-0.29103364
-0.076851687
-0.2971492
-0.016741132
-0.32357988
0.012048975
-0.35843341
0.023885316
-0.39543967
0.025773206
-0.43334819
0.021464763
-0.47095729
0.014466966
-0.50770372
0.0075955622
-0.54390425
0.00247873
-0.58056369
-0.00049468727
-0.6188944
-0.0017694198
-0.65987726
-0.0020235655
-0.70411615
-0.0018311784
-0.75190036
-0.0015339982
-0.80335487
-0.0012799763
-0.85856366
-0.0011002394
-0.91763327
-0.00097389309
-0.98075004
-0.00086533874
-1.0481328
-0.00074658953
-1.1201316
-0.00060162503
-1.1970716
-0.00042613278
-1.2794507
-0.00022328844
-1.3676398
0.057387374
-0.16059777
-0.16545629
-0.1650645
-0.26470779
-0.16392752
-0.22704678
-0.16022453
-0.079586577
-0.15615614
0.1390423
-0.15865614
0.24479744
-0.17607284
0.22626071
-0.20816869
0.13715312
-0.23978084
-0.0089008778
-0.26263104
-0.16043278
-0.27171258
-0.20787175
-0.27402474
-0.17276998
-0.27123309
-0.094734308
-0.27315102
-0.018858728
-0.29503161
0.01797887
-0.32950978
0.031599479
-0.36614757
0.034035574
-0.40370204
0.028959827
-0.44084325
0.020175733
-0.47666606
0.011105029
-0.51121318
0.0040268109
-0.54545233
-0.00026958981
-0.58078879
-0.0021946008
-0.61846922
-0.0026153642
-0.65928546
-0.0023410706
-0.70360626
-0.0018844352
-0.75154992
-0.0014856314
-0.80314922
-0.001211341
-0.85845255
-0.0010430752
-0.91756409
-0.000933748
-0.98068163
-0.00083880938
-1.0480406
-0.0007289569
-1.1200042
-0.00058966102
-1.196908
-0.00041842566
-1.2792555
-0.00021945735
-1.3674203
0.060552418
-0.15568347
-0.16556427
-0.16048979
-0.26946214
-0.16031016
-0.23337719
-0.15759711
-0.085547441
-0.15426366
0.13989965
-0.15701349
0.25480386
-0.16866256
0.24048211
-0.19029424
0.14838654
-0.21940211
-0.0079961429
-0.24068557
-0.17369293
-0.24937089
-0.22724466
-0.25233967
-0.19479831
-0.25199641
-0.11370265
-0.25226474
-0.023069872
-0.26893988
0.024946312
-0.30199905
0.04064557
-0.33855587
0.043687945
-0.37579994
0.03795707
-0.41269929
0.027277184
-0.4479447
0.015636237
-0.48119727
0.0060803818
-0.51326675
5.4953912e-06
-0.54572742
-0.0028374135
-0.58014597
-0.0035130805
-0.6175715
-0.0031302636
-0.65849627
-0.0024402252
-0.70305047
-0.0018156766
-0.75121988
-0.0013781007
-0.80298246
-0.0011185846
-0.85837705
-0.00097776744
-0.91752007
-0.00089194848
-0.98062849
-0.00081242805
-1.0479571
-0.00071186077
-1.119882
-0.00057835223
-1.1967481
-0.00041121393
-1.2790638
-0.00021591532
-1.3672044
0.06374545
-0.15137951
-0.1648612
-0.15638654
-0.27295205
-0.15699987
-0.23853136
-0.15515599
-0.09068309
-0.15246146
0.14088154
-0.15524555
0.26469657
-0.1669062
0.25379279
-0.18197324
0.15826778
-0.20017548
-0.0076315163
-0.21976674
-0.18643098
-0.22794753
-0.24539669
-0.23121885
-0.21457395
-0.23256404
-0.13246433
-0.23323473
-0.029747726
-0.24558689
0.032159509
-0.27615307
0.051175732
-0.31252921
0.054652493
-0.34952041
0.048507372
-0.38635024
0.035925821
-0.42134792
0.0213891
-0.45369757
0.0087822503
-0.48389913
0.00035899593
-0.51362025
-0.0037647712
-0.54480006
-0.0048291544
-0.5788299
-0.0043128419
-0.61638892
-0.0032963555
-0.65764014
-0.0023405485
-0.7025256
-0.0016481089
-0.75094987
-0.001229037
-0.80287201
-0.0010121426
-0.85834267
-0.00091008826
-0.91750193
-0.00085113621
-0.98058978
-0.00078770011
-1.0478812
-0.00069625319
-1.1197641
-0.00056806554
-1.1965913
-0.00040465212
-1.278875
-0.00021273618
-1.3669917
0.066969428
-0.14783662
-0.16333645
-0.15290426
-0.27519053
-0.15414806
-0.24250369
-0.15302755
-0.094904333
-0.15093474
0.14195231
-0.15353223
0.27423122
-0.16478019
0.26660929
-0.1797227
0.17326939
-0.19697486
-0.0073682835
-0.20043871
-0.19830953
-0.20788818
-0.26226539
-0.21107883
-0.2325481
-0.2132447
-0.14991829
-0.21511008
-0.038435113
-0.22454734
0.038678587
-0.25210597
0.063048086
-0.28802543
0.066900679
-0.3247774
0.060596138
-0.36160918
0.046250441
-0.39667486
0.028581219
-0.42854004
0.012314468
-0.45722978
0.00084403685
-0.48438417
-0.0050486459
-0.51233638
-0.0067002104
-0.542929
-0.0060294252
-0.57711331
-0.0045713145
-0.61511396
-0.0031493017
-0.65683138
-0.0020824836
-0.70209122
-0.0014128304
-0.75076607
-0.0010578572
-0.80282629
-0.00090256165
-0.8583502
-0.00084508296
-0.91750798
-0.00081361925
-0.98056386
-0.00076579246
-1.0478117
-0.00068244614
-1.1196497
-0.00055892174
-1.196437
-0.00039890072
-1.2786889
-0.00020995878
-1.3667817
-0.14518913
0.070229733
-0.16097898
-0.15019409
-0.27624012
-0.15185467
-0.24534118
-0.15131057
-0.098139313
-0.14979257
0.14314736
-0.1521298
0.28314788
-0.16244889
0.27865864
-0.17682954
0.18765558
-0.19410889
0.0044829592
-0.2088261
-0.20921765
-0.1895306
-0.2778056
-0.19234796
-0.24875197
-0.19487496
-0.16553021
-0.19763277
-0.048050511
-0.20549468
0.044035192
-0.22990395
0.075910829
-0.26496871
0.080366713
-0.30149146
0.074141734
-0.33832299
0.058351846
-0.37371058
0.03743761
-0.40553125
0.016902561
-0.43312813
0.0015404148
-0.45792616
-0.0067774898
-0.48265533
-0.0092934491
-0.50974314
-0.0084528895
-0.54050554
-0.0064092987
-0.57527533
-0.0043506062
-0.61391266
-0.002756601
-0.65615727
-0.0017175467
-0.70178651
-0.0011419448
-0.75068199
-0.00088184439
-0.80284701
-0.00079811229
-0.85839717
-0.00078617317
-0.91753543
-0.00078090639
-0.98054875
-0.00074703824
-1.0477471
-0.00067084139
-1.1195378
-0.00055135477
-1.1962845
-0.00039403918
-1.2785048
-0.00020758988
-1.3665741
-0.14829913
-0.15786898
-0.14351706
0.073543968
-0.27624377
-0.15019045
-0.24713292
-0.15006293
-0.10045032
-0.14899957
0.14469016
-0.15133536
0.29115366
-0.16013558
0.28967041
-0.17346067
0.20110785
-0.1902818
0.016412311
-0.20603824
-0.20864718
-0.20939656
-0.29218529
-0.17515091
-0.26321101
-0.17788892
-0.17928299
-0.18112218
-0.057539242
-0.18814404
0.048164296
-0.20962378
0.089346094
-0.24333921
0.094964502
-0.2795665
0.088995249
-0.31634498
0.072263815
-0.35223496
0.048181547
-0.38445452
0.02281836
-0.41144705
0.0025721326
-0.43415985
-0.009020029
-0.45568362
-0.012796803
-0.47915198
-0.011792667
-0.50640336
-0.0089836375
-0.5379312
-0.0060729824
-0.57355295
-0.0037600734
-0.61290919
-0.0022004357
-0.65567438
-0.0012969027
-0.70163155
-0.00086311739
-0.75070071
-0.00071402669
-0.80293109
-0.00070330598
-0.85848003
-0.0007351436
-0.91758119
-0.00075372157
-0.98054206
-0.0007320045
-1.0476859
-0.00066186295
-1.1194273
-0.00054525744
-1.1961333
-0.00039004261
-1.2783223
-0.00020560969
-1.3663685
-0.14913681
-0.27540608
-0.14734594
-0.1540401
-0.1428606
0.076844028
-0.24806897
-0.1492544
-0.10193556
-0.14857768
0.14667853
-0.15098794
0.2981287
-0.15831041
0.29936181
-0.16982697
0.21322617
-0.185579
0.027806972
-0.20167646
-0.20659632
-0.2080891
-0.30237933
-0.19920253
-0.27605715
-0.16230477
-0.1913343
-0.16583761
-0.066313406
-0.17234802
0.051251542
-0.19123129
0.10289719
-0.22317488
0.1105515
-0.25892621
0.10498247
-0.29555372
0.087949673
-0.33203083
0.061027082
-0.3650805
0.030376031
-0.39201219
0.0041118043
-0.41298672
-0.011851436
-0.43132844
-0.017444937
-0.45103549
-0.016298909
-0.47464573
-0.012497587
-0.50288941
-0.0084646498
-0.53553953
-0.0051952551
-0.57211777
-0.0029273747
-0.61218225
-0.0015605279
-0.65541075
-0.00086413649
-0.70163053
-0.0005973689
-0.75081737
-0.00056194784
-0.80307245
-0.00062156204
-0.85859362
-0.00069390915
-0.917641
-0.00073342772
-0.98054064
-0.00072141103
-1.0476264
-0.00065538503
-1.1193172
-0.00054069204
-1.1959827
-0.00038689149
-1.2781411
-0.00020397259
-1.3661646
-0.14889519
-0.2483106
-0.1491364
-0.27361563
-0.14707439
-0.1498263
-0.14316416
0.079998828
-0.10249808
-0.14869188
0.14899465
-0.15089381
0.30419995
-0.15705919
0.30732649
-0.16627509
0.22384309
-0.18044389
0.038413278
-0.19618531
-0.20349592
-0.20477687
-0.31140122
-0.19906721
-0.29111338
-0.1841463
-0.2019403
-0.15169878
-0.074151054
-0.15799996
0.053501436
-0.17459791
0.11619581
-0.20452991
0.12687684
-0.23950021
0.1219119
-0.27585563
0.10527759
-0.31288164
0.076120874
-0.34712463
0.03991876
-0.37462322
0.0064051848
-0.39430557
-0.015339141
-0.40949902
-0.023509762
-0.42526362
-0.022272292
-0.4450621
-0.017188274
-0.46995505
-0.011692748
-0.49966131
-0.0071736838
-0.5335611
-0.0039704023
-0.57107474
-0.0019741914
-0.61176858
-0.00090397321
-0.65537091
-0.00045239949
-0.7017755
-0.00035762296
-0.7510217
-0.00043145519
-0.80326256
-0.00055695215
-0.85873057
-0.00066464143
-0.91770979
-0.00072057009
-0.98054148
-0.00071519334
-1.0475666
-0.00065145955
-1.1192064
-0.00053756068
-1.195832
-0.0003844686
-1.2779606
-0.00020262598
-1.3659619
-0.14944652
-0.10194675
-0.14995894
-0.24748806
-0.14978905
-0.27090097
-0.14753844
-0.14545202
-0.14416778
0.082938316
0.15177132
-0.15146855
0.30946209
-0.15615594
0.31347668
-0.16320938
0.23265285
-0.17508485
0.047975642
-0.19000625
-0.19928599
-0.20039523
-0.31909855
-0.19707954
-0.3047149
-0.18546569
-0.2212722
-0.1648144
-0.080992142
-0.14485769
0.055136406
-0.15963493
0.12895123
-0.18735333
0.143611
-0.22126407
0.1395199
-0.25710821
0.12395707
-0.29453512
0.093299851
-0.33006061
0.051577252
-0.35878312
0.0096948353
-0.37791287
-0.019512854
-0.39013186
-0.031302669
-0.40170611
-0.030068806
-0.41746711
-0.023325545
-0.43892483
-0.015938443
-0.46570935
-0.0098125769
-0.49702242
-0.0054034795
-0.53212802
-0.0025795634
-0.57046937
-0.0010011923
-0.61167136
-0.00028161973
-0.65554169
-8.2937824e-05
-0.70205018
-0.00015288762
-0.75130026
-0.00032884012
-0.80349067
-0.00051180074
-0.85888341
-0.00064725436
-0.9177831
-0.00071484027
-0.98054183
-0.00071308373
-1.047505
-0.00064985072
-1.1190941
-0.00053563363
-1.1956808
-0.00038266211
-1.2777805
-0.00020149952
-1.3657604
-0.15281909
0.1551439
-0.15141118
-0.10049452
-0.15182599
-0.24545113
-0.15113321
-0.26730619
-0.14866499
-0.14095481
-0.14589606
0.085516523
0.31376852
-0.15577498
0.31803643
-0.1607157
0.2393205
-0.16987702
0.056167178
-0.18327638
-0.19450397
-0.19478828
-0.32544061
-0.19405316
-0.31669401
-0.18510043
-0.23900495
-0.16773293
-0.10242235
-0.14338419
0.056524634
-0.14624592
0.14088555
-0.17156925
0.16045397
-0.20419631
0.15747108
-0.23921525
0.1433907
-0.27654184
0.11181772
-0.31305299
0.064798862
-0.34328222
0.013667026
-0.36275531
-0.024597986
-0.37282774
-0.041160354
-0.38027417
-0.040102537
-0.39167238
-0.031213737
-0.40957891
-0.02138921
-0.43347407
-0.01322855
-0.46229338
-0.0072949281
-0.49513097
-0.0034158284
-0.53129176
-0.001170212
-0.57030035
-8.3860706e-05
-0.61186912
0.00027328235
-0.65589791
0.00023081681
-0.70243389
8.3070397e-06
-0.75163741
-0.000257174
-0.8037453
-0.00048574228
-0.85904492
-0.00064122418
-0.91785672
-0.00071564193
-0.98053927
-0.00071470029
-1.0474401
-0.00065020579
-1.1189796
-0.00053475929
-1.1955287
-0.00038132798
-1.2776007
-0.00020052937
-1.3655599
-0.15604595
0.31699537
-0.15455496
0.15828768
-0.15442948
-0.097891018
-0.15445636
-0.24212799
-0.15323721
-0.26273396
-0.15048582
-0.13636506
-0.14828089
0.087660995
0.32105277
-0.15879132
0.24373247
-0.16512767
0.062754362
-0.17646421
-0.18945036
-0.18832999
-0.33028991
-0.18993899
-0.32706397
-0.1836832
-0.25515032
-0.16895506
-0.12272361
-0.14743168
0.041511726
-0.12837128
0.15233729
-0.15769766
0.17706026
-0.18817553
0.17540102
-0.22212625
0.16290714
-0.25873169
0.13042571
-0.29514983
0.078119976
-0.32637411
0.017140181
-0.34675538
-0.031888842
-0.35546445
-0.053747554
-0.36024054
-0.052871946
-0.36750476
-0.041196228
-0.38168989
-0.028228425
-0.4027397
-0.01752501
-0.42917761
-0.0097034713
-0.45988483
-0.0045114283
-0.49403537
-0.0014199724
-0.531042
0.0001481915
-0.57053241
0.00072944362
-0.61232529
0.00074231098
-0.65640941
0.00047818982
-0.70290377
0.00012147092
-0.75201606
-0.00021570102
-0.80401534
-0.00047759932
-0.85920855
-0.00064554481
-0.91792682
-0.00072227552
-0.9805317
-0.0007194285
-1.0473709
-0.00065221048
-1.1188621
-0.00053463967
-1.1953754
-0.00038031724
-1.2774209
-0.00019964497
-1.3653603
-0.15754366
0.32255049
-0.15625987
0.31870029
-0.15758081
0.161439
-0.1582642
-0.094083171
-0.15792548
-0.23743972
-0.15612888
-0.2570909
-0.15299079
-0.13165515
-0.15122015
0.089385034
0.24594573
-0.16100458
0.067480837
-0.16985414
-0.1843371
-0.18157747
-0.33347035
-0.18514955
-0.33562043
-0.18138253
-0.26959118
-0.16924234
-0.14155383
-0.15012484
0.025542919
-0.13146287
0.15144363
-0.12747763
0.19318501
-0.17382241
0.19294597
-0.20572048
0.18189896
-0.24111808
0.14836016
-0.27666614
0.090436284
-0.30746614
0.01946628
-0.32870021
-0.043637803
-0.33500642
-0.070557429
-0.33865458
-0.06895725
-0.34415524
-0.053662338
-0.35503866
-0.036630442
-0.37328787
-0.022776866
-0.39748784
-0.012668415
-0.42621266
-0.0058797686
-0.45851649
-0.001747893
-0.49370745
0.00043232859
-0.53132614
0.001310336
-0.5711133
0.0014113204
-0.61299429
0.0011108827
-0.6570421
0.00065272222
-0.70343502
0.00018783561
-0.75241959
-0.0002022669
-0.80429067
-0.00048571479
-0.85936838
-0.00065897705
-0.91799012
-0.00073382781
-0.9805173
-0.00072670457
-1.0472964
-0.00065541221
-1.1187413
-0.0005350542
-1.1952207
-0.0003794895
-1.2772411
-0.00019878494
-1.3651615
-0.15767199
0.24607405
-0.15619446
0.32248507
-0.1581376
0.31925708
-0.16121428
0.16438908
-0.1628146
-0.089194052
-0.1620994
-0.2314692
-0.15967215
-0.25040955
-0.15606175
-0.12681355
-0.15457901
0.090632096
0.070165607
-0.16368935
-0.17932908
-0.17486216
-0.33502786
-0.18001996
-0.34228052
-0.17848946
-0.2822222
-0.16875151
-0.15872455
-0.15207162
0.0097255757
-0.1343075
0.14953901
-0.12955825
0.20173324
-0.13602586
0.20980422
-0.19068066
0.19998272
-0.22380423
0.16533174
-0.25808966
0.10183452
-0.28806437
0.020771994
-0.30877185
-0.059469446
-0.31286856
-0.092831485
-0.31273236
-0.088723626
-0.3188882
-0.068760899
-0.32905668
-0.046751631
-0.34491747
-0.029018146
-0.3670466
-0.016197376
-0.39395888
-0.0075157535
-0.42457668
-0.0021366792
-0.45812771
0.00079194261
-0.49406707
0.0020494177
-0.53206522
0.0022752846
-0.57197726
0.0019445257
-0.61382794
0.0013719923
-0.65776137
0.00075643215
-0.70400362
0.00021121157
-0.75283307
-0.00021406046
-0.80456232
-0.0005079989
-0.85951936
-0.0006800991
-0.91804384
-0.0007493149
-0.98049469
-0.00073583691
-1.047216
-0.00065941955
-1.118617
-0.00053575014