/*--------------------------------*- C++ -*----------------------------------*\
| =========                 |                                                 |
| \\      /  F ield         | OpenFOAM: The Open Source CFD Toolbox           |
|  \\    /   O peration     | Version:  5.0                                   |
|   \\  /    A nd           | Web:      www.OpenFOAM.org                      |
|    \\/     M anipulation  |                                                 |
\*---------------------------------------------------------------------------*/
FoamFile
{
    version     2.0;
    format      ascii;
    class       volScalarField;
    location    "140";
    object      pMean;
}
// * * * * * * * * * * * * * * * * * * * * * * * * * * * * * * * * * * * * * //

dimensions      [0 2 -2 0 0 0 0];

internalField   nonuniform List<scalar> 
9200
(
0.00020130672
0.00022725828
0.0005104996
0.00026224602
0.00056777339
0.00077605049
0.00031762733
0.00064383382
0.00086025594
0.00095499177
0.00039289918
0.00075852954
0.00098299922
0.0010615512
0.0010588948
0.00048358232
0.00090689275
0.0011610252
0.0012214768
0.0011830541
0.0010810593
0.00059738232
0.0010748565
0.0013876677
0.0014467357
0.0013735846
0.0012167125
0.001019531
0.00072675902
0.0012689452
0.0016405657
0.001732879
0.0016370325
0.0014315184
0.0011635891
0.00088378462
0.00086400666
0.0014724705
0.0019227278
0.0020517181
0.0019708688
0.0017244875
0.0013978637
0.0010316938
0.00067702971
0.00099720201
0.0016788836
0.0022097544
0.0024043216
0.0023398801
0.0020972173
0.0017132303
0.0012798731
0.00082535904
0.00040797828
0.001103321
0.0018652684
0.0024883714
0.0027607223
0.0027438008
0.0025089198
0.0021165777
0.0016109373
0.0010825976
0.00055260804
8.2817103e-05
0.0010933789
0.0019868993
0.0027242008
0.0031008731
0.0031488207
0.0029604756
0.0025629575
0.0020387886
0.0014224336
0.00081350271
0.0002199239
-0.00028911221
0.0008626261
0.0019814705
0.0028670235
0.0033867638
0.0035350413
0.0034164352
0.0030553296
0.0025147627
0.0018670854
0.0011547177
0.00047885714
-0.00016379396
-0.00070058789
0.00041185354
0.0018023925
0.0028633796
0.0035728846
0.0038664395
0.0038576959
0.0035570079
0.0030440516
0.0023645706
0.0016084336
0.00081362389
8.7047282e-05
-0.00059112993
-0.0011412917
-0.00016908804
0.0014231456
0.0026743986
0.0036055015
0.0041011109
0.0042471711
0.0040507149
0.0035903738
0.0029244435
0.00212005
0.0012671755
0.00040675375
-0.00035460112
-0.0010520265
-0.0016043818
-0.00075412105
0.00080319915
0.0022341726
0.0034288559
0.0041834125
0.0045446536
0.0044996039
0.0041372362
0.0035110687
0.0027032561
0.0017829203
0.00084995828
-5.8825627e-05
-0.00083652903
-0.0015391956
-0.0020793397
-0.0013200247
-9.4555797e-06
0.0014673803
0.0029800173
0.0040536388
0.0046968257
0.0048667362
0.0046499085
0.004109039
0.0033233206
0.0023797059
0.0013591207
0.00036308734
-0.00057428725
-0.0013510013
-0.0020420202
-0.0025597751
-0.0018772022
-0.00091488283
0.00044442879
0.0022001604
0.0036483217
0.0046411556
0.0051007456
0.0050936246
0.0046860457
0.0039676641
0.0030253269
0.001958159
0.00085305852
-0.00018554089
-0.001131595
-0.0018875287
-0.0025539105
-0.0030360406
-0.0023777459
-0.0017970968
-0.00067092041
0.0011330695
0.0029162991
0.0043134666
0.0051390758
0.005418936
0.0052076822
0.0046064427
0.0037090134
0.0026169144
0.0014406904
0.00027148148
-0.00078796486
-0.0017205196
-0.0024389207
-0.0030646357
-0.0035020856
-0.0027812425
-0.0025577964
-0.0017827945
-6.7641409e-05
0.0018740267
0.0036703039
0.0049148721
0.0055637744
0.0056295858
0.0052072696
0.0044033507
0.003328675
0.0020990367
0.00083232924
-0.00037841934
-0.0014344593
-0.0023327878
-0.0029944613
-0.0035677662
-0.0039502696
-0.0030524511
-0.0031707157
-0.0027892187
-0.001296149
0.00064174178
0.0026997485
0.0043791022
0.0054623276
0.0058899388
0.0057282383
0.0050790932
0.0040690706
0.0028250443
0.001473355
0.00013890203
-0.001087489
-0.0021160366
-0.0029573182
-0.0035472985
-0.004054963
-0.0043752893
-0.0031112422
-0.0035877442
-0.0036271444
-0.0024415441
-0.00064947629
0.0014846241
0.0035073445
0.005041461
0.0059212592
0.0061110247
0.0056972411
0.0048117355
0.0035980922
0.002195977
0.00074405495
-0.00063172058
-0.0018463933
-0.002821322
-0.0035864107
-0.0040879553
-0.0045204962
-0.0047717856
-0.0029761963
-0.0037619114
-0.0042698184
-0.0034265468
-0.0018900411
0.00016854229
0.0023521243
0.0042845226
0.0056400418
0.0062833594
0.0062034746
0.0055210043
0.0043950277
0.0029833481
0.0014432124
-8.2893764e-05
-0.0014701046
-0.0026435395
-0.0035410265
-0.0042091324
-0.004610095
-0.0049582422
-0.005135713
-0.0027391122
-0.0037287855
-0.0047028406
-0.0042416282
-0.0029940462
-0.0011396811
0.0010460471
0.0032257493
0.0050188091
0.0061699651
0.0065237744
0.0061465211
0.005183333
0.0038171284
0.002223796
0.00056977646
-0.00099891001
-0.0023648793
-0.0034682286
-0.0042631333
-0.0048182688
-0.0051063789
-0.0053637425
-0.0054636748
-0.0024599888
-0.0035818091
-0.0049062471
-0.0048875025
-0.0039341551
-0.002347267
-0.00030522851
0.0019529713
0.004068786
0.0057019616
0.006587415
0.0066196853
0.0059197261
0.0046687529
0.0030721172
0.0013186912
-0.00041705363
-0.0019929958
-0.0033040865
-0.0043074277
-0.0049790541
-0.0054046231
-0.0055715419
-0.0057331019
-0.0057533337
-0.0021747722
-0.0034177493
-0.0049579187
-0.0052977571
-0.0047253973
-0.0034025104
-0.0015927028
0.0005828767
0.0028503021
0.0048713176
0.0062966759
0.0068607061
0.0065401877
0.0054995354
0.0039647244
0.0021550434
0.00027324494
-0.0015072837
-0.0030523722
-0.0042735815
-0.0051503243
-0.0056774667
-0.0059619327
-0.0060005565
-0.0060634546
-0.0060031587
-0.0019071599
-0.0032469334
-0.0049535243
-0.0055366127
-0.0053284713
-0.0043306843
-0.0027592747
-0.0007777226
0.0014794958
0.0037378468
0.0056230362
0.0067816595
0.0069602013
0.0062539613
0.0048671218
0.0030601656
0.0010675511
-0.00090511056
-0.0026879983
-0.0041618988
-0.0052602663
-0.0059837444
-0.0063507887
-0.0064834329
-0.0063897238
-0.0063527647
-0.0062121117
-0.0016676002
-0.0031104263
-0.0049297506
-0.0056949234
-0.0057400192
-0.0051193954
-0.0038283059
-0.0020546607
5.8542567e-05
0.0023954273
0.004615089
0.0063121672
0.007104826
0.0068493901
0.0057320153
0.0040063446
0.001953135
-0.00018569575
-0.0022037426
-0.0039434633
-0.0053063443
-0.006248996
-0.0067978572
-0.0069897814
-0.0069643025
-0.0067361608
-0.0065997308
-0.0063795461
-0.0014671198
-0.0030202965
-0.0049127179
-0.0058262451
-0.0060396068
-0.0057047456
-0.0047877355
-0.0032606343
-0.0013309224
0.00094089188
0.0033393786
0.0054527129
0.0068662532
0.0072018081
0.0064871634
0.0049513237
0.0029076432
0.00064419667
-0.0015932062
-0.0036065385
-0.0052564245
-0.0064683911
-0.0072270884
-0.0075808869
-0.0075883387
-0.0074001285
-0.0070378652
-0.0068036762
-0.006506082
-0.0013094688
-0.0029805204
-0.0049182889
-0.0059485473
-0.0063100888
-0.0061560232
-0.005560001
-0.0043823199
-0.0026803315
-0.00054722522
0.0018942435
0.0042794891
0.0062002761
0.0072206689
0.0070366288
0.0058342882
0.0038962906
0.0015678545
-0.00085749706
-0.0031395053
-0.005094581
-0.0066072029
-0.0076321161
-0.0081802267
-0.0083249107
-0.0081399874
-0.0077878685
-0.0072936522
-0.006964701
-0.0065940159
-0.0011903002
-0.0029859914
-0.004947814
-0.0060784742
-0.0065651947
-0.0065689254
-0.0061852278
-0.0053672669
-0.0039840611
-0.0020348474
0.0003422756
0.0028842432
0.0051790133
0.0068060681
0.007307665
0.0065645551
0.0048677729
0.0025578905
-7.6811858e-06
-0.0025383582
-0.0048047137
-0.0066459255
-0.0079764755
-0.0087802169
-0.0090974676
-0.0090205961
-0.0086404441
-0.0081254059
-0.0075032035
-0.0070837279
-0.006645308
-0.0010998517
-0.0030165661
-0.0050072863
-0.0062249136
-0.0068209041
-0.0069650724
-0.0067579013
-0.0062013093
-0.0052047038
-0.0035181964
-0.0012554744
0.001314757
0.003874388
0.0059765838
0.0071737745
0.0070494706
0.0057435023
0.0035704349
0.00093566504
-0.0018077216
-0.0043776359
-0.006564806
-0.0082380225
-0.009343619
-0.009898119
-0.009966748
-0.0096622082
-0.0090858836
-0.0084115587
-0.0076668991
-0.0071620551
-0.0066591899
-0.0010187555
-0.0030788234
-0.005085416
-0.0064011851
-0.0070905442
-0.0073582816
-0.0073121396
-0.0069523373
-0.0062777264
-0.0049667839
-0.00288925
-0.0003527728
0.0023433556
0.0047933703
0.0065764356
0.0072037159
0.0064160709
0.0045409246
0.0019370134
-0.00096203164
-0.0038124319
-0.006349934
-0.0083938041
-0.0098462829
-0.01068997
-0.010970718
-0.010779776
-0.010243543
-0.0094741732
-0.0086459949
-0.0077856549
-0.0072009037
-0.0066355074
-0.0009284828
-0.003153016
-0.0052061269
-0.0066002997
-0.0073865707
-0.0077607615
-0.0078560586
-0.007678451
-0.0072526255
-0.0063111968
-0.0045463051
-0.0021038792
0.00065507904
0.0033435971
0.0055603963
0.0068895998
0.0068157874
0.0053669452
0.0029421141
-2.877747e-05
-0.0031163971
-0.0059951358
-0.0084259255
-0.01026312
-0.011447601
-0.011996536
-0.01198624
-0.011527764
-0.01076132
-0.0098039362
-0.0088291654
-0.007860761
-0.0072019681
-0.0065761944
-0.00084270986
-0.0032250274
-0.0053431354
-0.006840657
-0.0077099741
-0.0081840791
-0.0084007403
-0.0083869323
-0.0081843557
-0.0075476256
-0.0061594463
-0.0039318435
-0.0011702839
0.0016853506
0.0042163866
0.0060865035
0.0068102409
0.0059517678
0.003866045
0.00094703527
-0.0023108425
-0.0055014238
-0.0083236345
-0.010573022
-0.012144713
-0.013018462
-0.013247413
-0.012932976
-0.012205494
-0.011212335
-0.010074919
-0.0089621953
-0.0078937943
-0.0071669214
-0.0064862266
-0.00078458359
-0.0032964787
-0.0054771818
-0.007110021
-0.0080855042
-0.0086428612
-0.0089578365
-0.0090865261
-0.0090886493
-0.0087109583
-0.0076570859
-0.0057605557
-0.0031057025
-0.00015762824
0.0026179844
0.0048775074
0.0062692027
0.0062255346
0.0045962034
0.0018976233
-0.0014311953
-0.00488361
-0.00808258
-0.010761221
-0.012757761
-0.01400982
-0.014538165
-0.014427304
-0.013802733
-0.012807638
-0.011595637
-0.010287649
-0.0090467932
-0.0078869244
-0.0070968148
-0.0063709147
-0.00075881504
-0.0033767219
-0.0056023062
-0.007380037
-0.0084941438
-0.0091604691
-0.0095516005
-0.0097863732
-0.0099679491
-0.0098428834
-0.0090678979
-0.0074978718
-0.005086072
-0.0021516362
0.00079385721
0.0033607867
0.0052434835
0.0059884172
0.0050560761
0.0027179274
-0.00053306335
-0.004168656
-0.0077107725
-0.010818675
-0.01326874
-0.014945488
-0.01583219
-0.015986853
-0.015524353
-0.014587865
-0.013331992
-0.01191062
-0.010443491
-0.0090850602
-0.0078432725
-0.0069951805
-0.0062329425
-0.0007602601
-0.003463574
-0.0057412144
-0.0076367669
-0.0089186682
-0.0097205234
-0.010203271
-0.01051508
-0.010834418
-0.010937051
-0.010433399
-0.0091422774
-0.0070233356
-0.0042359213
-0.0012233487
0.0015735785
0.0038300114
0.0051881381
0.005115553
0.0032883133
0.00029434889
-0.0034037324
-0.0072285562
-0.010747936
-0.01366523
-0.015805548
-0.01710387
-0.017586706
-0.017348348
-0.01652796
-0.015283991
-0.013776455
-0.012158337
-0.010544354
-0.0090793678
-0.007765483
-0.0068657404
-0.0060757448
-0.00078207664
-0.0035654644
-0.0058864906
-0.007892916
-0.0093318538
-0.010311066
-0.010899049
-0.011297531
-0.011713488
-0.012005945
-0.011753322
-0.010720981
-0.0088667134
-0.0063196992
-0.0033686008
-0.00044737846
0.002091112
0.0039180331
0.0045917024
0.0035492354
0.00092409583
-0.0026602532
-0.0066737717
-0.010562815
-0.01394453
-0.016574407
-0.018332024
-0.019201396
-0.019251884
-0.018608215
-0.017430864
-0.015887471
-0.01414144
-0.012340244
-0.010592893
-0.0090326293
-0.0076562487
-0.0067113153
-0.0059014056
-0.0008259267
-0.0036804292
-0.0060362374
-0.0081479736
-0.009730445
-0.010892372
-0.011640766
-0.012124176
-0.012642064
-0.013059096
-0.013033656
-0.012247841
-0.010633405
-0.0083465467
-0.0055590936
-0.0026352946
8.525847e-05
0.0022502108
0.0035093982
0.0033058725
0.0012649575
-0.0020482178
-0.006105918
-0.010292221
-0.014114081
-0.017245192
-0.019498863
-0.020809433
-0.021210466
-0.020808506
-0.019755674
-0.018227276
-0.016397334
-0.014427631
-0.012458928
-0.01059195
-0.0089479179
-0.0075183908
-0.0065349086
-0.0057101575
-0.0038105841
-0.00090364186
-0.0061873174
-0.00839518
-0.010126505
-0.011451199
-0.01237749
-0.012998703
-0.013603607
-0.014170086
-0.014284372
-0.013721125
-0.012352013
-0.010298057
-0.0077444499
-0.0049087776
-0.0021312481
0.00026824789
0.0019352324
0.0024424787
0.0012171523
-0.0017052893
-0.0056154666
-0.0099875668
-0.014197197
-0.017820598
-0.020594263
-0.022391655
-0.023203069
-0.023106121
-0.022241478
-0.020782034
-0.018914397
-0.016813494
-0.014637547
-0.012517117
-0.01054474
-0.0088283388
-0.0073546327
-0.0063391851
-0.0055028698
-0.0063380351
-0.0039492435
-0.0010169699
-0.0086304945
-0.01050838
-0.012007508
-0.013092292
-0.013876765
-0.014608159
-0.015288385
-0.015605989
-0.015153742
-0.014011382
-0.012185047
-0.0098604436
-0.0072024054
-0.0044715603
-0.0019667589
-1.9203237e-05
0.00099488994
0.0005822885
-0.0016967946
-0.0053402637
-0.009723745
-0.014235101
-0.018317377
-0.021616862
-0.023935876
-0.025210005
-0.025481167
-0.024868108
-0.023538503
-0.021682058
-0.019490759
-0.017137837
-0.014773698
-0.012518473
-0.010454742
-0.0086770642
-0.0071676299
-0.0061264103
-0.0052815318
-0.0088393184
-0.0064727513
-0.0040845117
-0.0011548231
-0.010863945
-0.012539939
-0.013794347
-0.014737934
-0.0156206
-0.016436706
-0.016906677
-0.01667395
-0.015634788
-0.014007931
-0.011912392
-0.009470304
-0.00685588
-0.0043651734
-0.002271183
-0.00092338886
-0.0007183446
-0.0021679128
-0.0053985903
-0.0096165692
-0.014293005
-0.0187697
-0.022577873
-0.025436941
-0.027217594
-0.02791418
-0.027617173
-0.026479323
-0.024691153
-0.022452411
-0.019957181
-0.017372534
-0.014839994
-0.012466676
-0.010325534
-0.0084972286
-0.0069600209
-0.0058984672
-0.0050481106
-0.011174579
-0.0090028293
-0.0065745708
-0.0042085261
-0.0013150992
-0.01303926
-0.014468387
-0.015573851
-0.016605472
-0.017581649
-0.018228909
-0.018156967
-0.017348073
-0.015817052
-0.013892785
-0.011682431
-0.0092540359
-0.0068356579
-0.0047308464
-0.0031932737
-0.0025966107
-0.0033349862
-0.0058577697
-0.0098203262
-0.01446598
-0.019233821
-0.023505576
-0.026901988
-0.029218081
-0.030390641
-0.03047016
-0.029588434
-0.027927381
-0.025693571
-0.023092573
-0.020315794
-0.017521575
-0.014840383
-0.012365821
-0.010160626
-0.0082918942
-0.0067344945
-0.0056576249
-0.0048044817
-0.013479947
-0.011419948
-0.0091113654
-0.0066477794
-0.0043152652
-0.0014899958
-0.015096338
-0.01636892
-0.017540165
-0.018670198
-0.019525137
-0.01964772
-0.019022942
-0.017722498
-0.015872577
-0.013797872
-0.011613047
-0.0093333507
-0.007287937
-0.0057251631
-0.0049040614
-0.0051783558
-0.0069207414
-0.010419558
-0.014899507
-0.019790537
-0.024447616
-0.028353474
-0.031214971
-0.032901204
-0.033412548
-0.032848885
-0.03137783
-0.029203398
-0.026543383
-0.023603892
-0.020570122
-0.017589283
-0.014779545
-0.012219948
-0.009963559
-0.0080640406
-0.0064934566
-0.0054059932
-0.0045526483
-0.015650448
-0.013834911
-0.011588307
-0.0091611945
-0.0066872163
-0.0043955234
-0.0016747068
-0.017103805
-0.018417869
-0.019680122
-0.020723498
-0.021107317
-0.02068511
-0.019584782
-0.017950293
-0.015932459
-0.013867374
-0.011826875
-0.0098867357
-0.0083893411
-0.0075322408
-0.0075574816
-0.0087406532
-0.011519753
-0.015743723
-0.020562365
-0.025474906
-0.029832151
-0.033225692
-0.035445796
-0.036433757
-0.036246484
-0.035027344
-0.032972385
-0.030302485
-0.027240631
-0.023989399
-0.020724752
-0.017580822
-0.014662047
-0.012033281
-0.0097378834
-0.0078166106
-0.0062392148
-0.0051454548
-0.0042943397
-0.017742811
-0.016094645
-0.014085467
-0.011669905
-0.009140155
-0.0066828014
-0.0044385497
-0.0018471411
-0.019211812
-0.020609008
-0.021802422
-0.02243937
-0.022307244
-0.021424963
-0.019996938
-0.018136465
-0.016127159
-0.014207823
-0.012495597
-0.011106893
-0.010340581
-0.010345388
-0.01122893
-0.013344785
-0.017064835
-0.021718566
-0.026691724
-0.031399724
-0.035284029
-0.038037812
-0.039531119
-0.039770027
-0.038862691
-0.036987716
-0.034364048
-0.03122281
-0.027787689
-0.024253644
-0.020785289
-0.017501464
-0.014492802
-0.011810009
-0.0094872276
-0.0075524568
-0.0059737781
-0.0048776132
-0.0040311181
-0.019884527
-0.018243644
-0.016402435
-0.014215131
-0.01164933
-0.0090392562
-0.0066150988
-0.0044283211
-0.0019812714
-0.021423496
-0.022773081
-0.023609464
-0.023787839
-0.023214584
-0.02201828
-0.020344952
-0.018428432
-0.016579705
-0.01501657
-0.013845584
-0.013224759
-0.013366661
-0.014224514
-0.015941623
-0.018992869
-0.023378517
-0.028252128
-0.033147861
-0.037446202
-0.040704972
-0.042713865
-0.043414807
-0.042872552
-0.041237594
-0.038717984
-0.035548551
-0.031965549
-0.028188765
-0.024402646
-0.020757697
-0.017356817
-0.014276855
-0.011554626
-0.0092149494
-0.0072738247
-0.0056987936
-0.0046040748
-0.0037644332
-0.022085402
-0.020385046
-0.018572154
-0.016560449
-0.014208004
-0.011517711
-0.0088417318
-0.006469766
-0.0043511558
-0.00203166
-0.023593473
-0.024643833
-0.025065591
-0.024849566
-0.023973964
-0.022533204
-0.020750637
-0.018930412
-0.017482759
-0.016524418
-0.016136728
-0.016490215
-0.017536924
-0.019174138
-0.021728353
-0.025593387
-0.030326582
-0.035207641
-0.039791074
-0.043496894
-0.046004773
-0.047186522
-0.047050615
-0.045711042
-0.043354356
-0.040210782
-0.03652514
-0.032534466
-0.02844972
-0.024442906
-0.020648316
-0.01715288
-0.014019694
-0.011271163
-0.0089235515
-0.0069823943
-0.005416219
-0.0043269286
-0.003495707
-0.024225323
-0.022540494
-0.020680285
-0.018715729
-0.016550157
-0.014048335
-0.011257171
-0.0085370559
-0.0062251254
-0.0041621766
-0.0019669735
-0.025489893
-0.026178826
-0.026272472
-0.025760829
-0.024650215
-0.023077919
-0.021329627
-0.019823974
-0.019091263
-0.019010557
-0.019645481
-0.020999454
-0.022846675
-0.025214211
-0.028538247
-0.032987337
-0.037763694
-0.042434936
-0.046484709
-0.049446052
-0.051102772
-0.051399118
-0.050400494
-0.04826303
-0.045201834
-0.04146308
-0.037296786
-0.032935206
-0.028577713
-0.024381599
-0.020464178
-0.016896214
-0.01372615
-0.01096245
-0.0086147898
-0.0066807242
-0.0051292382
-0.0040481952
-0.0032256828
-0.026103611
-0.024610142
-0.022754551
-0.020754824
-0.018659892
-0.016347782
-0.013726974
-0.010862173
-0.0081017988
-0.0058442279
-0.0038324269
-0.0018269826
-0.027070084
-0.027497311
-0.027335624
-0.026588249
-0.025331335
-0.02374246
-0.022239412
-0.021390286
-0.021700982
-0.022770251
-0.024504759
-0.026755919
-0.029286664
-0.032326893
-0.036288862
-0.040953524
-0.045543286
-0.049769497
-0.053101298
-0.055199169
-0.055931397
-0.055305436
-0.053435801
-0.050512874
-0.046774363
-0.042476246
-0.037868857
-0.033174892
-0.028580812
-0.02422684
-0.020213076
-0.016592725
-0.01339937
-0.010630328
-0.0082921279
-0.0063738338
-0.0048406666
-0.00376743
-0.0029410346
-0.027689748
-0.026432715
-0.02471659
-0.022712658
-0.020599066
-0.01837691
-0.015953008
-0.013231729
-0.010284274
-0.0075065183
-0.0053155308
-0.0034079871
-0.0016471271
-0.028472676
-0.028692494
-0.028310869
-0.027403006
-0.026094563
-0.024694025
-0.023775707
-0.023953077
-0.025600747
-0.027990037
-0.030735067
-0.033724296
-0.036806851
-0.040435182
-0.044791578
-0.049294149
-0.053494915
-0.057060212
-0.059530157
-0.06067588
-0.060434575
-0.058869507
-0.056135616
-0.052451571
-0.048071073
-0.043254927
-0.038248331
-0.033262307
-0.028468335
-0.023987971
-0.019902163
-0.016245885
-0.01304136
-0.010279537
-0.0079630563
-0.0060657366
-0.0045479738
-0.0034649435
-0.0026375866
-0.029136682
-0.027981125
-0.026441589
-0.024531472
-0.022405189
-0.020180884
-0.017860477
-0.015316057
-0.012499345
-0.0095147392
-0.006756597
-0.0047003766
-0.0029316854
-0.0014242179
-0.029779927
-0.029806373
-0.029249444
-0.028262701
-0.027087556
-0.02621532
-0.026279187
-0.027813152
-0.031000742
-0.034717887
-0.038295677
-0.04181093
-0.04535824
-0.04939416
-0.053759127
-0.057854537
-0.061448648
-0.06417782
-0.065679155
-0.065810251
-0.064569012
-0.062064973
-0.058487146
-0.054075875
-0.049095253
-0.043806007
-0.038444206
-0.033208147
-0.02825102
-0.023673303
-0.019535279
-0.015857996
-0.012658656
-0.009920768
-0.0076329999
-0.0057501656
-0.0042217245
-0.003143515
-0.0023231069
-0.030519305
-0.029429749
-0.027912491
-0.026121008
-0.024050391
-0.021816387
-0.019480962
-0.017036304
-0.014398229
-0.011537538
-0.0085847385
-0.0059437045
-0.0040288135
-0.0023910081
-0.0011638292
-0.031026222
-0.030872832
-0.03019433
-0.029300627
-0.028608222
-0.028664667
-0.030101911
-0.033246687
-0.038017957
-0.0429084
-0.047063365
-0.050920714
-0.054823922
-0.058965921
-0.062971656
-0.066449073
-0.069249663
-0.071012559
-0.071470797
-0.070550215
-0.068301761
-0.06487419
-0.060483802
-0.055387151
-0.049853248
-0.044138426
-0.03846829
-0.033024774
-0.027938671
-0.02328723
-0.019115144
-0.015437732
-0.012265892
-0.0095608449
-0.0072906793
-0.0053801161
-0.0038779123
-0.0028092115
-0.0019979973
-0.031869452
-0.030841589
-0.029315453
-0.027483952
-0.02547819
-0.023263697
-0.020886792
-0.018432058
-0.015894326
-0.013235154
-0.010390125
-0.0075900322
-0.0050655888
-0.0032767521
-0.0017872389
-0.00087455383
-0.032229131
-0.031912305
-0.031261478
-0.030823806
-0.031024083
-0.03243067
-0.035533369
-0.040372768
-0.046600358
-0.052439895
-0.056865039
-0.060979515
-0.064989075
-0.068851666
-0.072222018
-0.07491139
-0.076770847
-0.077476181
-0.076843435
-0.074856347
-0.071610551
-0.067287452
-0.06212503
-0.056390626
-0.050354155
-0.044264769
-0.038334705
-0.032723415
-0.027536234
-0.022832841
-0.018652969
-0.01500448
-0.011871479
-0.0091823034
-0.0068657088
-0.004992393
-0.0035185693
-0.0024636156
-0.0016622473
-0.033186756
-0.032253212
-0.030717517
-0.028809805
-0.026710762
-0.024514757
-0.022105075
-0.019587209
-0.017043478
-0.014513555
-0.01187979
-0.0091903306
-0.006499636
-0.0040909807
-0.0024401354
-0.0011384113
-0.00057058789
-0.033379379
-0.033031291
-0.032775673
-0.033223315
-0.034742562
-0.037850918
-0.042754219
-0.049136722
-0.056634275
-0.063066274
-0.067584407
-0.071801856
-0.075550783
-0.078802868
-0.081339152
-0.083098316
-0.083910679
-0.083498755
-0.081750855
-0.078701107
-0.07448194
-0.069301747
-0.06341467
-0.057095011
-0.050610721
-0.044200742
-0.038056126
-0.032309449
-0.02704716
-0.022324421
-0.018173821
-0.014568456
-0.01145009
-0.0086847281
-0.0064224389
-0.00458598
-0.0031480956
-0.0021064829
-0.0013163439
-0.03442765
-0.03364352
-0.032150157
-0.030169647
-0.027935298
-0.025595632
-0.023134077
-0.020543747
-0.017932578
-0.01542362
-0.012940483
-0.010478019
-0.007870649
-0.00529052
-0.0030194322
-0.0015289438
-0.00047194785
-0.00026282228
-0.034555641
-0.034559638
-0.035152539
-0.036910083
-0.040145945
-0.045173222
-0.051717422
-0.059464147
-0.067891442
-0.074616789
-0.079076682
-0.083076862
-0.08621233
-0.088608458
-0.090167893
-0.090898938
-0.09058753
-0.089026145
-0.086160734
-0.082067252
-0.076910172
-0.070918852
-0.064360604
-0.057513708
-0.050640228
-0.043960584
-0.0376385
-0.031786752
-0.026489195
-0.02179369
-0.017690142
-0.014094829
-0.010862907
-0.0081676904
-0.0059564313
-0.0041694619
-0.0027652024
-0.0017387204
-0.00096056807
-0.035656492
-0.034933832
-0.033568771
-0.031591016
-0.029225466
-0.026682098
-0.024018766
-0.021321155
-0.018631003
-0.016062194
-0.013613237
-0.011329656
-0.0089473888
-0.0064192846
-0.003966269
-0.0018691848
-0.00056665165
0.00019279886
6.0152255e-05
-0.036109697
-0.036897073
-0.038799309
-0.042291957
-0.047548624
-0.054367028
-0.062340828
-0.07117527
-0.080095982
-0.086896557
-0.091068914
-0.094461524
-0.096706749
-0.098100705
-0.098597619
-0.098219135
-0.096740957
-0.09402073
-0.090051807
-0.08494643
-0.078895109
-0.072145527
-0.064976193
-0.057664675
-0.050458162
-0.043550324
-0.037085781
-0.031177237
-0.025902019
-0.021255679
-0.017155435
-0.013397865
-0.010253949
-0.0076226115
-0.0054819322
-0.0037398965
-0.0023713368
-0.0013604919
-0.00059545509
-0.037233317
-0.036171321
-0.034863344
-0.033011257
-0.030607244
-0.027861994
-0.024932346
-0.021984335
-0.019177199
-0.016517848
-0.014017228
-0.011778137
-0.0095872719
-0.0072685501
-0.0048404223
-0.0025527277
-0.00066625774
0.00041152835
0.00083570705
0.0003916848
-0.038447587
-0.040456428
-0.044133869
-0.049746206
-0.056959244
-0.065302407
-0.074505347
-0.083939638
-0.092957834
-0.099635336
-0.10318099
-0.10568539
-0.10686265
-0.10716943
-0.10653338
-0.10499024
-0.10232834
-0.098457246
-0.093412612
-0.087335982
-0.080441884
-0.072995164
-0.065280321
-0.057564715
-0.050070441
-0.042974175
-0.036424404
-0.030529754
-0.02530366
-0.020649942
-0.016325858
-0.012676278
-0.0096107029
-0.0070714127
-0.0049941519
-0.0032995344
-0.0019666851
-0.00097263642
-0.00022136984
-0.039556716
-0.037725598
-0.036075733
-0.034279495
-0.032002305
-0.029164166
-0.025966286
-0.022699818
-0.019623593
-0.01683605
-0.014245454
-0.011948688
-0.0098255811
-0.0076933526
-0.0054488656
-0.0031625878
-0.0010837506
0.00054448111
0.001364689
0.0014231487
0.00073553494
-0.041973413
-0.045729174
-0.051591098
-0.059320368
-0.068218268
-0.077899322
-0.087877538
-0.097385247
-0.10617539
-0.11246972
-0.11511279
-0.11653461
-0.11655612
-0.11570779
-0.11389563
-0.11116258
-0.10731949
-0.10232162
-0.096238453
-0.089239622
-0.081563345
-0.073487512
-0.065290672
-0.05721911
-0.049480901
-0.042263543
-0.035714175
-0.029865696
-0.024616857
-0.019662312
-0.015467563
-0.011912478
-0.0089647607
-0.0065071406
-0.004496096
-0.002848405
-0.001552274
-0.00057553837
0.00016118752
-0.043034005
-0.039983683
-0.037563497
-0.035447404
-0.033221067
-0.030483348
-0.027133952
-0.023560969
-0.020151985
-0.017087907
-0.014357221
-0.011963601
-0.0097955382
-0.0077168716
-0.0056559447
-0.0035287219
-0.0014235668
0.00039571611
0.0017128773
0.0022537117
0.0019612726
0.0010874297
-0.04718044
-0.053109471
-0.061245886
-0.070855437
-0.081231952
-0.091852785
-0.10201121
-0.11113905
-0.1194613
-0.1250964
-0.12664189
-0.12686558
-0.12570093
-0.12363149
-0.12062833
-0.11670392
-0.11169847
-0.1056073
-0.098531513
-0.090669957
-0.082280395
-0.07364002
-0.065011123
-0.056630601
-0.048726812
-0.04149083
-0.034980673
-0.02908776
-0.023442074
-0.018640924
-0.014557684
-0.011150631
-0.0083064778
-0.0059334537
-0.0039878304
-0.0023876505
-0.0011286664
-0.00017000615
0.00055187787
-0.048160437
-0.043371935
-0.039715909
-0.036864161
-0.034331871
-0.031602501
-0.028319273
-0.024566432
-0.020839771
-0.017438318
-0.01442858
-0.011870323
-0.0096178555
-0.0074807702
-0.0054706221
-0.003518617
-0.0015491267
0.00031527787
0.0018205679
0.0028106804
0.003044915
0.0024497774
0.0013849353
-0.05446978
-0.062743701
-0.07296424
-0.084226665
-0.095710375
-0.10668188
-0.11642319
-0.12487048
-0.13259179
-0.1372825
-0.1376175
-0.13660658
-0.13419094
-0.13089272
-0.12669671
-0.12159473
-0.11545695
-0.10831494
-0.10030407
-0.091648432
-0.082610234
-0.073454832
-0.064442796
-0.055842665
-0.047894926
-0.04068597
-0.034102317
-0.027693619
-0.022227227
-0.017556379
-0.013656062
-0.010377524
-0.0076402766
-0.0053502997
-0.0034705768
-0.0019180112
-0.00069670393
0.00024378528
0.00094991011
-0.055318659
-0.048367027
-0.042988151
-0.038900202
-0.035665282
-0.03261027
-0.029285791
-0.025569514
-0.021664384
-0.017944584
-0.014594862
-0.011747473
-0.0093333106
-0.0071060332
-0.0050311168
-0.0031292474
-0.0013277123
0.00042302941
0.0019924859
0.0031616868
0.0037998546
0.0036968446
0.0028251605
0.0015623059
-0.06401148
-0.074524976
-0.086609855
-0.09917807
-0.11121383
-0.12185824
-0.13074832
-0.13843132
-0.145313
-0.14886492
-0.1479255
-0.1456557
-0.14197868
-0.13745676
-0.1320801
-0.12582651
-0.11859486
-0.11045661
-0.10157867
-0.092192511
-0.082551647
-0.072930406
-0.063635426
-0.054958946
-0.047020157
-0.039698578
-0.032452836
-0.026251919
-0.020935294
-0.016488292
-0.012744937
-0.0095985507
-0.0069658593
-0.004759043
-0.0029452274
-0.001440219
-0.00025623162
0.00066488218
0.0013548438
-0.064715994
-0.055330899
-0.047790667
-0.041998093
-0.037581316
-0.033819007
-0.030156559
-0.026368134
-0.022468341
-0.018587071
-0.014925813
-0.011736995
-0.0090293132
-0.006634478
-0.0044679535
-0.0025010115
-0.00075163816
0.00083724558
0.002320451
0.0035628454
0.0043521239
0.0046048704
0.0041572767
0.0030150472
0.0016077998
-0.075743513
-0.088294086
-0.10195299
-0.11527585
-0.12717822
-0.1369193
-0.14480616
-0.15166038
-0.15743092
-0.15974203
-0.15747188
-0.15395802
-0.14902925
-0.14329908
-0.13676752
-0.12939799
-0.12112466
-0.11205691
-0.10237266
-0.092295716
-0.082099329
-0.072123258
-0.062711995
-0.05401995
-0.045917636
-0.037754626
-0.030746996
-0.024716097
-0.019670448
-0.015413049
-0.011830832
-0.0088130284
-0.0062847269
-0.0041606598
-0.0024122951
-0.00095360173
0.00019112178
0.0010925891
0.001766077
-0.076348411
-0.064496042
-0.054491622
-0.046567246
-0.040516582
-0.035601838
-0.031223221
-0.027091938
-0.023087481
-0.019189439
-0.015356783
-0.011891102
-0.0088279633
-0.0061420307
-0.0038168416
-0.0017639108
4.037488e-05
0.0015761883
0.0029040704
0.0040817803
0.004930497
0.0052943971
0.0051615533
0.0043862
0.0030320537
0.0015381345
-0.089523571
-0.10386437
-0.11856327
-0.13195198
-0.14305328
-0.15161536
-0.15847571
-0.16435655
-0.16882407
-0.16985947
-0.16623651
-0.16147366
-0.15530877
-0.14840778
-0.14075725
-0.13232207
-0.12307309
-0.11313404
-0.10267477
-0.091947765
-0.081317215
-0.071177952
-0.061719832
-0.052799779
-0.043636881
-0.035744073
-0.028926362
-0.023220842
-0.018401632
-0.014338596
-0.010912496
-0.0080225705
-0.0055978867
-0.0035553453
-0.0018703023
-0.00046047933
0.00064455741
0.0015259591
0.0021831065
-0.090090104
-0.075947864
-0.063392576
-0.052995273
-0.044874407
-0.03837381
-0.032858853
-0.028039626
-0.023687396
-0.019666543
-0.015764995
-0.012136548
-0.0087895256
-0.0057576151
-0.0031603847
-0.00096201974
0.00091233349
0.002495496
0.0037668031
0.0047953146
0.0055723045
0.0059753104
0.0059349016
0.0054482055
0.0044124203
0.0029178191
0.0013885709
-0.10517011
-0.12082527
-0.13587107
-0.14863539
-0.15852866
-0.1658525
-0.17166394
-0.17639186
-0.17942896
-0.17913717
-0.17421794
-0.16817136
-0.16080551
-0.1527807
-0.14406368
-0.13462897
-0.12446063
-0.113671
-0.10246622
-0.091219815
-0.080374289
-0.070150202
-0.060383969
-0.050137221
-0.041277504
-0.033593531
-0.02716323
-0.021725646
-0.017138486
-0.013262897
-0.0099915775
-0.0072281545