/*--------------------------------*- C++ -*----------------------------------*\
| =========                 |                                                 |
| \\      /  F ield         | OpenFOAM: The Open Source CFD Toolbox           |
|  \\    /   O peration     | Version:  5.0                                   |
|   \\  /    A nd           | Web:      www.OpenFOAM.org                      |
|    \\/     M anipulation  |                                                 |
\*---------------------------------------------------------------------------*/
FoamFile
{
    version     2.0;
    format      ascii;
    class       volScalarField;
    location    "140";
    object      pPrime2Mean;
}
// * * * * * * * * * * * * * * * * * * * * * * * * * * * * * * * * * * * * * //

dimensions      [0 4 -4 0 0 0 0];

internalField   nonuniform List<scalar> 
9200
(
1.9298818e-06
2.0706878e-06
1.2195822e-05
2.2660129e-06
1.2804617e-05
3.3264924e-05
2.6828953e-06
1.3561138e-05
3.470454e-05
6.0423064e-05
3.3202254e-06
1.5005227e-05
3.6753082e-05
6.2679026e-05
9.3581487e-05
4.4039482e-06
1.7006384e-05
4.0466368e-05
6.5951925e-05
9.6643605e-05
0.00013019683
6.1664306e-06
1.9934689e-05
4.5593066e-05
7.1724081e-05
0.00010094869
0.00013375455
0.00016922462
9.0480045e-06
2.3978866e-05
5.2840786e-05
7.9587032e-05
0.00010843988
0.00013866784
0.0001730817
0.00020997477
1.3533844e-05
2.9517674e-05
6.251229e-05
9.0531281e-05
0.00011845451
0.00014719982
0.00017819092
0.00021387492
0.00025197193
2.0355137e-05
3.6822667e-05
7.5353695e-05
0.00010486588
0.00013211366
0.00015840428
0.00018710958
0.0002187666
0.00025575529
0.00029508976
2.9795824e-05
4.6265266e-05
9.2148559e-05
0.00012345485
0.00014964509
0.00017348077
0.00019860174
0.00022750325
0.00026012306
0.00029862448
0.00033932506
3.8922482e-05
5.7807472e-05
0.00011382432
0.00014705909
0.00017197073
0.00019248078
0.00021392511
0.00023855362
0.00026824354
0.00030223672
0.00034252945
0.00038475629
4.3634126e-05
7.2408008e-05
0.00014160544
0.0001768795
0.00019990817
0.00021626555
0.00023295297
0.00025323018
0.00027831693
0.00030944416
0.00034522846
0.0003875873
0.00043155501
4.8473818e-05
9.58741e-05
0.00017916972
0.00021516709
0.00023494218
0.00024554705
0.00025646483
0.00027122193
0.00029172535
0.00031819761
0.00035133858
0.00038928011
0.00043398896
0.00047982743
6.2409551e-05
0.00013886397
0.00023594302
0.00026706976
0.00027967874
0.00028178504
0.00028504958
0.00029323747
0.00030801229
0.00032997927
0.00035858425
0.00039421169
0.00043461909
0.00048186496
0.00052980064
8.853663e-05
0.00021767068
0.00032672142
0.00034370022
0.00033974522
0.00032756972
0.00032004418
0.00031973094
0.00032783192
0.00034420642
0.00036858176
0.00039989666
0.00043834752
0.00048141881
0.00053143634
0.00058155155
0.00012781718
0.00034398578
0.00047438396
0.00046320202
0.00042626312
0.0003883197
0.00036381521
0.00035187413
0.00035152665
0.00036150736
0.00038064631
0.00040812149
0.00044250496
0.00048397765
0.0005298963
0.00058278251
0.00063529684
0.00017833665
0.00051476361
0.00069800785
0.0006523237
0.00055954169
0.00047518735
0.00042127921
0.00039176179
0.00038013146
0.00038213663
0.0003953987
0.00041811888
0.00044907997
0.00048671606
0.00053132209
0.00058014079
0.00063611725
0.00069109252
0.00023098233
0.00072044981
0.00099185197
0.00093922518
0.00077045457
0.00060892214
0.00050279419
0.00044376653
0.00041551742
0.0004070212
0.00041302002
0.00043051817
0.00045724703
0.00049185949
0.00053276891
0.00058048909
0.00063235126
0.00069147175
0.00074909259
0.00027681343
0.00093363748
0.0013361582
0.00132251
0.0010914623
0.00082006512
0.00062793005
0.00051699587
0.0004614716
0.00043780128
0.00043435238
0.0004454331
0.00046764983
0.00049855072
0.00053673464
0.00058079499
0.00063163027
0.00068653644
0.00074899623
0.00080936642
0.00030716691
0.0011278573
0.0016861406
0.001777766
0.0015266979
0.0011451667
0.00082671306
0.00062902617
0.0005256689
0.0004777942
0.00046084419
0.00046360781
0.00048033791
0.00050746244
0.00054236992
0.00058386993
0.00063090143
0.00068473448
0.00074284102
0.00080873629
0.00087202219
0.00030892538
0.0012721481
0.001999126
0.0022498993
0.0020495898
0.001599052
0.0011387091
0.00081077482
0.00062358527
0.00053326791
0.00049535329
0.00048631672
0.00049595083
0.00051857374
0.00055038997
0.00058891905
0.00063333827
0.00068305608
0.00073991493
0.00080126308
0.00087079156
0.00093713508
0.00028373226
0.0013356299
0.0022394087
0.0026747499
0.0026052231
0.0021575299
0.0015880622
0.0011002665
0.00078443298
0.00061741142
0.00054308423
0.0005160057
0.00051558465
0.00053242096
0.00056071062
0.00059673061
0.00063825688
0.00068507973
0.00073729152
0.0007970952
0.0008618926
0.00093522202
0.0010047793
0.00024918406
0.0013210587
0.002376898
0.0030108645
0.003122443
0.0027695804
0.0021582682
0.001527453
0.00104424
0.00075553025
0.00061471992
0.00055708145
0.00054133471
0.00054990092
0.00057376328
0.00060718006
0.00064656491
0.00069029669
0.00073902485
0.00079346558
0.00085634731
0.00092475686
0.0010020994
0.0010750164
0.00021355312
0.0012563231
0.0023845694
0.0032304698
0.0035473001
0.0033616488
0.0028067983
0.002091309
0.0014401314
0.00098385482
0.00073159265
0.00061776407
0.0005767998
0.00057271744
0.00059022262
0.00062060254
0.00065814065
0.00069979979
0.00074486797
0.00079495282
0.00085158654
0.00091762441
0.00098992251
0.0010714804
0.0011479022
0.00018096354
0.0011725192
0.0022986755
0.003276839
0.0038413239
0.0038657364
0.0034558766
0.0027548218
0.0019846228
0.0013443582
0.00092950182
0.00071551484
0.00062860295
0.00060387131
0.00061142606
0.00063741981
0.0006732244
0.00071354144
0.00075618312
0.00080164772
0.0008527365
0.00091149606
0.00098097222
0.0010574379
0.0011434244
0.0012234751
0.00015341765
0.001075246
0.0021712113
0.0031892806
0.0039537557
0.0042353302
0.0040341655
0.0034494421
0.0026482297
0.0018584075
0.0012492554
0.00088208467
0.00070990896
0.00064866094
0.00063983186
0.00065866226
0.00069203314
0.0007317007
0.0007730686
0.00081527145
0.00086033612
0.00091209708
0.00097320965
0.0010464013
0.0011273612
0.0012179776
0.0013017364
0.00013070349
0.00097527173
0.0020127422
0.0030296196
0.003896159
0.0044345833
0.0044862722
0.0040938561
0.0033733093
0.0025069992
0.0017212052
0.0011567919
0.00084686653
0.00071672249
0.00067970921
0.00068618486
0.00071525018
0.00075434579
0.00079573928
0.00083617773
0.00087656432
0.00092049762
0.00097294729
0.0010366404
0.0011139702
0.0011997465
0.001295166
0.0013826466
0.00011251305
0.00087712689
0.0018411386
0.0028290817
0.0037313137
0.0044356501
0.0047725414
0.0046238873
0.0040735214
0.0032458657
0.002343437
0.0015811136
0.0010795121
0.00082896588
0.00073811637
0.00072341651
0.00074424861
0.00078182296
0.00082416678
0.00086473426
0.00090216468
0.00093941329
0.00098183897
0.0010350611
0.0011018351
0.001183735
0.0012746457
0.0013749885
0.0014661868
9.7545035e-05
0.00078493831
0.0016693172
0.0026065097
0.0035155485
0.0042925997
0.004851969
0.0049936969
0.0046765765
0.0039914381
0.003078165
0.0021668177
0.001450782
0.0010212449
0.00083042597
0.00077589161
0.000781617
0.00081504049
0.00085843826
0.0009009263
0.00093778885
0.00097011492
0.0010032513
0.0010439632
0.0010984318
0.0011688067
0.0012557668
0.0013521006
0.0014574296
0.0015523869
8.2693052e-05
0.00070152756
0.0015057298
0.0023796871
0.0032655834
0.0040797835
0.0047590462
0.0051745744
0.0051382815
0.0046631485
0.0038540892
0.002881017
0.0019854253
0.0013339996
0.00098611112
0.00085387205
0.00083164291
0.00085582654
0.00089904237
0.00094469639
0.00098359462
0.0010137035
0.0010391195
0.0010674319
0.0011067067
0.0011629725
0.0012376537
0.001330141
0.001432135
0.001542463
0.0016411791
6.8858874e-05
0.0006163043
0.0013552884
0.0021604366
0.003004588
0.0038226096
0.0045666812
0.0051546283
0.0054257934
0.0052123384
0.0045864357
0.0036684828
0.0026654018
0.0018066247
0.001245042
0.00098032456
0.00090155134
0.00090743504
0.00094716192
0.00099617446
0.0010395204
0.0010707036
0.0010911718
0.0011081712
0.0011315151
0.0011698403
0.0012287905
0.0013084696
0.001406933
0.0015147522
0.0016300251
0.0017322458
5.6745982e-05
0.00053450546
0.0011985286
0.0019578771
0.002748222
0.0035463605
0.0043196438
0.0049988712
0.0054954214
0.0055974467
0.0052133105
0.0044470884
0.0034439125
0.0024433523
0.0016496685
0.0011919917
0.0010069036
0.00097530152
0.0010050248
0.0010559837
0.0011055038
0.001141244
0.0011604963
0.0011687135
0.0011764394
0.0011950515
0.0012333983
0.0012959452
0.001381384
0.0014862046
0.0015999326
0.0017199985
0.001825321
4.614303e-05
0.00045942653
0.0010466439
0.0017461402
0.002509388
0.0032716898
0.0040430227
0.0047763408
0.0054043778
0.0057821772
0.0056953667
0.0051423332
0.0042518475
0.0031967544
0.0022237199
0.0015274226
0.0011784835
0.0010689984
0.0010767101
0.0011255179
0.0011817087
0.0012252665
0.0012476673
0.0012509248
0.0012449704
0.0012431264
0.0012578782
0.0012973727
0.0013646384
0.0014565244
0.0015679999
0.0016876255
0.0018122663
0.0019203624
3.7355095e-05
0.00039117764
0.0009038202
0.0015411514
0.002256424
0.0030127455
0.0037623594
0.0045138942
0.0052231044
0.0057826001
0.0060049006
0.0057140577
0.0050077249
0.00401312
0.002939273
0.0020234517
0.0014544488
0.0012111197
0.0011683832
0.0012075356
0.0012688731
0.0013227208
0.0013528751
0.0013560918
0.0013399529
0.0013186143
0.0013077356
0.0013198715
0.0013619921
0.0014350379
0.0015340257
0.0016523431
0.0017777486
0.001906688
0.0020174372
3.0708115e-05
0.00033121178
0.00077178297
0.0013482656
0.0020134051
0.0027325741
0.0034949879
0.0042404673
0.0049915131
0.0056610872
0.0061108939
0.0061324758
0.0056553438
0.0048130654
0.0037432393
0.002683634
0.0018683554
0.0014390608
0.0012940322
0.0013067091
0.0013687412
0.0014338718
0.0014761768
0.0014849897
0.0014636546
0.0014255251
0.0013886486
0.0013698968
0.001381192
0.0014274502
0.0015073939
0.0016139989
0.0017392399
0.0018702009
0.0020030324
0.0021164399
2.6292658e-05
0.00028193454
0.00065349532
0.0011702393
0.0017819487
0.0024669789
0.0031979274
0.0039755814
0.0047380543
0.0054802505
0.0060694242
0.0063572334
0.0061708241
0.0055310739
0.0045687514
0.0034577832
0.0024486937
0.0017803262
0.0014855045
0.0014308663
0.0014844116
0.001559637
0.0016176285
0.0016380779
0.0016177637
0.0015673519
0.0015059167
0.0014542784
0.0014295913
0.0014420416
0.0014941112
0.0015819142
0.0016965351
0.0018286645
0.0019649019
0.0021011726
0.0022170565
2.434906e-05
0.00024394805
0.0005555352
0.0010107649
0.0015687497
0.0022110649
0.0029207308
0.0036699923
0.0044879428
0.0052675589
0.0059511951
0.0064158479
0.0065219212
0.0061349717
0.0053455794
0.0042872551
0.0031749038
0.0022713896
0.001773276
0.0015998515
0.0016210589
0.001701955
0.001777704
0.0018156438
0.001803548
0.001747028
0.0016644741
0.0015796756
0.0015151477
0.0014869546
0.0015028491
0.0015622877
0.0016588343
0.0017816978
0.0019205353
0.0020616971
0.0022009623
0.0023190684
2.5024663e-05
0.00021807183
0.0004797223
0.00087721184
0.0013780399
0.0019747693
0.0026509887
0.0033894173
0.0041808977
0.0050517459
0.0057919228
0.0063712132
0.0066905195
0.006594718
0.0060266247
0.005105438
0.0039882697
0.0029246105
0.0021794434
0.0018495345
0.0017888837
0.0018643815
0.0019574615
0.0020180838
0.0020219665
0.001967012
0.0018687641
0.0017526024
0.0016458992
0.0015711827
0.0015424253
0.0015640576
0.0016323911
0.0017383388
0.0018695309
0.0020147575
0.0021604065
0.0023021919
0.0024222101
2.8529625e-05
0.00020483044
0.00042711374
0.00077398357
0.0012177603
0.001763148
0.0024017241
0.0031129278
0.0039065323
0.0047557058
0.00562381
0.0062768987
0.0067299327
0.0068911575
0.0065848572
0.0058566493
0.0048264809
0.003695081
0.002739722
0.0021981254
0.0020166751
0.0020521986
0.0021591726
0.0022461098
0.0022738099
0.0022293861
0.0021228117
0.0019792294
0.0018299774
0.0017040927
0.0016227337
0.0015965563
0.0016262522
0.0017047626
0.0018206047
0.0019600232
0.0021112145
0.0022608396
0.0024046551
0.0025261765
0.00020420081
3.5152979e-05
0.00039822188
0.00070288384
0.0010954279
0.0015850844
0.0021777831
0.0028559337
0.0036284346
0.004502372
0.0053545102
0.0061642609
0.0067109194
0.0070434252
0.0070142511
0.0065075743
0.0056334009
0.0045279709
0.003443258
0.0026712118
0.0023343589
0.0022810495
0.0023863872
0.0025012397
0.0025601345
0.0025359971
0.002430254
0.0022654313
0.0020754235
0.0018954119
0.0017543529
0.0016703937
0.0016501023
0.0016899923
0.0017797772
0.001905734
0.0020531257
0.0022097561
0.002362784
0.0025081242
0.002630707
0.00039332627
0.0002158297
4.5009781e-05
0.0006643369
0.0010122363
0.0014513117
0.0019899454
0.0026251194
0.0033682431
0.004233953
0.0051382333
0.0059280631
0.0066683069
0.0071100208
0.0072897313
0.0070415958
0.0063655932
0.0053693693
0.0042411294
0.0032876829
0.0027464099
0.0025856111
0.00264603
0.0027860796
0.0028821801
0.0028887018
0.002794517
0.002616778
0.0023901641
0.0021550983
0.0019485269
0.0017972057
0.0017150744
0.0017038574
0.0017558848
0.0018577033
0.0019938107
0.0021487418
0.0023102028
0.002466015
0.002612364
0.0027355878
0.00065758747
0.00041123559
0.00023898486
5.8276369e-05
0.00096840419
0.0013629055
0.0018500985
0.0024322349
0.0031339614
0.0039780629
0.0048950392
0.0057591579
0.0064813487
0.0071481252
0.00746426
0.0074551635
0.0069984069
0.0061698192
0.0050867876
0.0040240734
0.0032779956
0.0029791156
0.0029618807
0.0031039025
0.0032420885
0.0032893422
0.0032188701
0.0030387466
0.0027819683
0.0024932049
0.002217062
0.0019895859
0.0018336507
0.0017578266
0.0017587054
0.0018244308
0.0019388073
0.0020848444
0.0022467463
0.0024123539
0.0025703002
0.002717133
0.0028406138
0.00096254938
0.00068035101
0.0004498589
0.00027241122
7.5404357e-05
0.0013210929
0.0017621531
0.0022901372
0.0029368931
0.0037440442
0.0046584036
0.005549899
0.0063697169
0.0070207324
0.0076030959
0.0077635302
0.0075446752
0.0068974504
0.0059322012
0.0048386846
0.0039397087
0.0034583663
0.0033646479
0.0034658752
0.003642721
0.0037403784
0.0037066759
0.0035366365
0.0032587127
0.0029199194
0.0025721317
0.0022610401
0.0020195569
0.0018649822
0.0017998675
0.0018155147
0.0018961488
0.0020232557
0.002178809
0.0023469781
0.0025159906
0.0026754058
0.0028222055
0.0029455615
0.0013231814
0.00099128515
0.00072829181
0.00050586962
0.00031405288
9.5722784e-05
0.0017266858
0.0022053128
0.0027912913
0.0035418591
0.0044361705
0.0053428572
0.0062076419
0.0069849302
0.0075487031
0.0080198219
0.0079936342
0.0075530001
0.0067362171
0.0056933804
0.0046991664
0.0040499292
0.0038421517
0.0039021392
0.0040886115
0.0042449156
0.0042615227
0.0041158802
0.0038281996
0.0034456372
0.0030263703
0.0026257949
0.0022877984
0.0020399277
0.0018927851
0.0018424572
0.0018751042
0.001971445
0.0021111685
0.0022756097
0.0024492472
0.0026208806
0.0027810923
0.0029273566
0.0030502094
0.0017400414
0.0013646299
0.0010487826
0.00079618172
0.0005749759
0.00036103253
0.00011821134
0.0021788698
0.002708399
0.0033885193
0.004235607
0.0051457829
0.0060416856
0.006883308
0.007603918
0.0080597495
0.008384676
0.0081444284
0.0074934559
0.0065457797
0.0055275682
0.004747481
0.004396164
0.0044267407
0.0045965233
0.0048061619
0.004887565
0.0047821071
0.0044984057
0.0040810084
0.0035927884
0.0030987982
0.0026544323
0.0022988732
0.002052651
0.0019187737
0.0018868426
0.0019382041
0.0020506498
0.0022025713
0.0023751154
0.0025533372
0.0027267848
0.0028871233
0.0030323657
0.0031543464
0.0022057731
0.0017958385
0.0014371463
0.0011280817
0.00087757516
0.00065209348
0.00041053012
0.00014060845
0.0026889007
0.0033014992
0.0040764158
0.004960897
0.0058808761
0.0067732421
0.0075829643
0.0082245572
0.0085395522
0.00868247
0.0082066694
0.0073811169
0.0063920302
0.0055333901
0.0050506867
0.0050082987
0.0051976822
0.0054318486
0.005588788
0.0055411882
0.0052775756
0.0048368704
0.00428495
0.0036956332
0.0031365491
0.0026594791
0.0022965847
0.0020599603
0.0019447184
0.0019341955
0.0020054526
0.0021339831
0.002297434
0.0024771459
0.002659017
0.0028334599
0.002993264
0.0031370171
0.0032577866
0.0027274257
0.0022773593
0.0018835984
0.0015317961
0.0012203065
0.00096599283
0.00073039983
0.00045820676
0.00016071104
0.0032821416
0.0039847591
0.0048079675
0.0057251327
0.006664043
0.0075462383
0.0083062358
0.0088359078
0.0089714129
0.0089043505
0.0081958538
0.0072743595
0.0063823272
0.0057942672
0.0056604936
0.0058745608
0.0061453894
0.0063702877
0.0063994604
0.0061743512
0.005724577
0.0051167872
0.0044327771
0.0037522072
0.0031407076
0.0026434898
0.0022837283
0.0020642483
0.001972367
0.0019855771
0.0020773548
0.0022215786
0.0023956547
0.0025814985
0.0027660377
0.0029406532
0.0030992823
0.0032411099
0.00336036
0.0033254948
0.0028123384
0.0023799806
0.0019916634
0.0016372402
0.0013167855
0.001052161
0.00080468541
0.00050015784
0.00017552267
0.0039630199
0.0047217019
0.0055905242
0.006550162
0.0075057848
0.0083644797
0.0090443594
0.0094209888
0.0093436492
0.009043632
0.0081622344
0.0072800583
0.0066155288
0.006387532
0.0065939965
0.0069620687
0.0072456072
0.0073632146
0.0071975726
0.0067558707
0.0061029161
0.0053271838
0.0045205019
0.0037627878
0.0031139037
0.0026098096
0.0022633807
0.0020679637
0.0020033647
0.0020419019
0.0021543005
0.0023134716
0.0024970869
0.0026879327
0.0028741297
0.0030481059
0.0032049635
0.0033444686
0.0034619063
0.0040073874
0.003417753
0.002927302
0.0024994283
0.0021062645
0.0017408446
0.0014061699
0.0011285393
0.00086706255
0.0005272732
0.00018182968
0.0047060809
0.0055190806
0.0064484007
0.0074518645
0.0084135865
0.0092270572
0.0097862223
0.0099571752
0.0096481803
0.0091349284
0.008212594
0.007507907
0.0071853142
0.0073632617
0.0078332041
0.0082386197
0.0084411999
0.0083559278
0.0079427826
0.0072584306
0.0063967762
0.0054613381
0.0045472233
0.0037299079
0.0030599774
0.0025623412
0.0022388488
0.0020734931
0.0020391747
0.0021039272
0.0022365513
0.0024096213
0.002601522
0.0027961694
0.0029830062
0.0031555841
0.0033101335
0.0034469351
0.0035622607
0.0047578479
0.0041027977
0.0035394166
0.0030550631
0.0026188344
0.0022101038
0.0018301738
0.0014794491
0.0011810094
0.00090357111
0.00053353724
0.00018191606
0.0055177822
0.0064007312
0.007394752
0.0084382767
0.0093888231
0.010118664
0.010500381
0.010439159
0.0098892707
0.0092633084
0.0084595254
0.0080641508
0.0081776423
0.0087348671
0.0093291544
0.0096507998
0.0096588002
0.0092969173
0.008598761
0.0076599809
0.0065957269
0.0055166761
0.004515112
0.003657846
0.0029837362
0.0025053849
0.0022134324
0.0020830497
0.0020810699
0.0021722526
0.0023242408
0.0025098938
0.0027086849
0.0029058951
0.003092414
0.0032629153
0.00341463
0.0035483203
0.0036660665
0.0055833355
0.0048615345
0.0042269527
0.0036705412
0.0031765033
0.0027196514
0.0022928719
0.0018902176
0.0015130519
0.0011953617
0.00090696053
0.00052640094
0.00017597822
0.0064210653
0.0073796546
0.0084416352
0.0095150921
0.010421177
0.011012604
0.011167358
0.010866598
0.010125275
0.0095588275
0.0090167664
0.0090554177
0.0096469132
0.010456161
0.010994525
0.011119296
0.010830099
0.010138988
0.0091356927
0.007945338
0.0066947914
0.005494496
0.0044287206
0.0035522881
0.0028905795
0.0024433372
0.0021902948
0.0020986177
0.0021301281
0.0022472861
0.002417359
0.0026140429
0.0028182481
0.0030168422
0.0032021837
0.0033699279
0.0035182
0.0036526331
0.0037756551
0.0065057205
0.0056994267
0.0049906266
0.0043568807
0.003788541
0.0032715738
0.0027918995
0.0023258811
0.0018929036
0.0014985851
0.0011697756
0.00089402245
0.00050616126
0.00016624156
0.0074286269
0.0084689483
0.0095974638
0.010674256
0.011484669
0.0118784
0.01178835
0.011268719
0.010470246
0.010136857
0.010002421
0.010576634
0.011573216
0.012422086
0.012743919
0.012554636
0.011893892
0.010842564
0.0095324435
0.0081062968
0.0066941568
0.0053995105
0.0042946337
0.0034198576
0.0027862189
0.0023805172
0.0021723612
0.0021219292
0.0021871835
0.0023292395
0.0025157444
0.0027217549
0.0029299491
0.0031288508
0.0033121248
0.0034762634
0.0036244068
0.0037624164
0.0038880717
0.0075380004
0.0066374121
0.0058353829
0.0051185834
0.00446551
0.0038752294
0.0033209858
0.0027891259
0.0022867877
0.0018388087
0.0014409764
0.0011346255
0.00085739848
0.00047826233
0.00015318952
0.0085533684
0.0096767619
0.010854953
0.01189647
0.012549564
0.01270129
0.012386613
0.011735099
0.011042549
0.011127435
0.011540398
0.012656647
0.013845779
0.014500228
0.014478103
0.013878367
0.012798628
0.011379026
0.0097765651
0.0081413596
0.0065984463
0.0052392407
0.0041208556
0.0032677869
0.0026763801
0.0023210454
0.0021622584
0.0021544088
0.0022527768
0.002418095
0.0026191432
0.0028327896
0.0030436388
0.0032416897
0.0034217457
0.0035851456
0.0037361083
0.0038755108
0.0040032979
0.0086934059
0.0076881045
0.0067797725
0.0059604675
0.0052140634
0.0045320845
0.0038888377
0.0032779205
0.0026991873
0.0021874452
0.0017347729
0.0013809111
0.0010723011
0.00080915772
0.00044264587
0.00013779594
0.0098014935
0.010994377
0.01219484
0.013148023
0.013590286
0.013501051
0.013012187
0.012357549
0.011968182
0.012671505
0.013701379
0.015208132
0.016301992
0.016573221
0.016102186
0.015021503
0.013506442
0.011730709
0.0098642948
0.0080549555
0.0064160647
0.0050231582
0.003916285
0.0031034758
0.0025666281
0.0022687105
0.0021622218
0.0021970978
0.0023271496
0.0025137324
0.0027273719
0.0029470167
0.0031590273
0.0033547128
0.00353409
0.0036998428
0.0038516108
0.0039918862
0.0041212984
0.0099733667
0.0088681504
0.0078390983
0.0068992573
0.0060405817
0.005261196
0.0045082158
0.0037982483
0.0031342116
0.0025495877
0.0020336804
0.0016388012
0.0012855947
0.00099769248
0.00074773841
0.0004002637
0.00012156944
0.011158107
0.012404904
0.013588902
0.014391891
0.014610007
0.014316721
0.013737087
0.013235245
0.013402915
0.014872413
0.016449581
0.018042815
0.018775477
0.018535594
0.017524174
0.015934737
0.013993153
0.011890701
0.0097994167
0.0078563172
0.0061581015
0.0047620919
0.00369024
0.0029342412
0.0024622179
0.0022268314
0.0021739924
0.0022506531
0.0024104038
0.002616084
0.0028403304
0.0030640707
0.0032752867
0.0034709658
0.0036529036
0.0038188841
0.003970921
0.0041114734
0.0042420248
0.011353587
0.010173829
0.0090326413
0.0079528269
0.0069595145
0.0060599229
0.0051875169
0.0043606521
0.0035976422
0.0029313481
0.0023419382
0.0018971431
0.0014991381
0.0011772412
0.00090930712
0.00067569368
0.00035279872
0.00010533249
0.012606149
0.013881623
0.014998099
0.015624158
0.0156394
0.015207199
0.014632483
0.014547789
0.015473011
0.017736656
0.019604332
0.020946046
0.021120265
0.02028402
0.018680727
0.016586655
0.01424843
0.011862139
0.0095922375
0.007558354
0.0058375472
0.0044675512
0.0034521025
0.0027670832
0.0023678426
0.0021980938
0.0021988103
0.0023155314
0.0025026853
0.0027251032
0.0029575649
0.0031829212
0.0033956702
0.0035947335
0.0037766573
0.0039423457
0.004093935
0.004234202
0.0043654144
0.012811656
0.011565515
0.010350222
0.00914386
0.00799093
0.0069363113
0.0059302361
0.0049735329
0.0040994581
0.0033378437
0.0026657031
0.0021611612
0.001710629
0.0013487284
0.0010553285
0.00081142699
0.00059512242
0.00030184384
9.045051e-05
0.014120496
0.015391981
0.016408051
0.016871658
0.016730151
0.016206612
0.015862362
0.016444498
0.018209918
0.02111623
0.022908592
0.023733794
0.023232601
0.02173353
0.019532893
0.016962837
0.014273891
0.011656283
0.0092576128
0.0071764954
0.0054684353
0.0041512749
0.0032109996
0.0026084124
0.0022874378
0.0021845764
0.0022377013
0.0023921955
0.0026040386
0.0028402275
0.003077822
0.0033073093
0.003525073
0.0037241087
0.0039055389
0.0040700807
0.0042205656
0.0043599713
0.0044913996
0.01432632
0.013011127
0.011734598
0.010454728
0.0091586913
0.0079189215
0.0067417041
0.0056421664
0.0046488909
0.0037774204
0.0030122253
0.0024391304
0.0019226959
0.0015138648
0.0011863765
0.00092544967
0.0007075543
0.00051054936
0.00025017104
7.7566271e-05
0.015673681
0.016923909
0.017836962
0.018174995
0.017890732
0.017427813
0.017610247
0.018978411
0.021518918
0.024742503
0.026132271
0.026261692
0.025015315
0.022828908
0.020059604
0.017062397
0.014081544
0.011290162
0.0088138935
0.0067276774
0.0050652246
0.0038248153
0.0029753524
0.0024637176
0.0022242098
0.0021880918
0.0022916371
0.0024808566
0.0027137765
0.0029599827
0.0032056508
0.0034428032
0.0036608633
0.003859449
0.0040393633
0.0042019982
0.0043506836
0.0044886761
0.0046198997
0.015877511
0.014505938
0.013148449
0.011807035
0.01043988
0.0090365505
0.0076512347
0.0063701769
0.0052409425
0.0042562134
0.0033860811
0.0027383791
0.0021479465
0.0016774717
0.0013063074
0.0010191497
0.00079396066
0.00060450897
0.00042736595
0.0002013235
6.6763372e-05
0.017248132
0.018475817
0.019323954
0.019528612
0.019189315
0.019080745
0.019946367
0.022088346
0.025189755
0.028342911
0.029099415
0.028423874
0.026400546
0.023546554
0.020256988
0.016897817
0.013690956
0.010785433
0.0082812862
0.0062294644
0.0046422347
0.0034989872
0.0027525317
0.0023376745
0.0021810697
0.002210345
0.0023610612
0.0025807021
0.0028302232
0.003090137
0.0033473713
0.0035856051
0.00380363
0.0040005388
0.0041780349
0.004337944
0.0044841505
0.0046201849
0.0047508268
0.017443207
0.016026808
0.014598775
0.013164036
0.011735073
0.010251316
0.0086828481
0.0071881941
0.0058849132
0.0047745209
0.0037948912
0.0030618718
0.002391778
0.0018520769
0.0014250177
0.0010984851
0.00085455862
0.00066707122
0.00050613771
0.0003496527
0.00015732738
5.7363541e-05
0.018837489
0.020077494
0.020862494
0.020972234
0.020829836
0.021263327
0.022809907
0.025612855
0.028947094
0.031708683
0.031677194
0.03015044
0.027350356
0.023875671
0.020138384
0.016492025
0.013127507
0.010166141
0.0076809346
0.0056993267
0.0042129645
0.0031833893
0.0025490453
0.0022346639
0.0021607133
0.00225215
0.0024450042
0.0026898993
0.0029608389
0.0032378384
0.00349753
0.0037366222
0.0039531145
0.0041472753
0.0043213909
0.0044777504
0.004620797
0.004754359
0.0048840785
0.019011785
0.017544359
0.016060759
0.014539504
0.013015152
0.01144815
0.0097915251
0.0081160019
0.0066088903
0.005338045
0.0042348053
0.0034164679
0.0026564376
0.0020432061
0.0015526781
0.0011760964
0.00089982225
0.00070186412
0.00055048649
0.00041638414
0.00027922836
0.00011998659
4.9206461e-05
0.02047431
0.021747852
0.022481758
0.022688294
0.022925243
0.023906617
0.026051366
0.029336988
0.032547631
0.034688741
0.033781251
0.031389335
0.027856231
0.023827623
0.019729749
0.015874505
0.012419876
0.0094576121
0.0070338832
0.0051537532
0.0037895762
0.0028866703
0.0023711337
0.002158704
0.0021644777
0.0023124415
0.0025415975
0.0028181635
0.0031137047
0.003395387
0.0036574451
0.0038955326
0.0041092207
0.0042994837
0.004469238
0.0046212196
0.0047604381
0.0048910393
0.0050195717
0.020620346
0.019044217
0.017497346
0.015910263
0.01428928
0.01261187
0.010856547
0.0090913607
0.0074238225
0.0059677139
0.0047073244
0.003795579
0.0029453047
0.0022516083
0.0016934856
0.0012612474
0.00094237815
0.0007198136
0.00056609139
0.0004479693
0.00033619896
0.00021895363
9.0261297e-05
4.137609e-05
0.022197132
0.02352087
0.024342053
0.024797131
0.025427077
0.026861446
0.029514666
0.033047982
0.035821553
0.037191287
0.035364215
0.03212417
0.027931213
0.023435319
0.019065523
0.01507911
0.011598323
0.0086851145
0.0063600789
0.004607766
0.0033831925
0.0026173239
0.0022245134
0.0021118219
0.0021912733
0.0023894482
0.0026634428
0.002974643
0.0032782262
0.0035646278
0.0038267064
0.0040622613
0.004271763
0.0044569571
0.004621353
0.0047681245
0.004902867
0.0050300906
0.00515719
0.022321812
0.020572647
0.018903879
0.017244142
0.015540686
0.013751241
0.011878058
0.010019751
0.0082652304
0.0066715466
0.0052364492
0.0042049769
0.003254328
0.0024810561
0.0018497937
0.0013576557
0.00099203655
0.00073559483
0.00056468768
0.00045127012
0.00036005078
0.00026842701
0.00017165162
6.7045301e-05
3.3245281e-05
0.024054944
0.025528904
0.026560137
0.027250792
0.028162956
0.029972705
0.033054549
0.036539404
0.038661648
0.03916059
0.036395267
0.032364882
0.027602333
0.022735712
0.018185231
0.014141738
0.010692993
0.0078723577
0.0056775824
0.0040753165
0.0030049127
0.0023831665
0.0021121299
0.0020929909
0.0022397376
0.0024991932
0.0028209555
0.0031451276
0.0034568996
0.003745027
0.004005273
0.004236614
0.0044405264
0.0046194526
0.0047774695
0.0049182184
0.0050479073
0.0051713374
0.0052968138
0.024191229
0.022195052
0.020325106
0.018538535
0.016750796
0.014859624
0.012862887
0.010892484
0.009052157
0.0073836708
0.0058155974
0.0046611953
0.0035847481
0.0027243978
0.0020244134
0.0014678138
0.001051846
0.00075832927
0.0005620605
0.00043872676
0.00035772229
0.00028918405
0.00021576967
0.00013472718
5.0106488e-05
2.4728408e-05
0.026171821
0.027887552
0.029079417
0.029864006
0.030936565
0.033127939
0.036502833
0.039677941
0.041009161
0.04056945
0.036875289
0.032137555
0.026901539
0.021774552
0.017130512
0.01309813
0.0097320711
0.0070408559
0.0050034143
0.0035703797
0.0026649852
0.0021882958
0.0020331069
0.0021016039
0.0023296586
0.002653767
0.0029955755
0.0033329132
0.0036490209
0.0039365923
0.0041929418
0.0044183722
0.0046152509
0.0047866732
0.0049373054
0.0050712847
0.0051953351
0.0053145915
0.0054383147
0.026354821
0.024004435
0.021833003
0.019840091
0.017924441
0.015924725
0.013810238
0.011735705
0.009792469
0.0080429929
0.0063913972
0.0051524476
0.0039513023
0.0029834831
0.0022097164
0.0015939642
0.001124051
0.0007898871
0.00056626792
0.00042547893
0.0003417909
0.00028685165
0.00023597985
0.00017558469
0.00010658923
3.8126866e-05
1.6929672e-05
0.028648773
0.030539842
0.03171019
0.032418633
0.033649967
0.036256644
0.039707941
0.042392927
0.042825741
0.041405144
0.036816987
0.031478443
0.025881977
0.020602382
0.015944007
0.011981701
0.0087408499
0.0062108301
0.0043547583
0.0031058908
0.002368858
0.0020320729
0.0019880489
0.0021613963
0.0024754467
0.0028295892
0.003191554
0.0035370623
0.0038546559
0.004139109
0.0043894931
0.0046072636
0.0047956165
0.0049583053
0.0051006166
0.0052270619
0.0053449
0.0054596492
0.00558156
0.028904279
0.026124048
0.02353031
0.02122088
0.019094784
0.016953562
0.014725723
0.012547742
0.010508339
0.0086692121
0.0069244471
0.0056355716
0.0043402699
0.0032711813
0.0024054312
0.0017279554
0.0012097185
0.00083343656
0.00057831803
0.00041848875
0.00032535944
0.0002725275
0.0002370668
0.00019682041
0.0001444625
8.4454932e-05
2.9468144e-05
1.1087711e-05
0.031434673
0.033283689
0.034214127
0.034784021
0.036311303
0.039270194
0.042582578