/*--------------------------------*- C++ -*----------------------------------*\
| =========                 |                                                 |
| \\      /  F ield         | OpenFOAM: The Open Source CFD Toolbox           |
|  \\    /   O peration     | Version:  5.0                                   |
|   \\  /    A nd           | Web:      www.OpenFOAM.org                      |
|    \\/     M anipulation  |                                                 |
\*---------------------------------------------------------------------------*/
FoamFile
{
    version     2.0;
    format      ascii;
    class       volVectorField;
    location    "140";
    object      U;
}
// * * * * * * * * * * * * * * * * * * * * * * * * * * * * * * * * * * * * * //

dimensions      [0 1 -1 0 0 0 0];

internalField   nonuniform List<vector> 
9200
(
(1.0361973 0.00045761374 -1.3042165e-24)
(1.036463 0.0014813444 5.9335953e-22)
(1.0347867 0.0004766452 0)
(1.0368754 0.0023690216 -3.1455857e-22)
(1.0350219 0.0015698677 5.3542724e-22)
(1.0341183 0.00048303823 0)
(1.0374589 0.0032562286 -3.1456747e-23)
(1.0354088 0.0025221524 6.5066649e-24)
(1.0343316 0.0016025233 0)
(1.0331311 0.00048671151 0)
(1.0381638 0.0040907232 6.5476865e-22)
(1.0359472 0.0034919926 5.0809359e-22)
(1.0346881 0.0025759652 2.9933138e-22)
(1.0333182 0.0016177577 1.8233384e-23)
(1.0323375 0.00048680099 1.8024008e-25)
(1.0390009 0.0048732341 6.2485946e-22)
(1.0366126 0.0044415044 -1.9679748e-23)
(1.0351759 0.0035697642 1.000174e-21)
(1.0336435 0.002598323 4.1184684e-22)
(1.0325054 0.0016097387 1.3691576e-23)
(1.0315031 0.0004866296 -7.6115822e-22)
(1.0399571 0.0055979947 6.7754344e-22)
(1.037419 0.0053915397 7.2660352e-22)
(1.0357597 0.00455544 -5.9894103e-22)
(1.0340741 0.0035948528 -4.4715137e-23)
(1.0328046 0.0025803755 3.6462872e-22)
(1.0316607 0.0015924986 3.7191183e-22)
(1.0307381 0.00048816174 6.5506748e-23)
(1.0410578 0.0062539951 3.9562799e-22)
(1.0383526 0.0063766263 6.2005581e-22)
(1.0364334 0.0055640179 7.2444685e-22)
(1.0345648 0.0045811525 4.8201384e-23)
(1.0331919 0.003552505 -9.3864778e-22)
(1.031946 0.0025491196 -4.1813442e-22)
(1.0308897 0.0015757027 -4.2885415e-22)
(1.0299923 0.00048927754 7.0925548e-22)
(1.0422997 0.006852461 -9.3660371e-22)
(1.0394298 0.0074318393 6.0183635e-22)
(1.0371515 0.0066577722 5.4966375e-23)
(1.0350866 0.0055805344 3.3552364e-22)
(1.0336183 0.0044945937 1.0341011e-22)
(1.0323162 0.0034901168 -1.3946187e-21)
(1.0311647 0.0025227066 1.231457e-22)
(1.030144 0.0015619213 -7.3050483e-22)
(1.0292817 0.00048599674 -1.5081652e-21)
(1.0436143 0.007377624 8.054539e-22)
(1.0406865 0.008584346 -1.2008936e-22)
(1.0378769 0.0078769727 -4.3743561e-23)
(1.0355764 0.0066516601 -1.9829983e-22)
(1.0340559 0.0054078532 -1.4305729e-22)
(1.0327287 0.0043846379 1.6176901e-22)
(1.0315273 0.0034419045 4.8857833e-22)
(1.0304088 0.0025070448 8.2154854e-22)
(1.0294318 0.0015466916 4.6669589e-22)
(1.0286034 0.00047670084 1.206033e-22)
(1.0452002 0.007781024 -3.8112271e-22)
(1.0420393 0.0099205586 2.9252551e-22)
(1.0384621 0.0093410152 4.1573779e-22)
(1.035966 0.0078134665 -5.5897448e-22)
(1.0344275 0.0063268178 3.5356198e-22)
(1.033155 0.0052101401 -1.2399643e-21)
(1.0319435 0.0043104679 4.9999915e-23)
(1.0307654 0.003420306 1.2344289e-21)
(1.0296829 0.002492851 -6.1915637e-22)
(1.0287474 0.0015241305 1.3662383e-21)
(1.0279625 0.00046296468 -2.0803946e-22)
(1.0471849 0.0080120869 5.4087441e-24)
(1.0436018 0.011593506 -6.4188375e-22)
(1.0390114 0.011070094 -6.1386006e-22)
(1.0361991 0.0090971905 0)
(1.0346705 0.0072253981 2.6493355e-23)
(1.0335295 0.0059800208 -2.3106442e-22)
(1.0324013 0.0050918539 -2.4783808e-22)
(1.0311883 0.0042911704 -6.0718462e-22)
(1.0300286 0.0034095173 -1.5527361e-22)
(1.028979 0.0024673077 -7.8625379e-22)
(1.0280947 0.001489164 -5.3763648e-22)
(1.0273624 0.00044695782 1.240053e-22)
(1.0496569 0.0080567885 1.5247451e-23)
(1.0455227 0.013698783 1.2120274e-22)
(1.0394941 0.013137892 0)
(1.0361845 0.010552556 0)
(1.0346796 0.0081240761 -9.8885789e-23)
(1.033809 0.0066319536 -1.6255058e-22)
(1.0328519 0.0057863916 -3.2611839e-22)
(1.0316829 0.0050803284 7.1184849e-22)
(1.030448 0.0042993125 7.3629316e-23)
(1.0293035 0.0033866769 1.821855e-24)
(1.0283038 0.0024201724 8.885669e-22)
(1.0274792 0.0014381676 -9.6852927e-22)
(1.0268071 0.00042890358 1.9993197e-21)
(1.0527271 0.0078846842 -4.946973e-23)
(1.0478745 0.016361199 -3.287167e-24)
(1.0398347 0.015712411 -3.9113799e-23)
(1.035787 0.012285747 -5.2462767e-23)
(1.0343604 0.0089806929 1.6818527e-23)
(1.0339365 0.0071655704 -1.1045011e-22)
(1.0332746 0.0063106797 1.9224272e-22)
(1.0322191 0.0057811221 1.0939769e-23)
(1.0309648 0.005126635 7.9080908e-22)
(1.0296984 0.0042992727 7.4172903e-22)
(1.0285956 0.0033314698 2.435321e-22)
(1.0276652 0.0023440517 7.0648058e-22)
(1.0269089 0.0013696942 4.8268763e-22)
(1.0262999 0.00040783093 -5.5025446e-22)
(1.0564191 0.0075024638 -6.793613e-22)
(1.050706 0.019715268 -2.6113025e-22)
(1.0399758 0.018980866 -3.172384e-22)
(1.0348791 0.014382558 6.652515e-23)
(1.0335621 0.0098191565 -5.132617e-23)
(1.033826 0.0074190856 2.0069644e-22)
(1.0337023 0.0066443268 1.7975393e-22)
(1.0328267 0.0063258075 -2.443175e-22)
(1.03157 0.0058921877 -6.4480415e-23)
(1.0302 0.0051790576 -8.7234707e-23)
(1.0289451 0.0042570421 -1.4460254e-23)
(1.0279161 0.0032294329 -1.030489e-22)
(1.0270729 0.0022357636 -9.1280106e-22)
(1.02639 0.0012854244 4.6774024e-22)
(1.0258429 0.00038394626 -4.2462994e-22)
(1.0604215 0.0069301938 6.1015043e-22)
(1.0540028 0.023871731 -4.194055e-22)
(1.0398409 0.023147442 -2.4440975e-22)
(1.0333028 0.016957181 2.2703946e-22)
(1.0321209 0.010630276 -1.8230669e-22)
(1.0333216 0.0073582303 -2.5156466e-22)
(1.0341648 0.006596465 3.8015762e-23)
(1.0336157 0.006634421 2.0169221e-23)
(1.0323476 0.0065507776 -1.5519661e-22)
(1.0308128 0.0060519401 -1.805043e-22)
(1.0293847 0.00518255 -1.5635994e-21)
(1.0282015 0.0041425511 3.4075501e-22)
(1.0272852 0.0030756016 2.841132e-22)
(1.026536 0.0020986979 1.3989354e-22)
(1.0259259 0.001190632 2.4552475e-23)
(1.0254358 0.00035922943 4.7405018e-22)
(1.0643492 0.0061644094 0)
(1.0576217 0.028978443 -1.9419014e-22)
(1.0392695 0.028425394 6.8015089e-22)
(1.030859 0.020137156 0)
(1.0298274 0.011412198 0)
(1.0323331 0.0068748557 0)
(1.0344363 0.0060657499 6.6509989e-23)
(1.0345843 0.0066831723 3.6086524e-22)
(1.0333448 0.0070238584 2.2618538e-22)
(1.0316249 0.0069081544 4.6816129e-22)
(1.0299121 0.0061644389 6.713377e-23)
(1.0285429 0.0050783154 3.4133425e-22)
(1.0275019 0.0039438059 -3.6245357e-25)
(1.0267166 0.0028746247 -3.2534973e-22)
(1.02606 0.0019425918 -9.2376505e-23)
(1.025516 0.0010928391 -2.3065782e-22)
(1.0250752 0.00033608921 0)
(1.069002 0.0052713454 1.8595693e-21)
(1.0609662 0.035134272 1.8767997e-21)
(1.0378998 0.035025126 6.5241107e-22)
(1.0273251 0.024064995 1.5860033e-21)
(1.0264493 0.012155991 1.0048441e-21)
(1.0307034 0.0058474699 0)
(1.0345617 0.0048918546 3.974093e-22)
(1.0357953 0.0062894987 -1.0719014e-22)
(1.0345713 0.0074298858 3.7475578e-22)
(1.0326023 0.0077845486 2.7217461e-22)
(1.0305693 0.0072423189 -2.8340329e-22)
(1.0289106 0.0061153013 9.1580054e-23)
(1.0277319 0.0048339131 5.7445467e-22)
(1.0268795 0.0036692365 -1.0612454e-21)
(1.0262212 0.0026414453 -2.852615e-22)
(1.0256458 0.0017804478 -1.5502272e-21)
(1.0251571 0.00099945252 -6.1723826e-22)
(1.0247556 0.00031650165 -6.0494481e-22)
(1.0751963 0.0041601326 -3.1140687e-22)
(1.0639871 0.042374738 1.1892184e-21)
(1.0354568 0.043046804 4.1925573e-22)
(1.0223977 0.028865557 1.44796e-21)
(1.0217324 0.012849378 -1.8223987e-22)
(1.0282495 0.0041250618 -1.4452579e-22)
(1.0345092 0.0028771345 -8.322854e-22)
(1.0372431 0.0052683228 -2.0895542e-22)
(1.036316 0.0076445808 -2.2175448e-23)
(1.0338708 0.0087163182 -5.0968163e-22)
(1.0313218 0.0084966264 -7.2412344e-23)
(1.0293023 0.0073075125 -6.3222292e-22)
(1.0279239 0.0058315345 1.0417901e-22)
(1.0270193 0.0044643744 8.4731344e-23)
(1.0263519 0.0033414724 1.2595749e-22)
(1.0258026 0.0023969916 2.3313869e-22)
(1.02529 0.0016252504 -5.1670837e-22)
(1.024843 0.00091624112 2.6466218e-23)
(1.0244706 0.00030232453 -5.804566e-22)
(1.0835255 0.0024753275 -3.2470205e-21)
(1.0712245 0.050383184 -2.3500429e-21)
(1.0331937 0.052476187 1.1772258e-21)
(1.0158097 0.034474822 -1.2772768e-21)
(1.0154231 0.013467566 2.9311167e-22)
(1.0247791 0.0015321426 -1.9341783e-23)
(1.0342186 -0.00020268753 9.8986748e-23)
(1.0390294 0.0034246371 -1.3108806e-22)
(1.0386878 0.007535045 1.672539e-23)
(1.0356681 0.0097100612 3.1839825e-22)
(1.0323133 0.0099557195 -8.5708566e-22)
(1.0297022 0.008734272 2.2078615e-22)
(1.0280481 0.0069770425 3.3792663e-22)
(1.0270644 0.0053343823 -2.9746257e-23)
(1.0264384 0.0040122991 8.5029353e-23)
(1.0259248 0.0029939463 7.3556518e-22)
(1.0254566 0.0021617831 -1.7168447e-22)
(1.0249857 0.0014875689 8.4945507e-22)
(1.0245666 0.00084722446 2.2610886e-22)
(1.0242131 0.00029504879 6.1179993e-22)
(1.0873782 -0.00088962946 -1.7417377e-22)
(1.084185 0.058958109 -5.5885402e-21)
(1.0342656 0.063197773 1.6683208e-21)
(1.0082489 0.041056362 1.870028e-21)
(1.007316 0.014010997 -5.8956458e-22)
(1.0200876 -0.0020848776 -7.2231641e-22)
(1.0336257 -0.0045903096 7.2164958e-22)
(1.0412562 0.00052912212 -2.2992335e-22)
(1.041855 0.0069532422 4.2910254e-22)
(1.038174 0.010821707 0)
(1.0336643 0.011753433 6.037872e-22)
(1.0301523 0.010493772 2.6008416e-22)
(1.0280576 0.0083545001 -4.5069323e-22)
(1.0269704 0.0063057014 5.9914379e-23)
(1.0263959 0.0047072259 -3.1501215e-22)
(1.025997 0.0035306827 5.6746189e-22)
(1.0255922 0.0026615072 9.7710047e-23)
(1.0251728 0.0019525268 -2.676683e-22)
(1.0247242 0.001374378 5.2210714e-22)
(1.0243206 0.00079483511 3.5286322e-23)
(1.023976 0.00029429807 5.9304388e-22)
(1.0863054 -0.0049274273 1.046999e-20)
(1.0959132 0.066904066 -8.908704e-21)
(1.0400925 0.07568331 -4.772524e-21)
(1.0016582 0.049152104 -3.1262733e-21)
(0.99716323 0.014429019 -2.9195462e-21)
(1.0139979 -0.0068846363 2.3038563e-22)
(1.0326212 -0.010541006 0)
(1.044023 -0.0036774284 2.8973948e-22)
(1.0460417 0.0057425095 2.244823e-22)
(1.0416288 0.012061488 9.1138211e-22)
(1.0355236 0.014047551 3.6699861e-22)
(1.0306649 0.012760548 7.1707208e-23)
(1.0278953 0.010074043 -6.2295559e-23)
(1.0266482 0.007444552 2.6063413e-22)
(1.0261721 0.00543102 -1.6786627e-22)
(1.0259324 0.0040372228 1.9115069e-22)
(1.0256858 0.0030717697 -7.1665322e-23)
(1.0253386 0.0023717294 4.5654385e-22)
(1.0249378 0.001781036 8.4396023e-23)
(1.0244958 0.0012888844 1.0770504e-23)
(1.0240983 0.00075948617 3.1527019e-22)
(1.0237532 0.0002970028 0)
(1.082482 -0.0086682107 3.8238842e-21)
(1.0965489 0.074570225 7.4732433e-21)
(1.0465496 0.091906151 -4.4956031e-22)
(0.99598561 0.059775545 -5.1852553e-21)
(0.98493749 0.015026288 -2.9004073e-21)
(1.0062544 -0.013000733 1.1290949e-21)
(1.0310991 -0.018307782 -9.0669266e-22)
(1.0473661 -0.0095003651 -6.9646134e-22)
(1.0515063 0.0037335191 -3.1728335e-22)
(1.0463152 0.013437716 -5.3203753e-23)
(1.0380697 0.017027702 -1.0012923e-23)
(1.0312877 0.015747317 -2.8500686e-22)
(1.0274954 0.012284823 -7.4644118e-23)
(1.0259999 0.0088238872 9.4288291e-22)
(1.0256616 0.0062130449 6.2044815e-22)
(1.0256824 0.004491449 4.4633146e-22)
(1.0256585 0.0034034666 -9.2728554e-23)
(1.0254815 0.0026764978 -7.0341489e-22)
(1.0251441 0.0021405018 -2.9351802e-23)
(1.0247386 0.0016536051 2.8073456e-22)
(1.0242917 0.0012310923 0)
(1.0238934 0.00073933667 -7.1963514e-22)
(1.023541 0.00029911303 -1.4758731e-24)
(1.071125 -0.011442152 -1.8006112e-20)
(1.0847147 0.08205727 2.6723573e-20)
(1.0417552 0.10902794 -9.7048709e-21)
(0.98823768 0.073924213 9.3321585e-22)
(0.97059807 0.016597421 -6.2977254e-21)
(0.99639291 -0.020613723 0)
(1.0289625 -0.028114184 -3.095301e-22)
(1.0513129 -0.017230233 1.5763532e-22)
(1.0584722 0.00066197776 -1.4741936e-21)
(1.0525688 0.014971484 -9.0284099e-22)
(1.0415034 0.02092484 6.8823899e-22)
(1.0320346 0.019723508 1.3227233e-22)
(1.0267688 0.015183076 -7.7658489e-23)
(1.024893 0.010536966 4.281756e-22)
(1.0247487 0.0070764602 -4.7789607e-22)
(1.0251439 0.0048847357 -9.8283208e-22)
(1.0254747 0.0036120268 -1.3858282e-22)
(1.0255351 0.0028676572 -2.4123457e-22)
(1.0253539 0.0023697543 7.3690434e-22)
(1.0249889 0.0019717111 -2.4515951e-22)
(1.0245644 0.0015705813 -6.1401641e-22)
(1.0241039 0.0011985734 6.7366181e-22)
(1.0236996 0.00073122097 -5.1649019e-22)
(1.0233373 0.00029885414 -7.3439016e-25)
(1.0541374 -0.014399099 -1.7016636e-21)
(1.0682779 0.090749507 2.3171862e-20)
(1.0268584 0.12521645 -2.0946373e-21)
(0.9781562 0.089812966 -8.6940286e-21)
(0.95451131 0.019374304 4.531131e-21)
(0.98413167 -0.029725823 -4.98262e-21)
(1.0260177 -0.040191745 -4.0974353e-22)
(1.0558516 -0.027165571 2.1781648e-21)
(1.067178 -0.003714638 -2.3199587e-22)
(1.06073 0.01668414 -8.3067134e-22)
(1.04604 0.026019206 8.2987651e-22)
(1.0329074 0.025021163 1.6293954e-22)
(1.0255951 0.019006841 3.9073503e-22)
(1.0231598 0.012703218 -6.2689913e-23)
(1.023275 0.008046232 -7.3149219e-22)
(1.024207 0.0051908367 -1.3877879e-23)
(1.0250481 0.0036572397 -3.189013e-23)
(1.0254836 0.0028877764 -3.3709326e-22)
(1.025512 0.0024659629 0)
(1.0252723 0.0021590249 -7.5455127e-23)
(1.0248566 0.0018613826 -2.2846657e-23)
(1.0244062 0.0015266556 4.8634665e-23)
(1.0239257 0.0011870202 -3.8758427e-23)
(1.0235129 0.00073218867 7.3508947e-22)
(1.0231406 0.00029820416 4.171788e-22)
(1.0326754 -0.017569903 4.9131346e-21)
(1.0498963 0.099336682 -1.0633464e-20)
(1.0089765 0.13957595 -2.6404405e-21)
(0.96632535 0.10577437 4.8001672e-22)
(0.93810411 0.022956072 1.6281713e-20)
(0.96999166 -0.040438454 9.4143241e-23)
(1.0218962 -0.054732574 -5.8184092e-22)
(1.0607985 -0.039469071 -1.785953e-22)
(1.0776155 -0.0096303104 -4.050164e-21)
(1.0711159 0.018583395 2.8982355e-22)
(1.0518976 0.032642216 -8.4730239e-22)
(1.0338936 0.03201671 -7.0082388e-23)
(1.0238223 0.02403021 -3.541319e-22)
(1.0205951 0.015457005 -2.3351082e-22)
(1.0210485 0.0091485109 -2.7161233e-22)
(1.0227243 0.0053692359 9.3623078e-22)
(1.0242952 0.0034725844 1.4069677e-21)
(1.0252676 0.0026751468 4.2163154e-22)
(1.0256263 0.0023704157 6.2654728e-22)
(1.0255396 0.0022082328 1.2817635e-23)
(1.0252084 0.0020352556 -7.7103935e-22)
(1.0247345 0.0018024599 -2.1067135e-22)
(1.0242559 0.0015129225 5.6820874e-22)
(1.0237541 0.001191259 -6.5377832e-22)
(1.0233303 0.00074042643 5.5960192e-22)
(1.0229489 0.00030051097 -3.0232597e-23)
(1.0084336 -0.020854901 -7.7584878e-23)
(1.0273549 0.10740651 -1.0792296e-20)
(0.98894312 0.15299704 1.5153604e-20)
(0.95225341 0.12008201 -2.7762232e-21)
(0.92196972 0.028043837 -1.1890193e-20)
(0.95377604 -0.05200462 3.6690915e-21)
(1.0161503 -0.071658214 -1.9828303e-21)
(1.0654848 -0.053989159 -1.8004215e-21)
(1.0890698 -0.017084134 8.8885029e-21)
(1.0834868 0.020725235 2.3589898e-21)
(1.0591469 0.041181299 -2.8403657e-22)
(1.0349407 0.041139226 1.1559426e-21)
(1.0212388 0.030552848 -2.9051859e-22)
(1.0169481 0.018944179 -5.3384941e-22)
(1.0178387 0.010402151 -1.7685155e-22)
(1.0205207 0.0053644279 2.0449628e-22)
(1.0231033 0.0029656278 -3.0812974e-23)
(1.0248422 0.0021379859 -6.6642792e-24)
(1.0256692 0.0020130425 1.5770514e-22)
(1.0258224 0.0020690852 2.861926e-23)
(1.0255774 0.0020821373 0)
(1.0251399 0.0019789795 -2.9318219e-22)
(1.0246153 0.0017858533 -2.4279734e-23)
(1.0241101 0.0015207798 0)
(1.0235867 0.0012069237 8.0361244e-22)
(1.0231495 0.00075476108 1.1164152e-24)
(1.0227606 0.00030694627 -4.1293351e-22)
(0.98238678 -0.024190218 -1.9659991e-22)
(1.0026804 0.11492214 -5.5418225e-22)
(0.96560184 0.1655586 1.3926036e-20)
(0.93290529 0.13337854 -1.5399903e-21)
(0.9047652 0.033526935 -2.5928362e-21)
(0.93611809 -0.064238386 -2.5692224e-21)
(1.0081884 -0.090388257 4.6352356e-23)
(1.0688121 -0.070467604 4.9474405e-21)
(1.1004395 -0.025729966 -1.9851393e-21)
(1.0965038 0.023424065 -5.1663479e-21)
(1.0669401 0.052161081 2.2427328e-21)
(1.0357772 0.05286986 -6.3620489e-22)
(1.0175601 0.038901946 -5.1495439e-22)
(1.0119128 0.023313106 -2.6607981e-22)
(1.0133783 0.011818704 -7.0403601e-22)
(1.0173905 0.0050987695 -1.5508212e-22)
(1.0213421 0.0020200594 -9.2856495e-22)
(1.0241439 0.0011513471 -6.8371487e-22)
(1.0256388 0.0012945792 -2.9283309e-22)
(1.0261241 0.0016784132 -4.3047574e-22)
(1.0260079 0.0019602667 -2.789052e-22)
(1.0255917 0.0020557606 5.9713095e-23)
(1.0250618 0.0019701651 2.4358672e-23)
(1.0244996 0.0018010294 0)
(1.0239667 0.0015445505 0)
(1.0234216 0.001230836 -5.8495194e-23)
(1.0229701 0.00077339142 7.3329454e-22)
(1.0225744 0.00031594365 7.952255e-22)
(0.95544776 -0.02739512 0)
(0.97713948 0.1217936 -3.5577209e-21)
(0.94105418 0.17707878 -1.310948e-20)
(0.91087259 0.14582827 -2.1543472e-21)
(0.88549482 0.03856497 1.2190079e-21)
(0.91760458 -0.07648921 -8.7943189e-22)
(0.9980542 -0.11091262 4.5348136e-22)
(1.0705129 -0.089181483 1.1565029e-20)
(1.1116835 -0.035898403 -1.4717937e-20)
(1.1096761 0.027178052 2.0760851e-21)
(1.0735474 0.066275683 -3.3257673e-22)
(1.035189 0.067717665 -1.1129417e-21)
(1.0123417 0.049436013 -1.12428e-21)
(1.005114 0.028703533 -5.7165033e-22)
(1.0073624 0.013392542 -1.2086431e-22)
(1.0131008 0.0044766878 -7.0105378e-22)
(1.0188604 0.00048772675 -7.4071019e-23)
(1.023104 -0.00043770425 -1.8896989e-22)
(1.025527 8.0037567e-05 -1.0594715e-22)
(1.0264836 0.00094780872 -1.8969411e-22)
(1.026529 0.0016288155 -1.8593192e-22)
(1.0261385 0.0019977272 -1.4504501e-22)
(1.0255692 0.0020788067 1.5028846e-23)
(1.024978 0.0019960657 6.8114541e-22)
(1.0243845 0.0018371313 1.9194372e-22)
(1.023823 0.0015795748 -4.1754959e-24)
(1.0232579 0.00125963 -7.8765324e-22)
(1.0227929 0.00079393457 4.8628073e-22)
(1.02239 0.00032529714 -1.1950256e-21)
(0.92860995 -0.030214986 2.07369e-23)
(0.95162365 0.12792738 0)
(0.91626395 0.18768592 0)
(0.88799782 0.15661568 0)
(0.86615063 0.04586402 0)
(0.89884081 -0.089106313 -2.1143662e-21)
(0.98521115 -0.13255317 -1.578614e-21)
(1.0705898 -0.11025181 -3.1674129e-21)
(1.123546 -0.049082297 -3.010051e-20)
(1.1259572 0.030922537 2.2701892e-20)
(1.0808762 0.083629797 -6.1310254e-21)
(1.0318856 0.085863464 1.2425169e-21)
(1.0046115 0.062387789 1.0210988e-21)
(0.9961072 0.035233835 9.4453069e-22)
(0.9994509 0.015088462 1.7005799e-21)
(1.0074018 0.0033798356 -4.7943697e-23)
(1.0154898 -0.0017995582 -7.0419235e-22)
(1.021643 -0.0028189854 1.2113521e-22)
(1.0253343 -0.0017944939 3.9623901e-22)
(1.0269461 -0.00024624343 2.8913609e-22)
(1.0272143 0.0010263733 1.7458101e-22)
(1.0268154 0.0017907961 -8.9872064e-23)
(1.0261834 0.0021177209 -2.9433514e-22)
(1.0255069 0.0021463276 2.2671091e-22)
(1.0248793 0.002055178 -9.7425199e-24)
(1.0242592 0.001885065 1.6579636e-22)
(1.0236773 0.0016192966 -6.2723089e-22)
(1.0230962 0.0012898326 6.2127514e-24)
(1.0226182 0.00081451843 -1.8884822e-21)
(1.0222076 0.0003338185 -7.2101827e-22)
(0.90000657 -0.033443976 -2.5857331e-22)
(0.92662129 0.13327283 -1.9668871e-21)
(0.89185228 0.19735858 0)
(0.86490865 0.16631886 0)
(0.84719899 0.050512333 0)
(0.88046374 -0.099868249 0)
(0.97000239 -0.15428838 0)
(1.06544 -0.13245935 9.5626592e-22)
(1.1339735 -0.064268313 1.4108019e-20)
(1.1478889 0.032785646 -3.5902031e-20)
(1.0962879 0.10253169 5.1754231e-22)
(1.0302712 0.10743491 -5.6478855e-21)
(0.9934835 0.077523301 9.6018106e-22)
(0.9843061 0.042909751 2.1996826e-21)
(0.98928512 0.016824457 -2.0003626e-22)
(1.0000367 0.001664268 4.7840006e-22)
(1.0110507 -0.0050335975 -2.822453e-22)
(1.0196722 -0.00620813 2.9344041e-22)
(1.0250609 -0.0045352974 -3.0364273e-22)
(1.0275798 -0.0020536898 -1.3103255e-22)
(1.0281517 5.9832995e-05 -1.847777e-23)
(1.0277228 0.0014122849 -2.5126014e-22)
(1.0269458 0.002073148 -1.285145e-23)
(1.0261433 0.0022734186 1.0400572e-22)
(1.0254127 0.0022440897 -6.5956866e-23)
(1.0247653 0.0021283289 -5.4127177e-22)
(1.0241306 0.001931346 -1.7714469e-22)
(1.0235354 0.0016573641 2.7344853e-22)
(1.0229384 0.0013192685 1.2742237e-24)
(1.0224461 0.00083434912 1.3658412e-21)
(1.0220277 0.00034132748 4.6962816e-22)
(0.8695764 -0.036631899 7.3573083e-22)
(0.900593 0.1378828 1.0265806e-22)
(0.86798826 0.20633849 -1.1775227e-20)
(0.84254871 0.17480174 -1.5591159e-20)
(0.82809043 0.053890526 0)
(0.86225334 -0.11113392 0)
(0.95319851 -0.17553397 -1.561544e-21)
(1.0558366 -0.15471197 -1.8237123e-20)
(1.1341501 -0.08071313 4.0721449e-20)
(1.161642 0.030807166 -4.5820681e-20)
(1.1219128 0.12139641 -1.6670696e-21)
(1.0386032 0.13120488 7.3307976e-21)
(0.98232693 0.095079248 1.0189598e-21)
(0.96904449 0.051404816 -2.69171e-22)
(0.97652981 0.018445481 -1.4457615e-21)
(0.99075701 -0.00084275313 -1.4590584e-23)
(1.0053641 -0.0094199524 1.5868355e-21)
(1.017091 -0.010845608 -4.4386144e-23)
(1.0247069 -0.008377422 -6.6256124e-22)
(1.0284649 -0.0046679194 -2.0023432e-22)
(1.029468 -0.0013835675 -3.8102633e-22)
(1.0289778 0.00081471673 1.2960616e-22)
(1.0279575 0.0019670927 -1.6926244e-22)
(1.0269182 0.0023936916 -2.0264165e-22)
(1.0260341 0.0024421119 5.5051475e-24)
(1.0252944 0.0023442458 -2.0896896e-22)
(1.024648 0.0021844542 -1.4707191e-22)
(1.0240093 0.0019709022 -1.59175e-22)
(1.0233987 0.0016932822 3.7768699e-22)
(1.022783 0.0013475568 -2.8237257e-23)
(1.0222767 0.00085321329 6.6197568e-22)
(1.0218506 0.00034802414 4.9772842e-23)
(0.83908711 -0.03988615 -6.9349401e-22)
(0.87304864 0.14199336 2.2150332e-22)
(0.84364446 0.21506434 1.7058031e-20)
(0.82163375 0.18223196 2.9481513e-20)
(0.80941506 0.056274351 0)
(0.84406493 -0.12159937 0)
(0.93529428 -0.1958254 0)
(1.0425308 -0.17648789 2.7674086e-22)
(1.1282859 -0.097014129 -5.3421561e-20)
(1.1633474 0.026493622 -4.7746499e-20)
(1.1488662 0.14006057 -2.2298847e-21)
(1.0562519 0.15766704 2.3449011e-21)
(0.97865044 0.11600897 -4.2269174e-21)
(0.95093097 0.060626746 3.0258791e-22)
(0.96084364 0.019708014 -3.059401e-22)
(0.97935595 -0.0043472182 0)
(0.99826517 -0.015166112 4.4962723e-22)
(1.013795 -0.016976973 -2.9787069e-22)
(1.0242648 -0.013585852 -1.2017495e-22)
(1.0296967 -0.008312852 7.6553538e-23)
(1.0313138 -0.0034537021 1.7606531e-22)
(1.0307451 -5.8998333e-05 1.7538955e-22)
(1.0293482 0.0018036311 2.0229826e-22)
(1.0279208 0.0025585806 1.8544174e-22)
(1.0267592 0.0026976249 -2.1309651e-23)
(1.0258758 0.0025923446 -2.6839176e-23)
(1.0251651 0.0024155605 7.4405245e-24)
(1.0245323 0.0022254529 -1.0146326e-23)
(1.0238899 0.0020080378 4.1223416e-22)
(1.0232629 0.0017276433 2.8673434e-22)
(1.0226306 0.0013741409 1.3200586e-23)
(1.0221105 0.00087120208 -1.8593979e-21)
(1.0216765 0.00035413334 6.989973e-22)
(0.80822266 -0.043304459 -1.6320272e-21)
(0.84445422 0.14439596 0)
(0.81891726 0.22349367 2.7339707e-20)
(0.80092363 0.18998666 5.99059e-20)
(0.79140099 0.057455661 -1.2175938e-20)
(0.82580025 -0.13085962 -1.6113972e-21)
(0.9166855 -0.2149612 -2.4793142e-20)
(1.025853 -0.19740848 2.3071425e-20)
(1.1174987 -0.11261952 8.3428522e-21)
(1.16029 0.021868716 1.1776152e-19)
(1.1564296 0.15747172 -3.573464e-20)
(1.0715869 0.18850125 -2.6085754e-20)
(0.98237319 0.14250463 1.2104919e-21)
(0.93332553 0.072325932 -1.9778726e-21)
(0.94179019 0.020169469 -1.5754114e-21)
(0.96571949 -0.0090256617 -3.5284309e-23)
(0.98961522 -0.022462543 1.9945482e-22)
(1.0096785 -0.024841599 4.4608488e-22)
(1.0237153 -0.020438763 -5.6666804e-23)
(1.0313706 -0.013250855 6.1496283e-24)
(1.0338738 -0.0063294937 1.5717441e-22)
(1.0332271 -0.0012890117 2.3521666e-22)
(1.0312939 0.0015941615 -9.7983121e-23)
(1.0292698 0.0028194533 1.5933914e-22)
(1.0276589 0.0030818923 1.8987278e-22)
(1.0265131 0.0029294471 5.9439292e-23)
(1.0256991 0.0026832323 7.7885271e-23)
(1.0250388 0.002450487 6.8477933e-24)
(1.0244258 0.0022533369 1.5567787e-22)
(1.0237782 0.0020374266 -4.6543664e-23)
(1.0231345 0.0017577911 1.9512032e-22)
(1.022483 0.0013989811 1.7481476e-23)
(1.0219473 0.00088873934 7.5362112e-22)
(1.0215054 0.00035982323 -1.3040144e-21)
(0.77813987 -0.0458245 2.0460972e-21)
(0.81491715 0.14552959 8.1246437e-23)
(0.79424747 0.23120296 -2.6517311e-20)
(0.78045806 0.19920937 -3.6199924e-20)
(0.77310459 0.060603311 5.5755461e-20)
(0.8090471 -0.14131415 3.7743324e-20)
(0.89755242 -0.23271171 4.5960628e-21)
(1.006771 -0.21680249 0)
(1.1013681 -0.12810507 3.9221296e-20)
(1.1519219 0.019910401 1.5420414e-19)
(1.1436371 0.17359256 -6.4034136e-22)
(1.0735243 0.22001437 1.1569189e-20)
(0.98474982 0.17440069 0)
(0.91954151 0.088527246 1.5267087e-21)
(0.91920626 0.020304568 2.4201403e-21)
(0.94967987 -0.01519872 1.3674782e-22)
(0.97934606 -0.031472934 -1.4708977e-21)
(1.0046487 -0.034647775 0)
(1.0230235 -0.029217437 -1.1216792e-22)
(1.0335728 -0.019773915 -3.2502735e-23)
(1.0373476 -0.010233295 6.8224283e-23)
(1.0366744 -0.0029751965 1.6220681e-22)
(1.0340205 0.0013451034 0)
(1.031128 0.0032570143 1.678834e-22)
(1.0288205 0.0036900484 7.6910639e-23)
(1.0272462 0.0034561824 -6.1340843e-24)
(1.0262288 0.0030521784 6.6270634e-23)
(1.0255254 0.0027080964 -7.2332496e-23)
(1.0249268 0.002455913 5.3940328e-25)
(1.0243322 0.0022679643 5.0896669e-22)
(1.0236758 0.0020605253 -9.032946e-22)
(1.0230113 0.0017860059 -5.0736304e-22)
(1.0223382 0.0014232291 0)
(1.0217874 0.00090623612 -2.953681e-23)
(1.0213375 0.00036527988 -3.8610816e-22)
(0.75048914 -0.04833568 3.2152887e-21)
(0.78620787 0.14841373 -3.6740051e-21)
(0.77096001 0.23802237 -2.0909156e-20)
(0.76096129 0.20713388 -1.3075426e-20)
(0.75469404 0.067568435 1.8498316e-20)
(0.78967752 -0.1467429 7.6760638e-21)
(0.87925971 -0.24928573 4.2311721e-20)
(0.98630097 -0.23502777 4.5935052e-21)
(1.0814041 -0.14231148 0)
(1.1368068 0.01869717 -5.4400165e-20)
(1.123729 0.19115085 4.1182781e-20)
(1.0613584 0.24848423 -5.7451772e-21)
(0.98283208 0.20703436 5.4823529e-21)
(0.90937918 0.11070493 -7.37128e-23)
(0.89476887 0.020509829 1.5850199e-23)
(0.93102553 -0.023047391 1.2527716e-21)
(0.96744777 -0.042326118 -1.882028e-21)
(0.99863659 -0.046572648 2.2986196e-22)
(1.0221575 -0.040175316 6.6247762e-22)
(1.0363784 -0.0281857 1.6220391e-22)
(1.0419476 -0.015422385 -8.1299222e-23)
(1.0413736 -0.0052506976 -6.2716255e-23)
(1.0378052 0.0010590358 0)
(1.0337051 0.0039655475 5.4553174e-23)
(1.0303686 0.0046605727 2.3432743e-23)
(1.0281196 0.0042970478 -9.3116269e-24)
(1.0267615 0.0036415083 -6.7194112e-23)
(1.0259466 0.0030627496 -1.8818994e-23)
(1.0253746 0.0026763868 -4.4597453e-23)
(1.0248375 0.0024367901 0)
(1.024254 0.0022720912 -4.0219193e-22)
(1.0235821 0.0020807686 -9.9325719e-22)
(1.0228924 0.001813486 1.3966959e-21)
(1.0221972 0.0014472753 -4.3927487e-22)
(1.0216304 0.0009242557 5.8113634e-23)
(1.0211724 0.00037072176 1.3781813e-21)
(0.72574604 -0.050730689 -3.8436308e-21)
(0.75992423 0.14999162 -5.4956151e-24)
(0.74961999 0.24384176 4.1502929e-21)
(0.74287261 0.21437297 2.3876544e-23)
(0.73750781 0.072940945 -9.5805551e-20)
(0.76907077 -0.1490311 -4.9483584e-20)
(0.85718376 -0.26370681 -1.5916627e-21)
(0.96495179 -0.25047588 2.8517616e-20)
(1.0588033 -0.1560252 2.8891931e-21)
(1.1166485 0.018205783 4.7990546e-20)
(1.1033334 0.20772192 1.0287453e-21)
(1.0434042 0.27406219 -1.4009808e-20)
(0.97658354 0.23726198 2.0570477e-21)
(0.90387161 0.13624169 -1.9859862e-21)
(0.87280013 0.025019021 0)
(0.90927582 -0.033304666 1.4678675e-22)
(0.95419136 -0.055162394 -2.4422182e-22)
(0.99158507 -0.060684737 -9.9397713e-23)
(1.0210291 -0.053519092 6.9574311e-22)
(1.0398037 -0.03879323 2.4908889e-22)
(1.0478646 -0.022197324 6.3868744e-23)
(1.0476537 -0.0082889661 4.1170548e-22)
(1.0429828 0.00073552539 -3.2265877e-23)
(1.0372598 0.0050589113 0)
(1.0324634 0.0061580698 -4.082165e-22)
(1.0292065 0.0056236926 -7.2508356e-23)
(1.0272988 0.0045827268 -8.4744088e-23)
(1.0262785 0.0036309383 6.5895492e-23)
(1.0257029 0.0029697136 -2.4354437e-24)
(1.0252629 0.002598097 4.1591795e-23)
(1.0247758 0.0023992049 2.7002951e-22)
(1.0241922 0.0022703767 -3.8842646e-22)
(1.0234978 0.0020996476 1.0693885e-23)
(1.0227801 0.0018411049 1.4198614e-21)
(1.0220601 0.0014722777 -2.2372362e-24)
(1.0214764 0.00094341293 -3.887512e-23)
(1.0210102 0.00037635831 4.9565891e-22)
(0.70412101 -0.05307073 -2.8023523e-22)
(0.73651084 0.15081263 8.4097998e-21)
(0.73086067 0.24868812 2.2205251e-21)
(0.72666196 0.22092064 1.0978462e-20)
(0.7220701 0.078325649 -3.0384974e-22)
(0.7494341 -0.15202719 7.1187581e-22)
(0.83334427 -0.27704949 2.295217e-20)
(0.93932393 -0.26721535 -7.48827e-22)
(1.0334696 -0.16570995 0)
(1.0922416 0.016356498 -1.0040119e-20)
(1.0789088 0.22361317 0)
(1.0224034 0.2973607 0)
(0.96293526 0.26398661 -8.045116e-21)
(0.8985419 0.16214376 2.228882e-22)
(0.85563568 0.031550226 1.1745675e-21)
(0.88562499 -0.043573007 1.2382491e-21)
(0.93903122 -0.070048915 -2.6669806e-22)
(0.98348886 -0.07697579 -2.9791132e-21)
(1.019505 -0.069370816 -1.6023924e-21)
(1.0437954 -0.05187968 -6.0280405e-22)
(1.0552483 -0.030895222 2.8275855e-22)
(1.0558433 -0.012314662 -7.3928543e-22)
(1.0499449 0.00033736152 -1.0660563e-22)
(1.0421146 0.0066737378 -4.2443354e-22)
(1.0353025 0.0083920246 -9.38628e-23)
(1.0305966 0.0076460772 2.2898787e-23)
(1.0278549 0.0060632256 1.2066025e-22)
(1.0264803 0.0045421982 -7.8346602e-23)
(1.025859 0.0034423124 -1.3129177e-24)
(1.0255253 0.0027923019 -6.462317e-23)
(1.0251996 0.0024854199 -3.2723106e-23)
(1.0247437 0.0023511626 -4.7577291e-23)
(1.0241467 0.0022672789 3.3221063e-22)
(1.0234216 0.0021204404 8.8662894e-22)
(1.0226713 0.001871595 -2.835444e-21)
(1.0219251 0.0014995312 -5.622107e-22)
(1.0213249 0.0009642878 -4.8953262e-22)
(1.0208506 0.0003823698 0)
(0.68610721 -0.055247513 1.0674329e-20)
(0.71643918 0.15061718 -2.7931376e-23)
(0.7153181 0.25242948 -4.4256059e-22)
(0.71311107 0.2263366 1.4069829e-20)
(0.70907063 0.083171476 7.0295469e-20)
(0.7318793 -0.1548166 3.6444431e-20)
(0.80922005 -0.28931406 -3.7976916e-21)
(0.91094502 -0.28460417 -4.8813199e-20)
(1.0053605 -0.18113932 -4.3296557e-21)
(1.0653173 0.020243915 -9.9872385e-20)
(1.052273 0.23979646 2.3873378e-21)
(0.99801947 0.31955332 0)
(0.94311894 0.28860135 0)
(0.88864268 0.18573846 4.9431306e-21)
(0.84085619 0.042030816 -7.1798885e-21)
(0.86189178 -0.055031389 -4.8878741e-21)
(0.92197145 -0.087015188 1.1961688e-21)
(0.97435632 -0.095256958 1.1264984e-21)
(1.0173674 -0.087784281 -1.6965994e-21)
(1.0482448 -0.06769254 -1.2964394e-21)
(1.0641939 -0.041882597 -1.2793207e-22)
(1.0662807 -0.017608639 -4.1127134e-22)