/*--------------------------------*- C++ -*----------------------------------*\
| =========                 |                                                 |
| \\      /  F ield         | OpenFOAM: The Open Source CFD Toolbox           |
|  \\    /   O peration     | Version:  5.0                                   |
|   \\  /    A nd           | Web:      www.OpenFOAM.org                      |
|    \\/     M anipulation  |                                                 |
\*---------------------------------------------------------------------------*/
FoamFile
{
    version     2.0;
    format      ascii;
    class       volVectorField;
    location    "140";
    object      U_0;
}
// * * * * * * * * * * * * * * * * * * * * * * * * * * * * * * * * * * * * * //

dimensions      [0 1 -1 0 0 0 0];

internalField   nonuniform List<vector> 
9200
(
(1.0361635 0.00045697329 -1.3056733e-24)
(1.0364288 0.0014788901 6.0246364e-22)
(1.0347553 0.00047584154 0)
(1.0368407 0.0023648198 -3.1934607e-22)
(1.0349906 0.0015667461 5.4418785e-22)
(1.0340883 0.00048222127 0)
(1.0374231 0.0032498172 -3.1942842e-23)
(1.0353775 0.002516929 6.7786334e-24)
(1.0343019 0.0015996095 0)
(1.0331027 0.00048587034 0)
(1.0381262 0.0040815228 6.6436143e-22)
(1.0359159 0.0034841728 5.15482e-22)
(1.0346586 0.0025712366 3.0410794e-22)
(1.03329 0.0016150729 1.8530966e-23)
(1.0323105 0.00048589365 1.8168929e-25)
(1.0389606 0.0048600972 6.340175e-22)
(1.0365816 0.00443041 -2.0346663e-23)
(1.0351471 0.0035628863 1.0159806e-21)
(1.0336156 0.0025941421 4.1826795e-22)
(1.0324785 0.0016071301 1.3816816e-23)
(1.0314775 0.00048556969 -7.7377205e-22)
(1.0399128 0.0055791572 6.8597937e-22)
(1.037389 0.0053756546 7.3856569e-22)
(1.0357325 0.0045461563 -6.0860816e-22)
(1.0340469 0.003589158 -4.5373204e-23)
(1.0327779 0.0025763816 3.7067629e-22)
(1.031635 0.0015896859 3.7801151e-22)
(1.0307139 0.00048699333 6.6534242e-23)
(1.0410083 0.0062264235 3.9851911e-22)
(1.0383248 0.0063532972 6.2897962e-22)
(1.0364095 0.0055516829 7.355314e-22)
(1.0345391 0.0045743516 4.8380614e-23)
(1.0331657 0.0035473524 -9.5400437e-22)
(1.0319203 0.0025447483 -4.249787e-22)
(1.0308654 0.0015725445 -4.3612983e-22)
(1.0299698 0.0004881814 7.2118041e-22)
(1.0422419 0.0068126836 -9.4691922e-22)
(1.0394071 0.0073977751 6.1283162e-22)
(1.0371336 0.0066415484 5.4759758e-23)
(1.0350637 0.0055733346 3.4136546e-22)
(1.0335926 0.0044889812 1.0417284e-22)
(1.0322905 0.0034844025 -1.4181439e-21)
(1.0311405 0.0025176245 1.2564215e-22)
(1.0301213 0.0015585486 -7.4289715e-22)
(1.0292607 0.00048513327 -1.5335167e-21)
(1.0435471 0.0073191432 8.0928861e-22)
(1.0406751 0.0085319151 -1.2629568e-22)
(1.0378694 0.0078560286 -4.4006518e-23)
(1.035558 0.0066454855 -1.9820964e-22)
(1.034031 0.0054030278 -1.4535512e-22)
(1.0327025 0.0043780781 1.6352204e-22)
(1.031503 0.0034348622 4.9688932e-22)
(1.0303864 0.0025014561 8.3552838e-22)
(1.0294108 0.0015434125 4.7456702e-22)
(1.0285836 0.0004760715 1.226024e-22)
(1.0451227 0.0076948298 -3.8379737e-22)
(1.0420424 0.0098441461 2.9189221e-22)
(1.0384693 0.0093162815 4.2519995e-22)
(1.0359543 0.007810872 -5.6844017e-22)
(1.0344037 0.0063248983 3.6329857e-22)
(1.0331278 0.0052036056 -1.2632851e-21)
(1.0319186 0.0043015528 5.0674694e-23)
(1.0307431 0.0034121982 1.2559367e-21)
(1.0296624 0.0024873511 -6.2974075e-22)
(1.028728 0.0015212464 1.389394e-21)
(1.0279437 0.00046247726 -2.1154097e-22)
(1.0470952 0.0078850593 1.1546399e-23)
(1.0436275 0.011488161 -6.4206979e-22)
(1.039038 0.011041752 -6.2178425e-22)
(1.0361974 0.0091017271 0)
(1.0346477 0.0072298416 2.6804492e-23)
(1.0335003 0.0059749715 -2.3369333e-22)
(1.0323749 0.0050810842 -2.5245106e-22)
(1.0311657 0.0042803533 -6.1799756e-22)
(1.0300086 0.0034013087 -1.5791018e-22)
(1.0289603 0.0024624931 -7.9968428e-22)
(1.0280766 0.0014869331 -5.4673198e-22)
(1.0273444 0.00044658076 1.2607952e-22)
(1.0495528 0.0078716609 1.7727727e-23)
(1.0455848 0.013555696 1.1902091e-22)
(1.0395517 0.013104777 0)
(1.0361979 0.010569403 0)
(1.0346577 0.0081387933 -1.0327014e-22)
(1.0337762 0.0066310609 -1.620659e-22)
(1.0328224 0.0057742834 -3.334193e-22)
(1.0316591 0.0050662297 7.2486718e-22)
(1.0304284 0.0042880346 7.4932942e-23)
(1.0292859 0.0033793891 1.8545632e-24)
(1.0282866 0.0024165234 9.0361264e-22)
(1.0274619 0.0014367964 -9.8462543e-22)
(1.0267894 0.00042870393 2.0324707e-21)
(1.0526065 0.007619684 -1.0233832e-22)
(1.0479906 0.016167874 -2.9749939e-24)
(1.0399379 0.015675314 -4.665666e-23)
(1.0358222 0.012321729 -4.5842818e-23)
(1.0343391 0.0090143368 1.1969889e-23)
(1.0338958 0.0071716763 -1.1132552e-22)
(1.0332394 0.0062978641 1.9627621e-22)
(1.0321923 0.0057634758 1.1163232e-23)
(1.030945 0.0051113326 8.0519443e-22)
(1.0296822 0.0042889943 7.5482989e-22)
(1.0285799 0.0033260214 2.4771496e-22)
(1.0276489 0.0023419441 7.1859757e-22)
(1.0268919 0.0013692775 4.9089516e-22)
(1.0262821 0.00040786353 -5.5928885e-22)
(1.0562962 0.0071274277 -5.5865357e-22)
(1.0508979 0.019453846 -2.4622101e-22)
(1.0401429 0.018942255 -3.1884772e-22)
(1.0349448 0.014447461 6.6327178e-23)
(1.0335417 0.0098822791 -5.160265e-23)
(1.0337703 0.0074385375 2.0245391e-22)
(1.0336557 0.0066326324 1.8404542e-22)
(1.0327933 0.0063032132 -2.4937449e-22)
(1.0315485 0.0058715172 -6.5950843e-23)
(1.0301851 0.0051645309 -8.8815898e-23)
(1.0289317 0.0042493123 -1.4709868e-23)
(1.0279016 0.0032264172 -1.0495742e-22)
(1.0270569 0.0022353415 -9.2829237e-22)
(1.0263729 0.0012858764 4.75441e-22)
(1.0258249 0.00038416488 -4.3144158e-22)
(1.0603314 0.0064235728 5.3802098e-22)
(1.0542819 0.023527978 -4.6615578e-22)
(1.0400945 0.023111496 -2.3524689e-22)
(1.0334101 0.017064068 2.1683567e-22)
(1.0321004 0.010736793 -1.7654834e-22)
(1.0332467 0.0073995841 -2.6818362e-22)
(1.034094 0.0065850639 3.8413938e-23)
(1.0335707 0.0066089796 2.0718316e-23)
(1.0323218 0.0065224778 -1.5796121e-22)
(1.0307993 0.0060309965 -1.8454781e-22)
(1.0293746 0.0051713681 -1.5903334e-21)
(1.0281899 0.0041386178 3.464697e-22)
(1.0272708 0.0030752237 2.890095e-22)
(1.0265197 0.0020997709 1.4244073e-22)
(1.0259083 0.0011916858 2.527245e-23)
(1.0254173 0.00035952324 4.8152391e-22)
(1.0642819 0.0055269735 0)
(1.0579836 0.028533929 -2.8780722e-22)
(1.039638 0.028398154 6.8284015e-22)
(1.0310212 0.020302861 0)
(1.0298057 0.011580422 0)
(1.0322298 0.0069489523 0)
(1.0343332 0.0060586854 6.8625278e-23)
(1.0345285 0.0066466174 3.6922316e-22)
(1.033315 0.0069823078 2.342959e-22)
(1.0316137 0.0068766861 4.7590114e-22)
(1.0299071 0.0061476834 6.843566e-23)
(1.0285359 0.005072961 3.4716347e-22)
(1.0274903 0.0039439571 -3.4960292e-25)
(1.0267016 0.0028766119 -3.3103192e-22)
(1.026043 0.001944689 -9.4190765e-23)
(1.0254979 0.0010941427 -2.3438063e-22)
(1.0250563 0.00033634929 0)
(1.0688767 0.0044710526 1.7964125e-21)
(1.0614274 0.034566223 2.0877084e-21)
(1.0384123 0.035011037 5.1159599e-22)
(1.027555 0.024309214 1.5674581e-21)
(1.0264244 0.012409514 1.0077262e-21)
(1.030559 0.0059683414 0)
(1.0344138 0.0048920458 4.1018718e-22)
(1.035709 0.0062333193 -1.1378347e-22)
(1.0345363 0.0073705563 3.7629368e-22)
(1.0325959 0.0077347428 2.8138146e-22)
(1.0305732 0.0072162687 -2.8780045e-22)
(1.0289107 0.0061075045 9.3063442e-23)
(1.027725 0.0048352036 5.8456822e-22)
(1.0268666 0.0036730223 -1.0802247e-21)
(1.026205 0.0026450508 -2.9076601e-22)
(1.0256279 0.0017829597 -1.5759403e-21)
(1.0251383 0.001000678 -6.2733673e-22)
(1.0247364 0.00031661517 -6.1391657e-22)
(1.0749885 0.003175485 -3.099617e-22)
(1.064648 0.041661538 1.3435777e-21)
(1.0361309 0.04305306 4.5377936e-22)
(1.0227057 0.029210992 1.4085934e-21)
(1.0217014 0.013217746 -1.8488594e-22)
(1.0280483 0.0043098701 -1.6508648e-22)
(1.0342982 0.002889754 -8.8867708e-22)
(1.0371117 0.0051887097 -2.4861685e-22)
(1.0362714 0.0075573448 -2.9769301e-23)
(1.0338696 0.0086432524 -5.1755671e-22)
(1.0313379 0.0084572183 -7.3977476e-23)
(1.029314 0.0072964087 -6.4194326e-22)
(1.0279243 0.0058347163 1.0643797e-22)
(1.0270098 0.0044711873 8.6156033e-23)
(1.0263368 0.0033477414 1.283923e-22)
(1.0257849 0.0024012522 2.372054e-22)
(1.0252712 0.0016275739 -5.251183e-22)
(1.0248238 0.00091712333 2.6588951e-23)
(1.0244512 0.00030216005 -5.8852515e-22)
(1.0832048 0.001299943 -3.1002599e-21)
(1.072023 0.049497178 -2.6013352e-21)
(1.0340307 0.052516327 1.8614606e-21)
(1.0162036 0.034947629 -1.2616307e-21)
(1.0153871 0.013984679 2.7600175e-22)
(1.0245012 0.001812884 -3.1042961e-23)
(1.0339211 -0.00017132291 1.0717718e-22)
(1.0388353 0.0033149244 -1.3237267e-22)
(1.0386234 0.0074030046 1.1934324e-23)
(1.0356751 0.0096035117 3.0954852e-22)
(1.0323474 0.0098968536 -8.6623541e-22)
(1.0297303 0.0087188357 2.237631e-22)
(1.0280592 0.0069834241 3.4316162e-22)
(1.0270602 0.0053463336 -3.0244251e-23)
(1.0264251 0.0040226477 8.6506192e-23)
(1.0259072 0.003001055 7.4909476e-22)
(1.0254375 0.00216576 -1.7383187e-22)
(1.0249662 0.0014892141 8.6354163e-22)
(1.0245472 0.00084755536 2.2969317e-22)
(1.0241937 0.00029453799 6.1991604e-22)
(1.0872048 -0.0022188797 -1.8210873e-22)
(1.0850676 0.057868275 -5.8954583e-21)
(1.0353061 0.063276093 1.6317527e-21)
(1.0087667 0.041680615 1.7982356e-21)
(1.0072654 0.014710142 -6.2410491e-22)
(1.0197103 -0.0016926846 -7.9058619e-22)
(1.0332137 -0.0045316886 8.3299895e-22)
(1.0409757 0.00038162996 -1.0445521e-22)
(1.0417575 0.0067567316 4.380851e-22)
(1.0381922 0.010665245 0)
(1.0337266 0.011665639 6.079999e-22)
(1.0302063 0.010471164 2.6276616e-22)
(1.0280852 0.0083656768 -4.5849619e-22)
(1.0269743 0.0063257519 6.3260332e-23)
(1.0263851 0.004724283 -3.2088837e-22)
(1.0259794 0.0035420627 5.7864844e-22)
(1.0255723 0.0026678094 1.0021809e-22)
(1.0251527 0.001955418 -2.7175617e-22)
(1.0247043 0.0013750268 5.298406e-22)
(1.024301 0.00079449626 3.6141974e-23)
(1.0239569 0.00029355647 6.0031913e-22)
(1.0861844 -0.0063816298 1.1171127e-20)
(1.0966509 0.065498704 -8.975233e-21)
(1.0414405 0.075760062 -5.2477461e-21)
(1.0024096 0.049941412 -2.8991214e-21)
(0.99710473 0.015351088 -2.9286407e-21)
(1.0134969 -0.0063595494 2.1232866e-22)
(1.0320578 -0.010446416 0)
(1.0436262 -0.0038719875 2.6990697e-22)
(1.0458947 0.0054580668 1.9717483e-22)
(1.0416609 0.011830832 8.9574593e-22)
(1.0356271 0.013917944 3.6947267e-22)
(1.0307584 0.012727835 7.2003702e-23)
(1.0279478 0.010092688 -6.2567994e-23)
(1.0266642 0.0074770691 2.6489473e-22)
(1.0261649 0.0054587331 -1.7234268e-22)
(1.0259143 0.0040554851 1.9559704e-22)
(1.0256643 0.0030817389 -7.3134449e-23)
(1.0253171 0.002375976 4.6516344e-22)
(1.0249172 0.0017822546 8.6985646e-23)
(1.0244759 0.0012884061 1.125476e-23)
(1.0240788 0.00075850576 3.1932926e-22)
(1.0237346 0.00029631222 0)
(1.0822809 -0.010356189 3.9280131e-21)
(1.0973882 0.072840032 7.4745281e-21)
(1.0483297 0.0919243 -4.5264037e-22)
(0.99711151 0.060738581 -4.9153782e-21)
(0.98491445 0.016228941 -2.948464e-21)
(1.0056006 -0.012300402 1.1247696e-21)
(1.030353 -0.018166944 -8.790156e-22)
(1.0468156 -0.0097513824 -5.9503806e-22)
(1.0512883 0.0033318508 -3.0150975e-22)
(1.046364 0.013099824 -5.0875093e-23)
(1.0382327 0.016837639 -1.0144765e-23)
(1.03144 0.015700482 -2.8450917e-22)
(1.0275852 0.012315503 -7.5488553e-23)
(1.0260332 0.00887541 9.5063144e-22)
(1.0256591 0.0062572494 6.3160744e-22)
(1.0256629 0.0045205804 4.562846e-22)
(1.025634 0.0034191987 -9.4568931e-23)
(1.0254573 0.0026831307 -7.1816098e-22)
(1.0251218 0.0021420731 -2.9642967e-23)
(1.0247179 0.0016528714 2.8534029e-22)
(1.024272 0.0012295241 0)
(1.0238743 0.00073787569 -7.2811675e-22)
(1.0235228 0.00029870905 -1.626431e-24)
(1.0709544 -0.013394963 -1.7475945e-20)
(1.0860539 0.079995064 2.6666529e-20)
(1.0438061 0.10899824 -1.0295913e-20)
(0.98976273 0.07511661 6.9913141e-22)
(0.97066212 0.018161584 -6.3389908e-21)
(0.9955533 -0.019700476 0)
(1.0279928 -0.027911774 -2.9910851e-22)
(1.0505655 -0.017546083 1.9102389e-22)
(1.0581553 0.00010680222 -1.4187066e-21)
(1.0526376 0.014483393 -8.8475974e-22)
(1.041751 0.020648071 6.8265678e-22)
(1.032273 0.019657877 1.3471192e-22)
(1.0269132 0.015232845 -8.3024443e-23)
(1.0249511 0.010617079 4.3595312e-22)
(1.0247525 0.0071455418 -4.9044064e-22)
(1.0251217 0.0049305341 -1.0041101e-21)
(1.0254446 0.0036366691 -1.3905563e-22)
(1.0255061 0.0028779597 -2.4692249e-22)
(1.0253284 0.0023719196 7.5180491e-22)
(1.0249667 0.00197056 -2.4768732e-22)
(1.0245442 0.0015679921 -6.2295662e-22)
(1.0240847 0.0011961004 6.8128371e-22)
(1.0236811 0.00072947625 -5.2125829e-22)
(1.0233195 0.00029870965 -8.5340322e-25)
(1.053937 -0.016645598 -1.500136e-21)
(1.0698328 0.088423666 2.3018898e-20)
(1.028856 0.12512556 -1.994408e-21)
(0.97988133 0.09122104 -7.2910476e-21)
(0.95466556 0.021393321 4.5641037e-21)
(0.98307919 -0.028542856 -4.9789297e-21)
(1.024778 -0.039913321 -3.9554869e-22)
(1.0548628 -0.027553831 1.9804926e-21)
(1.0667287 -0.0044637469 -2.0578251e-22)
(1.060823 0.015989832 -8.2019213e-22)
(1.0464084 0.025620817 8.1848319e-22)
(1.033267 0.024931442 1.5083031e-22)
(1.0258155 0.019085983 3.9429732e-22)
(1.0232527 0.01282584 -6.2364443e-23)
(1.0232871 0.0081519428 -7.4158936e-22)
(1.0241797 0.0052615143 -1.5281321e-23)
(1.0250088 0.0036953988 -3.1814599e-23)
(1.0254462 0.002903495 -3.4617438e-22)
(1.0254809 0.0024691784 0)
(1.0252469 0.0021565982 -7.7315055e-23)
(1.0248353 0.0018577291 -2.3349706e-23)
(1.0243867 0.0015226432 4.9528438e-23)
(1.0239073 0.0011839413 -3.8442518e-23)
(1.023495 0.00073030583 7.4211091e-22)
(1.0231232 0.00029806718 4.2032707e-22)
(1.0324079 -0.020092338 4.2593403e-21)
(1.0515966 0.0966942 -1.0741728e-20)
(1.0108514 0.13946668 -2.8793183e-21)
(0.96807285 0.10736409 3.0745265e-22)
(0.93838419 0.025472881 1.6562093e-20)
(0.96869964 -0.038893108 1.1526041e-22)
(1.0203471 -0.054370296 -5.6158873e-22)
(1.0595375 -0.039945461 -1.6251462e-22)
(1.077008 -0.01062226 -3.9218e-21)
(1.0712431 0.01761145 2.6701789e-22)
(1.0524321 0.032078345 -8.4204611e-22)
(1.0344172 0.031898563 -6.6747887e-23)
(1.0241468 0.024154079 -3.4560009e-22)
(1.0207355 0.015641456 -2.3547178e-22)
(1.0210709 0.0093069855 -2.7095383e-22)
(1.0226885 0.005476072 9.5202598e-22)
(1.0242413 0.0035307443 1.4311303e-21)
(1.0252167 0.0026989314 4.3488585e-22)
(1.0255858 0.0023748967 6.4455935e-22)
(1.0255089 0.00220399 1.3223624e-23)
(1.0251848 0.0020290471 -7.8793325e-22)
(1.0247145 0.0017966837 -2.1271853e-22)
(1.0242373 0.0015080532 5.7459995e-22)
(1.0237363 0.0011878993 -6.5990583e-22)
(1.023313 0.00073849529 5.6414262e-22)
(1.0229318 0.00030017999 -3.049545e-23)
(1.0080888 -0.023603121 -6.4258506e-23)
(1.029158 0.10449352 -1.1459481e-20)
(0.99084011 0.15286683 1.6139271e-20)
(0.95404388 0.12181276 -3.7281021e-21)
(0.92240394 0.031096967 -1.1997855e-20)
(0.95232927 -0.050104854 3.6622746e-21)
(1.0142925 -0.071224948 -1.7733924e-21)
(1.0639355 -0.054586342 -1.627206e-21)
(1.0883089 -0.018379507 8.652725e-21)
(1.0836827 0.019380641 2.3535107e-21)
(1.0599123 0.040397996 -2.757734e-22)
(1.0356846 0.040989794 1.183554e-21)
(1.0217021 0.030742301 -3.1546941e-22)
(1.017151 0.01921609 -5.2620691e-22)
(1.0178733 0.010634722 -1.8018576e-22)
(1.0204713 0.0055223776 2.0473706e-22)
(1.0230271 0.0030526036 -2.5182947e-23)
(1.0247703 0.0021735436 -1.1769295e-23)
(1.0256136 0.002019115 1.6404266e-22)
(1.0257829 0.0020620644 2.939942e-23)
(1.0255493 0.0020713842 0)
(1.0251189 0.0019701572 -2.9924238e-22)
(1.0245967 0.0017785841 -2.5904266e-23)
(1.0240926 0.0015155358 0)
(1.0235697 0.0012035553 8.1093473e-22)
(1.0231328 0.00075289052 1.6366457e-24)
(1.022744 0.00030645051 -4.1496539e-22)
(0.98196004 -0.027108528 -1.5926878e-22)
(1.004545 0.11175854 -5.8276262e-22)
(0.96750491 0.16540211 1.4454397e-20)
(0.93470372 0.13524996 -1.6563435e-21)
(0.90530337 0.037078804 -2.6483431e-21)
(0.93454011 -0.061889683 -2.5145048e-21)
(1.006012 -0.089873976 3.4028033e-23)
(1.0669854 -0.071206602 4.7243107e-21)
(1.0995353 -0.027389526 -1.9761486e-21)
(1.0968236 0.021591511 -5.1277614e-21)
(1.0680417 0.051092209 2.2625327e-21)
(1.0368146 0.052687629 -5.9738084e-22)
(1.0182046 0.039184901 -4.8973761e-22)
(1.0121954 0.023705557 -2.6984452e-22)
(1.0134266 0.012152601 -6.9796244e-22)
(1.0173206 0.0053270575 -1.6008606e-22)
(1.021233 0.00214734 -9.3405169e-22)
(1.0240407 0.0012036874 -7.1514196e-22)
(1.0255597 0.0013026353 -3.0347647e-22)
(1.0260705 0.0016666849 -4.4233965e-22)
(1.0259726 0.0019432349 -2.874842e-22)
(1.0255683 0.0020411685 6.2380384e-23)
(1.0250433 0.0019597591 2.5029705e-23)
(1.0244824 0.0017930814 0)
(1.0239503 0.0015393236 0)
(1.0234053 0.0012277184 -5.9111854e-23)
(1.022954 0.00077174978 7.3711196e-22)
(1.0225581 0.00031545413 7.9819066e-22)
(0.95494218 -0.030434857 0)
(0.97906229 0.11835453 -3.702779e-21)
(0.94295422 0.17692245 -1.3039327e-20)
(0.91260523 0.14782666 -2.3865053e-21)
(0.88606673 0.042695394 9.205255e-22)
(0.91595822 -0.073637938 -8.7482235e-22)
(0.99554725 -0.11029083 3.3090805e-22)
(1.068353 -0.090026629 1.1086771e-20)
(1.1105155 -0.03793525 -1.4418471e-20)
(1.110106 0.024743753 2.0190157e-21)
(1.0750792 0.064860059 -3.3343299e-22)
(1.0366007 0.067514586 -1.104255e-21)
(1.0132148 0.049849454 -1.0237159e-21)
(1.0054942 0.029258469 -5.8022571e-22)
(1.0074243 0.013861449 -1.2710961e-22)
(1.0130009 0.0047989566 -6.9842678e-22)
(1.0187049 0.00066992061 -7.9020711e-23)
(1.0229554 -0.00036210308 -1.8601628e-22)
(1.025413 9.0585835e-05 -1.2077894e-22)
(1.026408 0.00092843632 -1.9254238e-22)
(1.0264827 0.0016017625 -1.931003e-22)
(1.0261103 0.0019737248 -1.4965465e-22)
(1.0255503 0.0020629878 1.582616e-23)
(1.0249619 0.001984531 6.9448086e-22)
(1.024369 0.0018293291 1.9682347e-22)
(1.0238076 0.0015748547 -5.3978586e-24)
(1.023242 0.0012570417 -7.9234471e-22)
(1.022777 0.00079269169 4.8804292e-22)
(1.022374 0.00032495631 -1.1977368e-21)
(0.92806641 -0.033326387 4.737905e-23)
(0.95356836 0.1242775 0)
(0.91815741 0.18754629 0)
(0.88962001 0.15875656 0)
(0.86668057 0.05036978 0)
(0.8971962 -0.085769732 -2.2664543e-21)
(0.9824446 -0.13180962 -1.5316286e-21)
(1.0680631 -0.11120377 -3.1470641e-21)
(1.1219682 -0.051464547 -2.9735776e-20)
(1.1262457 0.027835446 2.2317018e-20)
(1.082688 0.081847251 -6.0618297e-21)
(1.03369 0.085678029 1.2516999e-21)
(1.0057466 0.062984272 9.6567584e-22)
(0.99660082 0.036003967 9.6042902e-22)
(0.99952316 0.015732765 1.6780716e-21)
(1.0072594 0.0038242748 -5.6128033e-23)
(1.0152706 -0.001544825 -7.0520446e-22)
(1.0214308 -0.0027117949 1.3377823e-22)
(1.02517 -0.001780767 4.0297579e-22)
(1.0268376 -0.00027724514 2.995185e-22)
(1.0271509 0.00098363987 1.8298945e-22)
(1.0267806 0.001752856 -9.3363461e-23)
(1.026164 0.0020913579 -3.0406549e-22)
(1.0254928 0.0021290304 2.3173589e-22)
(1.0248658 0.0020433592 -8.2270392e-24)
(1.0242454 0.0018783633 1.6759255e-22)
(1.0236625 0.0016156375 -6.3114212e-22)
(1.0230807 0.001288 4.0905088e-24)
(1.0226025 0.00081378039 -1.8935138e-21)
(1.0221917 0.00033367658 -7.2174355e-22)
(0.89950273 -0.036615113 -3.5733301e-22)
(0.92856959 0.12947048 -2.1965338e-21)
(0.89373503 0.19723657 0)
(0.86641796 0.16859793 0)
(0.84761181 0.055511021 0)
(0.87883839 -0.095956087 0)
(0.96704801 -0.15342593 0)
(1.0627006 -0.13354591 9.5076953e-22)
(1.1322714 -0.066987992 1.3928853e-20)
(1.1478092 0.02898979 -3.5185536e-20)
(1.0981329 0.1003869 4.9860812e-22)
(1.032375 0.10730155 -5.6714713e-21)
(0.99487804 0.078365579 1.1487538e-21)
(0.98491517 0.043959225 2.1555822e-21)
(0.98935915 0.017690991 -1.9827063e-22)
(0.99983536 0.0022630211 4.660686e-22)
(1.0107467 -0.0046854528 -2.6603707e-22)
(1.019374 -0.0060590311 2.9595765e-22)
(1.0248261 -0.0045172993 -3.2180547e-22)
(1.0274237 -0.0021015589 -1.3846116e-22)
(1.0280625 -6.5112314e-06 -1.9598424e-23)
(1.027678 0.0013530189 -2.6174407e-22)
(1.0269249 0.0020304734 -1.3423094e-23)
(1.0261321 0.0022466537 1.0778742e-22)
(1.0254028 0.0022269616 -7.0463271e-23)
(1.0247542 0.0021185841 -5.5049182e-22)
(1.0241174 0.0019265566 -1.7986486e-22)
(1.0235208 0.0016550194 2.7515936e-22)
(1.0229229 0.0013182979 1.0490361e-24)
(1.0224304 0.0008341519 1.3679797e-21)
(1.0220118 0.0003413759 4.6978113e-22)
(0.8691228 -0.039855705 9.2488761e-22)
(0.90252357 0.13390604 8.7210087e-23)
(0.8698469 0.2062455 -1.148724e-20)
(0.84393544 0.1772208 -1.5514668e-20)
(0.82844588 0.059274543 0)
(0.86063714 -0.10670702 0)
(0.95011239 -0.17454221 -1.4639452e-21)
(1.0529877 -0.15594081 -1.7873728e-20)
(1.1322794 -0.083808612 4.0253735e-20)
(1.1614935 0.026307827 -4.4685211e-20)
(1.1237605 0.11878796 -1.5910294e-21)
(1.0409858 0.13109772 7.6102463e-21)
(0.98402494 0.09622171 9.6569955e-22)
(0.9697521 0.05279659 -2.6066996e-22)
(0.9765887 0.019586467 -1.4201806e-21)
(0.99047567 -5.5392494e-05 -1.7552412e-23)
(1.004951 -0.0089548813 1.5883484e-21)
(1.0166802 -0.010642108 -4.39601e-23)
(1.0243766 -0.0083534541 -6.7450984e-22)
(1.028242 -0.004739233 -2.327446e-22)
(1.0293413 -0.0014840352 -3.9448333e-22)
(1.0289179 0.00072364396 1.3685198e-22)
(1.0279347 0.001900126 -1.7873141e-22)
(1.0269111 0.0023511623 -2.1253174e-22)
(1.0260301 0.0024166378 3.0723972e-24)
(1.0252881 0.0023299892 -2.1364125e-22)
(1.0246383 0.002177834 -1.4986243e-22)
(1.0239967 0.0019678917 -1.5910688e-22)
(1.0233844 0.0016922518 3.78958e-22)
(1.0227676 0.0013475003 -2.7419545e-23)
(1.022261 0.00085354576 6.6162722e-22)
(1.0218346 0.0003482385 4.9739868e-23)
(0.83869326 -0.04312834 -8.0355669e-22)
(0.87497263 0.1378713 3.0141054e-22)
(0.84544336 0.21501097 1.6603322e-20)
(0.82290199 0.18478678 2.9138684e-20)
(0.80970508 0.061936984 0)
(0.8424552 -0.11667294 0)
(0.93211032 -0.19480317 0)
(1.0396344 -0.17786769 2.5198846e-22)
(1.1264641 -0.10043201 -5.2733829e-20)
(1.1632975 0.021350542 -4.6415726e-20)
(1.1505265 0.13679735 -2.0973817e-21)
(1.0590889 0.157422 2.4189757e-21)
(0.98084545 0.11741496 -4.8585916e-21)
(0.95179003 0.062430438 4.4657641e-22)
(0.96085663 0.021171848 -3.2465337e-22)
(0.97896898 -0.0033366712 0)
(0.99771552 -0.014559409 4.4901543e-22)
(1.0132407 -0.016704375 -3.0352794e-22)
(1.0238085 -0.013553154 -1.3981536e-22)
(1.029382 -0.0084153606 7.8905725e-23)
(1.0311336 -0.0036020033 1.9272589e-22)
(1.0306629 -0.00019630849 1.8316492e-22)
(1.0293225 0.0017008875 2.1322865e-22)
(1.02792 0.0024923408 1.9611412e-22)
(1.0267643 0.0026591008 -2.2206733e-23)
(1.0258774 0.0025718319 -2.9206042e-23)
(1.025161 0.002406387 8.8062238e-24)
(1.0245231 0.002222003 -1.0097998e-23)
(1.0238773 0.0020072188 4.1245858e-22)
(1.0232484 0.0017281419 2.8859226e-22)
(1.0226149 0.0013750107 1.2131265e-23)
(1.0220946 0.00087201927 -1.8562792e-21)
(1.0216603 0.00035449024 6.9733769e-22)
(0.80789903 -0.046551714 -1.8211371e-21)
(0.84632923 0.1401697 0)
(0.82063075 0.22344579 2.6391404e-20)
(0.80209952 0.19262625 5.8497269e-20)
(0.79169171 0.063442294 -1.2526816e-20)
(0.8242369 -0.12548019 -1.5725244e-21)
(0.91350181 -0.21390254 -2.6791651e-20)
(1.0229758 -0.1989148 2.279091e-20)
(1.1155551 -0.11649598 8.1762234e-21)
(1.1601945 0.016012359 1.1402889e-19)
(1.1582963 0.15348074 -3.5581394e-20)
(1.075216 0.18796752 -2.709716e-20)
(0.98524346 0.14408695 1.2213589e-21)
(0.93459096 0.074615767 -1.8962652e-21)
(0.94172924 0.022000036 -1.534127e-21)
(0.96519568 -0.0077587506 -1.9020724e-23)
(0.98889934 -0.021689559 1.9952808e-22)
(1.0089474 -0.024482843 4.1790091e-22)
(1.0230974 -0.020392451 -5.7762296e-23)
(1.0309329 -0.013392777 9.7666617e-24)
(1.033619 -0.006542794 1.6481444e-22)
(1.0331127 -0.0014916821 2.5487737e-22)
(1.0312641 0.0014396662 -1.0262993e-22)
(1.0292786 0.0027183505 1.6455161e-22)
(1.0276774 0.0030236665 2.0322099e-22)
(1.026527 0.0028998194 6.3287847e-23)
(1.0257042 0.0026704899 8.0798286e-23)
(1.0250356 0.002446583 1.0074529e-23)
(1.0244165 0.0022532897 1.5694764e-22)
(1.0237651 0.0020389895 -4.6173525e-23)
(1.0231195 0.0017597395 1.9498368e-22)
(1.022467 0.0014006863 1.7764654e-23)
(1.0219311 0.00088997539 7.516462e-22)
(1.021489 0.00036029726 -1.2996289e-21)
(0.77789628 -0.049092698 2.2120427e-21)
(0.81659664 0.14107017 7.7065103e-23)
(0.79581663 0.23117388 -2.5088754e-20)
(0.78154633 0.20189575 -3.5371781e-20)
(0.77346416 0.066739154 5.676229e-20)
(0.8074431 -0.13556548 3.6021932e-20)
(0.89446546 -0.2316211 4.9084598e-21)
(1.0039818 -0.21843684 0)
(1.0993887 -0.13233734 3.6719105e-20)
(1.1519287 0.013302281 1.4922058e-19)
(1.146108 0.16888797 -1.3050474e-22)
(1.0777029 0.21920493 1.2067291e-20)
(0.98811679 0.17614943 0)
(0.92149167 0.091440782 1.6029684e-21)
(0.91909583 0.022589736 2.3337807e-21)
(0.94897605 -0.013654401 1.079623e-22)
(0.9784335 -0.030508735 -1.4724147e-21)
(1.0037051 -0.034183594 0)
(1.022204 -0.029150129 -8.8433328e-23)
(1.0329738 -0.019962932 -1.1000042e-23)
(1.0369906 -0.010532077 1.000405e-22)
(1.0365148 -0.0032681912 1.7821997e-22)
(1.0339842 0.0011174728 0)
(1.0311509 0.0031055432 1.773985e-22)
(1.0288592 0.0036024569 7.7599662e-23)
(1.0272791 0.0034121959 -6.2674823e-24)
(1.0262484 0.0030340933 7.2324584e-23)
(1.0255318 0.0027035349 -7.5328745e-23)
(1.0249232 0.0024572502 1.1189032e-25)
(1.0243221 0.0022713784 5.0898968e-22)
(1.023662 0.0020641909 -9.0294797e-22)
(1.0229958 0.0017892339 -5.0766414e-22)
(1.0223218 0.0014256718 0)
(1.0217708 0.00090780395 -2.9452468e-23)
(1.0213208 0.00036583924 -3.8438729e-22)
(0.75031791 -0.051610704 3.4458629e-21)
(0.78759717 0.14376524 -4.4276579e-21)
(0.77235818 0.23801518 -1.9084142e-20)
(0.76194989 0.20987551 -1.267334e-20)
(0.75507933 0.073884044 1.8813239e-20)
(0.78808353 -0.14055918 7.5504109e-21)
(0.87631786 -0.24817094 4.4650957e-20)
(0.98358379 -0.23674292 4.5414067e-21)
(1.0795018 -0.1468303 0)
(1.1369843 0.011358191 -5.3048202e-20)
(1.1267085 0.18586163 4.1773457e-20)
(1.0654298 0.24745457 -5.7021142e-21)
(0.98627977 0.20899593 5.7857351e-21)
(0.91199813 0.1142886 -1.8033101e-22)
(0.8948274 0.023459217 6.0407367e-26)
(0.93007118 -0.021192424 1.1859291e-21)
(0.96630712 -0.04115315 -1.9105397e-21)
(0.99744399 -0.045983045 1.8121213e-22)
(1.0210926 -0.040076902 6.5089694e-22)
(1.0355737 -0.028428653 1.3491689e-22)
(1.0414513 -0.015829401 -7.8681849e-23)
(1.0411513 -0.0056675008 -1.3492233e-23)
(1.0377592 0.0007300526 0)
(1.033748 0.0037423515 5.6368526e-23)
(1.0304374 0.0045304603 2.3776554e-23)
(1.0281808 0.0042319744 -1.3820676e-23)
(1.0268031 0.0036155388 -7.1820611e-23)
(1.0259683 0.0030572982 -2.1210687e-23)
(1.0253805 0.0026799256 -4.589359e-23)
(1.0248325 0.0024432324 0)
(1.0242426 0.0022786881 -4.0283751e-22)
(1.0235673 0.0020863943 -9.9278983e-22)
(1.022876 0.0018178916 1.3894359e-21)
(1.0221803 0.0014503107 -4.3629566e-22)
(1.0216134 0.0009260483 5.8075327e-23)
(1.0211554 0.00037133054 1.371352e-21)
(0.72563132 -0.054004514 -4.0644619e-21)
(0.76109229 0.14518828 -1.771499e-23)
(0.75083089 0.24385189 3.4263835e-21)
(0.74376444 0.21715234 2.4499425e-25)
(0.73790525 0.079444304 -9.6427403e-20)
(0.76757403 -0.14232605 -5.0713641e-20)
(0.85436405 -0.26249176 -1.5748408e-21)
(0.96240794 -0.25233436 2.9489599e-20)
(1.0570039 -0.16086263 2.6346056e-21)
(1.1170324 0.010172637 4.5892809e-20)
(1.1065708 0.20192828 9.2824012e-22)
(1.0473312 0.27294252 -1.4448298e-20)
(0.97992564 0.23937054 2.0802387e-21)
(0.90687532 0.1403548 -2.3444987e-21)
(0.87315963 0.028726868 0)
(0.90799944 -0.031119545 6.110498e-23)
(0.95279569 -0.053771322 -2.1819113e-22)
(0.99011278 -0.059949462 -7.2568393e-23)
(1.0196792 -0.053376716 6.5108335e-22)
(1.0387467 -0.039093139 2.3619041e-22)
(1.0471882 -0.022735529 6.5302685e-23)
(1.0473345 -0.0088643063 3.9181906e-22)
(1.0429215 0.00025671055 -1.0552881e-22)
(1.0373304 0.0047347073 0)
(1.0325757 0.0059676661 -4.2128427e-22)
(1.0293093 0.0055285042 -8.3080017e-23)
(1.0273734 0.0045456118 -8.3189261e-23)
(1.0263234 0.0036246726 5.9223861e-23)
(1.0257235 0.0029771005 -3.0154052e-24)
(1.0252664 0.0026095477 4.2808522e-23)
(1.0247685 0.002410325 2.6780012e-22)
(1.024179 0.0022797748 -3.8233901e-22)
(1.0234816 0.0021069092 1.1069667e-23)
(1.0227629 0.001846353 1.4114627e-21)
(1.0220426 0.0014757032 -7.8600831e-25)
(1.021459 0.00094531322 -3.8552329e-23)
(1.0209929 0.00037698014 4.9282583e-22)
(0.7040428 -0.056336607 -2.9923529e-22)
(0.73745503 0.14590638 8.5458599e-21)
(0.73187014 0.24872444 1.0574731e-21)
(0.72750076 0.22363044 1.1442958e-20)
(0.72243886 0.085008096 -2.7987411e-22)
(0.74807466 -0.14499959 6.1115295e-22)
(0.83067386 -0.27568409 2.3177103e-20)
(0.93693822 -0.26909426 -1.1155821e-21)
(1.031857 -0.17086709 0)
(1.0927725 0.0078338861 -1.4706775e-20)
(1.0822918 0.21724728 0)
(1.0263885 0.29616863 0)
(0.96620365 0.26620082 -8.2486316e-21)
(0.90189834 0.16663279 2.6470104e-22)
(0.8564654 0.036264599 1.1668689e-21)
(0.88416149 -0.040899466 1.1563625e-21)
(0.93731771 -0.068455558 -3.2291396e-22)
(0.98172374 -0.076078577 -2.8774304e-21)
(1.0178318 -0.069166449 -1.5467059e-21)
(1.0424331 -0.052233963 -5.8128124e-22)
(1.0543384 -0.031588172 2.6474798e-22)
(1.0554013 -0.013090679 -7.1880179e-22)
(1.0498602 -0.00032974131 -9.6342931e-23)
(1.0422223 0.0062078311 -3.9585984e-22)
(1.0354766 0.0081173365 -9.5356617e-23)
(1.0307596 0.0075089755 2.1900236e-23)
(1.0279776 0.0060107991 1.2513308e-22)
(1.0265595 0.0045352381 -7.4005748e-23)
(1.0259018 0.0034555081 -6.1909497e-25)
(1.0255418 0.0028114041 -6.0348485e-23)
(1.0251992 0.0025038334 -2.7519686e-23)
(1.0247335 0.0023663402 -4.5000349e-23)
(1.0241314 0.0022789957 3.3408504e-22)
(1.0234041 0.0021289185 8.7870993e-22)
(1.0226532 0.0018774196 -2.8182674e-21)
(1.021907 0.0015031664 -5.6008886e-22)
(1.0213071 0.00096618062 -4.8686299e-22)
(1.020833 0.00038296967 0)
(0.68604787 -0.058503268 1.1083516e-20)
(0.71713378 0.14561458 -3.3290116e-23)
(0.71611324 0.25249702 -8.5665407e-22)
(0.71377465 0.22921317 1.3643549e-20)
(0.709379 0.09000963 7.0477041e-20)
(0.73073588 -0.14735353 3.7896616e-20)
(0.80672433 -0.28776037 -3.7540094e-21)
(0.90873566 -0.28640559 -5.0084688e-20)
(1.0037298 -0.18652368 -4.7747258e-21)
(1.0659974 0.011216102 -1.5003049e-19)
(1.0557142 0.23292555 2.1313715e-21)
(1.0019869 0.31840467 0)
(0.94633866 0.29090498 0)
(0.89206207 0.19054374 5.6899743e-21)
(0.8420733 0.047686177 -7.1933474e-21)
(0.86039684 -0.05176164 -4.9858513e-21)
(0.91989368 -0.085200722 1.2246772e-21)
(0.9722768 -0.094182374 1.1021506e-21)
(1.0153384 -0.087493211 -1.6510491e-21)
(1.0465217 -0.068089142 -1.2698088e-21)
(1.0629857 -0.042748847 -1.2480162e-22)
(1.0656681 -0.01863756 -4.0155565e-22)