/*--------------------------------*- C++ -*----------------------------------*\
| =========                 |                                                 |
| \\      /  F ield         | OpenFOAM: The Open Source CFD Toolbox           |
|  \\    /   O peration     | Version:  5.0                                   |
|   \\  /    A nd           | Web:      www.OpenFOAM.org                      |
|    \\/     M anipulation  |                                                 |
\*---------------------------------------------------------------------------*/
FoamFile
{
    version     2.0;
    format      ascii;
    class       volVectorField;
    location    "140";
    object      UMean;
}
// * * * * * * * * * * * * * * * * * * * * * * * * * * * * * * * * * * * * * //

dimensions      [0 1 -1 0 0 0 0];

internalField   nonuniform List<vector> 
9200
(
(1.0208922 9.4407371e-07 -3.1715688e-24)
(1.021108 -6.1962802e-06 8.962056e-23)
(1.0210395 -2.7965514e-05 0)
(1.0214314 0.00010202424 -5.8520621e-23)
(1.0212005 -9.2534893e-05 8.4859239e-23)
(1.0210467 -4.2253046e-05 0)
(1.0218228 0.00017471039 -4.1662432e-24)
(1.0214566 -3.8174154e-05 -3.263487e-23)
(1.0212005 -0.00016270437 0)
(1.0212202 -8.3440419e-05 0)
(1.0222796 0.00041405115 1.7861049e-22)
(1.0217459 -4.9526743e-05 2.4901792e-22)
(1.0214261 -0.00014850964 5.024035e-23)
(1.0213412 -0.00029972066 1.1559431e-24)
(1.0213353 -0.00011155461 4.1337573e-25)
(1.0227448 0.0006621649 1.6604452e-22)
(1.0220743 0.00010472666 4.5618307e-23)
(1.0216791 -0.00021553633 2.1249135e-22)
(1.0215331 -0.00035796172 1.1805502e-22)
(1.0214517 -0.00041719853 3.7807907e-23)
(1.0216155 -0.00015001488 9.1143566e-23)
(1.0231729 0.001039448 3.3345126e-22)
(1.0224072 0.00023402851 1.5160031e-22)
(1.0219601 -0.0001195967 -1.1000789e-22)
(1.0217457 -0.00052236752 -2.0680076e-23)
(1.0216207 -0.00054268575 -5.7824096e-24)
(1.0217188 -0.00056594881 3.8516952e-24)
(1.0218667 -0.00018403642 1.4371033e-23)
(1.0235136 0.001462047 3.3971772e-22)
(1.0227156 0.00046896159 2.5549046e-22)
(1.0222378 -6.4149724e-05 2.2330534e-22)
(1.0219816 -0.00051272697 1.0347212e-22)
(1.021802 -0.00079322122 -1.2410733e-22)
(1.0218675 -0.00077031058 -5.0915724e-23)
(1.0219661 -0.00070660211 1.5477028e-22)
(1.0222455 -0.00022092468 -2.3778334e-22)
(1.0237536 0.0019674914 -4.5872091e-22)
(1.0229806 0.00071102015 9.6296436e-23)
(1.0224893 8.417741e-05 9.8459409e-23)
(1.0222196 -0.00055308939 4.1882453e-23)
(1.0219954 -0.00086295711 2.2685082e-22)
(1.0220282 -0.0011201424 -4.1094229e-24)
(1.0220996 -0.00098744913 -3.7382721e-22)
(1.0223436 -0.00086113197 3.1473702e-22)
(1.0226184 -0.0002542381 6.3307773e-22)
(1.0238303 0.0024841001 4.3138471e-22)
(1.023166 0.00099412384 1.5421724e-22)
(1.0226925 0.00022823571 -3.6043344e-23)
(1.0224339 -0.00049666516 -3.3418525e-22)
(1.0221872 -0.00098945951 -5.2785024e-23)
(1.0221962 -0.001277991 3.7750443e-22)
(1.0222419 -0.0014324851 -2.5857147e-23)
(1.0224681 -0.0012255903 -1.8974847e-22)
(1.0227177 -0.0010056232 -8.4891836e-23)
(1.0230877 -0.00028723607 -2.748379e-23)
(1.0236644 0.0029872006 -1.9970355e-22)
(1.0232253 0.001269961 2.3023531e-22)
(1.0228305 0.00040216019 6.505452e-23)
(1.0226155 -0.00043994657 -1.7822244e-22)
(1.0223549 -0.0010202344 -3.1798843e-22)
(1.022363 -0.0014982929 2.5437949e-22)
(1.0223834 -0.0016770547 1.2454244e-22)
(1.0226029 -0.0017744335 -5.167233e-22)
(1.0228356 -0.0014487728 3.1444602e-22)
(1.0231939 -0.0011536418 -5.9993707e-22)
(1.0235559 -0.00031618458 1.598976e-22)
(1.0234354 0.0035178057 6.0092592e-23)
(1.0231163 0.0015208943 -2.7522798e-22)
(1.0228882 0.00056214741 -2.7050381e-22)
(1.0227487 -0.00034638785 0)
(1.0224917 -0.0010542431 2.1431321e-23)
(1.022503 -0.0016174415 -3.8119408e-22)
(1.0225206 -0.001988478 8.0843482e-23)
(1.0227305 -0.0021136191 2.6153652e-22)
(1.0229652 -0.0020951151 -4.0747254e-22)
(1.0233127 -0.0016785103 4.2923518e-22)
(1.0236705 -0.0012885759 3.4730427e-22)
(1.0240942 -0.00034275654 -7.0347418e-23)
(1.0231021 0.0040459125 3.9501492e-23)
(1.022883 0.0017653901 -7.2469033e-23)
(1.0227941 0.00070113174 0)
(1.0228205 -0.0002501313 0)
(1.0225831 -0.0010487284 7.0560352e-23)
(1.0226107 -0.0017322529 -5.5951713e-22)
(1.0226269 -0.0021969054 4.9762775e-22)
(1.0228528 -0.002522527 -1.7541904e-22)
(1.0230805 -0.0025254171 1.0961462e-23)
(1.0234477 -0.002427197 4.7583503e-24)
(1.0237927 -0.0018885944 -7.6244007e-22)
(1.0242234 -0.0014187913 1.0471629e-21)
(1.0246284 -0.00036460177 -1.7773193e-21)
(1.0216048 0.004227134 -6.4705046e-22)
(1.0226552 0.002084409 3.6015324e-23)
(1.0224888 0.00080825451 -1.7972335e-22)
(1.0227828 -0.00015995434 1.0155082e-23)
(1.0226249 -0.0010323603 9.8577826e-23)
(1.0226727 -0.0017995429 -1.7152367e-22)
(1.0227035 -0.0023993325 2.0867509e-24)
(1.022938 -0.002824811 2.8968819e-23)
(1.0231878 -0.0030305229 6.2330469e-23)
(1.0235622 -0.0029551919 7.4838945e-23)
(1.0239372 -0.0027321065 -1.6886035e-22)
(1.0243573 -0.0020928209 -4.6451875e-22)
(1.0247738 -0.0015328059 -3.5518027e-22)
(1.0252069 -0.00038244944 5.390119e-22)
(1.0183056 0.0038111441 9.1891904e-23)
(1.022045 0.0023586785 1.6365463e-21)
(1.0220901 0.00089721476 -7.1105473e-23)
(1.0225317 -0.00010207515 1.3950704e-24)
(1.0225895 -0.0010004714 -1.9637672e-23)
(1.0226866 -0.0018452089 1.9423077e-22)
(1.0227343 -0.0025489487 1.4377408e-23)
(1.0229848 -0.0031185701 6.5378106e-24)
(1.0232516 -0.0034296703 -1.9391748e-22)
(1.0236671 -0.0035621827 -4.0054648e-23)
(1.0240555 -0.0033530401 1.0100044e-23)
(1.0245222 -0.0030314648 -1.8996539e-22)
(1.0249225 -0.0022726087 8.9351262e-22)
(1.025375 -0.0016351987 -5.3011483e-22)
(1.0257765 -0.00039500059 4.787843e-22)
(1.0134837 0.0029294004 1.2154771e-21)
(1.0200756 0.0022987432 -1.4621049e-21)
(1.0216133 0.0010944835 5.2770124e-22)
(1.0220815 -7.4709386e-05 -3.1283708e-22)
(1.0223541 -0.00097912206 8.0071402e-23)
(1.0226403 -0.001864648 -6.2049308e-23)
(1.0227166 -0.0026707279 -4.2873837e-22)
(1.0229802 -0.0033542161 5.6782441e-23)
(1.023276 -0.0038170714 7.5824657e-23)
(1.0237204 -0.0040636042 -5.7198021e-22)
(1.0241625 -0.0040595783 1.0857655e-21)
(1.0246567 -0.0037486029 -8.0347437e-22)
(1.0251132 -0.0032973498 -3.1486504e-22)
(1.0255475 -0.00243575 -4.82825e-23)
(1.0259685 -0.0017187087 8.1881518e-23)
(1.0263649 -0.00040246786 -5.6504695e-22)
(1.0074581 0.0016954762 0)
(1.0168467 0.0018771652 -2.1647209e-21)
(1.0201056 0.0011687084 1.5297167e-22)
(1.0215809 4.0593325e-05 0)
(1.0218295 -0.00098438721 0)
(1.0224337 -0.001881033 0)
(1.0226469 -0.0027564976 5.9726129e-23)
(1.022922 -0.0035555777 -2.1202812e-23)
(1.0232466 -0.0041434248 7.9379873e-22)
(1.0237251 -0.0045541365 -2.1088828e-22)
(1.0242108 -0.0046655864 2.0778073e-22)
(1.0247788 -0.0045594548 -2.3278681e-22)
(1.0252711 -0.0041046192 1.1515835e-22)
(1.0257759 -0.0035423246 3.6066495e-22)
(1.0261674 -0.0025700332 9.1615691e-24)
(1.026587 -0.0017852778 2.9315953e-22)
(1.0269387 -0.00040429048 0)
(1.0006523 0.00028638597 1.2202096e-21)
(1.012295 0.0011542719 3.5546091e-21)
(1.0172633 0.00094174865 -3.7458678e-21)
(1.0204368 0.00022249201 -1.2540571e-21)
(1.0211808 -0.00091567544 -6.7891309e-22)
(1.0218913 -0.0019269175 0)
(1.0224584 -0.0028200136 2.1894202e-22)
(1.0228105 -0.0037144011 -2.1486594e-22)
(1.0231583 -0.0044304598 -7.9992347e-22)
(1.0236665 -0.0049826209 1.0814041e-21)
(1.0242057 -0.0052606772 1.3955029e-22)
(1.0248343 -0.0052753583 2.6008405e-22)
(1.0254165 -0.0050154191 -9.4595869e-22)
(1.0259708 -0.0044387903 1.108418e-21)
(1.0264392 -0.0037475152 2.3635469e-23)
(1.026822 -0.0026788834 2.1639998e-21)
(1.027192 -0.0018310993 7.8789934e-22)
(1.0275088 -0.00040042073 8.0353052e-22)
(0.99352634 -0.0012222047 -1.059863e-22)
(1.0063329 9.1674099e-05 1.8491032e-21)
(1.0131772 0.00058281021 6.0408611e-22)
(1.0180237 0.0001289883 -1.8099131e-21)
(1.0201352 -0.00071163513 1.4446063e-22)
(1.0210781 -0.0019485395 -2.419666e-22)
(1.0219455 -0.0029026805 -1.8607826e-22)
(1.0226172 -0.0038381727 -6.9590039e-22)
(1.0230119 -0.004669617 -4.5251557e-22)
(1.0235413 -0.0053657111 -8.2488542e-24)
(1.0241292 -0.0057935167 -2.6620124e-22)
(1.0248265 -0.0059846313 5.6198656e-22)
(1.0254886 -0.0058412 -7.6677285e-22)
(1.0261547 -0.0054508611 1.0689839e-22)
(1.0266794 -0.0047249705 1.0285592e-22)
(1.0271498 -0.0039187007 -3.6338586e-22)
(1.0274651 -0.002755523 7.8279624e-22)
(1.0277981 -0.0018566933 -6.2875728e-23)
(1.0280572 -0.00039074736 7.9691615e-22)
(0.98624063 -0.0027165424 -5.4243924e-22)
(0.99964204 -0.0010636496 -1.8788433e-21)
(1.0078158 5.5094387e-06 8.4028716e-21)
(1.0144408 -0.00010455358 9.6418619e-22)
(1.0180208 -0.00065563719 -5.8256408e-22)
(1.0199894 -0.0018141435 -1.2744363e-22)
(1.0210095 -0.0030099246 -7.7907693e-23)
(1.0221619 -0.0039598516 -1.1952164e-22)
(1.0228025 -0.0048653084 -1.4742373e-22)
(1.0233499 -0.0056949554 -1.1880892e-21)
(1.0239785 -0.0062781588 3.9325115e-22)
(1.0247348 -0.0066346542 1.6195694e-22)
(1.0254906 -0.0066669364 -1.1614772e-22)
(1.0262589 -0.0063907364 3.5273732e-24)
(1.0269125 -0.0058315939 1.7753377e-22)
(1.0274501 -0.0049715391 -1.3405103e-21)
(1.0278529 -0.0040447772 5.2489516e-22)
(1.0281176 -0.0028009389 -1.3033878e-21)
(1.0283836 -0.0018606455 -3.2834932e-22)
(1.0285849 -0.0003754409 -8.5286119e-22)
(0.9789187 -0.0042210734 -1.4418569e-22)
(0.99268169 -0.00219007 -2.2852357e-21)
(1.0014983 -0.0007225934 -5.0553525e-22)
(1.0095429 -0.00049793461 -2.0091407e-21)
(1.0147608 -0.00073983574 1.3583081e-22)
(1.0180668 -0.0017158122 8.9594378e-22)
(1.0197986 -0.0029890401 -1.3166177e-21)
(1.0212007 -0.0041486638 -6.2551508e-22)
(1.0224094 -0.0050348293 2.0983135e-22)
(1.0230998 -0.0059723552 0)
(1.0237514 -0.0067046263 -2.0550384e-22)
(1.0245575 -0.0072353575 8.6092495e-22)
(1.0253976 -0.0074390723 9.973742e-22)
(1.0262845 -0.0073404085 -1.2409608e-21)
(1.0270619 -0.0068820763 2.8640679e-22)
(1.0277494 -0.0061689525 -1.0600824e-21)
(1.0282208 -0.0051621734 1.6984352e-22)
(1.028578 -0.0041273643 5.8449621e-22)
(1.0287512 -0.002812373 -9.0246195e-22)
(1.0289513 -0.0018432269 -5.127412e-23)
(1.0290831 -0.00035462084 -8.2169276e-22)
(0.97145742 -0.0058518047 -4.5225485e-22)
(0.98555557 -0.0033273701 -1.0898158e-21)
(0.9946988 -0.0014763698 -3.0575651e-21)
(1.0035913 -0.0010504439 3.8106702e-21)
(1.0102531 -0.00095852679 2.5238002e-21)
(1.0150793 -0.0017453574 -2.8827455e-22)
(1.0179867 -0.0029040616 0)
(1.0198401 -0.0042644825 -2.8977129e-22)
(1.0215258 -0.0052699794 -7.671323e-23)
(1.0227347 -0.006201262 -4.5466851e-22)
(1.023457 -0.0070725214 1.9038572e-22)
(1.0242907 -0.0077738666 4.4127952e-22)
(1.0252066 -0.0081644453 -1.6567526e-22)
(1.0262016 -0.0082471631 -2.1986968e-22)
(1.0271273 -0.0079561521 7.6632321e-22)
(1.0279627 -0.0073295347 -7.4768627e-22)
(1.0285974 -0.0064403078 1.41167e-22)
(1.0290287 -0.0052991224 -9.7499469e-22)
(1.0292867 -0.0041615797 -4.9850091e-23)
(1.0293727 -0.0027901131 -1.1215375e-23)
(1.0294901 -0.001804554 -4.8937782e-22)
(1.0295492 -0.00032854918 0)
(0.96416975 -0.0072181284 -5.9252227e-22)
(0.97813542 -0.0045834206 3.3158823e-22)
(0.98776916 -0.0022639014 2.3020298e-23)
(0.99702703 -0.0016317153 3.6162874e-21)
(1.004615 -0.0013364316 1.8562562e-21)
(1.0109196 -0.0019104837 -1.2262678e-21)
(1.015205 -0.0029180287 4.4810365e-22)
(1.0180171 -0.0042711061 -1.8282647e-21)
(1.0200457 -0.0055270661 -2.623859e-22)
(1.02198 -0.0064547034 2.8668083e-23)
(1.0230855 -0.0073781132 -2.8037172e-23)
(1.0239413 -0.0082457211 -9.6836084e-22)
(1.0249109 -0.0088276206 5.6833261e-23)
(1.0260056 -0.0091136602 1.0078404e-21)
(1.0270736 -0.009001423 -5.3017856e-22)
(1.0280873 -0.0085307223 -9.2820673e-22)
(1.0288896 -0.0077031344 -6.2883321e-23)
(1.0294996 -0.0066486903 1.7538071e-21)
(1.029825 -0.0053744887 1.1803743e-22)
(1.0299928 -0.0041476465 -5.8986533e-22)
(1.0299668 -0.0027340337 0)
(1.029998 -0.0017453334 1.1023056e-21)
(1.0299787 -0.0002975594 1.5655192e-23)
(0.95726079 -0.008357884 2.2680628e-21)
(0.97058308 -0.005729142 -2.7605953e-22)
(0.9805605 -0.0030586792 -1.4797732e-21)
(0.99018201 -0.0022131414 -1.3186603e-21)
(0.99826099 -0.0017594384 3.6959653e-21)
(1.0055704 -0.0022233619 0)
(1.0113836 -0.0030657396 1.0240389e-22)
(1.0154166 -0.0043203381 -9.7093467e-22)
(1.0181462 -0.0056686065 -1.0328324e-21)
(1.0205138 -0.0068181296 -2.4963739e-22)
(1.0224503 -0.0076541148 -9.1588726e-23)
(1.0235218 -0.0086445543 -5.3908781e-22)
(1.024514 -0.0094196062 8.7743873e-22)
(1.0256868 -0.0099214012 -6.4631312e-22)
(1.0268929 -0.010018085 1.3522014e-21)
(1.0280824 -0.0097217999 1.4721129e-21)
(1.0290927 -0.0090262953 -1.1595498e-21)
(1.0298905 -0.0080066846 7.002711e-22)
(1.0303996 -0.0067820637 -2.4132238e-21)
(1.0306323 -0.0053878676 8.4357185e-22)
(1.030673 -0.0040848116 1.3534129e-21)
(1.0305327 -0.0026450443 -1.1773756e-21)
(1.0304695 -0.0016666477 7.2128594e-22)
(1.0303691 -0.00026197041 1.4075734e-23)
(0.95067225 -0.0093225176 1.1730686e-21)
(0.96324284 -0.0065737705 -8.0424243e-22)
(0.97314292 -0.0040164038 3.6092582e-22)
(0.98300671 -0.0027515901 5.0769895e-21)
(0.99152677 -0.0021606011 -2.0619946e-21)
(0.99938102 -0.0026232115 4.2484748e-21)
(1.0063758 -0.0033519082 9.2006991e-23)
(1.0118996 -0.0044797396 3.5188451e-21)
(1.0156876 -0.0057732669 -5.049586e-22)
(1.018482 -0.0071067183 -4.5844373e-22)
(1.0211341 -0.0080531194 1.347017e-22)
(1.0229413 -0.0089720468 7.8750157e-22)
(1.0240298 -0.0099331971 -2.6472988e-22)
(1.0252461 -0.0106583 -1.2213787e-22)
(1.0265712 -0.010986083 1.4785739e-22)
(1.0279367 -0.010900791 2.7022487e-22)
(1.02916 -0.010362006 -2.265106e-22)
(1.030194 -0.0094471461 1.134708e-21)
(1.030903 -0.0082226078 0)
(1.0313262 -0.0068391026 1.8345452e-22)
(1.0314161 -0.0053377173 5.7436162e-23)
(1.0313302 -0.0039739146 -1.1247158e-22)
(1.0310626 -0.0025246409 2.8810546e-23)
(1.0309019 -0.0015697371 -1.0389424e-21)
(1.0307185 -0.00022205102 -4.6107516e-22)
(0.94424509 -0.010080703 -2.4127987e-21)
(0.95607479 -0.0073698115 5.4516902e-22)
(0.96573515 -0.0046018281 -1.3081247e-22)
(0.97553806 -0.0035189377 -5.1968281e-22)
(0.98446827 -0.0025423223 -5.4072846e-21)
(0.99269879 -0.003015576 -4.1142491e-22)
(1.0004355 -0.0037744368 8.6698178e-23)
(1.0072553 -0.0047813001 -2.5638485e-22)
(1.0124161 -0.00595691 -2.4710584e-21)
(1.0160455 -0.0072882578 1.2803813e-22)
(1.0190173 -0.00847388 -4.0325497e-22)
(1.0218211 -0.0093524513 -4.6467578e-23)
(1.023438 -0.010354943 -5.4827006e-22)
(1.0246911 -0.011313885 3.3082938e-23)
(1.0261062 -0.011889863 -4.9837182e-22)
(1.0276318 -0.01204696 -2.6219073e-22)
(1.0290762 -0.011706566 4.3541706e-22)
(1.030358 -0.010926266 -1.6434374e-21)
(1.031326 -0.0097688922 -2.5303381e-21)
(1.0319601 -0.0083487453 2.2729182e-24)
(1.0322345 -0.0068167808 2.563081e-21)
(1.0321859 -0.0052239216 6.2026722e-22)
(1.0319517 -0.0038167773 -1.2226278e-21)
(1.0315534 -0.0023747143 1.0639217e-21)
(1.0312924 -0.0014561399 -7.3046785e-22)
(1.0310255 -0.00017899586 4.0003991e-23)
(0.93781598 -0.010676205 1.1799347e-22)
(0.94895943 -0.0080083538 9.9672122e-22)
(0.95853853 -0.0052245878 -2.353464e-22)
(0.96802037 -0.0039954245 -1.6483519e-21)
(0.97705791 -0.003051227 3.6796435e-21)
(0.98569533 -0.0033492511 -3.2487637e-21)
(0.9938911 -0.004241793 -2.37934e-21)
(1.001633 -0.0052404931 -2.9300215e-21)
(1.0081443 -0.0062636893 4.1348185e-21)
(1.0129483 -0.0074938444 1.3512702e-21)
(1.0164397 -0.0087710803 -1.3757798e-23)
(1.0197314 -0.0098722703 4.8486946e-22)
(1.0224805 -0.010737408 6.2502291e-22)
(1.0240342 -0.011871614 -6.8808456e-22)
(1.0254989 -0.01271658 1.4362529e-22)
(1.0271626 -0.013141263 3.7837904e-22)
(1.0288184 -0.013039466 -1.1659883e-21)
(1.0303633 -0.012439129 1.3741211e-21)
(1.0316111 -0.011381919 -1.2191697e-21)
(1.0325236 -0.0099883833 2.3325027e-22)
(1.0330092 -0.008378986 0)
(1.0331414 -0.0067130161 1.0859923e-21)
(1.0329206 -0.0050487985 9.6798783e-23)
(1.0325355 -0.0036156856 0)
(1.0320016 -0.0021977237 -1.298107e-21)
(1.0316395 -0.0013276586 -5.4133258e-23)
(1.0312896 -0.00013305874 3.4509685e-22)
(0.93124056 -0.011123211 8.3940772e-22)
(0.9418404 -0.0085527346 1.6563645e-23)
(0.95141939 -0.0057260759 -5.1665176e-22)
(0.9606536 -0.0044508193 -5.6566e-23)
(0.96951239 -0.003524818 6.984066e-22)
(0.9782815 -0.0037794331 3.1388967e-21)
(0.9870067 -0.0046180789 1.9704383e-22)
(0.99531074 -0.0057894175 2.9115457e-21)
(1.0028908 -0.0067446612 -4.7347632e-22)
(1.0090099 -0.0077821718 -2.6166687e-21)
(1.0134324 -0.0089729823 2.0482001e-21)
(1.0169232 -0.010318524 4.2776281e-22)
(1.0206104 -0.011286672 -5.9351382e-23)
(1.0231479 -0.012333039 8.7396439e-23)
(1.024765 -0.013448432 -9.2855558e-22)
(1.0265245 -0.014168776 2.7124626e-22)
(1.0283773 -0.014340389 -1.7968827e-21)
(1.0301827 -0.013966302 3.462574e-21)
(1.0317355 -0.013056506 1.1194543e-21)
(1.0329543 -0.011724319 -2.5897673e-22)
(1.033729 -0.010094669 1.5463836e-21)
(1.0340713 -0.008309401 -8.6278833e-23)
(1.0340138 -0.0065311864 -9.3980244e-23)
(1.033621 -0.0048142416 0)
(1.033075 -0.0033740389 0)
(1.0324046 -0.0019963874 1.0416427e-22)
(1.0319422 -0.0011860456 -7.5468412e-22)
(1.0315105 -8.514595e-05 -5.598796e-22)
(0.92461066 -0.011421974 0)
(0.93457802 -0.0090017985 4.5626797e-22)
(0.94435802 -0.0061798441 6.1850824e-22)
(0.9533401 -0.004816546 -4.9071904e-22)
(0.96201773 -0.0038302707 -2.1210676e-21)
(0.97069834 -0.0043356446 -3.8752136e-22)
(0.97966332 -0.0051075166 2.0922983e-21)
(0.98858112 -0.0062619827 4.5705931e-21)
(0.99688657 -0.0073227952 -4.8858481e-21)
(1.0041086 -0.0082337736 8.4908226e-22)
(1.0097228 -0.0092090076 -2.1567632e-22)
(1.0138248 -0.010541676 -3.3485382e-22)
(1.0176393 -0.011893881 1.127796e-21)
(1.0215517 -0.012870946 7.6403517e-23)
(1.0238708 -0.014066254 2.3129739e-22)
(1.0257259 -0.015111488 -1.0363591e-21)
(1.0277442 -0.01559188 3.872901e-22)
(1.0298023 -0.015486598 -1.2182282e-21)
(1.031667 -0.014775415 3.0223535e-21)
(1.0332265 -0.013551815 -1.1127683e-21)
(1.0343269 -0.011936078 1.3030638e-21)
(1.0349639 -0.010082209 8.6466604e-22)
(1.0351038 -0.0081431798 -3.9575135e-23)
(1.0348596 -0.0062709264 -2.8707901e-21)
(1.0342757 -0.0045245504 -7.3975778e-22)
(1.0335673 -0.0030952694 1.2395052e-22)
(1.0327607 -0.0017735314 1.0492644e-21)
(1.0322 -0.001033313 -4.0997184e-22)
(1.031689 -3.6229462e-05 6.2203002e-22)
(0.91819884 -0.01157789 -2.8621758e-21)
(0.92716087 -0.0094110253 0)
(0.9371642 -0.0065948833 0)
(0.94609301 -0.0051428358 0)
(0.95459667 -0.0041094723 5.1207373e-22)
(0.9630842 -0.0046109193 -2.480837e-21)
(0.9720886 -0.0057662502 1.1770465e-22)
(0.98139979 -0.006864386 6.8481915e-23)
(0.99039163 -0.0078944258 -7.0013247e-21)
(0.99844731 -0.0087728753 6.9647278e-21)
(1.0051143 -0.0095528215 -2.4158978e-21)
(1.0101831 -0.010728104 6.497855e-22)
(1.0141938 -0.012270951 -8.4858229e-22)
(1.0186371 -0.013608772 4.0395273e-23)
(1.0224947 -0.014646621 1.024386e-21)
(1.0247754 -0.015946847 3.9582564e-22)
(1.0269189 -0.016774694 -1.2394926e-21)
(1.0292104 -0.016981458 -1.2152407e-21)
(1.0313873 -0.016517256 9.001521e-22)
(1.0333037 -0.015456605 -4.81346e-22)
(1.0347743 -0.013899766 -1.5346765e-21)
(1.0357493 -0.012009967 4.6273464e-23)
(1.0361796 -0.0099518607 2.1553161e-21)
(1.036119 -0.007877357 -1.3947547e-21)
(1.0356568 -0.0059392529 -4.1433813e-23)
(1.0348824 -0.0041837047 -4.7749697e-22)
(1.0340095 -0.0027836333 1.1108572e-21)
(1.0330692 -0.0015323007 2.5125907e-22)
(1.0324134 -0.00087118203 1.3667268e-21)
(1.0318276 1.3313104e-05 2.5782625e-22)
(0.91172219 -0.011606658 -4.952517e-22)
(0.9197782 -0.0097209554 2.7934668e-22)
(0.92975616 -0.0069937534 0)
(0.93875244 -0.0054067179 0)
(0.94725922 -0.0043423441 0)
(0.95555543 -0.0048712125 0)
(0.96441373 -0.0062099322 0)
(0.97389004 -0.0075644301 -6.474839e-24)
(0.98345708 -0.0085507379 2.8909803e-21)
(0.99226016 -0.0093740876 -8.1435761e-21)
(0.99976153 -0.0099539172 8.3752131e-23)
(1.0057541 -0.010926147 -2.3456128e-21)
(1.0104458 -0.012456312 3.370309e-21)
(1.0147814 -0.014265437 -9.2718827e-22)
(1.0199493 -0.015451477 -2.6216448e-23)
(1.0235147 -0.016681944 7.2315215e-22)
(1.025915 -0.017868896 -1.4309819e-21)
(1.0284004 -0.018430366 6.4305842e-22)
(1.0308812 -0.0182636 1.2163303e-21)
(1.0331635 -0.017417574 7.218491e-22)
(1.0350307 -0.015974977 2.033795e-22)
(1.0363967 -0.01409064 1.0237796e-21)
(1.0371681 -0.011942672 1.8832775e-23)
(1.0373884 -0.0096991474 -8.5748571e-22)
(1.037085 -0.0075214149 4.3352368e-22)
(1.0364076 -0.0055382424 2.4300752e-21)
(1.0354349 -0.0037971408 6.0208658e-22)
(1.0343997 -0.0024433403 -4.8887151e-22)
(1.0333299 -0.0012757757 2.8669524e-23)
(1.0325833 -0.00070153214 -7.9097907e-22)
(1.0319275 6.3459113e-05 -1.3314428e-22)
(0.90503424 -0.011611273 2.3115266e-21)
(0.91223234 -0.0099643153 -2.9976509e-22)
(0.92218438 -0.00734071 1.6629925e-22)
(0.93121204 -0.0056599423 -1.121456e-21)
(0.93988399 -0.0045193698 0)
(0.9481013 -0.0051146745 0)
(0.95679363 -0.006580973 -1.886897e-23)
(0.96622911 -0.0082416199 -3.9230991e-21)
(0.97608117 -0.0092822888 6.3494845e-21)
(0.98559265 -0.010015567 -8.076503e-21)
(0.99389773 -0.010463752 -1.9519147e-22)
(1.0005994 -0.011151474 4.4513458e-21)
(1.006064 -0.012568461 -7.1134109e-22)
(1.0107122 -0.014597982 2.4264191e-22)
(1.0158941 -0.016400331 3.9949029e-22)
(1.0213911 -0.017518845 5.2674572e-23)
(1.024687 -0.018854726 2.0319392e-21)
(1.0273775 -0.019813903 -1.5136006e-22)
(1.0301379 -0.019992583 -1.8624646e-21)
(1.0327867 -0.019416932 4.7137054e-21)
(1.0350702 -0.018141801 -6.120411e-22)
(1.0368629 -0.016317372 -1.3593758e-21)
(1.0380366 -0.01411553 3.1833567e-21)
(1.0385932 -0.011728523 1.3692294e-21)
(1.0385515 -0.0093338103 -4.2468324e-22)
(1.038008 -0.0070747583 1.4294487e-21)
(1.0370988 -0.0050765859 7.1421137e-22)
(1.0359312 -0.0033700262 2.6291682e-22)
(1.034737 -0.0020788642 -5.4423898e-22)
(1.0335433 -0.0010070033 -9.8832949e-23)
(1.032711 -0.00052632831 -1.7976853e-22)
(1.0319892 0.00011226422 -5.5148464e-24)
(0.89821427 -0.011566485 -5.9725347e-22)
(0.90446136 -0.010086306 1.6128798e-22)
(0.9142005 -0.0076510287 2.7442597e-22)
(0.92341102 -0.0058864868 1.5999209e-21)
(0.93234179 -0.0047016615 0)
(0.94066079 -0.0052944331 0)
(0.94923128 -0.0069420812 0)
(0.95853763 -0.0087414819 4.7980214e-22)
(0.96850409 -0.010130373 -6.9494993e-21)
(0.97838815 -0.010756643 -6.9699783e-21)
(0.98755283 -0.010973804 -1.737135e-22)
(0.99497977 -0.011486256 9.354695e-22)
(1.0009739 -0.012660197 -8.2545456e-21)
(1.0062098 -0.014725339 3.1358633e-21)
(1.0112551 -0.017104133 -9.4819287e-23)
(1.0175843 -0.018682944 0)
(1.0228878 -0.019807308 4.4597085e-22)
(1.0261432 -0.021109349 -5.3883234e-22)
(1.0291537 -0.021685055 8.6422316e-22)
(1.0321598 -0.021432727 2.7243644e-22)
(1.0348695 -0.020384035 -2.2332997e-21)
(1.0371183 -0.018671985 1.5331694e-22)
(1.0387395 -0.016467726 -2.1444225e-21)
(1.0397002 -0.013967076 -2.662664e-21)
(1.0399808 -0.011375413 9.3332937e-22)
(1.0396755 -0.0088537762 2.1472838e-22)
(1.038866 -0.0065503394 -1.4484873e-22)
(1.0377303 -0.0045589783 2.3376821e-23)
(1.0363689 -0.002908425 -7.1047266e-22)
(1.0350213 -0.0016945963 -5.4557746e-22)
(1.0337105 -0.00072890983 1.522912e-22)
(1.0327981 -0.00034739822 1.6760807e-22)
(1.0320124 0.0001549755 1.1660571e-22)
(0.89071661 -0.011338699 -5.6740821e-22)
(0.8965346 -0.010118365 2.0735519e-22)
(0.90580425 -0.0078929788 1.3224271e-21)
(0.91501199 -0.0060912567 4.4975923e-21)
(0.9245056 -0.0048788176 -1.124001e-21)
(0.93311055 -0.0054681566 -1.8584973e-22)
(0.94170433 -0.0072299195 -6.6648311e-21)
(0.95087939 -0.0092535003 3.8469977e-21)
(0.96079204 -0.010780199 7.47295e-22)
(0.97092414 -0.011577384 1.5534313e-20)
(0.9805726 -0.011580359 -6.5255742e-21)
(0.98891236 -0.011766221 -8.8161005e-21)
(0.995458 -0.012805092 1.3684231e-22)
(1.0010425 -0.014794202 3.1481869e-21)
(1.006455 -0.017393786 2.116581e-21)
(1.0124545 -0.01987205 -2.8313459e-23)
(1.0197293 -0.021067205 9.5301329e-23)
(1.0245428 -0.022311144 1.3731419e-21)
(1.0279333 -0.023319133 -2.6963559e-22)
(1.0312731 -0.023445242 -2.9252586e-22)
(1.0344116 -0.022680081 6.1696935e-22)
(1.0371366 -0.021140703 -3.8718204e-21)
(1.0392442 -0.018983576 5.9121183e-24)
(1.0406621 -0.01641647 1.0176364e-21)
(1.0413386 -0.013650137 -3.5747322e-21)
(1.0413343 -0.010881104 -1.1938639e-21)
(1.0407316 -0.0082745065 -1.0553803e-21)
(1.0396622 -0.0059501096 -3.8079662e-22)
(1.0382954 -0.0039942582 -6.1650839e-22)
(1.0367469 -0.0024179465 1.9073745e-23)
(1.0352533 -0.0012948627 -1.6207142e-22)
(1.033833 -0.00044425761 -5.4683384e-23)
(1.0328462 -0.00016613657 5.1508008e-23)
(1.0320039 0.00019565422 -4.3268083e-22)
(0.88208951 -0.010995463 3.7761989e-22)
(0.88809511 -0.010050415 -2.7669119e-22)
(0.8972979 -0.0080067643 -2.2166861e-21)
(0.9060614 -0.006252608 -2.6608635e-21)
(0.91588424 -0.005048654 5.2433988e-21)
(0.92527408 -0.0056341543 7.2919925e-21)
(0.93413002 -0.0075077478 9.6411127e-22)
(0.94324827 -0.0096921836 0)
(0.9530526 -0.011399211 5.0864444e-21)
(0.96325217 -0.012361207 1.9673635e-20)
(0.97320015 -0.012258071 7.8535936e-22)
(0.98219573 -0.012115572 3.596002e-21)
(0.98953389 -0.012848942 0)
(0.99544906 -0.014800211 -2.3732941e-22)
(1.0010856 -0.017579501 -5.1375759e-21)
(1.0071078 -0.02057057 -7.0831326e-23)
(1.01455 -0.022673782 4.4084197e-22)
(1.0219991 -0.023646755 0)
(1.0264426 -0.024867051 9.7077901e-23)
(1.0301217 -0.025433745 5.7259733e-22)
(1.0336843 -0.025010282 -3.4122686e-21)
(1.0368971 -0.023702645 4.9779752e-22)
(1.0395216 -0.021652108 0)
(1.0414442 -0.019063632 -3.3848296e-21)
(1.0425767 -0.016164105 1.2357641e-21)
(1.0429513 -0.013162217 -7.8040788e-23)
(1.0426204 -0.010261214 -1.4857289e-21)
(1.0417233 -0.0075967552 1.1873564e-21)
(1.0403828 -0.0052884421 5.5186655e-23)
(1.0387936 -0.0033885825 -1.4389642e-21)
(1.0370652 -0.0019045041 1.4002978e-21)
(1.0354341 -0.0008838175 5.4592079e-22)
(1.0339125 -0.00015570894 0)
(1.0328572 1.6448549e-05 -3.2948731e-24)
(1.0319655 0.00023281501 -1.9096114e-22)
(0.87196553 -0.010528362 3.5120878e-22)
(0.87873579 -0.0097498467 -7.7836708e-23)
(0.88832342 -0.0080736963 -2.9450137e-21)
(0.89695862 -0.0062599012 -1.1692882e-21)
(0.90650021 -0.0051724498 1.5357736e-21)
(0.91650352 -0.0057788353 1.2047188e-21)
(0.92631918 -0.007764673 7.6240925e-21)
(0.93561208 -0.010090093 9.7945169e-23)
(0.94532366 -0.011951783 0)
(0.95544296 -0.012988053 -6.9044498e-21)
(0.96555468 -0.013017902 6.9310696e-21)
(0.97486533 -0.012562865 -5.9534469e-22)
(0.98299557 -0.01292534 3.8510673e-21)
(0.98951873 -0.014691539 -4.7040392e-21)
(0.99524965 -0.017609415 -2.4704736e-21)
(1.0014128 -0.021005976 -3.0266892e-21)
(1.0084939 -0.024018238 4.0569423e-21)
(1.0174822 -0.025487346 2.8136778e-22)
(1.0243497 -0.026408111 2.1674479e-21)
(1.0287127 -0.027372699 -3.6381248e-21)
(1.0326739 -0.027354583 3.6030869e-21)
(1.0363856 -0.026338564 -2.4406859e-21)
(1.039548 -0.024453922 0)
(1.0420147 -0.021900741 -9.1789867e-22)
(1.0436587 -0.018907375 2.8553973e-22)
(1.0444776 -0.015707577 1.7209793e-21)
(1.0444998 -0.01251809 5.4461486e-22)
(1.0438398 -0.0095173011 2.8013755e-22)
(1.0426314 -0.0068388585 8.3207117e-22)
(1.0410302 -0.004569031 0)
(1.0392228 -0.0027503229 1.2597576e-21)
(1.0373246 -0.0013736002 1.5453736e-21)
(1.0355656 -0.00046536953 -7.3517329e-23)
(1.0339512 0.00013450515 -2.6386208e-22)
(1.0328327 0.00019916614 -1.825068e-23)
(1.0319039 0.00027071128 7.9045438e-22)
(0.86064758 -0.0099878845 -1.7494383e-22)
(0.8679801 -0.0093913509 -9.3489891e-23)
(0.87845578 -0.0079206107 1.1455092e-21)
(0.88743062 -0.0062545007 8.6766301e-23)
(0.89679451 -0.0051428796 -8.3112154e-21)
(0.90673144 -0.0058630735 -9.1933839e-21)
(0.91747846 -0.0079627042 -5.5679862e-23)
(0.92780571 -0.010473049 6.5878912e-21)
(0.93759897 -0.012452311 1.1182458e-22)
(0.94761477 -0.0135794 6.4398009e-21)
(0.95768072 -0.013555296 -1.8269918e-23)
(0.96719485 -0.013078551 -3.9189494e-21)
(0.975735 -0.013092849 -4.2696687e-22)
(0.98305285 -0.014553402 -4.2774795e-21)
(0.98914093 -0.017481445 1.6358757e-20)
(0.99524613 -0.021231945 2.7883583e-22)
(1.0022893 -0.024910396 -2.5071439e-21)
(1.011038 -0.027484749 -8.7591485e-22)
(1.0208063 -0.028327956 -8.8070724e-22)
(1.0269148 -0.029257242 -6.6999766e-22)
(1.0313857 -0.029691336 1.9939684e-21)
(1.0355844 -0.029028768 -3.9938056e-21)
(1.0393065 -0.027370625 3.1599084e-21)
(1.0423478 -0.024910271 0)
(1.0445508 -0.021875361 2.7715554e-21)
(1.045876 -0.018510436 3.7235269e-21)
(1.0463207 -0.015060033 -1.416553e-21)
(1.0459808 -0.011720328 2.9327748e-21)
(1.044969 -0.008669093 7.5319053e-23)
(1.0434582 -0.0060036498 -9.3359465e-22)
(1.0415967 -0.0038061066 -1.1360434e-21)
(1.0395836 -0.0020860046 -5.1457086e-23)
(1.0375264 -0.000830568 -9.0279544e-23)
(1.0356499 -4.3081388e-05 1.3034808e-22)
(1.0339521 0.00042438878 -2.6748991e-22)
(1.0327755 0.00038132799 -4.5826661e-23)
(1.0318167 0.00031595722 3.5290754e-22)
(0.84925548 -0.0093631162 -4.9082885e-23)
(0.85585754 -0.0089485145 -2.565415e-22)
(0.86726944 -0.0076714776 1.92019e-21)
(0.87703025 -0.0060205703 1.299087e-21)
(0.88668065 -0.0050429148 -1.0292742e-22)
(0.89639756 -0.0058112511 9.6310357e-23)
(0.90740626 -0.0081042633 5.5178393e-21)
(0.91890713 -0.010731416 -2.502258e-21)
(0.92976526 -0.012927255 0)
(0.93977945 -0.014101897 -1.4296964e-21)
(0.94973808 -0.014050906 0)
(0.95926477 -0.013494253 0)
(0.96804427 -0.013306298 -4.2234387e-21)
(0.97585065 -0.014447767 5.5884887e-22)
(0.98260262 -0.017257749 2.9540169e-21)
(0.98883226 -0.021247301 4.5505236e-21)
(0.99574246 -0.025459165 -5.9998931e-21)
(1.004045 -0.029113404 -2.7669445e-21)
(1.0147731 -0.030766164 -4.364988e-22)
(1.0241755 -0.031282171 4.8817474e-22)
(1.0298021 -0.031992777 -3.2312381e-21)
(1.0344882 -0.03175341 1.2871854e-21)
(1.0387784 -0.03038222 7.4916646e-22)
(1.0424235 -0.028074899 -1.0716994e-22)
(1.0452251 -0.025052472 9.3435069e-23)
(1.0471112 -0.021569411 7.5242713e-22)
(1.0480461 -0.017883513 -5.4169293e-22)
(1.0480981 -0.014224938 -1.8274505e-21)
(1.0473665 -0.010789534 -1.7059423e-22)
(1.0460083 -0.0077210872 -2.7566828e-21)
(1.0441924 -0.0051097302 -7.7706446e-22)
(1.0420851 -0.0030041393 -3.0168867e-22)
(1.0398764 -0.0014032094 -1.440944e-21)
(1.0376727 -0.00028020919 4.9990955e-23)
(1.0356896 0.00037998199 -3.6469502e-22)
(1.0339179 0.00071243341 -3.3799449e-23)
(1.0326894 0.0005610982 -2.9384036e-22)