/*--------------------------------*- C++ -*----------------------------------*\
| =========                 |                                                 |
| \\      /  F ield         | OpenFOAM: The Open Source CFD Toolbox           |
|  \\    /   O peration     | Version:  5.0                                   |
|   \\  /    A nd           | Web:      www.OpenFOAM.org                      |
|    \\/     M anipulation  |                                                 |
\*---------------------------------------------------------------------------*/
FoamFile
{
    version     2.0;
    format      ascii;
    class       volSymmTensorField;
    location    "140";
    object      UPrime2Mean;
}
// * * * * * * * * * * * * * * * * * * * * * * * * * * * * * * * * * * * * * //

dimensions      [0 2 -2 0 0 0 0];

internalField   nonuniform List<symmTensor> 
9200
(
(0.00086950009 3.2711999e-05 -1.3572841e-25 3.044732e-06 -9.7766926e-27 7.6944895e-47)
(0.00089522977 0.0001073766 3.1171909e-23 3.4696975e-05 3.8707874e-24 1.3262933e-42)
(0.0007002303 2.7650052e-05 0 2.9208817e-06 0 0)
(0.00093452502 0.00017386876 -1.7222261e-23 9.0315652e-05 -3.4134817e-24 3.8654391e-43)
(0.00071903085 9.106796e-05 2.4406055e-23 3.3932496e-05 3.6171888e-24 9.9183684e-43)
(0.00061825993 2.5370015e-05 0 2.7666516e-06 0 0)
(0.00099807598 0.00024632483 -1.7032324e-24 0.00018273174 -4.4288706e-25 3.4896197e-45)
(0.00074960192 0.00014564238 -1.7741389e-25 8.7748883e-05 -2.816631e-25 3.1907945e-45)
(0.00063608543 8.2335605e-05 0 3.207479e-05 0 0)
(0.00053064015 2.1411627e-05 0 2.5478996e-06 0 0)
(0.0010811811 0.00031812921 4.0220015e-23 0.00030842353 1.4156923e-23 1.8222804e-42)
(0.00079939786 0.00020192901 2.6770122e-23 0.00017666804 1.0459726e-23 1.1909584e-42)
(0.00066210097 0.00013084564 1.290173e-23 8.2558285e-05 3.8366239e-24 3.173828e-43)
(0.0005452343 6.9576933e-05 6.6640551e-25 2.995149e-05 1.398845e-25 1.0852783e-45)
(0.00046221862 1.8671079e-05 6.2303855e-27 2.3711696e-06 9.7518106e-28 6.5339301e-49)
(0.0011903355 0.00039402988 3.9169559e-23 0.00048461943 1.5529937e-23 1.5306144e-42)
(0.00086593229 0.00025382623 -2.286236e-25 0.00029564815 9.1732582e-25 9.9010869e-45)
(0.00070475465 0.00017971572 4.4447623e-23 0.00016532042 1.8748556e-23 3.6387359e-42)
(0.00056896175 0.00010988437 1.5542791e-23 7.6707459e-05 5.8728543e-24 6.3610218e-43)
(0.00047684983 5.998397e-05 4.6843336e-25 2.780513e-05 2.7372861e-25 4.7613223e-45)
(0.00040528931 1.5934552e-05 -2.1018122e-23 2.1804929e-06 -1.6464209e-24 1.7524852e-42)
(0.0013256514 0.00046952214 5.3405811e-23 0.00071927441 3.0532164e-23 2.9388365e-42)
(0.00095601271 0.00030368649 3.7795969e-23 0.00045984921 1.6741686e-23 1.7468501e-42)
(0.00076190636 0.00022283264 -2.7139263e-23 0.00027450759 -1.386964e-23 1.2513918e-42)
(0.00060913104 0.00014913843 -1.70873e-24 0.00015287732 -1.0111343e-24 8.6984578e-45)
(0.0004993793 9.4126684e-05 1.1741363e-23 7.0724262e-05 4.3603948e-24 4.1005905e-43)
(0.0004189099 5.0902377e-05 1.0252789e-23 2.5718157e-05 2.8681927e-24 4.2697637e-43)
(0.00035841907 1.3685594e-05 1.5038881e-24 2.0131454e-06 1.6165542e-25 1.4475679e-44)
(0.0014935608 0.00054131703 4.2129869e-23 0.0010328484 3.9491112e-23 2.7846156e-42)
(0.0010751591 0.00034709327 3.4927637e-23 0.00067518249 2.3204423e-23 1.5325359e-42)
(0.00083989526 0.00026153799 3.395644e-23 0.00042285971 2.3362763e-23 2.0072153e-42)
(0.00066440807 0.00018224535 1.6052971e-24 0.00025223054 3.0893726e-24 5.7550964e-44)
(0.00053740009 0.00012656502 -3.0328002e-23 0.00014021652 -1.7082672e-23 2.8310508e-42)
(0.00044052851 7.9694554e-05 -1.142781e-23 6.5186357e-05 -5.3703047e-24 5.5374829e-43)
(0.0003719334 4.3376475e-05 -1.0534759e-23 2.3770944e-05 -2.8145526e-24 5.5250927e-43)
(0.0003196769 1.1694681e-05 1.4761993e-23 1.8624898e-06 1.4142389e-24 1.4866942e-42)
(0.0017014812 0.00060404725 -7.7103983e-23 0.0014459846 -5.9195815e-23 5.1397877e-42)
(0.0012353208 0.00038137756 3.6152875e-23 0.00095990644 1.1718335e-23 1.2166696e-42)
(0.00094427819 0.00029134837 1.5989017e-24 0.00061345394 6.3231262e-24 9.4125072e-44)
(0.00074216898 0.00021025941 1.343558e-23 0.00038604521 8.8886488e-24 3.5091525e-43)
(0.00058990611 0.00015296744 1.7447755e-24 0.00022981702 5.872348e-24 2.4361645e-43)
(0.0004775965 0.00010663324 -3.904855e-23 0.00012891101 -2.3280463e-23 5.7646427e-42)
(0.00039311482 6.7912193e-05 4.4916319e-24 5.9992813e-05 -3.4417998e-25 3.1483642e-43)
(0.00033277844 3.6785733e-05 -1.560918e-23 2.2084425e-05 -4.7639329e-24 1.6170441e-42)
(0.0002882658 1.0008281e-05 -2.6952013e-23 1.7302883e-06 -2.9367e-24 6.7732062e-42)
(0.0019546982 0.00064388803 6.5214184e-23 0.001980028 7.2883845e-23 4.4718729e-42)
(0.0014512156 0.00040053673 -1.9438877e-23 0.0013315464 2.4716856e-23 1.3489885e-42)
(0.0010859613 0.00030981762 -1.3072354e-24 0.00085989153 -3.6565439e-24 1.8812916e-44)
(0.00084855784 0.00022986922 -6.0780524e-25 0.00055672436 -1.8533047e-23 9.4741267e-43)
(0.00066424559 0.0001741833 -4.2545291e-24 0.00034948071 -4.6797774e-24 7.3231488e-44)
(0.00052944065 0.00012839875 8.7012995e-25 0.00021034042 8.1732839e-24 5.6740046e-43)
(0.00042926201 9.0664238e-05 1.1757597e-23 0.00011835868 7.8545589e-24 6.8277085e-43)
(0.00035342144 5.7724969e-05 1.7157646e-23 5.5591013e-05 8.911597e-24 1.9379631e-42)
(0.0003010755 3.1214539e-05 8.0207387e-24 2.0599658e-05 3.2477704e-24 6.2132596e-43)
(0.00026220606 8.5084051e-06 1.7079358e-24 1.6164035e-06 2.448078e-25 4.2360641e-44)
(0.0022579652 0.00064842322 -3.3328527e-23 0.0026606567 -3.3981894e-23 8.5858193e-43)
(0.0017397569 0.00039343109 -7.2618181e-24 0.001813366 4.8246869e-23 1.7598326e-42)
(0.001279807 0.00031244374 3.1634581e-23 0.0011748708 1.0862325e-23 9.0419773e-43)
(0.00099578595 0.00023964247 -2.1989372e-23 0.00077680072 -2.4714076e-23 1.0498617e-42)
(0.00076670901 0.00018759536 2.4049743e-23 0.00050056772 1.0740639e-25 1.3597985e-42)
(0.00060328084 0.00014576758 -4.2157723e-23 0.00031854217 -2.6294596e-23 4.7713707e-42)
(0.0004796823 0.00010912755 -1.558215e-25 0.00019242371 2.2169491e-24 5.1710104e-44)
(0.00038862437 7.7085612e-05 2.8279135e-23 0.0001096424 1.7272895e-23 4.6287208e-42)
(0.00032113786 4.9208323e-05 -1.1757196e-23 5.1733053e-05 -6.250717e-24 1.1828451e-42)
(0.00027464695 2.6242337e-05 2.0630342e-23 1.9365024e-05 9.0272773e-24 5.5644824e-42)
(0.00024138008 7.2108225e-06 -2.728497e-24 1.5147875e-06 -3.8029123e-25 1.4408994e-43)
(0.0026306091 0.00066726341 1.3356142e-23 0.0035494777 -5.5032711e-24 1.4835222e-43)
(0.0021136153 0.00034618545 4.0784809e-23 0.002436624 -1.0138108e-22 6.6740934e-42)
(0.0015453831 0.00029339111 -2.5153426e-23 0.0015803241 -4.6211264e-23 1.6189335e-42)
(0.0012000255 0.00023651001 0 0.0010584501 0 0)
(0.00090887846 0.00019235787 -1.44406e-27 0.00069427577 1.6904268e-24 5.2614184e-45)
(0.00070516551 0.00015709686 3.8455266e-24 0.00045449164 -1.5087237e-23 8.8872287e-43)
(0.0005511305 0.0001240245 -7.7435309e-24 0.00029064162 -5.0669045e-24 1.9777534e-43)
(0.00043769023 9.3202641e-05 -1.5144248e-23 0.00017794374 -1.0447894e-23 1.157716e-42)
(0.00035517224 6.5852109e-05 3.8944143e-25 0.00010204995 -3.9050169e-24 3.6800906e-43)
(0.00029402699 4.1614518e-05 -1.2576172e-23 4.8560821e-05 -8.0087496e-24 1.9246594e-42)
(0.00025345027 2.1908232e-05 -6.9810892e-24 1.8276842e-05 -3.4769539e-24 9.2737545e-43)
(0.00022441499 6.0326198e-06 1.2093185e-24 1.4251691e-06 2.3605511e-25 4.8122568e-44)
(0.003008705 0.00070606213 7.8114458e-24 0.0046692281 2.9166161e-24 2.3145926e-44)
(0.0025877568 0.00026819775 -6.5009817e-23 0.0032551614 3.8399983e-23 2.7010141e-42)
(0.0018956906 0.00023781673 0 0.0021015934 0 0)
(0.0014839009 0.00021716183 0 0.0014220216 0 0)
(0.0011057621 0.00018661992 -1.6732695e-23 0.00094169026 4.9973084e-25 3.5718867e-43)
(0.00084610843 0.00016233557 2.3976804e-23 0.00062857052 -2.1147129e-23 2.6936229e-42)
(0.00064916221 0.0001343209 -2.3353866e-23 0.00041368069 -1.4330759e-24 1.6363059e-42)
(0.00050713247 0.0001067682 1.8112478e-23 0.00026841898 1.5796859e-23 1.5023456e-42)
(0.00040229227 8.015287e-05 1.1268844e-24 0.00016545358 1.5092519e-24 1.4917719e-44)
(0.00032678414 5.5790296e-05 -7.3529417e-27 9.591317e-05 3.9315359e-26 4.3849949e-47)
(0.00027208069 3.5002296e-05 1.2808923e-23 4.5783556e-05 8.8397414e-24 2.8602105e-42)
(0.00023611667 1.7913639e-05 -1.1132993e-23 1.7349574e-05 -6.1227844e-24 3.7158639e-42)
(0.00021120348 4.9997274e-06 1.6094069e-23 1.342123e-06 3.6395831e-24 1.3928276e-41)
(0.0030728222 0.00051607086 -1.3100797e-22 0.0058440084 -2.8262913e-23 6.5945718e-42)
(0.0031670688 0.00021528603 1.6263362e-23 0.0043469626 -4.0939461e-24 1.0531731e-43)
(0.0023318172 0.00013731075 -8.9118257e-23 0.0027774499 1.4212064e-23 4.1167589e-42)
(0.0018671296 0.00017147799 5.8848692e-23 0.0018942832 -1.3607827e-23 2.4862889e-42)
(0.0013791262 0.00016935188 -3.3639188e-23 0.0012624866 8.25302e-24 1.2087952e-42)
(0.0010400054 0.00016039193 1.1362872e-23 0.00085137771 -1.0196321e-23 3.9836847e-43)
(0.00078421525 0.00014017129 6.623281e-24 0.00057125104 6.6124888e-24 1.2096866e-43)
(0.00060180856 0.00011731225 -4.5847718e-25 0.00038160448 6.4262317e-25 3.0981343e-45)
(0.00046846369 9.2619811e-05 1.3154539e-23 0.00024951177 1.9479155e-23 1.6915826e-42)
(0.00037184111 6.8421878e-05 9.479733e-24 0.00015553039 1.4688673e-23 1.4880003e-42)
(0.00030341985 4.6986235e-05 3.5928275e-24 9.0575186e-05 3.4792794e-24 2.0249732e-43)
(0.00025399367 2.8855279e-05 7.5194779e-24 4.3437507e-05 7.2952187e-24 1.6336703e-42)
(0.00022257058 1.4352976e-05 3.7996841e-24 1.649359e-05 3.1590601e-24 7.8053598e-43)
(0.00020090033 4.060043e-06 -3.1459368e-24 1.2648575e-06 -9.928339e-25 1.0958659e-42)
(0.0026889545 -7.3612167e-05 1.258428e-22 0.0068978689 -3.3612885e-22 2.6662371e-41)
(0.0036663579 0.00013067007 6.8823096e-22 0.0057306374 -1.4883623e-22 1.5370807e-40)
(0.0028730242 3.0133414e-05 1.5578779e-23 0.0036625494 -4.806016e-23 7.9597303e-43)
(0.002349181 8.1348508e-05 -1.1593912e-23 0.0025102702 6.9079619e-24 8.9480405e-44)
(0.0017536681 0.00013544835 5.5964574e-24 0.0016834778 -4.5331295e-24 3.7888895e-44)
(0.001307659 0.00015117285 -2.3730298e-23 0.0011417842 1.7254162e-23 9.7544949e-43)
(0.00096876254 0.00014114479 7.6864122e-24 0.00077330794 7.9439834e-24 1.3349289e-43)
(0.00073088314 0.00012513125 -7.4526335e-24 0.00052663368 -8.4526648e-24 1.9689424e-43)
(0.00055792159 0.00010312889 2.8548081e-24 0.00035461052 -3.3662141e-24 1.1035513e-43)
(0.00043483292 7.991721e-05 -7.4750791e-25 0.00023466232 -2.236833e-24 2.2551506e-44)
(0.00034616057 5.8060066e-05 -2.3892479e-25 0.00014697872 -2.6245818e-25 7.4538247e-46)
(0.00028394368 3.8652018e-05 1.5129664e-25 8.6122766e-05 -1.6974285e-24 7.2134639e-44)
(0.00023971923 2.334495e-05 -8.2081522e-24 4.1284172e-05 -9.4136628e-24 3.1910226e-42)
(0.00021199845 1.1038068e-05 2.8882027e-24 1.5709479e-05 3.0253938e-24 8.7168947e-43)
(0.00019330814 3.2405372e-06 -1.5465912e-24 1.1902238e-06 -7.4472563e-25 6.8616894e-43)
(0.0021599153 -0.00091867175 1.533717e-22 0.0077475706 1.4593739e-22 2.3884968e-41)
(0.0036575666 -0.00020883957 -4.5330187e-22 0.0071877787 -5.8176259e-23 6.5209403e-41)
(0.0034869579 -1.6503817e-05 2.2718806e-22 0.0048621133 -4.2046871e-23 1.659268e-41)
(0.0029208565 -4.1076216e-05 -1.5962793e-22 0.0033193162 6.1708346e-24 9.704047e-42)
(0.0022335394 6.4946155e-05 9.1955122e-23 0.0022393646 -6.0865803e-24 4.3549387e-42)
(0.0016749575 0.00013233872 -7.4756512e-23 0.0015265791 -2.7827713e-23 4.2805169e-42)
(0.0012217283 0.00013737097 6.9473145e-23 0.0010376767 -8.9510617e-24 5.496463e-42)
(0.00090576509 0.00013010932 -2.6916348e-24 0.00071279499 1.9002344e-24 2.2050575e-44)
(0.00067933997 0.00011215483 -6.1826427e-24 0.00048923947 -4.6866831e-24 1.1493068e-43)
(0.00051933833 9.0495872e-05 7.5202063e-24 0.00033356781 -7.9301152e-24 7.8170393e-43)
(0.00040546756 6.8413676e-05 -3.0155986e-23 0.00022198438 -3.4937108e-23 9.239932e-42)
(0.00032444816 4.801267e-05 8.3627303e-24 0.00013995237 6.0690006e-24 1.2103028e-42)
(0.00026833105 3.107832e-05 2.9813316e-24 8.2043528e-05 4.2169303e-24 3.4791817e-43)
(0.00022852238 1.8145326e-05 6.2614438e-25 3.9325167e-05 1.5049954e-24 6.277691e-44)
(0.00020420545 8.0845333e-06 -1.1133515e-25 1.4940162e-05 2.2073723e-25 1.1324143e-44)
(0.00018784894 2.5141753e-06 6.8665237e-25 1.1176061e-06 8.1770059e-25 8.7538527e-43)
(0.00178673 -0.001838574 0 0.0083609322 0 0)
(0.0033318374 -0.00081183388 -6.3969136e-22 0.0085820483 6.6728365e-23 1.4434033e-40)
(0.003723825 -0.00016766747 -9.6765335e-24 0.0062862114 1.5175287e-22 4.302966e-42)
(0.003563458 -0.00011067598 0 0.0044249605 0 0)
(0.002795276 -5.6151593e-05 0 0.0029775265 0 0)
(0.002154914 8.6961573e-05 0 0.0020418928 0 0)
(0.0015688734 0.00012862299 -9.8979244e-24 0.0013901886 6.6203791e-24 1.1785118e-43)
(0.0011435409 0.0001323553 2.465319e-23 0.00095668964 2.0231638e-23 9.8546215e-43)
(0.0008429709 0.00011979089 -3.1361633e-23 0.00066201044 1.9823332e-23 3.161785e-42)
(0.00063291605 0.00010052178 1.4734642e-23 0.00046019754 1.4902596e-23 9.101031e-43)
(0.00048434433 7.8420641e-05 -2.3637631e-24 0.00031574527 2.3934006e-24 8.6368953e-44)
(0.00038027514 5.6908766e-05 5.1691881e-24 0.00021170051 7.9416111e-24 4.345234e-43)
(0.00030666363 3.8691823e-05 -6.7511372e-25 0.00013355495 -2.5641072e-26 1.5180165e-44)
(0.00025599486 2.3770087e-05 -2.3699393e-24 7.8354424e-05 -4.9756162e-24 4.5892857e-43)
(0.00022020268 1.348292e-05 -1.3613779e-25 3.7407217e-05 -1.0333657e-24 3.052884e-44)
(0.00019865018 5.394975e-06 -3.3722548e-25 1.4183321e-05 -1.4901369e-24 2.235857e-43)
(0.00018429912 1.8988894e-06 0 1.0458857e-06 0 0)
(0.0018400994 -0.0026696168 1.0685947e-22 0.0087788358 -1.3485328e-22 3.6633478e-41)
(0.0028558643 -0.001585292 7.8057993e-22 0.0098178192 1.2944984e-22 3.1199657e-40)
(0.0035309826 -0.00058104659 -1.196165e-21 0.0077343475 6.3389745e-23 4.5952709e-40)
(0.0039599207 -0.00017737839 -5.5697749e-22 0.0058572984 1.0641155e-22 8.6383194e-41)
(0.0034330676 -0.00015719348 -3.6653074e-22 0.0039896482 2.9945816e-23 4.1822101e-41)
(0.002719102 -1.9704563e-05 0 0.00272998 0 0)
(0.0020323932 0.00010411869 -1.4865193e-22 0.0018677999 3.4771193e-23 1.3182343e-41)
(0.0014683691 0.00013199106 2.9218381e-23 0.0012822237 -1.5648022e-23 1.0003182e-42)
(0.0010639791 0.00012599029 7.9185892e-23 0.00088823153 7.2346102e-24 8.233962e-42)
(0.00078481611 0.00011019271 -3.5225183e-23 0.00062236085 2.0608224e-23 4.4502679e-42)
(0.00058979538 8.8578797e-05 -7.3992423e-24 0.00043565616 -9.1926624e-24 3.2049543e-43)
(0.00045395418 6.5976227e-05 -2.5327365e-24 0.00030141724 2.6351166e-24 1.1823813e-43)
(0.00035909113 4.591189e-05 1.0975043e-23 0.00020239377 1.4212694e-23 2.3181224e-42)
(0.00029244538 2.9440359e-05 -8.7075716e-24 0.00012782818 -2.1322609e-23 5.0290167e-42)
(0.00024672132 1.7123876e-05 -2.9425675e-25 7.4723163e-05 -4.5298257e-24 2.9368189e-43)
(0.00021429954 9.1758533e-06 -2.7055714e-24 3.5526054e-05 -1.6375477e-23 1.1233389e-41)
(0.00019509134 3.0584675e-06 5.5320515e-25 1.3414039e-05 -4.0142878e-24 1.6266674e-42)
(0.0001821913 1.3844931e-06 1.4570704e-24 9.7503876e-07 -9.7131016e-25 1.4675864e-42)
(0.002492872 -0.00325947 3.1127133e-24 0.0089830968 -3.2647888e-24 2.1291763e-43)
(0.0024540646 -0.0024758265 3.4601972e-22 0.010796395 -9.9176727e-23 9.3380127e-41)
(0.0031093092 -0.0011689372 1.2171318e-22 0.0091548399 1.3608189e-22 9.8696004e-42)
(0.0038958844 -0.00047669739 -6.4397526e-22 0.0073842123 -2.0489326e-23 1.1931931e-40)
(0.0039192839 -0.00020442339 6.7249202e-23 0.0053695363 -5.9786898e-24 1.2402305e-42)
(0.0033426536 -0.00015859959 -3.919142e-23 0.0036660392 -1.1439645e-22 4.8809714e-42)
(0.0025930641 2.2566055e-05 2.9672916e-22 0.00251048 -1.525284e-22 4.7270619e-41)
(0.0019091783 0.00012389382 2.670148e-22 0.0017257118 -5.6850827e-23 4.5734932e-41)
(0.001364353 0.00013098142 5.5483486e-23 0.0011898382 -1.5223237e-23 3.276344e-42)
(0.00098878449 0.00011958775 -1.7298746e-23 0.00083404963 -2.7539411e-23 1.2149296e-42)
(0.00073003806 9.9160746e-05 7.0915398e-24 0.0005888091 -4.0272316e-24 2.1180775e-43)
(0.0005515825 7.5603767e-05 -1.7502656e-23 0.00041603243 -2.1051589e-23 2.1012269e-42)
(0.00042764679 5.3476535e-05 9.0784296e-24 0.00028854842 4.0444002e-24 9.1788621e-43)
(0.00034192359 3.4621191e-05 -4.3324348e-25 0.00019414441 1.8800897e-24 3.2001106e-44)
(0.00028156086 2.0853359e-05 -3.337292e-25 0.00012218157 2.452587e-24 6.6877395e-44)
(0.00024017934 1.084783e-05 5.3980022e-25 7.1153037e-05 3.7274675e-24 2.9703968e-43)
(0.00021052326 5.4175353e-06 3.1737612e-25 3.3611397e-05 -5.4194733e-24 1.3065826e-42)
(0.00019306833 1.0418636e-06 3.2093106e-26 1.2632602e-05 9.2751923e-26 5.0408058e-45)
(0.00018130689 9.7695229e-07 2.2400722e-24 9.0523652e-07 -8.6346606e-25 1.3201831e-42)
(0.0038101216 -0.0036084814 4.0938448e-23 0.0090224268 1.9151869e-24 6.3413588e-42)
(0.0024642772 -0.0032541999 -2.04531e-22 0.011536482 5.497723e-23 8.8243063e-41)
(0.0026484194 -0.0019086581 1.6493655e-21 0.010411115 1.7174605e-22 1.7961757e-39)
(0.0035534392 -0.00095268314 3.2969851e-22 0.0089302025 -1.1865568e-22 3.6830249e-41)
(0.0039832054 -0.00040730516 -1.8387375e-22 0.0069468905 -1.3144998e-22 1.2785752e-41)
(0.0038815193 -0.00023855313 -1.8525768e-23 0.0049815967 -8.3028623e-23 1.7747304e-42)
(0.0032032486 -0.00013906081 -7.247426e-23 0.0033768103 1.0340525e-23 1.758824e-42)
(0.0024641776 7.2127498e-05 -1.0620714e-22 0.0023289089 -5.8399547e-23 6.50463e-42)
(0.0017749937 0.00013333253 3.6016567e-23 0.0016005864 -7.3820689e-24 9.2274594e-43)
(0.0012645935 0.00012863962 1.2759975e-22 0.0011149452 -1.8182126e-24 1.7407769e-41)
(0.00091745295 0.00011030674 -4.0107006e-23 0.00078791079 -4.0341162e-23 4.2516931e-42)
(0.00068045425 8.6135914e-05 -1.1658457e-24 0.00056193057 8.7214791e-24 1.7559234e-43)
(0.000517887 6.175482e-05 4.4081171e-24 0.000398523 1.1529482e-23 4.0083859e-43)
(0.00040601252 4.0168104e-05 -1.388506e-25 0.00027726439 -8.6281994e-25 2.8865111e-45)
(0.00032849806 2.3865617e-05 -9.142008e-25 0.00018600123 1.7807661e-24 5.4597088e-44)
(0.00027385689 1.2534054e-05 2.7175467e-24 0.00011663547 1.6256174e-23 3.6806283e-42)
(0.00023598321 5.3163139e-06 -5.7882939e-25 6.7482844e-05 -2.4797548e-24 3.1890489e-43)
(0.00020846556 2.1321906e-06 -2.7093522e-24 3.1666172e-05 8.9647789e-24 3.6044243e-42)
(0.00019235502 -6.1172372e-07 -1.1255374e-24 1.183569e-05 1.4203468e-24 2.3336662e-43)
(0.00018128085 6.7091421e-07 -3.2459887e-24 8.3646681e-07 8.5677413e-25 1.4468171e-42)
(0.0056668112 -0.003711913 -3.015808e-24 0.0088730065 8.4200254e-23 1.6383124e-42)
(0.0030765737 -0.0038308802 -1.6963421e-22 0.01206656 2.799531e-22 1.4876159e-40)
(0.0024826709 -0.0026801149 -2.1302719e-22 0.011437118 5.6752243e-22 4.800841e-41)
(0.00304227 -0.0016053477 -4.8637258e-22 0.010394149 -2.5764966e-23 1.1499367e-40)
(0.0037281858 -0.00079638569 1.1232812e-22 0.0085841118 -2.580187e-22 1.238326e-41)
(0.0040523185 -0.00039869807 3.6858562e-22 0.0065882408 3.4502342e-23 3.726614e-41)
(0.0037845768 -0.00028153036 -7.8534942e-22 0.0046053994 6.121792e-23 1.7383836e-40)
(0.0030764112 -8.8177023e-05 -9.5356267e-22 0.003132241 1.2386732e-22 3.1892678e-40)
(0.0023127854 0.00010879001 4.6399741e-23 0.0021652075 1.0452255e-22 6.7613319e-42)
(0.001642097 0.00013743509 0 0.0014954991 0 0)
(0.0011695578 0.0001218129 3.57688e-23 0.0010506176 3.568979e-23 2.4978192e-42)
(0.00085177486 9.7832343e-05 -2.8436412e-23 0.00075057719 1.2476661e-23 2.436357e-42)
(0.00063620452 7.1201961e-05 -2.5839752e-23 0.00053808912 -2.1152972e-23 3.2530481e-42)
(0.00048964763 4.6425377e-05 1.5573527e-23 0.00038332055 7.1077552e-24 2.337182e-42)
(0.00038867893 2.7064705e-05 -2.1899167e-24 0.00026615299 -1.0315644e-23 5.0357843e-43)
(0.00031889029 1.3149636e-05 2.9131758e-24 0.00017801493 1.6787858e-23 2.5010976e-42)
(0.00026884796 5.0840975e-06 -1.0747497e-24 0.00011088657 2.2187712e-24 9.8219294e-44)
(0.00023385874 3.7900768e-07 5.5030699e-25 6.3724734e-05 -4.0947246e-24 4.9366499e-43)
(0.000207859 -5.6992468e-07 -2.4637243e-24 2.9678082e-05 5.1051107e-24 1.3943611e-42)
(0.0001925632 -1.9110872e-06 -3.953028e-25 1.1028815e-05 3.0123109e-25 9.5901667e-45)
(0.00018189011 4.6485186e-07 -3.7269172e-24 7.6949752e-07 7.5506523e-25 1.2963625e-42)
(0.0079775393 -0.0036247558 8.3999935e-23 0.0085540835 2.1096452e-22 2.2282162e-41)
(0.0042964388 -0.0042114508 -1.0663633e-22 0.012366285 2.7320544e-22 4.5353775e-41)
(0.0028909627 -0.0033791071 -1.9088823e-22 0.012238975 -4.8232922e-23 2.0386912e-40)
(0.0026632564 -0.0023312562 5.7067997e-22 0.011666372 3.3927973e-22 3.5284248e-40)
(0.0032608887 -0.0013642506 6.9008752e-22 0.010205616 -2.1172233e-23 2.0025809e-40)
(0.003890602 -0.00073268658 -5.5301852e-23 0.0083044 -1.8137341e-22 5.9426285e-42)
(0.0040579339 -0.00043828666 0 0.0062016697 0 0)
(0.0036950809 -0.00030039332 -1.8643756e-23 0.0042602004 -2.4188195e-22 1.6729377e-41)
(0.0029310727 -2.1536254e-05 2.1697154e-22 0.002915966 -9.3432618e-23 2.1225559e-41)
(0.0021515917 0.00013370385 2.7121919e-22 0.0020208102 6.2905183e-23 3.9086964e-41)
(0.0015133552 0.00013390961 -5.2434071e-24 0.001403962 3.2912027e-23 1.0101539e-42)
(0.0010811843 0.00011050001 -2.411011e-23 0.0009977251 4.411795e-24 9.6740219e-43)
(0.00079253273 8.2141854e-05 4.3974364e-24 0.00071763262 -2.0952682e-24 7.37126e-44)
(0.00059832145 5.3826899e-05 5.2846888e-24 0.00051754681 1.1756907e-23 3.8728249e-43)
(0.00046653029 3.0697623e-05 -7.62548e-24 0.00036845084 -9.9559264e-24 9.8264859e-43)
(0.00037603164 1.3621766e-05 3.5645842e-24 0.00025530778 8.7233005e-24 8.0501863e-43)
(0.00031250165 3.3579821e-06 -2.9148684e-26 0.00016967076 -2.220013e-24 4.2559787e-44)
(0.00026642564 -1.726422e-06 -1.6026279e-24 0.00010496183 1.0600221e-23 1.633661e-42)
(0.00023339248 -3.7090032e-06 -1.1982176e-24 5.9845946e-05 1.9535328e-24 7.8786456e-44)
(0.00020829987 -2.7113811e-06 -2.4541839e-25 2.7661878e-05 2.3608359e-25 2.7279887e-45)
(0.00019346574 -2.8487366e-06 -2.2501323e-24 1.0219474e-05 1.6463597e-24 4.1882815e-43)
(0.0001828747 3.5232284e-07 0 7.0497661e-07 0 0)
(0.010530343 -0.0033981974 1.1958266e-22 0.008222019 2.0848469e-22 1.712194e-41)
(0.0059582612 -0.0044333929 8.952031e-23 0.012401592 -1.3778375e-22 1.1604112e-41)
(0.0039238702 -0.0039073268 2.819566e-23 0.012806537 -1.1058648e-22 1.2115935e-42)
(0.0027695464 -0.0030266136 3.7573623e-22 0.012727881 -1.307277e-22 2.9428276e-40)
(0.0028219925 -0.0020681234 4.376582e-22 0.011684588 -3.2523348e-22 1.2048263e-40)
(0.0034926953 -0.0012426185 -3.5104357e-22 0.010051876 -6.3384477e-23 4.8551431e-41)
(0.0039815467 -0.00074146766 2.0609516e-23 0.0079817727 5.192092e-22 4.0473676e-41)
(0.0040631352 -0.00050542186 -9.1814831e-22 0.0058028794 -9.5072808e-23 2.3212227e-40)
(0.0035666186 -0.00028411413 -1.6539362e-22 0.0039375597 -7.2108453e-23 9.9976113e-42)
(0.0027734887 5.042287e-05 -4.0004284e-23 0.0027287825 6.9321889e-24 6.6417633e-43)
(0.0019850925 0.00014253665 5.7664938e-24 0.0018896308 -2.1080757e-24 2.4796223e-44)
(0.0013924386 0.0001241583 8.2801306e-23 0.0013273704 -2.099675e-23 7.9944766e-42)
(0.0010008844 9.4485206e-05 -3.8283528e-24 0.00095121715 -4.5348851e-24 4.3027219e-44)
(0.00074091561 6.2806776e-05 -1.8172845e-23 0.00068934644 3.5768259e-23 4.1250615e-42)
(0.00056680875 3.5246213e-05 8.1806516e-24 0.00049767741 2.9912144e-23 2.3343137e-42)
(0.00044920818 1.4106007e-05 5.5411141e-24 0.00035405841 2.2056936e-23 2.2246518e-42)
(0.00036736324 1.0313255e-06 9.3592982e-25 0.00024391529 -2.8568231e-24 4.821249e-44)
(0.00030941568 -5.8138951e-06 2.3314512e-24 0.00016101918 -2.303188e-23 5.1157816e-42)
(0.00026596156 -7.4299697e-06 -6.4644777e-27 9.8787161e-05 -5.5664441e-25 1.3970807e-44)
(0.00023423665 -7.0094591e-06 -2.333387e-24 5.5877645e-05 4.3541783e-24 5.242574e-43)
(0.00020954635 -4.2579618e-06 0 2.5635756e-05 0 0)
(0.00019477421 -3.4387199e-06 5.7291526e-24 9.4173599e-06 -3.4292964e-24 2.0695346e-42)
(0.00018403895 3.2703685e-07 1.459821e-25 6.4368116e-07 -1.4248264e-26 5.0197986e-46)
(0.013002174 -0.0030620518 -7.1387291e-22 0.0079012953 -2.8560757e-22 1.5394013e-40)
(0.0080017666 -0.0045553116 4.0608482e-22 0.012312734 2.0859991e-22 1.8025753e-40)
(0.0053660783 -0.0042850497 -8.0706601e-23 0.013145874 -1.214529e-22 6.5570437e-41)
(0.0035237383 -0.0036126341 2.6090382e-23 0.013562839 -3.284558e-22 3.3356001e-41)
(0.0027621386 -0.0027931276 3.7657692e-22 0.012976838 2.8126447e-22 2.9879434e-40)
(0.003037113 -0.0019231075 0 0.011710728 0 0)
(0.0036810756 -0.0012060847 -7.485734e-24 0.0098307225 1.5901912e-22 3.0232975e-42)
(0.0040821881 -0.00080708444 -3.1335706e-22 0.0076235929 -3.1049495e-22 4.6137319e-41)
(0.0040507615 -0.00057169401 -6.3373412e-22 0.0053810635 1.0324303e-23 1.0955805e-40)
(0.0034338909 -0.00021253936 -6.3782939e-22 0.0036541837 1.6971716e-22 1.3735485e-40)
(0.0025946283 0.0001039544 1.4580896e-22 0.0025561794 7.5082304e-23 1.0857403e-41)
(0.0018216627 0.00013862119 9.7199585e-23 0.0017762248 1.1801635e-23 6.4040024e-42)
(0.0012820805 0.00010816731 -6.6057845e-23 0.0012601865 -1.5379336e-23 5.2243806e-42)
(0.00092987451 7.347787e-05 2.7860562e-23 0.00091129042 3.2106402e-23 2.6337278e-42)
(0.00069735544 4.119304e-05 -2.7490795e-23 0.00066241686 -3.8591062e-23 5.5512168e-42)
(0.00054247265 1.5082686e-05 -1.2192312e-23 0.00047867935 -5.6193597e-23 9.2104365e-42)
(0.00043694059 -1.8752281e-06 7.6059375e-24 0.0003389351 1.549241e-24 1.4171567e-42)
(0.00036295885 -1.1051808e-05 5.5549365e-25 0.0002320621 -1.0932365e-23 8.1491775e-43)
(0.00030876979 -1.3620326e-05 -4.6366318e-24 0.00015191028 2.4787142e-23 7.3123891e-42)
(0.00026727514 -1.215329e-05 9.427525e-25 9.2409486e-05 -4.4367298e-24 7.2730389e-43)
(0.00023605926 -9.4104435e-06 5.8962993e-24 5.1856752e-05 -8.7053259e-24 2.465838e-42)
(0.00021126347 -5.231467e-06 -5.5782225e-24 2.362461e-05 5.1235702e-24 2.0578726e-42)
(0.00019628185 -3.6965665e-06 3.7617311e-24 8.6331175e-06 -1.9963005e-24 9.0661383e-43)
(0.00018520852 3.8100189e-07 1.2895528e-25 5.8634185e-07 -1.0239775e-26 3.1719561e-46)
(0.01522233 -0.0026750823 -3.3619998e-22 0.0075968176 -3.5684219e-22 4.9503499e-41)
(0.010230771 -0.0045848483 6.7498209e-22 0.012144161 5.0598543e-23 2.2882711e-40)
(0.0071186941 -0.0045345654 1.4603282e-22 0.013287116 -5.7620778e-22 3.3230448e-41)
(0.0047358187 -0.0040628755 1.53197e-22 0.014182387 -3.1309678e-23 4.1992831e-40)
(0.0033073596 -0.003453033 -1.7373884e-23 0.014070816 -4.0204416e-22 7.6121668e-41)
(0.0028583181 -0.0026618481 5.3025441e-22 0.013203294 3.8113802e-22 4.1712773e-40)
(0.0032659557 -0.0018595181 -2.2809132e-23 0.011651924 1.8969991e-22 3.5894607e-42)
(0.0038875524 -0.0012504819 1.1756167e-21 0.0095604654 2.4926844e-22 4.8385614e-40)
(0.0041991827 -0.00089780154 -1.3444155e-22 0.0072027968 -2.81004e-22 1.9479837e-41)
(0.0040368946 -0.00059098494 -3.1650937e-22 0.0049628475 -3.8975842e-23 2.8391116e-41)
(0.0032793655 -0.00010872795 7.9264522e-23 0.0034138816 1.4040728e-22 8.8357885e-42)
(0.0023999379 0.00013239083 -2.8462262e-22 0.0023978068 9.3003753e-24 3.9931837e-41)
(0.001668455 0.00012350826 4.2699371e-23 0.0016763377 3.6963066e-23 2.1124023e-42)
(0.0011835927 8.5667222e-05 6.1557779e-24 0.0012022668 -1.7734907e-24 6.7115523e-44)
(0.00086912044 4.8755742e-05 -6.8686356e-24 0.00087391366 -4.5259501e-23 2.7763359e-42)
(0.00066268345 1.7051359e-05 -3.9256002e-24 0.0006370592 -4.1417493e-24 1.290505e-43)
(0.00052467535 -4.9368426e-06 1.9909863e-24 0.00045885218 5.6927256e-25 5.9396095e-44)
(0.00043019675 -1.7566232e-05 -8.7865456e-26 0.00032320688 -2.105887e-23 2.211363e-42)
(0.00036174018 -2.1559092e-05 0 0.00021946154 0 0)
(0.00031057884 -2.025058e-05 1.2151358e-24 0.00014241011 -2.7040595e-24 6.5930195e-44)
(0.00026978005 -1.5630321e-05 3.7931734e-25 8.5895262e-05 -5.7986567e-25 5.2749577e-45)
(0.00023848354 -1.0950686e-05 -7.3303526e-25 4.7834027e-05 7.8466301e-25 1.8391959e-44)
(0.00021322658 -5.6489015e-06 -2.4103276e-25 2.1656567e-05 3.7463043e-26 7.517944e-45)
(0.00019779367 -3.6489523e-06 -6.290551e-24 7.877281e-06 2.7727938e-24 1.8605712e-42)
(0.00018624831 5.0691727e-07 -2.9392686e-24 5.3435103e-07 3.0617979e-25 4.6164761e-43)
(0.017141272 -0.0022961226 8.9664652e-22 0.007318054 3.032514e-22 1.4901091e-40)
(0.012444923 -0.0045190618 -5.3093999e-22 0.011913118 2.9749445e-23 9.4284547e-41)
(0.0090895652 -0.004718022 -1.6160995e-22 0.013387398 7.6996681e-23 1.756552e-41)
(0.0062660107 -0.0043930623 -2.8565786e-23 0.01456953 3.5400105e-24 5.8651666e-42)
(0.0043491563 -0.0040010563 -6.0607295e-23 0.014956615 -1.2004414e-22 3.86935e-40)
(0.0032283829 -0.0033703601 -1.2222359e-22 0.014521462 3.987861e-22 1.9510477e-41)
(0.0030322293 -0.0026116165 -4.2181174e-23 0.013339732 2.3932471e-22 4.962213e-42)
(0.0035485242 -0.0018835834 -6.2443758e-23 0.011525989 -3.2352254e-23 2.0674916e-42)
(0.0041090314 -0.0013464526 -8.9829737e-22 0.0092081252 -1.7954182e-22 2.6923203e-40)
(0.0043384693 -0.00098233259 -5.7910095e-23 0.0067277965 2.9597892e-22 1.5394896e-41)
(0.003979361 -0.00053794082 -3.3938718e-22 0.0045757547 -1.0031763e-22 3.5892321e-41)
(0.0030953636 -2.4319587e-06 5.6775028e-23 0.003213548 -7.1115887e-24 1.212016e-42)
(0.0022012587 0.00013391191 1.2284307e-22 0.0022502318 -5.9380347e-24 8.6909955e-42)
(0.0015299507 9.9361583e-05 -6.3381208e-24 0.0015900199 -1.9862818e-23 3.1821562e-43)
(0.0010983046 5.7940063e-05 1.9986909e-23 0.0011489962 -7.0139067e-24 8.9968578e-43)
(0.00081945716 2.0296099e-05 2.8485101e-24 0.00083928522 6.3857762e-23 5.7370158e-42)
(0.00063651949 -7.6691673e-06 -1.7790066e-23 0.00061098279 7.4087844e-23 1.1945847e-41)
(0.00051400512 -2.5041437e-05 2.3430044e-24 0.00043835225 3.6427831e-23 4.9635118e-42)
(0.000427735 -3.155647e-05 -5.2175112e-24 0.00030636633 4.2668512e-23 9.4739547e-42)
(0.00036388491 -3.0709569e-05 -3.7016883e-25 0.00020620984 5.7954227e-25 2.4894385e-45)
(0.00031389903 -2.521356e-05 1.3824464e-23 0.00013261937 -2.6710619e-23 8.1648971e-42)
(0.00027317606 -1.7943542e-05 1.8577696e-24 7.9318685e-05 -3.3764896e-24 3.9757955e-43)
(0.00024124265 -1.1624996e-05 -6.0892491e-24 4.3870798e-05 6.3417278e-24 1.8437696e-42)