/*--------------------------------*- C++ -*----------------------------------*\
| =========                 |                                                 |
| \\      /  F ield         | OpenFOAM: The Open Source CFD Toolbox           |
|  \\    /   O peration     | Version:  5.0                                   |
|   \\  /    A nd           | Web:      www.OpenFOAM.org                      |
|    \\/     M anipulation  |                                                 |
\*---------------------------------------------------------------------------*/
FoamFile
{
    version     2.0;
    format      ascii;
    class       volScalarField;
    location    "20";
    object      ddt0(nuTilda);
}
// * * * * * * * * * * * * * * * * * * * * * * * * * * * * * * * * * * * * * //

dimensions      [0 2 -2 0 0 0 0];

internalField   nonuniform List<scalar> 
9520
(
5.4709225e-41
8.4267048e-39
1.8789426e-40
6.2896046e-37
2.8654514e-38
6.1426973e-40
3.0224486e-35
2.1175072e-36
9.2730941e-38
1.911521e-39
1.0516057e-33
1.0074964e-34
6.7831352e-36
2.8558543e-37
5.6620429e-39
2.8258787e-32
3.4709075e-33
3.1947986e-34
2.0674022e-35
8.370121e-37
1.5964833e-38
6.1105053e-31
9.2357721e-32
1.0895902e-32
9.6370776e-34
5.9953935e-35
2.3347389e-36
4.2854856e-38
1.0939235e-29
1.9776571e-30
2.8703871e-31
3.2531299e-32
2.7654342e-33
1.6543926e-34
6.1988049e-36
1.0953553e-37
1.6556911e-28
3.506226e-29
6.0854474e-30
8.4829125e-31
9.2379786e-32
7.5497164e-33
4.3445552e-34
1.5668221e-35
2.6664497e-37
2.1530034e-27
5.2557728e-28
1.0682743e-28
1.7802993e-29
2.3840272e-30
2.4953215e-31
1.9611477e-32
1.0859805e-33
3.7712354e-35
6.1840398e-37
2.4363429e-26
6.7691095e-27
1.585652e-27
3.093917e-28
4.9520196e-29
6.3720502e-30
6.4123741e-31
4.8483188e-32
2.5845554e-33
8.6465795e-35
1.3669289e-36
2.4243928e-25
7.5871895e-26
2.0223601e-26
4.5466149e-27
8.5182992e-28
1.3097973e-28
1.6200327e-29
1.5680065e-30
1.1410318e-31
5.8585266e-33
1.8892398e-34
2.8811957e-36
2.1400725e-24
7.4787502e-25
2.2448697e-25
5.7414577e-26
1.2391346e-26
2.229784e-27
3.2948797e-28
3.918719e-29
3.6496054e-30
2.5573468e-31
1.2653916e-32
3.9358921e-34
5.7945867e-36
1.6882803e-23
6.5398251e-24
2.1915464e-24
6.3105508e-25
1.5490639e-25
3.2103328e-26
5.5504282e-27
7.8848544e-28
9.0215526e-29
8.0887426e-30
5.4610202e-31
2.6057896e-32
7.8234652e-34
1.1128255e-35
1.1979797e-22
5.1112025e-23
1.8981398e-23
6.1005465e-24
1.6856288e-24
3.9724228e-25
7.9082122e-26
1.3141812e-26
1.7956299e-27
1.9774825e-28
1.7079412e-29
1.1117531e-30
5.1196068e-32
1.4849362e-33
2.0426487e-35
7.689689e-22
3.5933493e-22
1.469453e-22
5.2326088e-23
1.6133989e-23
4.2789302e-24
9.6846456e-25
1.8527699e-25
2.9608041e-26
3.8931116e-27
4.1292589e-28
3.4379177e-29
2.1593274e-30
9.6049121e-32
2.694037e-33
3.5877146e-35
4.487751e-21
2.285403e-21
1.0233727e-21
4.0118887e-22
1.3702534e-22
4.0544755e-23
1.0325199e-23
2.2453291e-24
4.1300113e-25
6.3502258e-26
8.0405017e-27
8.2196017e-28
6.6023083e-29
4.0050317e-30
1.7225619e-31
4.6775252e-33
6.0380444e-35
2.3922654e-20
1.3216618e-20
6.4481069e-21
2.7673378e-21
1.0403348e-21
3.4091516e-22
9.6842844e-23
2.3691133e-23
4.9525401e-24
8.7635442e-25
1.2973588e-25
1.5830174e-26
1.5610598e-27
1.2108842e-28
7.1017917e-30
2.9569657e-31
7.7836385e-33
9.7529779e-35
1.1697567e-19
6.9819266e-20
3.6945283e-20
1.7271485e-20
7.1065863e-21
2.5627392e-21
8.060902e-22
2.1992962e-22
5.1712338e-23
1.0398097e-23
1.7712987e-24
2.5266951e-25
2.9737253e-26
2.8316247e-27
2.1234724e-28
1.2056087e-29
4.866146e-31
1.2435232e-32
1.5148192e-34
5.2674276e-19
3.3835411e-19
1.933837e-19
9.803033e-20
4.3927613e-20
1.7334549e-20
5.9990344e-21
1.8120335e-21
4.7510975e-22
1.0743969e-22
2.079515e-23
3.4130267e-24
4.6955983e-25
5.3360018e-26
4.9120722e-27
3.5658821e-28
1.9626312e-29
7.6909899e-31
1.9111252e-32
2.2671701e-34
2.1925273e-18
1.510172e-18
9.2866342e-19
5.0834916e-19
2.4695234e-19
1.0610714e-19
4.0175855e-20
1.3349595e-20
3.8745353e-21
9.7691274e-22
2.1262922e-22
3.9648638e-23
6.275891e-24
8.336675e-25
9.1586628e-26
8.1617413e-27
5.7440708e-28
3.0696789e-29
1.1698527e-30
2.831608e-32
3.277093e-34
8.4660728e-18
6.231083e-18
4.1076868e-18
2.4186821e-18
1.2685163e-18
5.9076194e-19
2.4350587e-19
8.8510435e-20
2.825569e-20
7.8853097e-21
1.9134485e-21
4.0120748e-22
7.2149613e-23
1.1026798e-23
1.4161049e-24
1.5061267e-25
1.3013153e-26
8.893368e-28
4.6226481e-29
1.7163103e-30
4.0539168e-32
4.5852846e-34
3.0440505e-17
2.3852712e-17
1.679802e-17
1.0600753e-17
5.9790566e-18
3.0055514e-18
1.3425417e-18
5.311537e-19
1.8546346e-19
5.6923057e-20
1.5287425e-20
3.573572e-21
7.2262777e-22
1.2547639e-22
1.8541032e-23
2.3053967e-24
2.3775535e-25
1.9950464e-26
1.3263214e-27
6.7174658e-29
2.4342253e-30
5.6206308e-32
6.2237421e-34
1.0223324e-16
8.5032211e-17
6.3738502e-17
4.2959428e-17
2.5962678e-17
1.4032325e-17
6.7643597e-18
2.8997463e-18
1.1019254e-18
3.6988738e-19
1.0924703e-19
2.8262984e-20
6.3716987e-21
1.2441555e-21
2.0889061e-22
2.9888796e-23
3.6041182e-24
3.6103507e-25
2.9474678e-26
1.9095868e-27
9.440726e-29
3.3447504e-30
7.5622145e-32
8.210289e-34
3.2195864e-16
2.8317229e-16
2.2524636e-16
1.6154944e-16
1.0424985e-16
6.0360453e-17
3.1279552e-17
1.4468343e-17
5.9566525e-18
2.1758972e-18
7.0282494e-19
1.9996225e-19
4.9893291e-20
1.0862279e-20
2.0511083e-21
3.3351387e-22
4.6286389e-23
5.4222777e-24
5.2853964e-25
4.2056348e-26
2.6599872e-27
1.2858325e-28
4.4609903e-30
9.8903197e-32
1.0542465e-33
9.5336148e-16
8.843398e-16
7.4367336e-16
5.6586205e-16
3.8847554e-16
2.4012291e-16
1.3327484e-16
6.6260423e-17
2.9431527e-17
1.1646853e-17
4.093766e-18
1.2737833e-18
3.4954675e-19
8.4233085e-20
1.7736579e-20
3.2440816e-21
5.1173735e-22
6.9008581e-23
7.8677039e-24
7.4757503e-25
5.8077138e-26
3.5917907e-27
1.7002224e-28
5.7841189e-30
1.2590836e-31
1.3191963e-33
2.6664237e-15
2.5971431e-15
2.3027442e-15
1.85192e-15
1.3485347e-15
8.8656159e-16
5.2522502e-16
2.7962826e-16
1.3348792e-16
5.6988177e-17
2.1699441e-17
7.3474421e-18
2.205184e-18
5.8450076e-19
1.3625036e-19
2.7794551e-20
4.9328604e-21
7.5623101e-22
9.9265733e-23
1.1033381e-23
1.0236276e-24
7.7759825e-26
4.709053e-27
2.1856428e-28
7.2997964e-30
1.5618799e-31
1.6102318e-33
7.0675658e-15
7.2040756e-15
6.706142e-15
5.6848862e-15
4.3741364e-15
3.0496574e-15
1.9211715e-15
1.0916126e-15
5.5796012e-16
2.559896e-16
1.0515495e-16
3.8572497e-17
1.2598948e-17
3.6527824e-18
9.3672007e-19
2.11584e-19
4.1890359e-20
7.2267081e-21
1.0785938e-21
1.3804394e-22
1.4982228e-23
1.3591496e-24
1.0109345e-25
6.0021257e-27
2.734625e-28
8.976467e-30
1.8898897e-31
1.9193498e-33
1.7679984e-14
1.8945943e-14
1.8445813e-14
1.6414456e-14
1.3309891e-14
9.8025106e-15
6.5480171e-15
3.9555879e-15
2.1576072e-15
1.0598319e-15
4.6786053e-16
1.8515166e-16
6.5520484e-17
2.0676061e-17
5.8006311e-18
1.4416809e-18
3.1611562e-19
6.0848922e-20
1.0221473e-20
1.4876236e-21
1.8591773e-22
1.9729951e-23
1.7523609e-24
1.2777093e-25
7.4457451e-27
3.3337759e-28
1.07678e-29
2.2335496e-31
2.2375939e-33
4.4615803e-14
4.6995588e-14
4.8125155e-14
4.476458e-14
3.8096211e-14
2.9563342e-14
2.0854666e-14
1.3357521e-14
7.7452521e-15
4.0597689e-15
1.9188015e-15
8.160723e-16
3.1158801e-16
1.0654058e-16
3.2538358e-17
8.8490843e-18
2.1354551e-18
4.553351e-19
8.5357858e-20
1.398338e-20
1.9873623e-21
2.4285054e-22
2.5229993e-23
2.1964569e-24
1.5717549e-25
9.0006991e-27
3.9655374e-28
1.2621025e-29
2.5833631e-31
2.557334e-33
3.2067461e-13
1.1750065e-13
1.1834812e-13
1.1584531e-13
1.0299567e-13
8.3867208e-14
6.2331071e-14
4.2149986e-14
2.5912505e-14
1.4438053e-14
7.2816503e-15
3.3159651e-15
1.3607585e-15
5.0207769e-16
1.6617354e-16
4.9206487e-17
1.2996199e-17
3.0504131e-18
6.335408e-19
1.1583517e-19
1.8531622e-20
2.5751724e-21
3.0804767e-22
3.1367249e-23
2.6799105e-24
1.8845681e-25
1.0620856e-26
4.6121206e-28
1.449081e-29
2.9327605e-31
2.8748679e-33
3.6288609e-12
7.9345902e-13
2.9313696e-13
2.8238707e-13
2.6433837e-13
2.2475454e-13
1.7523351e-13
1.248352e-13
8.1013425e-14
4.7857905e-14
2.5658411e-14
1.2468433e-14
5.4791644e-15
2.173025e-15
7.7620157e-16
2.4912858e-16
7.1658015e-17
1.8411687e-17
4.2099699e-18
8.5289377e-19
1.5229653e-19
2.3823021e-20
3.2406767e-21
3.7995169e-22
3.7970605e-23
3.1884677e-24
2.2072179e-25
1.226554e-26
5.2610121e-28
1.6355421e-29
3.2808573e-31
3.1924473e-33
2.6448795e-11
8.7113463e-12
1.8593793e-12
6.9281852e-13
6.3861887e-13
5.7197292e-13
4.6543327e-13
3.4776753e-13
2.3773878e-13
1.4825447e-13
8.4272669e-14
4.3538561e-14
2.0417492e-14
8.6723584e-15
3.330096e-15
1.153707e-15
3.5975685e-16
1.0068542e-16
2.5206131e-17
5.6226447e-18
1.1125525e-18
1.9425584e-19
2.9747608e-20
3.966539e-21
4.5649587e-22
4.4850449e-23
3.7089842e-24
2.5331627e-25
1.3914377e-26
5.9104239e-28
1.8229441e-29
3.6340314e-31
3.518865e-33
1.3786474e-10
6.2529519e-11
1.9760006e-11
4.1261374e-12
1.5516596e-12
1.3693721e-12
1.17432e-12
9.1535304e-13
6.5627327e-13
4.3106897e-13
2.5870929e-13
1.4171241e-13
7.0665572e-14
3.2032836e-14
1.3174987e-14
4.9074461e-15
1.6520954e-15
5.0135311e-16
1.3673483e-16
3.3398165e-17
7.2772811e-18
1.4081772e-18
2.407379e-19
3.6143673e-20
4.7321279e-21
5.3565029e-22
5.1858649e-23
4.2342933e-24
2.861147e-25
1.5579447e-26
6.5725016e-28
2.0167524e-29
4.0055553e-31
3.8682425e-33
5.4463275e-10
3.2291233e-10
1.3957499e-10
4.2346177e-11
8.6784557e-12
3.2940938e-12
2.7858042e-12
2.2894807e-12
1.7115198e-12
1.1792116e-12
7.4538371e-13
4.3120772e-13
2.2797931e-13
1.0990568e-13
4.8244833e-14
1.9250538e-14
6.9687625e-15
2.2835195e-15
6.7539832e-16
1.7974647e-16
4.2892609e-17
9.1415059e-18
1.732395e-18
2.9046325e-19
4.2839538e-20
5.5199355e-21
6.1617413e-22
5.8954404e-23
4.7674317e-24
3.1970406e-25
1.7309318e-26
7.2727241e-28
2.2256774e-29
4.4132906e-31
4.2573961e-33
1.6846525e-09
1.2693138e-09
7.1382557e-10
2.9413678e-10
8.5771446e-11
1.7304948e-11
6.6323624e-12
5.3812732e-12
4.2436035e-12
3.0468403e-12
2.0209302e-12
1.2312639e-12
6.8771306e-13
3.5150523e-13
1.6411734e-13
6.9894939e-14
2.7108493e-14
9.5534591e-15
3.0515871e-15
8.8087922e-16
2.2907718e-16
5.3482298e-17
1.1167215e-17
2.0765564e-18
3.4224014e-19
4.9715963e-20
6.3232956e-21
6.9832398e-22
6.6250441e-23
5.3233744e-24
3.5536976e-25
1.9182504e-26
8.0454442e-28
2.460024e-29
4.876275e-31
4.7027517e-33
4.1690598e-09
3.9153169e-09
2.7921176e-09
1.4892668e-09
5.8538202e-10
1.6422392e-10
3.2744862e-11
1.2674374e-11
9.8820425e-12
7.4888002e-12
5.1733822e-12
3.3095174e-12
1.9464737e-12
1.0513365e-12
5.2040574e-13
2.3576047e-13
9.7604212e-14
3.6858846e-14
1.2664552e-14
3.9488384e-15
1.1141264e-15
2.8357145e-16
6.4894229e-17
1.3304335e-17
2.4338392e-18
3.9547503e-19
5.677175e-20
7.1524626e-21
7.8421643e-22
7.4017155e-23
5.9272459e-24
3.9487375e-25
2.1292385e-26
8.9272267e-28
2.7297634e-29
5.4114409e-31
5.2178439e-33
8.4122951e-09
9.6687682e-09
8.5924003e-09
5.796967e-09
2.9332652e-09
1.1004833e-09
2.9738909e-10
5.8864187e-11
2.3016499e-11
1.7278285e-11
1.2605568e-11
8.394756e-12
5.1880129e-12
2.950007e-12
1.5434402e-12
7.4125521e-13
3.2647952e-13
1.3162347e-13
4.8470888e-14
1.6260671e-14
4.9570576e-15
1.3694628e-15
3.4187538e-16
7.6881159e-17
1.5521885e-17
2.8027992e-18
4.5063693e-19
6.4164593e-20
8.0362322e-21
8.7764355e-22
8.2638813e-23
6.6095346e-24
4.4010591e-25
2.3729402e-26
9.9503905e-28
3.0429837e-29
6.0314262e-31
5.8119246e-33
1.3752465e-08
1.9462849e-08
2.1187259e-08
1.7805937e-08
1.1362737e-08
5.4560285e-09
1.9553773e-09
5.0976812e-10
1.0088258e-10
3.9785555e-11
2.8819294e-11
2.0279313e-11
1.3042933e-11
7.7979494e-12
4.29383e-12
2.1800572e-12
1.0178773e-12
4.3666101e-13
1.7170787e-13
6.1752596e-14
2.0261779e-14
6.0514905e-15
1.6410165e-15
4.029646e-16
8.9345594e-17
1.7829134e-17
3.1900987e-18
5.0945693e-19
7.220656e-20
9.0178816e-21
9.8337765e-22
9.2537647e-23
7.4001164e-24
4.9273829e-25
2.6566351e-26
1.1138617e-27
3.405017e-29
6.743565e-31
6.4894627e-33
1.4899195e-08
3.1808051e-08
4.2568643e-08
4.3871296e-08
3.485218e-08
2.1035503e-08
9.5913329e-09
3.2869222e-09
8.2885906e-10
1.6573375e-10
6.5601904e-11
4.5953252e-11
3.1241979e-11
1.9435155e-11
1.1257097e-11
6.0132146e-12
2.9686458e-12
1.3501842e-12
5.6510145e-13
2.1707971e-13
7.6388938e-14
2.4571604e-14
7.2099563e-15
1.9253818e-15
4.6678217e-16
1.0244799e-16
2.0288648e-17
3.6109884e-18
5.7474969e-19
8.1311374e-20
1.0146792e-20
1.1062254e-21
1.0409365e-22
8.3230886e-24
5.5397491e-25
2.9849629e-26
1.2504643e-27
3.8180207e-29
7.549393e-31
7.2497784e-33
3.4589098e-08
1.4899607e-08
6.9556804e-08
8.8031905e-08
8.5862959e-08
6.4460651e-08
3.6810252e-08
1.5954687e-08
5.2360416e-09
1.2834853e-09
2.6311411e-10
1.0342581e-10
7.0193962e-11
4.6163295e-11
2.781838e-11
1.5634363e-11
8.1188868e-12
3.9054859e-12
1.7334297e-12
7.0899738e-13
2.6661891e-13
9.2044443e-14
2.9117946e-14
8.4246368e-15
2.2245001e-15
5.3471147e-16
1.1665452e-16
2.301353e-17
4.087152e-18
6.4989577e-19
9.1912807e-20
1.1468795e-20
1.2501469e-21
1.1758186e-22
9.3932723e-24
6.2440476e-25
3.359381e-26
1.4048522e-27
4.2805131e-29
8.4436995e-31
8.0860979e-33
7.5864997e-08
3.4589942e-08
1.3754068e-08
1.438526e-07
1.7218695e-07
1.5891083e-07
1.1275112e-07
6.0966127e-08
2.5158282e-08
7.9301163e-09
1.9058257e-09
3.9913054e-10
1.5624564e-10
1.0288283e-10
6.5526648e-11
3.8309638e-11
2.0932385e-11
1.0592303e-11
4.9744504e-12
2.1584901e-12
8.647195e-13
3.1927578e-13
1.0852259e-13
3.3899238e-14
9.7136698e-15
2.5474339e-15
6.0968195e-16
1.3268992e-16
2.6149003e-17
4.6425521e-18
7.3817361e-19
1.0438109e-19
1.3017903e-20
1.4175945e-21
1.3312833e-22
1.0613739e-23
7.038689e-25
3.7774846e-26
1.5754718e-27
4.7864573e-29
9.4126183e-31
8.9838862e-33
1.5724634e-07
7.5866568e-08
3.181172e-08
8.4131164e-09
2.8148912e-07
3.1870534e-07
2.7834178e-07
1.8675719e-07
9.5752055e-08
3.7719731e-08
1.1486073e-08
2.7521049e-09
5.809893e-10
2.2651175e-10
1.4489871e-10
8.9480038e-11
5.0860852e-11
2.7083207e-11
1.3384747e-11
6.1485109e-12
2.6145856e-12
1.0293006e-12
3.7463835e-13
1.259301e-13
3.9025808e-14
1.1126562e-14
2.9101749e-15
6.9577535e-16
1.5141067e-16
2.984404e-17
5.2986956e-18
8.4212487e-19
1.1895352e-19
1.4809854e-20
1.6089719e-21
1.5066891e-22
1.197273e-23
7.9125894e-25
4.2318822e-26
1.7587555e-27
5.3239768e-29
1.0431251e-30
9.9190916e-33
3.0811952e-07
1.572492e-07
6.9564692e-08
1.9464682e-08
4.1693466e-09
5.2147499e-07
5.5866912e-07
4.6199262e-07
2.9351057e-07
1.4305469e-07
5.4066791e-08
1.60691e-08
3.9145613e-09
8.134008e-10
3.1550165e-10
1.9636718e-10
1.1776768e-10
6.5265972e-11
3.395325e-11
1.6422752e-11
7.3979756e-12
3.0941433e-12
1.2022949e-12
4.334547e-13
1.4480736e-13
4.4732453e-14
1.2740553e-14
3.3331723e-15
7.9748175e-16
1.7363526e-16
3.4221525e-17
6.0702665e-18
9.6301182e-19
1.3567379e-19
1.6835688e-20
1.8220138e-21
1.6989236e-22
1.3439338e-23
8.8424332e-25
4.7088689e-26
1.9486682e-27
5.8743439e-29
1.1462357e-30
1.0856971e-32
5.7105092e-07
3.0812408e-07
1.4386866e-07
4.25724e-08
9.6693815e-09
1.6847181e-09
9.1539622e-07
9.2856142e-07
7.2804507e-07
4.3899768e-07
2.0438441e-07
7.4764005e-08
2.2007616e-08
5.3349467e-09
1.0961988e-09
4.2278448e-10
2.5653824e-10
1.4981067e-10
8.1182483e-11
4.1357843e-11
1.9630634e-11
8.7051857e-12
3.5984404e-12
1.387286e-12
4.9799918e-13
1.6614234e-13
5.1353362e-14
1.4647569e-14
3.8374969e-15
9.1879194e-16
1.9997298e-16
3.935029e-17
6.9610949e-18
1.1002754e-18
1.5432298e-19
1.9053969e-20
2.0509899e-21
1.9017454e-22
1.495925e-23
9.7905212e-25
5.1877004e-26
2.1365863e-27
6.4121132e-29
1.2458058e-30
1.1752644e-32
1.0016935e-06
5.7105598e-07
2.8152022e-07
8.803916e-08
2.1188426e-08
3.9154426e-09
5.4463033e-10
1.5244629e-06
1.4659547e-06
1.0924622e-06
6.2784626e-07
2.8155823e-07
1.0094799e-07
2.9822157e-08
6.9985404e-09
1.4237295e-09
5.4614945e-10
3.2399771e-10
1.8482426e-10
9.818466e-11
4.9114861e-11
2.2971371e-11
1.0080939e-11
4.1415685e-12
1.5927586e-12
5.7201182e-13
1.9124152e-13
5.9261679e-14
1.6936491e-14
4.4404235e-15
1.0622864e-15
2.3065518e-16
4.5216875e-17
7.9597353e-18
1.2508994e-18
1.7434163e-19
2.1382538e-20
2.2860363e-21
2.1053986e-22
1.6453824e-23
1.0705316e-24
5.6414832e-26
2.3118329e-27
6.9070169e-29
1.3365175e-30
1.2555163e-32
1.6644802e-06
1.0016926e-06
5.2153094e-07
1.7220035e-07
4.387343e-08
8.5925923e-09
1.2692973e-09
1.3785608e-10
2.4126566e-06
2.2038658e-06
1.5676122e-06
8.6486428e-07
3.7810313e-07
1.3418709e-07
3.8950273e-08
8.8615299e-09
1.7864496e-09
6.8234828e-10
3.9701645e-10
2.2186964e-10
1.1587504e-10
5.7153633e-11
2.6491384e-11
1.1573825e-11
4.7520458e-12
1.83156e-12
6.6013571e-13
2.2147867e-13
6.8795103e-14
1.9673348e-14
5.1508896e-15
1.2281787e-15
2.6535338e-16
5.1693865e-17
9.0346211e-18
1.4088096e-18
1.9477104e-19
2.3695068e-20
2.5132073e-21
2.2970364e-22
1.7825946e-23
1.1526494e-24
6.0403313e-26
2.4630225e-27
7.3277385e-29
1.4130786e-30
1.3176629e-32
2.6230422e-06
1.6644611e-06
9.1548922e-07
3.1872792e-07
8.5867126e-08
1.7806252e-08
2.7920506e-09
3.2288864e-10
2.6444945e-11
3.6371609e-06
3.1665536e-06
2.1645686e-06
1.1583503e-06
4.9954228e-07
1.7588689e-07
4.9218968e-08
1.0861669e-08
2.1753024e-09
8.2792832e-10
4.7370235e-10
2.601318e-10
1.3413037e-10
6.5633429e-11
3.0340209e-11
1.3271138e-11
5.4701558e-12
2.1187579e-12
7.6697013e-13
2.5800855e-13
8.0173442e-14
2.2880123e-14
5.9644735e-15
1.4132681e-15
3.0298592e-16
5.8510337e-17
1.0130784e-17
1.5646845e-18
2.1427464e-19
2.5829194e-20
2.7158463e-21
2.4623265e-22
1.8974154e-23
1.2194671e-24
6.3565799e-26
2.5800964e-27
7.6471982e-29
1.4663492e-30
1.3613006e-32
3.9265102e-06
2.6229773e-06
1.5245987e-06
5.5870174e-07
1.5891754e-07
3.4852681e-08
5.7968076e-09
7.1376438e-10
6.2519546e-11
3.6278908e-12
5.2395625e-06
4.3711334e-06
2.8995577e-06
1.5222688e-06
6.509679e-07
2.2330249e-07
6.0445955e-08
1.2959358e-08
2.5840721e-09
9.7936773e-10
5.5234566e-10
2.993753e-10
1.5339563e-10
7.4975647e-11
3.4762808e-11
1.5288761e-11
6.3407091e-12
2.4683861e-12
8.9605832e-13
3.0144827e-13
9.340658e-14
2.65108e-14
6.8581096e-15
1.6099552e-15
3.4158295e-16
6.5243588e-17
1.1171597e-17
1.7066928e-18
2.3129464e-19
2.761047e-20
2.8774342e-21
2.5881591e-22
1.9812849e-23
1.2663726e-24
6.5706505e-26
2.6566559e-27
7.8490348e-29
1.4958323e-30
1.3853349e-32
5.5965228e-06
3.926321e-06
2.4128227e-06
9.2859283e-07
2.7835092e-07
6.446103e-08
1.1362431e-08
1.4891355e-09
1.3955068e-10
8.7088525e-12
3.205414e-13
7.2442755e-06
5.8369545e-06
3.7995813e-06
1.9741562e-06
8.3024721e-07
2.765473e-07
7.2524356e-08
1.5155158e-08
3.0024299e-09
1.1334134e-09
6.3265934e-10
3.4078884e-10
1.7475654e-10
8.581513e-11
4.0066528e-11
1.7749534e-11
7.4028599e-12
2.8901252e-12
1.0487398e-12
3.5150817e-13
1.0819209e-13
3.0428509e-14
7.7861466e-15
1.8058974e-15
3.7834923e-16
7.1356019e-17
1.2068758e-17
1.8224467e-18
2.4435196e-19
2.8889659e-20
2.9853792e-21
2.6657707e-22
2.0292777e-23
1.2911865e-24
6.6757145e-26
2.6921711e-27
7.907217e-29
1.5032484e-30
1.3906604e-32
7.6242451e-06
5.5960379e-06
3.637284e-06
1.4659351e-06
4.6199838e-07
1.1275022e-07
2.1034791e-08
2.9330217e-09
2.9408539e-10
1.9754009e-11
7.9311187e-13
4.4604823e-14
9.6696155e-06
7.6050831e-06
4.9077484e-06
2.5164712e-06
1.037604e-06
3.3560934e-07
8.5464001e-08
1.7442551e-08
3.4163024e-09
1.289823e-09
7.1734469e-10
3.8699572e-10
1.9975985e-10
9.8909605e-11
4.6563033e-11
2.075349e-11
8.6798593e-12
3.385445e-12
1.2227898e-12
4.0660361e-13
1.2383289e-13
3.4394569e-14
8.6812265e-15
1.9850777e-15
4.1004778e-16
7.6290353e-17
1.2740776e-17
1.9019122e-18
2.5242368e-19
2.9582905e-20
3.0345415e-21
2.6933552e-22
2.0416214e-23
1.2948424e-24
6.6793054e-26
2.6847124e-27
7.8551773e-29
1.491763e-30
1.3801013e-32
9.9858437e-06
7.6231595e-06
5.2394247e-06
2.2036476e-06
7.2802595e-07
1.8674993e-07
3.6808567e-08
5.455557e-09
5.8528672e-10
4.2333465e-11
1.8585329e-12
1.1746957e-13
1.767545e-14
1.2554974e-05
9.729714e-06
6.2347567e-06
3.1567461e-06
1.2756085e-06
4.0119791e-07
9.939215e-08
1.9750762e-08
3.8201314e-09
1.454635e-09
8.1220035e-10
4.4143884e-10
2.3014759e-10
1.149966e-10
5.4487018e-11
2.4347564e-11
1.0166805e-11
3.9430253e-12
1.4111345e-12
4.6362425e-13
1.392312e-13
3.8086478e-14
9.4634363e-15
2.1307379e-15
4.337144e-16
7.9609753e-17
1.3135547e-17
1.9404127e-18
2.5526837e-19
2.9701048e-20
3.0293407e-21
2.6771294e-22
2.0239812e-23
1.2813017e-24
6.6024584e-26
2.6419695e-27
7.7218862e-29
1.4665231e-30
1.9272329e-34
1.2646158e-05
9.9836815e-06
7.2432532e-06
3.1659484e-06
1.0923437e-06
2.9348251e-07
6.0961394e-08
9.5904431e-09
1.1003082e-09
8.5747478e-11
4.1243116e-12
2.9305439e-13
4.698266e-14
7.0656808e-15
1.6017183e-05
1.2220253e-05
7.8148027e-06
3.9121747e-06
1.5477574e-06
4.7440181e-07
1.1419368e-07
2.2030352e-08
4.2315804e-09
1.6402033e-09
9.2470873e-10
5.0791865e-10
2.6752789e-10
1.3457684e-10
6.3909011e-11
2.8489619e-11
1.181685e-11
4.5351708e-12
1.6014715e-12
5.1809811e-13
1.5302688e-13
4.1156517e-14
1.0058407e-14
2.2297807e-15
4.4752821e-16
8.1138896e-17
1.3248918e-17
1.9405271e-18
2.535744e-19
2.9355121e-20
2.9832615e-21
2.6302793e-22
1.9863744e-23
1.2567934e-24
6.4575507e-26
2.5808601e-27
7.5428774e-29
2.2478268e-32
1.3891805e-36
1.559574e-05
1.2642059e-05
9.6674174e-06
4.3700503e-06
1.5672763e-06
4.389071e-07
9.5739222e-08
1.5952652e-08
1.9550557e-09
1.641801e-10
8.6749422e-12
6.9261312e-13
1.1831352e-13
1.894054e-14
2.6656906e-15
2.0198897e-05
1.5163211e-05
9.6847627e-06
4.8033121e-06
1.8576903e-06
5.5496272e-07
1.2961806e-07
2.4374493e-08
4.6922398e-09
1.8618825e-09
1.0626328e-09
5.8982625e-10
3.1285867e-10
1.5767822e-10
7.4638553e-11
3.3011943e-11
1.3533491e-11
5.118427e-12
1.7775921e-12
5.6496234e-13
1.6390303e-13
4.3324982e-14
1.0419974e-14
2.277221e-15
4.5151024e-16
8.1047256e-17
1.3130679e-17
1.9120298e-18
2.488383e-19
2.8732518e-20
2.9158178e-21
2.5700059e-22
1.9409624e-23
1.228701e-24
6.2937463e-26
2.5149394e-27
1.2664551e-30
1.8108804e-34
4.5275164e-39
1.8845022e-05
1.5589246e-05
1.2549251e-05
5.8352726e-06
2.1641345e-06
6.2765467e-07
1.4302062e-07
2.5153612e-08
3.2862421e-09
2.9731033e-10
1.7298487e-11
1.55118e-12
2.8230033e-13
4.8110615e-14
7.2019633e-15
9.5309309e-16
2.5324597e-05
1.8633395e-05
1.184965e-05
5.838297e-06
2.2038419e-06
6.4145932e-07
1.4601424e-07
2.7052232e-08
5.2586426e-09
2.1350393e-09
1.2325004e-09
6.8878905e-10
3.6585825e-10
1.8362176e-10
8.6148336e-11
3.7612084e-11
1.5179051e-11
5.6404073e-12
1.9228731e-12
5.9991032e-13
1.7099437e-13
4.4478193e-14
1.0548656e-14
2.2787449e-15
4.4771285e-16
7.982787e-17
1.2874139e-17
1.8695353e-18
2.4299143e-19
2.8050425e-20
2.8477713e-21
2.5134548e-22
1.8993113e-23
1.1999483e-24
6.1446823e-26
4.6098177e-29
1.1389555e-32
6.6996663e-37
5.5025687e-42
2.2401384e-05
1.8835831e-05
1.6006599e-05
7.6040517e-06
2.8987859e-06
8.6461531e-07
2.0431541e-07
3.7708671e-08
5.2346211e-09
5.0961684e-10
3.2733354e-11
3.2930395e-12
6.3841478e-13
1.1580862e-13
1.8440097e-14
2.5963653e-15
3.2186697e-16
3.1408244e-05
2.2741347e-05
1.4338165e-05
7.0105973e-06
2.5786026e-06
7.3469605e-07
1.6472078e-07
3.0458676e-08
5.9990383e-09
2.4716333e-09
1.4366874e-09
8.0324026e-10
4.2449599e-10
2.1088681e-10
9.7580311e-11
4.1897086e-11
1.6602344e-11
6.0531838e-12
2.0253888e-12
6.2092289e-13
1.7424028e-13
4.4727427e-14
1.0496603e-14
2.2498662e-15
4.3973083e-16
7.8167608e-17
1.2590793e-17
1.8285482e-18
2.3789112e-19
2.7500609e-20
2.7961459e-21
2.4735587e-22
1.8702704e-23
1.1782356e-24
1.223904e-27
4.6165399e-31
4.7841129e-35
9.2945272e-40
2.4215644e-45
2.6253057e-05
2.2389477e-05
2.0178738e-05
9.7226879e-06
3.7976845e-06
1.157973e-06
2.8146989e-07
5.4045425e-08
7.9271288e-09
8.2858623e-10
5.8843354e-11
6.6301789e-12
1.3689203e-12
2.6425154e-13
4.4750076e-14
6.7040244e-15
8.8407241e-16
1.0220405e-16
3.8485595e-05
2.7577269e-05
1.7181687e-05
8.2881924e-06
2.9792855e-06
8.3948654e-07
1.8799769e-07
3.5104363e-08
6.9825339e-09
2.8736323e-09
1.6702316e-09
9.2756147e-10
4.8483357e-10
2.3727339e-10
1.0791695e-10
4.5477808e-11
1.768317e-11
6.3301755e-12
2.0828237e-12
6.2929185e-13
1.7449999e-13
4.4392631e-14
1.0354215e-14
2.2115013e-15
4.3163597e-16
7.6747176e-17
1.2378572e-17
1.8012341e-18
2.3484164e-19
2.7203532e-20
2.7705024e-21
2.4560712e-22
1.8514266e-23
2.5375051e-26
1.3600997e-29
2.1993866e-33
7.6047597e-38
4.5187462e-43
5.0918841e-49
3.0380923e-05
2.6239474e-05
2.5289248e-05
1.2207706e-05
4.9043909e-06
1.5214402e-06
3.7797786e-07
7.47372e-08
1.1480503e-08
1.2829079e-09
1.008465e-10
1.2670119e-11
2.7848633e-12
5.7177976e-13
1.0296113e-13
1.6409046e-14
2.3020113e-15
2.8308652e-16
3.0431852e-17
4.6800179e-05
3.3199104e-05
2.029085e-05
9.6422418e-06
3.4179732e-06
9.6508209e-07
2.1897517e-07
4.1581884e-08
8.249356e-09
3.326739e-09
1.9195224e-09
1.052378e-09
5.4166017e-10
2.6042129e-10
1.1626936e-10
4.809912e-11
1.8381362e-11
6.4794606e-12
2.1045931e-12
6.2950374e-13
1.7332398e-13
4.390483e-14
1.0221565e-14
2.1833583e-15
4.2673763e-16
7.6040494e-17
1.2294783e-17
1.7933282e-18
2.3429809e-19
2.7184749e-20
2.7714917e-21
2.4529818e-22
4.2929696e-25
3.1161452e-28
7.333969e-32
4.0165174e-36
4.1224707e-41
9.9927266e-47
6.5281728e-53
3.4762927e-05
3.0369434e-05
3.1347039e-05
1.5142893e-05
6.2287656e-06
1.9725782e-06
4.9927921e-07
1.0091149e-07
1.6061787e-08
1.9047117e-09
1.6565965e-10
2.3008696e-11
5.379434e-12
1.1739164e-12
2.2467727e-13
3.8083244e-14
5.683001e-15
7.4343653e-16
8.500659e-17
8.4636894e-18
5.6424982e-05
3.9420601e-05
2.3555576e-05
1.1075033e-05
3.9242269e-06
1.125421e-06
2.6152827e-07
5.0366074e-08
9.7862769e-09
3.7994728e-09
2.1640524e-09
1.166557e-09
5.8997073e-10
2.7852991e-10
1.2221508e-10
4.9765369e-11
1.8766137e-11
6.5450581e-12
2.1094087e-12
6.2780631e-13
1.7242951e-13
4.3659354e-14
1.0175047e-14
2.1776163e-15
4.2658865e-16
7.6186194e-17
1.2342752e-17
1.8031228e-18
2.3583024e-19
2.7379073e-20
2.7924639e-21
6.1076271e-24
5.80179e-27
1.896202e-30
1.54078e-34
2.4498618e-39
9.6424575e-45
1.3119604e-50
5.8726698e-57
3.9543043e-05
3.4759935e-05
3.8393969e-05
1.8602388e-05
7.8042366e-06
2.5138254e-06
6.504691e-07
1.3411464e-07
2.1997469e-08
2.7505799e-09
2.6297943e-10
3.9772e-11
9.8786658e-12
2.2886904e-12
4.6527106e-13
8.3838036e-14
1.3305341e-14
1.8513061e-15
2.2517506e-16
2.3845597e-17
2.1919192e-18
6.7165779e-05
4.6063663e-05
2.6922209e-05
1.2634368e-05
4.545442e-06
1.3386391e-06
3.1932388e-07
6.1592697e-08
1.152677e-08
4.24928e-09
2.3797327e-09
1.2605936e-09
6.2668162e-10
2.9116875e-10
1.2606574e-10
5.0785388e-11
1.9001452e-11
6.5926444e-12
2.1186067e-12
6.2991982e-13
1.7307745e-13
4.3877494e-14
1.0242285e-14
2.1953689e-15
4.3061298e-16
7.6971885e-17
1.247568e-17
1.8226753e-18
2.3833424e-19
2.7657661e-20
7.4624512e-23
9.0542567e-26
3.970142e-29
4.5824676e-33
1.0662055e-37
6.0981108e-43
1.3007154e-48
1.190443e-54
4.0433989e-61
4.5064821e-05
3.9568306e-05
4.6672678e-05
2.2698956e-05
9.6692352e-06
3.1525494e-06
8.2942369e-07
1.7575032e-07
2.9802933e-08
3.9122052e-09
3.9891192e-10
6.5579913e-11
1.7272435e-11
4.2421537e-12
9.1503443e-13
1.7517197e-13
2.9553036e-14
4.3726434e-15
5.6567572e-16
6.3718536e-17
6.229252e-18
5.2659946e-19
7.867495e-05
5.2978467e-05
3.0443493e-05
1.4411385e-05
5.3441901e-06
1.6230593e-06
3.9444442e-07
7.5003895e-08
1.336897e-08
4.6351615e-09
2.5505597e-09
1.3299702e-09
6.5227895e-10
2.9983135e-10
1.2887951e-10
5.1677329e-11
1.9285613e-11
6.6840906e-12
2.147753e-12
6.3882646e-13
1.7560848e-13
4.4532665e-14
1.0394514e-14
2.226948e-15
4.3644326e-16
7.7928059e-17
1.2614819e-17
1.8406509e-18
2.4039644e-19
7.9453189e-22
1.2113421e-24
6.9435241e-28
1.10224e-31
3.6237363e-36
2.8435783e-41
8.4800408e-47
1.1930308e-52
8.1896802e-59
2.5584421e-65
5.1580847e-05
4.5142984e-05
5.62566e-05
2.7518659e-05
1.1827861e-05
3.9059483e-06
1.0363061e-06
2.230797e-07
3.8918088e-08
5.3310011e-09
5.8064154e-10
1.0339297e-10
2.8809855e-11
7.4863036e-12
1.7109346e-12
3.4764622e-13
6.2309207e-14
9.7991056e-15
1.3480779e-15
1.6149682e-16
1.6792836e-17
1.5097366e-18
1.1694459e-19
9.0668212e-05
6.017401e-05
3.4473109e-05
1.6562717e-05
6.3808578e-06
1.9914523e-06
4.8668913e-07
9.0011899e-08
1.5200629e-08
4.927818e-09
2.6732936e-09
1.3790285e-09
6.7165986e-10
3.0764708e-10
1.3208584e-10
5.2959501e-11
1.9768523e-11
6.8512352e-12
2.2001474e-12
6.5359314e-13
1.793309e-13
4.5367785e-14
1.0560013e-14
2.2557647e-15
4.4079823e-16
7.8489746e-17
1.2674979e-17
1.8457242e-18
7.44658e-21
1.4122487e-23
1.0382271e-26
2.2098398e-30
1.0018973e-34
1.0433852e-39
4.0904708e-45
7.8787476e-51
8.2140099e-57
5.157431e-63
1.6079651e-69
5.9337307e-05
5.1736231e-05
6.6968904e-05
3.3125559e-05
1.4309988e-05
4.7947069e-06
1.273738e-06
2.7620963e-07
4.9168588e-08
6.9922801e-09
8.1285539e-10
1.5619913e-10
4.5939263e-11
1.2601584e-11
3.0458346e-12
6.5605003e-13
1.2479189e-13
2.0847398e-14
3.0486076e-15
3.8834545e-16
4.2945644e-17
4.1064429e-18
3.3825879e-19
2.3916468e-20
0.000103039
6.780796e-05
3.9001172e-05
1.9274841e-05
7.7001237e-06
2.4487178e-06
5.9347529e-07
1.058121e-07
1.692835e-08
5.1356891e-09
2.7646981e-09
1.4213115e-09
6.9283488e-10
3.1810319e-10
1.3685547e-10
5.4918263e-11
2.0482018e-11
7.0807672e-12
2.2651655e-12
6.6972628e-13
1.8279725e-13
4.5994879e-14
1.0650239e-14
2.2640938e-15
4.405522e-16
7.8169775e-17
1.258857e-17
6.1881467e-20
1.4516782e-22
1.3507911e-25
3.7782918e-29
2.3188034e-33
3.1405816e-38
1.5579856e-43
3.8574891e-49
5.4374412e-55
5.1551478e-61
3.2204159e-67
1.0050384e-73
6.8422472e-05
5.9577227e-05
7.84829e-05
3.9348068e-05
1.7150128e-05
5.8272375e-06
1.545278e-06
3.3514555e-07
6.0372965e-08
8.8521489e-09
1.095377e-09
2.2644895e-10
7.0174644e-11
2.0273507e-11
5.1717823e-12
1.1788289e-12
2.3765887e-13
4.2135512e-14
6.5457605e-15
8.862602e-16
1.0421546e-16
1.0597414e-17
9.2838841e-19
6.9800105e-20
4.4866253e-21
0.00011564125
7.6203709e-05
4.4414962e-05
2.2687916e-05
9.3326453e-06
2.991783e-06
7.0970232e-07
1.2163183e-07
1.8528594e-08
5.3006874e-09
2.8550605e-09
1.4756625e-09
7.2339834e-10
3.3342599e-10
1.435346e-10
5.7453549e-11
2.1316328e-11
7.317499e-12
2.3221642e-12
6.8087884e-13
1.8433623e-13
4.6036234e-14
1.0589661e-14
2.2386537e-15
4.3365574e-16
7.6688689e-17
4.5855395e-19
1.3265023e-21
1.5493865e-24
5.6085881e-28
4.5896573e-32
7.9855192e-37
4.884713e-42
1.4941233e-47
2.6724314e-53
3.4050476e-59
3.2020861e-65
1.9976018e-71
6.2548131e-78
7.8688777e-05
6.8728244e-05
9.0537245e-05
4.6013471e-05
2.0264474e-05
6.9990565e-06
1.8547166e-06
4.0061362e-07
7.2428863e-08
1.0848721e-08
1.4225664e-09
3.154236e-10
1.0285817e-10
3.123425e-11
8.3924466e-12
2.020326e-12