/*--------------------------------*- C++ -*----------------------------------*\
| =========                 |                                                 |
| \\      /  F ield         | OpenFOAM: The Open Source CFD Toolbox           |
|  \\    /   O peration     | Version:  5.0                                   |
|   \\  /    A nd           | Web:      www.OpenFOAM.org                      |
|    \\/     M anipulation  |                                                 |
\*---------------------------------------------------------------------------*/
FoamFile
{
    version     2.0;
    format      ascii;
    class       volVectorField;
    location    "20";
    object      ddtCorrDdt0(U);
}
// * * * * * * * * * * * * * * * * * * * * * * * * * * * * * * * * * * * * * //

dimensions      [0 1 -2 0 0 0 0];

internalField   nonuniform List<vector> 
9520
(
(1.5203198e-05 -5.1059872e-06 0)
(1.4911525e-05 -1.4846064e-05 0)
(3.0465116e-05 -5.5457456e-06 0)
(1.4361368e-05 -2.3674077e-05 0)
(2.9830462e-05 -1.5796073e-05 0)
(3.7074303e-05 -5.922111e-06 0)
(1.3555783e-05 -3.1457409e-05 0)
(2.8666521e-05 -2.5367013e-05 0)
(3.6283426e-05 -1.6493513e-05 0)
(4.8164837e-05 -6.2645184e-06 0)
(1.2520399e-05 -3.8196717e-05 0)
(2.6957895e-05 -3.3852858e-05 0)
(3.5026083e-05 -2.6513274e-05 0)
(4.6952806e-05 -1.7752377e-05 0)
(5.7143911e-05 -5.9988841e-06 0)
(1.1243457e-05 -4.3897055e-05 0)
(2.4842744e-05 -4.1340812e-05 0)
(3.3028577e-05 -3.5527656e-05 0)
(4.5613605e-05 -2.8308232e-05 0)
(5.5587505e-05 -1.8922328e-05 0)
(6.7351745e-05 -5.239281e-06 0)
(9.7636898e-06 -4.8563806e-05 0)
(2.2271829e-05 -4.785548e-05 0)
(3.0627261e-05 -4.3527857e-05 0)
(4.3213361e-05 -3.8273485e-05 0)
(5.424177e-05 -2.9797996e-05 0)
(6.6223884e-05 -2.0103267e-05 0)
(7.6495837e-05 -5.0136763e-06 0)
(8.0655461e-06 -5.225341e-05 0)
(1.932622e-05 -5.3331861e-05 0)
(2.7666589e-05 -5.0624573e-05 0)
(4.0349e-05 -4.7104485e-05 0)
(5.1708958e-05 -4.0650364e-05 0)
(6.4566809e-05 -3.160322e-05 0)
(7.6352749e-05 -2.0766393e-05 0)
(8.6325124e-05 -6.5196731e-06 0)
(6.1925684e-06 -5.5013109e-05 0)
(1.6013619e-05 -5.7848988e-05 0)
(2.4241708e-05 -5.6690237e-05 0)
(3.6778178e-05 -5.5130849e-05 0)
(4.8557091e-05 -5.0249419e-05 0)
(6.2203207e-05 -4.339969e-05 0)
(7.4173478e-05 -3.3487895e-05 0)
(8.7795195e-05 -2.1271499e-05 0)
(9.5905485e-05 -9.4932072e-06 0)
(4.1634211e-06 -5.6895984e-05 0)
(1.239824e-05 -6.142022e-05 0)
(2.0379164e-05 -6.1824531e-05 0)
(3.2652032e-05 -6.2203798e-05 0)
(4.4650236e-05 -5.9102369e-05 0)
(5.8816453e-05 -5.4037513e-05 0)
(7.2027855e-05 -4.584421e-05 0)
(8.5083402e-05 -3.56357e-05 0)
(9.7909844e-05 -2.1939132e-05 0)
(0.00010732967 -1.185831e-05 0)
(2.037961e-06 -5.8016798e-05 0)
(8.5226741e-06 -6.4077951e-05 0)
(1.6139347e-05 -6.6021076e-05 0)
(2.7961137e-05 -6.8383433e-05 0)
(4.0126494e-05 -6.7096918e-05 0)
(5.4911413e-05 -6.4099638e-05 0)
(6.8505662e-05 -5.7485691e-05 0)
(8.3225547e-05 -4.8423341e-05 0)
(9.5351215e-05 -3.7296179e-05 0)
(0.00010793889 -2.2932135e-05 0)
(0.00011827951 -1.1114787e-05 0)
(-1.735161e-07 -5.8341452e-05 0)
(4.4580435e-06 -6.5929348e-05 0)
(1.1565176e-05 -6.929965e-05 0)
(2.2756073e-05 -7.3642625e-05 0)
(3.4951972e-05 -7.4242566e-05 0)
(5.0043227e-05 -7.3271469e-05 0)
(6.4478863e-05 -6.8383365e-05 0)
(7.9953733e-05 -6.1177642e-05 0)
(9.3560532e-05 -5.043389e-05 0)
(0.0001065808 -3.8336043e-05 0)
(0.00011640963 -2.3586066e-05 0)
(0.00012913805 -7.873444e-06 0)
(-2.3609738e-06 -5.8183079e-05 0)
(2.5849446e-07 -6.6877153e-05 0)
(6.7175409e-06 -7.1756159e-05 0)
(1.7089526e-05 -7.7982572e-05 0)
(2.9146656e-05 -8.0506629e-05 0)
(4.4467963e-05 -8.1700508e-05 0)
(5.9541273e-05 -7.8664177e-05 0)
(7.6099285e-05 -7.3155545e-05 0)
(9.0635585e-05 -6.3887793e-05 0)
(0.00010501456 -5.214795e-05 0)
(0.00011666206 -3.8474735e-05 0)
(0.00012599289 -2.3694157e-05 0)
(0.00013769167 -5.148679e-06 0)
(-4.6033231e-06 -5.7138356e-05 0)
(-3.9843441e-06 -6.7296762e-05 0)
(1.6623854e-06 -7.326569e-05 0)
(1.1001339e-05 -8.1472456e-05 0)
(2.2777063e-05 -8.5883142e-05 0)
(3.8119566e-05 -8.9341336e-05 0)
(5.38634e-05 -8.8278271e-05 0)
(7.1306115e-05 -8.4754978e-05 0)
(8.7163539e-05 -7.6789822e-05 0)
(0.0001028955 -6.635247e-05 0)
(0.00011549792 -5.3039188e-05 0)
(0.0001275162 -3.853411e-05 0)
(0.00013558504 -2.3295974e-05 0)
(0.00014595815 -4.9686972e-06 0)
(-6.6267825e-06 -5.6228648e-05 0)
(-8.2443598e-06 -6.6606332e-05 0)
(-3.5338967e-06 -7.4205595e-05 0)
(4.5761815e-06 -8.3970941e-05 0)
(1.5853743e-05 -9.0422098e-05 0)
(3.107803e-05 -9.6176931e-05 0)
(4.7341078e-05 -9.7263274e-05 0)
(6.5742339e-05 -9.5812474e-05 0)
(8.2816591e-05 -8.9531815e-05 0)
(9.9990451e-05 -8.0204961e-05 0)
(0.00011412733 -6.7732357e-05 0)
(0.00012710176 -5.3821564e-05 0)
(0.00013733992 -3.8503902e-05 0)
(0.00014620729 -2.2907309e-05 0)
(0.00015340226 -6.5546377e-06 0)
(-8.8160066e-06 -5.3759806e-05 0)
(-1.2373667e-05 -6.6094895e-05 0)
(-8.7865706e-06 -7.3944696e-05 0)
(-2.1641155e-06 -8.5814849e-05 0)
(8.4603546e-06 -9.3983419e-05 0)
(2.3326655e-05 -0.00010222959 0)
(4.0035085e-05 -0.00010558069 0)
(5.9293971e-05 -0.00010642494 0)
(7.7675198e-05 -0.00010188681 0)
(9.6271878e-05 -9.4049812e-05 0)
(0.00011195686 -8.230171e-05 0)
(0.00012656069 -6.9096566e-05 0)
(0.00013767707 -5.402844e-05 0)
(0.00014778668 -3.8340629e-05 0)
(0.00015539568 -2.2423964e-05 0)
(0.00016161587 -7.7084527e-06 0)
(-1.0408959e-05 -5.2986651e-05 0)
(-1.64512e-05 -6.3590499e-05 0)
(-1.4047269e-05 -7.378446e-05 0)
(-9.0549935e-06 -8.6389138e-05 0)
(5.7409359e-07 -9.6850552e-05 0)
(1.4934355e-05 -0.00010739278 0)
(3.1919375e-05 -0.00011324322 0)
(5.1994813e-05 -0.00011654719 0)
(7.166814e-05 -0.00011398142 0)
(9.1757836e-05 -0.00010766701 0)
(0.00010909327 -9.6978041e-05 0)
(0.00012526035 -8.4398493e-05 0)
(0.00013796742 -6.9706392e-05 0)
(0.00014900382 -5.3883422e-05 0)
(0.00015697047 -3.7422334e-05 0)
(0.00016407167 -2.1602512e-05 0)
(0.00016870533 -7.4174947e-06 0)
(-1.2594143e-05 -4.853395e-05 0)
(-2.0207484e-05 -6.3051756e-05 0)
(-1.9160012e-05 -7.1550817e-05 0)
(-1.6190595e-05 -8.6860985e-05 0)
(-7.6012408e-06 -9.8462483e-05 0)
(5.8546606e-06 -0.00011184777 0)
(2.302627e-05 -0.00012019346 0)
(4.3834833e-05 -0.00012620456 0)
(6.481985e-05 -0.00012577071 0)
(8.6460109e-05 -0.00012120557 0)
(0.00010546698 -0.0001115679 0)
(0.00012333096 -9.9851883e-05 0)
(0.00013757595 -8.5541306e-05 0)
(0.00015022147 -6.9860102e-05 0)
(0.00015908035 -5.2774368e-05 0)
(0.000166285 -3.5887661e-05 0)
(0.00017100163 -2.0217194e-05 0)
(0.00017566385 -6.3748315e-06 0)
(-1.3437822e-05 -4.9281881e-05 0)
(-2.3896421e-05 -5.8158243e-05 0)
(-2.4266403e-05 -7.1027186e-05 0)
(-2.3111514e-05 -8.5313327e-05 0)
(-1.6267628e-05 -9.9797276e-05 0)
(-3.7401821e-06 -0.00011519849 0)
(1.3329437e-05 -0.00012652616 0)
(3.4805961e-05 -0.00013539027 0)
(5.7151274e-05 -0.00013733303 0)
(8.040801e-05 -0.00013459197 0)
(0.00010113557 -0.00012617247 0)
(0.00012063194 -0.00011527288 0)
(0.00013657744 -0.00010157653 0)
(0.00015082602 -8.6218685e-05 0)
(0.00016141255 -6.8808249e-05 0)
(0.00016956435 -5.1035624e-05 0)
(0.00017425749 -3.3791809e-05 0)
(0.00017809921 -1.8471432e-05 0)
(0.00018077484 -5.3515505e-06 0)
(-1.5813563e-05 -4.1856508e-05 0)
(-2.7146471e-05 -5.8830279e-05 0)
(-2.8797441e-05 -6.6468212e-05 0)
(-3.0455323e-05 -8.4834265e-05 0)
(-2.4772177e-05 -9.9265748e-05 0)
(-1.4060296e-05 -0.00011806925 0)
(2.8858599e-06 -0.0001320242 0)
(2.4949323e-05 -0.00014416029 0)
(4.8639395e-05 -0.0001486769 0)
(7.3660375e-05 -0.00014798581 0)
(9.615446e-05 -0.00014067035 0)
(0.00011726532 -0.00013068311 0)
(0.00013479377 -0.00011763497 0)
(0.00015084267 -0.00010292746 0)
(0.00016322972 -8.550714e-05 0)
(0.00017311082 -6.6963342e-05 0)
(0.00017867559 -4.8470949e-05 0)
(0.00018238841 -3.1322676e-05 0)
(0.00018369316 -1.6436758e-05 0)
(0.00018593326 -4.5410563e-06 0)
(-1.5584243e-05 -4.5454982e-05 0)
(-3.0167099e-05 -5.1010474e-05 0)
(-3.3810939e-05 -6.6319642e-05 0)
(-3.6662551e-05 -8.118932e-05 0)
(-3.4050103e-05 -9.9168912e-05 0)
(-2.4544006e-05 -0.00011945903 0)
(-8.3926297e-06 -0.00013701631 0)
(1.4157099e-05 -0.00015242711 0)
(3.9389733e-05 -0.00015992338 0)
(6.6230911e-05 -0.00016132001 0)
(9.0627765e-05 -0.00015526552 0)
(0.00011332249 -0.00014593189 0)
(0.00013232293 -0.00013364672 0)
(0.00015002658 -0.0001197959 0)
(0.00016441985 -0.00010275489 0)
(0.00017621533 -8.3784452e-05 0)
(0.00018345799 -6.4059519e-05 0)
(0.00018800847 -4.5356479e-05 0)
(0.00018898679 -2.8306632e-05 0)
(0.00018945853 -1.4213591e-05 0)
(0.00018943996 -3.756835e-06 0)
(-1.8291529e-05 -3.471276e-05 0)
(-3.2947037e-05 -5.3481399e-05 0)
(-3.6926522e-05 -5.9782943e-05 0)
(-4.4334742e-05 -7.9651037e-05 0)
(-4.195891e-05 -9.6771185e-05 0)
(-3.5951098e-05 -0.00012047736 0)
(-2.0372829e-05 -0.00014098007 0)
(2.562473e-06 -0.00016038363 0)
(2.9160031e-05 -0.00017097272 0)
(5.8252663e-05 -0.00017493129 0)
(8.4655305e-05 -0.0001697429 0)
(0.00010893594 -0.00016113697 0)
(0.00012922902 -0.00014941204 0)
(0.00014839714 -0.00013667166 0)
(0.00016470528 -0.00012037227 0)
(0.00017870122 -0.00010141381 0)
(0.00018803492 -8.0805072e-05 0)
(0.00019418035 -6.0550825e-05 0)
(0.0001957752 -4.144821e-05 0)
(0.00019569592 -2.4835398e-05 0)
(0.00019353403 -1.1739605e-05 0)
(0.00019241835 -2.8468136e-06 0)
(-1.6784388e-05 -4.1098706e-05 0)
(-3.4720601e-05 -4.3656545e-05 0)
(-4.2438378e-05 -5.9340641e-05 0)
(-4.8382248e-05 -7.560904e-05 0)
(-5.1807859e-05 -9.4402486e-05 0)
(-4.6546804e-05 -0.00012032384 0)
(-3.3206322e-05 -0.00014418218 0)
(-1.037665e-05 -0.00016769926 0)
(1.826885e-05 -0.00018216388 0)
(4.9461062e-05 -0.00018844063 0)
(7.8349406e-05 -0.0001847023 0)
(0.0001042885 -0.00017595199 0)
(0.00012562046 -0.00016482017 0)
(0.00014592506 -0.00015328245 0)
(0.00016402334 -0.00013818996 0)
(0.0001802996 -0.00011973723 0)
(0.00019209936 -9.8682728e-05 0)
(0.0002003465 -7.7184999e-05 0)
(0.00020336943 -5.6032798e-05 0)
(0.00020374239 -3.6970376e-05 0)
(0.00020055524 -2.0835547e-05 0)
(0.00019714481 -9.0237188e-06 0)
(0.00019469572 -1.8180658e-06 0)
(-2.0245796e-05 -2.8527117e-05 0)
(-3.740604e-05 -4.6383073e-05 0)
(-4.2776848e-05 -5.3346404e-05 0)
(-5.8014048e-05 -7.0355317e-05 0)
(-5.7518779e-05 -9.2743592e-05 0)
(-5.8621599e-05 -0.00011782122 0)
(-4.6586681e-05 -0.00014693088 0)
(-2.3972356e-05 -0.00017445124 0)
(5.5740284e-06 -0.00019290559 0)
(4.0219111e-05 -0.000202811 0)
(7.1607049e-05 -0.00019927565 0)
(9.9453054e-05 -0.00019105498 0)
(0.00012170076 -0.000179499 0)
(0.00014265606 -0.00016932583 0)
(0.00016224172 -0.00015590841 0)
(0.00018084975 -0.00013858005 0)
(0.00019532235 -0.00011760943 0)
(0.00020610962 -9.5281646e-05 0)
(0.00021124704 -7.242603e-05 0)
(0.00021298681 -5.0890265e-05 0)
(0.00020995284 -3.1740669e-05 0)
(0.00020558139 -1.6468264e-05 0)
(0.00019965464 -6.035659e-06 0)
(0.00019563133 -7.0303426e-07 0)
(-1.7187604e-05 -3.5422287e-05 0)
(-3.7767879e-05 -3.7713781e-05 0)
(-5.0025646e-05 -4.8740758e-05 0)
(-5.843037e-05 -7.0906801e-05 0)
(-7.074543e-05 -8.3770002e-05 0)
(-6.8420304e-05 -0.00011911135 0)
(-6.0437661e-05 -0.00014618375 0)
(-4.0030725e-05 -0.00018088143 0)
(-7.5551839e-06 -0.00020403492 0)
(2.9199824e-05 -0.00021647623 0)
(6.4662106e-05 -0.00021539838 0)
(9.4614077e-05 -0.00020511787 0)
(0.00011751719 -0.00019382412 0)
(0.00013872775 -0.00018447073 0)
(0.00015932743 -0.00017321407 0)
(0.00018013177 -0.00015767078 0)
(0.00019745143 -0.00013737235 0)
(0.00021108535 -0.00011477642 0)
(0.00021894261 -9.0677257e-05 0)
(0.00022282666 -6.7054514e-05 0)
(0.00022089234 -4.4784988e-05 0)
(0.00021638268 -2.5960767e-05 0)
(0.00020880164 -1.1651709e-05 0)
(0.00020124816 -2.7445808e-06 0)
(0.00019593075 4.9624439e-07 0)
(-2.1899732e-05 -2.4699899e-05 0)
(-4.0199097e-05 -3.7217454e-05 0)
(-4.5434983e-05 -4.9204774e-05 0)
(-7.1263948e-05 -5.383424e-05 0)
(-7.3545931e-05 -8.937169e-05 0)
(-8.5206832e-05 -0.00010724032 0)
(-7.5651033e-05 -0.00015014995 0)
(-5.5484109e-05 -0.00018434324 0)
(-2.4752862e-05 -0.00021431156 0)
(1.8027501e-05 -0.00023241484 0)
(5.6679073e-05 -0.00022999254 0)
(8.9823202e-05 -0.00022092034 0)
(0.00011350631 -0.0002064225 0)
(0.00013416774 -0.00019860743 0)
(0.00015529248 -0.00018979789 0)
(0.00017805091 -0.00017677373 0)
(0.00019824909 -0.00015774293 0)
(0.00021496574 -0.00013542129 0)
(0.00022595455 -0.00011069847 0)
(0.00023265951 -8.5459358e-05 0)
(0.00023275021 -6.044879e-05 0)
(0.00022919929 -3.8081468e-05 0)
(0.00022091439 -1.9569895e-05 0)
(0.00021157174 -6.4158274e-06 0)
(0.00020225063 7.221035e-07 0)
(0.00019525101 1.8054348e-06 0)
(-1.6988581e-05 -2.7693521e-05 0)
(-3.9814563e-05 -3.4783636e-05 0)
(-5.5694622e-05 -3.4599353e-05 0)
(-6.176653e-05 -7.038581e-05 0)
(-8.9996581e-05 -6.2134361e-05 0)
(-9.5584441e-05 -0.00011793491 0)
(-9.4434904e-05 -0.00013918837 0)
(-7.6533376e-05 -0.00019126675 0)
(-4.0656051e-05 -0.00022430497 0)
(2.4266618e-06 -0.00024601978 0)
(4.8933147e-05 -0.00024914131 0)
(8.5204832e-05 -0.00023381691 0)
(0.00010962036 -0.0002200527 0)
(0.00012950243 -0.00021076827 0)
(0.00015015007 -0.00020534106 0)
(0.00017453836 -0.00019561722 0)
(0.00019762296 -0.0001785127 0)
(0.00021751076 -0.0001569782 0)
(0.00023187339 -0.000132195 0)
(0.00024186152 -0.00010596 0)
(0.00024480699 -7.8675524e-05 0)
(0.00024326446 -5.312395e-05 0)
(0.00023563275 -3.0513457e-05 0)
(0.0002256647 -1.2733357e-05 0)
(0.00021335685 -9.0522508e-07 0)
(0.00020187774 4.3336091e-06 0)
(0.00019371758 3.126348e-06 0)
(-2.3043262e-05 -2.3144533e-05 0)
(-4.1060449e-05 -2.6418907e-05 0)
(-4.6020992e-05 -4.8579091e-05 0)
(-8.2410722e-05 -3.015351e-05 0)
(-7.985141e-05 -9.1440747e-05 0)
(-0.00011316555 -8.2117624e-05 0)
(-0.00011549591 -0.0001534186 0)
(-9.4901293e-05 -0.00018604403 0)
(-6.50336e-05 -0.00023465118 0)
(-1.1403132e-05 -0.00026453589 0)
(3.8276617e-05 -0.00026356788 0)
(8.1276617e-05 -0.00025289378 0)
(0.00010687192 -0.00022943285 0)
(0.00012465429 -0.00022272688 0)
(0.00014432346 -0.00021933836 0)
(0.00016964105 -0.0002140663 0)
(0.00019555519 -0.00019951395 0)
(0.00021864181 -0.00017918504 0)
(0.00023640679 -0.00015487302 0)
(0.00024995091 -0.00012825854 0)
(0.00025636197 -9.9321531e-05 0)
(0.00025772565 -7.1024258e-05 0)
(0.00025185302 -4.4556913e-05 0)
(0.00024230515 -2.2267003e-05 0)
(0.00022844252 -5.4390059e-06 0)
(0.0002141973 4.8467832e-06 0)
(0.00020098907 8.0151879e-06 0)
(0.00019137841 4.375296e-06 0)
(-1.6271622e-05 -2.0415563e-05 0)
(-4.2304753e-05 -3.2237464e-05 0)
(-5.8194855e-05 -2.0473394e-05 0)
(-6.1385552e-05 -7.3052203e-05 0)
(-0.00010635961 -3.045037e-05 0)
(-0.00011222914 -0.00012059777 0)
(-0.00013229188 -0.00011767428 0)
(-0.00012688681 -0.00020314182 0)
(-7.9769919e-05 -0.00024000151 0)
(-3.4366935e-05 -0.00027824971 0)
(2.9695249e-05 -0.00028920845 0)
(7.710889e-05 -0.00026396125 0)
(0.00010498403 -0.00024481433 0)
(0.00012108355 -0.00022992938 0)
(0.00013770802 -0.00023245879 0)
(0.00016358731 -0.00023179635 0)
(0.00019215623 -0.00022074078 0)
(0.00021840869 -0.00020187351 0)
(0.00023944134 -0.00017839731 0)
(0.00025658868 -0.00015205795 0)
(0.00026688563 -0.00012215275 0)
(0.00027182963 -9.1705756e-05 0)
(0.00026871601 -6.1729981e-05 0)
(0.00026075942 -3.5121915e-05 0)
(0.00024697399 -1.3268669e-05 0)
(0.00023131529 2.3211009e-06 0)
(0.00021422091 1.073119e-05 0)
(0.00019918108 1.1665902e-05 0)
(0.00018832487 5.5361589e-06 0)
(-2.2133022e-05 -2.0662076e-05 0)
(-3.9781799e-05 -1.8557622e-05 0)
(-4.883927e-05 -4.4760217e-05 0)
(-8.9416906e-05 -9.1388566e-06 0)
(-8.1123528e-05 -9.4904702e-05 0)
(-0.00013596308 -4.491147e-05 0)
(-0.00014902133 -0.00015736569 0)
(-0.00014274347 -0.00017742564 0)
(-0.00011659192 -0.0002590588 0)
(-4.3183798e-05 -0.00029859231 0)
(1.4006108e-05 -0.00030321153 0)
(7.4914269e-05 -0.00029127273 0)
(0.00010513091 -0.00024915609 0)
(0.00011793134 -0.00024122869 0)
(0.00013166275 -0.00024161236 0)
(0.00015626839 -0.00024915831 0)
(0.00018754925 -0.00024192954 0)
(0.000216927 -0.0002248153 0)
(0.00024096608 -0.00020240559 0)
(0.00026156281 -0.00017696899 0)
(0.00027595712 -0.00014689662 0)
(0.00028500406 -0.00011500189 0)
(0.00028547214 -8.2084664e-05 0)
(0.00028019888 -5.143593e-05 0)
(0.00026763425 -2.4645698e-05 0)
(0.00025166713 -3.6188205e-06 0)
(0.00023238163 1.0306857e-05 0)
(0.00021336853 1.670906e-05 0)
(0.00019663249 1.523017e-05 0)
(0.00018463899 6.6427589e-06 0)
(-1.8568156e-05 -1.6051592e-05 4.076119e-26)
(-4.2236677e-05 -2.733271e-05 0)
(-5.727392e-05 -1.2776319e-05 0)
(-6.2311996e-05 -6.8064887e-05 0)
(-0.00011801853 -1.4827188e-06 0)
(-0.00012067837 -0.00012231503 0)
(-0.00016150132 -8.297999e-05 0)
(-0.00018095341 -0.00021453911 0)
(-0.0001315977 -0.00025222806 0)
(-7.5652409e-05 -0.00031651337 0)
(1.0622464e-05 -0.00033812096 0)
(6.9293345e-05 -0.00029859785 0)
(0.00010642838 -0.00027130433 0)
(0.00011773532 -0.00024011325 0)
(0.00012501414 -0.00025282155 0)
(0.00014856064 -0.00026412199 0)
(0.00018169165 -0.0002635344 0)
(0.00021435285 -0.00024783339 0)
(0.00024103179 -0.00022643005 0)
(0.00026470926 -0.00020247537 0)
(0.00028322024 -0.00017313078 0)
(0.00029673517 -0.00014065296 0)
(0.00030150426 -0.00010550692 0)
(0.00029984387 -7.1373507e-05 0)
(0.00028966398 -3.9783088e-05 0)
(0.00027456463 -1.3387596e-05 0)
(0.00025443479 6.4489957e-06 0)
(0.0002329172 1.85701e-05 0)
(0.00021166289 2.2670701e-05 0)
(0.00019335391 1.8742428e-05 0)
(0.00018037493 7.7816566e-06 0)
(-1.9726132e-05 -1.4816301e-05 -5.5630354e-26)
(-3.649523e-05 -1.3847201e-05 -4.2595542e-26)
(-5.00362e-05 -3.5264824e-05 0)
(-9.768988e-05 2.4636803e-07 0)
(-7.8568776e-05 -9.0993898e-05 0)
(-0.00015298105 -8.1909168e-06 0)
(-0.00017032809 -0.00015785077 0)
(-0.00017999724 -0.00015549779 0)
(-0.00018706545 -0.00028658859 0)
(-8.7009133e-05 -0.00033485046 0)
(-1.0367443e-05 -0.00034950296 0)
(6.9367763e-05 -0.00034002139 0)
(0.00010826184 -0.0002669045 0)
(0.0001175548 -0.00025462633 0)
(0.00012078701 -0.00025263241 0)
(0.00013912241 -0.00028065822 0)
(0.00017493685 -0.00028405988 0)
(0.00021071081 -0.0002709694 0)
(0.00023977849 -0.00025013638 0)
(0.00026597218 -0.00022807841 0)
(0.00028839327 -0.00020036272 0)
(0.00030656724 -0.00016824557 0)
(0.000316197 -0.00013176072 0)
(0.0003189884 -9.4835988e-05 0)
(0.00031225811 -5.8929349e-05 0)
(0.00029927391 -2.7199407e-05 0)
(0.00027953317 -1.4633131e-06 0)
(0.00025702417 1.6969665e-05 0)
(0.00023249261 2.6924994e-05 0)
(0.00020914882 2.8679138e-05 0)
(0.00018939121 2.2348824e-05 0)
(0.00017553721 9.063544e-06 0)
(-1.7128847e-05 -1.5958557e-05 5.583729e-26)
(-4.5089093e-05 -2.1075138e-05 1.1229447e-25)
(-4.2708536e-05 -1.0267559e-05 0)
(-5.6646135e-05 -4.8918397e-05 0)
(-0.00014214854 1.5476097e-05 0)
(-0.00011603214 -0.00011971859 0)
(-0.00018056381 -4.5761733e-05 0)
(-0.00022017487 -0.00021959696 0)
(-0.00018023252 -0.00025283388 0)
(-0.00015025804 -0.00036404739 0)
(-1.3747717e-05 -0.00039190446 0)
(6.0827003e-05 -0.0003359116 0)
(0.00011013007 -0.00030322096 0)
(0.00012112338 -0.00024035039 0)
(0.00011534641 -0.00026423857 0)
(0.00013074181 -0.00028847131 0)
(0.00016603692 -0.00030668613 0)
(0.00020615028 -0.00029340583 0)
(0.00023723164 -0.00027299209 0)
(0.00026530678 -0.00025308972 0)
(0.0002912782 -0.0002280673 0)
(0.00031414203 -0.00019732313 0)
(0.00032899406 -0.00016045161 0)
(0.00033690997 -0.00012161841 0)
(0.00033463839 -8.2018213e-05 0)
(0.00032495164 -4.5366348e-05 0)
(0.00030689671 -1.3637763e-05 0)
(0.00028427845 1.1098746e-05 0)
(0.00025782883 2.7676591e-05 0)
(0.00023098275 3.5389367e-05 0)
(0.00020584498 3.4894499e-05 0)
(0.00018475915 2.6291841e-05 0)
(0.00017007629 1.0595245e-05 0)
(-1.8009793e-05 -4.4967714e-06 0)
(-3.3811378e-05 -1.4271389e-05 -1.1245283e-25)
(-6.1853213e-05 -3.0651625e-05 0)
(-5.1678972e-05 -3.2982484e-06 0)
(-5.5492461e-05 -6.5939219e-05 0)
(-0.00021516843 2.2696036e-05 0)
(-0.00017462587 -0.00015599597 0)
(-0.00020146052 -0.00012608342 0)
(-0.00025017665 -0.00030568723 0)
(-0.00015006269 -0.00036462022 0)
(-7.0047176e-05 -0.0004115549 0)
(6.472422e-05 -0.00039577546 0)
(0.00011067208 -0.00028420361 0)
(0.00012353722 -0.00026495432 0)
(0.00011491445 -0.00024868821 0)
(0.00011934541 -0.00030572145 0)
(0.0001569667 -0.0003235714 0)
(0.000199898 -0.00031723282 0)
(0.00023369906 -0.00029473854 0)
(0.0002628148 -0.00027711791 0)
(0.00029175208 -0.00025559199 0)
(0.00031917175 -0.00022732252 0)
(0.00033942214 -0.00019109153 0)
(0.00035293689 -0.00015134512 0)
(0.00035600882 -0.00010891484 0)
(0.00035075707 -6.7886531e-05 0)
(0.00033565783 -3.044064e-05 0)
(0.00031426711 7.8388406e-07 0)
(0.00028717407 2.4090057e-05 0)
(0.00025824087 3.8890434e-05 0)
(0.00022865037 4.4243453e-05 0)
(0.00020175081 4.1598127e-05 0)
(0.00017944282 3.0849315e-05 0)
(0.00016389907 1.2459197e-05 0)
(-1.5148005e-05 -1.9484738e-05 -2.190783e-26)
(-3.8050679e-05 -5.6638135e-06 0)
(-3.8541472e-05 -7.4177159e-06 -1.798512e-25)
(-9.335803e-05 -4.1922028e-05 0)
(-5.8969433e-05 1.0476026e-05 0)
(-5.6937451e-05 -9.4373119e-05 0)
(-0.00030446773 -5.3254779e-06 0)
(-0.00025041708 -0.00021749841 0)
(-0.00021750909 -0.00023710368 0)
(-0.00024572845 -0.00040439505 0)
(-8.1379555e-05 -0.00045016209 0)
(3.7076596e-05 -0.000380089 0)
(0.00011894366 -0.00034091358 0)
(0.00012981457 -0.00023501393 0)
(0.00011317182 -0.0002649865 0)
(0.00011180961 -0.00029915285 0)
(0.00014323517 -0.00034954391 0)
(0.00019308115 -0.00033757761 0)
(0.00022897169 -0.00031597047 0)
(0.00025890399 -0.00029951334 0)
(0.00029001886 -0.0002828129 0)
(0.00032163494 -0.00025787 0)
(0.00034716575 -0.0002231441 0)
(0.00036648591 -0.00018353399 0)
(0.00037559906 -0.00013931736 0)
(0.000375837 -9.4719093e-05 0)
(0.00036495745 -5.1960876e-05 0)
(0.00034613167 -1.4396391e-05 0)
(0.00031971176 1.5971187e-05 0)
(0.00028955734 3.7815946e-05 0)
(0.00025701065 5.0480911e-05 0)
(0.00022536205 5.3853315e-05 0)
(0.00019684693 4.9129967e-05 0)
(0.00017339554 3.6248066e-05 0)
(0.0001568914 1.4702427e-05 0)
(-1.6700905e-05 7.6361322e-06 1.0648216e-25)
(-3.1979865e-05 -2.2660517e-05 2.5903362e-25)
(-4.4142144e-05 -1.324885e-05 1.7973196e-25)
(-4.6273544e-05 3.8219866e-06 3.3589713e-25)
(-0.00011956975 -5.9586922e-05 4.51592e-25)
(-6.3358457e-05 4.0513872e-05 0)
(-9.1782618e-05 -0.00012624633 0)
(-0.00040710357 -8.714316e-05 0)
(-0.00031509944 -0.00030675801 0)
(-0.00022708367 -0.00036973768 0)
(-0.00019162315 -0.00047958227 0)
(1.9747463e-05 -0.00046174016 0)
(0.00011215483 -0.00030555819 0)
(0.00013858274 -0.00027727278 0)
(0.00011765108 -0.00023009902 0)
(9.9358628e-05 -0.00031911505 0)
(0.00013093278 -0.00035634851 0)
(0.00018197108 -0.00036546451 0)
(0.00022404883 -0.00033487405 0)
(0.00025383786 -0.0003208337 0)
(0.00028642136 -0.00030862128 0)
(0.00032161047 -0.00028842525 0)
(0.00035208738 -0.00025607001 0)
(0.00037711035 -0.00021760072 0)
(0.00039269649 -0.00017280405 0)
(0.00039933595 -0.00012566271 0)
(0.0003939225 -7.8271246e-05 0)
(0.00037901763 -3.4625229e-05 0)
(0.00035462845 2.811853e-06 0)
(0.0003245205 3.2157798e-05 0)
(0.00029019992 5.222223e-05 0)
(0.00025516985 6.3116844e-05 0)
(0.00022116629 6.4600582e-05 0)
(0.00019111388 5.7773356e-05 0)
(0.00016655742 4.2587243e-05 0)
(0.00014894806 1.7316349e-05 0)
(-1.8879672e-05 -2.3158525e-05 -1.356546e-25)
(-3.5905511e-05 1.0311962e-05 -4.3621119e-25)
(-4.1994577e-05 -2.6503444e-05 0)
(-5.5771405e-05 -3.4393175e-05 -1.0632276e-24)
(-5.7816271e-05 1.6374426e-05 -4.4927189e-25)
(-0.00014152539 -0.00010140061 -6.253322e-25)
(-6.8524332e-05 4.0376941e-05 -3.4759898e-25)
(-0.00017926393 -0.00017820991 0)
(-0.0004883473 -0.00021231437 0)
(-0.00033770868 -0.00041818443 0)
(-0.00020320928 -0.00049192458 0)
(-5.7202904e-05 -0.00044808723 0)
(0.00010764521 -0.00038521895 0)
(0.00014337926 -0.0002282602 0)
(0.00011847171 -0.0002556221 0)
(9.3618524e-05 -0.00028950604 0)
(0.00010911029 -0.00038861738 0)
(0.0001712757 -0.00038065255 0)
(0.00021726829 -0.00035764672 0)
(0.00024898439 -0.00033939925 0)
(0.00028151037 -0.00033434784 0)
(0.00031949822 -0.00031840949 0)
(0.00035406717 -0.00028897665 0)
(0.00038435352 -0.00025269383 0)
(0.00040659971 -0.00020873786 0)
(0.00042039128 -0.00016037743 0)
(0.00042163939 -0.00010928934 0)
(0.00041204799 -6.0093e-05 0)
(0.00039109799 -1.5665013e-05 0)
(0.00036240327 2.1338845e-05 0)
(0.000327468 4.9350684e-05 0)
(0.00029007002 6.7909913e-05 0)
(0.00025186841 7.6759798e-05 0)
(0.00021607717 7.6682497e-05 0)
(0.000184558 6.7643891e-05 0)
(0.00015888264 4.9791381e-05 0)
(0.00014000828 2.0200409e-05 0)
(-1.4991445e-05 1.6294967e-05 1.3059624e-27)
(-3.0716497e-05 -2.7863241e-05 1.0107694e-25)
(-4.7227187e-05 8.497007e-06 -1.4951948e-25)
(-5.5123352e-05 9.929615e-07 3.2310286e-25)
(-7.2037325e-05 -6.0069529e-05 7.555933e-25)
(-6.8491612e-05 4.8308081e-05 -4.3336674e-25)
(-0.00014207142 -0.00013809271 -2.5736881e-24)
(-7.8249204e-05 -2.5441639e-05 4.9173829e-25)
(-0.0003270178 -0.00028557071 0)
(-0.00050899557 -0.00036785799 0)
(-0.00029127534 -0.00053186454 0)
(-0.00010457926 -0.00053426072 0)
(7.3988082e-05 -0.00034548296 0)
(0.00014374924 -0.00028746702 0)
(0.00012229988 -0.00019660678 0)
(7.7110409e-05 -0.00031373315 0)
(9.3496902e-05 -0.00037737973 0)
(0.00015262122 -0.00041940541 0)
(0.00021277985 -0.00037400761 0)
(0.00024439638 -0.00035969241 0)
(0.00027655148 -0.00035628011 0)
(0.00031556772 -0.00034794572 0)
(0.00035334508 -0.00032145234 0)
(0.00038796465 -0.00028803567 0)
(0.00041668012 -0.00024634996 0)
(0.0004381483 -0.00019834699 0)
(0.00044715618 -0.00014481884 0)
(0.00044427911 -9.0851554e-05 0)
(0.00042827426 -3.9767452e-05 0)
(0.00040242477 4.9890346e-06 0)
(0.00036820318 4.1266752e-05 0)
(0.00032946634 6.8055918e-05 0)
(0.00028833085 8.482703e-05 0)
(0.00024786307 9.1958025e-05 0)
(0.00021011192 8.9994476e-05 0)
(0.00017721939 7.8614641e-05 0)
(0.00015036092 5.7590338e-05 0)
(0.0001300859 2.3145582e-05 0)
(-1.7381369e-05 -2.4306887e-05 5.050839e-26)
(-3.063655e-05 2.1873579e-05 -4.1496044e-26)
(-3.2663834e-05 -2.9861421e-05 0)
(-6.1990836e-05 -1.2619298e-05 2.3515428e-25)
(-5.7783658e-05 4.0234026e-05 -1.2218696e-26)
(-8.6949777e-05 -8.688197e-05 0)
(-7.9964632e-05 3.8951326e-05 1.4015813e-24)
(-0.00014485503 -0.00018142898 2.0045518e-24)
(-0.00012793688 -0.00013780562 0)
(-0.00048666424 -0.00044115338 0)
(-0.00042212527 -0.00052832801 0)
(-0.00012341149 -0.00054027676 0)
(3.7466681e-05 -0.00044144536 0)
(0.00014159017 -0.00023529279 0)
(0.00011579914 -0.00023021263 0)
(7.188881e-05 -0.00025660328 0)
(6.284701e-05 -0.00041899837 0)
(0.00014071585 -0.00042845488 0)
(0.00020771636 -0.00040726283 0)
(0.0002444584 -0.00037414375 0)
(0.0002717535 -0.00038058297 0)
(0.00031056822 -0.00037393386 0)
(0.00034956246 -0.00035179211 0)
(0.00038747274 -0.00032237208 0)
(0.00042234415 -0.00028482026 0)
(0.00045185491 -0.00023897391 0)
(0.00046953587 -0.00018453696 0)
(0.00047472141 -0.00012687143 0)
(0.00046522879 -6.96953e-05 0)
(0.00044379511 -1.7312151e-05 0)
(0.00041168919 2.7508586e-05 0)
(0.00037288099 6.2992529e-05 0)
(0.00032970919 8.8211282e-05 0)
(0.00028568786 0.00010335286 0)
(0.00024264831 0.00010831054 0)
(0.00020332953 0.00010417891 0)
(0.00016918272 9.0287406e-05 0)
(0.00014102972 6.5529539e-05 0)
(0.00011928135 2.588e-05 0)
(-1.6177401e-05 2.1976039e-05 0)
(-3.0718727e-05 -3.1447515e-05 0)
(-3.9356386e-05 1.7412042e-05 4.2844119e-26)
(-4.5101147e-05 -1.5671866e-05 0)
(-7.015196e-05 -5.4070531e-05 -6.4323011e-27)
(-7.8432644e-05 3.2934634e-05 -6.2917787e-25)
(-7.9236153e-05 -0.00011783083 -2.9739481e-24)
(-0.00011475361 1.5911589e-05 -3.1423034e-24)
(-0.00013717747 -0.00024625856 0)
(-0.00024650937 -0.00032548652 0)
(-0.00051762974 -0.00063054639 0)
(-0.00023131586 -0.00060675257 0)
(7.0438323e-05 -0.00042285975 0)
(0.00010935553 -0.00030755829 0)
(0.00014144743 -0.0001584517 0)
(4.6248353e-05 -0.00028878907 0)
(5.1163746e-05 -0.00038699277 0)
(0.00011648595 -0.00048657397 0)
(0.00021089392 -0.00042463939 0)
(0.00024800134 -0.00039860554 0)
(0.0002705122 -0.00039419538 0)
(0.00030360069 -0.00040074462 0)
(0.00034306432 -0.00037938709 0)
(0.00038250707 -0.00035456118 0)
(0.00042279637 -0.00032288259 0)
(0.00046064397 -0.00028143778 0)
(0.00048783105 -0.00022795075 0)
(0.00050233389 -0.00016799466 0)
(0.00050096642 -0.00010559237 0)
(0.00048563121 -4.5910042e-05 0)
(0.00045721821 7.5594502e-06 0)
(0.00041968357 5.2182713e-05 0)
(0.00037563136 8.643011e-05 0)
(0.00032886358 0.00011004073 0)
(0.00028168233 0.00012296989 0)
(0.0002367683 0.00012575104 0)
(0.00019589595 0.00011869647 0)
(0.00016058238 0.00010204674 0)
(0.00013098328 7.302142e-05 0)
(0.00010778352 2.8144667e-05 0)
(-2.9218783e-05 3.0188437e-05 5.5243836e-27)
(-1.5898786e-05 -2.2275697e-05 0)
(-3.83112e-05 -2.9350666e-05 1.1261092e-25)
(-5.4869372e-05 5.2872205e-06 1.2189007e-25)
(-6.0470438e-05 2.1201069e-05 1.417781e-25)
(-9.0180958e-05 -6.7255349e-05 -6.0816574e-26)
(-0.000120374 2.6327653e-05 1.2464992e-26)
(-0.0001026951 -0.00016448864 -3.7924991e-25)
(-0.00019706626 -0.00012089492 4.2664962e-24)
(-0.00015849132 -0.00037481015 0)
(-0.0003724488 -0.00056965581 8.133266e-24)
(-0.00021288734 -0.00065043565 0)
(-7.3288731e-05 -0.00050520867 0)
(0.00016661836 -0.00026582377 0)
(9.9379293e-05 -0.00020599046 0)
(8.7927099e-05 -0.00021006338 0)
(9.6176009e-06 -0.00044494211 0)
(0.00011217631 -0.00048955479 0)
(0.00020855889 -0.00047701265 0)
(0.00025913845 -0.00040678255 0)
(0.00026877737 -0.00041581873 0)
(0.00029598744 -0.00041517009 0)
(0.00033200029 -0.00040348272 0)
(0.00037272813 -0.00038356459 0)
(0.00041785804 -0.00036043311 0)
(0.00046406232 -0.00032521959 0)
(0.00050124869 -0.00027452638 0)
(0.00052607908 -0.00021392331 0)
(0.00053440889 -0.00014749038 0)
(0.00052697041 -8.1129185e-05 0)
(0.00050399172 -1.9051309e-05 0)
(0.00046926134 3.5047339e-05 0)
(0.00042556796 7.890258e-05 0)
(0.00037707303 0.00011162209 0)
(0.00032650931 0.00013293505 0)
(0.00027687792 0.00014341929 0)
(0.00022998154 0.00014328835 0)
(0.00018795681 0.00013289159 0)
(0.00015154517 0.00011314264 0)
(0.00012037233 7.9425305e-05 0)
(9.5874074e-05 2.972149e-05 0)
(-3.6074771e-05 2.8487493e-05 -1.046298e-25)
(-2.9159472e-05 -3.0356756e-05 0)
(-1.7305473e-05 2.4119014e-05 4.99891e-26)
(-5.3603944e-05 -1.5744223e-05 -1.2181747e-25)
(-6.6455641e-05 -1.3759034e-05 -3.5788201e-26)