/*--------------------------------*- C++ -*----------------------------------*\
| =========                 |                                                 |
| \\      /  F ield         | OpenFOAM: The Open Source CFD Toolbox           |
|  \\    /   O peration     | Version:  5.0                                   |
|   \\  /    A nd           | Web:      www.OpenFOAM.org                      |
|    \\/     M anipulation  |                                                 |
\*---------------------------------------------------------------------------*/
FoamFile
{
    version     2.0;
    format      ascii;
    class       surfaceScalarField;
    location    "20";
    object      ddtCorrDdt0(phi);
}
// * * * * * * * * * * * * * * * * * * * * * * * * * * * * * * * * * * * * * //

dimensions      [0 3 -2 0 0 0 0];

internalField   nonuniform List<scalar> 
18820
(
1.2094122e-05
-3.2399306e-05
2.314649e-05
-2.9675522e-05
1.2461711e-05
-4.486101e-05
3.3031946e-05
-2.6658404e-05
2.3854862e-05
-4.1068659e-05
1.26169e-05
-5.7477887e-05
4.1670766e-05
-2.3444436e-05
3.4207064e-05
-3.7010583e-05
2.4027374e-05
-5.2479094e-05
1.3041797e-05
-7.0519669e-05
4.9067615e-05
-2.018517e-05
4.3373649e-05
-3.2611001e-05
3.4554649e-05
-4.7537833e-05
2.4798966e-05
-6.4236185e-05
1.307195e-05
-8.3591595e-05
5.5228893e-05
-1.6901048e-05
5.140423e-05
-2.8215747e-05
4.3962918e-05
-4.2019226e-05
3.576768e-05
-5.8506511e-05
2.5276157e-05
-7.6440283e-05
1.2881023e-05
-9.6472593e-05
6.0193082e-05
-1.3686201e-05
5.8274824e-05
-2.3771616e-05
5.232094e-05
-3.6573744e-05
4.5769329e-05
-5.2020808e-05
3.6498999e-05
-6.9729306e-05
2.5840926e-05
-8.9400044e-05
1.2637077e-05
-0.00010910963
6.4017228e-05
-1.0562517e-05
6.4004614e-05
-1.941597e-05
5.9586197e-05
-3.1036834e-05
5.4781914e-05
-4.5586301e-05
4.698917e-05
-6.2510893e-05
3.7464021e-05
-8.1352338e-05
2.6173493e-05
-0.00010293628
1.3027252e-05
-0.00012213685
6.6771943e-05
-7.5935282e-06
6.8631299e-05
-1.51892e-05
6.578064e-05
-2.5610393e-05
6.2821739e-05
-3.9076613e-05
5.6481135e-05
-5.5078215e-05
4.8581839e-05
-7.3628599e-05
3.8185356e-05
-9.3364127e-05
2.6542134e-05
-0.00011645095
1.4097572e-05
-0.00013623437
6.8539042e-05
-4.8102628e-06
7.2200105e-05
-1.1162329e-05
7.0929968e-05
-2.033852e-05
6.9886777e-05
-3.2675399e-05
6.5157593e-05
-4.7753008e-05
5.8839524e-05
-6.5335834e-05
4.9675908e-05
-8.5119007e-05
3.898585e-05
-0.00010580775
2.6671759e-05
-0.00012902489
1.5035955e-05
-0.00015127028
6.9401788e-05
-2.2571216e-06
7.4764863e-05
-7.3750114e-06
7.5061003e-05
-1.5293354e-05
7.5979432e-05
-2.6431155e-05
7.293386e-05
-4.0451614e-05
6.8379633e-05
-5.7293035e-05
6.045317e-05
-7.6113e-05
5.0819213e-05
-9.6952193e-05
3.922758e-05
-0.00011836346
2.6563864e-05
-0.00014055251
1.4569666e-05
-0.0001658399
6.9457429e-05
5.2792547e-08
7.6379289e-05
-3.8715281e-06
7.821186e-05
-1.0525842e-05
8.1096289e-05
-2.0410191e-05
7.9823856e-05
-3.3321123e-05
7.7110706e-05
-4.9182615e-05
7.0579912e-05
-6.7419663e-05
6.220005e-05
-8.7493718e-05
5.1105445e-05
-0.00010882985
3.9036985e-05
-0.00013083646
2.5864045e-05
-0.00015184657
1.2902375e-05
-0.00017874223
6.8787274e-05
2.0777151e-06
7.7111684e-05
-6.7958214e-07
8.0415046e-05
-6.074684e-06
8.5252923e-05
-1.4682441e-05
8.5808258e-05
-2.6394555e-05
8.5074597e-05
-4.1284973e-05
8.0091749e-05
-5.8694359e-05
7.3086857e-05
-7.8306326e-05
6.2812262e-05
-9.9200373e-05
5.106487e-05
-0.00012085749
3.8096834e-05
-0.00014306911
2.4963807e-05
-0.00016390765
1.123861e-05
-0.00018998079
6.7505513e-05
3.850584e-06
7.7016467e-05
2.1729615e-06
8.1718402e-05
-1.982892e-06
8.8455395e-05
-9.2771132e-06
9.0890936e-05
-1.9765078e-05
9.2251949e-05
-3.3571859e-05
8.8987076e-05
-5.0180236e-05
8.35309e-05
-6.913828e-05
7.4225559e-05
-8.9719449e-05
6.310175e-05
-0.00011123706
5.0176439e-05
-0.00013293682
3.7083456e-05
-0.0001551886
2.3934376e-05
-0.00017660304
1.05534e-05
-0.00020053414
6.5668365e-05
5.2955817e-06
7.6185743e-05
4.6813392e-06
8.2151172e-05
1.7402394e-06
9.0724401e-05
-4.2518426e-06
9.5064707e-05
-1.3450823e-05
9.8631667e-05
-2.6144746e-05
9.7259948e-05
-4.1844681e-05
9.3528058e-05
-6.0177312e-05
8.5384319e-05
-8.0296883e-05
7.4982932e-05
-0.00010160042
6.2289583e-05
-0.00012334996
4.9241581e-05
-0.00014509463
3.581292e-05
-0.00016706698
2.2927501e-05
-0.00018897675
1.0511608e-05
-0.0002110457
6.3426574e-05
6.5457861e-06
7.4654002e-05
6.8273637e-06
8.1787019e-05
5.0455553e-06
9.2061688e-05
4.0301699e-07
9.8328886e-05
-7.5159617e-06
0.00010420027
-1.9019367e-05
0.00010489542
-3.3780159e-05
0.00010308884
-5.1405402e-05
9.6261014e-05
-7.1053912e-05
8.6759705e-05
-9.2073456e-05
7.4384241e-05
-0.00011369482
6.1447485e-05
-0.00013555559
4.7803713e-05
-0.00015708508
3.4401939e-05
-0.00017854124
2.1626983e-05
-0.00020009172
1.0246653e-05
-0.00022129231
6.0762578e-05
7.4151266e-06
7.2571904e-05
8.6279279e-06
8.0632901e-05
7.9815446e-06
9.2510982e-05
4.5963329e-06
0.00010067171
-1.9397191e-06
0.00010893826
-1.2253884e-05
0.00011188923
-2.6013124e-05
0.00011220928
-4.2900531e-05
0.00010688252
-6.2026825e-05
9.8407504e-05
-8.2701586e-05
8.6488104e-05
-0.00010417708
7.3712018e-05
-0.00012595905
5.9925118e-05
-0.00014767667
4.6102137e-05
-0.00016878491
3.2435528e-05
-0.00018934959
2.0017644e-05
-0.00020986231
9.3389234e-06
-0.00023063119
5.7919017e-05
8.221268e-06
6.9890319e-05
1.009676e-05
7.8837517e-05
1.0423391e-05
9.205512e-05
8.4374839e-06
0.0001020979
3.1702149e-06
0.00011283812
-5.8395001e-06
0.0001182196
-1.8584178e-05
0.00012090444
-3.4708236e-05
0.00011726923
-5.3287191e-05
0.0001099565
-7.3575727e-05
9.8560061e-05
-9.4773378e-05
8.6022273e-05
-0.00011648705
7.2180613e-05
-0.0001382142
5.8090777e-05
-0.00015966494
4.3679105e-05
-0.00018002809
3.014507e-05
-0.00019947681
1.8112464e-05
-0.00021863543
8.1110482e-06
-0.0002387422
5.4713062e-05
8.569605e-06
6.6911702e-05
1.1199932e-05
7.6320791e-05
1.2613559e-05
9.0807677e-05
1.1670907e-05
0.00010259001
7.9454649e-06
0.00011586044
1.4797631e-07
0.00012390078
-1.1520621e-05
0.0001291725
-2.685217e-05
0.00012746258
-4.4901524e-05
0.00012144071
-6.4771335e-05
0.00011059818
-8.5613734e-05
9.8312873e-05
-0.00010706377
8.4517381e-05
-0.00012882346
7.0355139e-05
-0.00015047816
5.5383611e-05
-0.00017136904
4.0877571e-05
-0.00019076019
2.7516894e-05
-0.00020888101
1.6096574e-05
-0.00022662053
6.8584622e-06
-0.00024560061
5.1592699e-05
9.0258505e-06
6.334838e-05
1.2132975e-05
7.3420208e-05
1.41006e-05
8.8696746e-05
1.4724562e-05
0.00010217379
1.20872e-05
0.00011801391
5.7920741e-06
0.00012887245
-4.8236037e-06
0.00013705333
-1.9401384e-05
0.00013750206
-3.6891622e-05
0.00013291518
-5.6375955e-05
0.00012262056
-7.679364e-05
0.0001105391
-9.7839827e-05
9.6845059e-05
-0.00011939118
8.2801445e-05
-0.00014126934
6.7526425e-05
-0.00016262052
5.2171834e-05
-0.00018266285
3.7589858e-05
-0.00020083273
2.4737668e-05
-0.00021752187
1.3953608e-05
-0.00023371525
5.686908e-06
-0.00025128747
4.8089309e-05
8.9427756e-06
5.9879303e-05
1.2494969e-05
6.9809386e-05
1.5743873e-05
8.5998187e-05
1.6799218e-05
0.0001008497
1.6048729e-05
0.00011918398
1.0917204e-05
0.00013318279
1.4817929e-06
0.00014449992
-1.2270112e-05
0.00014744749
-2.9346748e-05
0.00014445894
-4.8435363e-05
0.00013466329
-6.8418669e-05
0.00012266583
-8.8920279e-05
0.0001090582
-0.00011005277
9.5309662e-05
-0.00013189908
7.998958e-05
-0.00015373201
6.405595e-05
-0.00017450414
4.8346833e-05
-0.00019341933
3.4114824e-05
-0.00021020947
2.1702088e-05
-0.00022527008
1.1750006e-05
-0.00023977793
4.5366408e-06
-0.00025582404
4.4981789e-05
9.0812063e-06
5.5674443e-05
1.3147676e-05
6.6245654e-05
1.6058788e-05
8.2517047e-05
1.9225072e-05
9.8674091e-05
1.8974863e-05
0.00011947212
1.5760639e-05
0.00013660771
7.4923531e-06
0.00015158163
-5.5998408e-06
0.00015730212
-2.2124702e-05
0.00015613636
-4.1024134e-05
0.00014680522
-6.0577274e-05
0.00013466072
-8.0413543e-05
0.00012102541
-0.00010088739
0.0001077151
-0.00012245796
9.2655918e-05
-0.00014456501
7.6451434e-05
-0.00016612692
5.9865918e-05
-0.00018602268
4.4329947e-05
-0.00020363393
3.0281243e-05
-0.0002187882
1.8544393e-05
-0.0002320642
9.4395974e-06
-0.00024468045
3.3601689e-06
-0.00025918413
4.1387672e-05
8.7168709e-06
5.2111816e-05
1.2643865e-05
6.1701441e-05
1.7691964e-05
7.8759644e-05
1.9816235e-05
9.5759348e-05
2.2139858e-05
0.00011856807
1.9878947e-05
0.00013930644
1.3061906e-05
0.00015804847
1.0255728e-06
0.00016712775
-1.5425385e-05
0.00016803218
-3.4020473e-05
0.00015909103
-5.3309953e-05
0.00014653217
-7.2448742e-05
0.00013260909
-9.1997191e-05
0.00011980667
-0.00011297881
0.00010535142
-0.00013515316
8.9263971e-05
-0.00015737705
7.2104592e-05
-0.00017836495
5.5473057e-05
-0.0001971652
3.987317e-05
-0.00021322532
2.6323017e-05
-0.00022656641
1.5224588e-05
-0.00023784889
7.1219382e-06
-0.0002484418
2.1371096e-06
-0.00026132112
3.8478655e-05
8.6906514e-06
4.7471571e-05
1.3357148e-05
5.7703287e-05
1.6642102e-05
7.3903693e-05
2.2547966e-05
9.1965782e-05
2.3609807e-05
0.00011692378
2.3784169e-05
0.00014065725
1.8528141e-05
0.00016404742
7.0630049e-06
0.00017678026
-8.6268997e-06
0.0001801887
-2.7581829e-05
0.00017167319
-4.660258e-05
0.00015826288
-6.5040678e-05
0.00014368766
-8.3527359e-05
0.00013136743
-0.00010355791
0.00011786158
-0.00012548874
0.00010233544
-0.00014822421
8.4966845e-05
-0.0001702387
6.7529143e-05
-0.0001904203
5.0593339e-05
-0.00020788475
3.5310365e-05
-0.00022221208
2.2115435e-05
-0.00023345684
1.1855035e-05
-0.00024258168
4.7858219e-06
-0.00025109008
8.9147316e-07
-0.00026221248
3.4998822e-05
8.0669829e-06
4.4280751e-05
1.1881492e-05
5.2391613e-05
1.8668887e-05
6.891152e-05
2.1634311e-05
8.7171359e-05
2.7342401e-05
0.00011359279
2.694084e-05
0.00014123936
2.3202021e-05
0.00016886481
1.3710759e-05
0.00018635573
-2.5124135e-06
0.00019270897
-2.1147115e-05
0.00018459416
-4.0502756e-05
0.00016998993
-5.8329625e-05
0.00015414549
-7.5498525e-05
0.00014216
-9.4319952e-05
0.00012996394
-0.0001156602
0.00011549201
-0.00013864499
9.8302989e-05
-0.00016155981
8.0397018e-05
-0.00018310587
6.2432318e-05
-0.00020225848
4.5627266e-05
-0.00021820099
3.0388536e-05
-0.00023048459
1.7856193e-05
-0.00023945759
8.4074275e-06
-0.00024620294
2.409103e-06
-0.0002526073
-3.0680501e-07
-0.00026190551
3.2377455e-05
8.0894562e-06
3.952238e-05
1.2825376e-05
4.8875887e-05
1.5397284e-05
6.2854169e-05
2.4726286e-05
8.1064905e-05
2.7740741e-05
0.00010951395
3.1421263e-05
0.00013966888
2.8511309e-05
0.00017298481
1.9082017e-05
0.00019540202
4.6644501e-06
0.000205646
-1.5449423e-05
0.00019823028
-3.4783138e-05
0.00018174879
-5.226158e-05
0.00016399711
-6.8181267e-05
0.00015198774
-8.5326315e-05
0.00014140796
-0.00010576397
0.00012856115
-0.00012872917
0.00011196943
-0.00015231101
9.3919624e-05
-0.00017508175
7.5267973e-05
-0.0001959407
5.7234908e-05
-0.00021386524
4.0144708e-05
-0.00022795649
2.5407556e-05
-0.00023803534
1.3482398e-05
-0.00024453217
4.9878209e-06
-0.00024878131
7.0604355e-08
-0.00025298428
-1.481479e-06
-0.00026042388
2.9202883e-05
7.1391017e-06
3.6880692e-05
1.0731157e-05
4.3138659e-05
1.8562643e-05
5.7921329e-05
2.0330155e-05
7.4633991e-05
3.1157184e-05
0.00010269463
3.4560107e-05
0.00013792265
3.3167468e-05
0.00017516161
2.6334495e-05
0.00020418064
1.0303422e-05
0.00021914073
-8.8303015e-06
0.00021263385
-2.9852977e-05
0.00019401615
-4.7050466e-05
0.00017321661
-6.1481023e-05
0.00016069911
-7.6892631e-05
0.0001520069
-9.5925311e-05
0.00014138969
-0.00011859247
0.00012584379
-0.00014260324
0.00010793896
-0.00016632974
8.8918934e-05
-0.0001887319
6.9996559e-05
-0.00020870141
5.1331601e-05
-0.00022505119
3.4556343e-05
-0.00023710458
2.0179802e-05
-0.00024473213
9.1013889e-06
-0.00024864536
1.6139594e-06
-0.00025032427
-2.1983499e-06
-0.00025226702
-2.6034659e-06
-0.00025782021
2.6744194e-05
7.4895593e-06
3.2401233e-05
1.1618581e-05
4.0408719e-05
1.3461136e-05
5.1129978e-05
2.5354035e-05
6.7412289e-05
2.7551805e-05
9.6273908e-05
3.7577921e-05
0.00013274867
3.9734109e-05
0.00017794329
3.0385786e-05
0.00021202834
1.8486805e-05
0.00023321189
-3.7678191e-06
0.00022854978
-2.4746213e-05
0.00020681824
-4.2655058e-05
0.00018212253
-5.5956366e-05
0.00016815819
-6.8940086e-05
0.00016152181
-8.6407523e-05
0.00015387797
-0.00010841356
0.00013985909
-0.00013260762
0.00012231425
-0.00015697811
0.00010318988
-0.00018059991
8.3735803e-05
-0.00020247014
6.3835731e-05
-0.00022120448
4.5266136e-05
-0.00023576
2.8543253e-05
-0.00024546734
1.4894426e-05
-0.00025052453
4.7193048e-06
-0.00025175036
-1.6912279e-06
-0.000250831
-4.3443379e-06
-0.00025052573
-3.6178988e-06
-0.00025420213
2.4010967e-05
6.0527679e-06
2.9925712e-05
9.9650978e-06
3.4703382e-05
1.7323933e-05
4.6674862e-05
1.7916274e-05
6.0255186e-05
3.2511102e-05
8.6378061e-05
3.7447673e-05
0.00012816775
4.2158873e-05
0.00017802382
3.9653558e-05
0.00022102457
2.1389639e-05
0.0002479719
3.7267273e-06
0.00024578599
-2.10041e-05
0.00022108823
-3.9016288e-05
0.00019065264
-5.1185151e-05
0.00017436035
-6.2158472e-05
0.00016976623
-7.7184471e-05
0.00016585395
-9.8383463e-05
0.00015396654
-0.00012252089
0.00013692271
-0.00014721576
0.00011786469
-0.00017165229
9.82456e-05
-0.00019510872
7.7512107e-05
-0.00021614536
5.7465297e-05
-0.00023340247
3.8591592e-05
-0.0002458073
2.243423e-05
-0.00025300645
9.5152636e-06
-0.00025531989
3.6831293e-07
-0.00025380956
-4.8357378e-06
-0.00025033915
-6.344707e-06
-0.00024779856
-4.5191929e-06
-0.0002496827
2.1770547e-05
6.4648554e-06
2.6033495e-05
9.9450201e-06
3.2499727e-05
1.2168784e-05
3.9605951e-05
2.4392888e-05
5.2835196e-05
2.5336209e-05
7.9070039e-05
3.9819096e-05
0.00011825272
4.7362781e-05
0.00017840301
4.1779676e-05
0.00022936906
3.1309136e-05
0.00026368816
5.6732901e-06
0.00026520666
-1.5694011e-05
0.00023638611
-3.6302108e-05
0.00019950347
-4.7867239e-05
0.00017909593
-5.5920748e-05
0.00017645123
-6.8843384e-05
0.00017720452
-8.8534901e-05
0.00016811013
-0.00011252691
0.00015164513
-0.00013724307
0.00013269152
-0.00016204208
0.00011325919
-0.00018666501
9.2159476e-05
-0.00020975489
7.1036862e-05
-0.00022971559
5.0304525e-05
-0.00024511413
3.1798053e-05
-0.00025517008
1.6127566e-05
-0.00025961809
4.1595585e-06
-0.00025911052
-3.8369325e-06
-0.00025480806
-7.8536989e-06
-0.00024882974
-8.1770203e-06
-0.00024414034
-5.3289671e-06
-0.00024435353
1.9450862e-05
6.2470834e-06
2.3690794e-05
8.8075579e-06
2.656051e-05
1.5884259e-05
3.6265416e-05
1.5509352e-05
4.5404589e-05
3.1823491e-05
6.7913974e-05
3.6492245e-05
0.00011229272
4.5779175e-05
0.00017324978
5.2515949e-05
0.00023789217
3.3256685e-05
0.00028086717
1.4130091e-05
0.00028506389
-1.4184073e-05
0.00025392875
-3.3236846e-05
0.00020819239
-4.4991214e-05
0.00018261625
-5.1387634e-05
0.00018125105
-6.0720552e-05
0.00018758324
-7.9221968e-05
0.00018226572
-0.00010269023
0.00016638583
-0.00012726727
0.00014741744
-0.00015196855
0.00012846692
-0.00017724908
0.00010751418
-0.00020201858
8.5791649e-05
-0.00022450823
6.3589753e-05
-0.00024299936
4.299883e-05
-0.00025631358
2.4671481e-05
-0.00026371295
9.8329449e-06
-0.00026529084
-1.0739631e-06
-0.00026187293
-7.8865109e-06
-0.00025477495
-1.0656428e-05
-0.00024634985
-9.8686699e-06
-0.00023960031
-6.1001433e-06
-0.00023825313
1.6324415e-05
7.3005784e-06
2.1515313e-05
8.4225945e-06
2.5158746e-05
1.0209314e-05
2.7470903e-05
2.4678844e-05
3.9532634e-05
2.1381318e-05
6.0693211e-05
3.9044187e-05
9.9767033e-05
4.9018049e-05
0.0001709583
4.8070614e-05
0.00024234757
4.806058e-05
0.00029851372
1.5610101e-05
0.00030771769
-8.5238268e-06
0.0002711649
-3.142037e-05
0.00021804074
-4.3085502e-05
0.0001845786
-4.6953806e-05
0.00018397205
-5.4108706e-05
0.00019671606
-6.9853213e-05
0.00019624251
-9.3198454e-05
0.00018107494
-0.00011737895
0.00016176819
-0.0001416175
0.00014352662
-0.00016702754
0.00012327997
-0.00019301388
0.00010148642
-0.00021771197
7.8274464e-05
-0.00023919127
5.5959695e-05
-0.0002559586
3.5185777e-05
-0.00026682651
1.7522739e-05
-0.00027140172
3.5881882e-06
-0.00026995241
-6.1862534e-06
-0.00026357263
-1.1708751e-05
-0.00025372238
-1.3280478e-05
-0.0002429376
-1.1488024e-05
-0.00023421207
-6.9021226e-06
-0.00023135079
1.4144503e-05
5.7998568e-06
1.7241436e-05
1.1574502e-05
2.3687392e-05
9.8939459e-06
2.6877127e-05
1.0803056e-05
2.7448172e-05
3.6763409e-05
5.0192798e-05
3.1881713e-05
9.4101878e-05
4.4709447e-05
0.00016115033
5.8825946e-05
0.00024643661
4.3981561e-05
0.00031492565
3.164866e-05
0.00033159586
-8.2682911e-06
0.00029073888
-2.8097962e-05
0.00022761666
-4.0996592e-05
0.00018602571
-4.453288e-05
0.000184263
-4.7244965e-05
0.00020414962
-6.154228e-05
0.00021000807
-8.3618472e-05
0.00019565127
-0.00010777421
0.00017556095
-0.00013117109
0.00015808853
-0.00015617868
0.00013912963
-0.00018287622
0.00011784184
-0.00020936801
9.4123441e-05
-0.00023355928
7.0526943e-05
-0.00025375666
4.7623083e-05
-0.00026839423
2.7293389e-05
-0.00027659576
1.0311874e-05
-0.00027812443
-2.5561264e-06
-0.00027358201
-1.1061889e-05
-0.00026421901
-1.5377582e-05
-0.00025162504
-1.5826568e-05
-0.00023859855
-1.3137699e-05
-0.00022797619
-7.8005604e-06
-0.00022354995
1.1678626e-05
6.2717602e-06
1.5237431e-05
7.8039063e-06
1.8408452e-05
1.6853499e-05
2.5502051e-05
1.1269017e-05
2.7453587e-05
1.0797636e-05
3.3637246e-05
5.3318962e-05
7.9385701e-05
4.6598068e-05
0.00015685014
4.9009646e-05
0.00024336268
6.1899726e-05
0.00032775583
3.115136e-05
0.00035885851
4.3857594e-06
0.00031058109
-2.8110591e-05
0.00023892373
-3.9405353e-05
0.00018680183
-4.1773062e-05
0.00018244281
-4.271301e-05
0.00020939051
-5.2485919e-05
0.0002231936
-7.4727624e-05
0.00021027495
-9.8241633e-05
0.0001886901
-0.00012090255
0.00017191267
-0.00014499429
0.00015480231
-0.00017185036
0.00013458999
-0.00019962316
0.00011086039
-0.00022610338
8.6479406e-05
-0.00024950985
6.187085e-05
-0.00026800242
3.9138333e-05
-0.0002802374
1.9189776e-05
-0.0002854723
3.1534713e-06
-0.00028383313
-8.5222497e-06
-0.00027612122
-1.5835773e-05
-0.00026376033
-1.8913804e-05
-0.00024853763
-1.8412684e-05
-0.00023332311
-1.4922981e-05
-0.00022085342
-8.8378144e-06
-0.0002147119
9.4373476e-06
5.44071e-06
1.2558314e-05
8.9508938e-06
1.7316968e-05
8.8953926e-06
1.8992499e-05
2.3363089e-05
2.7004773e-05
1.1717885e-05
3.0238686e-05
1.4196129e-05
5.9823649e-05
7.2881198e-05
0.00014138244
6.2065843e-05
0.00024048512
5.1887039e-05
0.00033486692
5.4788655e-05
0.0003820263
7.9831808e-06
0.00033651444
-2.1547759e-05
0.0002501447
-3.9331798e-05
0.0001882997
-4.0903487e-05
0.00017815019
-3.7480777e-05
0.00021199385
-4.5316613e-05
0.000235566
-6.4858277e-05
0.00022488734
-8.9339478e-05
0.00020133444
-0.00011088513
0.0001848053
-0.0001337941
0.000170048
-0.00016023877
0.0001514841
-0.00018874321
0.00012819541
-0.00021695673
0.00010353849
-0.00024316068
7.77484e-05
-0.0002653853
5.299555e-05
-0.00028185752
3.0262895e-05
-0.00029130877
1.1067079e-05
-0.00029338458
-3.9211562e-06
-0.00028843342
-1.4417079e-05
-0.00027753955
-2.0467893e-05
-0.00026220585
-2.2524076e-05
-0.00024442607
-2.1157594e-05
-0.00022708797
-1.6913316e-05
-0.00021277764
-1.0020716e-05
-0.00020469085
7.1151384e-06
5.8565509e-06
9.9084457e-06
8.0906019e-06
1.5446037e-05
1.0821815e-05
1.7349776e-05
1.0538136e-05
2.096162e-05
2.9406384e-05
2.9898229e-05
1.2058305e-05
4.7996711e-05
2.6023098e-05
0.0001223837
9.1880225e-05
0.00023127876
7.1271994e-05
0.00033623294
5.0521016e-05
0.00040582992
3.0984666e-05
0.00036193036
-1.7432975e-05
0.00026497021
-3.6373543e-05
0.00018876868
-3.9801104e-05
0.00017210548
-3.4859089e-05
0.00021086756
-3.6354698e-05
0.00024654734
-5.6298053e-05
0.00023993986
-7.9910512e-05
0.00021366088
-0.00010166508
0.00019681992
-0.00012289848
0.00018469538
-0.00014844006
0.00016824511
-0.00017699838
0.00014576082
-0.00020630713
0.00012134096
-0.00023475752
9.4992588e-05
-0.00026040292
6.8735807e-05
-0.00028112334
4.3525756e-05
-0.00029511819
2.1271804e-05
-0.00030151172
2.9009578e-06
-0.00030020549
-1.097337e-05
-0.00029187645
-2.0215229e-05
-0.00027779198
-2.5194146e-05
-0.00025953538
-2.6244943e-05
-0.00023933861
-2.4117416e-05
-0.0002198834
-1.911604e-05
-0.00020368196
-1.1314761e-05
-0.00019337582
5.5054395e-06
5.6072709e-06
7.0820941e-06
8.6829157e-06
1.3139721e-05
1.0396872e-05
1.4160032e-05
1.4011522e-05
1.8917322e-05
1.2582584e-05
2.5261872e-05
3.4042861e-05
4.6132433e-05
1.3922585e-05
9.9411822e-05
4.8995045e-05
0.00022142034
0.00010173861
0.00033858149
6.8923555e-05
0.00042044616
3.5904404e-05
0.00039544139
-2.5268016e-06
0.00028079232
-3.3255322e-05
0.00019102617
-3.8631372e-05
0.0001624993
-3.0195161e-05
0.00020646204
-3.0453871e-05
0.00025573598
-4.5543536e-05
0.00025548494
-7.1842888e-05
0.00022657873
-9.2827689e-05
0.00020801662
-0.00011286063
0.00019856354
-0.00013676499
0.00018461619
-0.00016480945
0.00016318522
-0.00019442122
0.00013945482
-0.00022441942
0.00011325118
-0.00025301436
8.615107e-05
-0.00027781612
5.8913962e-05
-0.00029650921
3.3818679e-05
-0.00030766286
1.2073553e-05
-0.00031068267
-5.3187641e-06
-0.00030585899
-1.7996232e-05
-0.00029409492
-2.6116033e-05
-0.00027686992
-2.9971035e-05
-0.00025580899
-3.0188274e-05
-0.00023326762
-2.7258578e-05
-0.00021174028
-2.1465427e-05
-0.00019353102
-1.2642753e-05
-0.00018073269
3.5902452e-06
5.0911557e-06
5.8716014e-06
6.8177999e-06
9.9798742e-06
1.1842746e-05
1.2872178e-05
1.1684705e-05
1.3829093e-05
1.909984e-05
2.3428936e-05
1.4415514e-05
4.5823685e-05
3.4351828e-05
8.7945973e-05
2.5388545e-05
0.00019257942
7.783563e-05
0.00034505661
9.5263641e-05
0.00044433656
4.5033083e-05
0.0004238417
7.5035973e-06
0.00030506764
-2.6802466e-05
0.00019317716
-3.5406878e-05
0.00015191283
-2.8045233e-05
0.00019747627
-2.1209555e-05
0.00026333297
-3.8051036e-05
0.00027286904
-6.2927598e-05
0.00024074536
-8.6008964e-05
0.00021892374
-0.00010373368
0.00021143427
-0.00012572971
0.00020015848
-0.00015230543
0.00017991568
-0.00018153806
0.000157373
-0.00021233775
0.00013212517
-0.00024329192
0.00010497148
-0.00027183306
7.6303966e-05
-0.00029520401
4.8712411e-05
-0.0003114006
2.3703166e-05
-0.00031929031
2.7140305e-06
-0.00031871389
-1.3605967e-05
-0.00031024837
-2.5137821e-05
-0.00029507275
-3.2063584e-05
-0.00027477734
-3.4935552e-05
-0.00025106139
-3.4224683e-05
-0.00022630144
-3.0468673e-05
-0.00020273651
-2.3830133e-05
-0.00018234329
-1.389257e-05
-0.00016683981
1.8461662e-06
5.426451e-06
3.7023804e-06
7.2604107e-06
8.0559675e-06
8.7416819e-06
1.0054072e-05
1.4660797e-05
1.1483506e-05
1.4030421e-05
2.2327839e-05
2.0200924e-05
4.13298e-05
1.8909404e-05
8.3199944e-05
3.9098168e-05
0.00016823854
4.9729266e-05
0.00032717122
9.5720705e-05
0.00047285439
6.6746024e-05
0.00046334345
5.5307904e-06
0.00032970224
-1.7131273e-05
0.00020252329
-3.6149307e-05
0.00013841575
-2.191027e-05
0.00018677159
-1.7340904e-05
0.00026929592
-2.7172706e-05
0.00029213381
-5.7315653e-05
0.00025795855
-8.0140308e-05
0.00022974175
-9.6826132e-05
0.00022291934
-0.00011521716
0.00021438051
-0.00013994969
0.00019542075
-0.00016780848
0.00017444812
-0.00019861143
0.00015111153
-0.00023132268
0.00012485949
-0.00026317858
9.5508479e-05
-0.00029103596
6.5909998e-05
-0.00031239952
3.7863987e-05
-0.00032555906
1.3281786e-05
-0.00032985599
-6.8462939e-06
-0.00032547223
-2.2052402e-05
-0.00031333308
-3.2329737e-05
-0.00029480642
-3.8136197e-05
-0.00027157671
-3.9890202e-05
-0.00024539563
-3.8259587e-05
-0.00021851041
-3.3573967e-05
-0.00019299202
-2.6032293e-05
-0.00017020331
-1.4938161e-05
-0.00015190122
5.1019694e-06
1.7143224e-07
1.8305162e-06
7.2983784e-06
5.0523216e-06
1.026407e-05
7.6492897e-06
1.1146448e-05
7.9952299e-06
1.8149179e-05
1.6239719e-05
2.0118501e-05
3.7530202e-05
2.4000435e-05
6.7720594e-05
3.4388977e-05
0.00016144169
4.5894987e-05
0.00028941574
8.7484313e-05
0.00049843472
7.0140367e-05
0.00049925284
3.0836371e-05
0.0003611917
-2.5958896e-05
0.00021045637
-2.5065235e-05
0.00013120317
-2.8937525e-05
0.00017207311
-7.2122251e-06
0.000275008
-2.3053247e-05
0.0003143456
-4.938445e-05
0.00027793272
-7.728933e-05
0.00024057397
-9.0971589e-05
0.00023217299
-0.00010607834
0.00022637437
-0.00012720915
0.00020896299
-0.00015348977
0.0001901836
-0.00018354189
0.00016980816
-0.0002173066
0.00014548366
-0.00025194596
0.00011627899
-0.00028394815
8.530611e-05
-0.00031043061
5.4591813e-05
-0.00032912532
2.6523527e-05
-0.00033879855
2.4785514e-06
-0.00033917892
-1.6642988e-05
-0.00033088049
-3.0572008e-05
-0.0003150904
-3.9584351e-05
-0.00029335822
-4.4101591e-05
-0.00026736547
-4.4758822e-05
-0.00023889611
-4.2030289e-05
-0.00021005402
-3.6375195e-05
-0.00018264851
-2.7876384e-05
-0.00015726475
-1.566448e-05
-0.0001362364
6.8719841e-06
6.055856e-08
5.0689392e-06
-1.5289707e-06
2.1971689e-06
1.0153533e-05
4.7922423e-06
1.3121087e-05
3.0735609e-06
1.6068286e-05
1.0362306e-05
2.4026657e-05
2.5095306e-05
3.2553184e-05
5.47399e-05
3.6981147e-05
0.00013486725
6.0963266e-05
0.00026762091
6.7689949e-05
0.00047749571
0.00010842325
0.0005571198
1.2272806e-05
0.0003815838
1.0444401e-05
0.0002214278
-3.6930953e-05
0.00012261622
-1.6479218e-05
0.00016033609
-1.7201311e-05
0.00027897459
-1.117939e-05
0.00033827937
-4.6986887e-05
0.00030144604
-7.2897193e-05
0.00025055695
-8.7271458e-05
0.00023772075
-9.6517916e-05
0.00023509542
-0.00011479746
0.00022006533
-0.00013830938
0.00020393539
-0.00016723948
0.00018778217
-0.0002015143
0.00016657827
-0.0002384004
0.00013836246
-0.00027402916
0.00010672972
-0.0003053713
7.3869961e-05
-0.0003297076
4.2549264e-05
-0.00034514915
1.4561877e-05
-0.00035087969
-8.690564e-06
-0.00034712966
-2.6572432e-05
-0.0003348793
-3.9106304e-05
-0.00031556823
-4.6637221e-05
-0.00029082274
-4.9825704e-05
-0.00026229872
-4.9202105e-05
-0.00023172409
-4.5347508e-05
-0.00020108156
-3.8688424e-05
-0.00017183574
-2.9184155e-05
-0.00014374486
-1.5984401e-05
-0.00012025154
9.3792947e-06
-3.1011017e-07
6.9343356e-06
-1.8047574e-06
5.4152259e-06
-3.2776786e-06
2.3062742e-06
1.2639511e-05
2.2111144e-07
1.5973682e-05
3.1336822e-06
2.329701e-05
1.4246049e-05
3.4875743e-05
3.6555267e-05
5.0737773e-05
0.00010641279
6.5435393e-05
0.00023921093
8.9372998e-05
0.00044144548
0.00010374076
0.00059961791
6.5924877e-05
0.0004125825
-1.8726473e-05
0.00022528004
6.5919891e-06
0.00011630112
-3.0616738e-05
0.00014909741
-5.2413194e-06
0.00028191201
-2.0139568e-05
0.00036401989
-3.6920146e-05
0.00032658935
-7.2129706e-05
0.00025922522
-8.1564316e-05
0.00023870428
-8.8253416e-05
0.0002397118
-0.00010113252
0.00022843825
-0.00012316839
0.00021595393
-0.00015032575
0.00020489317
-0.00018434876
0.0001878443
-0.00022277963
0.00016141965
-0.00026145782
0.00012989583
-0.00029719588
9.5595246e-05
-0.00032709671
6.1423439e-05
-0.00034858085
2.9579297e-05
-0.00036016477
2.0373628e-06
-0.00036160567
-2.0106745e-05
-0.00035359396
-3.6505345e-05
-0.00033747975
-4.735599e-05
-0.00031484956
-5.3292782e-05
-0.00028735592
-5.4950896e-05
-0.00025655017
-5.3024609e-05
-0.0002240467
-4.7947806e-05
-0.00019182208
-4.0384488e-05
-0.00016063476
-2.9815088e-05
-0.0001299139
-1.5850753e-05
-0.00010440043
1.1780629e-05
-9.5076606e-08
9.6823461e-06
-3.0581095e-06
7.317137e-06
-3.7066004e-06
5.0773861e-06
-5.195761e-06
-1.5063497e-06
1.4367169e-05
-4.6083582e-07
1.9568392e-05
1.7941657e-06
3.5748695e-05
2.499992e-05
4.6430915e-05
8.0534143e-05
7.6616427e-05
0.00020862688
9.6019059e-05
0.00041848211
0.00011233655
0.00059997278
0.000103386
0.00047892564
-4.1861238e-07
0.00022116279
-1.460983e-05
0.00011162593
1.1266912e-05
0.00013858159
-2.0101524e-05
0.00028736732
-1.0697679e-05
0.00038713871
-4.3258811e-05
0.00035380491
-6.4135392e-05
0.00026693624
-7.9839739e-05
0.00023491265
-7.7770903e-05
0.00024045752
-8.8996939e-05
0.00023507757
-0.00010776979
0.00022650399
-0.00013371655
0.00022134468
-0.00016677558
0.00020922851
-0.00020573217
0.00018516207
-0.00024652257
0.00015444361
-0.00028600717
0.00011955664
-0.00032115896
8.3147603e-05
-0.00034882155
4.7677504e-05
-0.0003666784
1.5772142e-05
-0.00037389792
-1.0921841e-05
-0.00037078884
-3.1569204e-05
-0.00035852911
-4.6105115e-05
-0.00033873058
-5.5068461e-05
-0.00031307414
-5.9175134e-05
-0.00028313211
-5.9255796e-05
-0.00025031915
-5.5906917e-05
-0.00021608738
-4.9733112e-05
-0.00018247328
-4.1300072e-05
-0.00014914901
-2.966403e-05
-0.00011610049
-1.5267364e-05
-8.9132601e-05
1.0714577e-05
-4.4016453e-07
1.1915541e-05
-2.3282504e-06
1.0364924e-05
-6.1058559e-06
7.2597908e-06
-5.888924e-06
5.5888283e-06
-6.8038588e-06
-3.2341498e-06
1.7140662e-05
-4.6784664e-06
2.6040938e-05
5.8242516e-06
5.4924211e-05
5.9915801e-05
6.7049356e-05
0.00017904371
0.00010619925
0.00038975195
0.00012474917
0.00059958629
0.00011272289
0.00053010603
5.2205827e-05
0.00024650507
-2.5761481e-05
9.2554039e-05
4.4610015e-06
0.00013885618
1.0992577e-05
0.00028885417
-2.1589016e-05
0.00041284648
-3.6406227e-05
0.00037990484
-6.9358873e-05
0.00027402488
-7.1223142e-05
0.00022830753
-7.3232684e-05
0.00023866198
-7.5973034e-05
0.00024084793
-9.476501e-05
0.00023696609
-0.0001182298
0.00023722499
-0.0001495952
0.00023028971
-0.00018783618
0.00020903803
-0.00022960888
0.00017987799
-0.00027195906
0.00014544364
-0.00031189723
0.0001076575
-0.00034567163
6.8978946e-05
-0.00037012423
3.2741173e-05
-0.00038364697
1.2540593e-06
-0.00038607236
-2.4043282e-05
-0.00037831343
-4.2700835e-05
-0.00036193281
-5.506262e-05
-0.00033873664
-6.1855781e-05
-0.00031039403
-6.4040709e-05
-0.00027834765
-6.2429522e-05
-0.00024379679
-5.7720854e-05
-0.00020809934
-5.0584318e-05
-0.00017318893
-4.1169853e-05
-0.00013764254
-2.868091e-05
-0.00010268675
-1.4269281e-05
-7.4862975e-05
7.9920768e-06
-5.1144546e-07
1.0608317e-05
8.6720648e-07
1.265691e-05
-4.6202352e-06
1.041581e-05
-9.2618634e-06
6.8878011e-06
-7.1878395e-06
5.8895e-06
-9.1530429e-06
-7.1146756e-06
1.9576775e-05
-9.5326198e-06
4.1397645e-05
2.7103123e-05
8.7737093e-05
0.00013612439
0.00010996868
0.00035691223
0.00013903861
0.00057644463
0.00014789048
0.00057878495
6.4043562e-05
0.00029443665
4.2746117e-06
7.4356334e-05
-7.5646904e-06
0.00012420965
1.9106532e-05
0.00030559714
-5.7502991e-06
0.00043548027
-4.4223189e-05
0.0004058175
-6.231919e-05
0.0002814358
-7.6769595e-05
0.00022019852
-6.3112484e-05
0.00023477596
-6.93439e-05
0.00024719877
-8.2321081e-05
0.0002470222
-0.00010481889
0.00025229053
-0.00013329376
0.00025039284
-0.00016969768
0.00023224615