/*--------------------------------*- C++ -*----------------------------------*\
| =========                 |                                                 |
| \\      /  F ield         | OpenFOAM: The Open Source CFD Toolbox           |
|  \\    /   O peration     | Version:  5.0                                   |
|   \\  /    A nd           | Web:      www.OpenFOAM.org                      |
|    \\/     M anipulation  |                                                 |
\*---------------------------------------------------------------------------*/
FoamFile
{
    version     2.0;
    format      ascii;
    class       volScalarField;
    location    "20";
    object      nut;
}
// * * * * * * * * * * * * * * * * * * * * * * * * * * * * * * * * * * * * * //

dimensions      [0 2 -1 0 0 0 0];

internalField   nonuniform List<scalar> 
9520
(
1.3183835e-150
7.8218596e-142
2.0683537e-148
2.558264e-134
1.1819386e-139
2.6785325e-146
1.4375059e-127
3.7227392e-132
1.473094e-137
2.8634404e-144
2.2195461e-121
2.0147533e-125
4.4648578e-130
1.5144518e-135
2.5275601e-142
1.2192754e-115
2.9967986e-119
2.3256997e-123
4.4139552e-128
1.2846795e-133
1.8430427e-140
2.8079258e-110
1.5862399e-113
3.3302373e-117
2.2113719e-121
3.5980772e-126
8.9963233e-132
1.1109345e-138
3.0378367e-105
3.5206381e-108
1.6973711e-111
3.0463777e-115
1.7326724e-119
2.4197445e-124
5.2046276e-130
5.5408133e-137
1.6788768e-100
3.6716862e-103
3.6284833e-106
1.4941789e-109
2.2949713e-113
1.1193598e-117
1.3436133e-122
2.4900223e-128
2.2894094e-135
5.0548198e-96
1.9565172e-98
3.6456173e-101
3.0745723e-104
1.0825925e-107
1.4247078e-111
5.9675555e-116
6.1665737e-121
9.8643024e-127
7.8488133e-134
8.72649e-92
5.6811045e-94
1.871963e-96
2.9742686e-99
2.1431088e-102
6.4602943e-106
7.2951067e-110
2.6283239e-114
2.3424514e-119
3.2409669e-125
2.2367785e-132
9.0070885e-88
9.4608841e-90
5.2391621e-92
1.4708585e-94
1.9950922e-97
1.2297325e-100
3.1782988e-104
3.0846127e-108
9.5772435e-113
7.3770036e-118
8.8486408e-124
5.3106547e-131
5.7556306e-84
9.4221723e-86
8.4117312e-88
3.9656558e-90
9.4973201e-93
1.1011478e-95
5.8149155e-99
1.2906912e-102
1.0786718e-106
2.8922674e-111
1.9300055e-116
2.0122639e-122
1.0532238e-129
2.3457138e-80
5.810918e-82
8.0786952e-84
6.1352749e-86
2.4655603e-88
5.0435217e-91
5.0063109e-94
2.2688093e-97
4.3333762e-101
3.1252647e-105
7.2543868e-110
4.2049403e-115
3.8220481e-121
1.7501735e-128
6.2562608e-77
2.2862716e-78
4.8060321e-80
5.6794093e-82
3.6739048e-84
1.2601736e-86
2.2054159e-89
1.8774215e-92
7.3164755e-96
1.2051196e-99
7.5190803e-104
1.5150484e-108
7.6513025e-114
6.0829123e-120
2.445647e-127
1.1170276e-73
5.8882962e-75
1.8244905e-76
3.2574847e-78
3.2765296e-80
1.8078203e-82
5.3016735e-85
7.9520916e-88
5.8175937e-91
1.9539576e-94
2.7826087e-98
1.5061577e-102
2.6425732e-107
1.1666836e-112
8.1427528e-119
2.885865e-126
1.3624996e-70
1.0155222e-71
4.535235e-73
1.1926027e-74
1.8110733e-76
1.5526899e-78
7.3198708e-81
1.8386706e-83
2.3687158e-86
1.4926635e-89
4.3321767e-93
5.3492347e-97
2.5198754e-101
3.8631349e-106
1.4967091e-111
9.2083535e-118
2.8895008e-125
1.1564395e-67
1.1968675e-68
7.5514208e-70
2.8598358e-71
6.391769e-73
8.2676453e-75
6.0525304e-77
2.4425571e-79
5.2668699e-82
5.8415327e-85
3.1793591e-88
7.9970556e-92
8.589979e-96
3.5342914e-100
4.7530985e-105
1.6228996e-110
8.8419273e-117
2.468514e-124
6.9469449e-65
9.8188815e-66
8.5950975e-67
4.5950822e-68
1.4779873e-69
2.8117471e-71
3.1036816e-73
1.943914e-75
6.7309109e-78
1.2489523e-80
1.1959207e-83
5.6388612e-87
1.233398e-90
1.1567616e-94
4.1739193e-99
4.9458463e-104
1.4953069e-109
7.2508124e-116
1.8106404e-123
3.0003957e-62
5.7030164e-63
6.8120734e-64
5.0486889e-65
2.2906889e-66
6.2671918e-68
1.0168454e-69
9.5976324e-72
5.1552206e-74
1.535416e-76
2.4588047e-79
2.0390072e-82
8.3581684e-86
1.5958756e-89
1.3123417e-93
4.1716669e-98
4.3768237e-103
1.1778549e-108
5.111436e-115
1.1482469e-122
9.4574258e-60
2.3824669e-60
3.823661e-61
3.8638407e-62
2.4284993e-63
9.3660796e-65
2.1841301e-66
3.0285675e-68
2.4503881e-70
1.1317083e-72
2.9080791e-75
4.032128e-78
2.9063734e-81
1.0398229e-84
1.7406741e-88
1.2609911e-92
3.5492886e-97
3.3150261e-102
7.9861288e-108
3.119982e-114
6.3435835e-122
2.206767e-57
7.2662757e-58
1.5442825e-58
2.0949818e-59
1.7939662e-60
9.5778264e-62
3.1465648e-63
6.2676893e-65
7.446765e-67
5.1788218e-69
2.0630577e-71
4.5891597e-74
5.5301605e-77
3.4789795e-80
1.0912881e-83
1.6094454e-87
1.0325127e-91
2.5876583e-96
2.1641957e-101
4.6957283e-107
1.6618576e-113
3.0775421e-121
3.8698032e-55
1.6412362e-55
4.5550446e-56
8.1762731e-57
9.3921384e-58
6.8269961e-59
3.1029277e-60
8.7029244e-62
1.4847669e-63
1.5158122e-65
9.0906694e-68
3.1345257e-70
6.0597792e-73
6.3735236e-76
3.5158373e-79
9.7179852e-83
1.2695321e-86
7.2539113e-91
1.6284761e-95
1.2272013e-100
2.4134774e-106
7.7873289e-113
1.3218635e-120
5.1633867e-53
2.7869666e-53
9.9545195e-54
2.3313764e-54
3.5407199e-55
3.4500529e-56
2.133586e-57
8.2748138e-59
1.9870032e-60
2.9119959e-62
2.5632304e-64
1.3304589e-66
3.9870977e-69
6.7284982e-72
6.2069052e-75
3.0179629e-78
7.3917458e-82
8.6038974e-86
4.4056366e-90
8.9159047e-95
6.0932327e-100
1.0932024e-105
3.2364677e-112
5.0670502e-120
5.3242589e-51
3.6025341e-51
1.636085e-51
4.9273237e-52
9.7560549e-53
1.255902e-53
1.0405099e-54
5.4879304e-56
1.8215436e-57
3.7563004e-59
4.7456768e-61
3.6153178e-63
1.6311034e-65
4.2678003e-68
6.3188616e-71
5.139974e-74
2.2155852e-77
4.8374737e-81
5.0486496e-85
2.3316349e-89
4.2814613e-94
2.6707563e-99
4.3992242e-105
1.2023952e-111
1.7465479e-119
4.2895498e-49
3.5999652e-49
2.0478816e-49
7.8350037e-50
1.9932617e-50
3.3429454e-51
3.6565307e-52
2.5824043e-53
1.1651966e-54
3.3205114e-56
5.9023115e-58
6.4537887e-60
4.2741393e-62
1.6841069e-64
3.8675864e-67
5.0519277e-70
3.6451574e-73
1.401525e-76
2.7453621e-80
2.5856888e-84
1.0841e-88
1.8179333e-93
1.041644e-98
1.5848454e-104
4.0222882e-111
5.4504604e-119
2.7504519e-47
2.8121516e-47
1.9822585e-47
9.4920195e-48
3.0653219e-48
6.6002127e-49
9.4001597e-50
8.759531e-51
5.2904686e-52
2.0489975e-53
5.0327612e-55
7.7428592e-57
7.3613944e-59
4.2591409e-61
1.4736492e-63
2.9874448e-66
3.4637235e-69
2.2307986e-72
7.7003308e-76
1.3620754e-79
1.1652739e-83
4.4638101e-88
6.8784582e-93
3.6418111e-98
5.1471738e-104
1.2195202e-110
1.5493816e-118
1.4199121e-45
1.7483031e-45
1.5006897e-45
8.8962178e-46
3.5927011e-46
9.8134784e-47
1.793044e-47
2.1746316e-48
1.73217e-49
8.9781294e-51
2.9968814e-52
6.3715539e-54
8.5252713e-56
7.0835812e-58
3.6007379e-60
1.1004776e-62
1.9816956e-65
2.0524657e-68
1.1876454e-71
3.7044751e-75
5.9555691e-79
4.6573391e-83
1.6400156e-87
2.3358021e-92
1.1490665e-97
1.5165045e-103
3.3708098e-110
4.0340518e-118
5.8328916e-44
8.7644404e-44
9.041632e-44
6.524152e-44
3.2592065e-44
1.1122887e-44
2.5769547e-45
4.0069478e-46
4.1527588e-47
2.83795e-48
1.2677044e-49
3.6632768e-51
6.7751903e-53
7.9258704e-55
5.7890659e-57
2.6011624e-59
7.0673833e-62
1.1378332e-64
1.0596701e-67
5.5449132e-71
1.5729275e-74
2.312586e-78
1.6629833e-82
5.4136707e-87
7.1650879e-92
3.2917686e-97
4.0764348e-103
8.5399872e-110
9.6704304e-118
2.4830498e-42
3.4888663e-42
4.3998353e-42
3.8078797e-42
2.3142565e-42
9.764141e-43
2.82368e-43
5.5656547e-44
7.3918654e-45
6.5714691e-46
3.8701646e-47
1.4967988e-48
3.7637971e-50
6.0886274e-52
6.2649133e-54
4.0477418e-56
1.6182415e-58
3.9345222e-61
5.7009867e-64
4.8050824e-67
2.2881564e-70
5.9388936e-74
8.0317705e-78
5.3404047e-82
1.6156912e-86
1.9971514e-91
8.6101624e-97
1.0051786e-102
1.9938114e-109
2.1458534e-117
8.1126643e-39
1.4344281e-40
1.6962585e-40
1.7979512e-40
1.3080642e-40
6.7099097e-41
2.3980191e-41
5.8947393e-42
9.9228175e-43
1.130234e-43
8.6587049e-45
4.4159562e-46
1.4865895e-47
3.2711129e-49
4.6570322e-51
4.2419411e-53
2.4407102e-55
8.7400475e-58
1.9142835e-60
2.5124061e-63
1.9284484e-66
8.4067481e-70
2.0077777e-73
2.5111772e-77
1.5518806e-81
4.3851708e-86
5.0870618e-91
2.0678871e-96
2.2865498e-102
4.3143354e-109
4.433783e-117
1.4953454e-34
3.7005946e-37
6.7339482e-39
6.7099778e-39
5.9901682e-39
3.6717997e-39
1.5942517e-39
4.8420604e-40
1.0158489e-40
1.466534e-41
1.4395702e-42
9.5512564e-44
4.2416877e-45
1.2500403e-46
2.4221941e-48
3.0549141e-50
2.4802464e-52
1.279484e-54
4.1313895e-57
8.203513e-60
9.8124917e-63
6.8989878e-66
2.768519e-69
6.1163936e-73
7.1110367e-77
4.1048603e-81
1.0887065e-85
1.1911105e-90
4.5877845e-96
4.8285239e-102
8.7091103e-109
8.5880536e-117
4.6235044e-31
6.1105347e-33
1.3720976e-35
2.5713222e-37
2.1632018e-37
1.6300888e-37
8.4441421e-38
3.1135931e-38
8.0696992e-39
1.4515751e-39
1.8061556e-40
1.5359738e-41
8.876071e-43
3.452623e-44
8.9648647e-46
1.539993e-47
1.7327205e-49
1.2625193e-51
5.8785989e-54
1.7224518e-56
3.1195967e-59
3.4201814e-62
2.2146642e-65
8.2238285e-69
1.6892599e-72
1.8348531e-76
9.9437697e-81
2.4881198e-85
2.5805943e-90
9.467267e-96
9.5336088e-102
1.6522849e-108
1.5712823e-116
3.672441e-28
1.7889952e-29
2.0142351e-31
4.1361376e-34
7.998775e-36
5.6946363e-36
3.6327983e-36
1.5958005e-36
5.018906e-37
1.1151399e-37
1.7293212e-38
1.8644684e-39
1.3817506e-40
6.9963016e-42
2.3992297e-43
5.5263037e-45
8.4761399e-47
8.5672847e-49
5.6400885e-51
2.3853388e-53
6.3803676e-56
1.0599577e-58
1.070905e-61
6.4196953e-65
2.217258e-68
4.256508e-72
4.3421814e-76
2.2211461e-80
5.2721086e-85
5.212474e-90
1.8314807e-95
1.7742772e-101
2.9703747e-108
2.7378596e-116
9.4288432e-26
1.3754868e-26
5.5695016e-28
5.3581254e-30
1.0182888e-32
2.0306127e-34
1.2274584e-34
6.6511908e-35
2.4883833e-35
6.7096499e-36
1.2850913e-36
1.7280922e-37
1.6239792e-38
1.0552312e-39
4.7124281e-41
1.4345282e-42
2.9525415e-44
4.0719779e-46
3.7224021e-48
2.228031e-50
8.6101185e-53
2.1142538e-55
3.2391416e-58
3.0315934e-61
1.6912721e-64
5.4621496e-68
9.8537391e-72
9.4944034e-76
4.6108208e-80
1.0442927e-84
9.8998063e-90
3.3505385e-95
3.1397842e-101
5.1038073e-108
4.5813312e-116
8.9771122e-24
3.4689885e-24
4.1407445e-25
1.3960357e-26
1.1535396e-28
2.051463e-31
4.2173239e-33
2.173383e-33
1.0047168e-33
3.2174937e-34
7.4841016e-35
1.2428819e-35
1.4583377e-36
1.2018541e-37
6.8927249e-39
2.7337355e-40
7.4418013e-42
1.3784797e-43
1.7211376e-45
1.4319429e-47
7.8391996e-50
2.7836882e-52
6.3093363e-55
8.9618089e-58
7.8119422e-61
4.0783876e-64
1.2387754e-67
2.1126605e-71
1.9345277e-75
8.9746266e-80
1.9514334e-84
1.7843144e-89
5.8495816e-95
5.3302272e-101
8.4530226e-108
7.4207409e-116
3.4763254e-22
3.2651891e-22
1.026353e-22
1.0027089e-23
2.8240701e-25
2.0136103e-27
3.3980631e-30
7.1875527e-32
3.1750945e-32
1.2586712e-32
3.4712474e-33
7.0117823e-34
1.0159294e-34
1.0466078e-35
7.6143073e-37
3.8811295e-38
1.3773081e-39
3.3772999e-41
5.6692542e-43
6.4486928e-45
4.9122232e-47
2.4736557e-49
8.1164217e-52
1.7073548e-54
2.2610759e-57
1.8463974e-60
9.0757081e-64
2.6090244e-67
4.2336912e-71
3.7081401e-75
1.6538071e-79
3.4733644e-84
3.0806443e-89
9.8337096e-95
8.7539554e-101
1.3599565e-107
1.1717363e-115
5.9270037e-21
1.2517735e-20
9.5668641e-21
2.4440707e-21
1.9573613e-22
4.6200528e-24
2.860214e-26
4.6441396e-29
1.0095615e-30
3.8475564e-31
1.3160489e-31
3.1467586e-32
5.5577863e-33
7.0682624e-34
6.4355914e-35
4.161993e-36
1.8996498e-37
6.0769066e-39
1.351694e-40
2.0692596e-42
2.1573465e-44
1.5133609e-46
7.0504451e-49
2.1498154e-51
4.2220127e-54
5.2450562e-57
4.0382003e-60
1.8812457e-63
5.1530412e-67
8.009774e-71
6.7541823e-75
2.9137682e-79
5.9442905e-84
5.1400849e-89
1.6047991e-94
1.4010931e-100
2.1393114e-107
1.8139974e-115
4.2744764e-20
2.1122928e-19
3.6387708e-19
2.2601908e-19
4.6933948e-20
3.0869923e-21
6.1334041e-23
3.3176217e-25
5.2861287e-28
1.1751528e-29
3.8931624e-30
1.1567022e-30
2.4152095e-31
3.7534615e-32
4.2169891e-33
3.4168522e-34
1.9791665e-35
8.1503228e-37
2.3672054e-38
4.806895e-40
6.7522741e-42
6.4909571e-44
4.2184868e-46
1.8291829e-48
5.2156898e-51
9.625014e-54
1.1292727e-56
8.2540759e-60
3.6699156e-63
9.6443395e-67
1.4454291e-70
1.1806483e-74
4.9540558e-79
9.8652281e-84
8.3520544e-89
2.5597002e-94
2.1984043e-100
3.3072704e-107
2.7653302e-115
5.6996802e-20
1.5228897e-18
6.0853924e-18
8.5493004e-18
4.313543e-18
7.28462e-19
3.9472925e-20
6.6333919e-22
3.1641127e-24
5.0760222e-27
1.1417278e-28
3.3139547e-29
8.6130216e-30
1.5810656e-30
2.1756345e-31
2.1739774e-32
1.5793707e-33
8.2573664e-35
3.0905548e-36
8.2032581e-38
1.5302635e-39
1.9846765e-41
1.7703091e-43
1.0727396e-45
4.3581437e-48
1.1700473e-50
2.0433354e-53
2.2804592e-56
1.5937669e-59
6.8100195e-63
1.7282219e-66
2.5124165e-70
1.9984945e-74
8.1942444e-79
1.5990166e-83
1.3297605e-88
4.0113221e-94
3.3964165e-100
5.0428586e-107
4.1633247e-115
2.0680463e-18
5.700389e-20
4.3855909e-17
1.4195101e-16
1.6265746e-16
6.6657902e-17
9.1702502e-18
4.1107126e-19
5.881101e-21
2.5057111e-23
4.2024701e-26
9.3339334e-28
2.3925137e-28
5.4741063e-29
8.8924435e-30
1.0904316e-30
9.7641101e-32
6.409962e-33
3.0480488e-34
1.0438007e-35
2.5482532e-37
4.3951138e-39
5.2983438e-41
4.415237e-43
2.5122598e-45
9.6323529e-48
2.4530287e-50
4.0841453e-53
4.3672955e-56
2.9386042e-59
1.2144382e-62
2.9933698e-66
4.2423582e-70
3.3004036e-74
1.3270232e-78
2.5448908e-83
2.0837013e-88
6.1983516e-94
5.1813856e-100
7.6008579e-107
6.2009518e-115
6.0497946e-17
2.0682831e-18
4.2764925e-20
1.0229073e-15
2.6868629e-15
2.5122171e-15
8.3691403e-16
9.4058159e-17
3.5088704e-18
4.3106609e-20
1.6747118e-22
2.9888706e-25
6.4772995e-27
1.4763238e-27
2.9912468e-28
4.328747e-29
4.7636386e-30
3.8536651e-31
2.303945e-32
1.0033882e-33
3.1645824e-35
7.1537343e-37
1.1489264e-38
1.2967749e-40
1.0171944e-42
5.4766716e-45
1.997142e-47
4.8611823e-50
7.7724446e-53
8.0174579e-56
5.2258718e-59
2.1001838e-62
5.0512029e-66
7.0061585e-70
5.3475123e-74
2.113705e-78
3.9913338e-83
3.2224748e-88
9.4636902e-94
7.816845e-100
1.1336252e-106
9.1427728e-115
1.4296185e-15
6.0504179e-17
1.5236039e-18
5.929381e-21
1.9372797e-14
4.137891e-14
3.1604937e-14
8.5762308e-15
7.9102791e-16
2.4751545e-17
2.6483954e-19
9.696781e-22
1.8150503e-24
3.8457961e-26
7.8436782e-27
1.4155398e-27
1.8381368e-28
1.8296241e-29
1.3484185e-30
7.3944259e-32
2.969484e-33
8.6856893e-35
1.8318413e-36
2.7608951e-38
2.9410936e-40
2.1892716e-42
1.1243849e-44
3.9299503e-47
9.2091097e-50
1.423299e-52
1.4244909e-55
9.0394318e-59
3.5474642e-62
8.353826e-66
1.1370404e-69
8.5320719e-74
3.320416e-78
6.1807835e-83
4.9248924e-88
1.4287761e-93
1.1665693e-99
1.6729521e-106
1.3340642e-114
2.7355927e-14
1.4297511e-15
4.387628e-17
2.1131284e-19
3.4773487e-22
2.988367e-13
5.2030637e-13
3.2532291e-13
7.2174462e-14
5.4998321e-15
1.46099e-16
1.3903663e-18
5.0532265e-21
9.4930155e-24
1.9675016e-25
3.613849e-26
5.8449097e-27
6.8681185e-28
6.2352571e-29
4.218874e-30
2.1368018e-31
7.970166e-33
2.1793152e-34
4.3238726e-36
6.1679726e-38
6.2546586e-40
4.4553155e-42
2.1998625e-44
7.4222408e-47
1.6849209e-49
2.5307439e-52
2.4685153e-55
1.5305661e-58
5.8823559e-62
1.3592492e-65
1.8184224e-69
1.3429914e-73
5.1497551e-78
9.4546436e-83
7.4377896e-88
2.13207e-93
1.7209525e-99
2.4406017e-106
1.9244033e-114
4.2512397e-13
2.7358223e-14
1.0233775e-15
6.0877228e-18
1.2521285e-20
8.9787611e-24
3.7688556e-12
5.3653915e-12
2.7562928e-12
5.0285221e-13
3.1996038e-14
7.3450299e-16
6.4196803e-18
2.3521894e-20
4.3094933e-23
8.7328654e-25
1.4546546e-25
2.1239584e-26
2.2794201e-27
1.9025022e-28
1.1904689e-29
5.610206e-31
1.9600154e-32
5.0543854e-34
9.5196838e-36
1.2968983e-37
1.2627781e-39
8.6759155e-42
4.1471592e-44
1.3586712e-46
3.0024551e-49
4.3996147e-52
4.1949917e-55
2.5472158e-58
9.602848e-62
2.1798067e-65
2.8683375e-69
2.0858498e-73
7.8822258e-78
1.4274421e-82
1.1087139e-87
3.1401703e-93
2.5056528e-99
3.5138403e-106
2.7397138e-114
5.3846601e-12
4.251547e-13
1.9381655e-14
1.4200303e-16
3.6397284e-19
3.2657382e-22
9.4290326e-26
3.9042893e-11
4.5632775e-11
1.9371644e-11
2.9327442e-12
1.583547e-13
3.2275428e-15
2.7018376e-17
9.6126364e-20
1.7095722e-22
3.3878475e-24
5.1591786e-25
6.860417e-26
6.7827565e-27
5.2436694e-28
3.0578648e-29
1.3525326e-30
4.4676999e-32
1.0969925e-33
1.979942e-35
2.5991244e-37
2.4493704e-39
1.6341189e-41
7.6034543e-44
2.4291317e-46
5.2422712e-49
7.5115856e-52
7.0124997e-55
4.1742481e-58
1.5445789e-61
3.4452141e-65
4.4592136e-69
3.1924797e-73
1.1886565e-77
2.1229959e-82
1.6278336e-87
4.554755e-93
3.5925974e-99
4.9819303e-106
3.8413326e-114
5.5823298e-11
5.3849416e-12
2.9897179e-13
2.6878132e-15
8.5513529e-18
9.568219e-21
3.468981e-24
3.671702e-28
3.3412587e-10
3.2240942e-10
1.1410986e-10
1.4534232e-11
6.8236212e-13
1.2749174e-14
1.0347263e-16
3.4574905e-19
5.9715293e-22
1.158982e-23
1.6282493e-24
1.9893779e-25
1.8264513e-26
1.3179381e-27
7.2282778e-29
3.0304812e-30
9.5607959e-32
2.2573313e-33
3.9402758e-35
5.023965e-37
4.6121537e-39
3.0029489e-41
1.3650469e-43
4.2632078e-46
8.9988697e-49
1.2619893e-51
1.1539583e-54
6.7341617e-58
2.4452685e-61
5.3575771e-65
6.8179381e-69
4.8033683e-73
1.7614511e-77
3.1020286e-82
2.3476653e-87
6.489072e-93
5.0597719e-99
6.9394771e-106
5.2794972e-114
4.7605024e-10
5.5824837e-11
3.770533e-12
4.1393177e-14
1.6269487e-16
2.2604538e-19
1.0263165e-22
1.3751687e-26
4.6211458e-31
2.3785196e-09
1.909641e-09
5.7101432e-10
6.2453585e-11
2.6278078e-12
4.6362269e-14
3.546242e-16
1.1021299e-18
1.8552811e-21
3.5336466e-23
4.6200368e-24
5.229324e-25
4.4938065e-26
3.0546595e-27
1.5921704e-28
6.3945347e-30
1.9466298e-31
4.4612052e-33
7.5913347e-35
9.4600989e-37
8.4985782e-39
5.4162703e-41
2.4094046e-43
7.3616e-46
1.5200175e-48
2.0856134e-51
1.8668824e-54
1.0673311e-57
3.8004555e-61
8.1734296e-65
1.022008e-68
7.0817752e-73
2.556933e-77
4.4393701e-82
3.3161444e-87
9.0556757e-93
6.9822436e-99
9.4659528e-106
7.0851366e-114
3.358832e-09
4.7605026e-10
3.9059607e-11
5.2047702e-13
2.5127865e-15
4.3139986e-18
2.4439153e-21
4.1396146e-25
1.7880021e-29
1.4939092e-34
1.4196962e-08
9.5912204e-09
2.4704282e-09
2.3817051e-10
9.2469173e-12
1.5394165e-13
1.0904619e-15
3.1462544e-18
5.1927062e-21
9.708631e-23
1.1902246e-23
1.2582337e-24
1.0217085e-25
6.6136593e-27
3.312644e-28
1.2880338e-29
3.8200692e-31
8.565462e-33
1.429375e-34
1.7479645e-36
1.540206e-38
9.6168417e-41
4.1860683e-43
1.2503262e-45
2.5226724e-48
3.3825532e-51
2.9604729e-54
1.6563657e-57
5.7779267e-61
1.2187949e-64
1.496569e-68
1.0195843e-72
3.6242803e-77
6.2045286e-82
4.5756723e-87
1.2349439e-92
9.4206102e-99
1.2579464e-105
9.2750206e-114
1.9737163e-08
3.3587086e-09
3.3425866e-10
5.3669737e-12
3.1611692e-14
6.6664509e-17
4.6930663e-20
1.002403e-23
5.5660953e-28
6.1042444e-33
8.1003988e-39
7.1672271e-08
4.142675e-08
9.4294562e-09
8.2447978e-10
2.9998381e-11
4.6485947e-13
3.0350196e-15
8.1583367e-18
1.3254298e-20
2.4282942e-22
2.8113239e-23
2.8027073e-24
2.1749174e-25
1.3563149e-26
6.5998859e-28
2.5087937e-29
7.3065364e-31
1.612055e-32
2.6475536e-34
3.1823723e-36
2.7506067e-38
1.6809534e-40
7.1482525e-43
2.0833863e-45
4.099862e-48
5.3631989e-51
4.5830486e-54
2.5065023e-57
8.5585296e-61
1.7697547e-64
2.1334646e-68
1.4290737e-72
5.0029056e-77
8.4491227e-82
6.1554262e-87
1.6430621e-92
1.237619e-98
1.6274817e-105
1.1840933e-113
9.7299464e-08
1.9735267e-08
2.3793501e-09
4.5643078e-11
3.2538288e-13
8.3698096e-16
7.2841139e-19
1.9567625e-22
1.3951265e-26
2.0120039e-31
3.6946993e-37
2.4808939e-42
3.0861828e-07
1.5636292e-07
3.2431325e-08
2.6263307e-09
8.9522713e-11
1.2848845e-12
7.7405532e-15
1.9499491e-17
3.1136785e-20
5.5831995e-22
6.1576352e-23
5.858057e-24
4.3964207e-25
2.6711201e-26
1.2753272e-27
4.7768168e-29
1.3735837e-30
2.9911997e-32
4.8395502e-34
5.7136803e-36
4.8352143e-38
2.8849927e-40
1.1954101e-42
3.3912783e-45
6.4952676e-48
8.2752799e-51
6.8958009e-54
3.6835317e-57
1.2306452e-60
2.4944751e-64
2.9530327e-68
1.945812e-72
6.7141482e-77
1.1196225e-81
8.0656461e-87
2.1309489e-92
1.5805234e-98
2.0505963e-105
1.4749201e-113
4.0535365e-07
9.7281419e-08
1.4200786e-08
3.2243972e-10
2.7566384e-12
8.576527e-15
9.169481e-18
3.0860805e-21
2.8222514e-25
5.3519307e-30
1.3697872e-35
1.433079e-40
5.8275878e-44
1.140235e-06
5.2420717e-07
1.0187667e-07
7.7314784e-09
2.4725484e-10
3.2851446e-12
1.8328795e-14
4.3413416e-17
6.7822961e-20
1.1933512e-21
1.267575e-22
1.1654228e-23
8.556416e-25
5.1158979e-26
2.4154655e-27
8.9610493e-29
2.5508487e-30
5.4845842e-32
8.7285546e-34
1.0094319e-35
8.3360293e-38
4.8396987e-40
1.9479545e-42
5.3653146e-45
9.9823183e-48
1.2370687e-50
1.0045425e-53
5.240065e-57
1.7133612e-60
3.406285e-64
3.9632736e-68
2.5715726e-72
8.7569363e-77
1.4436394e-81
1.0296498e-86
2.6851059e-92
1.9642531e-98
2.5192464e-105
4.221082e-121
1.433335e-06
4.0522972e-07
7.1681991e-08
1.9094358e-09
1.9371819e-11
7.217053e-14
9.4046276e-17
3.9461263e-20
4.6172107e-24
1.1522284e-28
4.1290021e-34
6.7271392e-39
3.4854363e-42
1.4185625e-45
3.6191168e-06
1.56687e-06
2.9430669e-07
2.1205103e-08
6.3780558e-10
7.8646934e-12
4.0740531e-14
9.0610239e-17
1.3822702e-19
2.4031007e-21
2.4880183e-22
2.2373528e-23
1.6233601e-24
9.6265514e-26
4.51702e-27
1.6633741e-28
4.6861149e-30
9.9257235e-32
1.5483536e-33
1.7468159e-35
1.4019627e-37
7.8913122e-40
3.076387e-42
8.2098982e-45
1.4820004e-47
1.7855925e-50
1.4131652e-53
7.2031742e-57
2.3073298e-60
4.5047021e-64
5.1585779e-68
3.3008878e-72
1.1110098e-76
1.8133202e-81
1.2805124e-86
3.2924168e-92
2.3802946e-98
1.0275545e-112
7.5798028e-130
4.2937341e-06
1.4326575e-06
3.0859511e-07
9.588338e-09
1.1408615e-10
5.0274249e-13
7.9085766e-16
4.1093565e-19
6.1297017e-23
2.0114252e-27
1.0165915e-32
2.5685541e-37
1.6944693e-40
8.7554614e-44
2.7477443e-47
9.7913707e-06
4.1743011e-06
7.8642767e-07
5.4712829e-08
1.5517119e-09
1.78061e-11
8.5564381e-14
1.7850062e-16
2.6681433e-19
4.6253674e-21
4.7209975e-22
4.1960555e-23
3.0320273e-24
1.7917734e-25
8.3699697e-27
3.0568595e-28
8.4982341e-30
1.7657458e-31
2.6869829e-33
2.9433916e-35
2.2864936e-37
1.2438423e-39
4.6867925e-42
1.2105587e-44
2.1197924e-47
2.4844825e-50
1.9184622e-53
9.5692203e-57
3.0078992e-60
5.7772199e-64
6.5231464e-68
4.1236837e-72
1.3741247e-76
2.2238726e-81
1.5507586e-86
3.9392615e-92
1.3846177e-105
2.8176884e-121
5.2362137e-140
1.0822002e-05
4.2909778e-06
1.1398328e-06
4.1407178e-08
5.7079669e-10
2.9313146e-12
5.4978383e-15
3.5073711e-18
6.6291371e-22
2.8572014e-26
2.0482591e-31
7.989699e-36
6.7024563e-39
4.3950139e-42
1.7464531e-45
4.2852077e-49
2.2279334e-05
9.8359231e-06
1.9457612e-06
1.3384715e-07
3.5874627e-09
3.8318142e-11
1.7069997e-13
3.3535613e-16
4.9472526e-19
8.626403e-21
8.7653318e-22
7.7616769e-23
5.6099658e-24
3.3082537e-25
1.5364286e-26
5.5455707e-28
1.5140455e-29
3.0695144e-31
4.5330905e-33
4.8002328e-35
3.5972709e-37
1.8873354e-39
6.8675241e-42
1.7171093e-44
2.919655e-47
3.3339964e-50
2.5166849e-53
1.2310206e-56
3.8053539e-60
7.2055964e-64
8.0380149e-68
5.0294627e-72
1.6618841e-76
2.6644828e-81
1.8349235e-86
3.2683366e-99
5.801416e-114
3.153084e-131
6.9388085e-152
2.2831269e-05
1.0813799e-05
3.616654e-06
1.5626906e-07
2.4691923e-09
1.4524506e-11
3.1975694e-14
2.4737406e-17
5.8766084e-21
3.3140971e-25
3.3930481e-30
2.0282025e-34
2.16065e-37
1.7958627e-40
9.0314252e-44
2.8090997e-47
5.3187909e-51
4.2448177e-05
2.0300786e-05
4.4401386e-06
3.1170654e-07
7.9052321e-09
7.8624506e-11
3.2604597e-13
6.090126e-16
8.9415533e-19
1.5775997e-20
1.6072254e-21
1.4241869e-22
1.0305066e-23
6.0530684e-25
2.7838842e-26
9.8780095e-28
2.6334448e-29
5.1810072e-31
7.391227e-33
7.5404854e-35
5.4404911e-37
2.7512088e-39
9.6727541e-42
2.3445494e-44
3.8789103e-47
4.3259044e-50
3.2002948e-53
1.5389843e-56
4.6897151e-60
8.7739385e-64
9.688656e-68
6.0112065e-72
1.9725708e-76
3.1244193e-81
2.1686077e-93
2.0909406e-107
1.0558871e-123
6.8301187e-143
1.764216e-165
4.0676681e-05
2.2813102e-05
9.7810749e-06
5.2380009e-07
9.4223215e-09
6.2405641e-11
1.5822492e-13
1.4597402e-16
4.3067978e-20
3.160571e-24
4.6375281e-29
4.2121188e-33
5.6876224e-36
5.982863e-39
3.8033342e-42
1.4989563e-45
3.5960083e-49
5.1580569e-53
6.8976237e-05
3.6591223e-05
9.2901714e-06
6.9007538e-07
1.6615025e-08
1.5464559e-10
6.0306947e-13
1.0849968e-15
1.5981283e-18
2.8543472e-20
2.9258337e-21
2.5960351e-22
1.8762324e-23
1.0929346e-24
4.9505369e-26
1.7166846e-27
4.4441358e-29
8.4451917e-31
1.1599497e-32
1.1380024e-34
7.9022537e-37
3.8550672e-39
1.3120018e-41
3.0905068e-44
4.9890259e-47
5.4497016e-50
3.9623507e-53
1.8781709e-56
5.6551431e-60
1.047486e-63
1.1469741e-67
7.0673431e-72
2.2976395e-76
5.2486101e-88
2.1150372e-101
6.2026851e-117
3.8027554e-135
2.4611201e-156
2.6722017e-180
6.2907228e-05
4.0645768e-05
2.224809e-05
1.5647834e-06
3.2394481e-08
2.3793784e-10
6.8174867e-13
7.337386e-16
2.6452533e-19
2.5027109e-23
5.2787241e-28
7.1783886e-32
1.2258907e-34
1.6280191e-37
1.3064282e-40
6.5161991e-44
1.9799436e-47
3.5985589e-51
3.8658205e-55
9.9645852e-05
5.8252611e-05
1.7636041e-05
1.4451995e-06
3.3390744e-08
2.9411091e-10
1.094928e-12
1.9258019e-15
2.8594494e-18
5.1330044e-20
5.2926736e-21
4.6900327e-22
3.3703467e-23
1.9360969e-24
8.586625e-26
2.8940385e-27
7.2421931e-29
1.3251043e-30
1.7494398e-32
1.6503266e-34
1.1042192e-36
5.2079634e-39
1.7205161e-41
3.9508192e-44
6.2427007e-47
6.6991037e-50
4.8000493e-53
2.2480452e-56
6.7018702e-60
1.2310958e-63
1.3385437e-67
8.1956499e-72
5.471358e-83
7.7843557e-96
1.023249e-110
3.7686346e-128
2.0108976e-148
4.4006364e-171
6.0458829e-196
8.7605285e-05
6.2865244e-05
4.2376674e-05
4.1664049e-06
1.0171278e-07
8.2333309e-10
2.6249936e-12
3.2239839e-15
1.3884356e-18
1.6721672e-22
5.0687971e-27
1.008243e-30
2.170528e-33
3.6280337e-36
3.6670283e-39
2.3113062e-42
8.8852713e-46
2.0454833e-49
2.7839025e-53
2.2045154e-57
0.00013332242
8.377979e-05
3.0114968e-05
2.8496518e-06
6.4555941e-08
5.4702946e-10
1.9801546e-12
3.453861e-15
5.162367e-18
9.1760618e-20
9.4874176e-21
8.3573836e-22
5.9389624e-23
3.3455836e-24
1.4452952e-25
4.7145987e-27
1.1371679e-28
2.0006083e-30
2.5389724e-32
2.3061037e-34
1.4902194e-36
6.8151614e-39
2.1926167e-41
4.9241787e-44
7.6390814e-47
8.0753055e-50
5.7156191e-53
2.6500799e-56
7.8348271e-60
1.4291533e-63
1.5446699e-67
2.757521e-78
1.2298366e-90
6.138094e-105
1.0614161e-121
3.0314601e-141
4.3315176e-163
1.0649522e-186
3.4873034e-212
0.00011358862
8.7558499e-05
6.8848355e-05
9.8124446e-06
2.9365786e-07
2.6214027e-09
9.2335577e-12
1.273314e-14
6.4103236e-18
9.6801439e-22
4.1956159e-26
1.1735906e-29
3.1708473e-32
6.6422628e-35
8.4328362e-38
6.7010412e-41
3.2550184e-44
9.4803174e-48
1.6341772e-51
1.639448e-55
9.447912e-60
0.00016995453
0.00011176024
4.6371379e-05
5.2786457e-06
1.2116617e-07
1.0080365e-09
3.6172555e-12
6.3195059e-15
9.4312922e-18
1.6253107e-19
1.6758988e-20
1.4609817e-21
1.0213072e-22
5.6155712e-24
2.3543119e-25
7.4144452e-27
1.7217928e-28
2.9131248e-30
3.5587135e-32
3.1193219e-34
1.9524473e-36
8.6856459e-39
2.7300185e-41
6.0140294e-44
9.1841113e-47
9.5852906e-50
6.7141403e-53
3.0864784e-56
9.0599219e-60
1.642595e-63
7.3182194e-74
9.3575124e-86
1.5773776e-99
1.0965992e-115
1.345085e-134
8.0430177e-156
1.1340888e-178
6.2117897e-203
7.1587293e-229
0.00014069743
0.00011354933
9.9455506e-05
2.0246908e-05
7.8417598e-07
7.7126363e-09
2.9941998e-11
4.628703e-14
2.6974316e-17
5.0442896e-21
2.9835554e-25
1.1401931e-28
3.8423565e-31
1.0033515e-33
1.5936213e-36
1.5920867e-39
9.751153e-43
3.5880798e-46
7.8253926e-50
9.943021e-54
7.2584709e-58
2.9974348e-62
0.0002098583
0.00014149534
6.5332835e-05
9.1902969e-06
2.2321811e-07
1.8642411e-09
6.7425194e-12
1.1838794e-14
1.7420619e-17
2.8384673e-19
2.9012528e-20
2.4944529e-21
1.7086026e-22
9.141699e-24
3.7123682e-25
1.1278068e-26
2.5220096e-28
4.1085592e-30
4.8411046e-32
4.1057658e-34
2.4964567e-36
1.0834635e-38
3.3361267e-41
7.2264083e-44
1.0885662e-46
1.123586e-49
7.7991422e-53
3.5583973e-56
1.0379313e-59
1.0921105e-69
3.7331298e-81
1.9463283e-94
4.8838688e-110
2.2645995e-128
4.508547e-149
2.3059608e-171
6.7369382e-195
1.2456337e-219
1.0627472e-245
0.00016933613
0.000140689
0.00013305944
3.6492033e-05
1.9390329e-06
2.1139959e-08
8.9308375e-11
1.5362973e-13
1.0327424e-16
2.3475351e-20
1.811574e-24
9.3214844e-28
3.8878956e-30
1.2569569e-32
2.4849582e-35
3.109295e-38
2.3947484e-41
1.1108095e-44
3.061401e-48
4.9213379e-52
4.5498578e-56
2.379956e-60
6.9402512e-65
0.00025329719
0.00017285839
8.604064e-05
1.5080206e-05
4.0799015e-07
3.4941379e-09
1.2878095e-11
2.2675063e-14
3.2441557e-17
4.860843e-19
4.9070455e-20
4.1517739e-21
2.7801945e-22
1.4456545e-23
5.6833613e-25
1.6658596e-26
3.5902049e-28
5.6401134e-30
6.4233045e-32
5.2835887e-34
3.1285784e-36
1.3278052e-38
4.0137426e-41
8.564568e-44
1.2745379e-46
1.3025588e-49
8.968192e-53
4.0642441e-56
9.6538299e-66
8.3382127e-77
1.254469e-89
1.048308e-104
1.69564e-122
9.8742243e-143
1.434258e-164
1.4051411e-187
1.326139e-211
1.7826514e-236
1.5615039e-262
0.00020017094
0.00016939233
0.00016960994
5.8098981e-05
4.4226407e-06
5.4508339e-08
2.465208e-10
4.6369346e-13
3.5380947e-16
9.5907159e-20
9.4732879e-24
6.4688734e-27
3.3095531e-29
1.3142745e-31
3.2130811e-34
5.0119522e-37
4.8353659e-40
2.8198364e-43
9.8005115e-47
1.9907376e-50
2.3285845e-54
1.5425567e-58
5.6971446e-63
1.1553559e-67
0.00030041712
0.00020602022
0.00010796636
2.342858e-05
7.4534645e-07
6.6685158e-09
2.5174922e-11
4.4192884e-14
6.0743961e-17
8.1413307e-19
8.1154832e-20
6.7441279e-21
4.4128337e-22
2.2297294e-23
8.4855203e-25
2.4005246e-26
4.9896672e-28
7.5683526e-30
8.3444299e-32
6.6694921e-34
3.8531648e-36
1.602027e-38
4.7616828e-41
1.0022477e-43
1.4750144e-46
1.4938891e-49
1.0209761e-52
5.2725492e-62
1.0985735e-72
4.5075178e-85
1.177333e-99
6.2920491e-117
9.9455811e-137
3.5355208e-158
9.0329183e-181
2.7289594e-204
1.8367132e-228
2.5125188e-253
2.2775763e-279
0.00023393498
0.00020032895
0.00020943534
8.3583504e-05
9.2518461e-06
1.3326262e-07
6.3554603e-10
1.2810059e-12
1.0874801e-15
3.4483568e-19
4.2997007e-23
3.840954e-26
2.3894549e-28
1.1551906e-30
3.46657e-33
6.700442e-36
8.0585406e-39
5.8866238e-42
2.5734739e-45
6.5915834e-49
9.7438765e-53
8.1666606e-57
3.819484e-61
9.8090416e-66
1.3612627e-70
0.00035126954
0.00024129813
0.00013101528
3.4610207e-05
1.3640955e-06
1.2964415e-08
5.0111978e-11
8.7142065e-14
1.1421545e-16
1.3371695e-18
1.3156557e-19
1.0737439e-20
6.8659625e-22
3.3704934e-23
1.2410426e-24
3.387696e-26
6.7921816e-28
9.9535811e-30
1.0635537e-31
8.2707939e-34
4.6685202e-36
1.9040723e-38
5.5716209e-41
1.1579473e-43
1.6868223e-46
1.6943668e-49
1.8426322e-58
8.9067341e-69
9.5093676e-81
7.3697699e-95
1.2512012e-111
5.1568485e-131
4.0706829e-152
2.3194277e-174
1.7394709e-197
3.6710494e-221
2.4917649e-245