/*--------------------------------*- C++ -*----------------------------------*\
| =========                 |                                                 |
| \\      /  F ield         | OpenFOAM: The Open Source CFD Toolbox           |
|  \\    /   O peration     | Version:  5.0                                   |
|   \\  /    A nd           | Web:      www.OpenFOAM.org                      |
|    \\/     M anipulation  |                                                 |
\*---------------------------------------------------------------------------*/
FoamFile
{
    version     2.0;
    format      ascii;
    class       volScalarField;
    location    "20";
    object      nuTilda_0;
}
// * * * * * * * * * * * * * * * * * * * * * * * * * * * * * * * * * * * * * //

dimensions      [0 2 -1 0 0 0 0];

internalField   nonuniform List<scalar> 
9520
(
2.5643542e-41
4.0033541e-39
9.0816633e-41
3.0283729e-37
1.4045525e-38
3.0656888e-40
1.4748568e-35
1.0525251e-36
4.6961561e-38
9.8644561e-40
5.2003906e-34
5.0780583e-35
3.4855014e-36
1.4963972e-37
3.0257007e-39
1.4161717e-32
1.7739032e-33
1.6656278e-34
1.0998139e-35
4.5444558e-37
8.8478075e-39
3.1031691e-31
4.7860698e-32
5.7634478e-33
5.2048056e-34
3.3069726e-35
1.3155313e-36
2.4670412e-38
5.6294614e-30
1.0391098e-30
1.5403864e-31
1.7836498e-32
1.5495994e-33
9.4767087e-35
3.6306566e-36
6.5607108e-38
8.633666e-29
1.8678404e-29
3.3131154e-30
4.7215726e-31
5.2584726e-32
4.3962791e-33
2.5887304e-34
9.5552482e-36
1.6645306e-37
1.1375745e-27
2.8386354e-28
5.9001872e-29
1.0058944e-29
1.378492e-30
1.4770646e-31
1.1887628e-32
6.7426824e-34
2.3988946e-35
4.0305558e-37
1.3042906e-26
3.706468e-27
8.884092e-28
1.7744727e-28
2.9085027e-29
3.8340165e-30
3.953933e-31
3.0645681e-32
1.6751074e-33
5.7473285e-35
9.3190504e-37
1.3149818e-25
4.2115931e-26
1.1493912e-26
2.646872e-27
5.0817979e-28
8.0105823e-29
1.0161151e-29
1.0089623e-30
7.534645e-32
3.9709783e-33
1.3146739e-34
2.0585108e-36
1.1759914e-24
4.208339e-25
1.2941524e-25
3.3926014e-26
7.5083233e-27
1.3860888e-27
2.1020863e-28
2.566865e-29
2.4552737e-30
1.7675201e-31
8.9870701e-33
2.8728941e-34
4.3470426e-36
9.3984249e-24
3.7302823e-24
1.2814719e-24
3.7846384e-25
9.5331297e-26
2.0282857e-26
3.6017389e-27
5.2573529e-28
6.1831031e-29
5.7003414e-30
3.9582685e-31
1.9429745e-32
6.0016264e-34
8.7826995e-36
6.755672e-23
2.9550722e-23
1.1257142e-23
3.7132264e-24
1.0535384e-24
2.5507449e-25
5.2194071e-26
8.9191986e-27
1.2537042e-27
1.4208833e-28
1.263339e-29
8.4675815e-31
4.0156547e-32
1.1995418e-33
1.6992038e-35
4.3924563e-22
2.1056552e-22
8.8383787e-23
3.2322427e-23
1.0240746e-23
2.7922857e-24
6.5007773e-25
1.2798854e-25
2.1058269e-26
2.8519944e-27
3.116826e-28
2.674502e-29
1.7316238e-30
7.9405713e-32
2.2959776e-33
3.1513687e-35
2.5964221e-21
1.3572629e-21
6.2422465e-22
2.5148553e-22
8.8322156e-23
2.6887578e-23
7.0485398e-24
1.5786642e-24
2.9921254e-25
4.7427121e-26
6.1929003e-27
6.5308216e-28
5.4126837e-29
3.3882149e-30
1.5037757e-31
4.213093e-33
5.609337e-35
1.4017474e-20
7.9543181e-21
3.9884111e-21
1.7602649e-21
6.8092057e-22
2.2973823e-22
6.7230539e-23
1.6952574e-23
3.6547024e-24
6.6723963e-25
1.0195716e-25
1.2845296e-26
1.3082293e-27
1.0481676e-28
6.3498454e-30
2.7305472e-31
7.4210408e-33
9.5957998e-35
6.9411819e-20
4.2579919e-20
2.3171559e-20
1.114725e-20
4.722939e-21
1.7548382e-21
5.6906057e-22
1.601593e-22
3.8868005e-23
8.070453e-24
1.4202705e-24
2.0937425e-25
2.5472793e-26
2.5077369e-27
1.9443375e-28
1.1411804e-29
4.7602376e-31
1.2565724e-32
1.5801054e-34
3.1649992e-19
2.0907949e-19
1.2297313e-19
6.4193157e-20
2.9640643e-20
1.2060474e-20
4.3063331e-21
1.3428581e-21
3.6369989e-22
8.5001546e-23
1.7011261e-23
2.8879598e-24
4.1109336e-25
4.8342981e-26
4.6053286e-27
3.4592762e-28
1.9694718e-29
7.9795412e-31
2.0486985e-32
2.508883e-34
1.3338724e-18
9.4544443e-19
5.9869566e-19
3.3771205e-19
1.6917258e-19
7.5004376e-20
2.9323518e-20
1.0067053e-20
3.0206147e-21
7.877898e-22
1.774453e-22
3.4255345e-23
5.6151266e-24
7.7256151e-25
8.7909977e-26
8.1132701e-27
5.9116057e-28
3.2691642e-29
1.288357e-30
3.2219537e-32
3.8484494e-34
5.2143516e-18
3.9518395e-18
2.6844904e-18
1.6299808e-18
8.8215803e-19
4.2424117e-19
1.8069911e-19
6.7915934e-20
2.2432697e-20
6.4809473e-21
1.6289048e-21
3.5390256e-22
6.596481e-23
1.0451117e-23
1.3913946e-24
1.5338879e-25
1.3732526e-26
9.7195876e-28
5.2285584e-29
2.0072999e-30
4.8972861e-32
5.7143948e-34
1.8978926e-17
1.5323367e-17
1.1127439e-17
7.246361e-18
4.2206494e-18
2.1925544e-18
1.0128335e-18
4.1467772e-19
1.4993563e-19
4.7680825e-20
1.3274533e-20
3.2180767e-21
6.7506485e-22
1.216181e-22
1.8645593e-23
2.405038e-24
2.5721153e-25
2.2370031e-26
1.5402989e-27
8.0726607e-29
3.0239077e-30
7.2088624e-32
8.2303837e-34
6.4516308e-17
5.5326415e-17
4.2792447e-17
2.978351e-17
1.8601776e-17
1.0397866e-17
5.187629e-18
2.3031985e-18
9.0706499e-19
3.1573988e-19
9.6753619e-20
2.5980905e-20
6.0812972e-21
1.2330583e-21
2.1497518e-22
3.1934233e-23
3.9963714e-24
4.1523719e-25
3.5136624e-26
2.3573639e-27
1.2056371e-28
4.4135826e-30
1.0297639e-31
1.1521386e-33
2.0562939e-16
1.8658982e-16
1.5325036e-16
1.1358351e-16
7.5803862e-17
4.5427578e-17
2.4383557e-17
1.1690667e-17
4.9922339e-18
1.8926438e-18
6.3480812e-19
1.8762405e-19
4.8646375e-20
1.1006597e-20
2.1598665e-21
3.6489285e-22
5.2595383e-23
6.395474e-24
6.4661612e-25
5.3320539e-26
3.4913724e-27
1.7452908e-28
6.2539853e-30
1.4302798e-31
1.5705209e-33
6.1617791e-16
5.9005833e-16
5.1269894e-16
4.034224e-16
2.8665085e-16
1.8352857e-16
1.0559539e-16
5.4461099e-17
2.5111865e-17
1.0322262e-17
3.7706719e-18
1.2198351e-18
3.481271e-19
8.7254893e-20
1.9108301e-20
3.6339893e-21
5.957966e-22
8.3456639e-23
9.8763027e-24
9.7322773e-25
7.8335021e-26
5.01411e-27
2.4537638e-28
8.6197829e-30
1.9351203e-31
2.0882457e-33
1.7439577e-15
1.7545377e-15
1.608461e-15
1.3386771e-15
1.0096444e-15
6.8809707e-16
4.2291338e-16
2.337716e-16
1.1594304e-16
5.1457844e-17
2.038017e-17
7.1806856e-18
2.2431523e-18
6.1890025e-19
1.5015951e-19
3.1873947e-20
5.8836309e-21
9.3759557e-22
1.2783823e-22
1.4747178e-23
1.4186763e-24
1.1163831e-25
6.9962162e-27
3.3567335e-28
1.1576319e-29
2.5545253e-31
2.7125715e-33
4.6754972e-15
4.9276387e-15
4.7454309e-15
4.166021e-15
3.3226941e-15
2.4032706e-15
1.5720035e-15
9.2812606e-16
4.932973e-16
2.3547954e-16
1.006965e-16
3.8467394e-17
1.3088398e-17
3.9531537e-18
1.0559465e-18
2.4836771e-19
5.1180783e-20
9.184523e-21
1.4249232e-21
1.8942006e-22
2.1334987e-23
2.0068105e-24
1.5462783e-25
9.5012819e-27
4.4755971e-28
1.5172643e-29
3.2950627e-31
3.4469845e-33
1.1839e-14
1.3114235e-14
1.3223491e-14
1.219364e-14
1.0256438e-14
7.8430778e-15
5.4440043e-15
3.4201973e-15
1.9414808e-15
9.9310755e-16
4.5676214e-16
1.8840285e-16
6.9506947e-17
2.2868106e-17
6.6878038e-18
1.7321211e-18
3.9559248e-19
7.9266934e-20
1.3851487e-20
2.0955661e-21
2.720331e-22
2.9962587e-23
2.7598202e-24
2.0851138e-25
1.2579239e-26
5.8249573e-28
1.9435076e-29
4.158677e-31
4.2906288e-33
3.0246293e-14
3.2946908e-14
3.4931758e-14
3.3709657e-14
2.9778541e-14
2.4011738e-14
1.7616929e-14
1.1743887e-14
7.0928922e-15
3.8747797e-15
1.909653e-15
8.4722222e-16
3.3751304e-16
1.2041595e-16
3.8365888e-17
1.0881127e-17
2.7370179e-18
6.0796419e-19
1.1865147e-19
2.022247e-20
2.9881131e-21
3.7936932e-22
4.0920679e-23
3.6959999e-24
2.741705e-25
1.6260014e-26
7.4105811e-28
2.4363264e-29
5.1423853e-31
5.2384875e-33
2.2884778e-13
8.3443949e-14
8.7059466e-14
8.8380124e-14
8.166549e-14
6.9147398e-14
5.3489899e-14
3.7681886e-14
2.4147796e-14
1.4034853e-14
7.3870294e-15
3.5119393e-15
1.5049283e-15
5.7984462e-16
2.0036726e-16
6.1921868e-17
1.7059929e-17
4.1745919e-18
9.0337295e-19
1.7199305e-19
2.8635633e-20
4.1387767e-21
5.1463373e-22
5.4436146e-23
4.8275376e-24
3.5204245e-25
2.0549276e-26
9.2286173e-28
2.9930826e-29
6.2389818e-31
6.2825134e-33
2.6676212e-12
5.9515171e-13
2.1857063e-13
2.1848515e-13
2.1247964e-13
1.8810341e-13
1.5276676e-13
1.1346334e-13
7.6826047e-14
4.7377402e-14
2.6530613e-14
1.3470642e-14
6.1863529e-15
2.5641906e-15
9.5704558e-16
3.2083585e-16
9.6338822e-17
2.5826943e-17
6.1583968e-18
1.3003675e-18
2.4189511e-19
3.9399323e-20
5.5777459e-21
6.8017316e-22
7.0643458e-23
6.1588622e-24
4.420634e-25
2.5428415e-26
1.1266774e-27
3.6092152e-29
7.4388451e-31
7.4136341e-33
1.9898517e-11
6.7494685e-12
1.4696351e-12
5.4370332e-13
5.2097041e-13
4.8563009e-13
4.1220022e-13
3.2136138e-13
2.2940145e-13
1.4946482e-13
8.8809322e-14
4.7978811e-14
2.3533432e-14
1.0455291e-14
4.1985116e-15
1.5205168e-15
4.9537882e-16
1.4477741e-16
3.7830193e-17
8.803979e-18
1.816698e-18
3.3065907e-19
5.2759354e-20
7.3255398e-21
8.7717849e-22
8.9567554e-23
7.6863136e-24
5.437148e-25
3.0860217e-26
1.3507762e-27
4.2794901e-29
8.73256e-31
8.6242045e-33
1.0566366e-10
4.9664162e-11
1.6184087e-11
3.4459925e-12
1.2849193e-12
1.1808645e-12
1.0558567e-12
8.6000703e-13
6.4433713e-13
4.4257905e-13
2.7785463e-13
1.5928356e-13
8.3141062e-14
3.9454237e-14
1.698457e-14
6.6190683e-15
2.3301338e-15
7.3905629e-16
2.105797e-16
5.3716078e-17
1.221923e-17
2.4675408e-18
4.4003171e-19
6.8868872e-20
9.3905354e-21
1.1055668e-21
1.1112888e-22
9.3997229e-24
6.5619052e-25
3.6800189e-26
1.5934444e-27
4.9995511e-29
1.01137e-30
9.9102488e-33
4.2303739e-10
2.6158608e-10
1.1739713e-10
3.6781051e-11
7.6812895e-12
2.886169e-12
2.5461067e-12
2.1855299e-12
1.710089e-12
1.2328523e-12
8.1594344e-13
4.9431149e-13
2.7379768e-13
1.3828951e-13
6.3595042e-14
2.657299e-14
1.0068269e-14
3.4513737e-15
1.0675157e-15
2.9700938e-16
7.4072575e-17
1.6493158e-17
3.2638145e-18
5.7099587e-19
8.7772656e-20
1.1768749e-20
1.364161e-21
1.3517621e-22
1.1285937e-23
7.7866398e-25
4.3211021e-26
1.8535397e-27
5.7673444e-29
1.1580973e-30
1.1272851e-32
1.3216151e-09
1.0426223e-09
6.1317333e-10
2.6286876e-10
7.9284488e-11
1.628475e-11
6.1654673e-12
5.2263141e-12
4.3114546e-12
3.2448389e-12
2.2544323e-12
1.4397675e-12
8.4299253e-13
4.5184515e-13
2.2119919e-13
9.874741e-14
4.0123452e-14
1.4806868e-14
4.9510168e-15
1.4956946e-15
4.0695302e-16
9.9366561e-17
2.1686206e-17
4.2109734e-18
7.2370595e-19
1.0941469e-19
1.4446898e-20
1.6511947e-21
1.615438e-22
1.3333609e-23
9.1058568e-25
5.0076175e-26
2.1309242e-27
6.5839991e-29
1.3139134e-30
1.2718355e-32
3.2972093e-09
3.2479285e-09
2.4333932e-09
1.3611911e-09
5.5788344e-10
1.6217409e-10
3.2875245e-11
1.2535428e-11
1.0224232e-11
8.1164114e-12
5.8843712e-12
3.9465301e-12
2.435841e-12
1.3805277e-12
7.1724207e-13
3.4091646e-13
1.4801581e-13
5.8590422e-14
2.1095636e-14
6.8912754e-15
2.0364112e-15
5.4261111e-16
1.2989615e-16
2.7824684e-17
5.3090218e-18
8.9762537e-19
1.3367594e-19
1.740856e-20
1.9650525e-21
1.9011901e-22
1.5537869e-23
1.0519227e-24
5.7408429e-26
2.4266501e-27
7.4539348e-29
1.4798496e-30
1.4257455e-32
6.7006208e-09
8.0826122e-09
7.5618828e-09
5.3793145e-09
2.8632058e-09
1.1227769e-09
3.1505936e-10
6.3252494e-11
2.42833e-11
1.9087967e-11
1.4603856e-11
1.0216424e-11
6.625667e-12
3.9582128e-12
2.1750828e-12
1.097247e-12
5.0732803e-13
2.1462219e-13
8.2908683e-14
2.9171191e-14
9.3238212e-15
2.6990218e-15
7.0530104e-16
1.6577254e-16
3.4904038e-17
6.5540204e-18
1.0918984e-18
1.6043609e-19
2.0642035e-20
2.3050402e-21
2.2089967e-22
1.7903441e-23
1.2032672e-24
6.5251158e-26
2.7428631e-27
8.3842548e-29
1.6573394e-30
1.5903586e-32
1.0980969e-08
1.6383075e-08
1.8780719e-08
1.668325e-08
1.1268814e-08
5.7098497e-09
2.1446708e-09
5.8183524e-10
1.1625568e-10
4.4881782e-11
3.4064424e-11
2.5159835e-11
1.7014355e-11
1.0686806e-11
6.1894116e-12
3.3033493e-12
1.6211009e-12
7.3049313e-13
3.0165277e-13
1.1390265e-13
3.9223182e-14
1.2284654e-14
3.4887715e-15
8.9544065e-16
2.0695717e-16
4.2901568e-17
7.9411381e-18
1.305871e-18
1.8964333e-19
2.4147542e-20
2.6719417e-21
2.5402337e-22
2.0445295e-23
1.3657919e-24
7.3672651e-26
3.0824886e-27
9.3836988e-29
1.8480142e-30
1.7671123e-32
1.179877e-08
2.6846529e-08
3.7982042e-08
4.1376901e-08
3.4894521e-08
2.2382688e-08
1.0804793e-08
3.891947e-09
1.0231722e-09
2.047712e-10
7.9286364e-11
5.821875e-11
4.1584673e-11
2.723001e-11
1.6590613e-11
9.3310439e-12
4.8459391e-12
2.3179291e-12
1.0198211e-12
4.117466e-13
1.5220766e-13
5.1377287e-14
1.5792696e-14
4.4071068e-15
1.1128366e-15
2.5335091e-16
5.1797818e-17
9.4684002e-18
1.5396138e-18
2.2136971e-19
2.7941422e-20
3.06819e-21
2.8976118e-22
2.3186886e-23
1.541082e-24
8.2756118e-26
3.4488162e-27
1.0461469e-28
2.0535e-30
1.9573721e-32
2.8978259e-08
1.1799137e-08
6.2233883e-08
8.352915e-08
8.6475498e-08
6.9232829e-08
4.2189476e-08
1.942291e-08
6.7202754e-09
1.7174968e-09
3.4753207e-10
1.3414467e-10
9.5483719e-11
6.6062456e-11
4.1955562e-11
2.4836019e-11
1.3590398e-11
6.8812843e-12
3.2142947e-12
1.3830952e-12
5.4685042e-13
1.982222e-13
6.569576e-14
1.9852868e-14
5.4534647e-15
1.3572189e-15
3.0492408e-16
6.1599883e-17
1.1140029e-17
1.7942717e-18
2.558344e-19
3.205613e-20
3.4976294e-21
3.2848153e-22
2.6156727e-23
1.7309067e-24
9.2588241e-26
3.8450743e-27
1.1626117e-28
2.2752333e-30
2.1622821e-32
6.7440879e-08
2.897909e-08
1.0982264e-08
1.3685949e-07
1.743449e-07
1.7154745e-07
1.3041093e-07
7.5552376e-08
3.3220827e-08
1.1064559e-08
2.7631341e-09
5.6785182e-10
2.1784286e-10
1.5057061e-10
1.0105595e-10
6.2350429e-11
3.5923079e-11
1.9164148e-11
9.4789905e-12
4.3313945e-12
1.8257791e-12
7.0811214e-13
2.5213401e-13
8.2196444e-14
2.4465535e-14
6.6280814e-15
1.6289366e-15
3.6184266e-16
7.2359613e-17
1.296821e-17
2.0721327e-18
2.9338888e-19
3.6536359e-20
3.9649782e-21
3.7059629e-22
2.9384303e-23
1.9369756e-24
1.0324787e-25
4.2740221e-27
1.2884481e-28
2.5142815e-30
2.3826172e-32
1.4879764e-07
6.744262e-08
2.6849677e-08
6.7012928e-09
2.856974e-07
3.4560743e-07
3.2329459e-07
2.3348245e-07
1.2874378e-07
5.4173711e-08
1.7430034e-08
4.2882943e-09
8.9188206e-10
3.4022698e-10
2.2871488e-10
1.491224e-10
8.9546413e-11
5.0312397e-11
2.6221853e-11
1.2692518e-11
5.6832789e-12
2.3508618e-12
8.9605412e-13
3.1401403e-13
1.0089637e-13
2.9639604e-14
7.9352991e-15
1.9295561e-15
4.2455264e-16
8.4180146e-17
1.497279e-17
2.3764051e-18
3.3447119e-19
4.1432624e-20
4.475131e-21
4.1650065e-22
3.2895808e-23
2.1606955e-24
1.1479455e-25
4.7375295e-27
1.4240565e-28
2.771146e-30
2.6186202e-32
3.114248e-07
1.4880109e-07
6.224111e-08
1.6384696e-08
3.2974521e-09
5.665712e-07
6.5123554e-07
5.7945557e-07
3.9792497e-07
2.0918466e-07
8.4488569e-08
2.6397049e-08
6.4816597e-09
1.3494317e-09
5.119404e-10
3.3524933e-10
2.1267232e-10
1.245538e-10
6.838837e-11
3.4888398e-11
1.655494e-11
7.2769313e-12
2.9596764e-12
1.1109698e-12
3.8399546e-13
1.2186656e-13
3.5406582e-14
9.3860543e-15
2.2621869e-15
4.937906e-16
9.7209266e-17
1.7179021e-17
2.7107776e-18
3.7954114e-19
4.6793514e-20
5.0323954e-21
4.6650929e-22
3.6709671e-23
2.402908e-24
1.2725597e-25
5.2361073e-27
1.5694277e-28
3.0455418e-30
2.8698295e-32
6.187486e-07
3.1143135e-07
1.3687522e-07
3.7985681e-08
8.083186e-09
1.3216759e-09
1.0683918e-06
1.1677544e-06
9.8922244e-07
6.4688275e-07
3.2505668e-07
1.2657584e-07
3.8710393e-08
9.5247961e-09
1.9706592e-09
7.434295e-10
4.7508037e-10
2.9376214e-10
1.6818426e-10
9.0421514e-11
4.5234802e-11
2.1080447e-11
9.1154732e-12
3.6533952e-12
1.3535868e-12
4.6248115e-13
1.4528598e-13
4.1829658e-14
1.0998867e-14
2.6314013e-15
5.7052052e-16
1.1162119e-16
1.9613958e-17
3.0788473e-18
4.2900423e-19
5.2657112e-20
5.6396546e-21
5.2078636e-22
4.0831591e-23
2.6635993e-24
1.4061401e-25
5.7684091e-27
1.7240173e-28
3.3361894e-30
3.1349127e-32
1.1680593e-06
6.1875983e-07
2.8573006e-07
8.3536809e-08
1.8781957e-08
3.2480655e-09
4.2303957e-10
1.9179605e-06
1.9954449e-06
1.6116159e-06
1.0058283e-06
4.8507051e-07
1.8333512e-07
5.5462527e-08
1.3548469e-08
2.782424e-09
1.0438354e-09
6.522479e-10
3.9398225e-10
2.2097821e-10
1.1654862e-10
5.7285148e-11
2.6275429e-11
1.120326e-11
4.4352663e-12
1.6257838e-12
5.5033166e-13
1.7147025e-13
4.9005563e-14
1.2798846e-14
3.0427828e-15
6.5580773e-16
1.2759036e-16
2.2301925e-17
3.4834491e-18
4.8312574e-19
5.9041392e-20
6.2974396e-21
5.7926886e-22
4.5249328e-23
2.9416065e-24
1.5479182e-25
6.3308079e-27
1.8866501e-28
3.6406971e-30
3.411553e-32
2.0973196e-06
1.1680748e-06
5.6663525e-07
1.7436033e-07
4.1379389e-08
7.5621517e-09
1.042622e-09
1.0565836e-10
3.2824997e-06
3.2552534e-06
2.5121257e-06
1.5014664e-06
6.9915653e-07
2.5854479e-07
7.7615701e-08
1.8666119e-08
3.8054745e-09
1.4202292e-09
8.6971052e-10
5.1432074e-10
2.8317434e-10
1.4679535e-10
7.1050785e-11
3.215465e-11
1.3552806e-11
5.3128718e-12
1.9311854e-12
6.489414e-13
2.0086945e-13
5.7057714e-14
1.4814992e-14
3.5021559e-15
7.5064788e-16
1.4525905e-16
2.5259192e-17
3.9258919e-18
5.419353e-19
6.5933907e-20
7.0029812e-21
6.4159462e-22
4.9928317e-23
3.2344038e-24
1.6964606e-25
6.9172078e-27
2.0554952e-28
3.9556013e-30
3.694297e-32
3.5864135e-06
2.0973344e-06
1.0685108e-06
3.4563727e-07
8.6480478e-08
1.6683737e-08
2.433372e-09
2.6157101e-10
1.9895984e-11
5.3652746e-06
5.0814466e-06
3.7591997e-06
2.1626481e-06
9.7972596e-07
3.5712816e-07
1.056437e-07
2.4951428e-08
5.054306e-09
1.8774502e-09
1.1291931e-09
6.5511333e-10
3.5476558e-10
1.8117455e-10
8.6577444e-11
3.8760902e-11
1.6191285e-11
6.2998364e-12
2.2753155e-12
7.6019553e-13
2.3403118e-13
6.6122163e-14
1.7075967e-14
4.0145725e-15
8.5575638e-16
1.6469937e-16
2.8488003e-17
4.4051463e-18
6.0513213e-19
7.3282533e-20
7.7494813e-21
7.0705805e-22
5.4809913e-23
3.5380732e-24
1.8496936e-25
7.5192477e-27
2.2281427e-28
4.2754984e-30
3.9768182e-32
5.8493335e-06
3.5864142e-06
1.918166e-06
6.5128907e-07
1.7155719e-07
3.4895447e-08
5.3792297e-09
6.1313163e-10
4.9657282e-11
2.6669815e-12
8.3933029e-06
7.6124953e-06
5.4242508e-06
3.0231799e-06
1.3421926e-06
4.8222717e-07
1.3994375e-07
3.2444659e-08
6.5397674e-09
2.4180201e-09
1.4310705e-09
8.1616437e-10
4.3574561e-10
2.1981569e-10
1.0399698e-10
4.6181907e-11
1.9164956e-11
7.4159748e-12
2.6653361e-12
8.8630094e-13
2.7153505e-13
7.632645e-14
1.9604611e-14
4.5830743e-15
9.7132716e-16
1.858726e-16
3.1970724e-17
4.9171399e-18
6.7201701e-19
8.0990705e-20
8.5259448e-21
7.7462164e-22
5.9813945e-23
3.8475467e-24
2.0050587e-25
8.1269768e-27
2.4018055e-28
4.5913266e-30
4.2545361e-32
9.1159566e-06
5.8492814e-06
3.2828266e-06
1.1678408e-06
3.2331192e-07
6.9234557e-08
1.1268618e-08
1.3610875e-09
1.173792e-10
6.7477334e-12
2.2876135e-13
1.2599826e-05
1.0985873e-05
7.5857677e-06
4.1248573e-06
1.8017628e-06
6.3586798e-07
1.8081174e-07
4.1184423e-08
8.2688211e-09
3.0418493e-09
1.7746397e-09
9.9733471e-10
5.2643992e-10
2.6308886e-10
1.2356738e-10
5.4560757e-11
2.2538638e-11
8.6861167e-12
3.1093665e-12
1.0295101e-12
3.1389642e-13
8.7762712e-14
2.24114e-14
5.2073322e-15
1.0967922e-15
2.0859399e-16
3.5665781e-17
5.4544361e-18
7.414871e-19
8.8920779e-20
9.317872e-21
8.4300056e-22
6.4846206e-23
4.1571192e-24
2.1597872e-25
8.7299779e-27
2.5718811e-28
4.8976248e-30
4.5232511e-32
1.3607453e-05
9.115741e-06
5.3657451e-06
1.9955586e-06
5.7948244e-07
1.3041357e-07
2.2382303e-08
2.8629871e-09
2.6282599e-10
1.6179608e-11
5.9491486e-13
3.0239739e-14
1.8208996e-05
1.5342346e-05
1.0337977e-05
5.5122345e-06
2.3686927e-06
8.2009748e-07
2.2855906e-07
5.1222259e-08
1.024005e-08
3.7467692e-09
2.1594425e-09
1.1994088e-09
6.2780108e-10
3.1169031e-10
1.4569498e-10
6.4092145e-11
2.6391342e-11
1.0137644e-11
3.6154199e-12
1.19172e-12
3.6144647e-13
1.0045657e-13
2.5487688e-14
5.8824345e-15
1.2306523e-15
2.3251726e-16
3.950766e-17
6.0065863e-18
8.1212153e-19
9.6907523e-20
1.0108867e-20
9.1081587e-22
6.9809988e-23
4.4611577e-24
2.3112404e-25
9.3182135e-27
2.7345979e-28
5.1899421e-30
4.7794593e-32
1.9516031e-05
1.3606826e-05
8.3938738e-06
3.2553327e-06
9.8925387e-07
2.3348456e-07
4.2188601e-08
5.7094287e-09
5.5779361e-10
3.6770419e-11
1.4690167e-12
8.3424357e-14
1.1836313e-14
2.5433485e-05
2.0844151e-05
1.3780565e-05
7.2227861e-06
3.054259e-06
1.0372578e-06
2.8359046e-07
6.2584704e-08
1.2443546e-08
4.5313663e-09
2.5870832e-09
1.4246382e-09
7.4157224e-10
3.666873e-10
1.7091984e-10
7.5007803e-11
3.0808075e-11
1.1796724e-11
4.1898734e-12
1.3739881e-12
4.1420034e-13
1.1433781e-13
2.880057e-14
6.5982865e-15
1.37047e-15
2.5715278e-16
4.3412647e-17
6.5612846e-18
8.8235946e-19
1.0478025e-19
1.0882915e-20
9.7678797e-22
7.4619292e-23
4.7548362e-24
2.4572354e-25
9.8746068e-27
2.8878828e-28
5.4650442e-30
6.2151132e-34
2.6995241e-05
1.9514531e-05
1.2600268e-05
5.0813154e-06
1.6116209e-06
3.979198e-07
7.5550019e-08
1.0803997e-08
1.1226043e-09
7.9261944e-11
3.4445057e-12
2.1851545e-13
3.2938821e-14
4.6743879e-15
3.4502609e-05
2.7636471e-05
1.800926e-05
9.2993003e-06
3.8714994e-06
1.2904847e-06
3.463425e-07
7.524127e-08
1.4871192e-08
5.3988887e-09
3.0625401e-09
1.6770535e-09
8.703551e-10
4.2947105e-10
1.9987169e-10
8.7551081e-11
3.5867441e-11
1.3682963e-11
4.8357035e-12
1.5760355e-12
4.7174659e-13
1.2922277e-13
3.2291914e-14
7.3401118e-15
1.5130948e-15
2.8192598e-16
4.7290248e-17
7.1061702e-18
9.5073618e-19
1.1238888e-19
1.162678e-20
1.0399215e-21
7.921032e-23
5.034727e-24
2.5954153e-25
1.0393019e-26
3.0305276e-28
7.7648834e-32
4.0444656e-36
3.6160481e-05
2.6991947e-05
1.820867e-05
7.6119304e-06
2.5119977e-06
6.4684816e-07
1.2873694e-07
1.9421315e-08
2.1443474e-09
1.6213007e-10
7.6780855e-12
5.4355712e-13
8.7036534e-14
1.311088e-14
1.7435291e-15
4.5695401e-05
3.5885518e-05
2.3131894e-05
1.1794362e-05
4.8361015e-06
1.5832525e-06
4.1701813e-07
8.9157115e-08
1.7531647e-08
6.3598253e-09
3.5946246e-09
1.9626062e-09
1.0174789e-09
5.0162961e-10
2.3319483e-10
1.0193924e-10
4.1624626e-11
1.5803641e-11
5.5508402e-12
1.7958937e-12
5.3320452e-13
1.4482038e-13
3.5883642e-14
8.090281e-15
1.6551175e-15
3.0626715e-16
5.1057839e-17
7.6308357e-18
1.0161165e-18
1.1962662e-19
1.233186e-20
1.099632e-21
8.3548495e-23
5.2992147e-24
2.7231611e-25
1.0871515e-26
4.705493e-30
5.6171115e-34
1.1654766e-38
4.7107366e-05
3.6154161e-05
2.5431214e-05
1.0984581e-05
3.7588437e-06
1.0057068e-06
2.0916592e-07
3.3217298e-08
3.8913244e-09
3.1497637e-10
1.6278385e-11
1.2845551e-12
2.1842397e-13
3.4922198e-14
4.9263368e-15
6.1602221e-16
5.936325e-05
4.577625e-05
2.9260627e-05
1.4768393e-05
5.9646375e-06
1.9179195e-06
4.9569052e-07
1.04396e-07
2.0460046e-08
7.4325735e-09
4.196091e-09
2.2888111e-09
1.186668e-09
5.847426e-10
2.7144365e-10
1.1831431e-10
4.8094677e-11
1.8148983e-11
6.3272485e-12
2.0298763e-12
5.9729468e-13
1.6076827e-13
3.9489368e-14
8.8311967e-15
1.7934516e-15
3.2970901e-16
5.4654411e-17
8.1284616e-18
1.0778553e-18
1.2644295e-19
1.2994989e-20
1.1557826e-21
8.7629249e-23
5.5450262e-24
2.8405682e-25
1.8447523e-28
3.7845782e-32
1.8261178e-36
1.2498056e-41
5.9914091e-05
4.7096674e-05
3.4496333e-05
1.5340026e-05
5.4235764e-06
1.5012162e-06
3.2500537e-07
5.4166032e-08
6.718996e-09
5.8168082e-10
3.2863102e-11
2.8853129e-12
5.2081687e-13
8.835448e-14
1.3219763e-14
1.7540622e-15
2.0557667e-16
7.5905482e-05
5.753104e-05
3.6509907e-05
1.8282491e-05
7.2691375e-06
2.2957949e-06
5.8280476e-07
1.2119827e-07
2.3723871e-08
8.6434314e-09
4.8828108e-09
2.6638578e-09
1.3815223e-09
6.8010845e-10
3.1495589e-10
1.3670061e-10
5.5241007e-11
2.0690464e-11
7.1513434e-12
2.2730183e-12
6.6253304e-13
1.7669414e-13
4.3029762e-14
9.5484392e-15
1.9258682e-15
3.5196158e-16
5.8049145e-17
8.5965626e-18
1.1358391e-18
1.3284315e-19
1.3618008e-20
1.2086228e-21
9.1476481e-23
5.7709174e-24
5.2659547e-27
1.6493445e-30
1.3894689e-34
2.2142141e-39
4.9883789e-45
7.4631661e-05
5.989758e-05
4.5681304e-05
2.084008e-05
7.5843433e-06
2.1622346e-06
4.849714e-07
8.4470593e-08
1.1062092e-08
1.0228862e-09
6.322997e-11
6.1635654e-12
1.180501e-12
2.124149e-13
3.3699604e-14
4.7440618e-15
5.8989638e-16
6.4499682e-17
9.5632639e-05
7.1418518e-05
4.5023054e-05
2.2381649e-05
8.7554745e-06
2.7191236e-06
6.797044e-07
1.4002246e-07
2.7430058e-08
1.0024457e-08
5.6716966e-09
3.0953285e-09
1.6048764e-09
7.8845186e-10
3.6375578e-10
1.5698253e-10
6.2974618e-11
2.3383848e-11
8.0060806e-12
2.5199488e-12
7.2750622e-13
1.9228526e-13
4.6446817e-14
1.0233144e-14
2.051304e-15
3.7294006e-16
6.1242044e-17
9.0366425e-18
1.1903999e-18
1.3887526e-19
1.4206264e-20
1.2586498e-21
9.5041395e-23
1.1681761e-25
5.2316911e-29
6.8421052e-33
1.9130916e-37
9.6422869e-43
9.8377515e-49
9.1277816e-05
7.4607994e-05
5.9334801e-05
2.7626954e-05
1.0335053e-05
3.0224461e-06
6.9899977e-07
1.2654296e-07
1.7424883e-08
1.7169845e-09
1.1621496e-10
1.2531432e-11
2.5452938e-12
4.8547599e-13
8.1639967e-14
1.2189926e-14
1.6079918e-15
1.865384e-16
1.897405e-17
0.0001189352
8.7752994e-05
5.4918409e-05
2.7085083e-05
1.0429309e-05
3.1933998e-06
7.8898452e-07
1.6160801e-07
3.1722695e-08
1.1608566e-08
6.5778322e-09
3.5888341e-09
1.8581778e-09
9.0975587e-10
4.1752646e-10
1.789153e-10
7.1168142e-11
2.6177481e-11
8.8743248e-12
2.7659515e-12
7.9113876e-13
2.0734203e-13
4.971201e-14
1.0882777e-14
2.1698409e-15
3.9273703e-16
6.4256747e-17
9.4529079e-18
1.242132e-18
1.4460868e-19
1.476661e-20
1.3062252e-21
2.0993051e-24
1.288834e-27
2.4526644e-31
1.0736443e-35
9.1691533e-41
1.9820661e-46
1.2062515e-52
0.00010984761
9.1246751e-05
7.5851751e-05
3.5867084e-05
1.3775025e-05
4.1234314e-06
9.7946484e-07
1.8328465e-07
2.6387898e-08
2.7620879e-09
2.0469846e-10
2.4275371e-11
5.2245976e-12
1.0555105e-12
1.8804231e-13
2.9769054e-14
4.1647403e-15
5.1254897e-16
5.5311225e-17
5.2130233e-18
0.00014626951
0.00010679354
6.624049e-05
3.2396276e-05
1.2305259e-05
3.7293584e-06
9.1486807e-07
1.8699608e-07
3.6769326e-08
1.3423541e-08
7.6117777e-09
4.1469756e-09
2.1412542e-09
1.0432708e-09
4.7567775e-10
2.0217726e-10
7.9684481e-11
2.9023616e-11
9.7423633e-12
3.0078283e-12
8.5285245e-13
2.2179571e-13
5.2825396e-14
1.150004e-14
2.2823728e-15
4.1155096e-16
6.7128201e-17
9.8504805e-18
1.2916714e-18
1.5011193e-19
1.5305736e-20
3.1457611e-23
2.5699354e-26
6.8272172e-30
4.3993716e-34
5.7146213e-39
1.97456e-44
2.4714551e-50
1.0510329e-56
0.0001303406
0.00010981156
9.5539061e-05
4.5743981e-05
1.799927e-05
5.5096611e-06
1.3417102e-06
2.5846386e-07
3.8696303e-08
4.2864572e-09
3.4739056e-10
4.4866862e-11
1.0220812e-11
2.1847963e-12
4.1206224e-13
6.9124553e-14
1.0253144e-14
1.3382647e-15
1.5320572e-16
1.5319198e-17
1.3335374e-18
0.00017800213
0.00012866458
7.8973069e-05
3.8325475e-05
1.4414752e-05
4.3449021e-06
1.0634428e-06
2.1745358e-07
4.2746701e-08
1.5487356e-08
8.7764884e-09
4.7692628e-09
2.4525537e-09
1.1877465e-09
5.3751144e-10
2.2645714e-10
8.8410104e-11
3.1888318e-11
1.0602168e-11
3.2442226e-12
9.1255616e-13
2.3568403e-13
5.5806174e-14
1.2090398e-14
2.3900917e-15
4.2959669e-16
6.9889213e-17
1.0233641e-17
1.3395112e-18
1.5543466e-19
4.0154392e-22
4.2688323e-25
1.5374597e-28
1.4029246e-32
2.6233744e-37
1.2964185e-42
2.5109614e-48
2.1593978e-54
7.073665e-61
0.00015294078
0.00013030774
0.00011878823
5.7479699e-05
2.311498e-05
7.2184013e-06
1.8009201e-06
3.5698385e-07
5.5439976e-08
6.4787985e-09
5.6759961e-10
7.9259706e-11
1.9081515e-11
4.3099892e-12
8.5971332e-13
1.5271489e-13
2.4003754e-14
3.3216259e-15
4.0329876e-16
4.27801e-17
3.9507795e-18
3.1642194e-19
0.00021428678
0.0001533758
9.30853e-05
4.4912203e-05
1.6813533e-05
5.0663567e-06
1.2423661e-06
2.5437446e-07
4.9834947e-08
1.7806466e-08
1.0068967e-08
5.4528585e-09
2.7898771e-09
1.3419202e-09
6.0245388e-10
2.5153948e-10
9.7278067e-11
3.4755694e-11
1.1451437e-11
3.4752683e-12
9.7047217e-13
2.49095e-13
5.8678528e-14
1.2659153e-14
2.4939737e-15
4.4702606e-16
7.2559654e-17
1.0604703e-17
1.3858865e-18
4.4384151e-21
6.0337303e-24
2.8820296e-27
3.6250297e-31
9.4519619e-36
6.3093858e-41
1.6863955e-46
2.2038886e-52
1.4447935e-58
4.3902802e-65
0.00017798624
0.00015293093
0.00014605157
7.1341111e-05
2.9234111e-05
9.2921712e-06
2.3672805e-06
4.8198384e-07
7.757861e-08
9.5200944e-09
8.9145543e-10
1.340999e-10
3.4052894e-11
8.1136458e-12
1.7095002e-12
3.2125043e-13
5.3471657e-14
7.8404704e-15
1.0093217e-15
1.1354903e-16
1.1124274e-17
9.4519561e-19
6.9395123e-20
0.00025506894
0.00018086701
0.00010864856
5.2247684e-05
1.9585095e-05
5.9273423e-06
1.4602916e-06
2.992336e-07
5.8220675e-08
2.0373549e-08
1.1485084e-08
6.1948674e-09
3.1516173e-09
1.5051101e-09
6.7024684e-10
2.7734423e-10
1.0626992e-10
3.7624372e-11
1.2291369e-11
3.701719e-12
1.0268723e-12
2.6210193e-13
6.1458193e-14
1.3209113e-14
2.5944157e-15
4.6387829e-16
7.5142124e-17
1.0963616e-17
4.3039031e-20
7.3769341e-23
4.5927551e-26
7.8042896e-30
2.7810494e-34
2.427706e-39
8.4232616e-45
1.4895675e-50
1.4677052e-56
8.8851147e-63
2.7178772e-69
0.0002059565
0.00017803137
0.00017769887
8.7640074e-05
3.6470479e-05
1.178333e-05
3.0519989e-06
6.3547055e-07
1.0558319e-07
1.3540762e-08
1.3487313e-09
2.1777193e-10
5.8199396e-11
1.4598928e-11
3.2437254e-12
6.4411378e-13
1.134241e-13
1.7610933e-14
2.4024768e-15
2.8656013e-16
2.9774599e-17
2.6837411e-18
2.0902574e-19
1.4014195e-20
0.00030019871
0.00021109999
0.00012579196
6.0502963e-05
2.2834942e-05
6.9663348e-06
1.7265384e-06
3.535664e-07
6.8113687e-08
2.3182061e-08
1.3027089e-08
6.9950227e-09
3.538087e-09
1.6775617e-09
7.4097917e-10
3.0389945e-10
1.153945e-10
4.0497587e-11
1.3123144e-11
3.9239245e-12
1.0818316e-12
2.7471341e-13
6.4144439e-14
1.3739423e-14
2.691094e-15
4.8007992e-16
7.7623089e-17
3.7001423e-19
7.9040298e-22
6.3240625e-25
1.4289495e-28
6.8654875e-33
7.6925894e-38
3.3382656e-43
7.501591e-49
9.8863288e-55
8.952178e-61
5.4434331e-67
1.6795035e-73
0.00023740721
0.00020609462
0.00021389779
0.00010664515
4.4968329e-05
1.4752181e-05
3.8680767e-06
8.1948002e-07
1.3984831e-07
1.8653815e-08
1.9695408e-09
3.4011974e-10
9.5453153e-11
2.5151602e-11
5.8823864e-12
1.2324289e-12
2.2932208e-13
3.7668909e-14
5.4421654e-15
6.8787216e-16
7.5780213e-17
7.2442325e-18
5.9853231e-19
4.2569264e-20
2.5958338e-21
0.00034951105
0.00024413285
0.00014468683
6.9921004e-05
2.6682613e-05
8.226217e-06
2.0507555e-06
4.1901716e-07
7.9774091e-08
2.624883e-08
1.4702195e-08
7.8586688e-09
3.9520198e-09
1.8603013e-09
8.1492926e-10
3.3125398e-10
1.2465169e-10
4.3371164e-11
1.3944602e-11
4.141072e-12
1.1350896e-12
2.8685672e-13
6.6718721e-14
1.4245634e-14
2.7831271e-15
4.9547567e-16
2.8451169e-18
7.5006805e-21
7.6224413e-24
2.2606104e-27
1.4500977e-31
2.0646918e-36
1.0937379e-41
3.0034228e-47
4.9681519e-53
5.986164e-59
5.4322959e-65
3.3268274e-71
1.0366875e-77
0.00027283512
0.00023766951
0.00025461853
0.00012848744
5.4849223e-05
1.8260369e-05
4.8312122e-06
1.0363527e-06
1.8066867e-07
2.4932563e-08
2.7806974e-09
5.1178554e-10
1.5052495e-10
4.1571786e-11
1.0213111e-11
2.2536775e-12
4.424281e-13