/*--------------------------------*- C++ -*----------------------------------*\
| =========                 |                                                 |
| \\      /  F ield         | OpenFOAM: The Open Source CFD Toolbox           |
|  \\    /   O peration     | Version:  5.0                                   |
|   \\  /    A nd           | Web:      www.OpenFOAM.org                      |
|    \\/     M anipulation  |                                                 |
\*---------------------------------------------------------------------------*/
FoamFile
{
    version     2.0;
    format      ascii;
    class       volScalarField;
    location    "20";
    object      nuTilda;
}
// * * * * * * * * * * * * * * * * * * * * * * * * * * * * * * * * * * * * * //

dimensions      [0 2 -1 0 0 0 0];

internalField   nonuniform List<scalar> 
9520
(
2.7982259e-41
4.3632797e-39
9.8833383e-41
3.2967982e-37
1.526708e-38
3.327268e-40
1.6037441e-35
1.1427211e-36
5.0907053e-38
1.0676865e-39
5.6484765e-34
5.5068581e-35
3.7738696e-36
1.6176697e-37
3.2658683e-39
1.536488e-32
1.9215109e-33
1.8013363e-34
1.1875321e-35
4.8991889e-37
9.5236506e-39
3.3631352e-31
5.1785341e-32
6.2259141e-33
5.6133651e-34
3.5608504e-35
1.4142836e-36
2.6480993e-38
6.0945121e-30
1.1230838e-30
1.6621217e-31
1.9214542e-32
1.666607e-33
1.017588e-34
3.8923257e-36
7.0225668e-38
9.3370171e-29
2.0166072e-29
3.5710053e-30
5.0806309e-31
5.6490245e-32
4.7150794e-33
2.7719723e-34
1.0215329e-35
1.776737e-37
1.2289696e-27
3.0614692e-28
6.3525595e-29
1.0811914e-29
1.4792015e-30
1.5823493e-31
1.2714109e-32
7.1998072e-34
2.5574547e-35
4.2902662e-37
1.4076397e-26
3.9932553e-27
9.5550548e-28
1.9052294e-28
3.1175314e-29
4.102659e-30
4.2239502e-31
3.268482e-32
1.7836828e-33
6.110146e-35
9.891976e-37
1.417752e-25
4.5328103e-26
1.2349042e-26
2.8388805e-27
5.4410892e-28
8.5623592e-29
1.0842789e-29
1.0748575e-30
8.0135914e-32
4.216601e-33
1.3937905e-34
2.1790324e-36
1.2666468e-24
4.524743e-25
1.389006e-25
3.6348923e-26
8.0305858e-27
1.4799514e-27
2.240613e-28
2.7314189e-29
2.6083425e-30
1.874651e-31
9.5165428e-33
3.0373941e-34
4.5889573e-36
1.0113113e-23
4.0067725e-24
1.3740073e-24
4.0507543e-25
1.0185542e-25
2.1633239e-26
3.8349189e-27
5.5881963e-28
6.5611805e-29
6.0389196e-30
4.186586e-31
2.0517931e-32
6.3279686e-34
9.2463871e-36
7.262468e-23
3.171017e-23
1.2058056e-23
3.9703055e-24
1.1244804e-24
2.7177175e-25
5.5513937e-26
9.4702041e-27
1.3288981e-27
1.503592e-28
1.334689e-29
8.9314793e-31
4.2290356e-32
1.2613641e-33
1.7841544e-35
4.7175509e-22
2.2573709e-22
9.4579895e-23
3.4525944e-23
1.091929e-23
2.9720131e-24
6.9070429e-25
1.3575103e-25
2.2297205e-26
3.0147007e-27
3.2891942e-28
2.8178424e-29
1.8215513e-30
8.3401314e-32
2.4079273e-33
3.3003e-35
2.7860283e-21
1.4536926e-21
6.673476e-22
2.6836867e-22
9.4081036e-23
2.858938e-23
7.4813676e-24
1.6726679e-24
3.1648171e-25
5.0079118e-26
6.5282826e-27
6.8732676e-28
5.6874315e-29
3.5546926e-30
1.5752999e-31
4.4071101e-33
5.8595366e-35
1.5027567e-20
8.5116205e-21
4.2599449e-21
1.8766448e-21
7.2461406e-22
2.4403778e-22
7.1287314e-23
1.7943732e-23
3.8616383e-24
7.0381151e-25
1.0736467e-25
1.3504324e-26
1.3731423e-27
1.0984625e-28
6.6445016e-30
2.8531043e-31
7.7433257e-33
9.9992425e-35
7.4347884e-20
4.552213e-20
2.4726355e-20
1.1873127e-20
5.0212141e-21
1.8622589e-21
6.0280483e-22
1.6935404e-22
4.1027225e-23
8.5040762e-24
1.4940468e-24
2.1988554e-25
2.6708445e-26
2.6252642e-27
2.0323764e-28
1.1911124e-29
4.9615742e-31
1.3079742e-32
1.6426654e-34
3.3871371e-19
2.2332912e-19
1.3110634e-19
6.8310497e-20
3.148316e-20
1.2786595e-20
4.5572944e-21
1.4185635e-21
3.835242e-22
8.9478901e-23
1.7876792e-23
3.0298448e-24
4.3059083e-25
5.0556127e-26
4.8088376e-27
3.6068572e-28
2.0506181e-29
8.2972291e-31
2.12757e-32
2.6023703e-34
1.4262812e-18
1.0090064e-18
6.3772889e-19
3.5904972e-19
1.7952426e-19
7.9446193e-20
3.1003117e-20
1.0624419e-20
3.182174e-21
8.2847326e-22
1.8628925e-22
3.590247e-23
5.87554e-24
8.0711464e-25
9.1701834e-26
8.4508281e-27
6.1489359e-28
3.3958759e-29
1.3366039e-30
3.3386374e-32
3.9833859e-34
5.570967e-18
4.2139466e-18
2.8570394e-18
1.7314415e-18
9.3529826e-19
4.4895578e-19
1.9087263e-19
7.1608976e-20
2.3610121e-20
6.809113e-21
1.7084384e-21
3.7055878e-22
6.8956598e-23
1.090784e-23
1.4499849e-24
1.5961379e-25
1.4269842e-26
1.0086453e-27
5.4190815e-29
2.0779793e-30
5.0641016e-32
5.9029396e-34
2.0260446e-17
1.632614e-17
1.1832649e-17
7.6907828e-18
4.4709692e-18
2.3182142e-18
1.0688888e-18
4.3682568e-19
1.5765899e-19
5.004828e-20
1.3909551e-20
3.3663378e-21
7.0501014e-22
1.2681189e-22
1.9412219e-23
2.5002616e-24
2.6702226e-25
2.3192499e-26
1.5949292e-27
8.3491209e-29
3.1240119e-30
7.4398359e-32
8.4859683e-34
6.8817863e-17
5.8899174e-17
4.5466758e-17
3.1583469e-17
1.9688083e-17
1.0984191e-17
5.4698884e-18
2.4240365e-18
9.529243e-19
3.3111394e-19
1.0128871e-19
2.7152741e-20
6.3451695e-21
1.2845245e-21
2.2360689e-22
3.3168013e-23
4.1450002e-24
4.3011198e-25
3.6349933e-26
2.4359063e-27
1.2444373e-28
4.5509477e-30
1.0607997e-31
1.1858125e-33
2.1916877e-16
1.9848117e-16
1.6269582e-16
1.2034839e-16
8.0163245e-17
4.7948174e-17
2.5687987e-17
1.2293224e-17
5.2399825e-18
1.9830274e-18
6.6396591e-19
1.9590973e-19
5.0711341e-20
1.1455655e-20
2.2445701e-21
3.7865169e-22
5.450303e-23
6.618742e-24
6.6836037e-25
5.5049326e-26
3.6006302e-27
1.798067e-28
6.4369565e-30
1.470819e-31
1.613706e-33
6.5624858e-16
6.2717467e-16
5.438669e-16
4.2710458e-16
3.0288632e-16
1.9355006e-16
1.1114999e-16
5.7218976e-17
2.6335245e-17
1.0805763e-17
3.9404057e-18
1.272584e-18
3.6258533e-19
9.07351e-20
1.9840327e-20
3.7677428e-21
6.1687513e-22
8.6296507e-23
1.0199797e-23
1.0039403e-24
8.0719135e-26
5.1614464e-27
2.5234581e-28
8.856721e-30
1.9866636e-31
2.1422169e-33
1.8559714e-15
1.863484e-15
1.7049189e-15
1.41614e-15
1.065972e-15
7.2507654e-16
4.4479101e-16
2.4540345e-16
1.2148848e-16
5.3822232e-17
2.1279332e-17
7.4847736e-18
2.3343116e-18
6.4303569e-19
1.5577962e-19
3.3019264e-20
6.0867014e-21
9.6869881e-22
1.3191742e-22
1.5200206e-23
1.4606732e-24
1.148262e-25
7.1891323e-27
3.446211e-28
1.1874966e-29
2.6183843e-31
2.7783685e-33
4.9722517e-15
5.229681e-15
5.0261911e-15
4.4036833e-15
3.505299e-15
2.5304047e-15
1.6519825e-15
9.7350869e-16
5.1646315e-16
2.4609421e-16
1.0505131e-16
4.0062875e-17
1.3608924e-17
4.1039005e-18
1.094563e-18
2.5708151e-19
5.2904328e-20
9.4815892e-21
1.4692222e-21
1.9508498e-22
2.1949326e-23
2.0624993e-24
1.5876692e-25
9.7468546e-27
4.5874069e-28
1.5539427e-29
3.3722383e-31
3.52532e-33
1.2580963e-14
1.3908182e-14
1.3995342e-14
1.2879501e-14
1.0811782e-14
8.2515014e-15
5.7164505e-15
3.5845551e-15
2.0310119e-15
1.0370291e-15
4.7612693e-16
1.9605703e-16
7.2212423e-17
2.3720915e-17
6.9268052e-18
1.7914626e-18
4.0859178e-19
8.1766887e-20
1.4271068e-20
2.1565806e-21
2.7965235e-22
3.0770532e-23
2.8315262e-24
2.1373597e-25
1.288349e-26
5.9610957e-28
1.9874528e-29
4.2497823e-31
4.3818552e-33
3.2117669e-14
3.4915269e-14
3.6944531e-14
3.5579125e-14
3.1367239e-14
2.5242846e-14
1.8484168e-14
1.2298601e-14
7.4141099e-15
4.0429322e-15
1.9890288e-15
8.8094027e-16
3.5037216e-16
1.2480798e-16
3.9705837e-17
1.1245173e-17
2.8247856e-18
6.2666155e-19
1.2215345e-19
2.0795686e-20
3.0695144e-21
3.8930858e-22
4.19525e-23
3.7857626e-24
2.805894e-25
1.6627359e-26
7.5723311e-28
2.4877793e-29
5.2476551e-31
5.3426577e-33
2.4226934e-13
8.8362762e-14
9.2006624e-14
9.321571e-14
8.5958413e-14
7.2638054e-14
5.608056e-14
3.943136e-14
2.5221886e-14
1.4632544e-14
7.6880907e-15
3.6488735e-15
1.5610565e-15
6.0053134e-16
2.072068e-16
6.3945137e-17
1.7593798e-17
4.2997853e-18
9.2935163e-19
1.7673892e-19
2.9394271e-20
4.2441146e-21
5.2722492e-22
5.5717328e-23
4.936923e-24
3.5972984e-25
2.098227e-26
9.4165531e-28
3.052106e-29
6.3583994e-31
6.3995466e-33
2.8193181e-12
6.2829486e-13
2.3081785e-13
2.3026629e-13
2.2349205e-13
1.9745314e-13
1.6004618e-13
1.1864203e-13
8.0182334e-14
4.9357533e-14
2.759091e-14
1.3985263e-14
6.4122386e-15
2.6536777e-15
9.8897681e-16
3.3107424e-16
9.9280942e-17
2.6582197e-17
6.3309396e-18
1.3352931e-18
2.4812645e-19
4.0373289e-20
5.7101352e-21
6.9568396e-22
7.2192505e-23
6.2888605e-24
4.5105779e-25
2.5928013e-26
1.1480989e-27
3.6757934e-29
7.5723782e-31
7.5435599e-33
2.1003138e-11
7.112881e-12
1.5471468e-12
5.7259243e-13
5.4756149e-13
5.0941243e-13
4.3152497e-13
3.3578079e-13
2.3924557e-13
1.5559571e-13
9.2289977e-14
4.9774899e-14
2.4374742e-14
1.0812245e-14
4.3354352e-15
1.5679065e-15
5.1014219e-16
1.4890547e-16
3.8862721e-17
9.0341049e-18
1.8621954e-18
3.385968e-19
5.3973992e-20
7.4873855e-21
8.9579287e-22
9.1395373e-23
7.8373961e-24
5.5402949e-25
3.1426633e-26
1.3748315e-27
4.353678e-29
8.8804555e-31
8.7674262e-33
1.1141737e-10
5.2270287e-11
1.7006722e-11
3.6176541e-12
1.3494939e-12
1.2377725e-12
1.1045907e-12
8.9794068e-13
6.7149785e-13
4.6039632e-13
2.8853455e-13
1.6512667e-13
8.6051413e-14
4.0772055e-14
1.7526017e-14
6.8205468e-15
2.3978972e-15
7.5960128e-16
2.16178e-16
5.508232e-17
1.2516681e-17
2.5250532e-18
4.4985658e-19
7.0342947e-20
9.5834129e-21
1.1273882e-21
1.1324062e-22
9.5720954e-24
6.6783556e-25
3.7434222e-26
1.6201926e-27
5.0816352e-29
1.0276758e-30
1.0067753e-32
4.4575599e-10
2.7503475e-10
1.2320235e-10
3.8540339e-11
8.0416211e-12
3.0229912e-12
2.6616569e-12
2.2803641e-12
1.7808863e-12
1.2815682e-12
8.4669867e-13
5.120824e-13
2.8318237e-13
1.4280879e-13
6.5576769e-14
2.7362947e-14
1.0353964e-14
3.5449041e-15
1.0951547e-15
3.0435874e-16
7.58249e-17
1.6866333e-17
3.3344835e-18
5.8283698e-19
8.9518092e-20
1.1993549e-20
1.3892462e-21
1.3757577e-22
1.147996e-23
7.9167516e-25
4.3915534e-26
1.8831459e-27
5.8579704e-29
1.1760727e-30
1.1446308e-32
1.3918637e-09
1.0954607e-09
6.4284119e-10
2.7507723e-10
8.2840527e-11
1.7001821e-11
6.4404174e-12
5.4491002e-12
4.486909e-12
3.3706473e-12
2.3377774e-12
1.4904856e-12
8.7128849e-13
4.6629194e-13
2.2793731e-13
1.016142e-13
4.1234265e-14
1.5197977e-14
5.0758343e-15
1.5316939e-15
4.1630722e-16
1.0154881e-16
2.2141549e-17
4.295594e-18
7.376454e-19
1.1143885e-19
1.4704281e-20
1.6796155e-21
1.6424006e-22
1.355028e-23
9.2505238e-25
5.0857264e-26
2.163694e-27
6.6842314e-29
1.3337883e-30
1.2910095e-32
3.4710105e-09
3.4108608e-09
2.5493821e-09
1.4229597e-09
5.8213016e-10
1.6896862e-10
3.4229417e-11
1.3059863e-11
1.0632602e-11
8.4254904e-12
6.097621e-12
4.0827916e-12
2.5158905e-12
1.4237171e-12
7.3859809e-13
3.5058173e-13
1.5201338e-13
6.009866e-14
2.16134e-14
7.0525782e-15
2.0818848e-15
5.5417668e-16
1.3254116e-16
2.8366653e-17
5.4081243e-18
9.1372368e-19
1.3598652e-19
1.769965e-20
1.996971e-21
1.9313214e-22
1.577922e-23
1.0680064e-24
5.8275985e-26
2.463037e-27
7.5652381e-29
1.5019217e-30
1.4470346e-32
7.051234e-09
8.4848775e-09
7.9187169e-09
5.6196335e-09
2.9846151e-09
1.1682654e-09
3.2733798e-10
6.5682149e-11
2.5233919e-11
1.980072e-11
1.5123226e-11
1.0561891e-11
6.8389287e-12
4.0793437e-12
2.2383919e-12
1.1276212e-12
5.2069333e-13
2.2000559e-13
8.4889386e-14
2.9835103e-14
9.526056e-15
2.7548528e-15
7.1923034e-16
1.6890343e-16
3.5535922e-17
6.6680957e-18
1.1102382e-18
1.6304758e-19
2.0969165e-20
2.3407756e-21
2.2426559e-22
1.8172745e-23
1.2212057e-24
6.6218702e-26
2.7834492e-27
8.5084146e-29
1.6819562e-30
1.6140856e-32
1.1554096e-08
1.7192654e-08
1.9660435e-08
1.7421206e-08
1.1738903e-08
5.9352165e-09
2.2253313e-09
6.0283971e-10
1.2041213e-10
4.652208e-11
3.5251241e-11
2.5994007e-11
1.7550254e-11
1.1006855e-11
6.3654547e-12
3.3926398e-12
1.6627509e-12
7.4834427e-13
3.0866618e-13
1.1642284e-13
4.0049458e-14
1.2531269e-14
3.5556104e-15
9.1184655e-16
2.105937e-16
4.3627158e-17
8.0709684e-18
1.326608e-18
1.9258319e-19
2.4514822e-20
2.7120074e-21
2.5779506e-22
2.0747024e-23
1.3858896e-24
7.4756587e-26
3.1279493e-27
9.5227073e-29
1.8755509e-30
1.7936165e-32
1.2419822e-08
2.8169495e-08
3.9749228e-08
4.3194828e-08
3.6336027e-08
2.3251192e-08
1.1200179e-08
4.0272627e-09
1.0572575e-09
2.1158844e-10
8.1986458e-11
6.0108097e-11
4.2867753e-11
2.8027316e-11
1.7051936e-11
9.5772182e-12
4.9673558e-12
2.3731007e-12
1.0428924e-12
4.2060203e-13
1.5532155e-13
5.2378286e-14
1.608627e-14
4.4854772e-15
1.131833e-15
2.5752006e-16
5.2623571e-17
9.6154038e-18
1.5630196e-18
2.2468226e-19
2.8354959e-20
3.1132926e-21
2.940068e-22
2.3526466e-23
1.5636905e-24
8.3974639e-26
3.4998743e-27
1.0617394e-28
2.0843359e-30
1.9869876e-32
3.0417144e-08
1.2420207e-08
6.5121212e-08
8.7176486e-08
9.0026385e-08
7.1893636e-08
4.3706278e-08
2.0079333e-08
6.9354152e-09
1.7701832e-09
3.5833977e-10
1.383947e-10
9.8365206e-11
6.7955424e-11
4.3095063e-11
2.5475783e-11
1.3922306e-11
7.0408e-12
3.2850341e-12
1.4120056e-12
5.5771455e-13
2.0197065e-13
6.6881061e-14
2.0195718e-14
5.5439852e-15
1.3789792e-15
3.096724e-16
6.2536931e-17
1.1306512e-17
1.8207551e-18
2.5958145e-19
3.2523866e-20
3.5486323e-21
3.3327998e-22
2.6540151e-23
1.7563992e-24
9.3959999e-26
3.9024473e-27
1.1800948e-28
2.3097228e-30
2.1953124e-32
7.0590461e-08
3.041801e-08
1.1555457e-08
1.428192e-07
1.8146499e-07
1.7810635e-07
1.3505601e-07
7.8059747e-08
3.4253982e-08
1.1389812e-08
2.8412486e-09
5.8422092e-10
2.2425342e-10
1.5478756e-10
1.0373889e-10
6.3917371e-11
3.677843e-11
1.9596588e-11
9.6819064e-12
4.4193746e-12
1.8610016e-12
7.2111035e-13
2.5655055e-13
8.3575799e-14
2.4860785e-14
6.7317541e-15
1.6537562e-15
3.6724648e-16
7.3425002e-17
1.3157446e-17
2.1022341e-18
2.9764693e-19
3.7067566e-20
4.0228385e-21
3.7603099e-22
2.9817639e-23
1.9657154e-24
1.0479035e-25
4.3383568e-27
1.3079939e-28
2.5527181e-30
2.4193023e-32
1.5531275e-07
7.0592266e-08
2.8172795e-08
7.0519402e-09
2.9733672e-07
3.5876075e-07
3.3476088e-07
2.4116196e-07
1.3267468e-07
5.5720063e-08
1.7900419e-08
4.4009748e-09
9.1567511e-10
3.4950635e-10
2.3464513e-10
1.527807e-10
9.1623799e-11
5.1417611e-11
2.6767611e-11
1.2943035e-11
5.7897411e-12
2.3927539e-12
9.1129746e-13
3.1913745e-13
1.0248428e-13
3.0092448e-14
8.0537867e-15
1.9578973e-15
4.3072299e-16
8.5396913e-17
1.5188909e-17
2.4107644e-18
3.3932583e-19
4.2037139e-20
4.5408136e-21
4.2265159e-22
3.3384577e-23
2.1929963e-24
1.1652201e-25
4.8093173e-27
1.4457858e-28
2.8137164e-30
2.6590972e-32
3.2416561e-07
1.5531632e-07
6.5128766e-08
1.7194351e-08
3.4712652e-09
5.8809259e-07
6.7424889e-07
5.9845224e-07
4.0997286e-07
2.1504779e-07
8.6701864e-08
2.7054414e-08
6.6417899e-09
1.3826954e-09
5.2484605e-10
3.4327431e-10
2.1748033e-10
1.2721605e-10
6.9772239e-11
3.5557279e-11
1.6856074e-11
7.4028267e-12
3.0085858e-12
1.1286029e-12
3.8988742e-13
1.2368728e-13
3.5925389e-14
9.5218514e-15
2.2946931e-15
5.0087127e-16
9.8605299e-17
1.742672e-17
2.7500809e-18
3.8507893e-19
4.7480705e-20
5.1067612e-21
4.7344268e-22
3.7258052e-23
2.4389832e-24
1.2917678e-25
5.315583e-27
1.5933823e-28
3.0922762e-30
2.9140892e-32
6.4231526e-07
3.2417234e-07
1.4283559e-07
3.9753023e-08
8.4854767e-09
1.3919273e-09
1.1061e-06
1.205935e-06
1.0191068e-06
6.648735e-07
3.3342181e-07
1.2963319e-07
3.9610079e-08
9.7427212e-09
2.0154251e-09
7.6069828e-10
4.8554969e-10
2.9987039e-10
1.714918e-10
9.2105359e-11
4.6033607e-11
2.1434553e-11
9.2618312e-12
3.7098252e-12
1.3738496e-12
4.6924413e-13
1.4737743e-13
4.2426521e-14
1.1155315e-14
2.6688744e-15
5.7867904e-16
1.1322694e-16
1.9898046e-17
3.1237504e-18
4.353017e-19
5.343452e-20
5.7233168e-21
5.2854171e-22
4.1441457e-23
2.7035031e-24
1.4272785e-25
5.8554475e-27
1.750133e-28
3.3869201e-30
3.18276e-32
1.2093181e-06
6.423267e-07
2.9737066e-07
8.7184445e-08
1.9661721e-08
3.4110029e-09
4.4575806e-10
1.9806449e-06
2.0556177e-06
1.6563875e-06
1.0315231e-06
4.9658264e-07
1.8746064e-07
5.6680714e-08
1.3833972e-08
2.8404856e-09
1.0661121e-09
6.6545326e-10
4.015093e-10
2.249743e-10
1.1854656e-10
5.8219331e-11
2.6685376e-11
1.1371711e-11
4.5000734e-12
1.6490701e-12
5.5812134e-13
1.7388542e-13
4.9696128e-14
1.2979966e-14
3.0861232e-15
6.6521943e-16
1.294354e-16
2.262668e-17
3.5344748e-18
4.9023532e-19
5.991306e-20
6.3905948e-21
5.8784476e-22
4.5919274e-23
2.9851795e-24
1.5708727e-25
6.4248451e-27
1.9147386e-28
3.6950392e-30
3.4625863e-32
2.1657477e-06
1.2093334e-06
5.8815895e-07
1.8148097e-07
4.3197404e-08
7.9189936e-09
1.0954596e-09
1.1141171e-10
3.3815356e-06
3.3455707e-06
2.5762818e-06
1.5368248e-06
7.1460676e-07
2.6402784e-07
7.9204851e-08
1.9027159e-08
3.8782354e-09
1.4480264e-09
8.8587365e-10
5.233476e-10
2.8788661e-10
1.4911905e-10
7.2127891e-11
3.2625358e-11
1.3746161e-11
5.3874388e-12
1.9580771e-12
6.5796867e-13
2.0367473e-13
5.7860193e-14
1.5025133e-14
3.552263e-15
7.6147249e-16
1.4736731e-16
2.5627533e-17
3.9833051e-18
5.4986904e-19
6.6898602e-20
7.1052476e-21
6.5093675e-22
5.0652963e-23
3.281241e-24
1.720996e-25
7.0172213e-27
2.0852424e-28
4.0129548e-30
3.7477637e-32
3.6940498e-06
2.1657617e-06
1.1062227e-06
3.5879151e-07
9.0031536e-08
1.7421706e-08
2.5493581e-09
2.7501869e-10
2.1000443e-11
5.5143368e-06
5.2110334e-06
3.8476922e-06
2.2099738e-06
1.0001288e-06
3.6430699e-07
1.0764966e-07
2.5393444e-08
5.1428063e-09
1.9111417e-09
1.1484599e-09
6.6568885e-10
3.6021764e-10
1.8384267e-10
8.7811281e-11
3.9300889e-11
1.6414e-11
6.3861548e-12
2.3065788e-12
7.7071674e-13
2.3730132e-13
6.7055471e-14
1.7319242e-14
4.0722022e-15
8.681069e-16
1.6708329e-16
2.8900541e-17
4.4688237e-18
6.1384689e-19
7.4332365e-20
7.859799e-21
7.1705417e-22
5.557981e-23
3.5875333e-24
1.8754656e-25
7.6238218e-27
2.2591289e-28
4.3349006e-30
4.0319586e-32
6.0101728e-06
3.6940477e-06
1.9808559e-06
6.7430374e-07
1.7811637e-07
3.6336972e-08
5.6195421e-09
6.4279693e-10
5.2262989e-11
2.8186377e-12
8.6077305e-06
7.7911716e-06
5.5427029e-06
3.0853509e-06
1.3687699e-06
4.9133338e-07
1.4240492e-07
3.2971542e-08
6.6447997e-09
2.4578385e-09
1.4535196e-09
8.2833012e-10
4.4198038e-10
2.2286444e-10
1.0541141e-10
4.6804404e-11
1.942329e-11
7.5165942e-12
2.701875e-12
8.9859506e-13
2.7534434e-13
7.7407373e-14
1.9884132e-14
4.6486591e-15
9.852338e-16
1.8852701e-16
3.2424907e-17
4.9864744e-18
6.814065e-19
8.2110774e-20
8.6425967e-21
7.8510786e-22
6.0616308e-23
3.8988107e-24
2.0316489e-25
8.2344614e-27
2.4335516e-28
4.6518171e-30
4.3105559e-32
9.344827e-06
6.0101126e-06
3.3818692e-06
1.2060227e-06
3.3477858e-07
7.1895378e-08
1.1738694e-08
1.4228506e-09
1.2318341e-10
7.1110415e-12
2.4217732e-13
1.2895939e-05
1.122427e-05
7.7409174e-06
4.205459e-06
1.8356382e-06
6.471369e-07
1.8376241e-07
4.1800137e-08
8.3907538e-09
3.0879002e-09
1.8003434e-09
1.0111835e-09
5.3354537e-10
2.665804e-10
1.2519874e-10
5.528392e-11
2.2840395e-11
8.8039572e-12
3.1521295e-12
1.0438407e-12
3.1830574e-13
8.9002173e-14
2.2728353e-14
5.280791e-15
1.1121701e-15
2.1149181e-16
3.6155493e-17
5.5283252e-18
7.5138652e-19
9.0090364e-20
9.4386582e-21
8.5378022e-22
6.5666465e-23
4.2092936e-24
2.1867558e-25
8.8387242e-27
2.6038103e-28
4.958321e-30
4.579403e-32
1.3918794e-05
9.3445909e-06
5.5148119e-06
2.0557304e-06
5.9847931e-07
1.3505861e-07
2.3250777e-08
2.9843861e-09
2.7503232e-10
1.7001993e-11
6.2804347e-13
3.2110652e-14
1.8603884e-05
1.5652858e-05
1.0538327e-05
5.6149331e-06
2.4110057e-06
8.3376443e-07
2.3203406e-07
5.1930457e-08
1.0378691e-08
3.7991581e-09
2.1885883e-09
1.2151417e-09
6.3592823e-10
3.1571744e-10
1.4759203e-10
6.4938045e-11
2.6745195e-11
1.0275651e-11
3.6652519e-12
1.208282e-12
3.6648719e-13
1.0185554e-13
2.5840484e-14
5.9630325e-15
1.2472857e-15
2.3560914e-16
4.0023571e-17
6.0835391e-18
8.2232752e-19
9.8102874e-20
1.0231419e-20
9.2168845e-22
7.0633914e-23
4.513401e-24
2.3381848e-25
9.4264924e-27
2.7662763e-28
5.2501013e-30
4.8351199e-32
1.9923324e-05
1.3918122e-05
8.6082948e-06
3.3456406e-06
1.0191374e-06
2.4116376e-07
4.3705332e-08
5.934776e-09
5.8203638e-10
3.8529181e-11
1.5464931e-12
8.8341865e-14
1.2578085e-14
2.5945953e-05
2.1241137e-05
1.4035007e-05
7.3515737e-06
3.106253e-06
1.053588e-06
2.8762996e-07
6.3386152e-08
1.2598514e-08
4.5904561e-09
2.6200979e-09
1.4425962e-09
7.5094226e-10
3.7137214e-10
1.7314042e-10
7.6000172e-11
3.1222383e-11
1.1957337e-11
4.2473172e-12
1.3928461e-12
4.1985846e-13
1.1588407e-13
2.9184389e-14
6.6846201e-15
1.3880267e-15
2.6037256e-16
4.3943492e-17
6.6396487e-18
8.9266262e-19
1.0597849e-19
1.1005083e-20
9.8758144e-22
7.5435169e-23
4.8064796e-24
2.4838438e-25
9.9810683e-27
2.9189982e-28
5.5241398e-30
6.2929127e-34
2.7510547e-05
1.9921733e-05
1.2896338e-05
5.210877e-06
1.6563873e-06
4.0996649e-07
7.8057189e-08
1.1199346e-08
1.1680855e-09
8.2816991e-11
3.6160915e-12
2.3075921e-13
3.4906639e-14
4.9710629e-15
3.5156221e-05
2.8134955e-05
1.8328119e-05
9.4588716e-06
3.9345601e-06
1.3097875e-06
3.5098167e-07
7.6134934e-08
1.5042869e-08
5.4655502e-09
3.100154e-09
1.6977305e-09
8.8125274e-10
4.3495476e-10
2.0247583e-10
8.8711603e-11
3.6348524e-11
1.3867454e-11
4.900791e-12
1.5970708e-12
4.7795301e-13
1.3089021e-13
3.2699013e-14
7.4302735e-15
1.5311754e-15
2.8520169e-16
4.7824805e-17
7.1844273e-18
9.6095854e-19
1.1357196e-19
1.1746992e-20
1.0505195e-21
8.0010621e-23
5.0853606e-24
2.6214298e-25
1.0496987e-26
3.0609134e-28
7.8555231e-32
4.1006198e-36
3.6795549e-05
2.7507084e-05
1.8603468e-05
7.790562e-06
2.57614e-06
6.6483508e-07
1.3266729e-07
2.0077653e-08
2.2249946e-09
1.6892278e-10
8.0382716e-12
5.7243765e-13
9.1982242e-14
1.39046e-14
1.8555119e-15
4.6519689e-05
3.6503964e-05
2.3526942e-05
1.199022e-05
4.9117599e-06
1.6058247e-06
4.2228275e-07
9.0146062e-08
1.7722134e-08
6.4355508e-09
3.6378786e-09
1.9866291e-09
1.0302245e-09
5.0805257e-10
2.3623387e-10
1.0328241e-10
4.2174768e-11
1.601149e-11
5.6229443e-12
1.8187844e-12
5.3983816e-13
1.465721e-13
3.6304564e-14
8.1821999e-15
1.6733311e-15
3.0953498e-16
5.1587088e-17
7.707886e-18
1.0261429e-18
1.2078429e-19
1.2449344e-20
1.1099881e-21
8.4330622e-23
5.3487267e-24
2.7485222e-25
1.0972855e-26
4.7565224e-30
5.6902177e-34
1.1838092e-38
4.7874389e-05
3.6788963e-05
2.5943445e-05
1.122291e-05
3.8473184e-06
1.0313938e-06
2.1502762e-07
3.4250258e-08
4.0266116e-09
3.2725174e-10
1.6995188e-11
1.3491097e-12
2.3020149e-13
3.6934361e-14
5.2282901e-15
6.5608155e-16
6.0396817e-05
4.6536215e-05
2.9743772e-05
1.5006364e-05
6.0543522e-06
1.944003e-06
5.0162224e-07
1.0549449e-07
2.0673754e-08
7.5194686e-09
4.246281e-09
2.316865e-09
1.2015658e-09
5.9221534e-10
2.7494661e-10
1.198421e-10
4.8710539e-11
1.8377561e-11
6.405083e-12
2.0541334e-12
6.0420211e-13
1.6256353e-13
3.9914867e-14
8.9230705e-15
1.8114969e-15
3.32926e-16
5.5173209e-17
8.2038041e-18
1.087649e-18
1.2757369e-19
1.3109802e-20
1.1659184e-21
8.8395163e-23
5.5934163e-24
2.8653477e-25
1.863321e-28
3.8305101e-32
1.8532081e-36
1.2721332e-41
6.0825544e-05
4.7863321e-05
3.5149503e-05
1.5650491e-05
5.5419959e-06
1.5365643e-06
3.3336766e-07
5.5711922e-08
6.9340767e-09
6.0267898e-10
3.42168e-11
3.0220913e-12
5.4739943e-13
9.318853e-14
1.3991374e-14
1.8629758e-15
2.1911217e-16
7.7186967e-05
5.8458402e-05
3.7094364e-05
1.8568095e-05
7.3740631e-06
2.3256716e-06
5.8950142e-07
1.2243682e-07
2.3967975e-08
8.7440633e-09
4.9413103e-09
2.6965527e-09
1.3987887e-09
6.8867783e-10
3.1891652e-10
1.3839906e-10
5.5913219e-11
2.0935268e-11
7.2331702e-12
2.2980822e-12
6.695616e-13
1.7849751e-13
4.3452858e-14
9.6391174e-15
1.9435919e-15
3.5511269e-16
5.8556827e-17
8.6703126e-18
1.1454365e-18
1.339529e-19
1.3730864e-20
1.2186088e-21
9.2231504e-23
5.8184831e-24
5.315262e-27
1.6679485e-30
1.4087894e-34
2.251876e-39
5.0868452e-45
7.5699511e-05
6.0808549e-05
4.6504753e-05
2.1236774e-05
7.7394138e-06
2.2095445e-06
4.9647992e-07
8.6683012e-08
1.138722e-08
1.0569602e-09
6.5658761e-11
6.4384249e-12
1.2373903e-12
2.2342367e-13
3.5568466e-14
5.0247331e-15
6.2700145e-16
6.8800004e-17
9.7202678e-05
7.2542927e-05
4.5723085e-05
2.2719103e-05
8.8766814e-06
2.7532784e-06
6.8735728e-07
1.4145241e-07
2.7714466e-08
1.0141432e-08
5.739654e-09
3.1330358e-09
1.6245644e-09
7.9807498e-10
3.6812697e-10
1.5882234e-10
6.3689194e-11
2.363941e-11
8.0901079e-12
2.5453238e-12
7.3454072e-13
1.9407473e-13
4.6864243e-14
1.0322323e-14
2.0687154e-15
3.7603707e-16
6.1741749e-17
9.1093808e-18
1.1998862e-18
1.3997439e-19
1.431822e-20
1.268576e-21
9.5789636e-23
1.1784045e-25
5.2864823e-29
6.9308346e-33
1.9438653e-37
9.8257952e-43
1.0045157e-48
9.2513237e-05
7.5675297e-05
6.0366899e-05
2.8124918e-05
1.0535264e-05
3.0845824e-06
7.1444478e-07
1.2959922e-07
1.789504e-08
1.7696467e-09
1.2036991e-10
1.3055691e-11
2.6608049e-12
5.0925029e-13
8.5931449e-14
1.2875561e-14
1.7044189e-15
1.9842614e-16
2.0255203e-17
0.00012084425
8.9106123e-05
5.5744581e-05
2.7477487e-05
1.0568392e-05
3.232703e-06
7.9791338e-07
1.6330446e-07
3.20588e-08
1.1743861e-08
6.6558233e-09
3.6315394e-09
1.8801296e-09
9.2029598e-10
4.2222655e-10
1.8085765e-10
7.1909831e-11
2.6438788e-11
8.9591764e-12
2.7913305e-12
7.9812763e-13
2.0911295e-13
5.0124471e-14
1.097092e-14
2.1870762e-15
3.9580947e-16
6.4753693e-17
9.5254127e-18
1.2516066e-18
1.4570813e-19
1.4878706e-20
1.3161466e-21
2.116623e-24
1.3013879e-27
2.4822297e-31
1.0898778e-35
9.3363537e-41
2.0227218e-46
1.2328811e-52
0.00011126086
9.2481722e-05
7.7130697e-05
3.648469e-05
1.4029219e-05
4.2039677e-06
9.9985701e-07
1.8740865e-07
2.7044963e-08
2.8401564e-09
2.115126e-10
2.5225667e-11
5.4473076e-12
1.1042278e-12
1.9738883e-13
3.135721e-14
4.4023236e-15
5.4370697e-16
5.8882904e-17
5.569538e-18
0.00014857055
0.0001083993
6.7198991e-05
3.2846912e-05
1.2465051e-05
3.7752552e-06
9.2554952e-07
1.8905248e-07
3.7167805e-08
1.3577821e-08
7.6995398e-09
4.1942175e-09
2.1651149e-09
1.0545224e-09
4.8061032e-10
2.0418453e-10
8.0441169e-11
2.9287517e-11
9.8274326e-12
3.0331561e-12
8.5981211e-13
2.235588e-13
5.3236497e-14
1.158806e-14
2.2996218e-15
4.1463233e-16
6.7627496e-17
9.923429e-18
1.3012127e-18
1.5121965e-19
1.5418711e-20
3.170419e-23
2.5933184e-26
6.9036287e-30
4.4615808e-34
5.8138597e-39
2.0137434e-44
2.5249163e-50
1.0750183e-56
0.00013194854
0.00011122473
9.7105333e-05
4.6502672e-05
1.8317692e-05
5.6122502e-06
1.368267e-06
2.6394358e-07
3.9595569e-08
4.3990751e-09
3.5819271e-10
4.6506602e-11
1.0629043e-11
2.2795978e-12
4.3138025e-13
7.2613994e-14
1.0808298e-14
1.415702e-15
1.6264819e-16
1.6321671e-17
1.4259205e-18
0.00018073983
0.00013053979
8.006813e-05
3.8839647e-05
1.4600043e-05
4.3995758e-06
1.076498e-06
2.199675e-07
4.321539e-08
1.565956e-08
8.8727961e-09
4.8202111e-09
2.4778547e-09
1.1994928e-09
5.4259515e-10
2.2850496e-10
8.917646e-11
3.2154317e-11
1.0687693e-11
3.2696655e-12
9.1955046e-13
2.3745795e-13
5.6220393e-14
1.2179202e-14
2.4075121e-15
4.3271062e-16
7.0393898e-17
1.0307368e-17
1.3491508e-18
1.5655319e-19
4.0455849e-22
4.3053472e-25
1.553458e-28
1.4214121e-32
2.6665144e-37
1.321169e-42
2.5639053e-48
2.2079732e-54
7.2389823e-61
0.00015477381
0.00013191679
0.00012069204
5.8405322e-05
2.350939e-05
7.3470158e-06
1.8347614e-06
3.6415703e-07
5.6657367e-08
6.6388313e-09
5.8395971e-10
8.1958895e-11
1.9794027e-11
4.4853838e-12
8.9763379e-13
1.5999176e-13
2.5234432e-14
3.5041684e-15
4.2697312e-16
4.5453571e-17
4.2128093e-18
3.3862967e-19
0.00021749165
0.00015553145
9.4323839e-05
4.5499064e-05
1.7031663e-05
5.1327205e-06
1.2584929e-06
2.574317e-07
5.0377501e-08
1.7993919e-08
1.017199e-08
5.5065258e-09
2.8161832e-09
1.3540102e-09
6.0765164e-10
2.5362455e-10
9.8056635e-11
3.5025692e-11
1.153824e-11
3.5010975e-12
9.775744e-13
2.508963e-13
5.9098974e-14
1.274922e-14
2.5116221e-15
4.5017653e-16
7.3069523e-17
1.0679082e-17
1.3955989e-18
4.4705183e-21
6.0826169e-24
2.9100191e-27
3.6694784e-31
9.5984379e-36
6.4246636e-41
1.7208724e-46
2.2525201e-52
1.4782505e-58
4.4949856e-65
0.00018008506
0.00015476727
0.00014834572
7.2463114e-05
2.9716365e-05
9.4514852e-06
2.4095401e-06
4.9108086e-07
7.9166432e-08
9.7378567e-09
9.1523415e-10
1.3834858e-10
3.5239323e-11
8.4226219e-12
1.7802734e-12
3.3566482e-13
5.6061409e-14
8.2487521e-15
1.0656301e-15
1.2031171e-16
1.1829266e-17
1.0087392e-18
7.4329871e-20
0.00025876021
0.00018331491
0.00011005144
5.2922825e-05
1.9845816e-05
6.0087991e-06
1.4801703e-06
3.028953e-07
5.8836254e-08
2.0572477e-08
1.1592914e-08
6.2504704e-09
3.1787018e-09
1.5175212e-09
6.7557875e-10
2.7948342e-10
1.0706888e-10
3.7901386e-11
1.2380347e-11
3.7281528e-12
1.0341243e-12
2.6393609e-13
6.1884973e-14
1.3300243e-14
2.6122161e-15
4.6704664e-16
7.5653592e-17
1.1038075e-17
4.3339834e-20
7.4339613e-23
4.6346303e-26
7.8933943e-30
2.8215164e-34
2.4699591e-39
8.5893728e-45
1.5216488e-50
1.5012311e-56
9.0960398e-63
2.7837399e-69
0.00020837161
0.00018013666
0.00018042857
8.8990222e-05
3.7053786e-05
1.1978836e-05
3.1039162e-06
6.4672559e-07
1.0758708e-07
1.3826007e-08
1.3819727e-09
2.2418059e-10
6.008817e-11
1.5118135e-11
3.3694923e-12
6.7126528e-13
1.1860099e-13
1.8477869e-14
2.529567e-15
3.0279016e-16
3.1573979e-17
2.8562377e-18
2.2327134e-19
1.5024026e-20
0.00030439153
0.0002138585
0.00012737991
6.1289492e-05
2.3149754e-05
7.066449e-06
1.7507361e-06
3.5786109e-07
6.879787e-08
2.3389142e-08
1.3138547e-08
7.0523436e-09
3.5660472e-09
1.6904087e-09
7.4650981e-10
3.0611983e-10
1.1622278e-10
4.0783919e-11
1.3214721e-11
3.9509896e-12
1.0892151e-12
2.7657015e-13
6.4574117e-14
1.3830715e-14
2.7088484e-15
4.8322878e-16
7.8130005e-17
3.7251213e-19
7.9626651e-22
6.3785804e-25
1.4441878e-28
6.9590989e-33
7.8196541e-38
3.4014633e-43
7.6584871e-49
1.0108041e-54
9.1628432e-61
5.5752675e-67
1.7207003e-73
0.0002401923
0.00020851961
0.00021709494
0.000108248
4.5667087e-05
1.4989702e-05
3.9310362e-06
8.3312801e-07
1.4230649e-07
1.9014471e-08
2.0142729e-09
3.4939656e-10
9.8333852e-11
2.5985537e-11
6.0955706e-12
1.281129e-12
2.391629e-13
3.9417784e-14
5.7145178e-15
7.2483907e-16
8.0138157e-17
7.6885141e-18
6.3755395e-19
4.5510665e-20
2.7853922e-21
0.00035421418
0.00024723353
0.00014649667
7.0847544e-05
2.7064191e-05
8.3483843e-06
2.0796267e-06
4.2394307e-07
8.0521954e-08
2.6462548e-08
1.4817358e-08
7.9182425e-09
3.9812471e-09
1.8737803e-09
8.2073322e-10
3.3357704e-10
1.2551331e-10
4.3666782e-11
1.4038351e-11
4.1685394e-12
1.1425201e-12
2.8871104e-13
6.7144968e-14
1.4335687e-14
2.8005625e-15
4.9855775e-16
2.8636066e-18
7.554253e-21
7.6850095e-24
2.2832412e-27
1.4686231e-31
2.0969774e-36
1.1135316e-41
3.0641248e-47
5.0770051e-53
6.1251882e-59
5.563292e-65
3.4086727e-71
1.0623418e-77
0.0002760375
0.00024046708
0.0002583047
0.00013036071
5.5674355e-05
1.854551e-05
4.9067502e-06
1.0526592e-06
1.8361545e-07
2.5374051e-08
2.8387115e-09
5.2468804e-10
1.547409e-10
4.2854551e-11
1.0558483e-11
2.3369979e-12
4.6023974e-13
8.0154837e-14
1.2294407e-14