/*--------------------------------*- C++ -*----------------------------------*\
| =========                 |                                                 |
| \\      /  F ield         | OpenFOAM: The Open Source CFD Toolbox           |
|  \\    /   O peration     | Version:  5.0                                   |
|   \\  /    A nd           | Web:      www.OpenFOAM.org                      |
|    \\/     M anipulation  |                                                 |
\*---------------------------------------------------------------------------*/
FoamFile
{
    version     2.0;
    format      ascii;
    class       volScalarField;
    location    "20";
    object      p;
}
// * * * * * * * * * * * * * * * * * * * * * * * * * * * * * * * * * * * * * //

dimensions      [0 2 -2 0 0 0 0];

internalField   nonuniform List<scalar> 
9520
(
-9.9389571e-05
-9.5863009e-05
-0.00022989959
-8.9502864e-05
-0.00022179948
-0.00038213137
-8.096026e-05
-0.00020723444
-0.00036883135
-0.00053255042
-7.0782472e-05
-0.00018762512
-0.00034487259
-0.0005143988
-0.00069380049
-5.9472386e-05
-0.00016424203
-0.00031257682
-0.00048165303
-0.00067061269
-0.00086328393
-4.7450736e-05
-0.0001382125
-0.00027399331
-0.00043744748
-0.00062867968
-0.00083545019
-0.0010425666
-3.5086313e-05
-0.00011050881
-0.0002309667
-0.00038447706
-0.00057199323
-0.00078467637
-0.0010101132
-0.0012332874
-2.2680021e-05
-8.198953e-05
-0.00018507975
-0.0003252663
-0.00050389142
-0.00071589626
-0.00095063967
-0.0011962506
-0.0014349735
-1.0496263e-05
-5.3350224e-05
-0.00013776884
-0.00026189123
-0.00042760066
-0.00063291989
-0.00086975427
-0.0011286096
-0.0013935323
-0.0016484406
1.2827093e-06
-2.51963e-05
-9.0198151e-05
-0.00019629076
-0.00034579759
-0.00053944985
-0.00077190635
-0.0010360577
-0.001318242
-0.0016032275
-0.0018728509
1.2469141e-05
2.0384811e-06
-4.3364867e-05
-0.00013008344
-0.00026087033
-0.00043881354
-0.00066123117
-0.00092359496
-0.0012146435
-0.0015210471
-0.0018247688
-0.0021083894
2.3026463e-05
2.7943816e-05
1.9951562e-06
-6.4660035e-05
-0.00017490287
-0.00033394305
-0.00054144055
-0.0007956972
-0.001088139
-0.0014073581
-0.0017365137
-0.0020582983
-0.0023540163
3.2753373e-05
5.2386498e-05
4.5222514e-05
-1.0810942e-06
-8.9688248e-05
-0.00022735922
-0.00041596135
-0.00065653901
-0.00094336953
-0.0012675952
-0.0016138964
-0.0019651545
-0.0023025421
-0.002609004
4.186193e-05
7.4999243e-05
8.6035636e-05
5.9714704e-05
-6.6197612e-06
-0.00012126784
-0.00028780163
-0.00050992628
-0.00078482467
-0.0011065811
-0.0014620486
-0.001835081
-0.0022060065
-0.0025568348
-0.0028716415
4.9908817e-05
9.6086804e-05
0.00012390839
0.00011726281
7.307997e-05
-1.742918e-05
-0.00015960299
-0.00035931909
-0.00061667841
-0.00092896072
-0.001285759
-0.0016727053
-0.0020702699
-0.0024587128
-0.002819758
-0.003140493
5.7644605e-05
0.00011496551
0.00015914581
0.00017085177
0.00014874604
8.2617756e-05
-3.3536123e-05
-0.00020779916
-0.00044281529
-0.00073918064
-0.0010896986
-0.0014825909
-0.0018993521
-0.0023195051
-0.0027220004
-0.003090228
-0.0034137601
6.39095e-05
0.00013276989
0.000190928
0.00022075707
0.00021947105
0.0001779565
8.85034e-05
-5.7983082e-05
-0.00026676869
-0.00054149925
-0.00087849493
-0.0012692558
-0.001697304
-0.0021425001
-0.0025818208
-0.0029949014
-0.0033664733
-0.0036897363
7.055257e-05
0.00014782115
0.00022054888
0.00026601522
0.00028546041
0.00026745849
0.00020528753
8.7834205e-05
-9.163243e-05
-0.0003398967
-0.00065670852
-0.0010373439
-0.0014683009
-0.001930964
-0.0024015566
-0.0028565705
-0.0032757515
-0.0036467259
-0.0039665377
7.5036992e-05
0.00016279485
0.00024616396
0.00030802984
0.00034561032
0.00035120228
0.0003154332
0.00022805152
7.9853955e-05
-0.00013795836
-0.00042873916
-0.00079161419
-0.0012168332
-0.001688513
-0.0021834713
-0.0026763684
-0.0031423253
-0.0035629966
-0.0039290686
-0.0042421916
8.0844848e-05
0.00017420136
0.00027071393
0.00034484477
0.00040135777
0.00042794274
0.00041882506
0.00036097887
0.00024565159
6.1073502e-05
-0.00019865978
-0.00053682584
-0.00094773607
-0.0014192771
-0.0019303791
-0.0024552964
-0.0029658196
-0.0034377766
-0.0038547709
-0.0042115091
-0.0045150812
8.3837696e-05
0.0001867647
0.0002906134
0.00037949634
0.00045069769
0.00049908242
0.00051406289
0.00048625545
0.00040370419
0.00025467434
2.972696e-05
-0.00027752496
-0.00066602951
-0.0011279874
-0.0016458033
-0.0021950894
-0.0027457605
-0.0032689989
-0.0037411629
-0.0041491167
-0.00449236
-0.0047826238
8.8725475e-05
0.00019520555
0.00031062775
0.00040859677
0.00049662533
0.00056260803
0.00060245018
0.00060226609
0.00055334021
0.00044032713
0.00025337693
-1.811203e-05
-0.00037670124
-0.00081978158
-0.0013341502
-0.0018984036
-0.0024825613
-0.0030545209
-0.003584344
-0.0040506154
-0.0044441197
-0.004769256
-0.0050439431
9.096784e-05
0.00020529462
0.00032595573
0.00043643974
0.00053610619
0.00062138631
0.00068195128
0.00071021996
0.00069265774
0.00061701754
0.00046919187
0.00023782046
-8.4728883e-05
-0.00050001531
-0.0010005018
-0.0015690759
-0.0021777476
-0.0027931715
-0.0033803302
-0.0039101964
-0.0043641755
-0.0047375797
-0.0050408195
-0.0052966453
9.44561e-05
0.00021199592
0.00034150843
0.00045957941
0.00057268146
0.00067282786
0.00075529068
0.00080793482
0.00082276553
0.00078241203
0.00067579131
0.00048645888
0.00020569485
-0.00017417344
-0.00065045002
-0.0012119206
-0.0018343135
-0.0024850653
-0.0031261505
-0.003721919
-0.0042446432
-0.004679576
-0.0050277914
-0.0053046116
-0.0055401505
9.6821333e-05
0.00021910083
0.00035403206
0.00048061721
0.00060450419
0.00071957401
0.00082020222
0.00089812439
0.00094118225
0.00093759081
0.00087021858
0.0007260466
0.0004899703
0.00015288372
-0.00028990051
-0.00083258554
-0.0014565518
-0.0021320592
-0.0028202558
-0.0034808278
-0.0040775389
-0.0045854008
-0.004994807
-0.0053122842
-0.0055601981
-0.005772457
9.8557689e-05
0.00022538368
0.00036484691
0.00050009074
0.00063161641
0.00076152404
0.00087870402
0.00097853056
0.001050791
0.0010794762
0.0010536051
0.00095276373
0.00076589127
0.00047578294
7.5592013e-05
-0.00043729996
-0.0010499582
-0.0017376429
-0.002463067
-0.0031834603
-0.0038557981
-0.0044450354
-0.0049302963
-0.005307407
-0.0055898128
-0.0058051909
-0.0059925866
0.00010128767
0.00022937023
0.00037606891
0.00051426342
0.00065884567
0.00079578345
0.00093205351
0.0010509891
0.0011489358
0.0012114656
0.0012219311
0.0011679082
0.0010286096
0.00079169571
0.00043993092
-3.2264288e-05
-0.00062094179
-0.0013069054
-0.0020569479
-0.0028284842
-0.0035738397
-0.004249251
-0.0048221886
-0.0052766586
-0.0056154378
-0.0058580075
-0.0060385082
-0.0061995738
0.00010199187
0.00023547289
0.00038253601
0.00053177234
0.00067637894
0.00083228572
0.00097491467
0.0011175658
0.0012378357
0.0013298689
0.0013794856
0.001366127
0.0012795844
0.0010947019
0.00079944093
0.00037571328
-0.00017625476
-0.00084621998
-0.001606246
-0.0024167712
-0.0032282908
-0.0039901892
-0.0046590797
-0.0052061734
-0.005622195
-0.0059165174
-0.0061160247
-0.0062590032
-0.0063927226
0.00010403462
0.00023761827
0.00039262833
0.0005401188
0.00070111086
0.00085361847
0.0010215596
0.0011710514
0.0013195678
0.0014380387
0.0015208306
0.0015530537
0.0015118431
0.0013862322
0.0011471931
0.00078195063
0.0002765906
-0.00036275208
-0.0011170054
-0.0019515357
-0.0028181705
-0.0036621794
-0.0044307381
-0.0050824606
-0.0055943919
-0.0059641167
-0.0062090212
-0.0063618209
-0.0064658174
-0.0065715158
0.00010551865
0.00024214767
0.00039667234
0.00055514202
0.00071093873
0.00088696786
0.0010484209
0.0012292088
0.0013862466
0.0015369483
0.0016513646
0.0017208081
0.0017325194
0.0016575711
0.0014842209
0.0011785586
0.00073183552
0.00013537724
-0.00059655021
-0.0014381179
-0.0023451475
-0.0032620398
-0.004129006
-0.0048929118
-0.0055166047
-0.0059836438
-0.0063001632
-0.0064905877
-0.0065943876
-0.0066582647
-0.0067356321
0.00010459526
0.00024515911
0.00040418381
0.00056101066
0.00073192266
0.00089815273
0.0010909591
0.0012634262
0.001457363
0.0016197727
0.0017692377
0.0018781181
0.0019307256
0.0019172103
0.001800121
0.0015658092
0.0011806272
0.00064130443
-5.3426466e-05
-0.00088362627
-0.0018134152
-0.0027894672
-0.0037482049
-0.0046267717
-0.0053739347
-0.0059579751
-0.0063711295
-0.0066276877
-0.0067601946
-0.0068126838
-0.0068358736
-0.0068849267
0.00010726296
0.00024392855
0.00040902275
0.0005711713
0.00073912616
0.0009265578
0.001105425
0.0013163825
0.0015010104
0.001706123
0.0018708565
0.0020183636
0.0021189674
0.0021510519
0.0021043216
0.0019317319
0.0016221787
0.001145254
0.00050444952
-0.00029679149
-0.0012294472
-0.0022470395
-0.0032856558
-0.0042756256
-0.005153002
-0.0058701089
-0.0064032725
-0.006753609
-0.0069447017
-0.0070158635
-0.0070159634
-0.006998361
-0.0070194202
0.00010622768
0.00024889557
0.00040769674
0.00057847687
0.00075302778
0.00093394845
0.0011419944
0.0013361113
0.0015651858
0.0017619265
0.0019740928
0.0021440519
0.0022852091
0.0023751986
0.0023795923
0.0022863002
0.0020430344
0.001645075
0.0010664571
0.00031364071
-0.00060181037
-0.0016401309
-0.0027418468
-0.0038340455
-0.004842501
-0.0057041201
-0.0063777535
-0.0068486264
-0.0071283387
-0.0072489161
-0.0072565786
-0.0072036613
-0.0071456253
-0.0071392815
0.0001078633
0.00024687612
0.00041435577
0.00057728025
0.00076359735
0.0009533558
0.0011507594
0.0013819283
0.0015914466
0.0018397131
0.0020447881
0.0022650781
0.0024381152
0.0025723391
0.0026451631
0.00260925
0.0024533411
0.0021259876
0.0016287521
0.00093622923
6.0224696e-05
-0.00097668405
-0.0021205029
-0.0032999311
-0.0044339483
-0.0054457645
-0.0062762872
-0.0068924266
-0.0072905268
-0.0074923467
-0.0075387187
-0.0074812339
-0.0073754276
-0.007277729
-0.0072448096
0.00010739993
0.00025050821
0.00041119575
0.00058584127
0.00076166235
0.00096535571
0.0011776842
0.0013935155
0.0016460664
0.0018741348
0.0021386372
0.0023543575
0.0025814208
0.002757389
0.0028788913
0.0029228177
0.0028297318
0.0025977474
0.0021754078
0.0015653524
0.00074448914
-0.00026617377
-0.001428427
-0.0026747592
-0.0039221933
-0.0050832947
-0.0060817627
-0.0068646645
-0.0074098573
-0.0077251595
-0.0078432018
-0.0078123585
-0.0076891651
-0.0075311039
-0.0073948818
-0.0073364149
0.0001081152
0.0002500047
0.0004179709
0.00058214478
0.00077357159
0.00096225944
0.0011870512
0.0014265611
0.0016626283
0.0019405568
0.0021829576
0.0024645808
0.0026950854
0.0029264371
0.0031012075
0.003199553
0.003197427
0.0030340432
0.0027148891
0.0021838911
0.0014437352
0.0004788651
-0.00067478262
-0.0019635758
-0.0033058714
-0.0046081282
-0.0057790888
-0.0067455681
-0.0074643212
-0.0079253207
-0.0081491582
-0.0081784377
-0.0080686969
-0.007879833
-0.0076707154
-0.0074974236
-0.007414603
0.0001081248
0.00025204305
0.00041827606
0.00059058746
0.00077175413
0.00097600052
0.0011792961
0.0014418035
0.0017013
0.0019645982
0.0022635704
0.0025218551
0.0028250352
0.0030663983
0.0033015441
0.0034658845
0.0035229827
0.0034625876
0.0032183892
0.0027984424
0.0021394795
0.0012496318
0.00012802831
-0.0011744938
-0.0025875486
-0.0040154873
-0.005355982
-0.0065167699
-0.0074318195
-0.0080696435
-0.0084344009
-0.0085591113
-0.0084961155
-0.0083065746
-0.008052999
-0.0077944478
-0.0075858078
-0.0074799587
0.00010838788
0.00025187009
0.00042153963
0.00058740662
0.00077823573
0.00097194189
0.0011969031
0.0014417438
0.0017187592
0.0020121681
0.0022954725
0.0026201723
0.0028987394
0.0032198845
0.0034733377
0.0037034725
0.0038390572
0.0038437277
0.0037148851
0.0033779336
0.0028365215
0.0020265346
0.00096979669
-0.00031928488
-0.0017735253
-0.0033047535
-0.0048037801
-0.0061621648
-0.0072909301
-0.0081341599
-0.008675111
-0.0089325577
-0.0089521029
-0.0087944105
-0.0085253481
-0.0082085532
-0.0079026332
-0.0076605802
-0.0075331251
0.00010847504
0.00025264015
0.00042195318
0.00059143635
0.00077324975
0.00098248695
0.0011930533
0.0014523017
0.0017191288
0.0020340029
0.0023596765
0.0026588916
0.0030157095
0.0033140593
0.0036547262
0.0039134482
0.0041189275
0.0042165248
0.0041592069
0.0039518095
0.003501224
0.0028124958
0.0018304435
0.00059102336
-0.00087425488
-0.0024796176
-0.0041180426
-0.0056688733
-0.0070217822
-0.0080947786
-0.0088460134
-0.0092749165
-0.0094156821
-0.0093253776
-0.0090719852
-0.0087244395
-0.0083466593
-0.0079957371
-0.0077223555
-0.0075747779
0.00025265825
0.00010846952
0.00042305128
0.00059222713
0.00078075303
0.00097884857
0.0012100466
0.0014406445
0.0017378839
0.0020265417
0.0023881349
0.0027362724
0.0030650817
0.0034527657
0.0037741286
0.004126665
0.0043727553
0.004544945
0.0045961516
0.0044698228
0.0041636898
0.0035712746
0.0027103842
0.0015361971
9.9154048e-05
-0.0015483527
-0.0032989815
-0.0050280487
-0.0066071079
-0.0079281085
-0.00892088
-0.0095602498
-0.0098635524
-0.0098798258
-0.009676696
-0.0093277162
-0.0089037063
-0.0084676436
-0.0080743315
-0.0077717977
-0.0076056199
0.00042289233
0.00025274823
0.00010836763
0.00059408711
0.00077903525
0.00098613276
0.0012078883
0.0014578438
0.0017308223
0.0020519762
0.0023795011
0.0027741602
0.0031594698
0.0035152469
0.0039398363
0.0042754015
0.0046222818
0.0048489189
0.0049811524
0.0049822042
0.00476779
0.0043335011
0.0035713888
0.0025138814
0.0011265923
-0.00052143995
-0.0023518397
-0.0042356138
-0.0060332292
-0.0076125381
-0.0088732422
-0.0097608579
-0.01026981
-0.010435607
-0.01032157
-0.010004123
-0.0095609348
-0.0090631373
-0.0085719542
-0.0081390402
-0.0078096173
-0.0076264059
0.00059490055
0.00042326451
0.00025263483
0.00010813996
0.00078075696
0.00098364632
0.0012132423
0.0014522242
0.001739814
0.0020471135
0.0024022987
0.0027671429
0.0032053834
0.0036294282
0.0040194651
0.0044704825
0.0048062186
0.0051403655
0.0053428938
0.0054354149
0.0053694941
0.0050361069
0.0044432486
0.0034842033
0.0022032627
0.00058197223
-0.0012854067
-0.0032928146
-0.0052910732
-0.0071293512
-0.0086774284
-0.0098478268
-0.010606046
-0.010967565
-0.010986166
-0.010737871
-0.010306256
-0.0097712479
-0.0092030347
-0.0086600234
-0.0081905392
-0.0078365811
-0.0076379269
0.00078067658
0.00059481764
0.00042322548
0.00025192099
0.00010811512
0.00098786516
0.0012103619
0.0014625227
0.0017316147
0.0020609344
0.0023991452
0.0028048551
0.0032018801
0.0036862098
0.0041545596
0.0045715441
0.0050345053
0.0053645024
0.0056842415
0.005867533
0.0059040899
0.0057408327
0.0052560122
0.0044749714
0.0032877018
0.0017549653
-0.00011683973
-0.0022054397
-0.0043768693
-0.0064639203
-0.0083097179
-0.0097919458
-0.010841693
-0.011447415
-0.01164678
-0.011510724
-0.011126304
-0.010582092
-0.0099586065
-0.0093237407
-0.0087325132
-0.0082296514
-0.0078534943
-0.0076408772
0.00098692545
0.00078064959
0.00059379918
0.00042213251
0.00025197439
0.00010738874
0.0012144314
0.0014654692
0.0017408113
0.0020639684
0.0024152197
0.0028030985
0.0032419049
0.0036824042
0.0042200578
0.0047358271
0.0051603246
0.0056315697
0.0059565203
0.0062701139
0.0064202878
0.0063699521
0.0060765088
0.0054097668
0.0044058137
0.0029554875
0.0011455482
-0.00098758912
-0.0032922022
-0.0056066639
-0.0077496683
-0.0095648226
-0.010944754
-0.01184385
-0.0122761
-0.01230109
-0.012005467
-0.011484971
-0.010831063
-0.010123108
-0.0094258156
-0.0087903573
-0.0082573133
-0.0078611171
-0.0076357748
0.0012141101
0.00098651241
0.00078113763
0.00059218115
0.00042152811
0.00024997008
0.00010784592
0.0014661511
0.0017482688
0.0020615166
0.0024218034
0.0028180235
0.0032502068
0.0037295188
0.0042136587
0.0048136696
0.0053586601
0.0057860407
0.006269425
0.0066035794
0.006895785
0.0069837903
0.0068139406
0.006360388
0.0054746344
0.0042075033
0.0024606187
0.00035240452
-0.00204672
-0.0045537434
-0.0069813086
-0.0091402609
-0.010882797
-0.012123037
-0.012843073
-0.013083464
-0.012924853
-0.012467233
-0.011812517
-0.011052831
-0.010265107
-0.0095101698
-0.0088346298
-0.0082742859
-0.0078600423
-0.0076232487
0.001467819
0.0012139981
0.00098749545
0.00077888031
0.00059205124
0.00041837673
0.0002505387
0.00010619085
0.0017437688
0.0020634234
0.0024237142
0.0028266692
0.0032723785
0.0037475779
0.0042690847
0.0048053541
0.0054547706
0.0060194712
0.0064613396
0.0069721055
0.0073023101
0.007545143
0.0075404975
0.0072221422
0.0065715413
0.005421868
0.0038499334
0.0017753635
-0.00064754737
-0.0033090324
-0.0059942843
-0.0084955845
-0.010624265
-0.012249412
-0.013313134
-0.013828071
-0.013861544
-0.013513186
-0.012893536
-0.012107917
-0.011247415
-0.010385489
-0.0095781377
-0.0088660913
-0.0082809207
-0.0078507918
-0.0076043265
0.0017479718
0.0014678185
0.0012144111
0.00098336852
0.00078033359
0.00058737166
0.00041815827
0.00024672261
0.00010726112
0.0020570629
0.0024273268
0.0028283723
0.0032951074
0.0037514627
0.0042819454
0.0048727918
0.005449663
0.0061411189
0.0067347203
0.0072121864
0.0077375384
0.0080369741
0.0082034542
0.008080841
0.0075756677
0.0066812892
0.0052189137
0.0033005787
0.00086964599
-0.001877079
-0.0047855972
-0.0076132048
-0.01013989
-0.012186841
-0.01364874
-0.014500803
-0.014788036
-0.014603189
-0.014062015
-0.013282325
-0.012370634
-0.011415574
-0.010485778
-0.0096305562
-0.0088847363
-0.0082776061
-0.0078343671
-0.0075797794
0.0020669736
0.0017476088
0.0014665499
0.0012102153
0.0009857949
0.00077308394
0.00059054962
0.00041081334
0.00024882024
0.00010459308
0.0024206145
0.0028276013
0.003300841
0.0037926649
0.0043004294
0.0048909023
0.0055298579
0.0061430537
0.0068836723
0.007539719
0.0080310936
0.0085523534
0.0087970636
0.0088639762
0.0085880188
0.0078466117
0.0066549182
0.004828424
0.0025220283
-0.00028785932
-0.0033552685
-0.0064821166
-0.0094044583
-0.011899993
-0.013810301
-0.015063473
-0.015671901
-0.015712933
-0.015302171
-0.014567816
-0.013632192
-0.012601147
-0.011558948
-0.010566774
-0.009666935
-0.0088907415
-0.0082659654
-0.0078125046
-0.0075503608
0.0024351468
0.0020671867
0.0017429534
0.0014654637
0.0012128165
0.0009786728
0.0007781086
0.0005827097
0.00041407881
0.00024384718
0.00010551882
0.0028320815
0.0033327173
0.003790317
0.0043349402
0.0049196432
0.0055643606
0.0062339807
0.0068958724
0.007720359
0.0084207583
0.0089117209
0.0094075651
0.0095816471
0.0095119577
0.0090347768
0.0079987888
0.0064517579
0.0042068428
0.0014738836
-0.0017256913
-0.0050960165
-0.0083981856
-0.011356118
-0.013757391
-0.015474442
-0.016475738
-0.016812842
-0.016593694
-0.015952909
-0.015027872
-0.013943107
-0.012801087
-0.011678276
-0.010627357
-0.0096868308
-0.0088868269
-0.0082493339
-0.0077861065
-0.0075160315
0.0028535522
0.0024348789
0.0020575328
0.0017459917
0.0014625724
0.0012071178
0.00098230032
0.00077182312
0.00058617622
0.0004074982
0.00024507516
0.00010403754
0.0033419502
0.0038808178
0.0043434044
0.0049521422
0.0056100086
0.0062782778
0.0070028448
0.007732585
0.0086395293
0.0093767281
0.0098497782
0.010305465
0.010376751
0.010121926
0.0093858292
0.0079891492
0.0060235147
0.0033063669
0.00011792096
-0.0034676585
-0.007106944
-0.010526496
-0.01345043
-0.015689593
-0.017157481
-0.017867758
-0.017910946
-0.017421968
-0.016550809
-0.015441284
-0.014216617
-0.012971145
-0.011771656
-0.010666553
-0.0096940285
-0.0088785167
-0.0082289178
-0.0077529807
-0.0074740798
0.0033860754
0.0028534655
0.002419443
0.0020644647
0.0017407429
0.0014525449
0.0012091035
0.00097161673
0.00077370122
0.00057757403
0.00040887287
0.00024207015
0.00010199544
0.0038785799
0.0044016035
0.0049950499
0.0056705334
0.0063257154
0.0070600853
0.0078526235
0.0086628716
0.0096426408
0.010404767
0.010850839
0.011235119
0.011159154
0.010660552
0.0095992773
0.0077669074
0.0053151329
0.0020785684
-0.0015811422
-0.0055318612
-0.0093879153
-0.012852114
-0.015663758
-0.017671056
-0.018836909
-0.019222392
-0.018954212
-0.018190529
-0.017093606
-0.015809279
-0.014453127
-0.013108296
-0.011837326
-0.010689768
-0.0096975045
-0.0088673516
-0.0081980442
-0.0077076094
-0.0074252612
0.0039206754
0.0033892044
0.002830552
0.0024263005
0.002060988
0.001734329
0.0014583203
0.001191878
0.00097590156
0.00076195227
0.00057868877
0.00040406202
0.00023754651
0.00010129178
0.0044051452
0.0050593791
0.0056889171
0.0064137735
0.0071061232
0.0079325941
0.0088065671
0.0096828943
0.010730375
0.011515702
0.011905389
0.012175717
0.01190125
0.011088368
0.0096239638
0.0072716559
0.00426743
0.00047532073
-0.00365478
-0.0079289
-0.011929677
-0.015352068
-0.017967452
-0.019674226
-0.020490278
-0.020522981
-0.019931846
-0.018895063
-0.017581875
-0.016131739
-0.014648055
-0.013209703
-0.01188278
-0.010710199
-0.0096994727
-0.0088401114
-0.0081456061
-0.0076555566
-0.0073704033
0.0044784994
0.0039216078
0.0033331206
0.0028254848
0.0024226187
0.0020613851
0.0017406322
0.0014424078
0.0011967423
0.00096230797
0.00076374643
0.00057132143
0.00039657481
0.00023540646
9.856204e-05
0.0050260386
0.0057494363
0.0063980468
0.0072143072
0.0080013207
0.0089089991
0.00985076
0.010797491
0.011915439
0.012702308
0.012997982
0.013105203
0.01256829
0.011354975
0.0093952436
0.0064328279
0.0028176946
-0.001549465
-0.0061270342
-0.010658699
-0.014712564
-0.017995946
-0.020329019
-0.021670601
-0.022095158
-0.021754019
-0.02083659
-0.019535009
-0.018014618
-0.016402166
-0.014797276
-0.013285318
-0.011926502
-0.010730505
-0.0096775745
-0.0087770943
-0.0080867053
-0.0075970522
-0.0073094204
0.0050921864
0.004478176
0.0038759816
0.0033291326
0.0028259238
0.0024194188
0.0020590407
0.0017310421
0.0014523867
0.0011803749
0.00096534529
0.00075315362
0.00056112164
0.00039254615
0.00022931011
9.6825437e-05
0.005758125
0.0064665376
0.0072244905
0.008122448
0.0089929855
0.0099807523
0.01099171
0.012023507
0.01319452
0.013951449
0.014115118
0.013995537
0.013111095
0.011390852
0.0088321501
0.0051728808
0.0009018196
-0.0040363303
-0.0090100722
-0.013708122
-0.017706506
-0.020746944
-0.022713389
-0.023630824
-0.023629971
-0.022904148
-0.02166606
-0.020108074
-0.018382816
-0.016614363
-0.014913737
-0.013360392
-0.011972011
-0.010716225
-0.0096003676
-0.008707577
-0.0080208082
-0.007532307
-0.0072423848
0.0058066013
0.0050912663
0.0044057979
0.0038795954
0.0032964418
0.0028246648
0.0024133753
0.002045176
0.0017378732
0.0014403523
0.0011876301
0.00095349948
0.00073920916
0.00055521869
0.00038246498
0.00022532891
9.4459612e-05
0.0065705891
0.0073292271
0.0081713004
0.0091248893
0.01007803
0.011159531
0.01225335
0.013362119
0.014560527
0.015258662
0.015235609
0.014799556
0.013459184
0.01110324
0.0078436814
0.0034126397
-0.0015409506
-0.0070145149
-0.012301208
-0.017050671
-0.02087195
-0.023563342
-0.025083187
-0.025525707
-0.025077822
-0.023968228
-0.022416028
-0.020601734
-0.018677383
-0.016784751
-0.01503138
-0.013439053
-0.011968469
-0.010620926
-0.0095162674
-0.0086302978
-0.0079485941
-0.0074612273
-0.0071693178
0.0066279059
0.0058060824
0.005029249
0.0044012939
0.0037856655
0.0032924311
0.0028161172
0.0023970236
0.0020502322
0.0017186571
0.0014407575
0.0011780376
0.0009340434
0.00073199367
0.00054016308
0.00037600508
0.00021905113
9.0970583e-05
0.0074431382
0.0083017287
0.009194151
0.010221189
0.011279725
0.012472681
0.013639165
0.014811031
0.016016198
0.016610557
0.016315486
0.015445851
0.013515178
0.010388112
0.0063366362
0.0010734635
-0.0045607188
-0.01049744
-0.015981658
-0.020646626
-0.024161195
-0.026398889
-0.027399957
-0.027331072
-0.026429589
-0.024939247
-0.023069302
-0.021003008
-0.018918947
-0.016958395
-0.015154831
-0.013450978
-0.011850448
-0.010518001
-0.0094234587
-0.0085466344
-0.0078698563
-0.0073839193
-0.0070902031
0.0075319551
0.0066298834
0.0057587865
0.0050633732
0.0043464239
0.0037906096
0.0032699387
0.0028012599
0.0024003216
0.0020250154
0.0017184492
0.0014256021
0.001150934
0.00092664375
0.0007109853
0.00053178986
0.00036478674
0.00021195012
8.8726721e-05
0.0083723461
0.009326897
0.01031061
0.01143835
0.012626489
0.013927321
0.015145558
0.016380796
0.017556516
0.017963927
0.017286626
0.015831944
0.013166957
0.0091420524
0.0042109928
-0.0019169419
-0.0081916931
-0.014480513
-0.020015389
-0.024443804
-0.027518727
-0.029204164
-0.029630177
-0.02903224
-0.027674353
-0.025793896
-0.023607705
-0.021337521
-0.019166246
-0.017140891
-0.015187264
-0.01330523
-0.011723725
-0.010404987
-0.0093242444
-0.0084562902
-0.0077846055
-0.0073003568
-0.007005215
0.0084939486
0.0075326439
0.0065713111
0.0057426506
0.004997583
0.0043354998
0.0037498104
0.0032482519
0.0028031675
0.0023776303
0.0020325799
0.0017008203
0.001392759
0.0011420266
0.00089820777
0.00070113521
0.0005142583
0.00035397285
0.00020525183
8.3837622e-05
0.0093800394
0.010455039
0.011547314
0.012814467
0.014129136
0.015519775
0.016793272
0.018080285
0.019146058
0.019249872
0.018049198
0.015828964
0.012304708
0.0072432465
0.0013630339
-0.0056180827
-0.012448303
-0.018937297
-0.024348603
-0.028377717
-0.030882679
-0.031933957
-0.031751628
-0.030612943
-0.028780864
-0.026507002
-0.024062502
-0.021680886
-0.019426039
-0.017202129
-0.015007401
-0.013149072
-0.011585175
-0.010285608
-0.0092181665
-0.0083593686
-0.007692985
-0.0072107256
-0.006914369
0.009511576
0.0084948359
0.007437987
0.006462277
0.0056796849
0.0049527798
0.0043007156
0.0037449365
0.0032398535
0.0027652968
0.0023862775
0.0020108774
0.0016621307
0.0013812567
0.0011053602
0.00088698668
0.00067638231
0.00050006509
0.00034144865
0.0001951647
8.0842636e-05
0.010519224
0.011697698
0.013002158
0.014377644
0.015772086
0.017283145
0.018595461
0.019897299
0.020722717
0.020375213
0.018461488
0.015326374
0.010788893
0.0045539651
-0.0023046341
-0.010071197
-0.017318004
-0.023816769
-0.028909295
-0.032372885
-0.034193638
-0.034556088
-0.033740857
-0.032031703
-0.029714603
-0.027116085
-0.024530095
-0.022041244
-0.01952638
-0.016981607
-0.014814835
-0.012978867
-0.011440367
-0.010159168
-0.0091053531
-0.0082559588
-0.0075951855
-0.0071151226
-0.0068177517
0.010632621
0.0095127576
0.0083740787
0.0073327391
0.0063928453
0.0056655847
0.0049192725
0.0042818346
0.0037272401
0.0031999872
0.0027724737
0.002357926
0.0019633891
0.0016455394
0.0013355251
0.0010908169
0.00085360244
0.00065882565
0.00048057472
0.00032589382
0.00018672469
7.5032849e-05
0.011805557
0.013137076
0.0145976
0.016057319
0.017622068
0.019227045
0.020554839
0.021788012
0.022206922
0.02121897
0.018443378
0.014176677
0.0084529322
0.00094278449
-0.0068726486
-0.01528821
-0.022757959
-0.029042643
-0.033608198
-0.036353043
-0.037406575
-0.037037621
-0.03554333
-0.03324163
-0.030519831
-0.027743013
-0.025020362
-0.022194158
-0.01925733
-0.016744947
-0.014605561
-0.012802549
-0.011288283
-0.010025851
-0.0089859133
-0.0081462821
-0.0074913937
-0.0070135851
-0.0067154817
0.011909973
0.010635003
0.0093812638
0.0083030843
0.0072331862
0.0064117466
0.0056057529
0.0048900562
0.0042686174
0.0036805954
0.0032036347
0.0027346882
0.0022938031
0.0019394317
0.0015908997
0.0013158519
0.0010482272
0.00083223195
0.00063157511
0.00045952152
0.00031056312
0.00017416145
7.0545983e-05
0.013277145
0.0147254
0.016306711
0.017983664
0.019674113
0.021372286
0.022642156
0.023693222
0.023486558
0.021665707
0.017821381
0.012159519
0.0051239524
-0.0037057189
-0.012387718
-0.021244655
-0.028692104
-0.034513054
-0.038350114
-0.040256857
-0.040476186
-0.039307497
-0.037095911
-0.034293969
-0.031349417
-0.028399893
-0.025243373
-0.021867827
-0.018967478
-0.016488164
-0.014390447
-0.012618692
-0.011129164
-0.0098857656
-0.0088602863
-0.0080304801
-0.0073815142
-0.0069061259
-0.0066077211
0.013390726
0.011913642
0.010519794
0.0093270178
0.008171376
0.0072182741
0.0063245025
0.0055612546
0.004871744
0.0042130159
0.0036846735
0.0031578361
0.0026574118
0.0022620218
0.0018730846
0.0015646356
0.0012629358
0.0010213275
0.00079569795
0.00060444113
0.00043636893
0.00029054546
0.00016275421
6.3900541e-05
0.014925957
0.016543588
0.018305268
0.020143937
0.021955552
0.023710982
0.024814833
0.025541307
0.02442444
0.02152685
0.01633405
0.0090499249
0.00063494982
-0.0094709479
-0.018853072
-0.027874575
-0.035007794
-0.040112229
-0.043053931
-0.044023064
-0.043310604
-0.04128143
-0.03845671
-0.035379108
-0.032218395
-0.028715524
-0.02485001
-0.021514346
-0.01865326
-0.016225837
-0.014167529
-0.012427597
-0.010963116
-0.0097394948
-0.0087286863
-0.0079083522
-0.0072652057
-0.006793146
-0.0064947199
0.015067673
0.013393034
0.011806732
0.010455783
0.0091937212
0.0081233407
0.0071099791
0.0062776462
0.0055275382
0.0048041975
0.0042193235
0.0036280392
0.0030635749
0.0026187834
0.0021815268
0.0018387401
0.0015004604
0.0012287475
0.00097465936
0.0007614087
0.0005725987
0.00040851432
0.00027064261
0.00014777929
5.7633152e-05
0.01681132
0.018615518
0.020577306
0.022541882
0.024498358
0.026204405
0.027033295
0.027219866
0.02484184
0.020538305
0.013738822
0.0046333687
-0.0051460199
-0.016388178
-0.026220702
-0.035063084
-0.041567833
-0.045735239
-0.047638264
-0.047533763
-0.045798208
-0.043023727
-0.039861251
-0.03651599
-0.032655269
-0.028244421
-0.024420999
-0.021131165
-0.018333859
-0.015955335
-0.013937141
-0.01222935
-0.010790907
-0.0095873304
-0.0085903326
-0.0077791943
-0.0071433941
-0.0066749834
-0.0063765726
0.01698704
0.015069243
0.013273663
0.011701197
0.010311489
0.0091256333
0.0080021742
0.007063175
0.0062336448
0.0054478984
0.004812539
0.0041537834
0.0035139928
0.0030143151
0.0025205606
0.0021373293
0.0017610232
0.0014568214
0.0011706128
0.00093178229
0.00071943488
0.00053600493
0.00037940408
0.00024608922
0.00013272642
4.989495e-05
0.018945496
0.020954299
0.023105819
0.02523545
0.027285222
0.028828891
0.029223644
0.028581241
0.02448076
0.018378994
0.00977181
-0.0012763078
-0.012323972
-0.024439239
-0.034377634
-0.042655711
-0.048240506
-0.051274818
-0.051952837
-0.050642335
-0.048008034
-0.044823835
-0.04133376
-0.037110057
-0.032094855
-0.027726395
-0.023955571
-0.020743187
-0.018005781
-0.015677038
-0.013699312
-0.012024946
-0.010612841
-0.0094280543
-0.0084439623
-0.0076444727
-0.0070163382
-0.0065517833
-0.0062535315
0.019158485
0.016985638
0.014924026
0.01313094
0.011554068
0.010222624
0.0089935811
0.0079338018
0.0070053758
0.006143196
0.0054535152
0.0047347901
0.0040186973
0.0034516143
0.0028974617
0.002463376
0.0020435989
0.0017052894
0.0013857181
0.001117144
0.00087842535
0.00067266886
0.00049650819
0.00034474394
0.00022047099
0.00011492019
4.1845779e-05
0.02133977
0.023584781
0.025981253
0.028246139
0.030297286
0.031549865
0.031245731
0.029434667
0.02300647
0.014715788
0.0041873261
-0.0088479615