/*--------------------------------*- C++ -*----------------------------------*\
| =========                 |                                                 |
| \\      /  F ield         | OpenFOAM: The Open Source CFD Toolbox           |
|  \\    /   O peration     | Version:  5.0                                   |
|   \\  /    A nd           | Web:      www.OpenFOAM.org                      |
|    \\/     M anipulation  |                                                 |
\*---------------------------------------------------------------------------*/
FoamFile
{
    version     2.0;
    format      ascii;
    class       surfaceScalarField;
    location    "20";
    object      phi;
}
// * * * * * * * * * * * * * * * * * * * * * * * * * * * * * * * * * * * * * //

dimensions      [0 3 -1 0 0 0 0];

internalField   nonuniform List<scalar> 
18820
(
0.0002274555
-1.3399015
0.00043301548
-1.25292
0.00024943505
-1.3401509
0.00061319366
-1.171568
0.000475237
-1.2531458
0.00025979264
-1.3404107
0.00076643771
-1.095483
0.00067384171
-1.1717666
0.00049516267
-1.2533812
0.00028210545
-1.3406928
0.00089266317
-1.0243331
0.00084354154
-1.0956527
0.00070281601
-1.1719742
0.00053804452
-1.2536371
0.00030014966
-1.340993
0.00099279153
-0.9577978
0.00098424045
-1.0244738
0.00088086872
-1.0958307
0.00076501781
-1.1722012
0.00057284806
-1.2539098
0.00032433633
-1.3413173
0.0010684776
-0.89558039
0.0010968085
-0.95791037
0.0010292456
-1.0246222
0.00096092238
-1.0960266
0.00081552866
-1.1724439
0.00062034195
-1.2542058
0.00034489661
-1.3416622
0.0011218189
-0.83740321
0.0011828999
-0.89566648
0.0011487324
-0.95802986
0.001125654
-1.0247869
0.0010261228
-1.0962372
0.00088503158
-1.1727086
0.0006615727
-1.2545225
0.00036944734
-1.3420316
0.0011551833
-0.78300603
0.0012446329
-0.83746495
0.0012409359
-0.89575869
0.0012598464
-0.95816405
0.0012043646
-1.0249652
0.0011167986
-1.096469
0.00094535281
-1.1729923
0.00071118752
-1.2548642
0.00039118308
-1.3424228
0.0011710459
-0.73214232
0.001284432
-0.78304583
0.0013079416
-0.83753195
0.0013649826
-0.89586382
0.0013508879
-0.95831057
0.0013148032
-1.0251632
0.001195517
-1.0967191
0.001018707
-1.1732999
0.0007540986
-1.2552272
0.00041619211
-1.342839
0.0011718726
-0.68458505
0.0013048515
-0.73216274
0.0013521524
-0.78309004
0.0014430409
-0.83761001
0.0014670589
-0.89597999
0.0014796749
-0.95847545
0.0014110711
-1.0253787
0.0012920388
-1.0969925
0.0010823789
-1.1736281
0.00080173002
-1.2556127
0.00043769815
-1.3432767
0.0011600446
-0.64011845
0.0013084645
-0.68458866
0.0013761124
-0.7321867
0.001496347
-0.78314335
0.0015548142
-0.83769777
0.0016125211
-0.89611284
0.0015926405
-0.95865702
0.0015299116
-1.0256166
0.0013761046
-1.0972862
0.0011534182
-1.1739798
0.00084183944
-1.2560168
0.00045900678
-1.3437357
0.0011377766
-0.59854233
0.0012977747
-0.64010776
0.0013823881
-0.68459494
0.001527424
-0.73221778
0.0016164292
-0.78320496
0.0017151215
-0.83780037
0.0017410725
-0.89626127
0.0017326565
-0.95885976
0.0016342907
-1.0258748
0.00147044
-1.0976032
0.0012136574
-1.1743516
0.00088294722
-1.2564408
0.00047504017
-1.3442108
0.0011071226
-0.55966882
0.001275145
-0.5985197
0.0013734919
-0.64009887
0.0015388575
-0.68460637
0.0016544105
-0.73225576
0.0017895681
-0.78327941
0.0018579409
-0.83791724
0.001900985
-0.8964296
0.0018570349
-0.9590825
0.0017520898
-1.0261564
0.0015514191
-1.097941
0.0012759868
-1.1747447
0.00091607345
-1.2568818
0.00048966875
-1.3447004
0.0010698849
-0.52332223
0.0012427744
-0.55963645
0.0013517989
-0.59849801
0.0015332375
-0.64009325
0.0016713264
-0.68462329
0.0018382612
-0.73230445
0.0019451837
-0.78336665
0.0020362532
-0.8380525
0.0020447507
-0.89661732
0.0019980431
-0.95932846
0.0018546184
-1.0264596
0.0016360338
-1.098301
0.0013271545
-1.1751558
0.00094770428
-1.2573398
0.00050041687
-1.3452008
0.0010277189
-0.48933791
0.0012026476
-0.5232821
0.0013195503
-0.5596042
0.0015130265
-0.5984778
0.001669768
-0.64009169
0.0018637277
-0.68464875
0.0020050874
-0.73236435
0.0021401958
-0.78347059
0.0021984823
-0.83820623
0.0022084459
-0.89682772
0.0021225781
-0.95959642
0.0019625464
-1.0267861
0.0017068879
-1.0986808
0.0013766201
-1.1755847
0.00097134022
-1.2578108
0.00050977559
-1.3457106
0.00098196248
-0.45756294
0.0011565588
-0.48929182
0.0012787558
-0.52324131
0.0014806205
-0.55957179
0.0016521992
-0.59846023
0.0018685772
-0.64009654
0.002040115
-0.68468378
0.0022149345
-0.73243909
0.0023197166
-0.78359183
0.0023839746
-0.83838176
0.0023551096
-0.89706025
0.0022545794
-0.95988845
0.0020547536
-1.027134
0.0017762422
-1.0990804
0.0014146018
-1.1760279
0.00099137423
-1.2582924
0.00051513411
-1.3462258
0.0009338993
-0.42785206
0.0011060539
-0.45751244
0.001231313
-0.48924438
0.0014381172
-0.5231988
0.0016210572
-0.55954065
0.0018553434
-0.59844699
0.0020528356
-0.64010926
0.0022628474
-0.6847317
0.0024103732
-0.73252975
0.002525821
-0.78373367
0.0025524617
-0.83857912
0.0025115552
-0.89731723
0.0023695444
-0.96020324
0.0021460892
-1.0275039
0.0018312069
-1.099497
0.0014475912
-1.1764842
0.0010031964
-1.2587804
0.00051778191
-1.3467435
0.00088441944
-0.40007357
0.0010525272
-0.42779853
0.0011787556
-0.45745988
0.0013876609
-0.48919392
0.0015784587
-0.5231562
0.0018265496
-0.55951186
0.0020458112
-0.59843997
0.0022864678
-0.64013288
0.0024727079
-0.68479403
0.0026356574
-0.73263959
0.0027154395
-0.78389665
0.0027332038
-0.83880076
0.0026502273
-0.89759791
0.0024847164
-0.96054187
0.0022208179
-1.0278935
0.001880316
-1.0999297
0.0014688302
-1.1769498
0.0010099816
-1.2592726
0.00051627416
-1.3472598
0.00083448871
-0.37409743
0.00099707529
-0.40001811
0.001122719
-0.4277425
0.0013307869
-0.45740301
0.0015266598
-0.48914212
0.0017844424
-0.5231141
0.002021561
-0.55948761
0.0022884129
-0.59844191
0.0025091862
-0.64016936
0.0027155788
-0.68487395
0.0028453823
-0.73276953
0.002919828
-0.78408328
0.0028959581
-0.8390465
0.0027906184
-0.89790381
0.0025818009
-0.96090285
0.0022893292
-1.0283025
0.0019145391
-1.1003754
0.0014829784
-1.1774228
0.0010089321
-1.2597653
0.00051181033
-1.3477716
0.00078466398
-0.34981272
0.00094078645
-0.37404114
0.0010640961
-0.39995949
0.0012695625
-0.42768127
0.0014672183
-0.45734357
0.0017313472
-0.48908903
0.0019824431
-0.52307498
0.0022712326
-0.55947043
0.0025224483
-0.59845518
0.0027679822
-0.64022176
0.002944136
-0.68497271
0.0030723195
-0.73292202
0.0031064371
-0.78429375
0.0030623205
-0.8393182
0.0029121629
-0.89823417
0.0026728604
-0.96128638
0.0023403098
-1.0287283
0.0019399291
-1.1008324
0.0014857597
-1.1778996
0.001002258
-1.2602557
0.00050377377
-1.3482754
0.00073558065
-0.32710042
0.00088432293
-0.34975625
0.0010045915
-0.37398164
0.0012046618
-0.39989459
0.001402424
-0.42761648
0.0016690398
-0.45728126
0.0019307008
-0.48903729
0.0022374402
-0.52304119
0.0025150554
-0.55946303
0.0027955085
-0.5984827
0.0030139637
-0.64029159
0.0031921562
-0.68509254
0.0032819586
-0.73309754
0.0032987982
-0.78453023
0.0032097788
-0.83961581
0.003028477
-0.89858979
0.002744394
-0.96169047
0.0023811984
-1.0291695
0.0019506675
-1.1012973
0.0014803561
-1.1783777
0.00098852319
-1.2607405
0.00049293035
-1.3487683
0.00068769152
-0.3058704
0.00082860714
-0.32704471
0.00094403104
-0.34969569
0.0011385521
-0.37391553
0.001332969
-0.39982514
0.001599747
-0.42754718
0.0018683524
-0.45721891
0.0021892065
-0.48898905
0.0024896559
-0.52301579
0.0028007881
-0.55946831
0.0030574296
-0.59852617
0.0032813608
-0.64038079
0.0034234559
-0.68523404
0.0034995806
-0.73329832
0.0034728415
-0.7847933
0.0033534412
-0.83994078
0.0031240445
-0.89896944
0.002805147
-0.96211442
0.0024045187
-1.0296234
0.0019508784
-1.1017678
0.0014644758
-1.1788537
0.00096919266
-1.2612167
0.00047908257
-1.3492474
0.00064102524
-0.28601053
0.000773852
-0.30581565
0.00088478055
-0.32698546
0.0010701689
-0.34962731
0.0012615754
-0.37384413
0.0015246718
-0.39975006
0.0017972745
-0.42747611
0.0021288006
-0.4571585
0.0024483572
-0.48894775
0.0027865671
-0.52300157
0.0030772369
-0.55948812
0.0033423279
-0.59858714
0.0035325122
-0.64048985
0.0036648815
-0.68539934
0.0037000292
-0.73352551
0.0036451594
-0.78508501
0.003475972
-0.8402927
0.0032087938
-0.89937309
0.0028459025
-0.9625558
0.0024153297
-1.0300878
0.0019373195
-1.1022406
0.0014402572
-1.1793247
0.00094386864
-1.2616815
0.00046269198
-1.3497101
0.00059647237
-0.26745072
0.00072080564
-0.28595749
0.0008251422
-0.30575601
0.0010032191
-0.32691851
0.001186743
-0.34955248
0.0014459155
-0.37376538
0.0017192957
-0.39967208
0.0020576713
-0.42740498
0.0023936517
-0.4571038
0.0027550881
-0.48891628
0.0030761828
-0.52300051
0.0033778092
-0.5595236
0.0036111834
-0.59866581
0.0037956364
-0.6406206
0.0038907242
-0.68559004
0.0039014392
-0.73378179
0.0037968249
-0.78540587
0.0035883459
-0.84067226
0.0032717551
-0.89979894
0.0028726523
-0.96301312
0.0024092666
-1.0305598
0.0019127361
-1.1027131
0.0014069403
-1.1797878
0.0009135158
-1.2621324
0.00044401002
-1.3501541
0.00055304733
-0.25008427
0.00066955496
-0.26739947
0.00076906206
-0.28590141
0.00093464489
-0.30568743
0.0011126119
-0.32684438
0.0013627471
-0.34946931
0.0016354859
-0.37368157
0.0019781994
-0.39959261
0.0023266275
-0.42733795
0.0027089794
-0.45705769
0.0030568359
-0.48889693
0.0033906317
-0.52301333
0.0036621054
-0.55957452
0.0038933949
-0.59876357
0.0040450596
-0.64077494
0.0041207782
-0.68580937
0.0040835512
-0.73406852
0.0039397258
-0.78575725
0.0036778944
-0.8410784
0.0033198005
-0.90024609
0.0028797082
-0.96348356
0.0023896232
-1.0310367
0.0018758817
-1.1031821
0.0013659658
-1.1802403
0.00087839652
-1.2625667
0.00042336118
-1.3505775
0.00051253016
-0.23385871
0.00062028698
-0.250035
0.0007124163
-0.26734283
0.00087106602
-0.28583783
0.0010361478
-0.30561097
0.0012778319
-0.32675946
0.0015465708
-0.34938039
0.0018904683
-0.37359384
0.0022500669
-0.39951605
0.0026494621
-0.42727844
0.0030219428
-0.4570228
0.0033838356
-0.48889013
0.0036880457
-0.52303927
0.0039604576
-0.55964159
0.0041639441
-0.59888245
0.0043024627
-0.64095662
0.0043337495
-0.68605957
0.0042590186
-0.73438781
0.0040595891
-0.78613894
0.0037522914
-0.84151089
0.0033457526
-0.90071213
0.0028708546
-0.9639648
0.0023544771
-1.0315153
0.0018286113
-1.1036447
0.0013176338
-1.1806795
0.00083925787
-1.2629826
0.0004010618
-1.3509785
0.00047277444
-0.21867256
0.00057359785
-0.23381202
0.00066094183
-0.24998353
0.00080497445
-0.26727673
0.00096494964
-0.28576663
0.0011909686
-0.30552411
0.0014527193
-0.32666561
0.0017972831
-0.34928721
0.0021634304
-0.3735072
0.002579407
-0.39944599
0.0029733513
-0.42722984
0.0033602985
-0.45699926
0.0036924003
-0.48889449
0.0039994005
-0.52307822
0.0042491127
-0.55972675
0.0044466999
-0.59902669
0.0045458612
-0.64116873
0.0045428884
-0.68634344
0.0044120732
-0.73474029
0.0041648148
-0.78655146
0.0038027902
-0.84196793
0.0033538403
-0.90119512
0.0028432793
-0.9644536
0.0023060133
-1.0319927
0.0017710791
-1.1040982
0.0012630067
-1.1811032
0.00079679494
-1.2633784
0.00037746261
-1.351356
0.00043642276
-0.20448692
0.00052841157
-0.21862737
0.000608773
-0.23375986
0.00074673846
-0.24992529
0.00089025389
-0.26720204
0.0011067477
-0.28568241
0.001357366
-0.30542875
0.001695981
-0.32656431
0.0020716743
-0.34919545
0.0024984968
-0.37342629
0.0029138761
-0.39938652
0.0033228444
-0.42719239
0.0036781357
-0.45698499
0.0040136862
-0.48890877
0.0043027821
-0.52313189
0.0045545505
-0.55983461
0.0047193331
-0.59920016
0.0047888503
-0.6414147
0.0047310189
-0.68666239
0.0045517897
-0.73512727
0.0042451129
-0.78699379
0.003834027
-0.84244811
0.0033401678
-0.90169201
0.0027994245
-0.96494701
0.0022440556
-1.0324656
0.001704605
-1.1045398
0.0012029231
-1.1815094
0.00075157576
-1.2637525
0.00035292057
-1.3517089
0.00040093256
-0.19120869
0.0004867437
-0.20444526
0.00056176681
-0.21858037
0.00068518421
-0.2336983
0.00082464754
-0.24985969
0.001020998
-0.26711629
0.0012602058
-0.28558525
0.0015932364
-0.30532601
0.0019700936
-0.32646273
0.0024125238
-0.34910948
0.0028440151
-0.37335643
0.0032741164
-0.39933779
0.0036489386
-0.42716319
0.0040062724
-0.45697758
0.0043281123
-0.4889341
0.00462778
-0.52320512
0.0048545278
-0.5599698
0.0049954498
-0.59940676
0.0050128568
-0.64169653
0.0049078566
-0.68701845
0.0046664602
-0.73554862
0.0043054867
-0.78746525
0.0038408609
-0.8429488
0.0033073677
-0.90219995
0.002738632
-0.96544159
0.0021702113
-1.0329312
0.0016302123
-1.104967
0.0011382955
-1.1818961
0.00070427852
-1.2641038
0.00032776388
-1.3520367
-0.001405605
-0.21024845
0.00044637995
-0.19116832
0.00051467126
-0.20439816
0.00063240191
-0.21852758
0.00075417061
-0.23362782
0.0009417657
-0.24978045
0.0011648692
-0.26702095
0.0014834379
-0.28547545
0.0018668236
-0.30522274
0.0023170581
-0.32636726
0.0027687276
-0.34903419
0.0032158973
-0.37329821
0.0036072641
-0.39929612
0.0039813244
-0.42713824
0.0043278858
-0.45697735
0.0046690085
-0.48897533
0.0049527103
-0.5233033
0.0051622604
-0.56013661
0.0052550376
-0.59964894
0.0052282557
-0.64201693
0.0050605183
-0.68741251
0.0047614284
-0.73600456
0.0043394351
-0.78796382
0.0038260387
-0.84346748
0.0032541121
-0.90271543
0.0026627109
-0.96593408
0.0020854633
-1.0333865
0.0015490168
-1.1053778
0.0010702009
-1.182262
0.00065553834
-1.2644316
0.00030228663
-1.352339
-0.0026655504
-0.2107984
-0.0013010229
-0.20850105
0.0004727689
-0.19112642
0.00057555621
-0.20434131
0.00069549378
-0.21846891
0.00086019631
-0.23354626
0.001070704
-0.24968629
0.00137875
-0.26691626
0.0017520876
-0.28536072
0.002219295
-0.30512498
0.0026856898
-0.32628422
0.0031510903
-0.34896939
0.003556255
-0.3732472
0.0039412154
-0.39925601
0.0043063001
-0.42711666
0.0046807239
-0.45698907
0.0050159162
-0.48903854
0.0052899023
-0.52343094
0.0054561013
-0.56033767
0.0055091772
-0.59992986
0.0054213709
-0.64237779
0.0051947112
-0.6878458
0.0048287884
-0.73649391
0.0043497354
-0.78848752
0.0037873558
-0.84400072
0.0031822915
-0.90323501
0.0025724556
-0.96642108
0.0019911876
-1.0338287
0.001462366
-1.1057699
0.0009994436
-1.1826059
0.00060593846
-1.2647353
0.00027673451
-1.3526157
-0.0034317008
-0.2112876
-0.0025230899
-0.20957634
-0.0012148741
-0.20681341
0.00052961133
-0.19108048
0.00062687585
-0.2042727
0.00078954729
-0.21839826
0.00097986614
-0.23345542
0.0012684826
-0.24957602
0.0016435438
-0.26680772
0.0021080731
-0.28524949
0.0026002951
-0.30503958
0.0030800987
-0.32621323
0.0034972843
-0.34891041
0.0038901877
-0.37319617
0.0042657311
-0.39921544
0.0046667754
-0.42710271
0.0050463845
-0.45701954
0.005379844
-0.48912848
0.0056157822
-0.52359062
0.0057478867
-0.56057638
0.0057438955
-0.60025239
0.0055983405
-0.64278142
0.0053011451
-0.68831815
0.0048712674
-0.73701544
0.0043331112
-0.78903327
0.0037266442
-0.84454507
0.0030923473
-0.9037549
0.0024694707
-0.96689936
0.0018889473
-1.0342552
0.0013713371
-1.1061418
0.00092694969
-1.1829269
0.00055598472
-1.2650145
0.00025130648
-1.352867
-0.0037595402
-0.21172962
-0.0032676926
-0.210543
-0.0024000339
-0.20839118
-0.0011037489
-0.20518005
0.00057935066
-0.19103295
0.00070317762
-0.20418633
0.00089357972
-0.21831197
0.0011680271
-0.23335496
0.0015228374
-0.24945531
0.0020004182
-0.26670007
0.0025028181
-0.28515202
0.0030063292
-0.30496581
0.0034330347
-0.32614898
0.0038293694
-0.3488496
0.0042111247
-0.37314157
0.0046293667
-0.39917803
0.005047508
-0.42710383
0.0054341273
-0.45707382
0.0057348541
-0.48924755
0.0059430099
-0.52378575
0.0060240305
-0.56085652
0.0059659279
-0.60061997
0.0057485703
-0.64322884
0.0053824275
-0.68882931
0.0048843657
-0.7375667
0.0042911978
-0.78959783
0.0036437982
-0.84509652
0.0029859926
-0.90427142
0.0023553396
-0.96736575
0.0017800112
-1.0346639
0.0012772607
-1.1064921
0.00085346467
-1.1832244
0.00050610271
-1.2652693
0.0002261611
-1.3530932
-0.0037091477
-0.21210336
-0.0035899424
-0.21140737
-0.0031206931
-0.20982234
-0.0022576403
-0.20723729
-0.00099954719
-0.20360115
0.00065120386
-0.19098098
0.00078658369
-0.20407933
0.0010619184
-0.21820586
0.0014149772
-0.2332471
0.0018754613
-0.24933036
0.00240426
-0.26660151
0.0029246287
-0.28507032
0.0033656394
-0.30489842
0.0037627643
-0.32608238
0.0041439969
-0.34878247
0.0045734498
-0.37308565
0.0050213226
-0.39915185
0.0054557878
-0.4271255
0.0058150675
-0.45715404
0.0060943629
-0.4893989
0.0062591355
-0.52402085
0.0062920888
-0.56118268
0.0061634988
-0.6010349
0.005874506
-0.64372092
0.0054327563
-0.6893777
0.0048693946
-0.73814489
0.0042231304
-0.79017716
0.0035404855
-0.84565102
0.0028647068
-0.90478079
0.0022316219
-0.96781736
0.0016660695
-1.0350527
0.0011810371
-1.1068197
0.00077967557
-1.183498
0.00045664416
-1.2654998
0.00020142991
-1.3532946
-0.0033413967
-0.21242478
-0.003547472
-0.21214583
-0.0034356483
-0.21109242
-0.0029586944
-0.20912129
-0.0021224613
-0.20611437
-0.00087714386
-0.2020728
0.00072470353
-0.1909191
0.00093200934
-0.20394942
0.0012929458
-0.21808383
0.0017602724
-0.23313191
0.0022869194
-0.24921302
0.002839451
-0.26651633
0.0032938933
-0.28499857
0.0036913272
-0.30482698
0.0040693746
-0.32600776
0.0045002594
-0.34870928
0.0049724596
-0.37303679
0.005447009
-0.39914307
0.0058591933
-0.42716962
0.0062031372
-0.45726281
0.0064478693
-0.48958764
0.0065727813
-0.52430154
0.0065391534
-0.56155833
0.0063388213
-0.60149922
0.0059690404
-0.6442572
0.005453018
-0.68996133
0.0048245169
-0.73874628
0.0041303494
-0.79076702
0.003417925
-0.84620423
0.0027302612
-0.90527943
0.0021001879
-0.96825148
0.0015482432
-1.0354199
0.00108379
-1.1071238
0.00070616522
-1.1837475
0.00040790849
-1.2657063
0.00017723134
-1.3534718
-0.0027213522
-0.2126714
-0.0031990135
-0.21277324
-0.0033993638
-0.21218211
-0.0032694377
-0.21078168
-0.0028037791
-0.20843997
-0.0019731068
-0.20501841
-0.00075503317
-0.20059306
0.00085006082
-0.19083715
0.0011457222
-0.2038022
0.0016290479
-0.21795261
0.0021714999
-0.23301649
0.0027396408
-0.24911321
0.0032184615
-0.2664409
0.0036170545
-0.2849243
0.0039876087
-0.30474521
0.0044155184
-0.32592302
0.0049017091
-0.34863853
0.0054122109
-0.37300199
0.0058699139
-0.39915379
0.0062716586
-0.42723814
0.0065905177
-0.45740546
0.0068053668
-0.48982022
0.0068699792
-0.52463237
0.0067671706
-0.56198668
0.0064835933
-0.60201377
0.0060325868
-0.64483677
0.0054402109
-0.69057702
0.0047507455
-0.73936668
0.0040136122
-0.79136271
0.0032779666
-0.84675194
0.0025846295
-0.90576387
0.0019625125
-0.96866575
0.0014280814
-1.0357642
0.00098624233
-1.1074039
0.00063346205
-1.1839731
0.00036016704
-1.2658892
0.00015368308
-1.3536255
-0.001912487
-0.2128647
-0.0026068711
-0.21326354
-0.0030683996
-0.21310421
-0.0032413413
-0.21221021
-0.0031121145
-0.21047334
-0.0026380773
-0.207775
-0.0018197641
-0.20395368
-0.00059026644
-0.19915274
0.001034812
-0.19072624
0.0014750982
-0.20364825
0.0020455299
-0.21782664
0.0026355085
-0.23291236
0.0031348202
-0.24902957
0.0035396067
-0.26636345
0.0039024656
-0.28483915
0.0043185153
-0.30464821
0.0048152562
-0.32583656
0.0053527034
-0.34857902
0.0058518712
-0.37298395
0.0063028996
-0.39918503
0.0066885825
-0.42733621
0.006988842
-0.45758893
0.0071517528
-0.490102
0.0071523721
-0.52501757
0.0069669315
-0.56247002
0.0065978296
-0.60257901
0.0060608558
-0.64545742
0.0053947205
-0.691221
0.0046481365
-0.7400012
0.0038746662
-0.79195941
0.0031225808
-0.84728989
0.0024296161
-0.90623098
0.001820432
-0.9690581
0.0013065525
-1.0360845
0.00088932216
-1.1076598
0.00056205307
-1.1841749
0.00031368227
-1.2660492
0.00013091099
-1.3537564
-0.00098328324
-0.21298186
-0.0018324986
-0.21363907
-0.0025005512
-0.21383139
-0.0029297452
-0.2134158
-0.003090318
-0.21223201
-0.0029453298
-0.21016609
-0.0024682742
-0.20712649
-0.0016303783
-0.20291357
-0.00037802916
-0.1977399
0.00133545
-0.19058659
0.0019022214
-0.20350494
0.0025291682
-0.2177203
0.0030457927
-0.23282333
0.0034598403
-0.2489498
0.0038127265
-0.26627371
0.0042154569
-0.2847361
0.0047120401
-0.30454499
0.0052748284
-0.32575869
0.0058078438
-0.34853499
0.0063016626
-0.37298271
0.0067446117
-0.39924106
0.0071235457
-0.42747091
0.0073819054
-0.45781909
0.007488349
-0.49043797
0.0074102367
-0.52546088
0.0071382127
-0.5630104
0.0066758996
-0.60319406
0.0060534179
-0.64611611
0.0053156383
-0.6918885
0.0045181098
-0.74064464
0.0037153198
-0.79255215
0.0029538182
-0.84781409
0.002267326
-0.90667787
0.0016753194
-0.96942687
0.0011850014
-1.0363802
0.00079367083
-1.1078914
0.00049240816
-1.1843537
0.00026871913
-1.266187
0.00010905218
-1.3538655
-0.21303711
-1.9539638e-07
-0.00094235862
-0.213872
-0.0017586548
-0.21438097
-0.0023884787
-0.21437266
-0.0027978637
-0.21370826
-0.0029339232
-0.21224341
-0.0027725744
-0.20986179
-0.0022734007
-0.20648347
-0.0013928551
-0.20189874
-6.8134508e-05
-0.19633631
0.001758995
-0.19044336
0.0024077507
-0.20338352
0.0029614104
-0.21763591
0.0033752216
-0.23273872
0.0037254538
-0.24886253
0.0041036709
-0.26616193
0.0046000936
-0.28462415
0.0051781361
-0.3044483
0.0057442383
-0.32569508
0.0062715687
-0.3485049
0.0067628407
-0.37300094
0.0072108882
-0.3993284
0.0075592622
-0.42764827
0.0077708191
-0.45810156
0.007805648
-0.49083339
0.0076434852
-0.52596615
0.0072740805
-0.56360859
0.0067163929
-0.60385703
0.0060081298
-0.6468086
0.0052037946
-0.69257418
0.004362092
-0.74129142
0.0035377315
-0.79313606
0.0027740091
-0.84832078
0.0020995606
-0.90710211
0.0015288691
-0.96977074
0.0010643168
-1.0366509
0.00070010112
-1.1080991
0.00042497899
-1.1845099
0.00022554824
-1.2663035
8.8250576e-05
-1.3539537
-0.2139795
3.3207758e-08
-0.21303721
0.00098292437
-0.00090454684
-0.21472611
-0.001680615
-0.21508883
-0.0022844258
-0.2148861
-0.0026625783
-0.2139796
-0.0027764684
-0.21223952
-0.0025819561
-0.20955323
-0.002041907
-0.20583441
-0.001069616
-0.20089726
0.00036084385
-0.19493816
0.0022965397
-0.19033215
0.0028567138
-0.20327883
0.0032985517
-0.21755924
0.0036317083
-0.23264497
0.0039972449
-0.2487561
0.0044753646
-0.2660372
0.0050710633
-0.28451708
0.0056618632
-0.30436593
0.0062189097
-0.32564242
0.0067462956
-0.34848835
0.0072539511
-0.373044
0.0076839287
-0.39945307
0.007996768
-0.42787422
0.0081470396
-0.45844295
0.0081041854
-0.49129409
0.0078440309
-0.5265361
0.0073720459
-0.56426424
0.0067156985
-0.6045646
0.0059249521
-0.64752976
0.0050599559
-0.69327205
0.0041821482
-0.74193583
0.0033443614
-0.79370641
0.0025853634
-0.84880658
0.0019283957
-0.90750164
0.0013823928
-0.97008881
0.00094568073
-1.0368964
0.00060921466
-1.1082833
0.00036019703
-1.1846446
0.0001844408
-1.2663997
6.8647487e-05
-1.3540224
-0.2148841
5.4336004e-08
-0.21397961
0.00094243149
-0.2129819
0.0019121431
-0.0008648923
-0.21554183
-0.0016092785
-0.21576398
-0.0021798147
-0.21536886
-0.0025292255
-0.21422684
-0.0026080714
-0.2122134
-0.002368123
-0.20922702
-0.0017317609
-0.20517227
-0.00064540568
-0.19989101
0.00093744751
-0.19357907
0.002779235
-0.19025467
0.0031945957
-0.20317487
0.0035471539
-0.21747469
0.0038836982
-0.23253142
0.0043550443
-0.24863578
0.004949368
-0.2659155
0.0055680009
-0.28442321
0.0061450412
-0.30429206
0.0067008842
-0.32559701
0.0072546713
-0.34848907
0.0077578851
-0.37311796
0.0081652204
-0.39962152
0.0084295848
-0.42815676
0.0085122913
-0.45885105
0.0083747706
-0.49182483
0.0080081637
-0.52717222
0.0074268353
-0.56497537
0.0066726269
-0.60531227
0.0058036634
-0.64827347
0.0048858266
-0.69397572
0.0039807052
-0.74257218
0.0031377575
-0.79425881
0.0023903563
-0.84926854
0.0017556241
-0.90787487
0.0012374338
-0.97038056
0.00082993173
-1.0371172
0.00052171736
-1.1084448
0.00029844943
-1.1847586
0.00014565463
-1.2664767
5.0369337e-05
-1.3540727
-0.21574869
-3.0242257e-07
-0.21488401
0.00090446001
-0.21387205
0.0018325778
-0.21286475
0.00272102
-0.00082918419
-0.21632192
-0.0015383476
-0.21640545
-0.0020793046
-0.21581878
-0.002388212
-0.2144467
-0.0024229222
-0.2121586
-0.0020848535
-0.20887392
-0.0013210305
-0.20449664
-7.1826207e-05
-0.19888174
0.0015009699
-0.1923008
0.0031202904
-0.19018037
0.0034327231
-0.20306044
0.0037807092
-0.2173717
0.0042272372
-0.23240362
0.0048288363
-0.24851525
0.0054595237
-0.26580702
0.0060571363
-0.28433531
0.0066277989
-0.30421897
0.0072187277
-0.32556107
0.0077827492
-0.34851394
0.0082771373
-0.37322987
0.0086511233
-0.39984306
0.0088612465
-0.42850572
0.0088564665
-0.45933275
0.0086124213
-0.49242908
0.0081288668
-0.52787425
0.0074358728
-0.56573862
0.006585614
-0.60609422
0.0056452788
-0.64903292
0.0046835577
-0.69467858
0.0037605164
-0.74319494
0.0029207722
-0.79478922
0.0021912967
-0.84970421
0.0015832157
-0.90822065
0.0010952185
-0.97064585
0.00071808412
-1.0373135
0.00043813709
-1.1085845
0.00024006563
-1.184853
0.0001094188
-1.2665358
3.3516004e-05
-1.3541063
-0.21657735
-5.2318225e-07
-0.21574833
0.00086401047
-0.21472603
0.0017584419
-0.21363913
0.0026069536
-0.21267145
0.0033410847
-0.00079489775
-0.21706537
-0.0014721635
-0.21701259
-0.0019761527
-0.21623084
-0.0022333993
-0.21463623
-0.0021737099
-0.21206975
-0.0017021282
-0.20849283
-0.00075397546
-0.20381449
0.00053103787
-0.1979118
0.0019094192
-0.19108993
0.0033398745
-0.19008752
0.0036521944
-0.20293192
0.0041074608
-0.21725192
0.0047016178
-0.2322764
0.0053491351
-0.24840486
0.0059525989
-0.26570249
0.0065356747
-0.28424319
0.0071475805
-0.30414783
0.007764404
-0.32554272
0.0083343506
-0.34857115
0.0088113113
-0.37339006
0.0091470631
-0.40012887
0.0092805011
-0.42892975
0.0091732033
-0.45989353
0.0088084947
-0.49310871
0.008202092
-0.52864047
0.0073959261
-0.56654893
0.0064546141
-0.60690356
0.0054513496
-0.64980071
0.0044558991
-0.69537396
0.003524733
-0.7437989
0.0026962333
-0.79529416
0.0019906428
-0.85011164
0.0014128634
-0.9085383
0.00095707685
-0.97088484
0.00061087462
-1.0374863
0.00035898754
-1.1087034
0.00018537315
-1.184929
7.5921175e-05
-1.2665782
1.815637e-05
-1.3541244
-0.21737095
-1.3005483e-06
-0.21657697
0.0008281155
-0.21554164
0.0016796233
-0.21438096
0.0025002784
-0.2132636
0.0031991007
-0.21242481
0.0037088242
-0.00076455662
-0.21777298
-0.001408137
-0.21758061
-0.0018667662
-0.21659747
-0.00203097
-0.21477897
-0.0018271432
-0.21194473
-0.0011614698
-0.20808533
-0.00012552144
-0.20315794
0.00099952508
-0.19700191
0.0021572861
-0.18990734
0.0035345124
-0.18996984
0.0039721842
-0.20279665
0.0045774087
-0.21712772
0.0052315711
-0.23215883
0.0058444133
-0.24829667
0.0064225906
-0.2655894
0.0070511465
-0.28414675
0.0077051377
-0.30408856
0.0083425505
-0.32555092
0.0089114012
-0.34867124
0.0093675496
-0.37361055
0.0096405808
-0.40048895
0.009679589
-0.42943614
0.0094524768
-0.46053751
0.0089574845
-0.4938641
0.0082226415
-0.52946718
0.0073054844
-0.5673998
0.0062801778
-0.60773239
0.005224327
-0.65056914
0.0042061466
-0.69605537
0.0032766585
-0.74437932
0.0024671322
-0.79577065
0.0017906223
-0.8504894
0.0012462942
-0.90882751
0.00082406079
-0.97109803
0.00050907865
-1.0376363
0.00028464726
-1.1088027
0.00013468202
-1.1849877
4.5295245e-05
-1.2666053
4.3428424e-06
-1.3541288
-0.21813451
-9.936018e-07
-0.21737089
0.00079262903
-0.2163216
0.001608071
-0.2150887
0.0023873611
-0.21383131
0.0030679905
-0.21277322
0.0035475157
-0.21210339
0.0037591851
-0.00073684254
-0.21844427
-0.001347548
-0.21809982
-0.0017266039
-0.21690184
-0.001743753
-0.21486236
-0.0013288604
-0.21177734
-0.00053633764
-0.20767452
0.00039130602
-0.20254972
0.0012854733
-0.1961301
0.0023445865
-0.18871742
0.0038404852
-0.18983814
0.0044462769
-0.20266552
0.0051156545
-0.2170118
0.0057260707
-0.23204049
0.0063034305
-0.24817751
0.0069286689
-0.26546693
0.0076145152
-0.28405613
0.008304098
-0.30405011
0.0089556666
-0.32559519
0.009521964
-0.34882566
0.0099319403
-0.37390191
0.010122846
-0.40093221
0.010047896
-0.43003156
0.0096876869
-0.46126771
0.0090520499
-0.49469351
0.0081871321
-0.53034883
0.0071636296
-0.56828325
0.0060640705
-0.60857213
0.0049674022
-0.6513304
0.003937972
-0.69671669
0.0030198274
-0.74493202
0.0022362952
-0.79621632
0.0015934456
-0.85083655
0.0010849504
-0.9090884
0.00069719668
-0.97128615
0.00041320053
-1.0377649
0.00021551753
-1.1088835
8.8180247e-05
-1.1850306
1.7621622e-05
-1.2666186
-7.9188823e-06
-1.3541208
-0.21887154
1.8198446e-07
-0.21813457
0.00076268076
-0.21706531
0.0015363424
-0.21576373
0.0022830981
-0.21437233
0.0029283817
-0.21310413
0.0033988996
-0.21214571
0.0035898324
-0.21172965
0.00343134
-0.00070957671
-0.21908224
-0.0012761558
-0.21855027
-0.0015130143
-0.21713258
-0.0013172516
-0.21487397
-0.00073378588
-0.21157989
1.627736e-05
-0.20729949
0.00071162713
-0.20197587
0.0014745817
-0.19526009
0.0026225398
-0.18749947
0.0043214515
-0.18971331
0.0049947871
-0.20254465
0.0056108931
-0.21689662
0.0061714
-0.23190846
0.0067949192
-0.24804376
0.007492786
-0.2653452
0.0082274891
-0.28397952
0.0089453593
-0.3040398
0.0096125542
-0.32568578
0.01015146
-0.34904518
0.010495313
-0.37427437
0.010583588
-0.4014679
0.010378196
-0.43072206
0.0098692786
-0.46208494
0.0090865934
-0.49559297
0.0080926866
-0.53127788
0.0069709705
-0.56919015
0.0058090218
-0.60941375
0.0046844222
-0.65207685
0.0036554091
-0.69735227
0.0027577078
-0.74545343
0.0020065081
-0.79662938
0.0014010369
-0.85115263
0.00093017701
-0.90932138
0.00057721282
-0.97145016
0.00032369313
-1.0378731
0.00015189222
-1.1089473
4.5967613e-05
-1.1850589
-7.0200415e-06
-1.2666195
-1.8695242e-05
-1.3541021
-0.21958288
1.7622159e-06
-0.21887137
0.00073698716
-0.2177733
0.0014706721
-0.21640539
0.0021780016
-0.21488581
0.002796577
-0.21341573
0.003239976
-0.21218185
0.0034350376
-0.21140735
0.0032675305
-0.21128762
0.0026651714
-0.00066755026
-0.21969085
-0.0011563448
-0.21890694
-0.0011697972
-0.21728003
-0.00078506122
-0.21482269
-0.00016756377
-0.21139605
0.0003819985
-0.20696986
0.00091085963
-0.20141215
0.0017152934
-0.19435285
0.0030947308
-0.18627275
0.0048884283
-0.18960696
0.0054905014
-0.20242426
0.0060407358
-0.21676596
0.006645539
-0.23175908
0.0073524719
-0.24790345
0.0081129769
-0.26523068
0.0088883722
-0.28392253
0.0096393066
-0.30406655
0.01029966
-0.32583398
0.010792003
-0.34934187
0.011049419
-0.37474021
0.011015731
-0.40210544
0.010658648
-0.43151143
0.009989089
-0.46298744
0.009055766
-0.49655605
0.0079382099
-0.53224512
0.0067293038
-0.57011044
0.005518752
-0.61024808
0.0043797992
-0.65280124
0.0033625742
-0.69795713
0.0024937463
-0.74594067
0.0017802825
-0.79700863
0.0012151617
-0.85143762
0.0007829857
-0.90952716
0.00046468311
-0.97159115