/*--------------------------------*- C++ -*----------------------------------*\
| =========                 |                                                 |
| \\      /  F ield         | OpenFOAM: The Open Source CFD Toolbox           |
|  \\    /   O peration     | Version:  5.0                                   |
|   \\  /    A nd           | Web:      www.OpenFOAM.org                      |
|    \\/     M anipulation  |                                                 |
\*---------------------------------------------------------------------------*/
FoamFile
{
    version     2.0;
    format      ascii;
    class       surfaceScalarField;
    location    "20";
    object      phi_0;
}
// * * * * * * * * * * * * * * * * * * * * * * * * * * * * * * * * * * * * * //

dimensions      [0 3 -1 0 0 0 0];

internalField   nonuniform List<scalar> 
18820
(
0.00022696658
-1.3399002
0.00043207975
-1.2529188
0.00024893121
-1.3401491
0.00061185821
-1.1715669
0.00047427264
-1.2531441
0.00025928253
-1.3404084
0.0007647529
-1.095482
0.00067245873
-1.1717651
0.00049419138
-1.2533791
0.0002815784
-1.34069
0.00089067912
-1.0243323
0.00084178783
-1.0956513
0.00070141909
-1.1719723
0.00053704219
-1.2536345
0.00029962185
-1.3409896
0.00099055814
-0.95779712
0.00098216183
-1.0244727
0.00087909128
-1.095829
0.00076357211
-1.1721988
0.00057182664
-1.2539067
0.00032381656
-1.3413134
0.0010660432
-0.89557984
0.0010944518
-0.95790941
0.00102713
-1.0246207
0.00095907215
-1.0960245
0.00081405365
-1.172441
0.00061929797
-1.2542022
0.00034438631
-1.3416578
0.0011192296
-0.83740278
0.0011803111
-0.8956657
0.0011463228
-0.9580286
0.0011234392
-1.0247851
0.0010242236
-1.0962347
0.00088351782
-1.1727053
0.00066051546
-1.2545183
0.00036892028
-1.3420267
0.0011524822
-0.78300572
0.0012418566
-0.83746433
0.0012382754
-0.89575765
0.0012573062
-0.95816247
0.0012020814
-1.0249629
0.0011148354
-1.096466
0.00094381005
-1.1729886
0.00071011554
-1.2548595
0.0003906124
-1.3424173
0.0011682731
-0.73214212
0.0012815109
-0.78304538
0.0013050723
-0.83753113
0.0013621562
-0.8958625
0.0013482535
-0.95830864
0.0013124251
-1.0251605
0.0011935099
-1.0967157
0.0010171322
-1.1732956
0.00075302168
-1.2552219
0.00041558473
-1.3428329
0.0011690645
-0.68458496
0.0013018262
-0.73216244
0.0013491154
-0.78308942
0.0014399676
-0.83760894
0.0014641097
-0.89597835
0.0014769108
-0.95847313
0.0014086283
-1.0253756
0.0012899862
-1.0969885
0.0010807951
-1.1736234
0.00080065806
-1.255607
0.00043711152
-1.34327
0.001157234
-0.64011845
0.0013053734
-0.6845885
0.0013729474
-0.73218627
0.0014930661
-0.78314252
0.0015515857
-0.83769641
0.0016094035
-0.89611085
0.001589788
-0.95865429
0.001527399
-1.0256131
0.0013740412
-1.0972818
0.0011518429
-1.1739745
0.00084079628
-1.2560107
0.00045848831
-1.3437285
0.0011349928
-0.59854241
0.0012946534
-0.64010773
0.0013791333
-0.68459469
0.0015239742
-0.73221718
0.001612958
-0.78320389
0.0017116813
-0.83779869
0.0017378351
-0.89625889
0.0017297037
-0.95885659
0.0016317543
-1.0258708
0.0014683791
-1.0975983
0.0012121206
-1.1743459
0.00088194065
-1.2564342
0.00047458795
-1.3442031
0.0011043904
-0.55966897
0.001272027
-0.59851979
0.0013701838
-0.64009878
0.0015352774
-0.68460599
0.0016507328
-0.73225495
0.0017858368
-0.78327804
0.0018543431
-0.8379152
0.0018976096
-0.8964268
0.0018540372
-0.95907887
0.0017495428
-1.0261519
0.0015493946
-1.0979356
0.0012744911
-1.1747384
0.00091510847
-1.2568747
0.00048924291
-1.3446923
0.0010672268
-0.52332244
0.0012396895
-0.55963664
0.0013484725
-0.59849808
0.0015295646
-0.64009307
0.0016674789
-0.68462274
0.0018342709
-0.73230339
0.0019412506
-0.78336495
0.0020324731
-0.83805006
0.0020413017
-0.89661406
0.0019950161
-0.95932435
0.0018521048
-1.0264546
0.0016340475
-1.0982952
0.0013257104
-1.175149
0.00094678016
-1.2573322
0.00049999254
-1.3451923
0.0010251513
-0.48933818
0.0011996243
-0.52328238
0.001316238
-0.5596044
0.0015092986
-0.59847781
0.0016657874
-0.64009138
0.001859511
-0.68464798
0.0020008445
-0.73236298
0.0021360283
-0.78346851
0.0021945933
-0.83820336
0.0022049429
-0.89682399
0.0021195762
-0.95959182
0.0019600674
-1.0267807
0.0017049601
-1.0986744
0.0013752335
-1.1755775
0.00097046907
-1.2578027
0.00050936277
-1.3457017
0.00097950261
-0.45756324
0.0011536193
-0.48929217
0.0012754897
-0.52324163
0.0014768736
-0.55957198
0.0016481226
-0.59846015
0.0018641675
-0.64009604
0.0020355879
-0.68468272
0.0022103972
-0.73243735
0.0023153976
-0.78358931
0.0023800008
-0.83837841
0.0023516188
-0.89705603
0.0022516052
-0.95988336
0.0020523367
-1.027128
0.0017743839
-1.0990736
0.0014132953
-1.1760203
0.00099056856
-1.2582839
0.00051475869
-1.3462164
0.0009315544
-0.42785239
0.0011032227
-0.45751285
0.001228119
-0.4892448
0.0014343877
-0.52319914
0.0016169216
-0.55954078
0.0018507743
-0.59844675
0.0020480508
-0.6401085
0.002257957
-0.68473028
0.0024056335
-0.73252759
0.0025213801
-0.78373069
0.0025484833
-0.83857528
0.0025080841
-0.89731251
0.0023666329
-0.96019765
0.0021437473
-1.0274974
0.0018294472
-1.0994897
0.0014463777
-1.1764761
0.001002468
-1.2587716
0.00051745631
-1.3467339
0.00088220432
-0.40007391
0.0010498164
-0.42779899
0.0011756631
-0.45746039
0.001383981
-0.48919439
0.0015743018
-0.52315652
0.0018218563
-0.55951186
0.0020407946
-0.5984395
0.0022812414
-0.64013178
0.0024675549
-0.6847922
0.0026307519
-0.73263696
0.0027109749
-0.78389318
0.0027292366
-0.83879643
0.0026468179
-0.8975927
0.0024818797
-0.96053578
0.0022185863
-1.0278865
0.0018786702
-1.099922
0.0014677231
-1.1769414
0.0010093348
-1.2592635
0.00051599907
-1.3472499
0.00083239982
-0.3740978
0.00099450862
-0.40001861
0.0011197436
-0.42774307
0.0013271916
-0.4574036
0.0015225184
-0.48914261
0.0017796599
-0.52311433
0.002016341
-0.5594874
0.0022828656
-0.59844112
0.0025036258
-0.64016785
0.002710209
-0.68487166
0.0028404319
-0.73276642
0.0029153673
-0.78407931
0.002892051
-0.83904166
0.0027872794
-0.8978981
0.0025790796
-0.96089628
0.0022872282
-1.0282951
0.0019130264
-1.1003673
0.0014819839
-1.177414
0.001008372
-1.2597559
0.00051158253
-1.3477615
0.00078271708
-0.34981308
0.00093836009
-0.37404165
0.0010612665
-0.39996013
0.0012660758
-0.42768195
0.001463129
-0.45734421
0.0017265152
-0.48908947
0.0019770461
-0.52307503
0.0022653816
-0.55946992
0.0025164838
-0.59845398
0.0027621449
-0.64021979
0.0029386992
-0.68496993
0.0030673694
-0.73291842
0.0031020372
-0.7842893
0.0030584765
-0.83931286
0.0029089388
-0.89822796
0.0026702803
-0.96127933
0.0023383638
-1.0287204
0.0019385573
-1.1008239
0.0014848882
-1.1778905
0.0010017871
-1.2602461
0.00050359246
-1.3482651
0.0007337595
-0.32710079
0.00088206697
-0.34975679
0.0010019061
-0.37398229
0.0012013152
-0.39989537
0.0013984216
-0.42761724
0.0016641938
-0.45728189
0.0019251623
-0.48903758
0.0022312997
-0.52304095
0.0025086902
-0.55946213
0.0027891982
-0.59848103
0.0030080365
-0.64028913
0.0031867224
-0.68508928
0.0032770759
-0.73309346
0.0032944535
-0.78452528
0.0032060435
-0.83960997
0.003025397
-0.89858307
0.0027419837
-0.96168295
0.0023794151
-1.0291613
0.0019494509
-1.1012884
0.0014796125
-1.1783684
0.00098814582
-1.2607306
0.00049279669
-1.3487579
0.0006860162
-0.30587076
0.00082649547
-0.32704522
0.00094152954
-0.34969641
0.0011353573
-0.37391633
0.0013290832
-0.39982603
0.0015949354
-0.42754798
0.0018627014
-0.45721943
0.0021828009
-0.48898908
0.0024828906
-0.52301515
0.0027939955
-0.55946692
0.0030510063
-0.598524
0.0032754487
-0.64037785
0.0034181062
-0.68523031
0.0034947478
-0.73329375
0.0034685936
-0.78478783
0.0033498441
-0.83993441
0.0031211406
-0.89896223
0.0028029146
-0.96210645
0.0024029158
-1.0296148
0.0019498221
-1.1017587
0.0014638665
-1.1788441
0.00096890905
-1.2612067
0.00047899844
-1.3492369
0.0006394675
-0.28601089
0.00077192868
-0.30581619
0.00088244135
-0.32698613
0.0010671705
-0.34962822
0.0012578426
-0.37384509
0.0015199244
-0.39975102
0.0017915655
-0.42747685
0.0021221482
-0.45715878
0.002441198
-0.48894739
0.0027792814
-0.52300044
0.0030703057
-0.55948622
0.0033359435
-0.5985845
0.0035267163
-0.64048646
0.003659582
-0.68539515
0.0036952761
-0.73352043
0.0036410346
-0.78507902
0.0034725492
-0.84028582
0.0032060752
-0.89936539
0.0028438676
-0.9625474
0.0024139116
-1.0300789
0.0019364334
-1.1022312
0.0014397843
-1.1793149
0.00094367952
-1.2616714
0.00046265825
-1.3496995
0.00059505598
-0.26745105
0.00071901137
-0.28595797
0.00082301838
-0.30575677
0.0010004235
-0.32691939
0.0011832035
-0.34955358
0.0014413013
-0.37376647
0.0017135596
-0.39967301
0.0020508195
-0.42740552
0.0023861012
-0.45710368
0.0027472939
-0.4889154
0.0030687299
-0.52299886
0.0033709533
-0.55952123
0.003604967
-0.59866275
0.0037899015
-0.64061678
0.0038854819
-0.68558535
0.0038967831
-0.73377618
0.0037928639
-0.78539933
0.0035851082
-0.84066485
0.0032692427
-0.89979077
0.0028708185
-0.96300431
0.0024080476
-1.0305505
0.0019120224
-1.1027035
0.0014066068
-1.1797779
0.00091342284
-1.2621222
0.00044402475
-1.3501436
0.00055173673
-0.2500846
0.0006679541
-0.26739999
0.00076708124
-0.28590203
0.00093209456
-0.30568844
0.0011093201
-0.3268455
0.0013582958
-0.34947058
0.0016298099
-0.37368272
0.0019711759
-0.39959337
0.0023187059
-0.42733812
0.0027006592
-0.45705705
0.0030488323
-0.48889551
0.0033833036
-0.52301121
0.0036554937
-0.55957176
0.0038872638
-0.59876011
0.0040393546
-0.64077066
0.0041155938
-0.68580416
0.0040790384
-0.73406236
0.0039359424
-0.78575017
0.0036748643
-0.84107048
0.0033174988
-0.90023745
0.0028780963
-0.96347436
0.0023886057
-1.031027
0.0018753448
-1.1031722
0.0013657705
-1.1802302
0.00087839807
-1.2625565
0.00042342334
-1.350567
0.0005113486
-0.233859
0.00061879265
-0.25003544
0.00071066842
-0.26734358
0.000868717
-0.28583865
0.001033116
-0.30561223
0.0012736554
-0.32676086
0.0015409611
-0.34938173
0.0018833507
-0.37359489
0.0022417839
-0.39951645
0.0026405917
-0.42727806
0.0030133572
-0.45702157
0.0033760155
-0.48888822
0.0036810652
-0.52303678
0.0039539756
-0.55963847
0.00415781
-0.59887857
0.0042967593
-0.64095182
0.0043286762
-0.6860538
0.0042546692
-0.73438108
0.0040560081
-0.78613131
0.003749475
-0.84150245
0.0033436899
-0.90070304
0.0028694689
-0.96395522
0.0023536712
-1.0315054
0.0018282516
-1.1036347
0.0013175749
-1.1806694
0.00083935104
-1.2629725
0.00040116918
-1.3509681
0.0004716921
-0.21867286
0.00057228578
-0.2338125
0.00065930534
-0.24998407
0.00080290052
-0.26727776
0.00096221276
-0.28576775
0.0011870501
-0.30552563
0.0014473143
-0.32666722
0.001790046
-0.34928843
0.002154822
-0.37350793
0.002569962
-0.39944582
0.0029641217
-0.42722882
0.0033519655
-0.45699752
0.0036850649
-0.48889222
0.0039926189
-0.52307542
0.0042425928
-0.55972325
0.0044404904
-0.5990223
0.0045402215
-0.64116337
0.0045379587
-0.68633709
0.0044079162
-0.73473299
0.004161444
-0.78654328
0.0038002233
-0.84195899
0.0033520233
-0.90118559
0.002842137
-0.96444369
0.0023054213
-1.0319825
0.0017708965
-1.104088
0.0012630813
-1.1810931
0.00079697469
-1.2633683
0.00037761081
-1.3513458
0.00043545158
-0.20448717
0.00052719914
-0.21862778
0.00060736848
-0.23376056
0.00074484711
-0.24992602
0.00088780655
-0.26720336
0.0011032303
-0.28568393
0.0013521417
-0.30543046
0.0016887317
-0.3265659
0.0020626938
-0.3491963
0.0024884471
-0.37342641
0.0029039488
-0.39938565
0.0033139404
-0.4271908
0.0036704621
-0.45698292
0.0040066565
-0.48890626
0.0042959275
-0.52312876
0.0045478549
-0.55983062
0.0047131229
-0.5991952
0.0047833309
-0.64140874
0.0047262695
-0.68665544
0.0045478333
-0.73511938
0.0042419943
-0.78698505
0.0038317182
-0.84243868
0.0033386209
-0.90168208
0.0027985294
-0.96493679
0.002243681
-1.0324553
0.0017045983
-1.1045295
0.0012031246
-1.1814993
0.00075183613
-1.2637425
0.00035310502
-1.3516989
0.00040005188
-0.19120895
0.00048568995
-0.20444566
0.00056045199
-0.21858086
0.00068357926
-0.23369929
0.00082250411
-0.24986072
0.0010177745
-0.2671179
0.001255379
-0.28558717
0.0015859631
-0.30532769
0.0019607645
-0.32646397
0.0024018315
-0.34910968
0.0028333002
-0.37335577
0.0032646012
-0.39933631
0.0036409157
-0.42716125
0.0039990553
-0.45697532
0.0043209856
-0.48893131
0.0046206224
-0.52320153
0.0048477451
-0.55996524
0.0049893362
-0.5994012
0.005007509
-0.64168998
0.0049032942
-0.68701091
0.0046627506
-0.73554014
0.0043026306
-0.78745596
0.0038388419
-0.8429389
0.0033060957
-0.90218964
0.0027379919
-0.9654311
0.0021700532
-1.0329208
0.0016303755
-1.1049568
0.0011386188
-1.1818861
0.00070461274
-1.264094
0.000327981
-1.3520268
-0.0014063921
-0.21024871
0.00044542033
-0.19116868
0.00051359933
-0.20439881
0.00063093368
-0.21852821
0.00075232784
-0.23362912
0.00093899522
-0.24978194
0.0011602798
-0.2670228
0.0014763633
-0.28547757
0.0018571386
-0.30522406
0.0023056623
-0.3263678
0.0027572078
-0.34903359
0.0032056813
-0.37329685
0.0035989004
-0.39929429
0.0039739705
-0.42713617
0.0043205629
-0.45697489
0.004661427
-0.48897212
0.0049453542
-0.52329914
0.0051555522
-0.56013146
0.0052490959
-0.59964279
0.0052230794
-0.64200976
0.0050561889
-0.68740434
0.0047579769
-0.73599548
0.0043368805
-0.787954
0.0038243155
-0.84345712
0.0032531284
-0.90270478
0.0026623253
-0.96592338
0.0020855166
-1.0333759
0.0015493434
-1.1053675
0.0010706373
-1.1822521
0.00065594086
-1.264422
0.00030253505
-1.3523294
-0.0026662105
-0.2107987
-0.0013018954
-0.20850139
0.00047175302
-0.19112683
0.00057444645
-0.20434232
0.0006938928
-0.21846978
0.00085771554
-0.23354784
0.0010666194
-0.24968828
0.0013717613
-0.2669182
0.0017422083
-0.28536264
0.0022071757
-0.30512557
0.0026732512
-0.32628385
0.0031401871
-0.34896809
0.0035475055
-0.37324545
0.0039337892
-0.39925411
0.0042988655
-0.42711447
0.0046727675
-0.45698623
0.0050079932
-0.48903476
0.0052826021
-0.52342619
0.0054495811
-0.56033194
0.005503393
-0.5999231
0.0054164049
-0.64236998
0.0051906264
-0.68783699
0.0048256414
-0.73648424
0.0043474897
-0.78847718
0.0037859486
-0.84398994
0.0031815968
-0.90322405
0.0025723223
-0.96641018
0.0019914475
-1.033818
0.001462847
-1.1057597
0.00099998601
-1.1825961
0.00060640665
-1.2647258
0.0002770157
-1.3526064
-0.003432273
-0.21128784
-0.002523789
-0.20957681
-0.0012158303
-0.20681381
0.00052852373
-0.19108091
0.00062576809
-0.2042742
0.00078749489
-0.21839956
0.00097600814
-0.23345723
0.0012618839
-0.2495784
0.0016334894
-0.26680948
0.0020952758
-0.28525074
0.0025868885
-0.30503921
0.0030684133
-0.32621207
0.00348816
-0.34890875
0.0038827125
-0.37319437
0.0042582833
-0.39921353
0.0046585115
-0.42710021
0.0050379019
-0.45701614
0.0053719566
-0.48912411
0.0056087066
-0.52358531
0.0057415145
-0.56057006
0.0057382893
-0.60024499
0.0055935955
-0.64277295
0.0052973586
-0.68830871
0.0048684341
-0.73700519
0.0043312028
-0.78902243
0.0037255561
-0.8445339
0.003091944
-0.90374367
0.0024695857
-0.96688832
0.0018894041
-1.0342446
0.0013719664
-1.1061317
0.00092759536
-1.1829173
0.00055652016
-1.2650053
0.00025162455
-1.352858
-0.0037600127
-0.21172988
-0.0032683115
-0.21054331
-0.002400775
-0.20839186
-0.0011047824
-0.2051805
0.00057824534
-0.19103339
0.0007017971
-0.2041885
0.00089031922
-0.21831387
0.0011616004
-0.23335694
0.0015128966
-0.24945781
0.0019870903
-0.2667013
0.0024883
-0.28515215
0.0029938528
-0.30496465
0.0034234671
-0.32614738
0.0038218742
-0.34884791
0.0042037507
-0.37313984
0.0046208825
-0.3991759
0.0050384878
-0.4271008
0.0054256509
-0.45706984
0.0057272506
-0.48924266
0.0059360794
-0.52377988
0.0060177909
-0.56084957
0.0059605065
-0.6006119
0.0057441083
-0.6432197
0.0053789506
-0.68881923
0.0048818826
-0.73755587
0.0042896325
-0.78958651
0.0036430378
-0.84508499
0.0029858787
-0.90425997
0.0023556957
-0.96735461
0.0017806612
-1.0346533
0.0012780333
-1.1064821
0.00085421565
-1.183215
0.00050671122
-1.2652604
0.00022652179
-1.3530845
-0.0037095293
-0.21210358
-0.0035904537
-0.21140774
-0.0031213903
-0.2098227
-0.0022584121
-0.20723823
-0.0010006328
-0.20360162
0.00064996647
-0.19098156
0.00078411512
-0.20408229
0.0010561132
-0.21820838
0.0014051493
-0.2332492
0.0018618287
-0.24933255
0.0023887925
-0.26660179
0.0029111156
-0.28506941
0.003355633
-0.30489682
0.0037552228
-0.32608073
0.0041367994
-0.34878096
0.0045648512
-0.37308381
0.0050117954
-0.39914921
0.0054467224
-0.42712187
0.0058069562
-0.45714954
0.0060869117
-0.48939349
0.0062522792
-0.52401437
0.0062859851
-0.56117504
0.0061583371
-0.60102613
0.0058703406
-0.64371109
0.0054296327
-0.68936698
0.0048672706
-0.73813351
0.004221924
-0.79016539
0.0035400534
-0.84563917
0.0028648789
-0.90476915
0.0022322166
-0.96780617
0.0016669072
-1.0350422
0.0011819566
-1.1068099
0.00078053866
-1.1834888
0.00045733426
-1.2654912
0.00020183913
-1.3532864
-0.0033416841
-0.21242502
-0.0035478758
-0.21214616
-0.0034362708
-0.21109286
-0.0029594002
-0.20912171
-0.0021233008
-0.20611557
-0.00087836914
-0.20207329
0.00072272483
-0.19092017
0.00092696642
-0.20395315
0.0012834777
-0.21808671
0.0017465744
-0.23313394
0.0022704673
-0.24921422
0.0028249175
-0.26651559
0.0032833057
-0.28499709
0.0036837841
-0.30482538
0.004062428
-0.32600636
0.0044916963
-0.34870781
0.0049624786
-0.37303449
0.0054373353
-0.39913982
0.0058505875
-0.4271655
0.0061952008
-0.45725783
0.0064404202
-0.48958163
0.0065660006
-0.52429438
0.0065332829
-0.56154999
0.0063339374
-0.60148972
0.0059652209
-0.64424668
0.005450259
-0.68994996
0.0048227759
-0.73873436
0.0041295066
-0.79075484
0.0034178232
-0.84619211
0.0027307188
-0.90526765
0.0021010176
-0.96824028
0.001549273
-1.0354095
0.0010848612
-1.1071142
0.00070714925
-1.1837387
0.00040868875
-1.2656981
0.00017769344
-1.3534641
-0.002721575
-0.21267163
-0.0031993024
-0.21277359
-0.0033998943
-0.21218253
-0.0032700106
-0.21078225
-0.0028045336
-0.20844048
-0.0019741525
-0.20501978
-0.00075692994
-0.20059363
0.00084595704
-0.19083916
0.0011366349
-0.2038063
0.0016152337
-0.21795537
0.0021544328
-0.23301791
0.0027237527
-0.24911306
0.0032072547
-0.26643954
0.0036094414
-0.28492274
0.0039810596
-0.30474401
0.0044071225
-0.32592178
0.0048913414
-0.34863667
0.0054019062
-0.37299907
0.0058607898
-0.39915002
0.0062632704
-0.42723357
0.0065825072
-0.45739992
0.0067979253
-0.48981355
0.0068634059
-0.5246245
0.0067615556
-0.56197761
0.0064790366
-0.60200354
0.0060291249
-0.64482554
0.0054378492
-0.69056504
0.0047493971
-0.73935425
0.0040131415
-0.79135016
0.0032781976
-0.84673959
0.0025853717
-0.90575201
0.0019635819
-0.96865459
0.0014293055
-1.0357539
0.00098747421
-1.1073945
0.00063457422
-1.1839645
0.00036104314
-1.2658814
0.00015419914
-1.3536183
-0.0019126322
-0.21286491
-0.0026071104
-0.21326382
-0.0030688033
-0.21310469
-0.0032418617
-0.21221068
-0.0031126672
-0.21047411
-0.0026390477
-0.20777558
-0.0018216471
-0.20395507
-0.00059389467
-0.19915378
0.0010268853
-0.19072941
0.0014609966
-0.20365207
0.0020274686
-0.2178284
0.0026184629
-0.23291262
0.0031226548
-0.24902846
0.0035319309
-0.26636203
0.0038963562
-0.28483804
0.0043104691
-0.30464736
0.0048045608
-0.325835
0.0053416886
-0.34857645
0.0058421784
-0.37298045
0.006294073
-0.39918082
0.0066800515
-0.42733112
0.0069807736
-0.45758277
0.0071445055
-0.49009465
0.0071460341
-0.52500898
0.0069616125
-0.56246018
0.0065936077
-0.60256802
0.0060577923
-0.64544548
0.0053927715
-0.69120841
0.0046471974
-0.7399883
0.0038745745
-0.79194654
0.0031231477
-0.84727737
0.0024306482
-0.90621907
0.0018217431
-0.96904702
0.0013079785
-1.0360744
0.00089071828
-1.1076507
0.00056329575
-1.1841668
0.00031465431
-1.2660419
0.00013147738
-1.3537497
-0.00098335796
-0.21298208
-0.0018326494
-0.21363937
-0.0025008773
-0.21383175
-0.00293015
-0.2134164
-0.0030907754
-0.21223257
-0.0029462576
-0.2101669
-0.0024699692
-0.20712726
-0.0016338124
-0.20291515
-0.00038495572
-0.19774194
0.0013220334
-0.19059045
0.0018829865
-0.20350759
0.0025105173
-0.21772046
0.0030326535
-0.23282262
0.0034518146
-0.24894834
0.003807177
-0.26627285
0.004207828
-0.2847354
0.0047010758
-0.30454387
0.0052630233
-0.32575634
0.005797461
-0.34853173
0.0062924044
-0.37297879
0.006735618
-0.39923639
0.007114905
-0.42746525
0.0073740344
-0.4578123
0.007481322
-0.49042994
0.0074041504
-0.52545152
0.0071331872
-0.56299976
0.0066720605
-0.60318229
0.0060507749
-0.64610349
0.0053141283
-0.69187534
0.0045175927
-0.74063132
0.0037156155
-0.79253901
0.0029547278
-0.84780145
0.00226865
-0.90666598
0.0016768771
-0.96941592
0.0011866287
-1.0363703
0.00079523058
-1.1078826
0.0004937765
-1.1843459
0.00026977985
-1.2661802
0.00010966016
-1.3538594
-0.21303732
-2.0243549e-07
-0.00094243283
-0.21387229
-0.0017588592
-0.21438139
-0.0023887825
-0.21437311
-0.0027981831
-0.21370899
-0.0029345972
-0.21224424
-0.0027741057
-0.20986277
-0.0022761966
-0.20648488
-0.001399491
-0.20190061
-8.001962e-05
-0.19633989
0.0017386725
-0.19044613
0.0023876516
-0.20338472
0.0029470262
-0.21763483
0.003366907
-0.23273771
0.0037202122
-0.24886138
0.0040966184
-0.26616164
0.0045888671
-0.28462319
0.0051654173
-0.30444627
0.0057330571
-0.32569193
0.006261885
-0.34850121
0.0067534779
-0.37299665
0.0072017664
-0.39932325
0.0075508476
-0.42764206
0.0077631571
-0.45809413
0.0077988053
-0.4908246
0.0076376257
-0.52595596
0.0072694023
-0.5635971
0.0067129668
-0.60384448
0.0060059449
-0.6467953
0.005202744
-0.69256049
0.0043620128
-0.74127772
0.0035384245
-0.7931227
0.0027752643
-0.84830806
0.0021011789
-0.90709028
0.0015306685
-0.96975996
0.0010661411
-1.0366412
0.00070181304
-1.1080906
0.00042645995
-1.1845026
0.00022668239
-1.2662972
8.8886737e-05
-1.3539483
-0.21397978
3.1252829e-08
-0.21303741
0.00098298613
-0.00090463491
-0.21472652
-0.0016808037
-0.21508937
-0.0022845483
-0.21488675
-0.0026630053
-0.21398058
-0.0027774901
-0.21224085
-0.0025842121
-0.20955475
-0.0020474617
-0.20583691
-0.0010806105
-0.20090002
0.00034130376
-0.19494252
0.0022740975
-0.19033258
0.0028415319
-0.20327923
0.0032898313
-0.21755776
0.0036268267
-0.23264432
0.0039906539
-0.24875541
0.0044639415
-0.26603672
0.00505736
-0.28451513
0.0056497456
-0.30436295
0.0062088424
-0.32563889
0.0067367172
-0.34848445
0.0072444808
-0.37303936
0.0076750684
-0.39944747
0.00798855
-0.42786745
0.0081394686
-0.4584348
0.0080974723
-0.49128444
0.0078384599
-0.52652502
0.0073677543
-0.56425189
0.0067127354
-0.60455127
0.0059232551
-0.64751582
0.0050593901
-0.69325787
0.0041825219
-0.74192182
0.003345457
-0.7936929
0.0025869644
-0.84879385
0.0019302995
-0.90748991
0.0013844236
-0.97007824
0.00094768402
-1.0368871
0.00061105952
-1.1082752
0.00036177018
-1.1846377
0.00018562594
-1.266394
6.9295e-05
-1.3540176
-0.21488448
6.8999033e-08
-0.21397989
0.00094250562
-0.21298212
0.0019122757
-0.00086498353
-0.21554234
-0.0016092874
-0.21576463
-0.0021799417
-0.21536981
-0.0025298072
-0.21422826
-0.0026095844
-0.21221548
-0.0023725224
-0.20922969
-0.0017416148
-0.2051759
-0.00066349155
-0.19989523
0.00091319586
-0.19358162
0.0027628552
-0.1902539
0.0031857482
-0.20317514
0.0035425397
-0.21747347
0.0038775443
-0.23253121
0.0043434707
-0.24863494
0.0049346048
-0.26591396
0.0055548844
-0.28442027
0.0061346511
-0.30428876
0.0066912768
-0.32559345
0.0072450156
-0.34848499
0.0077486873
-0.37311298
0.0081565145
-0.39961544
0.0084213184
-0.4281493
0.0085047168
-0.45884204
0.0083682675
-0.49181425
0.0080029359
-0.5271602
0.0074229947
-0.56496215
0.0066701682
-0.60529819
0.0058024922
-0.64825892
0.0048857687
-0.69396112
0.0039815416
-0.7425579
0.0031392553
-0.79424519
0.0023922909
-0.84925584
0.0017577963
-0.90786329
0.0012396705
-0.97037023
0.00083208781
-1.0371081
0.00052366536
-1.1084371
0.00030008909
-1.1847521
0.00014686266
-1.2664715
5.1009627e-05
-1.3540686
-0.21574917
-3.0174854e-07
-0.21488441
0.0009045875
-0.21387234
0.0018327298
-0.21286496
0.0027212301
-0.00082912223
-0.2163225
-0.0015383255
-0.21640624
-0.0020793759
-0.21582024
-0.0023892565
-0.21444859
-0.0024262714
-0.21216173
-0.0020934725
-0.20887783
-0.0013382119
-0.20450118
-9.6192372e-05
-0.19888584
0.0014819433
-0.1923007
0.0031116568
-0.19017981
0.0034282953
-0.2030609
0.0037749681
-0.21737089
0.00421541
-0.23240315
0.0048131188
-0.24851345
0.0054453276
-0.2658044
0.006046466
-0.28433209
0.0066183549
-0.30421584
0.0072090379
-0.32555747
0.0077732789
-0.34850958
0.0082680002
-0.37322446
0.0086421868
-0.39983631
0.0088528052
-0.42849739
0.0088490034
-0.45932278
0.0086062013
-0.49241751
0.0081240579
-0.52786126
0.0074325368
-0.56572452
0.0065837127
-0.60607941
0.0056446675
-0.64901782
0.0046840249
-0.6946636
0.0037618168
-0.74318046
0.002922658
-0.79477555
0.002193542
-0.84969158
0.001585624
-0.90820924
0.0010976269
-0.97063577
0.00072035394
-1.0373048
0.00044015466
-1.1085772
0.00024173942
-1.184847
0.00011061747
-1.2665311
3.4130827e-05
-1.3541027
-0.21657778
-5.0547017e-07
-0.2157488
0.00086409535
-0.21472645
0.0017586938
-0.21363942
0.0026071947
-0.21267168
0.0033413595
-0.00079476332
-0.21706607
-0.0014719673
-0.21701365
-0.0019764116
-0.21623309
-0.002235893
-0.21463897
-0.0021811301
-0.21207407
-0.0017181477
-0.2084979
-0.0007783758
-0.203819
0.00050990072
-0.1979138
0.0018998541
-0.1910889
0.0033362156
-0.19008773
0.0036464186
-0.20293235
0.0040955432
-0.21725103
0.0046848444
-0.23227488
0.0053339023
-0.24840203
0.0059416757
-0.26569961
0.0065265073
-0.28424024
0.0071379528
-0.30414476
0.0077546926
-0.32553889
0.008324785
-0.34856636
0.0088017275
-0.373384
0.0091377688
-0.40012127
0.0092720735
-0.42892046
0.0091659554
-0.45988253
0.0088026392
-0.4930961
0.0081977655
-0.52862649
0.0073931648
-0.56653397
0.0064533186
-0.60688806
0.0054513267
-0.64978512
0.0044568974
-0.69535868
0.0035264831
-0.74378429
0.0026984799
-0.79528049
0.0019931604
-0.85009912
0.0014154656
-0.90852708
0.00095961015
-0.97087503
0.00061321421
-1.0374779
0.00036103641
-1.1086965
0.00018703672
-1.1849234
7.7076541e-05
-1.2665741
1.8728895e-05
-1.3541215
-0.21737127
-1.2814629e-06
-0.21657739
0.00082807947
-0.21554215
0.0016797973
-0.21438139
0.0025006585
-0.21326388
0.003199395
-0.21242505
0.0037091943
-0.00076426372
-0.21777377
-0.0014077554
-0.21758231
-0.0018679092
-0.21660107
-0.0020366313
-0.21478347
-0.0018418335
-0.21195039
-0.0011849613
-0.20809131
-0.00014870431
-0.20316039
0.0009881175
-0.19700206
0.0021544103
-0.1899071
0.003529297
-0.18997061
0.003959562
-0.20279637
0.0045596966
-0.21712588
0.0052153137
-0.23215629
0.005833223
-0.24829358
0.006413759
-0.26558687
0.0070416636
-0.28414395
0.0076951604
-0.30408522
0.008332575
-0.32554668
0.008901206
-0.34866584
0.0093574429
-0.37360368
0.0096312168
-0.40048041
0.0096713058
-0.42942581
0.0094455164
-0.46052541
0.0089520629
-0.49385039
0.0082188877
-0.52945221
0.0073033646
-0.56738402
0.0062795318
-0.60771626
0.0052249069
-0.65055313
0.0042076646
-0.69603986
0.003278829
-0.74436464
0.0024696961
-0.79575703
0.0017933632
-0.85047702
0.0012490365
-0.9088165
0.00082666703
-0.97108848
0.0005114389
-1.0376283
0.00028668065
-1.1087961
0.00013628705
-1.1849827
4.6375007e-05
-1.2666017
4.8562155e-06
-1.3541263
-0.21813449
-1.0368815e-06
-0.2173712
0.00079252461
-0.21632218
0.0016081068
-0.21508924
0.002387649
-0.21383167
0.0030684507
-0.21277358
0.0035479237
-0.21210362
0.003759649
-0.00073640439
-0.21844512
-0.001347301
-0.21810292
-0.001730168
-0.21690754
-0.001756153
-0.21486915
-0.0013508559
-0.21178449
-0.00056071626
-0.2076793
0.00037775036
-0.20255003
0.0012822806
-0.19612993
0.0023415909
-0.18871939
0.0038273341
-0.18983838
0.0044272518
-0.20266392
0.0050982682
-0.21700883
0.0057146599
-0.23203773
0.006294972
-0.24817479
0.0069193527
-0.26546455
0.0076043329
-0.28405312
0.0082937433
-0.30404639
0.008944967
-0.32559044
0.0095111494
-0.34881955
0.0099217176
-0.37389418
0.010113553
-0.40092266
0.010039789
-0.43002008
0.0096810749
-0.46125442
0.009047172
-0.49467868
0.0081840399
-0.53033289
0.0071622149
-0.5682667
0.0060641016
-0.60855546
0.0049685801
-0.65131404
0.0039399809
-0.69670101
0.0030223716
-0.74491731
0.0022391218
-0.79620279
0.0015963502
-0.85082433
0.0010877748
-0.90907761
0.00069981954
-0.97127686
0.0004155333
-1.0377571
0.00021747721
-1.1088773
8.9685569e-05
-1.185026
1.859663e-05
-1.2666155
-7.4729787e-06
-1.3541188
-0.218871
1.0411466e-07
-0.21813455
0.00076231876
-0.21706599
0.0015363345
-0.21576437
0.0022832396
-0.2143728
0.0029287747
-0.21310461
0.0033994873
-0.21214605
0.0035903525
-0.21172991
0.0034319046
-0.00070946828
-0.21908295
-0.001277278
-0.21855581
-0.0015225995
-0.21714109
-0.0013365128
-0.21488349
-0.00075820122
-0.21158701
4.0371231e-09
-0.20730155
0.00070735403
-0.2019751
0.0014731715
-0.19526151
0.0026114876
-0.18750354
0.004300773
-0.1897119
0.004976125
-0.20254178
0.0055991711
-0.21689335
0.0061632726
-0.23190603
0.0067859413
-0.24804138
0.0074824447
-0.26534267
0.008216881
-0.28397626
0.0089343006
-0.30403573
0.0096011833
-0.32568047
0.010140487
-0.34903832
0.010485062
-0.37426569
0.010574315
-0.40145719
0.010370311
-0.43070932
0.0098631492
-0.46207039
0.0090823752
-0.49557701
0.0080903448
-0.53126102
0.0069703068
-0.5691729
0.0058097367
-0.60939661
0.0046861733
-0.65206023
0.0036578613
-0.6973365
0.0027605669
-0.74543876
0.002009533
-0.79661597
0.001404042
-0.8511406
0.00093302272
-0.90931081
0.00057979827
-0.97144112
0.00032594355
-1.0378656
0.00015372635
-1.1089414
4.7337129e-05
-1.1850547
-6.1562964e-06
-1.2666168
-1.8322716e-05
-1.3541005
-0.21958216
1.6949072e-06
-0.21887085
0.00073640211
-0.21777408
0.0014704071
-0.21640617
0.0021781375
-0.21488645
0.0027968912
-0.21341633
0.0032404871
-0.21218227
0.0034357108
-0.21140772
0.0032681588
-0.21128786
0.0026658252
-0.00066914283
-0.21969109
-0.0011615324
-0.21891687
-0.0011862469
-0.21729136
-0.00080844415
-0.21483325
-0.00018647352
-0.21140053
0.00037508746
-0.20696929
0.00090957174
-0.2014115
0.0017072513
-0.19435727
0.0030737282
-0.1862765
0.0048681894
-0.18960397
0.0054783019
-0.20242091
0.0060330664
-0.21676314
0.0066369155
-0.231757
0.0073421879
-0.24790112
0.0081022324
-0.26522802
0.0088771201
-0.28391908
0.0096275129
-0.30406206
0.01028803
-0.32582802
0.010780837
-0.34933409
0.011038956
-0.37473033
0.011006499
-0.40209337
0.01065115
-0.43149732
0.0099835913
-0.46297161
0.0090523274
-0.49653899
0.0079366887
-0.5322274
0.0067294153
-0.57009258
0.0055201344
-0.61023057
0.0043820779
-0.65278445
0.0033654084
-0.69794135
0.0024968515
-0.74592608
0.0017834376
-0.79699537
0.0012182025
-0.85142578
0.00078579527
-0.90951681
0.00046718068