/*--------------------------------*- C++ -*----------------------------------*\
| =========                 |                                                 |
| \\      /  F ield         | OpenFOAM: The Open Source CFD Toolbox           |
|  \\    /   O peration     | Version:  5.0                                   |
|   \\  /    A nd           | Web:      www.OpenFOAM.org                      |
|    \\/     M anipulation  |                                                 |
\*---------------------------------------------------------------------------*/
FoamFile
{
    version     2.0;
    format      ascii;
    class       volScalarField;
    location    "20";
    object      pMean;
}
// * * * * * * * * * * * * * * * * * * * * * * * * * * * * * * * * * * * * * //

dimensions      [0 2 -2 0 0 0 0];

internalField   nonuniform List<scalar> 
9520
(
-5.4819423e-05
-5.2736063e-05
-0.00012792449
-4.8968157e-05
-0.00012321667
-0.000211884
-4.40473e-05
-0.00011481096
-0.00020435408
-0.00029608052
-3.8324704e-05
-0.00010360863
-0.00019083568
-0.00028579561
-0.00038664436
-3.2044583e-05
-9.0378853e-05
-0.0001726318
-0.00026723111
-0.00037346514
-0.00048299437
-2.5420197e-05
-7.5760655e-05
-0.00015091406
-0.00024220077
-0.0003496504
-0.00046698764
-0.00058580939
-1.8647743e-05
-6.02887e-05
-0.00012677117
-0.00021228689
-0.00031748711
-0.00043798842
-0.00056699732
-0.00069588484
-1.1890704e-05
-4.4429301e-05
-0.00010113478
-0.00017892724
-0.00027896615
-0.00039869018
-0.00053282356
-0.00067437951
-0.00081346546
-5.2829014e-06
-2.8570955e-05
-7.479797e-05
-0.00014337208
-0.00023589305
-0.00035143883
-0.00048638132
-0.00063518452
-0.00078939871
-0.0009388667
1.0746726e-06
-1.3032251e-05
-4.8416585e-05
-0.00010671198
-0.00018984024
-0.00029839785
-0.00043032613
-0.00058169968
-0.00074541178
-0.00091246615
-0.0010720441
7.1040445e-06
1.943161e-06
-2.2526332e-05
-6.9861004e-05
-0.00014220344
-0.00024147604
-0.00036711038
-0.00051684168
-0.00068511652
-0.00086405915
-0.0010436028
-0.0012127764
1.2761759e-05
1.6167084e-05
2.4609036e-06
-3.3576987e-05
-9.4169378e-05
-0.00018236614
-0.00029893779
-0.00044332351
-0.00061160352
-0.00079734135
-0.00099125988
-0.0011827016
-0.0013607121
1.8005604e-05
2.952703e-05
2.6226947e-05
1.5471103e-06
-4.67307e-05
-0.00012252707
-0.00022780025
-0.00036360274
-0.00052775713
-0.00071549258
-0.00091868639
-0.0011270772
-0.0013294816
-0.001515189
2.284943e-05
4.1923188e-05
4.8573104e-05
3.5047048e-05
-6.7366441e-07
-6.3197907e-05
-0.00015543997
-0.00027994093
-0.00043625138
-0.00062149342
-0.00082901767
-0.0010494296
-0.0012713718
-0.0014833706
-0.0016755624
2.7248437e-05
5.336763e-05
6.9332409e-05
6.6622776e-05
4.3378469e-05
-5.377383e-06
-8.3362155e-05
-0.00019436115
-0.00033959609
-0.0005181626
-0.00072522533
-0.00095272034
-0.0011896422
-0.001423761
-0.0016437867
-0.0018408041
3.1297018e-05
6.3774269e-05
8.8497751e-05
9.6023462e-05
8.5010805e-05
5.0129548e-05
-1.2805772e-05
-0.00010864742
-0.00024009103
-0.00040821181
-0.00061019437
-0.00083979323
-0.0010869196
-0.0013391882
-0.0015838079
-0.0018097923
-0.0020100218
3.4864481e-05
7.3312931e-05
0.00010594284
0.00012321811
0.00012387581
0.00010276911
5.5212032e-05
-2.4304036e-05
-0.00013981127
-0.00029419688
-0.00048678403
-0.00071349299
-0.00096578194
-0.0012317964
-0.0014978504
-0.0017507428
-0.0019805558
-0.0021819474
3.8204779e-05
8.176793e-05
0.00012189051
0.00014802652
0.00015990335
0.00015207301
0.0001199659
5.7408782e-05
-4.0553015e-05
-0.00017848576
-0.00035777607
-0.00057674584
-0.00082891411
-0.0011037418
-0.001387409
-0.0016650972
-0.0019238458
-0.0021548702
-0.0023555289
4.0966443e-05
8.9590832e-05
0.00013607684
0.00017073067
0.00019285125
0.0001979129
0.00018083955
0.00013555798
5.6146168e-05
-6.3187525e-05
-0.00022582586
-0.00043250747
-0.00067921146
-0.00095740553
-0.0012540524
-0.0015535471
-0.0018404006
-0.0021020288
-0.0023317074
-0.0025293894
4.3722671e-05
9.6215972e-05
0.00014910501
0.00019098252
0.00022304514
0.00023996092
0.0002376162
0.00020934441
0.00014910357
4.9849354e-05
-9.3371143e-05
-0.00028369752
-0.00051973435
-0.00079552837
-0.0010997033
-0.0014169038
-0.0017299493
-0.002022862
-0.0022843298
-0.0025097065
-0.002702419
4.5737055e-05
0.00010260075
0.00016029258
0.00020955611
0.00025006264
0.00027857536
0.00028986792
0.00027842883
0.00023729868
0.00015914805
3.7395127e-05
-0.00013308612
-0.00035362772
-0.00062117939
-0.00092680522
-0.0012564588
-0.0015923744
-0.0019159932
-0.0022116484
-0.0024694394
-0.0026877389
-0.0028732329
4.8045056e-05
0.00010759534
0.00017085309
0.00022558886
0.00027481853
0.00031323716
0.00033795931
0.00034225215
0.0003202264
0.00026342032
0.00016465607
1.6761145e-05
-0.00018398494
-0.00043766398
-0.00073831643
-0.0010741918
-0.001428159
-0.0017802179
-0.002111057
-0.0024055562
-0.0026562256
-0.0028644141
-0.0030407652
4.9443864e-05
0.00011280363
0.00017940964
0.00024060984
0.00029631787
0.00034500598
0.00038127914
0.00040116047
0.0003971662
0.00036194638
0.0002868043
0.00016364356
-1.3763606e-05
-0.00024836919
-0.00053761295
-0.00087280169
-0.0012386398
-0.001615032
-0.0019801184
-0.0023141238
-0.0026034911
-0.0028432729
-0.0030386
-0.0032037365
5.1337947e-05
0.00011647925
0.00018790119
0.00025296637
0.00031631994
0.00037273745
0.00042099719
0.00045442634
0.00046840982
0.00045379879
0.00040285007
0.00030557584
0.00015441209
-5.6646436e-05
-0.00032832251
-0.00065561376
-0.0010260849
-0.0014209351
-0.0018171694
-0.0021913528
-0.0025242091
-0.0028040384
-0.0030293739
-0.0032089687
-0.003361325
5.23574e-05
0.0001206188
0.00019433544
0.00026497052
0.00033300994
0.0003984292
0.00045585131
0.0005033211
0.00053309489
0.00053917789
0.00051160603
0.00044123922
0.00031811907
0.00013442439
-0.00011417122
-0.00042641132
-0.00079361875
-0.0011995694
-0.0016216772
-0.0020342673
-0.0024131503
-0.002739962
-0.0030059219
-0.0032131193
-0.0033745636
-0.0035124276
5.3743708e-05
0.0001234256
0.0002009839
0.00027438033
0.00034890937
0.00042011443
0.0004880164
0.00054644514
0.0005925678
0.00061704292
0.00061313731
0.00056911626
0.00047564675
0.00032192602
0.00010128549
-0.00018924878
-0.00054506184
-0.00095367452
-0.0013944477
-0.0018411104
-0.0022658941
-0.0026443226
-0.0029600853
-0.0032076306
-0.0033933336
-0.0035342101
-0.0036562738
5.4672368e-05
0.00012643511
0.00020595325
0.00028368583
0.00036176531
0.00044046631
0.00051544977
0.00058615711
0.00064527964
0.00068880794
0.00070617095
0.00068908984
0.00062506818
0.00050368799
0.00031459202
5.1844505e-05
-0.00028471917
-0.00068695173
-0.001137626
-0.0016116308
-0.0020792835
-0.0025111612
-0.0028836428
-0.0031829917
-0.0034078106
-0.0035687108
-0.0036870793
-0.0037921054
5.5475754e-05
0.0001288459
0.00021079902
0.00029103589
0.00037398934
0.00045736265
0.00054086825
0.00062033044
0.00069376776
0.00075271763
0.00079217934
0.00079957462
0.00076602936
0.0006772859
0.00052304444
0.00029284605
-1.7064041e-05
-0.00040383916
-0.00085460039
-0.0013471427
-0.0018517897
-0.0023357685
-0.0027690427
-0.0031295229
-0.0034071716
-0.0036049721
-0.0037382723
-0.0038322708
-0.0039193283
5.6381275e-05
0.0001307271
0.00021494946
0.00029777881
0.00038413751
0.00047286501
0.00056245289
0.0006516862
0.00073581124
0.00081152831
0.00086912632
0.00090210447
0.00089653938
0.00084206167
0.00072363702
0.00053044522
0.00025330716
-0.00010918698
-0.00054978199
-0.001050488
-0.0015836439
-0.0021151302
-0.0026099077
-0.0030380737
-0.003380353
-0.0036309284
-0.0037978076
-0.0039008839
-0.0039690882
-0.0040374495
5.6967481e-05
0.00013286814
0.00021812318
0.00030387981
0.00039295338
0.00048636659
0.00058167583
0.0006788221
0.00077413777
0.00086284661
0.0009400421
0.00099424411
0.0010181894
0.00099550989
0.00091531929
0.0007609769
0.00052241531
0.00019185675
-0.00022828567
-0.00072584191
-0.0012768762
-0.0018481366
-0.0024015524
-0.0029005285
-0.0033166539
-0.0036342612
-0.00385267
-0.0039849563
-0.0040556771
-0.00409694
-0.0041461187
5.7069775e-05
0.00013427691
0.00022167106
0.00030834032
0.00040134142
0.00049743684
0.00059909259
0.00070239845
0.00080776202
0.00090947926
0.0010022274
0.0010794013
0.0011280094
0.0011392633
0.0010949601
0.0009828899
0.00078586778
0.00049460477
0.00010425273
-0.00037841648
-0.00093517103
-0.0015357142
-0.0021412765
-0.0027103851
-0.0032062032
-0.003602824
-0.0038893903
-0.0040707261
-0.0041652873
-0.0042018325
-0.0042153608
-0.0042451208
5.7809985e-05
0.00013450207
0.00022398193
0.00031345484
0.00040725203
0.00050860851
0.00061272716
0.00072451205
0.00083650592
0.00095080087
0.0010587421
0.0011543502
0.0012298955
0.0012696637
0.0012641825
0.0011923166
0.0010414904
0.00079388211
0.00044242959
-1.4220258e-05
-0.00056361073
-0.0011807556
-0.0018285992
-0.0024631249
-0.0030405853
-0.003525033
-0.003894523
-0.0041437411
-0.0042835707
-0.004337655
-0.0043386933
-0.0043240237
-0.0043343579
5.8011896e-05
0.000136017
0.00022438742
0.00031670785
0.00041417093
0.00051603911
0.00062716291
0.00074113088
0.00086410464
0.00098574495
0.0011091209
0.0012226791
0.001319824
0.0013912001
0.0014184842
0.0013907904
0.0012845719
0.0010867649
0.00078025825
0.00036066479
-0.0001684051
-0.00078792824
-0.0014652865
-0.0021565589
-0.0028132747
-0.0033905229
-0.0038548792
-0.0041894527
-0.004395382
-0.0044896936
-0.0045011436
-0.0044657267
-0.0044227372
-0.0044138391
5.8301644e-05
0.00013642002
0.00022664518
0.00031709368
0.00041850408
0.00052515216
0.00063631733
0.00075952889
0.00088434357
0.001019909
0.0011515611
0.001283699
0.0014022277
0.0014987918
0.0015629949
0.0015728101
0.0015164418
0.0013675963
0.0011139395
0.0007394437
0.00024378822
-0.000363405
-0.0010552519
-0.0017909691
-0.0025200928
-0.0031906302
-0.0037581763
-0.0041932389
-0.0044852809
-0.0046423592
-0.004687762
-0.0046548943
-0.0045825423
-0.0045114248
-0.0044836693
5.8732028e-05
0.00013715568
0.00022723336
0.00032014386
0.00041874998
0.00053076069
0.00064809153
0.00077060073
0.00090733188
0.0010444722
0.0011934865
0.0013352426
0.0014757939
0.0015980356
0.0016913295
0.0017441724
0.001730438
0.0016373599
0.0014367838
0.0011173335
0.00066541084
8.5758196e-05
-0.00060432128
-0.0013691272
-0.0021594758
-0.0029189444
-0.0035935487
-0.0041410063
-0.0045374383
-0.0047795766
-0.0048828473
-0.0048765314
-0.0047982383
-0.0046888911
-0.0045901172
-0.0045440388
5.8804118e-05
0.0001378424
0.00022845213
0.00032065304
0.00042268325
0.00053068076
0.0006547882
0.00078553897
0.00092084863
0.0010729815
0.0012232967
0.0013863844
0.0015384947
0.001686424
0.0018104561
0.0018969454
0.0019330201
0.0018880673
0.0017492436
0.001486544
0.0010906302
0.00055134373
-0.00011969023
-0.00089613055
-0.0017326317
-0.0025717112
-0.0033521756
-0.0040197049
-0.0045361324
-0.0048845879
-0.0050699649
-0.0051151018
-0.0050549559
-0.0049306478
-0.0047846521
-0.0046589413
-0.004595211
5.9143857e-05
0.00013811421
0.00022943259
0.00032252129
0.00042323189
0.00053571615
0.00065399691
0.00079373649
0.00093951279
0.0010894324
0.0012583537
0.0014225659
0.0016004865
0.001762622
0.00191631
0.0020397169
0.00211443
0.0021268153
0.0020418519
0.0018467754
0.0015105046
0.001026462
0.00038994806
-0.00037896594
-0.0012434841
-0.002148139
-0.0030278053
-0.0038180036
-0.0044662341
-0.0049402968
-0.0052317415
-0.0053541067
-0.0053375602
-0.0052221255
-0.0050517534
-0.0048698206
-0.0047181103
-0.0046375119
5.9149804e-05
0.00013866086
0.00023000034
0.00032366971
0.00042568621
0.00053617626
0.00066024831
0.00079234138
0.00094937909
0.0011123748
0.0012785531
0.001465645
0.0016445232
0.0018373698
0.0020087804
0.0021663609
0.0022850742
0.0023417045
0.0023222459
0.0021869537
0.0019237601
0.001501006
0.00091670735
0.00017347451
-0.00069837808
-0.0016504849
-0.0026172241
-0.0035269164
-0.0043138965
-0.0049296915
-0.005350024
-0.0055759018
-0.0056298103
-0.0055488154
-0.0053773353
-0.0051613316
-0.0049445014
-0.0047679111
-0.0046713183
5.9271853e-05
0.00013875228
0.00023074781
0.00032449436
0.00042686678
0.00053917564
0.00066058801
0.00079956848
0.0009473493
0.0011243544
0.0013067826
0.0014902879
0.0016971746
0.0018910322
0.0020987106
0.0022785559
0.0024362939
0.0025451739
0.0025760737
0.0025150826
0.0023175938
0.0019725306
0.0014493744
0.00075246326
-0.00010601989
-0.0010839368
-0.0021205078
-0.0031404249
-0.0040672538
-0.0048365105
-0.0054062028
-0.0057616483
-0.0059141479
-0.0058950319
-0.0057476755
-0.0055200421
-0.0052593109
-0.0050088958
-0.0048086903
-0.0046970463
0.00013897795
5.9271856e-05
0.00023095586
0.00032547776
0.00042801665
0.00054023583
0.00066437944
0.00079931806
0.0009556106
0.0011214505
0.0013212988
0.0015249912
0.0017271675
0.0019551324
0.0021644312
0.0023864416
0.0025720924
0.0027254738
0.002817973
0.0028140712
0.0027001599
0.0024263907
0.001984155
0.0013458286
0.00052429572
-0.00045652066
-0.0015411014
-0.0026559139
-0.003717175
-0.004645974
-0.0053818136
-0.0058915029
-0.0061714572
-0.0062436647
-0.0061479457
-0.0059331447
-0.0056498876
-0.0053457454
-0.0050632819
-0.0048408386
-0.0047151398
0.00023126542
0.00013898091
5.914973e-05
0.00032578023
0.00042916869
0.00054179456
0.00066544463
0.00080411647
0.0009546448
0.0011311525
0.0013167399
0.0015429487
0.0017697077
0.001991536
0.0022422436
0.0024668623
0.0027011941
0.0028896003
0.0030325582
0.0031008738
0.0030513325
0.0028706618
0.0025044984
0.001948286
0.0011796739
0.00022230252
-0.00088576639
-0.0020744614
-0.0032578838
-0.0043456378
-0.0052592559
-0.0059451199
-0.0063810925
-0.0065757523
-0.0065618327
-0.0063869468
-0.0061044556
-0.0057666736
-0.005420794
-0.0051079937
-0.0048647856
-0.0047260638
0.00032619726
0.00023127511
0.00013875389
5.9146309e-05
0.00042955111
0.00054305529
0.00066730206
0.00080506676
0.00096017119
0.0011293444
0.0013282088
0.001536426
0.0017919049
0.0020436522
0.002286644
0.0025609511
0.0027997242
0.0030438019
0.0032303526
0.0033558855
0.0033904626
0.0032818501
0.0030181241
0.0025413997
0.0018532912
0.00093926517
-0.00016358346
-0.0014009094
-0.0026874696
-0.0039261741
-0.0050227029
-0.0059023073
-0.0065212484
-0.0068703277
-0.0069709645
-0.0068662578
-0.0066106986
-0.0062610602
-0.0058703586
-0.005484686
-0.0051434259
-0.0048810069
-0.0047303029
0.00043009428
0.00032621848
0.00023095661
0.00013866812
5.8805947e-05
0.00054358288
0.00066869649
0.00080726615
0.00096078619
0.0011356044
0.0013256138
0.0015499725
0.0017828587
0.0020710278
0.002350637
0.0026152485
0.002913192
0.0031644447
0.0034142422
0.0035937215
0.0036930683
0.0036817692
0.0034978409
0.0031321918
0.0025249286
0.001686084
0.00061229379
-0.00064324975
-0.0020081375
-0.0033821053
-0.0046590099
-0.0057439397
-0.0065695047
-0.0071046318
-0.0073545643
-0.0073537173
-0.0071548403
-0.0068181407
-0.0064026169
-0.0059609992
-0.0055377449
-0.0051700691
-0.0048900218
-0.0047283549
0.00054418743
0.00043011941
0.0003257764
0.00023075456
0.00013811573
5.8732642e-05
0.00066940982
0.00080885991
0.00096331841
0.0011362428
0.0013327225
0.0015466267
0.0017993772
0.002058367
0.0023840731
0.0026934932
0.0029797616
0.003300773
0.0035617762
0.0038128618
0.0039784241
0.0040402674
0.0039679329
0.0036895068
0.0032005655
0.0024409793
0.0014323521
0.00018609307
-0.0012259688
-0.0027122627
-0.0041586404
-0.0054529464
-0.006503688
-0.0072545062
-0.0076894896
-0.0078292589
-0.0077209268
-0.0074258102
-0.0070084794
-0.0065289276
-0.0060387932
-0.0055804606
-0.0051885005
-0.0048923358
-0.0047207008
0.0006701223
0.00054419073
0.00042956266
0.00032548135
0.00022999632
0.00013784908
5.8300157e-05
0.00080962528
0.00096548121
0.0011388004
0.0013337132
0.0015546236
0.0017954221
0.0020786949
0.002367513
0.0027338149
0.0030753231
0.0033824003
0.0037252166
0.0039931979
0.0042394587
0.0043819228
0.0043917264
0.0042400324
0.0038448849
0.0032085847
0.0022736571
0.0010768066
-0.00035189811
-0.001919943
-0.0035163636
-0.0050153865
-0.0063028762
-0.0072951457
-0.0079504405
-0.0082699671
-0.0082901099
-0.0080698747
-0.0076777251
-0.0071811105
-0.0066399569
-0.0061041864
-0.0056134739
-0.0051992247
-0.0048883487
-0.0047077714
0.00081047523
0.0006701252
0.00054358668
0.00042917603
0.00032449922
0.00022944002
0.00013716812
5.8009516e-05
0.0009661353
0.0011414951
0.001335879
0.0015562714
0.0018042686
0.0020746986
0.0023916053
0.0027135038
0.0031240094
0.0034987681
0.0038254227
0.0041886981
0.004459599
0.0046927472
0.0047997416
0.0047396839
0.0044868733
0.0039493256
0.0031392364
0.0020054015
0.00060361003
-0.0010136654
-0.0027317889
-0.0044213783
-0.0059485693
-0.0072020545
-0.0081105528
-0.0086500796
-0.0088403251
-0.0087331806
-0.0083982256
-0.0079093815
-0.0073356431
-0.0067360108
-0.0061578751
-0.005637277
-0.0052024701
-0.0048784008
-0.0046899825
0.00096732945
0.00081047036
0.00066942138
0.00054306398
0.00042804077
0.00032367028
0.00022847525
0.00013642463
5.7809518e-05
0.0011416388
0.0013391148
0.0015581863
0.0018067688
0.0020844081
0.0023877918
0.0027418479
0.0031002187
0.0035577766
0.0039668409
0.0043122284
0.0046931508
0.004961139
0.005169642
0.0052256118
0.0050740741
0.0046943569
0.0039853458
0.0029731284
0.001617305
-3.207882e-06
-0.0018100083
-0.0036659738
-0.0054258075
-0.0069522418
-0.0081422397
-0.0089413806
-0.009346078
-0.0093951246
-0.0091549504
-0.0087039293
-0.0081198486
-0.0074721611
-0.0068178184
-0.0062003424
-0.0056518558
-0.005198423
-0.0048631084
-0.004667859
0.0011432605
0.00096733029
0.00080964446
0.00066870698
0.00054183112
0.00042687343
0.00032255381
0.00022723692
0.00013602624
5.7068361e-05
0.001338935
0.0015619061
0.0018082457
0.0020888087
0.0023981328
0.0027383747
0.00313373
0.0035308396
0.0040387522
0.004483832
0.0048456137
0.005239983
0.0054961559
0.0056654445
0.0056510397
0.0053818301
0.0048451249
0.0039324072
0.0026886477
0.0010894298
-0.00075906399
-0.0027498387
-0.0047243432
-0.0065254724
-0.0080183359
-0.0091138678
-0.009778612
-0.01003123
-0.0099293311
-0.0095522144
-0.0089852669
-0.0083088394
-0.0075913673
-0.0068858664
-0.0062312599
-0.0056571812
-0.0051881478
-0.0048436252
-0.0046421059
0.0013414172
0.0011432517
0.00096616493
0.00080887243
0.00066732096
0.00054025459
0.00042571119
0.00032067616
0.00022665581
0.00013450989
5.6966799e-05
0.0015611769
0.0018131188
0.0020901704
0.002405807
0.002749727
0.0031313249
0.0035708907
0.0040087949
0.0045709706
0.0050533194
0.0054283667
0.0058289953
0.0060618556
0.0061733649
0.0060645258
0.0056463108
0.0049181491
0.0037668732
0.0022621009
0.00040148229
-0.0016780031
-0.0038394668
-0.0059056556
-0.0077134022
-0.0091367708
-0.010106352
-0.010613075
-0.010698643
-0.01043822
-0.0099221452
-0.0092413601
-0.0084769413
-0.0076936675
-0.0069393701
-0.0062502477
-0.0056549566
-0.0051739495
-0.0048208444
-0.004613361
0.0015645929
0.0013414259
0.001141642
0.00096546822
0.00080728486
0.00066545888
0.00053917691
0.00042327292
0.00032016336
0.00022439948
0.00013428456
5.6380463e-05
0.0018123891
0.0020980319
0.0024051185
0.0027601904
0.0031441248
0.0035704172
0.0040573805
0.0045388702
0.0051590538
0.005679288
0.0060618792
0.0064590191
0.0066535209
0.0066836966
0.0064508105
0.0058466989
0.0048884657
0.0034619654
0.001668325
-0.00046630872
-0.0027718219
-0.0050818837
-0.0072052456
-0.008979818
-0.010295728
-0.011108481
-0.0114357
-0.011341665
-0.010917456
-0.01026297
-0.0094725284
-0.0086243782
-0.0077776602
-0.0069774157
-0.0062597585
-0.005649155
-0.0051568879
-0.0047936454
-0.0045795133
0.0018171435
0.0015645819
0.001338967
0.0011414203
0.00096336853
0.00080509208
0.00066438316
0.00053619387
0.00042271443
0.00031711258
0.00022399449
0.0001328751
5.5475439e-05
0.0020962619
0.0024177709
0.0027593175
0.0031583062
0.0035848562
0.0040601002
0.0045972812
0.0051276571
0.0058081647
0.0063646129
0.0067470577
0.0071273198
0.0072637372
0.0071829295
0.0067901867
0.005957523
0.0047268483
0.0029881803
0.00088157433
-0.0015321683
-0.0040491294
-0.0064761733
-0.0086147947
-0.010312318
-0.011482091
-0.012108772
-0.01223748
-0.011953978
-0.011363973
-0.010574514
-0.0096786787
-0.0087488915
-0.0078416746
-0.007003431
-0.0062661546
-0.0056410457
-0.0051324727
-0.0047577939
-0.0045399739
0.0021027412
0.0018171725
0.001561149
0.001339133
0.0011388261
0.0009609274
0.00080411703
0.00066059064
0.00053573884
0.00041878019
0.00031672662
0.00022168324
0.00013073422
5.4672111e-05
0.0024150875
0.0027757589
0.0031573218
0.0036043996
0.0040760116
0.0046054798
0.0051963601
0.0057805934
0.0065224143
0.0071117127
0.0074833921
0.0078286737
0.007881419
0.0076529348
0.0070577885
0.0059480969
0.004399886
0.002314025
-0.00012340711
-0.0028116393
-0.0055143824
-0.0080169661
-0.010122337
-0.0116963
-0.012681878
-0.013095465
-0.013009586
-0.012530726
-0.011776791
-0.010856176
-0.0098563856
-0.0088477591
-0.0078903945
-0.0070269494
-0.0062710205
-0.0056210863
-0.0050925351
-0.004716469
-0.0044957109
0.0024243889
0.0021028157
0.0018123875
0.0015618605
0.0013359228
0.0011364104
0.00096023334
0.00079932688
0.00066027573
0.00053071118
0.00041853039
0.00031347225
0.00021813582
0.00012885264
5.3743633e-05
0.002771785
0.0031778605
0.0036023409
0.0041028543
0.0046233536
0.0052127696
0.0058607294
0.0065027285
0.007305899
0.0079221991
0.0082683238
0.0085544348
0.0084909838
0.0080700668
0.007222744
0.0057821705
0.003870464
0.0014070371
-0.001370115
-0.0043162938
-0.0071669341
-0.0096941547
-0.011712584
-0.013115447
-0.013880278
-0.014056662
-0.013744771
-0.013069701
-0.012154533
-0.011102971
-0.01000149
-0.0089272085
-0.0079374547
-0.0070499342
-0.0062577337
-0.005575205
-0.0050471377
-0.0046701864
-0.0044467351
0.0027845488
0.0024244729
0.0020962344
0.0018131571
0.001558175
0.0013337617
0.0011357174
0.0009547232
0.00079961256
0.0006540506
0.00053078719
0.00041419397
0.00030835785
0.00021496179
0.00012644162
5.2357671e-05
0.0031727134
0.003627032
0.0040995987
0.0046591967
0.0052334515
0.0058887336
0.0065959586
0.0072993743
0.0081625396
0.008795728
0.0090963244
0.0092916065
0.0090712023
0.0084039603
0.0072472604
0.0054180328
0.0030986184
0.00023500489
-0.0028786953
-0.0060523323
-0.009000397
-0.01149301
-0.013367401
-0.014551782
-0.015061792
-0.014982048
-0.014439064
-0.013568402
-0.012490152
-0.011308768
-0.010122017
-0.0090060783
-0.0079852271
-0.0070463053
-0.0062041175
-0.0055236098
-0.0049965384
-0.0046189984
-0.0043930416
0.0031882374
0.0027845892
0.0024150451
0.0020981827
0.0018082366
0.0015562488
0.0013327636
0.0011294688
0.00095566438
0.00079242634
0.00065483142
0.00052518237
0.00040727425
0.00030389653
0.00021081105
0.00012343217
5.1338055e-05
0.0036238754
0.0041297072
0.0046562566
0.0052799603
0.0059129101
0.006640855
0.0074079086
0.0081771482
0.0090947721
0.0097297875
0.0099580946
0.010021613
0.0095938326
0.0086159954
0.0070861539
0.0048092632
0.0020426005
-0.0012323361
-0.0046640947
-0.0080193369
-0.011002379
-0.013394544
-0.015065825
-0.015985785
-0.016212314
-0.015865238
-0.015088391
-0.014017072
-0.012774821
-0.011483608
-0.010243363
-0.009087292
-0.0079953211
-0.0069831
-0.0061442299
-0.0054663825
-0.0049409015
-0.0045628806
-0.0043346276
0.0036422051
0.0031882249
0.0027718567
0.0024179497
0.0020901686
0.001806745
0.0015546269
0.0013256635
0.001131232
0.00094737289
0.00079379533
0.00064813915
0.00051606857
0.00040136279
0.00029779476
0.00020596525
0.00012062477
4.9444458e-05
0.0041305756
0.0046936348
0.0052788826
0.0059721745
0.0066693728
0.0074769517
0.008303018
0.0091405981
0.010103281
0.010718616
0.010839052
0.010718684
0.010021608
0.00865822
0.0066873905
0.0039056136
0.00066063185
-0.0030210021
-0.0067342874
-0.010209512
-0.013154576
-0.015375402
-0.016784098
-0.01739884
-0.017322295
-0.016700003
-0.015679486
-0.014403252
-0.01302078
-0.011661086
-0.010369192
-0.0091165564
-0.0079206461
-0.0069126746
-0.0060781148
-0.0054039724
-0.0048801899
-0.0045018219
-0.0042715206
0.0041527266
0.0036422146
0.0031728627
0.0027760553
0.0024051483
0.002088844
0.001804273
0.0015466318
0.0013282439
0.0011214815
0.00094941712
0.00078558881
0.00063636172
0.00050863794
0.00039297372
0.00029105152
0.00020099503
0.00011648543
4.8045377e-05
0.0046976548
0.0053247993
0.0059747076
0.0067439763
0.0075116228
0.0084042202
0.0092884857
0.010193411
0.011185976
0.011751266
0.011717713
0.011347477
0.010306519
0.0084738461
0.0059925447
0.0026543941
-0.0010862585
-0.0051502983
-0.0090888812
-0.012607398
-0.015432408
-0.017407706
-0.018498477
-0.018777414
-0.018382653
-0.017468638
-0.01619504
-0.014741443
-0.013271772
-0.011845898
-0.010424889
-0.009028552
-0.0078372859
-0.0068352318
-0.0060066568
-0.0053362991
-0.0048143826
-0.0044358732
-0.0042037532
0.0047255394
0.0041527195
0.003624076
0.0031781489
0.0027593834
0.0024058833
0.0020844484
0.0017954403
0.0015499839
0.0013167545
0.0011244044
0.00093954348
0.00077064701
0.00062720482
0.00049746548
0.00038415749
0.00028370029
0.00019434655
0.00011280911
4.5737734e-05
0.0053310983
0.0060303553
0.0067522394
0.0076053361
0.0084491098
0.0094316255
0.010370908
0.011339021
0.012336079
0.012809784
0.012562722
0.011860087
0.010389856
0.0079973665
0.0049369809
0.0010033256
-0.0032310133
-0.0076306456
-0.011718025
-0.015188975
-0.017804493
-0.019462175
-0.020190621
-0.020108805
-0.019370162
-0.018147422
-0.016651716
-0.015087871
-0.01353393
-0.011937747
-0.010321817
-0.0089296796
-0.0077459046
-0.0067522546
-0.0059297342
-0.0052633551
-0.004743534
-0.0043651072
-0.0041313726
0.0053660298
0.0047255948
0.0041304785
0.0036270136
0.003157267
0.0027603307
0.0023981751
0.002074753
0.0017993955
0.0015364338
0.0013213225
0.0011124172
0.00092088471
0.0007595696
0.00061276637
0.00048639476
0.00037400808
0.0002743946
0.00018791127
0.00010760086
4.3723147e-05
0.0060392943
0.0068193824
0.0076224368
0.0085676624
0.0094928889
0.010569432
0.011557697
0.012577921
0.013541034
0.013866433
0.013329162
0.012195254
0.010202077
0.0071532148
0.0034521525
-0.001095985
-0.0057976009
-0.010461645
-0.014600878
-0.017920579
-0.020235973
-0.021514922
-0.021843393
-0.021363026
-0.020252734
-0.018754852
-0.017120971
-0.015450692
-0.013674695
-0.01181815
-0.010204721
-0.008821522
-0.0076487486
-0.0066635845
-0.0058473306
-0.0051852074
-0.0046677824
-0.0042896156
-0.0040543904
0.0060815657
0.0053661057
0.0046976203
0.0041296258
0.0036020692
0.0031583731
0.0027497816
0.0023878775
0.0020787422
0.001782879
0.0015429618
0.001306807
0.0010894759
0.00090736716
0.00074116855
0.00059912926
0.00047289163
0.00036178378
0.0002649836
0.00017941942
0.00010260567
4.0967037e-05
0.0068326001
0.0077024031
0.0085967496
0.0096416417
0.010655377
0.011826728
0.012853608
0.013907332
0.01477965
0.014880353
0.013958017
0.012279463
0.0096600345
0.0058577109
0.0014695928
-0.0036846398
-0.0087983401
-0.013629355
-0.017703624
-0.02076224
-0.0226969
-0.023543588
-0.023418687
-0.022497249
-0.021050071
-0.019380801
-0.017613809
-0.015657096
-0.01353766
-0.011680038
-0.010076749
-0.0087072738
-0.0075456077
-0.0065691826
-0.0057595377
-0.0051020876
-0.0045872288
-0.004209353
-0.0039728806
0.0068820741
0.0060817019
0.0053311388
0.0046937192
0.004099674
0.0036043563
0.0031441304
0.0027384591
0.0023916738
0.0020584166
0.0017919429
0.001525006
0.0012785796
0.0010730237
0.00088437878
0.00072454717
0.0005817094
0.00045738841
0.00034892655
0.00025297901
0.00017086195
9.6220636e-05
3.820523e-05
0.0077224294
0.008691228
0.0096846004
0.010839503
0.011947275
0.013211016
0.014260382
0.015318195
0.016017938
0.015795288
0.014378656
0.012022459
0.0086669967
0.0040241543
-0.0010746491
-0.0067926318
-0.012229848
-0.017102883
-0.020982485
-0.023677766
-0.025159012
-0.025500511
-0.024860116
-0.023531311
-0.021874078
-0.020040274
-0.017907583
-0.015502622
-0.01337579
-0.011529049
-0.0099422268
-0.0085866589
-0.0074364117
-0.0064691678
-0.0056666858
-0.005014107
-0.0045016925
-0.0041242955
-0.003887026
0.0077799531
0.0068823199
0.006039431
0.0053249151
0.0046564587
0.0041029729
0.0035848318
0.0031313585
0.0027419264
0.0023675816
0.0020710855
0.0017697432
0.001490308
0.0012583826
0.0010445127
0.00086413964
0.00070243089
0.00056248423
0.00044049017
0.00033302649
0.00024062143
0.00016030082
8.9594971e-05
3.4864861e-05
0.0087216823
0.0098004514
0.010903884
0.012176124
0.013380873
0.014728271
0.015775737
0.016791598
0.017204174
0.0165387
0.014498783
0.011311351
0.0071166632
0.0015679047
-0.0042346075
-0.010433354
-0.016067927
-0.020836824
-0.024395509
-0.026632508
-0.027563603
-0.027312484
-0.026186011
-0.024603218
-0.022745404
-0.020449395
-0.017737098
-0.015314489
-0.013198539
-0.011370812
-0.009800818
-0.0084595506
-0.0073213077
-0.0063639901
-0.0055689181
-0.0049208668
-0.0044109153
-0.0040348274
-0.0037969381
0.0087892577
0.0077802871
0.0068328173
0.0060305634
0.0052790869
0.0046593794
0.004076158
0.0035704501
0.0031337838
0.0027135771
0.002384142
0.0020437085
0.0017272031
0.0014656706
0.0012233268
0.0010199489
0.00083653954
0.00067885286
0.0005408968
0.00042013689
0.00031633525
0.00022559967
0.00014911238
8.1771599e-05
3.129724e-05
0.0098455867
0.011048568
0.012276233
0.01366831
0.014972733
0.016384964
0.017391178
0.018294908
0.018268846
0.017015075
0.01419813
0.01001695
0.0048988524
-0.0015877983
-0.0080466204
-0.014596275
-0.020268563
-0.024784527
-0.027901596
-0.029555268
-0.029817048
-0.028994034
-0.027565
-0.0257416
-0.023305556
-0.020266461
-0.017520714
-0.015107849
-0.013012949
-0.011204955
-0.0096523024
-0.0083261204
-0.0072008978
-0.0062538161
-0.0054655147
-0.0048217839
-0.0043156146
-0.0039411187
-0.003702726
0.0099258755
0.008789662
0.0077225542
0.0068196496
0.0059749364
0.0052801681
0.0046235861
0.0040602532
0.003570958
0.0031002778
0.0027338893
0.0023507054
0.0019915887
0.001697214
0.0014225938
0.0011935191
0.00098578294
0.00080779485
0.00065171484
0.00051547615
0.00039844973
0.00029633209
0.00020956588
0.00013608337
7.3316033e-05
2.7248483e-05
0.011111628
0.012452942
0.01381793
0.015333133
0.016736937
0.018182543
0.01908805
0.019777711
0.019122135
0.017095227
0.013333366
0.0080014378
0.0019031149
-0.0055034059
-0.012518732
-0.019245574
-0.024782659
-0.028898683
-0.031415928
-0.032328156
-0.031927001
-0.030749313
-0.029036979
-0.026497814
-0.02311678
-0.020020737
-0.017281953
-0.014891169
-0.012818682
-0.011031116
-0.0094968698
-0.0081871651
-0.007075363
-0.0061375048
-0.0053554443
-0.0047180479
-0.0042160029
-0.0038433771
-0.0036044922
0.011208226
0.0099262663
0.0087217656
0.0077024546
0.0067524408
0.0059724028
0.0052337104