/*--------------------------------*- C++ -*----------------------------------*\
| =========                 |                                                 |
| \\      /  F ield         | OpenFOAM: The Open Source CFD Toolbox           |
|  \\    /   O peration     | Version:  5.0                                   |
|   \\  /    A nd           | Web:      www.OpenFOAM.org                      |
|    \\/     M anipulation  |                                                 |
\*---------------------------------------------------------------------------*/
FoamFile
{
    version     2.0;
    format      ascii;
    class       volScalarField;
    location    "20";
    object      pPrime2Mean;
}
// * * * * * * * * * * * * * * * * * * * * * * * * * * * * * * * * * * * * * //

dimensions      [0 4 -4 0 0 0 0];

internalField   nonuniform List<scalar> 
9520
(
2.7474556e-06
2.5325088e-06
1.8782867e-05
2.1711084e-06
1.7319133e-05
5.0837927e-05
1.7346762e-06
1.4856374e-05
4.6891406e-05
0.00010037856
1.285826e-06
1.1879829e-05
4.0247734e-05
9.2628339e-05
0.0001700722
8.725862e-07
8.8155013e-06
3.2211728e-05
7.9572007e-05
0.00015703273
0.00026364385
5.2696618e-07
5.9908753e-06
2.3930328e-05
6.3761996e-05
0.00013504562
0.0002436033
0.00038580017
2.6627772e-07
3.6250604e-06
1.6287253e-05
4.7445831e-05
0.00010838357
0.0002097732
0.00035677107
0.00054218358
9.5866097e-08
1.8374109e-06
9.8760378e-06
3.2360961e-05
8.0817189e-05
0.00016867951
0.00030770346
0.00050186493
0.00073933279
1.2297124e-08
6.6576525e-07
5.022334e-06
1.9680551e-05
5.5273648e-05
0.00012609661
0.00024798049
0.00043361305
0.00068508419
0.00098463849
6.399671e-09
8.7900564e-08
1.8321063e-06
1.0054719e-05
3.3742955e-05
8.6530131e-05
0.00018593025
0.00035034837
0.0005930981
0.00091346763
0.0012862792
6.5842848e-08
4.2131339e-08
2.4875743e-07
3.7025175e-06
1.7341853e-05
5.3068465e-05
0.00012808962
0.00026357848
0.0004805884
0.00079256474
0.0011948446
0.0016531353
1.7712687e-07
4.4484992e-07
1.0827327e-07
5.2210271e-07
6.4628271e-06
2.7470875e-05
7.8982197e-05
0.00018239679
0.00036294574
0.00064426343
0.0010392049
0.0015377655
0.0020946721
3.2699053e-07
1.204134e-06
1.1864146e-06
1.9789849e-07
9.550287e-07
1.0385789e-05
4.1229276e-05
0.00011316424
0.00025242328
0.00048861564
0.00084769811
0.0013409552
0.0019514039
0.0026207984
5.0330982e-07
2.2294139e-06
3.2355108e-06
2.2929505e-06
3.0203504e-07
1.6204799e-06
1.5847833e-05
5.96374e-05
0.00015769496
0.00034171686
0.00064588118
0.0010979704
0.0017064293
0.0024454325
0.0032416941
6.9558461e-07
3.4376766e-06
6.0107372e-06
6.3214417e-06
3.7764461e-06
4.0931851e-07
2.6266957e-06
2.3353807e-05
8.3990153e-05
0.00021510983
0.00045445102
0.00084076808
0.0014028823
0.0021448273
0.0030298703
0.0039676151
8.951354e-07
4.7568757e-06
9.2870962e-06
1.1800885e-05
1.0562388e-05
5.6497099e-06
5.0634045e-07
4.1309887e-06
3.3569083e-05
0.00011590863
0.00028845888
0.00059547375
0.0010800434
0.0017709093
0.0026658152
0.0037149045
0.0048086801
1.0950751e-06
6.1273195e-06
1.2868857e-05
1.8286172e-05
1.9844576e-05
1.6091169e-05
7.9174516e-06
5.7938995e-07
6.3584565e-06
4.7360583e-05
0.00015739922
0.00038137076
0.00077034857
0.0013712083
0.0022111234
0.0032793785
0.0045106918
0.0057746465
1.2901944e-06
7.5015696e-06
1.6593482e-05
2.5388799e-05
3.0867133e-05
3.0474477e-05
2.3055881e-05
1.0566822e-05
6.1842062e-07
9.6273456e-06
6.5846233e-05
0.00021092123
0.00049811618
0.00098538687
0.0017224692
0.0027330897
0.0039956518
0.0054271462
0.006874693
1.4767074e-06
8.8436175e-06
2.0331535e-05
3.2785136e-05
4.2967437e-05
4.7624956e-05
4.4087949e-05
3.1601558e-05
1.3557603e-05
6.2458246e-07
1.4381934e-05
9.045475e-05
0.00027945983
0.00064367027
0.0012476649
0.0021426841
0.0033467366
0.0048247289
0.0064737097
0.0081172052
1.6520937e-06
1.0127314e-05
2.3984502e-05
4.0216701e-05
5.5591286e-05
6.6507335e-05
6.9290413e-05
6.11231e-05
4.1849411e-05
1.6812533e-05
6.2271546e-07
2.1235213e-05
0.00012299468
0.00036660486
0.00082376766
0.0015650225
0.0026412838
0.0040622016
0.0057764502
0.0076591599
0.0095095585
1.8147536e-06
1.1335075e-05
2.7480733e-05
4.7486124e-05
6.8294352e-05
8.6251464e-05
9.7134841e-05
9.6704242e-05
8.2031185e-05
5.3872944e-05
2.0208922e-05
6.8096673e-07
3.1022125e-05
0.00016573434
0.0004766309
0.001044948
0.0019460396
0.0032281656
0.004889654
0.0068601843
0.0089913849
0.011057927
1.963955e-06
1.2455884e-05
3.0771774e-05
5.444941e-05
8.0735943e-05
0.00010615642
0.00012632905
0.00013617612
0.00013078743
0.00010724316
6.767117e-05
2.3573022e-05
9.3947677e-07
4.4865864e-05
0.0002214902
0.00061457721
0.0013145861
0.0023999876
0.0039135587
0.0058390706
0.00808465
0.010477184
0.012767127
2.0994472e-06
1.3484407e-05
3.3827296e-05
6.1008654e-05
9.266649e-05
0.00012568208
0.00015582637
0.00017769263
0.00018513011
0.00017250385
0.00013712935
8.3139266e-05
2.6679586e-05
1.6511444e-06
6.4257286e-05
0.00029372389
0.00078632172
0.0016409028
0.0029367504
0.0047078638
0.0069200682
0.0094576862
0.012122092
0.014640491
2.2215294e-06
1.4419013e-05
3.6632244e-05
6.710232e-05
0.00010391518
0.00014443075
0.00018481549
0.00021974872
0.00024249604
0.00024563317
0.0002228127
0.00017195102
0.00010003883
2.9259525e-05
3.236658e-06
9.1149231e-05
0.00038664364
0.00099864606
0.0020329508
0.003566717
0.0056214289
0.0081416957
0.010986058
0.013930241
0.016679783
2.3307007e-06
1.5261446e-05
3.9182033e-05
7.2699194e-05
0.000114374
0.00016212819
0.00021269543
0.00026117003
0.00030078019
0.00032315075
0.00031941136
0.00028260793
0.00021180522
0.00011796996
3.1019358e-05
6.3571279e-06
0.00012806425
0.0005053083
0.0012592837
0.0025005711
0.0043006421
0.0066644119
0.0095122107
0.012675287
0.015904251
0.01888515
2.427728e-06
1.601523e-05
4.1480978e-05
7.7789452e-05
0.00012398681
0.00017859953
0.00023904821
0.00030108049
0.00035832765
0.00040217464
0.00042228496
0.00040821597
0.00035264482
0.00025656378
0.00013634938
3.1676704e-05
1.2005775e-05
0.00017821589
0.00065572708
0.0015769473
0.0030543192
0.0051494293
0.0078465548
0.011038878
0.014529504
0.018045154
0.021255118
2.5135061e-06
1.6685452e-05
4.3538663e-05
8.2380727e-05
0.00013273508
0.00019375158
0.00026360469
0.00033886513
0.00041389421
0.00048042023
0.00052755554
0.00054268387
0.00051374091
0.0004334525
0.00030581019
0.00015439893
3.1015912e-05
2.1621176e-05
0.00024563934
0.00084495091
0.0019613288
0.0037053499
0.0061240099
0.0091769559
0.012727787
0.016551339
0.020352372
0.023786627
2.5888578e-06
1.7278118e-05
4.5368691e-05
8.6491818e-05
0.0001406299
0.00020755176
0.00028621759
0.00037412344
0.00046659759
0.0005561549
0.00063212069
0.00068086914
0.00068720804
0.00063751867
0.00052523495
0.00035877769
0.0001711503
2.896848e-05
3.72216e-05
0.00033532881
0.0010811477
0.0024230639
0.0044652265
0.0072351124
0.010663854
0.014583687
0.018741851
0.022823722
0.026475097
2.6513193e-06
1.7798712e-05
4.6987376e-05
9.0149167e-05
0.00014770266
0.0002200137
0.00030683209
0.00040663038
0.00051585596
0.00062813679
0.00073360496
0.00081861616
0.00086631372
0.00085868423
0.00078079488
0.00062776174
0.00041429539
0.00018547233
2.5721759e-05
6.1560609e-05
0.00045337483
0.0013736523
0.0029736562
0.0053457983
0.0084930274
0.012314419
0.016609863
0.021100487
0.025455462
0.02931453
2.6942838e-06
1.823288e-05
4.8409637e-05
9.3385162e-05
0.00015399729
0.00023118507
0.00032546209
0.00043629653
0.00056133366
0.00069553564
0.00083028627
0.00095270971
0.0010455574
0.0010882375
0.0010597659
0.00094438012
0.00074025529
0.00047074937
0.00019612754
2.1859733e-05
9.8300413e-05
0.00060709377
0.0017329853
0.0036253271
0.0063589882
0.0099073635
0.014134562
0.018808034
0.023625085
0.028242371
0.032297643
2.721282e-06
1.8534763e-05
4.9598431e-05
9.6229175e-05
0.000159569
0.00024113227
0.00034217501
0.00046313142
0.00060288828
0.00075785989
0.00092099619
0.0010807906
0.0012206346
0.0013189753
0.0013509994
0.001292759
0.0011284852
0.00086128157
0.00052606769
0.00020186541
1.8537061e-05
0.00015219842
0.0008051408
0.0021708277
0.0043908863
0.0075165408
0.011486815
0.016128777
0.021178299
0.026311918
0.031177866
0.035416009
2.7448122e-06
1.8698272e-05
5.0425238e-05
9.860662e-05
0.00016446735
0.00024994158
0.00035706531
0.00048722542
0.00064051715
0.00081488735
0.0010050254
0.001201233
0.0013883464
0.0015451911
0.0016451563
0.0016587834
0.001559417
0.0013325456
0.00098865409
0.00057773937
0.00020155835
1.7686545e-05
0.00022929921
0.001057595
0.0026999338
0.0052835547
0.0088297621
0.013238932
0.018300001
0.023719112
0.029155767
0.034254126
0.038660229
2.7649843e-06
1.8839694e-05
5.0837879e-05
0.00010023892
0.00016855956
0.00025768927
0.00037025999
0.00050870689
0.00067433534
0.00086659009
0.001082033
0.0013130255
0.0015464519
0.001762586
0.0019347404
0.0020304631
0.0020153696
0.0018607103
0.0015550456
0.0011193617
0.00062287656
0.00019438571
2.2256422e-05
0.00033712157
0.0013760052
0.0033339933
0.0063167095
0.01030925
0.015169914
0.020649524
0.026427307
0.032150023
0.037462257
0.042020101
2.7820418e-06
1.8960908e-05
5.1193727e-05
0.00010099886
0.00017131301
0.00026415625
0.00038186993
0.00052775505
0.00070451155
0.0009131078
0.0011519459
0.0014156535
0.0016935235
0.0019680973
0.0022140229
0.0023980384
0.0024810973
0.0024238638
0.0021965807
0.0017933502
0.0012495308
0.00065833034
0.00018006893
3.6471158e-05
0.00048482892
0.0017733824
0.0040875233
0.0075036022
0.011964618
0.017284425
0.023176931
0.029298151
0.035286826
0.040792451
0.045484793
2.7961165e-06
1.9063475e-05
5.1499687e-05
0.00010165081
0.00017249932
0.00026840022
0.00039155165
0.0005445247
0.00073129001
0.0009546552
0.0012149241
0.001508968
0.001828795
0.0021597272
0.00247885
0.0027539373
0.0029440069
0.0030028058
0.0028863972
0.0025656857
0.0020435551
0.0013744348
0.00068086993
0.0001591582
6.6105887e-05
0.00068336572
0.00226409
0.0049756067
0.0088570537
0.013804241
0.019585454
0.025880088
0.032325439
0.03855721
0.044234165
0.049043024
2.8073464e-06
1.9148273e-05
5.1759557e-05
0.00010221285
0.00017350814
0.00027006916
0.00039772654
0.00055849726
0.00075488134
0.00099155658
0.0012712331
0.001593139
0.0019519965
0.0023363486
0.0027264462
0.0030925699
0.0033941746
0.0035814308
0.0036005454
0.0034038052
0.00296514
0.0023003654
0.0014885672
0.000687435
0.00013336709
0.00011875975
0.00094554798
0.0028637963
0.0060136061
0.010389138
0.015835006
0.022074205
0.028755173
0.03550161
0.041951269
0.047776291
0.052683227
2.8158681e-06
1.9216255e-05
5.1975259e-05
0.00010269222
0.00017438031
0.00027146792
0.00039990611
0.0005671335
0.0007745243
0.0010240921
0.0013212935
0.0016684858
0.0020632879
0.0024975038
0.0029551722
0.0034101099
0.0038241419
0.0041468433
0.0043186037
0.004278123
0.0039752777
0.0033902565
0.0025570246
0.0015857967
0.00067546651
0.00010594627
0.00020411114
0.0012860451
0.0035892466
0.0072168354
0.012110861
0.018062113
0.024750038
0.03179674
0.038817892
0.045458334
0.051407337
0.056393709
2.8217405e-06
1.9268139e-05
5.2148981e-05
0.00010309154
0.0001751272
0.00027268046
0.00040169049
0.00056981723
0.00078626777
0.0010511687
0.0013654711
0.0017355425
0.0021630409
0.0026433081
0.0031642825
0.0037041969
0.0042286821
0.0046891804
0.0050239484
0.0051629647
0.0050377901
0.0045979772
0.0038343118
0.0028053176
0.0016596203
0.00064331704
8.2081476e-05
0.00033412799
0.0017213672
0.0044579932
0.0086001955
0.014031849
0.020488898
0.02761046
0.034997822
0.042264468
0.049067149
0.055115582
0.060162799
2.8250386e-06
1.9304403e-05
5.2282218e-05
0.00010341474
0.00017575197
0.00027372363
0.00040324228
0.00057193088
0.00078941421
0.0010668056
0.0014022296
0.0017947779
0.0022519202
0.0027741774
0.0033537904
0.0039736509
0.0046044414
0.005201379
0.0057036392
0.0060370618
0.0061206828
0.0058797685
0.0052666409
0.0042883595
0.0030356741
0.0017035272
0.00059073478
6.9293807e-05
0.00052320293
0.0022697434
0.0054880487
0.010177789
0.016160063
0.023116718
0.030651153
0.038350067
0.04583065
0.052766046
0.058889241
0.063978975
1.9325431e-05
2.8250834e-06
5.237613e-05
0.00010366406
0.00017626062
0.00027460067
0.00040458554
0.00057377804
0.00079173415
0.0010703423
0.0014227232
0.0018440732
0.0023305177
0.0028909221
0.0035241334
0.0042182861
0.004949607
0.0056787563
0.0063482129
0.0068835545
0.0071969537
0.0071961337
0.0068017103
0.0059731897
0.004741127
0.0032373975
0.0017114818
0.00051940577
7.7814314e-05
0.00078819342
0.0029508782
0.0066974837
0.011962533
0.018501553
0.02594488
0.033866055
0.041843896
0.049505061
0.056543113
0.062716599
0.067830984
5.2431511e-05
1.9325738e-05
2.821861e-06
0.00010384132
0.00017665563
0.00027532
0.00040572249
0.00057539118
0.00079377664
0.0010726617
0.0014265545
0.0018705988
0.0023959572
0.0029942793
0.0036762764
0.0044385089
0.0052636513
0.0061186322
0.0069512085
0.0076898463
0.0082447889
0.008513073
0.0083912601
0.0077981107
0.0067063823
0.0051790269
0.003399041
0.0016785223
0.00043353365
0.00012090808
0.0011484567
0.0037856106
0.0081039782
0.013965778
0.021060255
0.028970625
0.037247476
0.045468678
0.053275817
0.060386355
0.066586139
0.071707938
0.00010394766
5.2432324e-05
1.9305242e-05
2.8160585e-06
0.00017693954
0.00027588343
0.00040666377
0.00057676903
0.00079558223
0.0010747283
0.001428556
0.0018746358
0.0024299397
0.003080399
0.0038111249
0.0046354241
0.0055468547
0.0065199908
0.0075087489
0.0084470883
0.0092475327
0.009802569
0.0099928653
0.0097048148
0.0088597128
0.0074515539
0.0055863251
0.0035089491
0.0016014678
0.00034042453
0.00021505367
0.0016256567
0.0047954883
0.0097243445
0.01619696
0.023837845
0.032189173
0.040786245
0.049212924
0.057130707
0.064283835
0.070486656
0.075599397
0.00017711369
0.00010394922
5.2378359e-05
1.9269474e-05
2.8075963e-06
0.00027629428
0.00040740966
0.00057792472
0.00079714565
0.0010765906
0.0014303853
0.0018758611
0.0024341472
0.0031235414
0.0039235887
0.0048101133
0.0058003973
0.0068829234
0.0080191048
0.009149727
0.010193162
0.011042746
0.011570838
0.011640887
0.011131536
0.0099729483
0.0081904918
0.0059454981
0.0035559744
0.001479713
0.00025103631
0.00038012834
0.0022434778
0.0060022604
0.011574041
0.018663301
0.026833665
0.035593804
0.044471896
0.053064477
0.061057361
0.068223811
0.074407345
0.079495436
0.00027655352
0.00017711634
0.00010384559
5.2285781e-05
1.9218021e-05
2.7964118e-06
0.000407964
0.00057885528
0.00079848155
0.0010782383
0.0014320947
0.001877079
0.0024339562
0.003128001
0.0039778621
0.0049559095
0.0060254816
0.0072086923
0.0084820554
0.0097949516
0.011073829
0.012217381
0.013096676
0.013561286
0.013457791
0.012661299
0.011119472
0.0089014934
0.0062378119
0.003530368
0.0013160737
0.00018041783
0.00063936784
0.0030271963
0.0074273067
0.013666701
0.021369562
0.030044698
0.039176003
0.048292855
0.05701071
0.065043413
0.072194848
0.078337884
0.083386698
0.00040832651
0.00027655799
0.00017694687
0.00010367089
5.2153725e-05
1.9150384e-05
2.7823657e-06
0.00057956407
0.00079958208
0.0010796854
0.001433667
0.0018783301
0.0024340491
0.003125514
0.0039828465
0.0050234112
0.006213384
0.0074986768
0.0088989058
0.010381959
0.011885187
0.013315465
0.014548685
0.015429212
0.015782186
0.015439235
0.014278309
0.012275837
0.0095596557
0.0064441481
0.0034248217
0.0011176317
0.00014806069
0.0010191692
0.0040031276
0.0090910292
0.0160137
0.024317869
0.033465626
0.042925625
0.052236661
0.061038713
0.069076639
0.076185914
0.082268491
0.087264428
0.00058004882
0.00040833405
0.00027630675
0.00017666736
0.00010342384
5.1980981e-05
1.9065828e-05
2.7653188e-06
0.00080044766
0.0010809186
0.0014351134
0.0018795924
0.0024344185
0.0031237975
0.0039768652
0.0050293368
0.0062959477
0.0077417657
0.0092712339
0.010911888
0.012625582
0.014330407
0.01591161
0.017215951
0.018057655
0.018237137
0.017574758
0.015960348
0.013413364
0.010137454
0.0065460837
0.0032356313
0.00089651831
0.00017811113
0.0015487003
0.0051979637
0.011012234
0.018623784
0.027507624
0.037088927
0.046831106
0.056290172
0.065135473
0.07314509
0.080186466
0.086189973
0.091120496
0.00080107403
0.00058006098
0.00040798506
0.0002759034
0.00017627625
0.00010310251
5.1766e-05
1.8963376e-05
2.745139e-06
0.0010819324
0.001436413
0.0018808707
0.0024350441
0.0031227222
0.0039724666
0.0050182736
0.0063017328
0.0078436904
0.0095851322
0.011386341
0.01329589
0.015259144
0.017175718
0.018900666
0.020246569
0.0209954
0.020923694
0.019846632
0.017678148
0.014498299
0.010605644
0.0065272172
0.0029639204
0.00067053633
0.00029932944
0.002259329
0.006638028
0.013207533
0.021502763
0.030935482
0.040905048
0.050879688
0.060439785
0.069288037
0.0772372
0.084186508
0.090093756
0.094947417
0.0010827201
0.00080109293
0.00057959803
0.00040744334
0.00027534662
0.00017577079
0.00010270456
5.1506531e-05
1.8842149e-05
2.721583e-06
0.0014375529
0.0018821329
0.0024359169
0.0031222751
0.0039692258
0.0050101824
0.0062837444
0.0078354707
0.0097129347
0.011787538
0.013897839
0.016101834
0.018335847
0.020469389
0.02232078
0.023665205
0.024250404
0.023831897
0.022228719
0.01939499
0.015492313
0.010934531
0.0063747089
0.002616861
0.00046371716
0.00054479968
0.0031838786
0.0083484808
0.015690797
0.02465331
0.034595417
0.044902603
0.055057656
0.064671636
0.073483661
0.081341875
0.088176647
0.093971911
0.098738356
0.0014385208
0.0010827489
0.00080050043
0.00057890933
0.0004067085
0.00027463273
0.00017514837
0.00010222597
5.1200624e-05
1.8700572e-05
2.694543e-06
0.0018833558
0.0024369948
0.0031224286
0.0039671548
0.0050039368
0.0062711438
0.0078099385
0.0096832895
0.011949252
0.014409227
0.016859971
0.019390908
0.021914068
0.024260588
0.026208978
0.027492178
0.02782352
0.02694267
0.024685425
0.021066601
0.016353447
0.01109561
0.006080986
0.0022087426
0.00030652302
0.00095138783
0.0043557356
0.010352514
0.018472684
0.028074846
0.038478858
0.049068621
0.059350583
0.068971797
0.077709937
0.085448573
0.092148129
0.097817165
0.10248713
0.00188452
0.0014385615
0.001082013
0.00079966582
0.00057799599
0.00040577615
0.00027375964
0.00017440283
0.00010166403
5.0844426e-05
1.8536764e-05
2.6514979e-06
0.002438237
0.0031231293
0.0039661851
0.0049996041
0.0062611779
0.0077935129
0.0096473864
0.01190604
0.014616388
0.017505422
0.020341798
0.023231878
0.0260538
0.028599427
0.030599394
0.031741768
0.031706595
0.030226137
0.027170873
0.022641512
0.01703755
0.011063561
0.0056455145
0.0017619315
0.0002357712
0.0015589399
0.00580785
0.012670582
0.021560274
0.031763531
0.042574887
0.053388803
0.063743569
0.07332645
0.081954913
0.089547372
0.096092858
0.10162291
0.10636782
0.002439613
0.001884572
0.0014376668
0.0010810466
0.00079859163
0.0005768536
0.00040464533
0.00027271867
0.0001735309
0.0001010115
5.0430979e-05
1.8234458e-05
2.5890242e-06
0.0031243012
0.0039662669
0.0049970668
0.0062540387
0.0077799874
0.0096264041
0.011856198
0.01455796
0.01776995
0.021152881
0.02442301
0.027694785
0.030818729
0.0335348
0.035521735
0.03642028
0.035880174
0.03363999
0.029628436
0.024061951
0.017500246
0.010818527
0.0050765075
0.0013075154
0.00029418996
0.0024092418
0.0075716752
0.015319698
0.024956821
0.035712353
0.046870491
0.057847807
0.068221467
0.077722052
0.086207193
0.093628997
0.10000342
0.10554525
0.1104655
0.0031259077
0.0024396761
0.001883502
0.0014365946
0.0010798541
0.00079727569
0.00057548413
0.00040330492
0.00027150632
0.00017252113
0.00010025019
4.9603061e-05
1.7800229e-05
2.5136672e-06
0.0039672621
0.0049962521
0.0062495585
0.0077700301
0.0096085893
0.011827905
0.014494031
0.017711733
0.021489359
0.025443307
0.029182118
0.032857288
0.036272982
0.039113056
0.040999808
0.041523162
0.040311106
0.037128077
0.03199079
0.0252654
0.017699434
0.010348603
0.0043924519
0.00088555637
0.00052960544
0.0035447831
0.0096761084
0.018312857
0.02866163
0.0399113
0.051350848
0.062429526
0.072769114
0.082145494
0.090455985
0.097684868
0.10402737
0.10967272
0.11466933
0.0039691288
0.0031259854
0.0024384143
0.0018823661
0.0014353526
0.0010784378
0.0007957243
0.00057387392
0.00040175224
0.00027010552
0.00017133258
9.8616114e-05
4.8414125e-05
1.7279615e-05
2.427884e-06
0.0049969577
0.0062476378
0.0077635531
0.0095952783
0.011803676
0.014458464
0.017636426
0.021432701
0.025874933
0.030460779
0.034711315
0.03879893
0.042479774
0.045378047
0.047047918
0.04703199
0.044950165
0.04061938
0.03418064
0.026186875
0.017598292
0.0096523786
0.0036233835
0.00054486379
0.00099376541
0.0050073873
0.012146491
0.02165858
0.032670058
0.044347608
0.055999654
0.067117381
0.077371547
0.086584167
0.094691194
0.1018625
0.10825532
0.11392336
0.1189778
0.0049991284
0.0039692291
0.0031245197
0.0024372778
0.0018811783
0.0014339498
0.0010768087
0.00079392195
0.00057202373
0.00039996288
0.00026843188
0.00016857631
9.6238455e-05
4.6991827e-05
1.6686931e-05
2.330853e-06
0.0062480006
0.0077605165
0.0095864396
0.011785535
0.014426892
0.01759085
0.021352905
0.02581572
0.031008103
0.0363128
0.041105776
0.045598607
0.049505206
0.052366144
0.053667512
0.052911211
0.049729846
0.044027578
0.036112293
0.026762001
0.017168651
0.0087413205
0.0028116771
0.00034225094
0.0017408441
0.0068367873
0.015003715
0.025360614
0.036973633
0.049006086
0.060799471
0.071894613
0.082014115
0.091026124
0.099068789
0.10625324
0.11262432
0.11829506
0.12338907
0.0062505612
0.0049992562
0.0039675446
0.0031234786
0.0024362898
0.0018799563
0.0014324035
0.0010749508
0.00079187302
0.00056990071
0.00039777332
0.00026418229
0.00016448368
9.3394381e-05
4.5373103e-05
1.6016693e-05
2.22168e-06
0.0077606359
0.0095821142
0.011773371
0.014402909
0.017549888
0.021299005
0.025707757
0.030946531
0.037008855
0.043110829
0.048456793
0.053347028
0.057409954
0.060103099
0.060843236
0.059104793
0.054562553
0.047251428
0.037694229
0.026930862
0.016394637
0.0076419195
0.0020122071
0.00034126328
0.0028257042
0.0090692148
0.018263473
0.0294178
0.041560307
0.053869505
0.0657321
0.076744446
0.086682716
0.09564494
0.10367929
0.11080438
0.11713183
0.12278512
0.12790092
0.0077637627
0.0062507228
0.0049973193
0.0039667187
0.003122888
0.0024354852
0.0018787278
0.0014306993
0.0010728721
0.00078953637
0.00056719958
0.00039158785
0.00025771453
0.00015958515
9.0158309e-05
4.3543032e-05
1.5262897e-05
2.0995989e-06
0.0095820131
0.011767229
0.014386617
0.017518494
0.021249096
0.02565739
0.030812827
0.036941916
0.044006932
0.050951569
0.056883183
0.062130181
0.066247595
0.06859967
0.068538574
0.065532982
0.059339415
0.050176193
0.038832762
0.026642526
0.015276294
0.0063972867
0.0012918128
0.00061041799
0.0043019953
0.011736065
0.021935704
0.033824133
0.046414833
0.05891903
0.070778793
0.081650436
0.091578717
0.10052859
0.1084716
0.11551315
0.12177458
0.12739023
0.13251076
0.0095858876
0.0077639701
0.0062484592
0.0049968293
0.0039667793
0.0031228184
0.002434901
0.0018774838
0.0014288509
0.0010705227
0.00078636032
0.00055854636
0.00038190516
0.00024996656
0.00015401324
8.6500867e-05
4.1485304e-05
1.4420457e-05
1.9641102e-06
0.011766724
0.014378158
0.017497035
0.021210087
0.025606061
0.030776268
0.03678928
0.043957976
0.052083056
0.059987884
0.066495511
0.072032008
0.076059972
0.077846444
0.076691314
0.072089369
0.063930014
0.052676357
0.039436869
0.025860081
0.013832904
0.0050679866
0.00072802171
0.0012210136
0.006220168
0.014862737
0.0260243
0.038569025
0.051519213
0.064134483
0.075920763
0.086852943
0.096785632
0.10561822
0.11344291
0.12037587
0.12654842
0.13210648
0.13721566
0.011771478
0.0095861491
0.007761225
0.0062483675
0.0049978234
0.0039678567
0.0031233159
0.0024345412
0.0018762422
0.0014268032
0.0010669316
0.00077459203
0.0005445726
0.00037029517
0.00024115696
0.0001477184
8.2389666e-05
3.9186315e-05
1.3485847e-05
1.8149139e-06
0.014377088
0.017485673
0.021183245
0.025563178
0.030724776
0.036742485
0.043795344
0.052021771
0.061430097
0.070351456
0.077409771
0.083129371
0.086871332
0.087808312
0.085208915
0.07863853
0.068183358
0.05461986
0.039424144
0.02456594
0.012105835
0.0037319467
0.00040701563
0.0022445744
0.00862555
0.018467772
0.030527094
0.043637688
0.056852978
0.069495033
0.081449914
0.092428961
0.10222627
0.11091114
0.11858938
0.12538785
0.13144843
0.13692936
0.14201231
0.014382881
0.011771787
0.0095827573
0.0077614511
0.0062505111
0.0050004947
0.0039699914
0.0031244029
0.0024344224
0.0018749591
0.0014228877
0.0010512522
0.00075494737
0.00052780313
0.00035710036
0.00023120945
0.0001406454
7.7798262e-05
3.6636475e-05
1.2457318e-05
1.6522589e-06
0.017483892
0.02116895
0.025533033
0.030680266
0.036701234
0.043661175
0.051863806
0.061384041
0.072188373
0.082191111
0.089740766
0.095485445
0.098682309
0.098418445
0.093963977
0.085014636
0.071930517
0.055874034
0.038727665
0.022766923
0.010160467
0.0024833048
0.00042083498
0.0037501136
0.011556707
0.022562363
0.035436026
0.049011344
0.062394085
0.075358142
0.087435072
0.098271188
0.1078983
0.11640359
0.12390599
0.1305434
0.13646886
0.14185377
0.14689707
0.017490923
0.014383221
0.011767605
0.0095832998
0.0077647711
0.006255152
0.0050049037
0.0039732458
0.0031260877
0.0024345497
0.0018708141
0.0014023333
0.0010241746
0.00073135555
0.00050875496
0.00034220982
0.00022003773
0.00013275031
7.2707851e-05
3.3831463e-05
1.1336496e-05
1.4768762e-06
0.021166698
0.02551714
0.030648794
0.036668161
0.043623925
0.051808095
0.061237267
0.072178745
0.084531528
0.095661427
0.10359434
0.10914391
0.11146298
0.10957178
0.10279014
0.091021544
0.074989341
0.056313295
0.037303569
0.020498928
0.0080868844
0.0014300303
0.00086399533
0.0058015604
0.015044206
0.027150068
0.040737147
0.054668336
0.068580418
0.081783757
0.093725376
0.10437793
0.1137983
0.12209048
0.12938654
0.13583579
0.14160315
0.14687407
0.15186594
0.021175379
0.017491281
0.014378061
0.011768635
0.0095879888
0.0077714474
0.006262373
0.0050111568
0.0039775986
0.0031284992
0.002430222
0.0018442145
0.0013655752
0.00099163994
0.00070457668
0.0004872733
0.00032549655
0.00020757536
0.00012400171
6.7110787e-05
3.0775853e-05
1.0128709e-05
1.2903632e-06
0.025515479
0.030633021
0.036642716
0.043642267
0.05176959
0.061231955
0.072042572
0.084590101
0.098647931
0.11091292
0.11906279
0.12412175
0.12514486
0.1211182
0.11147891
0.096434956
0.077171564
0.05582845
0.035138742
0.017830565
0.0059989326
0.00069040026
0.0018299956
0.0084555403
0.01910957
0.032226369
0.046411856
0.061141833
0.075464034
0.088562264
0.10032009
0.11074652
0.11992144
0.12796537
0.13502361
0.14125733
0.14684403
0.15198432
0.15691534
0.025526628
0.021175741
0.017484916
0.014379709
0.011775209
0.0095970839
0.0077814953
0.0062723284
0.0050191761
0.0039834743
0.0031238992
0.0023961592
0.0017949189
0.0013214
0.00095473912
0.00067439999
0.00046317893
0.00030686607
0.00019377469
0.00011438851
6.1016878e-05
2.7484686e-05
8.8449633e-06
1.0952389e-06
0.030633501
0.03663183
0.043641366
0.051779431
0.061188585
0.072114319
0.084479815
0.098830889
0.11472574
0.12809025
0.13621799
0.14040039
0.13961171
0.13285575
0.11977811
0.1010073
0.078292567
0.054337315
0.03225813
0.014864963
0.0040315009
0.00038892863
0.003407988
0.011759192
0.023764038
0.037779881
0.053101982
0.068480286
0.08276043
0.095694095
0.10721762
0.1173727
0.12626132
0.13402041
0.14080859
0.14679935
0.15218396
0.15717899
0.16204074
0.030648222
0.025526971
0.021167734
0.017487299
0.014388639
0.011787675
0.0096105175
0.0077949852
0.0062848127
0.0050300976
0.0039782933
0.003080666
0.0023307146
0.0017356854
0.0012713413
0.00091319192
0.00064058118
0.00043634347
0.00028625095
0.00017862203
0.00010392922
5.4457319e-05
2.3988276e-05
7.5028392e-06
8.952884e-07
0.036637726
0.043644939
0.05180281
0.061209284
0.072167888
0.08459831
0.098794774
0.11511369
0.13295591
0.14732632
0.15510254
0.15791501
0.15468941
0.14452465
0.12739285
0.104476
0.078183924
0.051796261
0.028730771
0.011739279
0.0023366914
0.00065208021
0.0056791132
0.015747642
0.029009435
0.044569828
0.060861729
0.076308205
0.090471254
0.10317906
0.11441464
0.12425047
0.13280998
0.14024638
0.14673172
0.15245305
0.15761567
0.16245137
0.16723742
0.036657865
0.030648525
0.025516461
0.021170592
0.017499143
0.014405255
0.011805956
0.0096282956
0.0078112254
0.0063026071
0.0050239327
0.0039238994
0.0029945368
0.002252115
0.0016686298
0.0012150332
0.00086667401
0.00060295148
0.00040667651
0.00026363724
0.00016214993
9.2679933e-05
4.7493627e-05
2.0335067e-05
6.128484e-06
6.9572225e-07
0.043661773
0.051826246
0.061261345
0.072152271
0.084745967
0.098971091
0.11522022
0.13366109
0.15352825
0.16873444
0.1757185
0.17654171
0.1701355
0.15580301
0.13398998
0.10657576
0.07670836
0.048211085
0.024673269
0.0086225196
0.00107924
0.0016029375
0.0087120824
0.020444042
0.035722143
0.052673443
0.069210769
0.08462826
0.098597978
0.11101517
0.12190599
0.13137207
0.13955785
0.14663269
0.15278317
0.15820952
0.16313066
0.16779414
0.17250047
0.043689902
0.036658136
0.030634379
0.025518698
0.021185364
0.017520919
0.01442938
0.011830134
0.0096490595
0.0078364854
0.0062965948
0.0049562843
0.0038114307
0.0028911742
0.0021632335
0.0015932833
0.0011520552
0.00081497054
0.00056139571
0.00037416848
0.00023907971
0.00014445154
8.0748646e-05
4.0223693e-05
1.6596708e-05
4.7579117e-06
5.034295e-07
0.051858849
0.061330351
0.072223185
0.084887439
0.099233483
0.11551661
0.1340066
0.15470402
0.17662648
0.19239752
0.19801276
0.19608295
0.18562901
0.16630542
0.13920732
0.10705551
0.073776393
0.043646364
0.020251314
0.0057120709
0.00042972706
0.0033542525
0.012561681
0.026826107
0.04403111
0.061498076
0.078152238
0.093443619
0.10714024
0.11919839
0.12968442
0.13872793
0.14649385
0.15316879
0.15895249
0.16405879
0.16871937
0.17319964
0.17782478
0.051897212
0.043690154
0.036638531
0.030634435
0.025535036
0.021212506
0.017552423
0.01446088
0.011858157
0.0096846273
0.0078445128
0.0062138599
0.0048104831
0.0036765807
0.0027744247
0.0020634781
0.0015091116
0.0010821416
0.00075794177
0.00051591647
0.00033890872
0.00021272558
0.00012570169
6.8306153e-05
3.2791506e-05
1.2871721e-05
3.4385671e-06
3.2709046e-07
0.061394103
0.072338043
0.084988679
0.099485908
0.11589487
0.13451293
0.15542076
0.17848031
0.20241964
0.21835327
0.22185957
0.21625163
0.20076167
0.17558593
0.1426691
0.10569889
0.069361909
0.038233106
0.015679651
0.0032263767
0.00055457232
0.0060044988
0.018265909
0.035118905
0.053236225
0.071046215
0.08769071
0.1027557
0.11609551
0.12772243
0.13774069
0.1463067
0.15360704
0.15984275
0.16522852
0.16998936
0.17437182
0.17866
0.18320513
0.061448037
0.051897438
0.043662544
0.036633153
0.030650648