/*--------------------------------*- C++ -*----------------------------------*\
| =========                 |                                                 |
| \\      /  F ield         | OpenFOAM: The Open Source CFD Toolbox           |
|  \\    /   O peration     | Version:  5.0                                   |
|   \\  /    A nd           | Web:      www.OpenFOAM.org                      |
|    \\/     M anipulation  |                                                 |
\*---------------------------------------------------------------------------*/
FoamFile
{
    version     2.0;
    format      ascii;
    class       volVectorField;
    location    "20";
    object      U;
}
// * * * * * * * * * * * * * * * * * * * * * * * * * * * * * * * * * * * * * //

dimensions      [0 1 -1 0 0 0 0];

internalField   nonuniform List<vector> 
9520
(
(1.0003547 -9.6220004e-05 0)
(1.0003412 -0.00027908917 0)
(1.0006449 -0.00010945244 0)
(1.0003173 -0.00044164232 0)
(1.0006218 -0.00031747 0)
(1.000783 -0.00011833538 0)
(1.0002853 -0.00058198382 0)
(1.0005804 -0.00050300581 0)
(1.0007556 -0.00034288709 0)
(1.0010145 -0.00013339152 0)
(1.0002475 -0.00069941961 0)
(1.0005247 -0.00066377813 0)
(1.0007065 -0.00054383149 0)
(1.0009801 -0.00038610602 0)
(1.0012117 -0.00014702949 0)
(1.0002058 -0.00079441301 0)
(1.0004586 -0.00079908069 0)
(1.0006403 -0.00071845515 0)
(1.0009189 -0.00061324532 0)
(1.0011712 -0.00042624803 0)
(1.0014601 -0.00016385022 0)
(1.000162 -0.00086806283 0)
(1.0003852 -0.00090937458 0)
(1.0005614 -0.00086604559 0)
(1.0008356 -0.00081186764 0)
(1.0011002 -0.00067734812 0)
(1.0014133 -0.00047852096 0)
(1.001696 -0.00017929779 0)
(1.0001171 -0.00092200052 0)
(1.0003072 -0.00099572331 0)
(1.0004735 -0.0009870957 0)
(1.0007363 -0.000980947 0)
(1.0010029 -0.00089835975 0)
(1.0013315 -0.0007610583 0)
(1.0016438 -0.00052900624 0)
(1.0019753 -0.00019802321 0)
(1.0000725 -0.00095812568 0)
(1.0002269 -0.0010598773 0)
(1.0003799 -0.001082552 0)
(1.000625 -0.0011211426 0)
(1.0008868 -0.0010873709 0)
(1.001219 -0.0010124048 0)
(1.0015517 -0.00084214702 0)
(1.0019192 -0.00058882574 0)
(1.0022473 -0.00021794127 0)
(1.000029 -0.00097846827 0)
(1.0001463 -0.0011038126 0)
(1.0002832 -0.0011542602 0)
(1.0005057 -0.0012331419 0)
(1.0007563 -0.0012453803 0)
(1.0010838 -0.0012290823 0)
(1.0014254 -0.0011226043 0)
(1.0018164 -0.00093983193 0)
(1.0021889 -0.00064632865 0)
(1.0025596 -0.00024267429 0)
(0.99998716 -0.00098521093 0)
(1.0000669 -0.0011296909 0)
(1.0001858 -0.0012042186 0)
(1.0003819 -0.0013188113 0)
(1.0006162 -0.0013729426 0)
(1.0009307 -0.001412285 0)
(1.0012725 -0.0013660159 0)
(1.0016763 -0.0012560268 0)
(1.0020762 -0.0010346027 0)
(1.0024989 -0.00071130181 0)
(1.0028685 -0.00026700472 0)
(0.99994754 -0.00098018261 0)
(0.99999008 -0.0011399044 0)
(1.0000896 -0.0012346588 0)
(1.0002563 -0.0013801048 0)
(1.0004701 -0.0014719151 0)
(1.0007651 -0.0015622594 0)
(1.0010996 -0.00157406 0)
(1.0015051 -0.0015333868 0)
(1.0019237 -0.0013852238 0)
(1.0023773 -0.0011420008 0)
(1.0028043 -0.00077368593 0)
(1.0032132 -0.00029108979 0)
(0.99991061 -0.00096581169 0)
(0.99991671 -0.0011363231 0)
(0.99999602 -0.0012480788 0)
(1.0001315 -0.0014192981 0)
(1.0003216 -0.0015442604 0)
(1.0005917 -0.0016808934 0)
(1.0009118 -0.0017465731 0)
(1.0013101 -0.0017727086 0)
(1.0017362 -0.0016959513 0)
(1.0022129 -0.0015324183 0)
(1.0026763 -0.0012445961 0)
(1.0031444 -0.00084070085 0)
(1.0035538 -0.00031100812 0)
(0.99987626 -0.00094285712 0)
(0.99984764 -0.0011218733 0)
(0.99990631 -0.0012463479 0)
(1.0000095 -0.0014389978 0)
(1.0001734 -0.0015923273 0)
(1.0004142 -0.0017699395 0)
(1.0007139 -0.0018852886 0)
(1.0010969 -0.0019740214 0)
(1.0015221 -0.0019668701 0)
(1.0020094 -0.0018822067 0)
(1.0025022 -0.0016739487 0)
(1.0030123 -0.0013548598 0)
(1.0034812 -0.00090357946 0)
(1.0039226 -0.00033025864 0)
(0.99984525 -0.00091506948 0)
(0.99978306 -0.0010968668 0)
(0.99982144 -0.0012326703 0)
(0.99989172 -0.0014411208 0)
(1.0000278 -0.0016188091 0)
(1.000236 -0.0018317156 0)
(1.0005104 -0.0019918534 0)
(1.0008711 -0.0021387312 0)
(1.0012867 -0.002197955 0)
(1.0017754 -0.0021904117 0)
(1.0022857 -0.0020624614 0)
(1.0028298 -0.0018274241 0)
(1.0033474 -0.0014590644 0)
(1.0038486 -0.00096808633 0)
(1.0042852 -0.00034860711 0)
(0.99981632 -0.0008797028 0)
(0.99972388 -0.0010665447 0)
(0.99974176 -0.0012070646 0)
(0.99977959 -0.0014292368 0)
(0.99988666 -0.0016256469 0)
(1.0000598 -0.0018689218 0)
(1.0003049 -0.0020685364 0)
(1.0006374 -0.002268377 0)
(1.0010358 -0.0023901558 0)
(1.0015163 -0.0024570229 0)
(1.0020351 -0.0024085023 0)
(1.0026015 -0.0022590384 0)
(1.0031594 -0.001973662 0)
(1.0037143 -0.001566918 0)
(1.0042127 -0.0010275639 0)
(1.0046698 -0.00036792437 0)
(0.99979179 -0.00084598862 0)
(0.999669 -0.0010258864 0)
(0.99966824 -0.0011756301 0)
(0.99967377 -0.001403133 0)
(0.99975143 -0.0016166404 0)
(0.99988788 -0.0018835748 0)
(1.0001006 -0.0021180085 0)
(1.0004 -0.0023650872 0)
(1.0007745 -0.0025448292 0)
(1.0012384 -0.0026824068 0)
(1.0017557 -0.002711886 0)
(1.002335 -0.0026477125 0)
(1.002923 -0.0024480338 0)
(1.0035232 -0.0021259412 0)
(1.0040798 -0.0016670764 0)
(1.0046006 -0.0010861809 0)
(1.0050467 -0.00038566125 0)
(0.99976734 -0.00080050391 0)
(0.99962068 -0.00098886394 0)
(0.99959998 -0.0011320611 0)
(0.99957528 -0.0013699256 0)
(0.99962315 -0.0015913868 0)
(0.99972206 -0.0018796626 0)
(0.9999002 -0.0021423798 0)
(1.0001625 -0.0024314558 0)
(1.0005076 -0.0026638941 0)
(1.0009471 -0.0028676943 0)
(1.0014539 -0.0029723495 0)
(1.0020356 -0.0029929887 0)
(1.0026444 -0.002879924 0)
(1.0032808 -0.0026461958 0)
(1.0038891 -0.0022685801 0)
(1.0044713 -0.0017661274 0)
(1.0049821 -0.0011384036 0)
(1.005439 -0.00040192272 0)
(0.99974998 -0.00076940024 0)
(0.99957473 -0.00093427402 0)
(0.9995391 -0.0010928928 0)
(0.99948368 -0.001322011 0)
(0.99950272 -0.0015576644 0)
(0.99956379 -0.0018568285 0)
(0.99970561 -0.0021456481 0)
(0.99992814 -0.0024697056 0)
(1.000239 -0.0027498249 0)
(1.0006477 -0.0030144841 0)
(1.0011356 -0.0031906692 0)
(1.0017097 -0.0032938717 0)
(1.0023289 -0.0032684443 0)
(1.0029923 -0.0031251237 0)
(1.003645 -0.0028338318 0)
(1.004284 -0.0024108967 0)
(1.0048591 -0.0018551526 0)
(1.00538 -0.0011869448 0)
(1.0058204 -0.00041525963 0)
(0.99972788 -0.00071179488 0)
(0.99953797 -0.00090166569 0)
(0.99948186 -0.0010329861 0)
(0.99940062 -0.0012787086 0)
(0.99939044 -0.0015070488 0)
(0.99941392 -0.0018232969 0)
(0.9995187 -0.002127696 0)
(0.99969917 -0.0024838062 0)
(0.99997238 -0.0028049288 0)
(1.0003447 -0.0031251179 0)
(1.0008062 -0.003367965 0)
(1.0013634 -0.0035505848 0)
(1.0019824 -0.0036117962 0)
(1.0026623 -0.0035613598 0)
(1.0033512 -0.0033600954 0)
(1.0040417 -0.0030228321 0)
(1.0046795 -0.0025405693 0)
(1.0052664 -0.0019388848 0)
(1.0057685 -0.0012279019 0)
(1.0062098 -0.00042648614 0)
(0.99971892 -0.00069331081 0)
(0.99949853 -0.00082962735 0)
(0.99943427 -0.00099828854 0)
(0.9993235 -0.0012109874 0)
(0.99928702 -0.0014604833 0)
(0.99927353 -0.0017704092 0)
(0.99934036 -0.0020966886 0)
(0.99947779 -0.0024740205 0)
(0.99971046 -0.0028330672 0)
(1.0000422 -0.0032018852 0)
(1.000471 -0.0035063841 0)
(1.0010026 -0.003763602 0)
(1.0016112 -0.0039094695 0)
(1.0022964 -0.0039522399 0)
(1.0030114 -0.0038454656 0)
(1.0037462 -0.0035991419 0)
(1.0044438 -0.0031974493 0)
(1.0050979 -0.002664035 0)
(1.0056673 -0.0020107909 0)
(1.0061665 -0.0012630981 0)
(1.0065855 -0.00043493643 0)
(0.99969629 -0.00061899826 0)
(0.99947449 -0.00081426718 0)
(0.99938606 -0.00091849645 0)
(0.99925643 -0.0011709431 0)
(0.99919202 -0.0013870751 0)
(0.99914245 -0.0017198478 0)
(0.99917213 -0.0020444578 0)
(0.99926514 -0.0024483621 0)
(0.99945567 -0.0028349593 0)
(0.99974362 -0.003248647 0)
(1.0001345 -0.0036079818 0)
(1.0006331 -0.0039347228 0)
(1.0012215 -0.0041611401 0)
(1.0019007 -0.0042963181 0)
(1.0026305 -0.0042863555 0)
(1.0034001 -0.0041373685 0)
(1.004152 -0.0038232319 0)
(1.0048732 -0.0033659552 0)
(1.0055143 -0.002772105 0)
(1.0060806 -0.0020738067 0)
(1.0065524 -0.0012900672 0)
(1.0069615 -0.00044093521 0)
(0.99969704 -0.00062091668 0)
(0.99943805 -0.00071926444 0)
(0.99935253 -0.00090165781 0)
(0.99919277 -0.0010808548 0)
(0.99910614 -0.0013413104 0)
(0.99902236 -0.0016405287 0)
(0.99901357 -0.0019920529 0)
(0.99906284 -0.0023993776 0)
(0.99920963 -0.0028182987 0)
(0.99945154 -0.0032664032 0)
(0.99980075 -0.0036767322 0)
(1.0002603 -0.004065531 0)
(1.0008197 -0.0043679315 0)
(1.0014817 -0.0045922504 0)
(1.0022141 -0.0046802562 0)
(1.0030071 -0.0046330388 0)
(1.0038052 -0.0044150876 0)
(1.0045901 -0.0040425177 0)
(1.0053058 -0.0035164455 0)
(1.0059469 -0.0028687975 0)
(1.0064843 -0.0021235386 0)
(1.0069404 -0.0013097797 0)
(1.0073227 -0.0004440341 0)
(0.9996712 -0.00052935457 0)
(0.99942821 -0.00072970511 0)
(0.99931053 -0.00079750669 0)
(0.99914116 -0.0010571371 0)
(0.99902884 -0.0012444543 0)
(0.998911 -0.001586508 0)
(0.99886722 -0.0019101315 0)
(0.99887076 -0.002347324 0)
(0.99897348 -0.0027765441 0)
(0.99916827 -0.0032629103 0)
(0.99947284 -0.0037135322 0)
(0.99988876 -0.0041601681 0)
(1.0004117 -0.0045307637 0)
(1.0010461 -0.004840105 0)
(1.0017687 -0.0050246229 0)
(1.0025724 -0.0050825214 0)
(1.003406 -0.004967754 0)
(1.0042479 -0.0046906294 0)
(1.0050375 -0.0042422937 0)
(1.0057594 -0.0036540404 0)
(1.0063741 -0.0029477993 0)
(1.0068932 -0.0021616251 0)
(1.0073139 -0.0013209073 0)
(1.0076763 -0.00044435728 0)
(0.99968194 -0.00054951817 0)
(0.99939019 -0.00061333898 0)
(0.99929166 -0.00080563609 0)
(0.99908923 -0.00094345455 0)
(0.9989579 -0.0012106887 0)
(0.99881288 -0.0014828539 0)
(0.99873022 -0.0018492442 0)
(0.99869101 -0.002264634 0)
(0.99874816 -0.0027290213 0)
(0.99889429 -0.003231938 0)
(0.99915361 -0.0037267575 0)
(0.99952229 -0.0042189583 0)
(1.0000029 -0.0046536143 0)
(1.0006005 -0.0050400108 0)
(1.0013011 -0.0053182441 0)
(1.0021019 -0.0054819486 0)
(1.0029583 -0.0054764385 0)
(1.0038476 -0.0053042929 0)
(1.0047066 -0.004946534 0)
(1.0055118 -0.0044289202 0)
(1.0062133 -0.0037703529 0)
(1.0068103 -0.0030112934 0)
(1.0072895 -0.0021856456 0)
(1.0076819 -0.0013238109 0)
(1.0080148 -0.0004418422 0)
(0.99965159 -0.00045206977 0)
(0.99939585 -0.00064375839 0)
(0.99925185 -0.00068220695 0)
(0.99905218 -0.00093830555 0)
(0.99889755 -0.001093622 0)
(0.99871513 -0.0014333873 0)
(0.99860753 -0.0017420814 0)
(0.99852207 -0.0021985635 0)
(0.99853352 -0.0026498034 0)
(0.9986319 -0.0031933148 0)
(0.9988432 -0.0037095782 0)
(0.99916428 -0.0042516112 0)
(0.99959813 -0.0047360003 0)
(1.0001511 -0.0051951768 0)
(1.0008185 -0.0055602927 0)
(1.0016025 -0.0058287333 0)
(1.0024676 -0.0059358969 0)
(1.0033917 -0.0058775251 0)
(1.0043122 -0.0056226089 0)
(1.0051989 -0.0051904848 0)
(1.0059929 -0.004591692 0)
(1.006681 -0.0038680863 0)
(1.0072376 -0.0030555756 0)
(1.0076837 -0.0021962807 0)
(1.0080351 -0.0013181736 0)
(1.0083393 -0.0004365002 0)
(0.99967119 -0.0004728426 0)
(0.99935247 -0.00052494596 0)
(0.99924854 -0.00070581451 0)
(0.99901219 -0.00081480242 0)
(0.9988398 -0.0010664584 0)
(0.99863774 -0.0013147948 0)
(0.99848244 -0.0016772572 0)
(0.99836575 -0.0020882136 0)
(0.99833196 -0.0025837846 0)
(0.99837798 -0.003120382 0)
(0.99854509 -0.0036842218 0)
(0.99881537 -0.0042494712 0)
(0.99920116 -0.0047889931 0)
(0.99970372 -0.0053045003 0)
(1.0003277 -0.0057526722 0)
(1.0010819 -0.0061208633 0)
(1.0019404 -0.0063420752 0)
(1.0028847 -0.0064036547 0)
(1.0038552 -0.0062634242 0)
(1.0048174 -0.0059317347 0)
(1.0057055 -0.0054092421 0)
(1.0064941 -0.0047337952 0)
(1.0071452 -0.0039420328 0)
(1.0076666 -0.0030816292 0)
(1.0080631 -0.0021927222 0)
(1.0083754 -0.0013042337 0)
(1.0086474 -0.00042840958 0)
(0.9996378 -0.00039418822 0)
(0.99937366 -0.00054761671 0)
(0.99920646 -0.00058808612 0)
(0.99898698 -0.00080956756 0)
(0.99880388 -0.00095587469 0)
(0.99855404 -0.0012532073 0)
(0.99837894 -0.001560534 0)
(0.99820766 -0.0020097706 0)
(0.99813784 -0.0024737052 0)
(0.99813958 -0.0030606032 0)
(0.99825387 -0.0036204327 0)
(0.99847966 -0.004239589 0)
(0.99881408 -0.0048014904 0)
(0.9992629 -0.0053795553 0)
(0.9998358 -0.0058939791 0)
(1.0005473 -0.0063588136 0)
(1.0013845 -0.0066916062 0)
(1.0023329 -0.0068770055 0)
(1.0033388 -0.0068608537 0)
(1.0043663 -0.0066445388 0)
(1.0053451 -0.0062158073 0)
(1.0062396 -0.0056064798 0)
(1.0069985 -0.0048481767 0)
(1.0076156 -0.0039932683 0)
(1.0080832 -0.0030879203 0)
(1.0084334 -0.0021753324 0)
(1.0086998 -0.0012821864 0)
(1.0089385 -0.00041771635 0)
(0.99966287 -0.00039285676 0)
(0.99932462 -0.00046224193 0)
(0.99921979 -0.0005939351 0)
(0.99895544 -0.00071298572 0)
(0.998751 -0.00090351791 0)
(0.99851591 -0.0011643423 0)
(0.99827254 -0.0014639944 0)
(0.99806484 -0.00189446 0)
(0.9979492 -0.0023897145 0)
(0.99790281 -0.002952265 0)
(0.99798043 -0.0035740698 0)
(0.99815129 -0.0041844657 0)
(0.99844098 -0.0048063968 0)
(0.99883272 -0.0054072738 0)
(0.99934795 -0.00599489 0)
(1.0000068 -0.0065408829 0)
(1.0008079 -0.006983555 0)
(1.0017439 -0.0072926968 0)
(1.0027685 -0.0074074685 0)
(1.0038471 -0.0073193204 0)
(1.0049086 -0.0070024899 0)
(1.0059088 -0.006479053 0)
(1.0067846 -0.0057730058 0)
(1.0075149 -0.004935896 0)
(1.0080782 -0.0040191978 0)
(1.0084946 -0.0030747666 0)
(1.0087878 -0.0021443676 0)
(1.0090076 -0.001252315 0)
(1.0092114 -0.00040461685 0)
(0.99963273 -0.00034454221 0)
(0.99935792 -0.00044720925 0)
(0.99917119 -0.00052039702 0)
(0.99894286 -0.00066802043 0)
(0.99873743 -0.00084931595 0)
(0.99843049 -0.0010415126 0)
(0.99821638 -0.0013973833 0)
(0.99793157 -0.0017662347 0)
(0.9977595 -0.0022777219 0)
(0.99768319 -0.0028733213 0)
(0.99770407 -0.0034698868 0)
(0.99784287 -0.0041550918 0)
(0.99807767 -0.0047568745 0)
(0.99841693 -0.0054253935 0)
(0.99887037 -0.0060417688 0)
(0.99946663 -0.0066760319 0)
(1.0002193 -0.0072156076 0)
(1.0011261 -0.0076480998 0)
(1.0021515 -0.0078965918 0)
(1.0032639 -0.007946812 0)
(1.0043953 -0.007758462 0)
(1.0054958 -0.0073421539 0)
(1.0064924 -0.0067099406 0)
(1.0073492 -0.0059097994 0)
(1.0080296 -0.0049930076 0)
(1.0085393 -0.0040200751 0)
(1.0088904 -0.0030422704 0)
(1.0091269 -0.002100237 0)
(1.0092976 -0.0012151319 0)
(1.0094658 -0.00038931457 0)
(0.99963621 -0.00033211113 1.0042692e-24)
(0.99931327 -0.00040844759 0)
(0.99920162 -0.00048041348 0)
(0.99890982 -0.00063534381 0)
(0.9986901 -0.00072786697 0)
(0.99843241 -0.0010489024 0)
(0.99811082 -0.0012051467 0)
(0.99783759 -0.0017177072 0)
(0.99760082 -0.002133438 0)
(0.99744369 -0.002762026 0)
(0.99745664 -0.0034091129 0)
(0.99753012 -0.0040522155 0)
(0.99773582 -0.0047426141 0)
(0.99801451 -0.0053781504 0)
(0.99840649 -0.0060742091 0)
(0.9989347 -0.0067511955 0)
(0.99962585 -0.0073949284 0)
(1.0004891 -0.0079399784 0)
(1.0014965 -0.0083234536 0)
(1.0026234 -0.0085182213 0)
(1.0038077 -0.0084726738 0)
(1.0049975 -0.0081839187 0)
(1.0061129 -0.0076495538 0)
(1.0071045 -0.006909341 0)
(1.0079197 -0.0060112659 0)
(1.0085479 -0.0050196104 0)
(1.0089882 -0.0039954086 0)
(1.0092748 -0.0029906661 0)
(1.0094487 -0.0020436156 0)
(1.009569 -0.0011711583 0)
(1.0097012 -0.00037200191 0)
(0.99965206 -0.00026303274 -1.2089592e-24)
(0.99931992 -0.00037212348 -1.0494568e-24)
(0.99915557 -0.00046014827 0)
(0.99891316 -0.00053281565 0)
(0.99868505 -0.00076335668 0)
(0.99834268 -0.00081519406 0)
(0.9981058 -0.0012703381 0)
(0.99771863 -0.0014602892 0)
(0.99744968 -0.002097842 0)
(0.99725613 -0.0026213847 0)
(0.99717503 -0.0032947346 0)
(0.99725367 -0.0040179856 0)
(0.99739188 -0.0046341732 0)
(0.9976343 -0.0053733242 0)
(0.99795904 -0.0060306701 0)
(0.99841428 -0.0068050118 0)
(0.99903696 -0.0075093175 0)
(0.99984103 -0.0081734731 0)
(1.0008135 -0.0086835425 0)
(1.001934 -0.0090263869 0)
(1.0031511 -0.009134156 0)
(1.0044144 -0.0089916424 0)
(1.0056406 -0.0085793023 0)
(1.006769 -0.0079254379 0)
(1.0077317 -0.0070696974 0)
(1.0085006 -0.0060771438 0)
(1.0090588 -0.0050142897 0)
(1.0094285 -0.0039453583 0)
(1.0096414 -0.0029210178 0)
(1.0097522 -0.0019752146 0)
(1.0098214 -0.001120944 0)
(1.0099175 -0.00035284033 0)
(0.99963035 -0.00029221945 1.2134661e-24)
(0.99933279 -0.00030876292 2.9313547e-24)
(0.99916751 -0.00039706693 0)
(0.99889086 -0.00055752076 0)
(0.99864222 -0.00056785618 0)
(0.99837516 -0.00095258974 0)
(0.99799378 -0.0009267388 0)
(0.99768041 -0.0015767661 0)
(0.99732882 -0.0017985446 0)
(0.99703495 -0.0025908546 0)
(0.99696114 -0.0031810711 0)
(0.99693698 -0.0038896462 0)
(0.99708527 -0.0046254659 0)
(0.99725717 -0.0052511377 0)
(0.9975335 -0.0060320434 0)
(0.99791182 -0.0067737828 0)
(0.99845593 -0.0075951057 0)
(0.99919232 -0.0083372294 0)
(1.0001117 -0.0089792399 0)
(1.0012059 -0.0094648894 0)
(1.0024332 -0.009733267 0)
(1.0037498 -0.0097522538 0)
(1.0050729 -0.0094851308 0)
(1.0063338 -0.0089452709 0)
(1.007451 -0.0081600076 0)
(1.0083781 -0.0071901599 0)
(1.0090808 -0.006104757 0)
(1.0095651 -0.0049770413 0)
(1.0098524 -0.0038709071 0)
(1.009991 -0.0028339675 0)
(1.0100364 -0.0018958972 0)
(1.0100543 -0.0010649888 0)
(1.0101148 -0.00033195972 0)
(0.99964785 -0.00016954691 0)
(0.99931392 -0.00033575856 -2.9355358e-24)
(0.99916937 -0.00034951029 0)
(0.99890792 -0.00043809124 0)
(0.99867103 -0.0006631319 0)
(0.99824571 -0.00061198887 0)
(0.99804092 -0.0011633665 0)
(0.99756657 -0.0011254003 0)
(0.99722636 -0.0019512512 0)
(0.99690677 -0.0022763868 0)
(0.99667126 -0.0031464445 0)
(0.99669847 -0.0038208985 0)
(0.99674034 -0.0044714829 0)
(0.99691618 -0.0052580872 0)
(0.99711758 -0.0058942862 0)
(0.99742959 -0.0067854196 0)
(0.99789232 -0.0075890457 0)
(0.99854692 -0.0084645244 0)
(0.99940262 -0.0092001706 0)
(1.0004493 -0.009832974 0)
(1.0016641 -0.010261183 0)
(1.0030103 -0.010453515 0)
(1.0044112 -0.010352024 0)
(1.0057936 -0.0099537815 0)
(1.0070653 -0.0092696069 0)
(1.0081629 -0.008351636 0)
(1.0090324 -0.0072664186 0)
(1.0096619 -0.0060936937 0)
(1.0100583 -0.0049082889 0)
(1.0102618 -0.0037724376 0)
(1.0103211 -0.0027307123 0)
(1.0103007 -0.0018064647 0)
(1.0102676 -0.0010037264 0)
(1.0102931 -0.00030946557 0)
(0.99962664 -0.00024597208 -5.2014789e-25)
(0.9993323 -0.00018511295 0)
(0.99916276 -0.00036144516 -5.1133165e-24)
(0.99887335 -0.00043051759 0)
(0.99868634 -0.00046876979 0)
(0.9983963 -0.00082181876 0)
(0.99779954 -0.00067062796 0)
(0.99758674 -0.0014570198 0)
(0.99713616 -0.0014190132 0)
(0.99671504 -0.0024505706 0)
(0.99652338 -0.0028527272 0)
(0.99635511 -0.003756093 0)
(0.99647874 -0.004449872 0)
(0.99654338 -0.0050680542 0)
(0.99673679 -0.0059079217 0)
(0.99696308 -0.0066387487 0)
(0.99734535 -0.0076216771 0)
(0.99791678 -0.0084945795 0)
(0.99869141 -0.0093751198 0)
(0.99967667 -0.010120737 0)
(1.0008545 -0.010714161 0)
(1.0022052 -0.011084141 0)
(1.0036601 -0.011165219 0)
(1.0051466 -0.010934239 0)
(1.006566 -0.010382936 0)
(1.0078394 -0.0095497811 0)
(1.0088935 -0.0084940159 0)
(1.0096954 -0.0072973295 0)
(1.010235 -0.0060434686 0)
(1.0105394 -0.0048083612 0)
(1.0106511 -0.0036517451 0)
(1.0106311 -0.0026122142 0)
(1.0105448 -0.0017076938 0)
(1.0104615 -0.00093752605 0)
(1.0104528 -0.00028545126 0)
(0.99964581 -9.0542894e-05 2.4906457e-24)
(0.99931267 -0.00029788162 6.5164729e-24)
(0.99917804 -0.00020327096 5.1099263e-24)
(0.99890829 -0.00039237911 7.5213147e-24)
(0.99860709 -0.00051742805 1.032914e-23)
(0.99840399 -0.00049608585 0)
(0.99812706 -0.0010020717 0)
(0.99720164 -0.00080497968 0)
(0.99707447 -0.0018189957 0)
(0.99664454 -0.0018602938 0)
(0.99622677 -0.0030326224 0)
(0.99617252 -0.0035235299 0)
(0.99609897 -0.0043371848 0)
(0.99625603 -0.0050832679 0)
(0.99633312 -0.0056792095 0)
(0.99652989 -0.0066577509 0)
(0.99681803 -0.0074803933 0)
(0.99729861 -0.0085572182 0)
(0.99799203 -0.0094483174 0)
(0.99889497 -0.010351532 0)
(1.0000179 -0.011081574 0)
(1.0013456 -0.011637122 0)
(1.0028278 -0.011910863 0)
(1.0043953 -0.011869515 0)
(1.0059479 -0.011482002 0)
(1.0073952 -0.010769141 0)
(1.0086451 -0.0097771589 0)
(1.0096428 -0.0085849255 0)
(1.0103574 -0.0072811272 0)
(1.0107998 -0.0059541406 0)
(1.0110021 -0.0046788074 0)
(1.0110214 -0.003509366 0)
(1.0109198 -0.0024795284 0)
(1.0107683 -0.0016002825 0)
(1.010636 -0.00086672754 0)
(1.0105942 -0.00026001278 0)
(0.99961906 -0.00018379084 -3.2227642e-24)
(0.99933009 -7.9071091e-05 -1.0991163e-23)
(0.99916148 -0.00033370601 0)
(0.9989156 -0.0002524872 -2.4938997e-23)
(0.99868975 -0.00041695875 -1.0276618e-23)
(0.99824518 -0.00066060377 -1.6490658e-23)
(0.99813693 -0.00050638649 -8.7229628e-24)
(0.99775119 -0.0012478623 0)
(0.99653212 -0.0010440707 0)
(0.99647114 -0.0023099882 0)
(0.9961514 -0.0024244944 0)
(0.99577983 -0.0036760006 0)
(0.99588365 -0.0041784488 0)
(0.99585164 -0.0049027357 0)
(0.99601368 -0.0057152847 0)
(0.99608399 -0.0063911146 0)
(0.99631837 -0.007515243 0)
(0.99670204 -0.0084343222 0)
(0.99730031 -0.0095442355 0)
(0.99812026 -0.010475624 0)
(0.99916312 -0.011381836 0)
(1.0004456 -0.012100548 0)
(1.001925 -0.012578134 0)
(1.0035458 -0.012742834 0)
(1.0052104 -0.01254757 0)
(1.0068213 -0.01199102 0)
(1.0082711 -0.011101182 0)
(1.0094822 -0.0099481036 0)
(1.0104007 -0.0086208958 0)
(1.011017 -0.0072172554 0)
(1.0113493 -0.0058267238 0)
(1.0114464 -0.0045203383 0)
(1.0113688 -0.0033473651 0)
(1.0111868 -0.0023336589 0)
(1.0109712 -0.0014849127 0)
(1.0107916 -0.00079169019 0)
(1.0107178 -0.00023326977 0)
(0.99964017 -2.0745222e-05 -1.5814435e-27)
(0.9992995 -0.00023809732 2.4611011e-24)
(0.99917491 -7.6102209e-05 -4.1622448e-24)
(0.99889808 -0.00038124508 8.7947019e-24)
(0.9986887 -0.00032232488 1.809278e-23)
(0.99840398 -0.00042751265 -1.348544e-23)
(0.99790338 -0.00083423436 -5.4042081e-23)
(0.99780802 -0.00058238453 1.1090766e-23)
(0.99727357 -0.0015685132 0)
(0.99576318 -0.0014389495 0)
(0.99587523 -0.0029039915 0)
(0.99566137 -0.0031090774 0)
(0.99542524 -0.0042751149 0)
(0.99560808 -0.0048067951 0)
(0.99558267 -0.0054648112 0)
(0.99571694 -0.00643955 0)
(0.99581588 -0.0072242341 0)
(0.99612561 -0.0084952407 0)
(0.99663135 -0.0094481934 0)
(0.9973494 -0.01060834 0)
(0.99830828 -0.011569343 0)
(0.99951572 -0.012487693 0)
(1.0009659 -0.013153735 0)
(1.0026076 -0.01353954 0)
(1.0043567 -0.013560017 0)
(1.0061133 -0.013194554 0)
(1.0077584 -0.012447404 0)
(1.0091936 -0.011373718 0)
(1.0103403 -0.010056979 0)
(1.0111646 -0.0086003213 0)
(1.0116663 -0.007105851 0)
(1.0118822 -0.0056619242 0)
(1.0118679 -0.0043350561 0)
(1.0116941 -0.0031664502 0)
(1.0114317 -0.0021757091 0)
(1.0111538 -0.0013622971 0)
(1.0109285 -0.00071284345 0)
(1.010824 -0.00020539199 0)
(0.99962516 -0.00011495167 1.256917e-24)
(0.99932701 9.3522034e-06 -1.0130017e-24)
(0.99915054 -0.00027378376 0)
(0.99890687 -8.2818949e-05 6.4534856e-24)
(0.99867417 -0.00038951021 1.1901533e-24)
(0.99838207 -0.00043884403 0)
(0.99812833 -0.00043736842 3.4462876e-23)
(0.99749675 -0.0010703145 4.686577e-23)
(0.99746688 -0.00074007597 0)
(0.99659667 -0.0020427106 0)
(0.99502597 -0.0019798196 0)
(0.99532075 -0.0035952951 0)
(0.99525716 -0.0037829696 0)
(0.99511116 -0.004827563 0)
(0.99530832 -0.0054104994 0)
(0.99525049 -0.0061105608 0)
(0.99538164 -0.0072939884 0)
(0.99555575 -0.00819708 0)
(0.9959782 -0.009537466 0)
(0.99660275 -0.010544988 0)
(0.99745219 -0.0117504 0)
(0.99857579 -0.012755586 0)
(0.99996231 -0.013644063 0)
(1.0015945 -0.014243926 0)
(1.0033947 -0.014501031 0)
(1.0052712 -0.014357715 0)
(1.0070983 -0.013794077 0)
(1.00876 -0.012843926 0)
(1.0101527 -0.011578483 0)
(1.0112157 -0.010100637 0)
(1.0119255 -0.0085220351 0)
(1.0123023 -0.0069473081 0)
(1.0123932 -0.0054617035 0)
(1.0122663 -0.0041240904 0)
(1.0119949 -0.0029687879 0)
(1.0116544 -0.0020069021 0)
(1.0113163 -0.0012332569 0)
(1.0110474 -0.00063072872 0)
(1.0109136 -0.00017661715 0)
(0.99963161 4.6311194e-05 0)
(0.99930764 -0.0001659953 0)
(0.9991764 2.5140941e-05 1.0458972e-24)
(0.99890266 -0.00032347139 0)
(0.99867689 -0.00013155698 1.6472422e-26)
(0.99838498 -0.00038648639 -1.3490279e-23)
(0.99809752 -0.00057484641 -7.2234302e-23)
(0.99778088 -0.00045966854 -7.4297725e-23)
(0.99710051 -0.0013463364 0)
(0.99699039 -0.0010575683 0)
(0.99581214 -0.0026782264 0)
(0.99436377 -0.0026644727 0)
(0.994899 -0.0042497435 0)
(0.9949016 -0.0044029878 0)
(0.99478977 -0.0053454692 0)
(0.99493021 -0.0060867165 0)
(0.9948653 -0.0069003972 0)
(0.99504224 -0.0083029692 0)
(0.99534065 -0.0092466216 0)
(0.99587141 -0.010659505 0)
(0.99662034 -0.011728732 0)
(0.99762637 -0.013001713 0)
(0.99893503 -0.014010011 0)
(1.0005185 -0.014855083 0)
(1.0023359 -0.015351546 0)
(1.0042995 -0.015458646 0)
(1.0062865 -0.015117322 0)
(1.0081676 -0.014336937 0)
(1.0098164 -0.013169276 0)
(1.0111438 -0.011710269 0)
(1.0120986 -0.010076082 0)
(1.0126791 -0.0083856903 0)
(1.012919 -0.0067431899 0)
(1.0128808 -0.005227502 0)
(1.0126387 -0.00388994 0)
(1.0122719 -0.0027554694 0)
(1.0118551 -0.0018286435 0)
(1.0114594 -0.0010987585 0)
(1.0111488 -0.00054602264 0)
(1.0109871 -0.00014724522 0)
(0.99931655 8.8643591e-05 1.2704026e-25)
(0.99963193 -4.5975843e-05 0)
(0.99915731 -0.00019744948 2.614298e-24)
(0.99891661 3.2438961e-05 3.7859114e-24)
(0.99868526 -0.00034107809 1.4299707e-24)
(0.99837296 -0.00021903325 -3.1187931e-24)
(0.99808816 -0.0004032445 -1.0632271e-25)
(0.99775702 -0.00077380434 -8.0154851e-24)
(0.99738202 -0.00058895608 9.978821e-23)
(0.99666209 -0.0017320201 0)
(0.99637891 -0.0015667604 1.8044135e-22)
(0.99509978 -0.0034484488 0)
(0.99383524 -0.0033510411 0)
(0.99455181 -0.0048264827 0)
(0.99453412 -0.0049701182 0)
(0.99440637 -0.0059115804 0)
(0.9944768 -0.0069189487 0)
(0.99446829 -0.0078662482 0)
(0.99475145 -0.0093932968 0)
(0.99516464 -0.010378641 0)
(0.99580172 -0.011872566 0)
(0.99669707 -0.013035209 0)
(0.99788593 -0.014335993 0)
(0.99940118 -0.015337663 0)
(1.001193 -0.016104462 0)
(1.0032075 -0.016475133 0)
(1.0053237 -0.016392299 0)
(1.0074075 -0.015827772 0)
(1.0093132 -0.014808479 0)
(1.0109234 -0.013415685 0)
(1.0121563 -0.011763637 0)
(1.0129829 -0.0099816748 0)
(1.0134177 -0.0081920848 0)
(1.0135131 -0.0064950427 0)
(1.0133413 -0.0049620669 0)
(1.0129849 -0.0036343556 0)
(1.012524 -0.0025289121 0)
(1.0120341 -0.001642491 0)
(1.0115835 -0.00095993395 0)
(1.0112337 -0.0004595351 0)
(1.0110456 -0.00011761549 0)
(0.99916796 0.00011414334 -2.3510894e-24)
(0.99931717 -8.8734257e-05 0)
(0.9996253 0.00011530289 1.2568875e-24)
(0.99889856 -0.00023412714 -3.7836979e-24)
(0.99869095 2.3873141e-05 -6.8062411e-25)
(0.99838859 -0.00033433425 -2.549374e-23)
(0.99806498 -0.00031194885 4.8178517e-23)
(0.99768555 -0.00041899454 2.1478991e-23)
(0.99736953 -0.000991149 7.5836239e-23)
(0.99683655 -0.0008529716 3.3245671e-23)
(0.99615524 -0.0022404305 1.7658793e-22)
(0.99566062 -0.0023140501 -1.8808454e-22)
(0.99464621 -0.0041716147 0)
(0.99334368 -0.0039527792 0)
(0.99419617 -0.0053300241 0)
(0.99409492 -0.0055766423 0)
(0.99394347 -0.0066392695 0)
(0.99399808 -0.007949147 0)
(0.99411964 -0.0089364459 0)
(0.99450187 -0.010554514 0)
(0.99501424 -0.011600206 0)
(0.99577333 -0.013219779 0)
(0.99684777 -0.014441855 0)
(0.99824566 -0.015760041 0)
(0.99998652 -0.016725612 0)
(1.0020069 -0.017393945 0)
(1.0042162 -0.017593836 0)
(1.0064757 -0.017289382 0)
(1.0086285 -0.016471012 0)
(1.0105314 -0.015197958 0)
(1.0120699 -0.01357461 0)
(1.0131829 -0.011734992 0)
(1.0138596 -0.0098169372 0)
(1.0141365 -0.007942526 0)
(1.0140799 -0.0062057252 0)
(1.0137736 -0.0046677668 0)
(1.0133035 -0.0033603073 0)
(1.0127519 -0.0022907996 0)
(1.012192 -0.0014501575 0)
(1.0116896 -0.00081807078 0)
(1.0113027 -0.00037218361 0)
(1.0110899 -8.8083975e-05 0)
(0.99891175 0.00013846871 -9.565097e-25)
(0.99916828 -0.00011432964 -3.0105262e-24)
(0.9993079 0.00016636362 0)
(0.99964035 2.0862716e-05 -1.4644296e-27)
(0.99867395 -0.0002480394 6.995363e-25)
(0.99839499 -1.7763977e-05 1.272294e-23)
(0.99807321 -0.00031460045 0)
(0.99766574 -0.00043714393 -2.1334186e-23)
(0.99721105 -0.00046397488 3.167313e-23)
(0.99682161 -0.0012836978 -3.2820949e-23)
(0.9962051 -0.0012762748 -1.7573359e-22)
(0.99547612 -0.0029447747 -1.8371979e-22)
(0.99512671 -0.003063617 0)
(0.99429112 -0.004777533 0)
(0.99281691 -0.0044614176 0)
(0.9937742 -0.0058455771 0)
(0.99356703 -0.0063569774 0)
(0.99344531 -0.0075860408 0)
(0.99357165 -0.0090871804 0)
(0.99381036 -0.010073598 0)
(0.99426392 -0.011796777 0)
(0.99488331 -0.012961277 0)
(0.99580327 -0.014679133 0)
(0.99708816 -0.01595883 0)
(0.99872258 -0.017269573 0)
(1.0007174 -0.018181188 0)
(1.0029734 -0.018702352 0)
(1.0053741 -0.01869349 0)
(1.0077532 -0.018128423 0)
(1.0099479 -0.017033014 0)
(1.0118114 -0.015493062 0)
(1.0132472 -0.013639745 0)
(1.0142126 -0.01162191 0)
(1.0147218 -0.0095824351 0)
(1.0148294 -0.0076397287 0)
(1.014617 -0.0058781365 0)
(1.0141755 -0.0043481529 0)
(1.0135946 -0.0030702557 0)
(1.0129555 -0.0020438795 0)
(1.0123294 -0.0012534008 0)
(1.0117785 -0.00067458984 0)
(1.0113569 -0.00028494448 0)
(1.011121 -5.8999089e-05 0)
(0.99869032 0.00014176853 1.2957652e-24)
(0.99891058 -0.00013794862 9.5657848e-25)
(0.99915751 0.00019901175 2.6159865e-24)
(0.99932726 -1.026334e-05 1.0133496e-24)
(0.9996192 0.00018430037 -4.272719e-24)
(0.99838162 -0.00024178432 -1.2723383e-23)
(0.99810563 -8.196679e-05 -8.5252453e-24)
(0.99765773 -0.00029922923 0)
(0.99723342 -0.00059603121 -3.1333952e-23)
(0.99658332 -0.00062650291 1.0707821e-23)
(0.99616448 -0.0017177129 0)
(0.99546359 -0.0019381079 2.0706917e-22)
(0.99476842 -0.0037341566 0)
(0.99479372 -0.0036478766 0)
(0.99386888 -0.0052737621 0)
(0.99222038 -0.0049789857 0)
(0.99325879 -0.0065292436 0)
(0.99300372 -0.0073765268 0)
(0.99298564 -0.0086700868 0)
(0.9931852 -0.010275158 0)
(0.99350025 -0.011274885 0)
(0.99401986 -0.013184006 0)
(0.99479236 -0.014453285 0)
(0.99591134 -0.016263487 0)
(0.99744024 -0.017587291 0)
(0.99934799 -0.018878154 0)
(1.0016135 -0.019684225 0)
(1.004109 -0.020014966 0)
(1.0066835 -0.019749973 0)
(1.0091573 -0.01889218 0)
(1.0113556 -0.017497151 0)
(1.0131442 -0.015683985 0)
(1.0144431 -0.013605893 0)
(1.0152367 -0.011423547 0)
(1.0155614 -0.0092803309 0)
(1.015492 -0.0072869032 0)
(1.0151212 -0.0055163727 0)
(1.0145464 -0.0040065227 0)
(1.013858 -0.0027675875 0)
(1.0131357 -0.0017903594 0)
(1.0124473 -0.0010538839 0)
(1.0118511 -0.00053098703 0)
(1.0113973 -0.00019878523 0)
(1.0111402 -3.0676076e-05 0)
(0.99841605 0.00013190639 -7.519741e-25)