/*--------------------------------*- C++ -*----------------------------------*\
| =========                 |                                                 |
| \\      /  F ield         | OpenFOAM: The Open Source CFD Toolbox           |
|  \\    /   O peration     | Version:  5.0                                   |
|   \\  /    A nd           | Web:      www.OpenFOAM.org                      |
|    \\/     M anipulation  |                                                 |
\*---------------------------------------------------------------------------*/
FoamFile
{
    version     2.0;
    format      ascii;
    class       volVectorField;
    location    "20";
    object      U_0;
}
// * * * * * * * * * * * * * * * * * * * * * * * * * * * * * * * * * * * * * //

dimensions      [0 1 -1 0 0 0 0];

internalField   nonuniform List<vector> 
9520
(
(1.0003541 -9.601355e-05 0)
(1.0003406 -0.00027848904 0)
(1.0006436 -0.00010922809 0)
(1.0003167 -0.00044068522 0)
(1.0006205 -0.00031683147 0)
(1.0007815 -0.00011809588 0)
(1.0002847 -0.000580712 0)
(1.0005792 -0.00050198029 0)
(1.0007541 -0.00034222031 0)
(1.0010126 -0.00013313873 0)
(1.000247 -0.0006978752 0)
(1.0005236 -0.00066240943 0)
(1.0007051 -0.00054275975 0)
(1.0009782 -0.0003853883 0)
(1.0012094 -0.00014678819 0)
(1.0002054 -0.00079263795 0)
(1.0004576 -0.00079740911 0)
(1.0006389 -0.00071701881 0)
(1.000917 -0.00061210131 0)
(1.001169 -0.0004254832 0)
(1.0014574 -0.00016363968 0)
(1.0001616 -0.00086609889 0)
(1.0003843 -0.00090743936 0)
(1.0005602 -0.00086428568 0)
(1.0008338 -0.00081032051 0)
(1.001098 -0.00067614408 0)
(1.0014106 -0.00047770897 0)
(1.0016929 -0.00017909483 0)
(1.0001168 -0.00091988715 0)
(1.0003064 -0.00099356637 0)
(1.0004724 -0.0009850486 0)
(1.0007347 -0.00097904272 0)
(1.0010008 -0.00089671683 0)
(1.0013289 -0.00075978134 0)
(1.0016407 -0.00052816803 0)
(1.0019718 -0.00019775702 0)
(1.0000723 -0.00095590045 0)
(1.0002263 -0.0010575374 0)
(1.0003789 -0.0010802593 0)
(1.0006235 -0.0011189136 0)
(1.0008848 -0.0010853398 0)
(1.0012165 -0.0010106512 0)
(1.0015487 -0.00084079384 0)
(1.0019156 -0.0005879672 0)
(1.0022434 -0.0002175546 0)
(1.0000288 -0.00097616662 0)
(1.0001458 -0.0011013278 0)
(1.0002824 -0.0011517595 0)
(1.0005044 -0.0012306265 0)
(1.0007545 -0.0012429909 0)
(1.0010814 -0.0012268985 0)
(1.0014225 -0.0011207523 0)
(1.001813 -0.00093839228 0)
(1.0021849 -0.00064544276 0)
(1.0025552 -0.00024219515 0)
(0.99998708 -0.00098286366 0)
(1.0000666 -0.0011270983 0)
(1.0001852 -0.0012015477 0)
(1.0003807 -0.0013160455 0)
(1.0006145 -0.0013702296 0)
(1.0009284 -0.0014096941 0)
(1.0012697 -0.001363693 0)
(1.0016729 -0.001254071 0)
(1.0020723 -0.0010330969 0)
(1.0024945 -0.00071037579 0)
(1.0028637 -0.00026655967 0)
(0.99994754 -0.00097782195 0)
(0.9999899 -0.0011372364 0)
(1.0000891 -0.0012318547 0)
(1.0002554 -0.0013771258 0)
(1.0004687 -0.0014689127 0)
(1.0007631 -0.0015592973 0)
(1.001097 -0.0015712966 0)
(1.0015018 -0.0015309156 0)
(1.0019199 -0.0013831876 0)
(1.0023729 -0.0011404541 0)
(1.0027996 -0.00077273422 0)
(1.003208 -0.00029077681 0)
(0.99991071 -0.00096345715 0)
(0.9999167 -0.0011336163 0)
(0.99999575 -0.0012451748 0)
(1.0001308 -0.0014161429 0)
(1.0003204 -0.001541004 0)
(1.0005899 -0.00167759 0)
(1.0009093 -0.0017433937 0)
(1.001307 -0.0017697532 0)
(1.0017326 -0.0016933717 0)
(1.0022087 -0.0015303138 0)
(1.0026716 -0.0012430445 0)
(1.0031393 -0.00083974563 0)
(1.0035483 -0.0003108023 0)
(0.99987644 -0.00094054466 0)
(0.9998478 -0.001119149 0)
(0.99990624 -0.0012433822 0)
(1.000009 -0.0014357006 0)
(1.0001725 -0.0015888527 0)
(1.0004126 -0.0017663264 0)
(1.0007118 -0.0018817199 0)
(1.001094 -0.0019705968 0)
(1.0015186 -0.0019637692 0)
(1.0020052 -0.0018795287 0)
(1.0024975 -0.0016718088 0)
(1.0030071 -0.0013533059 0)
(1.0034758 -0.00090264063 0)
(1.0039167 -0.00033005666 0)
(0.99984552 -0.00091279352 0)
(0.9997834 -0.00109417 0)
(0.99982158 -0.001229666 0)
(0.99989153 -0.0014377218 0)
(1.0000272 -0.00161515 0)
(1.0002347 -0.0018278251 0)
(1.0005085 -0.0019879207 0)
(1.0008684 -0.0021348592 0)
(1.0012833 -0.0021943389 0)
(1.0017713 -0.0021871741 0)
(1.0022811 -0.0020597284 0)
(1.0028246 -0.0018252531 0)
(1.0033418 -0.0014575118 0)
(1.0038427 -0.00096716318 0)
(1.004279 -0.00034834056 0)
(0.99981668 -0.00087752671 0)
(0.99972438 -0.0010638682 0)
(0.99974211 -0.0012040702 0)
(0.99977967 -0.0014257624 0)
(0.99988632 -0.0016218428 0)
(1.0000588 -0.0018647855 0)
(1.0003033 -0.0020642664 0)
(1.000635 -0.0022640751 0)
(1.0010327 -0.00238604 0)
(1.0015124 -0.002453226 0)
(1.0020305 -0.002405181 0)
(1.0025964 -0.0022562509 0)
(1.0031539 -0.0019714834 0)
(1.0037083 -0.0015653727 0)
(1.0042064 -0.0010266605 0)
(1.0046633 -0.00036761306 0)
(0.99979222 -0.00084384351 0)
(0.99966967 -0.0010233108 0)
(0.99966881 -0.0011726417 0)
(0.99967413 -0.0013996344 0)
(0.9997514 -0.0016127192 0)
(0.99988727 -0.0018792283 0)
(1.0000993 -0.0021134273 0)
(1.0003979 -0.0023603751 0)
(1.0007716 -0.0025402239 0)
(1.0012347 -0.0026780595 0)
(1.0017512 -0.002707972 0)
(1.0023299 -0.0026443073 0)
(1.0029174 -0.0024452226 0)
(1.0035172 -0.0021237694 0)
(1.0040735 -0.0016655692 0)
(1.004594 -0.0010853114 0)
(1.0050399 -0.00038536337 0)
(0.99976785 -0.0007985391 0)
(0.9996215 -0.00098631005 0)
(0.99960076 -0.0011291625 0)
(0.99957593 -0.0013664071 0)
(0.99962345 -0.0015873991 0)
(0.99972182 -0.0018751345 0)
(0.99989926 -0.002137516 0)
(1.0001608 -0.0024263519 0)
(1.000505 -0.0026588114 0)
(1.0009436 -0.0028627995 0)
(1.0014497 -0.0029678462 0)
(1.0020306 -0.0029889597 0)
(1.0026389 -0.0028764738 0)
(1.0032748 -0.0026433797 0)
(1.0038827 -0.0022664542 0)
(1.0044645 -0.0017646829 0)
(1.0049752 -0.0011375907 0)
(1.0054319 -0.00040166731 0)
(0.99975053 -0.00076740498 0)
(0.9995757 -0.00093191763 0)
(0.99954008 -0.0010900153 0)
(0.99948461 -0.001318554 0)
(0.99950338 -0.0015536214 0)
(0.99956394 -0.0018521629 0)
(0.99970506 -0.0021405263 0)
(0.99992672 -0.0024642286 0)
(1.0002367 -0.0027442736 0)
(1.0006445 -0.0030090479 0)
(1.0011315 -0.003185576 0)
(1.0017048 -0.0032892202 0)
(1.0023233 -0.0032643468 0)
(1.0029862 -0.0031216476 0)
(1.0036385 -0.0028310596 0)
(1.0042772 -0.002408842 0)
(1.0048521 -0.0018537934 0)
(1.0053728 -0.0011862028 0)
(1.0058131 -0.0004150452 0)
(0.99972852 -0.00071010011 0)
(0.99953907 -0.00089928282 0)
(0.99948303 -0.001030292 0)
(0.99940185 -0.0012752708 0)
(0.99939144 -0.0015030257 0)
(0.99941448 -0.0018185134 0)
(0.99951857 -0.0021223495 0)
(0.99969815 -0.0024779724 0)
(0.99997039 -0.0027989175 0)
(1.0003418 -0.0031191397 0)
(1.0008023 -0.0033622862 0)
(1.0013586 -0.0035453112 0)
(1.001977 -0.0036070505 0)
(1.0026562 -0.0035572094 0)
(1.0033446 -0.0033566498 0)
(1.0040347 -0.0030201357 0)
(1.0046723 -0.0025386191 0)
(1.005259 -0.0019376259 0)
(1.0057611 -0.0012272424 0)
(1.0062023 -0.00042630425 0)
(0.99971956 -0.00069147083 0)
(0.99949975 -0.00082755923 0)
(0.99943564 -0.00099560168 0)
(0.99932499 -0.0012076953 0)
(0.9992884 -0.0014564633 0)
(0.99927451 -0.001765567 0)
(0.99934069 -0.0020911378 0)
(0.9994772 -0.0024678498 0)
(0.99970885 -0.0028265992 0)
(1.0000395 -0.0031953673 0)
(1.0004673 -0.0035001157 0)
(1.000998 -0.0037577131 0)
(1.0016058 -0.0039040776 0)
(1.0022904 -0.0039474087 0)
(1.0030048 -0.0038413243 0)
(1.0037391 -0.0035957675 0)
(1.0044364 -0.0031948712 0)
(1.0050903 -0.0026622115 0)
(1.0056596 -0.0020096545 0)
(1.0061589 -0.0012625287 0)
(1.0065779 -0.00043478631 0)
(0.99969704 -0.00061759222 0)
(0.99947583 -0.00081210205 0)
(0.99938756 -0.00091607127 0)
(0.99925822 -0.0011677145 0)
(0.99919372 -0.0013831498 0)
(0.9991439 -0.0017149626 0)
(0.99917294 -0.0020387435 0)
(0.99926502 -0.0024418667 0)
(0.99945447 -0.0028280423 0)
(0.99974124 -0.0032415777 0)
(1.000131 -0.0036011287 0)
(1.0006287 -0.0039282204 0)
(1.0012163 -0.004155112 0)
(1.0018947 -0.0042908056 0)
(1.0026239 -0.0042815033 0)
(1.0033929 -0.0041332833 0)
(1.0041444 -0.0038199791 0)
(1.0048653 -0.00336352 0)
(1.0055064 -0.0027704402 0)
(1.0060727 -0.0020728113 0)
(1.0065446 -0.0012895981 0)
(1.0069538 -0.00044082207 0)
(0.99969773 -0.00061925387 0)
(0.99943946 -0.00071749235 0)
(0.99935426 -0.00089925494 0)
(0.99919473 -0.001077786 0)
(0.99910824 -0.0013374816 0)
(0.99902424 -0.0016356465 0)
(0.9990149 -0.0019862059 0)
(0.99906324 -0.0023925827 0)
(0.99920886 -0.0028109261 0)
(0.99944952 -0.0032587866 0)
(0.99979756 -0.0036692748 0)
(1.000256 -0.0040584313 0)
(1.0008146 -0.004361282 0)
(1.0014758 -0.0045860674 0)
(1.0022075 -0.0046746848 0)
(1.0029998 -0.0046282143 0)
(1.0037975 -0.004411114 0)
(1.004582 -0.0040394123 0)
(1.0052976 -0.0035141938 0)
(1.0059386 -0.0028673146 0)
(1.0064762 -0.0021227054 0)
(1.0069324 -0.0013094208 0)
(1.0073148 -0.0004439627 0)
(0.99967203 -0.00052819845 0)
(0.99942973 -0.00072782995 0)
(0.99931227 -0.00079533974 0)
(0.99914351 -0.0010542859 0)
(0.99903117 -0.0012406888 0)
(0.99891336 -0.001581726 0)
(0.9988691 -0.0019041696 0)
(0.99887171 -0.0023402518 0)
(0.99897323 -0.002768734 0)
(0.99916662 -0.0032547106 0)
(0.99946992 -0.0037054868 0)
(0.99988472 -0.00415246 0)
(1.0004068 -0.0045235226 0)
(1.0010403 -0.0048332744 0)
(1.0017621 -0.005018336 0)
(1.002565 -0.0050769365 0)
(1.0033981 -0.0049630169 0)
(1.0042396 -0.0046867944 0)
(1.0050289 -0.0042393816 0)
(1.0057508 -0.0036519975 0)
(1.0063656 -0.0029465285 0)
(1.0068849 -0.0021609689 0)
(1.0073058 -0.0013206694 0)
(1.0076685 -0.00044433113 0)
(0.99968264 -0.00054808602 0)
(0.99939172 -0.00061180534 0)
(0.99929369 -0.00080366622 0)
(0.9990916 -0.00094057333 0)
(0.99896076 -0.0012072901 0)
(0.99881565 -0.0014780161 0)
(0.99873266 -0.001843309 0)
(0.99869261 -0.0022572974 0)
(0.99874844 -0.0027207562 0)
(0.99889308 -0.0032231845 0)
(0.99915096 -0.0037180605 0)
(0.99951844 -0.0042106847 0)
(0.99999818 -0.0046457967 0)
(1.0005949 -0.005032569 0)
(1.0012946 -0.0053112581 0)
(1.0020946 -0.0054755929 0)
(1.0029504 -0.005470904 0)
(1.003839 -0.0052996715 0)
(1.0046978 -0.0049428861 0)
(1.0055028 -0.0044262263 0)
(1.0062043 -0.0037685576 0)
(1.0068015 -0.003010257 0)
(1.0072811 -0.0021851846 0)
(1.0076738 -0.0013237065 0)
(1.0080069 -0.00044186472 0)
(0.99965248 -0.00045106814 0)
(0.99939748 -0.00064225746 0)
(0.99925369 -0.00068020439 0)
(0.99905507 -0.00093612763 0)
(0.99890054 -0.0010899902 0)
(0.99871858 -0.0014290303 0)
(0.99861058 -0.0017359823 0)
(0.99852429 -0.0021910807 0)
(0.99853449 -0.002641119 0)
(0.99863113 -0.0031839125 0)
(0.99884087 -0.003700293 0)
(0.99916062 -0.004242702 0)
(0.99959352 -0.0047276767 0)
(1.0001457 -0.0051871648 0)
(1.0008122 -0.0055526363 0)
(1.0015953 -0.0058216057 0)
(1.0024596 -0.0059295401 0)
(1.003383 -0.0058720707 0)
(1.004303 -0.0056181534 0)
(1.0051895 -0.0051870491 0)
(1.0059835 -0.0045892661 0)
(1.0066717 -0.0038665628 0)
(1.0072287 -0.0030547981 0)
(1.0076752 -0.0021960318 0)
(1.008027 -0.0013182096 0)
(1.0083314 -0.00043657569 0)
(0.99967188 -0.00047172377 0)
(0.99935408 -0.00052352876 0)
(0.99925081 -0.00070442315 0)
(0.9990147 -0.0008119378 0)
(0.99884346 -0.0010639389 0)
(0.99864162 -0.0013099998 0)
(0.99848626 -0.0016715974 0)
(0.99836883 -0.0020804468 0)
(0.99833357 -0.0025746871 0)
(0.99837784 -0.0031104278 0)
(0.99854307 -0.0036741614 0)
(0.99881189 -0.0042400458 0)
(0.99919671 -0.0047801229 0)
(0.99969847 -0.0052959981 0)
(1.0003217 -0.0057443871 0)
(1.0010748 -0.0061129738 0)
(1.0019325 -0.0063348796 0)
(1.0028759 -0.0063973302 0)
(1.0038458 -0.0062581014 0)
(1.0048076 -0.0059274724 0)
(1.0056956 -0.0054060819 0)
(1.0064843 -0.0047316665 0)
(1.0071357 -0.0039408161 0)
(1.0076575 -0.0030811285 0)
(1.0080545 -0.0021926964 0)
(1.0083672 -0.0013044157 0)
(1.0086396 -0.00042853832 0)
(0.99963874 -0.00039325002 0)
(0.99937533 -0.00054655434 0)
(0.99920832 -0.00058610626 0)
(0.99899033 -0.00080835554 0)
(0.99880713 -0.00095215689 0)
(0.99855863 -0.0012498644 0)
(0.99838362 -0.0015542944 0)
(0.99821148 -0.0020022049 0)
(0.99814043 -0.0024641851 0)
(0.99813999 -0.0030498908 0)
(0.99825227 -0.0036097917 0)
(0.99847634 -0.0042293963 0)
(0.99880974 -0.0047922468 0)
(0.99925785 -0.0053705721 0)
(0.99982995 -0.0058851267 0)
(1.0005404 -0.0063501771 0)
(1.0013766 -0.006683562 0)
(1.0023241 -0.0068697845 0)
(1.0033293 -0.0068546156 0)
(1.0043562 -0.006639377 0)
(1.0053348 -0.0062118149 0)
(1.0062292 -0.0056036304 0)
(1.0069883 -0.0048463956 0)
(1.0076058 -0.0039923858 0)
(1.0080739 -0.003087715 0)
(1.0084248 -0.0021755393 0)
(1.0086917 -0.0012825172 0)
(1.0089307 -0.00041789534 0)
(0.99966354 -0.0003920321 0)
(0.99932633 -0.00046092924 0)
(0.99922216 -0.00059311864 0)
(0.99895793 -0.00071001171 0)
(0.99875532 -0.00090228498 0)
(0.99852047 -0.0011594388 0)
(0.99827789 -0.001459193 0)
(0.99806996 -0.0018861994 0)
(0.99795238 -0.0023799627 0)
(0.99790414 -0.0029409957 0)
(0.99797916 -0.0035623871 0)
(0.99814812 -0.0041738345 0)
(0.99843671 -0.0047965384 0)
(0.99882781 -0.0053980019 0)
(0.99934237 -0.0059855058 0)
(1.0000002 -0.0065315274 0)
(1.0008001 -0.0069746527 0)
(1.0017351 -0.0072845598 0)
(1.0027588 -0.0074002808 0)
(1.0038367 -0.0073131982 0)
(1.0048978 -0.0069975767 0)
(1.0058978 -0.0064753702 0)
(1.0067738 -0.0057705335 0)
(1.0075044 -0.0049344974 0)
(1.0080682 -0.0040186799 0)
(1.0084853 -0.0030748755 0)
(1.0087792 -0.0021448124 0)
(1.0089996 -0.0012527931 0)
(1.0092038 -0.00040484255 0)
(0.99963363 -0.00034370531 0)
(0.99935954 -0.0004464633 0)
(0.99917317 -0.00051857374 0)
(0.99894649 -0.00066766398 0)
(0.99874073 -0.00084545969 0)
(0.99843601 -0.0010396713 0)
(0.99822243 -0.001390979 0)
(0.99793733 -0.0017589953 0)
(0.99776417 -0.0022671984 0)
(0.99768487 -0.0028612117 0)
(0.99770343 -0.0034576426 0)
(0.99783979 -0.0041433608 0)
(0.99807339 -0.0047468512 0)
(0.99841215 -0.0054156697 0)
(0.99886504 -0.0060320115 0)
(0.99946029 -0.006665971 0)
(1.0002117 -0.0072058481 0)
(1.0011174 -0.0076390368 0)
(1.0021417 -0.007888435 0)
(1.0032534 -0.0079396844 0)
(1.0043841 -0.0077525505 0)
(1.0054842 -0.0073375318 0)
(1.0064808 -0.0067066484 0)
(1.0073379 -0.0059077447 0)
(1.0080188 -0.0049920334 0)
(1.0085292 -0.0040199479 0)
(1.0088811 -0.0030427023 0)
(1.0091183 -0.0021009234 0)
(1.0092897 -0.0012157538 0)
(1.0094584 -0.00038958497 0)
(0.99963697 -0.00033146287 1.002649e-24)
(0.99931498 -0.00040733682 0)
(0.99920395 -0.00047990793 0)
(0.99891234 -0.00063257161 0)
(0.9986949 -0.0007278121 0)
(0.99843733 -0.0010439313 0)
(0.99811735 -0.0012017353 0)
(0.99784491 -0.0017089709 0)
(0.99760609 -0.0021231638 0)
(0.99744666 -0.002749196 0)
(0.99745612 -0.0033954458 0)
(0.99752725 -0.0040402039 0)
(0.99773148 -0.0047317063 0)
(0.99800974 -0.0053684772 0)
(0.99840143 -0.0060639969 0)
(0.99892868 -0.0067405242 0)
(0.99961848 -0.0073842943 0)
(1.0004804 -0.0079299865 0)
(1.0014867 -0.0083143274 0)
(1.0026127 -0.0085100641 0)
(1.0037962 -0.0084657035 0)
(1.0049855 -0.008178262 0)
(1.0061008 -0.0076453174 0)
(1.0070923 -0.0069064834 0)
(1.007908 -0.0060096833 0)
(1.0085368 -0.0050190922 0)
(1.0089779 -0.0039956888 0)
(1.0092654 -0.0029914321 0)
(1.0094402 -0.0020445428 0)
(1.0095612 -0.0011719222 0)
(1.0096939 -0.00037231862 0)
(0.99965287 -0.00026243296 -1.2067541e-24)
(0.9993214 -0.00037156643 -1.0477636e-24)
(0.99915759 -0.00045871698 0)
(0.99891714 -0.00053284143 0)
(0.99868825 -0.00075965807 0)
(0.99834889 -0.00081483746 0)
(0.99811273 -0.0012639124 0)
(0.9977259 -0.0014539114 0)
(0.99745721 -0.0020861828 0)
(0.99725955 -0.0026077847 0)
(0.99717535 -0.0032806141 0)
(0.99725079 -0.0040043003 0)
(0.99738747 -0.0046234603 0)
(0.99762954 -0.0053630737 0)
(0.99795415 -0.0060204612 0)
(0.99840864 -0.0067936655 0)
(0.99902986 -0.0074978512 0)
(0.99983249 -0.0081625485 0)
(1.0008038 -0.0086734603 0)
(1.0019232 -0.009017196 0)
(1.0031394 -0.0091260864 0)
(1.004402 -0.0089848722 0)
(1.0056278 -0.008574007 0)
(1.0067561 -0.0079216347 0)
(1.0077191 -0.0070673441 0)
(1.0084885 -0.0060760709 0)
(1.0090475 -0.0050142541 0)
(1.0094181 -0.0039460641 0)
(1.009632 -0.0029221215 0)
(1.0097437 -0.001976385 0)
(1.0098137 -0.0011218543 0)
(1.0099105 -0.00035320948 0)
(0.99963105 -0.00029157333 1.2112529e-24)
(0.99933462 -0.0003079032 2.9269059e-24)
(0.99916924 -0.0003966586 0)
(0.99889314 -0.0005555322 0)
(0.99864802 -0.00056849891 0)
(0.99837989 -0.00094772031 0)
(0.99800109 -0.00092482333 0)
(0.99768933 -0.001567814 0)
(0.99733607 -0.0017882123 0)
(0.99704093 -0.0025760824 0)
(0.99696158 -0.0031652187 0)
(0.99693443 -0.0038761573 0)
(0.99708078 -0.0046132991 0)
(0.99725227 -0.0052414738 0)
(0.99752885 -0.0060213649 0)
(0.99790652 -0.0067621102 0)
(0.99844918 -0.0075827217 0)
(0.99918396 -0.0083254004 0)
(1.0001021 -0.008968237 0)
(1.0011952 -0.0094546888 0)
(1.0024215 -0.0097240787 0)
(1.003737 -0.00974431 0)
(1.0050596 -0.009478678 0)
(1.0063202 -0.0089403877 0)
(1.0074374 -0.0081567242 0)
(1.008365 -0.0071883561 0)
(1.0090684 -0.0061042331 0)
(1.0095536 -0.004977514 0)
(1.009842 -0.003872046 0)
(1.0099817 -0.0028354138 0)
(1.0100281 -0.0018973198 0)
(1.0100468 -0.00106606 0)
(1.0101079 -0.00033239175 0)
(0.99964859 -0.00016936587 0)
(0.99931529 -0.00033518487 -2.9310807e-24)
(0.99917189 -0.00034826157 0)
(0.99891001 -0.00043796361 0)
(0.99867326 -0.00066045035 0)
(0.99825448 -0.00061289124 0)
(0.99804804 -0.0011570149 0)
(0.99757472 -0.0011201947 0)
(0.99723646 -0.0019387985 0)
(0.99691275 -0.0022615477 0)
(0.99667395 -0.0031298207 0)
(0.99669575 -0.0038049767 0)
(0.99673582 -0.0044601037 0)
(0.99691119 -0.0052474456 0)
(0.99711295 -0.005884232 0)
(0.99742476 -0.0067730403 0)
(0.99788594 -0.0075759724 0)
(0.9985388 -0.0084517365 0)
(0.99939315 -0.0091882924 0)
(1.0004386 -0.009821803 0)
(1.0016523 -0.010250882 0)
(1.0029973 -0.01044436 0)
(1.0043974 -0.010344335 0)
(1.0057793 -0.0099476991 0)
(1.0070509 -0.0092652391 0)
(1.0081487 -0.0083489253 0)
(1.0090189 -0.0072652193 0)
(1.0096492 -0.0060937536 0)
(1.0100468 -0.0049092875 0)
(1.0102514 -0.0037740308 0)
(1.0103119 -0.0027325181 0)
(1.0102926 -0.0018081604 0)
(1.0102604 -0.0010049843 0)
(1.0102865 -0.00030997419 0)
(0.99962725 -0.00024518292 -5.1928539e-25)
(0.99933384 -0.00018487907 0)
(0.99916431 -0.00036116793 -5.1061386e-24)
(0.99887714 -0.00042881611 0)
(0.99868872 -0.00046922234 0)
(0.99839861 -0.00081796956 0)
(0.99781194 -0.00067034937 0)
(0.99759693 -0.001448152 0)
(0.99714495 -0.0014092937 0)
(0.99672491 -0.0024341392 0)
(0.99652654 -0.0028344838 0)
(0.99635347 -0.0037408467 0)
(0.99647387 -0.0044362163 0)
(0.99653813 -0.0050586352 0)
(0.99673223 -0.0058972147 0)
(0.99695856 -0.0066266193 0)
(0.99733952 -0.0076075477 0)
(0.99790894 -0.0084809708 0)
(0.99868214 -0.0093623887 0)
(0.99966618 -0.010108661 0)
(1.0008428 -0.01070276 0)
(1.0021922 -0.011073752 0)
(1.003646 -0.011156236 0)
(1.0051318 -0.010926858 0)
(1.0065508 -0.010377342 0)
(1.0078242 -0.0095459889 0)
(1.0088787 -0.0084919503 0)
(1.0096814 -0.0072967799 0)
(1.0102221 -0.0060441436 0)
(1.0105277 -0.004809916 0)
(1.0106408 -0.0036538087 0)
(1.010622 -0.0026144115 0)
(1.0105368 -0.0017096973 0)
(1.0104545 -0.00093900534 0)
(1.0104465 -0.00028605196 0)
(0.99964649 -9.085374e-05 2.4864326e-24)
(0.99931397 -0.00029696142 6.5063287e-24)
(0.99917983 -0.00020272142 5.1027532e-24)
(0.99891016 -0.00039253373 7.5078218e-24)
(0.99861194 -0.00051498531 1.0310846e-23)
(0.99840655 -0.00049773921 0)
(0.99813083 -0.00099693086 0)
(0.99721818 -0.00080133463 0)
(0.99708723 -0.0018064908 0)
(0.99665369 -0.0018452116 0)
(0.99623437 -0.0030132268 0)
(0.99617156 -0.0035049685 0)
(0.99609435 -0.0043249816 0)
(0.99625043 -0.0050721678 0)
(0.9963284 -0.0056699138 0)
(0.99652589 -0.0066448041 0)
(0.9968127 -0.0074659735 0)
(0.99729121 -0.0085424871 0)
(0.99798295 -0.0094348268 0)
(0.99888469 -0.010338595 0)
(1.0000063 -0.011069129 0)
(1.0013326 -0.011625499 0)
(1.0028135 -0.011900551 0)
(1.00438 -0.011860758 0)
(1.0059321 -0.011475057 0)
(1.007379 -0.010764101 0)
(1.0086292 -0.0097740333 0)
(1.0096274 -0.0085835622 0)
(1.0103431 -0.0072812748 0)
(1.0107867 -0.0059554718 0)
(1.0109904 -0.0046809471 0)
(1.0110111 -0.0035119437 0)
(1.0109109 -0.0024821643 0)
(1.0107606 -0.0016026395 0)
(1.0106293 -0.00086846647 0)
(1.0105882 -0.00026072044 0)
(0.99961982 -0.00018285215 -3.2173935e-24)
(0.99933155 -7.9486191e-05 -1.0974092e-23)
(0.99916318 -0.0003326414 0)
(0.99891786 -0.0002510698 -2.4895697e-23)
(0.99869209 -0.00041768439 -1.0258418e-23)
(0.9982509 -0.0006564713 -1.6464343e-23)
(0.9981397 -0.00050797745 -8.7084327e-24)
(0.99775856 -0.0012405741 0)
(0.99655189 -0.0010353253 0)
(0.99648474 -0.0022929702 0)
(0.99615952 -0.002404505 0)
(0.99578191 -0.0036580284 0)
(0.9958792 -0.0041630476 0)
(0.99584584 -0.0048936341 0)
(0.99600895 -0.0057049757 0)
(0.99608024 -0.0063793453 0)
(0.99631392 -0.0074995054 0)
(0.99669506 -0.0084189712 0)
(0.9972915 -0.0095298329 0)
(0.99811017 -0.010461939 0)
(0.99915172 -0.011368349 0)
(1.0004326 -0.012087714 0)
(1.0019107 -0.012566494 0)
(1.0035302 -0.012732662 0)
(1.0051939 -0.012539174 0)
(1.0068043 -0.011984579 0)
(1.008254 -0.011096806 0)
(1.0094655 -0.0099457146 0)
(1.010385 -0.0086203009 0)
(1.0110024 -0.0072181543 0)
(1.0113361 -0.005828753 0)
(1.0114347 -0.0045231159 0)
(1.0113587 -0.0033504985 0)
(1.0111781 -0.0023367879 0)
(1.0109638 -0.0014876732 0)
(1.0107852 -0.00079372335 0)
(1.0107122 -0.00023409481 0)
(0.99964077 -2.140711e-05 -1.6387846e-27)
(0.99930073 -0.00023696871 2.4571561e-24)
(0.99917683 -7.6447093e-05 -4.1562425e-24)
(0.99890031 -0.00038133703 8.7814841e-24)
(0.99869162 -0.00031986192 1.8061815e-23)
(0.99840677 -0.00042942892 -1.3467109e-23)
(0.9979091 -0.00082862233 -5.3935124e-23)
(0.9978112 -0.00058125797 1.1070239e-23)
(0.99728696 -0.0015568259 0)
(0.99578367 -0.0014239016 0)
(0.99588684 -0.0028824161 0)
(0.99566537 -0.0030875799 0)
(0.99542208 -0.0042613512 0)
(0.99560227 -0.0047953467 0)
(0.99557779 -0.0054568937 0)
(0.99571388 -0.0064267899 0)
(0.99581207 -0.0072089176 0)
(0.99611937 -0.0084783234 0)
(0.9966227 -0.0094331318 0)
(0.9973395 -0.010593835 0)
(0.99829708 -0.011554969 0)
(0.99950294 -0.012473667 0)
(1.0009516 -0.013140786 0)
(1.002592 -0.013527941 0)
(1.0043399 -0.013550102 0)
(1.0060956 -0.01318658 0)
(1.0077403 -0.012441594 0)
(1.0091757 -0.011370089 0)
(1.010323 -0.010055414 0)
(1.0111484 -0.0086005641 0)
(1.0116514 -0.0071075589 0)
(1.0118689 -0.0056647136 0)
(1.0118563 -0.0043385222 0)
(1.0116841 -0.0031702029 0)
(1.0114233 -0.0021793804 0)
(1.0111467 -0.0013655049 0)
(1.0109224 -0.00071519375 0)
(1.0108188 -0.00020633601 0)
(0.99962587 -0.00011396459 1.2549288e-24)
(0.99932825 8.4700509e-06 -1.0113852e-24)
(0.99915186 -0.0002725782 0)
(0.99890938 -8.2251016e-05 6.44412e-24)
(0.99867651 -0.00039117452 1.1904219e-24)
(0.99838557 -0.00043532104 0)
(0.99813157 -0.00043891419 3.4404609e-23)
(0.99750258 -0.0010629234 4.6782208e-23)
(0.99747213 -0.00073432851 0)
(0.99661643 -0.0020246923 0)
(0.99504281 -0.0019583096 0)
(0.99532542 -0.0035735823 0)
(0.99525546 -0.0037653549 0)
(0.9951054 -0.0048182398 0)
(0.99530372 -0.00540125 0)
(0.99524764 -0.0061000829 0)
(0.99537907 -0.0072769616 0)
(0.99554997 -0.0081797717 0)
(0.99596973 -0.0095210736 0)
(0.99659284 -0.010529905 0)
(0.99744118 -0.011735043 0)
(0.99856321 -0.012740512 0)
(0.99994816 -0.013629893 0)
(1.0015788 -0.014230942 0)
(1.0033776 -0.014489563 0)
(1.0052529 -0.0143481 0)
(1.0070793 -0.013786664 0)
(1.0087408 -0.012838844 0)
(1.0101339 -0.011575712 0)
(1.0111978 -0.010099983 0)
(1.0119089 -0.0085231921 0)
(1.0122873 -0.0069498987 0)
(1.0123799 -0.0054653126 0)
(1.0122547 -0.0041283103 0)
(1.0119852 -0.0029732061 0)
(1.0116463 -0.0020111497 0)
(1.0113095 -0.0012369388 0)
(1.0110417 -0.00063339999 0)
(1.0109088 -0.00017767062 0)
(0.99963227 4.5417792e-05 0)
(0.99930888 -0.0001647235 0)
(0.999178 2.4446074e-05 1.0442283e-24)
(0.9989045 -0.00032288032 0)
(0.99867973 -0.00012935087 1.6819347e-26)
(0.99838817 -0.00038777514 -1.3464585e-23)
(0.99810072 -0.00057004112 -7.2110156e-23)
(0.99778556 -0.00046021048 -7.4165275e-23)
(0.99710605 -0.0013362633 0)
(0.99700048 -0.0010440998 0)
(0.99583283 -0.0026526167 0)
(0.99437283 -0.0026400078 0)
(0.99489591 -0.0042329136 0)
(0.99489716 -0.0043907974 0)
(0.99478411 -0.005339136 0)
(0.99492843 -0.0060749173 0)
(0.9948632 -0.0068846087 0)
(0.9950374 -0.0082833037 0)
(0.99533203 -0.0092295292 0)
(0.99586135 -0.010643448 0)
(0.99660938 -0.011712831 0)
(0.99761408 -0.012985563 0)
(0.99892115 -0.013994731 0)
(1.0005031 -0.014840799 0)
(1.0023188 -0.015338538 0)
(1.0042808 -0.015447315 0)
(1.0062667 -0.015108155 0)
(1.0081473 -0.014330195 0)
(1.0097962 -0.013165057 0)
(1.0111242 -0.011708463 0)
(1.0120801 -0.010076437 0)
(1.0126622 -0.0083878496 0)
(1.0129038 -0.0067467329 0)
(1.0128675 -0.0052319982 0)
(1.0126273 -0.0038949567 0)
(1.0122624 -0.0027605955 0)
(1.0118472 -0.001833479 0)
(1.0114529 -0.0011029157 0)
(1.0111436 -0.00054899443 0)
(1.0109828 -0.00014838816 0)
(0.99931773 8.7421419e-05 1.2682619e-25)
(0.99963257 -4.5070073e-05 0)
(0.99915887 -0.00019627391 2.6099425e-24)
(0.99891884 3.2241353e-05 3.7810261e-24)
(0.99868772 -0.00034196725 1.4243298e-24)
(0.99837663 -0.00021630749 -3.1159406e-24)
(0.99809308 -0.00040433724 -1.0686494e-25)
(0.99776123 -0.00076711348 -7.9987726e-24)
(0.9973901 -0.00058394024 9.9608588e-23)
(0.99666856 -0.0017166417 0)
(0.99639406 -0.0015433785 1.8012689e-22)
(0.99510789 -0.0034222846 0)
(0.99383803 -0.0033309108 0)
(0.99454504 -0.0048160157 0)
(0.99453017 -0.0049618889 0)
(0.9944029 -0.005902937 0)
(0.99447638 -0.0069007781 0)
(0.9944636 -0.0078464177 0)
(0.99474289 -0.0093741174 0)
(0.99515413 -0.010362278 0)
(0.99579085 -0.011855801 0)
(0.9966851 -0.013018481 0)
(0.99787251 -0.014319748 0)
(0.9993861 -0.015322209 0)
(1.0011761 -0.016089934 0)
(1.0031887 -0.01646203 0)
(1.0053034 -0.01638125 0)
(1.0073862 -0.015819176 0)
(1.0092916 -0.014802569 0)
(1.0109021 -0.013412459 0)
(1.012136 -0.011762922 0)
(1.012964 -0.009983147 0)
(1.0134005 -0.0081953293 0)
(1.0134979 -0.0064996085 0)
(1.0133282 -0.0049674919 0)
(1.0129737 -0.0036402009 0)
(1.0125147 -0.0025347473 0)
(1.0120265 -0.0016478991 0)
(1.0115774 -0.00096453662 0)
(1.0112289 -0.00046276082 0)
(1.0110418 -0.00011881913 0)
(0.99916943 0.00011300173 -2.3470512e-24)
(0.99931835 -8.7506267e-05 0)
(0.999626 0.0001143232 1.254928e-24)
(0.99890073 -0.00023351781 -3.7788154e-24)
(0.99869364 2.4459686e-05 -6.7919434e-25)
(0.99839228 -0.00033630011 -2.5449041e-23)
(0.99807008 -0.00030868443 4.8093749e-23)
(0.9976932 -0.0004206424 2.1447417e-23)
(0.99737758 -0.00098297614 7.5700654e-23)
(0.99684897 -0.00084223696 3.3188145e-23)
(0.99616622 -0.002217633 1.7629364e-22)
(0.99567206 -0.0022839781 -1.8775691e-22)
(0.99464284 -0.004151868 0)
(0.9933448 -0.0039400485 0)
(0.99418962 -0.0053243801 0)
(0.99409339 -0.0055661465 0)
(0.99394134 -0.0066231866 0)
(0.99399478 -0.0079260756 0)
(0.99411063 -0.0089165532 0)
(0.9944911 -0.010537002 0)
(0.99500333 -0.011583692 0)
(0.99576194 -0.013202224 0)
(0.99683494 -0.014424951 0)
(0.9982312 -0.015743565 0)
(0.99997006 -0.016709672 0)
(1.0019883 -0.01737904 0)
(1.0041956 -0.017580802 0)
(1.0064537 -0.017278753 0)
(1.0086057 -0.016463172 0)
(1.0105085 -0.015193036 0)
(1.0120476 -0.013572534 0)
(1.0131618 -0.011735498 0)
(1.0138402 -0.0098196271 0)
(1.0141192 -0.0079469322 0)
(1.0140647 -0.006211354 0)
(1.0137606 -0.0046741424 0)
(1.0132925 -0.003366969 0)
(1.0127429 -0.0022973181 0)
(1.0121848 -0.0014560954 0)
(1.0116839 -0.00082305671 0)
(1.0112983 -0.0003755922 0)
(1.0110865 -8.9313143e-05 0)
(0.9989138 0.00013810074 -9.5519051e-25)
(0.99916979 -0.0001132167 -3.0054116e-24)
(0.99930914 0.00016506138 0)
(0.99964095 2.1544149e-05 -1.5169352e-27)
(0.99867646 -0.00024833557 6.9754298e-25)
(0.99839816 -1.583842e-05 1.2702267e-23)
(0.99807867 -0.0003169532 0)
(0.99767265 -0.00043259115 -2.1302826e-23)
(0.99722299 -0.00046310933 3.1613043e-23)
(0.99683482 -0.001270911 -3.2764163e-23)
(0.99622029 -0.0012557487 -1.7536823e-22)
(0.99549133 -0.0029149501 -1.8341357e-22)
(0.99512321 -0.0030412209 0)
(0.99428644 -0.0047661478 0)
(0.99281872 -0.0044542622 0)
(0.99376964 -0.005838155 0)
(0.99356669 -0.0063381675 0)
(0.99344056 -0.0075631794 0)
(0.99356327 -0.0090645238 0)
(0.99379894 -0.010056326 0)
(0.99425335 -0.011779707 0)
(0.9948725 -0.012944019 0)
(0.9957913 -0.014661506 0)
(0.99707446 -0.015941506 0)
(0.99870674 -0.017252206 0)
(1.0006991 -0.018164486 0)
(1.0029527 -0.018687258 0)
(1.0053515 -0.018680689 0)
(1.0077294 -0.01811843 0)
(1.0099234 -0.017026114 0)
(1.0117873 -0.01548932 0)
(1.0132241 -0.013638982 0)
(1.014191 -0.011623763 0)
(1.0147021 -0.0095864311 0)
(1.0148119 -0.007645339 0)
(1.0146019 -0.0058848407 0)
(1.0141626 -0.0043554522 0)
(1.013584 -0.00307769 0)
(1.0129469 -0.0020510052 0)
(1.0123225 -0.0012598084 0)
(1.0117732 -0.00067986391 0)
(1.011353 -0.00028844561 0)
(1.0111182 -6.0217359e-05 0)
(0.99869255 0.0001417808 1.2938141e-24)
(0.99891269 -0.00013759346 9.5527594e-25)
(0.99915909 0.0001977326 2.6114101e-24)
(0.9993285 -9.3368873e-06 1.0117255e-24)
(0.99961996 0.00018336052 -4.2657173e-24)
(0.99838457 -0.00024332556 -1.2702159e-23)
(0.99810954 -7.9476082e-05 -8.5108161e-24)
(0.99766597 -0.00030121795 0)
(0.99724263 -0.00058880582 -3.1262644e-23)
(0.99659959 -0.00061947884 1.0689119e-23)
(0.99618111 -0.0016954613 0)
(0.99548031 -0.001908366 2.0663295e-22)
(0.9947766 -0.0037070522 0)
(0.9947836 -0.0036360372 0)
(0.99386779 -0.0052682828 0)
(0.99222314 -0.0049699036 0)
(0.99325586 -0.0065124466 0)
(0.99299988 -0.0073503446 0)
(0.99297588 -0.0086469185 0)
(0.99317418 -0.010256466 0)
(0.99348939 -0.011259131 0)
(0.99401001 -0.013166121 0)
(0.99478118 -0.014435481 0)
(0.99589847 -0.016245253 0)
(0.99742512 -0.017568692 0)
(0.99933014 -0.018859601 0)
(1.001593 -0.019667034 0)
(1.0040861 -0.019999874 0)
(1.0066589 -0.019737624 0)
(1.0091315 -0.018883024 0)
(1.0113296 -0.017491424 0)
(1.0131189 -0.015681623 0)
(1.0144191 -0.013606601 0)
(1.0152146 -0.011426856 0)
(1.0155416 -0.0092856833 0)
(1.0154745 -0.0072937254 0)
(1.0151061 -0.0055241133 0)
(1.0145338 -0.0040146808 0)
(1.0138476 -0.0027756991 0)
(1.0131274 -0.0017979909 0)
(1.0124408 -0.0010606715 0)
(1.0118462 -0.00053642216 0)
(1.0113938 -0.00020227734 0)
(1.0111378 -3.1848941e-05 0)
(0.99841784 0.00013289407 -7.5077376e-25)