/*--------------------------------*- C++ -*----------------------------------*\
| =========                 |                                                 |
| \\      /  F ield         | OpenFOAM: The Open Source CFD Toolbox           |
|  \\    /   O peration     | Version:  5.0                                   |
|   \\  /    A nd           | Web:      www.OpenFOAM.org                      |
|    \\/     M anipulation  |                                                 |
\*---------------------------------------------------------------------------*/
FoamFile
{
    version     2.0;
    format      ascii;
    class       volVectorField;
    location    "20";
    object      UMean;
}
// * * * * * * * * * * * * * * * * * * * * * * * * * * * * * * * * * * * * * //

dimensions      [0 1 -1 0 0 0 0];

internalField   nonuniform List<vector> 
9520
(
(1.0003123 -4.8341485e-05 0)
(1.0002997 -0.00014013038 0)
(1.0004714 -5.9443439e-05 0)
(1.0002771 -0.00022158299 0)
(1.0004531 -0.00017241326 0)
(1.0005488 -6.6193003e-05 0)
(1.0002473 -0.00029171727 0)
(1.0004208 -0.00027273552 0)
(1.000528 -0.0001920931 0)
(1.0006809 -7.7319135e-05 0)
(1.0002124 -0.00035012143 0)
(1.0003775 -0.00035919987 0)
(1.0004907 -0.00030408628 0)
(1.0006557 -0.00022431545 0)
(1.0007975 -8.7328494e-05 0)
(1.0001745 -0.00039702906 0)
(1.0003264 -0.00043141492 0)
(1.000441 -0.0004009139 0)
(1.0006108 -0.00035541522 0)
(1.0007687 -0.0002534905 0)
(1.0009475 -0.00010016785 0)
(1.000135 -0.00043305725 0)
(1.0002703 -0.00048968403 0)
(1.0003823 -0.00048206518 0)
(1.0005505 -0.00046908496 0)
(1.0007171 -0.00040202933 0)
(1.0009143 -0.00029098616 0)
(1.0010939 -0.0001126233 0)
(1.0000952 -0.0004590992 0)
(1.0002115 -0.00053470086 0)
(1.0003178 -0.00054780083 0)
(1.0004791 -0.00056477162 0)
(1.0006478 -0.00053132579 0)
(1.0008549 -0.0004621438 0)
(1.0010567 -0.00032762355 0)
(1.0012689 -0.00012726487 0)
(1.0000562 -0.00047618699 0)
(1.0001519 -0.00056749317 0)
(1.0002499 -0.00059883658 0)
(1.0004002 -0.00064278223 0)
(1.0005656 -0.00064071958 0)
(1.0007748 -0.00061190881 0)
(1.0009899 -0.00052090625 0)
(1.0012274 -0.0003709752 0)
(1.0014449 -0.00014173763 0)
(1.0000186 -0.00048541787 0)
(1.0000929 -0.00058927384 0)
(1.0001808 -0.00063627052 0)
(1.0003169 -0.00070387648 0)
(1.0004744 -0.00073046659 0)
(1.0006792 -0.0007394095 0)
(1.0008997 -0.00069092208 0)
(1.0011528 -0.00059076021 0)
(1.0013996 -0.00041400068 0)
(1.0016462 -0.00015797104 0)
(0.99998302 -0.00048790501 0)
(1.0000358 -0.00060134667 0)
(1.0001123 -0.00066140718 0)
(1.0002318 -0.00074924329 0)
(1.0003778 -0.00080129099 0)
(1.0005727 -0.00084487432 0)
(1.0007918 -0.00083661831 0)
(1.0010514 -0.00078526136 0)
(1.0013176 -0.00066027521 0)
(1.001597 -0.00046209653 0)
(1.0018511 -0.0001742005 0)
(0.99994971 -0.00048469849 0)
(0.99998125 -0.00060505348 0)
(1.0000457 -0.00067566499 0)
(1.0001469 -0.00078029021 0)
(1.0002786 -0.00085443685 0)
(1.0004593 -0.00092901017 0)
(1.0006711 -0.00095819076 0)
(1.0009295 -0.00095312903 0)
(1.0012059 -0.00087951461 0)
(1.0015076 -0.00073835099 0)
(1.0017988 -0.00050988352 0)
(1.0020778 -0.0001916407 0)
(0.99991889 -0.00047683838 0)
(0.99992989 -0.00060165422 0)
(0.99998188 -0.00068050924 0)
(1.0000639 -0.00079857209 0)
(1.0001794 -0.00089139614 0)
(1.0003424 -0.00099307031 0)
(1.0005419 -0.0010561817 0)
(1.0007924 -0.0010944908 0)
(1.0010711 -0.0010702186 0)
(1.0013853 -0.00098578791 0)
(1.0017027 -0.00081621474 0)
(1.0020224 -0.00056100167 0)
(1.0023093 -0.00020877783 0)
(0.99989063 -0.00046514622 0)
(0.9998821 -0.0005924388 0)
(0.99992165 -0.00067731371 0)
(0.99998406 -0.00080572384 0)
(1.0000821 -0.00091384508 0)
(1.0002248 -0.0010385787 0)
(1.0004081 -0.0011318148 0)
(1.000645 -0.0012097643 0)
(1.0009187 -0.0012323664 0)
(1.0012367 -0.0012027901 0)
(1.0015709 -0.0010923276 0)
(1.0019202 -0.00089985488 0)
(1.0022516 -0.00061136752 0)
(1.0025586 -0.00022630345 0)
(0.99986498 -0.00045062624 0)
(0.99983803 -0.0005783637 0)
(0.99986544 -0.00066752416 0)
(0.99990838 -0.00080328645 0)
(0.99998823 -0.00092356217 0)
(1.0001089 -0.0010673021 0)
(1.0002729 -0.0011866039 0)
(1.0004915 -0.0013000994 0)
(1.0007539 -0.0013661657 0)
(1.0010678 -0.0013891679 0)
(1.0014099 -0.0013366209 0)
(1.0017793 -0.001207306 0)
(1.0021444 -0.000982621 0)
(1.0024989 -0.00066321671 0)
(1.0028125 -0.00024315855 0)
(0.99984175 -0.00043360542 0)
(0.99979781 -0.00056078145 0)
(0.99981348 -0.00065216073 0)
(0.99983747 -0.00079293048 0)
(0.99989887 -0.00092222895 0)
(0.99999657 -0.0010811535 0)
(1.000139 -0.0012223746 0)
(1.0003354 -0.0013669598 0)
(1.0005811 -0.0014726093 0)
(1.0008839 -0.0015449096 0)
(1.0012257 -0.0015486519 0)
(1.001606 -0.0014817969 0)
(1.001996 -0.0013218381 0)
(1.0023879 -0.00106825 0)
(1.0027518 -0.00071350972 0)
(1.0030798 -0.00025982221 0)
(0.99982106 -0.00041548729 0)
(0.99976126 -0.00053987445 0)
(0.99976595 -0.00063281142 0)
(0.99977167 -0.00077578653 0)
(0.99981484 -0.00091171383 0)
(0.99988912 -0.0010819696 0)
(1.0000085 -0.0012411394 0)
(1.00018 -0.0014121877 0)
(1.0004045 -0.0015530373 0)
(1.00069 -0.0016707818 0)
(1.0010238 -0.0017281187 0)
(1.0014064 -0.0017226336 0)
(1.0018122 -0.0016275587 0)
(1.0022332 -0.0014410149 0)
(1.0026385 -0.001151775 0)
(1.0030189 -0.00076346242 0)
(1.0033502 -0.00027557451 0)
(0.9998023 -0.00039530486 0)
(0.99972858 -0.00051779629 0)
(0.99972262 -0.00060953259 0)
(0.99971125 -0.00075379635 0)
(0.9997366 -0.00089323802 0)
(0.99978763 -0.0010718451 0)
(0.99988314 -0.0012448662 0)
(1.0000277 -0.0014378632 0)
(1.0002275 -0.001609241 0)
(1.0004905 -0.0017679352 0)
(1.0008094 -0.0018754641 0)
(1.001186 -0.0019291998 0)
(1.001599 -0.0018988095 0)
(1.0020401 -0.0017802145 0)
(1.0024794 -0.0015581633 0)
(1.0029048 -0.0012352273 0)
(1.0032904 -0.00081085975 0)
(1.0036297 -0.00029060151 0)
(0.99978615 -0.00037627342 0)
(0.99969899 -0.00049256478 0)
(0.99968373 -0.00058502993 0)
(0.99965603 -0.00072684313 0)
(0.99966452 -0.00086906139 0)
(0.99969274 -0.0010521297 0)
(0.9997642 -0.001235842 0)
(0.99988062 -0.0014460755 0)
(1.0000531 -0.0016433079 0)
(1.0002892 -0.0018380359 0)
(1.0005872 -0.001991557 0)
(1.0009502 -0.0021015336 0)
(1.0013616 -0.0021345985 0)
(1.0018141 -0.0020846245 0)
(1.0022794 -0.0019316361 0)
(1.0027433 -0.0016760406 0)
(1.0031772 -0.0013149353 0)
(1.0035717 -0.00085619598 0)
(1.0039102 -0.00030435812 0)
(0.99977102 -0.00035381988 0)
(0.99967331 -0.00046952687 0)
(0.99964841 -0.00055657125 0)
(0.99960632 -0.00069846558 0)
(0.99959845 -0.00083892677 0)
(0.99960493 -0.0010254642 0)
(0.99965254 -0.0012155479 0)
(0.99974035 -0.0014392922 0)
(0.99988379 -0.0016574084 0)
(1.0000897 -0.0018831168 0)
(1.0003615 -0.0020778412 0)
(1.0007039 -0.0022401295 0)
(1.0011054 -0.0023344618 0)
(1.0015604 -0.0023528563 0)
(1.0020432 -0.002270727 0)
(1.0025384 -0.0020852314 0)
(1.0030159 -0.0017896684 0)
(1.0034615 -0.0013917405 0)
(1.0038553 -0.00089790535 0)
(1.0041951 -0.00031687041 0)
(0.99975903 -0.00033662126 0)
(0.99964946 -0.0004407841 0)
(0.99961764 -0.00053105137 0)
(0.99956111 -0.00066486304 0)
(0.99953873 -0.00080708935 0)
(0.99952419 -0.00099145995 0)
(0.99954876 -0.0011869448 0)
(0.99960802 -0.0014191526 0)
(0.99972142 -0.0016541432 0)
(0.99989481 -0.0019053851 0)
(1.0001364 -0.0021362106 0)
(1.0004521 -0.0023460969 0)
(1.0008358 -0.0024984065 0)
(1.0012842 -0.0025838668 0)
(1.0017754 -0.0025736212 0)
(1.002294 -0.0024611647 0)
(1.0028091 -0.0022348673 0)
(1.0033027 -0.0019001609 0)
(1.00375 -0.0014630189 0)
(1.0041444 -0.00093605676 0)
(1.0044785 -0.0003277911 0)
(0.99974646 -0.00031126953 0)
(0.99963006 -0.00042058516 0)
(0.99958903 -0.00049819 0)
(0.99952158 -0.0006352062 0)
(0.99948438 -0.00076885455 0)
(0.99945084 -0.00095521955 0)
(0.999453 -0.0011495967 0)
(0.99948439 -0.0013889378 0)
(0.99956746 -0.001635317 0)
(0.99970681 -0.0019075335 0)
(0.99991497 -0.0021688348 0)
(1.0001989 -0.0024210926 0)
(1.0005578 -0.0026270843 0)
(1.000991 -0.0027770677 0)
(1.0014811 -0.0028386227 0)
(1.0020141 -0.0028016092 0)
(1.0025598 -0.0026487902 0)
(1.0030969 -0.0023818624 0)
(1.0035967 -0.0020038803 0)
(1.0040461 -0.0015288843 0)
(1.004433 -0.00096961717 0)
(1.004762 -0.0003370912 0)
(0.99973841 -0.00029901845 0)
(0.99961028 -0.00038734143 0)
(0.9995659 -0.0004761247 0)
(0.99948489 -0.00059578732 0)
(0.99943653 -0.00073527973 0)
(0.99938405 -0.00091108275 0)
(0.99936558 -0.0011092723 0)
(0.99936983 -0.0013482234 0)
(0.99942288 -0.0016044625 0)
(0.99952753 -0.0018915355 0)
(0.99970013 -0.0021784397 0)
(0.99994826 -0.002467152 0)
(1.0002762 -0.0027217934 0)
(1.000686 -0.0029325159 0)
(1.0011655 -0.0030644352 0)
(1.0017033 -0.0031041693 0)
(1.002271 -0.0030288092 0)
(1.0028458 -0.0028351267 0)
(1.0033955 -0.0025216401 0)
(1.0039011 -0.0021009131 0)
(1.0043439 -0.001587554 0)
(1.0047229 -0.00099846578 0)
(1.0050412 -0.00034457277 0)
(0.99972729 -0.0002690972 0)
(0.99959694 -0.00037408765 0)
(0.99954226 -0.00043764069 0)
(0.99945486 -0.00057039404 0)
(0.9993924 -0.00068991526 0)
(0.99932476 -0.00087224679 0)
(0.99928586 -0.0010596453 0)
(0.99926468 -0.0013034322 0)
(0.99928829 -0.00156126 0)
(0.99935826 -0.0018611494 0)
(0.99949406 -0.0021671358 0)
(0.99970346 -0.0024869706 0)
(0.99999542 -0.0027843135 0)
(1.0003746 -0.0030510015 0)
(1.0008344 -0.0032503815 0)
(1.0013666 -0.0033667458 0)
(1.0019465 -0.0033718091 0)
(1.0025513 -0.0032570037 0)
(1.0031465 -0.0030147246 0)
(1.0037079 -0.0026541804 0)
(1.0042103 -0.0021886991 0)
(1.004645 -0.0016387917 0)
(1.0050096 -0.0010219936 0)
(1.0053167 -0.00035019437 0)
(0.99972299 -0.00026446657 0)
(0.99957965 -0.00033440654 0)
(0.9995264 -0.00042372545 0)
(0.99942464 -0.00052373774 0)
(0.99935567 -0.0006609644 0)
(0.99927047 -0.00081929108 0)
(0.99921456 -0.0010155139 0)
(0.99916853 -0.0012476845 0)
(0.99916408 -0.001512617 0)
(0.99919984 -0.0018162148 0)
(0.9992984 -0.0021388613 0)
(0.9994672 -0.0024827348 0)
(0.99971929 -0.0028172212 0)
(1.0000616 -0.0031339049 0)
(1.0004931 -0.0033965809 0)
(1.0010096 -0.003587786 0)
(1.001591 -0.0036748136 0)
(1.0022162 -0.0036436764 0)
(1.0028504 -0.0034799493 0)
(1.0034651 -0.0031874274 0)
(1.0040289 -0.0027761428 0)
(1.0045256 -0.0022668138 0)
(1.0049448 -0.0016814987 0)
(1.0052934 -0.001040052 0)
(1.0055854 -0.00035387804 0)
(0.99971243 -0.00022925335 0)
(0.99957215 -0.00033099822 0)
(0.99950566 -0.00037766973 0)
(0.99940368 -0.00050801279 0)
(0.99931955 -0.00060709845 0)
(0.99922418 -0.00078519889 0)
(0.99914957 -0.00095539367 0)
(0.99908189 -0.0011972966 0)
(0.99905006 -0.0014513658 0)
(0.99905283 -0.0017640947 0)
(0.99911426 -0.0020936383 0)
(0.99924156 -0.0024585566 0)
(0.99945106 -0.00282268 0)
(0.99975147 -0.0031835518 0)
(1.0001472 -0.003503858 0)
(1.0006382 -0.0037665666 0)
(1.00121 -0.0039352734 0)
(1.0018447 -0.0039912476 0)
(1.0025089 -0.003912848 0)
(1.0031717 -0.003697381 0)
(1.0037968 -0.0033491116 0)
(1.0043599 -0.002886814 0)
(1.0048427 -0.0023335822 0)
(1.0052438 -0.001715375 0)
(1.0055714 -0.0010523742 0)
(1.0058469 -0.00035561889 0)
(0.99971152 -0.00023178505 0)
(0.99955582 -0.0002848508 0)
(0.99949687 -0.00037481477 0)
(0.99937753 -0.00045234377 0)
(0.99929333 -0.00058858744 0)
(0.99918001 -0.00072233136 0)
(0.999093 -0.00091556463 0)
(0.99900302 -0.001128942 0)
(0.99894669 -0.0013949178 0)
(0.99891718 -0.0016974253 0)
(0.99894249 -0.0020392415 0)
(0.99902799 -0.0024146014 0)
(0.99919334 -0.0028049528 0)
(0.99944818 -0.0032019708 0)
(0.99980186 -0.0035741152 0)
(1.0002583 -0.0039031761 0)
(1.0008095 -0.0041514638 0)
(1.0014417 -0.0042960669 0)
(1.002125 -0.0043085961 0)
(1.0028281 -0.0041790297 0)
(1.0035112 -0.003904404 0)
(1.004143 -0.0034986972 0)
(1.0046965 -0.0029838694 0)
(1.0051617 -0.0023884691 0)
(1.0055384 -0.0017398757 0)
(1.005843 -0.0010589172 0)
(1.0060996 -0.00035542158 0)
(0.99970124 -0.00019497829 0)
(0.99955382 -0.00028944049 0)
(0.99947719 -0.00032185763 0)
(0.99936533 -0.00044902519 0)
(0.9992628 -0.00052512619 0)
(0.99914602 -0.00069893861 0)
(0.99904015 -0.00084438632 0)
(0.99893301 -0.0010819088 0)
(0.99885231 -0.0013187384 0)
(0.99879349 -0.0016346951 0)
(0.99878307 -0.001968163 0)
(0.99882767 -0.0023591515 0)
(0.99894802 -0.0027642621 0)
(0.99915487 -0.0031935202 0)
(0.99946155 -0.0036091269 0)
(0.99987565 -0.0039988897 0)
(1.0003957 -0.0043225511 0)
(1.0010131 -0.0045552526 0)
(1.0017032 -0.0046623792 0)
(1.0024361 -0.0046266646 0)
(1.0031708 -0.0044366023 0)
(1.0038703 -0.0040995368 0)
(1.0044996 -0.0036331351 0)
(1.0050388 -0.0030664185 0)
(1.005479 -0.0024305386 0)
(1.0058285 -0.0017548385 0)
(1.0061063 -0.0010596724 0)
(1.0063425 -0.00035331796 0)
(0.99970283 -0.00019835067 0)
(0.99953775 -0.00024303651 0)
(0.99947511 -0.00032705272 0)
(0.99934092 -0.00038640027 0)
(0.99924651 -0.00051916786 0)
(0.99910996 -0.00062652305 0)
(0.99899775 -0.0008145777 0)
(0.99886841 -0.0010011908 0)
(0.99876747 -0.001264231 0)
(0.99867989 -0.0015501828 0)
(0.99863694 -0.0018999814 0)
(0.99864068 -0.0022844296 0)
(0.99871666 -0.0027095002 0)
(0.99887405 -0.0031583833 0)
(0.99913018 -0.0036132056 0)
(0.99949556 -0.0040550902 0)
(0.99997491 -0.0044489802 0)
(1.0005656 -0.0047668529 0)
(1.0012491 -0.0049700323 0)
(1.0019994 -0.0050342789 0)
(1.002776 -0.0049392045 0)
(1.0035387 -0.0046837029 0)
(1.0042454 -0.0042789448 0)
(1.0048665 -0.0037510521 0)
(1.0053829 -0.0031330057 0)
(1.0057941 -0.0024594155 0)
(1.0061114 -0.0017601637 0)
(1.0063605 -0.0010547199 0)
(1.0065749 -0.00034937187 0)
(0.99969356 -0.00016793461 0)
(0.99954007 -0.00024621915 0)
(0.99945562 -0.00027526216 0)
(0.99933712 -0.00039058476 0)
(0.99921889 -0.00044991493 0)
(0.999087 -0.00061457567 0)
(0.99895585 -0.00073473707 0)
(0.998815 -0.00096273017 0)
(0.99868908 -0.0011743763 0)
(0.99857699 -0.0014875823 0)
(0.99850181 -0.0018077063 0)
(0.9984684 -0.0022114928 0)
(0.99849956 -0.0026324288 0)
(0.99860772 -0.0031061605 0)
(0.99881097 -0.0035864324 0)
(0.99912269 -0.0040758366 0)
(0.99955335 -0.00453157 0)
(1.0001059 -0.0049302638 0)
(1.0007694 -0.0052283047 0)
(1.0015229 -0.0053963229 0)
(1.0023292 -0.0054050436 0)
(1.003147 -0.0052440574 0)
(1.0039289 -0.0049156855 0)
(1.0046364 -0.0044406669 0)
(1.00524 -0.0038503365 0)
(1.0057282 -0.0031829241 0)
(1.006104 -0.0024747812 0)
(1.0063863 -0.0017559305 0)
(1.0066044 -0.0010442271 0)
(1.0067959 -0.00034366736 0)
(0.99969084 -0.00016790213 5.2286835e-25)
(0.99952558 -0.00021078384 0)
(0.99945883 -0.00027707443 0)
(0.999313 -0.00033182144 0)
(0.99921216 -0.00044979905 0)
(0.99905608 -0.00053922195 0)
(0.99892552 -0.00071382872 0)
(0.99876474 -0.00087475568 0)
(0.99862359 -0.0011264774 0)
(0.99848099 -0.0013876767 0)
(0.99837901 -0.0017376838 0)
(0.99830802 -0.0021114618 0)
(0.99829853 -0.0025560218 0)
(0.99835658 -0.0030279381 0)
(0.99850645 -0.0035390575 0)
(0.99876111 -0.0040610778 0)
(0.99913643 -0.0045738883 0)
(0.99964103 -0.0050455249 0)
(1.0002713 -0.0054353191 0)
(1.0010131 -0.0057080706 0)
(1.0018346 -0.0058271392 0)
(1.0026959 -0.0057723681 0)
(1.0035468 -0.0055357917 0)
(1.0043414 -0.0051299382 0)
(1.0050397 -0.0045818055 0)
(1.0056189 -0.0039297931 0)
(1.0060713 -0.0032154783 0)
(1.006408 -0.0024765791 0)
(1.0066518 -0.001742348 0)
(1.0068372 -0.0010284227 0)
(1.007005 -0.00033630607 0)
(0.9996944 -0.00013312473 -6.133656e-25)
(0.99952125 -0.00020706682 -5.4640123e-25)
(0.99944133 -0.00023979637 0)
(0.9993162 -0.00032932765 0)
(0.99918526 -0.00038773414 0)
(0.99904368 -0.00052952256 0)
(0.99889147 -0.00063525073 0)
(0.99872506 -0.00084111485 0)
(0.99856255 -0.001030837 0)
(0.99840058 -0.001329532 0)
(0.99826296 -0.0016277844 0)
(0.998162 -0.0020346228 0)
(0.99811036 -0.0024487763 0)
(0.99812284 -0.0029490882 0)
(0.99821796 -0.0034614024 0)
(0.99841397 -0.0040215111 0)
(0.99872919 -0.0045757105 0)
(0.99917718 -0.005115464 0)
(0.99976232 -0.0055900986 0)
(1.0004774 -0.0059661385 0)
(1.0012982 -0.0061991554 0)
(1.0021884 -0.0062602346 0)
(1.0030981 -0.0061301299 0)
(1.003976 -0.0058111433 0)
(1.004773 -0.0053226717 0)
(1.0054541 -0.0047005113 0)
(1.006 -0.0039881795 0)
(1.0064112 -0.0032303592 0)
(1.0067037 -0.0024649883 0)
(1.0069068 -0.0017197347 0)
(1.0070583 -0.0010075968 0)
(1.0072019 -0.00032740568 0)
(0.99968479 -0.00014008647 6.15655e-25)
(0.99952686 -0.00016522413 1.5481706e-24)
(0.99943715 -0.00023218283 0)
(0.99929474 -0.00029036305 0)
(0.99918677 -0.00037750651 0)
(0.99901484 -0.00046696812 0)
(0.99887228 -0.00061150768 0)
(0.99868603 -0.0007603453 0)
(0.99851352 -0.00098281563 0)
(0.99832456 -0.0012251001 0)
(0.99816587 -0.0015603979 0)
(0.99802244 -0.0019137077 0)
(0.99793862 -0.0023664062 0)
(0.99790314 -0.0028346744 0)
(0.99794799 -0.0033814471 0)
(0.99808349 -0.0039467471 0)
(0.99833549 -0.0045478609 0)
(0.9987205 -0.0051395858 0)
(0.99924968 -0.0056944494 0)
(0.99992405 -0.0061682633 0)
(1.0007273 -0.0065160043 0)
(1.0016298 -0.0066996276 0)
(1.0025844 -0.0066889692 0)
(1.0035373 -0.0064744864 0)
(1.0044321 -0.0060653672 0)
(1.0052224 -0.0054912324 0)
(1.005876 -0.0047948091 0)
(1.0063814 -0.0040247794 0)
(1.006745 -0.0032275334 0)
(1.0069902 -0.0024403088 0)
(1.0071503 -0.0016885245 0)
(1.0072671 -0.00098208413 0)
(1.0073862 -0.00031709497 0)
(0.99968873 -9.655257e-05 0)
(0.99951378 -0.00017616365 -1.5503869e-24)
(0.99944364 -0.00018701652 0)
(0.99929037 -0.00027502296 0)
(0.99916354 -0.00034006129 0)
(0.99901103 -0.00044165106 0)
(0.99884285 -0.00055262778 0)
(0.99865851 -0.00071638803 0)
(0.9984667 -0.00090092472 0)
(0.99826468 -0.0011610158 0)
(0.99807136 -0.00144653 0)
(0.99790562 -0.0018382813 0)
(0.9977733 -0.0022338194 0)
(0.99770185 -0.0027474613 0)
(0.99769348 -0.0032603528 0)
(0.9977724 -0.0038673091 0)
(0.99795865 -0.0044794073 0)
(0.99827564 -0.0051284989 0)
(0.99874056 -0.0057474635 0)
(0.99936094 -0.006314909 0)
(1.0001304 -0.0067738522 0)
(1.001027 -0.0070835829 0)
(1.0020094 -0.0072025802 0)
(1.0030247 -0.0071090776 0)
(1.0040117 -0.0067997379 0)
(1.0049139 -0.0062948954 0)
(1.0056861 -0.0056327283 0)
(1.0063033 -0.0048633728 0)
(1.0067602 -0.0040391618 0)
(1.0070715 -0.0032071722 0)
(1.0072659 -0.0024030745 0)
(1.0073817 -0.0016492284 0)
(1.0074633 -0.00095225715 0)
(1.0075579 -0.0003055084 0)
(0.9996803 -0.00010742455 -2.7080789e-25)
(0.99951982 -0.00011660161 0)
(0.99942909 -0.00019967382 -2.7258915e-24)
(0.99929662 -0.00022563752 0)
(0.99915908 -0.00031454555 0)
(0.99898954 -0.00041016533 0)
(0.99882928 -0.00050654257 0)
(0.99862757 -0.00066505916 0)
(0.99843192 -0.00083385277 0)
(0.99820557 -0.0010777581 0)
(0.99799974 -0.0013674826 0)
(0.99778857 -0.0017127694 0)
(0.99763445 -0.002152477 0)
(0.99750741 -0.0026017736 0)
(0.99745915 -0.003169024 0)
(0.99747834 -0.003740307 0)
(0.99760162 -0.0044030592 0)
(0.9978472 -0.0050709107 0)
(0.99824057 -0.0057591318 0)
(0.99879639 -0.0064045594 0)
(0.99951629 -0.0069715054 0)
(1.0003884 -0.0074064235 0)
(1.0013795 -0.0076620146 0)
(1.0024405 -0.0077035626 0)
(1.0035089 -0.0075139931 0)
(1.0045205 -0.0071013578 0)
(1.005418 -0.0064957551 0)
(1.0061617 -0.0057450027 0)
(1.0067325 -0.0049051621 0)
(1.0071343 -0.0040312276 0)
(1.0073884 -0.0031697885 0)
(1.0075298 -0.0023539121 0)
(1.0076003 -0.0016024332 0)
(1.0076466 -0.00091851182 0)
(1.007717 -0.00029278317 0)
(0.99968474 -6.4763519e-05 1.2711331e-24)
(0.99950865 -0.00013758872 3.4407423e-24)
(0.99943639 -0.00012988709 2.7240965e-24)
(0.99928206 -0.00023854953 4.0150574e-24)
(0.99916412 -0.00026362388 5.5199632e-24)
(0.99898467 -0.0003673111 0)
(0.99881639 -0.00048577032 0)
(0.99859763 -0.00058879693 0)
(0.99839627 -0.0007921166 0)
(0.9981636 -0.00098356155 0)
(0.99792346 -0.0012818918 0)
(0.99770226 -0.0016206145 0)
(0.99749223 -0.0020130167 0)
(0.99734313 -0.0025158508 0)
(0.99723262 -0.0030093768 0)
(0.99720612 -0.0036453593 0)
(0.99726318 -0.0042720681 0)
(0.99743842 -0.0050012349 0)
(0.99775571 -0.0057180143 0)
(0.99823709 -0.0064461273 0)
(0.99889423 -0.0071065653 0)
(0.99972356 -0.0076649915 0)
(1.0007028 -0.0080595326 0)
(1.0017898 -0.0082469745 0)
(1.002924 -0.0081953275 0)
(1.0040371 -0.0078982748 0)
(1.0050612 -0.0073741756 0)
(1.0059421 -0.0066647458 0)
(1.0066454 -0.0058261661 0)
(1.0071611 -0.0049196014 0)
(1.0075011 -0.0040012707 0)
(1.0076945 -0.0031159971 0)
(1.0077809 -0.0022935825 0)
(1.0078057 -0.0015487741 0)
(1.007817 -0.00088125601 0)
(1.0078636 -0.00027905629 0)
(0.99967802 -7.0598555e-05 -1.6388404e-24)
(0.99951473 -7.5688633e-05 -5.8168693e-24)
(0.99942385 -0.00015786915 0)
(0.99929079 -0.00015400772 -1.3337389e-23)
(0.99915067 -0.00027409354 -5.4919488e-24)
(0.99898463 -0.0003180873 -8.9593136e-24)
(0.9988111 -0.00041949099 -4.7174649e-24)
(0.99860267 -0.00058457428 0)
(0.99834373 -0.00068129095 0)
(0.99811785 -0.00095341208 0)
(0.99787481 -0.0011603416 0)
(0.99760337 -0.001530148 0)
(0.99738859 -0.0019116057 0)
(0.99717285 -0.0023586401 0)
(0.99703973 -0.0029198518 0)
(0.99694322 -0.0034707783 0)
(0.99694791 -0.0041748098 0)
(0.99704958 -0.0048692224 0)
(0.99728959 -0.0056595583 0)
(0.99769053 -0.0064282282 0)
(0.99827209 -0.007186396 0)
(0.99904251 -0.0078556528 0)
(0.99998891 -0.0083897125 0)
(1.0010799 -0.0087293428 0)
(1.0022603 -0.0088308234 0)
(1.0034614 -0.0086716724 0)
(1.0046076 -0.0082555155 0)
(1.0056314 -0.0076137694 0)
(1.0064821 -0.0067988778 0)
(1.007134 -0.0058749095 0)
(1.0075859 -0.0049065605 0)
(1.0078587 -0.003949808 0)
(1.0079881 -0.0030467163 0)
(1.0080185 -0.0022229276 0)
(1.0079977 -0.0014889206 0)
(1.0079745 -0.00084090079 0)
(1.007998 -0.00026446243 0)
(0.99968082 -3.3649306e-05 -1.9076465e-27)
(0.99950519 -9.240797e-05 1.3054485e-24)
(0.9994309 -8.249018e-05 -2.2308026e-24)
(0.99927652 -0.00019187605 4.6836252e-24)
(0.9991607 -0.00017830491 9.6837321e-24)
(0.99897652 -0.00032058526 -7.2457175e-24)
(0.99880287 -0.00037800761 -2.915545e-23)
(0.9985967 -0.0004852095 5.9719094e-24)
(0.99837558 -0.00069591025 0)
(0.99803485 -0.00080111783 0)
(0.99781326 -0.001141453 0)
(0.9975456 -0.001381516 0)
(0.99726297 -0.0018124458 0)
(0.99704841 -0.0022510523 0)
(0.99683882 -0.0027421223 0)
(0.99671722 -0.0033778374 0)
(0.99664396 -0.003985386 0)
(0.99668477 -0.0047717819 0)
(0.99684436 -0.0055306749 0)
(0.99716093 -0.0063864932 0)
(0.99765898 -0.0071997553 0)
(0.99835438 -0.0079837817 0)
(0.99924882 -0.0086473173 0)
(1.0003204 -0.00914271 0)
(1.0015242 -0.0094081931 0)
(1.0027945 -0.00940686 0)
(1.0040521 -0.0091250193 0)
(1.0052186 -0.008579962 0)
(1.0062272 -0.0078158086 0)
(1.0070345 -0.0068958204 0)
(1.0076237 -0.0058904214 0)
(1.0080041 -0.0048662739 0)
(1.0082049 -0.003877727 0)
(1.0082683 -0.0029628988 0)
(1.0082422 -0.0021428595 0)
(1.0081761 -0.0014235586 0)
(1.0081194 -0.00079785371 0)
(1.0081204 -0.00024913252 0)
(0.99967791 -3.3891191e-05 6.4270574e-25)
(0.99950979 -3.6823951e-05 -5.3701216e-25)
(0.99941964 -0.00010768587 0)
(0.99928458 -9.4624024e-05 3.4490956e-24)
(0.99914469 -0.00022288577 6.6761056e-25)
(0.99898688 -0.0002146069 0)
(0.99880296 -0.00036625682 1.86301e-23)
(0.99857688 -0.00045795334 2.5343543e-23)
(0.99837386 -0.00055776349 0)
(0.99809994 -0.00083855999 0)
(0.9976942 -0.00094619533 0)
(0.9974635 -0.0013734924 0)
(0.99719338 -0.0016409557 0)
(0.99689277 -0.0021377098 0)
(0.99669053 -0.002630906 0)
(0.99648212 -0.0031758927 0)
(0.99637964 -0.0038896896 0)
(0.99633365 -0.0045684584 0)
(0.9964234 -0.0054361073 0)
(0.99665254 -0.0062659236 0)
(0.99705992 -0.0071815251 0)
(0.99766989 -0.0080381604 0)
(0.9984927 -0.0088352552 0)
(0.99952255 -0.0094798498 0)
(1.0007243 -0.0099167562 0)
(1.0020407 -0.01008926 0)
(1.0033932 -0.0099665305 0)
(1.0046955 -0.0095482779 0)
(1.0058666 -0.0088657482 0)
(1.0068447 -0.0079766446 0)
(1.0075948 -0.0069537771 0)
(1.0081111 -0.0058724014 0)
(1.008413 -0.004799428 0)
(1.0085381 -0.0037860609 0)
(1.0085339 -0.0028657248 0)
(1.0084514 -0.0020543297 0)
(1.008341 -0.0013533772 0)
(1.0082517 -0.00075251358 0)
(1.0082312 -0.00023319302 0)
(0.99967849 -9.131591e-07 0)
(0.99950539 -4.681169e-05 0)
(0.99942566 -3.8105463e-05 5.5445788e-25)
(0.99927206 -0.00013327696 0)
(0.99915357 -0.00010674385 1.5143219e-26)
(0.99896991 -0.00026187316 -7.2506689e-24)
(0.99881298 -0.00025578124 -3.9084397e-23)
(0.99858845 -0.00042143632 -4.0044129e-23)
(0.99833848 -0.00054904732 0)
(0.99810831 -0.00065298091 0)
(0.99779136 -0.0010080227 0)
(0.99730269 -0.0011320825 0)
(0.99708788 -0.0016410861 0)
(0.99680774 -0.0019470727 0)
(0.99650205 -0.0024986111 0)
(0.99630582 -0.0030625622 0)
(0.9961062 -0.0036611487 0)
(0.99602432 -0.0044712268 0)
(0.99601876 -0.0052212258 0)
(0.99616813 -0.0061778487 0)
(0.99648157 -0.0070757633 0)
(0.99699511 -0.0080520671 0)
(0.99773284 -0.008942134 0)
(0.99869757 -0.0097407025 0)
(0.99987195 -0.010346899 0)
(1.0012078 -0.010705379 0)
(1.0026327 -0.010763351 0)
(1.0040573 -0.010501534 0)
(1.0053889 -0.0099339348 0)
(1.006548 -0.0091076341 0)
(1.0074793 -0.0080931586 0)
(1.0081589 -0.0069715957 0)
(1.0085925 -0.0058211009 0)
(1.0088101 -0.0047069937 0)
(1.0088566 -0.0036761306 0)
(1.0087843 -0.0027563677 0)
(1.008646 -0.0019583164 0)
(1.0084925 -0.0012790576 0)
(1.008372 -0.00070526718 0)
(1.0083309 -0.00021676595 0)
(0.99950645 3.5524077e-06 6.732755e-26)
(0.99967851 1.0301032e-06 0)
(0.99942022 -5.6519518e-05 1.3853284e-24)
(0.99927929 -4.0745495e-05 2.0226306e-24)
(0.99914069 -0.00015700515 7.5859639e-25)
(0.99897934 -0.00012697989 -1.7119992e-24)
(0.99879534 -0.00029986394 -3.4109422e-26)
(0.99859827 -0.00031242764 -4.3112337e-24)
(0.99836347 -0.00048103108 5.3770422e-23)
(0.99805769 -0.00066519253 0)
(0.99781846 -0.00077093046 9.8349041e-23)
(0.99742802 -0.0012227799 0)
(0.99688256 -0.001355222 0)
(0.99667717 -0.001951717 0)
(0.99639873 -0.0022927107 0)
(0.99608241 -0.0029043383 0)
(0.99589687 -0.0035472839 0)
(0.99570701 -0.0042142025 0)
(0.99565733 -0.0051246531 0)
(0.99570274 -0.0059546346 0)
(0.99592617 -0.0069987729 0)
(0.99633933 -0.0079692911 0)
(0.99697656 -0.0089986974 0)
(0.99785916 -0.0099134563 0)
(0.99897903 -0.010695169 0)
(1.0003064 -0.011242877 0)
(1.0017766 -0.011499219 0)
(1.003303 -0.011421233 0)
(1.0047857 -0.01100272 0)
(1.0061292 -0.010274951 0)
(1.0072577 -0.009300834 0)
(1.0081259 -0.0081629751 0)
(1.0087221 -0.0069487851 0)
(1.0090646 -0.005737218 0)
(1.009193 -0.0045903192 0)
(1.0091592 -0.0035493407 0)
(1.0090189 -0.0026361498 0)
(1.0088259 -0.0018558054 0)
(1.0086309 -0.0012012655 0)
(1.0084805 -0.00065648772 0)
(1.0084199 -0.00019996865 0)
(0.9994217 7.606494e-06 -1.2449198e-24)
(0.9995065 -3.4139859e-06 0)
(0.99967793 3.4005694e-05 6.4271794e-25)
(0.99927274 -7.2333638e-05 -2.0214488e-24)
(0.99914857 -4.3916736e-05 -3.7391802e-25)
(0.99896716 -0.00018656485 -1.3685465e-23)
(0.99880459 -0.00015136137 2.5941341e-23)
(0.99857843 -0.00034568699 1.1625543e-23)
(0.99837362 -0.00037802091 4.104176e-23)
(0.9980926 -0.00055923851 1.7978219e-23)
(0.99775684 -0.00080153516 9.6119597e-23)
(0.99747523 -0.00092930184 -1.0252476e-22)
(0.99703373 -0.0014761333 0)
(0.99642231 -0.0016214472 0)
(0.99624152 -0.0022968551 0)
(0.99595676 -0.002686224 0)
(0.99563584 -0.003357367 0)
(0.99545793 -0.0041021499 0)
(0.9952902 -0.0048391584 0)
(0.99528149 -0.0058610416 0)
(0.99539237 -0.0067714706 0)
(0.99570441 -0.0079095397 0)
(0.99623587 -0.0089490731 0)
(0.99701599 -0.010025229 0)
(0.99806036 -0.010948942 0)
(0.99934849 -0.011694564 0)
(1.000834 -0.012158847 0)
(1.0024359 -0.012288543 0)
(1.0040525 -0.012052295 0)
(1.0055764 -0.011461153 0)
(1.0069117 -0.010564562 0)
(1.0079904 -0.0094413443 0)
(1.0087792 -0.0081844792 0)
(1.0092803 -0.0068854771 0)
(1.0095242 -0.0056219505 0)
(1.00956 -0.0044509578 0)
(1.0094449 -0.0034072861 0)
(1.0092373 -0.0025063386 0)
(1.0089913 -0.001747776 0)
(1.0087564 -0.0011206468 0)
(1.0085777 -0.00060653356 0)
(1.0084987 -0.00018291258 0)
(0.99927485 1.3864342e-05 -5.1103485e-25)
(0.99942178 -7.4837167e-06 -1.5953255e-24)
(0.99950543 4.6954347e-05 0)
(0.99968085 3.3752031e-05 -1.8972954e-27)
(0.99914106 -8.6769264e-05 3.7645591e-25)
(0.9989749 -5.0280884e-05 6.8491808e-24)
(0.99879239 -0.00021406915 0)
(0.99858715 -0.00018557962 -1.1547224e-23)
(0.99834811 -0.0003939283 1.7118627e-23)
(0.99810454 -0.00046195295 -1.7748734e-23)
(0.99779564 -0.0006563399 -9.5374908e-23)
(0.99740845 -0.00097389484 -1.0000445e-22)
(0.99709697 -0.0011278229 0)
(0.99660292 -0.0017736846 0)
(0.99593206 -0.0019236441 0)
(0.99577116 -0.0026832578 0)
(0.99548348 -0.0031304759 0)
(0.99515605 -0.0038739305 0)
(0.99499417 -0.0047318211 0)
(0.99485761 -0.0055477126 0)
(0.99490298 -0.0066835718 0)
(0.99509317 -0.0076836165 0)
(0.99551244 -0.0089146342 0)
(0.99618287 -0.010021238 0)
(0.99712605 -0.011130673 0)
(0.99834969 -0.012046476 0)
(0.99981677 -0.012731034 0)
(1.0014631 -0.01308516 0)
(1.0031892 -0.013061628 0)
(1.0048809 -0.012645763 0)
(1.0064255 -0.011867859 0)
(1.007731 -0.01079673 0)
(1.00874 -0.0095259803 0)
(1.0094338 -0.0081568529 0)
(1.0098291 -0.0067824577 0)
(1.0099685 -0.0054768593 0)
(1.0099091 -0.0042907317 0)
(1.0097129 -0.0032515844 0)
(1.0094394 -0.0023682795 0)
(1.0091424 -0.001635188 0)
(1.0088696 -0.0010378233 0)
(1.0086641 -0.00055574429 0)
(1.0085678 -0.00016570116 0)
(0.99914378 1.9268238e-05 6.9583132e-25)
(0.99927489 -1.3736506e-05 5.1106545e-25)
(0.99942028 5.6688586e-05 1.3853594e-24)
(0.99950983 3.6919465e-05 5.37032e-25)
(0.99967805 7.0722239e-05 -2.1869396e-24)
(0.99896653 -0.00010438024 -6.8415448e-24)
(0.99880144 -5.9933993e-05 -4.6002994e-24)
(0.99857504 -0.00024558431 0)
(0.9983574 -0.00022557681 -1.693028e-23)
(0.9980692 -0.00045428426 5.8220954e-24)
(0.99780864 -0.00056102309 0)
(0.99744587 -0.0007868644 1.1236539e-22)
(0.99702299 -0.0011811905 0)
(0.99667691 -0.0013691009 0)
(0.99614431 -0.0021065738 0)
(0.99540002 -0.0022676457 0)
(0.99526719 -0.0031131172 0)
(0.99497121 -0.0036428283 0)
(0.99464681 -0.0044614291 0)
(0.99450674 -0.0054477224 0)
(0.99441472 -0.0063435505 0)
(0.99452573 -0.0076050668 0)
(0.99481387 -0.0086975617 0)
(0.99536148 -0.010022281 0)
(0.99619363 -0.011187306 0)
(0.99732148 -0.012315549 0)
(0.99874056 -0.013199959 0)
(1.0003952 -0.013795724 0)
(1.0022001 -0.014009517 0)
(1.0040388 -0.013806105 0)
(1.005786 -0.013190362 0)
(1.0073279 -0.012214413 0)
(1.0085805 -0.010966219 0)
(1.0095 -0.0095525033 0)
(1.0100842 -0.008080109 0)
(1.0103645 -0.0066410689 0)
(1.0103948 -0.0053038941 0)
(1.0102392 -0.0041115809 0)