/*--------------------------------*- C++ -*----------------------------------*\
| =========                 |                                                 |
| \\      /  F ield         | OpenFOAM: The Open Source CFD Toolbox           |
|  \\    /   O peration     | Version:  5.0                                   |
|   \\  /    A nd           | Web:      www.OpenFOAM.org                      |
|    \\/     M anipulation  |                                                 |
\*---------------------------------------------------------------------------*/
FoamFile
{
    version     2.0;
    format      ascii;
    class       volSymmTensorField;
    location    "20";
    object      UPrime2Mean;
}
// * * * * * * * * * * * * * * * * * * * * * * * * * * * * * * * * * * * * * //

dimensions      [0 2 -2 0 0 0 0];

internalField   nonuniform List<symmTensor> 
9520
(
(5.4166382e-10 -1.0562421e-10 0 7.6488785e-10 0 0)
(5.0201598e-10 -3.1679055e-10 0 6.4341032e-09 0 0)
(5.3293676e-09 -1.9630354e-09 0 8.1332051e-10 0 0)
(4.4120929e-10 -5.2825673e-10 0 1.6072842e-08 0 0)
(5.0154532e-09 -5.5273585e-09 0 6.8371563e-09 0 0)
(1.1397365e-08 -3.0725266e-09 0 8.6574029e-10 0 0)
(3.6925307e-10 -7.1357881e-10 0 2.781474e-08 0 0)
(4.4345601e-09 -8.2085332e-09 0 1.713715e-08 0 0)
(1.0681554e-08 -8.6172972e-09 0 7.2651319e-09 0 0)
(2.5975624e-08 -5.0049683e-09 0 9.8290555e-10 0 0)
(2.8731328e-10 -8.4568999e-10 0 4.00528e-08 0 0)
(3.721619e-09 -9.9097555e-09 0 2.9811181e-08 0 0)
(9.5006976e-09 -1.2879756e-08 0 1.8233822e-08 0 0)
(2.4430514e-08 -1.40892e-08 0 8.2855734e-09 0 0)
(4.2154966e-08 -6.8157782e-09 0 1.1148686e-09 0 0)
(2.0643021e-10 -9.0741798e-10 0 5.1549706e-08 0 0)
(2.9534482e-09 -1.0629924e-08 0 4.3132851e-08 0 0)
(7.9710099e-09 -1.5567446e-08 0 3.1742627e-08 0 0)
(2.1733092e-08 -2.1104288e-08 0 2.0904173e-08 0 0)
(3.9615257e-08 -1.9160219e-08 0 9.3806268e-09 0 0)
(6.7716662e-08 -9.403037e-09 0 1.3157338e-09 0 0)
(1.3514634e-10 -8.9133971e-10 0 6.14225e-08 0 0)
(2.1827289e-09 -1.0401605e-08 0 5.5743503e-08 0 0)
(6.2937087e-09 -1.664578e-08 0 4.5987766e-08 0 0)
(1.8294699e-08 -2.563119e-08 0 3.6643868e-08 0 0)
(3.5305733e-08 -2.8758602e-08 0 2.3719496e-08 0 0)
(6.3856221e-08 -2.6535549e-08 0 1.1114985e-08 0 0)
(9.5584478e-08 -1.1976554e-08 0 1.5107598e-09 0 0)
(7.7050588e-11 -7.964108e-10 0 6.9150449e-08 0 0)
(1.4693247e-09 -9.3404801e-09 0 6.6683136e-08 0 0)
(4.625526e-09 -1.623062e-08 0 5.9552684e-08 0 0)
(1.4529131e-08 -2.7594226e-08 0 5.3514377e-08 0 0)
(2.9758291e-08 -3.4999621e-08 0 4.1695141e-08 0 0)
(5.7251612e-08 -4.0029153e-08 0 2.8222107e-08 0 0)
(9.0232962e-08 -3.3953409e-08 0 1.2856851e-08 0 0)
(1.3574242e-07 -1.5489981e-08 0 1.7795465e-09 0 0)
(3.4783065e-11 -6.3366943e-10 0 7.4523859e-08 0 0)
(8.6493901e-10 -7.6203146e-09 0 7.5373694e-08 0 0)
(3.1031531e-09 -1.4544523e-08 0 7.1419143e-08 0 0)
(1.0756954e-08 -2.7119126e-08 0 6.9881766e-08 0 0)
(2.3681334e-08 -3.7774097e-08 0 6.1073405e-08 0 0)
(4.8674804e-08 -4.9105289e-08 0 4.9971696e-08 0 0)
(8.122752e-08 -5.1379685e-08 0 3.2720339e-08 0 0)
(1.2866279e-07 -4.4345841e-08 0 1.5364806e-08 0 0)
(1.7828114e-07 -1.8967368e-08 0 2.0323238e-09 0 0)
(9.5283781e-12 -4.1918127e-10 0 7.7569871e-08 0 0)
(4.0790837e-10 -5.4383664e-09 0 8.155399e-08 0 0)
(1.8256878e-09 -1.1858259e-08 0 8.0965765e-08 0 0)
(7.2818231e-09 -2.451218e-08 0 8.4486817e-08 0 0)
(1.7604943e-08 -3.7270537e-08 0 8.0060985e-08 0 0)
(3.9163659e-08 -5.3504447e-08 0 7.378778e-08 0 0)
(6.9428798e-08 -6.3352503e-08 0 5.8218001e-08 0 0)
(1.1656423e-07 -6.745901e-08 0 3.9265017e-08 0 0)
(1.6961361e-07 -5.4769414e-08 0 1.7772588e-08 0 0)
(2.3627164e-07 -2.3639806e-08 0 2.3812154e-09 0 0)
(1.3022916e-12 -1.7519048e-10 0 7.8490286e-08 0 0)
(1.1913737e-10 -2.9872851e-09 0 8.5216647e-08 0 0)
(8.6467211e-10 -8.4717405e-09 0 8.7889765e-08 0 0)
(4.3380897e-09 -2.0190777e-08 0 9.6527479e-08 0 0)
(1.200922e-08 -3.3891205e-08 0 9.722445e-08 0 0)
(2.9485736e-08 -5.3356018e-08 0 9.7564938e-08 0 0)
(5.6291908e-08 -6.9476292e-08 0 8.6418389e-08 0 0)
(1.0060364e-07 -8.3887852e-08 0 7.0375316e-08 0 0)
(1.5447918e-07 -8.3714803e-08 0 4.5609456e-08 0 0)
(2.2599033e-07 -6.8659823e-08 0 2.0960872e-08 0 0)
(2.9695049e-07 -2.8394335e-08 0 2.731063e-09 0 0)
(8.9200869e-12 8.0720102e-11 0 7.7566063e-08 0 0)
(4.3931525e-12 -4.4612769e-10 0 8.654851e-08 0 0)
(2.5706637e-10 -4.6740575e-09 0 9.2151693e-08 0 0)
(2.0979949e-09 -1.4631838e-08 0 1.0555324e-07 0 0)
(7.253695e-09 -2.8177808e-08 0 1.1163585e-07 0 0)
(2.0447048e-08 -4.913879e-08 0 1.1954841e-07 0 0)
(4.2881174e-08 -6.9921206e-08 0 1.1502818e-07 0 0)
(8.2546257e-08 -9.2914746e-08 0 1.0529893e-07 0 0)
(1.3448603e-07 -1.0486014e-07 0 8.2230203e-08 0 0)
(2.0714031e-07 -1.0559215e-07 0 5.41029e-08 0 0)
(2.8539666e-07 -8.2473027e-08 0 2.3950652e-08 0 0)
(3.7566153e-07 -3.4463521e-08 0 3.1775177e-09 0 0)
(3.0359604e-11 3.2361644e-10 0 7.5174409e-08 0 0)
(5.5616733e-11 2.0389999e-09 0 8.5813668e-08 0 0)
(1.1052825e-11 -7.3204755e-10 0 9.3925098e-08 0 0)
(6.5607231e-10 -8.3097425e-09 0 1.114314e-07 0 0)
(3.6030177e-09 -2.0747307e-08 0 1.2273609e-07 0 0)
(1.264013e-08 -4.1519098e-08 0 1.3852243e-07 0 0)
(3.0215815e-08 -6.514195e-08 0 1.4196048e-07 0 0)
(6.3838152e-08 -9.4622637e-08 0 1.4137111e-07 0 0)
(1.1159416e-07 -1.1720856e-07 0 1.2390464e-07 0 0)
(1.8221365e-07 -1.3338354e-07 0 9.8187154e-08 0 0)
(2.6325715e-07 -1.2760335e-07 0 6.2168522e-08 0 0)
(3.6271259e-07 -9.9817993e-08 0 2.7610441e-08 0 0)
(4.5747501e-07 -4.0412613e-08 0 3.5861535e-09 0 0)
(6.3471894e-11 5.5248178e-10 0 7.1593612e-08 0 0)
(2.5398761e-10 4.3454372e-09 0 8.3433826e-08 0 0)
(1.0913637e-10 3.1366605e-09 0 9.3454124e-08 0 0)
(4.0141335e-11 -1.6717552e-09 0 1.1429446e-07 0 0)
(1.2047239e-09 -1.2214198e-08 0 1.3031565e-07 0 0)
(6.5208727e-09 -3.1291407e-08 0 1.5365917e-07 0 0)
(1.9123924e-08 -5.5900312e-08 0 1.6575684e-07 0 0)
(4.5877379e-08 -8.9428062e-08 0 1.760617e-07 0 0)
(8.7621506e-08 -1.2074401e-07 0 1.6767523e-07 0 0)
(1.5317095e-07 -1.5066372e-07 0 1.4914542e-07 0 0)
(2.3395206e-07 -1.6249965e-07 0 1.135156e-07 0 0)
(3.3704733e-07 -1.554661e-07 0 7.2089188e-08 0 0)
(4.4339741e-07 -1.168198e-07 0 3.0943139e-08 0 0)
(5.5847056e-07 -4.7306524e-08 0 4.0261794e-09 0 0)
(1.0445278e-10 7.328721e-10 0 6.7304649e-08 0 0)
(5.7640803e-10 6.4025615e-09 0 7.9639019e-08 0 0)
(5.1422944e-10 6.749685e-09 0 9.1183909e-08 0 0)
(2.1806568e-10 4.9053014e-09 0 1.1436584e-07 0 0)
(1.0868639e-10 -3.1613683e-09 0 1.3446182e-07 0 0)
(2.3699258e-09 -1.9288268e-08 0 1.6456019e-07 0 0)
(1.0257053e-08 -4.3119395e-08 0 1.8533725e-07 0 0)
(2.9853126e-08 -7.8170846e-08 0 2.0751029e-07 0 0)
(6.4239813e-08 -1.1575076e-07 0 2.1062843e-07 0 0)
(1.2231349e-07 -1.5720806e-07 0 2.0362222e-07 0 0)
(1.9928166e-07 -1.8549811e-07 0 1.7380013e-07 0 0)
(3.0280224e-07 -1.9970202e-07 0 1.3249087e-07 0 0)
(4.1521742e-07 -1.8315088e-07 0 8.1236982e-08 0 0)
(5.4328625e-07 -1.369011e-07 0 3.4694747e-08 0 0)
(6.6236486e-07 -5.3775528e-08 0 4.3899517e-09 0 0)
(1.5202983e-10 9.0360588e-10 0 6.2298967e-08 0 0)
(9.8779807e-10 8.1417595e-09 0 7.5074103e-08 0 0)
(1.1802584e-09 9.992414e-09 0 8.7298249e-08 0 0)
(1.1115868e-09 1.1106651e-08 0 1.1217301e-07 0 0)
(2.7758251e-10 5.9091139e-09 0 1.3535242e-07 0 0)
(3.1152791e-10 -6.3247879e-09 0 1.7119657e-07 0 0)
(4.0482013e-09 -2.7805671e-08 0 2.0010955e-07 0 0)
(1.6730345e-08 -6.1919576e-08 0 2.34239e-07 0 0)
(4.2992952e-08 -1.0306616e-07 0 2.5052347e-07 0 0)
(9.1659864e-08 -1.5308448e-07 0 2.5823725e-07 0 0)
(1.6188566e-07 -1.9606667e-07 0 2.3936924e-07 0 0)
(2.6158802e-07 -2.305304e-07 0 2.0455467e-07 0 0)
(3.7716473e-07 -2.3735414e-07 0 1.5031204e-07 0 0)
(5.1300121e-07 -2.1615332e-07 0 9.1620089e-08 0 0)
(6.4681132e-07 -1.5621504e-07 0 3.7960389e-08 0 0)
(7.8471039e-07 -6.0894414e-08 0 4.7564351e-09 0 0)
(1.9645829e-10 9.8218422e-10 0 5.7383548e-08 0 0)
(1.4788788e-09 9.5823572e-09 0 6.9497277e-08 0 0)
(2.0411369e-09 1.2770738e-08 0 8.2574906e-08 0 0)
(2.6173914e-09 1.6713319e-08 0 1.0785877e-07 0 0)
(1.6055598e-09 1.4571847e-08 0 1.3355662e-07 0 0)
(3.270253e-10 6.8676087e-09 0 1.7367088e-07 0 0)
(7.2328343e-10 -1.0966522e-08 0 2.0989707e-07 0 0)
(7.2042121e-09 -4.1909911e-08 0 2.5533335e-07 0 0)
(2.5166908e-08 -8.3815072e-08 0 2.8548363e-07 0 0)
(6.3221148e-08 -1.3905191e-07 0 3.1022213e-07 0 0)
(1.2402657e-07 -1.9395593e-07 0 3.0649037e-07 0 0)
(2.1635185e-07 -2.4698286e-07 0 2.843305e-07 0 0)
(3.3054165e-07 -2.7713249e-07 0 2.3404623e-07 0 0)
(4.7126709e-07 -2.8268559e-07 0 1.7071394e-07 0 0)
(6.1581977e-07 -2.4838759e-07 0 1.0083041e-07 0 0)
(7.6939859e-07 -1.7771183e-07 0 4.1322716e-08 0 0)
(9.092219e-07 -6.7507204e-08 0 5.0496498e-09 0 0)
(2.5075686e-10 1.1065137e-09 0 5.1720256e-08 0 0)
(1.9849947e-09 1.0701357e-08 0 6.4258574e-08 0 0)
(3.0644407e-09 1.5048462e-08 0 7.6567942e-08 0 0)
(4.5950863e-09 2.1577349e-08 0 1.0248054e-07 0 0)
(3.9437419e-09 2.2503366e-08 0 1.2913601e-07 0 0)
(2.2809652e-09 1.9659884e-08 0 1.7262545e-07 0 0)
(3.1762459e-10 6.4606931e-09 0 2.1468724e-07 0 0)
(1.6887172e-09 -1.9420427e-08 0 2.7036734e-07 0 0)
(1.1759237e-08 -5.9385499e-08 0 3.1423335e-07 0 0)
(3.8726438e-08 -1.1625168e-07 0 3.5715658e-07 0 0)
(8.8144831e-08 -1.7971123e-07 0 3.7190791e-07 0 0)
(1.6960858e-07 -2.4837091e-07 0 3.6772729e-07 0 0)
(2.7837277e-07 -3.0099895e-07 0 3.2838459e-07 0 0)
(4.1913786e-07 -3.3394126e-07 0 2.6814209e-07 0 0)
(5.722414e-07 -3.2788624e-07 0 1.8924076e-07 0 0)
(7.3873926e-07 -2.8461962e-07 0 1.1042841e-07 0 0)
(8.9532384e-07 -1.9786306e-07 0 4.4047456e-08 0 0)
(1.0498574e-06 -7.4399448e-08 0 5.3168608e-09 0 0)
(2.8627156e-10 1.0604602e-09 0 4.7259221e-08 0 0)
(2.5678663e-09 1.1517848e-08 0 5.766887e-08 0 0)
(4.1321458e-09 1.683868e-08 0 7.107297e-08 0 0)
(6.9573826e-09 2.5581547e-08 0 9.5277476e-08 0 0)
(7.0913619e-09 2.9501363e-08 0 1.2339213e-07 0 0)
(5.9560767e-09 3.1536884e-08 0 1.6804123e-07 0 0)
(2.7029925e-09 2.3651148e-08 0 2.1512368e-07 0 0)
(3.351136e-10 4.3095686e-09 0 2.7915004e-07 0 0)
(3.4296803e-09 -3.1267971e-08 0 3.3602973e-07 0 0)
(1.9612258e-08 -8.622582e-08 0 3.9724888e-07 0 0)
(5.6413853e-08 -1.5435725e-07 0 4.3267494e-07 0 0)
(1.2428187e-07 -2.3487816e-07 0 4.5091458e-07 0 0)
(2.2328153e-07 -3.0771709e-07 0 4.2905656e-07 0 0)
(3.5954671e-07 -3.6780694e-07 0 3.7986867e-07 0 0)
(5.165593e-07 -3.9196133e-07 0 2.9991107e-07 0 0)
(6.9438066e-07 -3.7926295e-07 0 2.0878653e-07 0 0)
(8.6674176e-07 -3.1912851e-07 0 1.1840262e-07 0 0)
(1.0382337e-06 -2.1889516e-07 0 4.652585e-08 0 0)
(1.191332e-06 -8.0534051e-08 0 5.4953597e-09 0 0)
(3.5381764e-10 1.1920008e-09 0 4.1146177e-08 0 0)
(3.0370898e-09 1.2099164e-08 0 5.3203934e-08 0 0)
(5.3286807e-09 1.8063021e-08 0 6.3699284e-08 0 0)
(9.4810403e-09 2.883833e-08 0 8.8846787e-08 0 0)
(1.0895024e-08 3.5322391e-08 0 1.1521516e-07 0 0)
(1.1059761e-08 4.2196103e-08 0 1.615982e-07 0 0)
(7.6265015e-09 3.9885899e-08 0 2.1107525e-07 0 0)
(3.057256e-09 2.8160161e-08 0 2.8229756e-07 0 0)
(5.1480531e-10 -9.6858849e-10 0 3.504381e-07 0 0)
(6.9116013e-09 -5.0716699e-08 0 4.2930147e-07 0 0)
(3.0752836e-08 -1.1945876e-07 0 4.8643274e-07 0 0)
(8.3085947e-08 -2.0729257e-07 0 5.3030265e-07 0 0)
(1.6855971e-07 -2.969222e-07 0 5.3175707e-07 0 0)
(2.9511421e-07 -3.8234764e-07 0 5.0154227e-07 0 0)
(4.5130368e-07 -4.378202e-07 0 4.2908714e-07 0 0)
(6.3621262e-07 -4.5883094e-07 0 3.3390548e-07 0 0)
(8.2420719e-07 -4.2934939e-07 0 2.2557549e-07 0 0)
(1.0135189e-06 -3.5559426e-07 0 1.2582176e-07 0 0)
(1.1833153e-06 -2.3783519e-07 0 4.823321e-08 0 0)
(1.3451044e-06 -8.6420378e-08 0 5.611762e-09 0 0)
(3.6454928e-10 1.0054475e-09 0 3.8131776e-08 0 0)
(3.6945359e-09 1.2290719e-08 0 4.5657326e-08 0 0)
(6.3418882e-09 1.9030167e-08 0 5.9162386e-08 0 0)
(1.2266085e-08 3.1005295e-08 0 7.9584798e-08 0 0)
(1.5050958e-08 4.0193882e-08 0 1.0800035e-07 0 0)
(1.7321949e-08 5.1184529e-08 0 1.5174093e-07 0 0)
(1.4733511e-08 5.4737901e-08 0 2.0451418e-07 0 0)
(9.5784886e-09 5.1112118e-08 0 2.7955124e-07 0 0)
(3.0421377e-09 3.0103822e-08 0 3.5793434e-07 0 0)
(1.2560807e-09 -1.156458e-08 0 4.5252503e-07 0 0)
(1.2645607e-08 -7.6906842e-08 0 5.3145137e-07 0 0)
(4.8559326e-08 -1.6711315e-07 0 6.0279511e-07 0 0)
(1.1742284e-07 -2.6897135e-07 0 6.3230106e-07 0 0)
(2.2944738e-07 -3.7643901e-07 0 6.2840252e-07 0 0)
(3.7889129e-07 -4.6274689e-07 0 5.7260666e-07 0 0)
(5.6611944e-07 -5.19839e-07 0 4.8257745e-07 0 0)
(7.6653634e-07 -5.2576121e-07 0 3.6413925e-07 0 0)
(9.7493251e-07 -4.8304012e-07 0 2.4157976e-07 0 0)
(1.1645994e-06 -3.8909923e-07 0 1.3122235e-07 0 0)
(1.3417159e-06 -2.5617448e-07 0 4.940893e-08 0 0)
(1.497723e-06 -9.12918e-08 0 5.6321852e-09 0 0)
(4.5475546e-10 1.208468e-09 0 3.1369846e-08 0 0)
(3.952683e-09 1.2500619e-08 0 4.331612e-08 0 0)
(7.648836e-09 1.9194546e-08 0 5.0384921e-08 0 0)
(1.4784428e-08 3.2944071e-08 0 7.4382367e-08 0 0)
(1.9605527e-08 4.3429447e-08 0 9.6955781e-08 0 0)
(2.4332711e-08 5.8899234e-08 0 1.4300226e-07 0 0)
(2.3642795e-08 6.7509884e-08 0 1.9346635e-07 0 0)
(1.9476874e-08 7.2531931e-08 0 2.7322703e-07 0 0)
(1.0779303e-08 6.062607e-08 0 3.5810501e-07 0 0)
(2.8728692e-09 2.9438176e-08 0 4.671628e-07 0 0)
(3.1179986e-09 -2.8802798e-08 0 5.6647776e-07 0 0)
(2.2792599e-08 -1.1634613e-07 0 6.6596665e-07 0 0)
(7.3051022e-08 -2.2509533e-07 0 7.2681698e-07 0 0)
(1.6628922e-07 -3.4979497e-07 0 7.5562214e-07 0 0)
(3.0302941e-07 -4.6465935e-07 0 7.2546882e-07 0 0)
(4.8605363e-07 -5.5866737e-07 0 6.5107614e-07 0 0)
(6.9456111e-07 -6.0421182e-07 0 5.3175925e-07 0 0)
(9.2016673e-07 -5.9868834e-07 0 3.9366802e-07 0 0)
(1.1332404e-06 -5.3372654e-07 0 2.5396187e-07 0 0)
(1.3313584e-06 -4.2213503e-07 0 1.3526076e-07 0 0)
(1.5003813e-06 -2.7165883e-07 0 4.9750847e-08 0 0)
(1.657739e-06 -9.5467443e-08 0 5.5750376e-09 0 0)
(4.2300374e-10 8.5892998e-10 0 3.0496176e-08 0 0)
(4.7484845e-09 1.2040472e-08 0 3.4436789e-08 0 0)
(8.3326477e-09 1.9762316e-08 0 4.8452743e-08 0 0)
(1.7756315e-08 3.3117442e-08 0 6.293826e-08 0 0)
(2.3930417e-08 4.6529255e-08 0 9.1080189e-08 0 0)
(3.1987299e-08 6.4106186e-08 0 1.2896188e-07 0 0)
(3.3866253e-08 7.8721699e-08 0 1.8347568e-07 0 0)
(3.2234481e-08 9.1391638e-08 0 2.608744e-07 0 0)
(2.3292572e-08 8.9707471e-08 0 3.5345985e-07 0 0)
(1.1633443e-08 7.0578256e-08 0 4.7259885e-07 0 0)
(2.7055362e-09 2.2706791e-08 0 5.913978e-07 0 0)
(7.3634885e-09 -5.7364067e-08 0 7.1790658e-07 0 0)
(3.8221457e-08 -1.6724099e-07 0 8.120891e-07 0 0)
(1.095547e-07 -3.0317141e-07 0 8.7841734e-07 0 0)
(2.2785191e-07 -4.4237305e-07 0 8.823411e-07 0 0)
(3.9960192e-07 -5.720426e-07 0 8.3435359e-07 0 0)
(6.0949074e-07 -6.6016267e-07 0 7.2551065e-07 0 0)
(8.4881659e-07 -6.978798e-07 0 5.809854e-07 0 0)
(1.0854331e-06 -6.6962254e-07 0 4.178672e-07 0 0)
(1.3102497e-06 -5.8469959e-07 0 2.6390942e-07 0 0)
(1.5006987e-06 -4.5084437e-07 0 1.3704913e-07 0 0)
(1.6676244e-06 -2.8516254e-07 0 4.9405915e-08 0 0)
(1.8142957e-06 -9.8445902e-08 0 5.4286693e-09 0 0)
(5.4628424e-10 1.1746615e-09 0 2.3010879e-08 0 0)
(4.629653e-09 1.2201086e-08 0 3.5010246e-08 0 0)
(9.8522761e-09 1.8815955e-08 0 3.7846866e-08 0 0)
(1.9708477e-08 3.4490271e-08 0 6.1128523e-08 0 0)
(2.8744261e-08 4.6825401e-08 0 7.7064222e-08 0 0)
(3.95981e-08 6.9261708e-08 0 1.2153985e-07 0 0)
(4.5094048e-08 8.6580135e-08 0 1.6668356e-07 0 0)
(4.7264026e-08 1.0829731e-07 0 2.4925705e-07 0 0)
(3.9984797e-08 1.160008e-07 0 3.4114512e-07 0 0)
(2.7124611e-08 1.1058835e-07 0 4.7151013e-07 0 0)
(1.1487448e-08 7.5535752e-08 0 6.0529643e-07 0 0)
(3.257582e-09 7.2718465e-09 0 7.5802309e-07 0 0)
(1.518902e-08 -9.7918352e-08 0 8.8537612e-07 0 0)
(6.2861344e-08 -2.3829197e-07 0 9.9256718e-07 0 0)
(1.5794964e-07 -3.9586325e-07 0 1.0375538e-06 0 0)
(3.1116164e-07 -5.5758727e-07 0 1.026689e-06 0 0)
(5.1447867e-07 -6.8901595e-07 0 9.4068163e-07 0 0)
(7.6100387e-07 -7.7517971e-07 0 8.0181514e-07 0 0)
(1.0191285e-06 -7.9178739e-07 0 6.2341724e-07 0 0)
(1.2730871e-06 -7.4247581e-07 0 4.3850028e-07 0 0)
(1.4935347e-06 -6.3057458e-07 0 2.6961e-07 0 0)
(1.6811888e-06 -4.7666298e-07 0 1.3697605e-07 0 0)
(1.8326045e-06 -2.9516033e-07 0 4.8261018e-08 0 0)
(1.9726863e-06 -1.0038118e-07 0 5.2059601e-09 0 0)
(4.6660664e-10 6.7339864e-10 0 2.4037967e-08 0 0)
(5.7196288e-09 1.1194303e-08 0 2.4930828e-08 0 0)
(9.8967976e-09 1.9437759e-08 0 3.9352484e-08 0 0)
(2.289805e-08 3.2462264e-08 0 4.7100774e-08 0 0)
(3.2464848e-08 4.9213598e-08 0 7.5139894e-08 0 0)
(4.7648218e-08 7.0004065e-08 0 1.0338237e-07 0 0)
(5.6648307e-08 9.4383429e-08 0 1.5758735e-07 0 0)
(6.3979994e-08 1.2076739e-07 0 2.2878854e-07 0 0)
(6.0188749e-08 1.4005413e-07 0 3.28909e-07 0 0)
(4.8700466e-08 1.4776217e-07 0 4.6058098e-07 0 0)
(2.9164046e-08 1.2799004e-07 0 6.1089044e-07 0 0)
(1.0876099e-08 7.5026668e-08 0 7.8490791e-07 0 0)
(5.5347601e-09 -2.0025511e-08 0 9.4545691e-07 0 0)
(2.934005e-08 -1.5770716e-07 0 1.0942386e-06 0 0)
(9.7821952e-08 -3.2632453e-07 0 1.1857723e-06 0 0)
(2.2596314e-07 -5.1414329e-07 0 1.2215173e-06 0 0)
(4.1390314e-07 -6.8694507e-07 0 1.1714944e-06 0 0)
(6.5906022e-07 -8.2453327e-07 0 1.0522068e-06 0 0)
(9.3301314e-07 -8.9401423e-07 0 8.7054164e-07 0 0)
(1.2161118e-06 -8.904457e-07 0 6.6143869e-07 0 0)
(1.4719481e-06 -8.1049455e-07 0 4.524683e-07 0 0)
(1.6915185e-06 -6.7318402e-07 0 2.7174294e-07 0 0)
(1.8616442e-06 -4.9687762e-07 0 1.3466945e-07 0 0)
(2.0006998e-06 -3.0207734e-07 0 4.6422397e-08 0 0)
(2.1260254e-06 -1.0103575e-07 0 4.9113166e-09 0 0)
(6.2344641e-10 1.1146145e-09 0 1.6658055e-08 0 0)
(5.0819531e-09 1.1382952e-08 0 2.7719999e-08 0 0)
(1.1857992e-08 1.7475858e-08 0 2.7275149e-08 0 0)
(2.3749149e-08 3.4094322e-08 0 4.9576867e-08 0 0)
(3.7387911e-08 4.6238723e-08 0 5.7938951e-08 0 0)
(5.4830255e-08 7.4064614e-08 0 1.00449e-07 0 0)
(6.8627243e-08 9.6248766e-08 0 1.3542998e-07 0 0)
(8.1698319e-08 1.3301081e-07 0 2.170937e-07 0 0)
(8.3131546e-08 1.5884129e-07 0 3.0568608e-07 0 0)
(7.5594974e-08 1.8243949e-07 0 4.4869887e-07 0 0)
(5.5134312e-08 1.780461e-07 0 6.043435e-07 0 0)
(3.01187e-08 1.4365955e-07 0 8.0136263e-07 0 0)
(1.0135763e-08 6.3477105e-08 0 9.9016317e-07 0 0)
(1.1376326e-08 -6.4624393e-08 0 1.1813048e-06 0 0)
(5.1608275e-08 -2.3608669e-07 0 1.3218914e-06 0 0)
(1.4946838e-07 -4.4202569e-07 0 1.4122488e-06 0 0)
(3.1341521e-07 -6.5127819e-07 0 1.4107167e-06 0 0)
(5.469898e-07 -8.4038401e-07 0 1.3267057e-06 0 0)
(8.2818807e-07 -9.6880787e-07 0 1.1565909e-06 0 0)
(1.1362714e-06 -1.0218787e-06 0 9.3478053e-07 0 0)
(1.4301845e-06 -9.8590014e-07 0 6.902425e-07 0 0)
(1.6901407e-06 -8.7569386e-07 0 4.6069714e-07 0 0)
(1.8932071e-06 -7.0853789e-07 0 2.694501e-07 0 0)
(2.0478436e-06 -5.1217678e-07 0 1.3040578e-07 0 0)
(2.1642967e-06 -3.0510908e-07 0 4.3918806e-08 0 0)
(2.2753079e-06 -1.0045894e-07 0 4.5580238e-09 0 0)
(5.0091564e-10 5.0200205e-10 0 1.804827e-08 0 0)
(6.5784223e-09 1.0224691e-08 0 1.8020892e-08 0 0)
(1.1001409e-08 1.8222486e-08 0 3.1126367e-08 0 0)
(2.7413828e-08 3.0090895e-08 0 3.3891419e-08 0 0)
(3.9784084e-08 4.8889558e-08 0 6.0648196e-08 0 0)
(6.2741968e-08 6.9927532e-08 0 7.8478946e-08 0 0)
(8.0399036e-08 1.0241043e-07 0 1.3078248e-07 0 0)
(1.0004588e-07 1.3742656e-07 0 1.8937524e-07 0 0)
(1.0801132e-07 1.7706689e-07 0 2.9177856e-07 0 0)
(1.069295e-07 2.111007e-07 0 4.2296297e-07 0 0)
(8.8584441e-08 2.2567232e-07 0 5.9566008e-07 0 0)
(6.0481054e-08 2.1076262e-07 0 8.0270617e-07 0 0)
(2.9228951e-08 1.4976932e-07 0 1.0223704e-06 0 0)
(1.0534618e-08 3.7511451e-08 0 1.2504987e-06 0 0)
(2.2696918e-08 -1.2846362e-07 0 1.4425269e-06 0 0)
(8.70096e-08 -3.4303201e-07 0 1.5922572e-06 0 0)
(2.1934602e-07 -5.8100041e-07 0 1.6505883e-06 0 0)
(4.3059064e-07 -8.1812403e-07 0 1.6176956e-06 0 0)
(7.0783634e-07 -1.0087358e-06 0 1.4769981e-06 0 0)
(1.0329662e-06 -1.1279423e-06 0 1.2577846e-06 0 0)
(1.3631426e-06 -1.1498651e-06 0 9.8754546e-07 0 0)
(1.669412e-06 -1.0802414e-06 0 7.1089243e-07 0 0)
(1.9174011e-06 -9.3278907e-07 0 4.615514e-07 0 0)
(2.1042371e-06 -7.374175e-07 0 2.6320705e-07 0 0)
(2.2308322e-06 -5.2092668e-07 0 1.2420745e-07 0 0)
(2.3251444e-06 -3.044291e-07 0 4.0866484e-08 0 0)
(2.417644e-06 -9.8598134e-08 0 4.1576537e-09 0 0)
(6.7692463e-10 1.028902e-09 0 1.2535331e-08 0 0)
(5.3893628e-09 1.0020199e-08 0 2.0453964e-08 0 0)
(1.3614285e-08 1.5990401e-08 0 1.9815944e-08 0 0)
(2.6742771e-08 3.1929486e-08 0 3.875735e-08 0 0)
(4.477511e-08 4.3134561e-08 0 4.2135754e-08 0 0)
(6.8493504e-08 7.3787371e-08 0 8.0132612e-08 0 0)
(9.2264077e-08 9.7947397e-08 0 1.0443184e-07 0 0)
(1.1939545e-07 1.470902e-07 0 1.8152052e-07 0 0)
(1.3432136e-07 1.8600389e-07 0 2.5897063e-07 0 0)
(1.4161967e-07 2.3871244e-07 0 4.0706767e-07 0 0)
(1.2868823e-07 2.6706506e-07 0 5.698688e-07 0 0)
(1.0113361e-07 2.7578365e-07 0 8.0064982e-07 0 0)
(6.2509243e-08 2.3600125e-07 0 1.036122e-06 0 0)
(2.7555853e-08 1.4518405e-07 0 1.3047087e-06 0 0)
(1.3591795e-08 -7.3053841e-09 0 1.5430374e-06 0 0)
(4.3252453e-08 -2.2034899e-07 0 1.756465e-06 0 0)
(1.382651e-07 -4.7689912e-07 0 1.882875e-06 0 0)
(3.1692939e-07 -7.548922e-07 0 1.916378e-06 0 0)
(5.7746706e-07 -1.00692e-06 0 1.824301e-06 0 0)
(9.0800245e-07 -1.1992369e-06 0 1.6274367e-06 0 0)
(1.2680814e-06 -1.2924797e-06 0 1.3461643e-06 0 0)
(1.6220493e-06 -1.2801787e-06 0 1.0299009e-06 0 0)
(1.9246608e-06 -1.1668749e-06 0 7.2057858e-07 0 0)
(2.1589829e-06 -9.823936e-07 0 4.5563914e-07 0 0)
(2.3153258e-06 -7.5721594e-07 0 2.5292805e-07 0 0)
(2.4137816e-06 -5.2344005e-07 0 1.163621e-07 0 0)
(2.4793031e-06 -2.9981408e-07 0 3.7371285e-08 0 0)
(2.5521111e-06 -9.5469454e-08 0 3.7230731e-09 0 0)
(5.3008431e-10 3.918261e-10 0 1.2529593e-08 0 0)
(7.2050075e-09 9.5304967e-09 0 1.4030952e-08 0 0)
(1.1761202e-08 1.5994183e-08 0 2.2604103e-08 0 0)
(3.1219831e-08 2.7608055e-08 0 2.4943759e-08 0 0)
(4.543435e-08 4.5589257e-08 0 4.6554979e-08 0 0)
(7.5163152e-08 6.5910144e-08 0 5.8225078e-08 0 0)
(1.0266915e-07 1.0254424e-07 0 1.0317895e-07 0 0)
(1.3834035e-07 1.4345529e-07 0 1.4926761e-07 0 0)
(1.629986e-07 2.0056307e-07 0 2.4742536e-07 0 0)
(1.7939222e-07 2.556054e-07 0 3.6823159e-07 0 0)
(1.7398035e-07 3.0704691e-07 0 5.545686e-07 0 0)
(1.5133128e-07 3.3463924e-07 0 7.7699734e-07 0 0)
(1.0923084e-07 3.2099889e-07 0 1.045421e-06 0 0)
(6.2454007e-08 2.5490573e-07 0 1.3361191e-06 0 0)
(2.5772977e-08 1.2317868e-07 0 1.625917e-06 0 0)
(2.1976082e-08 -7.8134323e-08 0 1.8985416e-06 0 0)
(7.6314296e-08 -3.4160808e-07 0 2.100528e-06 0 0)
(2.1384197e-07 -6.4990603e-07 0 2.2128599e-06 0 0)
(4.4453723e-07 -9.581373e-07 0 2.1890715e-06 0 0)
(7.6602789e-07 -1.2262912e-06 0 2.0370856e-06 0 0)
(1.1448567e-06 -1.4024846e-06 0 1.7654065e-06 0 0)
(1.5427831e-06 -1.4649452e-06 0 1.4226781e-06 0 0)
(1.9054074e-06 -1.4049568e-06 0 1.0573487e-06 0 0)
(2.2009619e-06 -1.2460048e-06 0 7.1985718e-07 0 0)
(2.4057911e-06 -1.0207568e-06 0 4.4256911e-07 0 0)
(2.5296709e-06 -7.6816857e-07 0 2.3910747e-07 0 0)
(2.590774e-06 -5.1906433e-07 0 1.0714268e-07 0 0)
(2.6260896e-06 -2.9132307e-07 0 3.355164e-08 0 0)
(2.6772859e-06 -9.1117683e-08 0 3.269125e-09 0 0)
(6.8200279e-10 8.3416205e-10 0 9.593373e-09 0 0)
(5.6766739e-09 8.3062782e-09 0 1.352907e-08 0 0)
(1.4948652e-08 1.5056108e-08 0 1.5801525e-08 0 0)
(2.8815951e-08 2.769292e-08 0 2.7343611e-08 0 0)
(5.0825726e-08 3.999904e-08 0 3.1818375e-08 0 0)
(7.9487694e-08 6.8109587e-08 0 5.9674419e-08 0 0)
(1.1138912e-07 9.3835102e-08 0 7.9469249e-08 0 0)
(1.5656287e-07 1.4879371e-07 0 1.4218837e-07 0 0)
(1.9216652e-07 2.0037025e-07 0 2.0991072e-07 0 0)
(2.2100027e-07 2.7813866e-07 0 3.5252355e-07 0 0)
(2.2486856e-07 3.3550346e-07 0 5.1125324e-07 0 0)
(2.0919055e-07 3.9190317e-07 0 7.6559809e-07 0 0)
(1.6872031e-07 4.0033962e-07 0 1.0275447e-06 0 0)
(1.1464987e-07 3.6471211e-07 0 1.3618539e-06 0 0)
(5.9801501e-08 2.5872203e-07 0 1.6811332e-06 0 0)
(2.5727042e-08 7.8710668e-08 0 2.0199206e-06 0 0)
(3.885843e-08 -1.7925872e-07 0 2.295253e-06 0 0)
(1.2915554e-07 -5.0472027e-07 0 2.4978702e-06 0 0)
(3.1796196e-07 -8.5938887e-07 0 2.5599795e-06 0 0)
(6.1440274e-07 -1.2009707e-06 0 2.4772211e-06 0 0)
(9.9658345e-07 -1.4676977e-06 0 2.2403114e-06 0 0)
(1.4289147e-06 -1.6217097e-06 0 1.8917145e-06 0 0)
(1.851556e-06 -1.6364029e-06 0 1.480544e-06 0 0)
(2.2184674e-06 -1.523855e-06 0 1.0700974e-06 0 0)
(2.4897304e-06 -1.3125255e-06 0 7.0770438e-07 0 0)
(2.6604534e-06 -1.0477493e-06 0 4.2302341e-07 0 0)
(2.7398216e-06 -7.6891821e-07 0 2.2219462e-07 0 0)
(2.7617419e-06 -5.0794542e-07 0 9.6887272e-08 0 0)
(2.7637638e-06 -2.790596e-07 0 2.9538456e-08 0 0)
(2.7922923e-06 -8.5623388e-08 0 2.8110448e-09 0 0)
(6.6286843e-10 7.6694254e-10 -4.8336568e-30 9.0663623e-09 -2.9944891e-29 2.2456687e-49)
(7.2974859e-09 8.6354521e-09 0 1.1277037e-08 0 0)
(1.2379746e-08 1.3078171e-08 0 1.4492334e-08 0 0)
(3.4211022e-08 2.6267261e-08 0 2.044315e-08 0 0)
(4.9374477e-08 3.8937178e-08 0 3.1812945e-08 0 0)
(8.4896689e-08 6.1937849e-08 0 4.554709e-08 0 0)
(1.2117363e-07 9.3702328e-08 0 7.4422539e-08 0 0)
(1.6985187e-07 1.4063468e-07 0 1.1704902e-07 0 0)
(2.2015046e-07 2.0668548e-07 0 1.9477295e-07 0 0)
(2.6587719e-07 2.8506417e-07 0 3.0854642e-07 0 0)
(2.8078882e-07 3.6920383e-07 0 4.9385108e-07 0 0)
(2.7594624e-07 4.3693697e-07 0 7.1827282e-07 0 0)
(2.3880521e-07 4.7830903e-07 0 1.0251637e-06 0 0)
(1.8346518e-07 4.6955774e-07 0 1.3527731e-06 0 0)
(1.1542353e-07 3.9642065e-07 0 1.7290303e-06 0 0)
(5.5946043e-08 2.4496559e-07 0 2.108108e-06 0 0)
(2.9891508e-08 4.7658217e-09 0 2.4666474e-06 0 0)
(7.0168092e-08 -3.2298626e-07 0 2.7607753e-06 0 0)
(2.072688e-07 -7.1043169e-07 0 2.925468e-06 0 0)
(4.627938e-07 -1.1173116e-06 0 2.9354063e-06 0 0)
(8.2983123e-07 -1.4766615e-06 0 2.7621528e-06 0 0)
(1.2812294e-06 -1.7356167e-06 0 2.4347862e-06 0 0)
(1.7573303e-06 -1.8473324e-06 0 1.9966881e-06 0 0)
(2.2005097e-06 -1.8059932e-06 0 1.5192406e-06 0 0)
(2.553575e-06 -1.6302235e-06 0 1.066003e-06 0 0)
(2.7930461e-06 -1.3655996e-06 0 6.8484343e-07 0 0)
(2.9151592e-06 -1.0610958e-06 0 3.9754261e-07 0 0)
(2.947121e-06 -7.5962289e-07 0 2.0280603e-07 0 0)
(2.9239551e-06 -4.9010785e-07 0 8.5954152e-08 0 0)
(2.891224e-06 -2.6322316e-07 0 2.5462669e-08 0 0)
(2.8962492e-06 -7.9092063e-08 0 2.3639313e-09 0 0)
(5.7797678e-10 1.324223e-10 3.2388747e-30 5.3273816e-09 2.7940458e-29 2.9380423e-49)
(7.146634e-09 7.8150797e-09 2.5839754e-29 9.5309494e-09 3.2317426e-29 2.4541247e-49)
(1.5277844e-08 1.3860658e-08 0 1.3049514e-08 0 0)
(3.0339335e-08 2.2158533e-08 0 1.6802602e-08 0 0)
(5.5726134e-08 3.8495811e-08 0 2.6762125e-08 0 0)
(8.740482e-08 5.682044e-08 0 3.9003708e-08 0 0)
(1.2584985e-07 8.9608243e-08 0 6.4385126e-08 0 0)
(1.8830436e-07 1.3521738e-07 0 9.9608817e-08 0 0)
(2.4244308e-07 2.0248999e-07 0 1.7028499e-07 0 0)
(3.0795059e-07 2.9451359e-07 0 2.8313717e-07 0 0)
(3.4475551e-07 3.8755847e-07 0 4.4418849e-07 0 0)
(3.4907688e-07 4.8697736e-07 0 7.0337913e-07 0 0)
(3.213937e-07 5.435674e-07 0 9.7580157e-07 0 0)
(2.6656619e-07 5.7348329e-07 0 1.3640238e-06 0 0)
(1.9198882e-07 5.3031924e-07 0 1.732809e-06 0 0)
(1.1292384e-07 4.1657558e-07 0 2.1862535e-06 0 0)
(5.2169799e-08 2.0433363e-07 0 2.5996895e-06 0 0)
(4.2785682e-08 -1.1027681e-07 0 2.9985862e-06 0 0)
(1.2191308e-07 -5.1375706e-07 0 3.2723337e-06 0 0)
(3.223348e-07 -9.7239629e-07 0 3.397809e-06 0 0)
(6.5440474e-07 -1.4197184e-06 0 3.3180827e-06 0 0)
(1.1046073e-06 -1.7915767e-06 0 3.0450559e-06 0 0)
(1.6203983e-06 -2.0205567e-06 0 2.6074534e-06 0 0)
(2.137846e-06 -2.078259e-06 0 2.0786694e-06 0 0)
(2.58352e-06 -1.9654373e-06 0 1.5348409e-06 0 0)
(2.9125947e-06 -1.722165e-06 0 1.0455108e-06 0 0)
(3.1029625e-06 -1.4016995e-06 0 6.517164e-07 0 0)
(3.1705201e-06 -1.0605601e-06 0 3.670671e-07 0 0)
(3.1461625e-06 -7.3995824e-07 0 1.8166937e-07 0 0)
(3.0761807e-06 -4.6582072e-07 0 7.4704202e-08 0 0)
(3.0075415e-06 -2.4410248e-07 0 2.1455598e-08 0 0)
(2.9886663e-06 -7.1644924e-08 0 1.9413988e-09 0 0)
(6.8152062e-10 7.08837e-10 -5.5930029e-30 7.0326014e-09 -3.1867641e-29 2.9605275e-49)
(5.8971422e-09 5.5818757e-09 -6.4538267e-29 5.8251503e-09 -6.9177883e-29 2.0051456e-48)
(1.4805067e-08 1.1875595e-08 0 1.0026226e-08 0 0)
(3.5083387e-08 2.4405114e-08 0 1.7192713e-08 0 0)
(5.2226291e-08 3.0512403e-08 0 1.8797872e-08 0 0)
(9.2605307e-08 6.0124703e-08 0 3.9338573e-08 0 0)
(1.350942e-07 7.6240598e-08 0 4.6376722e-08 0 0)
(1.9334507e-07 1.3695294e-07 0 9.8079381e-08 0 0)
(2.7009239e-07 1.8891919e-07 0 1.3469845e-07 0 0)
(3.4720252e-07 2.9885873e-07 0 2.6026752e-07 0 0)
(4.032378e-07 4.0395878e-07 0 4.1044567e-07 0 0)
(4.3623123e-07 5.215187e-07 0 6.4616501e-07 0 0)
(4.1218374e-07 6.1430869e-07 0 9.7049308e-07 0 0)
(3.661592e-07 6.638904e-07 0 1.3123746e-06 0 0)
(2.8719549e-07 6.6415534e-07 0 1.7624797e-06 0 0)
(1.9618134e-07 5.8630943e-07 0 2.2089198e-06 0 0)
(1.068745e-07 4.1415621e-07 0 2.7191441e-06 0 0)
(5.1614141e-08 1.2652639e-07 0 3.1934855e-06 0 0)
(7.0133466e-08 -2.7454742e-07 0 3.5942111e-06 0 0)
(2.0481086e-07 -7.666861e-07 0 3.8484184e-06 0 0)
(4.8264692e-07 -1.2902999e-06 0 3.8924174e-06 0 0)
(9.0812442e-07 -1.7755418e-06 0 3.7102816e-06 0 0)
(1.4429367e-06 -2.1373628e-06 0 3.3092737e-06 0 0)
(2.0242619e-06 -2.3217697e-06 0 2.7551844e-06 0 0)
(2.5666689e-06 -2.3047018e-06 0 2.1311237e-06 0 0)
(3.0028724e-06 -2.1115109e-06 0 1.526995e-06 0 0)
(3.2877123e-06 -1.7944843e-06 0 1.0085927e-06 0 0)
(3.4191688e-06 -1.419827e-06 0 6.0956332e-07 0 0)
(3.4201368e-06 -1.0452168e-06 0 3.3272296e-07 0 0)
(3.3365641e-06 -7.1023317e-07 0 1.5948414e-07 0 0)
(3.2169483e-06 -4.3547605e-07 0 6.3501634e-08 0 0)
(3.1119038e-06 -2.2203462e-07 0 1.7639766e-08 0 0)
(3.0692402e-06 -6.3406697e-08 0 1.5551004e-09 0 0)
(5.8212724e-10 3.5663266e-11 0 2.351471e-09 0 0)
(7.2603129e-09 7.3897338e-09 7.1863372e-29 8.1679226e-09 8.1273246e-29 2.0113085e-48)
(1.3108086e-08 9.1610586e-09 0 6.5949101e-09 0 0)
(3.3853242e-08 1.9216721e-08 0 1.1293578e-08 0 0)
(5.7207298e-08 3.5798031e-08 0 2.2530361e-08 0 0)
(9.4161968e-08 4.326803e-08 0 2.1913175e-08 0 0)
(1.3629062e-07 8.7543099e-08 0 5.692612e-08 0 0)
(2.1285789e-07 1.0775965e-07 0 5.9190898e-08 0 0)
(2.8055618e-07 2.020468e-07 0 1.4743315e-07 0 0)
(3.8645364e-07 2.749446e-07 0 1.9841343e-07 0 0)
(4.6735651e-07 4.2292545e-07 0 3.9100146e-07 0 0)
(5.1507141e-07 5.5112375e-07 0 6.0939112e-07 0 0)
(5.2301281e-07 6.6841151e-07 0 9.0402808e-07 0 0)
(4.7672565e-07 7.6101464e-07 0 1.3228532e-06 0 0)