# Force coefficients
# liftDir      : (0.00000000e+00 1.00000000e+00 0.00000000e+00)
# dragDir      : (1.00000000e+00 0.00000000e+00 0.00000000e+00)
# pitchAxis    : (0.00000000e+00 0.00000000e+00 1.00000000e+00)
# magUInf      : 1.00000000e+00
# lRef         : 1.00000000e+00
# Aref         : 2.00000000e+00
# CofR         : (0.00000000e+00 0.00000000e+00 0.00000000e+00)
# Time         	Cm             	Cd             	Cl             	Cl(f)          	Cl(r)          
0.0059988      	9.62077745e-05	5.13126932e+02	-6.48277856e-06	9.29663852e-05	-9.94491638e-05
0.0131961      	6.06689498e-05	-2.53650403e+02	-4.50065709e-06	5.84186212e-05	-6.29192783e-05
0.0218297      	4.39751120e-05	1.19020179e+00	-1.48830530e-05	3.65335855e-05	-5.14166385e-05
0.0321864      	3.56720702e-05	-1.64953671e-02	-2.72853198e-07	3.55356436e-05	-3.58084968e-05
0.0446119      	2.75929392e-05	1.27502493e+00	3.31959598e-05	4.41909191e-05	-1.09949592e-05
0.0595151      	2.06538463e-05	2.17534131e+00	1.96418984e-06	2.16359412e-05	-1.96717514e-05
0.077383       	1.57901623e-05	2.47805612e+00	4.06991213e-05	3.61397230e-05	4.55939832e-06
0.0988051      	1.23846963e-05	2.43067328e+00	-2.57222761e-07	1.22560849e-05	-1.25133077e-05
0.124484       	1.01591964e-05	2.25390914e+00	-3.43811053e-05	-7.03135622e-06	-2.73497490e-05
0.154875       	8.21690852e-06	2.05024885e+00	-1.80463139e-05	-8.06248408e-07	-1.72400654e-05
0.189999       	-5.01668033e-06	1.86198111e+00	3.77508750e-06	-3.12913658e-06	6.90422408e-06
0.229938       	-6.27023189e-06	1.69953475e+00	1.81277929e-05	2.79366454e-06	1.53341283e-05
0.274768       	-7.72243534e-06	1.55925971e+00	1.08630937e-05	-2.29088847e-06	1.31539822e-05
0.32458        	-8.12669092e-06	1.44067866e+00	2.10154080e-05	2.38101311e-06	1.86343949e-05
0.375552       	-1.15988336e-05	1.35001926e+00	1.42418017e-05	-4.47793274e-06	1.87197345e-05
0.426791       	-1.01124642e-05	1.28095674e+00	8.49556822e-06	-5.86468009e-06	1.43602483e-05
0.478164       	-8.79597208e-06	1.22842402e+00	9.86828307e-06	-3.86183055e-06	1.37301136e-05
0.529538       	-1.02348625e-05	1.18829514e+00	3.62037535e-06	-8.42467480e-06	1.20450501e-05
0.581047       	-8.26497079e-06	1.15608224e+00	6.73677049e-06	-4.89658554e-06	1.16333560e-05
0.632693       	-1.05956083e-05	1.13100494e+00	5.58304370e-06	-7.80408644e-06	1.33871301e-05
0.684477       	-8.80388835e-06	1.11272101e+00	4.93307906e-06	-6.33734882e-06	1.12704279e-05
0.736401       	-8.79457864e-06	1.09976490e+00	3.86782856e-06	-6.86066437e-06	1.07284929e-05
0.788605       	-1.13350149e-05	1.09065330e+00	2.16533377e-06	-1.02523480e-05	1.24176818e-05
0.841096       	-8.95737690e-06	1.08489601e+00	-4.13173715e-07	-9.16396376e-06	8.75079004e-06
0.89373        	-5.62589087e-06	1.08198739e+00	2.92290552e-07	-5.47974559e-06	5.77203614e-06
0.94651        	-2.68125987e-06	1.08171387e+00	8.01745710e-06	1.32746868e-06	6.68998842e-06
0.999436       	-4.67569666e-06	1.08303692e+00	5.11351773e-06	-2.11893779e-06	7.23245552e-06
1.05251        	-1.78124411e-06	1.08590922e+00	5.66236457e-06	1.04993817e-06	4.61242640e-06
1.10573        	-4.65642467e-07	1.09066707e+00	9.53597828e-06	4.30234667e-06	5.23363161e-06
1.15896        	-4.83533081e-07	1.09632662e+00	1.01707391e-05	4.60183649e-06	5.56890265e-06
1.21233        	-7.71514294e-07	1.10297779e+00	9.33192500e-06	3.89444821e-06	5.43747679e-06
1.26586        	-9.24898371e-07	1.11060423e+00	9.86458341e-06	4.00739333e-06	5.85719007e-06
1.31938        	-2.00819946e-06	1.11933201e+00	7.74851082e-06	1.86605595e-06	5.88245487e-06
1.37291        	-3.04417089e-06	1.12881971e+00	6.28168314e-06	9.66706814e-08	6.18501246e-06
1.42659        	-2.17161578e-06	1.13878349e+00	7.94942615e-06	1.80309730e-06	6.14632885e-06
1.48027        	-3.22283088e-06	1.14950060e+00	8.36969046e-06	9.62014348e-07	7.40767611e-06
1.53395        	-7.52749034e-06	1.16048795e+00	4.40963455e-06	-5.32267306e-06	9.73230761e-06
1.58763        	-4.95154986e-06	1.17148671e+00	1.18455448e-06	-4.35927262e-06	5.54382710e-06
1.64147        	-2.46556024e-06	1.18250963e+00	3.95807057e-06	-4.86524954e-07	4.44459553e-06
1.69531        	-2.27002223e-06	1.19369393e+00	4.70727710e-06	8.36163212e-08	4.62366078e-06
1.74914        	-2.10525083e-06	1.20549062e+00	4.46525361e-06	1.27375979e-07	4.33787763e-06
1.80314        	-3.13352470e-06	1.21728432e+00	4.15749174e-06	-1.05477883e-06	5.21227057e-06
1.85714        	-1.84326417e-06	1.22777833e+00	2.53430271e-06	-5.76112814e-07	3.11041553e-06
1.91129        	-1.85824991e-06	1.23899022e+00	1.06976759e-05	3.49058802e-06	7.20708783e-06
1.96545        	-1.86905178e-06	1.25016394e+00	9.27863979e-07	-1.40511979e-06	2.33298377e-06
2.01977        	-1.80847980e-06	1.26155009e+00	3.78211027e-06	8.25753379e-08	3.69953493e-06
2.07409        	-1.77295074e-06	1.27233305e+00	5.06663760e-06	7.60368064e-07	4.30626954e-06
2.12841        	-1.65444628e-06	1.28236521e+00	6.20787244e-06	1.44948994e-06	4.75838250e-06
2.1829         	-1.52193655e-06	1.29222796e+00	6.76180434e-06	1.85896563e-06	4.90283872e-06
2.23739        	-1.37226419e-06	1.30220442e+00	7.18231774e-06	2.21889469e-06	4.96342306e-06
2.29204        	-1.18451003e-06	1.31205160e+00	6.67890966e-06	2.15494480e-06	4.52396486e-06
2.3467         	-1.10883771e-06	1.32185072e+00	7.03038834e-06	2.40635646e-06	4.62403188e-06
2.40152        	-1.05474494e-06	1.32991700e+00	7.97173667e-06	2.93112340e-06	5.04061327e-06
2.45634        	-1.09010016e-06	1.33772802e+00	8.09825185e-06	2.95902576e-06	5.13922609e-06
2.51117        	-1.14133825e-06	1.34478596e+00	7.93352703e-06	2.82542526e-06	5.10810177e-06
2.56599        	-1.23336524e-06	1.35136085e+00	9.05558819e-06	3.29442886e-06	5.76115934e-06
2.62099        	-1.28273510e-06	1.35681969e+00	1.04502556e-05	3.94239270e-06	6.50786290e-06
2.67599        	-1.31961654e-06	1.36337511e+00	1.15751745e-05	4.46797069e-06	7.10720377e-06
2.73098        	-1.25900933e-06	1.36856060e+00	1.05364332e-05	4.00920727e-06	6.52722592e-06
2.78615        	-1.31473652e-06	1.37280695e+00	9.84426458e-06	3.60739577e-06	6.23686881e-06
2.84133        	-1.25980610e-06	1.37652584e+00	7.83449697e-06	2.65744239e-06	5.17705458e-06
2.89668        	-1.18315918e-06	1.38024610e+00	4.54039784e-06	1.08703974e-06	3.45335810e-06
2.95203        	-1.11500270e-06	1.38292198e+00	4.54210065e-06	1.15604762e-06	3.38605303e-06
3.00756        	-1.03649564e-06	1.38565107e+00	4.16702057e-06	1.04701465e-06	3.12000592e-06
3.06309        	-9.42994809e-07	1.38700269e+00	-3.21474618e-06	-2.55036790e-06	-6.64378282e-07
3.1188         	-8.41267443e-07	1.38853914e+00	2.52596676e-06	4.21715936e-07	2.10425082e-06
3.17452        	-7.26058136e-07	1.38875571e+00	2.17646958e-06	3.62176655e-07	1.81429293e-06
3.23023        	-5.31254864e-07	1.38970470e+00	4.37669202e-06	1.65709115e-06	2.71960087e-06
3.28613        	-2.83220242e-07	1.38998792e+00	4.11361599e-06	1.77358775e-06	2.34002824e-06
3.34203        	-8.43340769e-08	1.38901674e+00	4.98004431e-06	2.40568808e-06	2.57435623e-06
3.39793        	3.05211636e-08	1.38795480e+00	7.08125440e-06	3.57114836e-06	3.51010604e-06
3.45402        	7.90697620e-08	1.38566762e+00	7.90158736e-06	4.02986344e-06	3.87172392e-06
3.5101         	7.86575778e-08	1.38363155e+00	1.07554594e-05	5.45638729e-06	5.29907214e-06
3.56638        	1.19533700e-08	1.38170049e+00	1.23890711e-05	6.20648893e-06	6.18258219e-06
3.62266        	-1.13380633e-07	1.37915084e+00	1.22395042e-05	6.00637145e-06	6.23313272e-06
3.67894        	-3.45234073e-07	1.37644246e+00	1.70119651e-05	8.16074847e-06	8.85121661e-06
3.73542        	-6.39685698e-07	1.37353660e+00	1.83236095e-05	8.52211903e-06	9.80149042e-06
3.79189        	-9.56125295e-07	1.37020356e+00	2.37977718e-05	1.09427606e-05	1.28550112e-05
3.84837        	-1.19626884e-06	1.36681985e+00	2.38709070e-05	1.07391846e-05	1.31317223e-05
3.90504        	-1.27678270e-06	1.36310278e+00	2.14164796e-05	9.43145712e-06	1.19850225e-05
3.96171        	-1.07765514e-06	1.35794346e+00	1.68259290e-05	7.33530935e-06	9.49061964e-06
4.01858        	-6.27134273e-07	1.35448105e+00	1.08767433e-05	4.81123739e-06	6.06550593e-06
4.07546        	-5.69588533e-08	1.35079218e+00	8.85497322e-06	4.37052776e-06	4.48444546e-06
4.13233        	4.26130077e-07	1.34717059e+00	1.02423901e-05	5.54732515e-06	4.69506500e-06
4.18941        	7.56688553e-07	1.34369633e+00	8.68470385e-06	5.09904048e-06	3.58566337e-06
4.24649        	9.16261702e-07	1.33905903e+00	1.00977783e-05	5.96515085e-06	4.13262744e-06
4.30377        	9.72414169e-07	1.33442805e+00	1.07814991e-05	6.36316374e-06	4.41833540e-06
4.36106        	9.64376716e-07	1.33003532e+00	1.15442964e-05	6.73652491e-06	4.80777147e-06
4.41834        	9.15694215e-07	1.32598926e+00	1.20526203e-05	6.94200435e-06	5.11061592e-06
4.47584        	8.49773323e-07	1.32213674e+00	1.35924661e-05	7.64600639e-06	5.94645975e-06
4.53334        	7.80478981e-07	1.31764646e+00	1.38085697e-05	7.68476381e-06	6.12380585e-06
4.59083        	7.11261725e-07	1.31299446e+00	1.38054621e-05	7.61399276e-06	6.19146931e-06
4.64855        	6.44337691e-07	1.30866842e+00	1.39848323e-05	7.63675386e-06	6.34807848e-06
4.70626        	5.80082690e-07	1.30463089e+00	1.38353086e-05	7.49773697e-06	6.33757159e-06
4.76397        	5.16916402e-07	1.30076471e+00	1.66913324e-05	8.86258260e-06	7.82874980e-06
4.8219         	4.63429439e-07	1.29707151e+00	1.82215418e-05	9.57420035e-06	8.64734147e-06
4.87983        	4.14072652e-07	1.29263758e+00	1.60172813e-05	8.42271330e-06	7.59456799e-06
4.93777        	3.69371669e-07	1.28894976e+00	1.49100835e-05	7.82441344e-06	7.08567010e-06
4.99592        	3.17318125e-07	1.28516990e+00	1.39594606e-05	7.29704843e-06	6.66241218e-06
5.05408        	2.68422475e-07	1.28157631e+00	1.69705521e-05	8.75369854e-06	8.21685359e-06
5.11223        	2.25024964e-07	1.27817877e+00	1.79341713e-05	9.19211061e-06	8.74206068e-06
5.17039        	1.84907644e-07	1.27469035e+00	1.75273787e-05	8.94859700e-06	8.57878171e-06
5.22877        	1.46031632e-07	1.27097043e+00	1.72183455e-05	8.75520439e-06	8.46314113e-06
5.28716        	1.07679318e-07	1.26737500e+00	1.89781550e-05	9.59675682e-06	9.38139819e-06
5.34554        	7.21938749e-08	1.26444287e+00	1.83249169e-05	9.23465233e-06	9.09026458e-06
5.40392        	3.77996198e-08	1.26133751e+00	1.84418733e-05	9.25873626e-06	9.18313702e-06
5.46254        	4.27741171e-09	1.25839237e+00	2.02123263e-05	1.01104406e-05	1.01018857e-05
5.52116        	-2.91592462e-08	1.25560725e+00	1.78173558e-05	8.87951864e-06	8.93783713e-06
5.57978        	-6.37669144e-08	1.25284773e+00	1.73020920e-05	8.58727908e-06	8.71481291e-06
5.6384         	-9.74720411e-08	1.25006772e+00	1.67736670e-05	8.28936148e-06	8.48430556e-06
5.69702        	-1.19563372e-07	1.24716350e+00	1.73201789e-05	8.54052606e-06	8.77965280e-06
5.75588        	-1.48428023e-07	1.24415514e+00	1.79652228e-05	8.83418336e-06	9.13103940e-06
5.81474        	-1.82516081e-07	1.24220416e+00	2.02615553e-05	9.94826155e-06	1.03132937e-05
5.8736         	-2.04506752e-07	1.23955182e+00	2.08224484e-05	1.02067175e-05	1.06157310e-05
5.93246        	-2.24169525e-07	1.23691913e+00	1.99235737e-05	9.73761733e-06	1.01859564e-05
5.99132        	-2.42826041e-07	1.23425986e+00	2.05896872e-05	1.00520175e-05	1.05376696e-05
6.05043        	-2.62364859e-07	1.23178789e+00	1.80415045e-05	8.75838740e-06	9.28311712e-06
6.10953        	-2.82400161e-07	1.22939402e+00	1.91670979e-05	9.30114880e-06	9.86594912e-06
6.16864        	-3.01757748e-07	1.22655935e+00	2.49162313e-05	1.21563579e-05	1.27598734e-05
6.22775        	-3.22202895e-07	1.22358837e+00	2.72971237e-05	1.33263590e-05	1.39707648e-05
6.28686        	-3.43822979e-07	1.22101915e+00	2.50755069e-05	1.21939305e-05	1.28815764e-05
6.34622        	-3.66180754e-07	1.21817222e+00	2.30509958e-05	1.11593171e-05	1.18916786e-05
6.40559        	-3.87095557e-07	1.21670125e+00	2.03408070e-05	9.78330793e-06	1.05574990e-05
6.46495        	-4.06863991e-07	1.21387014e+00	1.93548828e-05	9.27057743e-06	1.00843054e-05
6.52432        	-4.24413723e-07	1.21208944e+00	2.16413611e-05	1.03962668e-05	1.12450943e-05
6.58368        	-4.48283527e-07	1.20989138e+00	2.03230449e-05	9.71323892e-06	1.06098060e-05
6.64331        	-4.77818898e-07	1.20789376e+00	2.46452021e-05	1.18447821e-05	1.28004199e-05
6.70294        	-4.99777939e-07	1.20607664e+00	2.63229459e-05	1.26616950e-05	1.36612509e-05
6.76257        	-5.15300706e-07	1.20441840e+00	2.33029282e-05	1.11361634e-05	1.21667648e-05
6.82219        	-5.25140064e-07	1.20220795e+00	2.24702362e-05	1.07099780e-05	1.17602581e-05
6.88182        	-5.30272583e-07	1.20012129e+00	2.24743342e-05	1.07068945e-05	1.17674397e-05
6.94172        	-5.32465729e-07	1.19811961e+00	2.13985622e-05	1.01668154e-05	1.12317468e-05
7.00162        	-5.32999687e-07	1.19576929e+00	2.13236462e-05	1.01288234e-05	1.11948228e-05
7.06152        	-5.34193619e-07	1.19403423e+00	2.31127760e-05	1.10221944e-05	1.20905816e-05
7.12142        	-5.47199431e-07	1.19190320e+00	2.65836056e-05	1.27446033e-05	1.38390022e-05
7.18132        	-5.57875640e-07	1.18951490e+00	3.34599341e-05	1.61720914e-05	1.72878427e-05
7.24122        	-5.69189358e-07	1.18768979e+00	3.38499167e-05	1.63557690e-05	1.74941477e-05
7.30141        	-5.83601537e-07	1.18556527e+00	3.31092949e-05	1.59710459e-05	1.71382490e-05
7.36159        	-6.03238056e-07	1.18341450e+00	2.74059167e-05	1.30997203e-05	1.43061964e-05
7.42177        	-6.27476919e-07	1.18127485e+00	2.45248529e-05	1.16349495e-05	1.28899034e-05
7.48196        	-6.52299808e-07	1.17915543e+00	2.41512793e-05	1.14233399e-05	1.27279395e-05
7.54214        	-6.76359444e-07	1.17705445e+00	2.60761366e-05	1.23617088e-05	1.37144277e-05
7.60232        	-6.99723221e-07	1.17497106e+00	2.78075653e-05	1.32040594e-05	1.46035059e-05
7.6625         	-7.22202685e-07	1.17290662e+00	2.82946883e-05	1.34251415e-05	1.48695468e-05
7.72298        	-7.42424085e-07	1.17064119e+00	2.70575986e-05	1.27863752e-05	1.42712234e-05
7.78346        	-7.60337227e-07	1.16919605e+00	2.65033899e-05	1.24913577e-05	1.40120322e-05
7.84394        	-7.75306185e-07	1.16736973e+00	2.65119549e-05	1.24806713e-05	1.40312837e-05
7.90442        	-7.86982971e-07	1.16556258e+00	2.60098848e-05	1.22179594e-05	1.37919254e-05
7.96489        	-7.95332099e-07	1.16375985e+00	2.47504922e-05	1.15799140e-05	1.31705782e-05
8.02537        	-8.00058491e-07	1.16209844e+00	2.43917696e-05	1.13958263e-05	1.29959433e-05
8.08585        	-8.01054671e-07	1.16044210e+00	2.37934518e-05	1.10956712e-05	1.26977806e-05
8.14633        	-7.98872961e-07	1.15872021e+00	2.38441337e-05	1.11231939e-05	1.27209398e-05
8.20712        	-7.93859060e-07	1.15690708e+00	2.50228589e-05	1.17175704e-05	1.33052885e-05
8.2679         	-7.85745728e-07	1.15492605e+00	2.78263403e-05	1.31274244e-05	1.46989159e-05
8.32869        	-7.75925232e-07	1.15307021e+00	3.53718950e-05	1.69100223e-05	1.84618728e-05
8.38948        	-7.66992025e-07	1.15123280e+00	3.75192468e-05	1.79926314e-05	1.95266154e-05
8.45027        	-7.60845599e-07	1.14941485e+00	3.56192592e-05	1.70487840e-05	1.85704752e-05
8.51106        	-7.59320163e-07	1.14753902e+00	3.30341696e-05	1.57577646e-05	1.72764050e-05
8.57184        	-7.64633270e-07	1.14594867e+00	2.77566611e-05	1.31136973e-05	1.46429638e-05
8.63263        	-7.74754770e-07	1.14429094e+00	2.44830028e-05	1.14667466e-05	1.30162562e-05
8.69375        	-7.87777355e-07	1.14264658e+00	2.46557995e-05	1.15401224e-05	1.31156771e-05
8.75486        	-8.02681860e-07	1.14091768e+00	2.47729116e-05	1.15837739e-05	1.31891377e-05
8.81598        	-8.20331851e-07	1.13922073e+00	2.57252119e-05	1.20422741e-05	1.36829378e-05
8.87709        	-8.37624026e-07	1.13768432e+00	2.45690002e-05	1.14468761e-05	1.31221241e-05
8.93821        	-8.54054834e-07	1.13618418e+00	2.61005840e-05	1.21962372e-05	1.39043468e-05
8.99932        	-8.69035303e-07	1.13473181e+00	2.62222692e-05	1.22420993e-05	1.39801699e-05
9.06044        	-8.82478355e-07	1.13326137e+00	2.54661364e-05	1.18505898e-05	1.36155465e-05
9.12155        	-8.98910350e-07	1.13180151e+00	2.47638959e-05	1.14830376e-05	1.32808583e-05
9.18267        	-9.07419558e-07	1.13043098e+00	2.45453296e-05	1.13652452e-05	1.31800843e-05
9.24413        	-9.11939864e-07	1.12908665e+00	2.43060735e-05	1.12410969e-05	1.30649766e-05
9.30559        	-9.13441690e-07	1.12762298e+00	2.24886833e-05	1.03308999e-05	1.21577833e-05
9.36705        	-9.13099284e-07	1.12636767e+00	2.09346192e-05	9.55421030e-06	1.13804089e-05
9.42851        	-9.12563865e-07	1.12502185e+00	1.86791000e-05	8.42698615e-06	1.02521139e-05
9.48998        	-9.13948377e-07	1.12392577e+00	2.10289212e-05	9.60051221e-06	1.14284090e-05
9.55144        	-9.15372528e-07	1.12268366e+00	2.02189379e-05	9.19409641e-06	1.10248415e-05
9.6129         	-9.21055129e-07	1.12141249e+00	2.05507976e-05	9.35434368e-06	1.11964539e-05
9.67436        	-9.29093816e-07	1.12022005e+00	2.23281265e-05	1.02349694e-05	1.20931571e-05
9.73582        	-9.40349090e-07	1.11893218e+00	2.65595288e-05	1.23394153e-05	1.42201135e-05
9.79729        	-9.56658041e-07	1.11764195e+00	2.72140030e-05	1.26503434e-05	1.45636595e-05
9.85912        	-9.76426421e-07	1.11637020e+00	2.51043625e-05	1.15757548e-05	1.35286077e-05
9.92096        	-1.00197895e-06	1.11493379e+00	2.31798325e-05	1.05879373e-05	1.25918952e-05
9.98279        	-1.03500403e-06	1.11353943e+00	1.68827387e-05	7.40636532e-06	9.47637337e-06
10.0446        	-1.07188240e-06	1.11226432e+00	1.64079320e-05	7.13208361e-06	9.27584842e-06
10.1065        	-1.10997564e-06	1.11093694e+00	1.55245789e-05	6.65231381e-06	8.87226510e-06
10.1683        	-1.14282265e-06	1.10967391e+00	1.35456741e-05	5.63001440e-06	7.91565970e-06
10.2301        	-1.17046642e-06	1.10846944e+00	1.33326372e-05	5.49585218e-06	7.83678502e-06
10.292         	-1.19500774e-06	1.10734821e+00	1.34941701e-05	5.55207731e-06	7.94209280e-06
10.3538        	-1.21715871e-06	1.10600296e+00	1.45686850e-05	6.06718379e-06	8.50150121e-06
10.4156        	-1.22002561e-06	1.10485017e+00	1.26487082e-05	5.10432849e-06	7.54437971e-06
10.4779        	-1.21389886e-06	1.10378213e+00	1.17414246e-05	4.65681346e-06	7.08461117e-06
10.5401        	-1.20176395e-06	1.10268900e+00	1.03731767e-05	3.98482439e-06	6.38835230e-06
10.6023        	-1.18434569e-06	1.10158315e+00	8.54923297e-06	3.09027080e-06	5.45896217e-06
10.6646        	-1.16136752e-06	1.10057677e+00	7.06880361e-06	2.37303428e-06	4.69576933e-06
10.7268        	-1.13306005e-06	1.09952070e+00	5.44046391e-06	1.58717191e-06	3.85329200e-06
10.7891        	-1.10014131e-06	1.09845506e+00	4.60081521e-06	1.20026629e-06	3.40054892e-06
10.8513        	-1.06040402e-06	1.09743050e+00	3.75082130e-06	8.15006624e-07	2.93581467e-06
10.9135        	-1.01748316e-06	1.09639208e+00	2.36445264e-06	1.64743159e-07	2.19970948e-06
10.9758        	-9.73058971e-07	1.09535984e+00	2.98387688e-06	5.18879471e-07	2.46499741e-06
11.038         	-9.34216372e-07	1.09435288e+00	7.03785904e-06	2.58471315e-06	4.45314589e-06
11.1002        	-8.97296613e-07	1.09324439e+00	7.24999895e-06	2.72770286e-06	4.52229609e-06
11.1625        	-8.57222493e-07	1.09222092e+00	7.57815574e-06	2.93185538e-06	4.64630036e-06
11.2247        	-8.25419145e-07	1.09095802e+00	5.99029649e-06	2.16972910e-06	3.82056739e-06
11.2874        	-7.97708307e-07	1.09001264e+00	1.61619349e-08	-7.89627340e-07	8.05789275e-07
11.3501        	-7.74804417e-07	1.08899490e+00	-3.28104519e-06	-2.41532701e-06	-8.65718179e-07
11.4127        	-7.56710640e-07	1.08794331e+00	-3.74690048e-06	-2.63016088e-06	-1.11673960e-06
11.4754        	-7.53953787e-07	1.08690909e+00	-3.75823347e-06	-2.63307052e-06	-1.12516295e-06
11.5381        	-7.45730494e-07	1.08589618e+00	-4.98355655e-06	-3.23750877e-06	-1.74604778e-06
11.6008        	-7.40862990e-07	1.08491247e+00	-7.80642816e-06	-4.64407707e-06	-3.16235109e-06
11.6635        	-7.39230052e-07	1.08396843e+00	-1.02161905e-05	-5.84732529e-06	-4.36886519e-06
11.7261        	-7.26619250e-07	1.08304698e+00	-1.28723506e-05	-7.16279455e-06	-5.70955605e-06
11.7888        	-7.29490208e-07	1.08214740e+00	-1.32924677e-05	-7.37572406e-06	-5.91674364e-06
11.8515        	-7.32344582e-07	1.08105897e+00	-1.46192359e-05	-8.04196252e-06	-6.57727335e-06
11.9142        	-7.33717136e-07	1.08011409e+00	-1.67768486e-05	-9.12214144e-06	-7.65470717e-06
11.9769        	-7.32673413e-07	1.07918981e+00	-1.87342110e-05	-1.00997789e-05	-8.63443207e-06
12.0396        	-7.28458819e-07	1.07829962e+00	-2.03214382e-05	-1.08891779e-05	-9.43226026e-06
12.1022        	-7.20549807e-07	1.07745055e+00	-2.17888920e-05	-1.16149958e-05	-1.01738962e-05
12.1654        	-7.08603382e-07	1.07648942e+00	-2.32372250e-05	-1.23272159e-05	-1.09100091e-05
12.2286        	-6.94150227e-07	1.07538593e+00	-2.57805439e-05	-1.35844222e-05	-1.21961217e-05
12.2918        	-6.74813472e-07	1.07443230e+00	-2.26857261e-05	-1.20176765e-05	-1.06680496e-05
12.355         	-6.52203093e-07	1.07344657e+00	-2.29638625e-05	-1.21341344e-05	-1.08297282e-05
12.4181        	-6.46654365e-07	1.07274854e+00	-2.19348924e-05	-1.16141005e-05	-1.03207918e-05
12.4813        	-6.17870615e-07	1.07180664e+00	-1.93563293e-05	-1.02960353e-05	-9.06029405e-06
12.5445        	-5.88394765e-07	1.07087594e+00	-2.03550703e-05	-1.07659299e-05	-9.58914040e-06
12.6077        	-5.60115306e-07	1.06983449e+00	-2.64441744e-05	-1.37822025e-05	-1.26619719e-05
12.6709        	-5.35898753e-07	1.06893831e+00	-3.52629889e-05	-1.81673932e-05	-1.70955957e-05
12.7341        	-5.14878438e-07	1.06804998e+00	-3.74773492e-05	-1.92535531e-05	-1.82237962e-05
12.7972        	-4.97120063e-07	1.06715803e+00	-3.80548238e-05	-1.95245319e-05	-1.85302918e-05
12.8604        	-4.83882059e-07	1.06626446e+00	-3.95210612e-05	-2.02444127e-05	-1.92766486e-05
12.9236        	-4.75185001e-07	1.06538582e+00	-4.11439556e-05	-2.10471628e-05	-2.00967928e-05
12.9868        	-4.70926799e-07	1.06451467e+00	-4.30992850e-05	-2.20205693e-05	-2.10787157e-05
13.05          	-4.71322579e-07	1.06363901e+00	-4.88210003e-05	-2.48818227e-05	-2.39391776e-05
13.1131        	-4.76531023e-07	1.06288353e+00	-5.04375928e-05	-2.56953274e-05	-2.47422654e-05
13.1763        	-4.86036038e-07	1.06213877e+00	-5.31300774e-05	-2.70510747e-05	-2.60790027e-05
13.2395        	-4.97706651e-07	1.06119492e+00	-4.75820336e-05	-2.42887235e-05	-2.32933102e-05
13.3027        	-5.11009926e-07	1.06028710e+00	-5.56330176e-05	-2.83275187e-05	-2.73054989e-05
13.3659        	-5.27613654e-07	1.05946650e+00	-5.79556239e-05	-2.95054256e-05	-2.84501983e-05
13.4291        	-5.45686461e-07	1.05864979e+00	-6.04627443e-05	-3.07770586e-05	-2.96856857e-05
13.4922        	-5.64009728e-07	1.05781936e+00	-6.22143864e-05	-3.16712029e-05	-3.05431835e-05
13.5554        	-5.81851435e-07	1.05692762e+00	-6.32870454e-05	-3.22253741e-05	-3.10616712e-05
13.6186        	-5.99763776e-07	1.05621761e+00	-7.55193412e-05	-3.83594344e-05	-3.71599068e-05
13.6818        	-5.89717015e-07	1.05537500e+00	-6.98090526e-05	-3.54942433e-05	-3.43148093e-05
13.7456        	-6.03566804e-07	1.05456458e+00	-6.58063719e-05	-3.35067528e-05	-3.22996192e-05
13.8094        	-6.16702920e-07	1.05374934e+00	-6.67971240e-05	-3.40152649e-05	-3.27818591e-05
13.8732        	-6.29511271e-07	1.05292053e+00	-6.68057255e-05	-3.40323740e-05	-3.27733515e-05
13.9371        	-6.42665185e-07	1.05214663e+00	-7.01653861e-05	-3.57253582e-05	-3.44400279e-05
14.0009        	-6.56882685e-07	1.05144550e+00	-7.75010314e-05	-3.94073984e-05	-3.80936330e-05
14.0647        	-6.72979055e-07	1.05074924e+00	-8.33937734e-05	-4.23698658e-05	-4.10239076e-05
14.1285        	-6.90198101e-07	1.04997978e+00	-8.16182253e-05	-4.14993108e-05	-4.01189146e-05
14.1923        	-7.25269625e-07	1.04922219e+00	-8.15671665e-05	-4.15088529e-05	-4.00583136e-05
14.2562        	-7.62841507e-07	1.04849004e+00	-9.15150247e-05	-4.65203538e-05	-4.49946708e-05
14.32          	-8.02929006e-07	1.04776517e+00	-9.24153359e-05	-4.70105970e-05	-4.54047390e-05
14.3838        	-8.44878916e-07	1.04689548e+00	-9.17641551e-05	-4.67269564e-05	-4.50371986e-05
14.4476        	-8.88652612e-07	1.04615099e+00	-9.90156703e-05	-5.03964878e-05	-4.86191825e-05
14.5115        	-9.34359597e-07	1.04542753e+00	-1.03771905e-04	-5.28203118e-05	-5.09515927e-05
14.5753        	-9.82200163e-07	1.04468662e+00	-1.02447491e-04	-5.22059457e-05	-5.02415454e-05
14.6391        	-1.03167057e-06	1.04394065e+00	-1.04705255e-04	-5.33842982e-05	-5.13209571e-05
14.7029        	-1.08224076e-06	1.04319936e+00	-1.07345751e-04	-5.47551163e-05	-5.25906348e-05
14.7667        	-1.13440896e-06	1.04246012e+00	-1.09939314e-04	-5.61040661e-05	-5.38352482e-05
14.8306        	-1.18708773e-06	1.04172090e+00	-1.12635130e-04	-5.75046526e-05	-5.51304771e-05
14.8944        	-1.23833856e-06	1.04093377e+00	-1.16371784e-04	-5.94242304e-05	-5.69475533e-05
14.9582        	-1.28701950e-06	1.04036330e+00	-1.14965134e-04	-5.87695864e-05	-5.61955474e-05
15.022         	-1.33502574e-06	1.03950746e+00	-1.09870184e-04	-5.62701176e-05	-5.36000661e-05
15.0858        	-1.37992568e-06	1.03875619e+00	-1.25061117e-04	-6.39104843e-05	-6.11506330e-05
15.1497        	-1.42563984e-06	1.03803046e+00	-1.22252196e-04	-6.25517377e-05	-5.97004580e-05
15.2135        	-1.46958238e-06	1.03728355e+00	-1.31305117e-04	-6.71221411e-05	-6.41829763e-05
15.2773        	-1.51375967e-06	1.03660156e+00	-1.30875095e-04	-6.69513070e-05	-6.39237877e-05
15.3411        	-1.55796190e-06	1.03590988e+00	-1.30372896e-04	-6.67444098e-05	-6.36284860e-05
15.4049        	-1.60155863e-06	1.03521400e+00	-1.30088855e-04	-6.66459861e-05	-6.34428688e-05
15.4688        	-1.64572785e-06	1.03452164e+00	-1.32052379e-04	-6.76719173e-05	-6.43804616e-05
15.5326        	-1.68991197e-06	1.03386881e+00	-1.35937837e-04	-6.96588304e-05	-6.62790065e-05
15.5964        	-1.73521270e-06	1.03318211e+00	-1.38572021e-04	-7.10212230e-05	-6.75507976e-05
15.6602        	-1.78165933e-06	1.03239334e+00	-1.38257024e-04	-7.09101712e-05	-6.73468526e-05
15.724         	-1.82818767e-06	1.03167656e+00	-1.45552480e-04	-7.46044277e-05	-7.09480523e-05
15.7879        	-1.87744827e-06	1.03101665e+00	-1.48443419e-04	-7.60991580e-05	-7.23442614e-05
15.8517        	-1.92821508e-06	1.03035723e+00	-1.51554155e-04	-7.77052926e-05	-7.38488624e-05
15.9155        	-1.98171013e-06	1.02976523e+00	-1.50886184e-04	-7.74248020e-05	-7.34613818e-05
15.9793        	-2.03894699e-06	1.02915609e+00	-1.52835269e-04	-7.84565813e-05	-7.43786874e-05
16.0431        	-2.09962530e-06	1.02849892e+00	-1.55357739e-04	-7.97784948e-05	-7.55792442e-05
16.107         	-2.16268793e-06	1.02788076e+00	-1.62291352e-04	-8.33083641e-05	-7.89829882e-05
16.1708        	-2.22930405e-06	1.02727965e+00	-1.45827533e-04	-7.51430705e-05	-7.06844624e-05
16.2346        	-2.29889365e-06	1.02666236e+00	-1.61982633e-04	-8.32902102e-05	-7.86924229e-05
16.2984        	-2.36862789e-06	1.02606016e+00	-1.64552968e-04	-8.46451118e-05	-7.99078560e-05
16.3622        	-2.43634144e-06	1.02539445e+00	-1.57520121e-04	-8.11964019e-05	-7.63237190e-05
16.4261        	-2.50714846e-06	1.02485603e+00	-1.63105536e-04	-8.40599162e-05	-7.90456193e-05
16.4899        	-2.58478405e-06	1.02427184e+00	-1.67598960e-04	-8.63842639e-05	-8.12146958e-05
16.5537        	-2.66301089e-06	1.02369562e+00	-1.67665502e-04	-8.64957619e-05	-8.11697401e-05
16.6175        	-2.73741918e-06	1.02311369e+00	-1.70558732e-04	-8.80167850e-05	-8.25419466e-05
16.6813        	-2.81008912e-06	1.02254914e+00	-1.79116491e-04	-9.23683347e-05	-8.67481565e-05
16.7452        	-2.88215193e-06	1.02197858e+00	-1.72310431e-04	-8.90373674e-05	-8.32730636e-05
16.809         	-2.95372431e-06	1.02139049e+00	-1.68549322e-04	-8.72283854e-05	-8.13209368e-05
16.8728        	-3.02406050e-06	1.02081540e+00	-1.68480575e-04	-8.72643479e-05	-8.12162269e-05
16.9366        	-3.09236379e-06	1.02022912e+00	-1.69281649e-04	-8.77331882e-05	-8.15484606e-05
17.0004        	-3.16224712e-06	1.01944213e+00	-1.59812121e-04	-8.30683078e-05	-7.67438136e-05
17.0643        	-3.23287669e-06	1.01878695e+00	-1.66290585e-04	-8.63781693e-05	-7.99124159e-05
17.1281        	-3.30384526e-06	1.01812852e+00	-1.61972036e-04	-8.42898634e-05	-7.76821729e-05
17.1919        	-3.37010318e-06	1.01747226e+00	-1.76579753e-04	-9.16599797e-05	-8.49197734e-05
17.2557        	-3.43816523e-06	1.01680308e+00	-1.64148170e-04	-8.55122500e-05	-7.86359196e-05
17.3195        	-3.50291570e-06	1.01612351e+00	-1.63408943e-04	-8.52073874e-05	-7.82015560e-05
17.3834        	-3.56693828e-06	1.01561744e+00	-1.68460478e-04	-8.77971775e-05	-8.06633009e-05
17.4472        	-3.62927719e-06	1.01507527e+00	-1.65496128e-04	-8.63773411e-05	-7.91187867e-05
17.511         	-3.69446907e-06	1.01456878e+00	-1.69260442e-04	-8.83246900e-05	-8.09357519e-05
17.5748        	-3.76196010e-06	1.01397404e+00	-1.67575308e-04	-8.75496139e-05	-8.00256937e-05
17.6386        	-3.83117480e-06	1.01338027e+00	-1.62994868e-04	-8.53286086e-05	-7.76662590e-05
17.7025        	-3.90183916e-06	1.01280877e+00	-1.64127168e-04	-8.59654231e-05	-7.81617447e-05
17.7663        	-3.97311949e-06	1.01225524e+00	-1.71539482e-04	-8.97428604e-05	-8.17966214e-05
17.8301        	-4.05004941e-06	1.01168042e+00	-1.51145918e-04	-7.96230083e-05	-7.15229095e-05
17.8939        	-4.13061698e-06	1.01100357e+00	-1.35816819e-04	-7.20390262e-05	-6.37777923e-05
17.9577        	-4.20987880e-06	1.01031483e+00	-1.63813942e-04	-8.61168497e-05	-7.76970922e-05
18.0216        	-4.28753527e-06	1.00985852e+00	-1.67728277e-04	-8.81516740e-05	-7.95766035e-05
18.0854        	-4.36826025e-06	1.00941438e+00	-1.62875838e-04	-8.58061795e-05	-7.70696590e-05
18.1492        	-4.45263955e-06	1.00890986e+00	-1.64903966e-04	-8.69046227e-05	-7.79993436e-05
18.213         	-4.53899739e-06	1.00826038e+00	-1.54547527e-04	-8.18127611e-05	-7.27347663e-05
18.2769        	-4.62793830e-06	1.00777431e+00	-1.52234901e-04	-8.07453887e-05	-7.14895121e-05
18.3407        	-4.71764955e-06	1.00729240e+00	-1.39808462e-04	-7.46218806e-05	-6.51865815e-05
18.4045        	-4.80853198e-06	1.00672486e+00	-1.56372993e-04	-8.29950284e-05	-7.33779644e-05
18.4683        	-4.89848357e-06	1.00608509e+00	-1.56409066e-04	-8.31030166e-05	-7.33060495e-05
18.5321        	-4.98858411e-06	1.00559360e+00	-1.38539717e-04	-7.42584425e-05	-6.42812743e-05