/*--------------------------------*- C++ -*----------------------------------*\
| =========                 |                                                 |
| \\      /  F ield         | OpenFOAM: The Open Source CFD Toolbox           |
|  \\    /   O peration     | Version:  5.0                                   |
|   \\  /    A nd           | Web:      www.OpenFOAM.org                      |
|    \\/     M anipulation  |                                                 |
\*---------------------------------------------------------------------------*/
FoamFile
{
    version     2.0;
    format      ascii;
    class       volScalarField;
    location    "220";
    object      p;
}
// * * * * * * * * * * * * * * * * * * * * * * * * * * * * * * * * * * * * * //

dimensions      [0 2 -2 0 0 0 0];

internalField   nonuniform List<scalar> 
9200
(
0.0010393272
0.001054943
0.0027052123
0.0010673239
0.0027420748
0.0044969018
0.0010946373
0.0027826296
0.0045526469
0.0061197746
0.0011206345
0.0028574728
0.0046209481
0.0061896283
0.0077098184
0.0011497631
0.0029456657
0.0047372285
0.0062799663
0.007791947
0.0091897472
0.0011730873
0.0030560653
0.0048775808
0.0064282147
0.0079008696
0.0092812143
0.010580101
0.0011892502
0.0031800973
0.0050500185
0.0066104413
0.0080757372
0.0094040618
0.010678094
0.011876746
0.0011996933
0.0033128698
0.0052486114
0.0068359548
0.0082919872
0.0095974739
0.01081033
0.011979564
0.013086006
0.0011971524
0.0034319176
0.0054741454
0.007103993
0.0085588628
0.0098346965
0.011014494
0.012118767
0.013192544
0.014211789
0.0011528722
0.0035258413
0.005714537
0.0074191765
0.0088777496
0.010121733
0.01126142
0.012330214
0.01333743
0.014321138
0.015259015
0.0010081407
0.0036478732
0.0059607172
0.0077861292
0.0092546929
0.010458366
0.011553305
0.012584132
0.013555116
0.014470788
0.015370398
0.016232304
0.00072928941
0.0037701909
0.0062213053
0.0082306963
0.0097008231
0.010847771
0.011884988
0.012878867
0.013815721
0.01469352
0.015524256
0.01634494
0.017136254
0.00031321908
0.0038284164
0.0064964325
0.0087540918
0.010233205
0.011301934
0.012253712
0.013205694
0.014112593
0.014959639
0.015751483
0.016502724
0.017249214
0.01797541
-0.00024730622
0.0037713291
0.0067570359
0.0093497607
0.010862574
0.011837328
0.012670178
0.013559406
0.014433248
0.015257713
0.016023606
0.016734868
0.017410355
0.018087548
0.018754363
-0.00097692257
0.0035690114
0.0069557727
0.010014647
0.01161109
0.01246475
0.013115101
0.01392882
0.014761195
0.015573909
0.016328283
0.017014738
0.017646939
0.018250871
0.018864323
0.019477726
-0.0018869226
0.0031570488
0.007026132
0.010744041
0.01250486
0.013204386
0.013621424
0.014247679
0.015069312
0.015887463
0.016652304
0.017331908
0.017936191
0.018490234
0.019028149
0.019584008
0.020150047
-0.002942129
0.002506891
0.0069032992
0.011525355
0.013573188
0.014081546
0.014203739
0.014543471
0.015351037
0.016170379
0.016974702
0.017674994
0.018267857
0.018787529
0.019267669
0.019746343
0.020251128
0.020775777
-0.0047257913
0.0015614582
0.0065078365
0.012369523
0.014852807
0.015128087
0.01486375
0.014852743
0.01555875
0.016425398
0.017271587
0.018024628
0.01863595
0.019133173
0.019569453
0.019982727
0.020409803
0.020870164
0.0213593
-0.0068329591
0.00026133554
0.0057317766
0.013278432
0.016346692
0.016373802
0.015623015
0.015154973
0.015639812
0.016608068
0.017542919
0.018372951
0.019026917
0.01952562
0.01992509
0.020284548
0.020639492
0.021022944
0.021445541
0.02190483
-0.0089391888
-0.0016269736
0.0044591225
0.014158417
0.018028444
0.017831144
0.016501399
0.015425361
0.01558742
0.01664647
0.017749854
0.018715842
0.019443888
0.019957527
0.020334983
0.020643594
0.0209365
0.021242377
0.021590263
0.021981598
0.022416229
-0.011735861
-0.0044492317
0.0024622828
0.014832427
0.019897785
0.01950357
0.017511966
0.0156458
0.015364115
0.016492692
0.017848322
0.0190191
0.019874918
0.020431372
0.020795709
0.021062687
0.021292151
0.021529797
0.021796117
0.0221163
0.02248238
0.022897096
-0.015160589
-0.008394342
-0.00082950406
0.015135074
0.022068083
0.021374404
0.018666352
0.015799861
0.014905283
0.016083257
0.017784039
0.019259366
0.020309115
0.020942526
0.021310721
0.021539488
0.021710886
0.021875689
0.022069548
0.022305578
0.022605156
0.022951541
0.023351004
-0.018402879
-0.012813224
-0.0050473479
0.015039431
0.024665084
0.023406688
0.019969493
0.015866419
0.014144231
0.015331621
0.017491403
0.019404368
0.020737617
0.021496523
0.021883414
0.022078306
0.022190252
0.022285619
0.022399985
0.022561
0.022774887
0.023060438
0.023392948
0.023781354
-0.021063217
-0.017299615
-0.0090247669
0.014948439
0.027783649
0.025537411
0.021404663
0.015823728
0.012954647
0.014122338
0.016900133
0.019421622
0.021152328
0.022097101
0.022521737
0.022683496
0.022733765
0.022756161
0.022793983
0.022870922
0.023008419
0.023207654
0.023486356
0.023810782
0.02419099
-0.023131297
-0.021969287
-0.012588486
0.014671351
0.031210928
0.027615394
0.022926032
0.015632311
0.011206199
0.012276756
0.015927172
0.019260409
0.0215498
0.02275426
0.023237117
0.023363107
0.023343927
0.023289029
0.023247137
0.023243251
0.023293366
0.023415911
0.023609113
0.023887565
0.02420758
0.024582349
-0.024694131
-0.026533038
-0.015961916
0.014107314
0.033918959
0.029388909
0.02445256
0.01519314
0.0087246502
0.0095814907
0.014481142
0.018849703
0.021911596
0.023473236
0.024043111
0.024128204
0.024025899
0.023883431
0.023759146
0.023673043
0.023640141
0.023672925
0.023789952
0.023984889
0.02426644
0.024584979
0.02495778
-0.025819486
-0.030655723
-0.019156271
0.013412614
0.035583502
0.030983029
0.025767008
0.014382508
0.0053268806
0.0058776009
0.012435612
0.018090001
0.022204331
0.024258924
0.024951228
0.02499115
0.024786604
0.024540074
0.024325828
0.024158714
0.024042737
0.023989249
0.024017465
0.024135762
0.024336107
0.024624543
0.02494567
0.02531921
-0.026557363
-0.034207653
-0.022104617
0.01244353
0.036486096
0.032306875
0.026480863
0.013161656
0.00097237939
0.0011933379
0.0096460012
0.016836647
0.022365694
0.025110645
0.025974589
0.025964352
0.025632286
0.02525901
0.024941854
0.02469304
0.024499601
0.024361715
0.024297251
0.024326537
0.024451997
0.024663118
0.024965025
0.025292502
0.025668358
-0.026965668
-0.037195315
-0.024649059
0.011114815
0.036297565
0.033120391
0.026494787
0.011502974
-0.0043385899
-0.0046008388
0.0059165127
0.014909387
0.022319196
0.026012374
0.027118768
0.027054425
0.026569111
0.026034632
0.025598282
0.025264725
0.025001875
0.024789109
0.024634482
0.024569374
0.024600752
0.024740064
0.02497118
0.02529155
0.025627687
0.026007008
-0.026981337
-0.039634458
-0.026701703
0.009442841
0.0350606
0.033245277
0.025902183
0.0090034857
-0.01100744
-0.012235447
0.00085794945
0.012002076
0.021942659
0.026939748
0.028375219
0.028262219
0.027593531
0.02686532
0.026280989
0.025857251
0.025534676
0.025262749
0.02503151
0.024869797
0.0248047
0.024845896
0.025010191
0.025266368
0.025606668
0.025952891
0.026336618
-0.026746589
-0.041737215
-0.028239012
0.0074970585
0.032964912
0.032545887
0.024657062
0.0059465851
-0.018886795
-0.022384866
-0.0058664449
0.0079299733
0.020928251
0.027836708
0.029715524
0.029571007
0.028700698
0.027738206
0.026973092
0.026447198
0.026076865
0.025767258
0.025480259
0.025232785
0.025065359
0.02500452
0.025071005
0.025266823
0.025550148
0.025911559
0.026269493
0.026658298
-0.026109802
-0.043524293
-0.029615357
0.0053518057
0.030067943
0.031198057
0.022762185
0.0023122711
-0.027311576
-0.034260902
-0.014493205
0.0021770548
0.01915474
0.028565417
0.031073129
0.030937831
0.029866175
0.028634439
0.027651042
0.0270043
0.026596165
0.02628159
0.025966054
0.02565719
0.025391064
0.025219935
0.025177676
0.025278745
0.025508337
0.025822464
0.026207952
0.026578777
0.026972924
-0.024921206
-0.044015379
-0.030909003
0.0024980959
0.02666571
0.02916162
0.02025917
-0.0019775074
-0.036175413
-0.047450269
-0.026300207
-0.0064737344
0.016380359
0.028983459
0.032364871
0.032280283
0.031043751
0.029521733
0.028281401
0.027489422
0.027051448
0.02676578
0.026478557
0.026134072
0.025787117
0.025501848
0.025338757
0.025328962
0.025470278
0.025739073
0.026087563
0.026498076
0.026881834
0.027281272
-0.023294912
-0.043191388
-0.031650212
-0.00063720113
0.021820653
0.026777859
0.017202912
-0.0066088853
-0.0449919
-0.060775805
-0.040298863
-0.016836467
0.01215355
0.029336505
0.033445801
0.033484639
0.032165766
0.030352192
0.02882143
0.027854071
0.027389227
0.027174576
0.026965484
0.026651286
0.026253044
0.025863161
0.02556897
0.025428819
0.025460282
0.025649162
0.025962998
0.026347512
0.026782755
0.027179392
0.027583898
-0.021301685
-0.041260538
-0.031707046
-0.0039542089
0.016469728
0.023333798
0.013641542
-0.011334846
-0.053551271
-0.07364367
-0.054742625
-0.027048675
0.0071878593
0.02942058
0.034438257
0.034379082
0.033133566
0.031058478
0.029211606
0.028035259
0.027539265
0.02744388
0.02739023
0.027177725
0.026785422
0.026312715
0.025885435
0.025596326
0.025492512
0.025576123
0.02581958
0.026181345
0.026602509
0.027062706
0.027472144
0.02788116
-0.018981909
-0.038426425
-0.031131829
-0.0073830236
0.010388955
0.019013023
0.0097085762
-0.016220468
-0.061659025
-0.086017269
-0.069147018
-0.037386738
0.0015073685
0.027694063
0.034828902
0.035246283
0.033836658
0.031543124
0.029366392
0.027944291
0.027404692
0.027483066
0.027684619
0.027676417
0.027367913
0.026856068
0.026304601
0.025853796
0.025587271
0.025535006
0.025680939
0.025984566
0.026396441
0.026854925
0.027339267
0.02776059
0.028173479
-0.016375414
-0.03487797
-0.03006457
-0.010994346
0.0037015632
0.013099249
0.0060585974
-0.019935787
-0.069514691
-0.097440156
-0.082682966
-0.047745878
-0.0046436262
0.024180681
0.034073748
0.034751122
0.034121486
0.03170012
0.029188773
0.027482276
0.026876056
0.027176711
0.027759115
0.028087587
0.027976486
0.027492178
0.026842789
0.026223878
0.02577108
0.025548277
0.025562707
0.02577951
0.026147049
0.026610283
0.027105869
0.027612766
0.028045007
0.02846095
-0.013520536
-0.030608181
-0.028420471
-0.014702155
-0.0035761548
0.0057896945
0.0017575372
-0.022898115
-0.07470244
-0.10875252
-0.095818908
-0.057711443
-0.011185929
0.019957539
0.032614813
0.033783604
0.033681088
0.031425029
0.028566541
0.026543533
0.025837751
0.026385631
0.027492341
0.02833338
0.028571211
0.028214264
0.027512787
0.026732403
0.026071992
0.025645087
0.025486876
0.025580131
0.025875321
0.026309863
0.026824471
0.027355478
0.027883513
0.028325632
0.028743695
-0.010513956
-0.025674828
-0.026121301
-0.01832919
-0.0113296
-0.0025833317
-0.0035641382
-0.025818248
-0.079156509
-0.11731624
-0.10831421
-0.067136356
-0.018083817
0.015411282
0.030238726
0.032175171
0.032418606
0.030598393
0.027388087
0.025012444
0.024140164
0.024939193
0.026701401
0.028300693
0.029092238
0.02900474
0.028324528
0.027403736
0.026522386
0.025855823
0.025482778
0.025407224
0.025591375
0.025970862
0.026475169
0.027040319
0.027604788
0.028152008
0.028602569
0.02902185
-0.020237109
-0.0074430697
-0.023356929
-0.021847952
-0.019457346
-0.011873915
-0.0099161592
-0.02880367
-0.082657101
-0.12619194
-0.11920634
-0.075105943
-0.024879536
0.010227193
0.02668985
0.029693501
0.030288791
0.029064495
0.025567047
0.022748088
0.021615809
0.022631085
0.025165733
0.027797439
0.029444049
0.029831918
0.029280982
0.028261767
0.027155101
0.026217429
0.025581814
0.025289705
0.025316244
0.025603715
0.02607146
0.026645141
0.02725849
0.027854156
0.02841822
0.028875832
0.02929526
-0.02015299
-0.014473734
-0.0043959311
-0.025153651
-0.027860897
-0.021888926
-0.017035092
-0.032108519
-0.084946931
-0.13195124
-0.13134369
-0.082552051
-0.031383667
0.0048141864
0.021825636
0.026331969
0.02723698
0.02667363
0.023026582
0.019624677
0.018070307
0.019201178
0.0226348
0.026578271
0.02949288
0.030640392
0.030375564
0.02932558
0.028004478
0.02676881
0.025824589
0.025259594
0.025076904
0.02522485
0.025623276
0.026180075
0.026820669
0.027479439
0.02810348
0.028682206
0.029145387
0.029564018
-0.028039274
-0.016614227
-0.0085442347
-0.001423018
-0.036246577
-0.032405527
-0.024562811
-0.035886133
-0.086134394
-0.13474578
-0.1410705
-0.092058588
-0.040115323
-0.00086992306
0.016172584
0.021992283
0.02318883
0.0233464
0.019698504
0.015536314
0.013330545
0.014327039
0.018773273
0.024336768
0.029057392
0.031346596
0.031586012
0.030607051
0.029102056
0.027551794
0.026253351
0.025357512
0.024903546
0.024858119
0.025140845
0.025652592
0.026297715
0.027002274
0.027703419
0.028353052
0.028943945
0.029411149
0.029827975
-0.044465604
-0.03037098
-0.012941271
-0.0026053447
0.0014185537
-0.043220406
-0.032315847
-0.039927813
-0.086157799
-0.13500617
-0.14842327
-0.10083169
-0.050019104
-0.010392375
0.010063364
0.016617468
0.018229897
0.019006076
0.015548778
0.010467769
0.0072289373
0.0076567317
0.013129686
0.020616509
0.027870469
0.031825038
0.032868277
0.032104797
0.030471611
0.028605152
0.026913505
0.025626332
0.024834912
0.024530733
0.024644821
0.025068585
0.025694695
0.026426295
0.027191033
0.027930718
0.028602688
0.029203264
0.029672988
0.030087042
-0.054011221
-0.052428173
-0.032118082
-0.0091661977
0.0031093993
0.0041004158
-0.040215097
-0.043871153
-0.085007062
-0.13255693
-0.15195218
-0.10792854
-0.060120717
-0.020004931
-0.00031622636
0.012030703
0.012221161
0.013694487
0.010587458
0.0044560965
-0.00028780758
-0.001361201
0.0051689874
0.014863373
0.025572768
0.031872332
0.034139699
0.033795254
0.032123458
0.02996044
0.027848575
0.026111902
0.024912706
0.024278519
0.0241578
0.024444045
0.025012601
0.025752592
0.026567032
0.027387458
0.028161363
0.028852232
0.02946001
0.029930759
0.030341181
-0.047829328
-0.064290402
-0.059737315
-0.033332885
-0.0054584197
0.0083777415
0.006619651
-0.047435528
-0.082679827
-0.12753065
-0.15041943
-0.11264269
-0.069628187
-0.030825468
-0.010116608
0.0030076687
0.0058346777
0.0073881989
0.0048952477
-0.002393054
-0.0093168499
-0.013298662
-0.0065795842
0.0087563383
0.021770518
0.031236134
0.035260448
0.035618963
0.034044507
0.031634848
0.029093427
0.026861228
0.025178619
0.024141616
0.023710577
0.023796208
0.024262498
0.024977779
0.025828135
0.026720589
0.027591593
0.028395047
0.029101438
0.029713944
0.030184304
0.030590225
-0.05032939
-0.054591016
-0.073498013
-0.066211096
-0.034085371
-0.0019320837
0.013066223
0.0089244653
-0.079084643
-0.12061264
-0.14526208
-0.1151971
-0.077803835
-0.041767682
-0.021844189
-0.0054543673
-0.0027734497
0.00051539311
-0.0015492396
-0.010017643
-0.019891398
-0.028923982
-0.022475232
-0.0034365229
0.015696139
0.02940148
0.036022863
0.037461943
0.036183687
0.033621548
0.030669036
0.027909808
0.025683654
0.02414902
0.023337223
0.023150009
0.023455665
0.024107301
0.024967181
0.025922864
0.026887256
0.027803156
0.028631471
0.029349917
0.029964849
0.030433519
0.030834163
-0.074278954
-0.052345772
-0.06031619
-0.081396509
-0.07162625
-0.034372888
0.0013737035
0.017124886
0.010979546
-0.11183349
-0.13758343
-0.11531088
-0.083817353
-0.052680983
-0.03440462
-0.017120566
-0.010650531
-0.0076686626
-0.0083344933
-0.018233747
-0.03207078
-0.046623581
-0.041346265
-0.018569666
0.0065155978
0.025299016
0.03590315
0.039128268
0.038437256
0.035874502
0.032573514
0.029278861
0.026460879
0.024362887
0.023070196
0.022532556
0.022610336
0.023146398
0.023984144
0.024983052
0.026037581
0.027066855
0.028021537
0.028870078
0.029597398
0.030212621
0.03067827
0.031072773
-0.10146506
-0.068300785
-0.053224235
-0.065115008
-0.087788914
-0.075811801
-0.034178832
0.0045000636
0.020537311
0.012748452
-0.12730261
-0.11250292
-0.087083203
-0.063023693
-0.04777987
-0.03107535
-0.021125028
-0.014914007
-0.01559543
-0.026900357
-0.044884905
-0.065769662
-0.062460157
-0.03538798
-0.0052380443
0.019256297
0.034399528
0.040217006
0.040626336
0.038297687
0.034766525
0.030969761
0.02753012
0.024805067
0.02295248
0.021972306
0.021746265
0.022105864
0.022876703
0.023896164
0.025027121
0.026172391
0.027258627
0.028246058
0.029110535
0.029843814
0.030457053
0.030918182
0.031305933
-0.11488639
-0.089711247
-0.061308167
-0.052781774
-0.068883027
-0.092414047
-0.078739233
-0.033535787
0.0073803706
0.023251863
0.014228564
-0.10707511
-0.087173027
-0.072259993
-0.061619664
-0.046989734
-0.034688831
-0.023977761
-0.021835958
-0.034235496
-0.059241678
-0.084614549
-0.085547696
-0.056051456
-0.021440233
0.010710875
0.031582162
0.040416291
0.042421187
0.040724908
0.037159775
0.032949577
0.028893743
0.025497641
0.023009664
0.021500502
0.02088521
0.020997887
0.021649502
0.022652887
0.023846081
0.025100033
0.026326535
0.027461713
0.028476514
0.029352966
0.030088808
0.030697355
0.031152794
0.031533817
-0.099466142
-0.10072348
-0.077282889
-0.053431329
-0.051031919
-0.071352623
-0.095148461
-0.080233455
-0.032535828
0.0099617244
0.025196416
0.015371181
-0.084913525
-0.080297375
-0.075659985
-0.064452192
-0.050745253
-0.03583213
-0.029353828
-0.039683302
-0.06912352
-0.1043722
-0.1090148
-0.0797295
-0.041342545
-0.0018049481
0.026085123
0.039509248
0.043490999
0.042878158
0.039602346
0.035139404
0.030525782
0.026440269
0.023262928
0.021140492
0.020047939
0.019835738
0.020306161
0.021250767
0.022479643
0.023835502
0.025201365
0.026498936
0.027676076
0.028713096
0.029596563
0.030330707
0.030932606
0.031382648
0.031767721
-0.080867675
-0.08974193
-0.085709221
-0.064425865
-0.045172566
-0.048114728
-0.072234521
-0.095681502
-0.080327613
-0.031189862
0.012350107
0.026341311
0.016115045
-0.087187471
-0.089583329
-0.083094917
-0.069130546
-0.050165303
-0.038689272
-0.045944034
-0.076549601
-0.1164341
-0.13460678
-0.10566527
-0.062554824
-0.01756538
0.017318279
0.036190759
0.043662469
0.044493251
0.041877714
0.03740974
0.032357208
0.027611005
0.023709279
0.020907594
0.019252457
0.018631318
0.018850675
0.019685311
0.020916769
0.022360135
0.023864541
0.025329923
0.026689635
0.027902129
0.028954312
0.02983821
0.030567789
0.031164224
0.031620001
0.032011636
-0.092197614
-0.075207954
-0.078681984
-0.07053408
-0.051449539
-0.036807359
-0.044288338
-0.071500635
-0.093670562
-0.079155023
-0.029486896
0.014707558
0.026854731
0.016662016
-0.10292311
-0.10252515
-0.089435609
-0.066729706
-0.049674585
-0.053448177
-0.08297825
-0.12951994
-0.15386576
-0.13574184
-0.086650486
-0.036174603
0.0065769936
0.029964155
0.041804119
0.045344628
0.04376414
0.039583008
0.034276851
0.02895115
0.024326647
0.020799301
0.018505292
0.017393419
0.017285745
0.017951173
0.019145803
0.020652372
0.022294912
0.023933091
0.025485848
0.026899423
0.028137463
0.029195029
0.030075239
0.0308032
0.031407262
0.03186639
0.032258996
-0.11490828
-0.095376187
-0.068985399
-0.066914059
-0.055826144
-0.038629888
-0.028355807
-0.039778102
-0.069210296
-0.089816936
-0.076615357
-0.027316228
0.016815291
0.027001853
0.016998642
-0.12220716
-0.11128046
-0.085252426
-0.061963448
-0.062157213
-0.089205624
-0.13907443
-0.1803897
-0.16383722
-0.11406254
-0.058380732
-0.0066166415
0.022045759
0.037334816
0.044587286
0.044875558
0.041427758
0.036127147
0.030365454
0.025064784
0.020792004
0.017803148
0.016121575
0.015610335
0.016040607
0.017152376
0.018695434
0.020459333
0.022281219
0.024040381
0.025670652
0.02712497
0.028374261
0.029431562
0.030313649
0.031058441
0.031657368
0.032117948
0.032509558
-0.14134849
-0.12526555
-0.096503668
-0.062459835
-0.055162457
-0.041970437
-0.026316709
-0.019958304
-0.034825866
-0.065631368
-0.084405063
-0.073387779
-0.02427965
0.018443858
0.026569807
0.017088179
-0.13420441
-0.10541898
-0.075271836
-0.071601305
-0.096002534
-0.14664333
-0.19787538
-0.21287455
-0.14240135
-0.079749857
-0.021516944
0.012375568
0.031516328
0.042025744
0.04467967
0.042641796
0.037693994
0.031716107
0.02584082
0.020840653
0.017121362
0.014806433
0.013816431
0.013943652
0.01491856
0.016466111
0.018337975
0.020336607
0.022320223
0.024188952
0.025880203
0.027354884
0.028607389
0.029674013
0.030585028
0.031319129
0.031914851
0.032373761
0.032763292
-0.15716955
-0.15914003
-0.13342651
-0.095482868
-0.055675738
-0.043919338
-0.029199367
-0.014876109
-0.011844876
-0.029552502
-0.061302487
-0.078738651
-0.068630561
-0.020904341
0.019545752
0.025443425
0.016986626
-0.12662864
-0.089268891
-0.081103699
-0.102941
-0.15342038
-0.21158803
-0.24071892
-0.18477218
-0.10070808
-0.036768351
0.0017556486
0.024165494
0.037643772
0.043213837
0.04302207
0.038765935
0.032828488
0.026533121
0.020872034
0.01641682
0.013421511
0.011886729
0.011642992
0.012425261
0.013936737
0.015899095
0.018072754
0.020285539
0.022416064
0.024374022
0.026098374
0.027581736
0.028852651
0.02996833
0.030860229
0.031589861
0.032177405
0.032633956
0.033019973
-0.14728018
-0.17926077
-0.1741686
-0.13928156
-0.092909619
-0.048543518
-0.033090493
-0.017674014
-0.0045116472
-0.0041404946
-0.02428176
-0.057568872
-0.072311775
-0.062770634
-0.017230986
0.020166516
0.023822863
0.016705848
-0.10302927
-0.089840792
-0.10948464
-0.15858786
-0.22144153
-0.26600593
-0.22525141
-0.13033064
-0.058435073
-0.0097733193
0.015051948
0.0313234
0.040228284
0.042006943
0.03925681
0.033509918
0.026991708
0.020778608
0.01562327
0.01192344
0.0097902579
0.0091129643
0.0096454518
0.011079129
0.013104987
0.015452312
0.01790163
0.020312672
0.022564488
0.024573631
0.026314092
0.027828854
0.029176552
0.030264853
0.031148499
0.031866296
0.032445536
0.032897946
0.03327951
-0.11543678
-0.16602074
-0.19841316
-0.18603887
-0.14261907
-0.089148485
-0.041123428
-0.023006519
-0.0076024822
0.0046426273
0.0027305495
-0.019562328
-0.053430048
-0.065368102
-0.055770129
-0.013555748
0.02014101
0.021869831
0.016267634
-0.097432393
-0.11528091
-0.1612942
-0.22658208
-0.28447735
-0.26329227
-0.16429985
-0.084440594
-0.029010567
0.0047963784
0.023665679
0.035036309
0.039393087
0.038585596
0.033509729
0.027032754
0.020430241
0.014645064
0.010249941
0.0074812105
0.0063159675
0.0065439668
0.0078562228
0.0099184281
0.012425765
0.015129502
0.017833792
0.020412061
0.022736053
0.024771495
0.02656049
0.028191034
0.029501505
0.03057811
0.031442996
0.03214963
0.032718303
0.033165708
0.033541641
-0.10419362
-0.12577028
-0.18076823
-0.21349008
-0.19432143
-0.14348331
-0.084726139
-0.034152317
-0.014522354
0.00051476518
0.012013473
0.0091684419
-0.01605504
-0.048308831
-0.057860926
-0.048034266
-0.010046943
0.019289337
0.019526298
0.015644457
-0.11982887
-0.16129096
-0.22598089
-0.29471636
-0.29633195
-0.20022141
-0.11516789
-0.048067104
-0.01330321
0.014922894
0.028032741
0.035215758
0.03623129
0.032555498
0.026433697
0.019661423
0.01337023
0.0083143091
0.0048979237
0.0032013369
0.0030754687
0.0042233123
0.0062924098
0.0089471263
0.011905249
0.014943584
0.017863398
0.020543074
0.022906516
0.025013389
0.026971301
0.02855352
0.029847455
0.030898003
0.031745715
0.032438627
0.032995655
0.033436685
0.033806223
-0.12162723
-0.1097592
-0.13324695
-0.19039132
-0.223731
-0.19819915
-0.14209101
-0.080224161
-0.028534134
-0.0078907939
0.0068465498
0.018753364
0.013178299
-0.012402764
-0.042508526
-0.049708548
-0.039849048
-0.0069961381
0.017691918
0.015224777
0.014742495
-0.15797263
-0.21993076
-0.29473651
-0.32045768
-0.23702294
-0.14563591
-0.072423206
-0.028311943
-0.0029715628
0.021097824
0.028688467
0.032366098
0.030296988
0.024966189
0.018287048
0.011653539
0.0060198764
0.0019587049
-0.00029540375
-0.00081732547
0.00012678397
0.0021748623
0.0049631913
0.0081792169
0.011562361
0.014886734
0.017936783
0.020672052
0.023138372
0.025485693
0.027382349
0.028942311
0.030200204
0.031227591
0.032055048
0.032733149
0.033276808
0.033710719
0.034073009
-0.15144312
-0.11948501
-0.1127174
-0.13734533
-0.19446284
-0.22706483
-0.1974592
-0.13867458
-0.075862332
-0.024528575
-0.0024921992
0.013258228
0.023008373
0.016822815
-0.0086552702
-0.036090226
-0.041279206
-0.031586533
-0.0044927568
0.015387564
0.01326948
0.013282818
-0.20893398
-0.28418772
-0.32829534
-0.26751264
-0.17201668
-0.097075413
-0.049158662
-0.016779331
0.0047526523
0.02239814
0.026105218
0.026617302
0.022312566
0.016122276
0.009347172
0.0032379359
-0.0014231585
-0.0042553009
-0.0052046184
-0.0044983383
-0.0024967864
0.00041399018
0.003891793
0.0076413921
0.011387081
0.014888834
0.018001036
0.020883983
0.023688912
0.025958543
0.027826229
0.02933763
0.030564072
0.031564747
0.032370784
0.033032267
0.033561501
0.033987318
0.034341852
-0.19388053
-0.14166965
-0.11417786
-0.11254351
-0.13702775
-0.19184377
-0.22189898
-0.19256143
-0.13347394
-0.071102714
-0.021262181
0.0033463782
0.017916974
0.02677404
0.020115471
-0.0050184331
-0.029090057
-0.032793291
-0.023837619
-0.0023023138
0.012955621
0.011533572
0.011166778
-0.26567368
-0.31860584
-0.2835343
-0.19217948
-0.12100361
-0.070387095
-0.036321967
-0.0091072931
0.0081580808
0.018898662
0.0206379
0.018425289
0.012911375
0.006291514
-0.00014467669
-0.0053663688
-0.0087622061
-0.010170819
-0.0097298717
-0.007795835
-0.0047718143
-0.0010251836
0.0031133158
0.0073171716
0.011284908
0.014898801
0.018161676
0.021534102
0.024239673
0.026472585
0.028275703
0.02974556
0.030936436
0.031909321
0.032691843
0.033335616
0.033849107
0.034266427
0.034612423
-0.24126238
-0.1748332
-0.12932103
-0.10613474
-0.10806817
-0.13269127
-0.18110654
-0.21011813
-0.1837489
-0.12630033
-0.065840855
-0.016667567
0.0083947847
0.022015838
0.02973608
0.022874411
-0.0015585698
-0.021780776
-0.023918855
-0.016935082
-0.00058123327
0.010951433
0.0099000165
0.0088455883
-0.29744277
-0.28450857
-0.20514528
-0.14102612
-0.091727057
-0.056887297
-0.028091475
-0.0043631364
0.0064897145
0.013636003
0.012620598
0.0085990371
0.0023088079
-0.0042700533
-0.0099547838
-0.013932186
-0.015804026
-0.015658529
-0.013808303
-0.010675456
-0.006649872
-0.002095189
0.0026040768
0.0070832398
0.011182828
0.01507895
0.018953129
0.022182311
0.024842612
0.02699022
0.028739289
0.030162871
0.031317224
0.032260173
0.033017681
0.033642513
0.034139718
0.034547424
0.0348845
-0.26781912
-0.21184328
-0.15361745
-0.11479115
-0.096014488
-0.099315376
-0.12547518
-0.16431986
-0.19386022
-0.17160384
-0.11707408
-0.059396962
-0.010712438
0.01298922
0.0251494
0.031777225
0.02516292
0.001833803
-0.014622629
-0.015365832
-0.011175181
0.00073877994
0.009345301
0.0083770547
0.0068665263
-0.27220719
-0.21022473
-0.15477472
-0.11118139
-0.078410538
-0.048473243
-0.024395828
-0.0052490597
0.0023826904
0.0061140457
0.0026616675
-0.0026453902
-0.0092530076
-0.015329272
-0.019829864
-0.022223704
-0.022382138
-0.020632665
-0.017390409
-0.013069946
-0.0080672695
-0.0028294914
0.0022036569
0.0068464652
0.011287632
0.015989193
0.019728616
0.022896874
0.025445883
0.027523388
0.029213001
0.030589689
0.031705163
0.032616476
0.033347586
0.033953343
0.034432286
0.034830023
0.035157802
-0.24835654
-0.23230266
-0.18048072
-0.13129145
-0.098913032
-0.083678497
-0.088001839
-0.11472391
-0.14554501
-0.17446327
-0.15429598
-0.10846561
-0.049334673
-0.0049782156
0.016861685
0.027425417
0.032823715
0.026791685
0.00502727
-0.0081378652
-0.0086640405
-0.0066042007
0.0019221324
0.0080006971
0.0069720604
0.0052836083
-0.20663916
-0.16102061
-0.12736321
-0.09902866
-0.070601793
-0.04711727
-0.023825974
-0.008940475
-0.0033288736
-0.0037628542
-0.0089665689
-0.015146978
-0.021537727
-0.026613805
-0.029488995
-0.030026959
-0.028379499
-0.025023034
-0.020384584
-0.014894643
-0.0090697997
-0.0034350606
0.0017961998
0.0068794426
0.012422272
0.016887299
0.020586133
0.023607123
0.026065463
0.028067422
0.029697325
0.031024514
0.032099172
0.03297769
0.033682446
0.034266423
0.034726511
0.035113715
0.035432087
-0.19335755
-0.21665819
-0.19551643
-0.14903186
-0.10878616
-0.082349283
-0.069875145
-0.07472139
-0.099954403
-0.12667395
-0.15138192
-0.13923335
-0.094851036
-0.039563517
0.00044754392
0.019989539
0.028859011
0.032567218
0.02697372
0.0081008534
-0.0026935295
-0.0041394785
-0.0030267942
0.0028638644
0.0068878043
0.0057368923
0.0040405244
-0.16024809
-0.13874625
-0.11688579
-0.093053608
-0.071495993
-0.048186629
-0.026490491
-0.011763064
-0.011843976
-0.015760746
-0.022190084
-0.028683676
-0.034262285
-0.037791771
-0.038661698
-0.037182988
-0.033696554
-0.028707161
-0.022679938
-0.016210575
-0.0099226568
-0.004055044
0.001739896
0.0082638395
0.013508829
0.017900405
0.02143065
0.024333949
0.026696375
0.028623018
0.030190392
0.031466085
0.03249895
0.03334526
0.034019909
0.034581458
0.035021723
0.035398134
0.035707103
-0.15408604
-0.17300788
-0.18289137
-0.15971076
-0.11947497
-0.086909509
-0.065724295
-0.055575006
-0.06017537
-0.082759351
-0.10858114
-0.13238041
-0.12009223
-0.081336434
-0.029850603
0.0052633578
0.022323498
0.029532199
0.031381531
0.025631628
0.010600825
0.0012077975
-0.00085328333
-0.00042839227
0.0035475202
0.0059893302
0.0047100035
0.0030826375
-0.143239
-0.12991436
-0.11414662
-0.097126152
-0.077475011
-0.050308966
-0.027853422
-0.017355039
-0.023004087
-0.029756088
-0.036837836
-0.042987146
-0.047048033
-0.048517683
-0.047135421
-0.04355261
-0.038168783
-0.031540327
-0.024355397
-0.017354766
-0.010801727
-0.0042229059
0.0034366818
0.0095647082
0.014737216
0.018895793
0.022291099
0.025072102
0.027339685
0.029188155
0.030690873
0.031914476
0.032906755
0.033715803
0.034359727
0.034897528
0.035317516
0.035682877
0.035982609
-0.14103785
-0.14259311
-0.14918946
-0.1498254
-0.12680979
-0.092493262
-0.066538787
-0.049726469
-0.041672256
-0.045084558
-0.065793409
-0.095284986
-0.11115902
-0.1010864
-0.067192039
-0.020744656
0.0093415524
0.02384947
0.029528923
0.029676081
0.023744736
0.012020782
0.0039354469
0.0015867956
0.0017478831
0.0040085339
0.0052776188
0.0038914652
0.0023735707
-0.13762035
-0.13236884
-0.12299443
-0.1086102
-0.08086515
-0.052832902
-0.0292753
-0.026727242
-0.036519568
-0.045690543
-0.052619521
-0.057637908
-0.059466162
-0.058500271
-0.05471682
-0.048915363
-0.041605795
-0.033617331
-0.02583344
-0.018542667
-0.011105206
-0.0021389887
0.0049909642
0.011053384
0.015928253
0.019911413
0.023161397
0.025822923
0.027993347
0.029761389
0.031199324
0.032372925
0.033318091
0.034089151
0.034700741
0.035214159
0.035613462
0.035967604
0.03625821
-0.14038614
-0.1343184
-0.12707238
-0.12389719
-0.11943259
-0.097701251
-0.068574809
-0.047906214
-0.035064912
-0.028115194
-0.031738129
-0.051495512
-0.081266689
-0.090140469
-0.081612418
-0.05275615
-0.01233852
0.012520302
0.024571416
0.028785213
0.02778222
0.022021295
0.012651372