/*--------------------------------*- C++ -*----------------------------------*\
| =========                 |                                                 |
| \\      /  F ield         | OpenFOAM: The Open Source CFD Toolbox           |
|  \\    /   O peration     | Version:  5.0                                   |
|   \\  /    A nd           | Web:      www.OpenFOAM.org                      |
|    \\/     M anipulation  |                                                 |
\*---------------------------------------------------------------------------*/
FoamFile
{
    version     2.0;
    format      ascii;
    class       surfaceScalarField;
    location    "220";
    object      phi;
}
// * * * * * * * * * * * * * * * * * * * * * * * * * * * * * * * * * * * * * //

dimensions      [0 3 -1 0 0 0 0];

internalField   nonuniform List<scalar> 
18180
(
-0.0019073253
-1.3897608
-0.0037138156
-1.2997783
-0.0018539742
-1.3879069
-0.0054100541
-1.2157545
-0.0036123753
-1.2980199
-0.0017611991
-1.3861457
-0.007019281
-1.1372683
-0.0052796054
-1.2140872
-0.0034331256
-1.2963479
-0.0016315295
-1.3845141
-0.0085246009
-1.0639341
-0.0068754332
-1.1356725
-0.0050256608
-1.2124947
-0.0031810836
-1.2947984
-0.0014939531
-1.3830202
-0.0099108725
-0.99541161
-0.0084070026
-1.0624026
-0.0065601551
-1.134138
-0.0046574931
-1.2110183
-0.0029083552
-1.293384
-0.0013610577
-1.3816591
-0.011144728
-0.93138215
-0.0098804239
-0.99393818
-0.0080558376
-1.0609069
-0.0060822636
-1.1327132
-0.0042509167
-1.2096757
-0.0026425458
-1.2921025
-0.0012485202
-1.3804106
-0.012196115
-0.87156918
-0.011298242
-0.92996433
-0.009538362
-0.99245566
-0.0074772966
-1.0595119
-0.0055350087
-1.1314291
-0.0038514334
-1.2084668
-0.0024165818
-1.2909344
-0.0011585653
-1.379252
-0.01304569
-0.81570817
-0.012665475
-0.87020194
-0.011049132
-0.92845356
-0.0088766869
-0.99105627
-0.0067737664
-1.0582731
-0.0049920032
-1.1302886
-0.0035133591
-1.2073701
-0.0022382513
-1.2898547
-0.0010867806
-1.3781653
-0.013596671
-0.76359791
-0.013968539
-0.8144051
-0.012650635
-0.86860044
-0.010335981
-0.92699427
-0.0079872217
-0.98984281
-0.0060660395
-1.0571991
-0.0045369809
-1.1292649
-0.0032523343
-1.206356
-0.0021008076
-1.2888407
-0.0010249616
-1.3771403
-0.013756785
-0.714972
-0.015290251
-0.7622762
-0.014458069
-0.81259767
-0.011920564
-0.86701586
-0.0092028544
-0.92577863
-0.0070722487
-0.98883661
-0.0054838531
-1.0562522
-0.0041980344
-1.1283192
-0.0030581794
-1.2053986
-0.0019868194
-1.2878789
-0.00096589352
-1.3761744
-0.013455064
-0.66972102
-0.016796413
-0.71346584
-0.016625637
-0.76010863
-0.013729405
-0.81078883
-0.010448878
-0.86576983
-0.0080043263
-0.92484656
-0.0063373209
-0.98798314
-0.0050729779
-1.0553772
-0.003959268
-1.1274181
-0.0029009362
-1.2044845
-0.0018785538
-1.2869662
-0.00090424166
-1.3752702
-0.012596496
-0.62768103
-0.018623069
-0.66789437
-0.019170066
-0.71092141
-0.015810093
-0.75802794
-0.011749564
-0.80948814
-0.0088511142
-0.86492305
-0.0070696846
-0.92411419
-0.0058576722
-0.98719844
-0.0048055351
-1.054531
-0.0037725354
-1.1265465
-0.0027503472
-1.2036127
-0.0017624426
-1.286108
-0.0008364696
-1.3744337
-0.011116271
-0.58860448
-0.020832867
-0.62547124
-0.022213604
-0.66485083
-0.018248727
-0.70848278
-0.013118574
-0.75665894
-0.0095762934
-0.80876296
-0.0076404578
-0.86435227
-0.006519853
-0.92345201
-0.0055836633
-0.98642032
-0.004607368
-1.0536961
-0.0035919164
-1.125705
-0.0025845498
-1.2027906
-0.0016307839
-1.2853137
-0.00076141053
-1.3736723
-0.0089670422
-0.55226987
-0.023460633
-0.58597672
-0.026025627
-0.62165921
-0.021220259
-0.6618793
-0.014613209
-0.70698814
-0.010105382
-0.75612985
-0.0079809099
-0.80842251
-0.0070108931
-0.86386123
-0.006267539
-0.92276814
-0.0054038736
-0.98562381
-0.0044151105
-1.0528729
-0.0033848497
-1.1249047
-0.0023917284
-1.2020296
-0.0014824218
-1.2845927
-0.00068096122
-1.3729913
-0.0061779032
-0.51837172
-0.026578834
-0.54915167
-0.030863598
-0.58113875
-0.024909341
-0.61797013
-0.016285961
-0.66020655
-0.010404757
-0.70668877
-0.0079607253
-0.75615003
-0.0072354181
-0.80819799
-0.0068071944
-0.86332158
-0.0061509987
-0.92202101
-0.0052325044
-0.98480642
-0.0041823926
-1.0520754
-0.0031338864
-1.1241625
-0.0021703598
-1.2013417
-0.0013223403
-1.2839513
-0.00059943805
-1.3723919
-0.002694848
-0.48667454
-0.030266378
-0.51468417
-0.036964745
-0.54305052
-0.029510504
-0.57653758
-0.018194963
-0.61606113
-0.010411031
-0.66020027
-0.0074545808
-0.70719491
-0.0071013564
-0.75628409
-0.0071247021
-0.80788048
-0.0068206929
-0.86265188
-0.006060019
-0.92119349
-0.0050001607
-0.98398865
-0.0038793961
-1.0513299
-0.0028376571
-1.1234952
-0.0019289948
-1.2007351
-0.001159581
-1.2833911
-0.00052176466
-1.3718701
0.0016691987
-0.45736968
-0.03461675
-0.48232417
-0.044550557
-0.50709836
-0.0352079
-0.53735313
-0.020414872
-0.57431767
-0.010041417
-0.61643074
-0.0063327482
-0.66132211
-0.0064402061
-0.70785606
-0.0072461792
-0.75616261
-0.007425105
-0.80727607
-0.0069225726
-0.86178933
-0.0058786573
-0.920315
-0.0046561881
-0.98321185
-0.0035023603
-1.0506652
-0.0025089714
-1.1229152
-0.0016824861
-1.2002121
-0.0010042225
-1.2829087
-0.00045192504
-1.3714182
0.0075232788
-0.4311326
-0.039415119
-0.45257131
-0.053714008
-0.47316072
-0.04211973
-0.50018653
-0.023014382
-0.53475362
-0.0092053352
-0.57515376
-0.0044217498
-0.61834174
-0.0050882619
-0.66267405
-0.0070536172
-0.70804862
-0.0080015947
-0.75558612
-0.0078949463
-0.80630369
-0.0068810337
-0.86078695
-0.0055093988
-0.91946179
-0.004190735
-0.98252348
-0.0030730572
-1.0501011
-0.0021701451
-1.1224276
-0.0014469534
-1.1997694
-0.00086466424
-1.2824959
-0.00039251516
-1.3710257
0.014922482
-0.40753529
-0.044113213
-0.4264345
-0.064517835
-0.44176748
-0.050373021
-0.46490743
-0.026008286
-0.49719263
-0.0077981157
-0.53616084
-0.0015226525
-0.57805285
-0.0028500491
-0.62057995
-0.0063589464
-0.66336872
-0.0085397931
-0.70751042
-0.0090017766
-0.75447929
-0.008087522
-0.8050972
-0.0065064508
-0.8597899
-0.0049383759
-0.91871415
-0.0036378877
-0.98195865
-0.0026258036
-1.0496454
-0.0018454395
-1.1220291
-0.0012356216
-1.1993985
-0.00074622601
-1.2821422
-0.00034492649
-1.3706808
0.022866875
-0.38360932
-0.047739692
-0.40390881
-0.07714307
-0.41380927
-0.060386742
-0.43175376
-0.029448894
-0.46146682
-0.0057255436
-0.4992652
0.0025856877
-0.54026918
0.00050596213
-0.58140886
-0.0049980606
-0.62194084
-0.0089922126
-0.6629163
-0.010312808
-0.70619939
-0.009554856
-0.75301196
-0.0077152994
-0.80388835
-0.005795752
-0.85893252
-0.0042264043
-0.91812563
-0.0030544121
-0.98153004
-0.0021967124
-1.0492942
-0.0015548443
-1.1217099
-0.0010567466
-1.1990879
-0.00065104768
-1.2818361
-0.0003093407
-1.3703714
0.031177316
-0.35851737
-0.0498212
-0.38152781
-0.092104888
-0.38894699
-0.073002956
-0.40119305
-0.033736334
-0.42746632
-0.0028779583
-0.4643144
0.0081211554
-0.50480067
0.005243598
-0.54500681
-0.0027811178
-0.58362581
-0.0092902014
-0.62164285
-0.011936461
-0.66129265
-0.011424588
-0.70432966
-0.009226551
-0.75150071
-0.0068169485
-0.80286716
-0.00486507
-0.85829386
-0.0034642572
-0.91771578
-0.0024959908
-0.98123076
-0.0018154542
-1.0490336
-0.0013111634
-1.1214555
-0.00091351663
-1.1988255
-0.00057861907
-1.2815668
-0.00028444893
-1.370087
0.039265867
-0.33317683
-0.051822636
-0.35651593
-0.10840936
-0.36522334
-0.08908567
-0.37286428
-0.039800411
-0.39512898
0.00078359065
-0.43112787
0.015287535
-0.47148078
0.011618243
-0.51117531
0.00050613117
-0.54829406
-0.009360704
-0.5835553
-0.013975626
-0.61960368
-0.013875649
-0.65884158
-0.011188679
-0.70236753
-0.0080822294
-0.75023543
-0.0055850539
-0.80214717
-0.0038581456
-0.85789997
-0.0027368237
-0.91747495
-0.0020060253
-0.98104019
-0.0015009384
-1.0488438
-0.0011194414
-1.1212495
-0.00080513308
-1.198599
-0.00052651444
-1.2813248
-0.00026756212
-1.3698194
0.046616982
-0.30748189
-0.055437423
-0.32956205
-0.12523109
-0.3396942
-0.10858497
-0.34572404
-0.048341739
-0.36432295
0.0051414212
-0.39948681
0.02430462
-0.44014496
0.01989001
-0.47975255
0.00511624
-0.51578542
-0.0091231245
-0.54853164
-0.016553448
-0.58097748
-0.017125328
-0.616354
-0.013781698
-0.65624856
-0.0096936579
-0.7007561
-0.0064264408
-0.74939404
-0.0042374307
-0.80176789
-0.002902501
-0.85773429
-0.0021086426
-0.91737233
-0.0016108262
-0.9809303
-0.0012602407
-1.048703
-0.00097778921
-1.1210769
-0.00072815694
-1.1983973
-0.0004911182
-1.2811012
-0.00025567755
-1.3695637
0.053373089
-0.2823879
-0.05999082
-0.30292849
-0.14201171
-0.31278143
-0.12874792
-0.31953125
-0.058982808
-0.33508297
0.010103804
-0.36928533
0.035432416
-0.4106146
0.030293105
-0.45054805
0.011305648
-0.48594196
-0.0084723515
-0.51643619
-0.019824085
-0.545261
-0.0214373
-0.57666551
-0.017228776
-0.61290693
-0.011779316
-0.65416291
-0.0074334443
-0.6997491
-0.0046004455
-0.74903102
-0.0029683092
-0.80170208
-0.0020933956
-0.85774954
-0.0016174316
-0.91736573
-0.0013188136
-0.98087173
-0.0010896912
-1.0485911
-0.00087962005
-1.1209254
-0.00067735384
-1.1982111
-0.00046831696
-1.2808886
-0.0002467239
-1.369317
0.059416975
-0.25819128
-0.06449638
-0.27788234
-0.1577689
-0.28717131
-0.14698532
-0.29454402
-0.070613396
-0.30790066
0.01566549
-0.34064465
0.048827192
-0.38268011
0.042983049
-0.42330455
0.019281203
-0.4585236
-0.0072883879
-0.48712592
-0.02395826
-0.51230202
-0.02711724
-0.53958106
-0.021781041
-0.57211324
-0.014488863
-0.61019738
-0.0086596954
-0.65293666
-0.0049396796
-0.69940987
-0.0028985235
-0.74910081
-0.0019183369
-0.80187714
-0.0014849559
-0.85788201
-0.001272447
-0.91741209
-0.0011234782
-0.98083794
-0.00097780878
-1.0484929
-0.00081646241
-1.1207863
-0.00064632427
-1.1980331
-0.00045438287
-1.2806809
-0.00024018791
-1.3690768
0.06477307
-0.2354382
-0.068896128
-0.25379154
-0.17280017
-0.26285106
-0.163347
-0.27080964
-0.082220374
-0.28293705
0.021370361
-0.31360553
0.064315523
-0.35613298
0.057936624
-0.39763368
0.029018067
-0.43304141
-0.005586507
-0.46022549
-0.029190981
-0.4818932
-0.034516395
-0.50490286
-0.027719038
-0.53364307
-0.017982299
-0.56861981
-0.010159963
-0.60869711
-0.0052401525
-0.65263618
-0.0026445983
-0.69966379
-0.0015252787
-0.74949387
-0.001163724
-0.80219837
-0.0010868043
-0.85806766
-0.0010606952
-0.91747487
-0.0010078444
-0.9808079
-0.00090975859
-1.0483996
-0.00077967246
-1.120653
-0.00062878086
-1.1978587
-0.000446722
-1.2804744
-0.00023632716
-1.3688405
0.069507935
-0.21433266
-0.073056035
-0.23127829
-0.18695134
-0.23964037
-0.178547
-0.24765106
-0.093408963
-0.25962105
0.026588949
-0.28815563
0.081528035
-0.33081804
0.074990831
-0.37318719
0.040429799
-0.40904542
-0.0035143639
-0.43511356
-0.035885226
-0.45353124
-0.044037145
-0.47237245
-0.035353881
-0.49726802
-0.022430356
-0.52919501
-0.011989892
-0.56678988
-0.0054776257
-0.60845964
-0.0021419262
-0.65313886
-0.00083864482
-0.70035043
-0.00058620048
-0.75007139
-0.00071370099
-0.80257147
-0.00087511435
-0.85825324
-0.00095614403
-0.91752657
-0.00094888332
-0.98076878
-0.00087130376
-1.048308
-0.00076100454
-1.1205207
-0.00062010033
-1.1976853
-0.0004434307
-1.2802673
-0.00023475847
-1.3686057
0.073703993
-0.19493762
-0.076871104
-0.21051759
-0.2001361
-0.21809353
-0.19235243
-0.22583495
-0.10344463
-0.23761539
0.031346476
-0.26437858
0.10006298
-0.30669058
0.09410577
-0.34993298
0.053821652
-0.38657904
-0.00096631534
-0.41159346
-0.044497435
-0.42650135
-0.056098436
-0.44146995
-0.044993168
-0.46273316
-0.028004911
-0.49169346
-0.014194266
-0.52699064
-0.005618963
-0.56664854
-0.0013114945
-0.60929007
0.00023546192
-0.65421296
0.00033455131
-0.70127118
-8.7839956e-05
-0.75069725
-0.00052789445
-0.80291869
-0.0008081207
-0.85840126
-0.00092643896
-0.91754902
-0.00092199531
-0.98071809
-0.00085272399
-1.0482162
-0.00075423379
-1.1203866
-0.00061719559
-1.1975115
-0.00044236369
-1.2800597
-0.00023426051
-1.3683715
0.07743072
-0.17723743
-0.080279052
-0.19152967
-0.21234934
-0.19830435
-0.20483273
-0.20561323
-0.11207368
-0.2172059
0.036075305
-0.24234421
0.11933324
-0.28364883
0.11525198
-0.32783679
0.06981758
-0.36592891
0.0031180584
-0.39066342
-0.054642286
-0.40144861
-0.070931289
-0.41166849
-0.056815667
-0.42964745
-0.034845923
-0.45589215
-0.016795919
-0.48909181
-0.0056155162
-0.52699408
-6.1128637e-05
-0.56789891
0.0018106371
-0.61086525
0.0017090291
-0.65558744
0.00087572299
-0.70223474
3.3800911e-05
-0.75125895
-0.00054023646
-0.80318658
-0.00083744447
-0.85849026
-0.00093523363
-0.91753578
-0.00091575621
-0.98065505
-0.00085310687
-1.0481174
-0.00075547762
-1.1202483
-0.0006167276
-1.1973372
-0.00044153819
-1.2798524
-0.00023366493
-1.3681378
0.079833418
-0.18901663
-0.083230807
-0.17428568
-0.2235774
-0.18030161
-0.21607734
-0.18705974
-0.11936518
-0.19832173
0.041020504
-0.2221511
0.13871305
-0.26172403
0.13736863
-0.30576548
0.08807024
-0.34608945
0.010085907
-0.37289676
-0.064753639
-0.38055206
-0.088136376
-0.38424353
-0.070808495
-0.39767566
-0.042945457
-0.42154792
-0.019778716
-0.45290935
-0.0053949105
-0.48931242
0.0017150424
-0.52877025
0.0040178581
-0.57010613
0.0036639004
-0.61282012
0.0022817239
-0.65699344
0.00087930426
-0.70308025
-0.00011967768
-0.75167951
-0.00067733355
-0.80334669
-0.00091398137
-0.85851151
-0.00096128046
-0.91749026
-0.00092856687
-0.98057959
-0.00086220001
-1.0480107
-0.00075638923
-1.1201086
-0.00061531086
-1.1971634
-0.00043988343
-1.2796462
-0.0002323964
-1.3679054
0.082488841
-0.18318991
-0.085619664
-0.18662777
-0.23384083
-0.16402224
-0.22613318
-0.17024576
-0.12544564
-0.18097928
0.046270644
-0.20357187
0.15758662
-0.24102467
0.15953217
-0.28388758
0.1066165
-0.32431174
0.019588002
-0.35559155
-0.073609194
-0.36404121
-0.10686541
-0.36182303
-0.087232502
-0.36781952
-0.052184294
-0.38843683
-0.023034048
-0.41829258
-0.0048553196
-0.45344894
0.0041327574
-0.49173013
0.006991436
-0.53174383
0.0063436029
-0.57278583
0.0042575095
-0.6147959
0.0020959671
-0.65821011
0.00049763612
-0.70369756
-0.00043703298
-0.75191981
-0.00086864336
-0.80339203
-0.0010014907
-0.8584713
-0.00099690762
-0.91742192
-0.00094690791
-0.98049489
-0.00086492479
-1.0479021
-0.00075362948
-1.1199703
-0.00061240166
-1.1969909
-0.00043711388
-1.2794415
-0.00023033646
-1.3676751
0.085265531
-0.17710666
-0.087077864
-0.18173171
-0.2434689
-0.1769997
-0.23506626
-0.15508917
-0.1304959
-0.1651955
0.051684221
-0.18639286
0.1755872
-0.22157245
0.18111822
-0.26261071
0.12499066
-0.30226174
0.029598734
-0.33432247
-0.080849443
-0.3483513
-0.12695637
-0.34395025
-0.10683022
-0.34222531
-0.063169648
-0.35683417
-0.026356553
-0.38511432
-0.0038620757
-0.41928583
0.0073158444
-0.45663203
0.01087098
-0.49560968
0.0099058913
-0.53530612
0.0069488189
-0.57547714
0.0037921613
-0.6164921
0.0013700424
-0.65908251
-0.00010198845
-0.7040326
-0.00081345475
-0.751975
-0.0010592015
-0.80333432
-0.0010819821
-0.85838622
-0.0010294551
-0.91733937
-0.00095395818
-0.98040585
-0.00086112968
-1.0477946
-0.0007501069
-1.1198326
-0.00060837231
-1.1968196
-0.00043300996
-1.2792388
-0.00022756813
-1.3674475
0.088143154
-0.17091675
-0.087807024
-0.1763775
-0.25213321
-0.17306739
-0.24508313
-0.16698283
-0.13464399
-0.15094108
0.05705623
-0.17056751
0.1925804
-0.20338606
0.20152821
-0.24198244
0.14289481
-0.28051486
0.039050765
-0.31171377
-0.086354454
-0.32881746
-0.14846757
-0.32684009
-0.12991864
-0.32086183
-0.077636634
-0.32775833
-0.029907308
-0.35328341
-0.0022284478
-0.38674795
0.011387584
-0.42335757
0.015788103
-0.46154915
0.014508229
-0.50021202
0.010517729
-0.53887503
0.0060966492
-0.57778163
0.002571189
-0.61769324
0.0003477343
-0.65953223
-0.00076393338
-0.70408213
-0.0011651052
-0.7518691
-0.001213583
-0.80320272
-0.0011376317
-0.85827805
-0.0010412171
-0.91725211
-0.00094826009
-0.98031872
-0.00085469907
-1.04769
-0.00074376887
-1.1196972
-0.00060188869
-1.1966507
-0.00042758924
-1.2790388
-0.00022424572
-1.3672233
0.09109908
-0.16495735
-0.087889798
-0.17083397
-0.25959896
-0.16891175
-0.25397039
-0.16418013
-0.14349409
-0.15813273
0.062284798
-0.15616965
0.20843278
-0.18641989
0.22045868
-0.22231653
0.15986936
-0.25895699
0.047358005
-0.2888221
-0.092682501
-0.30538572
-0.16986062
-0.30742441
-0.15571534
-0.30104339
-0.096522029
-0.30197643
-0.034755245
-0.32291039
0.0002428593
-0.35575472
0.016464347
-0.39182471
0.021857966
-0.42942743
0.020299192
-0.46734012
0.015134238
-0.50482852
0.0091588529
-0.54193723
0.0041930433
-0.57940348
0.00094145365
-0.61828696
-0.00073807911
-0.65955809
-0.0013606455
-0.70388659
-0.0014348608
-0.75164782
-0.0013080525
-0.8030323
-0.0011547189
-0.85816455
-0.0010306522
-0.91716972
-0.00093419764
-0.98023922
-0.00084316289
-1.0475906
-0.00073366257
-1.1195655
-0.00059359837
-1.1964847
-0.00042120172
-1.2788418
-0.00022055082
-1.3670027
0.09408036
-0.15942364
-0.087377493
-0.16546965
-0.26563749
-0.16479545
-0.26158309
-0.16129905
-0.15137061
-0.15630362
0.05963372
-0.15548165
0.22314374
-0.17088061
0.23788719
-0.20384841
0.17562674
-0.23807391
0.054781104
-0.26638009
-0.10026052
-0.28124408
-0.19028435
-0.28496199
-0.18164148
-0.28149828
-0.1183434
-0.27922202
-0.042265563
-0.29446611
0.0035848336
-0.32625237
0.022684325
-0.3619747
0.029165347
-0.39913209
0.027409109
-0.43653735
0.020968662
-0.47317454
0.013145722
-0.50881539
0.0063489184
-0.54409311
0.0017175799
-0.58017961
-0.00075788034
-0.61826716
-0.0016995876
-0.65921915
-0.0018067511
-0.7035147
-0.0015929457
-0.75136292
-0.0013342959
-0.80285272
-0.0011347472
-0.85806045
-0.0010036544
-0.91710026
-0.00091296314
-0.98016942
-0.00082730113
-1.047497
-0.00072174383
-1.1194373
-0.00058421595
-1.1963217
-0.00041418725
-1.2786482
-0.00021664161
-1.3667861
0.0970504
-0.15442729
-0.086270254
-0.16053088
-0.27020409
-0.16090305
-0.26787009
-0.15850845
-0.15825294
-0.15441672
0.057361125
-0.15403102
0.23139807
-0.16373598
0.25364605
-0.18663947
0.18996533
-0.21818699
0.061362335
-0.24465514
-0.1081522
-0.25848841
-0.20941342
-0.26211501
-0.20487064
-0.26173283
-0.14062356
-0.25921811
-0.052611127
-0.26887646
0.0072061964
-0.29808748
0.030239173
-0.33380721
0.03775774
-0.37056709
0.03592809
-0.40765107
0.028175339
-0.44374403
0.018237184
-0.478266
0.0091771018
-0.51164358
0.0027305681
-0.5451061
-0.00084449881
-0.58009299
-0.0022476925
-0.61771906
-0.0024069398
-0.65861896
-0.0020616693
-0.70304597
-0.0016337806
-0.75106344
-0.0012978275
-0.80268964
-0.0010853767
-0.85797873
-0.00096441826
-0.91704881
-0.00088609758
-0.98011063
-0.00080908004
-1.0474097
-0.00070844859
-1.1193131
-0.00057397753
-1.1961619
-0.00040679227
-1.278458
-0.00021269109
-1.3665734
0.099999397
-0.15011222
-0.084595541
-0.156102
-0.27334841
-0.15738656
-0.27283933
-0.1559338
-0.16408936
-0.15267202
0.055439752
-0.15249535
0.2396452
-0.16227815
0.26672109
-0.17681102
0.20273895
-0.19941309
0.06695244
-0.2237771
-0.11609906
-0.23670829
-0.22753679
-0.24036504
-0.22541679
-0.24156886
-0.16167388
-0.24068251
-0.065473119
-0.24635612
0.010148953
-0.27181921
0.039286291
-0.30713459
0.047603522
-0.34365299
0.045890339
-0.38052934
0.036876519
-0.41635225
0.024615715
-0.45012256
0.012840397
-0.4819293
0.0040537667
-0.51296678
-0.0010187711
-0.54493183
-0.0030855546
-0.57925513
-0.0033329417
-0.61679305
-0.0028033196
-0.65787731
-0.0021230089
-0.70255674
-0.0015696989
-0.75079157
-0.0012109346
-0.80256408
-0.0010148533
-0.85792829
-0.00091697721
-0.91701793
-0.00085630388
-0.9800634
-0.00078951197
-1.0473286
-0.00069430009
-1.1191928
-0.00056338566
-1.1960053
-0.00039942723
-1.2782713
-0.00020885082
-1.3663645
0.10292957
-0.14663419
-0.082312909
-0.15239485
-0.27508695
-0.15436347
-0.27650636
-0.15371954
-0.16883036
-0.1511928
0.053938917
-0.15117118
0.24763868
-0.16048882
0.27939235
-0.17494941
0.21822885
-0.19230093
0.071708476
-0.20416912
-0.12384624
-0.21602992
-0.24468382
-0.21956126
-0.24427508
-0.22150674
-0.18088207
-0.22236068
-0.079790733
-0.22636489
0.011524024
-0.24773119
0.049463325
-0.28199625
0.05878138
-0.31831245
0.057249058
-0.35501171
0.047155793
-0.39080861
0.032462829
-0.42419937
0.017530832
-0.45481299
0.0057881699
-0.4836637
-0.0012926108
-0.51269294
-0.0043077754
-0.5437096
-0.0047055334
-0.57788254
-0.003930021
-0.61566635
-0.0028914427
-0.65710887
-0.0020147643
-0.70211168
-0.0014228237
-0.75057968
-0.0010892867
-0.80248965
-0.00093250899
-0.85791276
-0.00086664332
-0.91700759
-0.00082598469
-0.98002693
-0.00076982242
-1.0472531
-0.00068034061
-1.1190758
-0.00055315922
-1.1958516
-0.00039235753
-1.2780878
-0.00020523672
-1.3661593
-0.14415064
0.10585238
-0.079376587
-0.14957051
-0.27544446
-0.15203734
-0.2789047
-0.15196513
-0.17250448
-0.15004541
0.053023018
-0.15027691
0.25519867
-0.15873118
0.2914166
-0.17251308
0.23310982
-0.18983038
0.086307255
-0.20689971
-0.13099292
-0.19702245
-0.26064925
-0.2000645
-0.26151814
-0.2023182
-0.19818147
-0.20420734
-0.09411379
-0.20803762
0.010909619
-0.22575049
0.060113899
-0.25838176
0.071267089
-0.29448196
0.069922358
-0.33098575
0.059059809
-0.36691573
0.041948198
-0.40029398
0.023471682
-0.43014022
0.0080751342
-0.45709996
-0.0016679585
-0.48328835
-0.0060247116
-0.510976
-0.0066727522
-0.54174239
-0.0055800928
-0.57623246
-0.0040501944
-0.6145076
-0.0027142068
-0.65640943
-0.0017754931
-0.70175901
-0.0012211493
-0.75044782
-0.00095038075
-0.80247178
-0.00084777146
-0.85793163
-0.00081742034
-0.91701615
-0.00079676729
-0.97999998
-0.00075126506
-1.0471821
-0.00066723909
-1.1189617
-0.00054351198
-1.1957004
-0.00038578115
-1.2779072
-0.00020191895
-1.3659574
-0.147622
-0.075905225
-0.1426906
0.10877439
-0.27455157
-0.1504634
-0.280191
-0.15075104
-0.17520343
-0.14926619
0.052667524
-0.14968992
0.26232854
-0.15740677
0.30241526
-0.16972984
0.24709305
-0.1864963
0.10048565
-0.20400877
-0.12481553
-0.21307709
-0.27549392
-0.18217778
-0.2770788
-0.18450383
-0.21360043
-0.18689924
-0.10738853
-0.19093259
0.0087125728
-0.20584057
0.0706782
-0.23631479
0.084949427
-0.2720641
0.083781243
-0.30834084
0.072557844
-0.34448379
0.053225066
-0.3781926
0.030910091
-0.40773239
0.011109729
-0.43317481
-0.002132418
-0.4566355
-0.0083576878
-0.48095537
-0.0094141721
-0.50823458
-0.0079217372
-0.53940074
-0.0057337411
-0.57454892
-0.0037665881
-0.61345522
-0.0023358033
-0.65584912
-0.001451553
-0.70152861
-0.00099303002
-0.75040517
-0.00080890494
-0.80251064
-0.00076599273
-0.85798306
-0.0007711782
-0.91704174
-0.00077012516
-0.97998112
-0.0007344549
-1.0471149
-0.00065537332
-1.1188499
-0.00053481621
-1.1955514
-0.00037986522
-1.2777293
-0.00019894609
-1.3657584
-0.14954783
-0.27262574
-0.14669844
-0.071897386
-0.14248769
0.11156493
-0.28059917
-0.15005522
-0.17700877
-0.14894569
0.052796334
-0.149395
0.26903581
-0.15639719
0.31198996
-0.16698147
0.25980264
-0.18243943
0.11376298
-0.19977364
-0.11759724
-0.21122706
-0.28257287
-0.20599814
-0.29109833
-0.16815824
-0.22723867
-0.17086559
-0.11920733
-0.17508045
0.0056355988
-0.18785562
0.08073211
-0.21589448
0.099625446
-0.25099081
0.098693046
-0.2869759
0.0875418
-0.3233248
0.066403911
-0.35766263
0.040110753
-0.38739326
0.015119422
-0.41174208
-0.0026610599
-0.43264617
-0.011442851
-0.45355033
-0.013145047
-0.4772245
-0.011156796
-0.50499952
-0.0081015447
-0.53703294
-0.0052877288
-0.57302778
-0.0031828007
-0.61260822
-0.0018297591
-0.65547091
-0.0010874628
-0.70143417
-0.00076163259
-0.75045244
-0.00067358597
-0.80260305
-0.00069012805
-0.85806411
-0.00073019537
-0.91708167
-0.00074722777
-0.97996835
-0.00072004182
-1.0470503
-0.00064522065
-1.1187394
-0.00052728578
-1.195404
-0.00037467022
-1.2775536
-0.00019632221
-1.3655621
-0.15003621
-0.28011079
-0.14983604
-0.26948814
-0.1466163
-0.067768774
-0.14311358
0.11428015
-0.1779107
-0.14915329
0.053510747
-0.14966011
0.2752519
-0.1556111
0.32008533
-0.16449256
0.27081944
-0.17799826
0.12568082
-0.19435727
-0.11009784
-0.20727303
-0.28830581
-0.20549413
-0.30465998
-0.19243649
-0.23927642
-0.15612049
-0.12956022
-0.1605127
0.0021884115
-0.17163326
0.090069081
-0.19719259
0.11495789
-0.23122693
0.11451892
-0.26681668
0.10384896
-0.30328306
0.081552295
-0.33847318
0.05135242
-0.3689043
0.020397069
-0.39267091
-0.0031425874
-0.41126056
-0.015430152
-0.42865887
-0.018121867
-0.44857351
-0.015526759
-0.47285454
-0.011339265
-0.5017618
-0.0074096263
-0.53491104
-0.0044061493
-0.57180443
-0.0024120879
-0.61202589
-0.0012648168
-0.65529356
-0.00071951835
-0.70147629
-0.00054228741
-0.75058374
-0.00054973592
-0.80274344
-0.00062455948
-0.85816975
-0.0006968142
-0.91713208
-0.0007290297
-0.97995936
-0.00070868265
-1.0469868
-0.00063704647
-1.1186297
-0.00052096029
-1.1952577
-0.00037020761
-1.2773797
-0.00019402968
-1.3653681
-0.15030357
-0.17764335
-0.15152096
-0.27842586
-0.15066898
-0.26543546
-0.1473307
-0.063551654
-0.14459179
0.11669855
0.05502987
-0.15067242
0.2808881
-0.1552963
0.32684687
-0.16237264
0.27974117
-0.17341429
0.13605959
-0.18837704
-0.10232564
-0.20212947
-0.29263643
-0.20294242
-0.31680081
-0.1933533
-0.25745147
-0.17426144
-0.13861527
-0.14706544
-0.0012690089
-0.15705528
0.098573725
-0.18013791
0.130556
-0.2127907
0.13106844
-0.24777646
0.12125117
-0.28421889
0.098616314
-0.32034708
0.064864997
-0.35198576
0.027288392
-0.37579562
-0.0034299724
-0.39238352
-0.020503142
-0.40618757
-0.024646607
-0.42213413
-0.021317214
-0.44278306
-0.01565841
-0.46853539
-0.01027886
-0.49889257
-0.0061027062
-0.53321448
-0.0032596204
-0.5709569
-0.0015586522
-0.61173206
-0.00069670243
-0.65531638
-0.00037327052
-0.7016453
-0.00034407469
-0.7507894
-0.00044388079
-0.80292412
-0.00057278713
-0.85829377
-0.00067204458
-0.91718907
-0.00071622101
-0.97995182
-0.0007006539
-1.0469232
-0.00063083737
-1.1185198
-0.00051585952
-1.195112
-0.00036644173
-1.2772073
-0.00019203771
-1.365176
-0.15263262
0.057358921
-0.15288209
-0.17628222
-0.15350931
-0.27558554
-0.15218737
-0.26057879
-0.14866765
-0.059475796
-0.14676031
0.11859282
0.28585322
-0.15563754
0.33222012
-0.16066955
0.2864582
-0.16908967
0.14450308
-0.18185778
-0.094578227
-0.19612445
-0.29543098
-0.19933492
-0.32732115
-0.19242207
-0.27408523
-0.17671954
-0.16012487
-0.15275184
-0.0044392323
-0.14389521
0.10619892
-0.16468048
0.14607808
-0.19565998
0.14807402
-0.22979629
0.13943207
-0.26595735
0.11724102
-0.30284359
0.08051641
-0.33599849
0.035967485
-0.36066485
-0.0033615289
-0.37586407
-0.026818474
-0.38606819
-0.033081501
-0.39775268
-0.028861599
-0.41458975
-0.021292889
-0.43714858
-0.014050905
-0.46476335
-0.0083720632
-0.49662321
-0.0044345494
-0.53203955
-0.0020022968
-0.57051325
-0.00070587662
-0.61172288
-0.00016557656
-0.65552407
-6.3884797e-05
-0.70192549
-0.00017568183
-0.7510576
-0.000361371
-0.80313554
-0.00053599333
-0.85842983
-0.00065632571
-0.91724896
-0.00070888726
-0.97994359
-0.00069582236
-1.0468582
-0.0006265542
-1.1184091
-0.00051188451
-1.1949666
-0.00036328982
-1.277036
-0.0001902919
-1.3649857
-0.15671234
0.28993294
-0.15533853
0.059815362
-0.15626227
-0.17352925
-0.15627256
-0.27150035
-0.1543429
-0.25490355
-0.15053607
-0.055700036
-0.14949982
0.11997237
0.33607133
-0.15948875
0.29103518
-0.16524654
0.15087206
-0.17545866
-0.087440664
-0.18899534
-0.29705404
-0.19450139
-0.33630995
-0.19034612
-0.28909767
-0.17740963
-0.18018387
-0.15666055
-0.024351265
-0.13283981
0.11334725
-0.15104354
0.16113571
-0.17973812
0.16524442
-0.21283038
0.15797698
-0.2483412
0.13672385
-0.28544019
0.097505325
-0.31983251
0.04573742
-0.34576843
-0.0034094549
-0.36061693
-0.034679672
-0.36800287
-0.043830053
-0.37531964
-0.038548872
-0.3880654
-0.028498156
-0.40738448
-0.018880912
-0.43231858
-0.011311097
-0.46182431
-0.0059925966
-0.49506516
-0.0026257285
-0.53141612
-0.00075600779
-0.57046312
8.5600855e-05
-0.61197406
0.00030433527
-0.65589229
0.0001973705
-0.70229855
-4.477805e-05
-0.75137419
-0.0003037954
-0.80336773
-0.00051420958
-0.85857194
-0.00064951198
-0.91730834
-0.00070674025
-0.97993267
-0.00069404813
-1.0467907
-0.00062405613
-1.1182969
-0.00050889947
-1.194821
-0.00036065191
-1.2768656
-0.00018874302
-1.364797
-0.15896748
0.33832647
-0.15787648
0.29247089
-0.15926202
0.062815113
-0.16048208
-0.16931973
-0.15978663
-0.26605661
-0.15719641
-0.24824321
-0.15307892
-0.052120934
-0.15269782
0.12078264
0.29356551
-0.16201908
0.15492772
-0.16930219
-0.081381285
-0.18151803
-0.29716685
-0.18888252
-0.34361706
-0.18719428
-0.30237943
-0.17706437
-0.19864437
-0.15894913
-0.044233405
-0.13677841
0.10560109
-0.12509365
0.17571668
-0.1656245
0.18223799
-0.19673169
0.17639666
-0.23125007
0.15622953
-0.26784687
0.11431932
-0.30225418
0.055501605
-0.32959669
-0.0049441954
-0.34423369
-0.045338185
-0.34995841
-0.057500716
-0.35433221
-0.050842711
-0.3630258
-0.037548338
-0.37901522
-0.024911439
-0.40135395
-0.015002629
-0.42862704
-0.0079793083
-0.4598376
-0.0034496579
-0.49424123
-0.0008489717
-0.53132316
0.00039225803
-0.57076978
0.00078091117
-0.61245064
0.00069879285
-0.65639371
0.00040056072
-0.70274389
4.6024683e-05
-0.75172401
-0.00027063222
-0.80361131
-0.0005068289
-0.85871463
-0.00065099463
-0.91736409
-0.00070935423
-0.97991737
-0.00069499875
-1.0467198
-0.00062304267
-1.1181828
-0.00050671823
-1.1946749
-0.00035841016
-1.276696
-0.00018732971
-1.3646097
-0.15950249
0.29410052
-0.15839065
0.33884064
-0.16053505
0.29374391
-0.16386284
0.066195869
-0.16535548
-0.16375088
-0.16404976
-0.25920327
-0.16067991
-0.24064222
-0.15612871
-0.048690045
-0.15631842
0.12094865
0.15666335
-0.16375471
-0.076500542
-0.17418293
-0.29580503
-0.18287986
-0.34914856
-0.18335102
-0.31371178
-0.17586193
-0.21540711
-0.16030163
-0.063223378
-0.13995915
0.096436729
-0.12761405
0.18075596
-0.13013293
0.19882263
-0.18220914
0.19423609
-0.21457111
0.17504123
-0.25006176
0.13025039
-0.28377794
0.064251662
-0.31100424
-0.0090678022
-0.32547309
-0.061028494
-0.32854338
-0.07515502
-0.33230411
-0.066214749
-0.33896017
-0.048749407
-0.35182473
-0.032261984
-0.37166468
-0.019501784
-0.3968548
-0.010422995
-0.42618336
-0.0044799995
-0.45880726
-0.00097819281
-0.49411201
0.00077417439
-0.53170507
0.0013922882
-0.57138115
0.0013586072
-0.61311045
0.0010045135
-0.65699767
0.00054142308
-0.70323928
9.8349725e-05
-0.75209299
-0.00026043915
-0.8038577
-0.00051264844
-0.85885297
-0.00065989641
-0.91741354
-0.00071611291
-0.97989625
-0.00069818569
-1.0466446