/*--------------------------------*- C++ -*----------------------------------*\
| =========                 |                                                 |
| \\      /  F ield         | OpenFOAM: The Open Source CFD Toolbox           |
|  \\    /   O peration     | Version:  5.0                                   |
|   \\  /    A nd           | Web:      www.OpenFOAM.org                      |
|    \\/     M anipulation  |                                                 |
\*---------------------------------------------------------------------------*/
FoamFile
{
    version     2.0;
    format      ascii;
    class       surfaceScalarField;
    location    "220";
    object      phi_0;
}
// * * * * * * * * * * * * * * * * * * * * * * * * * * * * * * * * * * * * * //

dimensions      [0 3 -1 0 0 0 0];

internalField   nonuniform List<scalar> 
18180
(
-0.0019058184
-1.3897355
-0.0037106313
-1.2997543
-0.0018531503
-1.3878823
-0.0054050423
-1.2157313
-0.0036103643
-1.297997
-0.0017616411
-1.3861207
-0.0070120545
-1.1372456
-0.0052759822
-1.2140657
-0.0034337516
-1.2963249
-0.0016331057
-1.3844876
-0.0085144883
-1.0639111
-0.0068692832
-1.1356523
-0.005026112
-1.2124733
-0.0031841444
-1.2947739
-0.0014957168
-1.3829919
-0.0098966799
-0.99538747
-0.0083967109
-1.0623837
-0.0065598116
-1.1341186
-0.0046619098
-1.2109956
-0.0029120138
-1.2933576
-0.0013621626
-1.3816297
-0.011124527
-0.93135578
-0.0098631445
-0.99392104
-0.00805362
-1.0608899
-0.0060880074
-1.1326925
-0.0042565813
-1.209651
-0.0026450503
-1.2920747
-0.0012485383
-1.3803812
-0.012166689
-0.8715397
-0.011269227
-0.92994969
-0.009532288
-0.99244237
-0.0074844366
-1.0594935
-0.0055431268
-1.1314059
-0.0038554735
-1.2084406
-0.0024169048
-1.2909063
-0.0011575298
-1.3792236
-0.013001818
-0.81567466
-0.01261742
-0.87019151
-0.011035811
-0.92844617
-0.0088854522
-0.99104135
-0.0067852145
-1.0582514
-0.0049980497
-1.1302634
-0.0035139795
-1.2073435
-0.0022362417
-1.2898276
-0.0010850868
-1.3781386
-0.013529238
-0.76356062
-0.013889695
-0.81440239
-0.012625337
-0.86860198
-0.010346989
-0.92698463
-0.0080037723
-0.98982279
-0.0060749457
-1.0571745
-0.0045380203
-1.1292393
-0.0032491247
-1.2063306
-0.0020971824
-1.2888155
-0.0010230931
-1.3771155
-0.013653637
-0.7149342
-0.015164146
-0.76228617
-0.01441445
-0.81261328
-0.011935199
-0.86701377
-0.0092278203
-0.92576058
-0.0070857985
-0.98881194
-0.0054854653
-1.0562271
-0.0041932547
-1.1282952
-0.0030523086
-1.2053755
-0.0019826899
-1.2878559
-0.00096428245
-1.3761512
-0.013299002
-0.66968581
-0.016607697
-0.71349065
-0.01655791
-0.76014271
-0.013751461
-0.81079701
-0.010487452
-0.86575414
-0.0080256936
-0.92482069
-0.0063400852
-0.98795732
-0.00506609
-1.0553542
-0.0039505561
-1.1273969
-0.0028943068
-1.2044639
-0.0018750103
-1.2869452
-0.00090325598
-1.3752479
-0.012365245
-0.62764824
-0.01835126
-0.66794225
-0.01907093
-0.71097763
-0.015845531
-0.75804864
-0.011810438
-0.80947403
-0.0088852512
-0.86489458
-0.0070748718
-0.9240859
-0.0058480222
-0.98717539
-0.0047932121
-1.0545116
-0.0037628237
-1.1265284
-0.002744751
-1.2035941
-0.0017603414
-1.2860881
-0.0008363785
-1.3744115
-0.01078337
-0.58857344
-0.020446062
-0.62555343
-0.022075538
-0.66493764
-0.018302839
-0.70852032
-0.013214206
-0.75664487
-0.0096301457
-0.80872913
-0.0076504539
-0.864319
-0.0065067274
-0.9234272
-0.0055665125
-0.98640209
-0.0045937668
-1.0536806
-0.0035837947
-1.1256894
-0.002581308
-1.2027732
-0.0016306272
-1.2852939
-0.00076228551
-1.3736493
-0.0085032923
-0.55224254
-0.022915809
-0.58610369
-0.025841615
-0.62178736
-0.021302251
-0.66193823
-0.014759591
-0.70697494
-0.010190799
-0.75608422
-0.0079996486
-0.80837994
-0.0069937461
-0.86383198
-0.0062439707
-0.92274974
-0.0053848389
-0.98561101
-0.004403593
-1.0528608
-0.0033802475
-1.1248904
-0.0023915971
-1.2020122
-0.0014842611
-1.2845719
-0.00068262985
-1.3729666
-0.0055513183
-0.5183515
-0.025824501
-0.54933385
-0.030625922
-0.58131939
-0.025033615
-0.61805599
-0.016504718
-0.6601931
-0.010538942
-0.7066268
-0.007992788
-0.75609108
-0.0072145545
-0.80815913
-0.0067756822
-0.86330027
-0.0061238649
-0.92201071
-0.0052160016
-0.98479861
-0.0041758176
-1.0520652
-0.0031338622
-1.1241482
-0.0021733783
-1.2013231
-0.001325788
-1.2839287
-0.00060156459
-1.3723651
-0.0018691491
-0.48666516
-0.029242533
-0.51493347
-0.036665618
-0.54329416
-0.029696449
-0.57665655
-0.018514523
-0.61604619
-0.010615022
-0.66011702
-0.007509559
-0.70711003
-0.0070728802
-0.75623276
-0.0070809583
-0.80785385
-0.0067805031
-0.86264363
-0.0060352454
-0.92119147
-0.0049905416
-0.98398388
-0.0038795551
-1.0513196
-0.0028422228
-1.1234793
-0.0019345097
-1.2007144
-0.0011639572
-1.2833663
-0.00052398587
-1.3718411
0.0027364114
-0.45735784
-0.033264357
-0.48264334
-0.044186938
-0.50741215
-0.035480182
-0.53751042
-0.020870824
-0.57430025
-0.010342333
-0.61631888
-0.006422148
-0.66120443
-0.006399802
-0.7077831
-0.0071799744
-0.75613374
-0.0073618841
-0.80727247
-0.0068831074
-0.86179577
-0.0058638859
-0.92031812
-0.0046564383
-0.983207
-0.0035092431
-1.0506525
-0.0025171584
-1.1228967
-0.001689406
-1.2001889
-0.0010087712
-1.2828816
-0.00045393271
-1.3713871
0.0088654442
-0.43107974
-0.037670835
-0.45295136
-0.053286025
-0.47354425
-0.04250741
-0.50038492
-0.023648868
-0.53473238
-0.0096377295
-0.57500485
-0.0045601162
-0.61818091
-0.0050346512
-0.66256958
-0.0069482256
-0.70801485
-0.0079062205
-0.7555894
-0.0078322779
-0.8063233
-0.0068575708
-0.86080209
-0.0055098508
-0.91946471
-0.004201018
-0.98251522
-0.0030850528
-1.0500846
-0.0021803352
-1.1224057
-0.0014540907
-1.1997436
-0.00086873773
-1.2824668
-0.00039406825
-1.3709931
0.016555832
-0.40741577
-0.041882917
-0.42686766
-0.064014184
-0.4422232
-0.050901514
-0.46515015
-0.026869164
-0.49716463
-0.0084049115
-0.5359652
-0.0017281682
-0.5778368
-0.0027813489
-0.62043421
-0.0061971329
-0.66332068
-0.0083983411
-0.70752273
-0.0089068091
-0.75451487
-0.0080520115
-0.80512886
-0.0065076521
-0.85980428
-0.0049538316
-0.9187119
-0.0036556089
-0.98194467
-0.0026405058
-1.0496245
-0.0018558694
-1.122004
-0.0012419712
-1.1993704
-0.00074937514
-1.2821114
-0.0003458559
-1.3706472
0.024717468
-0.38344809
-0.04488282
-0.40441587
-0.076518415
-0.41436343
-0.061066491
-0.43205823
-0.030590305
-0.461429
-0.0065563512
-0.49901319
0.0022909322
-0.5399843
0.00059164206
-0.58120979
-0.0047604121
-0.62187093
-0.008779433
-0.66293958
-0.01017183
-0.70625771
-0.0095015438
-0.75306534
-0.0077183476
-0.80391817
-0.0058195487
-0.85893857
-0.0042526847
-0.91811482
-0.0030756658
-0.98150951
-0.0022115215
-1.0492688
-0.0015639907
-1.121682
-0.0010616272
-1.1990581
-0.00065303837
-1.2818043
-0.00030959594
-1.3703376
0.033238897
-0.35835179
-0.046242439
-0.38208847
-0.091282293
-0.38965199
-0.073823353
-0.40160657
-0.035223039
-0.42742549
-0.0039886001
-0.46399676
0.0077120272
-0.50443428
0.0053484373
-0.54474109
-0.0024440574
-0.58352615
-0.0089723212
-0.62167804
-0.011728429
-0.66138298
-0.011344697
-0.70441456
-0.0092317926
-0.7515519
-0.0068534534
-0.80288426
-0.0049044307
-0.85828682
-0.0034952385
-0.91769525
-0.0025169025
-0.98120413
-0.0018281218
-1.0490047
-0.0013179652
-1.1214256
-0.00091658218
-1.1987946
-0.00057941676
-1.2815344
-0.0002841479
-1.3700535
0.041628722
-0.33310648
-0.047441096
-0.35715313
-0.1072599
-0.36611086
-0.09003735
-0.37343799
-0.041716834
-0.39511277
-0.00067874386
-0.43073535
0.014735492
-0.47102022
0.011742356
-0.5108282
0.00097062045
-0.54815577
-0.0088945997
-0.58360387
-0.013669848
-0.61973663
-0.013757619
-0.65897006
-0.011197754
-0.7024486
-0.0081377651
-0.75026758
-0.0056439734
-0.80214472
-0.0039036831
-0.85787838
-0.0027666819
-0.91744547
-0.002023372
-0.98100888
-0.0015099164
-1.0488127
-0.0011234056
-1.1212188
-0.00080631496
-1.1985677
-0.00052624928
-1.2812923
-0.00026694903
-1.3697865
0.049282085
-0.30748895
-0.050264127
-0.33028345
-0.12371844
-0.34069459
-0.10969533
-0.34645289
-0.050801166
-0.36435366
0.0032183833
-0.3990099
0.023577722
-0.43957758
0.020032069
-0.47930993
0.0057403757
-0.51559796
-0.008454633
-0.54859574
-0.016107107
-0.58116661
-0.016953141
-0.6165411
-0.013797671
-0.65637014
-0.0097780767
-0.70080829
-0.0065143845
-0.74939717
-0.0043045761
-0.80174383
-0.0029455325
-0.85769953
-0.0021326183
-0.91733622
-0.0016225086
-0.98089629
-0.0012648559
-1.0486713
-0.00097896159
-1.1210461
-0.0007276121
-1.1983663
-0.00049003395
-1.2810693
-0.00025497935
-1.3695316
0.056308097
-0.28242954
-0.054102319
-0.30365075
-0.14030958
-0.31369232
-0.13007703
-0.32031288
-0.062099014
-0.33515504
0.0075806637
-0.36871594
0.034496575
-0.40992875
0.030453032
-0.44999854
0.012125114
-0.48569467
-0.0075353571
-0.51651723
-0.019180348
-0.5455225
-0.021190871
-0.57692888
-0.017256865
-0.61308191
-0.011906811
-0.65424141
-0.0075638007
-0.69975887
-0.0046991429
-0.74900261
-0.003030565
-0.80165879
-0.0021268694
-0.85770528
-0.0016326057
-0.91732613
-0.001324002
-0.98083714
-0.0010901474
-1.0485601
-0.00087838802
-1.1208954
-0.00067544059
-1.1981809
-0.00046669851
-1.2808575
-0.00024602887
-1.3692855
0.062589392
-0.25826677
-0.057932176
-0.27859968
-0.15598555
-0.28797479
-0.1484883
-0.29528105
-0.07441362
-0.30799828
0.01241145
-0.33998583
0.047654328
-0.38187369
0.043171858
-0.42264758
0.020341267
-0.4582147
-0.0060023605
-0.48722767
-0.023042279
-0.5126553
-0.026772482
-0.53994089
-0.021830345
-0.5723554
-0.014679483
-0.61030924
-0.0088510028
-0.65295421
-0.0050834329
-0.69937458
-0.0029884278
-0.74904474
-0.0019653968
-0.80182027
-0.0015047594
-0.85783312
-0.001277916
-0.91737221
-0.0011224849
-0.9808048
-0.00097495461
-1.0484635
-0.00081336499
-1.1207574
-0.00064352678
-1.1980041
-0.0004524717
-1.2806511
-0.00023945083
-1.3690461
0.068153333
-0.23553905
-0.061713634
-0.25448531
-0.17096673
-0.26361849
-0.16496257
-0.27150051
-0.086596192
-0.28309847
0.017296817
-0.31288364
0.062888972
-0.35522047
0.058177816
-0.39687965
0.030373115
-0.43267943
-0.0038536811
-0.46036337
-0.027905232
-0.48236471
-0.034045474
-0.50538231
-0.027803354
-0.53396788
-0.018262466
-0.56877242
-0.010436943
-0.6087233
-0.0054469282
-0.65259071
-0.0027734482
-0.69958956
-0.0015915792
-0.74941856
-0.0011898135
-0.80213521
-0.0010919787
-0.85801906
-0.0010571678
-0.91743753
-0.0010019426
-0.98077781
-0.00090466894
-1.0483722
-0.00077532218
-1.1206256
-0.00062555477
-1.197831
-0.00044469024
-1.2804459
-0.00023550802
-1.3688106
0.073069424
-0.21444793
-0.065319922
-0.23193276
-0.18509682
-0.24035523
-0.18029947
-0.24828159
-0.098268316
-0.25982839
0.021604763
-0.28740642
0.079817294
-0.32981197
0.075293851
-0.3723365
0.042120689
-0.40862722
-0.0012181431
-0.43531497
-0.034109063
-0.45415954
-0.043412084
-0.4729981
-0.035493579
-0.49769209
-0.02283457
-0.52939577
-0.012384027
-0.56682533
-0.0057703732
-0.60839985
-0.0023243684
-0.65303979
-0.00093171074
-0.70024943
-0.00062088116
-0.74998749
-0.00071778232
-0.80250941
-0.0008670976
-0.85820913
-0.00094543328
-0.91749404
-0.00093996799
-0.98074252
-0.00086494819
-1.0482826
-0.00075602742
-1.1204952
-0.00061676809
-1.1976589
-0.00044145819
-1.2802399
-0.00023392882
-1.3685766
0.077423453
-0.19505831
-0.068642458
-0.21112539
-0.19827567
-0.21875391
-0.19425674
-0.22639797
-0.10874474
-0.23780517
0.025404155
-0.26362778
0.0980077
-0.30559683
0.094448236
-0.34896635
0.055833968
-0.38604978
0.001985234
-0.4118306
-0.042114577
-0.42730945
-0.055304646
-0.44226698
-0.045219128
-0.46327256
-0.028577756
-0.4919489
-0.014744731
-0.52703507
-0.0060261991
-0.56656951
-0.0015656479
-0.60915857
0.0001058506
-0.65407735
0.00028810632
-0.70115841
-8.9723023e-05
-0.75061555
-0.00051249862
-0.80286401
-0.00078984994
-0.85836471
-0.00091125156
-0.91752276
-0.00091216314
-0.9806953
-0.00084547411
-1.0481932
-0.00074911418
-1.1203628
-0.0006140752
-1.1974863
-0.00044065247
-1.2800332
-0.0002335518
-1.3683431
0.081286217
-0.17735556
-0.07161613
-0.19208464
-0.2104904
-0.19891067
-0.20689196
-0.20611869
-0.11778724
-0.21735546
0.029204856
-0.24160587
0.11689217
-0.28251225
0.11558058
-0.32672917
0.072091948
-0.36522433
0.0067584071
-0.39082296
-0.051577132
-0.40236805
-0.069981517
-0.41263258
-0.057176459
-0.43030965
-0.035643969
-0.45620634
-0.017550434
-0.4891432
-0.0061711604
-0.52689011
-0.00040923364
-0.56772592
0.0016321014
-0.61068482
0.0016468619
-0.65543611
0.00087749333
-0.70212563
6.0654286e-05
-0.7511887
-0.00051002669
-0.80314383
-0.00081277893
-0.85846318
-0.0009189892
-0.91751593
-0.00090508827
-0.98063569
-0.00084549816
-1.0480968
-0.00075089278
-1.120226
-0.00061417335
-1.1973128
-0.00044023521
-1.2798265
-0.00023317338
-1.3681099
0.083780066
-0.18910715
-0.074181296
-0.17479039
-0.22172043
-0.18085461
-0.2182911
-0.18751152
-0.12548219
-0.19842374
0.033292829
-0.22144344
0.13587676
-0.26059046
0.13773078
-0.30466245
0.090641287
-0.34527851
0.014413041
-0.37287897
-0.060930385
-0.3814697
-0.087032646
-0.38531692
-0.071362424
-0.39844662
-0.044036476
-0.42191714
-0.020793679
-0.4529631
-0.0061378246
-0.48917653
0.0012472725
-0.52854661
0.0037760035
-0.56986982
0.003580779
-0.61261874
0.0022888422
-0.65684746
0.00092314308
-0.70298812
-7.1242444e-05
-0.75162749
-0.00063809827
-0.80331851
-0.00088741136
-0.85849476
-0.00094494463
-0.91747607
-0.00091772516
-0.98056346
-0.00085568821
-1.047992
-0.00075298084
-1.1200872
-0.00061347915
-1.1971395
-0.00043904861
-1.2796206
-0.00023215397
-1.3678778
0.086511259
-0.18327591
-0.076198317
-0.18709013
-0.23198629
-0.16452454
-0.2284961
-0.1706496
-0.13195543
-0.18103828
0.037770179
-0.20290109
0.1543625
-0.23992918
0.15993288
-0.28279256
0.1095357
-0.32355686
0.024614503
-0.35547997
-0.068868861
-0.36494049
-0.10552767
-0.36297468
-0.087981095
-0.36869825
-0.053636343
-0.38884675
-0.024370506
-0.41834031
-0.0058280829
-0.45327284
0.003517042
-0.4914463
0.0066690055
-0.53143962
0.0062326695
-0.57252171
0.0042718734
-0.61460177
0.0021638006
-0.65808811
0.00057290649
-0.70363227
-0.00037587418
-0.75188971
-0.00082664193
-0.80337928
-0.00097583206
-0.85846387
-0.00098130416
-0.91741249
-0.0009377108
-0.98048144
-0.00086040464
-1.0478846
-0.00075123653
-1.1199494
-0.00061127456
-1.1969673
-0.00043676671
-1.279416
-0.00023033379
-1.3676474
0.089351796
-0.17719608
-0.077305584
-0.18216865
-0.24154761
-0.17752881
-0.23757698
-0.15544366
-0.13738275
-0.16522228
0.042490788
-0.18575889
0.17200323
-0.22054182
0.18152975
-0.26152604
0.12828753
-0.3015444
0.035159134
-0.33410149
-0.075023691
-0.34932514
-0.12523741
-0.34523075
-0.10767509
-0.34328068
-0.065035545
-0.35729904
-0.028075033
-0.38514222
-0.0051081801
-0.41906022
0.0065229294
-0.45627873
0.010448621
-0.49522592
0.0097586941
-0.53496564
0.0069721423
-0.57522198
0.0038927449
-0.61633072
0.0014832624
-0.65899847
-8.8737184e-06
-0.70399927
-0.00074862819
-0.75196773
-0.0010193188
-0.80333579
-0.0010589854
-0.85838619
-0.0010166882
-0.91733352
-0.00094780262
-0.98039404
-0.0008582008
-1.0477776
-0.00074879315
-1.1198119
-0.00060805136
-1.196796
-0.00043314143
-1.2792132
-0.00022777719
-1.3674196
0.092283481
-0.1710177
-0.077717028
-0.17678464
-0.25014553
-0.17357072
-0.24763758
-0.16746822
-0.14188839
-0.15093802
0.047242951
-0.16997445
0.18867515
-0.2024308
0.20197994
-0.24099202
0.14659099
-0.2798295
0.045237151
-0.31162242
-0.079292473
-0.32983271
-0.14624515
-0.3283174
-0.13073906
-0.32216678
-0.079944524
-0.3283717
-0.032089471
-0.35328461
-0.0037882695
-0.38646213
0.010389069
-0.42292636
0.015245153
-0.46107526
0.014314252
-0.49978147
0.01055103
-0.53854453
0.006240258
-0.5775695
0.0027368753
-0.61758433
0.00048697315
-0.65949432
-0.00066588203
-0.70408201
-0.0011045156
-0.75188253
-0.0011795469
-0.80321523
-0.0011199145
-0.85828297
-0.0010329914
-0.91724833
-0.00094489262
-0.98030735
-0.00085347628
-1.0476729
-0.00074374556
-1.1196762
-0.00060233814
-1.1966268
-0.00042814539
-1.2790128
-0.00022462986
-1.367195
0.095279941
-0.16506191
-0.077537045
-0.17119768
-0.25755628
-0.16937389
-0.2565704
-0.1646379
-0.15095462
-0.15840199
0.051926016
-0.15562109
0.20423728
-0.18553657
0.2209653
-0.22141616
0.16391997
-0.258321
0.054330554
-0.2889229
-0.084455684
-0.30645921
-0.16701841
-0.30905945
-0.15645704
-0.30259942
-0.099264567
-0.30284674
-0.037552723
-0.32290845
-0.0016775786
-0.3553953
0.015235698
-0.39130876
0.021173133
-0.42885434
0.020045415
-0.46680642
0.015177032
-0.50440748
0.009356822
-0.54166109
0.0044291296
-0.57926175
0.0011447454
-0.6182421
-0.00059279141
-0.65956741
-0.0012702149
-0.70391632
-0.0013846013
-0.75167747
-0.0012829369
-0.80305221
-0.0011437243
-0.85817223
-0.0010268214
-0.9171664
-0.0009334552
-0.98022737
-0.00084376862
-1.0475729
-0.00073472838
-1.1195438
-0.00059469213
-1.1964603
-0.00042210874
-1.2788154
-0.00022107098
-1.3669739
0.098286334
-0.15952047
-0.076821335
-0.16577762
-0.26354867
-0.16520529
-0.26422451
-0.16171978
-0.15903338
-0.15655914
0.048748858
-0.15522483
0.2186938
-0.17007761
0.23846183
-0.20303311
0.18001047
-0.23750666
0.062533603
-0.26652404
-0.091034981
-0.28234361
-0.18697921
-0.28649841
-0.18246868
-0.28304781
-0.12156478
-0.2802992
-0.045871412
-0.29452805
0.0012151114
-0.32580114
0.02120841
-0.36136801
0.028317654
-0.39845328
0.027080032
-0.43588895
0.021018022
-0.47264741
0.01340955
-0.50846021
0.0066768621
-0.54390883
0.002008053
-0.58012506
-0.00054639541
-0.6182885
-0.0015667
-0.65927092
-0.0017330286
-0.70356789
-0.0015568883
-0.75140352
-0.0013194079
-0.80287652
-0.0011304526
-0.8580686
-0.0010038735
-0.91709598
-0.0009147619
-0.98015637
-0.00082945533
-1.0474782
-0.00072373668
-1.1194148
-0.00058585816
-1.1962965
-0.00041537147
-1.2786211
-0.00021725507
-1.3667567
0.10126753
-0.15451045
-0.07556204
-0.16077977
-0.26806899
-0.16125729
-0.27054271
-0.15888709
-0.16609654
-0.15465662
0.045981399
-0.15379168
0.2264871
-0.16301813
0.25429793
-0.1859137
0.19467177
-0.21769441
0.069865307
-0.24483836
-0.097992789
-0.25956624
-0.20583115
-0.26349167
-0.20578091
-0.26318618
-0.14421037
-0.26040223
-0.057154462
-0.26901615
0.0042447196
-0.29755766
0.028513409
-0.33310614
0.03673055
-0.3697809
0.035507233
-0.40688048
0.028225555
-0.44309649
0.018577314
-0.47781518
0.0096212986
-0.51140464
0.0031373666
-0.54503814
-0.00054185459
-0.5801296
-0.0020551826
-0.61780001
-0.0023000832
-0.65870387
-0.0020100942
-0.70311468
-0.0016135125
-0.75110942
-0.0012931933
-0.80271378
-0.0010873317
-0.85798514
-0.00096837109
-0.91704237
-0.00089011002
-0.98009572
-0.00081255566
-1.0473893
-0.00071124619
-1.1192894
-0.00057604962
-1.1961358
-0.00040816261
-1.2784301
-0.00021335346
-1.3665433
0.10421339
-0.15017542
-0.073787521
-0.15628497
-0.27116774
-0.15768102
-0.27553375
-0.15626626
-0.17208966
-0.15289397
0.043600338
-0.15227556
0.23428863
-0.16159321
0.26721835
-0.17593855
0.20774508
-0.19898701
0.076168482
-0.22399759
-0.10507746
-0.23775369
-0.22373468
-0.2416627
-0.2263498
-0.24292278
-0.16551088
-0.24188566
-0.070858076
-0.24669861
0.0064721522
-0.27124358
0.037282352
-0.3063266
0.046389915
-0.34276551
0.045359866
-0.37963354
0.036917343
-0.41557227
0.025039471
-0.44955864
0.013427347
-0.48162123
0.0046128855
-0.51288016
-0.00059274522
-0.54498725
-0.0028105873
-0.5793742
-0.0031800574
-0.61692004
-0.0027303248
-0.65798364
-0.002095548
-0.70263265
-0.0015650493
-0.75083756
-0.0012158315
-0.80258528
-0.0010223327
-0.85793118
-0.00092407823
-0.9170084
-0.00086213484
-0.98004614
-0.0007940615
-1.0473065
-0.00069768202
-1.1191678
-0.00056572755
-1.1959783
-0.0004008921
-1.2782426
-0.0002095205
-1.3663338
0.10712487
-0.14667022
-0.071457423
-0.15250552
-0.27285946
-0.15459324
-0.2792147
-0.15400008
-0.17696664
-0.15138928
0.041681314
-0.15097495
0.24186034
-0.15984727
0.27975956
-0.17413442
0.22319541
-0.19138889
0.081572261
-0.20439079
-0.11206411
-0.21701094
-0.24070133
-0.22078704
-0.24524347
-0.22276904
-0.18491929
-0.22351437
-0.085876848
-0.22686689
0.0069537293
-0.24718019
0.047125812
-0.28108704
0.057391131
-0.31732782
0.056587149
-0.35399279
0.047170287
-0.38988648
0.032970612
-0.42350341
0.01828689
-0.45441819
0.0065426129
-0.48355095
-0.00070204608
-0.51277086
-0.0039200166
-0.54387782
-0.0044896857
-0.57806457
-0.0038281255
-0.61582224
-0.0028547235
-0.65722446
-0.0020107565
-0.70218694
-0.001432352
-0.75062104
-0.0011021246
-0.80250549
-0.00094426888
-0.85791099
-0.00087609804
-0.91699444
-0.00083319053
-0.98000701
-0.00077511917
-1.0472291
-0.00068408041
-1.1190494
-0.00055563771
-1.1958235
-0.00039383591
-1.2780583
-0.0002058776
-1.3661279
-0.1441594
0.11001783
-0.068518467
-0.14960918
-0.27316365
-0.15220134
-0.2816171
-0.15219084
-0.18075006
-0.15021665
0.04038485
-0.15009282
0.24903829
-0.1581529
0.29168016
-0.17176787
0.23803428
-0.18897328
0.096476247
-0.20629288
-0.11852609
-0.19792881
-0.25651072
-0.20120155
-0.26255256
-0.20347795
-0.2024207
-0.20526763
-0.10076337
-0.20862785
0.005356488
-0.22526965
0.057336029
-0.25739041
0.069711257
-0.29340717
0.069110144
-0.32985081
0.059022127
-0.36584463
0.042531404
-0.39944727
0.024420502
-0.42963702
0.0090748665
-0.45695044
-0.00086078128
-0.48339222
-0.0054840722
-0.5112068
-0.0063719414
-0.54199556
-0.0054400691
-0.57645262
-0.004002121
-0.61467484
-0.0027121408
-0.65652308
-0.00179223
-0.70182706
-0.0012420627
-0.7504811
-0.00096913537
-0.80248063
-0.00086262502
-0.85792446
-0.00082863747
-0.91699899
-0.00080494647
-0.97997718
-0.00075700701
-1.0471562
-0.00067115553
-1.1189339
-0.00054600232
-1.1956714
-0.00038719784
-1.277877
-0.00020250026
-1.3659254
-0.14759775
-0.065080111
-0.14266976
0.11289899
-0.27219837
-0.15057445
-0.28289262
-0.15092582
-0.18352726
-0.14941364
0.039677846
-0.14950965
0.25584826
-0.15690278
0.30260049
-0.16907323
0.25199718
-0.18573076
0.11090098
-0.20339802
-0.11152997
-0.213289
-0.27120715
-0.18323238
-0.27820239
-0.18555172
-0.21804681
-0.18785184
-0.11448857
-0.19154243
0.0021735281
-0.20544489
0.067333494
-0.23526711
0.083227347
-0.2709065
0.082806154
-0.30710318
0.072434071
-0.34326276
0.053863513
-0.37717674
0.032069525
-0.4070963
0.012410258
-0.43297241
-0.0010429335
-0.45676829
-0.007611446
-0.48126484
-0.0090000248
-0.50857872
-0.0077325238
-0.53970311
-0.0056726052
-0.57478214
-0.0037689058
-0.61361808
-0.0023637344
-0.65595157
-0.0014846365
-0.70158449
-0.0010223537
-0.75042788
-0.00083193572
-0.80251131
-0.00078327
-0.85796983
-0.00078364512
-0.91702029
-0.00077887846
-0.97995531
-0.00074041662
-1.0470869
-0.00065928072
-1.1188206
-0.00053719717
-1.1955214
-0.00038115755
-1.2776983
-0.0001994439
-1.365726
-0.14960876
-0.27018736
-0.1466187
-0.061131171
-0.14244736
0.11564335
-0.28327267
-0.1501944
-0.18538797
-0.1490651
0.039487282
-0.14922308
0.26229342
-0.15595481
0.31214111
-0.1664434
0.26469577
-0.18177183
0.12439208
-0.19922186
-0.10356532
-0.21136266
-0.27759231
-0.20690383
-0.29233776
-0.16909701
-0.23188514
-0.17171339
-0.12667205
-0.17566835
-0.0018289809
-0.18753992
0.076713412
-0.2148248
0.097719752
-0.24975952
0.097551007
-0.28565135
0.087288803
-0.32195791
0.067061773
-0.35646102
0.041488228
-0.38659544
0.016784895
-0.41147093
-0.0012029615
-0.43281239
-0.010421926
-0.45395781
-0.012580867
-0.477684
-0.010905551
-0.50540569
-0.0080266972
-0.53734902
-0.0052987705
-0.57325227
-0.0032278794
-0.61275393
-0.0018809092
-0.6555553
-0.0011323961
-0.70147445
-0.00079679246
-0.75046303
-0.00069979558
-0.80259479
-0.00070901685
-0.85804446
-0.00074333655
-0.91705584
-0.00075618084
-0.97993955
-0.00072596215
-1.0470202
-0.00064894748
-1.1187089
-0.00052946378
-1.1953731
-0.00037578981
-1.277522
-0.00019671952
-1.3655293
-0.15012585
-0.28275558
-0.14984025
-0.26696582
-0.14649114
-0.057087386
-0.14305771
0.11831278
-0.18635462
-0.14922776
0.039922669
-0.14950049
0.2682961
-0.15522576
0.32026276
-0.16407646
0.27568382
-0.17743145
0.13647025
-0.19385
-0.095460372
-0.20732681
-0.28260261
-0.20635236
-0.30559231
-0.19364929
-0.2441018
-0.15688035
-0.13733578
-0.16104966
-0.0061090885
-0.17138825
0.085306594
-0.1961331
0.11283306
-0.22993811
0.11321403
-0.26542254
0.10341835
-0.3017809
0.082174839
-0.33707098
0.052938577
-0.36791136
0.022498009
-0.39230856
-0.0012163573
-0.41145754
-0.01404683
-0.42918748
-0.017360432
-0.44917824
-0.015199278
-0.47339027
-0.01125214
-0.50218025
-0.007436748
-0.53521104
-0.0044769974
-0.57200316
-0.0024896056
-0.61214524
-0.0013323502
-0.65535535
-0.00077227765
-0.70149896
-0.0005813998
-0.75058142
-0.00057791611
-0.80272589
-0.00064407669
-0.85814372
-0.00071002938
-0.91710199
-0.0007378048
-0.9799277
-0.00071431139
-1.0469549
-0.00064045985
-1.1185979
-0.00052285981
-1.195226
-0.00037111798
-1.2773476
-0.00019431501
-1.365335
-0.15032959
-0.18615088
-0.15154834
-0.28104748
-0.15061655
-0.26284042
-0.14717001
-0.052975086
-0.14452629
0.12068369
0.041206852
-0.15051194
0.27378068
-0.15498507
0.32710108
-0.16206408
0.28457836
-0.172971
0.14696113
-0.18792233
-0.087239577
-0.2020708
-0.28620625
-0.20372318
-0.31744472
-0.19449995
-0.26204402
-0.17570707
-0.14667395
-0.14754219
-0.010290221
-0.15686853
0.093031619
-0.17911327
0.12816787
-0.21146792
0.12960871
-0.24633279
0.12060128
-0.28260547
0.099147293
-0.31875335
0.066643206
-0.35077561
0.02990325
-0.37531661
-0.0009194711
-0.39260544
-0.018640378
-0.40686399
-0.023627243
-0.42292067
-0.020898891
-0.44347863
-0.015564332
-0.46907808
-0.010333797
-0.4992832
-0.0062117221
-0.53347631
-0.003374902
-0.57111786
-0.0016583043
-0.61181928
-0.00077446305
-0.65535316
-0.00043073915
-0.70164962
-0.00038541428
-0.75077393
-0.00047254991
-0.80289742
-0.00059209766
-0.85826165
-0.00068483548
-0.91715496
-0.0007244971
-0.97991752
-0.00070580336
-1.0468895
-0.00063383259
-1.1184869
-0.00051742374
-1.1950797
-0.00036711939
-1.2771748
-0.00019220542
-1.3651428
-0.15248937
0.043366637
-0.15288482
-0.1848144
-0.15346915
-0.27819488
-0.15207496
-0.25793547
-0.14847468
-0.049026697
-0.1466924
0.12253574
0.27868839
-0.15541966
0.33257614
-0.16046013
0.29130312
-0.16878884
0.15546732
-0.18147719
-0.07914537
-0.19601654
-0.28823133
-0.20004571
-0.32770016
-0.19346774
-0.27844331
-0.17810066
-0.16809812
-0.15428289
-0.01409149
-0.14374092
0.099883549
-0.16372046
0.1433799
-0.1943253
0.14646958
-0.22832879
0.13854277
-0.26427427
0.11766477
-0.30112295
0.082521543
-0.33463169
0.039180904
-0.36005326
-0.00011695395
-0.37611912
-0.02432618
-0.38691964
-0.031727601
-0.39876363
-0.028338698
-0.41548087
-0.021203724
-0.43783924
-0.014151597
-0.46526028
-0.0085369395
-0.49695798
-0.0046027725
-0.53224844
-0.0021466279
-0.57062954
-0.00081853959
-0.61177521
-0.00024861764
-0.65553528
-0.00012355117
-0.70191148
-0.00021720203
-0.75102927
-0.00038931143
-0.8031002
-0.00055445698
-0.85839203
-0.00066829207
-0.91721116
-0.00071642662
-0.9799069
-0.00070034791
-1.046823
-0.00062904741
-1.1183753
-0.00051307733
-1.1949337
-0.00036372233
-1.2770032
-0.00019034069
-1.3649524
-0.15661538
0.2828144
-0.15524705
0.045728871
-0.15621847
-0.18206509
-0.15615647
-0.27411336
-0.15416038
-0.25224978
-0.15030683
-0.045412271
-0.14942387
0.12385892
0.33653494
-0.15937845
0.29593126
-0.16508826
0.16186475
-0.17518627
-0.071773059
-0.1888495
-0.28912816
-0.19511971
-0.33646335
-0.19128253
-0.2931966
-0.17871444
-0.18803486
-0.15816392
-0.034533721
-0.13384066
0.106263
-0.15012037
0.15807898
-0.17841954
0.16351173
-0.21136745
0.1568635
-0.24664952
0.13708875
-0.28369825
0.099827342
-0.31842875
0.049772356
-0.34522314
0.0009290445
-0.36109926
-0.031335216
-0.36911009
-0.042041443
-0.3766058
-0.037910059
-0.38919227
-0.028436591
-0.408248
-0.019054086
-0.43293675
-0.011556038
-0.46224118
-0.0062338052
-0.49532695
-0.0028311075
-0.53156396
-0.00091604568
-0.57053203
-3.2236718e-05
-0.61199159
0.00021951911
-0.65587835
0.00013818725
-0.70226687
-8.4683211e-05
-0.7513339
-0.00033015852
-0.8033245
-0.0005313132
-0.85852901
-0.00066034953
-0.91726724
-0.0007133615
-0.97989388
-0.00069783968
-1.0467542
-0.00062599728
-1.1182624
-0.00050970149
-1.1947878
-0.00036083611
-1.2768327
-0.00018867521
-1.3647637
-0.15896823
0.33888779
-0.15790452
0.28547187
-0.15920249
0.048712893
-0.16039139
-0.17783017
-0.15958687
-0.26868687
-0.15693329
-0.24562332
-0.15279805
-0.042038095
-0.15261323
0.12460496
0.29854765
-0.16199485
0.16591051
-0.16913402
-0.065632384
-0.18132695
-0.2886013
-0.18937635
-0.3435905
-0.18799256
-0.30621637
-0.17826276
-0.20637116
-0.16037814
-0.054799563
-0.13789808
0.097396152
-0.12497381
0.17230073
-0.16434212
0.1803977
-0.19530551
0.17510383
-0.22960779
0.15663566
-0.26619643
0.11715978
-0.30103069
0.06055504
-0.32921143
0.00090213267
-0.34519623
-0.040849613
-0.35158486
-0.055149777
-0.35600175
-0.050079157
-0.3644367
-0.037552247
-0.38007662
-0.025195973
-0.40210611
-0.015359726
-0.42913306
-0.008319444
-0.46015554
-0.0037363271
-0.49442173
-0.0010723853
-0.53140762
0.0002271753
-0.57079144
0.00066229516
-0.61243436
0.00061589846
-0.65635607
0.00034441761
-0.70269597
8.8734366e-06
-0.75167293
-0.00029476985
-0.80356104
-0.00052218827
-0.85866717
-0.00066048074
-0.91732012
-0.00071492471
-0.9798768
-0.00069799489
-1.0466822
-0.00062440789
-1.1181477
-0.00050712527
-1.1946415
-0.00035835082
-1.2766631
-0.00018715076
-1.3645766
-0.15960635
0.29918577
-0.15850014
0.33948341
-0.16065696
0.28692634
-0.16385114
0.052172639
-0.16522027
-0.17219677
-0.163771
-0.26184916
-0.16034328
-0.23807808
-0.15580433
-0.038846994
-0.1562284
0.12469832
0.1676139
-0.16369824
-0.060793347
-0.17397306
-0.28669024
-0.18323801
-0.34896837
-0.18399848
-0.31727081
-0.17693812
-0.22299606
-0.16163786
-0.074063053
-0.14111465
0.087097064
-0.127599
0.17661303
-0.12928611
0.19689895
-0.18084337
0.19281329
-0.21301497
0.17555897
-0.2485311
0.13368381
-0.28272045
0.070287122
-0.31076277
-0.0013135286
-0.32699577
-0.055114905
-0.33093093
-0.072176852
-0.33455779
-0.06535348
-0.34072743
-0.048879607
-0.35310934
-0.032712859
-0.37255973
-0.020012344
-0.39745349
-0.010894176
-0.42655833
-0.0048727686
-0.4590191
-0.0012841626
-0.49420995
0.00054750485
-0.53172795
0.0012295287
-0.57135867
0.0012445553
-0.61306302
0.00092690671
-0.65693855
0.00048994835
-0.70317705
6.4791484e-05
-0.75203249
-0.00028186849
-0.80380136
-0.00052599164
-0.85880166
-0.00066787551
-0.91736717
-0.00072055336
-0.97985424
-0.00070035651
-1.0466063