/*--------------------------------*- C++ -*----------------------------------*\
| =========                 |                                                 |
| \\      /  F ield         | OpenFOAM: The Open Source CFD Toolbox           |
|  \\    /   O peration     | Version:  5.0                                   |
|   \\  /    A nd           | Web:      www.OpenFOAM.org                      |
|    \\/     M anipulation  |                                                 |
\*---------------------------------------------------------------------------*/
FoamFile
{
    version     2.0;
    format      ascii;
    class       volScalarField;
    location    "220";
    object      pMean;
}
// * * * * * * * * * * * * * * * * * * * * * * * * * * * * * * * * * * * * * //

dimensions      [0 2 -2 0 0 0 0];

internalField   nonuniform List<scalar> 
9200
(
0.00042717441
0.00044913696
0.0010794561
0.00047510188
0.0011274215
0.0017542112
0.00051958394
0.0011862171
0.0018255691
0.0023211395
0.00057701745
0.0012798275
0.0019226481
0.002411689
0.0028327153
0.00064746344
0.0013969678
0.0020692355
0.0025399842
0.0029391369
0.0032579469
0.00073515712
0.0015319257
0.0022515568
0.0027273112
0.0030941334
0.0033757247
0.00360465
0.00083636004
0.0016869665
0.0024579234
0.0029609373
0.0033157662
0.0035526179
0.0037313749
0.0038744297
0.00094652386
0.0018518671
0.0026878026
0.0032251092
0.0035919025
0.0038018515
0.0039265144
0.0040067141
0.0040711118
0.0010559357
0.0020217489
0.002926694
0.0035185425
0.0039015413
0.0041135638
0.0041979162
0.0042159399
0.0042063243
0.0042009003
0.0011466615
0.0021819929
0.0031679763
0.0038220132
0.0042422014
0.0044623297
0.0045389622
0.0045042981
0.0044260311
0.0043359529
0.0042690198
0.0011674247
0.0023092378
0.003389639
0.0041214936
0.0045912611
0.0048459499
0.0049207207
0.0048696267
0.0047262443
0.0045621393
0.0044009975
0.0042827295
0.0010565201
0.002367017
0.0035589672
0.0043914964
0.0049337624
0.0052401149
0.0053419276
0.0052798789
0.0051103162
0.0048686701
0.0046295107
0.0044084063
0.0042480826
0.00081619024
0.0023220441
0.0036392313
0.0046030726
0.0052447757
0.005630148
0.0057766542
0.0057352279
0.0055433551
0.0052656949
0.00493658
0.0046347155
0.0043643237
0.0041731743
0.0005040076
0.0021537628
0.0036050283
0.0047209197
0.0054985224
0.0059900111
0.0062109536
0.0062092725
0.0060281976
0.0057160154
0.0053398942
0.0049359527
0.0045837855
0.0042766467
0.0040639468
0.00019927523
0.0018351607
0.003412939
0.0047067651
0.0056574682
0.0062946863
0.0066195822
0.0066885646
0.0065384832
0.0062252125
0.0058004012
0.0053381275
0.0048725861
0.0044842339
0.0041515741
0.0039287161
-0.00010262582
0.0013902102
0.0030104723
0.0045181319
0.0056797373
0.006506927
0.0069787333
0.0071496183
0.0070616474
0.0067672809
0.0063271937
0.0058011008
0.0052656223
0.0047534227
0.0043424781
0.0039974639
0.0037731861
-0.00040257736
0.00087779624
0.0024372641
0.0041125363
0.0055216053
0.0065828623
0.0072516506
0.0075686733
0.007575573
0.0073315714
0.0068957366
0.0063375411
0.0057220242
0.0051285833
0.0045849763
0.0041667347
0.0038201364
0.0036051263
-0.00068909767
0.00036656536
0.0017913593
0.0035092261
0.0051446441
0.0064772618
0.0073945201
0.0079098788
0.008055919
0.0078969972
0.0074964471
0.0069240726
0.0062585
0.0055684433
0.0049333452
0.0043752104
0.0039631579
0.0036277352
0.0034299917
-0.00095387306
-9.3914852e-05
0.0011200498
0.0027945713
0.0045491475
0.0061560536
0.0073599344
0.0081299478
0.0084699185
0.0084400384
0.0081094438
0.007553641
0.0068535802
0.0060940032
0.0053460348
0.0046874078
0.0041308937
0.0037401666
0.0034259742
0.0032542096
-0.0012547694
-0.00052843743
0.00047141403
0.0020193844
0.0037975919
0.0056004176
0.0071096305
0.0081820167
0.0087746301
0.0089295996
0.0087129493
0.0082081584
0.0075026348
0.0066858439
0.0058486371
0.0050617502
0.0043978667
0.0038606232
0.0035037266
0.0032217518
0.0030826659
-0.0015184371
-0.00091884726
-0.00014604147
0.0012340881
0.0029531896
0.0048487377
0.0066167071
0.0080115043
0.0089219711
0.009324883
0.0092777518
0.0088672962
0.008189892
0.0073424325
0.0064241658
0.0055283277
0.0047227329
0.0040733989
0.0035708734
0.003261462
0.0030202575
0.0029202064
-0.0016694008
-0.0012484662
-0.00076125025
0.00045996378
0.0020643691
0.0039701502
0.0058987514
0.0075970568
0.0088504523
0.0095744669
0.0097653488
0.0095040481
0.0088966385
0.0080502221
0.0070744529
0.0060730519
0.0051400622
0.0043376358
0.0037214141
0.003270191
0.0030189733
0.0028268684
0.0027707522
-0.00173357
-0.0015016256
-0.0014014454
-0.00035568913
0.0011609515
0.0030095381
0.0050159711
0.0069429785
0.0085310093
0.0096216341
0.010122728
0.010082014
0.0095979318
0.0087932828
0.0077885405
0.0067010054
0.0056386644
0.0046921099
0.0039146341
0.0033511087
0.0029647626
0.0027824641
0.0026458452
0.0026377368
-0.0017851184
-0.0017365623
-0.0020369087
-0.0012661582
0.0001949607
0.0019991304
0.0040057328
0.0060793771
0.0079524927
0.009410615
0.010296008
0.010551114
0.01026141
0.0095492027
0.0085532416
0.0074043928
0.0062271068
0.0051287024
0.0041932278
0.0034634851
0.002969543
0.0026620346
0.0025567716
0.0024809849
0.0025238125
-0.0018493337
-0.0020427373
-0.0026799944
-0.0022147192
-0.00091144101
0.00090742849
0.0029095462
0.0050459414
0.0071268106
0.0089169577
0.010210143
0.010851843
0.010839654
0.010288116
0.0093494009
0.0081731177
0.0069011549
0.0056595377
0.004552169
0.003653738
0.0029926164
0.0025855578
0.0023675695
0.0023465037
0.0023353221
0.0024309977
-0.0019465664
-0.0024056879
-0.0033531629
-0.0031678341
-0.0021317308
-0.00036075428
0.0016992111
0.0038796743
0.0060893564
0.0081512823
0.0098266846
0.010914595
0.01126962
0.010967779
0.010149427
0.008990965
0.0076536847
0.0062836767
0.0050071086
0.0039198023
0.0030834259
0.0025120143
0.0022056378
0.0020872111
0.0021553262
0.0022112673
0.0023608698
-0.0020897565
-0.0028587645
-0.0041018429
-0.0041424822
-0.0033776435
-0.0018185088
0.00027780239
0.0025709236
0.0048692235
0.0071302989
0.0091469041
0.010672906
0.011489379
0.011525912
0.010916262
0.0098344742
0.0084721427
0.0069976263
0.0055602015
0.0042805467
0.0032425513
0.0024933839
0.00202961
0.0018373043
0.0018254951
0.001986287
0.0021106535
0.0023146542
-0.0022689503
-0.0033918979
-0.0049381397
-0.005211385
-0.0046473897
-0.0033324306
-0.0013907076
0.0010184707
0.0034681286
0.0058728876
0.0081702534
0.010097364
0.011408399
0.011894322
0.011593666
0.010669485
0.0093363388
0.0077925923
0.0062120291
0.0047413195
0.0034917117
0.0025327869
0.0018933051
0.0015545836
0.0014859874
0.0015865567
0.0018417904
0.0020348087
0.0022926613
-0.0024677887
-0.0039826257
-0.0058331
-0.0063487543
-0.006023519
-0.0048934728
-0.0031756109
-0.00083480668
0.0017894664
0.0043822288
0.0069079569
0.0091913979
0.010966763
0.011992861
0.012105501
0.011446653
0.010216601
0.0086520483
0.0069575153
0.0053066023
0.0038395696
0.0026542498
0.0018021575
0.0012941717
0.0010935961
0.0011572285
0.0013735328
0.0017235987
0.0019844469
0.0022940135
-0.0027028097
-0.004595042
-0.0067362246
-0.0075123584
-0.0074668148
-0.0065710575
-0.0050383252
-0.0028939572
-0.00024393726
0.0025847182
0.0053516886
0.0079568494
0.010165963
0.011725413
0.012382658
0.012092892
0.011069322
0.0095506469
0.0077838861
0.0059749324
0.0042939906
0.0028695997
0.001781816
0.0010633998
0.00070480863
0.00065440884
0.00085515306
0.001188989
0.0016328033
0.0019596471
0.0023179165
-0.002945532
-0.0052310853
-0.0076394997
-0.008678409
-0.0089252365
-0.0083236896
-0.007019862
-0.005071537
-0.0025764345
0.00038496269
0.0034625701
0.0063694649
0.0089867304
0.011057162
0.012310917
0.012526147
0.011828641
0.010449341
0.0086698127
0.0067377316
0.0048574424
0.0031897372
0.0018467319
0.000889042
0.0003276852
0.0001346815
0.0002424774
0.00058384656
0.0010348505
0.0015699391
0.0019601634
0.0023653031
-0.0031284325
-0.0058867165
-0.0085664766
-0.0098399786
-0.010380943
-0.010093399
-0.0090826111
-0.0073608563
-0.0050741
-0.0022054062
0.0011290881
0.0044243816
0.007406457
0.0099615433
0.011806126
0.012657967
0.012403141
0.011290979
0.0095815257
0.0075777524
0.0055250628
0.0036208645
0.002010901
0.00078792635
-1.0475016e-05
-0.00039350339
-0.00040904232
-0.00013667068
0.00034612408
0.0009122597
0.0015351232
0.0019857048
0.002436773
-0.003215327
-0.0064610711
-0.0095335237
-0.011021517
-0.011829664
-0.011852895
-0.011164111
-0.0097311385
-0.0076870588
-0.0050289656
-0.0016896232
0.0019957392
0.0054343504
0.0084253791
0.010833176
0.012353115
0.0127142
0.011986825
0.010468144
0.0084660242
0.0062845266
0.0041619075
0.0022838169
0.00077650025
-0.00029061871
-0.00090265592
-0.0010906362
-0.00091886487
-0.00047934785
0.00014391909
0.00082178349
0.0015281241
0.0020355966
0.0025313278
-0.003246954
-0.0069199857
-0.010410551
-0.012253442
-0.013292561
-0.013599606
-0.013226635
-0.01212696
-0.010374508
-0.0079782878
-0.0048328333
-0.0010079522
0.0029274166
0.0064547143
0.0093683135
0.011536949
0.012629015
0.012441362
0.011252324
0.0093577056
0.0071106974
0.0048048886
0.0026680199
0.00086721705
-0.00049453904
-0.0013721208
-0.0017751995
-0.0017541417
-0.0013895954
-0.00078201293
-2.1571839e-05
0.00076349459
0.0015484217
0.0021090666
0.0026458007
-0.0032481488
-0.007304171
-0.011139173
-0.013434842
-0.014821839
-0.015361934
-0.015268542
-0.014500907
-0.01309455
-0.010994674
-0.0081088018
-0.0044195652
-0.0002068297
0.0039128825
0.0074221613
0.010168894
0.012003221
0.012561191
0.011827997
0.010186322
0.0079648583
0.0055291408
0.0031593734
0.001066123
-0.00060700933
-0.0017823245
-0.0024412305
-0.0026160738
-0.0023766206
-0.0018160403
-0.0010427042
-0.00014966832
0.00073691461
0.0015949955
0.0022056407
0.0027768675
-0.0032360181
-0.0076485782
-0.011744353
-0.014488243
-0.016318995
-0.01719736
-0.017323713
-0.016842269
-0.015792015
-0.01405755
-0.011469727
-0.0080119731
-0.0038202741
0.00070837376
0.0048861405
0.008264856
0.010772576
0.01215742
0.012098439
0.010850899
0.0087884303
0.0063013658
0.0037420525
0.0013728454
-0.00061893609
-0.0021157545
-0.0030682026
-0.0034829269
-0.0034153496
-0.0029510398
-0.0021950428
-0.0012597833
-0.00024033523
0.0007412008
0.0016661447
0.0023231995
0.0029228392
-0.0032315319
-0.0079395615
-0.012295205
-0.015382996
-0.017695766
-0.019010364
-0.019465711
-0.019197924
-0.018452495
-0.017102308
-0.014885096
-0.011707611
-0.0076847547
-0.0030407571
0.0016614501
0.0057552419
0.0089364638
0.01110216
0.011917697
0.01122791
0.0094911655
0.0070686177
0.0043872863
0.0017755889
-0.00052747225
-0.0023608403
-0.0036368573
-0.004333858
-0.0044843127
-0.0041637761
-0.0034724587
-0.0025236274
-0.0014327853
-0.00029410462
0.00077525035
0.0017603932
0.002459444
0.0030816133
-0.0032394142
-0.0081807289
-0.01277139
-0.016184091
-0.018893486
-0.020729731
-0.02159027
-0.021651635
-0.021121328
-0.020103409
-0.01828956
-0.015465231
-0.011679519
-0.0071261258
-0.0021789182
0.0025386359
0.0064598463
0.0093758151
0.011078733
0.01121526
0.0099455158
0.0077526475
0.0050484174
0.0022501327
-0.00034017307
-0.0025115183
-0.004133435
-0.0051482082
-0.0055629421
-0.0054334509
-0.0048541718
-0.0039364311
-0.0028005864
-0.0015616515
-0.00031221757
0.00083749225
0.0018761574
0.0026126025
0.0032519729
-0.0032644586
-0.0083786215
-0.013167564
-0.016884957
-0.019938928
-0.022256408
-0.023655741
-0.024094857
-0.023903573
-0.023106007
-0.021647206
-0.019223451
-0.015754975
-0.011396365
-0.0064460857
-0.0013628349
0.0032674833
0.0069479525
0.0095063922
0.010601027
0.01002891
0.0082373594
0.0056555082
0.0027559994
-7.6584778e-05
-0.0025715751
-0.0045490637
-0.0059105171
-0.006629689
-0.0067402438
-0.0063205584
-0.0054802487
-0.004340471
-0.0030250186
-0.0016471991
-0.0002960432
0.00092617788
0.0020117109
0.0027807564
0.0034337142
-0.008534295
-0.0033162253
-0.013473129
-0.017469531
-0.020871111
-0.023574087
-0.025520019
-0.026496051
-0.026671126
-0.026232456
-0.025003846
-0.022935034
-0.019849325
-0.015775309
-0.010965723
-0.0057725803
-0.00066341625
0.0037891018
0.0071506595
0.0092214956
0.0095909571
0.0083709361
0.0061054
0.0032294964
0.00022703054
-0.0025562763
-0.0048839345
-0.006609341
-0.0076678162
-0.0080624293
-0.0078529438
-0.0071370514
-0.0060378426
-0.0046827599
-0.0031973455
-0.0016904845
-0.00024725696
0.001039452
0.002165332
0.0029621698
0.0036261978
-0.013681648
-0.0086292141
-0.0033987511
-0.017917682
-0.021652511
-0.024752481
-0.027135305
-0.028696267
-0.029400729
-0.029338497
-0.028503981
-0.026639768
-0.023897201
-0.02018444
-0.015623947
-0.010491551
-0.0051789112
-0.00014481758
0.0040328789
0.0069752331
0.0084233466
0.0080271624
0.0062479285
0.0035780674
0.00051412999
-0.0024969816
-0.0051493307
-0.0072418868
-0.008663585
-0.0093822253
-0.0094300743
-0.008889812
-0.0078765538
-0.0065237397
-0.004962879
-0.0033181926
-0.0016933686
-0.00016783882
0.0011753508
0.0023352954
0.0031553295
0.0038280655
-0.018200968
-0.013769457
-0.0086564318
-0.003501786
-0.02224693
-0.025739198
-0.028556514
-0.030622711
-0.031943891
-0.032410439
-0.031968284
-0.030513289
-0.027949486
-0.024553095
-0.020335065
-0.015404896
-0.010070301
-0.0047365714
0.00011313203
0.0039097903
0.0063207373
0.0070346754
0.0059244247
0.0036671002
0.00069999988
-0.0024451001
-0.0053718563
-0.0078152736
-0.0096114615
-0.010684193
-0.01103348
-0.010717986
-0.0098418601
-0.0085340894
-0.0069362994
-0.0051808366
-0.0033892603
-0.001657836
-5.992479e-05
0.0013318706
0.0025198519
0.0033589422
0.0040379587
-0.022621575
-0.018293737
-0.013726603
-0.0086251497
-0.003620088
-0.026505581
-0.029757623
-0.032289986
-0.034174062
-0.035295492
-0.035405265
-0.034350223
-0.032182565
-0.028941827
-0.025016169
-0.020402773
-0.015212396
-0.0097802551
-0.0045396329
1.7346577e-05
0.0033153149
0.005087068
0.0050083285
0.0033171179
0.00066483732
-0.002477765
-0.0055980778
-0.0083517797
-0.010514731
-0.011960073
-0.012646406
-0.012603213
-0.01191423
-0.010701756
-0.0091065502
-0.0072749147
-0.0053380024
-0.0034124542
-0.0015862484
7.4297728e-05
0.0015070085
0.0027171885
0.0035714487
0.004254571
-0.027005401
-0.02275496
-0.018189711
-0.013566096
-0.0085319305
-0.0037383293
-0.030698697
-0.033696394
-0.036065891
-0.03781589
-0.038651468
-0.038165912
-0.036392853
-0.033540294
-0.02973725
-0.025375546
-0.020475909
-0.015122856
-0.0097121329
-0.0046870809
-0.00055241221
0.002152107
0.0032150156
0.0023826012
0.00023733423
-0.0027033754
-0.0058981513
-0.0088925656
-0.011391282
-0.013209782
-0.014258208
-0.014527801
-0.014076079
-0.013008883
-0.011464506
-0.0095922053
-0.0075401408
-0.0054361603
-0.0033903128
-0.0014810143
0.00023255813
0.0016987625
0.0029256422
0.003791376
0.0044765098
-0.031326411
-0.027207668
-0.022641727
-0.017900649
-0.013296234
-0.0083625386
-0.0038342261
-0.034805166
-0.037664059
-0.039926654
-0.041466147
-0.04178602
-0.040576427
-0.038118953
-0.034689035
-0.030417267
-0.025729728
-0.020633627
-0.015236239
-0.0099794802
-0.0052974927
-0.0017065586
0.00036135787
0.00066014757
-0.00077863193
-0.0032776525
-0.0063716965
-0.0095018402
-0.012276983
-0.014446394
-0.015865463
-0.016478946
-0.016309149
-0.015439024
-0.013994515
-0.012126769
-0.0099905851
-0.0077335353
-0.0054778543
-0.0033254378
-0.0013447674
0.00041250008
0.001905105
0.0031435881
0.004017395
0.0047025623
-0.035547489
-0.031594395
-0.027102562
-0.022283725
-0.017437829
-0.012913678
-0.008111196
-0.0038730939
-0.038917522
-0.041698353
-0.043789878
-0.04491601
-0.044566395
-0.042674221
-0.039629976
-0.035707911
-0.031074717
-0.026150892
-0.020968572
-0.015674158
-0.01070648
-0.0065049512
-0.0035165435
-0.0021159208
-0.0025439342
-0.0044107811
-0.0071614004
-0.010271571
-0.013229147
-0.015700553
-0.017476784
-0.018450054
-0.018598905
-0.017973875
-0.016681846
-0.0148657
-0.012686922
-0.010302504
-0.0078574822
-0.0054658797
-0.0032207867
-0.0011802348
0.00061163129
0.0021240287
0.0033696038
0.0042483721
0.0049316141
-0.039745856
-0.035865566
-0.031488336
-0.026695265
-0.02169416
-0.016816434
-0.012415899
-0.0077771707
-0.0038334053
-0.043068768
-0.045724059
-0.047470904
-0.048026923
-0.047034568
-0.044558382
-0.041003922
-0.036675699
-0.031786162
-0.026753279
-0.021623144
-0.01657828
-0.012051129
-0.0083966714
-0.006015835
-0.0052833385
-0.0062891901
-0.0084628021
-0.011332086
-0.014334487
-0.017023028
-0.019116935
-0.020445329
-0.020935857
-0.020597694
-0.019508592
-0.017796563
-0.015619105
-0.013144742
-0.01053005
-0.0079148389
-0.0054034231
-0.0030795743
-0.00099047494
0.00082759476
0.0023539573
0.0036025379
0.0044831557
0.0051625975
-0.043951674
-0.040077787
-0.035737354
-0.03102215
-0.026004035
-0.020893563
-0.016040175
-0.011805246
-0.0073295311
-0.0036505119
-0.04719311
-0.049579186
-0.050836805
-0.050837593
-0.049285428
-0.04630016
-0.04230407
-0.037673172
-0.03265851
-0.027669634
-0.022753696
-0.018127602
-0.014118551
-0.010990468
-0.0091983134
-0.0090939218
-0.010496712
-0.012859343
-0.015710304
-0.01849362
-0.020830451
-0.02248368
-0.023319719
-0.023298431
-0.022458397
-0.020902518
-0.018777524
-0.016253275
-0.01350133
-0.010675895
-0.0079088831
-0.0052941735
-0.0029054892
-0.00077828515
0.0010586709
0.0025937464
0.0038409838
0.0047201829
0.0053944672
-0.048107577
-0.044265716
-0.039891746
-0.035185324
-0.030221848
-0.025043966
-0.019905345
-0.015106983
-0.011019936
-0.006697312
-0.0033226276
-0.051154154
-0.053131463
-0.053943649
-0.053441104
-0.051392072
-0.047956674
-0.043610806
-0.038796262
-0.033842151
-0.029077203
-0.024557
-0.020450171
-0.01691183
-0.014266624
-0.013047337
-0.013457961
-0.015089685
-0.017520608
-0.02022108
-0.022688623
-0.0246027
-0.02576349
-0.026071402
-0.025517122
-0.024167051
-0.022147364
-0.019621621
-0.016768256
-0.013759032
-0.01074347
-0.0078437255
-0.0051424522
-0.0027018252
-0.00054553091
0.0013037226
0.0028415391
0.0040825088
0.0049579139
0.0056267537
-0.052097352
-0.048377527
-0.043986006
-0.039216581
-0.034250044
-0.029096691
-0.023846996
-0.018700754
-0.01394865
-0.010003131
-0.0058797488
-0.0029310957
-0.054824433
-0.056444352
-0.056860654
-0.055907458
-0.053404911
-0.049593496
-0.045005273
-0.040202864
-0.035525662
-0.031179302
-0.027180772
-0.023551268
-0.020398231
-0.018241354
-0.017515171
-0.018253299
-0.019991224
-0.022356373
-0.024792539
-0.026865174
-0.028297705
-0.02892389
-0.028676202
-0.027574602
-0.02571267
-0.023237677
-0.020327537
-0.017165303
-0.01392117
-0.01073719
-0.0077243636
-0.0049521973
-0.0024705331
-0.00029332376
0.001560189
0.0030934185
0.0043249098
0.0051967969
0.0058710176
-0.055812981
-0.052319872
-0.047979975
-0.043149801
-0.038100814
-0.032935516
-0.027670813
-0.02235722
-0.01721683
-0.012562784
-0.0087870109
-0.0049941648
-0.0025194068
-0.058278204
-0.059587983
-0.059639319
-0.058282777
-0.05538432
-0.051299901
-0.046656293
-0.042092191
-0.037908239
-0.034159998
-0.03064535
-0.027385648
-0.024577087
-0.022852751
-0.022500191
-0.023369613
-0.025104707
-0.027280337
-0.029362311
-0.030975844
-0.031878695
-0.031936975
-0.031113311
-0.029456877
-0.027087049
-0.024170266
-0.020895306
-0.017447168
-0.013992347
-0.01066275
-0.0075554302
-0.0047253921
-0.0022126999
-2.5237632e-05
0.0018220954
0.0033461706
0.0045703398
0.0054532435
0.0061309082
-0.059330763
-0.056002822
-0.051799593
-0.046957322
-0.041812774
-0.036556767
-0.031229929
-0.025857974
-0.020537086
-0.015487535
-0.011007725
-0.0075217921
-0.004082695
-0.002071445
-0.061588428
-0.06260347
-0.062322093
-0.060622022
-0.057410289
-0.053230035
-0.048770879
-0.044675846
-0.041176862
-0.038052758
-0.034911522
-0.031911857
-0.029395273
-0.028007829
-0.027844276
-0.028722932
-0.03033626
-0.032222117
-0.033878774
-0.034980164
-0.035314821
-0.034779027
-0.033365799
-0.031152993
-0.028284494
-0.024943588
-0.021326581
-0.017618544
-0.013978754
-0.010525259
-0.0073388834
-0.0044631182
-0.0019333192
0.00025006316
0.0020850126
0.0036049926
0.004843004
0.0057253418
0.0063997802
-0.062728839
-0.059504663
-0.055372199
-0.050584532
-0.045373453
-0.040007266
-0.03452709
-0.029064126
-0.023672783
-0.018464321
-0.013603717
-0.0094374328
-0.0062334688
-0.0031179163
-0.001606785
-0.064790334
-0.065523561
-0.064955408
-0.062986924
-0.059644401
-0.055601934
-0.051589789
-0.048169098
-0.045414571
-0.042831255
-0.039907769
-0.037052981
-0.034778184
-0.033578043
-0.033439744
-0.034220275
-0.035612334
-0.037123529
-0.038298087
-0.038844117
-0.038579427
-0.037430043
-0.03541953
-0.032654493
-0.029301344
-0.025557835
-0.021625479
-0.017686066
-0.013886247
-0.010326709
-0.007075762
-0.0041720539
-0.0016444479
0.00052691727
0.002358375
0.0039083157
0.0051301903
0.006008126
0.0066773096
-0.066039956
-0.062907643
-0.058779359
-0.053979244
-0.048745336
-0.043265985
-0.037613656
-0.03197522
-0.026493117
-0.021246959
-0.016231036
-0.011713744
-0.0078335649
-0.0048747285
-0.002133802
-0.001147243
-0.067911423
-0.068378767
-0.067590873
-0.065542712
-0.062307253
-0.058677973
-0.055332971
-0.052682464
-0.050615176
-0.048409196
-0.045507946
-0.042761867
-0.040621131
-0.039415404
-0.039180097
-0.039775015
-0.04086293
-0.041936332
-0.042583292
-0.04253919
-0.041650245
-0.039873305
-0.037263263
-0.033954937
-0.030135983
-0.026016268
-0.021798795
-0.017655894
-0.013716647
-0.010067928
-0.006774677
-0.0038683918
-0.001353179
0.00082008419
0.0027000602
0.0042263093
0.0054305116
0.0063002677
0.0069635265
-0.069289912
-0.066246488
-0.062109256
-0.057222536
-0.051903028
-0.046338914
-0.040501626
-0.034647726
-0.029010263
-0.023700724
-0.018654863
-0.014002123
-0.0097661632
-0.0061465138
-0.0034497432
-0.0011713466
-0.00069939944
-0.070961443
-0.071218643
-0.070410951
-0.068524361
-0.065676516
-0.062705185
-0.060154116
-0.058219995
-0.056665018
-0.054607086
-0.051629998
-0.048952327
-0.046756394
-0.045389522
-0.044973576
-0.04531359
-0.046034627
-0.046622677
-0.046704505
-0.046041348
-0.044508393
-0.042094828
-0.038887759
-0.035050233
-0.030790019
-0.026325189
-0.021852881
-0.017529389
-0.013470274
-0.0097597412
-0.0064568319
-0.0035609159
-0.0010378284
0.0012127823
0.0030571987
0.0045604145
0.0057402513
0.0066020369
0.0072580645
-0.072465362
-0.069539722
-0.065392749
-0.06040532
-0.054923674
-0.04919495
-0.043191097
-0.037101426
-0.031259506
-0.025829947
-0.02074641
-0.016083622
-0.011692419
-0.007720787
-0.0043886587
-0.0020172391
-0.00026280237
-0.00026442343
-0.073971071
-0.074217141
-0.073654926
-0.072194298
-0.070013648
-0.067877035
-0.066075424
-0.064669451
-0.06340294
-0.061303968
-0.058210421
-0.055436761
-0.052997681
-0.051403338
-0.050743417
-0.050787391
-0.051086272
-0.051152026
-0.050637507
-0.049330279
-0.047137445
-0.044082119
-0.040285942
-0.035940221
-0.031269297
-0.026490648
-0.021788434
-0.017306301
-0.013160241
-0.0094292667
-0.006133214
-0.0032194342
-0.00058212768
0.0016223718
0.0034341431
0.0049033977
0.0060605503
0.006912683
0.00756074
-0.075581428
-0.072757229
-0.068644241
-0.063558653
-0.057898151
-0.051907218
-0.04567176
-0.039353555
-0.033291384
-0.027679251
-0.022490266
-0.017830826
-0.01342069
-0.0092762616
-0.0055949583
-0.0026007875
-0.00063237648
0.00058544738
0.00016871777
-0.077108026
-0.077637834
-0.077591432
-0.076831548
-0.075562003
-0.074255886
-0.072985708
-0.071893117
-0.070625417
-0.068412909
-0.065089228
-0.062009405
-0.059213444
-0.057378078
-0.056441626
-0.056150013
-0.055988513
-0.055500456
-0.054361316
-0.052388051
-0.049522082
-0.045824888
-0.041455013
-0.036629167
-0.031578899
-0.02651203
-0.021603963
-0.017002551
-0.012820796
-0.009090247
-0.0057630148
-0.0026865425
-0.00010673748
0.0020565593
0.0038189846
0.0052577859
0.0063901813
0.0072321254
0.0078711442
-0.078798522
-0.075889672
-0.071816719
-0.066694767
-0.060858617
-0.054580695
-0.048017293
-0.041417157
-0.035127066
-0.029304185
-0.023951039
-0.019211823
-0.014818048
-0.010635301
-0.0067651119
-0.0034285748
-0.00085390759
0.00067530128
0.0013383325
0.00062652823
-0.080655372
-0.081750682
-0.08250325
-0.082726048
-0.082417351
-0.081705555
-0.080761902
-0.079661171
-0.078184996
-0.075781911
-0.072051521
-0.068541023
-0.065348305
-0.063273099
-0.062037585
-0.061373015
-0.060720362
-0.059648068
-0.057857468
-0.055196934
-0.051648643
-0.047317594
-0.042397424
-0.037121122
-0.031715875
-0.026386254
-0.02131798
-0.016660475
-0.012469107
-0.008688988
-0.0051369732
-0.0021301645
0.00039885675
0.0024971336
0.0042158316
0.0056216655
0.0067290473
0.0075596774
0.008189015
-0.082408413
-0.079105107
-0.074886505
-0.069744256
-0.063824851
-0.057257958
-0.050330642
-0.043363024
-0.036779209
-0.030739462
-0.025187173
-0.020299952
-0.015852319
-0.011679668
-0.0077451418
-0.0042113303
-0.001306622
0.00078267189
0.0019046786
0.0020004851
0.0010837483
-0.084895146
-0.086878011
-0.08871485
-0.090012988
-0.090453098
-0.090083523
-0.089175695
-0.087745631
-0.0859113
-0.083196656
-0.078926321
-0.074910148
-0.071376477
-0.069047112
-0.067505267
-0.066434824
-0.065263343
-0.063577488
-0.061107174
-0.057740484
-0.053508467
-0.048560459
-0.043115014
-0.037409673
-0.031674474
-0.026134725
-0.020982704
-0.016301274
-0.012035776
-0.0079522415
-0.0044818384
-0.0015365012
0.00090857073
0.0029500797
0.004622081
0.005995067
0.0070762803
0.0078950611
0.0085139673
-0.086704771
-0.082686919
-0.078011613
-0.072675614
-0.066701955
-0.059947843
-0.052652918
-0.045299557
-0.038345393
-0.032015123
-0.026252634
-0.021170067
-0.01659151
-0.012361542
-0.0084321548
-0.0048208506
-0.0017068265
0.0006940155
0.0023190084
0.0029919941
0.0025771105
0.0014546608
-0.090147321
-0.093313789
-0.096380255
-0.098593508
-0.099482582
-0.09920293
-0.097951857
-0.095937222
-0.093646509
-0.090471555
-0.085565069
-0.081052122
-0.077288442
-0.074667982
-0.072822172
-0.071325068
-0.069603094
-0.067270049
-0.064091778
-0.060007264
-0.055099448
-0.049551669
-0.043596845
-0.03748476
-0.031479254
-0.025820886
-0.020624641
-0.015836537
-0.011168406
-0.0071789596
-0.0037810167
-0.00094184558
0.0014306472
0.0034121737
0.0050377449
0.0063769904
0.0074314525
0.0082376271
0.0088457556
-0.09200828
-0.086940287
-0.081480126
-0.075651923
-0.069439289
-0.062539034
-0.054982651
-0.047260258
-0.039915312
-0.033220152
-0.027171059
-0.021873509
-0.017120232
-0.012754623
-0.0087742968
-0.0051583726
-0.0019523145
0.00065540823
0.0025624516
0.003696581
0.0038762088
0.0030259314
0.001671031
-0.096700421
-0.1012366
-0.10542943
-0.10825555
-0.1093342
-0.10874703
-0.10680828
-0.10404083
-0.1012578
-0.097453214
-0.091906341
-0.087014949
-0.083032772
-0.080145884
-0.07798583
-0.07603218
-0.073722954
-0.070706286
-0.066797652
-0.061992562
-0.056415743
-0.05027438
-0.04382766
-0.037374038
-0.031206609
-0.025476368
-0.020132051
-0.014816815
-0.010254645
-0.006349575
-0.003083509
-0.00033501371
0.0019611992
0.0038835187
0.0054617243
0.0067668644
0.0077938665
0.0085872694
0.009183764
-0.098582178
-0.092178276
-0.085599774
-0.078940937
-0.07220664
-0.064966079
-0.057192236
-0.04921366
-0.041506286
-0.03443023
-0.028022474
-0.022444307
-0.017484011
-0.012942925
-0.0088329389
-0.0051742788
-0.0019479752
0.00075971397
0.0028425068
0.0042304618
0.0048214294
0.0045124753
0.0033190549
0.0017617285
-0.10473472
-0.11060388
-0.11566715
-0.11882522
-0.11971164
-0.11841001
-0.11552213
-0.11197723
-0.10859471
-0.10408371
-0.097949848
-0.092789039
-0.088599514
-0.085485033
-0.082991916
-0.080543453
-0.077604814
-0.073871538
-0.069218318
-0.063686546
-0.057432284
-0.050706393
-0.043837243
-0.037169129
-0.030894449
-0.024961168
-0.018936089
-0.013738105
-0.0092721484
-0.0055291447
-0.0023744274
0.00027930951
0.0025005141
0.0043628819
0.0058932984
0.0071640681
0.0081636922
0.0089431936
0.0095276525
-0.10661667
-0.098642717
-0.090645045
-0.082826276
-0.075236055
-0.06740247
-0.059224695
-0.051036902
-0.0430761
-0.03566152
-0.028881505
-0.022964598
-0.017727124
-0.012976166
-0.0087008332
-0.0049222612
-0.0016518717
0.0010828349
0.0032466624
0.0047794699
0.0055717026
0.0056283829
0.0048991184
0.0034247926
0.0017453961
-0.11424317
-0.12123248
-0.12690437
-0.13001529
-0.13027802
-0.12790441
-0.12398875
-0.11965981
-0.11555096
-0.11032729
-0.10366907
-0.098389524
-0.094020354
-0.09069588
-0.087830902
-0.084843453
-0.081234656
-0.076758986
-0.071339791
-0.065053545
-0.058117467
-0.050880072
-0.043734406
-0.036915008
-0.030368476
-0.023563849
-0.017665173
-0.012575141
-0.0083059466
-0.0046980352
-0.0016593476
0.00090170055
0.0030472247
0.0048494452
0.0063320036
0.0075692128
0.0085395781
0.0093048519
0.0098769438
-0.11614992
-0.10653211
-0.096871354
-0.087587694
-0.078807718
-0.070079731
-0.061262831
-0.052687051
-0.044507808
-0.036858837
-0.029747111
-0.023490823
-0.017914429
-0.012892894
-0.0084228406
-0.0044973953
-0.0011213703
0.0016610344
0.0038329382
0.0054103246
0.0063107995
0.0065256405
0.0061258948
0.0050591143
0.0033912093
0.0016487549
-0.12507348
-0.13294199
-0.13886766
-0.14148491
-0.14069307
-0.13707918
-0.13214147
-0.12698991
-0.12206627
-0.11618259
-0.10916632
-0.10385101
-0.099332614
-0.095774939
-0.092493758
-0.0889215
-0.084607013
-0.079351848
-0.073115381
-0.066049723
-0.05850632
-0.050922723
-0.043572749
-0.036396064
-0.028743035
-0.022071527
-0.016291044
-0.011437769
-0.0073303776
-0.0038629197
-0.00093726474
0.001530671
0.0036004503
0.0053429972
0.0067791741
0.0079803115
0.0089208836
0.0096714696
0.010231243
-0.1270662
-0.11593785
-0.10450159
-0.093488637
-0.083200179
-0.073270232
-0.063525904
-0.054349943
-0.04580107
-0.037935033
-0.030570748
-0.024026091
-0.018117284
-0.012764845
-0.0080467602
-0.0039468985
-0.00044835818
0.0024353437
0.0046305826
0.0061765313
0.0070851254
0.0073837816
0.007122263
0.0063593665
0.0050433878
0.0032585005
0.0014905488
-0.13704245
-0.14548442
-0.15121439
-0.15287569
-0.15076126
-0.14588852
-0.13993258
-0.13389501
-0.12811247
-0.12163961
-0.11457845
-0.10919153
-0.1045452
-0.10071951
-0.096976033
-0.092776303
-0.087704551
-0.081591523
-0.074484751
-0.066711626
-0.058747786
-0.050898176
-0.043086456
-0.034515615
-0.026997509
-0.020452645
-0.014954145
-0.010292654
-0.0063534166
-0.0030221988
-0.00020973377
0.0021653226
0.0041602539
0.0058457992
0.0072320294
0.0083964998
0.0093067072
0.010042513
0.010590098
-0.13917448
-0.12676185
-0.1136248
-0.10075241
-0.088674178
-0.077233384
-0.066308023
-0.056248462
-0.047125682
-0.038919122
-0.031302208
-0.024531117
-0.018344728
-0.012677683
-0.0076492749
-0.0033309663