/*--------------------------------*- C++ -*----------------------------------*\
| =========                 |                                                 |
| \\      /  F ield         | OpenFOAM: The Open Source CFD Toolbox           |
|  \\    /   O peration     | Version:  5.0                                   |
|   \\  /    A nd           | Web:      www.OpenFOAM.org                      |
|    \\/     M anipulation  |                                                 |
\*---------------------------------------------------------------------------*/
FoamFile
{
    version     2.0;
    format      ascii;
    class       volScalarField;
    location    "220";
    object      pPrime2Mean;
}
// * * * * * * * * * * * * * * * * * * * * * * * * * * * * * * * * * * * * * //

dimensions      [0 4 -4 0 0 0 0];

internalField   nonuniform List<scalar> 
9200
(
1.3275895e-06
1.4143047e-06
8.4150745e-06
1.5322472e-06
8.7861733e-06
2.3076841e-05
1.7904161e-06
9.2387472e-06
2.3954074e-05
4.2153593e-05
2.1851389e-06
1.0125731e-05
2.5182412e-05
4.3520049e-05
6.5744666e-05
2.8642849e-06
1.1355312e-05
2.7460709e-05
4.5470132e-05
6.7591711e-05
9.2121821e-05
3.9751315e-06
1.3181128e-05
3.0612444e-05
4.8995793e-05
7.0132331e-05
9.4257631e-05
0.00012067937
5.8032829e-06
1.5720468e-05
3.5128659e-05
5.38084e-05
7.4679065e-05
9.7116413e-05
0.0001229817
0.00015091745
8.6639096e-06
1.9230423e-05
4.1202121e-05
6.0603222e-05
8.0762477e-05
0.00010225039
0.00012589418
0.00015323567
0.00018252663
1.3031555e-05
2.3892309e-05
4.9346185e-05
6.9578987e-05
8.9188896e-05
0.0001089814
0.00013119963
0.00015594723
0.00018477255
0.00021538333
1.9110916e-05
2.9966294e-05
6.0084474e-05
8.1341134e-05
0.00010010165
0.00011819248
0.00013799983
0.0001610733
0.00018710188
0.00021749364
0.00024945121
2.5080925e-05
3.74842e-05
7.4065204e-05
9.641965e-05
0.00011415826
0.00012990251
0.0001472397
0.00016748126
0.00019179522
0.00021931575
0.00025139723
0.00028472319
2.84289e-05
4.7119584e-05
9.2167368e-05
0.00011566911
0.00013193078
0.00014474181
0.00015880636
0.00017617713
0.00019749199
0.00022342073
0.00025264176
0.00028650662
0.00032125657
3.2265841e-05
6.269123e-05
0.00011688938
0.00014062587
0.0001544373
0.00016320331
0.0001732856
0.00018691292
0.00020527033
0.00022822014
0.00025608625
0.0002871529
0.00032289343
0.00035904203
4.2579271e-05
9.1224077e-05
0.0001544671
0.00017475785
0.00018344088
0.00018627325
0.00019107066
0.00020023014
0.0002147626
0.00023488468
0.00025991945
0.00028994213
0.00032294992
0.00036056804
0.00039816316
6.1551893e-05
0.00014349599
0.00021473741
0.00022544358
0.00022272286
0.00021570764
0.00021306939
0.00021642506
0.00022647991
0.00024294016
0.00026542604
0.00029284032
0.00032513415
0.00036007835
0.00039960939
0.00043857743
9.0152833e-05
0.0002274373
0.000312967
0.00030471916
0.00027964499
0.00025512919
0.00024089136
0.00023631752
0.00024064904
0.00025288931
0.00027203477
0.00029726571
0.00032719749
0.00036175592
0.00039861574
0.00043997728
0.00048035616
0.00012746195
0.00034154571
0.00046204151
0.00043035843
0.00036758836
0.0003118807
0.00027780351
0.00026132856
0.00025802518
0.00026490757
0.00028024785
0.0003025606
0.00033070982
0.00036314667
0.00039989115
0.00043853234
0.00048174083
0.00052343964
0.00016791697
0.00048001522
0.00065886799
0.00062106499
0.00050686928
0.00039956409
0.00033061508
0.00029435058
0.00027987692
0.00027969596
0.00029020297
0.00030923852
0.00033493463
0.00036599118
0.00040079287
0.00043952943
0.00047988589
0.00052482042
0.0005678561
0.00020457767
0.00062578369
0.00089146817
0.00087645429
0.00071888314
0.00053816891
0.00041213169
0.0003413917
0.00030870612
0.00029837176
0.00030255611
0.00031738776
0.00034039018
0.00036948412
0.00040325379
0.00044015234
0.00048069457
0.00052258001
0.00056923871
0.00061356466
0.00023130745
0.00076298793
0.0011319024
0.0011814117
0.0010067407
0.00075164067
0.00054195106
0.0004139552
0.00034961762
0.00032315409
0.00031830734
0.00032759988
0.00034711242
0.00037415197
0.00040641682
0.00044255097
0.00048122291
0.00052327724
0.000566631
0.00061493297
0.00066056827
0.00023982965
0.00087253341
0.0013539784
0.0015012573
0.0013537534
0.0010499438
0.00074589385
0.00053222629
0.00041277125
0.0003582547
0.00033940763
0.0003407791
0.00035561258
0.00037995868
0.00041081649
0.00044584421
0.00048386832
0.00052388553
0.00056726812
0.00061193534
0.00066189606
0.00070884833
0.00023145481
0.00093557918
0.0015370329
0.0017961278
0.0017253314
0.0014178559
0.0010398947
0.00072096622
0.00051727172
0.00041240014
0.00036939993
0.00035863479
0.00036669242
0.00038733086
0.00041633674
0.00045058462
0.00048776122
0.00052707785
0.00056806992
0.0006125028
0.00065847287
0.00071009167
0.00075839881
0.0002175342
0.00095393595
0.0016644674
0.0020419466
0.0020770491
0.0018232399
0.0014136598
0.0009997881
0.00068657488
0.00050215076
0.00041544034
0.00038421396
0.00038185157
0.00039693281
0.0004233105
0.00045658284
0.00049349945
0.00053204234
0.00057204037
0.000613561
0.00065893978
0.00070617293
0.0007595073
0.0008092138
0.00020354255
0.00094429649
0.0017170408
0.0022236628
0.0023766873
0.0022199638
0.0018404457
0.0013684314
0.00094488177
0.00065120155
0.00049153018
0.00042310319
0.00040361462
0.0004100128
0.00043223263
0.00046407046
0.00050083867
0.0005394624
0.00057848748
0.0006184862
0.00066026311
0.00070644022
0.00075500973
0.00081012706
0.00086129528
0.0001920598
0.00092520021
0.001715287
0.0023034592
0.0026031149
0.0025666407
0.002271273
0.0018035841
0.0013006442
0.00088685731
0.00062117006
0.00048688651
0.00043655366
0.00042870898
0.00044409601
0.00047333612
0.00050989892
0.00054908437
0.00058823909
0.000626762
0.00066621329
0.00070794247
0.00075495185
0.00080494871
0.00086194797
0.00091464334
0.00018357656
0.00089745547
0.0016909771
0.0023037195
0.002723707
0.0028379776
0.0026624198
0.0022621631
0.0017352817
0.0012231427
0.00083093978
0.00059639857
0.00048954922
0.00045672259
0.0004606758
0.00048514107
0.00052078553
0.00056093505
0.0006010887
0.00063942907
0.00067653686
0.00071488744
0.00075650972
0.0008043948
0.00085597573
0.00091496952
0.00096924146
0.00017655814
0.00086352747
0.0016444531
0.0022622505
0.002743298
0.0030125612
0.002983337
0.0026938449
0.0022126262
0.0016481923
0.0011405499
0.00077738085
0.00057976217
0.00050069066
0.00048498379
0.00050082767
0.00053397696
0.00057495705
0.00061702533
0.00065641466
0.00069256747
0.00072735227
0.00076432195
0.00080578926
0.00085473937
0.00090808397
0.00096918777
0.0010250532
0.00016992828
0.00082458943
0.0015819985
0.0021922032
0.0027009741
0.0030707143
0.003211715
0.0030622485
0.0026789265
0.002134302
0.0015491174
0.0010567942
0.00073350342
0.00057445675
0.00052195799
0.0005228437
0.0005504539
0.00059133626
0.00063585679
0.00067774519
0.00071446733
0.00074704142
0.0007788508
0.00081421346
0.00085572
0.00090595746
0.00096127703
0.0010245906
0.0010820705
0.00016238728
0.00078178851
0.0015103758
0.0021017069
0.0026259043
0.0030451529
0.0033211532
0.003342624
0.0030919403
0.0026293114
0.0020329253
0.0014423732
0.00097878887
0.00070149182
0.00058197989
0.00055508505
0.00057206819
0.00061069125
0.00065751996
0.00070316916
0.00074240201
0.0007744491
0.00080227714
0.00083058679
0.00086443561
0.00090621548
0.00095804815
0.001015564
0.001081167
0.0011403366
0.00015020196
0.00073878076
0.0014346613
0.0020016435
0.0025250749
0.0029778958
0.0033308936
0.0035183844
0.0034292618
0.0030851599
0.0025476296
0.001913379
0.0013315451
0.00090840449
0.0006842813
0.00060464921
0.00060184868
0.00063430214
0.00068228662
0.00073245345
0.00077617309
0.0008100137
0.00083552804
0.00085761458
0.00088229132
0.00091480456
0.00095727647
0.0010110334
0.0010709553
0.0011389099
0.0011998297
0.00013562914
0.00068599717
0.0013589111
0.0018970659
0.0024126934
0.0028815398
0.0032834474
0.0035784877
0.0036730858
0.0034772437
0.0030422652
0.0024357045
0.0017804761
0.0012206042
0.00085514472
0.00068671288
0.0006448742
0.00066446981
0.00071092448
0.00076553942
0.00081547599
0.00085374023
0.00087946125
0.0008967564
0.00091254379
0.00093363121
0.00096530572
0.0010089199
0.0010649502
0.0011274572
0.0011977944
0.0012603394
0.00011850623
0.00062894547
0.001262958
0.001796069
0.0022950273
0.0027706385
0.0032045248
0.0035614788
0.0037926333
0.0037825196
0.0034835456
0.0029601166
0.002296689
0.0016409738
0.00112224
0.00082519568
0.00071170871
0.00070501666
0.00074498297
0.0008027391
0.00086003348
0.00090539349
0.00093444517
0.00094943431
0.00095729468
0.00096652913
0.00098449319
0.0010158848
0.0010612023
0.0011198321
0.0011850696
0.0012577606
0.0013216967
9.8791252e-05
0.00056263884
0.0011623366
0.0016713153
0.0021829234
0.0026540802
0.0031066953
0.0035093942
0.0038228666
0.0039774609
0.0038502687
0.0034444631
0.0028396127
0.0021399041
0.0015009294
0.0010456719
0.00082228408
0.00076265708
0.00078730551
0.00084494157
0.00090974899
0.00096461783
0.0010005035
0.0010165548
0.0010186662
0.0010163025
0.0010192611
0.0010347363
0.0010666238
0.0011141824
0.0011757144
0.0012437779
0.0013187546
0.0013838961
7.9622998e-05
0.00048699866
0.0010458353
0.0015463703
0.0020420198
0.0025441669
0.0030014823
0.003434424
0.0038064833
0.0040716683
0.0041280614
0.0038680382
0.0033610972
0.0026865434
0.0019737266
0.001372143
0.0010017666
0.00085227663
0.00084228774
0.00089402575
0.00096497101
0.0010310701
0.0010773899
0.0010986118
0.0010982697
0.0010858714
0.0010731675
0.001070463
0.0010844246
0.001117588
0.0011679461
0.0012326331
0.0013035511
0.0013807073
0.0014470351
6.2529371e-05
0.00040945097
0.00091358585
0.0014080043
0.0019066046
0.0023977736
0.0029036015
0.0033496052
0.0037632586
0.0041027231
0.0042974989
0.0042187114
0.0038324805
0.0032334071
0.0025098172
0.0018069291
0.0012727202
0.00099796422
0.00091945127
0.00095323623
0.00102677
0.001104673
0.0011647434
0.0011957252
0.0011972928
0.0011777136
0.0011500005
0.0011273689
0.0011200978
0.0011336057
0.001168929
0.0012225807
0.0012906169
0.0013643522
0.0014434837
0.0015111073
4.8190823e-05
0.0003375485
0.00077624998
0.001254268
0.0017574944
0.0022642196
0.0027604878
0.0032710243
0.0037059482
0.0041039954
0.0043908006
0.0044717763
0.0042474604
0.0037471775
0.0030694164
0.0023204409
0.0016532458
0.0012188728
0.0010392991
0.0010280811
0.0010971958
0.0011857952
0.0012622292
0.0013077476
0.0013164767
0.0012939156
0.0012532205
0.0012101403
0.0011786698
0.0011681734
0.001182488
0.0012207823
0.0012781744
0.0013496797
0.0014261698
0.0015070447
0.0015759431
3.7428796e-05
0.00027457162
0.0006492431
0.001090441
0.0015924771
0.0021138497
0.0026387686
0.0031361123
0.0036539538
0.0040875439
0.0044465101
0.0046410691
0.0045875576
0.0042179951
0.0036167192
0.0028784356
0.0021322686
0.0015386737
0.0012221389
0.0011317496
0.0011798484
0.001275565
0.0013697822
0.001434404
0.0014562128
0.0014361226
0.0013860062
0.0013233
0.0012657235
0.0012269679
0.0012149021
0.0012312569
0.0012733279
0.0013348029
0.0014098052
0.0014889392
0.001571341
0.0016414437
3.1046264e-05
0.00022455125
0.00053775638
0.0009362898
0.0014145334
0.0019487232
0.0024962277
0.0030324817
0.0035306576
0.0040742884
0.0044814866
0.0047595916
0.004837481
0.0046312169
0.0041337687
0.0034473252
0.0026754417
0.0019668731
0.0014834844
0.00128706
0.0012817878
0.0013762488
0.001487756
0.0015754367
0.0016166182
0.0016055638
0.0015511352
0.0014712499
0.0013868758
0.0013164102
0.0012724243
0.0012605342
0.0012802017
0.001326721
0.001392533
0.0014709729
0.0015525795
0.0016362718
0.0017074649
2.964238e-05
0.00019117426
0.00044888089
0.00080149185
0.0012416457
0.0017669572
0.0023401592
0.0029034072
0.0034513746
0.0039702579
0.0045196534
0.0048558699
0.0050246497
0.0049711922
0.0046108245
0.0040048396
0.0032515566
0.0024776056
0.0018476302
0.0015070831
0.0014213478
0.001491467
0.0016173258
0.0017307671
0.0017975789
0.0018031085
0.0017509904
0.0016580998
0.0015478114
0.0014431924
0.0013622195
0.0013153205
0.0013054547
0.0013295767
0.0013811284
0.001451402
0.0015331505
0.0016170042
0.0017017406
0.0017738134
0.00017691321
3.3482959e-05
0.00038866943
0.00069455599
0.0010917249
0.0015832404
0.0021618688
0.0027598446
0.0033390696
0.0039231524
0.004447681
0.004954519
0.0051889828
0.0052434803
0.0050417439
0.0045397204
0.0038386307
0.0030440233
0.0023098866
0.0018104855
0.0016178011
0.0016314968
0.0017605797
0.0019008713
0.0019990985
0.0020293156
0.0019875654
0.0018876492
0.0017541134
0.0016142855
0.0014919777
0.0014033908
0.0013561268
0.0013500577
0.0013796867
0.0014366702
0.0015114297
0.0015962837
0.0016821106
0.0017676326
0.0018403311
0.00036220344
0.00018293945
4.2663545e-05
0.00062279456
0.00097311812
0.0014246221
0.0019744822
0.002589411
0.0032099822
0.0038347675
0.0044484712
0.004922178
0.0053576336
0.0054815025
0.0054040818
0.0050411701
0.0044209662
0.0036454737
0.0028466961
0.0022107023
0.0018771246
0.001817748
0.0019220689
0.0020868065
0.0022212028
0.0022845885
0.0022625105
0.0021633526
0.002011206
0.0018368214
0.0016699157
0.0015333253
0.0014404569
0.0013953759
0.0013948035
0.0014307674
0.0014934619
0.0015726064
0.0016602989
0.0017477867
0.001833823
0.001906903
0.0005914212
0.00037123166
0.0002089721
5.7184345e-05
0.00089396812
0.001299925
0.0018102833
0.0024043045
0.003052743
0.003725716
0.0043966545
0.0049841476
0.0053769946
0.0057280824
0.0057287617
0.0055009342
0.0049863383
0.0042639618
0.0034416835
0.0026999727
0.0022161941
0.0020608606
0.0021164763
0.0022902406
0.0024643492
0.0025691443
0.002577131
0.0024883553
0.0023242563
0.0021179409
0.0019046813
0.0017144693
0.0015677518
0.0014740929
0.0014337098
0.0014400893
0.0014830713
0.0015515705
0.0016349036
0.0017251076
0.0018139146
0.0019001779
0.0019734188
0.00085963054
0.00060228385
0.00041480653
0.00025302615
7.6916782e-05
0.0012192322
0.0016837743
0.0022374647
0.0028737208
0.0035851118
0.0043186767
0.0049807376
0.0055090347
0.0058072307
0.0060657219
0.0059271298
0.005537971
0.0048868922
0.0040789879
0.0032640793
0.0026486369
0.0023599487
0.0023635937
0.0025180022
0.0027293409
0.0028833868
0.0029325342
0.0028654052
0.0026982596
0.0024647563
0.0022051688
0.00195689
0.0017483223
0.0015960502
0.0015051527
0.0014717882
0.0014863506
0.0015367843
0.0016110443
0.0016982666
0.0017906076
0.0018803754
0.0019665777
0.0020397555
0.0011871731
0.00087192814
0.00065301792
0.00048851496
0.00031138257
0.00010077082
0.0016043941
0.0021100254
0.0027038403
0.00341254
0.0042050405
0.0049484146
0.0055656676
0.0060260132
0.0062158046
0.0063647383
0.0060682408
0.0055124936
0.0047433365
0.0038944539
0.0031651791
0.0027381459
0.0026562763
0.0027884528
0.0030182963
0.0032278061
0.0033296305
0.0032969835
0.0031378426
0.0028843033
0.0025805255
0.0022712117
0.0019935172
0.0017723216
0.0016192984
0.0015345649
0.0015102607
0.0015339537
0.0015920687
0.0016718858
0.001762621
0.001856686
0.0019470423
0.0020329009
0.0021057927
0.0015772145
0.0012053486
0.0009277725
0.0007377486
0.00058536995
0.00037902353
0.00012752795
0.0020330769
0.0025763014
0.0032386656
0.0040429929
0.0048747579
0.0055895223
0.0061554104
0.0065344248
0.0066005956
0.0066161437
0.0061446444
0.0054325826
0.0045773441
0.0037627785
0.0032020738
0.003001735
0.0031095428
0.0033407899
0.003602774
0.0037692463
0.0037852335
0.0036473247
0.0033834411
0.0030399739
0.0026685568
0.002315526
0.0020153094
0.001787751
0.0016387312
0.0015632883
0.0015497322
0.0015832236
0.0016490215
0.0017340731
0.0018278735
0.0019232228
0.0020137888
0.0020990262
0.0021714136
0.0020116671
0.0016029327
0.0012693126
0.0010196647
0.00084718612
0.00069600994
0.00045073322
0.0001552007
0.0025020429
0.0031080002
0.0038638679
0.0047345878
0.00556732
0.0062496536
0.006752883
0.0070346385
0.0069513331
0.0068071578
0.0061482467
0.005308652
0.0044355557
0.003754189
0.0034256326
0.0034658328
0.0037146749
0.0040115119
0.0042514516
0.0043318144
0.0042306372
0.0039687215
0.0035927828
0.0031603779
0.0027273464
0.0023385932
0.0020237185
0.0017961848
0.00165568
0.0015922579
0.0015907627
0.0016344106
0.0017077046
0.0017975489
0.0018939189
0.0019900936
0.0020804859
0.0021648327
0.0022365153
0.0024867516
0.0020456124
0.0016760062
0.0013703788
0.0011368554
0.00097046261
0.00081029769
0.0005206222
0.00018117582
0.0030329543
0.0037269953
0.0045575162
0.0054622451
0.006292386
0.0069333269
0.0073606735
0.0075185896
0.0072533168
0.0069296524
0.0060885011
0.0051813611
0.0043943482
0.0039331308
0.0038769642
0.0041293326
0.0044672063
0.0047769975
0.0049379034
0.0048911955
0.0046463758
0.0042480516
0.0037584597
0.0032426257
0.00275684
0.0023418884
0.0020206717
0.0017993949
0.0016715053
0.001622356
0.0016338251
0.0016877085
0.0017681291
0.0018622399
0.0019606357
0.0020571616
0.0021470034
0.0022302082
0.0023010026
0.003020843
0.0025289697
0.0021274859
0.0017858642
0.0014960335
0.0012659313
0.0010945048
0.00092050752
0.00058076261
0.00020068622
0.0036468653
0.0044186888
0.0052993813
0.0062355434
0.0070554374
0.0076459232
0.0079712861
0.0079699359
0.0074931477
0.0069747462
0.0059979252
0.0051266695
0.0045320351
0.0043581111
0.0045741744
0.0049760896
0.0053525901
0.005604158
0.0056316025
0.0054220164
0.0050146351
0.0044745571
0.0038755562
0.0032856863
0.0027583447
0.0023276378
0.0020084144
0.0017992611
0.0016875308
0.0016543706
0.0016793181
0.0017432431
0.0018302759
0.001928041
0.0020278821
0.0021242819
0.0022132242
0.0022950588
0.0023647865
0.0036335949
0.0030694152
0.0026196568
0.0022449429
0.0019179427
0.0016298551
0.0013923315
0.0012073659
0.0010111102
0.00061866174
0.00021134147
0.0043359921
0.0051656631
0.0061010547
0.0070642524
0.0078652579
0.0083852302
0.0085726224
0.0083670314
0.0076588522
0.0069632276
0.0059512638
0.005233881
0.0049197977
0.0050679282
0.0055129934
0.0059880911
0.0063327888
0.0064533376
0.0063003734
0.0059007589
0.0053203661
0.0046405867
0.0039416195
0.0032904632
0.0027342936
0.0022986458
0.001989463
0.0017976672
0.0017049738
0.0016889852
0.0017275508
0.0018010874
0.0018940754
0.0019948127
0.0020954991
0.0021913308
0.0022790626
0.0023593002
0.0024277714
0.0043225943
0.0036851135
0.0031674154
0.0027444859
0.0023810399
0.0020523244
0.0017554654
0.0014975705
0.0012853817
0.001064063
0.0006300089
0.00021494775
0.0050858574
0.0059775552
0.006969426
0.0079576069
0.0087222997
0.0091372891
0.0091345451
0.0086933426
0.0077487824
0.0069529895
0.0060421006
0.0055852494
0.0056202066
0.0060801906
0.0066693195
0.0071297029
0.0073569662
0.0072842774
0.0069135983
0.0063069772
0.0055523211
0.0047417324
0.0039567975
0.0032594572
0.0026880655
0.0022581563
0.0019664031
0.0017964111
0.0017249291
0.0017267796
0.0017787418
0.0018612419
0.0019594025
0.0020623849
0.0021633586
0.0022582355
0.0023444353
0.0024228123
0.0024928717
0.0050766134
0.0043778437
0.0037883188
0.0032984738
0.0028835336
0.0025141537
0.0021716395
0.0018434453
0.0015536534
0.0013155657
0.0010744283
0.00062615131
0.00021000392
0.0059040844
0.0068610711
0.0079143882
0.0089206659
0.0096156061
0.0098743438
0.0096296351
0.0089383845
0.0078006971
0.0070511384
0.0063615709
0.0062584671
0.0066777489
0.0073742973
0.0079907166
0.0083461883
0.0083750234
0.0080583713
0.0074443608
0.0066248616
0.0057033516
0.0047768169
0.0039234052
0.0031965406
0.002623689
0.0022096012
0.0019417678
0.0017971554
0.0017483614
0.0017682036
0.0018330021
0.0019236158
0.0020260879
0.0021306308
0.0022314041
0.0023249124
0.00240917
0.0024880534
0.0025615615
0.0059006037
0.0051393035
0.0044867042
0.0039237995
0.0034392299
0.0030145403
0.0026210549
0.002231913
0.0018664977
0.0015538439
0.001299147
0.0010657264
0.00060479804
0.00019945398
0.0067968635
0.0078275907
0.0089460023
0.0099465171
0.010520142
0.010557723
0.010043031
0.0091169868
0.0079075416
0.0073533468
0.0069982359
0.0073249835
0.0080891572
0.0088911882
0.0094181238
0.0095747253
0.0093382609
0.0087406212
0.0078713216
0.0068437012
0.0057705191
0.0047476898
0.0038457162
0.0031065921
0.0025456077
0.0021564365
0.001917968
0.0018013974
0.0017760631
0.0018135555
0.001890318
0.0019880643
0.0020940239
0.0021995184
0.0022995464
0.0023910996
0.0024753721
0.0025566782
0.002631987
0.0068002345
0.0059710336
0.0052560313
0.0046257596
0.0040635567
0.0035680574
0.003100336
0.0026479943
0.0022127372
0.0018288537
0.0015057465
0.0012713954
0.0010247325
0.00057230879
0.00018396579
0.0077761235
0.0088875517
0.010059133
0.011012199
0.011394946
0.011158402
0.010378424
0.009299657
0.008170444
0.0079598541
0.0080432701
0.0088136735
0.0097950465
0.010547866
0.010879543
0.010753808
0.01020078
0.0093026189
0.0081791172
0.0069580475
0.0057547424
0.0046588583
0.0037294854
0.002995198
0.0024584097
0.0021020267
0.0018972355
0.0018104085
0.0018085956
0.0018629458
0.0019506088
0.0020545157
0.0021632067
0.0022689382
0.0023674131
0.0024585665
0.0025449744
0.0026273439
0.0027041394
0.0077880519
0.0068781048
0.0060947547
0.0053985755
0.0047606805
0.0041817002
0.0036242063
0.0030892857
0.0025816852
0.0021320903
0.0017378824
0.0014546847
0.0012074002
0.00096684779
0.00052635635
0.00016494511
0.0088526797
0.010036334
0.011230629
0.01207324
0.012198864
0.011671929
0.010673902
0.0095759334
0.0086930921
0.0089737902
0.0095533212
0.010682878
0.011697592
0.012261912
0.012302332
0.011826396
0.010926519
0.0097236486
0.0083589959
0.0069674577
0.0056605057
0.0045169149
0.0035815504
0.0028683046
0.0023666591
0.0020495539
0.0018815115
0.0018251619
0.0018462859
0.0019164145
0.0020138694
0.0021230024
0.0022334937
0.0023383903
0.0024365098
0.0025296296
0.0026169251
0.0027000402
0.0027779971
0.0088748814
0.007875323
0.0070077349
0.0062380979
0.0055277038
0.0048679415
0.004206546
0.0035684906
0.0029750677
0.002454118
0.0019918685
0.001653833
0.0013602076
0.0011269727
0.00088973367
0.00046877877
0.0001446426
0.010020146
0.011252354
0.012422443
0.013075704
0.012913085
0.012119693
0.011006105
0.010044114
0.0095829142
0.010474399
0.011521552
0.012821444
0.013687296
0.013953765
0.013614543
0.012746549
0.01148815
0.0099906982
0.0084084471
0.0068759989
0.0054951182
0.0043300551
0.003409402
0.0027319496
0.002274748
0.0020018711
0.0018723376
0.0018463216
0.001889374
0.0019740762
0.0020801787
0.0021933349
0.0023042366
0.0024091943
0.0025096115
0.002603385
0.0026912522
0.0027747238
0.0028535334
0.010050798
0.0089736685
0.0080116329
0.0071486788
0.0063573207
0.0056145724
0.0048495767
0.0040966159
0.0034014536
0.0027972558
0.0022615305
0.001869377
0.0015178012
0.0012502035
0.0010266347
0.00079560816
0.0004025706
0.00012451415
0.011256434
0.012496373
0.013572371
0.013984927
0.01354197
0.012563118
0.011461713
0.010814319
0.010940031
0.012485522
0.013845432
0.015091414
0.015661631
0.015539385
0.014759225
0.013478731
0.011867773
0.0100986
0.0083308321
0.0066915473
0.0052681692
0.0041075087
0.0032208397
0.0025920306
0.0021866903
0.0019613109
0.0018708582
0.0018744271
0.0019381795
0.0020360744
0.0021492859
0.0022647009
0.0023766594
0.0024846623
0.0025857804
0.0026799283
0.0027678839
0.0028513551
0.0029307117
0.011287928
0.010157083
0.0091187708
0.0081496984
0.0072535219
0.0064090136
0.0055453315
0.0046753196
0.0038730441
0.0031695364
0.0025482038
0.0020990388
0.0016873313
0.0013694925
0.0011207921
0.00091122228
0.00068691776
0.00033333451
0.00010568152
0.01251929
0.013722079
0.014639683
0.014798492
0.014135473
0.013080078
0.012142313
0.012002164
0.012805249
0.014928272
0.016364372
0.017368295
0.017538039
0.016945578
0.015695016
0.013999521
0.012056531
0.010049392
0.0081342753
0.0064250614
0.0049908311
0.0038591073
0.0030236271
0.0024540312
0.0021058828
0.001929704
0.0018780878
0.0019100803
0.0019929363
0.0021020726
0.0022201992
0.0023383738
0.0024547011
0.0025636168
0.0026652182
0.002759151
0.0028467724
0.0029298729
0.0030094932
0.012543675
0.011387312
0.010304521
0.0092543082
0.008236389
0.0072606111
0.0062782617
0.0052984708
0.0043881151
0.0035806471
0.0028618414
0.0023443352
0.0018673266
0.0014954459
0.0012039556
0.00097899112
0.00078357788
0.00057177443
0.000266091
8.8431316e-05
0.013766116
0.01488741
0.015611219
0.015549569
0.014759776
0.013737557
0.013176689
0.013669653
0.015136881
0.017636733
0.018925034
0.019547086
0.019233203
0.01811816
0.016389518
0.014294987
0.012054259
0.0098509818
0.0078310197
0.0060897527
0.0046752494
0.0035948149
0.0028250483
0.0023227003
0.0020351178
0.0019087333
0.0018950816
0.001953668
0.0020531935
0.0021709011
0.0022944077
0.0024190043
0.0025367227
0.0026464177
0.0027477814
0.0028410073
0.0029278383
0.003010215
0.0030898299
0.013783197
0.012632229
0.011522688
0.010426647
0.009323525
0.0081936831
0.0070560754
0.0059479074
0.0049333063
0.0040264958
0.0032058737
0.0026140371
0.0020608131
0.001629231
0.0012883148
0.0010298067
0.00082939593
0.00065227943
0.00046073581
0.00020482247
7.3094741e-05
0.01495546
0.015958558
0.016507826
0.016300988
0.015462601
0.01466446
0.014641966
0.015797972
0.017807678
0.02043211
0.021403032
0.02154193
0.020678052
0.019021958
0.016822103
0.014362286
0.011868141
0.0095166442
0.0074363263
0.0057003465
0.0043339353
0.003324143
0.00263158
0.0022021373
0.0019770182
0.0019000736
0.0019224106
0.0020046078
0.00211762
0.0022445047
0.0023773748
0.0025042011
0.0026232986
0.0027328906
0.002833424
0.0029254002
0.0030109984
0.0030923014
0.0031716697
0.014964783
0.0138563
0.012748074
0.011614798
0.010466089
0.0092199471
0.007901668
0.0066339086
0.0054965921
0.0044960083
0.0035785795
0.0029105816
0.002275825
0.001774114
0.0013798162
0.0010769625
0.00085333211
0.00068024016
0.00052726458
0.00035901265
0.00015246918
5.9560917e-05
0.016050411
0.016947492
0.017388581
0.017093211
0.016350431
0.015965903
0.016530456
0.018294298
0.020641878
0.023169474
0.023696732
0.023287711
0.021824081
0.019630592
0.01698703
0.014207226
0.011512096
0.0090636711
0.0069677229
0.0052722925
0.0039790422
0.0030556988
0.0024489916
0.0020962578
0.0019341079
0.0019045852
0.0019593029
0.0020614505
0.0021889059
0.0023292524
0.0024656408
0.0025948312
0.0027142099
0.0028229859
0.0029220444
0.0030122277
0.0030961493
0.0031760485
0.0032549506
0.016049063
0.015014215
0.013947601
0.012799527
0.011606862
0.010280854
0.0088221557
0.0073778965
0.0060864536
0.0049753276
0.0039647311
0.0032304813
0.0025124707
0.0019379699
0.0014804846
0.0011307252
0.00087104702
0.00068447138
0.00054258027
0.00041384121
0.0002713349
0.00011081106
4.7636089e-05
0.017060294
0.017910208
0.018292286
0.018009767
0.017543071
0.017631591
0.018759349
0.02102223
0.023479983
0.025734793
0.025738476
0.02472371
0.02264463
0.01992905
0.016887565
0.013843703
0.011005286
0.0085124844
0.0064439165
0.0048207771
0.0036217687
0.0027973461
0.0022828719
0.0020087073
0.0019076309
0.0019213678
0.0020042916
0.002127999
0.0022744282
0.0024202266
0.0025604477
0.0026906096
0.0028094137
0.0029165931
0.0030135227
0.0031013689
0.0031831773
0.0032613575
0.0033396252
0.017046655
0.016067561
0.015069302
0.013952926
0.012729179
0.011319449
0.0097533682
0.0081742792
0.0067198882
0.0054702433
0.0043493733
0.0035583525
0.0027660781
0.0021197559
0.0015971752
0.0011926115
0.00089437649
0.00068048727
0.0005328985
0.00042167184
0.00031715955
0.00020244162
7.94747e-05
3.6784169e-05
0.018039838
0.018893555
0.019292869
0.01916796
0.019047404
0.019588498
0.021231884
0.02384579
0.026196824
0.028052387
0.027475987
0.025807974
0.023129324
0.019920172
0.016537055
0.013292447
0.010371015
0.0078853837
0.0058836389
0.0043601055
0.0032725624
0.0025567938
0.002138364
0.0019412462
0.0018965617
0.0019490677
0.0020627573
0.002212737
0.0023673907
0.0025191469
0.0026614178
0.0027915113
0.0029087894
0.0030135833
0.0031077219
0.0031926822
0.0032719515
0.0033481469
0.0034256225
0.018007842
0.017031173
0.016085318
0.015026295
0.013803572
0.012323347
0.010643739
0.0089682417
0.0073883671
0.0059967876
0.0047418019
0.003882136
0.0030237341
0.0023151542
0.0017294364
0.0012684021
0.00092531364
0.00068163878
0.00051428462
0.00040527683
0.00032222972
0.00024147086
0.00015139731
5.6673409e-05
2.7538466e-05
0.01904511
0.019962971
0.020494169
0.020581736
0.020780699
0.021742994
0.023852576
0.026628336
0.028706486
0.030072433
0.028865128
0.026516476
0.023268477
0.019611599
0.015957103
0.012579279
0.0096353441
0.0072050051
0.0053047355
0.0039038828
0.0029417864
0.0023410794
0.0020179394
0.0018927602
0.001899914
0.0019949207
0.0021443936
0.0023065168
0.002470101
0.0026255073
0.0027685543
0.0028974047
0.0030122018
0.0031138055
0.0032044729
0.0032860086
0.0033623673
0.0034363101
0.0035128705
0.019001444
0.017954897
0.017009746
0.015994898
0.014791838
0.013269743
0.011487834
0.0097073837
0.0080380416
0.0065433476
0.0051521618
0.0042062534
0.0032719441
0.0025105092
0.0018730234
0.001357749
0.00096875439
0.00069053292
0.00050108729
0.00038066524
0.0003054045
0.00024715026
0.00018561047
0.00011356687
4.0686741e-05
1.9462309e-05
0.020145787
0.021215001
0.021910445
0.02216481
0.022629237
0.024021303
0.02651046
0.029270971
0.030955264
0.031766166
0.029866703
0.026834937
0.023052928
0.019024945
0.015174737
0.011733704
0.0088251832
0.0064933341
0.0047246194
0.0034657411
0.0026388118
0.0021536524
0.0019204332
0.0018629226
0.0019271779
0.0020701235
0.0022372194
0.002412366
0.0025818778
0.0027393497
0.002881711
0.0030081501
0.0031194867
0.003217069
0.0033035906
0.003381219
0.0034542878
0.0035257322
0.0036012907
0.020109866
0.018911455
0.01788594
0.016871693
0.015678857
0.014129323
0.012267655
0.010398968
0.008634531
0.0070602656
0.0055659088
0.0045394493
0.003516601
0.0026950024
0.0020153717
0.0014571286
0.0010241544
0.00071145031
0.00049657162
0.00036129735
0.00028167887
0.00023388073
0.00019315816
0.00014459606
8.5989553e-05
2.9719968e-05
1.2916044e-05
0.021427865
0.022666994
0.023455236
0.02379314
0.024530005
0.026371832
0.02909969
0.03171211
0.032909058
0.033110532
0.03043458
0.026760659
0.022501788
0.018189419
0.01422266
0.010787097
0.0079671208
0.0057721769
0.0041609135
0.0030578936
0.0023683134
0.0019933539
0.0018465678
0.0018637429
0.0019913126
0.0021594295
0.0023451188
0.0025293682
0.0027028082
0.0028605076
0.003000743
0.0031235718
0.0032304359
0.0033231631
0.003404932
0.0034781547
0.0035475586
0.0036162876
0.0036908025
0.021412261
0.019988663
0.018790617
0.017698363
0.016472053
0.014891358
0.012975636
0.011029151
0.0091824799
0.0075304282
0.0059471434
0.0048689333
0.0037630192
0.0028736745
0.002146438
0.0015550882
0.0010884013
0.00074377715
0.00050406056
0.00035074257
0.00026253598
0.00021420626
0.0001850368