/*--------------------------------*- C++ -*----------------------------------*\
| =========                 |                                                 |
| \\      /  F ield         | OpenFOAM: The Open Source CFD Toolbox           |
|  \\    /   O peration     | Version:  5.0                                   |
|   \\  /    A nd           | Web:      www.OpenFOAM.org                      |
|    \\/     M anipulation  |                                                 |
\*---------------------------------------------------------------------------*/
FoamFile
{
    version     2.0;
    format      ascii;
    class       volVectorField;
    location    "220";
    object      U;
}
// * * * * * * * * * * * * * * * * * * * * * * * * * * * * * * * * * * * * * //

dimensions      [0 1 -1 0 0 0 0];

internalField   nonuniform List<vector> 
9200
(
(1.03906 0.00074769237 -1.8327187e-24)
(1.0392443 0.0023869807 8.476168e-22)
(1.0368078 0.00074695748 0)
(1.0395334 0.0038018578 -4.4877735e-22)
(1.0369641 0.0024076151 7.4117795e-22)
(1.0358179 0.00073204362 0)
(1.0399334 0.0052155187 -4.4965796e-23)
(1.0372353 0.0038415856 9.4728309e-24)
(1.0359588 0.0023725628 0)
(1.0343783 0.00070030989 0)
(1.0403987 0.0065137134 9.3152307e-22)
(1.037598 0.0052847722 7.0000344e-22)
(1.03621 0.0037898576 4.1984924e-22)
(1.0344955 0.0022802676 2.5580028e-23)
(1.0332769 0.0006642963 2.4629554e-25)
(1.0409325 0.0077346172 8.9166246e-22)
(1.0380451 0.0066337062 -2.8511887e-23)
(1.0365414 0.0052204761 1.4017114e-21)
(1.0347183 0.003644099 5.7611074e-22)
(1.0333783 0.0021642013 1.8612405e-23)
(1.0321915 0.00062914325 -1.0745981e-21)
(1.0415176 0.0088440141 9.4591945e-22)
(1.0385884 0.0079399377 1.0056832e-21)
(1.0369427 0.0065739144 -8.4075878e-22)
(1.0349986 0.0050183633 -6.2308323e-23)
(1.0335815 0.0034559698 5.1632845e-22)
(1.0322815 0.0020418372 5.2467242e-22)
(1.0312288 0.00060204281 9.2128691e-23)
(1.0421761 0.0098104769 5.1414667e-22)
(1.039242 0.009197524 8.5131079e-22)
(1.0374204 0.0079110352 1.0110157e-21)
(1.0353238 0.0063257189 6.2972072e-23)
(1.0338295 0.0047462246 -1.3282762e-21)
(1.0324711 0.0032563411 -5.900999e-22)
(1.0313159 0.0019380255 -6.0550115e-22)
(1.0303316 0.00058308717 1.0000982e-21)
(1.0429281 0.010600077 -1.2866764e-21)
(1.0400427 0.010396504 8.5333209e-22)
(1.0379732 0.009251766 6.6645823e-23)
(1.0356803 0.0076240833 4.7476813e-22)
(1.0341054 0.0059641873 1.4002913e-22)
(1.0327007 0.0044528653 -1.9728471e-21)
(1.0315008 0.0030882446 1.7507471e-22)
(1.0304209 0.001860984 -1.0306869e-21)
(1.0294963 0.00056900037 -2.1242891e-21)
(1.0437513 0.011203542 1.0488429e-21)
(1.0410492 0.011579073 -2.7133034e-22)
(1.0386044 0.010628839 -5.6629561e-23)
(1.0360324 0.0089464284 -2.4817229e-22)
(1.0343821 0.0071487766 -2.0293429e-22)
(1.0329542 0.0055682088 2.2543867e-22)
(1.0317301 0.0042066124 6.8984408e-22)
(1.0306031 0.0029676678 1.1590555e-21)
(1.0295891 0.0018085976 6.5747057e-22)
(1.0287084 0.00055593124 1.6966092e-22)
(1.0446093 0.011579724 -5.0861477e-22)
(1.0424277 0.012708032 2.8941126e-22)
(1.0393302 0.012129774 6.2514903e-22)
(1.0363553 0.010347094 -7.9464524e-22)
(1.0345978 0.0083219233 5.3264253e-22)
(1.0331997 0.0066157306 -1.7672801e-21)
(1.0319916 0.0052403954 7.0258004e-23)
(1.030837 0.0040367996 1.7430382e-21)
(1.0297661 0.0028918122 -8.733521e-22)
(1.0288013 0.0017697022 1.9238469e-21)
(1.0279648 0.00054205549 -2.9241593e-22)
(1.0458442 0.011566227 7.3031579e-23)
(1.0439147 0.01381691 -7.0450284e-22)
(1.0399476 0.013894609 -8.5784818e-22)
(1.0365684 0.011919475 0)
(1.0347057 0.0095104116 3.7277519e-23)
(1.0333758 0.0075988156 -3.275486e-22)
(1.0322653 0.0061850141 -3.5113692e-22)
(1.0311118 0.005028841 -8.585581e-22)
(1.0299995 0.0039399713 -2.2001749e-22)
(1.0289679 0.0028404939 -1.107756e-21)
(1.0280522 0.0017311147 -7.5613278e-22)
(1.0272654 0.00052643564 1.7417826e-22)
(1.0475328 0.011114509 3.7194711e-23)
(1.0457112 0.01526913 6.7746916e-23)
(1.0404924 0.016002136 0)
(1.0366019 0.013716209 0)
(1.0345847 0.010747213 -1.6391807e-22)
(1.0334388 0.0085003725 -2.3279329e-22)
(1.0325036 0.0070280679 -4.6327994e-22)
(1.0314251 0.0059326687 1.0090206e-21)
(1.0302779 0.0049264676 1.0436812e-22)
(1.029191 0.0038815437 2.5918965e-24)
(1.0282043 0.002789388 1.2492719e-21)
(1.0273431 0.0016810887 -1.3588982e-21)
(1.0266137 0.00050730328 2.8021839e-21)
(1.0497126 0.010083886 -4.7477489e-22)
(1.0482138 0.016995892 1.4033655e-23)
(1.0411603 0.01845062 -1.9410073e-22)
(1.0364147 0.015787662 6.8330807e-24)
(1.0341613 0.012030919 -1.1810993e-23)
(1.0333089 0.0093129766 -1.6202706e-22)
(1.0326799 0.0077256025 2.7516441e-22)
(1.0317484 0.0067333411 1.6129893e-23)
(1.0306188 0.005841413 1.123067e-21)
(1.0294588 0.0048788375 1.0486608e-21)
(1.0284075 0.0038214607 3.4272947e-22)
(1.0274784 0.0027173378 9.9350746e-22)
(1.0266809 0.0016112593 6.7764401e-22)
(1.0260154 0.00048263077 -7.6996106e-22)
(1.052272 0.0086201953 -2.156856e-22)
(1.0514585 0.019102375 4.2527195e-22)
(1.0419373 0.021465326 -4.2367008e-22)
(1.0358877 0.018265525 8.3788329e-23)
(1.0333206 0.013406356 -7.2786939e-23)
(1.0329117 0.0099655352 2.9847459e-22)
(1.0327428 0.0082265439 2.6005556e-22)
(1.0320801 0.0073750018 -3.5171026e-22)
(1.0310131 0.0066763021 -9.6184764e-23)
(1.0298014 0.0058268467 -1.2341917e-22)
(1.0286479 0.0048283505 -2.0346158e-23)
(1.0276532 0.0037270382 -1.4619997e-22)
(1.0267993 0.0026098106 -1.2810573e-21)
(1.0260738 0.0015182112 6.544347e-22)
(1.0254758 0.00045219369 -5.9264148e-22)
(1.0551416 0.0064407011 2.123167e-21)
(1.0554271 0.02150486 -1.2566162e-21)
(1.0428195 0.025278347 -1.0803933e-22)
(1.0348907 0.021320947 1.3895153e-22)
(1.0318769 0.014932749 -1.9860804e-22)
(1.0320796 0.010398917 -4.2589537e-22)
(1.0327371 0.0084546385 -1.8918334e-23)
(1.032436 0.0077833602 3.1822596e-23)
(1.0314926 0.007377843 -2.1752466e-22)
(1.0302263 0.0067326056 -2.6207904e-22)
(1.0289567 0.0058111186 -2.1957919e-21)
(1.0278504 0.0047275421 4.7777495e-22)
(1.0269444 0.0035771226 3.9899748e-22)
(1.0261778 0.0024615513 1.9723201e-22)
(1.0255285 0.0014045254 3.6117447e-23)
(1.0249976 0.00041814528 6.6040396e-22)
(1.0583517 0.0039416045 0)
(1.0598984 0.02452248 -1.326957e-21)
(1.0436967 0.030143027 9.5241261e-22)
(1.0333046 0.025131543 0)
(1.0296408 0.016651134 0)
(1.0306872 0.010584155 0)
(1.0324754 0.0082076429 1.1022557e-22)
(1.0329984 0.0079102856 4.9883474e-22)
(1.0321632 0.0078855732 3.4400999e-22)
(1.0308036 0.0075652496 6.4887973e-22)
(1.0293463 0.0067991219 9.4724299e-23)
(1.0280922 0.0057261057 4.7956889e-22)
(1.027088 0.0045427318 -2.7123306e-25)
(1.0262967 0.0033637291 -4.5694285e-22)
(1.0256234 0.0022775756 -1.3087512e-22)
(1.0250485 0.0012779397 -3.2163237e-22)
(1.0245797 0.00038359004 0)
(1.0621582 0.00057259956 3.9906167e-21)
(1.0646185 0.027898494 4.1007227e-21)
(1.0442668 0.036221627 -8.194429e-22)
(1.0309146 0.02989244 1.7944382e-21)
(1.0264047 0.01863446 1.3940676e-21)
(1.0285496 0.010433457 0)
(1.0319008 0.0074192446 7.2716415e-22)
(1.0336262 0.0075081273 -1.9808522e-22)
(1.0330699 0.0081107479 4.6751466e-22)
(1.0316377 0.0083002497 3.912738e-22)
(1.0298925 0.0078060442 -3.914855e-22)
(1.0283747 0.0067713313 1.2585059e-22)
(1.0272463 0.0055162142 8.087787e-22)
(1.0263926 0.0042633794 -1.4937961e-21)
(1.0257245 0.0030948585 -4.0414398e-22)
(1.0251407 0.0020710521 -2.1641035e-21)
(1.024633 0.0011487012 -8.6049371e-22)
(1.0242175 0.00035131535 -8.3864076e-22)
(1.0685781 -0.0026849547 -6.6276868e-22)
(1.07088 0.031927797 2.5428877e-21)
(1.0444239 0.043748956 9.5948756e-22)
(1.0273513 0.035739467 1.305958e-21)
(1.0219106 0.020941815 -2.6515473e-22)
(1.0254514 0.0098642676 -3.827339e-22)
(1.030937 0.0059036243 -1.6580091e-21)
(1.0342716 0.0064829437 -7.0215285e-22)
(1.0343702 0.0081572051 -7.5550431e-23)
(1.0326759 0.0089585971 -6.8456018e-22)
(1.0306195 0.008889172 -9.4914692e-23)
(1.0287405 0.007924452 -8.8027881e-22)
(1.027381 0.0065561771 1.5345276e-22)
(1.0264677 0.0051591961 1.1920786e-22)
(1.0257886 0.0039015259 1.7913123e-22)
(1.0252363 0.0027916399 3.2625289e-22)
(1.0247292 0.0018592966 -7.1948552e-22)
(1.0242771 0.0010265811 3.5373486e-23)
(1.0239041 0.00032383608 -8.0175734e-22)
(1.0763799 -0.0084064912 -3.5915619e-21)
(1.0816995 0.035950631 -4.85044e-21)
(1.0457932 0.052690431 9.1991276e-21)
(1.022582 0.042726037 -1.4081437e-21)
(1.0159221 0.023655784 2.2113942e-22)
(1.0211496 0.0087682859 -1.3701197e-22)
(1.0294652 0.0034659024 2.2216602e-22)
(1.0350243 0.0046170725 -6.0248932e-23)
(1.036141 0.00769922 -3.425452e-24)
(1.0341754 0.0096296072 3.8331839e-22)
(1.0315104 0.010129371 -1.1500673e-21)
(1.0291493 0.0092826332 2.9873708e-22)
(1.0274936 0.0077349962 4.7249252e-22)
(1.0264658 0.0061150593 -4.1837087e-23)
(1.0258064 0.004677363 1.2065228e-22)
(1.0252895 0.0034870843 1.0326418e-21)
(1.0248326 0.0024807692 -2.3404445e-22)
(1.0243836 0.0016592789 1.1824139e-21)
(1.0239731 0.00091913181 3.1390641e-22)
(1.0236307 0.00030363991 8.4305617e-22)
(1.08232 -0.014355828 -2.9455498e-22)
(1.0976445 0.040666037 -1.1162184e-20)
(1.0515275 0.063110764 1.5840408e-21)
(1.0178881 0.051073784 1.2296931e-21)
(1.0081519 0.026721901 -1.1974781e-21)
(1.0154188 0.0070457076 -1.2721761e-21)
(1.0273571 -0.00011899971 1.9231948e-21)
(1.0359202 0.0016685505 8.6228341e-22)
(1.0384922 0.0066003606 4.6301532e-22)
(1.0363843 0.010218023 0)
(1.0328246 0.011546394 7.9049264e-22)
(1.0296397 0.010919609 3.2264626e-22)
(1.027526 0.0091388246 -6.5660639e-22)
(1.0263526 0.0071774489 1.030145e-22)
(1.0257089 0.0054792586 -4.4725907e-22)
(1.0252866 0.0041199459 8.0213971e-22)
(1.0248972 0.0030591051 1.4342963e-22)
(1.0245074 0.0021872985 -3.6941216e-22)
(1.0240949 0.0014842829 7.2125995e-22)
(1.0237116 0.00083139721 5.0127016e-23)
(1.0233884 0.00029244168 8.1439536e-22)
(1.0817711 -0.020334126 7.540386e-21)
(1.1065855 0.042344927 -1.5181238e-20)
(1.0627496 0.075239466 -1.1753014e-20)
(1.01573 0.061309273 -3.4872434e-23)
(0.99862494 0.030328729 -4.3159328e-21)
(1.0080245 0.0046029493 1.6143214e-22)
(1.0244609 -0.005072468 0)
(1.0369973 -0.0026200871 4.5391667e-22)
(1.0416011 0.0046548986 2.4653628e-22)
(1.0394899 0.010667069 1.1311851e-21)
(1.0347457 0.01327788 4.4935613e-22)
(1.0303354 0.012944983 6.9281866e-23)
(1.0274863 0.010858682 -7.9201955e-23)
(1.0260567 0.008417429 3.7172814e-22)
(1.0254442 0.0063261729 -2.4652418e-22)
(1.0251496 0.0047304855 2.7212322e-22)
(1.0249097 0.0035456551 -1.0128959e-22)
(1.0246022 0.0026556259 6.380827e-22)
(1.0242488 0.0019302643 1.2348911e-22)
(1.0238526 0.0013423578 1.6261543e-23)
(1.0234836 0.00076594356 4.3303223e-22)
(1.0231685 0.00028972483 0)
(1.0756775 -0.027307507 2.231536e-21)
(1.107058 0.04423063 1.1453715e-20)
(1.0752718 0.090335891 -4.7337075e-22)
(1.0154676 0.074354399 -1.2126163e-21)
(0.98767289 0.035014583 -4.9229184e-21)
(0.99859055 0.0013675565 1.8113934e-21)
(1.0206429 -0.011625259 -9.4114854e-22)
(1.0382031 -0.0085314271 2.2075356e-22)
(1.0456782 0.001645965 -2.262869e-22)
(1.0437531 0.010891625 -8.5638524e-23)
(1.0374828 0.015436329 -6.440425e-24)
(1.0313148 0.015575207 -2.7158107e-22)
(1.0273382 0.013052439 -1.066109e-22)
(1.0255089 0.009924185 1.2851907e-21)
(1.0249186 0.0072623365 8.9242971e-22)
(1.0248255 0.0053135838 6.4402199e-22)
(1.0247915 0.0039610897 -1.341302e-22)
(1.0246599 0.0030096747 -9.8882563e-22)
(1.0243872 0.0023069699 -3.9031913e-23)
(1.0240419 0.0017214111 3.8827593e-22)
(1.023646 0.0012364452 0)
(1.0232812 0.00072256997 -9.838331e-22)
(1.0229635 0.00029197474 -2.3878634e-24)
(1.0623019 -0.033818844 -8.5184302e-21)
(1.1007757 0.045928309 3.9228127e-20)
(1.0735275 0.10587647 -1.5897605e-20)
(1.0121431 0.091845775 -2.3677916e-21)
(0.97494909 0.041890905 -9.8825991e-21)
(0.98656974 -0.0027618798 0)
(1.0157003 -0.01998866 -3.2393961e-22)
(1.0395236 -0.016365657 7.850581e-22)
(1.0508493 -0.0027097431 -1.594866e-21)
(1.0494884 0.010817603 -1.63525e-21)
(1.0412895 0.018162408 9.1683783e-22)
(1.03269 0.019048491 2.7945079e-22)
(1.0270578 0.015932077 -2.027897e-22)
(1.0245989 0.011816956 6.4083773e-22)
(1.024029 0.0083391714 -7.2405882e-22)
(1.0242136 0.005875263 -1.4340272e-21)
(1.0245005 0.0042769951 -2.0382445e-22)
(1.0246097 0.0032527357 -3.4197492e-22)
(1.0245103 0.0025543823 1.0222985e-21)
(1.0242306 0.0020316571 -3.2776817e-22)
(1.0238718 0.0015661474 -8.4205804e-22)
(1.0234655 0.001165684 9.1744319e-22)
(1.023097 0.00069854039 -7.0123793e-22)
(1.0227686 0.00029427522 -1.2720813e-24)
(1.04259 -0.040206104 -2.431326e-22)
(1.0861427 0.050197028 3.6799103e-20)
(1.0555378 0.12125836 -5.6879541e-22)
(1.0025385 0.11110441 2.1757851e-21)
(0.95986894 0.050937375 7.1058285e-21)
(0.97175987 -0.0074565956 -7.9142471e-21)
(1.0093059 -0.030434903 -4.249314e-22)
(1.040921 -0.026392823 3.6653609e-22)
(1.0572878 -0.008692213 1.5511209e-22)
(1.0570018 0.010320482 -1.1783442e-21)
(1.0464558 0.021610989 9.6997374e-22)
(1.0345512 0.023665079 -1.3102584e-22)
(1.0265942 0.019759508 5.8400243e-22)
(1.0232037 0.014253799 -7.8686697e-23)
(1.0226303 0.0096119366 -1.0651638e-21)
(1.023205 0.0064180827 -2.53127e-23)
(1.0239455 0.0044651311 -4.6046558e-23)
(1.0244272 0.0033379783 -4.8332521e-22)
(1.0245605 0.002665346 0)
(1.0244293 0.0022045202 -1.0705982e-22)
(1.0241114 0.0018343034 -3.1976636e-23)
(1.0237266 0.0014647347 6.719107e-23)
(1.0233019 0.0011266622 -5.0306768e-23)
(1.0229239 0.00068981636 9.9968767e-22)
(1.0225814 0.00029395516 5.6541546e-22)
(1.0187507 -0.046058532 4.011803e-21)
(1.0676289 0.054239192 -2.2804856e-20)
(1.0337375 0.13606717 -3.7504887e-21)
(0.9879539 0.12945307 -4.4943814e-22)
(0.94418166 0.060978052 2.0764248e-20)
(0.95481947 -0.012807126 7.1549785e-22)
(1.0012469 -0.043300577 -5.8817077e-22)
(1.0423023 -0.038868466 -7.8369092e-24)
(1.0650568 -0.01661601 -4.2517995e-21)
(1.0666293 0.0093181213 -8.7406806e-23)
(1.0532862 0.025995995 -1.3251669e-21)
(1.0369802 0.029780345 -2.2224026e-23)
(1.0258549 0.024841098 -3.2124192e-22)
(1.0211515 0.017418299 -3.4235818e-22)
(1.0205419 0.011151465 -3.6698329e-22)
(1.0216502 0.0069331353 1.3910396e-21)
(1.0230322 0.0044834257 2.0744528e-21)
(1.0240422 0.0032126609 6.1402223e-22)
(1.0245346 0.0025842943 8.9058792e-22)
(1.0245938 0.0022308322 1.9307853e-23)
(1.0243874 0.0019665899 -1.0660418e-21)
(1.0240125 0.0017081891 -2.8059744e-22)
(1.0235959 0.0014123271 7.6873458e-22)
(1.023147 0.0011139798 -8.8672753e-22)
(1.0227568 0.00069260865 7.5873787e-22)
(1.0224002 0.00029280941 -4.1022168e-23)
(0.99296994 -0.051286194 -1.7584016e-22)
(1.0445753 0.058102934 -2.6665171e-20)
(1.011622 0.15026494 1.9838208e-20)
(0.97161714 0.14517727 -9.1819718e-21)
(0.92943709 0.073089448 -6.1216663e-21)
(0.93655147 -0.01870508 6.8612072e-21)
(0.99154277 -0.058670872 7.3817375e-22)
(1.0432294 -0.05387658 8.3943688e-22)
(1.0738313 -0.02661203 9.7459061e-21)
(1.078362 0.0076048084 3.6637552e-21)
(1.0620409 0.031523262 -2.4872987e-22)
(1.0400583 0.037801761 2.3066771e-21)
(1.024734 0.031523903 -8.5943137e-22)
(1.0182506 0.02152543 -6.3885378e-22)
(1.0175453 0.013032593 -2.7894487e-22)
(1.0193653 0.0074076548 2.9102257e-22)
(1.0216327 0.004266022 -2.8718247e-23)
(1.0233914 0.0028027494 -7.9941795e-24)
(1.0243898 0.0022447753 2.21575e-22)
(1.0247423 0.0020570898 4.7542003e-23)
(1.0246633 0.0019538547 0)
(1.0243595 0.0018299396 -4.0169038e-22)
(1.0239203 0.0016422493 -3.8273414e-23)
(1.0234715 0.0013991984 0)
(1.022997 0.001121408 1.0885682e-21)
(1.0225923 0.00070448603 2.7593008e-24)
(1.0222226 0.00029475828 -5.5649416e-22)
(0.9662269 -0.055849521 -1.5562823e-21)
(1.0193248 0.061705419 -1.8927609e-21)
(0.98587415 0.16372896 1.910848e-20)
(0.95025938 0.1600193 -2.9979675e-21)
(0.91322492 0.084511033 -7.0444387e-22)
(0.91768236 -0.024106741 -7.1840166e-21)
(0.97941569 -0.075671935 -1.3370775e-22)
(1.0429084 -0.071233777 2.6653085e-21)
(1.0828125 -0.038430804 -2.843823e-21)
(1.0914258 0.005296554 -7.8206645e-21)
(1.0723365 0.038547934 3.9964369e-21)
(1.0437014 0.048188548 -3.0368815e-22)
(1.0230551 0.04018322 -3.3026252e-22)
(1.0142401 0.026794288 -4.3639075e-22)
(1.013388 0.015336619 -9.40545e-22)
(1.0161325 0.0078103878 -2.576061e-22)
(1.0195943 0.0037323639 -1.3807224e-21)
(1.0223859 0.0020001083 -1.0515681e-21)
(1.0241019 0.0015562506 -4.3274923e-22)
(1.024861 0.0016152415 -6.5407915e-22)
(1.0249773 0.0017556071 -3.8819359e-22)
(1.0247339 0.0018180419 9.2431601e-23)
(1.0243242 0.001771101 3.4258676e-23)
(1.0238281 0.0016255897 0)
(1.0233508 0.0014140358 0)
(1.0228494 0.0011439763 -7.9171321e-23)
(1.0224274 0.00072403439 9.8497125e-22)
(1.0220471 0.00030155911 1.068625e-21)
(0.9393469 -0.059847338 0)
(0.99320089 0.06518439 -1.3124646e-20)
(0.9590827 0.17610142 -1.8656639e-20)
(0.92593115 0.1736563 -3.0362892e-21)
(0.89323818 0.095511726 0)
(0.89845493 -0.029303292 -2.3290799e-23)
(0.9649039 -0.094253983 -8.541217e-22)
(1.0408798 -0.090747888 7.8591902e-21)
(1.0912863 -0.052138951 -1.5014784e-20)
(1.1050106 0.0027388748 2.4461845e-21)
(1.0828628 0.047616241 -5.1569248e-22)
(1.0470319 0.061516767 -1.5594056e-21)
(1.0204726 0.051248927 -9.4682456e-23)
(1.0087848 0.033458694 -9.6760792e-22)
(1.0077682 0.018133586 -2.4794255e-22)
(1.0117028 0.0081023932 -1.0062194e-21)
(1.016738 0.0027694736 -1.336956e-22)
(1.0209251 0.00067674482 -2.839858e-22)
(1.023632 0.00038864374 -1.4280198e-22)
(1.0249666 0.00081464783 -3.048606e-22)
(1.025342 0.0013136535 -2.5941433e-22)
(1.0251853 0.0016499085 -1.9903617e-22)
(1.0247803 0.0017915827 2.3275373e-23)
(1.0242761 0.0017645472 9.2932835e-22)
(1.0237404 0.0016475073 2.6632419e-22)
(1.0232314 0.0014489256 -8.7009042e-24)
(1.0227017 0.0011778171 -1.0541944e-21)
(1.0222616 0.00074909848 6.5099145e-22)
(1.0218721 0.00031170308 -1.6007891e-21)
(0.91295643 -0.063175438 1.5397854e-21)
(0.96699502 0.068327507 0)
(0.93228348 0.18745693 0)
(0.90073101 0.18590614 0)
(0.87201683 0.10554722 6.4849156e-23)
(0.87956256 -0.034597211 2.8931528e-21)
(0.94885205 -0.11422681 -1.5547146e-21)
(1.0370678 -0.11269498 -4.3014188e-21)
(1.0995184 -0.068547886 -3.2653357e-20)
(1.1204434 -0.00078818833 3.2681663e-20)
(1.0941112 0.05910344 -8.4962847e-21)
(1.048645 0.078237136 1.9599919e-21)
(1.0160262 0.065102577 7.1750325e-22)
(1.0014495 0.041754621 1.6555057e-21)
(1.000329 0.021476094 2.278227e-21)
(1.0058048 0.0082252583 -1.4738162e-22)
(1.0128609 0.001251186 -1.0761152e-21)
(1.0188917 -0.0013341977 2.207722e-22)
(1.0229447 -0.0014098487 6.3052815e-22)
(1.0250741 -0.00047361711 4.4135297e-22)
(1.0258106 0.00055406689 2.4201543e-22)
(1.0257482 0.0012874127 -1.3796609e-22)
(1.0253329 0.0016913234 -3.9602659e-22)
(1.024784 0.0018257288 3.0735056e-22)
(1.0242202 0.0017949141 -6.2773957e-24)
(1.0236525 0.001698451 2.1919898e-22)
(1.0231079 0.0014988426 -8.3168853e-22)
(1.0225527 0.0012179817 4.391003e-24)
(1.0220957 0.00077655603 -2.5231361e-21)
(1.0216973 0.00032262358 -9.6350204e-22)
(0.88485426 -0.066829117 -3.114212e-21)
(0.94149954 0.071642258 -1.1485361e-20)
(0.90618569 0.19779703 0)
(0.87557195 0.19703765 0)
(0.85011644 0.11361793 0)
(0.86116673 -0.037710975 0)
(0.93206684 -0.13458096 0)
(1.0303298 -0.13639265 1.2666669e-21)
(1.1075279 -0.088116771 1.3644367e-20)
(1.1398432 -0.0070238687 -5.1697436e-20)
(1.1112695 0.071832087 5.7687458e-22)
(1.0516231 0.098529209 -8.5733459e-21)
(1.0086983 0.081747062 4.0264723e-21)
(0.99154298 0.051818341 2.8326961e-21)
(0.99066955 0.025376216 -2.859098e-22)
(0.99814097 0.0080922153 6.0564216e-22)
(1.0077496 -0.00097320525 -3.1546929e-22)
(1.016154 -0.0042183599 4.7778557e-22)
(1.0219934 -0.0040340323 -5.0108207e-22)
(1.0252136 -0.0024034118 -1.9767193e-22)
(1.0264458 -0.00063280189 -2.5103261e-23)
(1.0265022 0.00068699403 -3.6756532e-22)
(1.0260284 0.0014603735 -1.9823136e-23)
(1.0253987 0.0018178122 1.4291416e-22)
(1.0247497 0.0019009997 -1.0200387e-22)
(1.0241466 0.0018728499 -7.1287907e-22)
(1.0235487 0.001770587 -2.3702538e-22)
(1.0229778 0.0015558339 3.6367738e-22)
(1.0224033 0.0012594175 1.3231914e-24)
(1.0219304 0.00080380991 1.8205026e-21)
(1.0215231 0.00033270152 6.2645241e-22)
(0.85525323 -0.07025137 4.7672182e-21)
(0.91469735 0.073753116 -1.1280394e-21)
(0.88136227 0.20711933 -1.3422666e-20)
(0.8513355 0.20697196 -2.3373886e-20)
(0.82843144 0.12057206 0)
(0.84252095 -0.043375746 0)
(0.91518291 -0.1546127 -1.6174947e-21)
(1.0200876 -0.16053029 -1.6815218e-20)
(1.1090646 -0.1089861 4.5411692e-20)
(1.1580549 -0.016589181 -6.4166209e-20)
(1.1379729 0.083467845 -1.7546426e-21)
(1.064048 0.12108697 1.4054011e-20)
(1.002043 0.10144251 9.0863517e-22)
(0.97828407 0.063424687 -3.2610273e-22)
(0.97835722 0.029772836 -1.9782025e-21)
(0.98840914 0.0075786999 -5.6523247e-23)
(1.0011838 -0.0040752581 2.5307923e-21)
(1.0125653 -0.0081878538 -7.0378654e-23)
(1.0207304 -0.0077071795 -1.1529276e-21)
(1.0254165 -0.0051733759 -2.5809563e-22)
(1.0273377 -0.0023780001 -6.1332067e-22)
(1.0275456 -0.00022565153 1.7438621e-22)
(1.0269621 0.0010930297 -2.0486173e-22)
(1.0261591 0.0017442242 -2.9531566e-22)
(1.0253836 0.0019810695 -1.0708473e-23)
(1.0246851 0.0020124606 -2.7118292e-22)
(1.024062 0.0019712398 -1.9472898e-22)
(1.0234405 0.0018380373 -2.071112e-22)
(1.0228509 0.0016100338 4.9896215e-22)
(1.0222559 0.001299484 -3.6336043e-23)
(1.0217663 0.00082962331 8.7967543e-22)
(1.0213501 0.00034149586 6.6268972e-23)
(0.82540534 -0.073818266 -3.5785403e-21)
(0.88699143 0.076107311 3.6097598e-21)
(0.85593697 0.21615173 1.6698758e-20)
(0.82860105 0.21583666 4.2316402e-20)
(0.80780601 0.12614144 0)
(0.82366549 -0.048521814 0)
(0.89812208 -0.17387265 0)
(1.0068589 -0.18430062 -4.0898173e-22)
(1.104515 -0.12990314 -6.9339058e-20)
(1.1621375 -0.028265262 -6.8633408e-20)
(1.1647332 0.093714313 -2.20321e-21)
(1.0872902 0.14502943 4.267936e-21)
(1.0041213 0.12430706 -1.3188868e-20)
(0.96306789 0.076655215 2.1243995e-21)
(0.96289184 0.034420985 -7.2591066e-22)
(0.97633765 0.0065090958 0)
(0.99295696 -0.0082345603 7.245958e-22)
(1.007981 -0.013466756 -5.5352948e-22)
(1.0190917 -0.01267758 -2.9594896e-22)
(1.0257241 -0.0090116817 1.4124259e-22)
(1.0285952 -0.0048549441 2.3125846e-22)
(1.0290173 -0.0015376332 2.7608276e-22)
(1.0282531 0.00056175191 2.755156e-22)
(1.0271613 0.0016403708 2.5098598e-22)
(1.0261451 0.0020625709 -1.7189475e-23)
(1.0253045 0.002161111 -4.3869448e-23)
(1.0245981 0.0021376461 1.4119479e-23)
(1.0239693 0.002054751 -1.2780828e-23)
(1.0233374 0.0018971955 5.3376948e-22)
(1.0227271 0.0016620906 3.78062e-22)
(1.022109 0.0013379255 1.6430659e-23)
(1.0216035 0.00085361006 -2.4665859e-21)
(1.021179 0.00034911585 9.2926942e-22)
(0.79537836 -0.076795329 -6.9253703e-21)
(0.85667952 0.074016878 0)
(0.82967265 0.22450353 2.1597804e-20)
(0.80627876 0.22470073 7.7408783e-20)
(0.78863833 0.13051506 -1.3981662e-20)
(0.80497721 -0.053759847 -1.0471463e-21)
(0.88066872 -0.1922674 -3.8296794e-20)
(0.9911238 -0.20710712 2.5274087e-20)
(1.0953119 -0.15025283 1.3963814e-20)
(1.159805 -0.04014595 1.6730854e-19)
(1.1733238 0.10147698 -5.6646148e-20)
(1.1121401 0.17184742 -4.8764676e-20)
(1.0152702 0.15162078 1.9691196e-21)
(0.95095092 0.09306242 -2.5008893e-21)
(0.94395739 0.038959974 -2.1130103e-21)
(0.96170688 0.0046827444 1.5273445e-22)
(0.9828917 -0.013643527 3.3637726e-22)
(1.0022622 -0.020268035 4.4772264e-22)
(1.0170107 -0.019203618 -1.1925957e-22)
(1.0261704 -0.014180361 1.5708067e-23)
(1.0303479 -0.0082673021 2.9180956e-22)
(1.031088 -0.0033702313 2.6889571e-22)
(1.030068 -0.00016207114 -1.4991e-22)
(1.0285284 0.0015271596 2.5278821e-22)
(1.0271155 0.0022104981 2.5881209e-22)
(1.0260144 0.0023673742 7.7123337e-23)
(1.0251829 0.0023313112 9.6460726e-23)
(1.0245005 0.0022382478 1.8231048e-23)
(1.0238758 0.0021216436 1.9956506e-22)
(1.0232322 0.0019582614 -5.9582904e-23)
(1.0225997 0.00171301 2.5560728e-22)
(1.0219631 0.0013733872 2.3292662e-23)
(1.0214425 0.00087563844 9.9812304e-22)
(1.0210102 0.00035578706 -1.7316222e-21)
(0.76665538 -0.079499948 7.0960376e-21)
(0.82372904 0.074055469 -2.0532365e-22)
(0.80287307 0.23197033 -1.0170209e-20)
(0.78451177 0.23424643 -4.4960846e-20)
(0.76995348 0.13586123 9.2696844e-20)
(0.78772982 -0.061158353 4.7088567e-20)
(0.86263822 -0.20915724 6.7123273e-21)
(0.97359949 -0.22841212 0)
(1.0806842 -0.17004182 5.1312332e-20)
(1.1525045 -0.050307344 2.19138e-19)
(1.1694187 0.10771297 3.3679828e-21)
(1.1246934 0.19969341 2.1397191e-20)
(1.0247974 0.1847091 0)
(0.9448277 0.11516368 3.1966455e-21)
(0.92229635 0.044483393 2.926276e-21)
(0.9441797 0.0017085951 -1.5610175e-22)
(0.97088616 -0.020477592 -2.6331791e-21)
(0.99528405 -0.028786475 0)
(1.0144088 -0.027539933 1.5172494e-22)
(1.0267788 -0.020961007 2.4304433e-22)
(1.0327327 -0.012859298 -4.2747396e-24)
(1.0339648 -0.0058695486 2.8019506e-22)
(1.0326158 -0.001127056 0)
(1.03043 0.0014414569 2.038261e-22)
(1.0284029 0.0024842235 1.2278747e-22)
(1.0268763 0.0027074044 -1.0119363e-23)
(1.0258117 0.0026064233 9.1852735e-23)
(1.0250461 0.0024495203 -8.6716148e-23)
(1.0244034 0.0023045686 -3.8348696e-25)
(1.0237881 0.0021781021 6.4041934e-22)
(1.0231321 0.0020097676 -1.165388e-21)
(1.0224781 0.0017563572 -6.6318538e-22)
(1.0218202 0.0014051448 0)
(1.021284 0.00089592555 -3.9061215e-23)
(1.020844 0.00036170639 -5.122704e-22)
(0.74014921 -0.082110247 1.0725126e-20)
(0.79198606 0.074580436 -1.1432174e-20)
(0.7771695 0.23851624 5.0904594e-21)
(0.76373831 0.24261875 -1.4775029e-20)
(0.75197383 0.14401193 3.1905452e-20)
(0.76855332 -0.063476928 1.1118498e-20)
(0.84575322 -0.22599542 5.974605e-20)
(0.9547336 -0.2481955 5.7935937e-21)
(1.062159 -0.18829128 0)
(1.1389432 -0.059287148 -7.7674561e-20)
(1.1561162 0.11638435 7.0976651e-20)
(1.1127778 0.22568902 -8.1230743e-21)
(1.0249369 0.2196769 1.108832e-20)
(0.94130158 0.14359479 -2.1923652e-21)
(0.90081097 0.052018947 1.354074e-21)
(0.92329144 -0.0023529553 1.9172953e-21)
(0.95688489 -0.028934084 -4.346373e-21)
(0.98696333 -0.039196029 -6.5014879e-22)
(1.0112067 -0.037917306 1.140562e-21)
(1.0275541 -0.029647871 -4.5632964e-22)
(1.0358827 -0.018909912 1.7201117e-22)
(1.0378814 -0.0092224313 -1.4912558e-22)
(1.0361538 -0.0023923596 0)
(1.0330812 0.0014184181 6.360979e-23)
(1.0301548 0.0029869233 3.5367101e-23)
(1.0279625 0.0032850099 -1.0549503e-23)
(1.026514 0.0030659303 -1.0485558e-22)
(1.0255798 0.0027491141 -3.3066441e-23)
(1.0249121 0.002508383 -4.6947024e-23)
(1.0243167 0.0023449013 0)
(1.0237097 0.0022221295 -5.0420771e-22)
(1.0230379 0.0020523674 -1.2762234e-21)
(1.0223599 0.001795686 1.8172385e-21)
(1.0216799 0.0014344146 -5.7741595e-22)
(1.0211278 0.00091504186 7.6681299e-23)
(1.0206808 0.00036706722 1.8263417e-21)
(0.71635603 -0.084451476 -1.1402393e-20)
(0.76324813 0.074486423 -2.2901925e-22)
(0.75361513 0.24411264 -7.5470804e-21)
(0.74473021 0.25007962 -1.8719983e-22)
(0.73520242 0.15078611 -1.4867702e-19)
(0.7494875 -0.060605983 -1.0142439e-19)
(0.8252973 -0.23919731 -1.6749728e-21)
(0.93587888 -0.26599379 3.7855758e-20)
(1.0415932 -0.20589584 5.5981567e-21)
(1.1207509 -0.066937897 7.0900458e-20)
(1.1386714 0.12603216 9.2858546e-22)
(1.0914759 0.2508918 -2.4357241e-20)
(1.017387 0.25179516 3.1645741e-21)
(0.9403935 0.17439963 -9.6307649e-21)
(0.88302536 0.06518916 0)
(0.89875036 -0.0084299589 0)
(0.94111941 -0.039265861 4.3067666e-22)
(0.97727673 -0.051580081 7.3351642e-22)
(1.0073404 -0.050526486 2.4843381e-23)
(1.0284929 -0.040516031 1.0871047e-22)
(1.039924 -0.026719918 2.6343756e-22)
(1.0430894 -0.013651919 2.7016041e-22)
(1.0409874 -0.0040443407 -7.4893776e-23)
(1.036752 0.0015030142 0)
(1.0325592 0.0038335512 -5.4817917e-22)
(1.0293791 0.0042482877 -1.055903e-22)
(1.0273209 0.0038338231 -1.2434494e-22)
(1.0260998 0.0032530997 1.0529087e-22)
(1.0253537 0.0027914817 -5.0834969e-24)
(1.0247979 0.0025170303 3.8369201e-23)
(1.0242482 0.0023626816 3.1272773e-22)
(1.0236421 0.0022538804 -4.811907e-22)
(1.0229494 0.0020902637 1.3708624e-23)
(1.0222441 0.0018323008 1.8473816e-21)
(1.0215415 0.001461886 -3.5411759e-24)
(1.0209746 0.00093344072 -5.1406844e-23)
(1.0205203 0.00037210594 6.5647443e-22)
(0.69581888 -0.086677184 -8.2260191e-22)
(0.73750359 0.074618604 1.7987286e-20)
(0.73321803 0.24896932 -1.8510994e-20)
(0.72803608 0.256495 1.3906955e-20)
(0.72023404 0.15734405 -1.483216e-22)
(0.73228793 -0.05947625 4.6331026e-22)
(0.80300694 -0.25007132 3.515352e-20)
(0.91224777 -0.28338125 -1.9441828e-21)
(1.0187111 -0.21944608 0)
(1.0985345 -0.074150583 -1.5722332e-20)
(1.1170498 0.13518212 0)
(1.0702414 0.27379002 0)
(1.0029501 0.27990396 -1.4886889e-20)
(0.93667283 0.20423789 7.1298122e-22)
(0.87036429 0.082058116 9.1573284e-22)
(0.87420133 -0.012401725 2.0212068e-21)
(0.92258602 -0.051824641 8.3113856e-23)
(0.96637344 -0.066010185 -2.5627257e-21)
(1.0027228 -0.065463963 -1.194713e-21)
(1.0295194 -0.053806069 -4.8328597e-22)
(1.0449244 -0.036609287 -1.2793363e-22)
(1.0498384 -0.019430145 -8.9514837e-22)
(1.0474603 -0.006200008 -7.8731759e-23)
(1.0417713 0.0017372395 -4.2955087e-22)
(1.0358542 0.0051717732 -1.1966714e-22)
(1.0312609 0.0057737471 2.8776421e-23)
(1.0282864 0.0050842815 1.7568824e-22)
(1.0265963 0.0040891713 -1.0912685e-22)
(1.0256973 0.0032661997 -1.0691012e-24)
(1.0251638 0.0027427643 -1.2809775e-22)
(1.0247166 0.002483931 -3.07836e-23)
(1.0242016 0.0023617858 -5.5419926e-23)
(1.0235867 0.002277381 4.0864357e-22)
(1.0228672 0.0021237513 1.1312617e-21)
(1.0221323 0.0018661595 -3.6802036e-21)
(1.0214068 0.0014880948 -7.3636293e-22)
(1.0208241 0.00095181815 -6.4530528e-22)
(1.020363 0.00037704964 0)
(0.67917984 -0.088763026 2.6090739e-20)
(0.71534352 0.073395817 -1.2940658e-22)
(0.71615511 0.25264337 -8.3373098e-21)
(0.71396403 0.26217819 1.1845085e-20)
(0.70769497 0.16318901 1.0028844e-19)
(0.71747744 -0.058256603 6.9774866e-20)
(0.78086015 -0.26021495 -3.2592773e-21)
(0.88615204 -0.30028779 -6.7806326e-20)
(0.99120219 -0.23735639 -8.3752475e-21)
(1.0739456 -0.075425736 -1.3513544e-19)
(1.0914645 0.14487955 2.2203882e-21)
(1.0457593 0.29582163 0)
(0.98306801 0.30545922 0)
(0.92579615 0.23096826 1.0347862e-20)
(0.8617269 0.1024408 -8.5736857e-21)
(0.85179234 -0.016574824 -5.7860492e-21)
(0.90173591 -0.066057203 1.5673185e-21)
(0.95410125 -0.08236616 7.1271136e-22)
(0.99720372 -0.082744161 -1.0651364e-21)
(1.0305004 -0.069689739 -1.7569079e-21)
(1.0508816 -0.048900859 -1.4666341e-22)
(1.0583535 -0.026875797 -5.0971334e-22)