/*--------------------------------*- C++ -*----------------------------------*\
| =========                 |                                                 |
| \\      /  F ield         | OpenFOAM: The Open Source CFD Toolbox           |
|  \\    /   O peration     | Version:  5.0                                   |
|   \\  /    A nd           | Web:      www.OpenFOAM.org                      |
|    \\/     M anipulation  |                                                 |
\*---------------------------------------------------------------------------*/
FoamFile
{
    version     2.0;
    format      ascii;
    class       volVectorField;
    location    "220";
    object      U_0;
}
// * * * * * * * * * * * * * * * * * * * * * * * * * * * * * * * * * * * * * //

dimensions      [0 1 -1 0 0 0 0];

internalField   nonuniform List<vector> 
9200
(
(1.0390401 0.00074718216 -1.8066995e-24)
(1.039224 0.0023850232 8.3817341e-22)
(1.0367895 0.0007467711 0)
(1.0395122 0.0037984984 -4.4368939e-22)
(1.0369458 0.0024064174 7.3248293e-22)
(1.0357998 0.0007323586 0)
(1.0399108 0.0052104945 -4.4468218e-23)
(1.0372166 0.0038392515 9.5532427e-24)
(1.035941 0.0023730652 0)
(1.0343591 0.00070107356 0)
(1.0403736 0.0065066499 9.2054037e-22)
(1.0375788 0.005280742 6.9079523e-22)
(1.0361922 0.0037903725 4.1504836e-22)
(1.0344766 0.0022824339 2.5292803e-23)
(1.0332565 0.00066507387 2.4323339e-25)
(1.0409032 0.0077247687 8.8129056e-22)
(1.0380252 0.0066269823 -2.8603919e-23)
(1.0365241 0.0052206142 1.3855749e-21)
(1.0346995 0.0036475043 5.6933674e-22)
(1.0333582 0.0021668136 1.8321764e-23)
(1.0321697 0.00062952911 -1.0629037e-21)
(1.0414815 0.0088300791 9.3221004e-22)
(1.0385674 0.0079286819 9.9431531e-22)
(1.0369263 0.0065729583 -8.3135673e-22)
(1.0349803 0.0050230058 -6.1539431e-23)
(1.0335615 0.0034603052 5.1075323e-22)
(1.0322596 0.0020436544 5.1892192e-22)
(1.0312067 0.00060187424 9.1138165e-23)
(1.0421298 0.0097906275 5.0177972e-22)
(1.0392196 0.0091786571 8.4012194e-22)
(1.0374064 0.0079077173 9.991311e-22)
(1.0353068 0.0063315278 6.1633006e-23)
(1.0338099 0.0047526672 -1.3137711e-21)
(1.032449 0.0032594595 -5.8359789e-22)
(1.0312933 0.0019382368 -5.9906149e-22)
(1.0303098 0.00058248404 9.8933579e-22)
(1.0428666 0.010570465 -1.2648975e-21)
(1.0400194 0.010365065 8.4700985e-22)
(1.0379639 0.0092439007 6.4463537e-23)
(1.0356663 0.0076312331 4.6995367e-22)
(1.0340865 0.0059732041 1.3765408e-22)
(1.0326781 0.0044577397 -1.9519068e-21)
(1.0314779 0.0030886785 1.7361029e-22)
(1.0303985 0.0018593869 -1.0197003e-21)
(1.0294756 0.00056821753 -2.1015285e-21)
(1.0436675 0.011158543 1.0251432e-21)
(1.0410263 0.011527317 -2.7885348e-22)
(1.0386039 0.010612643 -5.5447215e-23)
(1.0360248 0.0089552029 -2.4201326e-22)
(1.034365 0.0071615772 -2.0077821e-22)
(1.0329309 0.0055753335 2.2250624e-22)
(1.0317064 0.0042074403 6.8253513e-22)
(1.0305806 0.0029649502 1.1466662e-21)
(1.029568 0.0018056485 6.5040899e-22)
(1.0286892 0.00055514428 1.6787875e-22)
(1.0445019 0.011514951 -4.9731634e-22)
(1.0424094 0.012623256 2.7502522e-22)
(1.0393469 0.012100053 6.2343982e-22)
(1.0363589 0.010358017 -7.8712723e-22)
(1.0345839 0.0083406584 5.3057386e-22)
(1.0331751 0.006626304 -1.7506135e-21)
(1.0319665 0.0052417038 6.945006e-23)
(1.0308138 0.0040326048 1.7246867e-21)
(1.0297452 0.0028866956 -8.6410272e-22)
(1.028782 0.0017662173 1.9032957e-21)
(1.027947 0.00054134524 -2.8927032e-22)
(1.0457143 0.011463827 7.7230419e-23)
(1.043904 0.013683021 -6.7493446e-22)
(1.0399935 0.01384567 -8.4808708e-22)
(1.036592 0.01193478 0)
(1.0346974 0.0095392355 3.6846231e-23)
(1.0333493 0.0076151991 -3.2409817e-22)
(1.0322376 0.0061870725 -3.4754716e-22)
(1.0310877 0.0050227622 -8.4957241e-22)
(1.0299787 0.0039320007 -2.1753426e-22)
(1.0289492 0.0028344583 -1.0959696e-21)
(1.0280348 0.0017279919 -7.4806571e-22)
(1.0272485 0.00052592551 1.7234659e-22)
(1.0473754 0.010952272 3.6457216e-23)
(1.0457217 0.01507509 5.2647226e-23)
(1.0405761 0.015927827 0)
(1.0366516 0.013741005 0)
(1.0345825 0.010792229 -1.6466859e-22)
(1.0334092 0.0085264761 -2.300358e-22)
(1.0324713 0.0070317999 -4.5829151e-22)
(1.0313989 0.0059239825 9.9852718e-22)
(1.0302569 0.0049150462 1.0327717e-22)
(1.029173 0.0038722674 2.5641404e-24)
(1.0281877 0.0027840449 1.2359909e-21)
(1.027327 0.0016791401 -1.344449e-21)
(1.0265973 0.00050720076 2.7723588e-21)
(1.0494942 0.0098423128 -5.5890289e-22)
(1.0482655 0.016719229 1.6709424e-23)
(1.041301 0.01834521 -2.094266e-22)
(1.0365009 0.0158271 1.6747877e-23)
(1.0341679 0.012102462 -1.5482029e-23)
(1.0332738 0.0093548545 -1.607018e-22)
(1.0326399 0.0077325591 2.7245765e-22)
(1.0317179 0.0067213162 1.5981051e-23)
(1.0305968 0.0058254215 1.1116246e-21)
(1.0294417 0.0048656992 1.0376763e-21)
(1.0283923 0.003813404 3.390595e-22)
(1.0274632 0.0027140871 9.8284455e-22)
(1.0266653 0.0016110763 6.7040362e-22)
(1.0259987 0.00048308549 -7.617944e-22)
(1.0519719 0.0082983111 -1.3641031e-22)
(1.05157 0.018709376 5.3034805e-22)
(1.0421619 0.021321834 -4.1584867e-22)
(1.0360274 0.018324863 8.1639334e-23)
(1.0333424 0.013517884 -7.2070769e-23)
(1.0328653 0.010031014 2.9668334e-22)
(1.0326897 0.0082411552 2.5769872e-22)
(1.0320417 0.0073592073 -3.4818077e-22)
(1.030988 0.0066542393 -9.5411673e-23)
(1.029785 0.0058085653 -1.2214099e-22)
(1.0286345 0.0048169199 -2.0127222e-23)
(1.0276399 0.0037222479 -1.4459175e-22)
(1.0267846 0.0026096154 -1.2673831e-21)
(1.0260577 0.0015200076 6.4747721e-22)
(1.0254581 0.00045316643 -5.8635643e-22)
(1.0547707 0.00599016 2.1595956e-21)
(1.0556182 0.020954168 -1.3142602e-21)
(1.0431621 0.025090655 -7.0538818e-23)
(1.0351068 0.021411696 1.163901e-22)
(1.0319184 0.015101883 -1.9080555e-22)
(1.0320179 0.010503963 -4.2797457e-22)
(1.0326559 0.0084783864 -2.5147831e-23)
(1.0323821 0.0077635699 3.1678244e-23)
(1.0314603 0.0073477442 -2.1520634e-22)
(1.0302097 0.006706961 -2.5962343e-22)
(1.0289463 0.0057949304 -2.171883e-21)
(1.02784 0.0047208354 4.726271e-22)
(1.0269317 0.0035769838 3.9472919e-22)
(1.0261626 0.0024647052 1.9506648e-22)
(1.0255113 0.0014080609 3.5681717e-23)
(1.0249784 0.00041944997 6.5344315e-22)
(1.0579208 0.0033438697 0)
(1.0601986 0.023766892 -1.4408939e-21)
(1.0441985 0.029903212 9.4376066e-22)
(1.0336247 0.025269069 0)
(1.0297081 0.016901824 0)
(1.0306016 0.010747022 0)
(1.0323532 0.0082505831 1.1061043e-22)
(1.0329185 0.0078858295 4.9259945e-22)
(1.0321163 0.0078445719 3.4232583e-22)
(1.0307844 0.0075283337 6.4148507e-22)
(1.0293399 0.0067757378 9.3700932e-23)
(1.0280864 0.0057164447 4.7434786e-22)
(1.0270786 0.0045427923 -2.8644879e-25)
(1.0262832 0.0033686604 -4.5203392e-22)
(1.0256067 0.0022836445 -1.2940367e-22)
(1.0250297 0.0012826115 -3.1821553e-22)
(1.0245588 0.00038501168 0)
(1.0616274 -0.00017138027 4.1519874e-21)
(1.0650461 0.026883103 4.2638767e-21)
(1.0449731 0.035924076 -1.0544073e-21)
(1.0313685 0.030096162 1.732229e-21)
(1.0265065 0.018997377 1.3802592e-21)
(1.0284289 0.010678057 0)
(1.0317237 0.0074910608 7.3499942e-22)
(1.0334967 0.0074712573 -2.0072947e-22)
(1.0330104 0.0080558716 4.6087698e-22)
(1.0316161 0.008243804 3.8839377e-22)
(1.029892 0.0077700213 -3.8694396e-22)
(1.0283767 0.006757024 1.2437792e-22)
(1.0272422 0.0055165057 8.0013536e-22)
(1.0263818 0.00427067 -1.4777693e-21)
(1.025709 0.0031041229 -3.9969967e-22)
(1.025122 0.0020790239 -2.1409525e-21)
(1.0246122 0.0011537582 -8.5130919e-22)
(1.024195 0.00035264257 -8.2993094e-22)
(1.0678968 -0.0035751088 -6.1141236e-22)
(1.0714198 0.030594641 2.6548833e-21)
(1.0453644 0.043394537 9.9485356e-22)
(1.0279662 0.036036701 1.2151408e-21)
(1.022056 0.021456427 -2.6402278e-22)
(1.0252816 0.010221298 -3.944067e-22)
(1.0306814 0.0060178726 -1.6822552e-21)
(1.0340746 0.0064338845 -7.3181009e-22)
(1.0342904 0.0080668175 -7.5910093e-23)
(1.0326545 0.0088692368 -6.7516196e-22)
(1.0306318 0.0088305037 -9.3535524e-23)
(1.0287563 0.0079017148 -8.7047905e-22)
(1.027386 0.006556414 1.5210291e-22)
(1.0264617 0.0051702922 1.1793692e-22)
(1.0257746 0.0039150131 1.7719366e-22)
(1.0252179 0.0028036344 3.2271263e-22)
(1.0247083 0.0018678788 -7.1179402e-22)
(1.0242545 0.0010313221 3.5061983e-23)
(1.0238802 0.00032482653 -7.9354558e-22)
(1.0753289 -0.0096622188 -3.3608729e-21)
(1.0822938 0.034247993 -5.0531374e-21)
(1.0469824 0.052279095 9.9756002e-21)
(1.0233827 0.043146717 -1.3619076e-21)
(1.0161155 0.024364502 2.0305442e-22)
(1.0209129 0.009276493 -1.4488844e-22)
(1.0291008 0.0036396164 2.2687514e-22)
(1.0347341 0.0045527754 -4.6562509e-23)
(1.0360148 0.007555776 -4.9823218e-24)
(1.0341545 0.0094993358 3.8102445e-22)
(1.0315403 0.010037624 -1.1339985e-21)
(1.0291873 0.0092469804 2.9480612e-22)
(1.0275143 0.0077356342 4.6739765e-22)
(1.0264674 0.0061313781 -4.139938e-23)
(1.0257952 0.0046972192 1.1941756e-22)
(1.0252714 0.0035044931 1.0212834e-21)
(1.0248112 0.0024935587 -2.316226e-22)
(1.0243605 0.0016672217 1.1696445e-21)
(1.023949 0.00092299057 3.1056316e-22)
(1.0236059 0.00030404265 8.3454522e-22)
(1.0813152 -0.015701889 -3.0717035e-22)
(1.0982665 0.038548959 -1.1649512e-20)
(1.053006 0.062626361 1.4937628e-21)
(1.0189313 0.051637165 1.0974296e-21)
(1.0084025 0.027671441 -1.2291133e-21)
(1.0150946 0.007751778 -1.2820353e-21)
(1.0268454 0.00013470252 1.9738266e-21)
(1.0355017 0.0015867484 9.4734165e-22)
(1.0382955 0.0063845313 4.411177e-22)
(1.0363607 0.010022249 0)
(1.0328798 0.011409903 7.7857942e-22)
(1.0297079 0.010866553 3.1597504e-22)
(1.0275695 0.0091412706 -6.512322e-22)
(1.0263666 0.0072024504 1.0230894e-22)
(1.0257023 0.005508573 -4.4266272e-22)
(1.0252686 0.0041449598 7.9326567e-22)
(1.0248745 0.0030775599 1.4182161e-22)
(1.024483 0.0021990882 -3.6544673e-22)
(1.0240701 0.0014906167 7.1367927e-22)
(1.0236865 0.0008339634 4.9516867e-23)
(1.0233632 0.00029213254 8.0634013e-22)
(1.0807574 -0.021843705 7.2294548e-21)
(1.106939 0.039557432 -1.5693502e-20)
(1.0646651 0.074606631 -1.1661533e-20)
(1.0171696 0.062009482 3.1097223e-22)
(0.9989837 0.031572091 -4.329784e-21)
(1.007587 0.005560021 1.503882e-22)
(1.0237584 -0.0047142924 0)
(1.0364064 -0.0027217049 4.5888289e-22)
(1.0413046 0.0043430303 2.444548e-22)
(1.0394564 0.010371805 1.1172949e-21)
(1.0348395 0.013076049 4.3921369e-22)
(1.030452 0.012864713 6.5892433e-23)
(1.0275644 0.010863422 -7.7988563e-23)
(1.0260893 0.0084559265 3.6853437e-22)
(1.0254447 0.0063698498 -2.4387666e-22)
(1.0251322 0.0047667562 2.6885833e-22)
(1.0248848 0.0035715681 -1.0013268e-22)
(1.0245754 0.0026722902 6.3079184e-22)
(1.0242222 0.0019396759 1.2186458e-22)
(1.0238265 0.0013465045 1.5998826e-23)
(1.0234578 0.00076702222 4.2865949e-22)
(1.0231433 0.00028888115 0)
(1.0744499 -0.029198597 1.9313482e-21)
(1.1073738 0.040781938 1.1987217e-20)
(1.0778762 0.089348472 -4.6494667e-22)
(1.0175518 0.07515583 -7.7572337e-22)
(0.98827588 0.036627758 -4.9911187e-21)
(0.99801313 0.0026386379 1.8383363e-21)
(1.0197011 -0.011134065 -9.1066042e-22)
(1.0373891 -0.0086535242 3.1401035e-22)
(1.0452447 0.0012084308 -2.0521922e-22)
(1.0436996 0.010452724 -8.7532091e-23)
(1.0376313 0.015138723 -5.5026632e-24)
(1.0315045 0.015455765 -2.5771865e-22)
(1.0274706 0.013060516 -1.0588404e-22)
(1.0255705 0.0099828788 1.2735142e-21)
(1.0249297 0.0073278113 8.8473226e-22)
(1.0248085 0.0053666448 6.3716936e-22)
(1.0247631 0.0039978051 -1.3285132e-22)
(1.0246292 0.0030324234 -9.7698061e-22)
(1.0243576 0.0023195569 -3.8619499e-23)
(1.024014 0.0017275421 3.8402873e-22)
(1.0236193 0.0012382015 0)
(1.0232552 0.00072224073 -9.7407267e-22)
(1.0229387 0.0002910791 -2.326986e-24)
(1.0609285 -0.036091421 -7.3499947e-21)
(1.1017974 0.041755456 4.1357575e-20)
(1.0769067 0.10447331 -1.409489e-20)
(1.0149977 0.092800553 -2.7342219e-21)
(0.97591735 0.043954784 -9.9482085e-21)
(0.98583411 -0.00109695 0)
(1.0144616 -0.019332646 -3.1430305e-22)
(1.0384273 -0.016508582 8.2602203e-22)
(1.05023 -0.0033055365 -1.551538e-21)
(1.0494021 0.010180426 -1.6822372e-21)
(1.0415148 0.017725278 9.1134395e-22)
(1.0329863 0.018872654 2.8679417e-22)
(1.0272711 0.01594625 -2.0851605e-22)
(1.0247034 0.011906331 6.3802854e-22)
(1.0240556 0.008437167 -7.1864282e-22)
(1.0241966 0.0059534446 -1.4205503e-21)
(1.0244661 0.0043296798 -2.0374474e-22)
(1.0245723 0.0032839554 -3.3763018e-22)
(1.0244756 0.0025708229 1.0095767e-21)
(1.0241996 0.0020388945 -3.2441802e-22)
(1.0238436 0.0015685339 -8.3315999e-22)
(1.0234387 0.0011651385 9.0842949e-22)
(1.0230712 0.00069709808 -6.9461238e-22)
(1.0227444 0.00029379286 -1.2241557e-24)
(1.0410294 -0.042770957 -1.8094078e-22)
(1.0876537 0.045396825 3.7792733e-20)
(1.059144 0.11955672 -7.3605191e-22)
(1.0058695 0.11227034 4.640142e-21)
(0.96115151 0.053583377 7.0560022e-21)
(0.97084625 -0.0052615642 -8.116088e-21)
(1.0076974 -0.029580394 -4.1272543e-22)
(1.0394763 -0.026553321 1.4654349e-22)
(1.0564249 -0.0094844526 2.0135852e-22)
(1.0568637 0.0094162991 -1.1794276e-21)
(1.0467877 0.020975238 9.5007502e-22)
(1.0350021 0.023410613 -1.641588e-22)
(1.0269254 0.019784817 5.835083e-22)
(1.0233706 0.014389507 -7.7666745e-23)
(1.0226788 0.009757905 -1.0593486e-21)
(1.0231875 0.0065334253 -2.4750655e-23)
(1.0239012 0.0045412603 -4.6144387e-23)
(1.0243787 0.003381328 -4.7668669e-22)
(1.0245173 0.0026866919 0)
(1.024393 0.0022128348 -1.0568692e-22)
(1.0240805 0.001836115 -3.158488e-23)
(1.0236987 0.0014633792 6.6414663e-23)
(1.0232756 0.0011241409 -5.0044407e-23)
(1.0228987 0.00068761541 9.90268e-22)
(1.0225576 0.00029391972 5.6040908e-22)
(1.017241 -0.048800818 5.2781526e-21)
(1.0693771 0.048816448 -2.2703243e-20)
(1.0372177 0.13431856 -4.4297405e-21)
(0.99101755 0.13080105 -7.3121392e-22)
(0.94562096 0.064371568 1.7412567e-20)
(0.95371955 -0.0099350903 7.9527979e-22)
(0.99920245 -0.042215503 -5.756029e-22)
(1.0404437 -0.039048216 1.2215154e-23)
(1.0638937 -0.017647814 -4.0959521e-21)
(1.066418 0.0080650482 -1.4226436e-22)
(1.0537632 0.025083254 -1.3486313e-21)
(1.0376471 0.029419121 -1.5474709e-23)
(1.0263485 0.024886219 -3.0446486e-22)
(1.021406 0.017623071 -3.4169693e-22)
(1.0206209 0.011367325 -3.6517581e-22)
(1.0216309 0.007102281 1.3846875e-21)
(1.0229724 0.004593634 2.0625408e-21)
(1.0239761 0.0032734049 6.0470988e-22)
(1.0244775 0.0026120275 8.7685196e-22)
(1.0245486 0.0022400389 1.9059809e-23)
(1.0243515 0.0019664982 -1.052264e-21)
(1.0239828 0.0017052285 -2.7782675e-22)
(1.023569 0.0014077867 7.6103744e-22)
(1.0231217 0.0011099885 -8.78517e-22)
(1.0227325 0.00068993028 7.5195329e-22)
(1.022377 0.0002928097 -4.0648811e-23)
(0.99163285 -0.054163389 -2.071352e-22)
(1.0465126 0.052115495 -2.6360481e-20)
(1.0151639 0.14854321 2.3782173e-20)
(0.97444186 0.14664021 -1.0433423e-20)
(0.93127473 0.077214287 -4.415764e-21)
(0.93536203 -0.015071416 7.4784543e-21)
(0.98902923 -0.057326567 7.5714961e-22)
(1.0409143 -0.054100422 1.1197851e-21)
(1.0723381 -0.02794223 9.4280705e-21)
(1.0780762 0.0058926472 3.6784695e-21)
(1.0627212 0.030233699 -2.3251165e-22)
(1.0410209 0.037301809 2.3645118e-21)
(1.0254471 0.031603342 -8.9564495e-22)
(1.0186235 0.021829744 -6.2899978e-22)
(1.017665 0.013347964 -2.7936982e-22)
(1.019342 0.0076529925 2.9088745e-22)
(1.0215493 0.0044249305 -3.1952239e-23)
(1.0232983 0.0028883074 -3.340468e-24)
(1.0243107 0.0022811026 2.1634069e-22)
(1.0246826 0.0020664044 4.7248433e-23)
(1.0246195 0.0019507249 0)
(1.024326 0.0018228271 -3.9644804e-22)
(1.0238926 0.0016353058 -3.7444894e-23)
(1.0234458 0.0013924661 0)
(1.0229728 0.001116484 1.0787242e-21)
(1.022569 0.00070149964 2.5874783e-24)
(1.0222 0.00029440004 -5.5194219e-22)
(0.9650618 -0.058846463 -1.7840585e-21)
(1.0213947 0.055199312 -1.9037348e-21)
(0.9894038 0.16204565 2.2327671e-20)
(0.95306943 0.16159691 -3.0746569e-21)
(0.91543231 0.08913928 -4.7916751e-22)
(0.91652752 -0.019556223 -7.4741677e-21)
(0.97640286 -0.074034875 -1.4532271e-22)
(1.0401291 -0.07153452 2.2366101e-21)
(1.0809828 -0.040128788 -2.8310512e-21)
(1.0911026 0.0029838761 -7.8162677e-21)
(1.0733276 0.036746642 4.1442646e-21)
(1.045066 0.047511836 -2.551225e-22)
(1.0240601 0.04031816 -2.9604753e-22)
(1.0147691 0.027238597 -4.4033354e-22)
(1.0135607 0.015790546 -9.373886e-22)
(1.0161015 0.0081613407 -2.5769228e-22)
(1.0194762 0.0039592468 -1.3829843e-21)
(1.0222529 0.0021206703 -1.0315183e-21)
(1.0239894 0.0016043253 -4.2491219e-22)
(1.0247787 0.0016235676 -6.4665734e-22)
(1.0249209 0.0017467754 -3.8149438e-22)
(1.0246941 0.0018041228 9.082286e-23)
(1.0242949 0.0017593365 3.3784906e-23)
(1.0238025 0.0016155801 0)
(1.0233265 0.0014061176 0)
(1.0228263 0.0011385789 -7.8421769e-23)
(1.0224051 0.00072092045 9.7663507e-22)
(1.0220251 0.00030083248 1.0601869e-21)
(0.93835302 -0.062948745 0)
(0.99535424 0.058230209 -1.3195266e-20)
(0.96252787 0.17446807 -2.1172814e-20)
(0.92864436 0.17537164 -3.1795635e-21)
(0.89549493 0.1005194 0)
(0.89734887 -0.023827746 4.8245421e-23)
(0.96143342 -0.09230964 -1.1584437e-21)
(1.0375971 -0.091108441 6.80374e-21)
(1.0890381 -0.054220672 -1.4352898e-20)
(1.1046228 -0.00029615266 2.40206e-21)
(1.0842949 0.045153013 -5.2756806e-22)
(1.0489361 0.060631973 -1.5633918e-21)
(1.0218571 0.051469255 3.4190218e-23)
(1.0095137 0.034095082 -9.7970495e-22)
(1.0080066 0.018774888 -2.5256108e-22)
(1.0116585 0.0085960869 -1.0100867e-21)
(1.0165704 0.0030888309 -1.3223704e-22)
(1.0207344 0.00084578536 -2.8794895e-22)
(1.0234702 0.000452642 -1.2717374e-22)
(1.02485 0.0008204221 -3.0467318e-22)
(1.0252656 0.0012950728 -2.5362402e-22)
(1.0251363 0.0016255984 -1.9551223e-22)
(1.0247472 0.0017702323 2.2807977e-23)
(1.0242505 0.0017500526 9.1977473e-22)
(1.0237164 0.0016355332 2.6306316e-22)
(1.0232089 0.0014405346 -8.2719075e-24)
(1.0226797 0.001172473 -1.0450281e-21)
(1.0222401 0.00074616408 6.4567002e-22)
(1.0218507 0.00031088218 -1.5886318e-21)
(0.91212309 -0.066366396 1.8615645e-21)
(0.96918188 0.060961208 0)
(0.93560943 0.18585962 0)
(0.90336782 0.18776335 0)
(0.8741342 0.11076944 1.3185967e-22)
(0.878456 -0.02819279 2.9663107e-21)
(0.94504176 -0.11189399 -1.5379863e-21)
(1.0332307 -0.1130559 -4.2089684e-21)
(1.0966811 -0.070943335 -3.125901e-20)
(1.1197332 -0.0045965977 3.3022668e-20)
(1.0959027 0.055846529 -8.5826428e-21)
(1.0511757 0.077144269 1.9760819e-21)
(1.0178751 0.065459846 6.5254274e-22)
(1.0024239 0.042650248 1.6810352e-21)
(1.0006438 0.022365072 2.2714775e-21)
(1.0057387 0.0089068714 -1.5067805e-22)
(1.0126245 0.001693292 -1.0866619e-21)
(1.0186205 -0.001100025 2.1391965e-22)
(1.0227121 -0.001324106 6.3143308e-22)
(1.0249065 -0.00047253652 4.3375275e-22)
(1.0257039 0.00051976978 2.344945e-22)
(1.0256846 0.0012463869 -1.3534513e-22)
(1.0252942 0.0016562377 -3.8890535e-22)
(1.0247585 0.001802426 3.0450049e-22)
(1.0241981 0.001777807 -6.7987577e-24)
(1.0236311 0.0016856179 2.1702433e-22)
(1.0230871 0.0014907726 -8.2413729e-22)
(1.0225316 0.0012132846 5.0160965e-24)
(1.0220748 0.00077414288 -2.5030549e-21)
(1.0216763 0.00032197786 -9.5644475e-22)
(0.88418903 -0.0701008 -3.3766831e-21)
(0.94369835 0.063985399 -1.1564882e-20)
(0.90935632 0.19622794 0)
(0.87812854 0.19903589 0)
(0.85199357 0.11917097 0)
(0.86001013 -0.030264017 0)
(0.92804381 -0.13183568 0)
(1.0260542 -0.13676556 1.2370047e-21)
(1.1038486 -0.090837444 1.2641307e-20)
(1.1384612 -0.011665049 -5.1570931e-20)
(1.1130468 0.0677038 5.7247373e-22)
(1.0546249 0.097245596 -8.6094465e-21)
(1.0110359 0.082317971 4.2442268e-21)
(0.99279171 0.05305877 2.7952144e-21)
(0.99106633 0.026585676 -2.862508e-22)
(0.99803948 0.0090148624 6.0540293e-22)
(1.0074209 -0.00037223346 -3.2031021e-22)
(1.0157737 -0.0038980817 4.8506992e-22)
(1.0216625 -0.0039190277 -4.9103146e-22)
(1.0249733 -0.0024096433 -1.9057733e-22)
(1.0262944 -0.00069099669 -2.3926258e-23)
(1.0264167 0.00061987194 -3.5861467e-22)
(1.0259823 0.0014038208 -1.9385216e-23)
(1.0253727 0.001778486 1.4074828e-22)
(1.0247308 0.0018755342 -9.9602303e-23)
(1.0241281 0.0018540803 -7.0518162e-22)
(1.02353 0.0017590138 -2.3445368e-22)
(1.022958 0.0015491655 3.6046073e-22)
(1.0223827 0.001255798 1.3820685e-24)
(1.0219099 0.00080215263 1.8064968e-21)
(1.0215024 0.0003323584 6.2194063e-22)
(0.85476089 -0.073616608 4.8658321e-21)
(0.9168598 0.065706236 -1.2566616e-21)
(0.88440772 0.20555219 -1.4186916e-20)
(0.85379814 0.20911212 -2.2620593e-20)
(0.83009951 0.12647153 0)
(0.84121992 -0.035239461 0)
(0.91107587 -0.151447 -1.5516911e-21)
(1.0154938 -0.16094011 -1.5745539e-20)
(1.105292 -0.1120585 4.2695527e-20)
(1.1564869 -0.022061248 -6.3605606e-20)
(1.1394692 0.078372245 -1.7457286e-21)
(1.0673493 0.11961866 1.4109777e-20)
(1.0048589 0.10229621 8.605244e-22)
(0.97980359 0.065103182 -3.1675264e-22)
(0.97882851 0.031387955 -1.9680244e-21)
(0.9882513 0.0088019562 -5.9169649e-23)
(1.0007337 -0.0032743854 2.5718761e-21)
(1.0120415 -0.0077562513 -7.2123985e-23)
(1.0202669 -0.0075533828 -1.1723596e-21)
(1.0250744 -0.0051899727 -2.1540345e-22)
(1.0271216 -0.0024708517 -6.0391841e-22)
(1.0274275 -0.00033207798 1.6756323e-22)
(1.026905 0.0010036953 -1.9782253e-22)
(1.026133 0.0016810166 -2.886197e-22)
(1.0253695 0.0019411704 -8.3477874e-24)
(1.024672 0.0019861918 -2.6844986e-22)
(1.0240468 0.0019547232 -1.9256339e-22)
(1.0234228 0.001829538 -2.0567161e-22)
(1.0228315 0.0016052267 4.9490925e-22)
(1.0222357 0.0012971183 -3.6320962e-23)
(1.021746 0.00082882138 8.7334586e-22)
(1.0213295 0.00034147089 6.5806754e-23)
(0.82509354 -0.077243005 -3.7157055e-21)
(0.88913078 0.067726531 2.3495583e-21)
(0.85892457 0.21452883 1.7480689e-20)
(0.83093002 0.21811758 4.137247e-20)
(0.80928477 0.13243238 0)
(0.82221694 -0.039732863 0)
(0.89400739 -0.17030419 0)
(1.002068 -0.18473549 -4.845901e-22)
(1.100569 -0.13336897 -6.6482876e-20)
(1.1607038 -0.03443413 -6.793546e-20)
(1.1659867 0.087517189 -2.2071512e-21)
(1.0910297 0.14319281 4.2432956e-21)
(1.0075137 0.12539378 -1.3511489e-20)
(0.9649563 0.07886688 2.336748e-21)
(0.96340808 0.036524787 -7.5501485e-22)
(0.97609398 0.0080969772 0)
(0.99235087 -0.0071896806 7.3870837e-22)
(1.0072741 -0.012895447 -5.6884245e-22)
(1.018454 -0.012472773 -2.9243282e-22)
(1.0252437 -0.0090418659 1.4324933e-22)
(1.0282882 -0.0049961293 2.0742029e-22)
(1.0288516 -0.0017008592 2.676672e-22)
(1.0281796 0.00042328465 2.6418102e-22)
(1.0271359 0.0015414469 2.4450419e-22)
(1.0261384 0.0019996841 -1.8418548e-23)
(1.0253005 0.0021226118 -4.2581595e-23)
(1.02459 0.0021145145 1.3595941e-23)
(1.0239564 0.0020430385 -1.2711864e-23)
(1.0233206 0.0018909223 5.2970997e-22)
(1.0227083 0.0016590914 3.7457891e-22)
(1.022089 0.0013369617 1.6651729e-23)
(1.0215832 0.00085368517 -2.4494986e-21)
(1.0211584 0.00034938068 9.2326699e-22)
(0.79527054 -0.080288621 -7.2299827e-21)
(0.85870724 0.065238262 0)
(0.83253713 0.22277592 2.193467e-20)
(0.8084368 0.22709949 7.5594299e-20)
(0.78995815 0.13720621 -1.2336491e-20)
(0.80350534 -0.044352397 -1.1266637e-21)
(0.87656585 -0.18835375 -3.7611504e-20)
(0.98627345 -0.20755431 2.4011507e-20)
(1.0910725 -0.15420469 1.389448e-20)
(1.1584392 -0.046965723 1.6504358e-19)
(1.1737171 0.09362721 -5.7542519e-20)
(1.1167481 0.16930555 -4.8684676e-20)
(1.0195032 0.15268984 1.959242e-21)
(0.95360061 0.095838056 -2.2696652e-21)
(0.94453609 0.041647306 -2.1706897e-21)
(0.96133444 0.0066976185 1.7284084e-22)
(0.98208973 -0.012310959 3.4472749e-22)
(1.0013281 -0.019525536 4.4815145e-22)
(1.0161508 -0.018932798 -1.2479181e-22)
(1.0255069 -0.014226797 1.1942033e-23)
(1.0299158 -0.0084734689 2.9095994e-22)
(1.030855 -0.0036131154 2.3425804e-22)
(1.0299705 -0.00037148834 -1.430666e-22)
(1.0285042 0.0013756605 2.4314339e-22)
(1.0271207 0.0021135627 2.5447809e-22)
(1.0260244 0.002310201 7.6749772e-23)
(1.0251865 0.0022993765 9.5855132e-23)
(1.0244955 0.0022224335 1.7230644e-23)
(1.023864 0.0021143646 1.9793407e-22)
(1.0232158 0.0019549781 -5.9220562e-23)
(1.0225808 0.001712446 2.5369173e-22)
(1.0219429 0.0013739573 2.302608e-23)
(1.0214219 0.00087656254 9.9143926e-22)
(1.0209893 0.00035630711 -1.7209334e-21)
(0.76671089 -0.083061418 7.1597188e-21)
(0.82558745 0.065060266 -2.1582375e-22)
(0.80552483 0.23011659 -9.183928e-21)
(0.78649682 0.2366781 -4.3934879e-20)
(0.7710563 0.14309523 8.3030612e-20)
(0.78625795 -0.051101248 5.3874508e-20)
(0.85854984 -0.20488546 6.657141e-21)
(0.96879107 -0.22891808 0)
(1.0767121 -0.17438751 4.971205e-20)
(1.1513026 -0.057911435 2.1765234e-19)
(1.1706054 0.098490485 3.5280742e-21)
(1.1307287 0.1965737 2.1925467e-20)
(1.0301248 0.18569663 0)
(0.94861331 0.11856587 3.188174e-21)
(0.92314926 0.047913262 2.9208357e-21)
(0.94361849 0.0042008113 -1.9728199e-22)
(0.96984448 -0.01881452 -2.7200525e-21)
(0.99407614 -0.027839728 0)
(1.0132742 -0.027184026 1.7863293e-22)
(1.0258791 -0.021024301 2.6591285e-22)
(1.0321322 -0.013149344 -5.9415154e-23)
(1.0336377 -0.0062211511 2.6787617e-22)
(1.0324838 -0.0014364813 0)
(1.0304079 0.0012143981 1.9843327e-22)
(1.0284261 0.0023382185 1.1642768e-22)
(1.0269072 0.0026229589 -9.6516336e-24)
(1.0258335 0.0025618865 9.0840065e-23)
(1.0250543 0.0024285227 -8.6517423e-23)
(1.0243998 0.0022962213 -2.8058498e-25)
(1.0237762 0.0021755083 6.3576803e-22)
(1.0231152 0.0020102485 -1.1564371e-21)
(1.0224586 0.0017581709 -6.5798786e-22)
(1.0217996 0.0014071592 0)
(1.0212631 0.00089761139 -3.8800479e-23)
(1.0208227 0.00036244553 -5.0929131e-22)
(0.74029957 -0.0857207 1.0572499e-20)
(0.79362576 0.065224224 -1.1969567e-20)
(0.77950988 0.23655332 7.5094288e-21)
(0.76549595 0.24510424 -1.4235431e-20)
(0.75300504 0.15150822 3.177639e-20)
(0.76716498 -0.052790179 1.1126067e-20)
(0.84175057 -0.22153691 5.9875123e-20)
(0.94999757 -0.24872358 5.6207341e-21)
(1.0583934 -0.19302244 0)
(1.1375433 -0.067855003 -7.6676573e-20)
(1.1586029 0.10578795 7.0443785e-20)
(1.1190219 0.22178898 -8.3132044e-21)
(1.0308146 0.22071428 1.1781193e-20)
(0.94624065 0.14764988 -2.7803808e-21)
(0.9023067 0.056467806 1.7769407e-21)
(0.92245588 0.00067977692 2.0687388e-21)
(0.95554945 -0.026912324 -4.5974711e-21)
(0.98543359 -0.038011573 -7.5994872e-22)
(1.0097399 -0.03745309 1.1871766e-21)
(1.0263566 -0.029725526 -5.577907e-22)
(1.03506 -0.019303997 2.4243144e-22)
(1.037425 -0.0097180093 -1.6073549e-22)
(1.0359727 -0.0028401503 0)
(1.0330619 0.0010843205 6.1274693e-23)
(1.030205 0.0027703409 3.2988664e-23)
(1.0280255 0.0031603138 -1.3101666e-23)
(1.0265638 0.0030020135 -1.0203445e-22)
(1.0256088 0.0027208772 -3.2083627e-23)
(1.0249222 0.0024989311 -4.7211515e-23)
(1.0243128 0.0023439409 0)
(1.0236969 0.0022246788 -5.0018998e-22)
(1.0230201 0.0020561074 -1.2659554e-21)
(1.0223399 0.0017995878 1.8048336e-21)
(1.0216588 0.0014377126 -5.7401295e-22)
(1.0211065 0.00091737523 7.6110695e-23)
(1.0206591 0.00036798056 1.8159211e-21)
(0.71653533 -0.088089421 -1.1215405e-20)
(0.76460967 0.06493443 -2.5431406e-22)
(0.75559881 0.24206423 -8.8550989e-21)
(0.74624853 0.25261523 -2.2042465e-22)
(0.73617667 0.15846497 -1.4711325e-19)
(0.74826337 -0.049263512 -1.036933e-19)
(0.82142592 -0.2343195 -1.5881089e-21)
(0.93131279 -0.26668971 3.6452825e-20)
(1.0380198 -0.21099674 5.72429e-21)
(1.1194315 -0.07631109 6.9648295e-20)
(1.1417266 0.11433141 8.6052123e-22)
(1.0973258 0.24656672 -2.5614164e-20)
(1.0231479 0.25292558 3.0351155e-21)
(0.94535082 0.17902224 -1.0304758e-20)
(0.88503105 0.070798548 4.177071e-22)
(0.89767484 -0.0046789971 0)
(0.93939726 -0.036844197 4.4989602e-22)
(0.97537861 -0.050127116 8.4763125e-22)
(1.0054822 -0.049928206 -9.1014967e-23)
(1.0269293 -0.040601761 7.6829704e-23)
(1.0388143 -0.0272387 3.0504946e-22)
(1.0424579 -0.014333808 1.8977809e-22)
(1.0407371 -0.0046789753 -7.0212329e-23)
(1.0367363 0.0010198599 0)
(1.0326485 0.0035171084 -5.2698292e-22)
(1.0294897 0.0040661017 -1.1151492e-22)
(1.0274128 0.0037419581 -1.1766279e-22)
(1.0261607 0.0032145958 9.9004297e-23)
(1.0253854 0.0027809536 -4.9201934e-24)
(1.0248072 0.0025190052 3.8508434e-23)
(1.0242425 0.0023691288 3.1078194e-22)
(1.0236276 0.0022613005 -4.7868166e-22)
(1.0229304 0.0020971121 1.3482622e-23)
(1.0222231 0.0018382047 1.8348938e-21)
(1.0215197 0.0014663157 -4.0672839e-24)
(1.0209526 0.00093627474 -5.1152422e-23)
(1.0204981 0.00037314104 6.5290886e-22)
(0.69600232 -0.090323416 -8.3003336e-22)
(0.73856683 0.064983091 1.8529413e-20)
(0.73485213 0.24687777 -2.0851125e-20)
(0.72931727 0.2590461 1.3103692e-20)
(0.72113538 0.16519232 -1.0809464e-22)
(0.7312346 -0.04763733 4.2594509e-22)
(0.79925221 -0.24463658 3.6460903e-20)
(0.90792125 -0.28401088 -1.7979999e-21)
(1.0153854 -0.22496291 0)
(1.0974701 -0.084234993 -1.5390388e-20)
(1.1204697 0.1224308 0)
(1.0760818 0.26916412 0)
(1.0085838 0.28112556 -1.5695313e-20)
(0.94163573 0.20923418 7.1343018e-22)
(0.87340355 0.089008024 6.9898098e-22)
(0.87317726 -0.0076222657 2.0027408e-21)
(0.92042283 -0.049055357 2.1973153e-22)
(0.96408125 -0.064268659 -2.3993485e-21)
(1.0004243 -0.064703213 -1.0725418e-21)
(1.0275254 -0.053887207 -4.3957794e-22)
(1.043456 -0.037268687 -2.1286576e-22)
(1.0489742 -0.020343894 -8.4535343e-22)
(1.0471128 -0.0070817371 -5.2015937e-23)
(1.0417591 0.0010499496 -3.2045407e-22)
(1.0359991 0.0047160423 -1.1075293e-22)
(1.0314407 0.0055109553 2.3857014e-23)
(1.0284402 0.0049532566 1.7095938e-22)
(1.0267047 0.0040367211 -1.0327881e-22)
(1.0257617 0.0032550826 -9.489525e-25)
(1.0251938 0.0027501392 -1.2416535e-22)
(1.0247227 0.002497196 -3.1284137e-23)
(1.024193 0.0023751967 -5.5442543e-23)
(1.02357 0.0022891955 4.0424261e-22)
(1.0228465 0.0021334639 1.1234679e-21)
(1.0221101 0.0018737518 -3.6551826e-21)
(1.0213841 0.0014933809 -7.3132338e-22)
(1.0208015 0.00095497542 -6.4146358e-22)
(1.0203404 0.0003781489 0)
(0.67933837 -0.092401821 2.5714066e-20)
(0.71607812 0.063681287 -1.4015878e-22)
(0.71740892 0.25058502 -9.1044819e-21)
(0.71507963 0.26464316 1.0829612e-20)
(0.70850685 0.17120658 9.8599498e-20)
(0.71658276 -0.045889277 7.034349e-20)
(0.77733506 -0.25428341 -2.9229779e-21)
(0.88212355 -0.3007272 -6.522387e-20)
(0.98801845 -0.24302619 -8.5136942e-21)
(1.0729241 -0.086627063 -1.1140825e-19)
(1.0950995 0.13096921 2.0077564e-21)
(1.0516751 0.29088313 0)
(0.98875027 0.30667935 0)
(0.93075397 0.23628876 1.050411e-20)
(0.86550893 0.110571 -7.8262153e-21)
(0.85113438 -0.010644079 -5.9866193e-21)
(0.89906021 -0.062791421 1.5409043e-21)
(0.9513572 -0.080338606 6.0306967e-22)
(0.99443272 -0.081792175 -8.9448173e-22)
(1.0280102 -0.069744348 -1.7607045e-21)
(1.0489705 -0.049709101 -1.4231639e-22)