/*--------------------------------*- C++ -*----------------------------------*\
| =========                 |                                                 |
| \\      /  F ield         | OpenFOAM: The Open Source CFD Toolbox           |
|  \\    /   O peration     | Version:  5.0                                   |
|   \\  /    A nd           | Web:      www.OpenFOAM.org                      |
|    \\/     M anipulation  |                                                 |
\*---------------------------------------------------------------------------*/
FoamFile
{
    version     2.0;
    format      ascii;
    class       volVectorField;
    location    "220";
    object      UMean;
}
// * * * * * * * * * * * * * * * * * * * * * * * * * * * * * * * * * * * * * //

dimensions      [0 1 -1 0 0 0 0];

internalField   nonuniform List<vector> 
9200
(
(1.0276451 0.00026369914 -2.66152e-24)
(1.0278543 0.000841559 2.9922272e-22)
(1.0269445 0.00024276859 0)
(1.0281751 0.0014155085 -1.654017e-22)
(1.0271052 0.0007829847 2.6146247e-22)
(1.026606 0.00023050005 0)
(1.0285831 0.0019723778 -1.5422641e-23)
(1.0273708 0.0013199261 -1.7933733e-23)
(1.0267579 0.00073000405 0)
(1.0262052 0.00019847813 0)
(1.0290588 0.0026050865 3.7981465e-22)
(1.0276891 0.0018198242 3.5333396e-22)
(1.0269975 0.0012362607 1.5094157e-22)
(1.0263299 0.00062591172 7.9435144e-24)
(1.0258808 0.00017427831 3.4575113e-25)
(1.0295639 0.0032334559 3.5746338e-22)
(1.0280557 0.0023948832 2.0327203e-23)
(1.0272838 0.0016943658 5.3349129e-22)
(1.0265389 0.0010763031 2.387417e-22)
(1.025998 0.00053133318 3.0114498e-23)
(1.025651 0.00014213934 -2.4183803e-22)
(1.0300567 0.0039326135 4.9273887e-22)
(1.0284424 0.0029415455 3.7693821e-22)
(1.0276091 0.0022266067 -3.0995416e-22)
(1.026786 0.001460852 -3.0919401e-23)
(1.0261854 0.00092757452 1.4213123e-22)
(1.0257554 0.00041173722 1.5072155e-22)
(1.0254436 0.00011219205 3.6016285e-23)
(1.0305014 0.0046515657 3.9990971e-22)
(1.0288219 0.0035418725 3.9582146e-22)
(1.0279489 0.0027190439 4.3032122e-22)
(1.0270662 0.0019283518 8.3356246e-23)
(1.0264031 0.0012439336 -4.5795366e-22)
(1.0259229 0.00074371699 -2.010189e-22)
(1.0255417 0.0002944127 -6.7846914e-23)
(1.0253398 7.980511e-05 1.2246209e-22)
(1.0308799 0.0054171241 -6.8256225e-22)
(1.0291803 0.0041336503 2.8748976e-22)
(1.028275 0.0032555368 7.9508959e-23)
(1.0273621 0.0023495283 1.6303213e-22)
(1.026645 0.001648794 1.8468894e-22)
(1.0261178 0.00098071629 -5.6666739e-22)
(1.0256936 0.00056207227 -2.0083182e-22)
(1.0254337 0.00016554544 -8.0025377e-23)
(1.0252598 4.9325155e-05 -1.7287992e-22)
(1.0311392 0.00618824 6.1419355e-22)
(1.0294865 0.0047434594 4.426642e-23)
(1.0285674 0.0037724739 -3.8491935e-23)
(1.0276469 0.0028184124 -2.7495724e-22)
(1.0268996 0.0020014805 -9.190446e-23)
(1.0263311 0.0013151876 3.0992858e-22)
(1.0258688 0.00072066891 1.8176033e-22)
(1.0255744 0.00036288921 2.0435623e-22)
(1.0253515 4.1187609e-05 1.3108513e-22)
(1.0252664 1.8842227e-05 3.0315517e-23)
(1.0312114 0.0069470902 -2.7728145e-22)
(1.0297084 0.0053335466 2.4002825e-22)
(1.0288097 0.0042965802 2.1287901e-22)
(1.0279122 0.0032709809 -3.3889861e-22)
(1.027142 0.002400217 -3.3896678e-23)
(1.0265553 0.0015930318 -3.5856086e-22)
(1.0260559 0.00098422723 1.0312101e-22)
(1.025737 0.00043601349 1.5571732e-22)
(1.0254832 0.0001703206 -3.680544e-23)
(1.0253602 -8.6726914e-05 1.4199649e-22)
(1.025297 -9.1134094e-06 2.7227087e-23)
(1.0312046 0.007705486 2.9064416e-23)
(1.0297743 0.0058941976 -3.928817e-22)
(1.0289836 0.0048009194 -3.9937879e-22)
(1.028147 0.0037321398 0)
(1.0273664 0.002778836 2.3494364e-23)
(1.0267653 0.0019210262 -3.3470411e-22)
(1.0262519 0.0011879681 -5.1545439e-23)
(1.0259053 0.00062208068 -7.5926685e-23)
(1.0256361 0.00016094812 -3.4496392e-22)
(1.025488 -2.8499935e-05 -2.5830786e-23)
(1.0253942 -0.00020707648 2.1842974e-23)
(1.0253955 -3.5478993e-05 1.9513815e-24)
(1.0310762 0.0084487962 2.7968054e-23)
(1.0297385 0.0064472963 4.9518844e-24)
(1.0290431 0.0052834506 0)
(1.0283378 0.0041775366 0)
(1.0275544 0.0031684035 -1.8091764e-23)
(1.0269573 0.0022351201 -4.0058465e-22)
(1.026429 0.001443533 1.7929497e-22)
(1.0260806 0.00074622416 1.8440485e-22)
(1.0257885 0.00027083622 3.8542725e-23)
(1.0256387 -0.00012432715 4.0830661e-24)
(1.0255206 -0.00021605192 -1.6598757e-22)
(1.0255007 -0.00032471299 3.3937353e-22)
(1.0255135 -5.8647835e-05 -4.3320776e-22)
(1.0301484 0.00896022 -3.9461106e-22)
(1.0296885 0.0070448553 1.8118999e-23)
(1.028954 0.0057243319 -1.4415846e-22)
(1.0284291 0.0045960246 3.6300103e-23)
(1.0277005 0.0035502924 2.4154505e-23)
(1.0271176 0.0025672338 -1.4336419e-22)
(1.0265887 0.0016867394 8.884805e-23)
(1.0262324 0.00092569943 2.4269936e-23)
(1.0259452 0.00031544379 3.8321513e-22)
(1.0257827 -9.5778525e-05 3.6762368e-22)
(1.0256724 -0.00039411476 -1.5869939e-23)
(1.0256315 -0.00040042852 -3.0896155e-23)
(1.0256282 -0.00043190084 -4.9199711e-23)
(1.0256804 -7.8984285e-05 1.5520059e-22)
(1.0280149 0.0091016651 -2.4860125e-22)
(1.0293507 0.0076039513 8.0116928e-22)
(1.0287736 0.0061330688 -1.416996e-22)
(1.028363 0.0049808135 1.5982726e-23)
(1.0277742 0.0039258054 -2.6649475e-23)
(1.0272384 0.0028970863 1.8472116e-22)
(1.0267151 0.0019520214 9.6747797e-23)
(1.0263616 0.0010958877 -1.0793147e-22)
(1.0260729 0.00041601019 -1.6307505e-22)
(1.0259289 -0.00013523512 -6.5845522e-23)
(1.0258123 -0.0004445978 9.0920091e-25)
(1.0257924 -0.00066129865 -1.7946914e-22)
(1.0257661 -0.00056916926 2.488567e-22)
(1.0258093 -0.00053116144 -1.8244206e-22)
(1.0258608 -9.5570285e-05 1.6677476e-22)
(1.0247654 0.0089246907 8.6568736e-22)
(1.0280687 0.0079270285 -9.3739126e-22)
(1.0285037 0.0065919292 2.6238362e-22)
(1.0281474 0.0053277568 -2.0439687e-22)
(1.027709 0.0042796091 7.0430616e-23)
(1.0272986 0.0032274758 -2.5834008e-22)
(1.0267984 0.0022206303 -2.2374185e-22)
(1.0264529 0.0012924785 4.8575977e-23)
(1.0261759 0.00051047188 -1.8337711e-23)
(1.0260395 -0.00011787956 -4.8387456e-22)
(1.025952 -0.00056738898 8.5858268e-23)
(1.0259368 -0.00079352774 -4.2233328e-22)
(1.0259405 -0.0009072517 -1.0188835e-22)
(1.0259608 -0.00072665381 2.6891482e-23)
(1.0260053 -0.00061750678 7.2496283e-23)
(1.0260708 -0.00010845611 -2.0896799e-22)
(1.020618 0.0085560161 0)
(1.0258479 0.0080070373 -1.2169201e-21)
(1.0275117 0.0069526572 2.6286587e-22)
(1.0278667 0.0057103628 0)
(1.0274382 0.0045967407 0)
(1.0272445 0.0035450075 0)
(1.0268321 0.0024997928 6.9854496e-23)
(1.0264971 0.0014973432 1.729698e-22)
(1.0262377 0.00063414278 6.756381e-22)
(1.0261185 -0.0001060576 6.1910345e-23)
(1.02605 -0.00063577121 1.7727132e-22)
(1.0260791 -0.0010034453 -1.5854042e-23)
(1.0260951 -0.001117823 8.1952371e-23)
(1.0261573 -0.0011391994 1.159179e-22)
(1.0261728 -0.0008645601 -3.5708158e-23)
(1.0262355 -0.00069182323 1.13422e-22)
(1.0262877 -0.00011720559 0)
(1.0160418 0.0080755944 7.5812277e-22)
(1.0225818 0.007852283 2.228325e-21)
(1.0255393 0.0070920824 -2.1247814e-21)
(1.0271201 0.0061131889 -5.8007927e-22)
(1.0270613 0.00494118 -3.2096296e-22)
(1.0269574 0.0038272591 0)
(1.0267784 0.0027788515 2.8083656e-22)
(1.0264927 0.0017191463 -2.2542332e-22)
(1.0262484 0.00077037537 -4.1197098e-22)
(1.0261495 -6.3761499e-05 9.1853404e-22)
(1.026112 -0.00070889389 -2.5809145e-23)
(1.0261731 -0.0011619673 2.2458094e-22)
(1.0262466 -0.0014126855 -4.1880021e-22)
(1.026332 -0.001427851 3.2073736e-22)
(1.0263962 -0.0013443867 -1.1434597e-22)
(1.026426 -0.00098453691 8.9078459e-22)
(1.0264739 -0.00075135427 3.040168e-22)
(1.0265168 -0.00012171555 3.3172147e-22)
(1.0116396 0.0075713466 -8.2837263e-23)
(1.0183874 0.0074786893 1.1043825e-21)
(1.0225912 0.0071178524 4.4434795e-22)
(1.0254478 0.0063147233 -1.0604083e-21)
(1.0263844 0.0053498682 7.2057732e-23)
(1.0264741 0.0041071471 -3.5085007e-22)
(1.0265004 0.0030319544 -6.3831238e-22)
(1.0264237 0.0019503821 -7.4490164e-22)
(1.0262093 0.00092858689 -3.9240739e-22)
(1.0261239 -3.8127065e-06 -2.4778004e-22)
(1.02612 -0.00075099127 -2.2627933e-22)
(1.0262236 -0.0013272449 1.2526964e-22)
(1.0263437 -0.0016622048 -4.9591096e-22)
(1.0265034 -0.0018090085 1.1382396e-22)
(1.0265976 -0.0017060712 1.3227561e-22)
(1.0266856 -0.0015257645 -1.58269e-22)
(1.0266896 -0.0010817531 3.4297834e-22)
(1.0267282 -0.00079611238 -3.7722136e-23)
(1.0267454 -0.00012185155 3.4379192e-22)
(1.0070921 0.0070595633 -6.4325275e-22)
(1.014118 0.0070306431 -1.2958543e-21)
(1.0187813 0.0069810591 5.3652512e-21)
(1.0228449 0.0063926629 5.2246274e-22)
(1.0249315 0.0056396486 -4.349142e-22)
(1.0257735 0.0044684366 -1.6993086e-22)
(1.0259296 0.0032539908 -9.3422124e-24)
(1.0261709 0.0021712843 -2.2776013e-22)
(1.0261166 0.001102881 -1.4347363e-22)
(1.0260433 8.2519938e-05 -8.3457016e-22)
(1.0260655 -0.00077211982 -7.8425136e-23)
(1.0262111 -0.0014629515 2.1023229e-22)
(1.0263917 -0.001922009 6.384926e-23)
(1.0266147 -0.002152955 -1.0676732e-23)
(1.0267972 -0.0021696465 1.6571273e-22)
(1.0269245 -0.0019569322 -6.2794661e-22)
(1.0269892 -0.0016755417 3.1241663e-22)
(1.0269754 -0.0011563319 -5.7274411e-22)
(1.0269832 -0.00082490193 -1.4115127e-22)
(1.0269724 -0.00011766848 -3.7567499e-22)
(1.0011947 0.0064842454 -6.0458497e-23)
(1.010109 0.0066888669 -1.8753489e-21)
(1.0146867 0.0067287549 -1.3555773e-22)
(1.0193114 0.0063412953 -1.3241546e-21)
(1.0225722 0.005808792 -4.4186465e-23)
(1.0244581 0.0047873464 5.3863342e-22)
(1.025146 0.0035432769 -5.7579602e-22)
(1.0255716 0.0023369104 1.9133207e-22)
(1.0258892 0.0012834201 4.7289564e-22)
(1.0259114 0.00019198048 0)
(1.0259495 -0.00076349996 9.2156415e-23)
(1.0261279 -0.0015751621 7.34779e-22)
(1.0263678 -0.0021553483 5.1151093e-22)
(1.0266701 -0.0025129444 -8.40013e-22)
(1.0269323 -0.0026064896 5.8706159e-23)
(1.0271646 -0.002500817 -4.9173606e-22)
(1.027272 -0.0021691491 1.7630895e-22)
(1.0273244 -0.0017940291 3.097608e-22)
(1.0272639 -0.0012060372 -4.3640667e-22)
(1.0272392 -0.00083763223 -1.8424693e-23)
(1.027191 -0.00010919601 -3.6756519e-22)
(0.99326083 0.0055443302 8.2469715e-22)
(1.0051398 0.0061157102 -1.5122362e-21)
(1.010762 0.0064656145 -2.6619866e-21)
(1.015429 0.0061833094 2.8849503e-21)
(1.0192754 0.0058632525 1.6974515e-21)
(1.0222945 0.0049982477 -2.6767708e-22)
(1.0239053 0.0038578415 0)
(1.0246829 0.002537094 -4.8466729e-22)
(1.0253255 0.0014111436 -3.5241777e-22)
(1.0256883 0.00032238331 -2.313529e-22)
(1.0257765 -0.00072623117 3.0747433e-22)
(1.0259748 -0.0016549124 3.5768097e-22)
(1.026265 -0.0023653163 -1.4183845e-22)
(1.0266427 -0.0028530575 -4.170173e-23)
(1.0270066 -0.0030679912 4.5730025e-22)
(1.0273371 -0.0030308983 -4.3821587e-22)
(1.0275614 -0.0027870736 6.6601136e-23)
(1.0276624 -0.0023432443 -4.9041922e-22)
(1.0276653 -0.0018774224 1.60748e-23)
(1.0275579 -0.0012306094 2.6388266e-25)
(1.0274876 -0.00083415276 -2.3090613e-22)
(1.0273979 -9.6552063e-05 0)
(0.98383869 0.0047005511 8.2151114e-23)
(0.99753406 0.0053552742 9.2232949e-22)
(1.0063838 0.0061561308 -1.3923825e-23)
(1.0116868 0.0059934917 3.232644e-21)
(1.0154955 0.0058162156 1.3406201e-21)
(1.019203 0.0050980206 -8.6365448e-22)
(1.0218886 0.004086895 5.3700618e-22)
(1.0234327 0.0027935165 -1.0772098e-21)
(1.0243485 0.0015143577 -2.1142343e-22)
(1.0251933 0.00042715769 5.6644152e-23)
(1.0255366 -0.00065869097 -3.1054417e-23)
(1.0257547 -0.0016995486 -8.5235083e-22)
(1.026082 -0.0025422614 1.203757e-23)
(1.0265266 -0.0031724502 1.0744e-21)
(1.0269889 -0.0035186375 -9.2709815e-23)
(1.027444 -0.0035966894 -4.3715128e-22)
(1.0277826 -0.0034059803 -9.1000024e-23)
(1.0280137 -0.0030292511 9.1572217e-22)
(1.0280633 -0.002473279 7.5092177e-23)
(1.0280191 -0.0019252129 -3.0470835e-22)
(1.0278462 -0.0012295791 0)
(1.0277257 -0.00081473232 5.2584477e-22)
(1.0275893 -7.9867424e-05 8.8293997e-24)
(0.97302108 0.0038983414 -4.7380475e-22)
(0.98802007 0.0044506295 2.7163876e-21)
(0.99962789 0.0056254785 -3.617486e-21)
(1.0076748 0.0058131383 -1.6958228e-21)
(1.0118437 0.0057425234 3.4582346e-21)
(1.0155086 0.0051106929 0)
(1.0189922 0.0042037812 1.2142344e-22)
(1.021543 0.003002643 -7.6282318e-22)
(1.0230433 0.0016789133 -5.1968912e-22)
(1.024213 0.00045174041 3.4714226e-22)
(1.025106 -0.00058156577 4.1026699e-23)
(1.0254727 -0.0017061746 -4.0307685e-22)
(1.0258197 -0.0026796518 5.9889758e-22)
(1.0263176 -0.0034601937 -2.7548409e-22)
(1.0268731 -0.0039545898 7.1071247e-22)
(1.0274498 -0.0041635988 5.5525878e-22)
(1.0279359 -0.0040738166 -8.7793561e-22)
(1.0282981 -0.0037329206 3.7595709e-22)
(1.0284845 -0.0032185463 -1.3856156e-21)
(1.0284875 -0.0025581014 5.2382429e-22)
(1.0283695 -0.0019363378 7.2701538e-22)
(1.0281268 -0.0012032032 -6.0252395e-22)
(1.0279487 -0.00077992934 3.4320279e-22)
(1.027762 -5.9462063e-05 8.3260182e-24)
(0.96105308 0.0031119171 3.1973104e-22)
(0.97762771 0.0038303909 2.6193105e-21)
(0.99077945 0.0047466819 6.5203278e-22)
(1.0015584 0.0055228806 1.0309225e-20)
(1.0081469 0.005725779 -2.6105779e-21)
(1.011862 0.0050749893 4.0304067e-21)
(1.0153967 0.0042414644 1.093896e-22)
(1.0188294 0.0031138067 2.5359546e-21)
(1.0212535 0.0018490961 -4.6379365e-22)
(1.0228169 0.00051154012 -2.5030442e-22)
(1.0242116 -0.00059320918 2.8055238e-22)
(1.0250671 -0.0016758355 7.6833591e-22)
(1.0254853 -0.0027739885 -7.2789489e-23)
(1.0260154 -0.003706821 -1.0433799e-22)
(1.026651 -0.004364435 -1.9689201e-22)
(1.0273474 -0.0047257505 1.7468615e-22)
(1.0279818 -0.0047575385 -1.7058034e-22)
(1.0285139 -0.0045007771 6.2118309e-22)
(1.0288431 -0.0039991764 0)
(1.0289907 -0.0033529631 9.1085702e-23)
(1.0289116 -0.0025958905 2.9898196e-23)
(1.0287169 -0.0019108295 -5.908517e-23)
(1.0283934 -0.0011521896 1.5636252e-23)
(1.0281536 -0.00073045738 -4.9518023e-22)
(1.027914 -3.5488599e-05 -1.968001e-22)
(0.94833298 0.0023721317 9.6119386e-23)
(0.96598969 0.0031603878 -1.8058709e-21)
(0.98037157 0.0041379104 -1.4781638e-21)
(0.99294856 0.0048156053 -1.4560702e-21)
(1.0028073 0.0055905577 -9.936886e-21)
(1.0083217 0.0051045987 -5.0561424e-22)
(1.0117619 0.0042124552 1.0499584e-22)
(1.0153468 0.0031397846 -2.107043e-22)
(1.0186973 0.0019381154 -1.7803339e-21)
(1.0210517 0.00062237381 2.5341419e-22)
(1.0227572 -0.00063249408 -2.5786167e-22)
(1.0242899 -0.0016894577 -7.4949418e-23)
(1.0250628 -0.0028167599 -4.9681574e-22)
(1.0256238 -0.0039064524 -5.2948945e-23)
(1.0263209 -0.0047355582 -4.2670005e-22)
(1.0271252 -0.0052708138 2.3664809e-22)
(1.0279111 -0.0054498799 9.7223653e-22)
(1.0286172 -0.0053019356 -9.1071687e-22)
(1.0291357 -0.0048605643 -1.4437096e-21)
(1.0294374 -0.0042019669 1.0250191e-23)
(1.0295023 -0.0034294658 1.4614418e-21)
(1.0293402 -0.0025858244 3.7714885e-22)
(1.0290516 -0.0018494404 -6.7917741e-22)
(1.0286427 -0.0010775785 5.4545513e-22)
(1.0283374 -0.00066726746 -3.4249019e-22)
(1.0280432 -8.7264008e-06 1.8482134e-23)
(0.93525126 0.0016850561 -1.1630941e-24)
(0.95339477 0.0025439912 -2.1836613e-21)
(0.96885743 0.0034218871 6.1556786e-21)
(0.98283378 0.0042448822 -8.4062784e-21)
(0.99479073 0.0051269313 9.508076e-21)
(1.0036257 0.005097636 -5.673157e-21)
(1.0083029 0.0042207932 -2.8948273e-21)
(1.0117355 0.0030970084 -2.8330291e-21)
(1.0153492 0.0019451782 3.334398e-21)
(1.0186246 0.00068344351 9.7745252e-22)
(1.0209161 -0.00061089858 -7.4038975e-23)
(1.0228515 -0.0018055092 2.8608839e-22)
(1.0243818 -0.0028436084 4.2156161e-22)
(1.0251486 -0.0040482627 -5.9892118e-22)
(1.0258828 -0.0050601152 2.7539545e-23)
(1.0267797 -0.0057833405 3.2715529e-22)
(1.0277085 -0.0061377336 -7.7620145e-22)
(1.0285971 -0.006128083 9.2313355e-22)
(1.0293143 -0.0057743455 -7.5906972e-22)
(1.0298224 -0.0051494571 1.8782051e-22)
(1.0300461 -0.0043360126 0)
(1.0300285 -0.0034456956 6.4384492e-22)
(1.0297582 -0.0025287512 4.3300843e-23)
(1.029371 -0.0017533287 0)
(1.0288709 -0.00098086162 -6.6651811e-22)
(1.0284981 -0.00059151421 -3.3062149e-23)
(1.0281484 2.0634228e-05 1.2638086e-22)
(0.92202674 0.0010899115 -7.0979716e-23)
(0.94036235 0.001978681 -2.395021e-22)
(0.95646586 0.0028162318 5.9575526e-21)
(0.97168336 0.0035967612 -7.6806021e-22)
(0.98492118 0.0045116064 2.4589569e-21)
(0.99617273 0.0048258019 7.6657643e-21)
(1.0041442 0.0042628743 3.2759409e-22)
(1.0083283 0.0030575389 3.4477526e-21)
(1.011772 0.0018748209 -4.1651425e-22)
(1.0154206 0.00067408314 -2.1906671e-21)
(1.0185837 -0.00056282727 1.3871579e-21)
(1.0208797 -0.0018916696 1.21596e-22)
(1.0230817 -0.0029881538 -1.5654435e-22)
(1.0245036 -0.0041354779 -1.1755057e-23)
(1.0253456 -0.0053262156 -7.9157297e-22)
(1.0263077 -0.0062537528 1.0260438e-22)
(1.0273683 -0.0068043443 -1.5833998e-21)
(1.0284346 -0.0069659495 1.908181e-21)
(1.0293658 -0.0067320375 5.916646e-22)
(1.0300947 -0.0061700312 -4.6021609e-22)
(1.0305363 -0.0053586088 9.3878801e-22)
(1.0306811 -0.0043974926 -1.0455694e-23)
(1.0305467 -0.0034028758 -5.4025296e-23)
(1.0301646 -0.0024253907 0)
(1.0296693 -0.0016244846 0)
(1.0290756 -0.00086377793 5.4626725e-23)
(1.0286341 -0.0005043285 -3.2618103e-22)
(1.0282287 5.1975901e-05 -1.7736316e-22)
(0.90892148 0.00055928532 0)
(0.92713879 0.0014490124 -1.4777309e-21)
(0.94368806 0.002234878 -6.1136703e-21)
(0.95953297 0.0031334972 -5.2324975e-21)
(0.97394391 0.0039858052 -1.0325615e-20)
(0.98668085 0.0041825742 -1.200152e-21)
(0.99739311 0.0040705076 4.7041727e-21)
(1.0045844 0.0030959561 7.1890931e-21)
(1.0084313 0.0018061878 -5.6251324e-21)
(1.011858 0.00058700923 8.3884378e-22)
(1.0155028 -0.00057296899 -1.7691055e-22)
(1.0185387 -0.0018680764 -3.3576828e-22)
(1.0210185 -0.0031851998 6.4414838e-22)
(1.023373 -0.0042803423 -8.142962e-23)
(1.0246829 -0.0055233596 9.3517752e-23)
(1.0257141 -0.0066694295 -8.7740108e-22)
(1.0268846 -0.0074380524 1.9872731e-22)
(1.0281209 -0.007797587 -8.8101371e-22)
(1.0292672 -0.0077208077 1.9494022e-21)
(1.0302386 -0.0072553793 -8.9447519e-22)
(1.0309192 -0.0064759147 8.0114827e-22)
(1.0312902 -0.0054828964 5.3062201e-22)
(1.0313139 -0.0043871753 -1.366597e-23)
(1.0310603 -0.0033000218 -1.7706578e-21)
(1.0305505 -0.0022781439 -4.3275207e-22)
(1.0299435 -0.0014650379 7.4010687e-23)
(1.0292543 -0.00072819973 5.2206071e-22)
(1.0287442 -0.00040727455 -1.5944839e-22)
(1.0282839 8.4622874e-05 1.2567885e-22)
(0.89622198 7.3393445e-05 8.948211e-23)
(0.91391534 0.00080495801 0)
(0.93065053 0.0015725291 0)
(0.94684951 0.0025295883 0)
(0.9619899 0.0035706715 3.0391017e-21)
(0.97593386 0.003760625 -9.6454768e-21)
(0.98838128 0.0033955715 2.7279808e-22)
(0.99868536 0.0029109357 8.3535964e-23)
(1.0050196 0.0018031677 -1.0305074e-20)
(1.0085588 0.00052019701 7.8529676e-21)
(1.0119364 -0.00063921192 -2.3603968e-21)
(1.0155225 -0.0018699886 5.8450186e-22)
(1.0185037 -0.0032614681 -5.7147437e-22)
(1.0213507 -0.004564614 2.1665397e-22)
(1.0236831 -0.0057022228 9.0148921e-22)
(1.0250009 -0.0070175019 1.9194242e-22)
(1.0262573 -0.0080248217 -1.0540953e-21)
(1.0276484 -0.0086101834 -6.6928624e-22)
(1.0290069 -0.0087219824 8.3959588e-22)
(1.0302275 -0.0083938017 -1.2792027e-22)
(1.0311757 -0.0076797528 -9.5038536e-22)
(1.0317997 -0.0066852875 -3.9893562e-23)
(1.0320514 -0.0055212475 1.3745672e-21)
(1.0319502 -0.0043017963 -9.0581182e-22)
(1.0315535 -0.0031411459 -1.0664153e-23)
(1.0309131 -0.0020893787 -2.892715e-22)
(1.0301905 -0.0012777465 6.1996298e-22)
(1.0294057 -0.00057625595 1.6068673e-22)
(1.0288278 -0.00030150813 4.7621342e-22)
(1.0283148 0.00011826248 -4.4507227e-25)
(0.88312105 -0.00042216353 -2.6937471e-22)
(0.90093755 0.00022652 -1.9842197e-21)
(0.91747787 0.00090698506 0)
(0.93383004 0.0019853993 0)
(0.94943419 0.0029962961 0)
(0.96423099 0.0033539282 0)
(0.97791951 0.0029209518 0)
(0.9902366 0.0022804643 -3.8012145e-24)
(0.99998936 0.0016592886 5.3050034e-21)
(1.0053989 0.00048117656 -1.1393545e-20)
(1.0086137 -0.00065321424 8.9528989e-23)
(1.0119162 -0.0018803973 -2.3225676e-21)
(1.0154698 -0.0032685559 2.9888963e-21)
(1.0186119 -0.0048170587 -6.247626e-22)
(1.0218928 -0.0060325957 -3.5394067e-23)
(1.0240607 -0.0073036616 4.844801e-22)
(1.0254928 -0.0085529266 -8.7761811e-22)
(1.0270134 -0.0093882548 5.5570093e-22)
(1.0285747 -0.0097222926 5.385693e-22)
(1.0300471 -0.0095662196 3.808079e-22)
(1.0312766 -0.0089602966 1.2631977e-22)
(1.0321881 -0.0079965433 5.2532594e-22)
(1.0327008 -0.0067939427 1.8335195e-24)
(1.0328262 -0.0054693153 -5.5298432e-22)
(1.0325683 -0.0041466587 2.3650876e-22)
(1.0320257 -0.0029269028 1.5413482e-21)
(1.031247 -0.0018625223 3.6750823e-22)
(1.0304079 -0.0010653993 -2.7454474e-22)
(1.0295286 -0.00041010115 1.8732918e-23)
(1.028885 -0.0001883832 -2.175718e-22)
(1.028322 0.0001527952 2.271913e-23)
(0.86942863 -0.0010364051 -4.1392412e-22)
(0.88746354 -0.00039078775 -6.11017e-22)
(0.90440683 0.00028923633 -6.888885e-21)
(0.92063767 0.0014217558 -1.1784731e-20)
(0.93654298 0.0025097538 0)
(0.95179757 0.0027871593 0)
(0.96650831 0.0024220527 -5.3601229e-23)
(0.98014338 0.0016749204 -1.1102688e-20)
(0.99225117 0.0011188481 1.4450549e-20)
(1.0010947 0.00040366138 -1.3859426e-20)
(1.0056048 -0.00068456035 -2.08767e-22)
(1.0084696 -0.0018132671 4.9690685e-21)
(1.0117892 -0.0032473336 -6.8710402e-22)
(1.0154384 -0.0049081706 2.1293147e-22)
(1.0190496 -0.006467481 3.4229195e-22)
(1.0225292 -0.0076593191 1.0930773e-23)
(1.0245566 -0.00901076 1.6787071e-21)
(1.0262177 -0.010119529 -1.0929789e-22)
(1.0279645 -0.010704749 -1.6581876e-21)
(1.0296845 -0.010758951 2.867123e-21)
(1.0312042 -0.010298559 -7.3909088e-22)
(1.0324236 -0.0094091526 -8.4542051e-22)
(1.0332384 -0.0081975725 2.1392464e-21)
(1.0336276 -0.0067962404 8.0405785e-22)
(1.0335881 -0.0053319634 -3.5497985e-22)
(1.0331702 -0.0039207451 9.4186136e-22)
(1.0324672 -0.0026625335 4.567615e-22)
(1.0315489 -0.0016004891 1.5977994e-22)
(1.0305938 -0.0008309636 -2.9740669e-22)
(1.0296228 -0.00023194938 -7.0082979e-23)
(1.028916 -6.9330365e-05 2.8029627e-23)
(1.0283052 0.00018690093 8.0541203e-24)
(0.85570285 -0.001740284 2.1247345e-22)
(0.87341338 -0.00093953011 2.2795284e-21)
(0.89065269 -0.00035604252 1.0212383e-20)
(0.90750429 0.0009106256 1.470596e-20)
(0.92345012 0.0019867288 0)
(0.9389907 0.0022900122 0)
(0.95423127 0.0018066091 0)
(0.96903257 0.0010722967 1.577922e-21)
(0.98261752 0.00039947804 -1.7308562e-20)
(0.99419537 -6.1206421e-06 -1.4361092e-20)
(1.0019097 -0.00063966613 -1.6804848e-22)
(1.0054924 -0.0017820446 1.2288066e-21)
(1.0081056 -0.0031260401 -9.3181551e-21)
(1.0116292 -0.0049098252 3.2714319e-21)
(1.0155806 -0.0067801448 -1.7620292e-22)
(1.019853 -0.0082310805 0)
(1.0232169 -0.0094484105 3.377083e-22)
(1.025258 -0.010790413 -4.8445668e-22)
(1.0271737 -0.011656391 2.8709188e-22)
(1.0291317 -0.011954625 2.5494352e-22)
(1.0309434 -0.01168122 -1.3273202e-21)
(1.0324859 -0.010904623 2.6789674e-22)
(1.0336297 -0.0097272388 -1.3394993e-21)
(1.0343294 -0.0082756413 -1.7410755e-21)
(1.0345503 -0.0066953964 6.7501252e-22)
(1.0343391 -0.0051067478 1.1407338e-22)
(1.0337401 -0.0036316946 -8.4444024e-23)
(1.0328762 -0.0023511282 1.5980739e-23)
(1.0318165 -0.0013075779 -4.3197788e-22)
(1.0307474 -0.00057778152 -3.1385139e-22)
(1.0296882 -4.3897104e-05 1.0331508e-22)
(1.0289213 5.424989e-05 -3.0228505e-22)
(1.0282637 0.00021746514 2.4332632e-22)
(0.84186364 -0.0022945935 9.9528638e-23)
(0.85925326 -0.0016958519 2.8366468e-22)
(0.87622055 -0.00094254256 1.7516245e-20)
(0.89358157 0.00033750068 2.9660456e-20)
(0.91036871 0.0015100236 -6.4921992e-21)
(0.92596601 0.0017679018 -7.2343127e-22)
(0.94150025 0.0012277203 -2.6989549e-20)
(0.95694859 0.00036756617 1.3102686e-20)
(0.97182129 -0.00033042853 1.965263e-21)
(0.98516095 -0.0007324238 3.5424237e-20)
(0.99594991 -0.00085714928 -1.2393999e-20)
(1.0022364 -0.0015538139 -1.3946469e-20)
(1.0050067 -0.0030143228 1.3762692e-22)
(1.0076209 -0.0048051056 3.665233e-21)
(1.0115788 -0.006892465 2.2654894e-21)
(1.0161305 -0.0088409354 7.8587077e-23)
(1.0209503 -0.010085173 5.4907648e-23)
(1.0240264 -0.011399319 6.7257665e-22)
(1.0262013 -0.012563297 -2.0777808e-22)
(1.028383 -0.013138606 -1.4493453e-22)
(1.0304833 -0.013090525 6.2828197e-22)
(1.0323571 -0.01247053 -2.4548872e-21)
(1.0338519 -0.011365495 -8.9098064e-23)
(1.0348951 -0.009905475 8.7152674e-22)
(1.0354285 -0.0082315304 -2.3717642e-21)
(1.0354693 -0.0064883665 -8.0993647e-22)
(1.0350591 -0.0048025145 -7.2414325e-22)
(1.034278 -0.0032804182 -2.3087304e-22)
(1.033247 -0.0019983927 -4.081847e-22)
(1.0320481 -0.00098788776 9.0438107e-24)
(1.0308682 -0.00030868 -7.7139557e-23)
(1.0297251 0.00015194115 -3.3071686e-23)
(1.0289015 0.00018126521 2.0226468e-22)
(1.0282019 0.00024699814 -5.9816601e-22)
(0.82802594 -0.002788142 -3.6085407e-22)
(0.84497848 -0.0022704191 -4.2141978e-22)
(0.86170665 -0.0016792563 -2.0463268e-20)
(0.87893267 -0.00019694809 -1.4891084e-20)
(0.8963342 0.00094501784 2.5490367e-20)
(0.91292799 0.0013134014 3.2268311e-20)
(0.92853034 0.00063007766 3.8142311e-21)
(0.94428949 -0.00032624147 0)
(0.95996169 -0.0011156868 1.504409e-20)
(0.97470299 -0.0015760243 4.8757457e-20)
(0.98755393 -0.0015189731 1.8560776e-21)
(0.99725914 -0.0015138237 6.5699668e-21)
(1.002009 -0.0025742461 0)
(1.0042016 -0.0046220536 -4.107635e-22)
(1.0071895 -0.006885141 -6.1630605e-21)
(1.0118227 -0.0092136897 -1.9733605e-22)
(1.0172415 -0.010955179 7.6099664e-22)
(1.0221396 -0.012092927 0)
(1.0250183 -0.013409916 2.9659522e-22)
(1.0274327 -0.014297766 7.7920973e-22)
(1.0298171 -0.014510804 -2.0541223e-21)
(1.0320241 -0.014088699 5.9530319e-22)
(1.0338846 -0.013101033 0)
(1.0352996 -0.011669555 -2.2450527e-21)
(1.0361842 -0.0099413654 9.4529998e-22)
(1.0365333 -0.0080614649 -6.2396361e-23)
(1.0363609 -0.006183601 -9.905911e-22)
(1.0357481 -0.0044190975 8.2640759e-22)
(1.0347733 -0.0028759713 3.4505829e-23)
(1.0335777 -0.0016085606 -9.7107508e-22)
(1.0322423 -0.00064547829 8.5230101e-22)
(1.0309562 -2.6929106e-05 2.8570641e-22)
(1.0297341 0.00035354045 0)
(1.0288574 0.00031085822 -8.7531837e-24)
(1.0281209 0.00027475898 -2.2039965e-22)
(0.81407629 -0.0032429834 -2.1811431e-22)
(0.83075969 -0.0026077748 1.1444425e-21)
(0.84715516 -0.0024023978 -1.937682e-20)
(0.86415493 -0.00070041001 -5.2621545e-21)
(0.88147597 0.00042701148 6.850678e-21)
(0.89881314 0.00075366432 4.4384562e-21)
(0.91554888 0.00012255644 2.8831897e-20)
(0.93135558 -0.0010248904 1.6257653e-22)
(0.94740449 -0.0018950308 0)
(0.96309498 -0.0023831491 -1.8339473e-20)
(0.97745692 -0.0023662712 1.5796266e-20)
(0.98950783 -0.0019743875 -1.090496e-21)
(0.99777222 -0.0022973423 6.8763113e-21)
(1.0012143 -0.0040493738 -7.242004e-21)
(1.0032868 -0.0067148131 -3.4331284e-21)
(1.0070274 -0.0093883389 -3.8600154e-21)
(1.0125592 -0.011728536 4.9957811e-21)
(1.0188797 -0.013112415 4.0507947e-22)
(1.0234002 -0.014247955 1.2286373e-21)
(1.0262783 -0.015416193 -2.6103607e-21)
(1.0289346 -0.015928679 2.3785069e-21)
(1.0314786 -0.015743309 -2.0156282e-21)
(1.0337126 -0.01491577 0)
(1.0355203 -0.013557901 -6.0670596e-22)
(1.0367905 -0.011810126 2.219039e-22)
(1.0374916 -0.0098297969 1.1932442e-21)
(1.0376172 -0.0077725958 3.0267671e-22)
(1.0372233 -0.0057809959 1.6150844e-22)
(1.0363917 -0.0039677642 5.9668096e-22)
(1.0352258 -0.0024208616 0)
(1.0338656 -0.001187387 8.5425139e-22)
(1.0323988 -0.00028442368 9.4801482e-22)
(1.031012 0.00026455264 1.7123939e-22)
(1.0297164 0.00055910369 -2.6615519e-22)
(1.0287901 0.00044205302 1.4186372e-25)
(1.0280246 0.00030337977 8.6047641e-22)
(0.80025525 -0.0035953171 3.7241591e-22)
(0.81660411 -0.0029604938 -1.4952685e-22)
(0.83264823 -0.0027857968 5.9130701e-21)
(0.84939055 -0.0013985353 2.3474578e-22)
(0.86631617 1.8501353e-05 -3.0613359e-20)
(0.88375811 0.00027855574 -3.292761e-20)
(0.90137778 -0.00046918992 -1.2221192e-22)
(0.91842431 -0.001625079 2.2523196e-20)
(0.93451158 -0.0026809429 1.5664524e-22)
(0.95067176 -0.003210786 1.782278e-20)
(0.96612653 -0.0031250588 -3.0927355e-23)
(0.97974758 -0.0026559601 -8.5969086e-21)
(0.99068474 -0.0024409254 -9.9441563e-22)
(0.99746502 -0.0035652462 -7.3031346e-21)
(1.0000665 -0.0061291559 2.523383e-20)
(1.0025199 -0.0093655107 3.8106268e-22)
(1.0073199 -0.012222424 -3.1630233e-21)
(1.0140418 -0.014285671 -1.4829578e-21)
(1.020769 -0.015326264 -2.7906512e-22)
(1.0248257 -0.016492643 -4.6089945e-22)
(1.0278334 -0.017330089 1.1886186e-21)
(1.0307088 -0.017419812 -2.8401409e-21)
(1.0333258 -0.016794248 2.3702137e-21)
(1.0355399 -0.015552803 0)
(1.0372225 -0.013829542 1.6155009e-21)
(1.0383156 -0.011780596 2.5276539e-21)
(1.0387873 -0.0095764036 -1.0552759e-21)
(1.0386755 -0.0073649075 2.0991198e-21)
(1.0380391 -0.0052923014 4.5221444e-23)
(1.0369891 -0.0034502211 -6.791805e-22)
(1.0356288 -0.0019244548 -8.4484483e-22)
(1.0341099 -0.00073953822 -2.4611769e-23)
(1.0325175 9.1296064e-05 -6.0348447e-23)
(1.0310365 0.00056288153 3.1258009e-22)
(1.0296734 0.0007669996 -1.8414234e-22)
(1.0287011 0.00057416768 -3.9970283e-23)
(1.0279115 0.00033697148 3.5697716e-22)
(0.7875243 -0.0039153603 -1.4365756e-22)
(0.80270285 -0.0032966636 -1.0612754e-21)
(0.81823904 -0.003102271 7.7570756e-21)
(0.83458405 -0.0016901318 4.3495872e-21)
(0.85118691 -0.0005419887 -2.5942867e-22)
(0.86817886 -9.0177297e-05 2.2401209e-22)
(0.88615336 -0.0009640098 1.8288599e-20)
(0.90420092 -0.0022583282 -8.5775275e-21)
(0.92163045 -0.0033686655 0)
(0.93783495 -0.0040306953 -4.0365501e-21)
(0.95388718 -0.0039190297 0)
(0.96870387 -0.0033136787 0)
(0.98136466 -0.0028927253 -9.1336523e-21)
(0.99108126 -0.0033713525 1.1182006e-21)
(0.99651811 -0.0055132823 5.1573941e-21)
(0.99886455 -0.0088959612 7.0895075e-21)
(1.0021607 -0.012453667 -8.6669276e-21)
(1.0082747 -0.015271455 -3.1809935e-21)
(1.0162784 -0.016767807 -9.7615448e-22)
(1.0227 -0.017654102 2.3863476e-22)
(1.0264929 -0.01869859 -1.9936795e-21)
(1.0297068 -0.019104905 1.2114776e-21)
(1.032712 -0.018719868 4.2767705e-22)
(1.0353459 -0.017638846 -5.4685692e-22)
(1.037461 -0.015982433 -1.1721493e-23)
(1.0389784 -0.013907289 5.4335754e-22)
(1.0398413 -0.011584387 -2.7317555e-22)
(1.0400635 -0.0091810235 -1.3120014e-21)
(1.039688 -0.0068500877 -1.1592961e-22)
(1.038806 -0.0047196499 -2.0418397e-21)
(1.0375311 -0.0028784189 -5.0244228e-22)
(1.0359825 -0.0013901426 -1.9473189e-22)
(1.0343098 -0.00027049201 -9.9457851e-22)
(1.0325993 0.00047798754 1.1785941e-22)
(1.0310309 0.00086562038 -6.912865e-22)
(1.0296068 0.00097589213 -1.3092525e-22)
(1.0285926 0.00070579981 -3.0732569e-22)
(1.0277843 0.00037069325 0)