/*--------------------------------*- C++ -*----------------------------------*\
| =========                 |                                                 |
| \\      /  F ield         | OpenFOAM: The Open Source CFD Toolbox           |
|  \\    /   O peration     | Version:  5.0                                   |
|   \\  /    A nd           | Web:      www.OpenFOAM.org                      |
|    \\/     M anipulation  |                                                 |
\*---------------------------------------------------------------------------*/
FoamFile
{
    version     2.0;
    format      ascii;
    class       volSymmTensorField;
    location    "220";
    object      UPrime2Mean;
}
// * * * * * * * * * * * * * * * * * * * * * * * * * * * * * * * * * * * * * //

dimensions      [0 2 -2 0 0 0 0];

internalField   nonuniform List<symmTensor> 
9200
(
(0.00063320749 2.3931076e-05 -8.0384634e-26 2.0598059e-06 -5.9870894e-27 4.9469145e-47)
(0.0006494184 7.8367495e-05 2.2308248e-23 2.3350984e-05 2.7745224e-24 9.285138e-43)
(0.00050666665 2.0395783e-05 0 1.9879373e-06 0 0)
(0.00067435708 0.00012618709 -1.2219676e-23 6.0526013e-05 -2.4181416e-24 2.6815713e-43)
(0.00051861956 6.7007185e-05 1.7351782e-23 2.2943212e-05 2.5729143e-24 6.9241701e-43)
(0.0004475678 1.8798658e-05 0 1.8915112e-06 0 0)
(0.00071518194 0.00017807192 -1.2169001e-24 0.00012199998 -3.1726924e-25 2.4640719e-45)
(0.00053826452 0.00010674831 3.8729087e-26 5.9088508e-05 -1.4428583e-25 2.4124737e-45)
(0.00045886977 6.1078217e-05 0 2.1812352e-05 0 0)
(0.00038121548 1.6083883e-05 0 1.7609993e-06 0 0)
(0.00076850877 0.0002284983 2.7982184e-23 0.00020476181 9.7805552e-24 1.2403801e-42)
(0.00057054359 0.00014795335 1.8119974e-23 0.00011857732 6.9993006e-24 7.8390251e-43)
(0.00047568968 9.6765819e-05 9.1895631e-24 5.5908745e-05 2.6852399e-24 2.217056e-43)
(0.00039056207 5.2351936e-05 4.8318758e-25 2.0564174e-05 9.9942918e-26 7.7869792e-46)
(0.00033034834 1.4154233e-05 3.4307905e-27 1.6523003e-06 5.8648854e-28 4.2424491e-49)
(0.00083892815 0.00028149789 2.7212856e-23 0.00032009176 1.0742827e-23 1.0474667e-42)
(0.00061366714 0.00018550753 -4.0911337e-25 0.00019737208 4.8241907e-25 7.4380151e-45)
(0.00050347579 0.00013309205 3.1425419e-23 0.0001116156 1.3003251e-23 2.5179128e-42)
(0.00040595728 8.2480422e-05 1.0945922e-23 5.2425484e-05 4.0375943e-24 4.3406959e-43)
(0.000339671 4.5713051e-05 2.3726557e-25 1.9272524e-05 1.613343e-25 3.1377991e-45)
(0.00028646579 1.2203078e-05 -1.572451e-23 1.5372511e-06 -1.2163275e-24 1.3227721e-42)
(0.00092661989 0.00033372551 3.5928753e-23 0.00047254418 2.0238453e-23 1.9283139e-42)
(0.00067210701 0.00022186208 2.6432413e-23 0.00030553414 1.1729024e-23 1.2122581e-42)
(0.00054070189 0.00016498487 -1.9241629e-23 0.00018436017 -9.6479304e-24 8.7375562e-43)
(0.00043212138 0.00011238109 -1.1775277e-24 0.00010418962 -6.7858134e-25 5.765116e-45)
(0.00035429937 7.163382e-05 8.6506253e-24 4.8799059e-05 3.1517122e-24 3.0211126e-43)
(0.00029514928 3.9296188e-05 7.5612893e-24 1.8041981e-05 2.0737295e-24 3.1245974e-43)
(0.00025053049 1.0563973e-05 1.0927326e-24 1.434868e-06 1.139931e-25 1.0107329e-44)
(0.0010360722 0.0003836053 2.7607529e-23 0.00067533648 2.5494343e-23 1.7960643e-42)
(0.00074942302 0.0002537358 2.3736426e-23 0.0004462912 1.5535139e-23 1.0207033e-42)
(0.00059154267 0.0001942305 2.3672099e-23 0.00028270187 1.5879127e-23 1.3638703e-42)
(0.00046807542 0.00013766705 8.4372034e-25 0.00017096925 1.8788514e-24 3.7475983e-44)
(0.00037907639 9.6927659e-05 -2.1981217e-23 9.6509684e-05 -1.2047716e-23 2.0145827e-42)
(0.0003091738 6.1454603e-05 -8.3372673e-24 4.5501938e-05 -3.8101591e-24 3.9535793e-43)
(0.00025911559 3.3868215e-05 -8.0965094e-24 1.6882909e-05 -2.177814e-24 4.4296408e-43)
(0.00022023775 9.0718878e-06 1.1346318e-23 1.3436243e-06 1.0887479e-24 1.1862063e-42)
(0.0011719719 0.0004276232 -5.1965967e-23 0.00094146883 -3.9051343e-23 3.3948715e-42)
(0.00085335417 0.00027986914 2.5092231e-23 0.00063152582 8.6124355e-24 8.4738553e-43)
(0.00065944079 0.00021748821 8.264137e-25 0.00040805151 3.9193573e-24 6.1030511e-44)
(0.00051858319 0.0001598823 9.634696e-24 0.00026045205 6.2697934e-24 2.510045e-43)
(0.00041327214 0.00011775496 7.6944002e-25 0.0001573173 3.5487724e-24 1.5853727e-43)
(0.00033325014 8.2882993e-05 -2.8871574e-23 8.9774448e-05 -1.6858779e-23 4.2603699e-42)
(0.00027282537 5.2964268e-05 3.943519e-24 4.2385621e-05 2.4724612e-25 2.5384125e-43)
(0.00022853079 2.8965484e-05 -1.2069654e-23 1.5899916e-05 -3.7369431e-24 1.316001e-42)
(0.00019569742 7.7735818e-06 -2.0881749e-23 1.262436e-06 -2.2967082e-24 5.5090027e-42)
(0.0013380632 0.00045747724 4.4026834e-23 0.001284974 4.7675381e-23 2.9553924e-42)
(0.00099345607 0.00029641979 -1.359381e-23 0.00087231918 1.5051225e-23 8.9281898e-43)
(0.00075140782 0.00023356601 -8.5647496e-25 0.00056929921 -2.3437139e-24 1.2109412e-44)
(0.00058754774 0.00017646828 1.5388727e-25 0.00037357183 -1.1442578e-23 6.1296346e-43)
(0.00046160803 0.00013547309 -3.0283378e-24 0.00023809786 -3.1795391e-24 4.9669645e-44)
(0.00036689883 0.00010045687 6.8930699e-26 0.00014564945 4.8914075e-24 3.6959737e-43)
(0.00029624582 7.1362545e-05 8.8011473e-24 8.3446017e-05 5.7727622e-24 5.1441297e-43)
(0.00024184114 4.537615e-05 1.3064593e-23 3.9796409e-05 6.7599678e-24 1.5200136e-42)
(0.00020377967 2.4694611e-05 6.1021225e-24 1.5027379e-05 2.4617625e-24 4.8174006e-43)
(0.000175206 6.58235e-06 1.3076638e-24 1.1926166e-06 1.8682889e-25 3.3113695e-44)
(0.0015378718 0.00046550095 -2.2342247e-23 0.0017225491 -2.2208853e-23 5.6594575e-43)
(0.001181029 0.00029651011 -4.5107752e-24 0.0011837355 3.0897256e-23 1.1419322e-42)
(0.00087698156 0.00023953911 2.1687759e-23 0.00077442464 7.9378618e-24 6.1814552e-43)
(0.00068278256 0.00018682796 -1.546367e-23 0.00051852954 -1.6775246e-23 7.188675e-43)
(0.00052806157 0.0001479865 1.7670029e-23 0.00033909171 1.7705341e-24 1.0079197e-42)
(0.00041473904 0.0001154178 -3.1311251e-23 0.00021948149 -2.0014202e-23 3.7163253e-42)
(0.00032892036 8.654803e-05 -2.3564351e-25 0.0001348713 1.3108119e-24 3.3730796e-44)
(0.00026454775 6.118781e-05 2.1690819e-23 7.8333075e-05 1.3577318e-23 3.7721753e-42)
(0.00021667044 3.8825812e-05 -9.1126967e-24 3.7511299e-05 -4.9711003e-24 9.78985e-43)
(0.00018302673 2.0748883e-05 1.5946897e-23 1.4315603e-05 7.1325298e-24 4.5536846e-42)
(0.0001589489 5.5241532e-06 -2.1406143e-24 1.1290172e-06 -3.1364014e-25 1.2410355e-43)
(0.0017824128 0.00048232216 8.029162e-24 0.002293682 -3.8724651e-24 1.0135994e-43)
(0.0014238623 0.00027116663 2.4634303e-23 0.0015860613 -6.5823738e-23 4.3660248e-42)
(0.0010486964 0.00023180255 -1.7363873e-23 0.0010377015 -3.0440695e-23 1.0713789e-42)
(0.00081474883 0.00018894537 0 0.00070290151 0 0)
(0.00062006022 0.00015505246 1.5585733e-26 0.00046766114 1.0882997e-24 3.3793767e-45)
(0.00048064478 0.00012633391 2.7921796e-24 0.00031122273 -9.3023135e-24 5.7060264e-43)
(0.00037516772 9.9664292e-05 -5.7922603e-24 0.00020265921 -3.9529105e-24 1.5747129e-43)
(0.00029622578 7.452268e-05 -1.1517305e-23 0.00012635403 -8.2538934e-24 9.4369692e-43)
(0.00023854329 5.2465169e-05 5.3788411e-25 7.3854431e-05 -2.2392547e-24 2.4124911e-43)
(0.00019542415 3.2771387e-05 -9.7394199e-24 3.5668294e-05 -6.4131905e-24 1.6043393e-42)
(0.0001665212 1.7205043e-05 -5.4252071e-24 1.3677927e-05 -2.8313546e-24 7.84619e-43)
(0.00014581312 4.5371676e-06 9.3401839e-25 1.0722342e-06 1.8929945e-25 4.0207769e-44)
(0.0020319179 0.00051166417 4.8086628e-24 0.0030140458 1.7099567e-24 1.5353975e-44)
(0.0017324838 0.00022636324 -4.063965e-23 0.0021144103 2.537115e-23 1.7592825e-42)
(0.0012756799 0.00020110336 0 0.0013756104 0 0)
(0.00099802478 0.0001807886 0 0.00093982517 0 0)
(0.00074718732 0.00015537854 -1.1419296e-23 0.00063068845 -3.5038141e-25 2.4175887e-43)
(0.00057169353 0.00013344503 1.6467294e-23 0.00042772498 -1.233266e-23 1.7607914e-42)
(0.00043853105 0.00010969681 -1.6976717e-23 0.00028653881 -2.9257387e-24 1.2201142e-42)
(0.00034102601 8.6423502e-05 1.3567675e-23 0.00018955133 1.2096477e-23 1.19046e-42)
(0.0002688771 6.4277461e-05 8.4869862e-25 0.00011898616 1.0952385e-24 1.0891634e-44)
(0.00021638198 4.4344595e-05 -7.2503027e-27 7.0320424e-05 2.2300027e-26 2.8746712e-47)
(0.00017839646 2.7333894e-05 9.9562176e-24 3.4031944e-05 7.3796585e-24 2.4714727e-42)
(0.00015314668 1.3841243e-05 -8.6637289e-24 1.3136122e-05 -5.2595577e-24 3.2854202e-42)
(0.00013581889 3.6526286e-06 1.2312011e-23 1.0180039e-06 3.0394063e-24 1.218863e-41)
(0.0020956081 0.00040001819 -7.949882e-23 0.0037756861 -1.4333907e-23 4.451764e-42)
(0.0021107816 0.00019670242 1.0207899e-23 0.0028192295 -2.8264601e-24 6.863384e-44)
(0.0015600458 0.00014219989 -5.6664232e-23 0.001813277 9.4167948e-24 2.664029e-42)
(0.0012453087 0.00015580778 3.7853338e-23 0.0012465325 -8.402345e-24 1.6019311e-42)
(0.00092344191 0.00014834995 -2.2102102e-23 0.00084091086 4.6111277e-24 7.8354374e-43)
(0.00069683159 0.00013598761 7.4590259e-24 0.00057556908 -6.2590958e-24 2.555853e-43)
(0.00052570404 0.00011697949 4.8038175e-24 0.00039294539 4.821038e-24 9.0363616e-44)
(0.00040208235 9.6298995e-05 -3.1879977e-25 0.00026754315 3.7822112e-25 2.0106496e-45)
(0.00031146616 7.5112793e-05 9.932427e-24 0.00017840475 1.4272701e-23 1.2636335e-42)
(0.00024527598 5.4670428e-05 7.1778789e-24 0.00011329317 1.0817519e-23 1.1034555e-42)
(0.00019837469 3.7003969e-05 2.7517848e-24 6.7209058e-05 2.8433672e-24 1.7155474e-43)
(0.0001645034 2.213012e-05 5.7509465e-24 3.2657022e-05 5.9345842e-24 1.3833821e-42)
(0.00014295436 1.0770426e-05 2.8730342e-24 1.2618273e-05 2.6029747e-24 6.6817612e-43)
(0.00012829289 2.8310888e-06 -2.3151487e-24 9.6621444e-07 -8.363057e-25 9.686528e-43)
(0.001899982 4.2935391e-05 7.2987397e-23 0.0044716253 -2.2077714e-22 1.7690143e-41)
(0.0024464859 0.00014714697 4.3206329e-22 0.0037155625 -1.0576344e-22 1.00592e-40)
(0.0019142492 7.8763706e-05 9.2496746e-24 0.0023866019 -3.1476779e-23 5.2478092e-43)
(0.0015580618 0.00010307382 -7.2842253e-24 0.0016462465 4.5340844e-24 5.8157546e-44)
(0.0011648171 0.00013065348 3.5165563e-24 0.00111564 -2.9406413e-24 2.4413702e-44)
(0.00086938867 0.00013386407 -1.5211696e-23 0.00076692666 1.0872747e-23 6.2313965e-43)
(0.00064474221 0.00012116721 5.4622363e-24 0.00052803361 5.6993371e-24 9.6880842e-44)
(0.00048529886 0.00010456619 -5.4241167e-24 0.00036641556 -6.2170071e-24 1.4859391e-43)
(0.00036905191 8.4654584e-05 1.9699465e-24 0.00025161899 -1.9357723e-24 7.1977548e-44)
(0.00028568197 6.4446903e-05 -5.787979e-25 0.00016991051 -1.5788963e-24 1.5562375e-44)
(0.00022569287 4.5895626e-05 -1.8038133e-25 0.00010834739 -2.1408353e-25 6.2784364e-46)
(0.00018353445 2.9856661e-05 1.1871045e-25 6.4643514e-05 -1.0357525e-24 4.6182247e-44)
(0.00015383026 1.7355207e-05 -6.1682207e-24 3.1354218e-05 -7.9239735e-24 2.7913558e-42)
(0.00013528931 7.8492089e-06 2.0971925e-24 1.2132039e-05 2.5998279e-24 7.7716843e-43)
(0.0001230933 2.1017117e-06 -1.0254222e-24 9.1447982e-07 -6.375346e-25 6.1664375e-43)
(0.0016397607 -0.00046901472 9.2881405e-23 0.0050533931 8.3655567e-23 1.6060287e-41)
(0.0024805945 -6.049276e-05 -2.8674585e-22 0.0046703826 -3.0100145e-23 4.2790511e-41)
(0.0023199958 5.2613811e-05 1.4316595e-22 0.0031639815 -2.9735391e-23 1.0864228e-41)
(0.0019319816 3.0202273e-05 -1.0124303e-22 0.0021716258 4.7607139e-24 6.2806028e-42)
(0.0014759266 9.0196076e-05 5.8685552e-23 0.0014778222 -3.7704094e-24 2.7972338e-42)
(0.0011060627 0.00012549206 -4.9183216e-23 0.0010191381 -1.9617213e-23 2.8029156e-42)
(0.00080775921 0.00012228057 4.5720667e-23 0.00070333049 -3.906833e-24 3.5746188e-42)
(0.00059803464 0.00011107301 -1.7651662e-24 0.00049187067 1.1430669e-24 1.4164778e-44)
(0.00044720781 9.3393655e-05 -4.4196907e-24 0.00034429729 -3.6951482e-24 8.899944e-44)
(0.00033993364 7.3643518e-05 5.1478683e-24 0.00023958765 -4.4374985e-24 5.1234666e-43)
(0.00026362432 5.4484193e-05 -2.2336954e-23 0.00016263658 -2.8388127e-23 7.6911489e-42)
(0.0002093405 3.7162242e-05 6.1723249e-24 0.0001043604 5.8496797e-24 1.0354218e-42)
(0.00017198162 2.3214679e-05 2.2026038e-24 6.2217891e-05 3.5801745e-24 3.0414471e-43)
(0.00014577047 1.2759347e-05 4.5204671e-25 3.0143243e-05 1.1832476e-24 5.0148963e-44)
(0.00013001563 5.1983468e-06 -7.0781081e-26 1.1631991e-05 1.2220754e-25 7.4604643e-45)
(0.00011977073 1.444049e-06 2.481479e-25 8.6263479e-07 7.0315037e-25 7.9180448e-43)
(0.0015119842 -0.0010195295 0 0.0055055697 0 0)
(0.002340352 -0.00043207677 -4.0513081e-22 0.0056041891 5.7894604e-23 9.5800113e-41)
(0.0025034963 -3.762382e-05 -4.9948934e-24 0.0040938011 9.9123239e-23 2.819342e-42)
(0.0023566582 -9.8873452e-06 0 0.0028902462 0 0)
(0.001844062 1.8318599e-05 0 0.0019592054 0 0)
(0.0014169037 0.0001005555 0 0.0013561271 0 0)
(0.0010315599 0.00012014249 -6.2491813e-24 0.00093559924 4.3059914e-24 7.5433331e-44)
(0.00075125557 0.00011582692 1.6917302e-23 0.00065465159 1.4608621e-23 6.9367596e-43)
(0.00055255329 0.00010132089 -2.0622115e-23 0.0004617003 1.1639685e-23 2.0425179e-42)
(0.00041289707 8.2667204e-05 1.0539974e-23 0.00032766545 1.1622337e-23 7.1304346e-43)
(0.00031413433 6.2899009e-05 -1.6036698e-24 0.00022942957 1.3054281e-24 5.6792773e-44)
(0.00024494237 4.429404e-05 3.7822015e-24 0.0001568913 6.4155886e-24 3.6168571e-43)
(0.00019635486 2.8897712e-05 -4.7648358e-25 0.00010062762 -1.9171616e-25 1.1708741e-44)
(0.0001632039 1.6694833e-05 -1.6665037e-24 5.9983738e-05 -4.2003295e-24 4.0112982e-43)
(0.00014019304 8.5668489e-06 -8.6705045e-26 2.8902383e-05 -7.9153634e-25 2.3006989e-44)
(0.0001267088 2.7423823e-06 -1.0084308e-25 1.1120731e-05 -1.2917711e-24 2.0187648e-43)
(0.00011811368 8.7743016e-07 0 8.0992361e-07 0 0)
(0.0017056565 -0.0014992135 6.365181e-23 0.0058600498 -1.0835729e-22 2.5904617e-41)
(0.0021389649 -0.00090983071 5.072002e-22 0.0064639697 6.0116616e-23 2.1058131e-40)
(0.002440231 -0.00029150119 -7.6064795e-22 0.0050561629 6.0181997e-23 3.0427475e-40)
(0.0026393619 -4.7369631e-05 -3.5247089e-22 0.003825789 7.5308813e-23 5.6619448e-41)
(0.0022674261 -4.1122596e-05 -2.3190542e-22 0.0026203421 2.2140132e-23 2.7111352e-41)
(0.0017866535 3.7567163e-05 0 0.001806715 0 0)
(0.0013317651 0.00010810271 -9.4576055e-23 0.0012492489 2.2653973e-23 8.4336624e-42)
(0.00096084494 0.0001188925 1.860807e-23 0.00087032817 -1.0076467e-23 6.3948011e-43)
(0.00069488877 0.00010836708 5.2638839e-23 0.00061374859 8.1589409e-24 5.5240669e-42)
(0.00051056327 9.1597806e-05 -2.3191768e-23 0.00043887427 1.1707872e-23 2.892738e-42)
(0.00038172787 7.1601103e-05 -5.2675375e-24 0.00031370468 -7.1842242e-24 2.5335838e-43)
(0.0002919994 5.1612246e-05 -1.6948389e-24 0.00022152634 1.4159129e-24 7.774406e-44)
(0.00022972325 3.4407718e-05 7.7354076e-24 0.00015157037 1.2398596e-23 1.9797261e-42)
(0.0001863691 2.0587619e-05 -6.0178636e-24 9.7244873e-05 -1.7739962e-23 4.3239724e-42)
(0.00015707202 1.0672289e-05 -1.7537359e-25 5.767578e-05 -3.4630493e-24 2.2067226e-43)
(0.00013672792 4.6343005e-06 -8.1365399e-25 2.7639426e-05 -1.4190767e-23 1.0128218e-41)
(0.000125144 5.7273506e-07 9.6758901e-25 1.0578824e-05 -3.4651609e-24 1.4661133e-42)
(0.00011776187 3.9450055e-07 1.7511961e-24 7.5650352e-07 -8.4650719e-25 1.3489617e-42)
(0.0023727235 -0.0017978963 1.0193494e-24 0.0061158344 -4.5187093e-26 1.6392885e-43)
(0.0020433898 -0.0014497769 2.3509407e-22 0.0071999422 -7.9950141e-23 6.4732103e-41)
(0.0022647453 -0.00065498975 7.966049e-23 0.0060265965 8.7053463e-23 6.5790863e-42)
(0.0026553423 -0.0002296377 -4.1071475e-22 0.0048404188 -6.0019747e-24 7.8398094e-41)
(0.0026080961 -6.6460741e-05 4.2633946e-23 0.0035254977 -4.5141241e-24 8.073889e-43)
(0.0022025221 -4.5570168e-05 -2.5706656e-23 0.0024215631 -7.522908e-23 3.1953721e-42)
(0.0016992021 6.0646369e-05 1.8704776e-22 0.0016718511 -1.0243321e-22 3.0728496e-41)
(0.0012464981 0.00011704628 1.7059657e-22 0.0011629072 -3.6695861e-23 2.9274534e-41)
(0.00088878468 0.00011469169 3.5827956e-23 0.00081477644 -9.1092115e-24 2.1041912e-42)
(0.00064185493 0.00010044977 -1.2110682e-23 0.00058228452 -1.9837391e-23 8.774297e-43)
(0.00047175219 8.0747157e-05 4.6657823e-24 0.00041972886 -2.2020965e-24 1.3837746e-43)
(0.00035444305 5.9498205e-05 -1.2205556e-23 0.00030296523 -1.7012972e-23 1.6830791e-42)
(0.00027342105 4.0229844e-05 6.1711462e-24 0.0002143198 4.5824014e-24 7.1824828e-43)
(0.00021783834 2.4183657e-05 -2.7058947e-25 0.00014683179 1.2394127e-24 2.0471632e-44)
(0.00017925532 1.2775071e-05 -2.1594594e-25 9.3740847e-05 1.7156437e-24 4.410512e-44)
(0.00015330495 4.9129116e-06 1.7179092e-25 5.5318974e-05 3.2297923e-24 2.6589475e-43)
(0.00013511851 1.1480047e-06 8.0662209e-25 2.6299079e-05 -4.7311106e-24 1.1880301e-42)
(0.00012496823 -1.3356754e-06 -2.7104791e-26 1.0009273e-05 1.0518506e-25 4.5097395e-45)
(0.00011849488 3.0702108e-09 2.4684313e-24 7.0264367e-07 -7.6076453e-25 1.2263912e-42)
(0.0035490294 -0.0019312813 2.4758084e-24 0.0063262927 1.3133474e-23 5.8457149e-42)
(0.0023211234 -0.0018920303 -1.7772831e-22 0.0078378408 5.0678675e-23 6.7453438e-41)
(0.0021160023 -0.0011059992 1.1198314e-21 0.0069315502 7.9810835e-23 1.2378402e-39)
(0.0025278205 -0.00052348825 2.1277532e-22 0.0058958402 -8.2122375e-23 2.4415108e-41)
(0.0027065228 -0.00018869839 -1.1757004e-22 0.0045768943 -8.4649886e-23 8.3272227e-42)
(0.0025783982 -9.1896246e-05 -1.1994813e-23 0.0032889226 -5.4505454e-23 1.1622046e-42)
(0.0021079127 -3.666656e-05 -4.6031456e-23 0.002244181 7.360819e-24 1.1368844e-42)
(0.0016100465 8.8080377e-05 -6.8571376e-23 0.0015611376 -3.887941e-23 4.1879706e-42)
(0.0011550841 0.00011932925 2.311848e-23 0.0010871939 -4.6614834e-24 5.9217685e-43)
(0.00081995512 0.00010920471 8.3325763e-23 0.00077080337 2.5787411e-24 1.1387557e-41)
(0.00059228405 9.0401258e-05 -2.7295662e-23 0.00055577004 -3.0380364e-23 3.1171787e-42)
(0.00043703981 6.818311e-05 -6.254042e-25 0.00040502234 5.9928516e-24 1.1624332e-43)
(0.00033103354 4.671401e-05 3.079399e-24 0.00029332097 8.8507994e-24 3.1358319e-43)
(0.00025864549 2.8102605e-05 -9.6556938e-26 0.00020803274 -6.5492363e-25 2.1978893e-45)
(0.00020914955 1.4358124e-05 -5.7684727e-25 0.00014191584 1.0562872e-24 3.5143311e-44)
(0.0001748554 5.1365156e-06 1.0506152e-24 9.0167094e-05 1.409819e-23 3.2652848e-42)
(0.00015158295 -2.4017816e-07 -4.1614246e-26 5.2784296e-05 -2.453482e-24 2.8864662e-43)
(0.00013505201 -1.9522634e-06 -3.1936e-24 2.4890451e-05 7.7930654e-24 3.2757102e-42)
(0.00012595029 -2.9354384e-06 -1.1762848e-24 9.4104118e-06 1.2404573e-24 2.1327954e-43)
(0.00012001966 -3.0031336e-07 -3.4125399e-24 6.4859694e-07 7.5848303e-25 1.3512743e-42)
(0.0049875787 -0.0019571714 8.0335889e-25 0.0064712921 6.0969583e-23 1.1208308e-42)
(0.0031510418 -0.0021740599 -2.5736781e-22 0.0084305794 2.0016053e-22 1.3734049e-40)
(0.0022543659 -0.0015509353 -1.4360832e-22 0.0077471884 3.8488561e-22 3.2447648e-41)
(0.0023431077 -0.00092259528 -3.2581398e-22 0.006943022 -1.261688e-23 7.749075e-41)
(0.0026383386 -0.000429459 7.2462154e-23 0.0056994397 -1.7188261e-22 8.1931233e-42)
(0.0027465077 -0.00018862854 2.3566363e-22 0.0043632857 1.8847543e-23 2.4230302e-41)
(0.0025134502 -0.00012225576 -5.0064776e-22 0.0030592685 4.7904175e-23 1.1270306e-40)
(0.0020204917 -8.2926911e-06 -6.0815365e-22 0.0020949798 8.8943016e-23 2.0610628e-40)
(0.0015072403 0.0001072534 3.0863968e-23 0.0014616223 7.0331576e-23 4.4874724e-42)
(0.0010650204 0.00011783804 0 0.0010247924 0 0)
(0.00075508926 0.00010047634 2.395209e-23 0.00073344685 2.6017883e-23 1.7596869e-42)
(0.00054713807 7.781577e-05 -1.8514354e-23 0.00053519212 6.6205048e-24 1.5881442e-42)
(0.00040675698 5.4186511e-05 -1.723759e-23 0.0003920071 -1.8065761e-23 2.5008966e-42)
(0.00031197918 3.2664422e-05 1.0141903e-23 0.0002850804 7.959561e-24 1.779169e-42)
(0.00024749178 1.6124158e-05 -1.3277167e-24 0.00020154153 -8.2730416e-24 4.132927e-43)
(0.0002036573 4.5175547e-06 1.2468006e-24 0.00013691387 1.4325422e-23 2.1742608e-42)
(0.00017278704 -1.7956587e-06 -6.9328856e-25 8.6278348e-05 1.4482756e-24 6.3143713e-44)
(0.00015169069 -4.9103482e-06 9.5695072e-25 5.0094076e-05 -3.718096e-24 4.5471011e-43)
(0.00013626175 -4.5567595e-06 -2.7837846e-24 2.3405804e-05 4.5463369e-24 1.2926375e-42)
(0.00012778382 -4.2313292e-06 -3.5011451e-25 8.7886445e-06 2.4926143e-25 8.0128978e-45)
(0.00012212211 -5.1542031e-07 -3.8733525e-24 5.9508792e-07 6.7390764e-25 1.2188424e-42)
(0.0065407472 -0.0019412392 1.6594153e-22 0.0065477529 1.6065427e-22 2.5337156e-41)
(0.004395857 -0.0023737431 -2.980077e-22 0.008987199 1.7518228e-22 7.7923818e-41)
(0.0029345837 -0.0019155151 -2.8700151e-22 0.0085089677 -4.7293864e-23 1.8094569e-40)
(0.0023360269 -0.0013386352 4.3270087e-22 0.0079348965 2.3244886e-22 2.4843301e-40)
(0.0024853772 -0.00078062098 4.5992702e-22 0.0068625649 -1.9186486e-23 1.3313965e-40)
(0.0027420728 -0.00039735219 -3.5336568e-23 0.0055437893 -1.1960244e-22 3.8962182e-42)
(0.0027500405 -0.0002173992 0 0.0041310455 0 0)
(0.0024520503 -0.00013716188 -1.2199495e-23 0.0028489803 -1.6000182e-22 1.098111e-41)
(0.0019210968 2.9595281e-05 1.3868274e-22 0.0019632244 -6.3686365e-23 1.3864888e-41)
(0.0013988115 0.00011866926 1.7534423e-22 0.0013750719 4.3598084e-23 2.5211812e-41)
(0.00097854125 0.00011105082 -3.0280838e-24 0.00097098291 2.2416491e-23 6.7584804e-43)
(0.00069532358 8.8336907e-05 -1.5678311e-23 0.00070385614 1.8354541e-24 6.3304333e-43)
(0.00050715752 6.2867957e-05 2.8493517e-24 0.00051720746 -1.0781891e-24 4.808561e-44)
(0.00038146334 3.8212856e-05 3.4757434e-24 0.00038109094 9.1915612e-24 3.038614e-43)
(0.00029714322 1.8312348e-05 -4.7524397e-24 0.00027667902 -8.9941689e-24 7.9721757e-43)
(0.00024017231 3.8204682e-06 1.9072654e-24 0.00019498651 7.8740562e-24 6.8543242e-43)
(0.00020091188 -4.5752031e-06 1.1914266e-25 0.00013140578 -1.8869754e-24 3.7085198e-44)
(0.00017295611 -8.2132733e-06 -2.1858908e-24 8.2114711e-05 9.23277e-24 1.4666861e-42)
(0.00015325318 -8.8609029e-06 -9.5020784e-25 4.7224341e-05 1.5072755e-24 5.7792359e-44)
(0.00013843742 -6.6816626e-06 -1.9276202e-25 2.1861584e-05 1.8171679e-25 1.9727005e-45)
(0.00013024546 -5.2103318e-06 -2.3362954e-24 8.1514448e-06 1.4825542e-24 3.9327195e-43)
(0.00012457871 -6.4676865e-07 0 5.4280588e-07 0 0)
(0.0081090033 -0.0019020003 1.2310537e-22 0.0066426137 1.6482854e-22 1.3232154e-41)
(0.0056958867 -0.0026019424 2.3424338e-22 0.009477014 -8.1342655e-23 2.8629535e-41)
(0.0041407898 -0.0021776869 1.7207481e-23 0.0092661013 -7.9307661e-23 8.4829731e-43)
(0.0028143727 -0.0016900785 3.9604174e-22 0.0088891267 -6.3764099e-23 2.3023242e-40)
(0.0024389916 -0.001190667 3.1380081e-22 0.0080114621 -2.200643e-22 8.1967639e-41)
(0.0026399548 -0.00071866975 -2.3422997e-22 0.0068006872 -3.892815e-23 3.2079605e-41)
(0.0028066148 -0.00040768797 1.1385827e-23 0.0053591366 3.4410144e-22 2.6609464e-41)
(0.00275238 -0.00026205307 -5.9153041e-22 0.0038908116 -5.2537369e-23 1.5054634e-40)
(0.0023645265 -0.00013028166 -1.0637247e-22 0.0026524642 -4.6455444e-23 6.4295087e-42)
(0.0018141703 7.0194332e-05 -2.573789e-23 0.0018504451 4.7835355e-24 4.3023069e-43)
(0.0012880911 0.00011947273 3.714373e-24 0.0012970414 -1.3791288e-24 1.6029861e-44)
(0.00089794159 9.9710829e-05 5.3580534e-23 0.00092733326 -1.1804005e-23 5.1632381e-42)
(0.00064178984 7.2780272e-05 -2.52041e-24 0.00067822428 -3.4111794e-24 3.1185893e-44)
(0.00047301498 4.5070502e-05 -1.1572384e-23 0.00050229321 2.3457048e-23 2.6380468e-42)
(0.00036125435 2.1323149e-05 5.0712504e-24 0.00037018785 2.3272233e-23 1.8288061e-42)
(0.00028693708 3.207256e-06 2.9252637e-24 0.00026830841 1.8272327e-23 1.8463331e-42)
(0.00023617903 -7.8008706e-06 6.506074e-25 0.00018770019 -2.0315174e-24 3.211066e-44)
(0.00020096033 -1.3179043e-05 3.6783006e-24 0.0001254572 -1.9920608e-23 4.5231261e-42)
(0.00017483452 -1.3699885e-05 1.2818392e-25 7.7617036e-05 -5.6901807e-25 1.2463327e-44)
(0.00015600796 -1.2140938e-05 -2.4686664e-24 4.4208399e-05 3.8690541e-24 4.83952e-43)
(0.00014133443 -8.2866879e-06 0 2.0275724e-05 0 0)
(0.0001330922 -5.881017e-06 5.9317634e-24 7.5083392e-06 -3.1138266e-24 1.9541732e-42)
(0.0001272074 -6.9916922e-07 1.2148976e-25 4.9255045e-07 -1.1665049e-26 4.0124446e-46)
(0.0094914891 -0.0018419228 -6.7422603e-22 0.0067539851 -2.4856468e-22 1.5008151e-40)
(0.0070409832 -0.0028883402 8.4400701e-22 0.0099574813 2.1088216e-22 3.2080854e-40)
(0.0053832683 -0.0024479328 -5.1587326e-22 0.010008661 -1.675004e-22 1.7305687e-40)
(0.0038969485 -0.0019537001 -1.1505918e-22 0.0098582714 -2.6534175e-22 3.6306666e-41)
(0.0028068887 -0.0015617193 3.809075e-22 0.0091496179 2.2054034e-22 2.2274727e-40)
(0.0025860213 -0.0011258158 0 0.0080862389 0 0)
(0.0027772167 -0.00070460674 -5.6908961e-24 0.0066925504 1.0652226e-22 2.0018831e-42)
(0.0028757934 -0.00045075701 -2.0361774e-22 0.0051513614 -2.0227233e-22 2.9933923e-41)
(0.0027411637 -0.00030621157 -4.101492e-22 0.0036356755 1.3756825e-23 7.1228002e-41)
(0.0022732397 -8.9820764e-05 -4.1168405e-22 0.0024811018 1.181564e-22 8.9576621e-41)
(0.0016949814 9.8596729e-05 9.4361633e-23 0.001747006 5.0847377e-23 7.0325122e-42)
(0.0011803849 0.00011167902 6.2981005e-23 0.0012311536 9.6969099e-24 4.156105e-42)
(0.00082516714 8.3868655e-05 -4.2864206e-23 0.00088971131 -1.3487836e-23 3.4882517e-42)
(0.00059519271 5.3404661e-05 1.8040984e-23 0.00065703981 2.4842983e-23 1.9301085e-42)
(0.00044509067 2.5543175e-05 -1.7329342e-23 0.00048781815 -3.1479875e-23 4.2695777e-42)
(0.00034664231 3.1045109e-06 -6.6085311e-24 0.00035955426 -4.4696431e-23 7.3571199e-42)
(0.00028084978 -1.1422132e-05 4.2492674e-24 0.00025897619 3.3867099e-24 1.0488742e-42)
(0.00023571013 -1.90439e-05 1.2652091e-24 0.00017978205 -9.3599649e-24 7.0705209e-43)
(0.0002031139 -2.0648155e-05 -6.3919292e-24 0.0001189426 2.2109433e-23 6.5797857e-42)
(0.00017828733 -1.8359684e-05 1.7935436e-24 7.2834454e-05 -4.3833082e-24 6.6110622e-43)
(0.00015963101 -1.4638668e-05 6.2685379e-24 4.1080952e-05 -7.8721065e-24 2.3047102e-42)
(0.00014468075 -9.3857039e-06 -5.9610564e-24 1.8672302e-05 4.6987523e-24 1.94675e-42)
(0.0001361296 -6.2529195e-06 4.0551211e-24 6.8696693e-06 -1.8539853e-24 8.6010512e-43)
(0.00012984846 -6.7827109e-07 1.0832623e-25 4.4491186e-07 -8.5510639e-27 2.5982431e-46)
(0.010687517 -0.00178813 -2.3396499e-22 0.0068715809 -3.1044166e-22 3.6339378e-41)
(0.0084390503 -0.0031080306 9.5420494e-22 0.010435688 7.8310532e-23 3.0293476e-40)
(0.006579722 -0.0027348446 1.7284562e-22 0.01073329 -4.4495943e-22 2.7878305e-41)
(0.0051273897 -0.0022080474 1.1656717e-21 0.010858637 2.3725236e-22 8.7326957e-40)
(0.0037952316 -0.0018565531 -1.8458336e-22 0.010335875 -3.2908872e-22 7.2500011e-41)
(0.0028733781 -0.0015140701 4.9114261e-22 0.0093853427 2.8225133e-22 3.0040564e-40)
(0.0027585344 -0.0011048265 -1.5972546e-23 0.0081013749 1.2908398e-22 2.401681e-42)
(0.0029248283 -0.00073563485 7.9007862e-22 0.0065520022 1.5282554e-22 3.1799773e-40)
(0.0029511907 -0.00050922225 -8.7221523e-23 0.0049036162 -1.8538474e-22 1.2660154e-41)
(0.002727112 -0.00032223583 -2.0547072e-22 0.0033830517 -2.2845851e-23 1.8405234e-41)
(0.0021687823 -3.0363555e-05 5.120291e-23 0.0023363317 9.4110575e-23 5.7833587e-42)
(0.0015671637 0.00011080231 -1.8432505e-22 0.001653683 4.7728064e-24 2.5746799e-41)
(0.0010803332 9.6224577e-05 2.7676143e-23 0.0011741262 2.6515013e-23 1.4283779e-42)
(0.0007609913 6.3123114e-05 3.9706859e-24 0.00085845375 -8.9635389e-25 4.3437625e-44)
(0.00055626003 3.1229198e-05 -4.240405e-24 0.00063709647 -3.2957828e-23 1.9884128e-42)
(0.0004239279 3.9422241e-06 -2.3825359e-24 0.0004740669 -3.6689615e-24 9.8262196e-44)
(0.00033720725 -1.5026145e-05 1.147595e-24 0.00034779004 9.0041689e-25 4.3467807e-44)
(0.0002792222 -2.5880205e-05 1.4717615e-24 0.00024881622 -1.7800627e-23 1.8766035e-42)
(0.00023793573 -2.9000122e-05 0 0.00017098725 0 0)
(0.00020738485 -2.7139138e-05 1.1500454e-24 0.0001119286 -2.2801577e-24 5.7138575e-44)
(0.00018279622 -2.1946321e-05 3.6170512e-25 6.7825942e-05 -5.002019e-25 4.7218355e-45)
(0.00016382938 -1.6381085e-05 -7.0984639e-25 3.7890063e-05 6.9091263e-25 1.6920209e-44)
(0.0001482601 -9.9861183e-06 -9.296876e-26 1.7078029e-05 -7.3450175e-27 5.5340749e-45)
(0.00013918162 -6.3457453e-06 -6.6084179e-24 6.2455391e-06 2.5624763e-24 1.767503e-42)
(0.00013237362 -5.9005113e-07 -3.1630991e-24 4.0098884e-07 2.8178617e-25 4.3638616e-43)
(0.011750972 -0.0017561746 6.6965491e-22 0.006989479 2.8438344e-22 1.2601111e-40)
(0.0097647314 -0.0032933204 -6.3155572e-22 0.010908165 1.2096284e-23 1.1321032e-40)
(0.0077917955 -0.0030215739 -2.889991e-22 0.011499071 3.4885122e-23 2.9387934e-41)
(0.006270107 -0.0025164246 -1.6926094e-22 0.01185045 -3.2662853e-23 1.4301554e-41)
(0.005060984 -0.0021419042 -9.2705785e-22 0.011596818 -2.9527365e-22 6.2153412e-40)
(0.0037731504 -0.0018303868 -1.1885492e-22 0.010761447 2.8083239e-22 1.4319433e-41)
(0.0030113831 -0.0015088681 -2.8549155e-23 0.0095559176 1.6652964e-22 3.3709233e-42)
(0.0029660725 -0.0011313316 -4.4699248e-23 0.0080720985 -2.151838e-23 1.3796104e-42)
(0.0030760452 -0.00079749926 -6.0532882e-22 0.0063590376 -1.0958402e-22 1.76714e-40)
(0.0030380662 -0.00056550887 -3.893164e-23 0.0046214804 1.9830029e-22 1.0154113e-41)
(0.0026852717 -0.00029448684 -2.2078085e-22 0.0031486861 -6.4476356e-23 2.3196937e-41)
(0.0020470936 3.0111832e-05 3.6880286e-23 0.0022173734 -4.9181316e-24 7.8424819e-43)
(0.0014381626 0.00010559656 7.9663445e-23 0.0015679109 -2.6865957e-24 5.5968301e-42)
(0.00099067367 7.4158045e-05 -4.0473903e-24 0.0011264472 -1.398657e-23 2.1914039e-43)
(0.0007063794 3.8434399e-05 1.2841139e-23 0.00082986076 -3.5589372e-24 5.8282546e-43)
(0.00052554732 6.0434998e-06 1.1209309e-24 0.0006186799 4.6729341e-23 4.1069784e-42)
(0.00040930228 -1.8170229e-05 -1.2590964e-23 0.00045915805 5.3161036e-23 8.1285395e-42)
(0.00033339443 -3.3330762e-05 -7.76079e-25 0.00033505228 3.0314493e-23 4.1082683e-42)
(0.00028113081 -3.8985812e-05 -7.4771886e-24 0.00023739295 3.6374059e-23 8.1316935e-42)
(0.00024299696 -3.7854508e-05 -2.7160823e-25 0.00016140657 4.2752266e-25 1.7046733e-45)
(0.00021299389 -3.2213303e-05 1.4030244e-23 0.00010449938 -2.3472213e-23 7.3953217e-42)
(0.00018813399 -2.4521477e-05 2.3820182e-24 6.2661268e-05 -3.2608132e-24 3.6873333e-43)