# Field minima and maxima
# Time         	field          	min            	location(min)  	max            	location(max)  
1.20000000e-03	p              	-1.14735060e+03	(1.03340804e+00 4.06193375e-02 1.36428330e-17)	1.35228885e+03	(-1.03340804e+00 4.06193375e-02 1.52084025e-17)
1.20000000e-03	U              	(5.72765373e-01 -7.00104575e-01 -1.06847920e-17)	(9.64179915e-01 5.39939829e-01 0.00000000e+00)	(1.75994449e+00 3.14724836e-01 1.00520556e-17)	(-2.15604005e-01 1.08374234e+00 0.00000000e+00)
2.64000000e-03	p              	-4.50023505e+02	(-1.10382176e+00 -4.33950814e-02 1.31701460e-17)	3.78412341e+02	(1.10382176e+00 -4.33950814e-02 0.00000000e+00)
2.64000000e-03	U              	(4.14845761e-01 -2.43465593e-01 -1.16500404e-17)	(-1.23018879e+00 -2.44772716e-01 -5.99917166e-17)	(1.68396082e+00 4.87841801e-01 2.44472912e-18)	(-2.99983066e-01 1.06357317e+00 1.23450456e-17)
4.36800000e-03	p              	-4.10983293e+00	(-1.10382176e+00 -4.33950814e-02 1.31701460e-17)	5.41849205e+00	(1.10382176e+00 4.33950814e-02 0.00000000e+00)
4.36800000e-03	U              	(7.54525935e-01 -6.47013916e-01 -7.84586948e-19)	(9.79733345e-01 6.54574149e-01 0.00000000e+00)	(1.70449308e+00 1.62342456e-01 2.20942050e-19)	(-1.38518882e-01 1.16988517e+00 -1.04771484e-17)
6.44160000e-03	p              	-2.81405338e+00	(-1.10382176e+00 -4.33950814e-02 1.31701460e-17)	4.04124494e+00	(1.10382176e+00 4.33950814e-02 0.00000000e+00)
6.44160000e-03	U              	(4.90332184e-01 -8.85923416e-01 -2.12382613e-19)	(9.18776698e-01 6.13866613e-01 -2.47093567e-17)	(1.73731737e+00 3.65379963e-01 9.92952536e-20)	(-2.15604005e-01 1.08374234e+00 0.00000000e+00)
8.92992000e-03	p              	-1.39951216e+00	(-4.06193375e-02 -1.03340804e+00 0.00000000e+00)	1.50693839e+00	(-1.17685237e+00 -4.62739424e-02 0.00000000e+00)
8.92992000e-03	U              	(5.06856616e-01 -8.73791645e-01 -7.66982665e-20)	(9.18776698e-01 6.13866613e-01 -2.47093567e-17)	(1.73459161e+00 3.60169886e-01 9.80235553e-20)	(-2.15604005e-01 1.08374234e+00 0.00000000e+00)
1.19159040e-02	p              	-1.50097364e+00	(2.01798763e-01 1.01443080e+00 4.23815268e-17)	1.47098614e+00	(-1.17685237e+00 -4.62739424e-02 0.00000000e+00)
1.19159040e-02	U              	(3.86928625e-01 -7.92937191e-01 -9.21466940e-20)	(-9.64179915e-01 -5.39939829e-01 1.23452373e-17)	(1.73588230e+00 3.59059090e-01 1.85969491e-19)	(2.15604005e-01 -1.08374234e+00 0.00000000e+00)
1.54990848e-02	p              	-1.52705955e+00	(2.80771032e-01 -9.95500327e-01 1.43772216e-17)	1.34598117e+00	(-1.03340804e+00 -4.06193375e-02 -1.52065714e-17)
1.54990848e-02	U              	(3.98412791e-01 -7.86373034e-01 -8.16118118e-20)	(-9.64179915e-01 -5.39939829e-01 1.23452373e-17)	(1.73716322e+00 3.58069563e-01 2.41401058e-19)	(2.15604005e-01 -1.08374234e+00 0.00000000e+00)
1.97989018e-02	p              	-1.49561717e+00	(2.01798763e-01 1.01443080e+00 4.23815268e-17)	1.25620692e+00	(-1.03340804e+00 -4.06193375e-02 -1.52065714e-17)
1.97989018e-02	U              	(6.76138115e-01 -9.03028735e-01 -1.19098977e-19)	(8.67678671e-01 6.83977627e-01 0.00000000e+00)	(1.73893126e+00 3.57725047e-01 2.85977907e-19)	(2.15604005e-01 -1.08374234e+00 0.00000000e+00)
2.49586821e-02	p              	-1.46488295e+00	(2.01798763e-01 1.01443080e+00 4.23815268e-17)	1.14178082e+00	(-1.03340804e+00 -4.06193375e-02 -1.52065714e-17)
2.49586821e-02	U              	(6.83590363e-01 -8.99973958e-01 -1.40022829e-19)	(8.67678671e-01 6.83977627e-01 0.00000000e+00)	(1.74072010e+00 3.57438083e-01 3.34084604e-19)	(2.15604005e-01 -1.08374234e+00 0.00000000e+00)
3.11504185e-02	p              	-1.45114051e+00	(1.21582612e-01 -1.02709282e+00 -2.72429965e-17)	1.05758587e+00	(-1.03340804e+00 -4.06193375e-02 -1.52065714e-17)
3.11504185e-02	U              	(6.91191345e-01 -8.96429540e-01 -1.62937843e-19)	(8.67678671e-01 6.83977627e-01 0.00000000e+00)	(1.74219317e+00 3.56959073e-01 3.91568506e-19)	(2.15604005e-01 -1.08374234e+00 0.00000000e+00)
3.85805022e-02	p              	-1.43909713e+00	(1.21582612e-01 -1.02709282e+00 -2.72429965e-17)	1.00191149e+00	(-1.03340804e+00 -4.06193375e-02 -1.52065714e-17)
3.85805022e-02	U              	(6.98906583e-01 -8.92035114e-01 -1.92376361e-19)	(8.67678671e-01 6.83977627e-01 0.00000000e+00)	(1.74313965e+00 3.56080604e-01 4.54963731e-19)	(2.15604005e-01 -1.08374234e+00 0.00000000e+00)
4.74966027e-02	p              	-1.42762460e+00	(1.21582612e-01 -1.02709282e+00 -2.72429965e-17)	9.62671665e-01	(-1.03340804e+00 -4.06193375e-02 -1.52065714e-17)
4.74966027e-02	U              	(7.06405320e-01 -8.86547827e-01 -2.28092529e-19)	(8.67678671e-01 6.83977627e-01 0.00000000e+00)	(1.74334191e+00 3.54593622e-01 5.23946310e-19)	(2.15604005e-01 -1.08374234e+00 0.00000000e+00)
5.81959232e-02	p              	-1.41660682e+00	(1.21582612e-01 -1.02709282e+00 -2.72429965e-17)	9.30502634e-01	(-1.03340804e+00 -4.06193375e-02 -1.52065714e-17)
5.81959232e-02	U              	(7.13233135e-01 -8.79657248e-01 -2.68973930e-19)	(8.67678671e-01 6.83977627e-01 0.00000000e+00)	(1.74239419e+00 3.52111496e-01 5.99114578e-19)	(2.15604005e-01 -1.08374234e+00 0.00000000e+00)
7.10351079e-02	p              	-1.40507041e+00	(1.21582612e-01 -1.02709282e+00 -2.72429965e-17)	9.00329658e-01	(-1.03340804e+00 -4.06193375e-02 -1.52065714e-17)
7.10351079e-02	U              	(7.18850367e-01 -8.70915396e-01 -3.13609518e-19)	(8.67678671e-01 6.83977627e-01 0.00000000e+00)	(1.73968365e+00 3.48209883e-01 6.79784785e-19)	(2.15604005e-01 -1.08374234e+00 0.00000000e+00)
8.64421294e-02	p              	-1.39271399e+00	(1.21582612e-01 -1.02709282e+00 -2.72429965e-17)	8.69931720e-01	(-1.03340804e+00 -4.06193375e-02 -1.52065714e-17)
8.64421294e-02	U              	(7.22623172e-01 -8.59804118e-01 -3.59665886e-19)	(8.67678671e-01 6.83977627e-01 0.00000000e+00)	(1.73440739e+00 3.42572801e-01 7.65041462e-19)	(2.15604005e-01 -1.08374234e+00 0.00000000e+00)
1.04930555e-01	p              	-1.37814876e+00	(1.21582612e-01 -1.02709282e+00 -2.72429965e-17)	8.38609658e-01	(-1.03340804e+00 -4.06193375e-02 -1.52065714e-17)
1.04930555e-01	U              	(3.64488518e-01 -6.64669968e-01 -9.83639394e-20)	(1.00360472e+00 4.62658924e-01 -1.23402591e-17)	(1.72560097e+00 3.35079821e-01 8.50207396e-19)	(2.15604005e-01 -1.08374234e+00 0.00000000e+00)
1.27116666e-01	p              	-1.36251390e+00	(1.21582612e-01 -1.02709282e+00 -2.72429965e-17)	8.06304225e-01	(-1.03340804e+00 -4.06193375e-02 -1.52065714e-17)
1.27116666e-01	U              	(3.66307143e-01 -6.50219215e-01 -1.12871079e-19)	(1.00360472e+00 4.62658924e-01 -1.23402591e-17)	(1.71223954e+00 3.19193910e-01 4.93087756e-19)	(-2.15604005e-01 1.08374234e+00 0.00000000e+00)
1.53740000e-01	p              	-1.34657563e+00	(1.21582612e-01 -1.02709282e+00 -2.72429965e-17)	7.74873566e-01	(-1.03340804e+00 4.06193375e-02 1.52084025e-17)
1.53740000e-01	U              	(3.64050294e-01 -6.30686571e-01 -1.29663759e-19)	(1.00360472e+00 4.62658924e-01 -1.23402591e-17)	(1.69564517e+00 3.19179215e-01 5.39906658e-19)	(-2.15604005e-01 1.08374234e+00 0.00000000e+00)
1.85258460e-01	p              	-1.33146843e+00	(4.06193375e-02 -1.03340804e+00 0.00000000e+00)	7.45498926e-01	(-1.03340804e+00 4.06193375e-02 1.52084025e-17)
1.85258460e-01	U              	(3.56973100e-01 -6.05508296e-01 -1.46941116e-19)	(1.00360472e+00 4.62658924e-01 -1.23402591e-17)	(1.67368927e+00 3.20222750e-01 5.85142947e-19)	(-2.15604005e-01 1.08374234e+00 0.00000000e+00)
2.21741023e-01	p              	-1.31762497e+00	(4.06193375e-02 -1.03340804e+00 0.00000000e+00)	7.15592291e-01	(-1.03340804e+00 4.06193375e-02 1.52084025e-17)
2.21741023e-01	U              	(3.44530550e-01 -5.74759852e-01 -1.62328201e-19)	(1.00360472e+00 4.62658924e-01 -1.23402591e-17)	(1.74064573e+00 2.01415344e-01 8.76546124e-19)	(-1.38518882e-01 1.16988517e+00 -1.04771484e-17)
2.63271043e-01	p              	-1.30159935e+00	(4.06193375e-02 -1.03340804e+00 0.00000000e+00)	6.89840532e-01	(-1.03340804e+00 4.06193375e-02 1.52084025e-17)
2.63271043e-01	U              	(3.26608266e-01 -5.38658736e-01 -1.76241645e-19)	(1.00360472e+00 4.62658924e-01 -1.23402591e-17)	(1.73516588e+00 2.07476272e-01 9.59119883e-19)	(-1.38518882e-01 1.16988517e+00 -1.04771484e-17)
3.09938026e-01	p              	-1.28990634e+00	(4.06193375e-02 -1.03340804e+00 0.00000000e+00)	6.67610206e-01	(-1.03340804e+00 4.06193375e-02 1.52084025e-17)
3.09938026e-01	U              	(4.94330931e-01 -6.85676719e-01 -5.74326444e-19)	(-9.64179915e-01 -5.39939829e-01 1.23452373e-17)	(1.72702099e+00 2.13269390e-01 1.02936356e-18)	(-1.38518882e-01 1.16988517e+00 -1.04771484e-17)
3.61387375e-01	p              	-1.27800197e+00	(4.06193375e-02 -1.03340804e+00 0.00000000e+00)	6.48898004e-01	(-1.03340804e+00 4.06193375e-02 1.52084025e-17)
3.61387375e-01	U              	(5.54054811e-01 -5.96256472e-01 -6.49304566e-19)	(8.67678671e-01 6.83977627e-01 0.00000000e+00)	(1.71637212e+00 2.18971451e-01 1.07701448e-18)	(-1.38518882e-01 1.16988517e+00 -1.04771484e-17)
4.12925927e-01	p              	-1.26577942e+00	(4.06193375e-02 -1.03340804e+00 0.00000000e+00)	6.34485580e-01	(-1.03340804e+00 4.06193375e-02 1.52084025e-17)
4.12925927e-01	U              	(5.06231217e-01 -5.40568167e-01 -6.23429111e-19)	(8.67678671e-01 6.83977627e-01 0.00000000e+00)	(1.70439637e+00 2.24134687e-01 1.07038827e-18)	(-1.38518882e-01 1.16988517e+00 -1.04771484e-17)
4.64610908e-01	p              	-1.25305007e+00	(4.06193375e-02 -1.03340804e+00 0.00000000e+00)	6.23221050e-01	(-1.03340804e+00 4.06193375e-02 1.52084025e-17)
4.64610908e-01	U              	(4.80910302e-01 -6.68728712e-01 -6.15247355e-19)	(-9.64179915e-01 -5.39939829e-01 1.23452373e-17)	(1.69187738e+00 2.28819803e-01 1.05456190e-18)	(-1.38518882e-01 1.16988517e+00 -1.04771484e-17)
5.16492781e-01	p              	-1.23948423e+00	(4.06193375e-02 -1.03340804e+00 0.00000000e+00)	6.14334365e-01	(-1.03340804e+00 4.06193375e-02 1.52084025e-17)
5.16492781e-01	U              	(4.77335276e-01 -6.64696392e-01 -6.14987292e-19)	(-9.64179915e-01 -5.39939829e-01 1.23452373e-17)	(1.67917045e+00 2.33161365e-01 1.03637845e-18)	(-1.38518882e-01 1.16988517e+00 -1.04771484e-17)
5.68623984e-01	p              	-1.22557947e+00	(4.06193375e-02 -1.03340804e+00 0.00000000e+00)	6.07273697e-01	(-1.03340804e+00 4.06193375e-02 1.52084025e-17)
5.68623984e-01	U              	(4.74220869e-01 -6.61245776e-01 -6.15132516e-19)	(-9.64179915e-01 -5.39939829e-01 1.23452373e-17)	(1.66659644e+00 2.37469414e-01 1.01884714e-18)	(-1.38518882e-01 1.16988517e+00 -1.04771484e-17)
6.21052224e-01	p              	-1.21325135e+00	(4.06193375e-02 -1.03340804e+00 0.00000000e+00)	6.01502270e-01	(-1.03340804e+00 4.06193375e-02 1.52084025e-17)
6.21052224e-01	U              	(9.30892825e-01 -6.96430421e-01 -6.34308199e-19)	(9.20551920e-01 8.50888025e-01 9.90146453e-18)	(1.65432373e+00 2.41850991e-01 1.00495285e-18)	(-1.38518882e-01 1.16988517e+00 -1.04771484e-17)
6.73811517e-01	p              	-1.20075154e+00	(4.06193375e-02 -1.03340804e+00 0.00000000e+00)	5.96810694e-01	(-1.03340804e+00 4.06193375e-02 1.52084025e-17)
6.73811517e-01	U              	(9.15618009e-01 -6.82595850e-01 -6.26396555e-19)	(9.20551920e-01 8.50888025e-01 9.90146453e-18)	(1.64227475e+00 2.46189893e-01 9.91021838e-19)	(-1.38518882e-01 1.16988517e+00 -1.04771484e-17)
7.26828793e-01	p              	-1.18834978e+00	(4.06193375e-02 -1.03340804e+00 0.00000000e+00)	5.93041896e-01	(-1.03340804e+00 -4.06193375e-02 -1.52065714e-17)
7.26828793e-01	U              	(4.67140086e-01 -6.53468736e-01 -6.17004108e-19)	(-9.64179915e-01 -5.39939829e-01 1.23452373e-17)	(1.63042264e+00 2.50378767e-01 9.76568442e-19)	(-1.38518882e-01 1.16988517e+00 -1.04771484e-17)
7.80075936e-01	p              	-1.17614037e+00	(4.06193375e-02 -1.03340804e+00 0.00000000e+00)	5.89949867e-01	(-1.03340804e+00 4.06193375e-02 1.52084025e-17)
7.80075936e-01	U              	(4.65347755e-01 -6.51493367e-01 -6.17225394e-19)	(-9.64179915e-01 -5.39939829e-01 1.23452373e-17)	(1.61879449e+00 2.54415628e-01 9.62856099e-19)	(-1.38518882e-01 1.16988517e+00 -1.04771484e-17)
8.33554672e-01	p              	-1.16387890e+00	(4.06193375e-02 -1.03340804e+00 0.00000000e+00)	5.87471105e-01	(-1.03340804e+00 4.06193375e-02 1.52084025e-17)
8.33554672e-01	U              	(4.63760267e-01 -6.49736389e-01 -6.17366853e-19)	(-9.64179915e-01 -5.39939829e-01 1.23452373e-17)	(1.60753177e+00 2.58376652e-01 9.49120259e-19)	(-1.38518882e-01 1.16988517e+00 -1.04771484e-17)
8.87261825e-01	p              	-1.15179517e+00	(4.06193375e-02 -1.03340804e+00 0.00000000e+00)	5.85462871e-01	(-1.03340804e+00 4.06193375e-02 1.52084025e-17)
8.87261825e-01	U              	(4.62346715e-01 -6.48150922e-01 -6.17542878e-19)	(-9.64179915e-01 -5.39939829e-01 1.23452373e-17)	(1.59669875e+00 2.62176310e-01 9.36623597e-19)	(-1.38518882e-01 1.16988517e+00 -1.04771484e-17)
9.41144262e-01	p              	-1.13977595e+00	(4.06193375e-02 -1.03340804e+00 0.00000000e+00)	5.83841212e-01	(-1.03340804e+00 4.06193375e-02 1.52084025e-17)
9.41144262e-01	U              	(4.61081893e-01 -6.46708154e-01 -6.17392135e-19)	(-9.64179915e-01 -5.39939829e-01 1.23452373e-17)	(1.58629913e+00 2.65692246e-01 9.23095569e-19)	(-1.38518882e-01 1.16988517e+00 -1.04771484e-17)
9.95013266e-01	p              	-1.12771824e+00	(4.06193375e-02 -1.03340804e+00 0.00000000e+00)	5.82556442e-01	(-1.03340804e+00 4.06193375e-02 1.52084025e-17)
9.95013266e-01	U              	(4.59944442e-01 -6.45389353e-01 -6.16082844e-19)	(-9.64179915e-01 -5.39939829e-01 1.23452373e-17)	(1.57632378e+00 2.68853713e-01 9.08029365e-19)	(-1.38518882e-01 1.16988517e+00 -1.04771484e-17)
1.04888821e+00	p              	-1.11570687e+00	(4.06193375e-02 -1.03340804e+00 0.00000000e+00)	5.81584764e-01	(-1.03340804e+00 4.06193375e-02 1.52084025e-17)
1.04888821e+00	U              	(4.58906752e-01 -6.44172878e-01 -6.14648456e-19)	(-9.64179915e-01 -5.39939829e-01 1.23452373e-17)	(1.56672534e+00 2.71742552e-01 8.93075324e-19)	(-1.38518882e-01 1.16988517e+00 -1.04771484e-17)
1.10278869e+00	p              	-1.10377346e+00	(4.06193375e-02 -1.03340804e+00 0.00000000e+00)	5.80834953e-01	(-1.03340804e+00 4.06193375e-02 1.52084025e-17)
1.10278869e+00	U              	(4.57946898e-01 -6.43040910e-01 -6.13367206e-19)	(-9.64179915e-01 -5.39939829e-01 1.23452373e-17)	(1.55747985e+00 2.74439943e-01 8.78768760e-19)	(-1.38518882e-01 1.16988517e+00 -1.04771484e-17)
1.15673080e+00	p              	-1.09192530e+00	(4.06193375e-02 -1.03340804e+00 0.00000000e+00)	5.80272059e-01	(-1.03340804e+00 4.06193375e-02 1.52084025e-17)
1.15673080e+00	U              	(4.57048253e-01 -6.41978584e-01 -6.12218527e-19)	(-9.64179915e-01 -5.39939829e-01 1.23452373e-17)	(1.54856531e+00 2.76990666e-01 8.64992170e-19)	(-1.38518882e-01 1.16988517e+00 -1.04771484e-17)
1.21072582e+00	p              	-1.08016235e+00	(4.06193375e-02 -1.03340804e+00 0.00000000e+00)	5.79859330e-01	(-1.03340804e+00 4.06193375e-02 1.52084025e-17)
1.21072582e+00	U              	(4.56198269e-01 -6.40973442e-01 -6.11164927e-19)	(-9.64179915e-01 -5.39939829e-01 1.23452373e-17)	(1.53996512e+00 2.79409039e-01 8.51953233e-19)	(-1.38518882e-01 1.16988517e+00 -1.04771484e-17)
1.26478670e+00	p              	-1.06908061e+00	(-4.06193375e-02 -1.03340804e+00 0.00000000e+00)	5.79599492e-01	(-1.03340804e+00 4.06193375e-02 1.52084025e-17)
1.26478670e+00	U              	(4.55387775e-01 -6.40015230e-01 -6.10214567e-19)	(-9.64179915e-01 -5.39939829e-01 1.23452373e-17)	(1.53166288e+00 2.81683208e-01 8.39747297e-19)	(-1.38518882e-01 1.16988517e+00 -1.04771484e-17)
1.31892813e+00	p              	-1.05839327e+00	(-4.06193375e-02 -1.03340804e+00 0.00000000e+00)	5.79460993e-01	(-1.03340804e+00 4.06193375e-02 1.52084025e-17)
1.31892813e+00	U              	(4.54609012e-01 -6.39095032e-01 -6.09363610e-19)	(-9.64179915e-01 -5.39939829e-01 1.23452373e-17)	(1.52362524e+00 2.83822579e-01 8.27958193e-19)	(-1.38518882e-01 1.16988517e+00 -1.04771484e-17)
1.37315197e+00	p              	-1.04779174e+00	(-4.06193375e-02 -1.03340804e+00 0.00000000e+00)	5.79371195e-01	(-1.03340804e+00 4.06193375e-02 1.52084025e-17)
1.37315197e+00	U              	(4.53855863e-01 -6.38205684e-01 -6.08539252e-19)	(-9.64179915e-01 -5.39939829e-01 1.23452373e-17)	(1.51582862e+00 2.85858362e-01 8.16270296e-19)	(-1.38518882e-01 1.16988517e+00 -1.04771484e-17)
1.42742771e+00	p              	-1.03734449e+00	(-4.06193375e-02 -1.03340804e+00 0.00000000e+00)	5.79368422e-01	(-1.03340804e+00 4.06193375e-02 1.52084025e-17)
1.42742771e+00	U              	(4.53125718e-01 -6.37343019e-01 -6.07571585e-19)	(-9.64179915e-01 -5.39939829e-01 1.23452373e-17)	(1.50824509e+00 2.87791255e-01 8.04589840e-19)	(-1.38518882e-01 1.16988517e+00 -1.04771484e-17)
1.48176598e+00	p              	-1.02704255e+00	(-4.06193375e-02 -1.03340804e+00 0.00000000e+00)	5.79408336e-01	(-1.03340804e+00 4.06193375e-02 1.52084025e-17)
1.48176598e+00	U              	(4.52414843e-01 -6.36502393e-01 -6.06631916e-19)	(-9.64179915e-01 -5.39939829e-01 1.23452373e-17)	(1.50085011e+00 2.89608854e-01 7.93391877e-19)	(-1.38518882e-01 1.16988517e+00 -1.04771484e-17)
1.53617565e+00	p              	-1.01677594e+00	(-4.06193375e-02 -1.03340804e+00 0.00000000e+00)	5.79551165e-01	(-1.03340804e+00 4.06193375e-02 1.52084025e-17)
1.53617565e+00	U              	(4.51719723e-01 -6.35679558e-01 -6.05753632e-19)	(-9.64179915e-01 -5.39939829e-01 1.23452373e-17)	(1.49361365e+00 2.91314615e-01 7.82559498e-19)	(-1.38518882e-01 1.16988517e+00 -1.04771484e-17)
1.59066395e+00	p              	-1.00678601e+00	(-4.06193375e-02 -1.03340804e+00 0.00000000e+00)	5.79659285e-01	(-1.03340804e+00 4.06193375e-02 1.52084025e-17)
1.59066395e+00	U              	(4.51038225e-01 -6.34871930e-01 -6.04944682e-19)	(-9.64179915e-01 -5.39939829e-01 1.23452373e-17)	(1.48650881e+00 2.92921781e-01 7.72149800e-19)	(-1.38518882e-01 1.16988517e+00 -1.04771484e-17)
1.64523543e+00	p              	-9.96825960e-01	(-4.06193375e-02 -1.03340804e+00 0.00000000e+00)	5.79842331e-01	(-1.03340804e+00 4.06193375e-02 1.52084025e-17)
1.64523543e+00	U              	(4.50367980e-01 -6.34076728e-01 -6.04166405e-19)	(-9.64179915e-01 -5.39939829e-01 1.23452373e-17)	(1.47951478e+00 2.94450190e-01 7.62050015e-19)	(-1.38518882e-01 1.16988517e+00 -1.04771484e-17)
1.69989483e+00	p              	-9.86981817e-01	(-4.06193375e-02 -1.03340804e+00 0.00000000e+00)	5.80049627e-01	(-1.03340804e+00 4.06193375e-02 1.52084025e-17)
1.69989483e+00	U              	(4.49707126e-01 -6.33291741e-01 -6.03423371e-19)	(-9.64179915e-01 -5.39939829e-01 1.23452373e-17)	(1.47261975e+00 2.95885340e-01 7.52153093e-19)	(-1.38518882e-01 1.16988517e+00 -1.04771484e-17)
1.75464781e+00	p              	-9.77216017e-01	(-4.06193375e-02 -1.03340804e+00 0.00000000e+00)	5.80296871e-01	(-1.03340804e+00 4.06193375e-02 1.52084025e-17)
1.75464781e+00	U              	(4.49054012e-01 -6.32515017e-01 -6.02717094e-19)	(-9.64179915e-01 -5.39939829e-01 1.23452373e-17)	(1.46581268e+00 2.97217509e-01 7.42475230e-19)	(-1.38518882e-01 1.16988517e+00 -1.04771484e-17)
1.80950048e+00	p              	-9.67666837e-01	(-4.06193375e-02 -1.03340804e+00 0.00000000e+00)	5.80507330e-01	(-1.03340804e+00 4.06193375e-02 1.52084025e-17)
1.80950048e+00	U              	(4.48407636e-01 -6.31745334e-01 -6.02059467e-19)	(-9.64179915e-01 -5.39939829e-01 1.23452373e-17)	(1.45909105e+00 2.98471466e-01 7.33070767e-19)	(-1.38518882e-01 1.16988517e+00 -1.04771484e-17)
1.86439914e+00	p              	-9.58284398e-01	(-4.06193375e-02 -1.03340804e+00 0.00000000e+00)	5.80713681e-01	(-1.03340804e+00 4.06193375e-02 1.52084025e-17)
1.86439914e+00	U              	(4.47768057e-01 -6.30982538e-01 -6.01111402e-19)	(-9.64179915e-01 -5.39939829e-01 1.23452373e-17)	(1.45245788e+00 2.99664930e-01 7.23559685e-19)	(-1.38518882e-01 1.16988517e+00 -1.04771484e-17)
1.91931318e+00	p              	-9.49103422e-01	(-4.06193375e-02 -1.03340804e+00 0.00000000e+00)	5.80890854e-01	(-1.03340804e+00 4.06193375e-02 1.52084025e-17)
1.91931318e+00	U              	(4.47135179e-01 -6.30226346e-01 -5.99938596e-19)	(-9.64179915e-01 -5.39939829e-01 1.23452373e-17)	(1.55426708e+00 5.96190841e-02 7.36993976e-19)	(1.66357433e-01 1.40459629e+00 -7.82047486e-18)
1.97425064e+00	p              	-9.40018226e-01	(-4.06193375e-02 -1.03340804e+00 0.00000000e+00)	5.81128061e-01	(-1.03340804e+00 4.06193375e-02 1.52084025e-17)
1.97425064e+00	U              	(4.46507929e-01 -6.29475667e-01 -5.98776265e-19)	(-9.64179915e-01 -5.39939829e-01 1.23452373e-17)	(1.55149242e+00 6.44063699e-02 7.26081529e-19)	(1.66357433e-01 1.40459629e+00 -7.82047486e-18)
2.02921986e+00	p              	-9.31078420e-01	(-4.06193375e-02 -1.03340804e+00 0.00000000e+00)	5.81317515e-01	(-1.03340804e+00 4.06193375e-02 1.52084025e-17)
2.02921986e+00	U              	(4.45885759e-01 -6.28730011e-01 -5.97681089e-19)	(-9.64179915e-01 -5.39939829e-01 1.23452373e-17)	(1.54864031e+00 6.90600661e-02 7.15521478e-19)	(1.66357433e-01 1.40459629e+00 -7.82047486e-18)
2.08423196e+00	p              	-9.22278986e-01	(-4.06193375e-02 -1.03340804e+00 0.00000000e+00)	5.81494526e-01	(-1.03340804e+00 4.06193375e-02 1.52084025e-17)
2.08423196e+00	U              	(4.45268211e-01 -6.27988948e-01 -5.96666499e-19)	(-9.64179915e-01 -5.39939829e-01 1.23452373e-17)	(1.54569833e+00 7.36091396e-02 7.05204200e-19)	(1.66357433e-01 1.40459629e+00 -7.82047486e-18)
2.13929881e+00	p              	-9.13733638e-01	(-4.06193375e-02 -1.03340804e+00 0.00000000e+00)	5.81609335e-01	(-1.03340804e+00 4.06193375e-02 1.52084025e-17)
2.13929881e+00	U              	(4.44655185e-01 -6.27252394e-01 -5.95744586e-19)	(-9.64179915e-01 -5.39939829e-01 1.23452373e-17)	(1.54269505e+00 7.80799757e-02 6.95301109e-19)	(1.66357433e-01 1.40459629e+00 -7.82047486e-18)
2.19443224e+00	p              	-9.05287480e-01	(-4.06193375e-02 -1.03340804e+00 0.00000000e+00)	5.81751862e-01	(-1.03340804e+00 4.06193375e-02 1.52084025e-17)
2.19443224e+00	U              	(4.44046087e-01 -6.26519818e-01 -5.94903092e-19)	(-9.64179915e-01 -5.39939829e-01 1.23452373e-17)	(1.53965211e+00 8.24874841e-02 6.85721378e-19)	(1.66357433e-01 1.40459629e+00 -7.82047486e-18)
2.24964384e+00	p              	-8.97007762e-01	(-4.06193375e-02 -1.03340804e+00 0.00000000e+00)	5.81872024e-01	(-1.03340804e+00 4.06193375e-02 1.52084025e-17)
2.24964384e+00	U              	(4.43440168e-01 -6.25790642e-01 -5.94138898e-19)	(-9.64179915e-01 -5.39939829e-01 1.23452373e-17)	(1.53658053e+00 8.68326714e-02 6.76436564e-19)	(1.66357433e-01 1.40459629e+00 -7.82047486e-18)
2.30494426e+00	p              	-8.88986154e-01	(-4.06193375e-02 -1.03340804e+00 0.00000000e+00)	5.81934795e-01	(-1.03340804e+00 4.06193375e-02 1.52084025e-17)
2.30494426e+00	U              	(4.42838047e-01 -6.25065308e-01 -5.93470168e-19)	(-9.64179915e-01 -5.39939829e-01 1.23452373e-17)	(1.53348387e+00 9.11043537e-02 6.67529101e-19)	(1.66357433e-01 1.40459629e+00 -7.82047486e-18)
2.36031760e+00	p              	-8.81127550e-01	(-4.06193375e-02 -1.03340804e+00 0.00000000e+00)	5.81976694e-01	(-1.03340804e+00 4.06193375e-02 1.52084025e-17)
2.36031760e+00	U              	(4.42240019e-01 -6.24344088e-01 -5.92730341e-19)	(-9.64179915e-01 -5.39939829e-01 1.23452373e-17)	(1.53036776e+00 9.52898988e-02 6.58753374e-19)	(1.66357433e-01 1.40459629e+00 -7.82047486e-18)
2.41573450e+00	p              	-8.73516695e-01	(-4.06193375e-02 -1.03340804e+00 0.00000000e+00)	5.81938768e-01	(-1.03340804e+00 4.06193375e-02 1.52084025e-17)
2.41573450e+00	U              	(4.41646836e-01 -6.23627732e-01 -5.91826509e-19)	(-9.64179915e-01 -5.39939829e-01 1.23452373e-17)	(1.52724337e+00 9.93784592e-02 6.50030961e-19)	(1.66357433e-01 1.40459629e+00 -7.82047486e-18)
2.47119975e+00	p              	-8.65936160e-01	(-4.06193375e-02 -1.03340804e+00 0.00000000e+00)	5.81956782e-01	(-1.03340804e+00 4.06193375e-02 1.52084025e-17)
2.47119975e+00	U              	(4.41058050e-01 -6.22915943e-01 -5.90917514e-19)	(-9.64179915e-01 -5.39939829e-01 1.23452373e-17)	(1.52411368e+00 1.03386459e-01 6.41537140e-19)	(1.66357433e-01 1.40459629e+00 -7.82047486e-18)
2.52671824e+00	p              	-8.58837910e-01	(-1.21582612e-01 -1.02709282e+00 0.00000000e+00)	5.81990720e-01	(-1.03340804e+00 4.06193375e-02 1.52084025e-17)
2.52671824e+00	U              	(4.40473415e-01 -6.22208624e-01 -5.90048970e-19)	(-9.64179915e-01 -5.39939829e-01 1.23452373e-17)	(1.52098289e+00 1.07312021e-01 6.33395546e-19)	(1.66357433e-01 1.40459629e+00 -7.82047486e-18)
2.58229490e+00	p              	-8.52163513e-01	(-1.21582612e-01 -1.02709282e+00 0.00000000e+00)	5.81924737e-01	(-1.03340804e+00 4.06193375e-02 1.52084025e-17)
2.58229490e+00	U              	(4.26098383e-01 -4.97851592e-01 -4.94493556e-19)	(1.66485474e+00 6.14253693e-01 0.00000000e+00)	(1.51785327e+00 1.11155182e-01 6.25623314e-19)	(1.66357433e-01 1.40459629e+00 -7.82047486e-18)
2.63793464e+00	p              	-8.45673790e-01	(-1.21582612e-01 -1.02709282e+00 0.00000000e+00)	5.81811006e-01	(-1.03340804e+00 4.06193375e-02 1.52084025e-17)
2.63793464e+00	U              	(4.39318479e-01 -6.20809400e-01 -5.88466293e-19)	(-9.64179915e-01 -5.39939829e-01 1.23452373e-17)	(1.51484307e+00 1.14923127e-01 6.18325550e-19)	(1.66357433e-01 1.40459629e+00 -7.82047486e-18)
2.69364349e+00	p              	-8.39430672e-01	(-1.21582612e-01 -1.02709282e+00 0.00000000e+00)	5.81627478e-01	(-1.03340804e+00 4.06193375e-02 1.52084025e-17)
2.69364349e+00	U              	(4.38749025e-01 -6.20118550e-01 -5.87757523e-19)	(-9.64179915e-01 -5.39939829e-01 1.23452373e-17)	(1.51198197e+00 1.18618011e-01 6.11664364e-19)	(1.66357433e-01 1.40459629e+00 -7.82047486e-18)
2.74942859e+00	p              	-8.33273669e-01	(-1.21582612e-01 -1.02709282e+00 0.00000000e+00)	5.81496396e-01	(-1.03340804e+00 4.06193375e-02 1.52084025e-17)
2.74942859e+00	U              	(4.38184329e-01 -6.19433139e-01 -5.87086790e-19)	(-9.64179915e-01 -5.39939829e-01 1.23452373e-17)	(1.50903494e+00 1.22242215e-01 6.04364559e-19)	(1.66357433e-01 1.40459629e+00 -7.82047486e-18)
2.80529450e+00	p              	-8.27352786e-01	(-1.21582612e-01 -1.02709282e+00 0.00000000e+00)	5.81296396e-01	(-1.03340804e+00 4.06193375e-02 1.52084025e-17)
2.80529450e+00	U              	(4.37624819e-01 -6.18753658e-01 -5.86471146e-19)	(-9.64179915e-01 -5.39939829e-01 1.23452373e-17)	(1.50598949e+00 1.25771974e-01 5.97322905e-19)	(1.66357433e-01 1.40459629e+00 -7.82047486e-18)
2.86124407e+00	p              	-8.21391604e-01	(-1.21582612e-01 -1.02709282e+00 0.00000000e+00)	5.81198119e-01	(-1.03340804e+00 4.06193375e-02 1.52084025e-17)
2.86124407e+00	U              	(4.37069990e-01 -6.18079634e-01 -5.85871896e-19)	(-9.64179915e-01 -5.39939829e-01 1.23452373e-17)	(1.50288146e+00 1.29175104e-01 5.90402885e-19)	(1.66357433e-01 1.40459629e+00 -7.82047486e-18)
2.91727987e+00	p              	-8.15785246e-01	(-1.21582612e-01 -1.02709282e+00 0.00000000e+00)	5.80956409e-01	(-1.03340804e+00 4.06193375e-02 1.52084025e-17)
2.91727987e+00	U              	(4.36520599e-01 -6.17411735e-01 -5.85315277e-19)	(-9.64179915e-01 -5.39939829e-01 1.23452373e-17)	(1.49975199e+00 1.32447312e-01 5.83470288e-19)	(1.66357433e-01 1.40459629e+00 -7.82047486e-18)
2.97340555e+00	p              	-8.10379884e-01	(-1.21582612e-01 -1.02709282e+00 0.00000000e+00)	5.80658967e-01	(-1.03340804e+00 4.06193375e-02 1.52084025e-17)
2.97340555e+00	U              	(4.32768257e-01 -5.22057653e-01 -4.21085291e-19)	(2.00184936e+00 5.64790422e-01 0.00000000e+00)	(1.49662339e+00 1.35591628e-01 5.76595961e-19)	(1.66357433e-01 1.40459629e+00 -7.82047486e-18)
3.02962483e+00	p              	-8.04962446e-01	(-1.21582612e-01 -1.02709282e+00 0.00000000e+00)	5.80427533e-01	(-1.03340804e+00 4.06193375e-02 1.52084025e-17)
3.02962483e+00	U              	(4.19624181e-01 -5.23708857e-01 -4.40958445e-19)	(2.00184936e+00 5.64790422e-01 0.00000000e+00)	(1.49350213e+00 1.38608764e-01 5.69906841e-19)	(1.66357433e-01 1.40459629e+00 -7.82047486e-18)
3.08594126e+00	p              	-7.99663562e-01	(-1.21582612e-01 -1.02709282e+00 0.00000000e+00)	5.80144072e-01	(-1.03340804e+00 4.06193375e-02 1.52084025e-17)
3.08594126e+00	U              	(4.06259153e-01 -5.24430191e-01 -4.60517189e-19)	(2.00184936e+00 5.64790422e-01 0.00000000e+00)	(1.49039837e+00 1.41502619e-01 5.63672625e-19)	(1.66357433e-01 1.40459629e+00 -7.82047486e-18)
3.14235854e+00	p              	-7.94564278e-01	(-1.21582612e-01 -1.02709282e+00 0.00000000e+00)	5.79812026e-01	(-1.03340804e+00 4.06193375e-02 1.52084025e-17)
3.14235854e+00	U              	(3.92657755e-01 -5.24302047e-01 -4.80855617e-19)	(2.00184936e+00 5.64790422e-01 0.00000000e+00)	(1.48732221e+00 1.44291531e-01 5.57777140e-19)	(1.66357433e-01 1.40459629e+00 -7.82047486e-18)
3.19888053e+00	p              	-7.89635432e-01	(-1.21582612e-01 -1.02709282e+00 0.00000000e+00)	5.79453136e-01	(-1.03340804e+00 4.06193375e-02 1.52084025e-17)
3.19888053e+00	U              	(3.78938651e-01 -5.23276144e-01 -4.98561608e-19)	(2.00184936e+00 5.64790422e-01 0.00000000e+00)	(1.48428572e+00 1.47008875e-01 5.52143936e-19)	(1.66357433e-01 1.40459629e+00 -7.82047486e-18)
3.25550991e+00	p              	-7.84734369e-01	(-1.21582612e-01 -1.02709282e+00 0.00000000e+00)	5.79140914e-01	(-1.03340804e+00 4.06193375e-02 1.52084025e-17)
3.25550991e+00	U              	(4.33352855e-01 -6.13549224e-01 -5.82740685e-19)	(-9.64179915e-01 -5.39939829e-01 1.23452373e-17)	(1.48132397e+00 1.49697658e-01 5.46463335e-19)	(1.66357433e-01 1.40459629e+00 -7.82047486e-18)
3.31219782e+00	p              	-7.79953208e-01	(-1.21582612e-01 -1.02709282e+00 0.00000000e+00)	5.78821416e-01	(-1.03340804e+00 4.06193375e-02 1.52084025e-17)
3.31219782e+00	U              	(4.32846971e-01 -6.12930962e-01 -5.82150373e-19)	(-9.64179915e-01 -5.39939829e-01 1.23452373e-17)	(1.47843400e+00 1.52367030e-01 5.40848727e-19)	(1.66357433e-01 1.40459629e+00 -7.82047486e-18)
3.36894819e+00	p              	-7.75351637e-01	(-1.21582612e-01 -1.02709282e+00 0.00000000e+00)	5.78459833e-01	(-1.03340804e+00 4.06193375e-02 1.52084025e-17)
3.36894819e+00	U              	(4.32347964e-01 -6.12320527e-01 -5.81549911e-19)	(-9.64179915e-01 -5.39939829e-01 1.23452373e-17)	(1.47559542e+00 1.55011073e-01 5.35557476e-19)	(1.66357433e-01 1.40459629e+00 -7.82047486e-18)