/*--------------------------------*- C++ -*----------------------------------*\
| =========                 |                                                 |
| \\      /  F ield         | OpenFOAM: The Open Source CFD Toolbox           |
|  \\    /   O peration     | Version:  5.0                                   |
|   \\  /    A nd           | Web:      www.OpenFOAM.org                      |
|    \\/     M anipulation  |                                                 |
\*---------------------------------------------------------------------------*/
FoamFile
{
    version     2.0;
    format      ascii;
    class       volScalarField;
    location    "100";
    object      ddt0(nuTilda);
}
// * * * * * * * * * * * * * * * * * * * * * * * * * * * * * * * * * * * * * //

dimensions      [0 2 -2 0 0 0 0];

internalField   nonuniform List<scalar> 
9520
(
-1.496637e-33
-1.5749372e-31
-1.5205154e-33
-8.1335653e-30
-1.5886653e-31
-1.4411136e-33
-2.7316039e-28
-8.1502169e-30
-1.4940014e-31
-1.2863906e-33
-6.7058457e-27
-2.722486e-28
-7.6095759e-30
-1.3239862e-31
-1.088988e-33
-1.2833798e-25
-6.6569341e-27
-2.5264793e-28
-6.7015085e-30
-1.1152967e-31
-8.8860372e-34
-1.9944403e-24
-1.2708446e-25
-6.1480635e-27
-2.2136277e-28
-5.62274e-30
-9.0896793e-32
-7.1517243e-34
-2.588091e-23
-1.973329e-24
-1.1697921e-25
-5.3663544e-27
-1.8521181e-28
-4.5794072e-30
-7.3286576e-32
-5.7876865e-34
-2.8612855e-22
-2.5635917e-23
-1.8136147e-24
-1.0186932e-25
-4.4833621e-27
-1.50858e-28
-3.6948982e-30
-5.9226038e-32
-4.6581579e-34
-2.7351347e-21
-2.8443427e-22
-2.3577673e-23
-1.5782939e-24
-8.5098394e-26
-3.6546368e-27
-1.216948e-28
-2.9700755e-30
-4.6863704e-32
-3.4756935e-34
-2.284158e-20
-2.7371764e-21
-2.6253652e-22
-2.0542539e-23
-1.3201065e-24
-6.9472463e-26
-2.9441348e-27
-9.692581e-29
-2.2932833e-30
-3.3169877e-32
-1.981734e-34
-1.6725367e-19
-2.3118624e-20
-2.5450792e-21
-2.2947633e-22
-1.7225198e-23
-1.0801449e-24
-5.5830689e-26
-2.3140761e-27
-7.2455602e-29
-1.515722e-30
-1.5962495e-32
-1.3835653e-35
-9.9942008e-19
-1.7259547e-19
-2.1769842e-20
-2.2367959e-21
-1.9310817e-22
-1.4137616e-23
-8.6526513e-25
-4.3139862e-26
-1.660513e-27
-4.3804317e-29
-5.5904759e-31
4.2151621e-33
1.7705866e-34
2.3515221e-18
-1.0958212e-18
-1.6606518e-19
-1.9281099e-20
-1.89045e-21
-1.5912606e-22
-1.1287156e-23
-6.550297e-25
-2.9443804e-26
-8.9224572e-28
-9.6891806e-30
4.9881951e-31
2.3423267e-32
3.1951457e-34
5.5862141e-16
-1.5990433e-18
-1.1293755e-18
-1.486432e-19
-1.6367348e-20
-1.5653766e-21
-1.2672131e-22
-8.3512489e-24
-4.2102569e-25
-1.3469593e-26
-1.4669378e-29
2.5601853e-29
1.4114842e-30
3.5398732e-32
3.5230754e-34
2.9431114e-14
2.840019e-16
-6.5732944e-18
-1.0419204e-18
-1.2662285e-19
-1.3630188e-20
-1.245936e-21
-9.1565555e-23
-5.002966e-24
-1.5255337e-25
3.914182e-27
8.2709879e-28
5.2602339e-29
1.8436508e-30
3.4042432e-32
2.3462159e-34
1.0807174e-12
1.3003516e-14
-7.3999028e-17
-7.8975067e-18
-8.9009432e-19
-1.0612068e-19
-1.087962e-20
-8.8051575e-22
-5.0614468e-23
-1.24452e-24
1.2411261e-25
1.9208982e-26
1.3783085e-27
6.0079942e-29
1.5132262e-30
1.6226531e-32
-3.3430854e-35
2.8558256e-11
3.4791875e-13
-6.1863544e-15
-1.7798471e-16
-6.6907432e-18
-7.4840806e-19
-8.532772e-20
-7.5598694e-21
-4.4568106e-22
-5.7500421e-24
2.4027233e-24
3.4416881e-25
2.7255716e-26
1.3745726e-27
4.0105433e-29
3.3095892e-31
-1.6368822e-32
-4.0444437e-34
5.3678951e-10
4.7762944e-12
-4.0315867e-13
-9.7982742e-15
-1.2822099e-16
-5.3286003e-18
-6.0758827e-19
-5.8829524e-20
-3.4980626e-21
1.9348377e-23
3.5028923e-23
4.9736941e-24
4.2543844e-25
2.3407796e-26
6.6878906e-28
-7.6178285e-30
-1.5284724e-30
-5.7140964e-32
-7.928197e-34
7.0842344e-09
-2.0178431e-11
-1.6519094e-11
-4.5898518e-13
-5.937665e-15
-7.5878244e-17
-4.1802506e-18
-4.1992393e-19
-2.5101141e-20
7.6776061e-22
4.1480197e-22
5.9845102e-23
5.4076008e-24
3.0506315e-25
5.923956e-27
-6.75943e-28
-7.4326372e-29
-3.6522368e-30
-9.615268e-32
-1.0993922e-33
6.4109868e-08
-2.2536216e-09
-4.5299832e-10
-1.5486763e-11
-2.4932668e-13
-2.8691469e-15
-4.5047233e-17
-2.84188e-18
-1.6886727e-19
1.0132851e-20
4.1683047e-21
6.1594353e-22
5.7315601e-23
3.0454416e-24
-2.5145014e-26
-2.2602384e-26
-2.3765821e-27
-1.4414294e-28
-5.49728e-30
-1.2302203e-31
-1.2407164e-33
3.8566132e-07
-4.7476347e-08
-8.5501251e-09
-3.71695e-10
-7.6555591e-12
-1.1068996e-13
-1.3946014e-15
-2.4743696e-17
-1.1031859e-18
9.6192914e-20
3.6731268e-20
5.5442941e-21
5.1776126e-22
2.221452e-23
-1.9485096e-24
-5.0305482e-25
-5.5557923e-26
-4.0048779e-27
-1.9843142e-28
-6.5521259e-30
-1.3006799e-31
-1.1754651e-33
1.3597348e-06
-5.529294e-07
-1.1236026e-07
-6.3351991e-09
-1.6629668e-10
-3.1724321e-12
-5.526418e-14
-6.1756588e-16
-8.315029e-18
7.3195853e-19
2.8916215e-19
4.4759626e-20
4.0706681e-21
9.3118873e-23
-4.0349873e-23
-8.4836908e-24
-1.0093936e-24
-8.4234114e-26
-5.1086471e-27
-2.2149888e-28
-6.4930411e-30
-1.1469353e-31
-9.1007945e-34
6.8032001e-07
-4.140612e-06
-1.0293801e-06
-7.621937e-08
-2.5180806e-09
-6.3415773e-11
-1.7847847e-12
-2.6619877e-14
-1.6926856e-16
4.6413741e-18
2.0467003e-18
3.3079423e-19
2.8609362e-20
-2.7194079e-22
-5.7324663e-22
-1.1511588e-22
-1.4828726e-23
-1.4046056e-24
-1.0036408e-25
-5.3534102e-27
-2.0527581e-28
-5.2850818e-30
-7.9517458e-32
-4.9618984e-34
-1.8755707e-05
-2.0507385e-05
-6.5644097e-06
-6.517973e-07
-2.5833495e-08
-8.3421525e-10
-4.4539628e-11
-1.0473104e-12
-7.4916521e-15
1.0502657e-17
1.2869673e-17
2.2665836e-18
1.8524426e-19
-1.003284e-20
-6.434941e-21
-1.3026873e-21
-1.812287e-22
-1.9169908e-23
-1.5705409e-24
-9.8740628e-26
-4.6153597e-27
-1.5206705e-28
-3.161278e-30
-3.162695e-32
-1.5989519e-35
-7.5068645e-05
-6.7918327e-05
-2.840835e-05
-3.9323155e-06
-1.7961844e-07
-6.5538151e-09
-8.5686912e-10
-3.3680452e-11
-3.1330293e-13
-5.9101637e-16
8.8858396e-17
1.4890894e-17
1.155699e-18
-1.2129199e-19
-6.0506742e-20
-1.2610865e-20
-1.8825297e-21
-2.1922595e-22
-2.0160577e-23
-1.4474469e-24
-7.8479892e-26
-3.037625e-27
-7.279794e-29
-5.6171673e-31
1.9280424e-32
4.3681034e-34
-0.00013860068
-0.00014219446
-7.9901393e-05
-1.6415199e-05
-8.5568612e-07
-2.4099562e-08
-1.2773065e-08
-8.446355e-10
-1.0581476e-11
4.8664064e-15
2.8646016e-15
1.4526446e-16
7.8069802e-18
-1.0465004e-18
-4.9367414e-19
-1.0665199e-19
-1.6921025e-20
-2.1389667e-21
-2.1684748e-22
-1.7325429e-23
-1.0452512e-24
-4.3949897e-26
-9.5807924e-28
1.5678217e-29
1.9757849e-30
6.304201e-32
7.7536587e-34
-0.00019049608
-0.00020665511
-0.00014446032
-4.3427634e-05
-2.9345167e-06
3.5080738e-08
-1.4306551e-07
-1.5654806e-08
-2.749854e-10
2.1363597e-12
2.4247955e-13
8.2147303e-15
1.5810104e-16
-6.7322825e-18
-3.5722606e-18
-8.0148031e-19
-1.3377029e-19
-1.8076309e-20
-1.9851346e-21
-1.7227438e-22
-1.1102114e-23
-4.5598395e-25
-2.7979009e-27
1.169719e-27
9.4608558e-29
3.9308163e-30
9.0974023e-32
9.3456432e-34
-0.00023207504
-0.00025349129
-0.00018765416
-7.0760996e-05
-5.5126681e-06
6.9075168e-07
-1.1622508e-06
-2.0389897e-07
-5.2488385e-09
1.1513373e-10
1.4560081e-11
6.874836e-13
1.5463566e-14
7.7327816e-17
-2.3098205e-17
-5.4385716e-18
-9.4288391e-19
-1.34065e-19
-1.5660474e-20
-1.4388627e-21
-9.4113866e-23
-2.9743531e-24
1.8591492e-25
3.5758096e-26
2.8820649e-27
1.4727526e-28
4.8987901e-30
9.7362724e-32
8.8124399e-34
-0.0002662134
-0.00029251751
-0.00021600736
-8.2108189e-05
-1.0399837e-06
2.7847889e-06
-6.5249646e-06
-1.8167041e-06
-7.1457387e-08
3.2029063e-09
5.4944584e-10
3.841023e-11
1.3095999e-12
1.5463633e-14
-9.5046344e-17
-3.3825678e-17
-6.0077985e-18
-8.8278178e-19
-1.0747934e-19
-1.0150193e-20
-6.1923015e-22
-1.2076152e-24
5.1504323e-24
7.3251057e-25
6.3038765e-26
3.8015894e-27
1.6216152e-28
4.6614691e-30
8.0392123e-32
6.1918509e-34
-0.00029546293
-0.00032519479
-0.00024368615
-9.2581297e-05
7.2774134e-06
2.0506585e-06
-2.5250272e-05
-1.0855718e-05
-6.7894791e-07
5.2325115e-08
1.305323e-08
1.3525354e-09
7.0536405e-11
1.2735527e-12
3.9951049e-15
-2.0367568e-16
-3.5095238e-17
-5.2216149e-18
-6.4624259e-19
-6.0229733e-20
-2.8148396e-21
2.7693193e-22
8.3872693e-23
1.1340762e-23
1.0559686e-24
7.2713923e-26
3.7096707e-27
1.3500602e-28
3.223649e-30
4.242255e-32
1.8810622e-34
-0.00032283322
-0.00035140727
-0.0002670305
-0.00010776644
-6.3691037e-07
-1.6033931e-05
-6.9420324e-05
-4.3072617e-05
-4.4991646e-06
5.2359205e-07
1.9626678e-07
3.0015752e-08
2.3742806e-09
6.4234473e-11
2.8907678e-13
-3.0685891e-15
-1.9611431e-16
-2.803886e-17
-3.4360867e-18
-2.9454057e-19
-3.3931166e-21
4.576146e-21
1.0229626e-21
1.4019117e-22
1.4079971e-23
1.0755336e-24
6.2045549e-26
2.5865126e-27
6.9528426e-29
8.1077412e-31
-1.0468155e-32
-3.4385244e-34
-0.00034542343
-0.00037370555
-0.00028771703
-0.00012380895
-1.6985809e-05
-5.153144e-05
-0.0001366976
-0.00011326271
-2.0327603e-05
3.2536757e-06
1.8842638e-06
4.2147493e-07
4.996659e-08
2.0044691e-09
9.5761299e-12
-2.5442206e-13
-2.0804892e-15
-1.3749934e-16
-1.6055554e-17
-1.11954e-18
9.3999509e-20
4.9211822e-20
1.0081144e-20
1.4278733e-21
1.5309541e-22
1.2592523e-23
7.7386718e-25
3.2402001e-26
6.1330667e-28
-2.333884e-29
-2.175711e-30
-6.9678786e-32
-8.934152e-34
-0.00036288582
-0.00039006349
-0.00030496309
-0.00014483584
-3.6468052e-05
-8.6127192e-05
-0.00020066566
-0.00020500122
-6.0583654e-05
1.2699904e-05
1.1656696e-05
3.7725762e-06
6.5953381e-07
3.8677372e-08
1.2027294e-10
-1.74846e-11
-1.2369483e-13
-7.797899e-16
-6.6676464e-17
-2.3859221e-18
1.2489408e-18
4.1852651e-19
8.3247013e-20
1.2222455e-20
1.376729e-21
1.1744933e-22
7.0063512e-24
2.002209e-25
-1.1055743e-26
-1.8659758e-27
-1.2770112e-28
-5.2403576e-30
-1.2581841e-31
-1.3784944e-33
-0.00037515863
-0.00040049352
-0.00031778559
-0.00016570399
-6.1712393e-05
-0.0001160726
-0.00024650081
-0.00027943849
-0.00011904619
3.1466339e-05
4.6755549e-05
2.1687382e-05
5.4783085e-06
4.6100841e-07
-1.683445e-09
-7.2594685e-10
-7.5191355e-12
-2.0966479e-14
-2.6152461e-16
7.0542341e-18
1.0524044e-17
3.0208816e-18
5.8856933e-19
8.9004488e-20
1.0288488e-20
8.5677752e-22
3.8747309e-23
-1.6795484e-24
-5.4063649e-25
-6.0503085e-26
-4.4181985e-27
-2.2604832e-28
-7.8959832e-30
-1.7057867e-31
-1.7333369e-33
-0.00038227292
-0.00040441107
-0.0003266529
-0.00018437852
-8.7982394e-05
-0.00014133827
-0.0002776923
-0.00032680025
-0.00016843204
5.3514096e-05
0.0001223078
8.0379802e-05
2.866476e-05
3.3772535e-06
-7.9044067e-08
-1.8374851e-08
-3.025765e-10
-1.3810155e-12
-3.1995549e-15
1.2230988e-16
7.153088e-17
1.9084546e-17
3.6774301e-18
5.5470957e-19
6.3356869e-20
4.5012791e-21
-3.9694868e-23
-6.8167255e-23
-1.1824567e-23
-1.3121259e-24
-1.0718315e-25
-6.6141901e-27
-3.0289585e-28
-9.7597848e-30
-1.982444e-31
-1.918162e-33
-0.00038469506
-0.0004024953
-0.00033143024
-0.00020161154
-0.00011403831
-0.00016379714
-0.00028856345
-0.00035885646
-0.00020173658
7.0897781e-05
0.00021598852
0.00019189474
9.3639315e-05
1.4949634e-05
-1.1603612e-06
-2.8837215e-07
-7.7875943e-09
-6.4454784e-11
-2.1756639e-13
6.8043678e-16
4.2409045e-16
1.0873868e-16
2.0472997e-17
2.9803852e-18
3.1006256e-19
1.0530272e-20
-4.035524e-21
-1.1372709e-21
-1.8260182e-22
-2.1527977e-23
-1.9767753e-24
-1.4330772e-25
-8.116827e-27
-3.4771999e-28
-1.0616886e-29
-2.0641851e-31
-1.9251856e-33
-0.00038261079
-0.00039726603
-0.00033295894
-0.00021734223
-0.00013994271
-0.00018464768
-0.00029364144
-0.00036943451
-0.00022457966
7.8011573e-05
0.00028518899
0.00030913921
0.00019060668
3.8040378e-05
-9.1174079e-06
-2.8449165e-06
-1.2831529e-07
-1.9056546e-09
-1.1756704e-11
-2.2865319e-14
2.2731009e-15
5.7355796e-16
1.0357727e-16
1.3930425e-17
1.0627681e-18
-9.9607646e-20
-5.8915578e-20
-1.3605211e-20
-2.2197706e-21
-2.8292026e-22
-2.9063712e-23
-2.4258343e-24
-1.6359088e-25
-8.7391452e-27
-3.5637729e-28
-1.0435233e-29
-1.9571264e-31
-1.7711894e-33
-0.00037416576
-0.00038860248
-0.00033249033
-0.00023259072
-0.0001665253
-0.00020469572
-0.00029460428
-0.00036677403
-0.00025017659
7.5448902e-05
0.00031678612
0.00037284085
0.00025302921
4.8593876e-05
-4.2854466e-05
-1.7860049e-05
-1.3638737e-06
-3.571243e-08
-3.9493765e-10
-1.7160993e-12
1.107866e-14
2.9062927e-15
4.8853256e-16
5.5814079e-17
8.9453769e-19
-1.6939292e-18
-5.8950793e-19
-1.3071931e-19
-2.2300536e-20
-3.0820238e-21
-3.514701e-22
-3.3240836e-23
-2.598887e-24
-1.6598164e-25
-8.4573873e-27
-3.307227e-28
-9.3322126e-30
-1.6928175e-31
-1.4889281e-33
-0.00035654372
-0.00037915797
-0.00033232543
-0.00024839422
-0.00019423474
-0.00022487701
-0.00029234658
-0.00035641991
-0.00026716726
5.6273584e-05
0.00031796756
0.00038099216
0.00024552689
1.0310836e-05
-0.00012634759
-7.2128791e-05
-9.4291214e-06
-4.2871079e-07
-8.2423664e-09
-6.1287287e-11
2.0278035e-13
2.2780498e-14
2.2863234e-15
1.8889508e-16
-2.2103983e-17
-1.5480141e-17
-4.724453e-18
-1.0574099e-18
-1.9047249e-19
-2.848019e-20
-3.5755242e-21
-3.7802805e-22
-3.358277e-23
-2.4882195e-24
-1.5145032e-25
-7.3800584e-27
-2.7676572e-28
-7.5055557e-30
-1.3122656e-31
-1.1162521e-33
-0.00036710741
-0.00033865189
-0.00033852761
-0.00026571178
-0.00022327328
-0.00024501516
-0.00028809546
-0.00034028305
-0.00027625972
2.9729388e-05
0.0003022636
0.00035817801
0.00020509137
-5.58694e-05
-0.00024442482
-0.00019093755
-4.2630479e-05
-3.3282618e-06
-1.0761334e-07
-1.1906398e-09
2.0821802e-11
1.2646561e-12
2.7154085e-14
5.8145075e-16
-2.3697393e-16
-1.0937229e-16
-3.2065593e-17
-7.3891414e-18
-1.4092389e-18
-2.2701811e-19
-3.1116298e-20
-3.6338105e-21
-3.6077379e-22
-3.0285982e-23
-2.128408e-24
-1.2302616e-25
-5.6892001e-27
-2.021891e-28
-5.1828614e-30
-8.5545411e-32
-6.8692779e-34
-0.00035177777
-0.00035920171
-0.00032845687
-0.00028511694
-0.00025287176
-0.00026440178
-0.00028175678
-0.00031967354
-0.00027900615
2.9474687e-06
0.00026871083
0.00031990663
0.00015835045
-0.0001056288
-0.00033792091
-0.00034663853
-0.00012723418
-1.6794794e-05
-8.7775424e-07
-1.0543097e-08
1.1597096e-09
9.003401e-11
2.2474539e-12
1.6693478e-14
-1.6331576e-15
-6.6820649e-16
-1.8984207e-16
-4.5370458e-17
-9.1539987e-18
-1.5805142e-18
-2.3460429e-19
-2.9926886e-20
-3.271107e-21
-3.0476047e-22
-2.4002531e-23
-1.5768422e-24
-8.4521264e-26
-3.5776567e-27
-1.1417377e-28
-2.5531554e-30
-3.5356365e-32
-2.2548323e-34
-0.00030637309
-0.00036915306
-0.00034862031
-0.00031884209
-0.00028128506
-0.00028089585
-0.00027271998
-0.00029577356
-0.00027693738
-2.2472808e-05
0.00023089999
0.00027838469
0.00011286308
-0.00013347114
-0.00037751062
-0.00047137654
-0.00025809146
-5.5178796e-05
-4.3869213e-06
1.6550967e-08
3.4204226e-08
3.8148621e-09
1.553473e-10
1.9498594e-12
-5.1527978e-15
-3.5880336e-15
-1.0009072e-15
-2.480338e-16
-5.2756568e-17
-9.7050014e-18
-1.5468018e-18
-2.1317904e-19
-2.5272493e-20
-2.558304e-21
-2.1879348e-22
-1.5550487e-23
-8.9333307e-25
-3.9417006e-26
-1.2033015e-27
-1.8024155e-29
2.5370817e-31
1.735215e-32
2.533935e-34
-0.00030684328
-0.00032859358
-0.0003747991
-0.00033549661
-0.00030992682
-0.00029238504
-0.0002527442
-0.00026940079
-0.00027051024
-4.5380566e-05
0.00019208646
0.00023619969
8.2122548e-05
-0.00014311237
-0.00038070782
-0.00053865802
-0.00038475243
-0.00011914014
-1.2560184e-05
1.2610596e-06
5.7767281e-07
9.4420568e-08
6.1802623e-09
1.3127139e-10
4.6534271e-13
-1.8381457e-14
-4.822847e-15
-1.2204435e-15
-2.7220286e-16
-5.2969567e-17
-8.9818572e-18
-1.3207187e-18
-1.669661e-19
-1.7889422e-20
-1.5886429e-21
-1.1211151e-22
-5.6669409e-24
-1.2590299e-25
9.754448e-27
1.3289858e-27
8.2869526e-29
3.163027e-30
7.1496271e-32
7.4199293e-34
-0.00029450824
-0.00032747342
-0.00035405176
-0.0003750721
-0.00032009502
-0.00029995809
-0.00023135065
-0.00023955936
-0.00026094484
-6.5419688e-05
0.00015430694
0.00019349312
5.1025928e-05
-0.00014218596
-0.00034574477
-0.00055840151
-0.00047027053
-0.00017861229
-1.5478133e-05
1.2289844e-05
5.8307133e-06
1.3901111e-06
1.4248093e-07
4.9388158e-09
3.0546358e-11
-2.0748674e-13
-2.1807743e-14
-5.4620926e-15
-1.2673631e-15
-2.5864718e-16
-4.6150221e-17
-7.1305391e-18
-9.3862962e-19
-1.0213484e-19
-8.5877944e-21
-4.4770647e-22
7.8844585e-24
5.1173876e-24
6.9363137e-25
6.1430828e-26
3.9615979e-27
1.8656424e-28
6.1300926e-30
1.2638328e-31
1.2348783e-33
-0.00020962265
-0.00028857588
-0.00034752439
-0.00038435373
-0.00036927487
-0.00030360557
-0.00028831586
-0.00021281071
-0.00024897802
-8.2539602e-05
0.00011772816
0.00015293259
2.1702424e-05
-0.00014012428
-0.00030312255
-0.00050906416
-0.00051110053
-0.00020787519
1.3914908e-05
6.1343986e-05
3.6179629e-05
1.2374909e-05
1.9367936e-06
1.0613085e-07
9.3690148e-10
-1.3448342e-11
-1.3106117e-13
-2.257343e-14
-5.3633456e-15
-1.1358041e-15
-2.1031421e-16
-3.3421791e-17
-4.4055816e-18
-4.4397456e-19
-2.463429e-20
1.9626694e-21
8.0175053e-22
1.3622314e-22
1.6461841e-23
1.5447637e-24
1.1454771e-25
6.6429713e-27
2.9130872e-28
9.106522e-30
1.8112585e-31
1.7241061e-33
-0.00018167563
-0.00018878385
-0.00028294668
-0.00036716381
-0.00040067919
-0.00035977258
-0.00028627536
-0.00027488923
-0.0002321719
-9.75031e-05
8.3039509e-05
0.00011308304
-8.68526e-06
-0.00013775752
-0.00026055344
-0.00045410535
-0.00053490428
-0.00020794644
8.3018817e-05
0.00018222695
0.00014049771
6.7486595e-05
1.5708214e-05
1.3216886e-06
1.3541936e-08
-7.3812467e-10
-5.1590221e-12
-8.9992364e-14
-2.0794767e-14
-4.5039129e-15
-8.4901466e-16
-1.3412004e-16
-1.6297462e-17
-1.0707546e-18
1.2539224e-19
6.0970106e-20
1.3291393e-20
2.1171708e-21
2.6938596e-22
2.8092078e-23
2.4077011e-24
1.6784928e-25
9.3059614e-27
3.9434406e-28
1.2010389e-29
2.3417539e-31
2.195775e-33
-0.00021782985
-0.00014903261
-0.00016826691
-0.00027953622
-0.00038490748
-0.00040942329
-0.00034728299
-0.00026780329
-0.00025861513
-0.00011116567
5.0393106e-05
7.4464588e-05
-3.8558796e-05
-0.00013636115
-0.00021815673
-0.00039094194
-0.00052376837
-0.00024296026
0.00016215824
0.00035025874
0.00034660011
0.00022640554
7.6374471e-05
9.5681585e-06
5.2612092e-08
-2.3169808e-08
-2.9755167e-10
-7.6593024e-13
-7.4823937e-14
-1.6176834e-14
-3.0154596e-15
-4.4328498e-16
-3.7924394e-17
3.8109877e-18
2.6594824e-18
7.4129164e-19
1.5136534e-19
2.5035675e-20
3.4601351e-21
4.0342889e-22
3.9634676e-23
3.2520455e-24
2.1936386e-25
1.1838444e-26
4.911033e-28
1.4709248e-29
2.8310125e-31
2.6286959e-33
-0.00012437242
-0.00019707361
-0.00011581823
-0.00014800218
-0.00027738011
-0.0003993525
-0.00041297106
-0.00033196299
-0.00024783679
-0.00023915655
1.942715e-05
3.6527432e-05
-6.8359206e-05
-0.00013405112
-0.0001760925
-0.00032433539
-0.00049133488
-0.00026752049
0.00019189054
0.00049044537
0.00056971713
0.00046923586
0.00022050336
3.9510663e-05
-8.6435504e-07
-4.213923e-07
-9.9960355e-09
-3.7838418e-11
-2.8406548e-13
-5.2792159e-14
-9.2550034e-15
-1.065493e-15
4.5047277e-17
7.1464671e-17
2.5786746e-17
6.6197586e-18
1.3805288e-18
2.4335155e-19
3.6763501e-20
4.7756985e-21
5.3209984e-22
5.0480826e-23
4.0289362e-24
2.6575544e-25
1.4073528e-26
5.7505487e-28
1.7020632e-29
3.2466398e-31
2.9953996e-33
-1.0896128e-05
-0.00013503909
-0.00017221477
-8.186364e-05
-0.00012661729
-0.00027350855
-0.00040883225
-0.00041036206
-0.00031352295
-0.00022621629
-0.00021589448
-1.0178685e-06
-9.7506131e-05
-0.00013046969
-0.00013421054
-0.00025837869
-0.00044650309
-0.00028403885
0.00018862639
0.00057495877
0.00069315304
0.00063295031
0.00037558946
8.7086935e-05
-1.2279486e-05
-4.5490354e-06
-1.9365498e-07
-1.5874072e-09
-4.444981e-12
-1.5910462e-13
-2.3441452e-14
-7.0527e-16
1.1938167e-15
5.8567978e-16
1.8851238e-16
4.8667424e-17
1.0644983e-17
2.0149809e-18
3.3235917e-19
4.7800931e-20
5.9767267e-21
6.4576665e-22
5.9735423e-23
4.6696012e-24
3.0273107e-25
1.5799767e-26
6.3824792e-28
1.8729958e-29
3.5516092e-31
3.2651782e-33
-3.8379191e-05
-4.1663046e-05
-0.00014784749
-0.00014286227
-4.7486076e-05
-0.00010393616
-0.00026660717
-0.00040996106
-0.00040195795
-0.00029184308
-0.00020246359
-0.00018960942
-0.00012525034
-0.00012512664
-9.2353224e-05
-0.00019570428
-0.00039428366
-0.00029330869
0.0001703844
0.00057967305
0.0007400994
0.00063908519
0.0003934796
8.3881132e-05
-6.8179651e-05
-2.9754512e-05
-2.2461413e-06
-3.8196731e-08
-2.0564465e-10
-7.1673568e-13
-4.2298549e-14
1.1056263e-14
8.8874506e-15
3.6349633e-15
1.1517542e-15
3.0761323e-16
7.129189e-17
1.4503595e-17
2.6019223e-18
4.1137674e-19
5.7147271e-20
6.9405887e-21
7.3166787e-22
6.6283454e-23
5.0953444e-24
3.2546245e-25
1.6789571e-26
6.7244087e-28
1.9621705e-29
3.7096203e-31
3.4084375e-33
-0.00014910277
-7.5734528e-05
-7.3622092e-05
-0.00015608432
-0.0001113635
-1.3144729e-05
-7.9517407e-05
-0.00025699037
-0.00040704991
-0.00038821875
-0.00026668984
-0.0001766619
-0.0001608441
-0.00011750683
-5.1895255e-05
-0.00013594023
-0.00033965173
-0.00029440042
0.00014240897
0.00055985406
0.00070367735
0.00055239504
0.00028641704
-1.0422803e-05
-0.0002021001
-0.00011994052
-1.6044895e-05
-5.4349601e-07
-6.1099404e-09
-2.2135552e-11
-2.730139e-14
8.6945808e-14
4.8661224e-14
1.900565e-14
6.1291162e-15
1.7113282e-15
4.2109786e-16
9.1945113e-17
1.7849871e-17
3.0797909e-18
4.708729e-19
6.3529161e-20
7.5214028e-21
7.7557348e-22
6.8961979e-23
5.2226473e-24
3.2942261e-25
1.6839355e-26
6.7055568e-28
1.9516689e-29
3.6911733e-31
3.6647092e-35
-0.00010027299
-0.00016764663
-0.00011297537
-0.00010510097
-0.00015599704
-7.9501657e-05
2.1301571e-05
-5.3131171e-05
-0.00024431209
-0.00039852386
-0.00036893464
-0.00023910079
-0.00014898164
-0.00012626759
-9.2457448e-06
-8.4898205e-05
-0.00028517216
-0.00028925968
0.00010986729
0.0005223486
0.00065698112
0.00048929813
0.00015176373
-0.00010797123
-0.00035209523
-0.00030591739
-7.2213212e-05
-4.7382913e-06
-1.0565113e-07
-7.9513226e-10
-1.3986668e-12
4.4180873e-13
2.2386941e-13
8.7330077e-14
2.9044701e-14
8.5038192e-15
2.2183584e-15
5.1778913e-16
1.0821154e-16
2.0224869e-17
3.3725957e-18
4.9995146e-19
6.5598713e-20
7.5761313e-21
7.6451349e-22
6.6784719e-23
4.988568e-24
3.1133724e-25
1.5811973e-26
6.2812066e-28
1.8307231e-29
4.5336289e-33
1.8118675e-37
3.3178066e-05
-8.2679024e-05
-0.00018336393
-0.0001497685
-0.00013514893
-0.00015384836
-4.8343209e-05
5.6042696e-05
-2.4632674e-05
-0.00022876439
-0.00038333179
-0.00034500523
-0.000204928
-0.000115208
-8.7927483e-05
-2.6163794e-05
-0.00023378819
-0.00028079867
7.6036586e-05
0.00047570493
0.00060230199
0.00041564534
9.0282722e-05
-0.00017510913
-0.00042140892
-0.00052209957
-0.00021072522
-2.6088983e-05
-1.1031048e-06
-1.6665431e-08
-8.1608199e-11
1.7273163e-12
9.0862798e-13
3.6078484e-13
1.2434082e-13
3.8142808e-14
1.0511293e-14
2.6089882e-15
5.8311434e-16
1.171711e-16
2.1118236e-17
3.4031534e-18
4.8855711e-19
6.223274e-20
6.9982923e-21
6.8999106e-22
5.9242784e-23
4.3638585e-24
2.7001309e-25
1.3671222e-26
5.4436599e-28
2.5971916e-31
2.5918596e-35
3.6083668e-40
2.9680266e-05
7.4816277e-05
-6.6601506e-05
-0.00020027184
-0.00018731804
-0.00016688869
-0.00015074959
-1.7828645e-05
9.1989971e-05
4.6296761e-06
-0.00020947797
-0.00036081537
-0.00030677112
-0.00016201179
-7.5270187e-05
-5.2086842e-05
-0.00018982083
-0.00026884738
4.2047992e-05
0.00042326443
0.00054504365
0.00034759296
2.7081743e-05
-0.00019461571
-0.00038753191
-0.0006605175
-0.0004235343
-9.3176988e-05
-7.2242587e-06
-2.0675162e-07
-2.1373985e-09
-4.2762709e-13
3.3311781e-12
1.360408e-12
4.8615134e-13
1.5575409e-13
4.5108799e-14
1.183093e-14
2.8070355e-15
6.0120382e-16
1.1594725e-16
2.0081055e-17
3.1121242e-18
4.301626e-19
5.2852016e-20
5.7498946e-21
5.5082811e-22
4.6338436e-23
3.3636817e-24
2.0683555e-25
1.0499774e-26
9.0937952e-30
1.7280033e-33
6.0265289e-38
2.539469e-43
-0.0001501598
8.2143017e-05
0.00011513612
-5.0883799e-05
-0.00022101983
-0.00022733387
-0.00019888551
-0.00014741737
1.1566209e-05
0.00012788948
3.3595024e-05
-0.00018879933
-0.00032629179
-0.0002560601
-0.00010830896
-3.914779e-05
-2.3532185e-05
-0.00025957099
8.6215228e-06
0.00036676178
0.0004850126
0.00028249573
-3.2043312e-05
-0.00021791055
-0.00033834199
-0.00061845194
-0.00064425917
-0.00022602038
-3.0642597e-05
-1.5887183e-06
-3.1574168e-08
-2.0384813e-10
1.0817884e-11
4.7392125e-12
1.7522648e-12
5.8352813e-13
1.7644465e-13
4.8526859e-14
1.2117799e-14
2.7390446e-15
5.5863056e-16
1.0248072e-16
1.6859387e-17
2.4773394e-18
3.2412967e-19
3.7663778e-20
3.8813637e-21
3.5452887e-22
2.882982e-23
2.0501256e-24
1.2578854e-25
2.1477497e-28
7.1167762e-32
4.7114566e-36
4.9164875e-41
7.0883362e-47
-0.00025332913
-0.00010855972
0.00013186317
0.00015532816
-3.4102607e-05
-0.00023865648
-0.0002679949
-0.00023108175
-0.00014507585
4.146883e-05
0.0001616139
5.6579452e-05
-0.00016875569
-0.00027853931
-0.00018924369
-5.3863325e-05
-1.5500241e-05
-6.8234767e-06
-2.5056997e-05
0.00030838809
0.00042181283
0.00021847419
-9.5175735e-05
-0.0002439551
-0.00029416383
-0.00052415085
-0.00076860487
-0.00040320102
-8.777566e-05
-7.8710562e-06
-2.8331847e-07
-3.9000079e-09
1.6716243e-11
1.5524477e-11
5.8906001e-12
2.0212936e-12
6.3306728e-13
1.8089382e-13
4.704844e-14
1.1086055e-14
2.3551239e-15
4.4876552e-16
7.6292235e-17
1.1505848e-17
1.5270744e-18
1.7694813e-19
1.7745592e-20
1.5331458e-21
1.1688275e-22
8.1012603e-24
5.2525744e-25
3.5039991e-27
2.0150246e-30
2.291998e-34
4.4725742e-39
1.5417879e-44
1.0012754e-50
-5.7020629e-05
-0.00024614758
-6.4772493e-05
0.00018052739
0.00019662578
-1.4506084e-05
-0.00025494829
-0.00030917331
-0.00026341922
-0.0001423879
7.0938874e-05
0.00018905048
6.6268895e-05
-0.00014485486
-0.00021452779
-0.00010918752
-1.7891831e-05
-4.336159e-06
-1.3444305e-06
0.00024777433
0.00035468677
0.00015327845
-0.00016126449
-0.00027387818
-0.00026029806
-0.00040486831
-0.00076720762
-0.00060114063
-0.00018251518
-2.6268072e-05
-1.6225258e-06
-4.118199e-08
-2.8825858e-10
4.8290746e-11
1.9067247e-11
6.6074768e-12
2.0978008e-12
6.1576536e-13
1.6459773e-13
3.9772801e-14
8.6071365e-15
1.6492682e-15
2.7527258e-16
3.8961763e-17
4.4279826e-18
3.4222086e-19
1.8480283e-21
-5.0682533e-21
-1.0798021e-21
-1.4149734e-22
-1.4038853e-23
3.6732547e-26
4.1008114e-29
7.7555576e-33
2.5505581e-37
1.5738333e-42
2.4194622e-48
8.0429777e-55
0.00018521844
-8.9897276e-05
-0.00023314567
-2.0049932e-05
0.00022936083
0.0002394228
6.7515454e-06
-0.00026796059
-0.0003487128
-0.00029361957
-0.00013848679
0.0001043368
0.00020230811
6.6215175e-05
-0.00011328003
-0.00013200384
-4.3472613e-05
-4.3593732e-06
-9.125805e-07
-1.9174104e-07
0.00028360163
8.5204578e-05
-0.00022827467
-0.00030689056
-0.00023169706
-0.00029243401
-0.00065243862
-0.00074725103
-0.0003370127
-6.2799274e-05
-6.2115841e-06
-2.670424e-07
-3.9219793e-09
1.7451513e-10
6.3224179e-11
2.163382e-11
6.8107856e-12
1.9242764e-12
5.1928805e-13
1.2558261e-13
2.6643822e-14
4.7873153e-15
6.7142229e-16
5.3321489e-17
-5.8841486e-18
-3.6511334e-18
-9.5450271e-19
-1.8322696e-19
-2.8485379e-20
-3.688758e-21
-3.9656318e-22
1.2818037e-25
5.9899786e-28
1.9252285e-31
1.0223804e-35
1.0128302e-40
2.6954539e-46
2.2512828e-52
3.209814e-59
0.00020767657
0.0001200792
-0.00012406807
-0.00021348737
2.5654452e-05
0.00027846816
0.0002830198
3.0322823e-05
-0.00027645503
-0.00038394964
-0.0003217231
-0.00012858274
0.00013271294
0.00019885389
5.2496219e-05
-6.8740963e-05
-5.6856403e-05
-1.1862145e-05
-8.4270581e-07
-1.5827481e-07
-1.8867732e-08
1.531505e-05
-0.00029107727
-0.00034150543
-0.00020214868
-0.00018898782
-0.00050558756
-0.00081549209
-0.00050588201
-0.00014472658
-1.6597665e-05
-1.0736256e-06
-1.1587436e-08
3.149076e-09
4.3031419e-10
8.2139912e-11
2.2483299e-11
6.0021698e-12
1.4764416e-12
3.4311934e-13
6.5665615e-14
8.6809635e-15
-9.2081712e-18
-4.745851e-16
-1.9224507e-16
-5.313546e-17
-1.181687e-17
-2.2201771e-18
-3.5877212e-19
-5.0179143e-20
-6.0570533e-21
-3.7560611e-24
5.7378038e-27
3.5780931e-30
3.0512295e-34
4.6277213e-39
1.8849821e-44
2.7445432e-50
1.3059961e-56
-7.2070865e-64
-5.7444765e-05
0.0001269325
5.5417264e-05
-0.00015289046
-0.00018939568
7.1958061e-05
0.00032795576
0.00032627772
5.5322701e-05
-0.00027813541
-0.00041026032
-0.00034120197
-0.00010405328
0.00015569009
0.00016810629
2.9759136e-05
-2.8103797e-05
-1.5921775e-05
-2.2801488e-06
-1.3697215e-07
-2.0157147e-08
-1.1983956e-09
-0.00034535419
-0.0003680769
-0.00016695588
-9.1305053e-05
-0.00035388974
-0.00079185427
-0.00066333333
-0.00025792057
-4.7263314e-05
-2.2562641e-06
2.6504785e-07
8.8805129e-08
1.2312119e-08
1.160665e-09
1.0224776e-10
1.8560543e-11
4.0270865e-12
7.7752903e-13
1.0131305e-13
-9.0998551e-15
-1.2089562e-14
-5.208669e-15
-1.6485671e-15
-4.3152636e-16
-9.7182699e-17
-1.913967e-17
-3.3185481e-18
-5.0716712e-19
-6.8165201e-20
-9.6949618e-23
1.7216054e-26
4.9069696e-29
6.979399e-33
1.5964121e-37
9.3837462e-43
2.0577985e-48
1.8370268e-54
3.8780666e-61
-2.5571359e-67
-0.00039011957
-0.00013236676
4.2615461e-05
-7.6848655e-06
-0.00017340956
-0.00016238554
0.00011959334
0.00037723757
0.00036792767
8.0201991e-05
-0.00026898558
-0.00041755855
-0.00032931875
-6.623135e-05
0.00015997953
0.00010515713
1.1590592e-05
-7.461432e-06
-3.0104968e-06
-3.1169252e-07
-1.7011407e-08
-1.8152573e-09
-3.9040349e-11
-0.00038061793
-0.00012610643
5.1011382e-06
-0.00020390963
-0.00069968877
-0.00078270905
-0.00039093295
-9.6613371e-05
-5.7470783e-06
3.9088951e-06
1.4274988e-06
3.0110893e-07
4.0660842e-08
2.5529877e-09
1.0076616e-10
1.0618096e-11
1.3051974e-12
-9.9689284e-14
-1.7755166e-13
-8.9304387e-14
-3.2987822e-14
-1.0140172e-14
-2.7026459e-15
-6.3569859e-16
-1.3304322e-16
-2.4854032e-17
-4.1448744e-18
-6.1560147e-19
-1.4006833e-21
-5.681751e-25
4.5008352e-28
1.2325826e-31
4.3010056e-36
3.5527472e-41
1.0913031e-46
1.4941581e-52
8.1475119e-59
-1.1075679e-65
-3.13873e-71
-0.00037965042
-0.00042590104
-0.00020805031
-4.2152727e-05
-6.8917127e-05
-0.00018986734
-0.00013380756
0.00016752135
0.00042709997
0.00040407605
0.00010225193
-0.00024431071
-0.00039854769
-0.00028959319
-1.6816081e-05
0.00011968253
4.443802e-05
2.9459664e-06
-1.3637213e-06
-3.9302019e-07
-3.0965197e-08
-1.5346641e-09
-1.1222611e-10
3.6350555e-13
-7.8210374e-05
0.0001039764
-6.0624475e-05
-0.00056653016
-0.00084894982
-0.00052508692
-0.00015998784
-4.9410065e-06
2.1609762e-05
1.2974008e-05
4.1991294e-06
8.9714711e-07
8.8387696e-08
3.3636674e-09
5.7248028e-11
7.0464334e-13
-1.6217143e-12
-1.0410937e-12
-4.5585277e-13
-1.6413079e-13
-5.1250937e-14
-1.4180463e-14
-3.5125236e-15
-7.8284541e-16
-1.5730149e-16
-2.849048e-17
-4.6421457e-18
-1.5103091e-20
-1.3789701e-23
1.3109605e-27
1.6439951e-30
9.1963449e-35