/*--------------------------------*- C++ -*----------------------------------*\
| =========                 |                                                 |
| \\      /  F ield         | OpenFOAM: The Open Source CFD Toolbox           |
|  \\    /   O peration     | Version:  5.0                                   |
|   \\  /    A nd           | Web:      www.OpenFOAM.org                      |
|    \\/     M anipulation  |                                                 |
\*---------------------------------------------------------------------------*/
FoamFile
{
    version     2.0;
    format      ascii;
    class       volVectorField;
    location    "100";
    object      ddt0(U);
}
// * * * * * * * * * * * * * * * * * * * * * * * * * * * * * * * * * * * * * //

dimensions      [0 1 -2 0 0 0 0];

internalField   nonuniform List<vector> 
9520
(
(-9.4314534e-05 6.3261769e-06 0)
(-9.841859e-05 1.8509562e-05 0)
(-0.00011178348 3.8224431e-06 0)
(-0.00010619585 2.9795786e-05 0)
(-0.00011576019 1.080733e-05 0)
(-0.00011332308 2.3673521e-06 0)
(-0.00011737384 4.016698e-05 0)
(-0.00012302847 1.6718853e-05 0)
(-0.00011651535 6.6636193e-06 0)
(-0.00011697684 4.504941e-07 0)
(-0.00013179299 4.9827673e-05 0)
(-0.00013373878 2.1507048e-05 0)
(-0.00012310717 9.8485955e-06 0)
(-0.00011972385 1.1315972e-06 0)
(-0.00011596201 -8.1133647e-07 0)
(-0.00014909389 5.9077546e-05 0)
(-0.00014778349 2.4791207e-05 0)
(-0.00013256886 1.1537308e-05 0)
(-0.00012498207 2.1099087e-07 0)
(-0.00011792864 -2.8608041e-06 0)
(-0.00011374688 -1.4268839e-06 0)
(-0.00016896215 6.8549421e-05 0)
(-0.00016532723 2.6602304e-05 0)
(-0.00014491414 1.1418234e-05 0)
(-0.00013248494 -2.6317883e-06 0)
(-0.00012128605 -6.7165536e-06 0)
(-0.00011442907 -4.9679112e-06 0)
(-0.00011123146 -1.1198061e-06 0)
(-0.00019097426 7.9483507e-05 0)
(-0.00018703988 2.7128206e-05 0)
(-0.0001604631 9.3855016e-06 0)
(-0.00014235817 -7.7965911e-06 0)
(-0.00012640039 -1.2815636e-05 0)
(-0.0001157195 -1.00677e-05 0)
(-0.00011101779 -4.2883512e-06 0)
(-0.00010988177 -1.0063504e-07 0)
(-0.00021468739 9.3839416e-05 0)
(-0.00021422457 2.6644041e-05 0)
(-0.00017970774 5.2664168e-06 0)
(-0.00015481857 -1.5446562e-05 0)
(-0.00013323725 -2.1838847e-05 0)
(-0.00011774259 -1.7735339e-05 0)
(-0.00011036667 -8.5244781e-06 0)
(-0.00010887572 -1.1981435e-06 0)
(-0.00011038578 1.1848811e-06 0)
(-0.00023934012 0.00011476745 0)
(-0.00024906952 2.5769265e-05 0)
(-0.00020371037 -1.4068379e-06 0)
(-0.00017002881 -2.5724559e-05 0)
(-0.00014218597 -3.4250924e-05 0)
(-0.00012026409 -2.8807622e-05 0)
(-0.00010920815 -1.5303952e-05 0)
(-0.00010675644 -2.929453e-06 0)
(-0.00010896714 3.092502e-06 0)
(-0.000112825 2.3084896e-06 0)
(-0.00026590431 0.00014618182 0)
(-0.00029505829 2.5289511e-05 0)
(-0.0002339542 -1.1430902e-05 0)
(-0.00018815225 -3.8699665e-05 0)
(-0.00015371727 -5.0356255e-05 0)
(-0.00012364118 -4.4358854e-05 0)
(-0.00010707732 -2.5493365e-05 0)
(-0.0001028881 -6.7050677e-06 0)
(-0.00010599562 4.4652442e-06 0)
(-0.00011124927 7.0282346e-06 0)
(-0.00011656401 3.0301955e-06 0)
(-0.00029713577 0.00019441606 0)
(-0.0003591097 2.6307551e-05 0)
(-0.00027319693 -2.6558335e-05 0)
(-0.00020936799 -5.4778862e-05 0)
(-0.00016814021 -6.9872083e-05 0)
(-0.00012855948 -6.5515441e-05 0)
(-0.00010369548 -4.0528453e-05 0)
(-9.662275e-05 -1.3305721e-05 0)
(-0.0001004068 4.632746e-06 0)
(-0.00010796145 1.1119177e-05 0)
(-0.00011506837 9.4764547e-06 0)
(-0.00012081726 3.3178354e-06 0)
(-0.00034811711 0.00026634713 0)
(-0.00044889788 3.0602472e-05 0)
(-0.00032318374 -4.8832232e-05 0)
(-0.00023375511 -7.4898672e-05 0)
(-0.00018583965 -9.2160972e-05 0)
(-0.00013624195 -9.3355019e-05 0)
(-9.8906032e-05 -6.2190231e-05 0)
(-8.6761181e-05 -2.3977776e-05 0)
(-9.138809e-05 3.1562167e-06 0)
(-0.00010185671 1.5042025e-05 0)
(-0.00011194819 1.5508082e-05 0)
(-0.00011958925 1.014521e-05 0)
(-0.00012478163 3.1688565e-06 0)
(-0.00042761736 0.00035986235 0)
(-0.00057867531 3.1846389e-05 0)
(-0.00038430435 -8.4375763e-05 0)
(-0.00025962493 -0.00010017651 0)
(-0.00020635629 -0.00011603645 0)
(-0.00014857442 -0.0001286105 0)
(-9.3092155e-05 -9.3228258e-05 0)
(-7.1753134e-05 -4.0432306e-05 0)
(-7.7130647e-05 -4.7960465e-07 0)
(-9.2019076e-05 1.8891227e-05 0)
(-0.00010642457 2.2399365e-05 0)
(-0.00011712086 1.7280619e-05 0)
(-0.00012404101 9.4828206e-06 0)
(-0.00012818097 2.5663585e-06 0)
(-0.00052472447 0.00047324262 0)
(-0.00072918592 1.8777964e-05 0)
(-0.00043788267 -0.00014241435 0)
(-0.00028396049 -0.00013412101 0)
(-0.00022882989 -0.00013967203 0)
(-0.00016692479 -0.00017104709 0)
(-8.7295569e-05 -0.00013688295 0)
(-4.9853213e-05 -6.5450725e-05 0)
(-5.5407332e-05 -6.9538275e-06 0)
(-7.7479448e-05 2.2957509e-05 0)
(-9.8182789e-05 3.0357748e-05 0)
(-0.00011306117 2.5827088e-05 0)
(-0.00012265341 1.6699242e-05 0)
(-0.00012794481 8.2501958e-06 0)
(-0.00013120708 2.1304941e-06 0)
(-0.00064540793 0.00059833697 0)
(-0.00090181008 -1.2510251e-05 0)
(-0.00047477889 -0.00022879386 0)
(-0.00029880955 -0.00017338737 0)
(-0.00025701069 -0.00016413516 0)
(-0.00019220244 -0.00021994891 0)
(-8.3366593e-05 -0.00019753282 0)
(-1.8522254e-05 -0.00010219557 0)
(-2.3151617e-05 -1.6883587e-05 0)
(-5.6206053e-05 2.8317056e-05 0)
(-8.6157474e-05 4.1077423e-05 0)
(-0.00010741974 3.637915e-05 0)
(-0.00012059267 2.5383113e-05 0)
(-0.0001276944 1.4763806e-05 0)
(-0.00013135439 7.6576957e-06 0)
(-0.00013352185 2.9330066e-06 0)
(-0.00081198699 0.00073553458 0)
(-0.0010658378 -6.4704679e-05 0)
(-0.00049050943 -0.00035731848 0)
(-0.00029349238 -0.00021648572 0)
(-0.00028272532 -0.00018104197 0)
(-0.00022162677 -0.00026553902 0)
(-8.802356e-05 -0.00027926691 0)
(2.146399e-05 -0.00015624337 0)
(2.3179814e-05 -3.1739344e-05 0)
(-2.5918975e-05 3.6842303e-05 0)
(-6.9062845e-05 5.6376901e-05 0)
(-9.9635363e-05 5.078111e-05 0)
(-0.00011768044 3.6975016e-05 0)
(-0.00012753578 2.2582987e-05 0)
(-0.00013186334 1.384053e-05 0)
(-0.00013471945 9.1490677e-06 0)
(-0.00013704283 4.3974369e-06 0)
(-0.00099076213 0.00085573156 0)
(-0.0012770031 -0.00017192097 0)
(-0.00045580537 -0.00053362135 0)
(-0.00025035492 -0.00026356263 0)
(-0.00029742051 -0.00018902802 0)
(-0.00026445151 -0.00031388863 0)
(-0.00010658885 -0.00038790204 0)
(7.1377666e-05 -0.00023388018 0)
(8.3409028e-05 -5.3958115e-05 0)
(1.5432865e-05 4.9506019e-05 0)
(-4.5356756e-05 7.8587121e-05 0)
(-8.9971514e-05 7.0623287e-05 0)
(-0.00011474301 5.1584906e-05 0)
(-0.00012687539 3.3339251e-05 0)
(-0.00013291061 2.1051055e-05 0)
(-0.0001359096 1.633888e-05 0)
(-0.0001387546 1.2395097e-05 0)
(-0.00014340823 5.3350617e-06 0)
(-0.0011979621 0.0010460022 0)
(-0.0014926753 -0.00030894753 0)
(-0.00038298491 -0.00076268802 0)
(-0.00020189168 -0.00032251836 0)
(-0.00028923051 -0.00017514967 0)
(-0.00032173001 -0.00035997357 0)
(-0.00014233548 -0.00051889403 0)
(0.00012916547 -0.00034836991 0)
(0.00018189359 -8.0660316e-05 0)
(7.9025102e-05 7.2200518e-05 0)
(-1.0854843e-05 0.00011052017 0)
(-7.7857978e-05 9.8714008e-05 0)
(-0.00011252855 7.1124052e-05 0)
(-0.00012728062 4.6109489e-05 0)
(-0.0001347565 2.8996753e-05 0)
(-0.00013770902 2.4486305e-05 0)
(-0.00014094995 2.1700543e-05 0)
(-0.00014400925 1.5664502e-05 0)
(-0.00014620989 6.4937965e-06 0)
(-0.0014709918 0.0010769637 0)
(-0.0016712643 -0.00048299497 0)
(-0.00033712671 -0.00099771818 0)
(-0.0001829978 -0.0003021385 0)
(-0.0002976848 -0.00011619523 0)
(-0.00040217412 -0.00037007246 0)
(-0.00018970841 -0.00066082101 0)
(0.00019034948 -0.00051827422 0)
(0.00032173777 -0.00014021106 0)
(0.00017875186 9.1341994e-05 0)
(4.5714185e-05 0.00015360209 0)
(-6.1763618e-05 0.00013967418 0)
(-0.00011258941 9.7853234e-05 0)
(-0.00013007994 6.1877145e-05 0)
(-0.00013700103 3.9180307e-05 0)
(-0.00013998359 3.3158451e-05 0)
(-0.00014361545 3.2113353e-05 0)
(-0.0001471701 2.7196869e-05 0)
(-0.00014988917 1.8142688e-05 0)
(-0.00015380811 5.9320689e-06 0)
(-0.0019124499 0.0013513515 0)
(-0.0019866321 -0.00080901745 0)
(-0.00020909017 -0.001413423 0)
(-1.1018184e-05 -0.00031898229 0)
(-0.00029635099 -4.2210459e-05 0)
(-0.00054927057 -0.00033508667 0)
(-0.00033463711 -0.0008274182 0)
(0.00019953338 -0.00076404838 0)
(0.00050741052 -0.00022884586 0)
(0.00034057289 0.00013053937 0)
(0.00010884673 0.00020951904 0)
(-4.1320193e-05 0.0002013528 0)
(-0.00011780468 0.00013629721 0)
(-0.00013799146 8.117909e-05 0)
(-0.00014127656 5.0327406e-05 0)
(-0.00014307678 4.1656548e-05 0)
(-0.00014633402 4.3432741e-05 0)
(-0.00015089326 3.9569567e-05 0)
(-0.00015390395 3.0789197e-05 0)
(-0.0001559497 1.8933057e-05 0)
(-0.00015910578 5.9402869e-06 0)
(-0.0023354643 0.0011597011 0)
(-0.0022554727 -0.00096969939 0)
(9.5268331e-05 -0.0016556504 0)
(0.00031591061 -0.00027093232 0)
(-0.0003547411 0.00013336756 0)
(-0.00084856142 -0.00024235265 0)
(-0.0005520166 -0.0010310356 0)
(0.00026526867 -0.0010988742 0)
(0.00076106873 -0.00037979444 0)
(0.00057323792 0.00017348466 0)
(0.00018813452 0.00031890136 0)
(-1.9461393e-05 0.00030140124 0)
(-0.00013519149 0.00019292729 0)
(-0.00015632072 0.00010529914 0)
(-0.00014993585 6.0914835e-05 0)
(-0.00014721998 4.878673e-05 0)
(-0.00014871435 5.4742725e-05 0)
(-0.00015459608 5.3103148e-05 0)
(-0.00015877134 4.427818e-05 0)
(-0.00016073107 3.1586397e-05 0)
(-0.00016188313 1.7571731e-05 0)
(-0.00016369503 4.5219234e-06 0)
(-0.0028907042 0.0015216193 0)
(-0.0026155061 -0.0017545417 0)
(0.00074094693 -0.0022482667 0)
(0.00083920974 -0.00011234669 0)
(-0.00049030676 0.00043282795 0)
(-0.0013080998 -9.3586904e-05 0)
(-0.00084681177 -0.0012920571 0)
(0.00027776261 -0.001537522 0)
(0.0010796262 -0.00070206104 0)
(0.00091901447 0.00022530592 0)
(0.00032787294 0.00049070277 0)
(-1.1112935e-05 0.00043423801 0)
(-0.00017081636 0.00028368865 0)
(-0.00019563832 0.00013563683 0)
(-0.0001680453 6.7834646e-05 0)
(-0.00015320867 5.2219368e-05 0)
(-0.00015023962 6.469711e-05 0)
(-0.00015739254 6.740424e-05 0)
(-0.00016379626 5.9327866e-05 0)
(-0.00016683542 4.5362913e-05 0)
(-0.00016752615 2.958477e-05 0)
(-0.00016686905 1.3797959e-05 0)
(-0.00016676471 2.3039935e-06 0)
(-0.0028421287 0.0012144541 0)
(-0.002761962 -0.0018326255 0)
(0.0012568859 -0.0027918203 0)
(0.0015486674 -0.00028157491 0)
(-0.000676971 0.001005518 0)
(-0.0020935685 0.00023929217 0)
(-0.0013250267 -0.0016634179 0)
(0.00037803637 -0.0020802925 0)
(0.0015062977 -0.0010968308 0)
(0.0013724722 0.00026702352 0)
(0.0005413321 0.00075503748 0)
(-1.8365909e-05 0.00063889706 0)
(-0.00023900964 0.0004105089 0)
(-0.00026608378 0.00017588654 0)
(-0.00020323473 6.6686241e-05 0)
(-0.00016227827 4.784958e-05 0)
(-0.00015004103 7.0746634e-05 0)
(-0.00015820891 8.1732547e-05 0)
(-0.00016796124 7.5857818e-05 0)
(-0.00017356058 6.1059413e-05 0)
(-0.0001750035 4.2880368e-05 0)
(-0.00017335145 2.3928356e-05 0)
(-0.0001705655 8.5957883e-06 0)
(-0.00016841364 8.4827566e-08 0)
(-0.004078964 0.0013598295 0)
(-0.0036420012 -0.0032396676 0)
(0.0020606497 -0.0038060142 0)
(0.0027025466 0.00059773532 0)
(-0.00086109293 0.0017267996 0)
(-0.0029866533 0.00044554032 0)
(-0.0020138551 -0.0021527802 0)
(0.0004736998 -0.0028565089 0)
(0.0020984079 -0.0016013095 0)
(0.0020563934 0.00030833804 0)
(0.00086649227 0.0011343525 0)
(-3.8574798e-05 0.00096063394 0)
(-0.00037463127 0.00059107044 0)
(-0.00038296085 0.00023131672 0)
(-0.00027243152 4.6548549e-05 0)
(-0.00017721086 2.6575215e-05 0)
(-0.00014604618 6.8439561e-05 0)
(-0.00015473669 9.4633966e-05 0)
(-0.00016981967 9.3777195e-05 0)
(-0.00017984112 7.9029989e-05 0)
(-0.0001837087 5.8447739e-05 0)
(-0.00018218544 3.547829e-05 0)
(-0.00017775014 1.5527177e-05 0)
(-0.00017256409 2.5216528e-06 0)
(-0.00016785954 -2.0717252e-06 0)
(-0.0040462523 0.00042463124 0)
(-0.0017104534 -0.0028466587 0)
(0.0028273644 -0.0043718691 0)
(0.0036785695 9.4099949e-05 0)
(-0.0012064213 0.0030334978 0)
(-0.0045125126 0.0012604171 0)
(-0.003099288 -0.0028401672 0)
(0.00055722829 -0.0038669931 0)
(0.002895888 -0.0023775936 0)
(0.0029747441 0.00033245998 0)
(0.0013448015 0.0016739813 0)
(-7.6663809e-05 0.0014453116 0)
(-0.00060142317 0.00084585605 0)
(-0.000589737 0.00029919506 0)
(-0.00037870577 2.7361842e-06 0)
(-0.00019919021 -2.3362282e-05 0)
(-0.00013547127 4.9901395e-05 0)
(-0.00014265582 0.00010332863 0)
(-0.00016682827 0.00011327941 0)
(-0.00018415425 9.9795721e-05 0)
(-0.00019253137 7.695817e-05 0)
(-0.00019292594 4.9396543e-05 0)
(-0.00018789874 2.4380444e-05 0)
(-0.00018069261 6.0330591e-06 0)
(-0.00017312745 -3.396969e-06 0)
(-0.00016633826 -3.486744e-06 0)
(-0.0024014899 0.00013547593 0)
(0.0012229144 -0.0045491696 0)
(0.005040431 -0.005854579 0)
(0.0042995846 0.001554639 0)
(-0.0012782692 0.0045129138 0)
(-0.0059868306 0.0014841834 0)
(-0.0045438911 -0.0036160026 0)
(0.00057786463 -0.0052556412 0)
(0.0039512844 -0.0034264196 0)
(0.0042423502 0.00033432979 0)
(0.0020056376 0.0023970644 0)
(-0.00012121856 0.0021742285 0)
(-0.00096671336 0.0012272701 0)
(-0.00093148298 0.00036880336 0)
(-0.00053972583 -8.2975057e-05 0)
(-0.00023933186 -0.00013027148 0)
(-0.00011051046 3.3875123e-06 0)
(-0.00011508254 0.00010401071 0)
(-0.0001544908 0.00013425025 0)
(-0.00018438745 0.00012423006 0)
(-0.00020039337 9.927749e-05 0)
(-0.00020456123 6.6503642e-05 0)
(-0.00020051418 3.5555543e-05 0)
(-0.00019210455 1.1755297e-05 0)
(-0.00018196629 -3.4106589e-06 0)
(-0.00017214912 -8.4378727e-06 0)
(-0.00016370431 -4.1699764e-06 0)
(-0.0013084686 -0.00078628739 0)
(0.0029082423 -0.0053995379 0)
(0.008849984 -0.0062335023 0)
(0.0053350053 0.00057091395 0)
(-0.00071769642 0.0067897123 0)
(-0.0084624794 0.0030698575 0)
(-0.0065770356 -0.0047296842 0)
(0.0006409943 -0.0070039661 0)
(0.0052920405 -0.0048208276 0)
(0.005995052 0.000282198 0)
(0.0029217498 0.0033740326 0)
(-0.00018700825 0.0032096435 0)
(-0.0015167425 0.0017681706 0)
(-0.0014677221 0.00044808738 0)
(-0.00079756263 -0.00024684146 0)
(-0.00028712079 -0.00031268161 0)
(-6.2553067e-05 -9.0153365e-05 0)
(-6.0270267e-05 8.9503065e-05 0)
(-0.00012408389 0.00015703707 0)
(-0.00017727975 0.00015448456 0)
(-0.00020592571 0.00012710964 0)
(-0.00021661893 8.8019426e-05 0)
(-0.00021489353 4.9964166e-05 0)
(-0.00020642198 1.9754883e-05 0)
(-0.00019453269 -1.0269869e-06 0)
(-0.000181788 -1.1511213e-05 0)
(-0.00017010672 -1.2008833e-05 0)
(-0.00016065753 -4.3036943e-06 0)
(-0.00059689185 -0.0011950794 0)
(0.0041778942 -0.007019739 0)
(0.011702028 -0.0071816884 0)
(0.0066444409 0.0032429077 0)
(-0.00090126247 0.0084034042 0)
(-0.01008675 0.0032424263 0)
(-0.00918578 -0.0058557069 0)
(0.00055754913 -0.0093775931 0)
(0.0070232492 -0.0067187669 0)
(0.0082860818 0.00020077284 0)
(0.0041827771 0.0046634124 0)
(-0.00025532697 0.0046714154 0)
(-0.0023361244 0.0025603624 0)
(-0.0022657877 0.00052309814 0)
(-0.0011870102 -0.00052940325 0)
(-0.00034316468 -0.00061073748 0)
(1.7786461e-05 -0.0002616516 0)
(4.041937e-05 5.3292252e-05 0)
(-6.3645078e-05 0.00018335903 0)
(-0.00015659595 0.00019437841 0)
(-0.00020752253 0.00016388657 0)
(-0.00022893681 0.00011601974 0)
(-0.00023100932 6.8684217e-05 0)
(-0.0002231952 3.0838276e-05 0)
(-0.00021032944 3.6992078e-06 0)
(-0.00019545296 -1.2118993e-05 0)
(-0.00018057144 -1.7389942e-05 0)
(-0.00016738693 -1.3804228e-05 0)
(-0.00015755334 -4.2288052e-06 0)
(-0.00040569456 -0.0017904042 0)
(0.0052457618 -0.0082243781 0)
(0.013485154 -0.0064405972 0)
(0.0047697442 0.0036054892 0)
(-0.0045461436 0.012045811 0)
(-0.012578325 0.0067473352 0)
(-0.012842731 -0.0074823237 0)
(0.00065608205 -0.012254555 0)
(0.0091558244 -0.0090357775 0)
(0.011278822 2.579299e-05 0)
(0.0058805343 0.0063489043 0)
(-0.00037158566 0.0066432147 0)
(-0.0034746227 0.0036572389 0)
(-0.0034285941 0.00061923254 0)
(-0.0017769373 -0.000987686 0)
(-0.00041857014 -0.0010869457 0)
(0.00016378096 -0.00053930047 0)
(0.00021670518 -2.0180999e-05 0)
(4.7506294e-05 0.00021631652 0)
(-0.00011380437 0.00025145332 0)
(-0.00020417074 0.00021540637 0)
(-0.00024214083 0.00015442858 0)
(-0.00024972729 9.3325195e-05 0)
(-0.00024260321 4.567043e-05 0)
(-0.00022904849 1.1292433e-05 0)
(-0.00021252599 -1.0329299e-05 0)
(-0.00019517303 -2.0404142e-05 0)
(-0.00017857916 -2.0818295e-05 0)
(-0.00016432187 -1.4184241e-05 0)
(-0.00015467098 -4.1506889e-06 0)
(-0.0001066497 -0.0023589909 1.026924e-23)
(0.0068454023 -0.009899981 0)
(0.014593503 -0.0059307162 0)
(0.0031803488 0.0071675147 0)
(-0.0094676337 0.014553426 0)
(-0.018592204 0.0065905172 0)
(-0.017305032 -0.0084310209 0)
(0.00011515375 -0.016062508 0)
(0.011931602 -0.012120934 0)
(0.015027151 -0.00026734031 0)
(0.0081095701 0.0084698506 0)
(-0.00047775742 0.0093184668 0)
(-0.0050703677 0.0051923064 0)
(-0.0050879757 0.00070527992 0)
(-0.0026273538 -0.0016792611 0)
(-0.00052461176 -0.0018218455 0)
(0.00041219237 -0.00096523038 0)
(0.00049868064 -0.00014374575 0)
(0.0002381062 0.00025912855 0)
(-3.6808429e-05 0.00034119835 0)
(-0.00019413173 0.00029297991 0)
(-0.00025872313 0.00020961659 0)
(-0.00027356513 0.00012663913 0)
(-0.0002660205 6.4968856e-05 0)
(-0.00025086172 2.1992362e-05 0)
(-0.00023279858 -5.8043456e-06 0)
(-0.00021340909 -2.0902672e-05 0)
(-0.00019408608 -2.549977e-05 0)
(-0.00017619346 -2.2052386e-05 0)
(-0.00016140422 -1.3653978e-05 0)
(-0.00015203747 -4.0394867e-06 0)
(0.00027786494 -0.003053235 -1.9787652e-23)
(0.0078704024 -0.011314784 -1.0745182e-23)
(0.01556086 -0.0049614249 0)
(0.0027884078 0.0080397207 0)
(-0.013940822 0.019046592 0)
(-0.026631958 0.0097458403 0)
(-0.018527909 -0.01104517 0)
(-4.9260134e-06 -0.020792847 0)
(0.015239623 -0.015431417 0)
(0.019390329 -0.00046491549 0)
(0.010995324 0.011218121 0)
(-0.00066503986 0.012813599 0)
(-0.007195564 0.0072166059 0)
(-0.0073838851 0.00084115339 0)
(-0.0038455583 -0.0027058679 0)
(-0.00065976421 -0.0029111713 0)
(0.00079941996 -0.001610059 0)
(0.00094655637 -0.00033020505 0)
(0.00052719961 0.00034446868 0)
(6.9822757e-05 0.00048109569 0)
(-0.00018003697 0.00041544554 0)
(-0.00028444045 0.00029212078 0)
(-0.00030802337 0.00017336912 0)
(-0.00029685904 8.9592744e-05 0)
(-0.00027699916 3.5599474e-05 0)
(-0.00025618068 1.2717896e-06 0)
(-0.00023497011 -1.8711744e-05 0)
(-0.00021341622 -2.7595535e-05 0)
(-0.0001925243 -2.7742973e-05 0)
(-0.00017375048 -2.1661936e-05 0)
(-0.0001585809 -1.2685083e-05 0)
(-0.00014962317 -3.7596198e-06 0)
(0.00070888942 -0.003848738 1.9861668e-23)
(0.0088328031 -0.012860178 2.2201137e-23)
(0.016311233 -0.0045080986 0)
(0.0025235849 0.011539368 0)
(-0.016298561 0.023150424 0)
(-0.029300266 0.0075407677 0)
(-0.015884091 -0.013200215 0)
(0.0019825106 -0.027012595 0)
(0.019709506 -0.020256563 0)
(0.025123044 -0.0013077742 0)
(0.01492438 0.014133851 0)
(-0.00083858751 0.017419145 0)
(-0.010059025 0.0099392516 0)
(-0.010505178 0.00095770075 0)
(-0.0055189869 -0.0041409482 0)
(-0.00083207965 -0.0044873077 0)
(0.0013883947 -0.0025450277 0)
(0.0016293219 -0.00061664436 0)
(0.0010069163 0.00046474169 0)
(0.00023093951 0.00073869013 0)
(-0.00015634677 0.0006249504 0)
(-0.00032805728 0.00041802747 0)
(-0.00036245425 0.00023995624 0)
(-0.00034153111 0.00012018423 0)
(-0.0003103798 5.0888331e-05 0)
(-0.00028323568 9.9522247e-06 0)
(-0.00025937327 -1.4222737e-05 0)
(-0.00023613481 -2.6968357e-05 0)
(-0.00021288627 -3.0842295e-05 0)
(-0.00019077122 -2.7863815e-05 0)
(-0.00017127816 -2.0382855e-05 0)
(-0.0001561554 -1.1673509e-05 0)
(-0.00014742673 -3.4818239e-06 0)
(0.0011824958 -0.0046385144 0)
(0.0097001381 -0.014438749 -2.2239961e-23)
(0.016741154 -0.0037416392 0)
(0.0026684898 0.013610623 0)
(-0.018479383 0.026410137 0)
(-0.030493009 0.006917065 0)
(-0.014197164 -0.018205259 0)
(0.0083480603 -0.032908113 0)
(0.026557278 -0.02475555 0)
(0.032379636 -0.0015781928 0)
(0.019350715 0.018661145 0)
(-0.001188332 0.023276014 0)
(-0.013754986 0.013330531 0)
(-0.014605605 0.0011626724 0)
(-0.0077982198 -0.0061409519 0)
(-0.0010393158 -0.0067000271 0)
(0.0022529776 -0.0038753374 0)
(0.0026511425 -0.0010168562 0)
(0.00172169 0.00063761206 0)
(0.00056880967 0.001099022 0)
(-8.5553325e-05 0.00088861844 0)
(-0.00038687414 0.00060611839 0)
(-0.00045035831 0.0003341249 0)
(-0.00041066112 0.00015788072 0)
(-0.00035656721 6.5000705e-05 0)
(-0.00031551945 1.7376146e-05 0)
(-0.00028625714 -8.7941719e-06 0)
(-0.00026137263 -2.3927643e-05 0)
(-0.00023677219 -3.1138822e-05 0)
(-0.00021211667 -3.1555483e-05 0)
(-0.00018891136 -2.67744e-05 0)
(-0.00016898983 -1.9015406e-05 0)
(-0.00015402048 -1.0891542e-05 0)
(-0.00014551734 -3.5163917e-06 0)
(0.0016763646 -0.0054502201 -5.4629742e-24)
(0.010330461 -0.015907748 0)
(0.016651407 -0.0028554644 7.2794652e-23)
(0.002958365 0.016010009 0)
(-0.019633437 0.030855532 0)
(-0.030910932 0.0054510001 0)
(-0.01418412 -0.020301723 0)
(0.012524216 -0.040574924 0)
(0.036240662 -0.030001831 0)
(0.038782543 -0.00099159818 0)
(0.022129943 0.022061536 0)
(-0.0015856464 0.030504018 0)
(-0.018580865 0.017774443 0)
(-0.019933401 0.0013052404 0)
(-0.010788015 -0.0087808899 0)
(-0.0012691181 -0.0097421474 0)
(0.0034802083 -0.0056971654 0)
(0.0041047147 -0.0015899051 0)
(0.0027872036 0.00089188014 0)
(0.0010764372 0.0016599626 0)
(-7.8738433e-05 0.0013160547 0)
(-0.00047643667 0.00089654124 0)
(-0.00059188793 0.00046660432 0)
(-0.00052017177 0.0002026305 0)
(-0.00042470192 7.2354553e-05 0)
(-0.00035622926 1.8388939e-05 0)
(-0.00031550895 -5.7682218e-06 0)
(-0.00028791261 -1.9780356e-05 0)
(-0.000263015 -2.8607259e-05 0)
(-0.00023725085 -3.2376231e-05 0)
(-0.00021121171 -3.0867809e-05 0)
(-0.0001870473 -2.5435505e-05 0)
(-0.00016680293 -1.8170306e-05 0)
(-0.00015184278 -1.0595513e-05 0)
(-0.00014382249 -3.4517877e-06 0)
(0.0021547924 -0.0062415328 3.36805e-23)
(0.010744683 -0.017311415 5.0643094e-23)
(0.016164117 -0.0023104286 -7.273432e-23)
(0.003021769 0.018566908 -3.2798009e-23)
(-0.019986312 0.03486579 -1.2792138e-23)
(-0.03082173 0.0046852594 0)
(-0.01379526 -0.026116357 0)
(0.014570412 -0.048176633 0)
(0.044518524 -0.033139351 0)
(0.042373623 -0.0011884684 0)
(0.019191167 0.028488975 0)
(-0.0011331141 0.04047039 0)
(-0.024958738 0.022924077 0)
(-0.026562974 0.0015776468 0)
(-0.014667268 -0.012275526 0)
(-0.0015333324 -0.013808118 0)
(0.0051895386 -0.0081759782 0)
(0.0061434897 -0.0023533303 0)
(0.0042880395 0.0012550491 0)
(0.001807616 0.0024722104 0)
(-6.235469e-06 0.0020352112 0)
(-0.00066753914 0.0013084701 0)
(-0.00081401171 0.00067429741 0)
(-0.00069596426 0.00025664846 0)
(-0.0005291758 6.5185258e-05 0)
(-0.00041070132 3.3103391e-06 0)
(-0.0003470426 -1.1505319e-05 0)
(-0.00031386528 -1.7505954e-05 0)
(-0.00028971223 -2.4110871e-05 0)
(-0.00026484783 -2.9822573e-05 0)
(-0.00023766972 -3.208319e-05 0)
(-0.00021016518 -2.9920034e-05 0)
(-0.00018513872 -2.4740255e-05 0)
(-0.00016462957 -1.828611e-05 0)
(-0.00014963292 -1.1569611e-05 0)
(-0.00014167988 -4.6700252e-06 0)
(0.002593684 -0.0069851301 -4.3185405e-23)
(0.010820231 -0.018545602 -6.3382426e-23)
(0.015162675 -0.0017055283 0)
(0.0030069938 0.02132313 8.407103e-23)
(-0.020094212 0.039140863 1.2709797e-23)
(-0.030349485 0.0046061295 6.1881308e-23)
(-0.013984 -0.028635821 1.8407345e-23)
(0.017016261 -0.055321335 0)
(0.049551279 -0.037449645 0)
(0.047650271 0.0047652779 0)
(0.016712476 0.033103902 0)
(-0.000351496 0.050103487 0)
(-0.034343389 0.029482572 0)
(-0.035205978 0.0018001235 0)
(-0.019545086 -0.016640317 0)
(-0.0017508712 -0.019145571 0)
(0.0075070599 -0.01140045 0)
(0.008865858 -0.0033786618 0)
(0.0064158948 0.001741602 0)
(0.0028666145 0.0036507831 0)
(0.00011774774 0.0030982594 0)
(-0.00099538087 0.0019201985 0)
(-0.0011710951 0.00099123747 0)
(-0.00098699653 0.00031494462 0)
(-0.00069227222 3.2040628e-05 0)
(-0.00048687738 -4.3507938e-05 0)
(-0.00038063943 -3.7593756e-05 0)
(-0.00033586989 -2.3110563e-05 0)
(-0.0003135347 -1.9565038e-05 0)
(-0.00029262543 -2.3982269e-05 0)
(-0.00026703589 -2.9404611e-05 0)
(-0.00023798864 -3.1619794e-05 0)
(-0.00020897652 -2.9773425e-05 0)
(-0.00018315631 -2.5424459e-05 0)
(-0.00016231719 -1.9645433e-05 0)
(-0.00014732968 -1.3411702e-05 0)
(-0.00013930387 -5.6247958e-06 0)
(0.0029857817 -0.0076477457 4.3417727e-24)
(0.010463742 -0.019552478 1.5595543e-23)
(0.0140887 -0.00061191082 3.0192354e-23)
(0.0027470952 0.024125324 -3.9327727e-23)
(-0.019686267 0.043375442 -5.2664359e-23)
(-0.029161565 0.0039975986 -1.2158101e-22)
(-0.014374856 -0.031209746 5.2046046e-22)
(0.016680648 -0.064594272 -8.5742971e-23)
(0.051765924 -0.038352238 0)
(0.050998033 0.0069346133 0)
(0.013394527 0.039885415 0)
(-0.0019311422 0.063823932 0)
(-0.044286773 0.037702881 0)
(-0.046973683 0.0017219671 0)
(-0.025446501 -0.022227244 0)
(-0.0019460004 -0.026029417 0)
(0.010607826 -0.015526501 0)
(0.012497829 -0.0046745735 0)
(0.0092550017 0.0023936824 0)
(0.0043687561 0.0052571816 0)
(0.00034158458 0.004676477 0)
(-0.0014894333 0.0028647525 0)
(-0.0017772661 0.0014015232 0)
(-0.0014139217 0.00042004618 0)
(-0.00095869451 -5.45643e-05 0)
(-0.00059931687 -0.00014792581 0)
(-0.00041619288 -0.00010322333 0)
(-0.00034826365 -4.7678074e-05 0)
(-0.00032850952 -1.957211e-05 0)
(-0.00031641567 -1.5345175e-05 0)
(-0.00029701365 -2.1963722e-05 0)
(-0.00026950495 -2.9077085e-05 0)
(-0.00023813731 -3.2217236e-05 0)
(-0.00020751949 -3.1276146e-05 0)
(-0.00018093743 -2.7840328e-05 0)
(-0.00015982981 -2.2650092e-05 0)
(-0.0001448413 -1.5724701e-05 0)
(-0.00013654104 -6.8056906e-06 0)
(0.003425595 -0.0081856054 9.5627102e-24)
(0.0095701585 -0.020393698 1.9360112e-24)
(0.012510357 0.00043930674 0)
(0.0020324605 0.026301853 -3.3229247e-23)
(-0.018751496 0.047313318 8.6626534e-24)
(-0.027547935 0.0037694384 0)
(-0.014113844 -0.033648596 -1.4871956e-22)
(0.015224178 -0.07136164 -1.830379e-22)
(0.052049052 -0.042643757 0)
(0.04761214 0.014004469 0)
(0.010005113 0.047489326 0)
(-0.014886632 0.074736082 0)
(-0.064084086 0.048907602 0)
(-0.063847262 0.00073437585 0)
(-0.031093052 -0.029076455 0)
(-0.0018477529 -0.034776311 0)
(0.01467918 -0.020696635 0)
(0.017111096 -0.0062856722 0)
(0.013068688 0.0032042682 0)
(0.0064337835 0.0074401297 0)
(0.00065828283 0.0068635002 0)
(-0.0021981461 0.0042732485 0)
(-0.0027095214 0.0019888109 0)
(-0.002101099 0.00050841483 0)
(-0.0013667125 -0.00020843237 0)
(-0.00076793633 -0.00033490061 0)
(-0.00045510017 -0.00023473213 0)
(-0.00034347146 -0.00010742274 0)
(-0.0003254216 -3.1153624e-05 0)
(-0.00032900684 -5.8776855e-06 0)
(-0.00032324816 -8.6913257e-06 0)
(-0.00030269502 -2.0479104e-05 0)
(-0.00027199349 -3.0344866e-05 0)
(-0.00023786238 -3.4880394e-05 0)
(-0.0002057382 -3.5033437e-05 0)
(-0.0001783765 -3.2157213e-05 0)
(-0.0001569805 -2.7007596e-05 0)
(-0.0001418889 -1.9395741e-05 0)
(-0.00013305888 -8.3682533e-06 0)
(0.0039186499 -0.0085453724 0)
(0.0082213236 -0.020951199 0)
(0.010518497 0.0013746217 -1.993119e-24)
(0.0014824611 0.028298489 0)
(-0.017251435 0.050993009 -1.4712452e-23)
(-0.025082782 0.0033546821 -5.2075127e-23)
(-0.013523273 -0.036054284 3.9931885e-22)
(0.0140103 -0.079481872 2.5121254e-22)
(0.049875411 -0.048235496 0)
(0.047983184 0.01545084 0)
(0.010319565 0.055317005 0)
(-0.024989381 0.088592181 0)
(-0.071208492 0.056625942 0)
(-0.071880019 -0.0017373016 0)
(-0.035107996 -0.038769276 0)
(-2.0510768e-05 -0.045518346 0)
(0.019958095 -0.02691453 0)
(0.022942991 -0.0082205322 0)
(0.017870916 0.0042124341 0)
(0.009298974 0.010234674 0)
(0.0011897986 0.010015814 0)
(-0.003208512 0.0063232019 0)
(-0.0040948776 0.0028287935 0)
(-0.0031903146 0.00057527532 0)
(-0.0019323057 -0.00044586441 0)
(-0.0010399526 -0.00068995438 0)
(-0.00049898991 -0.00047848609 0)
(-0.00030946311 -0.00022729773 0)
(-0.0002899525 -6.6183534e-05 0)
(-0.00031869652 1.8794535e-06 0)
(-0.00033834514 1.1422017e-05 0)
(-0.00033364964 -3.2515363e-06 0)
(-0.00030909905 -2.1570924e-05 0)
(-0.00027407277 -3.4412787e-05 0)
(-0.00023705305 -4.0379902e-05 0)
(-0.00020339351 -4.1215804e-05 0)
(-0.00017533877 -3.8373509e-05 0)
(-0.00015367782 -3.2562439e-05 0)
(-0.00013847788 -2.3470469e-05 0)
(-0.00012933 -9.8060721e-06 0)
(0.0065429103 -0.02119559 1.4539641e-25)
(0.004440466 -0.008741114 0)
(0.0080449812 0.0022032117 -1.1005004e-23)
(0.0011849782 0.030342074 3.2871541e-24)
(-0.015012448 0.054257337 1.2545708e-23)
(-0.022125376 0.0029273099 2.7856977e-23)
(-0.012321095 -0.038224184 -4.8413047e-23)
(0.012580368 -0.086925879 -8.2132879e-23)
(0.046920291 -0.052647648 -4.2804841e-22)
(0.049347267 0.015248866 0)
(0.011710001 0.063792035 4.5180404e-22)
(-0.030129847 0.098523139 0)
(-0.071012992 0.062937168 0)
(-0.069214333 -0.0085080273 0)
(-0.034535791 -0.051884925 0)
(0.0055586619 -0.058083605 0)
(0.026850067 -0.03454727 0)
(0.030077365 -0.010346559 0)
(0.023941153 0.0053611799 0)
(0.012992758 0.013777829 0)
(0.0019331928 0.014090713 0)
(-0.0045745438 0.0092438536 0)
(-0.0061221935 0.0040610107 0)
(-0.0048262916 0.00061915033 0)
(-0.0028126378 -0.00088996383 0)
(-0.0014200865 -0.0012174428 0)
(-0.00054666038 -0.00088183239 0)
(-0.00022799828 -0.00045008126 0)
(-0.00020003857 -0.00014385363 0)
(-0.00026767929 2.395825e-06 0)
(-0.00033040921 4.0522539e-05 0)
(-0.00035602442 2.647753e-05 0)
(-0.0003465871 -2.0379142e-06 0)
(-0.00031547507 -2.6787187e-05 0)
(-0.0002753924 -4.2147627e-05 0)
(-0.00023540708 -4.9022935e-05 0)
(-0.00020034481 -4.9860389e-05 0)
(-0.00017171255 -4.6342894e-05 0)
(-0.00014987399 -3.9232614e-05 0)
(-0.00013462489 -2.7738622e-05 0)
(-0.00012490919 -1.1357853e-05 0)
(0.0051993791 0.0028738256 1.0607494e-23)
(0.0045578502 -0.021069615 0)
(0.0048496386 -0.0087983742 1.4886603e-24)
(0.0011149248 0.031816432 -3.2821786e-24)
(-0.011897388 0.056668044 -3.3304506e-24)
(-0.01862161 0.0023453411 3.3793283e-23)
(-0.010317757 -0.040213273 4.3258764e-24)
(0.010819857 -0.094002484 -1.7939839e-22)
(0.043123846 -0.057700228 -1.7122103e-22)
(0.047943694 0.016340217 -2.4119958e-22)
(0.01319061 0.067639138 8.4954313e-22)
(-0.034239116 0.11318238 -4.9757337e-22)
(-0.072510011 0.063798098 0)
(-0.06545309 -0.012783687 0)
(-0.031575611 -0.063593827 0)
(0.012971065 -0.072408726 0)
(0.036414754 -0.042305547 0)
(0.038462562 -0.01287422 0)
(0.031195911 0.0067500127 0)
(0.01784409 0.018103443 0)
(0.0031282359 0.019506563 0)
(-0.0064841043 0.013264468 0)
(-0.0089747086 0.005771981 0)
(-0.0072006657 0.00063328516 0)
(-0.0041617711 -0.0016349253 0)
(-0.0019063206 -0.0020127135 0)
(-0.00062152474 -0.001582062 0)
(-7.0204584e-05 -0.00081881918 0)