/*--------------------------------*- C++ -*----------------------------------*\
| =========                 |                                                 |
| \\      /  F ield         | OpenFOAM: The Open Source CFD Toolbox           |
|  \\    /   O peration     | Version:  5.0                                   |
|   \\  /    A nd           | Web:      www.OpenFOAM.org                      |
|    \\/     M anipulation  |                                                 |
\*---------------------------------------------------------------------------*/
FoamFile
{
    version     2.0;
    format      ascii;
    class       surfaceScalarField;
    location    "100";
    object      ddtCorrDdt0(phi);
}
// * * * * * * * * * * * * * * * * * * * * * * * * * * * * * * * * * * * * * //

dimensions      [0 3 -2 0 0 0 0];

internalField   nonuniform List<scalar> 
18820
(
-1.5037147e-05
0.00014131963
-2.9027139e-05
0.00013721981
-8.5522397e-06
0.00014987357
-4.1885008e-05
0.00013719626
-1.5925216e-05
0.00014460487
-5.0931602e-06
0.00015497388
-5.378827e-05
0.00014040913
-2.2042175e-05
0.00014332363
-9.1839868e-06
0.0001487153
-8.3491507e-07
0.00015582029
-6.4989495e-05
0.00014612419
-2.6635919e-05
0.00014501222
-1.1862933e-05
0.00014601892
-6.9999715e-07
0.00014860454
1.9215682e-06
0.00015391289
-7.6050612e-05
0.00015377537
-2.952097e-05
0.00014901703
-1.2690401e-05
0.00014585366
1.3575631e-06
0.00014398104
4.9919417e-06
0.00014556015
3.2092393e-06
0.00015071893
-8.8077497e-05
0.00016323089
-3.0806763e-05
0.00015506706
-1.1452492e-05
0.00014779004
5.6929421e-06
0.00014153434
1.0168162e-05
0.00013882535
7.5355368e-06
0.00014125919
2.6153606e-06
0.00014811854
-0.00010300595
0.00017467871
-3.0754695e-05
0.00016318276
-7.9927586e-06
0.00015161495
1.2602508e-05
0.0001408923
1.8019869e-05
0.00013369854
1.3913839e-05
0.0001324664
6.1635491e-06
0.00013773395
5.8286586e-07
0.00014754935
-0.00012386251
0.00018868266
-2.9888351e-05
0.00017381442
-1.9653925e-06
0.00015715988
2.2241847e-05
0.00014198325
2.9143183e-05
0.0001297799
2.3282285e-05
0.0001243442
1.1470475e-05
0.00012717621
1.8767894e-06
0.00013645933
-1.97195e-06
0.00014953295
-0.0001551863
0.00020611054
-2.8947054e-05
0.00018774154
7.3792242e-06
0.00016447146
3.4692085e-05
0.00014471382
4.3904244e-05
0.00012722882
3.6592213e-05
0.00011647905
1.9652111e-05
0.00011617404
4.4360695e-06
0.00012463043
-3.4500113e-06
0.00013795255
-4.1165099e-06
0.00015365879
-0.0002032375
0.00022938237
-2.9212597e-05
0.00020637423
2.1409984e-05
0.00017370977
5.0250367e-05
0.00014891482
6.2296512e-05
0.00012632537
5.492591e-05
0.0001089008
3.1806821e-05
0.00010433146
9.2534723e-06
0.00011136547
-4.1439564e-06
0.00012533452
-7.9197367e-06
0.00014176659
-5.3046427e-06
0.00015897025
-0.00027502804
0.0002609284
-3.1315739e-05
0.0002314815
4.2411764e-05
0.00018536868
6.948491e-05
0.00015447507
8.3812537e-05
0.0001274013
7.9415626e-05
0.00010184037
4.9499747e-05
9.1213116e-05
1.7277433e-05
9.6313456e-05
-3.5669192e-06
0.00011079509
-1.1391463e-05
0.00012881327
-1.0500844e-05
0.00014696937
-5.501976e-06
0.00016447654
-0.00037507746
0.00030688257
-3.4339723e-05
0.00026394638
7.5011174e-05
0.00019887556
9.385532e-05
0.00016099696
0.00010742835
0.00013086156
0.00011091702
9.5906063e-05
7.4896661e-05
7.6449846e-05
2.9895294e-05
7.8601482e-05
-1.2510121e-06
9.4003011e-05
-1.4696768e-05
0.00011410535
-1.586263e-05
0.00013417913
-1.1111815e-05
0.00015258168
-4.9943231e-06
0.00016947267
-0.00049802623
0.00036014534
-2.8305019e-05
0.00030084066
0.00012591516
0.00021303377
0.00012528156
0.0001674478
0.00013209274
0.00013633553
0.00014967606
9.2111832e-05
0.00011089104
5.9921616e-05
4.9150026e-05
5.7204835e-05
3.2561662e-06
7.4101849e-05
-1.8105956e-05
9.7417698e-05
-2.199918e-05
0.00012024533
-1.7375446e-05
0.000140444
-1.0228639e-05
0.00015781461
-4.1382528e-06
0.00017361039
-0.0006419615
0.00041569692
-2.593783e-06
0.00033442703
0.00020681169
0.00021993512
0.00016472738
0.00017358779
0.00015638931
0.000143156
0.00019457245
9.1452658e-05
0.00016142732
4.1590294e-05
7.8010141e-05
3.107662e-05
1.0630146e-05
4.9842998e-05
-2.2196562e-05
7.8201259e-05
-2.9858276e-05
0.0001052819
-2.5098796e-05
0.00012797029
-1.6395294e-05
0.00014660897
-8.6841891e-06
0.00016235558
-3.6077452e-06
0.00017721541
-0.00079656408
0.00046677973
4.8462824e-05
0.00036463485
0.00032698099
0.00021425096
0.00021026351
0.00017440217
0.00017788444
0.00015210119
0.00024170475
9.6042218e-05
0.00023014272
2.2757139e-05
0.00012066203
-1.0410522e-06
2.1809367e-05
1.9914599e-05
-2.8172333e-05
5.5831973e-05
-4.0730232e-05
8.908174e-05
-3.5128195e-05
0.00011531507
-2.4297727e-05
0.0001358721
-1.4082097e-05
0.00015200237
-7.8530693e-06
0.00016659288
-4.2819325e-06
0.0001814928
-0.00096001543
0.00053044608
0.00013835828
0.00037688133
0.00050082899
0.0001907852
0.00025855579
0.00016596678
0.00018933235
0.00016296895
0.00028946726
0.00010436273
0.0003216541
4.555853e-06
0.00018116075
-3.7716995e-05
3.7519014e-05
-1.6730111e-05
-3.7993347e-05
2.9751674e-05
-5.6503549e-05
7.161658e-05
-4.8873164e-05
0.00010283294
-3.4355179e-05
0.00012537383
-2.0970657e-05
0.00014275748
-1.2661838e-05
0.00015680403
-8.9455342e-06
0.00017124603
-5.7153309e-06
0.00018720208
-0.0011299934
0.00058840053
0.00028222337
0.00038658051
0.00072513635
0.00015257948
0.00030558341
0.00014377085
0.00018363328
0.00017168849
0.00033337837
0.00011908731
0.00043496619
-8.9196255e-06
0.00027075481
-8.5011562e-05
6.104745e-05
-6.1224311e-05
-5.378577e-05
-9.2237537e-07
-7.9098098e-05
5.235693e-05
-6.814187e-05
9.0891585e-05
-4.7569739e-05
0.00011604976
-2.972174e-05
0.00013412314
-1.808789e-05
0.00014817808
-1.4255402e-05
0.00016210488
-1.147326e-05
0.00017699192
-6.7457407e-06
0.00019394077
-0.0012881002
0.00063127899
0.00047365983
0.00039696504
0.00099084301
0.00012088712
0.00032648346
0.00013169653
0.00014833226
0.00017910235
0.00036428612
0.00014081447
0.00056960525
-1.5518612e-05
0.00040474157
-0.00014287959
9.9862028e-05
-0.00012380749
-7.1021297e-05
-4.397807e-05
-0.000109313
2.9298104e-05
-9.5674162e-05
7.9891135e-05
-6.5405162e-05
0.00010872663
-4.033018e-05
0.00012665581
-2.4635083e-05
0.00014066587
-2.0091891e-05
0.0001540077
-1.8062338e-05
0.00016868393
-1.3865834e-05
0.00018409932
-7.5039599e-06
0.00020143704
-0.001441144
0.00069617247
0.00073071209
0.00037422768
0.0013157043
7.2123701e-05
0.0003228772
0.00012451204
7.7873859e-05
0.00020219089
0.00035316061
0.00019026378
0.00071660332
-6.1500296e-06
0.00059880701
-0.00020955882
0.000165808
-0.00020881201
-9.6091028e-05
-9.8733983e-05
-0.00015233555
-9.5855125e-07
-0.00013663777
7.025521e-05
-9.0424253e-05
0.00010490279
-5.3301065e-05
0.00012169063
-3.2218438e-05
0.00013423326
-2.5993389e-05
0.00014656167
-2.5311939e-05
0.00016125054
-2.1496425e-05
0.00017630469
-1.4807906e-05
0.00019139093
-7.714167e-06
0.0002091434
-0.0015407502
0.00076030913
0.0010751515
0.00035173277
0.0016949244
-4.9679438e-06
0.00029820964
9.6809489e-05
-4.9822121e-05
0.00025224562
0.00028886133
0.00026652624
0.00089778848
9.1085598e-06
0.00086442604
-0.00027174668
0.00027148074
-0.0003152253
-0.00013284287
-0.00017206352
-0.00022201422
-2.9067735e-05
-0.00020196519
6.4352995e-05
-0.00012740791
0.00010722216
-6.9330255e-05
0.00012091753
-3.9900024e-05
0.00012936143
-3.1333767e-05
0.00013956671
-3.2842634e-05
0.0001540876
-2.9814627e-05
0.00016956377
-2.2733465e-05
0.00018422172
-1.5350612e-05
0.00019901636
-6.9579408e-06
0.00021609372
-0.0015966993
0.00081068174
0.001562405
0.00027305374
0.0021844688
-0.00013778512
0.00024454204
4.8716752e-05
-0.00029187041
0.00033889345
0.00015689595
0.00038424638
0.0011214787
4.285889e-05
0.0012276768
-0.00035412309
0.00045510276
-0.00045537087
-0.00017429048
-0.00027378667
-0.00033911321
-5.4984313e-05
-0.00029604302
6.498778e-05
-0.00018413201
0.00012105327
-8.9687432e-05
0.00012755801
-4.6059093e-05
0.00012705976
-3.4899279e-05
0.00013291634
-3.988324e-05
0.00014660264
-3.8769669e-05
0.00016304121
-3.1510796e-05
0.0001783396
-2.333088e-05
0.00019219586
-1.377405e-05
0.00020582364
-5.2226666e-06
0.00022130936
-0.0015367897
0.00081620165
0.0021280822
0.0002450013
0.0028131205
-0.00035557153
0.00013163781
-2.4864284e-05
-0.0007428785
0.00049975669
-6.3496971e-05
0.00055932166
0.0014299167
7.5823261e-05
0.0016815181
-0.00041096605
0.00072039985
-0.00061942992
-0.00021653628
-0.00041313757
-0.00052057561
-9.2347406e-05
-0.00043153655
8.0485754e-05
-0.00026865789
0.00014948897
-0.00011548551
0.00014682869
-4.785452e-05
0.0001293342
-3.4449328e-05
0.00012659649
-4.5166539e-05
0.0001381935
-4.7946496e-05
0.00015578002
-4.1295225e-05
0.00017282938
-3.2154412e-05
0.00018716635
-2.1100488e-05
0.00019951922
-1.0638226e-05
0.00021123327
-3.0198529e-06
0.00022432296
-0.0015434115
0.00081229328
0.0027874866
0.00015679332
0.0036436688
-0.0005855218
-9.994293e-05
-0.00012397334
-0.0014342661
0.00066655164
-0.00037359185
0.00080988811
0.0018469337
0.00014231407
0.0022967062
-0.00053935019
0.001176705
-0.00086728497
-0.00024479381
-0.00059118654
-0.00079087454
-0.00014286029
-0.00064316061
0.00011925684
-0.00038693356
0.00019874329
-0.00015095216
0.00018493942
-4.0021883e-05
0.00013898205
-2.5415656e-05
0.00012028985
-4.6349047e-05
0.00012777366
-5.669055e-05
0.00014693893
-5.2209385e-05
0.00016670182
-4.2256489e-05
0.00018294144
-2.9432023e-05
0.00019550653
-1.6679175e-05
0.00020556056
-6.5795704e-06
0.0002147905
-7.3034058e-07
0.000225048
-0.0010790754
0.00061809515
0.003396954
0.00020282216
0.0046143594
-0.00081387401
-0.00042860968
-0.00025683571
-0.0024989868
0.00094077359
-0.00082616829
0.0011191666
0.0024138721
0.00024295767
0.0031287326
-0.00068969844
0.0017841527
-0.0011468108
-0.00028227571
-0.00082981794
-0.0011709613
-0.00021111564
-0.00096788081
0.000181846
-0.000555302
0.0002876188
-0.00019647326
0.00024426035
-1.6040949e-05
0.00016095738
-5.4333525e-07
0.0001141092
-3.9350787e-05
0.00011329275
-6.3652863e-05
0.00013474065
-6.390251e-05
0.00015864188
-5.3854213e-05
0.00017831455
-3.9263535e-05
0.00019278909
-2.3775167e-05
0.00020261661
-1.0838516e-05
0.00020982322
-2.3010277e-06
0.00021636243
1.3376082e-06
0.000223706
-0.00027692172
0.00020210841
0.0043540295
-0.00033898326
0.0057658645
-0.00094866168
-0.00086387865
-0.00037858353
-0.0039373075
0.0011815109
-0.0014215072
0.0015361525
0.0031197207
0.00041332806
0.0042338624
-0.00086215977
0.0026000725
-0.0015056266
-0.00029184887
-0.0011372533
-0.0016951819
-0.00030560546
-0.0014558229
0.00027681787
-0.00080091112
0.00042746069
-0.00024657897
0.00033773304
3.1007009e-05
0.00019722671
5.4565033e-05
0.00010586292
-1.7359162e-05
9.2130683e-05
-6.6734964e-05
0.00011638691
-7.6430137e-05
0.00014728165
-6.7431174e-05
0.00017223564
-5.1018414e-05
0.00019009059
-3.2402928e-05
0.00020143813
-1.6224889e-05
0.00020802192
-4.7219705e-06
0.00021225079
1.628311e-06
0.00021607684
2.8641355e-06
0.00022083834
0.00045598522
-0.00017951579
0.0057399519
-0.0011838158
0.0067393165
-0.001312416
-0.0012911229
-0.0005213942
-0.00582921
0.001513345
-0.0022250525
0.0019850958
0.0040353752
0.00062051047
0.0056940322
-0.0010468325
0.0037017054
-0.0019637971
-0.00027101757
-0.0015264754
-0.0024093673
-0.00042307024
-0.0021661684
0.00040473479
-0.0011583092
0.00063422916
-0.00030097998
0.0004818783
0.00012146751
0.00024729748
0.00015533414
9.6483303e-05
2.9627654e-05
5.8901017e-05
-6.222868e-05
8.7645898e-05
-9.0437834e-05
0.00013041317
-8.3577933e-05
0.00016344667
-6.5444476e-05
0.00018668247
-4.3128435e-05
0.00020084103
-2.3091773e-05
0.00020832957
-8.2914132e-06
0.00021161412
9.954322e-07
0.00021289237
4.7458881e-06
0.00021420401
3.7721416e-06
0.00021706327
0.0011196829
-0.00038737098
0.0072580095
-0.0016975741
0.0073700653
-0.0018145472
-0.0020015733
-0.00060194131
-0.0079176528
0.0015670746
-0.0032943186
0.0025826487
0.0050992921
0.00092119219
0.0075934318
-0.0012788848
0.0051669252
-0.002512057
-0.00021255773
-0.0020222771
-0.0033548045
-0.00058104012
-0.0031695921
0.00058034962
-0.0016744693
0.00092090864
-0.00035736391
0.00069063151
0.00028338394
0.00031998768
0.00032210457
8.0555615e-05
0.00011850625
7.6338304e-06
-4.5864878e-05
4.2563763e-05
-0.00010574609
0.00010297648
-0.0001036259
0.00015047969
-8.4008012e-05
0.00018202838
-5.6873813e-05
0.00020044869
-3.197012e-05
0.00020974524
-1.324313e-05
0.00021330699
-8.0791603e-07
0.00021344279
5.5773207e-06
0.00021207078
6.7751915e-06
0.00021121353
4.0811065e-06
0.00021297955
0.0017388093
-0.00050625916
0.0088614445
-0.0019908054
0.007374814
-0.001702307
-0.0035300519
-0.00028604374
-0.010380652
0.0018610834
-0.0048582948
0.0031310848
0.0064257931
0.0012561594
0.010034225
-0.0015196031
0.0070610616
-0.0031730304
-0.00010263927
-0.0026219987
-0.0045996418
-0.00077744719
-0.0045521754
0.00080153986
-0.0024053966
0.001311285
-0.00041968397
0.00098324455
0.00055163537
0.00042239767
0.0005918376
5.0276102e-05
0.0002687333
-6.9649585e-05
-1.0710449e-05
-2.7498707e-05
-0.00012427921
6.1116228e-05
-0.00013289483
0.00013226099
-0.00010953861
0.00017602306
-7.5316504e-05
0.0002004846
-4.3580819e-05
0.00021207672
-1.9948127e-05
0.00021647423
-3.906187e-06
0.00021642989
5.2564776e-06
0.00021379023
8.6657072e-06
0.00021019011
7.7109333e-06
0.00020759965
4.001139e-06
0.00020897575
0.0024328372
-0.00062461697
0.010472925
-0.0021177379
0.0068765959
-0.0014925733
-0.0056761396
0.00044380567
-0.013660136
0.0029934641
-0.0067761278
0.0037789464
0.0077696713
0.0017872157
0.013155682
-0.0018653048
0.0094707149
-0.0039292718
6.573418e-05
-0.0033414292
-0.006184799
-0.0010368558
-0.0064229923
0.0010933671
-0.0034233157
0.00181946
-0.00048582113
0.0013774342
0.0009680197
0.00056686647
0.0010121611
2.0830263e-06
0.00050401693
-0.00018500082
5.3452147e-05
-0.00013380448
-0.0001485636
-3.2065788e-06
-0.00017692413
0.00010515182
-0.00014659651
0.00016932332
-0.0001013302
0.00020204013
-5.9110501e-05
0.00021602013
-2.8769173e-05
0.00022090894
-8.4820221e-06
0.00022107009
3.7026074e-06
0.00021800556
9.4382568e-06
0.00021304439
1.026654e-05
0.00020764327
7.7957681e-06
0.00020382413
3.7255515e-06
0.00020524712
0.0032191336
-0.00077191764
0.012070809
-0.0022224975
0.0061687501
-0.0014098797
-0.0081259403
0.00095725188
-0.017631304
0.004414997
-0.0081069473
0.0043243089
0.0092411305
0.0023074942
0.017095837
-0.0021529512
0.0123513
-0.004745909
0.00030473971
-0.0041683028
-0.008183251
-0.0013429945
-0.0089058542
0.0014460055
-0.0048019469
0.0024719968
-0.00056599254
0.0018996406
0.0015875032
0.00075794984
0.0016459406
-6.6915697e-05
0.00086194066
-0.00035584834
0.00015070619
-0.00028226406
-0.00018717028
-9.520581e-05
-0.00024800909
6.7871046e-05
-0.0002052064
0.00016375495
-0.00013972877
0.00020771502
-8.0609356e-05
0.00022353245
-4.0111198e-05
0.0002273596
-1.45479e-05
0.0002269788
8.8830342e-07
0.00022389934
9.0018257e-06
0.00021845962
1.1737004e-05
0.0002115999
1.0654879e-05
0.00020479086
7.3362687e-06
0.00020023541
3.375092e-06
0.00020186819
0.0040643142
-0.00091184624
0.01378227
-0.0024833756
0.0053184689
-0.0013722057
-0.010648386
0.0011125889
-0.021697056
0.0050230246
-0.0081999672
0.0045080371
0.011451842
0.0021136026
0.022030414
-0.0026270994
0.015905585
-0.0057072571
0.00069421396
-0.0051354066
-0.010612602
-0.0017389657
-0.012142769
0.0018939236
-0.0066378029
0.0032818649
-0.00065843264
0.0025644452
0.0024769131
0.0010102311
0.0025703939
-0.00016651234
0.0013889144
-0.00059390291
0.00030179861
-0.00050696089
-0.00025059168
-0.0002188618
-0.0003691586
2.5924925e-05
-0.00030081819
0.00016346655
-0.00019815533
0.00022216667
-0.0001110552
0.00023814616
-5.4388919e-05
0.00023779626
-2.1744345e-05
0.00023454629
-2.9135145e-06
0.00023077784
7.4203574e-06
0.0002254906
1.2015188e-05
0.00021819427
1.25062e-05
0.00020977329
1.0226269e-05
0.00020190468
6.6281292e-06
0.00019700718
3.0099419e-06
0.00019885328
0.0049584807
-0.0010526044
0.015489176
-0.0026187475
0.004500317
-0.0016652153
-0.013260558
0.0012399879
-0.025677179
0.0050927314
-0.0073596153
0.004182687
0.01492223
0.0010376531
0.027752838
-0.0036088402
0.020114157
-0.0068356909
0.0011864582
-0.0061995211
-0.013532298
-0.0022157177
-0.016313003
0.0024312758
-0.0090158773
0.0042720117
-0.00077471324
0.0033981546
0.0037129357
0.0013284304
0.003883821
-0.00030320543
0.002146654
-0.00092426164
0.0005245771
-0.00081670193
-0.00034360258
-0.00041396942
-0.00054774615
-4.0294835e-05
-0.00043883913
0.00016392771
-0.00028537436
0.00025066992
-0.00015402247
0.00026511844
-7.1990709e-05
0.0002557318
-2.9022357e-05
0.00024505718
-6.7760061e-06
0.00023839486
5.0979677e-06
0.0002330925
1.1156304e-05
0.00022635486
1.3184367e-05
0.00021752405
1.2242005e-05
0.00020778089
9.3956996e-06
0.00019913748
5.9339298e-06
0.00019411066
2.7054961e-06
0.00019614139
0.0058743392
-0.0011746732
0.017121869
-0.0026852916
0.003677398
-0.0017958211
-0.01573444
0.00080868728
-0.029457326
0.0050201536
-0.0062666806
0.0039998053
0.018648135
0.00045678358
0.034139931
-0.0053494624
0.024457263
-0.0079519657
0.0014812347
-0.0071304829
-0.016998669
-0.0027331515
-0.021637187
0.0031084793
-0.012031351
0.0054467722
-0.00090553661
0.0044028459
0.005387091
0.0017240145
0.0057029226
-0.00049067745
0.0032057891
-0.0013623421
0.00084048282
-0.0012401793
-0.00047836751
-0.00068194707
-0.00082863971
-0.00013308671
-0.00064038346
0.00016123996
-0.00041626282
0.00029480964
-0.00021440874
0.00031104963
-9.3032208e-05
0.00028615203
-3.4245533e-05
0.00026094327
-8.7554814e-06
0.00024702123
3.1384608e-06
0.00024034001
9.5170909e-06
0.00023472121
1.2658669e-05
0.00022688298
1.3124193e-05
0.00021664538
1.1460449e-05
0.00020573836
8.5454847e-06
0.00019652247
5.4282306e-06
0.00019141806
2.571122e-06
0.00019356214
0.0067862479
-0.0012746653
0.018642374
-0.0026951708
0.0028500552
-0.0018579426
-0.018330945
0.00080070432
-0.033559037
0.0049104149
-0.0050019857
0.0037554627
0.022360232
0.00028770788
0.041109966
-0.0065132726
0.028021739
-0.0089139597
0.00061633837
-0.0070870807
-0.021087881
-0.0030412704
-0.028325215
0.0039548926
-0.015730712
0.0068078652
-0.0010592297
0.005600477
0.0075887834
0.0022011707
0.0081660618
-0.00073912651
0.0046422854
-0.0019271695
0.0012674739
-0.0017893326
-0.00067147448
-0.00104707
-0.0012401033
-0.00027047768
-0.00097352297
0.00020005845
-0.00061719649
0.00036218361
-0.0003053843
0.00038579495
-0.00011792014
0.00033594653
-3.405588e-05
0.00028596678
-5.2359804e-06
0.000257421
3.8064572e-06
0.00024634389
8.0667568e-06
0.00024177877
1.1101689e-05
0.00023626751
1.2716357e-05
0.00022729202
1.2468837e-05
0.00021563683
1.062285e-05
0.00020368266
7.9604556e-06
0.00019398278
5.2118309e-06
0.00018881008
2.3855673e-06
0.00019116652
0.0076598806
-0.0013379917
0.020020309
-0.0026525931
0.0020076164
-0.0018527268
-0.021003008
0.00081413783
-0.037705394
0.0049470788
-0.0045415895
0.0044500211
0.026125675
-9.9835852e-06
0.048349947
-0.0069522918
0.031220408
-0.0097119606
-0.0016205579
-0.0066770695
-0.025504095
-0.0026708646
-0.036338035
0.0049715668
-0.020241824
0.0084660273
-0.00122005
0.0069686961
0.01042999
0.0027592832
0.011423029
-0.0010557946
0.0065370304
-0.0026338664
0.0018444204
-0.0025041033
-0.00093681424
-0.001523981
-0.0018402774
-0.00044687375
-0.0014931978
0.00024921704
-0.00090050598
0.00048339453
-0.00044737922
0.00050420456
-0.00014777305
0.000415675
-2.3358301e-05
0.0003252731
9.9519902e-06
0.00027079623
1.1301368e-05
0.00024993454
8.8344573e-06
0.00024557501
9.1275749e-06
0.00024374645
1.0923303e-05
0.00023805183
1.2126283e-05
0.00022763637
1.176304e-05
0.00021449387
1.0099914e-05
0.00020156498
7.8282841e-06
0.00019135471
5.4256168e-06
0.00018580542
3.0632583e-06
0.00018809109
0.0084649201
-0.0013609147
0.021259658
-0.002577333
0.0010883201
-0.0017332924
-0.023657471
0.00080175283
-0.041781782
0.004890541
-0.0041444733
0.0045499617
0.028464438
0.0021112554
0.055320088
-0.0069801408
0.034087871
-0.0098197679
-0.0049617652
-0.0063707526
-0.030039957
-0.0021412004
-0.044918155
0.005909272
-0.025958417
0.010688179
-0.0013049494
0.0085509351
0.01400026
0.0033984329
0.01565039
-0.0014680726
0.0089917353
-0.0035104963
0.0025871502
-0.0033765735
-0.0012932069
-0.0021476932
-0.0026723416
-0.00069188228
-0.002252957
0.00031291425
-0.0013339583
0.00068270611
-0.00064162821
0.0006776783
-0.00018822302
0.00054469206
6.088386e-06
0.00038626533
4.6429588e-05
0.00028882978
3.2743273e-05
0.00024938232
1.5649868e-05
0.00024313768
8.1438378e-06
0.00024656563
7.8760198e-06
0.00024679375
1.0044572e-05
0.0002401283
1.1551483e-05
0.0002278519
1.1438199e-05
0.00021315119
1.0144062e-05
0.00019927178
8.2150624e-06
0.0001885495
6.045476e-06
0.0001828612
3.4779889e-06
0.00018459878
0.0091574137
-0.0013291933
0.022285961
-0.0023872105
5.7298595e-05
-0.001546308
-0.026162971
0.00077222086
-0.045711696
0.0047316798
-0.0037540523
0.0045001167
0.030729178
0.0022852202
0.062145936
-0.0047146057
0.036098199
-0.0089904749
-0.0088653688
-0.0059161572
-0.036055641
-0.00035505485
-0.055219173
0.0081598349
-0.03333839
0.013289265
-0.00087320201
0.010256439
0.018482057
0.0040691404
0.021027365
-0.001978533
0.012079125
-0.00455546
0.003526431
-0.004449747
-0.0017487749
-0.0029209845
-0.0038106068
-0.0010093859
-0.0033364104
0.00039160391
-0.0019889682
0.00096796396
-0.00090854934
0.00094966177
-0.00023823338
0.00072772504
6.7160807e-05
0.00048365581
0.00011729107
0.00031544153
7.8698084e-05
0.00024291179
3.4579745e-05
0.00023048582
1.0659659e-05
0.00024064624
4.0848368e-06
0.0002503702
5.8440091e-06
0.00025100064
9.3401172e-06
0.00024233852
1.1499245e-05
0.00022779836
1.1787076e-05
0.00021150303
1.0861634e-05
0.00019664912
9.1446242e-06
0.00018543049
6.9213253e-06
0.00017945858
4.1128952e-06
0.00018046934
0.009692311
-0.0012613469
0.02304437
-0.0020875962
-0.0009857375
-0.0013441719
-0.028473991
0.00076472349
-0.049380478
0.004441014
-0.0033724304
0.0043500524
0.032872123
0.0023571729
0.068911355
-0.0044802073
0.039967918
-0.0085843285
-0.012580969
-0.0052748643
-0.042913145
0.00094136028
-0.065496439
0.0099222298
-0.040746726
0.015568189
0.00033001355
0.012086057
0.024322771
0.0044157258
0.027731592
-0.002635075
0.015893006
-0.0057924124
0.0046577162
-0.0056867121
-0.0023126531
-0.003885847
-0.005303973
-0.0014275743
-0.0048441569
0.00049839428
-0.0029533632
0.0013560374
-0.0012905208
0.0013499659
-0.00027772862
0.00098918533
0.00016603656
0.00062887415
0.00024730581
0.00035366729
0.00016572
0.00022844855
7.4950265e-05
0.00020257387
2.0766398e-05
0.0002204105
4.8976317e-07
0.00024426686
-8.9172057e-07
0.00025712306
4.2933504e-06
0.00025605866
9.4545044e-06
0.00024438642
1.23097e-05
0.00022728753
1.2975752e-05
0.00020938345
1.2236369e-05
0.00019358311
1.0515936e-05
0.00018181214
8.1147141e-06
0.00017550012
4.8143326e-06
0.00017563632
-0.0011712589
0.010037425
0.023468603
-0.0016855743
-0.0019416081
-0.0011317245
-0.03052927
0.00071111511
-0.052660189
0.0040444458
-0.0029468851
0.0040154623
0.034881587
0.0023405927
0.075521152
-0.0042526276
0.044108752
-0.0086210473
-0.013180842
-0.0079844433
-0.049533446
0.0013454435
-0.074924299
0.010369235
-0.045768124
0.01494364
0.0038346592
0.012063552
0.032311397
0.004097432
0.035816946
-0.0036696142
0.020477839
-0.0072199067
0.0059832144
-0.0071178812
-0.0029853384
-0.0050140093
-0.0072004282
-0.0019893556
-0.0068834305
0.00061172859
-0.004333979
0.0018790423
-0.0018449688
0.0019105127
-0.00030422632
0.0013764848
0.00033681208
0.00081842437
0.00046078041
0.00041540991
0.0003167074
0.00020269099
0.00015147214
0.0001519429
4.5048519e-05
0.00017831389
-1.262749e-06
0.00022218654
-1.0798093e-05
0.00025419574
-4.8338325e-06
0.00026626721
4.1204792e-06
0.00026140716
1.079367e-05
0.00024590931
1.4170772e-05
0.00022610872
1.4991595e-05
0.00020662268
1.4197961e-05
0.00018992899
1.2239637e-05
0.00017765982
9.440806e-06
0.0001709197
5.4701056e-06
0.0001701454
-0.0012057813
0.02350313
-0.001049621
0.010152734
-0.0027444844
-0.00088269863
-0.032227933
0.00056694441
-0.055458026
0.0035089634
-0.0024101488
0.0035077038
0.036656421
0.0022406314
0.081813599
-0.0039518531
0.048207756
-0.0083516397
-0.013588654
-0.0082132231
-0.05344593
-0.0040719578
-0.083896102
0.010317258
-0.04887375
0.013474866
0.0081482955
0.010630008
0.041248628
0.0031263192
0.045318749
-0.0054043593
0.025634989
-0.0088267646
0.0074502277
-0.0086869011
-0.0037613298
-0.006341882
-0.0095545424
-0.0026598775
-0.0096596387
0.00078686977
-0.0062739929
0.0025517591
-0.0026352358
0.0026693315
-0.00031748965
0.0019237918
0.00063434378
0.0010789663
0.00078090185
0.00049830588
0.00057248399
0.00015963232
0.00028383686
7.032401e-05
9.2229162e-05
0.00010476605
1.4061326e-06
0.00017565349
-2.4657206e-05
0.00023605915
-1.9941365e-05
0.00026931859
-6.3406112e-06
0.00027674203
5.8594166e-06
0.00026635728
1.354169e-05
0.00024654777
1.7079874e-05
0.00022404062
1.7747207e-05
0.00020306782
1.6582865e-05
0.0001856162
1.4218573e-05
0.00017285138
1.077791e-05
0.00016566043
6.1678272e-06
0.00016395481
-0.00059277976
-0.0033574883
-0.00069772322
0.023151236
-0.00090698526
0.010035198
-0.033443719
0.00033309127
-0.057660874
0.002769803
-0.0017322472
0.0028310577
0.038153982
0.0020101442
0.08763613
-0.0035818962
0.052033514
-0.0077776127
-0.013936995
-0.008003287
-0.057475651
-0.0041834939
-0.092707182
0.004739126
-0.050955094
0.012398609
0.011876945
0.0097462168
0.049227185
0.0026514447
0.055977743
-0.0075326706
0.030927014
-0.010696389
0.0089753185
-0.010351851
-0.0046247524
-0.0078234808
-0.012408059
-0.0034883711
-0.013231665
0.00091215025
-0.0089098606
0.0034227295
-0.0037488592
0.0036653939
-0.00031066435
0.0026625116
0.0011121151
0.001446037
0.0012706234
0.00058925113
0.00096978536
0.00010100756
0.00050175147
-5.8289212e-05
0.00017865743
-1.611094e-05
1.3161532e-05
9.3003963e-05
-4.3308618e-05
0.00019430301
-4.3814077e-05
0.00025993437
-2.4692002e-05
0.00028767602
-4.6698281e-06
0.00028727984
9.684578e-06
0.0002702295
1.7667041e-05
0.00024597079
2.0915094e-05
0.00022089621
2.1066574e-05
0.00019857847
1.9362215e-05
0.00018050574
1.6260589e-05
0.00016733499
1.2145523e-05
0.00015973365
6.7645186e-06
0.00015716564
6.1299589e-05
-0.034097798
-0.00032787106
-0.0037273443
-0.00021875145
0.022463004
-0.00072082967
0.0096734454
-0.059251192
0.0019234192
-0.0010428835
0.0020804368
0.03923032
0.0017547195
0.092800189
-0.0031539102
0.055374108
-0.0069224913
-0.014093246
-0.0076213525
-0.061534418
-0.0039445113
-0.10166951
0.0047788344
-0.057286841
0.011070879
0.015152676
0.0091228774
0.055967456
0.0030059425
0.067008353
-0.0083791682
0.036120865
-0.012726529
0.010360347
-0.012081423
-0.005526452
-0.0094501575
-0.015737205
-0.0044943556
-0.017799805
0.0010797623
-0.012490221
0.0044924819
-0.0052790968
0.0049529661
-0.00027830237
0.0036330201
0.0018367685
0.001937872
0.0020239337
0.00069273634
0.0015463178
1.2734797e-05
0.00084704903
-0.00024428492
0.00031564202
-0.00019527308
3.7164022e-05
-4.0119584e-05
-6.8442588e-05
0.00011812895
-8.0505925e-05
0.0002309872
-5.5257193e-05
0.00029049253
-2.4051927e-05
0.00030705573
3.2406188e-07
0.0002966424
1.5473281e-05
0.00027243559
2.297088e-05
0.00024392449
2.5430518e-05
0.00021655832
2.4728199e-05
0.00019320681
2.2188946e-05
0.00017461342
1.8273583e-05
0.00016117057
1.3357896e-05
0.00015319322
7.2730637e-06
0.00014986629
0.00097115824
-0.060161042
-0.00026784659
-0.034157824
-1.140995e-05
-0.0039346908
0.0002685261
0.021473648
-0.00054557675
0.0090837538
-0.00062392682
0.0015044611
0.039692754
0.0016180031
0.097143528
-0.0025886104
0.058030346
-0.0058101505
-0.014118827
-0.006896902
-0.065219771
-0.003936003
-0.1105755
0.004961478
-0.063882138
0.011374134
0.012695023
0.013528531
0.06198288
0.0031074526
0.078354281
-0.0083399916
0.042219981
-0.014478291
0.011334969
-0.013701159
-0.0063778529
-0.011230025
-0.019518143
-0.0056692376
-0.023460613
0.0011664533
-0.017219369
0.0058088822
-0.0073594183
0.0065728013
-0.00019048983
0.0048651304
0.0029003719
0.0025694201
0.003138663
0.00082314616
0.0023673029
-0.00012822871
0.0013583287
-0.00049852667
0.00052496777
-0.00045359285
8.0599977e-05
-0.00023869849
-0.00010352521
-5.034923e-06
-0.00013643157
0.00017405112
-0.00010448098
0.00028020219
-5.7466987e-05
0.00032389578
-1.7943343e-05
0.00032531405
8.3332393e-06
0.00030377716
2.2871337e-05
0.00027254335
2.913525e-05
0.00024022715
3.0338245e-05
0.00021097629
2.8536997e-05
0.00018685312
2.4929732e-05
0.00016799602
2.0104094e-05
0.00015438556
1.4413169e-05
0.00014610786
7.6893385e-06
0.00014214917
0.000850331
-0.00050310029
-8.9781071e-05
-0.060339102
-0.00041463423
-0.033754604
0.0002180665
-0.0038842371
0.00072680527
0.020201264
-0.00039179296
0.0082973938
0.040039318
0.0011578997
0.1004997
-0.0017381534
0.060057003
-0.0046152669
-0.014070406
-0.0058585655
-0.06852638
-0.0035902976
-0.11953046
0.0050189556
-0.069906595
0.010985938
0.01055479
0.013514363
0.062608923
0.012902488
0.089543396
-0.0080816725
0.049456609
-0.015576626
0.012247214
-0.015390539
-0.0071524028
-0.012926602
-0.023714022
-0.0070341491
-0.030374361
0.0012445315
-0.023448615
0.0073956922
-0.010110225
0.0085597033
-2.7696812e-05
0.0064099957
0.0044222413
0.0033432584
0.0047464176
0.00096166071
0.0035301187
-0.00033966266
0.0020699695
-0.00083985353
0.00084075682
-0.00081429289
0.00015120407
-0.00052417123
-0.00015092728
-0.00019127627
-0.00022035503
7.8903273e-05
-0.00018139363
0.00025096943
-0.0001126152
0.00033534687
-5.0437999e-05
0.00035637901
-6.9906984e-06
0.00034062408
1.8735497e-05
0.00030790087
3.1387386e-05
0.00027029465
3.5772911e-05
0.00023479694
3.5322763e-05
0.0002042201
3.2129607e-05
0.00017964756
2.7436341e-05
0.00016070499
2.1692583e-05
0.00014706525
1.5269398e-05
0.00013858393
7.9759172e-06
0.00013414429
0.00067163477
0.040218018
0.00018023971
-0.00077312064
-0.001130654
-0.05962308
-0.00064796021
-0.032888582
0.00047888404
-0.0036363225
0.0011521031
0.018657365
-0.00025378917
0.0073571545
0.10263941
-0.00098180106
0.061645781
-0.0033269305
-0.014053075
-0.0046325967
-0.071294294
-0.0030906499
-0.12803374
0.0049129744
-0.075669649
0.010782017
0.0084921587
0.013048557
0.063153137
0.012970142
0.099923528
0.0025223482
0.057877523
-0.016502592
0.013550631
-0.016880039
-0.0083239501
-0.014218972
-0.02844449
-0.0081961233