/*--------------------------------*- C++ -*----------------------------------*\
| =========                 |                                                 |
| \\      /  F ield         | OpenFOAM: The Open Source CFD Toolbox           |
|  \\    /   O peration     | Version:  5.0                                   |
|   \\  /    A nd           | Web:      www.OpenFOAM.org                      |
|    \\/     M anipulation  |                                                 |
\*---------------------------------------------------------------------------*/
FoamFile
{
    version     2.0;
    format      ascii;
    class       volScalarField;
    location    "100";
    object      nut;
}
// * * * * * * * * * * * * * * * * * * * * * * * * * * * * * * * * * * * * * //

dimensions      [0 2 -1 0 0 0 0];

internalField   nonuniform List<scalar> 
9520
(
3.8945131e-115
4.6042501e-107
2.4631103e-115
3.1821502e-100
2.9014962e-107
1.4897551e-115
3.9770639e-94
1.9961027e-100
1.7529207e-107
8.8854275e-116
1.4359274e-88
2.4838288e-94
1.2032068e-100
1.0481117e-107
5.3687955e-116
1.9393419e-83
8.9338196e-89
1.4935828e-94
7.2013554e-101
6.3719805e-108
3.3732788e-116
1.1547527e-78
1.2029797e-83
5.3598032e-89
8.942564e-95
4.3959051e-101
4.0377201e-108
2.2384757e-116
3.3968793e-74
7.14903e-79
7.2029827e-84
3.2090091e-89
5.4746571e-95
2.8021191e-101
2.7032049e-108
1.5730547e-116
5.3673732e-70
2.101694e-74
4.2740127e-79
4.3112794e-84
1.9683212e-89
3.5045832e-95
1.8874908e-101
1.9147001e-108
1.1639979e-116
4.8566918e-66
3.3243558e-70
1.2552601e-74
2.5567314e-79
2.6470646e-84
1.2634534e-89
2.3706767e-95
1.344435e-101
1.4278397e-108
9.0363191e-117
2.648824e-62
3.0175943e-66
1.9848461e-70
7.5023932e-75
1.5698683e-79
1.7013442e-84
8.5689298e-90
1.6956701e-95
1.0091415e-101
1.1202714e-108
7.4136934e-117
9.1025935e-59
1.6555856e-62
1.8024369e-66
1.1847331e-70
4.601983e-75
1.0088461e-79
1.155131e-84
6.1480494e-90
1.2806175e-95
8.0015893e-102
9.3457238e-109
6.544887e-117
2.1244701e-55
5.7452016e-59
9.9008453e-63
1.0737743e-66
7.2514005e-71
2.9525098e-75
6.8463701e-80
8.3054415e-85
4.6715652e-90
1.0268895e-95
6.7904849e-102
8.4441003e-109
6.3218609e-117
5.9687481e-52
1.3703979e-55
3.44143e-59
5.8810837e-63
6.549055e-67
4.6374124e-71
1.9994358e-75
4.9279389e-80
6.3496684e-85
3.7916776e-90
8.8734439e-96
6.2763072e-102
8.3635605e-109
6.6688177e-117
4.3822948e-47
4.3903257e-52
8.1838564e-56
2.033739e-59
3.5687682e-63
4.1681457e-67
3.1281491e-71
1.4389529e-75
3.7904726e-80
5.2208596e-85
3.3389791e-90
8.3878266e-96
6.3571234e-102
8.9876005e-109
7.4588436e-117
1.343123e-40
4.8450684e-47
2.4433751e-52
4.7343297e-56
1.2249336e-59
2.2569961e-63
2.7951133e-67
2.2472858e-71
1.1131879e-75
3.1593139e-80
4.6879207e-85
3.2260574e-90
8.6660516e-96
6.9239977e-102
1.0094284e-108
8.4090162e-117
3.864009e-34
1.687319e-40
1.9977186e-47
1.1412998e-52
2.786314e-56
7.6845274e-60
1.5015964e-63
2.0002822e-67
1.7471308e-71
9.4088779e-76
2.8934486e-80
4.6249037e-85
3.3902776e-90
9.5225005e-96
7.7603023e-102
1.1226949e-108
9.0395633e-117
3.7811701e-28
4.66305e-34
5.698164e-41
3.7320172e-48
5.3985276e-53
1.7174145e-56
5.0614282e-60
1.0675692e-63
1.5605314e-67
1.4974968e-71
8.7895537e-76
2.9110715e-80
4.9286174e-85
3.74136e-90
1.0593103e-95
8.4652232e-102
1.1714281e-108
8.8431984e-117
1.1085051e-22
4.2654722e-28
1.4280803e-34
6.046286e-42
5.3623564e-49
2.8768527e-53
1.1136083e-56
3.5631652e-60
8.3381281e-64
1.3556692e-67
1.4267341e-71
9.0058368e-76
3.1361061e-80
5.4385831e-85
4.1109372e-90
1.128028e-95
8.5367854e-102
1.0993545e-108
7.6363036e-117
9.3896699e-18
1.1559474e-22
1.2108336e-28
1.307616e-35
3.2034877e-43
1.000627e-49
1.7178743e-53
7.7252663e-57
2.776627e-60
7.3340662e-64
1.3169881e-67
1.4868717e-71
9.779517e-76
3.4463565e-80
5.8770964e-85
4.2566717e-90
1.0961094e-95
7.6693783e-102
9.0554646e-109
5.7572322e-117
2.262566e-13
9.0166461e-18
3.0688433e-23
1.0360658e-29
5.8089565e-37
1.3607142e-44
2.9553602e-50
1.1397173e-53
5.9785381e-57
2.4689107e-60
7.264997e-64
1.3950201e-67
1.6235574e-71
1.0664605e-75
3.6490103e-80
5.8986221e-85
3.9766096e-90
9.4181343e-96
6.0283146e-102
6.5228074e-109
3.8290948e-117
1.5355617e-09
1.9942679e-13
2.2762036e-18
2.5429223e-24
4.6776628e-31
1.9475052e-38
6.2803018e-46
1.359274e-50
8.6496196e-54
5.3622701e-57
2.4957654e-60
7.822086e-64
1.5294877e-67
1.7517927e-71
1.1028924e-75
3.5410563e-80
5.2904217e-85
3.2677182e-90
7.0762356e-96
4.1634435e-102
4.1902946e-109
2.3348396e-117
2.7043643e-06
1.2451278e-09
4.8841913e-14
1.9075412e-19
1.2796171e-25
1.9394223e-32
5.2605006e-40
4.5832346e-47
9.0023497e-51
7.7920574e-54
5.5388591e-57
2.7361997e-60
8.6072038e-64
1.6295568e-67
1.7649345e-71
1.0328708e-75
3.0469714e-80
4.1610624e-85
2.3532051e-90
4.7100067e-96
2.6033882e-102
2.5259367e-109
1.4010763e-117
0.00013943911
2.0348133e-06
3.0738786e-10
4.3932903e-15
1.1799587e-20
7.9194555e-27
7.5182931e-34
8.2298001e-42
9.9490557e-48
7.9555227e-51
8.233433e-54
6.20414e-57
3.025169e-60
9.0461129e-64
1.5961585e-67
1.5928053e-71
8.5265557e-76
2.2976504e-80
2.8828414e-85
1.5191538e-90
2.8942146e-96
1.5710124e-102
1.5543389e-109
9.1393955e-118
0.00050617689
0.00012132734
5.4736761e-07
3.1932043e-11
3.7505614e-16
1.2526358e-21
5.5640055e-28
1.3388107e-35
1.1974792e-43
6.3123302e-48
8.5124049e-51
9.4574295e-54
6.9113039e-57
3.1364192e-60
8.6016596e-64
1.3863569e-67
1.2619803e-71
6.1797537e-76
1.5387151e-80
1.818614e-85
9.273505e-91
1.7729917e-96
1.0069438e-102
1.0853543e-109
7.1694935e-118
0.0011242772
0.00044024402
7.3913613e-05
7.213981e-08
4.0559129e-12
7.3033761e-17
1.6829727e-22
1.659367e-29
9.8414907e-38
1.0682802e-44
6.5172317e-48
1.0035282e-50
1.0657174e-53
7.0722269e-57
2.891753e-60
7.1806712e-64
1.0548049e-67
8.8179263e-72
4.023416e-76
9.5664117e-81
1.1158616e-85
5.8504691e-91
1.201575e-96
7.6177005e-103
9.3921501e-110
7.1291188e-118
0.0018203969
0.00096693614
0.00032609888
2.7819759e-05
1.3968694e-08
1.3638217e-12
1.7194715e-17
8.4847845e-24
1.9463735e-31
1.8861847e-39
8.3838233e-45
8.185137e-48
1.1538688e-50
1.078383e-53
6.309678e-57
2.3160213e-60
5.2478248e-64
7.1304446e-68
5.6178531e-72
2.4884725e-76
5.9721385e-81
7.3498404e-86
4.2460843e-91
9.9267473e-97
7.2675464e-103
1.0277538e-109
8.7331768e-118
0.0024699277
0.0015773459
0.00075068791
0.00022485964
1.0529759e-05
6.9848689e-09
4.8222824e-13
1.3313259e-18
1.7350632e-25
7.1765673e-33
2.2082795e-39
2.546201e-44
1.0583633e-47
1.1618348e-50
9.2901551e-54
4.8318443e-57
1.6244646e-60
3.4437406e-64
4.4772179e-68
3.4912465e-72
1.5996794e-76
4.1569847e-81
5.7650487e-86
3.8412253e-91
1.0376424e-96
8.6190842e-103
1.3395054e-109
1.2061083e-117
0.0030424417
0.0021616508
0.0012800626
0.00057605049
0.0001733932
7.1569473e-06
3.2182922e-09
5.2558592e-14
4.3787772e-20
1.3705601e-26
1.8891579e-32
5.1295178e-38
1.388281e-43
1.161376e-47
9.637103e-51
6.7661939e-54
3.2450778e-57
1.0373969e-60
2.1466809e-64
2.8245625e-68
2.3367132e-72
1.1879722e-76
3.5409702e-81
5.6955663e-86
4.3511103e-91
1.3099215e-96
1.1689509e-102
1.8812571e-109
1.7005603e-117
0.0035342572
0.002681963
0.0018101174
0.0010554377
0.0004953033
0.00015980704
4.1982563e-06
4.6246611e-10
2.5573582e-15
5.9307836e-21
5.1430111e-26
5.5151298e-31
1.2691727e-36
4.0688872e-43
9.0485761e-48
6.6052932e-51
4.3302432e-54
2.0195541e-57
6.4648845e-61
1.3884422e-64
1.9869259e-68
1.8631072e-72
1.0990372e-76
3.7920014e-81
6.8912215e-86
5.7367644e-91
1.8106095e-96
1.6359571e-102
2.5935025e-109
2.2658441e-117
0.0039768476
0.0031301118
0.0022862235
0.0015538545
0.00096165065
0.00047647769
0.00013729282
8.5094288e-07
3.1375042e-11
4.9628426e-16
2.4671878e-20
1.2696021e-24
1.3964811e-29
6.5924667e-36
2.4396295e-43
5.1426484e-48
3.9885297e-51
2.6256292e-54
1.2662061e-57
4.3263658e-61
1.0342041e-64
1.7055381e-68
1.8640891e-72
1.2615135e-76
4.8222521e-81
9.3156891e-86
7.9333179e-91
2.4825219e-96
2.1728318e-102
3.2860377e-109
2.7159616e-117
0.0043706816
0.0035336416
0.0026979624
0.0020026968
0.0014501609
0.00093685461
0.00042678312
8.0584642e-05
7.9852847e-08
7.7704433e-12
2.0170347e-15
4.8873841e-19
2.7324685e-23
7.0467158e-29
3.4735446e-36
2.7899791e-44
2.6741702e-48
2.3495374e-51
1.6651496e-54
8.8395284e-58
3.4300983e-61
9.5505813e-65
1.8312202e-68
2.2625274e-72
1.6584857e-76
6.5721895e-81
1.2688033e-85
1.0509961e-90
3.1398243e-96
2.5929505e-102
3.6786167e-109
2.849373e-117
0.0047001652
0.0038918118
0.0030701125
0.002391049
0.0018841123
0.0014077546
0.00084332537
0.00030880182
2.5169816e-05
2.3279524e-08
2.8947963e-11
3.1586358e-14
8.5906713e-18
1.2602342e-22
3.6715472e-29
1.2431867e-37
2.5727043e-45
1.4937203e-48
1.5149845e-51
1.2196663e-54
7.4814482e-58
3.3950232e-61
1.0892811e-64
2.3163805e-68
3.0268504e-72
2.2454165e-76
8.7042978e-81
1.6065208e-85
1.2543233e-90
3.5032787e-96
2.6950043e-102
3.5634218e-109
2.5818093e-117
0.0049687149
0.0041931093
0.0034022579
0.0027384858
0.0022543306
0.0018177568
0.0012670649
0.00063943112
0.00019025255
1.0780482e-05
7.6076887e-08
3.5597892e-10
4.4283364e-13
3.5499479e-17
6.5814753e-23
1.3217498e-30
4.2382149e-40
7.6558236e-46
9.7467756e-49
1.1650739e-51
1.1023901e-54
7.8897004e-58
4.0659617e-61
1.4155629e-64
3.1084826e-68
4.0202951e-72
2.8624905e-76
1.0447529e-80
1.7967755e-85
1.301097e-90
3.3658451e-96
2.4020769e-102
2.9597858e-109
2.0114237e-117
0.0051796243
0.0044413936
0.0036848971
0.0030474705
0.0025752837
0.0021610095
0.0016363574
0.00099303781
0.0004349024
0.00014421975
2.4173524e-05
7.1171269e-07
3.8905632e-09
1.6127685e-12
1.8688037e-17
2.6993863e-24
3.5936716e-33
2.3018828e-42
4.5931835e-46
7.8776652e-49
1.1229166e-51
1.2309867e-54
9.8040539e-58
5.355891e-61
1.8817803e-64
4.0084991e-68
4.8940738e-72
3.2374138e-76
1.0897448e-80
1.7254028e-85
1.1516288e-90
2.7539118e-96
1.825721e-102
2.1048243e-109
1.3495412e-117
0.0053365791
0.0046402869
0.0039217429
0.0033111789
0.0028551954
0.0024494015
0.0019460808
0.0013130816
0.00071909311
0.00035741156
0.00019025923
7.6299831e-05
5.2893045e-06
1.2248561e-08
8.5998805e-13
9.0468392e-19
1.0261116e-26
3.6947007e-36
2.3396676e-43
3.858345e-46
8.0848685e-49
1.3202576e-51
1.5699162e-54
1.2933768e-57
6.97782e-61
2.336156e-64
4.630963e-68
5.1931547e-72
3.1393486e-76
9.6618133e-81
1.4035324e-85
8.6353159e-91
1.914126e-96
1.1849225e-102
1.2873068e-109
7.8532528e-118
0.0054442005
0.0047935519
0.0041168493
0.0035331875
0.0030910573
0.0026955721
0.0022112199
0.0015906368
0.00099430638
0.00061602407
0.00043885571
0.00030375581
0.00014831742
1.2275656e-05
6.6428457e-09
5.0481307e-14
5.1034113e-21
1.5471652e-29
5.4549926e-39
1.4629367e-43
4.2119199e-46
9.9757119e-49
1.7145031e-51
2.0495285e-54
1.6366237e-57
8.2825842e-61
2.5491973e-64
4.5963183e-68
4.6731356e-72
2.5664841e-76
7.2145318e-81
9.6364116e-86
5.4893966e-91
1.1352809e-96
6.6187644e-103
6.8454195e-110
4.0124809e-118
0.0055086217
0.004905267
0.0042736464
0.0037181124
0.0032868837
0.0028987669
0.0024366061
0.0018464687
0.0012442518
0.00087532549
0.0007325302
0.00063519678
0.0004429958
0.0001859668
7.4138607e-06
4.8582182e-10
4.2860428e-16
1.2632825e-23
1.4436844e-32
1.1540242e-40
1.6363483e-43
5.4557142e-46
1.312838e-48
2.1973479e-51
2.4993253e-54
1.8469176e-57
8.5044622e-61
2.3615795e-64
3.8346831e-68
3.5223438e-72
1.7593781e-76
4.5369722e-81
5.6088443e-86
2.9833299e-91
5.8175455e-97
3.2345762e-103
3.2279228e-110
1.8431966e-118
0.0055392092
0.0049810198
0.0043957032
0.0038686349
0.003447467
0.0030630512
0.0026220897
0.0020698567
0.0014845797
0.0011134812
0.0010120165
0.0009940924
0.00085377247
0.00051067561
0.00015503746
8.0819521e-07
6.2608252e-12
1.6790489e-18
1.8090414e-26
1.3748938e-35
5.7043912e-41
2.2322137e-43
7.2728907e-46
1.6421742e-48
2.5538008e-51
2.6693221e-54
1.7789102e-57
7.3423411e-61
1.8263288e-64
2.6670415e-68
2.2202009e-72
1.0153193e-76
2.4243449e-81
2.8058723e-86
1.4125895e-91
2.6392801e-97
1.4251231e-103
1.3970644e-110
7.9254226e-119
0.0055477978
0.005032802
0.004486489
0.0039873544
0.0035748256
0.0031927672
0.0027712017
0.0022588942
0.001703355
0.0013332677
0.0012544687
0.001302808
0.0012527925
0.00093902669
0.00043803024
7.115787e-05
1.6485323e-08
3.751814e-14
3.7935923e-21
1.9296931e-29
1.8927392e-37
8.0658223e-41
3.0347802e-43
8.8484343e-46
1.8083502e-48
2.5683461e-51
2.4058732e-54
1.4295085e-57
5.264568e-61
1.1739549e-64
1.550046e-68
1.1803717e-72
5.0060357e-77
1.1244605e-81
1.2412134e-86
6.0431432e-92
1.1086034e-97
5.9667327e-104
5.8951962e-111
3.4088838e-119
0.0050722098
0.0055534756
0.0045515422
0.0040756814
0.0036709034
0.003289956
0.0028877923
0.0024166575
0.0018954774
0.0015335999
0.0014608008
0.0015447642
0.0015614137
0.0013273865
0.00081124769
0.00026943049
6.7677542e-06
1.4810754e-10
1.3199954e-16
7.7621656e-24
2.2111448e-31
4.3542981e-37
1.2732541e-40
3.5917924e-43
9.168732e-46
1.6898621e-48
2.1620585e-51
1.7980846e-54
9.5075384e-58
3.1344896e-61
6.3168018e-65
7.6382202e-69
5.4151262e-73
2.1774793e-77
4.7231654e-82
5.124056e-87
2.4955507e-92
4.6613191e-98
2.5904311e-104
2.6700589e-111
1.6218112e-119
0.0045932222
0.0050930495
0.005544226
0.0041343126
0.0037366444
0.0033568869
0.0029743437
0.0025461302
0.0020615785
0.0017107708
0.001634453
0.0017331188
0.0017808415
0.001613096
0.0011572271
0.00053823525
0.00010908116
1.0826711e-07
8.2521416e-13
6.3387379e-19
4.7216371e-25
1.9799796e-30
3.3912441e-36
1.5646909e-40
3.4663952e-43
7.8955618e-46
1.3251267e-48
1.502263e-51
1.1104508e-54
5.2580298e-58
1.5699982e-61
2.910013e-65
3.3011481e-69
2.2472606e-73
8.892967e-78
1.9436424e-82
2.1715031e-87
1.1112113e-92
2.2181404e-98
1.327387e-104
1.4793396e-111
9.6877296e-120
0.0041636322
0.0046118291
0.005088627
0.0055027348
0.0037726653
0.003395712
0.0030338679
0.0026496645
0.0022036401
0.0018650426
0.0017824712
0.001872905
0.0019341253
0.0018076251
0.001423766
0.00081569367
0.00027154146
1.2154811e-05
1.0408547e-09
1.176275e-14
2.1431085e-19
8.2380376e-24
3.6454126e-29
7.7234278e-36
1.251798e-40
2.7093073e-43
5.6835794e-46
8.5568636e-49
8.6291283e-52
5.7269692e-55
2.4688469e-58
6.840028e-62
1.2054551e-65
1.339337e-69
9.2242275e-74
3.8108901e-78
8.9340368e-83
1.0939806e-87
6.2298795e-93
1.3917692e-98
9.2799163e-105
1.140924e-111
8.1132655e-120
0.0037796571
0.0041640653
0.0046100679
0.0050527358
0.0054220013
0.0034089186
0.0030704927
0.0027301881
0.002323243
0.0019982217
0.0019072411
0.0019838975
0.0020396855
0.0019374958
0.0016141618
0.0010557976
0.00045500681
9.7817172e-05
3.070686e-07
5.5542022e-11
1.6553865e-14
4.7560139e-18
1.4327617e-22
1.034707e-28
2.258607e-36
7.5184272e-41
1.7609364e-43
3.4060919e-46
4.5808479e-49
4.172374e-52
2.5448525e-55
1.032811e-58
2.7791069e-62
4.9397445e-66
5.7700184e-70
4.3460639e-74
2.0259755e-78
5.4648059e-83
7.761298e-88
5.1123771e-93
1.3008904e-98
9.6808806e-105
1.2982602e-111
9.8331347e-120
0.0033988552
0.0037583591
0.0041429479
0.0045814103
0.0049795151
0.0052968138
0.0030882717
0.0027910623
0.0024225332
0.0021121926
0.0020124864
0.002070607
0.0021148802
0.0020263155
0.0017568257
0.0012476137
0.00063919653
0.00021526678
1.8586542e-05
6.8865422e-08
2.1470272e-10
3.680679e-13
7.0394372e-17
3.9275132e-22
2.4372121e-29
1.1945654e-37
4.1080393e-41
9.7108481e-44
1.7031088e-46
2.0907164e-49
1.7768472e-52
1.0429843e-55
4.2400348e-59
1.1983295e-62
2.3527131e-66
3.1747101e-70
2.8467459e-74
1.5969842e-78
5.1509828e-83
8.5910093e-88
6.4779694e-93
1.8281718e-98
1.4676982e-104
2.0708659e-111
1.6148125e-119
0.0030884735
0.0033664506
0.0037121598
0.0041012152
0.0045198354
0.0048645344
0.0051231795
0.0028312204
0.0025048858
0.0022091648
0.0021004693
0.0021392412
0.0021653498
0.0020838566
0.0018616163
0.0014320082
0.00080942076
0.00035163114
0.00011893597
1.5901357e-05
4.7145844e-07
4.1275309e-09
4.4704003e-12
1.8017906e-16
1.0323947e-22
3.1766927e-31
1.0228837e-38
2.0416764e-41
4.5417023e-44
7.3977171e-47
8.6703033e-50
7.3197169e-53
4.4887522e-56
2.0185071e-59
6.6716352e-63
1.5994772e-66
2.6883169e-70
2.9839539e-74
2.0197842e-78
7.5941768e-83
1.4248448e-87
1.1674234e-92
3.4741315e-98
2.8754718e-104
4.1096429e-111
3.2016315e-119
0.002857128
0.0030656722
0.0033108707
0.0036435074
0.0040341477
0.0044201988
0.0047045199
0.0048982275
0.0025698039
0.0022901507
0.002173655
0.0021916218
0.0021983441
0.0021163978
0.0019333877
0.0015785622
0.0010056641
0.00050054833
0.00026196862
0.00015169384
6.4494821e-05
6.2222769e-06
3.9590107e-08
1.0496494e-11
5.2577568e-17
1.7955224e-24
2.865875e-34
3.3561998e-39
8.8991541e-42
1.8957955e-44
3.0469413e-47
3.7036374e-50
3.4467457e-53
2.4827061e-56
1.3831373e-59
5.836824e-63
1.7863207e-66
3.7265574e-70
4.9145908e-74
3.7749272e-78
1.547284e-82
3.0655752e-87
2.579645e-92
7.7424044e-98
6.3831225e-104
9.0083479e-111
6.8867886e-119
0.0026181996
0.0028593699
0.0030200369
0.0032330934
0.0035524282
0.003935215
0.0042789849
0.0044967882
0.0046187767
0.0023556221
0.0022330525
0.0022307614
0.002215692
0.0021301489
0.001978963
0.0016928228
0.0011845643
0.00067131428
0.00042966268
0.00035357238
0.00027949071
0.00016114913
2.9993468e-05
8.3538524e-08
3.3614886e-12
1.2973713e-18
1.6512084e-27
1.3140573e-36
1.3182849e-39
3.6060145e-42
7.9378445e-45
1.3988422e-47
1.9962405e-50
2.3213201e-53
2.1724488e-56
1.5816376e-59
8.4940459e-63
3.1538354e-66
7.5576084e-70
1.0898816e-73
8.8105446e-78
3.6984194e-82
7.3614604e-87
6.1280527e-92
1.8060094e-97
1.455682e-103
2.0036787e-110
1.4920019e-118
0.0024058176
0.0026481345
0.0028391886
0.0029521897
0.003132761
0.0034357895
0.0038006544
0.0040936018
0.0042390128
0.0042816383
0.0022789442
0.0022575396
0.0022206516
0.0021288194
0.0020044548
0.0017803508
0.0013411936
0.0008441083
0.00059463416
0.00058641467
0.00058434787
0.0004705642
0.00025493487
4.3850624e-05
2.9347116e-08
1.1529771e-13
2.3710173e-21
4.0779804e-31
1.7001369e-37
5.2172652e-40
1.5755411e-42
4.0695733e-45
9.004979e-48
1.694043e-50
2.6308954e-53
3.2061148e-56
2.8885557e-59
1.8073945e-62
7.3907497e-66
1.8642237e-69
2.7401565e-73
2.2109729e-77
9.1462794e-82
1.7772914e-86
1.4367899e-91
4.1080612e-97
3.2137332e-103
4.2983935e-110
3.1144288e-118
0.0023108417
0.0024401084
0.0026589811
0.0027978302
0.0028627663
0.0030098163
0.0032907876
0.0036280365
0.0038618511
0.0039282701
0.0038825624
0.0022720741
0.0022140954
0.0021159719
0.0020151683
0.0018459018
0.0014756668
0.0010081624
0.00075723529
0.0007915054
0.00090610024
0.00088756156
0.00064895251
0.00028410154
2.3346243e-05
1.4013159e-09
4.0102741e-16
1.06351e-24
2.6340777e-34
5.9362764e-38
2.4428611e-40
9.3628167e-43
3.2363223e-45
9.7804924e-48
2.4596372e-50
4.837597e-53
6.9796121e-56
6.9898382e-59
4.6194794e-62
1.9224614e-65
4.8151985e-69
6.9252922e-73
5.4248044e-77
2.1716438e-81
4.0660053e-86
3.1706578e-91
8.7660039e-97
6.6503053e-103
8.6518625e-110
6.1143058e-118
0.0022732303
0.0023279228
0.0024597329
0.0026515312
0.002736642
0.0027527842
0.0028628671
0.0031165895
0.0034148293
0.0035807096
0.0035609331
0.0034344322
0.0021962537
0.0020935357
0.0020157362
0.0018943251
0.0015892342
0.001158778
0.00091104946
0.00095939713
0.0011678359
0.001269964
0.0011251492
0.00069192032
0.00022167584
2.3519633e-06
8.9868392e-12
3.9385122e-19
2.4303666e-28
7.8346675e-36
3.0263499e-38
1.7373322e-40
9.3832197e-43
4.4773664e-45
1.7645989e-47
5.3726279e-50
1.1901307e-52
1.8238927e-55
1.8603587e-58
1.2174869e-61
4.9311889e-65
1.1908115e-68
1.6446064e-72
1.2363911e-76
4.7541053e-81
8.5486858e-86
6.4274678e-91
1.7205172e-96
1.2689901e-102
1.6113136e-109
1.115193e-117
0.0021666986
0.0022592288
0.0023303025
0.0024671635
0.0026261623
0.0026564353
0.0026217565
0.0026896587
0.0029097937
0.0031578266
0.0032467448
0.0031481058
0.0029348886
0.0020626241
0.0020092826
0.0019307407
0.0016840996
0.0012946804
0.0010516027
0.0011060082
0.0013355069
0.0015409838
0.0015061519
0.0011601144
0.00056281999
0.00010729449
2.9959303e-08
1.8244824e-14
1.791922e-22
6.4525653e-32
3.1314787e-36
2.6324874e-38
2.20291e-40
1.6177875e-42
9.6324026e-45
4.3593069e-47
1.424036e-49
3.2220308e-52
4.8828401e-55
4.8285297e-58
3.0292853e-61
1.1700901e-64
2.6916469e-68
3.5465361e-72
2.5517668e-76
9.4084448e-81
1.6273734e-85
1.1830441e-90
3.0772683e-96
2.2159568e-102
2.7589845e-109
8.556586e-126
0.0020249016
0.0021246411
0.0022298333
0.002320378
0.0024611364
0.0025828032
0.0025569569
0.0024672677
0.0024880535
0.0026663019
0.0028539194
0.0028690962
0.0026832027
0.0023484208
0.0019975009
0.0019580456
0.0017647133
0.0014156177
0.0011785221
0.0012299981
0.001469837
0.0016904264
0.0017371621
0.0015178049
0.00097874404
0.00033874767
1.2292834e-05
1.2024614e-10
1.6930189e-17
4.0682708e-26
5.7040207e-34
3.2800782e-36
4.1790788e-38
4.5828283e-40
3.9740028e-42
2.5759611e-44
1.1979318e-46
3.8707561e-49
8.4633149e-52
1.2234769e-54
1.1467463e-57
6.8047622e-61
2.4885298e-64
5.436305e-68
6.8313093e-72
4.7121339e-76
1.6682188e-80
2.7864156e-85
1.9673295e-90
4.9970096e-96
3.5313374e-102
3.1887729e-117
2.9994599e-135
0.0019796737
0.0019786983
0.0020705182
0.00218978
0.00230082
0.002439726
0.0025208588
0.0024359123
0.0022872479
0.0022554723
0.0023833074
0.002509846
0.0024401632
0.0021375609
0.001674848
0.0019825782
0.0018318805
0.0015236281
0.0012927538
0.0013355297
0.0015710599
0.0017990234
0.0018623921
0.0017227264
0.0013324987
0.0006560319
0.00013932291
1.2677889e-07
2.1381777e-13
7.4088305e-21
8.8685632e-30
3.5325951e-34
6.3779387e-36
1.0124029e-37
1.2358223e-39
1.1102675e-41
7.1289363e-44
3.1959588e-46
9.8025122e-49
2.0189687e-51
2.7423326e-54
2.4157948e-57
1.3506434e-60
4.6728534e-64
9.7068424e-68
1.1664849e-71
7.7346816e-76
2.6408856e-80
4.2814821e-85
2.9519085e-90
7.362899e-96
6.201067e-110
1.797646e-126
3.0061759e-146
0.0020016221
0.0019533061
0.0019218068
0.0020053589
0.002141944
0.0022687183
0.0024010357
0.0024380543
0.0022913546
0.0020780313
0.0019901945
0.0020670342
0.0021238444
0.0019370344
0.0015102828
0.00096400111
0.0018953929
0.0016199707
0.0013959127
0.0014259033
0.0016489084
0.0018688268
0.0019376333
0.0018361036
0.0015601728
0.00098227637
0.00033411931
1.6884615e-05
4.1906444e-10
1.770145e-16
1.6737547e-24
7.3030735e-32
7.8161442e-34
1.740669e-35
2.9024132e-37
3.5112948e-39
3.0300149e-41
1.8370822e-43
7.7083714e-46
2.2051071e-48
4.2363042e-51
5.3804606e-54
4.4480338e-57
2.3449515e-60
7.6939405e-64
1.5252869e-67
1.7608393e-71
1.1265299e-75
3.7305698e-80
5.9052327e-85
4.0000102e-90
1.9766068e-103
5.6834573e-119
2.9871795e-137
5.7959424e-159
0.0019527245
0.0020109322
0.0019166875
0.0018542109
0.001929361
0.0020791438
0.0022212866
0.0023421705
0.0023326334
0.0021179363
0.0018378917
0.0016971934
0.0017241857
0.001674148
0.0013606226
0.00085143551
0.00039136816
0.0017067906
0.0014891897
0.0015039092
0.0017082673
0.001913872
0.001973739
0.0018909769
0.001696799
0.0012685566
0.00056833161
0.00011948742
1.4627308e-07
6.2483889e-13
7.1264097e-20
4.6831987e-28
8.0761068e-32
2.3345981e-33
5.1801217e-35
8.2278821e-37
9.3117873e-39
7.4580866e-41
4.1839549e-43
1.624139e-45
4.3070828e-48
7.6995714e-51
9.1453725e-54
7.108826e-57
3.5453995e-60
1.1078625e-63
2.1064604e-67
2.3494497e-71
1.4567474e-75
4.7085883e-80
7.3246331e-85
1.6473919e-97
2.964434e-112
1.601404e-129
8.8907849e-150
3.8420709e-173
0.0017852236
0.0020003869
0.0020084011
0.0018697415
0.0017750013
0.0018392348
0.0020005652
0.0021547799
0.0022603081
0.0021985832
0.0019120973
0.0015679837
0.0013860117
0.0013325059
0.0011654166
0.00075722631
0.00033445533
8.4406255e-05
0.001573331
0.0015714739
0.0017526028
0.0019392101
0.0019834771
0.0019033546
0.001762504
0.0014679185
0.0008538094
0.00025271426
8.9156487e-06
3.8578151e-10
4.4711158e-16
1.6639554e-23
1.1827872e-29
2.4745205e-31
7.1022599e-33
1.446981e-34
2.0996943e-36
2.1725235e-38
1.5942536e-40
8.2167454e-43
2.9410087e-45
7.2251838e-48
1.2033411e-50
1.3402569e-53
9.8333711e-57
4.6615387e-60
1.3946955e-63
2.5583181e-67
2.7707942e-71
1.6759316e-75
5.323751e-80
4.6349438e-92
4.0576079e-106
1.4371397e-122
7.7300728e-142
7.3780752e-164
2.6496696e-188
0.0016494181
0.0018558272
0.0020356706
0.0019950952
0.0018117332
0.0016829061
0.0017335736
0.0019023673
0.002065273
0.0021501396
0.0020310727
0.0016674356
0.0012720812
0.0010383977
0.00090127613
0.00064113718
0.00029068226
6.1010314e-05
5.2504831e-07
0.0016290168
0.0017840019
0.0019474974
0.0019721165
0.0018858798
0.0017783037
0.0015906073
0.0011084703
0.00045462691
6.728072e-05
5.0290067e-08
4.7434356e-13
1.6663457e-19
1.2181101e-26
2.1938759e-29
7.6791158e-31
1.9462287e-32
3.5323579e-34
4.6197408e-36
4.3401548e-38
2.9078895e-40
1.3751653e-42
4.5409327e-45
1.0354918e-47
1.6118295e-50
1.6904028e-53
1.1765942e-56
5.332426e-60
1.5370858e-63
2.7381608e-67
2.8953429e-71
1.7207662e-75
5.1749143e-87
1.877271e-100
3.4172804e-116
1.1674399e-134
8.6482966e-156
5.1689066e-179
4.2399348e-204
0.0016779032
0.0017172274
0.0019177261
0.002059646
0.001970947
0.0017419499
0.0015766727
0.0016091644
0.0017813029
0.001947985
0.0020063335
0.0018205103
0.0013802259
0.00093871055
0.00066931895
0.00047752593
0.00024154722
4.3628737e-05
2.3410762e-07
2.2563516e-10
0.0018027652
0.0019393906
0.0019419787
0.0018445209
0.0017601747
0.001651492
0.0013118913
0.00067827979
0.00018899366
1.6853378e-06
1.0436506e-10
3.037208e-16
6.3403732e-23
2.3855356e-27
6.9153164e-29
2.1013539e-30
4.5755558e-32
7.30647e-34
8.5986018e-36
7.332508e-38
4.4872622e-40
1.9500645e-42
5.9555471e-45
1.2650124e-47
1.848482e-50
1.8349151e-53
1.2189168e-56
5.316356e-60
1.4867051e-63
2.5906148e-67
2.6904435e-71
2.5638015e-82
3.4435483e-95
2.7635513e-110
4.8069841e-128
1.8680786e-148
6.7172682e-171
7.0596853e-195
2.6655728e-220
0.0018102302
0.0017184792
0.0017789066
0.001970911
0.0020726171
0.0019353582
0.0016588416
0.0014543781
0.0014643917
0.0016340429
0.001797387
0.0018212463
0.0015521169
0.0010404187
0.00058657183
0.00033232824
0.00016740886
2.7128552e-05
1.121972e-07
8.737215e-11
2.9130745e-14
0.0019151706
0.0018938889
0.0017832933
0.0017166503
0.0016707523
0.0014538846
0.00090254958
0.00033437609
3.6882322e-05
6.0236434e-09
1.2503328e-13
2.8531313e-19
2.9684453e-24
8.7188277e-27
2.0133303e-28
4.9198166e-30
8.9953029e-32
1.2643255e-33
1.3426421e-35
1.0413299e-37
5.8341006e-40
2.3366961e-42
6.6248468e-45
1.3167677e-47
1.815953e-50
1.7165699e-53
1.095628e-56
4.6323713e-60
1.2664202e-63
2.1720482e-67
6.119616e-78
2.7951986e-90
8.8889409e-105
6.8821997e-122
1.1556765e-141
1.7177667e-163
8.6553032e-187
3.3125881e-211
9.0709958e-237
0.0018756319
0.0018065279
0.0017537055
0.0018366038
0.0020145167
0.0020738648
0.0018863716
0.0015602139
0.0013145759
0.0012980305
0.0014567411
0.0016086437
0.0015789562
0.0012151525
0.0006638611
0.00027701761
9.603225e-05
8.792451e-06
4.7599548e-08
3.4482458e-11
9.7653384e-15
1.1539602e-18
0.001829403
0.0017063302
0.0016539885
0.0016608022
0.0015479038
0.0011068836
0.00050428067
0.0001236816
5.9540933e-07
1.7872986e-11
1.1107782e-15
1.9212215e-19
6.3819065e-23
6.2054971e-26
5.1533389e-28
9.2521388e-30
1.4390569e-31
1.8212468e-33
1.7519254e-35
1.2395384e-37
6.379011e-40
2.3638879e-42
6.2507094e-45
1.1689515e-47
1.5309265e-50
1.3874768e-53
8.5717173e-57
3.5408511e-60
9.5441421e-64
7.4984413e-74
1.0880198e-85
1.2660695e-99
3.9882767e-116
2.5976424e-135
1.3226008e-156
2.2668897e-179
3.3097108e-203
7.9059949e-228
3.1410049e-253
0.0017497728
0.0018217013
0.0017962783
0.0017860725
0.0018880604
0.0020470043
0.0020617662
0.0018210812
0.0014438511
0.0011564962
0.0011106648
0.0012490643
0.0013813682
0.0012655905
0.00081386866
0.00031949999
6.528179e-05
1.5193346e-06
9.2729101e-09
1.2164097e-11
3.0285909e-15
3.375381e-19
1.3968957e-23
0.0016173819
0.0015775537
0.0016305969
0.001606835
0.0012814902
0.00068934907
0.00022889635
1.316949e-05
5.4423499e-09
3.5546646e-12
1.1863534e-14
1.4912145e-17
4.8079798e-21
5.7986146e-25
1.001659e-27
1.3606032e-29
1.8802866e-31
2.1798252e-33
1.9067981e-35
1.2353858e-37
5.8635444e-40
2.0198786e-42
5.0089974e-45
8.8691395e-48
1.11078e-50
9.7246391e-54
5.8616323e-57
2.3854127e-60
4.9627166e-70
2.1599769e-81
8.6337143e-95
1.0373393e-110
2.460263e-129
3.8554798e-150
1.8987159e-172
7.7782353e-196
5.7301143e-220
1.9811067e-244
1.3494317e-269
0.0015187341
0.0016569439
0.0017598799
0.0017836238
0.0018141665
0.0019304672
0.0020662535
0.0020326402
0.0017371134
0.0013068966
0.0009813779
0.00090889721
0.0010320873
0.0010967833
0.00087774462
0.00041461561
8.4862223e-05
5.2562885e-07
1.0557799e-09
1.9208831e-12
8.3534734e-16
8.0065374e-20
3.6779596e-24
5.2166242e-29
0.0014918141
0.001587204
0.001641018
0.0014267683
0.00087835275
0.00035466414
7.0400197e-05
4.2642581e-07
3.6797782e-09
1.2253542e-10
9.1204709e-13
1.3951303e-15
1.7397288e-19
2.4535731e-24
1.3101709e-27
1.5851446e-29
2.048747e-31
2.1663595e-33
1.7306007e-35
1.0311192e-37
4.5349887e-40
1.4602559e-42
3.4176463e-45
5.7703166e-48
6.964257e-51
5.938127e-54
3.5222298e-57
1.8504724e-66
2.2971493e-77
2.9915477e-90
1.3046268e-105
1.0854178e-123
4.9150626e-144
6.2881131e-166
6.330567e-189
1.0619331e-212
9.9933771e-237
6.7119736e-261
6.5106392e-286
0.001400154
0.0014111217
0.0015565536
0.0016942943
0.0017674056
0.0018349723
0.0019604462
0.0020682772
0.0019849608
0.0016289333
0.0011474883
0.00079434599
0.00070759447
0.00078012869
0.00075486728
0.00046822426
0.00013393916
9.5510487e-07
2.8278241e-10
1.6342219e-13
1.0287014e-16
1.638874e-20
6.7235188e-25
1.2953212e-29
6.1750326e-35
0.0015356017
0.0016599041
0.0015440615
0.0010656637
0.00050026774
0.00015679643
1.2863312e-05
7.2521767e-07
1.3852013e-07
6.8259638e-09
5.7513118e-11
4.2543778e-14
1.1304762e-18
2.3293777e-24
1.2144609e-27
1.5090913e-29
1.8559118e-31
1.7885733e-33
1.3108521e-35
7.2168589e-38
2.9574178e-40
8.9579121e-43
1.9929199e-45
3.233808e-48
3.7928635e-51
3.1776999e-54
4.0304791e-63
1.3625911e-73
5.5196655e-86
8.3905062e-101
2.3953432e-118
3.0267543e-138
9.4120284e-160
2.1577039e-182
7.4891639e-206
1.3266278e-229
2.4525126e-253
2.79907e-277
3.2631828e-302
0.0014789599
0.0013029497
0.0012961161
0.0014484895
0.0016236167
0.0017430123
0.0018440746
0.0019732753
0.0020498322
0.0019101679
0.0014923361
0.00095556107
0.00058971228
0.00049277531
0.00050638563
0.00039993533
0.00016446799
3.8283297e-06
5.1333687e-10
3.1617639e-14
6.1878705e-18
1.5116616e-21
9.9612901e-26
1.8952162e-30
1.5297789e-35
2.7494659e-41
0.0016691475
0.0016423596
0.0012430409
0.00066285123
0.00026201891
8.3541332e-05
3.2670991e-05
1.7820601e-05
5.2495154e-06
2.6689129e-07
1.2426142e-09
2.4458672e-13
9.592835e-19
5.2469213e-25
9.3907915e-28