/*--------------------------------*- C++ -*----------------------------------*\
| =========                 |                                                 |
| \\      /  F ield         | OpenFOAM: The Open Source CFD Toolbox           |
|  \\    /   O peration     | Version:  5.0                                   |
|   \\  /    A nd           | Web:      www.OpenFOAM.org                      |
|    \\/     M anipulation  |                                                 |
\*---------------------------------------------------------------------------*/
FoamFile
{
    version     2.0;
    format      ascii;
    class       volScalarField;
    location    "100";
    object      nuTilda;
}
// * * * * * * * * * * * * * * * * * * * * * * * * * * * * * * * * * * * * * //

dimensions      [0 2 -1 0 0 0 0];

internalField   nonuniform List<scalar> 
9520
(
1.9281812e-32
2.0105554e-30
1.7190167e-32
1.0308607e-28
1.7908606e-30
1.5156949e-32
3.4467234e-27
9.171711e-29
1.5786248e-30
1.3319451e-32
8.4488498e-26
3.0632681e-27
8.0803274e-29
1.3881383e-30
1.1744425e-32
1.6196816e-24
7.5018014e-26
2.6971627e-27
7.1071768e-29
1.2258899e-30
1.0458426e-32
2.5301316e-23
1.4370584e-24
6.6015115e-26
2.3725788e-27
6.2829302e-29
1.0939794e-30
9.4416693e-33
3.3135941e-22
2.2437647e-23
1.2639825e-24
5.8070856e-26
2.0989589e-27
5.6151912e-29
9.898065e-31
8.6466834e-33
3.7152019e-21
2.9380958e-22
1.972782e-23
1.1117986e-24
5.1398497e-26
1.8778728e-27
5.08825e-29
9.0825787e-31
8.021511e-33
3.6236395e-20
3.2950441e-21
2.5826225e-22
1.7350159e-23
9.8429768e-25
4.6015855e-26
1.703449e-27
4.6756168e-29
8.4424493e-31
7.5319527e-33
3.1142105e-19
3.2163525e-20
2.8961202e-21
2.2708472e-22
1.5360559e-23
8.8150101e-25
4.176899e-26
1.5669645e-27
4.3533167e-29
7.9486399e-31
7.171954e-33
2.3845879e-18
2.7682456e-19
2.8272034e-20
2.545638e-21
2.0099264e-22
1.3755752e-23
8.0036641e-25
3.8452817e-26
1.4612478e-27
4.109731e-29
7.6008131e-31
6.9567414e-33
1.6578685e-17
2.1248062e-18
2.4339777e-19
2.4838231e-20
2.2518975e-21
1.7991828e-22
1.2488258e-23
7.372324e-25
3.5914879e-26
1.3834448e-27
3.9469555e-29
7.4158015e-31
6.90182e-33
1.2096084e-16
1.4852203e-17
1.8689158e-18
2.1367537e-19
2.1952472e-20
2.0141479e-21
1.6325467e-22
1.1506657e-23
6.8966562e-25
3.410779e-26
1.3347223e-27
3.8728384e-29
7.4031883e-31
6.9983157e-33
2.0051934e-15
1.119164e-16
1.3051812e-17
1.6385441e-18
1.8860815e-19
1.9610946e-20
1.825819e-21
1.5042203e-22
1.0781205e-23
6.5712474e-25
3.3063656e-26
1.3170176e-27
3.8876673e-29
7.5405826e-31
7.1974641e-33
8.406169e-14
2.0481735e-15
9.652433e-17
1.1381222e-17
1.4436035e-18
1.6822144e-19
1.7751161e-20
1.6816182e-21
1.4114934e-22
1.0308072e-23
6.4013107e-25
3.2803011e-26
1.3285131e-27
3.9725961e-29
7.7619012e-31
7.4128708e-33
3.4583696e-12
8.8495849e-14
1.6331034e-15
7.9732214e-17
9.9691644e-18
1.2849449e-18
1.5196689e-19
1.6334e-20
1.5800054e-21
1.3543456e-22
1.0091359e-23
6.3837687e-25
3.3226868e-26
1.3603297e-27
4.0863577e-29
7.9658341e-31
7.5406317e-33
1.0862308e-10
3.6032348e-12
6.7028032e-14
1.0702329e-15
6.6119661e-17
8.834335e-18
1.1578555e-18
1.3960998e-19
1.5361416e-20
1.5214229e-21
1.3324591e-22
1.011252e-23
6.4880762e-25
3.4053901e-26
1.396442e-27
4.1728046e-29
8.0419729e-31
7.489294e-33
2.5240565e-09
1.1127178e-10
2.6627212e-12
3.8090192e-14
6.5843625e-16
5.6503099e-17
7.9292997e-18
1.0611135e-18
1.3134355e-19
1.4842481e-20
1.5042109e-21
1.3412551e-22
1.0304379e-23
6.6484178e-25
3.4844865e-26
1.4172335e-27
4.1765438e-29
7.9042418e-31
7.2087272e-33
4.3003812e-08
2.535316e-09
8.0685457e-11
1.458503e-12
1.8242189e-14
4.3298296e-16
4.9683444e-17
7.2402192e-18
9.9778975e-19
1.273092e-19
1.4746006e-20
1.520456e-21
1.3692427e-22
1.0546571e-23
6.7736127e-25
3.511283e-26
1.4052926e-27
4.0603286e-29
7.5189932e-31
6.7076669e-33
5.3513442e-07
4.2318622e-08
1.8081924e-09
4.3467646e-11
6.6859179e-13
8.2769111e-15
3.1948873e-16
4.48653e-17
6.7969329e-18
9.6984442e-19
1.270989e-19
1.4964775e-20
1.5541233e-21
1.3985303e-22
1.0689128e-23
6.7720541e-25
3.4474253e-26
1.351043e-27
3.8176553e-29
6.9178245e-31
6.051015e-33
4.8522056e-06
5.1554503e-07
2.9812068e-08
9.668077e-10
2.0023803e-11
2.8597982e-13
3.8346166e-15
2.6344155e-16
4.1917686e-17
6.6215767e-18
9.7317602e-19
1.2950117e-19
1.5309725e-20
1.5829389e-21
1.4089534e-22
1.0596228e-23
6.5812712e-25
3.2776385e-26
1.2561446e-27
3.4762072e-29
6.1881719e-31
5.3452177e-33
3.2097884e-05
4.5795698e-06
3.6058632e-07
1.5995706e-08
4.5818658e-10
9.0427482e-12
1.1565393e-13
1.9960391e-15
2.3803489e-16
4.0886316e-17
6.6805216e-18
9.9598692e-19
1.3258922e-19
1.55423e-20
1.5841954e-21
1.3842634e-22
1.0191438e-23
6.1893071e-25
3.0156117e-26
1.1335044e-27
3.0895358e-29
5.4528767e-31
4.7081171e-33
0.00015329556
2.9623328e-05
3.2110455e-06
1.9710625e-07
7.9946567e-09
2.2903569e-10
4.0020256e-12
4.0718114e-14
1.3692528e-15
2.3113101e-16
4.1487945e-17
6.8734271e-18
1.0208153e-18
1.3412765e-19
1.5443976e-20
1.5420298e-21
1.3176699e-22
9.4847488e-24
5.6405488e-25
2.7011083e-26
1.0033741e-27
2.7243441e-29
4.8357106e-31
4.2400009e-33
0.00050755663
0.00013769298
2.1001463e-05
1.8213788e-06
1.0695709e-07
4.5790107e-09
1.1758339e-10
1.4515722e-12
1.4191508e-14
1.2263458e-15
2.3529076e-16
4.2953638e-17
7.0571173e-18
1.0290103e-18
1.3228202e-19
1.4889229e-20
1.4529035e-21
1.214333e-22
8.5723424e-24
5.0246102e-25
2.3879719e-26
8.8851659e-28
2.4419514e-29
4.4316333e-31
4.0025165e-33
0.0011245581
0.00044203811
9.9760133e-05
1.2590285e-05
1.0929553e-06
7.1323654e-08
2.7624162e-09
4.8465492e-11
4.2501938e-13
7.8502384e-15
1.238278e-15
2.4520716e-16
4.422266e-17
7.0894537e-18
1.006959e-18
1.2627047e-19
1.3888125e-20
1.3269524e-21
1.0900432e-22
7.6108672e-24
4.4496237e-25
2.1312008e-26
8.0795019e-28
2.2838743e-29
4.28766e-31
4.0089626e-33
0.001820504
0.00096731247
0.00032928418
6.4291713e-05
8.3901696e-06
8.3515681e-07
4.94546e-08
1.2974705e-09
1.5970555e-11
1.6151018e-13
7.4832071e-15
1.3122672e-15
2.5370387e-16
4.4293399e-17
6.8799749e-18
9.5127274e-19
1.1661041e-19
1.2581763e-20
1.1849928e-21
9.6685979e-23
6.7719608e-24
4.0159181e-25
1.9720989e-26
7.7257247e-28
2.263936e-29
4.3968149e-31
4.2258808e-33
0.0024699858
0.0015774877
0.00075130859
0.00023124064
4.6878908e-05
7.0731886e-06
6.4057932e-07
2.5853649e-08
4.9207658e-10
7.186704e-12
1.7463569e-13
1.0003672e-14
1.3994167e-15
2.5374418e-16
4.2603878e-17
6.4269168e-18
8.6960506e-19
1.0488111e-19
1.1198166e-20
1.0527172e-21
8.6696222e-23
6.1991164e-24
3.7897582e-25
1.928951e-26
7.8327183e-28
2.3674713e-29
4.7039471e-31
4.5833293e-33
0.0030424801
0.0021617264
0.0012802776
0.00057710939
0.00018342032
4.1937355e-05
5.7941945e-06
3.648735e-07
1.10535e-08
2.6810756e-10
9.4840481e-12
3.876798e-13
1.5363208e-14
1.4299187e-15
2.4170858e-16
3.9300952e-17
5.8124194e-18
7.7701336e-19
9.3207162e-20
9.9893379e-21
9.5386792e-22
8.0679754e-23
5.9722443e-24
3.7885706e-25
1.9944256e-26
8.3147247e-28
2.5564674e-29
5.1200061e-31
4.9903694e-33
0.0035342856
0.0026820122
0.0018102252
0.0010557561
0.00049674941
0.00017121859
3.5934402e-05
3.5382032e-06
1.721006e-07
6.8821441e-09
3.8394962e-10
2.2167745e-11
8.5760279e-13
1.9957029e-14
1.3388264e-15
2.1958835e-16
3.5122068e-17
5.1615313e-18
6.9071131e-19
8.3694946e-20
9.1674004e-21
9.0372298e-22
7.9341359e-23
6.0897942e-24
3.9800903e-25
2.1389333e-26
9.0156242e-28
2.7785953e-29
5.540825e-31
5.3524683e-33
0.00397687
0.0031301479
0.0022862912
0.0015540018
0.00096203754
0.00047803902
0.00015123735
2.3418649e-05
1.8131488e-06
1.1697424e-07
1.0062637e-08
8.5922306e-10
4.9246032e-11
1.2739899e-12
1.7290517e-14
1.1592462e-15
1.9343682e-16
3.099616e-17
4.5968624e-18
6.2573735e-19
7.7932509e-20
8.8474677e-21
9.0610761e-22
8.2281859e-23
6.4740313e-24
4.2926315e-25
2.3182378e-26
9.7443178e-28
2.9779495e-29
5.8667581e-31
5.5879353e-33
0.0043707002
0.0035336699
0.002698011
0.0020027856
0.0014503311
0.00093726099
0.0004286877
0.00010465983
1.2906495e-05
1.3066113e-06
1.694335e-07
2.1294532e-08
1.8341454e-09
7.2600055e-11
1.0630442e-12
9.9110827e-15
9.8385558e-16
1.6954554e-16
2.7694586e-17
4.2099501e-18
5.9189938e-19
7.6592935e-20
9.0257534e-21
9.5242108e-22
8.8153364e-23
6.9928263e-24
4.6326115e-25
2.4832238e-26
1.0313383e-27
3.1055044e-29
6.0199239e-31
5.6408625e-33
0.0047001813
0.0038918352
0.00307015
0.0023911112
0.001884213
0.0014079344
0.00084381889
0.00031229249
6.1895973e-05
9.6543187e-06
1.8468218e-06
3.3786667e-07
4.3250731e-08
2.6452569e-09
6.0425882e-11
4.5223394e-13
5.4532394e-15
8.5145111e-16
1.5217811e-16
2.5676673e-17
4.0481214e-18
5.9177929e-19
7.9293256e-20
9.5806346e-21
1.0243008e-21
9.5014426e-23
7.4910474e-24
4.9049378e-25
2.5897636e-26
1.0573918e-27
3.1275163e-29
5.9562507e-31
5.4885193e-33
0.0049687293
0.0041931294
0.0034022885
0.0027385333
0.0022544009
0.0018178645
0.0012672839
0.00064027365
0.00019866695
4.762677e-05
1.3188812e-05
3.4648076e-06
6.4903021e-07
6.07326e-08
2.204852e-09
2.5746706e-11
1.0775241e-13
4.0480531e-15
7.6680563e-16
1.4284965e-16
2.509854e-17
4.1108078e-18
6.1989327e-19
8.4695189e-20
1.0306727e-20
1.0982998e-21
1.0078411e-22
7.8241368e-24
5.0320458e-25
2.6068504e-26
1.0440469e-27
3.0304399e-29
5.6703327e-31
5.1420747e-33
0.0051796376
0.0044414115
0.0036849232
0.0030475088
0.0025753375
0.0021610856
0.0016364889
0.00099338967
0.00043671904
0.00015769433
6.2572939e-05
2.3241627e-05
6.2588504e-06
8.8380972e-07
5.0778569e-08
9.7166218e-10
5.7925032e-12
2.9580717e-14
3.5740844e-15
7.2895239e-16
1.4188433e-16
2.584611e-17
4.3439278e-18
6.6405583e-19
9.0861278e-20
1.0966226e-20
1.1513266e-21
1.0369095e-22
7.8869258e-24
4.9679562e-25
2.5215233e-26
9.9016971e-28
2.8215566e-29
5.1925201e-31
4.6409786e-33
0.0053365916
0.0046403033
0.0039217659
0.0033112113
0.0028552392
0.0024494607
0.0019461738
0.0013132837
0.00071976672
0.00036019716
0.00019944852
0.00010330784
3.9236528e-05
8.2283639e-06
7.4230109e-07
2.3356399e-08
2.3827119e-10
1.0364219e-12
1.6928827e-14
3.4316652e-15
7.3541814e-16
1.479558e-16
2.7477268e-17
4.6531363e-18
7.0856586e-19
9.5734271e-20
1.1343858e-20
1.1656123e-21
1.0262271e-22
7.6320304e-24
4.7047421e-25
2.3397521e-26
9.0153906e-28
2.5254651e-29
4.5794678e-31
4.0428737e-33
0.0054442125
0.0047935674
0.0041168702
0.003533216
0.0030910946
0.002695621
0.002211292
0.0015907749
0.00099466045
0.00061697565
0.00044079195
0.00030775103
0.00016168908
4.9546431e-05
6.9498028e-06
3.5883765e-07
6.3337559e-09
4.6831453e-11
2.0455733e-13
1.5147072e-14
3.5156828e-15
7.7593994e-16
1.5793614e-16
2.9343656e-17
4.9274398e-18
7.3806795e-19
9.7611272e-20
1.1292939e-20
1.1321463e-21
9.7306725e-23
7.074445e-24
4.2704961e-25
2.0833762e-26
7.8901668e-28
2.1776083e-29
3.9009705e-31
3.4102391e-33
0.0055086334
0.0049052817
0.0042736658
0.0037181381
0.0032869167
0.0028988092
0.0024366656
0.0018465715
0.0012444786
0.0008757968
0.00073322442
0.00063612808
0.00044488122
0.00019510718
4.2099518e-05
3.5547248e-06
1.0792868e-07
1.4085443e-09
8.1732551e-12
7.9587968e-14
1.5619077e-14
3.7536059e-15
8.3068088e-16
1.6782265e-16
3.0778881e-17
5.0671967e-18
7.4108055e-19
9.55039e-20
1.0762547e-20
1.0518896e-21
8.8290656e-23
6.2823282e-24
3.7200031e-25
1.7841871e-26
6.6595842e-28
1.8167068e-29
3.2263484e-31
2.802864e-33
0.0055392208
0.0049810341
0.0043957216
0.0038686586
0.003447497
0.003063089
0.0026221411
0.0020699386
0.0014847392
0.0011137719
0.0010123777
0.00099446916
0.00085427825
0.00051204938
0.00016667829
2.2919303e-05
1.1876995e-06
2.6911144e-08
2.7341623e-10
1.4454137e-12
6.7538929e-14
1.6890613e-14
4.0295849e-15
8.7699515e-16
1.738785e-16
3.1214103e-17
5.0066562e-18
7.1236991e-19
8.9305766e-20
9.8005849e-21
9.3463914e-22
7.6745656e-23
5.357614e-24
3.1212092e-25
1.4769405e-26
5.4559339e-28
1.4780728e-29
2.6144194e-31
2.268544e-33
0.0055478093
0.005032816
0.0044865066
0.0039873767
0.0035748535
0.003192802
0.0027712478
0.0022589632
0.0017034763
0.00133347
0.0012547024
0.0013030255
0.0012530251
0.00093943214
0.00043981514
9.6964476e-05
8.5206033e-06
3.2922268e-07
5.856524e-09
4.971047e-11
5.1730387e-13
7.3939568e-14
1.8214287e-14
4.2230908e-15
8.9622717e-16
1.7368306e-16
3.0331058e-17
4.7269609e-18
6.5365777e-19
7.9739749e-20
8.533973e-21
7.9605939e-22
6.4162056e-23
4.4126581e-24
2.5414682e-25
1.1931848e-26
4.3901383e-28
1.1891526e-29
2.1089012e-31
1.8398675e-33
0.0050722236
0.0055534871
0.0045515594
0.0040757028
0.0036709298
0.0032899888
0.0028878347
0.0024167178
0.0018955755
0.0015337525
0.0014609723
0.0015449179
0.0015615624
0.0013275885
0.0008117728
0.00027379233
4.0188534e-05
2.6114343e-06
8.0122224e-08
1.2617014e-09
1.7435894e-11
6.6574378e-13
8.2920707e-14
1.8948339e-14
4.2491985e-15
8.7881344e-16
1.6590289e-16
2.8121696e-17
4.2567426e-18
5.7261521e-19
6.8119306e-20
7.1336627e-21
6.5389356e-22
5.2032493e-23
3.5495567e-24
2.037054e-25
9.5727004e-27
3.5413677e-28
9.6788562e-30
1.7363228e-31
1.5347688e-33
0.0045932391
0.0050930632
0.0055442376
0.0041343334
0.0037366698
0.0033569184
0.0029743837
0.0025461847
0.0020616615
0.0017108931
0.0016345893
0.0017332403
0.0017809554
0.0016132324
0.0011574858
0.00053938149
0.00012646253
1.3619994e-05
7.1461124e-07
2.1592447e-08
6.7602802e-10
3.1672024e-11
1.1144275e-12
8.6957811e-14
1.8720941e-14
4.0815217e-15
8.2466527e-16
1.5104197e-16
2.4860915e-17
3.6613013e-18
4.8059401e-19
5.6011239e-20
5.7760651e-21
5.2449935e-22
4.1608085e-23
2.8468959e-24
1.6478433e-25
7.849991e-27
2.9563271e-28
8.2397871e-30
1.5086293e-31
1.3596784e-33
0.0041636527
0.0046118457
0.0050886407
0.0055027465
0.0037726902
0.0033957427
0.0030339064
0.0026497149
0.0022037128
0.0018651454
0.0017825854
0.0018730086
0.0019342215
0.0018077337
0.0014239375
0.00081619844
0.00027574492
4.7714943e-05
4.2819649e-06
2.5583372e-07
1.7649439e-08
1.4217413e-09
6.4550117e-11
1.3434034e-12
8.1657205e-14
1.7547698e-14
3.7492887e-15
7.371941e-16
1.3114558e-16
2.1017504e-17
3.0246898e-18
3.8989585e-19
4.4908202e-20
4.6120438e-21
4.205731e-22
3.3775026e-23
2.355469e-24
1.3971041e-25
6.844838e-27
2.654109e-28
7.605326e-30
1.427565e-31
1.3135021e-33
0.003779682
0.0041640858
0.0046100846
0.0050527497
0.0054220134
0.0034089492
0.0030705303
0.0027302356
0.0023233084
0.0019983111
0.0019073406
0.0019839896
0.0020397718
0.0019375903
0.0016142956
0.0010561014
0.00045657332
0.00011734209
1.7976041e-05
2.1511401e-06
2.9420577e-07
3.8845913e-08
2.8511239e-09
8.1612884e-11
9.5986358e-13
7.1518771e-14
1.5713607e-14
3.2898738e-15
6.2901591e-16
1.091296e-16
1.7133608e-17
2.4308453e-18
3.114252e-19
3.5999809e-20
3.7502433e-21
3.5037316e-22
2.9050524e-23
2.1013465e-24
1.294785e-25
6.5822978e-27
2.6370701e-28
7.7651756e-30
1.4889598e-31
1.3910775e-33
0.0033988858
0.0037583842
0.0041429685
0.0045814272
0.0049795295
0.0052968265
0.0030883089
0.0027911078
0.0024225935
0.0021122726
0.0020125755
0.0020706913
0.0021149604
0.002026402
0.0017569392
0.0012478328
0.00064000446
0.00022177229
5.5859671e-05
1.2908498e-05
3.1279648e-06
6.4214711e-07
7.4842968e-08
3.5773512e-09
5.5097946e-11
4.4883351e-13
6.1333964e-14
1.3506914e-14
2.7602476e-15
5.1613149e-16
8.807944e-17
1.3712619e-17
1.9493227e-18
2.5330154e-19
3.0081265e-20
3.2553077e-21
3.1818813e-22
2.7658566e-23
2.0927754e-24
1.3420496e-25
7.052752e-27
2.8972444e-28
8.6871354e-30
1.6857025e-31
1.5853353e-33
0.0030885107
0.0033664819
0.0037121855
0.0041012362
0.0045198527
0.0048645494
0.0051231931
0.0028312647
0.0025049422
0.0022092379
0.0021005509
0.00213932
0.0021654261
0.0020839384
0.0018617178
0.0014321761
0.00080993103
0.00035429743
0.00013610196
5.49572e-05
2.1406368e-05
6.5501348e-06
1.1784247e-06
9.24608e-08
2.4874693e-09
1.7980039e-11
2.4250337e-13
5.1386837e-14
1.1148285e-14
2.2382656e-15
4.1417582e-16
7.0672301e-17
1.1145602e-17
1.6285457e-18
2.2055553e-19
2.758228e-20
3.1563359e-21
3.2544171e-22
2.9630294e-23
2.3271302e-24
1.5350534e-25
8.2265275e-27
3.4209153e-28
1.0326777e-29
2.0089545e-31
1.8879799e-33
0.0028571716
0.0030657101
0.003310903
0.0036435341
0.0040341695
0.0044202169
0.004704536
0.0048982424
0.0025698575
0.0022902186
0.0021737311
0.0021916967
0.0021984181
0.0021164771
0.001933482
0.0015787014
0.0010059983
0.00050190754
0.00026708148
0.00016532784
9.5676244e-05
4.2091581e-05
1.1351144e-05
1.4272452e-06
6.6144449e-08
8.7465399e-10
3.0498819e-12
1.8376537e-13
4.1692544e-14
8.9570283e-15
1.7950361e-15
3.3586531e-16
5.8861244e-17
9.6870359e-18
1.4961973e-18
2.1561877e-19
2.8660928e-20
3.458573e-21
3.7177495e-22
3.4881295e-23
2.7952258e-24
1.8667757e-25
1.0061243e-26
4.1895347e-28
1.2627425e-29
2.4478108e-31
2.2890128e-33
0.0026182514
0.0028594134
0.0030200759
0.0032331274
0.0035524563
0.0039352378
0.0042790043
0.0044968057
0.0046187934
0.0023556862
0.0022331245
0.0022308335
0.0022157647
0.0021302272
0.0019790533
0.0016929445
0.0011848076
0.00067207745
0.00043166104
0.00035668875
0.00028447565
0.00017385491
6.8229285e-05
1.3420218e-05
1.0475075e-06
2.5462486e-08
1.4828848e-10
8.0819583e-13
1.454008e-13
3.3280844e-14
7.2227826e-15
1.4847356e-15
2.8990728e-16
5.3831702e-17
9.469841e-18
1.5638143e-18
2.3910167e-19
3.3298555e-20
4.1521506e-21
4.5564647e-22
4.3240328e-23
3.4820221e-24
2.3262664e-25
1.2496461e-26
5.1777194e-28
1.5513591e-29
2.988056e-31
2.7756662e-33
0.0024058791
0.0026481851
0.0028392328
0.0029522306
0.0031327972
0.0034358194
0.0038006789
0.0040936229
0.0042390326
0.0042816577
0.0022790131
0.00225761
0.0022207239
0.0021288979
0.002004543
0.0017804615
0.0013413849
0.00084459391
0.00059567991
0.0005875508
0.00058550877
0.00047234753
0.00026058623
7.8296222e-05
1.0097255e-05
4.3915167e-07
5.1404167e-09
1.8578534e-11
4.8920351e-13
1.1552197e-13
2.7167974e-14
6.152921e-15
1.3420593e-15
2.8119391e-16
5.613645e-17
1.0537195e-17
1.8318459e-18
2.9038556e-19
4.1349796e-20
5.214609e-21
5.743073e-22
5.4429495e-23
4.3644241e-24
2.897131e-25
1.5445067e-26
6.3499911e-28
1.8882476e-29
3.6107926e-31
3.3313533e-33
0.0023109087
0.0024401681
0.0026590313
0.0027978758
0.0028628097
0.0030098555
0.0032908202
0.0036280634
0.0038618749
0.0039282931
0.003882586
0.0022721434
0.0022141681
0.0021160513
0.0020152558
0.0018460053
0.0014758258
0.0010085043
0.00075787644
0.00079212334
0.00090657361
0.00088805162
0.00064985243
0.00028846659
6.0371808e-05
4.6088175e-06
1.0446352e-07
7.4486979e-10
3.0021426e-12
3.7768669e-13
9.6123505e-14
2.4057527e-14
5.8704969e-15
1.384726e-15
3.1164176e-16
6.5869322e-17
1.2868303e-17
2.2923188e-18
3.6776783e-19
5.2533281e-20
6.607403e-21
7.2330223e-22
6.8015655e-23
5.4077109e-24
3.5558842e-25
1.8784878e-26
7.6581078e-28
2.2598085e-29
4.2916298e-31
3.9351383e-33
0.0022732994
0.0023279887
0.0024597917
0.0026515818
0.0027366897
0.0027528312
0.0028629103
0.0031166258
0.0034148596
0.0035807372
0.0035609612
0.0034344623
0.0021963274
0.0020936168
0.0020158238
0.0018944237
0.0015893721
0.0011590375
0.00091148972
0.00095981234
0.0011681168
0.001270198
0.0011254421
0.00069267356
0.00022813017
3.0106328e-05
1.2810959e-06
1.8397637e-08
9.1337876e-11
1.2758132e-12
3.216805e-13
8.9163966e-14
2.4331524e-14
6.4300211e-15
1.6175407e-15
3.8094244e-16
8.2761418e-17
1.6384452e-17
2.9281182e-18
4.6817051e-19
6.6379258e-20
8.2693032e-21
8.9583738e-22
8.3363037e-23
6.5609033e-24
4.2705647e-25
2.2355225e-26
9.0404851e-28
2.6491209e-29
5.0008789e-31
4.5620163e-33
0.0021667743
0.0022592987
0.0023303682
0.0024672219
0.0026262139
0.002656486
0.0026218084
0.0026897077
0.0029098353
0.003157862
0.0032467784
0.0031481417
0.0029349299
0.0020627077
0.002009371
0.0019308359
0.001684223
0.0012948889
0.0010519314
0.0011063173
0.0013357193
0.0015411403
0.0015063127
0.0011603795
0.00056389897
0.00012503148
9.7669572e-06
2.7030675e-07
2.6741918e-09
1.1766111e-11
1.0289595e-12
3.1414244e-13
9.5616795e-14
2.811829e-14
7.8331958e-15
2.0348281e-15
4.8675008e-16
1.0615332e-16
2.0934926e-17
3.7098294e-18
5.8664392e-19
8.217e-20
1.0110878e-20
1.0824001e-21
9.961858e-23
7.7583301e-24
5.001247e-25
2.5961539e-26
1.0424473e-27
3.0366602e-29
5.7048911e-31
4.2831728e-35
0.0020249884
0.0021247197
0.0022299049
0.0023204441
0.0024611951
0.0025828566
0.0025570117
0.0024673263
0.0024881107
0.0026663514
0.0028539628
0.0028691393
0.0026832521
0.0023484853
0.0019975906
0.0019581385
0.0017648262
0.0014157924
0.0011787826
0.0012302459
0.0014700108
0.0016905555
0.0017372817
0.0015179588
0.00097910266
0.00034151445
4.7476127e-05
2.439302e-06
4.691806e-08
3.2721207e-10
3.7473467e-12
1.0536718e-12
3.5602129e-13
1.1560302e-13
3.5338596e-14
1.0033279e-14
2.619781e-15
6.2425005e-16
1.3487531e-16
2.6273801e-17
4.5923694e-18
7.1600161e-19
9.8913165e-20
1.2013941e-20
1.2709319e-21
1.1574308e-22
8.923404e-24
5.7025158e-25
2.9388405e-26
1.1731455e-27
3.4016796e-29
5.9350589e-33
1.8598137e-37
0.0019797652
0.0019787893
0.0020706009
0.0021898541
0.0023008872
0.0024397857
0.002520915
0.0024359728
0.0022873162
0.0022555419
0.0023833694
0.002509902
0.0024402228
0.0021376388
0.0016749748
0.0019826691
0.0018319857
0.0015237793
0.0012929695
0.0013357383
0.0015712109
0.0017991366
0.0018624957
0.0017228456
0.0013326933
0.00065679312
0.00015169939
1.3954506e-05
4.9776727e-07
6.7531271e-09
4.0155187e-11
3.4027706e-12
1.2545991e-12
4.4630491e-13
1.484506e-13
4.5694834e-14
1.2925973e-14
3.3413988e-15
7.8544444e-16
1.6712308e-16
3.2044384e-17
5.5139353e-18
8.4689367e-19
1.1537818e-19
1.3838264e-20
1.4476836e-21
1.3055197e-22
9.9749382e-24
6.3276076e-25
3.2419421e-26
1.288403e-27
3.929528e-31
2.9028476e-35
3.3203552e-40
0.0020017115
0.0019534003
0.0019219033
0.002005447
0.0021420213
0.0022687872
0.0024010973
0.0024381145
0.0022914231
0.0020781142
0.0019902839
0.0020671164
0.0021239225
0.0019371289
0.0015104389
0.00096438356
0.0018954914
0.0016201047
0.0013960972
0.0014260851
0.0016490448
0.0018689313
0.0019377287
0.0018362085
0.0015603158
0.00098262107
0.00033686441
5.2248311e-05
3.3147393e-06
8.396728e-08
8.2583329e-10
1.2722765e-11
4.182511e-12
1.6174737e-12
5.8107822e-13
1.9254214e-13
5.861404e-14
1.6333879e-14
4.1513163e-15
9.5870379e-16
2.0043153e-16
3.7786746e-17
6.399111e-18
9.6848472e-19
1.3020524e-19
1.5435542e-20
1.5987277e-21
1.4290043e-22
1.083612e-23
6.8335386e-25
3.4860512e-26
1.6550778e-29
2.1705204e-33
5.8837055e-38
2.2048059e-43
0.0019528176
0.0020110211
0.0019167856
0.0018543147
0.001929456
0.0020792256
0.0022213584
0.0023422353
0.0023326992
0.0021180166
0.0018379979
0.0016973162
0.0017243037
0.0016742736
0.0013608142
0.00085192591
0.00039364978
0.0017069115
0.0014893513
0.0015040717
0.0017083937
0.0019139712
0.0019738306
0.0018910757
0.0016969206
0.0012687674
0.00056931083
0.00013434683
1.4379159e-05
6.4731635e-07
1.1840574e-08
1.087006e-10
1.3340735e-11
5.507101e-12
2.1230516e-12
7.5255904e-13
2.4505596e-13
7.3188286e-14
1.9997007e-14
4.9833572e-15
1.1291009e-15
2.3182233e-16
4.2976385e-17
7.1665735e-18
1.0696986e-18
1.420722e-19
1.6668172e-20
1.7117175e-21
1.5182046e-22
1.1444012e-23
7.1862621e-25
4.9840507e-28
1.0340372e-31
5.0215288e-36
4.3595327e-41
6.2883545e-47
0.0017853342
0.0020004758
0.0020084905
0.0018698448
0.0017751147
0.0018393391
0.0020006534
0.0021548561
0.0022603776
0.0021986573
0.0019121961
0.0015681298
0.0013861956
0.001332703
0.0011656754
0.00075784413
0.00033755229
0.00010813609
0.0015734754
0.001571622
0.0017527224
0.0019393063
0.0019835675
0.001903452
0.0017626171
0.0014680782
0.00085425504
0.00025723984
4.2566059e-05
3.2278664e-06
1.0532205e-07
1.4643475e-09
4.5869624e-11
1.7678899e-11
7.2616473e-12
2.7375178e-12
9.4816694e-13
3.0180809e-13
8.8168189e-14
2.3581084e-14
5.7578926e-15
1.2797941e-15
2.5814093e-16
4.7091109e-17
7.7402129e-18
1.1407899e-18
1.4988432e-19
1.7428653e-20
1.7768999e-21
1.5664251e-22
1.1757548e-23
1.143886e-26
3.5250618e-30
2.7401817e-34
4.201366e-39
1.3176999e-44
1.0152268e-50
0.0016495493
0.0018559296
0.0020357566
0.001995186
0.0018118436
0.0016830324
0.0017336909
0.0019024644
0.0020653557
0.0021502164
0.0020311598
0.0016675659
0.0012723036
0.0010387245
0.00090170507
0.00064198854
0.0002947191
9.0408026e-05
2.0917168e-05
0.0016291539
0.0017841167
0.0019475924
0.0019722077
0.0018859788
0.0017784151
0.0015907448
0.0011087405
0.0004561228
9.2345244e-05
1.0927361e-05
6.0095405e-07
1.4595362e-08
2.5008191e-10
5.4275806e-11
2.3419171e-11
9.3151856e-12
3.4096173e-12
1.1504039e-12
3.5739768e-13
1.0204777e-13
2.6710196e-14
6.3914419e-15
1.394347e-15
2.7652759e-16
4.9692445e-17
8.0611559e-18
1.1748709e-18
1.5294176e-19
1.7655866e-20
1.7895275e-21
1.5708094e-22
2.0834772e-25
9.1612912e-29
1.0724884e-32
2.61214e-37
1.3699676e-42
2.1418418e-48
1.1332162e-54
0.0016780318
0.0017173481
0.0019178221
0.0020597302
0.0019710403
0.0017420697
0.0015768168
0.0016093002
0.0017814133
0.0019480778
0.0020064218
0.0018206189
0.0013804167
0.00093911948
0.00067010119
0.0004790357
0.00024716402
7.7266747e-05
1.7048004e-05
2.992622e-06
0.0018028772
0.0019394861
0.0019420724
0.0018446243
0.0017602886
0.0016516207
0.0013120882
0.00067897092
0.00019648353
2.6724715e-05
2.3155707e-06
9.5456108e-08
2.0915437e-09
1.7625956e-10
7.2292508e-11
3.0042261e-11
1.1496281e-11
4.0724096e-12
1.3381332e-12
4.0574389e-13
1.1325021e-13
2.9021084e-14
6.8099117e-15
1.4594858e-15
2.8490914e-16
5.0501135e-17
8.0976459e-18
1.169007e-18
1.5104317e-19
1.7342693e-20
1.7500938e-21
3.0969635e-24
1.8890423e-27
3.204885e-31
1.1730237e-35
9.3212603e-41
2.2894416e-46
2.305946e-52
9.9835269e-59
0.0018103407
0.0017186014
0.0017790189
0.0019710021
0.0020727005
0.0019354552
0.0016589741
0.0014545478
0.0014645552
0.0016341736
0.0017974956
0.0018213533
0.0015522667
0.001040756
0.00058761719
0.00033541374
0.00017772477
6.3787013e-05
1.416054e-05
2.3605171e-06
3.1903082e-07
0.0019152681
0.001893987
0.0017834036
0.0017167702
0.0016708789
0.0014540475
0.00090294831
0.00033705513
6.9198151e-05
6.3984826e-06
4.3381012e-07
1.7774076e-08
1.1230833e-09
2.4986561e-10
9.4464505e-11
3.7034166e-11
1.3554175e-11
4.6505359e-12
1.4892906e-12
4.4097285e-13
1.2039149e-13
3.0227209e-14
6.962178e-15
1.4675581e-15
2.8237774e-16
4.944616e-17
7.850162e-18
1.1246015e-18
1.4450071e-19
1.6528116e-20
3.8350031e-23
3.1765601e-26
7.6042313e-30
4.0437784e-34
4.636291e-39
1.6268554e-44
2.4362932e-50
1.8935572e-56
7.5386133e-63
0.0018757332
0.0018066383
0.0017538223
0.001836709
0.002014604
0.0020739483
0.001886474
0.0015603643
0.001314784
0.0012982382
0.0014569047
0.0016087789
0.0015790987
0.0012153981
0.00066469278
0.00028151631
0.00011697556
4.409837e-05
1.1374132e-05
1.8705183e-06
2.4260116e-07
2.5317721e-08
0.0018295077
0.0017064504
0.001654118
0.0016609311
0.0015480494
0.0011071539
0.00050550039
0.00013771311
2.0453322e-05
1.5417648e-06
1.5092044e-07
1.9151177e-08
2.597142e-09
4.2395089e-10
1.194814e-10
4.3148784e-11
1.5167929e-11
5.0718108e-12
1.5844883e-12
4.5849839e-13
1.2254306e-13
3.0174976e-14
6.8301104e-15
1.417982e-15
2.6934822e-16
4.667356e-17
7.3504152e-18
1.0470072e-18
1.3407141e-19
4.0194963e-22
4.4446036e-25
1.4716039e-28
1.1116501e-32
1.7895285e-37
8.5530165e-43
1.7450984e-48
1.9074203e-54
1.3092601e-60
5.7278469e-67
0.0017498869
0.0018218082
0.0017963895
0.0017861846
0.0018881598
0.002047089
0.0020618508
0.0018211916
0.0014440276
0.0011567659
0.0011109475
0.0012492856
0.0013815509
0.0012658124
0.00081441926
0.00032301605
9.3905922e-05
2.7351572e-05
7.5115863e-06
1.4359453e-06
1.8097928e-07
1.8594276e-08
1.4942038e-09
0.0016175154
0.0015776964
0.0016307316
0.0016069716
0.0012816954
0.00069001607
0.00023427453
4.8046347e-05
6.5397868e-06
1.1887977e-06
3.0124288e-07
5.7879358e-08
7.7837559e-09
7.5648238e-10
1.4047625e-10
4.7243254e-11
1.6134752e-11
5.2801164e-12
1.6108176e-12
4.5596014e-13
1.1942349e-13
2.8875029e-14
6.4319536e-15
1.3172519e-15
2.4744853e-16
4.2512753e-17
6.6546951e-18
9.4447804e-19
3.6114753e-21
5.2549595e-24
2.3686739e-27
2.5008483e-31
5.5632529e-36
3.5245714e-41
9.3817856e-47
1.3337066e-52
1.2204348e-58
9.1580987e-65
4.6076086e-71
0.0015188852
0.0016570706
0.0017599939
0.001783736
0.0018142748
0.0019305623
0.0020663367
0.0020327276
0.0017372351
0.0013071133
0.00098175378
0.00090931805
0.0010324095
0.0010970722
0.00087820715
0.00041673025
0.0001092328
2.1044506e-05
4.3736306e-06
9.0002785e-07
1.3064772e-07
1.2968735e-08
1.0680937e-09
6.5740213e-11
0.0014919741
0.0015873471
0.0016411503
0.0014269365
0.00087877108
0.00035706351
9.5177756e-05
1.9881482e-05
6.7096163e-06
2.9791738e-06
8.8880282e-07
1.7819041e-07
1.8588387e-08
1.0707169e-09
1.4870684e-10
4.880087e-11
1.6405061e-11
5.2466628e-12
1.5646968e-12
4.3372332e-13
1.114565e-13
2.6498357e-14
5.8180075e-15
1.1774996e-15
2.1917584e-16
3.7411182e-17
5.8333241e-18
2.8111944e-20
5.3150595e-23
3.2185657e-26
4.6907888e-30
1.4284471e-34
1.1805306e-39
3.9945159e-45
7.1337205e-51
8.0694254e-57
7.8007115e-63
6.9214305e-69
3.8270622e-75
0.0014003364
0.0014112966
0.0015566967
0.0016944166
0.0017675192
0.0018350778
0.0019605383
0.0020683603
0.0019850527
0.0016290724
0.0011477714
0.00079492142
0.00070828341
0.00078068793
0.00075547485
0.0004698448
0.00014903733
2.4748363e-05
3.1852154e-06
4.8712753e-07
7.6923248e-08
8.6899848e-09
6.9769613e-10
4.6273606e-11
2.1708464e-12
0.0015357558
0.0016600346
0.001544207
0.0010659525
0.00050151151
0.00016729088
5.0559901e-05
2.5091075e-05
1.7003289e-05
8.0645041e-06
2.4706258e-06
4.0507797e-07
2.8598423e-08
1.0201148e-09
1.4433321e-10
4.7948067e-11
1.5926086e-11
4.9767594e-12
1.4525852e-12
3.9477438e-13
9.9672562e-14
2.3338156e-14
5.0599158e-15
1.0140317e-15
1.8742184e-16
3.1854591e-17
1.9130356e-19
4.6455167e-22
3.7355917e-25
7.4392571e-29
3.0839014e-33
3.2952999e-38
1.3933922e-43
3.0633501e-49
4.1769001e-55
4.7574317e-61
5.4282342e-67
5.5277212e-73
3.2162474e-79
0.0014791273
0.0013031614
0.001296323
0.0014486538
0.001623749
0.0017431284
0.0018441786
0.0019733661
0.002049917
0.0019102674
0.0014925029
0.00095597199
0.00059075441
0.0004941755
0.00050769552
0.00040206866
0.00017546788
3.5668121e-05
3.7387894e-06
3.2730304e-07
3.8142969e-08
4.7587599e-09
4.3123364e-10
2.8574961e-11
1.52607e-12
5.6143852e-14
0.0016692777
0.0016424897
0.0012432565
0.00066357392
0.00026647213
0.00010873484
7.3820579e-05
6.1095798e-05
4.2966063e-05
1.993894e-05
5.1694329e-06
6.0514205e-07
2.6339312e-08
6.7258435e-10
1.3437507e-10
4.5300176e-11
1.4746562e-11
4.5083592e-12
1.289442e-12
3.4405827e-13
8.5484439e-14
1.9749131e-14
4.2366624e-15
8.425528e-16
1.5498884e-16
1.1472379e-18
3.5390116e-21
3.739122e-24
1.008516e-27
5.6720523e-32
7.8065926e-37