/*--------------------------------*- C++ -*----------------------------------*\
| =========                 |                                                 |
| \\      /  F ield         | OpenFOAM: The Open Source CFD Toolbox           |
|  \\    /   O peration     | Version:  5.0                                   |
|   \\  /    A nd           | Web:      www.OpenFOAM.org                      |
|    \\/     M anipulation  |                                                 |
\*---------------------------------------------------------------------------*/
FoamFile
{
    version     2.0;
    format      ascii;
    class       volScalarField;
    location    "100";
    object      nuTilda_0;
}
// * * * * * * * * * * * * * * * * * * * * * * * * * * * * * * * * * * * * * //

dimensions      [0 2 -1 0 0 0 0];

internalField   nonuniform List<scalar> 
9520
(
1.933571e-32
2.0162264e-30
1.7244857e-32
1.033789e-28
1.7965739e-30
1.5208722e-32
3.4565571e-27
9.2010175e-29
1.5839913e-30
1.3365617e-32
8.4729891e-26
3.0730566e-27
8.1076587e-29
1.3928894e-30
1.1783475e-32
1.6243013e-24
7.5257344e-26
2.7062364e-27
7.1312237e-29
1.2298892e-30
1.0490278e-32
2.5373107e-23
1.4416272e-24
6.6235909e-26
2.3805217e-27
6.3030929e-29
1.0972377e-30
9.4673017e-33
3.3229103e-22
2.250859e-23
1.2681836e-24
5.8263413e-26
2.1056007e-27
5.6316073e-29
9.9243309e-31
8.6674186e-33
3.7255021e-21
2.9473125e-22
1.9792953e-23
1.1154541e-24
5.1559283e-26
1.8832808e-27
5.1014913e-29
9.1037896e-31
8.0381668e-33
3.6334864e-20
3.3052712e-21
2.5910907e-22
1.7406798e-23
9.873498e-25
4.6146872e-26
1.7078095e-27
4.6862484e-29
8.459188e-31
7.5443126e-33
3.1224349e-19
3.226196e-20
2.9055506e-21
2.2782199e-22
1.5407911e-23
8.8399161e-25
4.187446e-26
1.5704318e-27
4.3614973e-29
7.960405e-31
7.1788915e-33
2.3906112e-18
2.7765619e-19
2.836347e-20
2.553875e-21
2.0161057e-22
1.3794476e-23
8.0236592e-25
3.8535537e-26
1.4638285e-27
4.1150897e-29
7.6063443e-31
6.9570284e-33
1.6614675e-17
2.1310174e-18
2.4418008e-19
2.4918532e-20
2.258826e-21
1.8042513e-22
1.2519237e-23
7.3877318e-25
3.5973913e-26
1.3849868e-27
3.9488551e-29
7.4140716e-31
6.8952833e-33
1.2087538e-16
1.4891677e-17
1.8748855e-18
2.1436768e-19
2.202031e-20
2.0198532e-21
1.6365865e-22
1.1530029e-23
6.9071015e-25
3.4139013e-26
1.3350334e-27
3.8709416e-29
7.3946193e-31
6.9867755e-33
1.9850592e-15
1.1197628e-16
1.3092445e-17
1.6438822e-18
1.8919558e-19
1.9667076e-20
1.8303533e-21
1.5071971e-22
1.0796103e-23
6.5759184e-25
3.3063282e-26
1.3160659e-27
3.8825364e-29
7.527856e-31
7.1849268e-33
8.3003722e-14
2.0381497e-15
9.6763031e-17
1.1418653e-17
1.4481489e-18
1.6871026e-19
1.7795734e-20
1.6848787e-21
1.4132583e-22
1.031328e-23
6.3997371e-25
3.2772618e-26
1.3266107e-27
3.9659982e-29
7.7498652e-31
7.4047648e-33
3.4196416e-12
8.8040625e-14
1.6359319e-15
8.0016641e-17
1.0001123e-17
1.2887516e-18
1.5235607e-19
1.6365323e-20
1.5817845e-21
1.3547561e-22
1.0086652e-23
6.3767619e-25
3.3177244e-26
1.3581903e-27
4.0810549e-29
7.9604052e-31
7.5423195e-33
1.076035e-10
3.5912931e-12
6.7259119e-14
1.0766638e-15
6.6360032e-17
8.8611911e-18
1.1609083e-18
1.3987869e-19
1.5377017e-20
1.5215877e-21
1.3315659e-22
1.0100034e-23
6.4783052e-25
3.4005244e-26
1.3950564e-27
4.1718479e-29
8.0483964e-31
7.5043747e-33
2.5049817e-09
1.1111833e-10
2.6775279e-12
3.8442964e-14
6.6303888e-16
5.6694396e-17
7.9510453e-18
1.0632035e-18
1.3146545e-19
1.4841373e-20
1.502922e-21
1.3394585e-22
1.0289193e-23
6.6401951e-25
3.4822427e-26
1.4175917e-27
4.1823219e-29
7.9253332e-31
7.2376884e-33
4.2753611e-08
2.5364541e-09
8.128706e-11
1.4749682e-12
1.8454703e-14
4.3570461e-16
4.9833139e-17
7.2551367e-18
9.9866045e-19
1.27278e-19
1.473084e-20
1.5183022e-21
1.3673216e-22
1.0535973e-23
6.7718267e-25
3.5139301e-26
1.4080586e-27
4.0737216e-29
7.5539719e-31
6.7474411e-33
5.3289036e-07
4.2406216e-08
1.824603e-09
4.4021559e-11
6.774918e-13
8.3796245e-15
3.2110222e-16
4.4966305e-17
6.8027684e-18
9.6945157e-19
1.2694713e-19
1.4942678e-20
1.5520978e-21
1.3974919e-22
1.0690613e-23
6.7806043e-25
3.4561908e-26
1.3563036e-27
3.8375857e-29
6.9622031e-31
6.0955699e-33
4.8389024e-06
5.1732568e-07
3.0120674e-08
9.8006755e-10
2.0296406e-11
2.8993864e-13
3.8845842e-15
2.6432157e-16
4.1955759e-17
6.6179087e-18
9.7184231e-19
1.2930282e-19
1.529154e-20
1.5822115e-21
1.409734e-22
1.0614972e-23
6.6016402e-25
3.2921999e-26
1.2633176e-27
3.4997796e-29
6.2347505e-31
5.3871065e-33
3.2052572e-05
4.6000314e-06
3.6463037e-07
1.6221158e-08
4.6409217e-10
9.1562083e-12
1.1763789e-13
2.0180226e-15
2.3832162e-16
4.0858561e-17
6.6700383e-18
9.943892e-19
1.3244726e-19
1.5539716e-20
1.5857387e-21
1.387397e-22
1.0228281e-23
6.2198381e-25
3.0340295e-26
1.1414524e-27
3.1127214e-29
5.4936031e-31
4.7401984e-33
0.00015328603
2.9775366e-05
3.248022e-06
1.9981198e-07
8.0837711e-09
2.3130716e-10
4.0663505e-12
4.1667e-14
1.3751743e-15
2.3095561e-16
4.1413763e-17
6.8616375e-18
1.0198254e-18
1.3414451e-19
1.54655e-20
1.5462569e-21
1.3230635e-22
9.5355201e-24
5.6766416e-25
2.7202674e-26
1.0106815e-27
2.7430322e-29
4.8635512e-31
4.257051e-33
0.00050826912
0.00013844171
2.1236908e-05
1.8444619e-06
1.0786666e-07
4.6090285e-09
1.1919889e-10
1.4889674e-12
1.4454558e-14
1.2258875e-15
2.348231e-16
4.2872888e-17
7.0507595e-18
1.0294292e-18
1.3252124e-19
1.4936859e-20
1.459476e-21
1.221245e-22
8.6286843e-24
5.059851e-25
2.4043439e-26
8.9386527e-28
2.452907e-29
4.4421606e-31
4.0023045e-33
0.0011273146
0.0004445034
0.00010077801
1.2729266e-05
1.0992276e-06
7.1562973e-08
2.7937508e-09
4.9670091e-11
4.359892e-13
7.8679053e-15
1.2350182e-15
2.446755e-16
4.4183225e-17
7.0942445e-18
1.0091944e-18
1.2673e-19
1.3956222e-20
1.3348385e-21
1.097258e-22
7.6623736e-24
4.4773464e-25
2.1418076e-26
8.1042677e-28
2.2854703e-29
4.279962e-31
3.9926352e-33
0.0018255499
0.00097245051
0.0003321428
6.4871877e-05
8.4196607e-06
8.36094e-07
4.9925349e-08
1.3277189e-09
1.633906e-11
1.6108427e-13
7.3741132e-15
1.3069518e-15
2.5343589e-16
4.4333943e-17
6.8981367e-18
9.5514839e-19
1.1722107e-19
1.2658533e-20
1.192733e-21
9.7300439e-23
6.8086889e-24
4.0310919e-25
1.9752026e-26
7.718761e-28
2.2564873e-29
4.3736294e-31
4.1976867e-33
0.0024768958
0.0015849329
0.00075646695
0.00023277305
4.6978565e-05
7.0726535e-06
6.458798e-07
2.6414711e-08
5.0159425e-10
7.0966603e-12
1.6541137e-13
9.6939944e-15
1.3936517e-15
2.5400433e-16
4.2734926e-17
6.4559739e-18
8.7442202e-19
1.0552841e-19
1.1268829e-20
1.0588017e-21
8.7083513e-23
6.2145243e-24
3.7901422e-25
1.9244555e-26
7.797764e-28
2.3531547e-29
4.6710985e-31
4.5498117e-33
0.003050885
0.0021708492
0.0012869546
0.00057959793
0.00018360187
4.1916924e-05
5.8373569e-06
3.7218498e-07
1.1234214e-08
2.6350449e-10
8.9333947e-12
3.6179242e-13
1.4788479e-14
1.4271803e-15
2.4255477e-16
3.949773e-17
5.8462997e-18
7.8180271e-19
9.3762911e-20
1.0039911e-20
9.5711489e-22
8.0774124e-23
5.9646723e-24
3.7752483e-25
1.9838969e-26
8.2614728e-28
2.5388888e-29
5.0853116e-31
4.9591982e-33
0.003543919
0.0026925355
0.0018179188
0.0010586347
0.00049676234
0.00017113631
3.6176782e-05
3.6033766e-06
1.745533e-07
6.7564897e-09
3.6327827e-10
2.0726999e-11
8.0910186e-13
1.9396272e-14
1.3423847e-15
2.2081028e-16
3.5337494e-17
5.192988e-18
6.9451199e-19
8.4049385e-20
9.1883354e-21
9.0363392e-22
7.9146054e-23
6.0628986e-24
3.9572435e-25
2.1252741e-26
8.9577997e-28
2.7621073e-29
5.5126755e-31
5.331102e-33
0.0039875546
0.0031418439
0.0022949738
0.0015572519
0.00096176447
0.00047801439
0.0001521737
2.3808352e-05
1.8364445e-06
1.1494015e-07
9.5738911e-09
8.0868413e-10
4.6645843e-11
1.2280584e-12
1.7156564e-14
1.1666182e-15
1.9469266e-16
3.1181728e-17
4.6196171e-18
6.2782037e-19
7.8022683e-20
8.8363415e-21
9.0299908e-22
8.1869277e-23
6.4360102e-24
4.2666676e-25
2.3051046e-26
9.6970335e-28
2.9668433e-29
5.8526129e-31
5.5823333e-33
0.0043823668
0.0035463055
0.0027075287
0.0020065816
0.0014503611
0.00093793012
0.00043124856
0.00010620686
1.3061232e-05
1.2863496e-06
1.6211743e-07
2.0177211e-08
1.7470238e-09
7.0297781e-11
1.0535752e-12
1.0025013e-14
9.9085685e-16
1.7053899e-16
2.7814919e-17
4.2199671e-18
5.919403e-19
7.6419709e-20
8.9882964e-21
9.4735619e-22
8.764947e-23
6.9546849e-24
4.6108517e-25
2.4743062e-26
1.0290262e-27
3.1032186e-29
6.0249881e-31
5.6544835e-33
0.0047126568
0.0039052632
0.0030804106
0.002395485
0.0018848439
0.001409906
0.00084883075
0.00031636016
6.2597915e-05
9.5285173e-06
1.7768808e-06
3.2223776e-07
4.1425672e-08
2.5738673e-09
6.0135887e-11
4.6165345e-13
5.527178e-15
8.5630446e-16
1.527368e-16
2.5713376e-17
4.0442289e-18
5.8995562e-19
7.8927119e-20
9.5293561e-21
1.0188561e-21
9.4571614e-23
7.4642942e-24
4.8941352e-25
2.5880627e-26
1.0584522e-27
3.1360163e-29
5.9825973e-31
5.5218085e-33
0.0049818281
0.0042071421
0.0034131709
0.0027436671
0.0022557401
0.0018210936
0.0012746075
0.00064763171
0.00020076789
4.71346e-05
1.275787e-05
3.3254846e-06
6.2505324e-07
5.9364259e-08
2.2024512e-09
2.638766e-11
1.1207541e-13
4.0754314e-15
7.6910135e-16
1.4291675e-16
2.5050744e-17
4.095461e-18
6.1688915e-19
8.4258779e-20
1.0258115e-20
1.0942184e-21
1.0054852e-22
7.8183912e-24
5.0370325e-25
2.6141041e-26
1.0488573e-27
3.0498988e-29
5.7166587e-31
5.1925427e-33
0.0051931716
0.004455796
0.00369627
0.0030533835
0.0025775882
0.0021653976
0.0016454627
0.0010033595
0.00044085921
0.00015646894
6.0850404e-05
2.2444335e-05
6.060675e-06
8.676203e-07
5.0880663e-08
9.98102e-10
6.0554867e-12
3.0312134e-14
3.5829549e-15
7.286033e-16
1.4149118e-16
2.5736199e-17
4.322809e-18
6.6089743e-19
9.0501346e-20
1.0937042e-20
1.1501355e-21
1.0377135e-22
7.9079522e-24
4.990713e-25
2.537902e-26
9.9847796e-28
2.8504071e-29
5.2545747e-31
4.7038184e-33
0.0053503747
0.0046548157
0.0039334366
0.003317761
0.0028584355
0.0024546668
0.0019562816
0.0013250076
0.00072563144
0.00035810322
0.00019496033
0.00010036956
3.8205257e-05
8.1108157e-06
7.4569739e-07
2.4022711e-08
2.4886627e-10
1.0846074e-12
1.7038608e-14
3.4268129e-15
7.3277598e-16
1.4726535e-16
2.7345927e-17
4.6335954e-18
7.0637967e-19
9.5587951e-20
1.1347369e-20
1.1682902e-21
1.0306796e-22
7.6806481e-24
4.7441006e-25
2.363893e-26
9.1254371e-28
2.5607934e-29
4.651011e-31
4.1119215e-33
0.005458076
0.0048080226
0.0041287198
0.0035403906
0.0030952285
0.0027016229
0.0022217914
0.0016036462
0.0010016947
0.00061419902
0.00043289159
0.00030078273
0.00015834122
4.9032471e-05
6.9961215e-06
3.6926309e-07
6.6068042e-09
4.9082277e-11
2.1212152e-13
1.5120192e-14
3.500111e-15
7.7202307e-16
1.5720895e-16
2.9239611e-17
4.9170073e-18
7.378162e-19
9.7774629e-20
1.1335988e-20
1.1389211e-21
9.8097271e-23
7.1465583e-24
4.3225234e-25
2.1127299e-26
8.0155021e-28
2.2157669e-29
3.9749727e-31
3.4791066e-33
0.0055224157
0.0049195475
0.0042855794
0.0037258858
0.0032919833
0.002905547
0.0024473407
0.0018598351
0.0012523034
0.0008727308
0.00072282759
0.00062497825
0.00043811558
0.00019382745
4.2451188e-05
3.6573665e-06
1.1243415e-07
1.475146e-09
8.5825712e-12
8.0361404e-14
1.5535735e-14
3.7330115e-15
8.2702249e-16
1.6734308e-16
3.0745508e-17
5.0716772e-18
7.4333656e-19
9.6010523e-20
1.0844174e-20
1.0622145e-21
8.9345598e-23
6.370011e-24
3.7789259e-25
1.8155657e-26
6.787178e-28
1.8539693e-29
3.296064e-31
2.8658155e-33
0.0055526968
0.0049949895
0.0044076291
0.0038769648
0.0034535214
0.0030705326
0.002632841
0.0020831223
0.0014934788
0.0011107866
0.0010008567
0.00098109886
0.00084537795
0.00051050795
0.00016829681
2.3562802e-05
1.2356651e-06
2.8160179e-08
2.8716605e-10
1.5043562e-12
6.7113527e-14
1.6786306e-14
4.0124281e-15
8.7511614e-16
1.7387563e-16
3.1280599e-17
5.0287545e-18
7.1719075e-19
9.0120759e-20
9.9125246e-21
9.4734416e-22
7.7942554e-23
5.4508723e-24
3.1805827e-25
1.5071021e-26
5.5735317e-28
1.5111603e-29
2.6742709e-31
2.3210443e-33
0.0055606532
0.0050464521
0.0044984201
0.0039962627
0.0035818765
0.0032009545
0.0027818546
0.0022717873
0.0017128331
0.0013311669
0.0012431544
0.001289422
0.0012444784
0.00093937552
0.00044451744
9.956095e-05
8.8528086e-06
3.4422485e-07
6.1432085e-09
5.1793089e-11
5.0781637e-13
7.308848e-14
1.8134129e-14
4.2170008e-15
8.9718049e-16
1.7427043e-16
3.0506104e-17
4.7656989e-18
6.6058563e-19
8.0770082e-20
8.6627569e-21
8.0962291e-22
6.5362739e-23
4.5013176e-24
2.5952485e-25
1.2192986e-26
4.4877055e-28
1.2155085e-29
2.1547937e-31
1.8787409e-33
0.0050854441
0.0055656914
0.0045637035
0.004085223
0.0036789987
0.0032988467
0.0028982745
0.0024289732
0.0019053077
0.0015324091
0.0014500006
0.001532169
0.0015545207
0.0013299476
0.00082078225
0.0002806622
4.1693435e-05
2.727926e-06
8.3855487e-08
1.3009695e-09
1.6557039e-11
6.1630453e-13
8.1911028e-14
1.893092e-14
4.258524e-15
8.8289667e-16
1.6708194e-16
2.8391035e-17
4.3077972e-18
5.8079963e-19
6.9236328e-20
7.2635938e-21
6.667436e-22
5.3106965e-23
3.6247498e-24
2.0803135e-25
9.7716745e-27
3.6116386e-28
9.8576718e-30
1.7655844e-31
1.5580359e-33
0.0046058638
0.0051060138
0.0055560755
0.0041445609
0.0037458025
0.003366453
0.0029845802
0.002557708
0.0020715576
0.0017105239
0.0016248325
0.0017218864
0.0017755936
0.0016173658
0.0011698647
0.00055185415
0.0001309625
1.4207585e-05
7.4488768e-07
2.1902414e-08
6.2994261e-10
2.8178637e-11
1.0288706e-12
8.6357156e-14
1.8783441e-14
4.1062494e-15
8.3160722e-16
1.5268901e-16
2.5191406e-17
3.7180983e-18
4.8898847e-19
5.7077499e-20
5.8920893e-21
5.3525555e-22
4.2450355e-23
2.9018387e-24
1.6770263e-25
7.9720042e-27
2.9945888e-28
8.3231083e-30
1.5196846e-31
1.3662189e-33
0.0041746511
0.0046251099
0.0051012196
0.0055142383
0.0037828409
0.0034058419
0.0030437457
0.0026603865
0.0022135643
0.0018657046
0.0017741946
0.0018631449
0.0019304734
0.0018128312
0.0014377473
0.00083317506
0.00028488414
4.964246e-05
4.4314162e-06
2.5435603e-07
1.6319096e-08
1.2752424e-09
5.8686954e-11
1.2719193e-12
8.1866257e-14
1.7679544e-14
3.7857276e-15
7.4616682e-16
1.3304425e-16
2.1365165e-17
3.0798492e-18
3.9746123e-19
4.580014e-20
4.7017244e-21
4.2817488e-22
3.4308515e-23
2.385513e-24
1.4098902e-25
6.8806665e-27
2.6575076e-28
7.5869477e-30
1.4195323e-31
1.3027067e-33
0.003790742
0.004175886
0.0046235674
0.0050648628
0.0054331775
0.0034194337
0.0030795792
0.0027399663
0.002332957
0.0019997098
0.0019003526
0.0019756394
0.0020371112
0.0019429821
0.0016282099
0.0010755235
0.00047020489
0.00012148808
1.8390762e-05
2.0985199e-06
2.720661e-07
3.5255289e-08
2.6200584e-09
7.6844225e-11
9.4435526e-13
7.2192819e-14
1.5888429e-14
3.3338858e-15
6.3878263e-16
1.1102103e-16
1.7452713e-17
2.4774954e-18
3.1727962e-19
3.6620683e-20
3.8045001e-21
3.5408982e-22
2.9224814e-23
2.1035397e-24
1.2897452e-25
6.5263967e-27
2.6039423e-28
7.6415163e-30
1.46134e-31
1.362611e-33
0.0034094092
0.0037701739
0.0041556866
0.0045949413
0.0049910914
0.0053076266
0.0030965818
0.0027997664
0.0024319244
0.0021144099
0.0020069351
0.0020638698
0.0021133934
0.0020317163
0.0017695361
0.0012680002
0.0006566658
0.00022794163
5.6302274e-05
1.242819e-05
2.9071014e-06
5.8977936e-07
6.9564445e-08
3.3997244e-09
5.4097557e-11
4.5670234e-13
6.212068e-14
1.3703306e-14
2.8055831e-15
5.2533532e-16
8.9711928e-17
1.3962959e-17
1.9819236e-18
2.5678589e-19
3.0363323e-20
3.2681027e-21
3.1755083e-22
2.7441973e-23
2.065289e-24
1.318308e-25
6.9016316e-27
2.8266301e-28
8.4562616e-30
1.638257e-31
1.5390711e-33
0.0030959905
0.0033767811
0.0037246826
0.0041150362
0.0045331764
0.0048755189
0.0051335698
0.0028389625
0.0025138687
0.0022120101
0.0020962309
0.0021339529
0.0021648906
0.0020891366
0.0018727526
0.0014506119
0.00082803671
0.00036139739
0.00013535462
5.2622855e-05
2.0050065e-05
6.0883036e-06
1.1073216e-06
8.868304e-08
2.4582216e-09
1.8492113e-11
2.4715032e-13
5.2195936e-14
1.1339534e-14
2.2785246e-15
4.2157501e-16
7.1835651e-17
1.12962e-17
1.6431169e-18
2.2122275e-19
2.7481535e-20
3.1238543e-21
3.2015822e-22
2.900334e-23
2.2688808e-24
1.492129e-25
7.9786417e-27
3.3125288e-28
9.9886423e-30
1.9417933e-31
1.8241043e-33
0.0028637572
0.0030724266
0.0033209899
0.0036567243
0.0040486152
0.0044332141
0.0047148816
0.004908132
0.0025782087
0.0022935466
0.0021706648
0.0021877587
0.0021989532
0.0021215493
0.0019429501
0.0015951762
0.0010250149
0.00050891439
0.00026370611
0.00015850389
9.0462375e-05
3.9597443e-05
1.0779861e-05
1.3807275e-06
6.576993e-08
9.0235312e-10
3.2278729e-12
1.8697623e-13
4.2431507e-14
9.1159276e-15
1.8246881e-15
3.4047047e-16
5.9399795e-17
9.71635e-18
1.490106e-18
2.1318421e-19
2.8150195e-20
3.3785367e-21
3.6168244e-22
3.3834805e-23
2.7058854e-24
1.8046721e-25
9.7176471e-27
4.0441604e-28
1.2185157e-29
2.3616423e-31
2.2082481e-33
0.0026260915
0.0028648243
0.0030260409
0.0032430804
0.0035662726
0.0039500062
0.0042915713
0.0045064855
0.0046280948
0.002359545
0.0022312402
0.0022282824
0.0022173514
0.0021352084
0.0019869364
0.0017071551
0.0012034924
0.00068028826
0.00042534599
0.00034371732
0.00027174456
0.00016557717
6.5480269e-05
1.3087942e-05
1.0472499e-06
2.6321634e-08
1.5854644e-10
8.3488036e-13
1.4804912e-13
3.3848238e-14
7.3269692e-15
1.4995636e-15
2.9101113e-16
5.3640233e-17
9.3639834e-18
1.535438e-18
2.334008e-19
3.2364052e-20
4.0237295e-21
4.4073287e-22
4.1779471e-23
3.3624298e-24
2.245742e-25
1.2062486e-26
4.9978764e-28
1.497533e-29
2.8845061e-31
2.6795327e-33
0.0024102355
0.0026553157
0.0028434441
0.0029574517
0.0031426574
0.0034501438
0.0038155813
0.0041056462
0.0042479921
0.0042902576
0.002278252
0.0022564223
0.0022233582
0.0021337561
0.0020108805
0.0017922789
0.0013589729
0.00085368254
0.00058820866
0.00056953188
0.0005647854
0.00045539478
0.0002527456
7.6949481e-05
1.0142237e-05
4.5463245e-07
5.4857644e-09
1.9879384e-11
4.9917917e-13
1.1735938e-13
2.7482053e-14
6.186061e-15
1.3391483e-15
2.7833289e-16
5.5149879e-17
1.0288286e-17
1.7804193e-18
2.8137424e-19
3.9994173e-20
5.0390706e-21
5.547986e-22
5.2582519e-23
4.2172646e-24
2.8001966e-25
1.4932281e-26
6.1406302e-28
1.8263134e-29
3.4926861e-31
3.2223862e-33
0.0023112485
0.002444929
0.0026652934
0.0028008589
0.0028672476
0.0030195609
0.0033054738
0.0036428758
0.0038732399
0.0039364724
0.0038903488
0.002272306
0.0022178258
0.0021207424
0.0020200613
0.001855448
0.001491867
0.0010181922
0.00075049694
0.00077107027
0.00088155791
0.00086545328
0.00063669093
0.00028559646
6.0883104e-05
4.7747564e-06
1.1117185e-07
7.9948825e-10
3.1549376e-12
3.8316499e-13
9.6890547e-14
2.4060807e-14
5.8217111e-15
1.3622515e-15
3.0455342e-16
6.405807e-17
1.247465e-17
2.2181405e-18
3.5557519e-19
5.078468e-20
6.3892932e-21
6.9978471e-22
6.5844082e-23
5.2382159e-24
3.4461311e-25
1.8212603e-26
7.4270853e-28
2.1920393e-29
4.1631379e-31
3.8169875e-33
0.0022748037
0.002329447
0.0024650075
0.002656816
0.0027384293
0.0027564415
0.0028723534
0.0031313019
0.0034293745
0.0035913255
0.0035682834
0.0034412794
0.0022009559
0.0020980667
0.0020191035
0.0019016054
0.0016035913
0.0011691345
0.00090476329
0.00093864028
0.0011415634
0.0012476256
0.0011119045
0.00069018602
0.00023078851
3.1185887e-05
1.3591513e-06
1.9714317e-08
9.8385699e-11
1.3001781e-12
3.2291619e-13
8.8679421e-14
2.3987549e-14
6.2930584e-15
1.5746666e-15
3.6957349e-16
8.0139616e-17
1.5853098e-17
2.8330944e-18
4.5318803e-19
6.4303029e-20
8.0176984e-21
8.6936592e-22
8.0969066e-23
6.3771515e-24
4.1533293e-25
2.175097e-26
8.7986108e-28
2.5785596e-29
4.867466e-31
4.4393843e-33
0.0021722252
0.0022621391
0.0023329894
0.002472822
0.0026303345
0.0026569846
0.0026245308
0.0026987911
0.0029244034
0.0031718865
0.0032564631
0.003154534
0.0029407131
0.0020668196
0.0020111787
0.0019358667
0.0016965254
0.0013050902
0.0010462238
0.0010858912
0.0013105587
0.0015218384
0.0014967025
0.0011613975
0.00057153595
0.00012936721
1.0326676e-05
2.8908083e-07
2.8838137e-09
1.2520591e-11
1.0289053e-12
3.1069785e-13
9.3773302e-14
2.740959e-14
7.6065939e-15
1.9719153e-15
4.7133533e-16
1.0279935e-16
2.0285795e-17
3.5981451e-18
5.6961343e-19
7.987797e-20
9.8401431e-21
1.054542e-21
9.7146068e-23
7.5713771e-24
4.883464e-25
2.5359957e-26
1.0185025e-27
2.9669715e-29
5.573042e-31
4.1505278e-35
0.0020284329
0.0021308064
0.0022340656
0.0023242099
0.0024668235
0.0025858474
0.0025562676
0.0024690916
0.002496725
0.0026806104
0.0028672962
0.0028778316
0.0026886458
0.0023530248
0.0019978444
0.0019613265
0.0017752279
0.0014258777
0.0011742672
0.0012111881
0.0014465906
0.0016735437
0.0017323958
0.0015223593
0.0009922081
0.00035255428
5.000693e-05
2.6033587e-06
5.0547414e-08
3.5436585e-10
3.7909154e-12
1.0366957e-12
3.4763744e-13
1.1236899e-13
3.4270305e-14
9.7220345e-15
2.5389104e-15
6.0543951e-16
1.3095669e-16
2.5543632e-17
4.470971e-18
6.9805772e-19
9.6565338e-20
1.1743506e-20
1.2437094e-21
1.1337028e-22
8.7464638e-24
5.5922273e-25
2.8828721e-26
1.1509182e-27
3.3368777e-29
5.7719762e-33
1.7938366e-37
0.0019784742
0.0019815746
0.0020772066
0.0021953263
0.002305745
0.0024453664
0.0025227995
0.0024339772
0.0022880494
0.0022635859
0.0023970793
0.0025223756
0.0024476805
0.0021418126
0.0016781336
0.0019837621
0.0018405006
0.0015336296
0.0012896999
0.0013183733
0.0015497857
0.0017847703
0.0018598687
0.0017295456
0.0013482986
0.00067566505
0.0001591232
1.4860169e-05
5.3571141e-07
7.322734e-09
4.2916954e-11
3.3369171e-12
1.2208158e-12
4.33011e-13
1.4389633e-13
4.430423e-14
1.2544273e-14
3.2470026e-15
7.6442049e-16
1.6291312e-16
3.1288236e-17
5.3925122e-18
8.29524e-19
1.1317344e-19
1.3591179e-20
1.4233996e-21
1.2847285e-22
9.8221103e-24
6.233183e-25
3.1941666e-26
1.2693773e-27
3.8367812e-31
2.8089995e-35
3.1881222e-40
0.0020007927
0.0019505955
0.0019240834
0.0020126141
0.002148845
0.0022747985
0.002406596
0.0024389153
0.0022881351
0.0020777931
0.0019976264
0.0020800193
0.0021350187
0.001943035
0.0015131675
0.00096625173
0.0019025105
0.0016295935
0.0013940835
0.0014106104
0.0016296892
0.0018570077
0.0019373349
0.0018435065
0.0015745726
0.0010066
0.00035186235
5.5492742e-05
3.563585e-06
9.1038397e-08
8.9851395e-10
1.2712562e-11
4.0592286e-12
1.5675378e-12
5.6333478e-13
1.8688402e-13
5.6982223e-14
1.5907604e-14
4.0505807e-15
9.3721687e-16
1.9630531e-16
3.7075328e-17
6.2893799e-18
9.5339318e-19
1.2836062e-19
1.5235904e-20
1.5796956e-21
1.4130626e-22
1.0720757e-23
6.7627314e-25
3.4501194e-26
1.622902e-29
2.108343e-33
5.6640683e-38
2.1111038e-43
0.0019584513
0.0020082194
0.0019125153
0.001855902
0.0019373179
0.0020874775
0.0022285407
0.0023476447
0.0023324572
0.0021134378
0.0018366423
0.0017039118
0.0017359732
0.0016835423
0.0013647765
0.00085334303
0.00039449286
0.0017161182
0.0014885745
0.0014906314
0.0016911994
0.0019043955
0.0019754715
0.0018991099
0.0017092945
0.0012913389
0.00059224074
0.00014224334
1.54365e-05
7.016852e-07
1.2914899e-08
1.1553012e-10
1.2939946e-11
5.3336115e-12
2.059293e-12
7.3143237e-13
2.3869736e-13
7.1447488e-14
1.9564362e-14
4.8860594e-15
1.1093668e-15
2.2822442e-16
4.2388579e-17
7.0808782e-18
1.0585863e-18
1.4079393e-19
1.6537891e-20
1.6999508e-21
1.5087235e-22
1.1377037e-23
7.1452806e-25
4.9090392e-28
1.0086184e-31
4.8507996e-36
4.1791863e-41
6.0246867e-47
0.0017943596
0.0020046474
0.0020039031
0.0018641128
0.0017760423
0.0018477943
0.002010355
0.0021632298
0.0022657328
0.0021973546
0.0019063746
0.001565947
0.0013920806
0.0013426673
0.0011725328
0.000759826
0.00033811082
0.00010838063
0.0015739457
0.0015602983
0.0017377996
0.0019320412
0.0019874237
0.0019123375
0.0017732702
0.0014872863
0.00088182548
0.00027137944
4.5601509e-05
3.4974453e-06
1.1496277e-07
1.5962131e-09
4.5191021e-11
1.7110799e-11
7.0476688e-12
2.664569e-12
9.2544107e-13
2.9534949e-13
8.6498155e-14
2.3190158e-14
5.67548e-15
1.2642354e-15
2.5552632e-16
4.6702636e-17
7.6896786e-18
1.1350968e-18
1.4933654e-19
1.7384222e-20
1.7738033e-21
1.564494e-22
1.1746054e-23
1.131911e-26
3.4537651e-30
2.6576526e-34
4.0382144e-39
1.2607642e-44
9.7754006e-51
0.0016512449
0.0018647411
0.0020383777
0.0019888506
0.0018046117
0.001683228
0.0017426986
0.0019136308
0.0020749099
0.0021555043
0.0020288085
0.0016607404
0.0012697734
0.0010437712
0.0009093813
0.00064595671
0.00029538181
9.0563859e-05
2.096544e-05
0.0016200299
0.0017716063
0.0019426772
0.001978407
0.0018958583
0.0017877155
0.0016056043
0.0011365101
0.00047735696
9.8673851e-05
1.1828103e-05
6.5615893e-07
1.5987299e-08
2.5929438e-10
5.2496088e-11
2.2725054e-11
9.0766545e-12
3.3346074e-12
1.1285326e-12
3.5159512e-13
1.0065835e-13
2.6412994e-14
6.3353959e-15
1.3852143e-15
2.752867e-16
4.9563081e-17
8.0538119e-18
1.1755377e-18
1.5322008e-19
1.7705777e-20
1.7957487e-21
1.5768528e-22
2.0715551e-25
9.0181013e-29
1.0447708e-32
2.5196355e-37
1.3121952e-42
2.0517705e-48
1.102234e-54
0.0016711812
0.0017202641
0.0019262198
0.0020607613
0.0019629507
0.0017332874
0.0015762197
0.0016187444
0.0017939816
0.001958735
0.002011599
0.0018170753
0.0013731388
0.00093659745
0.00067404733
0.00048374952
0.00024874985
7.7429383e-05
1.7080769e-05
2.9995371e-06
0.0017929205
0.0019370155
0.0019506543
0.0018555488
0.0017684322
0.0016623341
0.0013361176
0.00070557157
0.0002082488
2.888104e-05
2.5267595e-06
1.044276e-07
2.2138132e-09
1.6920093e-10
6.9957015e-11
2.9253683e-11
1.1251761e-11
4.0044579e-12
1.3199815e-12
4.014134e-13
1.1234985e-13
2.8864905e-14
6.7897181e-15
1.4584447e-15
2.8529531e-16
5.0663668e-17
8.1369836e-18
1.176316e-18
1.5215968e-19
1.7485865e-20
1.7654112e-21
3.0943857e-24
1.8685864e-27
3.1367269e-31
1.1361796e-35
8.9515556e-41
2.1898417e-46
2.2211118e-52
9.8497951e-59
0.0018031126
0.001714119
0.0017831701
0.0019787547
0.0020721035
0.0019256016
0.0016486146
0.0014530782
0.0014742604
0.0016479853
0.0018091744
0.0018262037
0.0015476783
0.0010335871
0.00058561143
0.00033780973
0.00017975538
6.4220815e-05
1.4192013e-05
2.3662048e-06
3.1971623e-07
0.0019152946
0.0019047918
0.0017954608
0.0017237389
0.0016777765
0.0014726991
0.00093222735
0.00035482219
7.419808e-05
6.9607406e-06
4.6899373e-07
1.7910316e-08
9.8166667e-10
2.3201117e-10
9.1370739e-11
3.6227675e-11
1.3342562e-11
4.5994968e-12
1.4776966e-12
4.3885109e-13
1.2014833e-13
3.0245429e-14
6.9834268e-15
1.4753542e-15
2.8445685e-16
4.9900089e-17
7.9345051e-18
1.1381336e-18
1.4638423e-19
1.6754844e-20
3.8510383e-23
3.1579861e-26
7.4792247e-30
3.9346399e-34
4.4683468e-39
1.5576268e-44
2.3340452e-50
1.8431246e-56
7.5517253e-63
0.0018783454
0.0018023127
0.0017516963
0.0018420398
0.0020215407
0.0020717
0.0018748404
0.0015484414
0.0013123952
0.0013079585
0.0014716314
0.0016211741
0.0015830816
0.0012099619
0.00065861461
0.0002803703
0.0001179548
4.4669644e-05
1.1457599e-05
1.875598e-06
2.4332674e-07
2.536182e-08
0.0018422178
0.001719353
0.0016597582
0.0016642278
0.0015612584
0.0011358709
0.00052892755
0.0001466646
2.20573e-05
1.6068908e-06
1.3810777e-07
1.531272e-08
2.0641595e-09
3.7417838e-10
1.1557249e-10
4.2496146e-11
1.5030574e-11
5.0465386e-12
1.5817355e-12
4.5909131e-13
1.2304951e-13
3.0379806e-14
6.8932741e-15
1.4342789e-15
2.7298478e-16
4.7385261e-17
7.4732643e-18
1.065723e-18
1.3658151e-19
4.0568735e-22
4.4414652e-25
1.4548355e-28
1.0869196e-32
1.731963e-37
8.2103468e-43
1.6690211e-48
1.8381159e-54
1.2929108e-60
5.8114444e-67
0.0017641441
0.0018270667
0.0017950948
0.0017863663
0.0018942883
0.0020531015
0.0020579034
0.0018077842
0.0014306127
0.0011534692
0.0011203022
0.0012642387
0.0013935337
0.0012684332
0.00080878021
0.0003192001
9.3456948e-05
2.7611424e-05
7.6195964e-06
1.44735e-06
1.8160548e-07
1.8659766e-08
1.4956951e-09
0.0016308433
0.0015817758
0.0016304788
0.0016147646
0.0013073527
0.00071784049
0.0002478903
5.1317901e-05
6.6801543e-06
1.0228745e-06
2.4155949e-07
4.5178363e-08
6.0466685e-09
6.4978073e-10
1.3665662e-10
4.6887338e-11
1.6097024e-11
5.2866968e-12
1.6181215e-12
4.5942744e-13
1.2067441e-13
2.9254496e-14
6.5322227e-15
1.3406927e-15
2.5233224e-16
4.3421995e-17
6.8059458e-18
9.669015e-19
3.6638411e-21
5.2789991e-24
2.3540869e-27
2.4577413e-31
5.409319e-36
3.3955937e-41
8.9808307e-47
1.2780032e-52
1.1888888e-58
9.1824633e-65
4.7150191e-71
0.0015321042
0.0016725453
0.0017679175
0.001785492
0.0018167175
0.0019373387
0.0020713668
0.0020270687
0.0017220276
0.0012923831
0.00097766343
0.00091775269
0.0010466752
0.0011076257
0.00087902129
0.00041247258
0.00010761543
2.0929887e-05
4.4211685e-06
9.1412795e-07
1.3177917e-07
1.302489e-08
1.0721549e-09
6.5732149e-11
0.0014942511
0.0015834644
0.0016437668
0.0014479878
0.00090916031
0.0003754032
0.00010056113
1.9869885e-05
5.8127157e-06
2.450866e-06
7.1613644e-07
1.4098357e-07
1.4962528e-08
9.3605163e-10
1.4664165e-10
4.8805877e-11
1.6472588e-11
5.2869776e-12
1.5819056e-12
4.398356e-13
1.1334837e-13
2.7018528e-14
5.9462427e-15
1.2059741e-15
2.2488081e-16
3.8442153e-17
6.0010265e-18
2.8667441e-20
5.3680767e-23
3.2161493e-26
4.6345242e-30
1.395841e-34
1.1422003e-39
3.8336319e-45
6.8228714e-51
7.7805421e-57
7.7111243e-63
7.0276449e-69
3.9340909e-75
0.0014006015
0.001424102
0.0015733602
0.0017051629
0.0017723181
0.001839736
0.0019678696
0.0020723533
0.0019776355
0.0016121367
0.0011320758
0.00079055277
0.00071635301
0.00079332036
0.00076327813
0.00046937786
0.00014697814
2.4310323e-05
3.1674448e-06
4.9334173e-07
7.8223202e-08
8.7720386e-09
7.0129668e-10
4.6445081e-11
2.1673468e-12
0.0015281411
0.0016575955
0.0015602621
0.0010970457
0.00052409789
0.00017487073
4.9614497e-05
2.2003271e-05
1.432526e-05
6.718047e-06
2.0272861e-06
3.3498408e-07
2.4186041e-08
9.3495056e-10
1.4441006e-10
4.829548e-11
1.6096858e-11
5.0479113e-12
1.4781859e-12
4.0295644e-13
1.020244e-13
2.3949977e-14
5.2044383e-15
1.0450713e-15
1.9348206e-16
3.2928501e-17
1.9609637e-19
4.7173944e-22
3.7535551e-25
7.3905691e-29
3.029336e-33
3.2034584e-38
1.3421312e-43
2.9321763e-49
4.0036069e-55
4.6385673e-61
5.4480687e-67
5.6591025e-73
3.3114815e-79
0.0014677681
0.0013012013
0.0013086445
0.0014667065
0.0016374844
0.0017510993
0.0018510499
0.0019811956
0.00205281
0.0019010951
0.0014739434
0.00094064237
0.00058726091
0.00050127795
0.00051721805
0.00040635159
0.00017491328
3.5043278e-05
3.662987e-06
3.2577531e-07
3.8722845e-08
4.844459e-09
4.3563824e-10
2.8739732e-11
1.5308868e-12
5.5963782e-14
0.0016618536
0.0016534025
0.0012731312
0.00068983691
0.00027614964
0.00010587562
6.5744176e-05
5.282256e-05
3.6794884e-05
1.6933756e-05
4.4149347e-06
5.2494877e-07
2.3534548e-08
6.5359835e-10
1.3574365e-10
4.5918138e-11
1.5004471e-11
4.6032841e-12
1.3208776e-12
3.5350768e-13
8.807421e-14
2.0397872e-14
4.3853724e-15
8.7374771e-16
1.6097082e-16
1.1820547e-18
3.613482e-21
3.7783849e-24
1.0076013e-27
5.6022469e-32
7.6278212e-37
3.9452263e-42
1.044087e-47