/*--------------------------------*- C++ -*----------------------------------*\
| =========                 |                                                 |
| \\      /  F ield         | OpenFOAM: The Open Source CFD Toolbox           |
|  \\    /   O peration     | Version:  5.0                                   |
|   \\  /    A nd           | Web:      www.OpenFOAM.org                      |
|    \\/     M anipulation  |                                                 |
\*---------------------------------------------------------------------------*/
FoamFile
{
    version     2.0;
    format      ascii;
    class       volScalarField;
    location    "100";
    object      p;
}
// * * * * * * * * * * * * * * * * * * * * * * * * * * * * * * * * * * * * * //

dimensions      [0 2 -2 0 0 0 0];

internalField   nonuniform List<scalar> 
9520
(
5.0072498e-05
5.2056994e-05
7.70829e-05
5.5716579e-05
7.9935331e-05
0.00012265607
6.0663519e-05
8.5016313e-05
0.00012754564
0.00015493536
6.6682025e-05
9.1525387e-05
0.00013605178
0.00016149963
0.0001891974
7.3570243e-05
9.8868946e-05
0.00014701666
0.00017297182
0.00019795191
0.0002156619
8.1339304e-05
0.00010651342
0.00015936596
0.00018775985
0.00021338826
0.00022684999
0.00023574843
9.0087136e-05
0.00011409652
0.00017210027
0.00020438199
0.00023334193
0.00024659921
0.00024962671
0.0002477936
0.00010040839
0.00012134289
0.00018441849
0.00022148375
0.0002559133
0.00027226662
0.00027424133
0.0002645951
0.00025137164
0.00011271686
0.00012842473
0.00019561703
0.00023798468
0.00027933497
0.00030149611
0.00030645823
0.0002945455
0.00027129997
0.00024582029
0.00012888092
0.00013529361
0.00020534033
0.00025294027
0.00030216333
0.00033207253
0.00034344471
0.00033403
0.00030701436
0.00026900991
0.00023071728
0.00014923534
0.00014324295
0.00021308761
0.00026563661
0.00032307493
0.00036217363
0.00038257236
0.00037976991
0.00035449473
0.00031081789
0.00025720203
0.00020579718
0.00017654761
0.00015155144
0.00021960502
0.00027531011
0.00034090992
0.00039021092
0.00042163048
0.00042864883
0.00041003435
0.00036689638
0.00030525903
0.00023546431
0.00017090257
0.00020944996
0.00016446341
0.00022441721
0.00028183677
0.00035438121
0.00041511743
0.00045876189
0.00047794312
0.00047000313
0.00043317792
0.00037028472
0.0002896561
0.00020352667
0.00012604452
0.0002522317
0.00018216105
0.00023264697
0.00028409524
0.00036241343
0.00043602467
0.00049266938
0.00052532133
0.00053125328
0.00050598131
0.00044822419
0.0003636919
0.00026348305
0.00016130105
7.1664969e-05
0.00029714671
0.00020882288
0.00024086707
0.00028438945
0.00036413901
0.0004524101
0.00052223027
0.00056892076
0.00059078793
0.00058194917
0.00053546475
0.00045376857
0.00034629018
0.00022643267
0.0001089708
8.2222773e-06
0.00035049006
0.00023782553
0.00025217229
0.00027826043
0.0003602157
0.00046161454
0.00054777066
0.00060801993
0.00064618747
0.00065775389
0.00062803458
0.00055583455
0.00044824152
0.00031732298
0.00017839616
4.693057e-05
-6.3724017e-05
0.00040192239
0.00028631336
0.00026324587
0.00027505903
0.00034587593
0.00046319825
0.00056928984
0.00064319871
0.00069609
0.00073074759
0.00072182326
0.00066558742
0.00056508505
0.00043023213
0.00027609801
0.00011952669
-2.4215428e-05
-0.0001427827
0.00045291869
0.0003413967
0.00030067813
0.00027850633
0.00032744069
0.00045583699
0.00058705128
0.00067338332
0.00073749811
0.00079569006
0.00081243037
0.00077864552
0.00069284622
0.00056150775
0.00039887489
0.00022265194
5.0255808e-05
-0.00010366365
-0.00022906745
0.00048967374
0.00040641483
0.00035190857
0.00028088009
0.00029148594
0.00044032365
0.00059534418
0.00070121278
0.0007716266
0.00084409255
0.00089440209
0.00089041238
0.00082729491
0.00070750996
0.00054360095
0.00035378499
0.00015713538
-2.8763187e-05
-0.00019069865
-0.00032102441
0.00051275223
0.00050005417
0.00044586479
0.00025214467
0.00022902704
0.00040503259
0.00059872105
0.00072854065
0.00080150553
0.00087647364
0.00096567548
0.00099615176
0.00096415954
0.00086434538
0.0007069286
0.00051031318
0.00029473975
7.9877689e-05
-0.00011684689
-0.00028425762
-0.00041672172
0.00049210157
0.00058488017
0.00054577972
0.00019706998
0.00011467798
0.00035718616
0.00058877737
0.00077024456
0.00082543525
0.00089637713
0.0010181739
0.0010947549
0.0010996393
0.0010281677
0.00088544968
0.00068961744
0.00046129603
0.00022160309
-8.6411938e-06
-0.00021326292
-0.00038308841
-0.00051556878
0.00042104858
0.00074526123
0.00060539997
8.7472875e-05
-1.8134035e-05
0.00029056693
0.00059130766
0.00081971654
0.00084882703
0.00089977778
0.0010475239
0.0011779849
0.0012311444
0.0011957581
0.0010758493
0.000888787
0.0006547895
0.00039556962
0.00013453275
-0.00010786527
-0.00031686273
-0.00048588253
-0.00061642297
0.00026987578
0.00091116176
0.00074503625
1.1667625e-05
-0.0002287104
0.00021717241
0.00060458832
0.00089285543
0.00087470053
0.00088518368
0.0010462611
0.0012398702
0.0013528887
0.0013643246
0.0012752391
0.0011048493
0.00087279729
0.00060051893
0.00031289353
3.3831241e-05
-0.00021673283
-0.00042612233
-0.00059142164
-0.00071802778
0.00017364595
0.0011792048
0.00083573254
-0.0001450053
-0.00038031594
0.00011017687
0.00065350062
0.00099221525
0.00091702651
0.00084742951
0.0010126608
0.0012711275
0.0014586991
0.0015311028
0.0014814855
0.0013348707
0.0011124436
0.00083455042
0.00052618257
0.00021327194
-7.9616494e-05
-0.00033383462
-0.00053987645
-0.00069850006
-0.0008190896
0.00019609305
0.0013865373
0.0010083619
-0.00025412323
-0.00071555031
-3.8430528e-05
0.00073100844
0.0011449437
0.00097287161
0.00079373101
0.00093051688
0.0012670647
0.001542584
0.0016917726
0.0016927169
0.0015765821
0.0013704513
0.0010949366
0.00077318655
0.00043144349
9.7318621e-05
-0.00020456154
-0.00045794904
-0.00065681213
-0.00080593159
-0.00091865193
0.00017856157
0.0015026819
0.0011264886
-0.000461003
-0.0010383457
-0.00022837056
0.00084926039
0.0013637248
0.0010660127
0.00070879657
0.00080611875
0.0012087336
0.0016015041
0.0018439377
0.0019089241
0.0018277959
0.00164362
0.0013780903
0.0010514924
0.00068795175
0.00031638721
-3.3991367e-05
-0.00033981568
-0.00058770895
-0.00077560929
-0.00091251916
-0.0010155986
0.00019337946
0.0015418059
0.0012549124
-0.00060595014
-0.0015240073
-0.00049369166
0.0010060812
0.0016717576
0.0011878365
0.00060826054
0.00060066821
0.0010931281
0.0016231017
0.0019904494
0.0021299539
0.0020890808
0.0019289571
0.0016796063
0.0013575926
0.00098103299
0.0005785234
0.00018168561
-0.0001796417
-0.00048400567
-0.00072167528
-0.000895025
-0.001017211
-0.0011091386
0.00027179499
0.0015359171
0.001508872
-0.00088165373
-0.0018840678
-0.00083040702
0.0012091424
0.0020680889
0.0013662909
0.00047358688
0.00031712919
0.00088902623
0.0016054199
0.0021267551
0.0023617382
0.0023602733
0.002224813
0.0019947193
0.0016858587
0.0013079982
0.00088321068
0.00044495832
2.7999485e-05
-0.00033833769
-0.00063559274
-0.00085846446
-0.001013848
-0.0011189998
-0.0011984819
0.00036070481
0.0015465091
0.0016998191
-0.0013938405
-0.0024215598
-0.001443243
0.0014441066
0.0025302572
0.0016011617
0.00032662433
-8.756495e-05
0.00059361198
0.0015232215
0.0022594325
0.0026047109
0.0026464242
0.002529703
0.0023191765
0.0020295834
0.0016626666
0.0012282234
0.00075674836
0.00028727673
-0.00014365349
-0.00050852825
-0.00079305973
-0.00099667561
-0.0011308933
-0.0012169735
-0.0012828492
0.00043265749
0.0015486899
0.0017027714
-0.0020695335
-0.0027497515
-0.0021166017
0.0016226987
0.0031234038
0.0019191211
0.0001500372
-0.00062449273
0.00016044711
0.0013761536
0.0023760831
0.0028740353
0.0029504196
0.0028460447
0.0026481676
0.0023815048
0.002039003
0.0016094426
0.0011161464
0.00060075239
0.00010595707
-0.00033181172
-0.0006886057
-0.0009548068
-0.0011349061
-0.0012450519
-0.0013103193
-0.0013616241
0.00047213487
0.0015610469
0.0015358905
-0.0026000884
-0.0028197758
-0.0027000536
0.002052456
0.0038024066
0.0023221231
-4.1133817e-05
-0.0013529821
-0.00041662518
0.0011251858
0.0024879369
0.0031713266
0.003287683
0.003172347
0.0029850253
0.0027298051
0.002431806
0.0020217713
0.0015205227
0.00096900848
0.00041485667
-9.775892e-05
-0.00053487011
-0.00087678579
-0.00111916
-0.0012717531
-0.0013552569
-0.0013983052
-0.0014343593
0.00049085967
0.0015278105
0.0013545269
-0.0030149502
-0.0029018028
-0.003152738
0.0025954642
0.0046049847
0.0028360553
-0.00030714904
-0.0022848686
-0.0011880374
0.00076351262
0.0025701303
0.0035222407
0.0036607712
0.0035217485
0.0033099387
0.0030934824
0.002823556
0.0024544199
0.0019643643
0.0013904243
0.00078538126
0.00019981969
-0.00032243186
-0.00075092952
-0.0010711197
-0.001284385
-0.0014058401
-0.0014605236
-0.0014803939
-0.0015007419
0.0004813848
0.0014523658
0.001119091
-0.0033940969
-0.0029032495
-0.0033492823
0.0030656429
0.0049598322
0.003388366
-0.00068521959
-0.0035323879
-0.002155979
0.00023634555
0.0026288814
0.0039248747
0.0040977265
0.003889067
0.0036385277
0.0034173097
0.0032104591
0.0029000456
0.0024376528
0.0018603971
0.0012173158
0.00056512565
-4.3173323e-05
-0.00056613901
-0.00097781081
-0.0012695303
-0.0014487419
-0.0015358622
-0.00156007
-0.0015560574
-0.001560457
0.00043238395
0.0013405953
0.00089305269
-0.0035869775
-0.0029849459
-0.0034130692
0.0031207101
0.0049631148
0.0038246288
-0.0012754234
-0.0049733312
-0.0033744276
-0.00048638156
0.0026258777
0.0044069486
0.0045952333
0.0043034937
0.0039568085
0.003718526
0.003550361
0.0033383079
0.0029314374
0.0023725043
0.0017080849
0.0010000296
0.00030905398
-0.00031242607
-0.00082656831
-0.0012131053
-0.0014698671
-0.0016105304
-0.0016606917
-0.0016532359
-0.0016248984
-0.0016132124
0.00033478338
0.0011869751
0.00077664934
-0.0037452265
-0.0030802812
-0.0036069046
0.0030429947
0.0044008579
0.0041846037
-0.0017654203
-0.0069325107
-0.0048856748
-0.0014358725
0.00253915
0.0049619989
0.0051830088
0.0047483753
0.0042820724
0.0039758225
0.0038532778
0.003743824
0.0034396801
0.0029177958
0.0022536808
0.0015040773
0.00073818193
1.8458964e-05
-0.00060554717
-0.0011010279
-0.0014542348
-0.0016699735
-0.0017682004
-0.0017793892
-0.0017395092
-0.001686729
-0.0016590859
0.00017774761
0.00099447164
0.000722353
-0.0039205763
-0.0031489978
-0.0038691682
0.0027647267
0.004264901
0.0044005852
-0.0025508185
-0.0089882253
-0.006606965
-0.0026717995
0.0022997136
0.0055923408
0.0058502275
0.0052560783
0.0045924984
0.0041899504
0.0040870374
0.0041057186
0.0039361031
0.0034977216
0.0028487656
0.0020745537
0.0012457081
0.00043248399
-0.00030448931
-0.00091972636
-0.0013865534
-0.0016985522
-0.0018678094
-0.0019204119
-0.0018912043
-0.0018185161
-0.0017414213
-0.0016982936
-4.9339603e-05
0.00076138206
0.00062885807
-0.0040206659
-0.0032190239
-0.0041421683
0.0023071268
0.0040488557
0.0041969616
-0.0035423801
-0.01131737
-0.0087183383
-0.0043434576
0.001836146
0.0062980357
0.0066111321
0.0057961769
0.0049173051
0.0043239972
0.0042373527
0.0043926873
0.0044100251
0.0040898603
0.00349295
0.0027109184
0.0018314531
0.00093316616
8.4783389e-05
-0.0006568683
-0.0012516467
-0.0016800054
-0.0019434685
-0.00206152
-0.0020660263
-0.0019955131
-0.0018899914
-0.0017889774
-0.0017308478
-0.00035367519
0.00050045918
0.00046251608
-0.0039161703
-0.0032563323
-0.0044036717
0.0017717082
0.0037066964
0.0038828055
-0.0047651159
-0.013523967
-0.010832033
-0.0063490701
0.0011216653
0.0070705583
0.0074471323
0.0063811394
0.0052158232
0.0043867221
0.0042527315
0.0045909797
0.0048339505
0.0046870097
0.0041772537
0.0034083162
0.0024939364
0.0015219402
0.0005678738
-0.00030207806
-0.0010351931
-0.0015977399
-0.0019782119
-0.0021865301
-0.0022494511
-0.002204078
-0.0020918246
-0.001953805
-0.0018294858
-0.0017569235
-0.00072852473
0.00024473516
0.00026064456
-0.0035953857
-0.0032588279
-0.0046300427
0.0011452794
0.00301081
0.0037425105
-0.0056040683
-0.015648712
-0.012640955
-0.0084592416
0.00025283151
0.0079946628
0.0082183416
0.0069620999
0.0055115306
0.0043153602
0.0041263762
0.0046325854
0.0052007204
0.0052717742
0.0048962556
0.0041635123
0.0032330604
0.0021976292
0.001147182
0.00015230185
-0.00072455111
-0.0014355617
-0.0019542834
-0.0022780719
-0.0024254698
-0.0024301641
-0.0023337406
-0.0021797736
-0.0020098849
-0.0018630985
-0.0017767408
2.5060939e-05
-0.0011220631
4.5484212e-05
-0.0031508058
-0.0031397613
-0.0047579467
0.00042367208
0.002095259
0.0033358101
-0.0059260517
-0.017571611
-0.014949568
-0.01066495
-0.00076568523
0.0088212264
0.008791088
0.0074899297
0.0057466205
0.0041194811
0.0037647201
0.0045819498
0.0054578003
0.0058431235
0.0056364683
0.0049798818
0.0040421268
0.0029589301
0.0018236636
0.00071081159
-0.00030967502
-0.001178529
-0.0018538119
-0.0023175368
-0.0025766274
-0.0026582319
-0.0026023811
-0.0024543466
-0.002259147
-0.0020582741
-0.0018899797
-0.0017905028
-0.00017690158
-0.00017111174
-0.0014794793
-0.002607657
-0.0028131981
-0.0046889588
-0.00039480727
0.00090164204
0.0026233036
-0.0062303999
-0.019522292
-0.017761657
-0.012393097
-0.0018420065
0.0090368095
0.0088447908
0.0078758844
0.0059233263
0.0037163714
0.0031514861
0.0042176714
0.005611074
0.006361451
0.0064071034
0.0058497086
0.0049210745
0.0038035285
0.0025929885
0.0013743814
0.00021601885
-0.00081397733
-0.0016595413
-0.0022856059
-0.0026837991
-0.0028710888
-0.002882948
-0.002765028
-0.0025654074
-0.002329808
-0.0020990795
-0.0019103445
-0.0017985263
-0.0019916572
-0.00040227269
-0.00035288939
-0.0017975453
-0.0023424715
-0.004419704
-0.00138976
-0.00054830993
0.0016895459
-0.006724036
-0.021121374
-0.020813162
-0.013958024
-0.0025162985
0.0084862906
0.0085892562
0.0079710421
0.0059470245
0.0031081317
0.0021628998
0.0036082453
0.0055560504
0.0068312064
0.0071830288
0.0067829626
0.005866843
0.0047239142
0.0034513484
0.0021405439
0.00085540491
-0.00033247567
-0.0013559485
-0.0021628423
-0.0027265603
-0.0030494937
-0.0031588697
-0.0030979911
-0.0029172213
-0.0026665563
-0.0023917107
-0.0021324573
-0.001924502
-0.001801123
-0.0017897146
-0.0013170724
-0.00062546881
-0.00051890204
-0.0020741672
-0.0039690272
-0.0025939163
-0.0021883045
0.00047624289
-0.0072395283
-0.022520533
-0.02293909
-0.016195434
-0.0042259062
0.0079592748
0.0077742547
0.0076545297
0.0058591235
0.0021716189
0.00076749347
0.0025237089
0.0052888772
0.0071744588
0.0079925198
0.0077641252
0.0068938482
0.005709967
0.0043917416
0.0030012251
0.001605407
0.00027055061
-0.00093048117
-0.0019308244
-0.0026835863
-0.0031723123
-0.0034111827
-0.0034376055
-0.0033019542
-0.0030582385
-0.0027575382
-0.002444907
-0.0021586813
-0.0019327611
-0.0017986348
-0.0032546874
-0.0011922805
-0.00062018413
-0.00081795276
-0.00066904613
-0.0023037499
-0.0038486952
-0.003957581
-0.001022557
-0.0077828752
-0.023446802
-0.024821361
-0.018466108
-0.0064147002
0.0057621163
0.0080859289
0.0069292826
0.0054456204
0.00097941715
-0.0012159898
0.00097317131
0.004683373
0.0073956727
0.0087826382
0.0088283238
0.0079822234
0.006772416
0.0053993703
0.0039446538
0.0024585445
0.00099473044
-0.00037536629
-0.0015734097
-0.0025336367
-0.0032167314
-0.0036185269
-0.0037656392
-0.0037052056
-0.0034936344
-0.0031874824
-0.0028382017
-0.0024896446
-0.0021781269
-0.0019354952
-0.0017914069
-0.0051070525
-0.0023253096
-0.00057839864
9.6665454e-05
-0.0009565646
-0.0007948893
-0.0024826239
-0.0057155148
-0.0027332217
-0.0083711291
-0.023769121
-0.026125939
-0.020645901
-0.0087754422
0.0034697592
0.0059760971
0.0058329421
0.0049834371
-0.00077303454
-0.0038000497
-0.0013456232
0.0037075168
0.0073484624
0.0095887037
0.0099401573
0.0091627943
0.0078882449
0.0064691455
0.0049555519
0.0033994694
0.0018322633
0.00031226534
-0.0010787952
-0.0022566672
-0.0031589753
-0.0037571229
-0.0040609901
-0.0041098836
-0.0039598056
-0.003671928
-0.0033046003
-0.0029087461
-0.0025263323
-0.0021911526
-0.0019330062
-0.0017797492
-0.0073671472
-0.0063643506
-0.001359157
3.9532126e-05
0.00080407164
-0.0010218321
-0.00087555345
-0.00257627
-0.0046476103
-0.0089298942
-0.023433494
-0.026851416
-0.022408667
-0.011253395
0.0006768493
0.0043557904
0.0039960139
0.00398558
-0.0026158515
-0.0074942208
-0.0045712703
0.0022616606
0.0069898188
0.010298184
0.01114294
0.010383732
0.0090844535
0.0075736691
0.0060153508
0.0044082429
0.0027680871
0.0011273038
-0.00043957037
-0.0018361438
-0.0029752969
-0.0038011388
-0.0042995007
-0.0044956793
-0.0044411826
-0.0041997038
-0.0038360098
-0.0034096104
-0.0029695877
-0.0025552468
-0.0021978812
-0.0019254628
-0.0017640114
-0.0067214779
-0.0088436429
-0.0074501684
-0.00052651999
0.00062554942
0.0014828211
-0.0010186379
-0.0009016199
-0.002535821
-0.0094086981
-0.022411027
-0.026867974
-0.023510473
-0.013709101
-0.0024069807
0.0014483673
0.00208959
0.0031586718
-0.0056317419
-0.011810252
-0.0086627666
0.00030646544
0.0059964218
0.010888022
0.01237551
0.011686
0.010283209
0.008723543
0.0070929626
0.0054594293
0.0037788727
0.0020562838
0.0003442087
-0.0012593344
-0.0026432127
-0.003723426
-0.0044540038
-0.0048386724
-0.0049187756
-0.0047569661
-0.0044234747
-0.0039857065
-0.0035028605
-0.0030208643
-0.0025761956
-0.0021983132
-0.0019132783
-0.0017447257
-0.0096757968
-0.0087493669
-0.010044965
-0.0082520932
0.00012777793
0.0011200079
0.0021279954
-0.00098610262
-0.00090024042
-0.0023497247
-0.020694546
-0.026137847
-0.023669615
-0.015975294
-0.0058766473
-0.0021904789
-0.00062858697
0.0029415183
-0.0080005636
-0.017254661
-0.01288961
-0.0021405688
0.0041206001
0.011111583
0.013605998
0.01299767
0.011532921
0.0098401546
0.0081809537
0.0065158143
0.004834332
0.0030765778
0.0012633647
-0.0005192558
-0.0021451692
-0.0034961634
-0.0044946683
-0.0051111448
-0.0053695286
-0.0053265861
-0.0050549934
-0.0046303674
-0.0041213829
-0.0035843322
-0.0030619373
-0.0025889764
-0.0021931783
-0.0018974852
-0.0017223587
-0.018397603
-0.0096495186
-0.010428126
-0.010988814
-0.0087034169
0.00060576414
0.0014965136
0.0026596973
-0.00095377698
-0.000900527
-0.0020463908
-0.024660389
-0.022791042
-0.017911679
-0.0095972403
-0.0066499713
-0.0038746921
0.0018651811
-0.0094420083
-0.021711961
-0.018520704
-0.00580361
0.0010885318
0.01102124
0.014782145
0.01426686
0.012709926
0.010966301
0.0092026463
0.0075548434
0.0058922397
0.0041554871
0.0022992346
0.00038222156
-0.0014655963
-0.0030944598
-0.0043897717
-0.0052815403
-0.0057659768
-0.0058870179
-0.0057157416
-0.005333888
-0.0048203967
-0.0042426815
-0.0036528091
-0.0030923339
-0.0025950007
-0.0021845569
-0.0018789747
-0.0016966684
-0.022496074
-0.015621433
-0.0094074217
-0.011627538
-0.011649574
-0.0088220821
0.00098260332
0.0017942322
0.0030040933
-0.00091474606
-0.00091536386
-0.0016785165
-0.021199927
-0.019330724
-0.013490848
-0.011813173
-0.0078893657
-0.00073583809
-0.010741063
-0.026615006
-0.02447513
-0.0110323
-0.0036412451
0.0099796196
0.015800749
0.015463933
0.013803474
0.011956073
0.010188096
0.0084990307
0.0069173462
0.0052487606
0.0034212104
0.0014339523
-0.00059667071
-0.0024958425
-0.0041063428
-0.0053150936
-0.0060757932
-0.0064118453
-0.0063863343
-0.0060838775
-0.0055932162
-0.0049930473
-0.0043475731
-0.0037073857
-0.0031144037
-0.0025978592
-0.0021736627
-0.0018562321
-0.0016657138
-0.019127198
-0.019566465
-0.012618219
-0.0088946705
-0.012362697
-0.012006153
-0.0087428797
0.0013373503
0.0020774002
0.0031650144
-0.00083834315
-0.00091880893
-0.0013093346
-0.019803048
-0.017739886
-0.017568916
-0.013098045
-0.0040513537
-0.012870844
-0.030668047
-0.032890653
-0.018642143
-0.0089409649
0.0077147459
0.01627992
0.016227212
0.01472866
0.012844138
0.010988417
0.0093630876
0.0078281992
0.0063112589
0.0045870532
0.0026126014
0.00046152608
-0.0016805862
-0.0036145467
-0.0051741644
-0.0062619947
-0.0068689705
-0.0070421519
-0.006863736
-0.0064299259
-0.0058317951
-0.0051455822
-0.0044345743
-0.0037515242
-0.0031337723
-0.0025988182
-0.0021562064
-0.0018248811
-0.0016299424
-0.018921713
-0.016582667
-0.015977127
-0.0094993885
-0.0082058216
-0.012623022
-0.012055678
-0.008553655
0.0016752946
0.0023447905
0.0031425174
-0.00074090794
-0.00094176832
-0.00095159879
-0.022143292
-0.023692605
-0.019284544
-0.0078033102
-0.015480043
-0.035074557
-0.040017351
-0.03040994
-0.013419678
0.0058056806
0.015700249
0.016554146
0.015160516
0.013480985
0.011660781
0.0099942409
0.0086233364
0.0072575907
0.0057469047
0.0038829057
0.0016957339
-0.00063643289
-0.0028849687
-0.0048202148
-0.0062835229
-0.0072203626
-0.0076524322
-0.0076514091
-0.0073170978
-0.006752087
-0.0060455541
-0.0052754264
-0.0045083896
-0.0037935167
-0.0031516172
-0.0025892556
-0.0021236611
-0.0017889782
-0.0015899161
-0.026060058
-0.016977365
-0.013655747
-0.012077018
-0.0063712608
-0.0073887306
-0.012418438
-0.01183746
-0.0082546532
0.0019776455
0.0025211025
0.0029130768
-0.00070738828
-0.00092572992
-0.00065040376
-0.02987613
-0.025872073
-0.012110633
-0.018325325
-0.039425929
-0.04800893
-0.040944464
-0.019370796
0.00069518307
0.015221345
0.015652868
0.015221379
0.013737827
0.012027149
0.010460107
0.0091382534
0.008067134
0.0068149757
0.00519725
0.003086508
0.00063151243
-0.0018915815
-0.0042154999
-0.0060942613
-0.007422014
-0.008179453
-0.0084184258
-0.0082359758
-0.007743691
-0.0070448113
-0.0062309385
-0.0053885502
-0.0045806781
-0.0038344799
-0.003153221
-0.0025550464
-0.0020865836
-0.0017483822
-0.0015456802
-0.035704489
-0.029326367
-0.014657084
-0.010257932
-0.0082544225
-0.0033527806
-0.0064371723
-0.011835135
-0.011286636
-0.0079626238
0.0021853664
0.0027188982
0.0026184766
-0.00073224349
-0.00085331643
-0.00041369771
-0.032473096
-0.016994881
-0.021299578
-0.043379658
-0.055296912
-0.050616181
-0.027766705
-0.0048782872
0.010645667
0.014675032
0.014158621
0.013609886
0.012088195
0.010554251
0.0094465706
0.0085616384
0.0077526679
0.0064763601
0.0045949754
0.0021318683
-0.00060605352
-0.0033126135
-0.0056435681
-0.0074231042
-0.0085781044
-0.0091289279
-0.0091612547
-0.0087917626
-0.0081361883
-0.0073023479
-0.006395508
-0.0055008485
-0.0046525028
-0.0038514321
-0.0031171568
-0.0025160324
-0.0020444032
-0.0017033914
-0.0014971128
-0.038426023
-0.040778574
-0.031566794
-0.012585807
-0.0067017144
-0.0046618873
-0.00058595867
-0.0053592911
-0.010979363
-0.010682964
-0.0075583507
0.0023690284
0.002932102
0.0023542999
-0.00078710196
-0.00071987907
-0.00023044834
-0.022328457
-0.024200266
-0.046477612
-0.061325808
-0.059047602
-0.037171343
-0.012196174
0.0057813616
0.0116556
0.012460639
0.012724771
0.01174634
0.010359921
0.0092967632
0.0088084642
0.00837049
0.0076740191
0.0061561231
0.0038416676
0.00097086348
-0.002048258
-0.0048750739
-0.0071651275
-0.0087951861
-0.0097386905
-0.010060321
-0.0098751297
-0.0093091162
-0.0084863734
-0.007533134
-0.0065599653
-0.0056132802
-0.004690189
-0.0038137862
-0.0030755931
-0.0024712847
-0.0019975599
-0.0016537733
-0.0014442384
-0.027386057
-0.043078502
-0.044351925
-0.032691868
-0.010991762
-0.0034466846
-0.0014267329
0.0018148478
-0.0042284962
-0.0099547803
-0.0096245823
-0.0068837921
0.0026793344
0.0030139278
0.0020348696
-0.00075339363
-0.00055095907
-0.00014198247
-0.02680967
-0.048288505
-0.065357035
-0.066380102
-0.046061901
-0.020574579
-0.0012246704
0.0092242758
0.0091888151
0.011294062
0.010898574
0.0096264758
0.0087976311
0.0084816711
0.0087072057
0.008593031
0.007732777
0.0057165662
0.0028485314
-0.00044122071
-0.0037373989
-0.0065874332
-0.0087694413
-0.010194301
-0.010891649
-0.010965476
-0.01054756
-0.0097764229
-0.0088036193
-0.0077646123
-0.0067254502
-0.0056788526
-0.0046517658
-0.0037691738
-0.0030274455
-0.0024216443
-0.00194594
-0.0015996404
-0.0013870231
-0.028901407
-0.031852664
-0.045978239
-0.046319844
-0.032725343
-0.0096021235
-0.00082440995
0.0013525182
0.0038139205
-0.0031165221
-0.0087990129
-0.0086818316
-0.0061524939
0.0028219918
0.0031585782
0.0016857435
-0.0005854516
-0.00039887852
-9.2171611e-05
-0.048228511
-0.066877164
-0.071620897
-0.053271119
-0.029822864
-0.0087413142
0.003638716
0.0067800195
0.0085610755
0.0095530747
0.0085294578
0.0075854894
0.0077173545
0.0083801133
0.0092505188
0.009131588
0.0077352556
0.0050153462
0.0015368989
-0.002181457
-0.0056426369
-0.0084387421
-0.010434749
-0.011604178
-0.012025635
-0.011828475
-0.011162169
-0.010203348
-0.0091224278
-0.0079992512
-0.0068288759
-0.0056410066
-0.0046038314
-0.003716844
-0.0029741546
-0.0023669682
-0.0018895653
-0.0015409278
-0.0013254671
-0.046052788
-0.030276246
-0.03490061
-0.047191837
-0.046541807
-0.031852495
-0.008309635
0.0011636569
0.0035571638
0.0054612591
-0.002059162
-0.0077742309
-0.0078548491
-0.0052091191
0.0025655436
0.0032427911
0.0012607362
-0.00035349586
-0.000223369
-5.2113752e-05
-0.065406301
-0.073902391
-0.058780492
-0.038640349
-0.016860288
-0.0039891186
0.0025635003
0.0058573647
0.0075686711
0.0066904915
0.0060734773
0.0061095123
0.0075500815
0.0092430769
0.010380579
0.0097309004
0.0074721667
0.0039123167
-0.00018063948
-0.0042495306
-0.0077370431
-0.010394324
-0.012138295
-0.01300888
-0.013120564
-0.012626855
-0.011727749
-0.010633303
-0.0094458919
-0.0081535143
-0.0067941145
-0.005589705
-0.0045467676
-0.0036590768
-0.0029155099
-0.0023072511
-0.0018283804
-0.0014776398
-0.001259629
-0.061046343
-0.041815056
-0.030107844
-0.036105575
-0.046621097
-0.045165647
-0.030207964
-0.0071610867
0.0026736921
0.0050955321
0.0066574952
-0.0012949619
-0.0067230032
-0.0070597161
-0.0039870836
0.002169974
0.0024479645
0.0010326027
-0.00016601884
-0.00010789263
-4.7043088e-06
-0.072535123
-0.062429433
-0.045121933
-0.025196485
-0.014078645
-0.002976966
0.0012805208
0.0056972417
0.0047412598
0.003421165
0.0040796142
0.0056898544
0.008693936
0.011059359
0.011812287
0.010109878
0.0067124175
0.0022894811
-0.0023477599
-0.0065879197
-0.010003459
-0.012428839
-0.013859538
-0.014383018
-0.014146071
-0.013366868
-0.012298363
-0.011071522
-0.0096660765
-0.0081255923
-0.0067396184
-0.0055276798
-0.0044838773
-0.0035955886
-0.0028514894
-0.0022425065
-0.0017624885
-0.0014100138
-0.0011894421
-0.06750987
-0.053851759
-0.036290867
-0.028179492
-0.035573785
-0.044301757
-0.042391537
-0.0279184
-0.0061741615
0.0036449524
0.0056696319
0.0075409096
-0.0010501641
-0.0055688516
-0.0061292912
-0.0030858528
0.0018801222
0.002163433
0.00085149654
-2.2573946e-05
-1.5539019e-05
3.658344e-05
-0.063133453
-0.047866466
-0.033170875
-0.024546033
-0.011328264
-0.0055993667
0.0021196691
0.0032291225
0.00096525579
0.00049117813
0.0031255474
0.0069575158
0.011260488
0.013498058
0.01298855
0.0098695212
0.0052845833
9.1914518e-05
-0.0049188712
-0.0091727675
-0.012402272
-0.014514447
-0.015566182
-0.015686436
-0.015103452
-0.014114648
-0.012883255
-0.011379975
-0.0096505958
-0.0080684977
-0.0066725892
-0.0054592039
-0.0044146606
-0.0035263006
-0.0027821848
-0.0021728838
-0.001692148
-0.0013377579
-0.0011149933
-0.059962682
-0.059192137
-0.045066325
-0.029825054
-0.025113273
-0.033464384
-0.040428153
-0.038556105
-0.025277538
-0.0055891644
0.0042850214
0.0060452727
0.0075499743
-0.00069219242
-0.0044357095
-0.0048589972
-0.0021845402
0.0016296746
0.0017093429
0.00073002585
9.5394658e-05
3.5980653e-05
8.2946853e-05
-0.047008747
-0.039946393
-0.035254362
-0.022344067
-0.014336432
-0.0038418693
0.00091070661
-0.0015160437
-0.0026548599
-0.0013603731
0.0042625798
0.010284746
0.014897341
0.015776475
0.013456706
0.0087652296
0.0031243085
-0.00266767
-0.0078303249
-0.011973168
-0.014901136
-0.016611394
-0.017205331
-0.016912206
-0.016072629
-0.014886133
-0.013308125
-0.011385906
-0.0095923164
-0.007997035
-0.0065982309
-0.0053835606
-0.0043391884
-0.003451389
-0.0027077937
-0.0020986976
-0.0016169496
-0.0012610981
-0.0010363303
-0.043338145
-0.053297671
-0.049387179
-0.035418974
-0.023116293
-0.021255276
-0.030151059
-0.03525035
-0.03399822
-0.022718452
-0.0049132616
0.0053729144
0.0062467388
0.0075411988
-0.0003455479
-0.0031447496
-0.0037412893
-0.0013824036
0.001414414
0.0015156016
0.00067267948
0.00019912668
8.1581025e-05
0.00011599457
-0.044939386
-0.045427953
-0.035544675
-0.025959154
-0.012293219
-0.003136217
-0.0041119387
-0.0068936639
-0.0056644749
-0.0004531597
0.0081378029
0.015553793
0.018634016
0.017182666
0.012824647
0.0067112173
0.00022102347
-0.0059112665
-0.011053519
-0.014937641
-0.017450634
-0.018651302
-0.018759531
-0.018156077
-0.017080331
-0.015463542
-0.01334809
-0.011329051
-0.0095180454
-0.0079167532
-0.0065157172
-0.0053009649
-0.0042575829
-0.0033711531
-0.0026286999
-0.0020193863
-0.0015368986
-0.0011800745
-0.0009536074
-0.047314342
-0.0377359
-0.044865919
-0.039175993
-0.025972787
-0.016593452
-0.016909413
-0.026355268
-0.02908384
-0.029383261
-0.019690717
-0.0034560825
0.0061541587
0.0067332298
0.0071620549
2.2728537e-05
-0.0018987115
-0.0028464867
-0.00077336977
0.0012194779
0.0013077699
0.0006332725
0.00028710495
0.00011852355
0.00015121369
-0.054692626
-0.050419852
-0.039407095
-0.023712102
-0.0091198603
-0.0079369341
-0.010602578
-0.012855194
-0.0061128513
0.0039178029
0.015078081
0.021043894
0.021353284
0.017194681
0.010988504
0.003713091
-0.0033511298
-0.0095780548
-0.014539235
-0.018004494
-0.019962226
-0.020602413
-0.020341467
-0.019460863
-0.017856677
-0.015554594
-0.013296909
-0.011254956
-0.0094325056
-0.0078271015
-0.006425155
-0.0052115749
-0.00417038
-0.003286009
-0.0025440952
-0.00193454
-0.0014523883
-0.0010950596
-0.00086684083
-0.062091028
-0.046700545
-0.031805177
-0.035604224
-0.029298993
-0.017217027
-0.010379366
-0.012256627
-0.022449455
-0.023249858
-0.023925699
-0.016551317
-0.0016680141
0.0062059287
0.0069417693
0.006371597
0.00057616546
-0.001041388
-0.0017981074
-0.0003520767
0.0010911624
0.0011597107
0.00062861158
0.00034617357
0.00016077051
0.00017622226
-0.06514942
-0.054222919
-0.038177275
-0.016940567
-0.013079599
-0.015488971
-0.018635611
-0.017796016
-0.0010027816
0.013226587
0.022802876
0.025263747
0.022210607
0.015664721
0.0079736665
-0.0001543539
-0.0074920893
-0.013624211
-0.01819455
-0.021067844
-0.022388293
-0.022596501
-0.022016405
-0.020494637
-0.018022104
-0.015515097
-0.013228161
-0.01116566
-0.0093359183
-0.0077279633
-0.0063268555
-0.0051161736
-0.0040779403
-0.0031948091
-0.0024530386
-0.0018451376
-0.0013637571
-0.0010060094
-0.00077619084
-0.07781622
-0.067038749
-0.043407161
-0.025404583
-0.025912352
-0.019901115
-0.0091805928
-0.0045515067
-0.007674942
-0.018376444
-0.017837152
-0.019695054
-0.013093394
-0.00050839641