/*--------------------------------*- C++ -*----------------------------------*\
| =========                 |                                                 |
| \\      /  F ield         | OpenFOAM: The Open Source CFD Toolbox           |
|  \\    /   O peration     | Version:  5.0                                   |
|   \\  /    A nd           | Web:      www.OpenFOAM.org                      |
|    \\/     M anipulation  |                                                 |
\*---------------------------------------------------------------------------*/
FoamFile
{
    version     2.0;
    format      ascii;
    class       surfaceScalarField;
    location    "100";
    object      phi;
}
// * * * * * * * * * * * * * * * * * * * * * * * * * * * * * * * * * * * * * //

dimensions      [0 3 -1 0 0 0 0];

internalField   nonuniform List<scalar> 
18820
(
-0.0002071899
-1.3539057
-0.00040925449
-1.2662049
-0.00022010182
-1.3536856
-0.00061250863
-1.1843078
-0.00043362962
-1.2659914
-0.00021366204
-1.3534719
-0.00082131944
-1.1077953
-0.00064647348
-1.184095
-0.00042028311
-1.2657847
-0.00020497329
-1.3532669
-0.0010385317
-1.0362911
-0.00086294379
-1.1075788
-0.00062559836
-1.1838897
-0.00040263991
-1.2655871
-0.00019081072
-1.3530761
-0.0012656605
-0.96944294
-0.001085961
-1.0360681
-0.0008333492
-1.1073711
-0.00059804995
-1.1836943
-0.00037435399
-1.2654035
-0.00017405625
-1.3529021
-0.0015033945
-0.90693117
-0.001317547
-0.96921135
-0.0010460498
-1.0358554
-0.00079437397
-1.1071747
-0.00055458508
-1.183514
-0.00034086151
-1.2652367
-0.00015639754
-1.3527457
-0.0017517702
-0.84846348
-0.0015594985
-0.90668922
-0.0012655228
-0.96899188
-0.00099384639
-1.035656
-0.00073436106
-1.106995
-0.00050352494
-1.1833514
-0.00030580499
-1.2650873
-0.00013947606
-1.3526062
-0.0020107069
-0.79377072
-0.0018139808
-0.84820899
-0.0014932054
-0.90646154
-0.0011980538
-0.96878767
-0.00091547408
-1.0354748
-0.00066426952
-1.1068342
-0.00045065279
-1.1832065
-0.00027249254
-1.2649543
-0.00012412794
-1.3524821
-0.0022797942
-0.74260302
-0.0020840709
-0.79350063
-0.0017306513
-0.84797155
-0.0014080487
-0.90625155
-0.0010992451
-0.9686039
-0.00082415491
-1.035315
-0.00059229397
-1.1066926
-0.00040101456
-1.183078
-0.00024255021
-1.2648359
-0.00011028899
-1.3523718
-0.002560734
-0.69473226
-0.0023743771
-0.74231272
-0.001979759
-0.79325152
-0.0016245639
-0.84775503
-0.001286699
-0.90606409
-0.00098382917
-0.96844423
-0.00073093135
-1.0351763
-0.00052560273
-1.106568
-0.00035704627
-1.1829635
-0.00021576622
-1.2647304
-9.7314002e-05
-1.3522745
-0.0028568809
-0.64994389
-0.0026929356
-0.6944137
-0.0022435186
-0.74204896
-0.0018480885
-0.79302799
-0.0014785713
-0.84756316
-0.0011438676
-0.90590405
-0.00086602007
-0.96830914
-0.00064569052
-1.0350562
-0.00046773142
-1.1064573
-0.00031822458
-1.1828611
-0.00019077057
-1.2646369
-8.4461232e-05
-1.35219
-0.0031801905
-0.60802928
-0.0030504535
-0.64958637
-0.0025252595
-0.69413196
-0.0020791358
-0.74181791
-0.0016754292
-0.79283114
-0.001305119
-0.84740191
-0.0009965685
-0.9057735
-0.00075948679
-0.96819534
-0.00057366768
-1.0349503
-0.00041788317
-1.1063576
-0.00028232889
-1.1827695
-0.00016605133
-1.2645554
-7.127065e-05
-1.3521187
-0.00354012
-0.56878736
-0.0034595329
-0.6076202
-0.0028284356
-0.64928319
-0.0023162034
-0.69389489
-0.0018772256
-0.74161611
-0.0014691198
-0.79266714
-0.001121652
-0.84727683
-0.00086407981
-0.90566891
-0.00067247016
-0.96809654
-0.00051402458
-1.0348542
-0.0003727557
-1.1062672
-0.00024697989
-1.1826886
-0.00014061774
-1.264486
-5.7663202e-05
-1.3520611
-0.0039429906
-0.53203536
-0.0039220659
-0.56832483
-0.0031517978
-0.60729684
-0.0025557281
-0.64904367
-0.0020826011
-0.69368952
-0.0016377869
-0.74144745
-0.0012408298
-0.79254796
-0.00095564978
-0.84718526
-0.00076017405
-0.90558121
-0.00060467209
-0.96800589
-0.00046211897
-1.0347648
-0.00032874169
-1.1061855
-0.00021051236
-1.1826187
-0.00011422701
-1.2644294
-4.3934106e-05
-1.3520171
-0.0043883912
-0.49762925
-0.0044374069
-0.53152002
-0.0034863832
-0.56799024
-0.0027880185
-0.60706455
-0.0022902638
-0.64883601
-0.0018135643
-0.69351374
-0.0013547768
-0.7413335
-0.001029486
-0.79247412
-0.00083111854
-0.84711431
-0.00068638337
-0.9054995
-0.00054963953
-0.96791837
-0.00041241305
-1.0346811
-0.00028311901
-1.1061128
-0.00017229146
-1.1825606
-8.7510081e-05
-1.2643859
-3.0889679e-05
-1.3519862
-0.0048893194
-0.46544266
-0.0049963269
-0.49707033
-0.0038216266
-0.53118478
-0.0029992259
-0.56777904
-0.0024952172
-0.6068596
-0.0019988612
-0.64865071
-0.0014670036
-0.69340151
-0.0010817495
-0.74128124
-0.00087785116
-0.79242739
-0.00075419577
-0.8470465
-0.0006337061
-0.90541543
-0.00049871619
-0.96783207
-0.00036024759
-1.034604
-0.00023443693
-1.1060507
-0.00013305378
-1.1825151
-6.1999341e-05
-1.2643548
-1.9535121e-05
-1.3519667
-0.0054396661
-0.43532528
-0.0056042259
-0.46483476
-0.0041366306
-0.49675533
-0.0031704423
-0.53101356
-0.0026894152
-0.56758484
-0.0021958292
-0.60666263
-0.0015826718
-0.64853504
-0.0011069066
-0.69337636
-0.0008928966
-0.74126619
-0.0008015986
-0.79237999
-0.00071150358
-0.8469687
-0.0005881147
-0.90532603
-0.00044397088
-0.96774834
-0.00030295929
-1.0345355
-0.00018314201
-1.1060006
-9.5078131e-05
-1.182482
-3.938873e-05
-1.2643349
-1.0171931e-05
-1.3519565
-0.0060483457
-0.4071168
-0.0062579162
-0.43467159
-0.0044309498
-0.46454044
-0.0032964338
-0.49662934
-0.0028594976
-0.53084348
-0.0024083826
-0.56737229
-0.0017092608
-0.60653604
-0.0011021219
-0.64853982
-0.00086173576
-0.69340752
-0.00081716158
-0.74125063
-0.00077815978
-0.79231333
-0.0006805987
-0.84687622
-0.00053659951
-0.9052334
-0.00038055759
-0.96767074
-0.00024045513
-1.0344782
-0.0001323562
-1.1059633
-6.1010535e-05
-1.1824604
-2.0458506e-05
-1.2643246
-2.6619813e-06
-1.3519539
-0.0067237378
-0.3806996
-0.0069533805
-0.40642133
-0.0047026666
-0.43439987
-0.0033810295
-0.46445584
-0.0030103834
-0.49647845
-0.0026443137
-0.53060755
-0.0018566474
-0.5672249
-0.0010700971
-0.60656806
-0.00076754741
-0.64863401
-0.00078759838
-0.69343708
-0.00082400273
-0.74120478
-0.00077534404
-0.79221858
-0.00064108666
-0.84677173
-0.00047068462
-0.90514327
-0.00030782485
-0.96760337
-0.00017637079
-1.0344341
-8.62105e-05
-1.1059381
-3.2042321e-05
-1.1824488
-5.0638861e-06
-1.2643222
3.4521419e-06
-1.3519573
-0.0074878262
-0.35592387
-0.0076985887
-0.37995439
-0.0049177688
-0.40620623
-0.0033928738
-0.43438803
-0.003145541
-0.46432069
-0.0029241997
-0.49619856
-0.0020507789
-0.53041342
-0.0010268114
-0.56726818
-0.00059371401
-0.6067419
-0.00069046722
-0.64873114
-0.00084619608
-0.69341489
-0.00087122353
-0.7411089
-0.0007615873
-0.79209808
-0.00057791638
-0.8466645
-0.00038865803
-0.90506244
-0.00022991894
-0.96754983
-0.00011709753
-1.0344033
-4.6270023e-05
-1.1059239
-7.8918089e-06
-1.182446
7.8907662e-06
-1.2643267
8.4889582e-06
-1.3519658
-0.0083202114
-0.33272252
-0.0084748896
-0.35514757
-0.0050537029
-0.37981846
-0.0032748148
-0.40632429
-0.0032662618
-0.43426731
-0.0032996991
-0.46394519
-0.0023188299
-0.49593051
-0.00097035252
-0.53046987
-0.00032600206
-0.5675359
-0.00049895803
-0.60693341
-0.00083492035
-0.64874242
-0.00096858504
-0.69331753
-0.00090527525
-0.74096522
-0.00070899125
-0.79196701
-0.00048731627
-0.84656584
-0.00029584978
-0.90499651
-0.00015592612
-0.967511
-6.4929957e-05
-1.0343846
-1.2111831e-05
-1.1059197
1.2949232e-05
-1.182451
1.84858e-05
-1.2643367
1.2776182e-05
-1.3519786
-0.009214673
-0.31102433
-0.0093031246
-0.33189429
-0.0050259063
-0.35517537
-0.0029935066
-0.38009977
-0.0033937093
-0.40619684
-0.0038321145
-0.43373489
-0.0026993137
-0.4635647
-0.00091159028
-0.49598928
5.6673961e-05
-0.53085255
-0.00017142211
-0.56786343
-0.00076727379
-0.60700105
-0.0010757955
-0.64863521
-0.0010779814
-0.69314482
-0.00087455594
-0.74079965
-0.00060989685
-0.79184443
-0.00037715298
-0.84648454
-0.00020479585
-0.90494764
-8.9909616e-05
-0.96748602
-1.9328743e-05
-1.0343774
1.7992967e-05
-1.1059247
3.0518801e-05
-1.182463
2.7697709e-05
-1.2643516
1.6669922e-05
-1.3519953
-0.01008894
-0.29060548
-0.010161113
-0.31016634
-0.0048838592
-0.33203634
-0.0024961522
-0.35567272
-0.0035077463
-0.37998573
-0.0045987532
-0.40543021
-0.0032409336
-0.43319327
-0.00083013645
-0.46364616
0.00058306432
-0.49651567
0.0003264329
-0.53135041
-0.00061668423
-0.56801402
-0.0011973572
-0.60687949
-0.001294652
-0.64841854
-0.0010871404
-0.69293224
-0.00076487133
-0.74064468
-0.00047704398
-0.79174454
-0.00026532103
-0.84642401
-0.00012277237
-0.90491478
-3.1245814e-05
-0.9674741
2.156455e-05
-1.0343809
4.4046336e-05
-1.1059383
4.5871681e-05
-1.1824812
3.6001512e-05
-1.2643709
2.0105197e-05
-1.3520154
-0.010982957
-0.27033467
-0.011015899
-0.28975069
-0.0045543359
-0.31049586
-0.0017534796
-0.33277901
-0.0036570688
-0.3555234
-0.0056316082
-0.37895287
-0.0040105454
-0.40466059
-0.0007327134
-0.4332907
0.0013020884
-0.46436518
0.001048205
-0.49723744
-0.00034921249
-0.53161788
-0.0013361094
-0.56787527
-0.0015829802
-0.60659116
-0.0013629971
-0.64814268
-0.00096486954
-0.69273224
-0.00059886923
-0.74052285
-0.00033783137
-0.79167203
-0.00016415266
-0.84638263
-4.9501524e-05
-0.90489652
2.1857108e-05
-0.96747439
5.7745157e-05
-1.0343946
6.7280647e-05
-1.1059597
5.9973386e-05
-1.1825052
4.3408051e-05
-1.2643942
2.3095578e-05
-1.3520385
-0.011587331
-0.25021207
-0.011544953
-0.26980562
-0.0041454709
-0.29015955
-0.00077318809
-0.31147616
-0.0037473265
-0.33268875
-0.0070457783
-0.35410923
-0.0050815439
-0.37788188
-0.00062856548
-0.40476474
0.002266597
-0.43425521
0.0020638353
-0.46538081
7.7264246e-05
-0.49766391
-0.0014944076
-0.53145958
-0.001973223
-0.56748503
-0.0017335926
-0.60622057
-0.0012223495
-0.6478852
-0.00074686587
-0.69258424
-0.0004210694
-0.74043961
-0.00021279047
-0.79162339
-7.4689667e-05
-0.84635744
1.7072475e-05
-0.90489174
6.9766717e-05
-0.96748641
9.0728811e-05
-1.0344181
8.8933038e-05
-1.1059886
7.2604474e-05
-1.1825344
4.974787e-05
-1.2644209
2.5343967e-05
-1.3520638
-0.011874358
-0.23127002
-0.011368856
-0.25038816
-0.0030647626
-0.27088632
0.00039333795
-0.29132608
-0.003855755
-0.31136773
-0.0088444041
-0.33089013
-0.0065317652
-0.35265901
-0.00056537686
-0.37794506
0.0035347337
-0.40603288
0.0034515471
-0.43564292
0.00071217685
-0.46601572
-0.0016697698
-0.49748855
-0.0025077951
-0.53092501
-0.0022406197
-0.566978
-0.0015550886
-0.60588783
-0.00092596981
-0.6477061
-0.0005099309
-0.69249538
-0.00026443063
-0.74038797
-0.00010547939
-0.7915926
5.9005778e-06
-0.84634627
7.7914141e-05
-0.90489988
0.00011430036
-0.96750999
0.00012198074
-1.0344511
0.00010860608
-1.1060246
8.3551007e-05
-1.1825682
5.4651045e-05
-1.2644502
2.6657558e-05
-1.3520905
-0.011973557
-0.21376125
-0.010607306
-0.23203157
-0.0010671648
-0.25238576
0.001909312
-0.2724023
-0.0038203283
-0.29136151
-0.011165159
-0.30904697
-0.0084431875
-0.3289787
-0.00053260458
-0.35269178
0.0051634258
-0.37957376
0.0053129121
-0.40789424
0.0016182304
-0.43654897
-0.001864899
-0.46582059
-0.0032340426
-0.4967623
-0.0029374569
-0.53022817
-0.001992767
-0.56654032
-0.0011362159
-0.60567758
-0.00059714398
-0.64761888
-0.00031008059
-0.69244973
-0.00013779508
-0.74035566
-1.1944647e-05
-0.79157475
7.9904892e-05
-0.84634826
0.00013531792
-0.9049209
0.00015722987
-0.96754523
0.00015092069
-1.0344935
0.00012595699
-1.106067
9.2260208e-05
-1.1826058
5.7729561e-05
-1.2644812
2.6804851e-05
-1.3521173
-0.011951275
-0.19763625
-0.0094422236
-0.21492634
0.0014095585
-0.23450829
0.0037089772
-0.25418543
-0.0038004093
-0.27242222
-0.013723616
-0.28880305
-0.010912116
-0.30657804
-0.00061806147
-0.32889325
0.0072275414
-0.3547559
0.0077448651
-0.38200571
0.0028747525
-0.40915077
-0.0020758271
-0.43633804
-0.0042151441
-0.46483949
-0.0038921698
-0.49580759
-0.0025713988
-0.52964954
-0.0013793033
-0.56629723
-0.00066981897
-0.60560491
-0.00033450065
-0.64759446
-0.0001628086
-0.69242471
-3.4077917e-05
-0.74033352
7.36726e-05
-0.79156852
0.00015039691
-0.84636334
0.00019168163
-0.90495535
0.00019784978
-0.96759216
0.0001769812
-1.0345445
0.00014019809
-1.106115
9.812321e-05
-1.1826462
5.8600791e-05
-1.264513
2.5726734e-05
-1.352143
-0.011829284
-0.18271483
-0.0080508536
-0.19902762
0.0040381855
-0.21755497
0.0052799576
-0.23607927
-0.0045475495
-0.25343829
-0.016626935
-0.2695189
-0.014048019
-0.28566715
-0.0007572669
-0.30643884
0.0097848903
-0.3314506
0.010859331
-0.35787036
0.0045666663
-0.38369762
-0.0023110001
-0.40891559
-0.0055208403
-0.43503235
-0.005191137
-0.46354052
-0.0033411701
-0.49503782
-0.0016581461
-0.52937069
-0.00070633663
-0.56626072
-0.00031532933
-0.60562408
-0.00016568119
-0.64759159
-5.6057509e-05
-0.69240274
5.7390826e-05
-0.74031724
0.00015542464
-0.79157355
0.00022111094
-0.84639277
0.00024642592
-0.90500393
0.00023529931
-0.96765048
0.00019906793
-1.0346034
0.00015048664
-1.1061673
0.00010063542
-1.1826882
5.7107901e-05
-1.2645444
2.3478403e-05
-1.3521665
-0.013208084
-0.19849031
-0.006460253
-0.18430543
0.0067124344
-0.20170187
0.0065047448
-0.21877975
-0.0065233885
-0.23410344
-0.020490833
-0.24957439
-0.017852596
-0.26571432
-0.0012301676
-0.28519425
0.012941089
-0.30959504
0.014764053
-0.33535532
0.0067925783
-0.36009627
-0.0025555502
-0.38345307
-0.0072431851
-0.40719325
-0.0069364097
-0.43328707
-0.0043610398
-0.46252066
-0.001978348
-0.49471762
-0.00067713733
-0.52939989
-0.00022204669
-0.566354
-0.00012396212
-0.6056658
-6.951077e-05
-0.64757814
2.997636e-05
-0.69237532
0.00014520937
-0.74030703
0.00023987091
-0.79159231
0.00029219024
-0.84643853
0.00029825061
-0.90506688
0.00026805372
-0.96771947
0.00021600075
-1.0346689
0.00015612824
-1.1062228
9.9552241e-05
-1.1827307
5.3263692e-05
-1.2645742
2.0185172e-05
-1.3521867
-0.013951905
-0.19630394
-0.0061682206
-0.19878235
0.0094138171
-0.18700682
0.007663248
-0.20286038
-0.0092908864
-0.21601225
-0.025478097
-0.22911617
-0.021658002
-0.24576898
-0.0019032484
-0.26504124
0.016757803
-0.28901096
0.019557249
-0.31438823
0.0096492873
-0.33821203
-0.0028252984
-0.35982653
-0.0094791919
-0.38121707
-0.0092475263
-0.40488213
-0.0057073837
-0.43194073
-0.002343399
-0.4621556
-0.00054571389
-0.49484904
-7.2282353e-06
-0.52961471
-1.0458522e-05
-0.5664675
-6.3339935e-05
-0.60567197
-9.4006351e-06
-0.64753876
0.00011288904
-0.692343
0.00024032086
-0.74030748
0.00032876881
-0.79162889
0.00036164163
-0.84650193
0.00034506203
-0.90514389
0.00029446095
-0.96779793
0.00022682645
-1.0347396
0.00015677108
-1.10628
9.4883816e-05
-1.1827723
4.7261302e-05
-1.2646013
1.6013348e-05
-1.3522027
-0.014116896
-0.19402907
-0.005127579
-0.19734458
0.010767433
-0.20013596
0.0087233319
-0.1880669
-0.012304415
-0.19984685
-0.030758672
-0.21073168
-0.025127819
-0.22564636
-0.0019456662
-0.24572656
0.021441985
-0.26972542
0.025356099
-0.29480981
0.013221706
-0.31796065
-0.0030945286
-0.3379428
-0.012348341
-0.35695738
-0.012258068
-0.37820652
-0.0074651568
-0.40312436
-0.0027589492
-0.43152518
-0.00026347034
-0.46243785
0.00038747011
-0.49524374
0.00022230611
-0.52984748
-1.8182406e-05
-0.56651266
-5.9211935e-05
-0.60562216
4.9799659e-05
-0.64747567
0.00021214545
-0.69231483
0.00034746567
-0.74032617
0.00041954864
-0.79168679
0.00042664293
-0.84658351
0.00038450221
-0.90523393
0.00031317135
-0.96788427
0.00023103698
-1.0348138
0.00015241395
-1.1063376
8.6877601e-05
-1.1828119
3.9401804e-05
-1.2646247
1.1147793e-05
-1.3522138
-0.013770236
-0.19174008
-0.0034381637
-0.19571849
0.012749705
-0.19932685
0.0086556127
-0.20006824
-0.015444086
-0.18492723
-0.035971225
-0.19463429
-0.028294238
-0.20756526
-0.00048490419
-0.22710712
0.027228286
-0.25151287
0.032262249
-0.27663157
0.017602402
-0.29919051
-0.0033833646
-0.31767182
-0.01597841
-0.33431273
-0.016110594
-0.35310485
-0.0097344091
-0.37593727
-0.0032300301
-0.40265328
0.00022801859
-0.43201667
0.0010377729
-0.46308815
0.00063156676
-0.495653
9.2889174e-05
-0.52995855
-0.00011653893
-0.56645533
-5.298858e-05
-0.60551937
0.00014168042
-0.64740521
0.00033671767
-0.69230408
0.00046379089
-0.74037042
0.00050785829
-0.79176801
0.00048364135
-0.84668265
0.00041458335
-0.90533534
0.00032341369
-0.96797665
0.0002285825
-1.03489
0.00014335894
-1.1063941
7.5945236e-05
-1.1828484
3.0084824e-05
-1.2646436
5.7865688e-06
-1.3522196
-0.012981485
-0.18952881
-0.0012160863
-0.19396216
0.015197247
-0.19816603
0.0091647618
-0.199836
-0.019554419
-0.19595791
-0.040931293
-0.17996716
-0.031303003
-0.19162553
0.0018115711
-0.20986174
0.034473921
-0.23435275
0.039820385
-0.259071
0.022550621
-0.28157979
-0.0036698114
-0.29890406
-0.020514036
-0.31313619
-0.020955105
-0.32946822
-0.012618924
-0.35022034
-0.0037608467
-0.37540646
0.00099913618
-0.40342439
0.0020312204
-0.43301012
0.0012926155
-0.4637492
0.00030904432
-0.49586916
-0.00018820766
-0.52988688
-0.00020358508
-0.56630474
1.0039913e-05
-0.60538773
0.00028083227
-0.64734932
0.0004834389
-0.69232373
0.00058221498
-0.74044477
0.00058835965
-0.79187273
0.00052959536
-0.84679766
0.0004340733
-0.905446
0.00032501602
-0.96807308
0.00021980891
-1.0349664
0.00013013442
-1.1064482
6.2641234e-05
-1.182881
1.9697681e-05
-1.2646575
1.4852962e-07
-1.3522198
-0.011825007
-0.18749441
0.001413255
-0.19215815
0.01796946
-0.19673437
0.010103692
-0.19910496
-0.023211335
-0.19617909
-0.046993446
-0.18989576
-0.034036632
-0.17723353
0.0044136265
-0.19422758
0.042644577
-0.21803239
0.04766964
-0.24220201
0.027450048
-0.26397043
-0.0040696242
-0.28117998
-0.026168688
-0.29324941
-0.02692674
-0.30716455
-0.01622991
-0.32585723
-0.0043559986
-0.34962518
0.0021358814
-0.3765432
0.0034762662
-0.40486944
0.002290095
-0.43400759
0.00068013058
-0.46412029
-0.0002630966
-0.49579427
-0.00043222792
-0.52965824
-0.00020473471
-0.56608996
0.00015819769
-0.60526509
0.00046401077
-0.64732989
0.00064128278
-0.69238279
0.0006941762
-0.74055059
0.00065606212
-0.7919992
0.00056247924
-0.84692606
0.00044255719
-0.90556354
0.0003183393
-0.96817161
0.00020536299
-1.0350417
0.00011343589
-1.106499
4.7552767e-05
-1.1829089
8.6353799e-06
-1.264666
-5.5594807e-06
-1.3522142
-0.010379814
-0.18573807
0.004313582
-0.19039474
0.020906314
-0.195095
0.01137853
-0.19800921
-0.026453702
-0.1958626
-0.052535206
-0.19063733
-0.039186728
-0.18474566
0.0072338445
-0.18005375
0.05105061
-0.20263362
0.055608623
-0.22597138
0.032095179
-0.24684714
-0.0044410396
-0.26359901
-0.033159641
-0.27418903
-0.034189955
-0.28598619
-0.020668188
-0.30272628
-0.0050108485
-0.32520238
0.003730132
-0.35121943
0.0054827282
-0.37854966
0.0037336705
-0.40631302
0.0012641471
-0.43459161
-0.00033590524
-0.46404748
-0.00077210625
-0.49545439
-0.0005327283
-0.52933024
-6.223847e-05
-0.56586953
0.00038689618
-0.60518798
0.00067469823
-0.64736331
0.00079611719
-0.69248473
0.00079170758
-0.74068624
0.00070775717
-0.79214447
0.00058146044
-0.84706497
0.00044035253
-0.90568556
0.00030413898
-0.96827039
0.00018609348
-1.0351143
9.4048745e-05
-1.1065455
3.1308015e-05
-1.1829315
-2.6782104e-06
-1.2646689
-1.1240631e-05
-1.352203
-0.0087246324
-0.18436517
0.0073361051
-0.1887606
0.023858327
-0.19334675
0.012863563
-0.19658004
-0.029270507
-0.19519241
-0.05751022
-0.19088758
-0.043976679
-0.18584738
0.0062890049
-0.18380082
0.059326158
-0.1883293
0.06331999
-0.21034498
0.036302791
-0.23017899
-0.0059805013
-0.24530768
-0.041369152
-0.2553895
-0.043026774
-0.26535221
-0.025994906
-0.28065948
-0.0057286344
-0.30200849
0.0058944948
-0.32736674
0.0081851139
-0.35392182
0.0057311337
-0.38054713
0.0021388544
-0.40718772
-0.00038712412
-0.43454039
-0.0012558713
-0.46356371
-0.0010327326
-0.49495438
-0.00040843669
-0.52898405
0.00022378641
-0.56570642
0.00066921935
-0.6051825
0.00088892523
-0.64745612
0.00093470174
-0.69262773
0.0008693105
-0.74084779
0.00074178352
-0.7923048
0.00058671254
-0.84721133
0.00042831312
-0.90580973
0.0002834339
-0.96836773
0.00016297586
-1.0351833
7.2794813e-05
-1.106587
1.4444615e-05
-1.1829487
-1.3957857e-05
-1.2646662
-1.6786466e-05
-1.3521862
-0.0069120784
-0.18350346
0.010319589
-0.18734865
0.026690734
-0.191593
0.014455794
-0.19493898
-0.031666907
-0.19418364
-0.061888689
-0.19081394
-0.048329008
-0.18653525
0.0055599932
-0.18511836
0.06441357
-0.18888823
0.070551824
-0.19556113
0.039898229
-0.21394042
-0.0090448912
-0.2271146
-0.051194594
-0.23548223
-0.053830051
-0.24458623
-0.032043266
-0.25930385
-0.0064515408
-0.27993657
0.0087485427
-0.30486254
0.011707082
-0.33088871
0.0084170927
-0.35660778
0.0033879448
-0.38179622
-0.00040529389
-0.40716955
-0.0019214596
-0.4338748
-0.0017697508
-0.46282669
-0.00093358458
-0.49442924
-5.3343098e-05
-0.52870692
0.00060865637
-0.56564585
0.00096659015
-0.60526017
0.0010840824
-0.6476055
0.0010475081
-0.69280593
0.00092399399
-0.74103
0.00075810948
-0.79247619
0.00057920469
-0.84736222
0.00040765744
-0.90593395
0.00025740324
-0.96846216
0.00013702159
-1.0352475
5.0433182e-05
-1.106623
-2.4963519e-06
-1.1829601
-2.4963095e-05
-1.264658
-2.19734e-05
-1.3521642
-0.18324123
-0.0049891588
0.013131503
-0.18631538
0.029282568
-0.18994048
0.016072029
-0.19320924
-0.033623833
-0.19298206
-0.065608344
-0.19046398
-0.052195225
-0.18694772
0.0050588731
-0.18603413
0.069742419
-0.19044721
0.076927009
-0.19526342
0.042935981
-0.19859889
-0.012822974
-0.21016234
-0.061751497
-0.21655769
-0.065273374
-0.22403891
-0.038564444
-0.23806505
-0.0068349489
-0.25892044
0.012431512
-0.28361954
0.016186194
-0.30934165
0.01190622
-0.33437784
0.0051177801
-0.35833762
-0.00035699243
-0.38184452
-0.0028205855
-0.40627043
-0.002823502
-0.43282105
-0.0017122275
-0.46204805
-0.00047466777
-0.49400791
0.00047007405
-0.52856833
0.0010254559
-0.56570472
0.0012416659
-0.60541775
0.0012448849
-0.64780287
0.0011298207
-0.69301175
0.00095553093
-0.74122742
0.00075785881
-0.79265485
0.00056041079
-0.84751497
0.0003798128
-0.90605636
0.00022728118
-0.96855242
0.00010923048
-1.0353063
2.7639646e-05
-1.1066531
-1.9169671e-05
-1.1829659
-3.5418742e-05
-1.2646445
-2.6849178e-05
-1.3521373
-0.18577293
0.015663202
-0.18358778
-0.0029982279
0.031521984
-0.18855479
0.01766242
-0.19153088
-0.035092728
-0.19174034
-0.068613097
-0.1899773
-0.055492766
-0.18716644
0.0047665442
-0.18665539
0.075203379
-0.19149509
0.083743849
-0.19726405
0.048042768
-0.2003702
-0.016964391
-0.19445747
-0.071968639
-0.1999452
-0.07575466
-0.20607641
-0.044875867
-0.21772749
-0.0062396532
-0.23866034
0.017142597
-0.26363152
0.021742823
-0.28917617
0.016331958
-0.31376739
0.0074318522
-0.33669191
-0.00021833755
-0.35847627
-0.0040039018
-0.3806612
-0.0042934333
-0.4048005
-0.0028362921
-0.43169699
-0.001096025
-0.46142669
0.00023785632
-0.49377569
0.0010596114
-0.52860249
0.0014113606
-0.56587441
0.0014673778
-0.60564024
0.0013633235
-0.64803638
0.0011809805
-0.6932372
0.00096531132
-0.74143487
0.00074290645
-0.79283734
0.00053209571
-0.84766725
0.00034628448
-0.90617537
0.00019429685
-0.96863748
8.0460447e-05
-1.0353591
4.9928215e-06
-1.1066773
-3.5209181e-05
-1.1829661
-4.5276607e-05
-1.2646261
-3.1324478e-05
-1.352106
-0.18757681
0.033325865
-0.18575439
0.017829806
-0.18453953
-0.00099689828
0.019167375
-0.19005975
-0.036003777
-0.19061983
-0.070849334
-0.18950411
-0.058149209
-0.18732086
0.0046680831
-0.18706798
0.080601541
-0.19205355
0.090683161
-0.1984344
0.053725034
-0.20294632
-0.01701431
-0.20032028
-0.081755658
-0.18467045
-0.085257406
-0.19044245
-0.050847495
-0.20010478
-0.0045255074
-0.21944163
0.023237134
-0.24475488
0.028456309
-0.27034501
0.021794254
-0.29463847
0.010449276
-0.31678481
6.7665073e-05
-0.33697791
-0.0055396625
-0.35694051
-0.006294651
-0.37865998
-0.0044150071
-0.40322178
-0.0019889116
-0.4308041
-0.00010339996
-0.46108544
0.0010636951
-0.49377978
0.0016054491
-0.52879658
0.0017260013
-0.56613304
0.0016321255
-0.60590904
0.0014385279
-0.64829392
0.0012032165
-0.69347511
0.00095601371
-0.74164798
0.00071554795
-0.7930208
0.00049612703
-0.8478171
0.00030855856
-0.90628963
0.00015954291
-0.96871656
5.1489863e-05
-1.0354056
-1.7083481e-05
-1.1066954
-5.0419921e-05
-1.182961
-5.4398405e-05
-1.264603
-3.5389531e-05
-1.3520706
-0.18892938
0.02051995
-0.18709442
0.034665895
-0.18631054
0.019600808
-0.18599667
0.00093454158
-0.036304777
-0.18975875
-0.072291932
-0.18917723
-0.060146996
-0.18750632
0.004768589
-0.18742137
0.085733833
-0.19220027
0.097423662
-0.19879405
0.059679201
-0.20438857
-0.016538116
-0.20342251
-0.088744023
-0.19333192
-0.09387982
-0.17604804
-0.056543011
-0.18474693
-0.0026776274
-0.20195266
0.030920103
-0.2271246
0.036408287
-0.25270686
0.028371813
-0.27692257
0.014287755
-0.29847694
0.00054740321
-0.31726455
-0.0074843519
-0.33503322
-0.0089715352
-0.35426363
-0.006582572
-0.37649242
-0.0032360645
-0.40197463
-0.00058311947
-0.43032438
0.0010453616
-0.4610671
0.0018378008
-0.49401213
0.0020387962
-0.52910937
0.0019501193
-0.56645103
0.0017358209
-0.60620634
0.0014746662
-0.64856537
0.0012005908
-0.69371968
0.0009307791
-0.74186321
0.00067816901
-0.79320284
0.000454322
-0.84796286
0.00026799526
-0.90639808
0.00012400478
-0.96878908
2.2901772e-05
-1.0354456
-3.821502e-05
-1.1067076
-6.4641733e-05
-1.1829507
-6.2750647e-05
-1.2645757
-3.9069285e-05
-1.3520316
-0.18927442
-0.035959739
-0.18828744
0.021712972
-0.18724362
0.035598976
-0.18727581
0.020879946
-0.18787041
0.0027409057
-0.073001399
-0.18904928
-0.061484228
-0.18784
0.0049704376
-0.18770817
0.090421514
-0.19210905
0.10366175
-0.19843835
0.065737642
-0.2048525
-0.015966732
-0.20495996
-0.095386475
-0.19678006
-0.10383207
-0.18337967
-0.061824264
-0.17076678
-0.0011531084
-0.18627145
0.039518468
-0.21055103
0.045610252
-0.23632657
0.036132018
-0.26046706
0.019056192
-0.28169101
0.0013070031
-0.29923654
-0.0099285752
-0.31482033
-0.012485178
-0.33151958
-0.0094936934
-0.3513525
-0.0049348746
-0.37479361
-0.0012355288
-0.40132222
0.0010209232
-0.43029994
0.002128903
-0.46135821
0.0024328781
-0.49440621
0.0023369395
-0.52949619
0.0020847826
-0.56679999
0.0017849777
-0.60651665
0.0014779348
-0.64884272
0.0011776891
-0.6939666
0.00089280051
-0.74207784
0.00063304992
-0.79338157
0.00040834846
-0.84810321
0.00022579246
-0.90649987
8.8442395e-05
-0.96885462
-4.7974141e-06
-1.035479
-5.8199505e-05
-1.1067141
-7.7794641e-05
-1.1829357
-7.0349003e-05
-1.2645444
-4.2354856e-05
-1.3519892
-0.18932141
-0.072954408
-0.18934194
-0.034905242
-0.18814957
0.022618922
-0.18774649
0.036069653
-0.18864594
0.021655479
-0.19004605
0.0043550485
-0.06220278
-0.18833073
0.0050985579
-0.18796812
0.094475029
-0.19176168
0.10909996
-0.19754727
0.07154303
-0.20424374
-0.015070823
-0.2057484
-0.10170321
-0.19864323
-0.11342674
-0.18718539
-0.073004202
-0.17219973
0.00013007043
-0.17204996
0.048460052
-0.19521304
0.056045497
-0.22098627
0.044993828
-0.24518838
0.024879954
-0.26629083
0.0024261412
-0.28281014
-0.012921382
-0.29624374
-0.017014909
-0.3102906
-0.01333248
-0.3276808
-0.0071894858
-0.34909789
-0.0020939039
-0.37393523
0.0010071963
-0.40130849
0.0025129725
-0.43068401
0.0029451104
-0.46187044
0.0028225154
-0.49489179
0.0025040428
-0.52991545
0.0021425381
-0.56715755
0.0017902318
-0.60682895
0.0014555803
-0.64912061
0.0011390727
-0.69421287
0.00084502301
-0.74228982
0.00058223105
-0.79355545
0.00035964934
-0.84823707
0.00018294108
-0.90659437
5.3506019e-05
-0.96891292
-3.1330478e-05
-1.0355059
-7.6890025e-05
-1.106715
-8.986451e-05
-1.1829162
-7.7181782e-05
-1.2645096
-4.5277428e-05
-1.3519439
-0.18925988
-0.062264308
-0.19016748
-0.072128862
-0.18971255
-0.033342257
-0.18845582
0.023328252
-0.1886116
0.03603531
-0.19030391
0.021913336
-0.19240084
0.0056906106
0.0053591414
-0.18859131
0.097641027
-0.19113412
0.11355871
-0.19622043
0.076774932
-0.20277917
-0.014107838
-0.20520673
-0.1076979
-0.19975371
-0.1223022
-0.18976777
-0.083714842
-0.17647475
-0.0076389496
-0.16443071
0.057681905
-0.18127182
0.067394896
-0.20656244
0.054931042
-0.23092348
0.031697432
-0.25200586
0.0039968859
-0.26786157
-0.016550023
-0.2791815
-0.022769079
-0.29048957
-0.018293443
-0.30532963
-0.010116532
-0.32475375
-0.0031900332
-0.34800176
0.0010332911
-0.37396133
0.0030419671
-0.40183749
0.0036198913
-0.4313588
0.0034483871
-0.46249631
0.0030205283
-0.49540827
0.0025608182
-0.53033373
0.0021410055
-0.56750833
0.0017632976
-0.60713666
0.001414485
-0.64939602
0.0010887429
-0.69445659
0.00078998018
-0.74249757
0.00052744896
-0.79372325
0.00030943333
-0.84836356
0.0001402463
-0.90668111
1.9658268e-05
-0.96896391
-5.6440858e-05
-1.0355263
-9.423705e-05
-1.1067106
-0.00010084512
-1.1828925
-8.3306617e-05
-1.2644716
-4.7862128e-05
-1.3518961
-0.1896205
0.0057197614
-0.19075461
-0.06167718
-0.19132183
-0.070519586
-0.19052106
-0.031277019
-0.18900753
0.023724188
-0.18969673
0.035428125
-0.19211558
0.021628076
-0.19481603
0.0066476835
0.099804488
-0.19075477
0.11698655
-0.19456196
0.081152834
-0.20059833
-0.013134667
-0.20375234
-0.11323495
-0.19966968
-0.13055573
-0.19150017
-0.093814349
-0.17966826
-0.015722557
-0.16839114
0.059900691
-0.1666495
0.079267639
-0.19314456
0.065626463
-0.21725786
0.039185088
-0.23841114
0.0058897062
-0.25389868
-0.020963001
-0.26344859
-0.029938662
-0.27201192
-0.024614851
-0.28416816
-0.013840393
-0.30160577
-0.0045358796
-0.3234079
0.0011220494
-0.34809052
0.0037714379
-0.3746908
0.0045200289
-0.40273763
0.0042668594
-0.43217727
0.0036704937
-0.46314628
0.0030592899
-0.49590675
0.0025361846
-0.53072891
0.0020990508
-0.56784408
0.0017147265
-0.60743691
0.0013604049
-0.64966768
0.0010299499
-0.69469656
0.00072973908
-0.74269986
0.00047011853
-0.79388393
0.00025868123
-0.848482
9.8324904e-05
-0.90675977
-1.2820006e-05
-0.96900753
-8.0029837e-05
-1.0355405
-0.00011020512
-1.1067013
-0.00011078322
-1.182865
-8.8759076e-05
-1.2644307
-5.0126858e-05
-1.3518459
-0.19060269
0.10078668
-0.19086075
0.0058259061
-0.19263414
-0.060364869
-0.19275697
-0.068283668
-0.19142019
-0.028864359
-0.18967098
0.023698442
-0.19089804
0.034210582
-0.19395445
0.020766498
-0.19717982
0.0071180594
0.11910443
-0.19287265
0.084494968
-0.19790409
-0.012262844
-0.20147015
-0.11816231
-0.19882498
-0.13785771
-0.1923677
-0.10314477
-0.18216975
-0.023757248
-0.17163357
0.061562967
-0.17005342
0.088493588
-0.17587545
0.076259072
-0.20377717
0.046367415
-0.22444019
0.0078016768
-0.24032311
-0.026756758