/*--------------------------------*- C++ -*----------------------------------*\
| =========                 |                                                 |
| \\      /  F ield         | OpenFOAM: The Open Source CFD Toolbox           |
|  \\    /   O peration     | Version:  5.0                                   |
|   \\  /    A nd           | Web:      www.OpenFOAM.org                      |
|    \\/     M anipulation  |                                                 |
\*---------------------------------------------------------------------------*/
FoamFile
{
    version     2.0;
    format      ascii;
    class       surfaceScalarField;
    location    "100";
    object      phi_0;
}
// * * * * * * * * * * * * * * * * * * * * * * * * * * * * * * * * * * * * * //

dimensions      [0 3 -1 0 0 0 0];

internalField   nonuniform List<scalar> 
18820
(
-0.00020665058
-1.3539106
-0.00040821363
-1.2662097
-0.00021979482
-1.3536908
-0.0006110071
-1.1843126
-0.0004330579
-1.2659964
-0.00021347827
-1.3534773
-0.00081939193
-1.1078002
-0.00064568271
-1.1841
-0.00041995147
-1.2657899
-0.0002049413
-1.3532724
-0.0010362039
-1.0362963
-0.00086198953
-1.1075839
-0.00062517058
-1.1838948
-0.00040261086
-1.2655923
-0.00019087575
-1.3530815
-0.0012629378
-0.96944833
-0.0010849057
-1.0360733
-0.00083289285
-1.1073762
-0.000598094
-1.1836993
-0.00037452542
-1.2654086
-0.00017416489
-1.3529073
-0.0015002426
-0.90693692
-0.0013164495
-0.96921679
-0.0010456404
-1.0358606
-0.00079457422
-1.1071797
-0.00055493953
-1.1835189
-0.00034111894
-1.2652417
-0.00015648216
-1.3527508
-0.0017480848
-0.84846964
-0.0015584089
-0.90669496
-0.0012652416
-0.96899719
-0.00099429695
-1.0356609
-0.00073499601
-1.1069996
-0.00050400551
-1.183356
-0.00030600777
-1.2650921
-0.00013948567
-1.3526114
-0.0020062749
-0.79377739
-0.0018129315
-0.84821512
-0.0014931465
-0.90646705
-0.0011988546
-0.96879263
-0.000916509
-1.0354794
-0.00066508165
-1.1068385
-0.00045103717
-1.183211
-0.00027253734
-1.2649591
-0.00012404486
-1.3524873
-0.0022742389
-0.74261034
-0.0020830698
-0.79350725
-0.0017309362
-0.84797733
-0.0014093028
-0.9062566
-0.0011008134
-0.96860833
-0.00082544164
-1.035319
-0.00059296357
-1.1066966
-0.00040114004
-1.1830824
-0.00024240191
-1.2648407
-0.00011012902
-1.3523772
-0.0025534543
-0.69474043
-0.0023733886
-0.74232002
-0.001980559
-0.79325763
-0.0016263847
-0.84776024
-0.0012889344
-0.90606848
-0.00098577324
-0.96844799
-0.00073202941
-1.0351799
-0.00052588966
-1.1065719
-0.00035686075
-1.1829679
-0.00021545766
-1.2647354
-9.7112166e-05
-1.3522801
-0.0028470256
-0.64995321
-0.0026919065
-0.69442191
-0.0022450887
-0.74205549
-0.0018506087
-0.79303341
-0.0014815903
-0.84756759
-0.0011466939
-0.90590756
-0.00086774638
-0.96831228
-0.00064625351
-1.0350596
-0.00046755335
-1.1064612
-0.00031777886
-1.1828656
-0.00019037088
-1.2646421
-8.4253348e-05
-1.3521958
-0.003166752
-0.60804028
-0.0030493711
-0.64959574
-0.0025280213
-0.69413898
-0.0020825397
-0.74182356
-0.0016793114
-0.79283569
-0.0013090857
-0.8474052
-0.00099920134
-0.90577611
-0.00076048969
-0.96819804
-0.00057355783
-1.0349536
-0.00041730491
-1.1063616
-0.00028172462
-1.1827742
-0.00016563185
-1.2645608
-7.1082074e-05
-1.3521247
-0.0035222854
-0.56880029
-0.003458752
-0.6076309
-0.0028330499
-0.64929072
-0.0023207435
-0.69390077
-0.0018820121
-0.74162086
-0.0014744975
-0.79267027
-0.0011255749
-0.84727882
-0.00086575912
-0.90567084
-0.0006725042
-0.96809909
-0.00051330747
-1.0348576
-0.00037191755
-1.1062715
-0.00024632454
-1.1826935
-0.00014023216
-1.2644916
-5.7506068e-05
-1.3520672
-0.0039200155
-0.5320503
-0.0039223216
-0.56833672
-0.00315934
-0.60730461
-0.0025616868
-0.64904977
-0.0020882797
-0.69369451
-0.0016448099
-0.74145054
-0.0012465704
-0.79254928
-0.00095834696
-0.84718624
-0.00076045049
-0.90558289
-0.00060378803
-0.96800861
-0.00046098266
-1.0347685
-0.00032779661
-1.10619
-0.00020989587
-1.1826239
-0.00011389812
-1.2644352
-4.3795426e-05
-1.3520234
-0.0043599003
-0.49764603
-0.0044396431
-0.53153298
-0.0034982555
-0.5679978
-0.0027956025
-0.60707069
-0.0022967386
-0.64884131
-0.0018223231
-0.69351699
-0.0013629987
-0.74133412
-0.0010336881
-0.79247394
-0.00083176794
-0.84711492
-0.00068525885
-0.90550142
-0.00054809388
-0.9679215
-0.00041109435
-1.0346852
-0.00028220832
-1.1061177
-0.00017176022
-1.182566
-8.7210335e-05
-1.2643918
-3.0725823e-05
-1.3519927
-0.0048550237
-0.4654617
-0.0050019584
-0.49708371
-0.0038397463
-0.53119148
-0.0030085192
-0.56778489
-0.002502132
-0.6068653
-0.0020093892
-0.64865425
-0.0014785405
-0.69340145
-0.0010880788
-0.74127972
-0.00087903048
-0.79242667
-0.00075268564
-0.84704749
-0.00063157172
-0.90541794
-0.00049688855
-0.96783571
-0.00035896434
-1.0346084
-0.00023364971
-1.1060558
-0.00013257261
-1.1825207
-6.1659068e-05
-1.2643609
-1.9320502e-05
-1.3519734
-0.0053993543
-0.43534638
-0.00561518
-0.46484848
-0.0041627853
-0.49676067
-0.0031813727
-0.53101863
-0.0026961556
-0.56759086
-0.0022080082
-0.60666668
-0.0015983296
-0.64853446
-0.0011164252
-0.6933731
-0.00089489945
-0.74126386
-0.00079948254
-0.79237988
-0.00070853163
-0.84697053
-0.00058557754
-0.90532925
-0.00044220106
-0.96775247
-0.00030184842
-1.0345403
-0.00018245776
-1.1060059
-9.4537697e-05
-1.1824878
-3.8958068e-05
-1.2643412
-9.9212289e-06
-1.3519635
-0.006002405
-0.40713946
-0.0062758697
-0.43468569
-0.0044665923
-0.46454467
-0.0033080416
-0.496634
-0.002864987
-0.5308498
-0.0024217654
-0.5673771
-0.0017298308
-0.60653518
-0.0011164399
-0.64853444
-0.0008650781
-0.69340293
-0.00081437008
-0.74124897
-0.00077406809
-0.79231434
-0.0006770512
-0.84687906
-0.00053417665
-0.90523728
-0.00037905637
-0.96767526
-0.00023952799
-1.0344832
-0.00013159596
-1.1059688
-6.0334116e-05
-1.1824664
-1.9943909e-05
-1.2643312
-2.3840718e-06
-1.3519611
-0.0066723905
-0.38072455
-0.006980681
-0.40643464
-0.0047499124
-0.43440237
-0.0033924317
-0.46446028
-0.0030133464
-0.49648564
-0.002657447
-0.53061412
-0.0018826166
-0.56722432
-0.0010913582
-0.60656026
-0.00077318255
-0.64862634
-0.00078382759
-0.69343347
-0.00081830749
-0.74120473
-0.00077029575
-0.7922211
-0.00063775271
-0.84677548
-0.00046870923
-0.90514763
-0.0003066182
-0.96760817
-0.00017538814
-1.0344394
-8.5264216e-05
-1.1059439
-3.1245835e-05
-1.1824551
-4.5172396e-06
-1.2643291
3.7342409e-06
-1.3519648
-0.0074336749
-0.355951
-0.0077383488
-0.37996688
-0.0049786734
-0.40620588
-0.0034032556
-0.43439155
-0.0031438715
-0.46432976
-0.0029352466
-0.49620784
-0.0020834431
-0.53041329
-0.0010575585
-0.56725812
-0.00060311445
-0.60673033
-0.00068524561
-0.64872492
-0.00083793026
-0.69341385
-0.00086379092
-0.74111123
-0.00075691392
-0.79210194
-0.00057536033
-0.84666883
-0.0003871698
-0.90506707
-0.00022873417
-0.96755483
-0.00011587062
-1.0344088
-4.5166705e-05
-1.10593
-7.0541123e-06
-1.1824526
8.4522624e-06
-1.2643338
8.742025e-06
-1.3519736
-0.0082650758
-0.3327514
-0.0085324737
-0.35515688
-0.0051322219
-0.37981333
-0.0032828846
-0.40632625
-0.0032559899
-0.43427943
-0.0033063502
-0.46395865
-0.00235987
-0.49593142
-0.0010139266
-0.53045692
-0.0003420728
-0.56751916
-0.00049202497
-0.60692355
-0.00082235983
-0.64874049
-0.00095772064
-0.69331992
-0.0008985595
-0.74096959
-0.00070570668
-0.79197159
-0.00048560422
-0.8465704
-0.00029452773
-0.90500128
-0.00015443519
-0.96751626
-6.34964e-05
-1.0343905
-1.0952384e-05
-1.1059261
1.3801982e-05
-1.1824579
1.8986929e-05
-1.264344
1.296519e-05
-1.3519865
-0.0091629562
-0.31105326
-0.00938146
-0.33190241
-0.0051265821
-0.35516252
-0.0029969768
-0.38009924
-0.0033672788
-0.40621497
-0.0038311078
-0.43375467
-0.002751881
-0.46356664
-0.00097189367
-0.49597345
3.0650019e-05
-0.53082965
-0.00016258661
-0.5678486
-0.00074804123
-0.60699787
-0.0010600063
-0.64863821
-0.0010682294
-0.69315025
-0.000870362
-0.74080493
-0.00060812556
-0.79184907
-0.00037583955
-0.84648908
-0.00020310283
-0.90495261
-8.8136741e-05
-0.96749162
-1.7811041e-05
-1.0343836
1.9167575e-05
-1.1059315
3.1286295e-05
-1.1824702
2.8082834e-05
-1.2643592
1.6778535e-05
-1.3520033
-0.010037724
-0.29063431
-0.010263608
-0.31017111
-0.0050138303
-0.33201516
-0.0024906387
-0.35566886
-0.0034565485
-0.38000997
-0.0045870989
-0.40545897
-0.0033089954
-0.43319756
-0.00091284593
-0.46362569
0.00054164693
-0.49648445
0.00033700454
-0.53132924
-0.0005874982
-0.56800914
-0.0011739105
-0.60688396
-0.0012806588
-0.64842578
-0.0010817146
-0.69293889
-0.00076340067
-0.74064966
-0.00047604865
-0.79174886
-0.00026357178
-0.84642862
-0.00012067418
-0.90492007
-2.9329084e-05
-0.9674801
2.3107396e-05
-1.0343875
4.5116473e-05
-1.1059453
4.6475278e-05
-1.1824886
3.6238481e-05
-1.2643786
2.0130926e-05
-1.3520234
-0.010949108
-0.27035627
-0.011140581
-0.28975734
-0.0047182483
-0.31046669
-0.0017352022
-0.3327706
-0.0035677538
-0.35555765
-0.0056043129
-0.37899276
-0.004099812
-0.40466816
-0.00084581299
-0.43326459
0.0012395765
-0.46432362
0.001060417
-0.49720786
-0.00030602091
-0.53161071
-0.0013009406
-0.56788211
-0.0015629744
-0.60660165
-0.001356013
-0.64815148
-0.00096430332
-0.69273799
-0.00059876531
-0.74052694
-0.00033631729
-0.79167611
-0.00016179022
-0.8463875
-4.7156237e-05
-0.90490225
2.3823158e-05
-0.96748082
5.9171919e-05
-1.0344016
6.8140752e-05
-1.1059669
6.0363557e-05
-1.1825127
4.3490068e-05
-1.264402
2.3047046e-05
-1.3520465
-0.011582275
-0.25021878
-0.011704197
-0.26979265
-0.0043501154
-0.29012547
-0.00073823746
-0.31146366
-0.003606404
-0.33273195
-0.0069978958
-0.35416407
-0.0051971647
-0.3778954
-0.00078197234
-0.404732
0.0021755605
-0.43420057
0.002077049
-0.46534025
0.00013970587
-0.49765358
-0.0014416479
-0.53147001
-0.0019444757
-0.56750061
-0.0017249443
-0.60623271
-0.0012235534
-0.64789223
-0.00074874548
-0.69258801
-0.00042032359
-0.74044293
-0.00021029758
-0.7916276
-7.1882884e-05
-0.84636277
1.9534259e-05
-0.90489796
7.1619542e-05
-0.96749327
9.1900209e-05
-1.0344253
8.9517017e-05
-1.1059961
7.277291e-05
-1.182542
4.9688583e-05
-1.2644286
2.5241151e-05
-1.3520717
-0.011894689
-0.2312633
-0.011578475
-0.2503445
-0.0033031237
-0.27083965
0.00044477276
-0.29130848
-0.0036470608
-0.311423
-0.0087687522
-0.33096109
-0.0066815319
-0.3526797
-0.00077219908
-0.37790518
0.0034052366
-0.40596167
0.0034649249
-0.43558845
0.00080093238
-0.46600148
-0.0015913925
-0.49750384
-0.0024663653
-0.53094812
-0.0022302496
-0.5669953
-0.001559669
-0.6058966
-0.00093148842
-0.64770948
-0.00051084061
-0.69249749
-0.00026206946
-0.74039116
-0.00010215245
-0.79159733
8.952381e-06
-0.84635219
8.0289592e-05
-0.90490663
0.00011585832
-0.96751723
0.0001228112
-1.0344586
0.00010890223
-1.1060322
8.3513576e-05
-1.1825758
5.4480577e-05
-1.2644579
2.6522937e-05
-1.3520982
-0.012017285
-0.2137466
-0.010872165
-0.23196961
-0.0013260815
-0.25232154
0.0019863849
-0.27238126
-0.003536377
-0.29141916
-0.011052407
-0.30913934
-0.0086327233
-0.3290099
-0.000808783
-0.35264312
0.0049827369
-0.37948268
0.0053252785
-0.40782203
0.0017418731
-0.43652939
-0.0017503401
-0.46584253
-0.0031743587
-0.49679585
-0.0029254279
-0.53025294
-0.0020033708
-0.5665516
-0.0011477665
-0.60568032
-0.00060119462
-0.64761913
-0.00030826027
-0.6924513
-0.00013389285
-0.74035942
-8.1614639e-06
-0.79158022
8.2953274e-05
-0.84635485
0.00013737079
-0.90492814
0.00015837851
-0.96755279
0.00015139346
-1.0345011
0.00012598344
-1.1060747
9.2059091e-05
-1.1826134
5.7487668e-05
-1.2644888
2.6659877e-05
-1.3521249
-0.012017674
-0.19761702
-0.0097643771
-0.21485438
0.0011531286
-0.23444882
0.003842048
-0.2541772
-0.003427126
-0.27249051
-0.013556347
-0.28891522
-0.011151163
-0.3066209
-0.00098323906
-0.32883544
0.0069804501
-0.35464083
0.0077545507
-0.38191195
0.0030444156
-0.40912457
-0.0019113618
-0.43636837
-0.0041296585
-0.46488723
-0.0038784735
-0.4958428
-0.0025919624
-0.52966435
-0.0014006043
-0.56629876
-0.00067919037
-0.60560232
-0.00033386483
-0.64759352
-0.00015820111
-0.69242699
-2.922583e-05
-0.74033836
7.7648467e-05
-0.79157492
0.0001531136
-0.8463706
0.00019324552
-0.90496301
0.00019856124
-0.96759996
0.00017711709
-1.0345523
0.00014000764
-1.1061227
9.7812927e-05
-1.1826537
5.8326879e-05
-1.2645205
2.5585135e-05
-1.3521505
-0.011921025
-0.18269119
-0.00842976
-0.19895164
0.0038021407
-0.2175034
0.0054908367
-0.23609761
-0.0040565381
-0.25354779
-0.016391692
-0.26965516
-0.014337646
-0.28572874
-0.001236058
-0.30636809
0.009453136
-0.33130813
0.010864414
-0.35775069
0.0047951078
-0.38366264
-0.0020789525
-0.40895698
-0.0053994621
-0.43509856
-0.005175895
-0.46358981
-0.0033771612
-0.4950576
-0.0016946434
-0.52937031
-0.00072404443
-0.56625391
-0.00031684754
-0.60561934
-0.00016013993
-0.64759159
-4.9594488e-05
-0.69240662
6.2714819e-05
-0.74032342
0.00015907777
-0.79158088
0.00022322916
-0.84640058
0.0002474504
-0.9050119
0.00023559663
-0.96765844
0.00019893131
-1.0346112
0.00015014806
-1.106175
0.00010026966
-1.1826957
5.6832305e-05
-1.2645517
2.3347006e-05
-1.3521738
-0.013328496
-0.19846116
-0.0068948282
-0.18422612
0.0065032152
-0.20165271
0.0068046957
-0.21881725
-0.0058908291
-0.23426331
-0.020211022
-0.24972846
-0.018198337
-0.26579447
-0.001852514
-0.28511228
0.012507239
-0.30942219
0.014762016
-0.33520573
0.0070953729
-0.36005096
-0.0022337097
-0.38350789
-0.0070732657
-0.40728318
-0.0069194657
-0.43335499
-0.0044199661
-0.462547
-0.0020377397
-0.49471451
-0.00070757703
-0.52938678
-0.00022676089
-0.566344
-0.00011692684
-0.60566256
-6.0443037e-05
-0.64758074
3.7433034e-05
-0.69238134
0.00015024342
-0.74031459
0.00024275469
-0.79160041
0.0002936156
-0.84644674
0.00029876092
-0.90507506
0.00026801505
-0.96772752
0.00021567596
-1.0346767
0.00015570953
-1.1062304
9.9174326e-05
-1.182738
5.3005537e-05
-1.2645814
2.0066614e-05
-1.3521939
-0.014103242
-0.19626969
-0.0066622586
-0.19869373
0.009235797
-0.1869587
0.0080555159
-0.20290353
-0.0085150547
-0.21619303
-0.025198099
-0.22927624
-0.022085788
-0.24584101
-0.0027057923
-0.26494119
0.016199352
-0.2888044
0.019544201
-0.31420437
0.010042916
-0.33815328
-0.0023862675
-0.3598984
-0.0092447409
-0.38133641
-0.0092288775
-0.40497376
-0.0057992244
-0.43197573
-0.002436173
-0.46214857
-0.00059485828
-0.49482722
-1.714984e-05
-0.52959639
-1.06493e-06
-0.56645986
-4.9894717e-05
-0.6056731
1.5236376e-06
-0.64754483
0.00012001784
-0.69235112
0.0002442851
-0.74031612
0.00033069559
-0.79163749
0.00036240265
-0.84651039
0.00034515481
-0.9051522
0.00029418997
-0.96780604
0.00022639605
-1.0347474
0.00015632694
-1.1062876
9.4522544e-05
-1.1827795
4.7029072e-05
-1.2646084
1.5908061e-05
-1.3522098
-0.014300897
-0.1939898
-0.0056807938
-0.19725115
0.010619045
-0.20007698
0.0092114721
-0.18811466
-0.011388848
-0.20002974
-0.030510932
-0.2108802
-0.025683142
-0.22567888
-0.0029564243
-0.24559038
0.020735545
-0.26947739
0.025327543
-0.29458774
0.013724376
-0.31788583
-0.0025043232
-0.33803522
-0.012030513
-0.35711263
-0.012237406
-0.37832788
-0.007602714
-0.40317027
-0.0028991302
-0.43151278
-0.00033948417
-0.46240394
0.00036992944
-0.4952143
0.00023547086
-0.52983292
1.6842499e-06
-0.56651144
-4.3291292e-05
-0.60562829
6.0045553e-05
-0.64748486
0.00021762868
-0.69232446
0.00035000457
-0.74033543
0.00042055861
-0.79169564
0.00042686693
-0.8465921
0.00038430991
-0.90524232
0.00031276906
-0.96789241
0.00023056693
-1.0348216
0.00015198087
-1.106345
8.654675e-05
-1.1828191
3.9194567e-05
-1.2646316
1.1053341e-05
-1.3522209
-0.01398766
-0.19169646
-0.004047998
-0.19562259
0.012630692
-0.1992628
0.0092354652
-0.20010097
-0.014396408
-0.1851071
-0.035763597
-0.19477707
-0.028986873
-0.20757646
-0.0017272274
-0.22690808
0.026368333
-0.25122317
0.032227043
-0.27637689
0.018233513
-0.29909687
-0.002600062
-0.31779009
-0.015555211
-0.33451052
-0.016088021
-0.35326201
-0.0099338758
-0.37599672
-0.0034357893
-0.40263362
0.00011449106
-0.43196675
0.0010094672
-0.46304348
0.00065007996
-0.49562891
0.00012318145
-0.52995442
-9.3253615e-05
-0.56646148
-3.8037645e-05
-0.60553021
0.00014929483
-0.64741652
0.00033997885
-0.69231444
0.00046496823
-0.74037984
0.00050814249
-0.79177692
0.00048351319
-0.8466913
0.00041423577
-0.90534379
0.00032296
-0.9679848
0.00022811626
-1.0348978
0.00014295474
-1.1064014
7.5644861e-05
-1.1828555
2.9895452e-05
-1.2646505
5.6967074e-06
-1.3522266
-0.013232156
-0.18948165
-0.0018789812
-0.19386548
0.015107993
-0.19809989
0.0098414606
-0.1998688
-0.018363358
-0.19613403
-0.040768747
-0.18010195
-0.032132592
-0.19163136
0.00031636592
-0.20962006
0.033490025
-0.23402977
0.039825174
-0.2588213
0.023332388
-0.28147576
-0.0026420833
-0.29905485
-0.019962152
-0.31338315
-0.020930511
-0.32966803
-0.012899795
-0.35029609
-0.0040553793
-0.37537713
0.00083464365
-0.40335377
0.0019883744
-0.43294566
0.0013187391
-0.46371214
0.00035450529
-0.49586024
-0.00015304823
-0.52989463
-0.00018140456
-0.56631811
2.0865045e-05
-0.60540178
0.00028493391
-0.64736148
0.00048457642
-0.69233404
0.00058235679
-0.74045405
0.00058819971
-0.7918816
0.00052929508
-0.84680636
0.0004336718
-0.9054545
0.00032456197
-0.96808125
0.00021936695
-1.0349742
0.00012976034
-1.1064556
6.2361297e-05
-1.182888
1.9515404e-05
-1.2646643
5.8608144e-08
-1.3522266
-0.012107654
-0.18744499
0.00070161762
-0.19206225
0.017911709
-0.19666919
0.010879748
-0.19913818
-0.021875515
-0.19635664
-0.046845701
-0.19005707
-0.03500568
-0.17722886
0.0026532423
-0.19396823
0.041553431
-0.21768346
0.047762836
-0.24196743
0.02838874
-0.26387765
-0.0027476786
-0.28137017
-0.025460958
-0.29355605
-0.026900575
-0.30741309
-0.016615794
-0.32595203
-0.0047678896
-0.34958358
0.0019042914
-0.37644678
0.0034138234
-0.40477922
0.0023266573
-0.43395358
0.00074765258
-0.46410529
-0.00020923524
-0.49580405
-0.00039992401
-0.52967611
-0.0001889128
-0.56610833
0.000163279
-0.60528012
0.00046470985
-0.64734161
0.0006408546
-0.69239254
0.0006937376
-0.74055959
0.00065572973
-0.79200804
0.00056214501
-0.84693483
0.00044216396
-0.9055721
0.00031790714
-0.96817979
0.00020494627
-1.0350494
0.00011307997
-1.1065063
4.7276638e-05
-1.1829157
8.444483e-06
-1.2646727
-5.6681703e-06
-1.352221
-0.010691947
-0.18568797
0.0035586225
-0.190302
0.020883822
-0.19503436
0.012252298
-0.19804174
-0.024975396
-0.1960383
-0.052400217
-0.19080212
-0.040244917
-0.18481783
0.005218142
-0.17979376
0.049870434
-0.20228523
0.055827147
-0.22574777
0.03319985
-0.24677854
-0.0027998826
-0.26382544
-0.032255681
-0.27457544
-0.034165698
-0.28629092
-0.021185997
-0.30284289
-0.0055750247
-0.3251449
0.0034117259
-0.35109102
0.0053950298
-0.37842798
0.0037842681
-0.40623683
0.0013622451
-0.43456817
-0.00025459971
-0.46405992
-0.00072436146
-0.49547961
-0.00051009025
-0.52935493
-5.5860327e-05
-0.56588919
0.00038644849
-0.60520186
0.0006729209
-0.64737368
0.00079489678
-0.6924937
0.00079112772
-0.74069499
0.00070745627
-0.79215335
0.00058117357
-0.84707384
0.0004399914
-0.90569419
0.00030372719
-0.96827857
0.00018568759
-1.035122
9.3690168e-05
-1.1065527
3.1016843e-05
-1.1829383
-2.8919046e-06
-1.2646755
-1.1364945e-05
-1.3522096
-0.0090622095
-0.18431637
0.0065458236
-0.18867517
0.023874112
-0.19329229
0.013829993
-0.19661206
-0.027654391
-0.19536275
-0.057388597
-0.19104992
-0.045121302
-0.18592574
0.0040218344
-0.18362153
0.058086845
-0.18801017
0.063679965
-0.21013805
0.037628321
-0.23017625
-0.003964058
-0.24561437
-0.040208319
-0.25587281
-0.043024353
-0.26571679
-0.026678152
-0.28079877
-0.0064865227
-0.30193139
0.0054670945
-0.32720027
0.008065458
-0.35376145
0.0057996954
-0.38044341
0.0022788261
-0.40715341
-0.00026659401
-0.43455618
-0.0011848161
-0.46359947
-0.0010007764
-0.49498893
-0.00040050015
-0.52901029
0.00022099473
-0.56572374
0.00066483432
-0.60519377
0.00088603926
-0.64746482
0.00093344332
-0.69263602
0.00086892179
-0.74085645
0.00074163214
-0.79231381
0.00058649903
-0.84722035
0.00042797656
-0.90581843
0.0002830229
-0.9683759
0.00016255606
-1.0351909
7.240917e-05
-1.1065941
1.4118827e-05
-1.1829553
-1.420363e-05
-1.2646726
-1.6934289e-05
-1.3521927
-0.0072694572
-0.18345728
0.0095036239
-0.18727417
0.026744538
-0.1915456
0.015508581
-0.19497088
-0.029922706
-0.19434374
-0.061781529
-0.19096982
-0.049554712
-0.18661651
0.0030440718
-0.18494797
0.063044061
-0.18857874
0.071047263
-0.19537747
0.04147022
-0.21397995
-0.0066571342
-0.22748317
-0.049778724
-0.23604396
-0.05388369
-0.24501347
-0.032941019
-0.25945392
-0.0074508321
-0.27983446
0.0081867618
-0.30465105
0.011548941
-0.33068375
0.0085079104
-0.35646966
0.0035829845
-0.38174757
-0.0002302066
-0.40718979
-0.0018160838
-0.43392491
-0.0017245063
-0.46287574
-0.00092458969
-0.49446484
-5.9918703e-05
-0.52872937
0.00059950262
-0.56565841
0.00096055588
-0.60526829
0.0010813816
-0.64761276
0.0010467672
-0.69281386
0.00092397686
-0.7410388
0.00075813707
-0.79248545
0.00057904535
-0.84737142
0.00040731501
-0.90594273
0.00025696144
-0.96847031
0.00013655741
-1.035255
4.9996796e-05
-1.10663
-2.8725433e-06
-1.1829666
-2.5252347e-05
-1.2646643
-2.214675e-05
-1.3521705
-0.18319846
-0.005359566
0.01230171
-0.18625537
0.029370855
-0.18990049
0.017201756
-0.19323877
-0.031765331
-0.19312825
-0.065518477
-0.19060679
-0.053495632
-0.1870289
0.0023002749
-0.18587271
0.068231953
-0.19013587
0.077448765
-0.19498024
0.044746148
-0.1986534
-0.010090662
-0.21054642
-0.060167025
-0.21709487
-0.06546444
-0.22446321
-0.039752732
-0.23820176
-0.008124864
-0.25877989
0.01170857
-0.28335627
0.015982983
-0.3090851
0.012023563
-0.3341994
0.0053829314
-0.35826961
-0.00010816623
-0.38186961
-0.0026660163
-0.40633986
-0.0027590033
-0.43289041
-0.0017028412
-0.46209749
-0.00048770467
-0.49403705
0.00045308386
-0.52858295
0.0010139677
-0.56571182
0.0012362357
-0.60542314
0.0012432963
-0.64780929
0.0011298821
-0.69301977
0.00095591921
-0.74123658
0.00075802496
-0.79266443
0.00056025459
-0.84752436
0.0003794198
-0.90606518
0.00022677051
-0.96856052
0.00010869216
-1.0353137
2.7131493e-05
-1.10666
-1.9608791e-05
-1.1829723
-3.575595e-05
-1.2646507
-2.7046368e-05
-1.3521435
-0.18573012
0.014833375
-0.18354974
-0.0033728106
0.031638988
-0.1885235
0.01885553
-0.19155426
-0.033136226
-0.19186788
-0.068545615
-0.19010111
-0.056857751
-0.18724468
0.0017769751
-0.1865056
0.073552573
-0.19119333
0.084284778
-0.19697188
0.049996125
-0.20023022
-0.013906716
-0.19483734
-0.070287575
-0.20042587
-0.076108919
-0.20645039
-0.046388353
-0.21782759
-0.007870038
-0.23845658
0.016238916
-0.26331023
0.021489801
-0.28886309
0.01647993
-0.31354146
0.0077841214
-0.33660059
0.00013092982
-0.3585087
-0.0037800919
-0.38075553
-0.0042015185
-0.40489735
-0.00282728
-0.43176597
-0.00112023
-0.46146496
0.00020912107
-0.49379309
0.0010388767
-0.52860786
0.0014012008
-0.56587678
0.0014641377
-0.60564398
0.0013633226
-0.64804273
0.0011818817
-0.69324573
0.00096602223
-0.74144458
0.0007431211
-0.79284729
0.00053187297
-0.84767681
0.00034578997
-0.9061842
0.00019367965
-0.96864551
7.9821549e-05
-1.0353664
4.3978015e-06
-1.106684
-3.5720111e-05
-1.1829723
-4.5662081e-05
-1.2646321
-3.1546877e-05
-1.3521119
-0.1875557
0.033464563
-0.18572987
0.017013509
-0.18450709
-0.0013670755
0.020405799
-0.19007377
-0.033970923
-0.19071956
-0.070809828
-0.18960367
-0.059567929
-0.18739094
0.0014648054
-0.18693251
0.078819082
-0.19177211
0.091240329
-0.19814888
0.055828029
-0.20280378
-0.013637332
-0.20049961
-0.080012157
-0.18511276
-0.085747944
-0.19078685
-0.052652573
-0.20018617
-0.0065368921
-0.21916074
0.022148885
-0.24436655
0.028151507
-0.26997194
0.021976293
-0.29435945
0.010907205
-0.31666455
0.00054664712
-0.33701631
-0.0052216968
-0.3570671
-0.0061640999
-0.37879295
-0.0044074949
-0.40331713
-0.0020309945
-0.43085521
-0.000150033
-0.46110581
0.0010285841
-0.49378279
0.0015875441
-0.52879421
0.0017197472
-0.56613239
0.001631764
-0.60591243
0.0014401312
-0.64830098
0.0012047957
-0.6934845
0.00095688525
-0.74165834
0.00071569544
-0.79303111
0.00049576245
-0.84782679
0.00030791312
-0.90629844
0.00015878619
-0.96872448
5.0730478e-05
-1.0354127
-1.7778969e-05
-1.1067019
-5.1004608e-05
-1.182967
-5.4833011e-05
-1.2646088
-3.5633312e-05
-1.3520763
-0.18893267
0.021782776
-0.1870826
0.034817292
-0.18630294
0.018809359
-0.18597137
0.00057769513
-0.034217055
-0.18982764
-0.072278504
-0.18925088
-0.061605479
-0.18756612
0.0013762604
-0.18730239
0.083836272
-0.19194969
0.097990017
-0.19852179
0.061934383
-0.20425524
-0.012838938
-0.20360218
-0.086776884
-0.19373488
-0.094489591
-0.17637112
-0.058594856
-0.18484457
-0.0050830892
-0.20163997
0.02965204
-0.22666389
0.036056411
-0.25227146
0.028589505
-0.27658515
0.01486934
-0.29832159
0.001193006
-0.3173109
-0.007038481
-0.33519953
-0.0087879562
-0.35444324
-0.0065780489
-0.3766224
-0.003305212
-0.40204291
-0.00065720936
-0.43034803
0.00098940857
-0.46106663
0.0018076465
-0.4940029
0.0020277653
-0.52910223
0.0019490055
-0.56644963
0.0017383908
-0.60621069
0.0014775898
-0.64857377
0.001202564
-0.69373018
0.0009316153
-0.74187426
0.00067812949
-0.79321348
0.00045374528
-0.84797262
0.000267157
-0.90640681
0.00012308462
-0.96879683
2.2010111e-05
-1.0354525
-3.9012294e-05
-1.1067139
-6.5298786e-05
-1.1829565
-6.322855e-05
-1.2645812
-3.9331244e-05
-1.352037
-0.18930923
-0.033840502
-0.18827794
0.022978112
-0.1872433
0.035757647
-0.18728539
0.020123383
-0.18785183
0.0024057493
-0.073003201
-0.18910294
-0.062960314
-0.18789605
0.0014208623
-0.18761072
0.088432901
-0.19189902
0.10423187
-0.19819154
0.068132235
-0.20471965
-0.011949215
-0.20514496
-0.093184873
-0.19719419
-0.10435664
-0.18386782
-0.064099737
-0.17086623
-0.0039693622
-0.18595829
0.038039313
-0.21002724
0.045225325
-0.23583281
0.036383643
-0.26006559
0.019778538
-0.28149435
0.002159553
-0.29928813
-0.0093137422
-0.31503564
-0.012229583
-0.3317579
-0.0094948976
-0.35152639
-0.0050437102
-0.3748839
-0.0013501875
-0.40134994
0.00093537829
-0.430294
0.0020805823
-0.46133957
0.0024145459
-0.49438968
0.0023344342
-0.52948765
0.0020887204
-0.56679996
0.0017899634
-0.60652306
0.0014816915
-0.6488529
0.0011797207
-0.69397829
0.00089340432
-0.74208954
0.0006327156
-0.79339245
0.00040750255
-0.84811296
0.00022473122
-0.90650846
8.7345407e-05
-0.96886216
-5.8261477e-06
-1.0354857
-5.9095023e-05
-1.1067201
-7.8517182e-05
-1.1829412
-7.086445e-05
-1.2645497
-4.2631566e-05
-1.3519943
-0.18935213
-0.0729603
-0.18933892
-0.032779517
-0.18813374
0.023868559
-0.18775408
0.036226339
-0.18867168
0.020943229
-0.19003341
0.0040488091
-0.063691662
-0.18837159
0.001426799
-0.18790199
0.092417571
-0.19159539
0.10966994
-0.1973371
0.074062733
-0.20412204
-0.010732964
-0.2059359
-0.099285772
-0.19904406
-0.11387771
-0.18767313
-0.075309628
-0.17265793
-0.0030891738
-0.17174642
0.046730208
-0.19464919
0.055630054
-0.22043197
0.045276922
-0.24472609
0.025759023
-0.26604608
0.0035324451
-0.28286724
-0.012083779
-0.2965181
-0.016664385
-0.31060084
-0.013343107
-0.32790969
-0.0073549964
-0.34921511
-0.0022669813
-0.37396711
0.00087985744
-0.40129442
0.0024393427
-0.43065276
0.0029157737
-0.46184079
0.0028177305
-0.49487297
0.0025098561
-0.52990879
0.0021506287
-0.56716063
0.0017967848
-0.60683815
0.001459594
-0.64913277
0.0011408297
-0.69422571
0.00084522141
-0.74230204
0.00058151725
-0.79356647
0.00035849522
-0.84824673
0.00018164078
-0.90660275
5.223016e-05
-0.96892022
-3.2487678e-05
-1.0355123
-7.7875011e-05
-1.1067207
-9.0643601e-05
-1.1829215
-7.7727437e-05
-1.2645146
-4.5564159e-05
-1.3519488
-0.18928368
-0.063760113
-0.19017432
-0.072124906
-0.18967199
-0.031241273
-0.18843072
0.024545199
-0.18862853
0.036183186
-0.19034466
0.021254475
-0.19239347
0.0054189807
0.0016052629
-0.18855006
0.095530608
-0.19101502
0.11412833
-0.19605378
0.079399277
-0.20267364
-0.009463145
-0.20539186
-0.10507557
-0.2001461
-0.12268274
-0.19023902
-0.086043007
-0.17693975
-0.011245522
-0.16450159
0.055659124
-0.18067534
0.066936167
-0.2059553
0.055261513
-0.23041657
0.032753536
-0.2517206
0.005410778
-0.26792441
-0.015426006
-0.27952501
-0.022295405
-0.29088708
-0.018319135
-0.30562481
-0.010361984
-0.3249027
-0.0034436829
-0.34803841
0.00084893616
-0.37393618
0.0029341187
-0.40178919
0.0035746761
-0.43131166
0.0034402194
-0.46246328
0.0030289329
-0.49539205
0.0025735057
-0.53033167
0.0021518635
-0.56751571
0.0017704669
-0.60714903
0.0014181921
-0.64941013
0.0010899371
-0.69447043
0.00078964022
-0.74251017
0.00052630044
-0.79373427
0.00030795161
-0.84837304
0.00013870492
-0.90668923
1.8214344e-05
-0.96897092
-5.7716684e-05
-1.0355325
-9.5299496e-05
-1.1067161
-0.00010166987
-1.1828975
-8.3873552e-05
-1.2644763
-4.8154925e-05
-1.3519006
-0.18961706
0.0019386456
-0.19077284
-0.063161587
-0.19130059
-0.070496304
-0.19044969
-0.029222308
-0.18897659
0.024893259
-0.18972365
0.035562181
-0.19216954
0.021030542
-0.19481361
0.0064146132
0.097676373
-0.19069582
0.11755659
-0.19444328
0.083861509
-0.20051601
-0.0082113143
-0.20392547
-0.11043252
-0.20003491
-0.13087897
-0.19194988
-0.096158387
-0.18012364
-0.019665597
-0.16851967
0.057363003
-0.16620546
0.078789624
-0.1925288
0.066055228
-0.21674901
0.040469144
-0.23813217
0.0076833725
-0.25399319
-0.019461609
-0.26388881
-0.029308382
-0.27251204
-0.024663193
-0.28454302
-0.014195057
-0.30179174
-0.0048986337
-0.32344775
0.0008611258
-0.3480506
0.0036185811
-0.37462065
0.0044532378
-0.40266775
0.0042536819
-0.43212512
0.003682457
-0.46311681
0.0030786343
-0.49589718
0.002553496
-0.5307333
0.0021110978
-0.56785634
0.0017215885
-0.60745242
0.0013633192
-0.64968352
0.0010303643
-0.69471115
0.00072877482
-0.74271264
0.00046851027
-0.79389483
0.00025687198
-0.8484912
9.6554317e-05
-0.90676757
-1.4423749e-05
-0.96901421
-8.1408129e-05
-1.0355463
-0.00011133117
-1.1067064
-0.00011164096
-1.1828697
-8.9338969e-05
-1.2644351
-5.0421484e-05
-1.3518502
-0.19060392
0.098663234
-0.19091456
0.0020803689
-0.19264013
-0.061822048
-0.19271133
-0.068234661
-0.1913236
-0.026875291
-0.18963774
0.024807353
-0.19093382
0.034326462
-0.19401956
0.020236493
-0.19718236
0.0069255887
0.11967699
-0.19281622
0.087267642
-0.19784942
-0.0071069454
-0.20162038
-0.11520183
-0.19915617
-0.13813567
-0.19277821
-0.10550397
-0.18260429
-0.027986802
-0.17180244
0.058450799
-0.16960747
0.087810126
-0.17522597
0.076833501
-0.20330707
0.047928133
-0.224208
0.010025078
-0.24047388
-0.024752151
-0.24870265
-0.038044822