/*--------------------------------*- C++ -*----------------------------------*\
| =========                 |                                                 |
| \\      /  F ield         | OpenFOAM: The Open Source CFD Toolbox           |
|  \\    /   O peration     | Version:  5.0                                   |
|   \\  /    A nd           | Web:      www.OpenFOAM.org                      |
|    \\/     M anipulation  |                                                 |
\*---------------------------------------------------------------------------*/
FoamFile
{
    version     2.0;
    format      ascii;
    class       volScalarField;
    location    "100";
    object      pMean;
}
// * * * * * * * * * * * * * * * * * * * * * * * * * * * * * * * * * * * * * //

dimensions      [0 2 -2 0 0 0 0];

internalField   nonuniform List<scalar> 
9520
(
-9.0986257e-05
-8.8995723e-05
-0.00016803568
-8.5445672e-05
-0.00016286074
-0.00027711103
-8.0796044e-05
-0.00015358846
-0.00026881403
-0.00037724751
-7.534003e-05
-0.00014121427
-0.00025372319
-0.00036567242
-0.00049003763
-6.9384995e-05
-0.00012656189
-0.00023344342
-0.00034480719
-0.00047522344
-0.00060625109
-6.3142061e-05
-0.00011044419
-0.0002093126
-0.00031675676
-0.00044845374
-0.0005882703
-0.00073041626
-5.6875678e-05
-9.3492874e-05
-0.00018260551
-0.00028336475
-0.00041235769
-0.00055570332
-0.00070926685
-0.00086114098
-5.0688201e-05
-7.6221525e-05
-0.00015440869
-0.00024635134
-0.00036922532
-0.00051162217
-0.0006708692
-0.00083702999
-0.00099955536
-4.4811168e-05
-5.9034856e-05
-0.0001258512
-0.00020715663
-0.00032118855
-0.00045868179
-0.00061869915
-0.00079308087
-0.00097265475
-0.0011454519
-3.8947634e-05
-4.2720013e-05
-9.7560513e-05
-0.00016704812
-0.00027008482
-0.00039937188
-0.00055574249
-0.00073304392
-0.00092343003
-0.0011161012
-0.0012989685
-3.4163228e-05
-2.7144713e-05
-7.0193819e-05
-0.00012704125
-0.00021757914
-0.00033588587
-0.00048480566
-0.00066014482
-0.00085582253
-0.0010621389
-0.0012675448
-0.0014596806
-2.8574039e-05
-1.3078438e-05
-4.392201e-05
-8.8286616e-05
-0.00016505669
-0.00027028347
-0.00040840395
-0.00057743793
-0.0007731951
-0.00098755168
-0.001209483
-0.0014267081
-0.0016271732
-2.5637425e-05
9.9841203e-07
-1.993763e-05
-5.1178816e-05
-0.00011384057
-0.00020428644
-0.00032892568
-0.00048773103
-0.00067875053
-0.00089570366
-0.0011286778
-0.0013654395
-0.0015932398
-0.001800606
-1.9386525e-05
1.1598115e-05
3.098947e-06
-1.6860756e-05
-6.4657523e-05
-0.00013948284
-0.00024841282
-0.00039368441
-0.00057549167
-0.00078983424
-0.001028352
-0.001279505
-0.0015297905
-0.0017664434
-0.0019791683
-1.8650071e-05
2.4325413e-05
2.1926368e-05
1.5651365e-05
-1.8906246e-05
-7.6908801e-05
-0.00016873255
-0.00029765673
-0.00046631451
-0.00067304305
-0.00091164234
-0.0011718143
-0.0014400287
-0.0017020856
-0.001945573
-0.0021616765
-1.1681645e-05
3.0734251e-05
4.2116699e-05
4.3292399e-05
2.4148057e-05
-1.8122444e-05
-9.1300748e-05
-0.00020183688
-0.00035387415
-0.00054840108
-0.0007816306
-0.0010452446
-0.0013263795
-0.0016101228
-0.0018817077
-0.0021295344
-0.0023471176
-1.1783634e-05
4.3760168e-05
5.4809816e-05
7.1360581e-05
6.1776669e-05
3.7294496e-05
-1.7909076e-05
-0.00010798872
-0.00024070764
-0.00041882734
-0.00064148003
-0.00090273608
-0.0011912997
-0.0014923218
-0.0017893758
-0.0020677696
-0.0023173008
-0.0025340218
-4.4404029e-06
4.701723e-05
7.3349282e-05
9.1280835e-05
9.8695175e-05
8.666402e-05
5.155846e-05
-1.8063498e-05
-0.00012889642
-0.00028721392
-0.0004943308
-0.00074742731
-0.0010374336
-0.0013505424
-0.001669531
-0.0019772192
-0.0022593075
-0.00250748
-0.0027211161
-3.9271348e-06
5.8651029e-05
8.0297511e-05
0.00011604351
0.00012644273
0.00013410204
0.0001144124
6.7682806e-05
-2.0595823e-05
-0.00015597136
-0.00034337634
-0.00058260147
-0.00086776371
-0.0011869549
-0.0015232596
-0.0018578254
-0.0021728385
-0.0024550566
-0.0026988816
-0.0029068342
3.8132987e-06
5.8290548e-05
9.6660782e-05
0.00012781424
0.00015747595
0.00017131481
0.00017402729
0.00014638027
8.3446808e-05
-2.7517192e-05
-0.00019133093
-0.00041167165
-0.00068558751
-0.0010042423
-0.00135207
-0.0017097259
-0.002056667
-0.0023751651
-0.0026538371
-0.0028899306
-0.0030899943
7.6923638e-06
6.6686494e-05
9.986823e-05
0.00014805033
0.00017396093
0.0002102594
0.00022236728
0.00022091939
0.00018017184
9.6867935e-05
-4.1051953e-05
-0.00023767883
-0.0004944251
-0.00080556313
-0.0011581534
-0.0015335818
-0.001909789
-0.0022652655
-0.0025830727
-0.0028541281
-0.0030793772
-0.0032691059
1.5969357e-05
6.463137e-05
0.0001124807
0.00015350932
0.00019831134
0.00023335325
0.00027154023
0.00028361091
0.00027205653
0.00021399978
0.00010562287
-6.3945658e-05
-0.00029768411
-0.00059447043
-0.00094438353
-0.0013309185
-0.0017318282
-0.0021230661
-0.002482639
-0.0027951406
-0.0030546153
-0.003265639
-0.0034430246
2.5617641e-05
6.799933e-05
0.00011450253
0.00016810608
0.00020511535
0.00026389116
0.00030392114
0.00034633778
0.00035187525
0.00032573412
0.00024537622
0.00010713533
-9.9098479e-05
-0.00037467373
-0.00071423018
-0.0011041407
-0.0015234497
-0.0019469825
-0.0023488304
-0.0027075275
-0.003010007
-0.003253657
-0.0034475235
-0.0036104553
3.3173824e-05
6.4642625e-05
0.0001207564
0.00016975881
0.00022211684
0.00027441311
0.00034304491
0.00039140513
0.00043105624
0.00042523935
0.00037932483
0.00027202661
9.8388023e-05
-0.00015015642
-0.00047157678
-0.00085648803
-0.0012864007
-0.0017365983
-0.0021786843
-0.0025860839
-0.0029386035
-0.0032259871
-0.0034499417
-0.0036236333
-0.0037704232
4.8157977e-05
6.040047e-05
0.00012308907
0.00017668977
0.00022217693
0.00029479462
0.00036031572
0.00044259303
0.00049166741
0.00052305609
0.000500826
0.00043099879
0.00029085178
7.5533845e-05
-0.00022064631
-0.00059185839
-0.0010235159
-0.0014927781
-0.0019705265
-0.0024263638
-0.0028336343
-0.0031741838
-0.0034416071
-0.0036418811
-0.0037929012
-0.0039219259
5.6552296e-05
5.9629387e-05
0.00012089018
0.00017653851
0.00022809598
0.00029454445
0.00038683062
0.00047078728
0.00055808427
0.00060138192
0.00061930519
0.00057746684
0.00047783743
0.00029807205
3.45347e-05
-0.0003146551
-0.00073854436
-0.0012177324
-0.0017241415
-0.0022252361
-0.0026890514
-0.0030898954
-0.0034126627
-0.0036551081
-0.0038282462
-0.0039542029
-0.0040641943
7.001244e-05
5.1284122e-05
0.00012283203
0.00017124167
0.00022376426
0.00030002228
0.00039008757
0.0005082055
0.00060012187
0.00068481903
0.0007170082
0.00071959604
0.00065262721
0.00051621679
0.00028924695
-2.9234085e-05
-0.00043592336
-0.00091485895
-0.0014408749
-0.0019811816
-0.0025001493
-0.0029654385
-0.003353201
-0.003652117
-0.0038650347
-0.0040076637
-0.0041066565
-0.0041965576
7.9162176e-05
5.3225942e-05
0.00011582476
0.00016941432
0.00021588768
0.00029038883
0.00039841067
0.0005203455
0.0006514379
0.00074212001
0.0008187769
0.00083961317
0.00082211732
0.00072309884
0.00054140211
0.00025921015
-0.0001203913
-0.00058856814
-0.0011235182
-0.0016944334
-0.0022639106
-0.0027944003
-0.0032538826
-0.0036215318
-0.0038908289
-0.0040697064
-0.0041790767
-0.0042494603
-0.0043185055
9.6454914e-05
4.523472e-05
0.00011670809
0.00015631539
0.00020458601
0.00027517586
0.00038813746
0.00053814603
0.00067561938
0.00080845805
0.00089150019
0.00096235984
0.00096890883
0.00092433742
0.00078398143
0.00054780246
0.00020250066
-0.00024383391
-0.00077622467
-0.0013669779
-0.0019792295
-0.0025720732
-0.0031065417
-0.0035524063
-0.0038929156
-0.0041268016
-0.0042677936
-0.0043414137
-0.0043819853
-0.0044296713
0.00011598621
4.2839235e-05
0.00010820119
0.00014844899
0.00018130892
0.00025164182
0.00036959419
0.0005347179
0.00070555883
0.00084541543
0.00097206625
0.001052624
0.001116867
0.0011030376
0.0010212262
0.00082918986
0.00052916
0.00011354257
-0.00040400391
-0.0010023965
-0.0016469762
-0.0022957628
-0.0029046518
-0.0034347929
-0.0038588416
-0.0041650787
-0.0043583576
-0.0044578454
-0.0044938295
-0.0045037491
-0.0045298299
0.00014098458
3.4769853e-05
0.00010253514
0.00012850844
0.0001643667
0.00021674123
0.00034078898
0.00052246199
0.00071061782
0.00088785283
0.0010192572
0.0011491946
0.001229483
0.0012817781
0.0012369517
0.0011063999
0.00085175434
0.00047919443
-1.3039534e-05
-0.00060553504
-0.0012699127
-0.0019649729
-0.0026437252
-0.0032602564
-0.0037769352
-0.0041707096
-0.0044359303
-0.0045836128
-0.0046387401
-0.0046355964
-0.00461441
-0.0046188872
0.00017081765
2.630362e-05
9.2772037e-05
0.00011148817
0.00013404057
0.00018810763
0.00029877528
0.00049736546
0.00070572863
0.00090137433
0.0010697606
0.001206888
0.0013475778
0.0014223935
0.0014519808
0.0013636634
0.0011720615
0.00084479545
0.00039160677
-0.00018274862
-0.00085242198
-0.0015813315
-0.002321562
-0.0030223239
-0.0036368242
-0.0041304008
-0.0044855138
-0.0047031357
-0.0048010509
-0.0048093548
-0.0047661578
-0.0047137656
-0.0046968853
0.0002016888
1.5538993e-05
8.1260209e-05
8.8441304e-05
0.0001082433
0.00014255645
0.00026415668
0.00045057958
0.00068395566
0.00090462626
0.0010866337
0.0012652573
0.0014216759
0.0015682881
0.0016279491
0.0016199582
0.0014745384
0.0012108062
0.00080133921
0.00026013217
-0.00040065291
-0.0011484876
-0.0019383657
-0.0027168789
-0.0034299559
-0.0040318827
-0.0044923699
-0.0048005021
-0.0049646925
-0.0050090594
-0.0049688343
-0.0048851044
-0.0048017511
-0.0047639717
0.00023491429
-1.1055996e-06
6.9510882e-05
6.4671819e-05
7.3238881e-05
0.0001044529
0.00020733224
0.00040956056
0.00062981244
0.0008845928
0.0010884592
0.0012823379
0.0014949592
0.0016651135
0.0018096073
0.0018372609
0.0017763466
0.0015615018
0.0012149582
0.00071447596
7.8806539e-05
-0.00067199693
-0.0014967079
-0.0023423337
-0.0031500336
-0.0038644485
-0.0044424407
-0.0048597231
-0.005113089
-0.0052184156
-0.0052063822
-0.0051164332
-0.004992183
-0.0048784344
-0.0048204019
0.00026548291
-1.6581745e-05
5.5169364e-05
3.8723355e-05
3.7864395e-05
5.2317734e-05
0.00015688668
0.00033928806
0.00057617038
0.00082552364
0.0010574826
0.0012798104
0.0015209798
0.0017601193
0.0019380287
0.0020616928
0.002039662
0.0019124829
0.001616533
0.0011772362
0.00057711044
-0.00015872089
-0.0010012256
-0.0018997319
-0.0027933781
-0.0036194946
-0.0043229066
-0.0048651334
-0.0052292942
-0.0054205009
-0.0054625492
-0.0053917956
-0.0052516168
-0.0050872882
-0.0049439882
-0.0048665064
0.00029553533
-3.2798891e-05
4.2025975e-05
6.6889687e-06
9.2785617e-07
-1.9069119e-06
8.3959278e-05
0.00027491774
0.00048965257
0.00075979902
0.00098448996
0.0012345693
0.0015223825
0.0017994745
0.0020651986
0.0022289842
0.0023106669
0.0022258421
0.002019819
0.0016322115
0.001090107
0.00038204304
-0.00045858823
-0.001392619
-0.0023591524
-0.0032909789
-0.0041227569
-0.0048018922
-0.0052962867
-0.0055977155
-0.0057203192
-0.0056952417
-0.0055643944
-0.005374005
-0.0051704557
-0.0049986964
-0.004902683
0.00032378758
-4.8876074e-05
2.6362114e-05
-2.4981612e-05
-4.1770412e-05
-5.6345062e-05
6.4374159e-06
0.00017625667
0.00040687599
0.00065213995
0.00089272736
0.0011434514
0.0014699715
0.0018100779
0.0021306979
0.0023972573
0.0025214379
0.0025474415
0.0023868465
0.0020908114
0.0016007692
0.00094531702
0.00012187114
-0.00082671538
-0.0018493148
-0.0028757668
-0.0038333754
-0.0046566069
-0.0052974066
-0.0057319655
-0.0059617885
-0.0060099988
-0.0059151058
-0.0057233827
-0.0054833978
-0.0052418367
-0.0050429191
-0.0049293708
0.00034692252
-6.3370139e-05
1.1225223e-05
-5.9138504e-05
-8.2166043e-05
-0.00011918663
-7.0700786e-05
6.9124383e-05
0.00028077318
0.00054524635
0.00075195012
0.0010198452
0.0013622352
0.0017572166
0.0021661454
0.0024983704
0.0027355045
0.0028052634
0.0027623599
0.0025152488
0.0021179383
0.0015136839
0.00073408065
-0.00021110282
-0.0012682992
-0.0023737717
-0.0034490273
-0.0044179615
-0.0052169641
-0.0058050326
-0.0061681714
-0.0063182251
-0.0062874999
-0.00612076
-0.0058682399
-0.0055797403
-0.0053016871
-0.0050770684
-0.0049470721
0.00036298425
-7.3563169e-05
-2.5256573e-06
-9.2758543e-05
-0.00012435626
-0.00017856643
-0.00015985533
-3.9373e-05
0.00014229294
0.00038793537
0.00060932792
0.00084175855
0.0012079582
0.0016397873
0.002130905
0.0025698932
0.0028757311
0.0030691719
0.0030709181
0.0029481807
0.0026041488
0.0020930228
0.0013608795
0.00044711026
-0.00062416217
-0.0017878667
-0.0029671463
-0.004077353
-0.0050409319
-0.0057991417
-0.0063200386
-0.0066007965
-0.0066641079
-0.0065507102
-0.0063112617
-0.0059985895
-0.0056631337
-0.0053503605
-0.0051016142
-0.004956332
-7.4788273e-05
0.00035927857
-1.3718132e-05
-0.0001227197
-0.00016401553
-0.000238135
-0.00024433409
-0.0001661273
-2.304536e-06
0.00021635064
0.00040772596
0.00066054705
0.00099161626
0.0014641573
0.0020217715
0.002562087
0.0029867258
0.0032520332
0.0033877581
0.0033114155
0.003099461
0.0026461113
0.0020056303
0.0011316003
7.5147549e-05
-0.0011242636
-0.002388523
-0.0036293539
-0.0047576896
-0.005697649
-0.0063978177
-0.0068374714
-0.0070259266
-0.0069965193
-0.0067980933
-0.006485739
-0.0061142929
-0.0057338043
-0.0053882921
-0.0051170827
-0.0049577244
-1.7351546e-05
-7.6685686e-05
0.00033543576
-0.0001453111
-0.00019729837
-0.00029299018
-0.00032935277
-0.00028929705
-0.00017084041
3.4738813e-05
0.00018757284
0.00040209704
0.00077219208
0.0012129292
0.0018390527
0.0024689692
0.0030120821
0.0034077637
0.0036156106
0.0036853895
0.0035234258
0.0032102497
0.0026306588
0.0018432214
0.00081440488
-0.00039120971
-0.001717078
-0.0030721118
-0.004358627
-0.0054858436
-0.0063824581
-0.0070072683
-0.0073523567
-0.0074396884
-0.0073130693
-0.0070281123
-0.0066437262
-0.0062153535
-0.0057920897
-0.0054159471
-0.0051240256
-0.0049518016
-0.00015288936
-2.4633167e-05
-7.8565931e-05
0.00030225928
-0.00021997594
-0.00033728709
-0.00040864062
-0.00041512241
-0.00033934544
-0.00017821028
-4.2466657e-05
0.00011520141
0.0004544315
0.00096014918
0.0015648396
0.0022882657
0.002940779
0.0034702302
0.0038186789
0.0039603407
0.0039598274
0.0037030927
0.0032708576
0.0025442628
0.0015921358
0.0003973807
-0.00096038637
-0.0024070511
-0.0038387139
-0.0051517371
-0.0062562561
-0.0070890518
-0.0076214622
-0.007859721
-0.007838613
-0.0076114253
-0.007239827
-0.0067848552
-0.0063019502
-0.0058383961
-0.0054338583
-0.0051230268
-0.0049391327
-0.00022439633
-0.00015803341
-3.376537e-05
-6.8812247e-05
0.00026405646
-0.00036532174
-0.00047412796
-0.00053680237
-0.0005129551
-0.00039423368
-0.0003091134
-0.00017499838
9.3750458e-05
0.00058566248
0.0012871096
0.0019978082
0.0027697218
0.0034302151
0.0039181701
0.0042129872
0.0042865529
0.0042105343
0.0038414161
0.0032670211
0.0023713869
0.0012378877
-0.00013097818
-0.0016398121
-0.0031965347
-0.0046867443
-0.006003744
-0.0070623366
-0.0078104539
-0.0082342458
-0.0083548432
-0.0082193944
-0.0078899025
-0.007432344
-0.0069090824
-0.0063743397
-0.005873192
-0.0054426378
-0.0051147028
-0.0049202793
-0.00036570101
-0.00022252818
-0.00016013075
-3.3014174e-05
-5.2481725e-05
0.00022557441
-0.00051864055
-0.00064284404
-0.00068350227
-0.00061824241
-0.00057935799
-0.00050996322
-0.0002652898
0.00015191935
0.00085423182
0.0016971888
0.002460704
0.0032748142
0.0039122664
0.0043495165
0.0045952043
0.0045992177
0.00443014
0.0039247154
0.0031810441
0.0020946574
0.00076583053
-0.00078117462
-0.0024349767
-0.0040861831
-0.0056125505
-0.0069082536
-0.0078964323
-0.0085393421
-0.0088395044
-0.0088332049
-0.0085793201
-0.0081469361
-0.0076052585
-0.0070163873
-0.0064329141
-0.0058971227
-0.0054429855
-0.0050996577
-0.004895779
-0.00052790874
-0.00035248826
-0.00021403481
-0.00014549998
-2.8713363e-05
-3.6279405e-05
0.00018934272
-0.00072268292
-0.00083615427
-0.00084069567
-0.00085506679
-0.00084516356
-0.00067727134
-0.00027873522
0.00034902501
0.0012138901
0.002140524
0.0029621658
0.0037780257
0.0043801723
0.0047722602
0.0049749158
0.0048939625
0.0046063299
0.0039334911
0.0029935062
0.0016967947
0.00016211224
-0.0015622706
-0.0033493878
-0.0050740808
-0.0066104953
-0.0078573283
-0.0087501758
-0.0092681397
-0.0094312832
-0.0092908076
-0.0089159528
-0.0083815408
-0.0077580942
-0.0071070725
-0.006478322
-0.0059109976
-0.0054355351
-0.0050783749
-0.0048661249
-0.00075674185
-0.0005159408
-0.00032693628
-0.00018636003
-0.00012115799
-2.1818747e-05
-2.0142335e-05
0.00015462637
-0.00095606187
-0.0010440127
-0.0011258929
-0.001180866
-0.0010871352
-0.00077523503
-0.00016049184
0.00064074192
0.0016081121
0.0026234313
0.0034670404
0.0042669536
0.0048430936
0.0052038402
0.0053517453
0.0051593836
0.0047193513
0.0038455283
0.0026836984
0.0011601821
-0.00058574751
-0.0024814225
-0.004383842
-0.0061562116
-0.007672957
-0.0088418697
-0.0096145722
-0.0099892793
-0.010004038
-0.0097240571
-0.0092274422
-0.008592684
-0.0078909047
-0.0071816636
-0.0065114999
-0.0059154607
-0.0054206141
-0.0050512294
-0.0048318381
-0.001017867
-0.00075766254
-0.00048269264
-0.00027569751
-0.00014903109
-9.2043209e-05
-1.2492818e-05
-5.4701866e-06
0.00012614578
-0.0012101333
-0.0013692531
-0.0015039008
-0.0014919257
-0.0012695332
-0.00074810107
4.6708491e-05
0.00097116873
0.0020488868
0.0031112248
0.0039536372
0.0047524045
0.0053281097
0.00564788
0.005715962
0.0053751599
0.0047432328
0.0036372936
0.0022302381
0.00046808928
-0.0014890495
-0.0035430248
-0.0055367676
-0.0073260478
-0.0087906107
-0.0098516707
-0.010480362
-0.010695431
-0.010552693
-0.010129933
-0.0095120043
-0.0087799523
-0.0080041926
-0.007241264
-0.0065330712
-0.0059105701
-0.0053984054
-0.0050188684
-0.0047935901
-0.0013061141
-0.0010336188
-0.00072648846
-0.0004158461
-0.00021072119
-0.0001063783
-6.1661142e-05
-3.4590072e-06
9.2476571e-06
0.0001020656
-0.001564227
-0.0017883414
-0.0018771864
-0.0017530161
-0.0013376009
-0.00064070787
0.00029647121
0.0013525438
0.002498982
0.003574723
0.0044412014
0.0052764716
0.0058414365
0.0060964857
0.0060460584
0.0055110613
0.0046505528
0.0032843549
0.0016125558
-0.00039480308
-0.0025562587
-0.0047485364
-0.0068034115
-0.0085747616
-0.0099524024
-0.010875826
-0.011338241
-0.011379708
-0.01107273
-0.010505611
-0.0097685125
-0.0089435569
-0.0080991021
-0.0072864201
-0.0065427106
-0.0058962407
-0.0053699569
-0.0049826109
-0.0047520289
-0.0016690795
-0.0013400166
-0.001002807
-0.00064955729
-0.00033107416
-0.00013979591
-6.2176798e-05
-3.3224368e-05
9.3017493e-06
1.8530986e-05
8.3251848e-05
-0.0020086256
-0.0022106018
-0.0022098347
-0.0019147582
-0.0013421035
-0.00049027118
0.0005998247
0.0017514337
0.0029154285
0.0040447908
0.0049840104
0.0058504398
0.0063823984
0.0065290119
0.0063092105
0.005537401
0.0044144847
0.0027622901
0.00081058174
-0.0014414978
-0.0037930524
-0.0060960856
-0.0081761253
-0.0098909709
-0.011146016
-0.011902981
-0.012179224
-0.012035736
-0.011559902
-0.010848942
-0.0099967619
-0.0090847998
-0.0081760282
-0.0073162951
-0.0065399707
-0.005874234
-0.0053378879
-0.0049435358
-0.0047071184
-0.0021147484
-0.0016906084
-0.0013072877
-0.00091193929
-0.00054604238
-0.00023686049
-6.9965577e-05
-2.0446707e-05
-3.197012e-06
2.1185729e-05
2.5855409e-05
6.8835928e-05
-0.0024626695
-0.0026000252
-0.0024633543
-0.0020320039
-0.0013074038
-0.00028241187
0.00093451979
0.0021069633
0.0033372356
0.0045789493
0.0055967917
0.0064703988
0.0069322784
0.006910319
0.0064733451
0.0054249379
0.0040072194
0.0020469368
-0.00019353811
-0.0026828607
-0.0052015668
-0.0075804211
-0.0096442103
-0.011261486
-0.012358147
-0.012921826
-0.012994704
-0.012657414
-0.012010679
-0.011159063
-0.010197892
-0.0092037854
-0.0082334406
-0.0073299272
-0.0065276106
-0.0058490932
-0.005303738
-0.0048999804
-0.0046558974
-0.0025738884
-0.0021108946
-0.0016263882
-0.0011950746
-0.00078552068
-0.00042759056
-0.00014313693
-4.6944356e-06
2.3099546e-05
2.1176456e-05
3.5598047e-05
3.611272e-05
5.5989353e-05
-0.0028889442
-0.0029363428
-0.0026933127
-0.0021171031
-0.0012143097
-3.6232077e-05
0.0012210752
0.0024503249
0.0038216023
0.0052067631
0.0062816085
0.0071229324
0.007450054
0.0072037673
0.006508279
0.0051432877
0.0034007069
0.0011151011
-0.0014157454
-0.0041260664
-0.006779871
-0.0091925136
-0.011194349
-0.012671336
-0.013575094
-0.0139212
-0.013776283
-0.013239376
-0.012423193
-0.011436807
-0.010371816
-0.009298032
-0.008269682
-0.007331413
-0.0065128063
-0.0058227715
-0.0052623766
-0.004846153
-0.0045984508
-0.0030057424
-0.0025470013
-0.0019979878
-0.0014648837
-0.0010354563
-0.00063634882
-0.00030661104
-5.4292265e-05
5.9904723e-05
5.9635264e-05
4.4668279e-05
5.1941891e-05
4.2360558e-05
5.0954013e-05
-0.0032921584
-0.0032727422
-0.0029021801
-0.0021418434
-0.0010741161
0.00015398139
0.0014779798
0.0028437487
0.0044215648
0.0059427273
0.0070324845
0.0077616735
0.0078930683
0.0073761537
0.0063796561
0.004660254
0.0025657845
-5.4965006e-05
-0.0028688503
-0.0057740114
-0.008521766
-0.010919613
-0.012810474
-0.014104501
-0.014782883
-0.014889951
-0.014516222
-0.013778308
-0.012797691
-0.011681589
-0.010514679
-0.0093649535
-0.0082905249
-0.0073313428
-0.0064979065
-0.0057847912
-0.0052029302
-0.0047865151
-0.0045360192
-0.0034468432
-0.0029509902
-0.002382553
-0.0017682354
-0.0012478339
-0.00084516122
-0.00048064325
-0.00018823725
3.4066184e-05
0.00011271327
9.6621723e-05
6.8037118e-05
6.2276722e-05
5.4234198e-05
4.0876076e-05
-0.0037197985
-0.0035994964
-0.0030497158
-0.0021097336
-0.00099679535
0.00030102456
0.001774186
0.0033673694
0.0051406299
0.0067787654
0.0077966253
0.008341917
0.0082311622
0.0073918038
0.0060524192
0.0039421785
0.0014745066
-0.001482558
-0.0045614141
-0.0076247657
-0.010416602
-0.012745304
-0.014474604
-0.015544154
-0.015967208
-0.015817413
-0.01520921
-0.014273573
-0.013132823
-0.011887862
-0.010622665
-0.009412345
-0.0083109095
-0.0073324702
-0.0064649578
-0.0057170264
-0.0051380544
-0.0047214906
-0.0044686278
-0.0039377338
-0.0033974208
-0.0027311515
-0.00207911
-0.0014735043
-0.00099580259
-0.00064410586
-0.00032458591
-6.7411061e-05
0.00010806569
0.00016463816
0.00013170604
8.3592403e-05
7.7844608e-05
5.3681741e-05
3.5700399e-05
-0.004148906
-0.0038634106
-0.0031280103
-0.0021441439
-0.00097738834
0.00047621889
0.0022015761
0.004031922
0.0059857455
0.007660181
0.0085215763
0.0088298686
0.0084282923
0.0072131022
0.0054866916
0.0029552409
9.968899e-05
-0.0031829335
-0.0064971059
-0.0096709719
-0.012448996
-0.014650511
-0.016167237
-0.01697254
-0.017113901
-0.016695634
-0.015853294
-0.014722701
-0.013420936
-0.012050116
-0.010705945
-0.0094606477
-0.0083340537
-0.0073068602
-0.006386176
-0.0056441241
-0.0050673225
-0.0046512477
-0.0043962693
-0.0044402261
-0.0039168844
-0.0031489553
-0.002351314
-0.0016997551
-0.0011394855
-0.00073205574
-0.00044028077
-0.00016368646
3.6501385e-05
0.00018322264
0.00021343249
0.00015446766
0.00010523998
8.2451421e-05
6.405613e-05
2.4096257e-05
-0.004512919
-0.0040460154
-0.0032742471
-0.0022495093
-0.00094068411
0.00077871797
0.0027805484
0.0048465339
0.0069050738
0.0085233823
0.0091772547
0.0091907143
0.0084435927
0.0067976914
0.0046446824
0.0016669132
-0.0015812838
-0.0051668204
-0.0086737163
-0.011899725
-0.014599602
-0.016613445
-0.017866967
-0.018371478
-0.018211704
-0.017520794
-0.016444536
-0.015115105
-0.013654105
-0.012181259
-0.010791828
-0.0095135666
-0.0083190249
-0.0072142438
-0.0063024537
-0.0055646503
-0.0049912358
-0.0045757625
-0.0043189757
-0.0048746014
-0.0044551675
-0.0036579824
-0.0027118272
-0.0018879951
-0.0012770263
-0.00079581516
-0.00046716767
-0.0002310325
-2.1675186e-05
0.00014215895
0.0002550332
0.00024559301
0.00018267986
0.00011467756
9.7353511e-05
6.5684683e-05
2.0121671e-05
-0.0047848707
-0.0042898097
-0.0034949706
-0.0023519177
-0.00078596539
0.0012503685
0.0035189041
0.005764476
0.0078408491
0.0093446034
0.0097303302
0.0093802417
0.0082334433
0.0061009424
0.0034860351
4.5510147e-05
-0.003586489
-0.0074392874
-0.01108236
-0.014292608
-0.016844934
-0.018609224
-0.019551288
-0.019725696
-0.019254277
-0.018286988
-0.016968667
-0.015439953
-0.013848359
-0.01231713
-0.010884574
-0.0095135578
-0.0082096732
-0.007116688
-0.0062111714
-0.0054797397
-0.0049097281
-0.0044950703
-0.0042367809
-0.0052096902
-0.004918914
-0.0041880918
-0.0031773599
-0.0021755721
-0.0013788358
-0.00084803398
-0.00045517767
-0.00019910913
-4.3248159e-05
0.00012478602
0.00024292168
0.00030437486
0.00028229737
0.00019551652
0.00013425225
0.00010266367
6.949532e-05
1.3232012e-05
-0.005102163
-0.0046058025
-0.00372332
-0.002346571
-0.00045646959
0.0019035449
0.0043880185
0.0067432562
0.0087782008
0.010094802
0.010138606
0.0093510673
0.0077465448
0.0050758395
0.0019705798
-0.0019352262
-0.0059292709
-0.0099980432
-0.013707592
-0.01682594
-0.019157374
-0.020610865
-0.021200291
-0.02102567
-0.020233165
-0.01897542
-0.01741054
-0.015716563
-0.014049984
-0.012462626
-0.010905551
-0.0093844855
-0.0080949749
-0.0070103149
-0.0061144545
-0.0053891789
-0.0048228309
-0.0044092347
-0.0041497553
-0.0055631562
-0.0052858321
-0.0046417606
-0.0036615078
-0.0025738075
-0.0015849951
-0.00086785655
-0.00042660909
-0.00011492624
4.2600079e-05
0.00014790102
0.00026039132
0.00031571751
0.00035699686
0.00030020292
0.00021702217
0.00014472244
0.0001090767
7.1536537e-05
8.1127344e-06
-0.0054772624
-0.0049312909
-0.0038543945
-0.0021640087
6.5268194e-05
0.0026947377
0.0053437926
0.0077617168
0.0096792932
0.010712177
0.010346115
0.0090451752
0.0069294701
0.0036756774
6.0083149e-05
-0.0042978094
-0.0086151966
-0.012833017
-0.016527086
-0.01947012
-0.021505387
-0.022593241
-0.022800552
-0.022259735
-0.021124003
-0.019565303
-0.017793366
-0.016003863
-0.014264729
-0.01251269
-0.01075375
-0.0092490208
-0.0079699405
-0.0068985054
-0.006011828
-0.0052930634
-0.0047306275
-0.0043183665
-0.0040579654
-0.0059537389
-0.0056310725
-0.004994667
-0.0040647567
-0.0029845693
-0.0018995802
-0.0009910348
-0.00036841049
-7.8211167e-06
0.0001883077
0.00028718087
0.00032152581
0.00035970884
0.00039320911
0.00038714517
0.00032479831
0.0002260091
0.00015561796
0.00011159147
6.7058857e-05
5.051275e-06
-0.0058566707
-0.0051686868
-0.0038059613
-0.0017888826
0.00072669693
0.0036028055
0.0063601153
0.008802774
0.010505701
0.011143646
0.010299066
0.0084047857
0.0057277307
0.0018523686
-0.0022807117
-0.0070580814
-0.011641016
-0.015925309
-0.019510391
-0.022189303
-0.023858432
-0.024538477
-0.024336539
-0.023396769
-0.02189876
-0.020083456
-0.018191266
-0.01630876
-0.014354662
-0.012335233
-0.010593607
-0.0091013803
-0.0078394696
-0.0067805381
-0.0059034879
-0.0051914613
-0.0046332694
-0.0042226034
-0.0039614661
-0.0063380013
-0.0059905724
-0.0052893691
-0.0043603982
-0.0033081749
-0.0022173781
-0.0012138484
-0.00040714909
0.00012536775
0.00035713905
0.0004876797
0.00050271021
0.00044697848
0.00046209119
0.0004433894
0.00042120497
0.00033318755
0.00023572508
0.00016337043
0.00010798902
6.8851749e-05
-2.6082064e-06
-0.0061562559
-0.0052239432
-0.0035794737
-0.0012747229
0.0015082708
0.0045954479
0.007429111
0.0098309357
0.011192604
0.011325412
0.0099313222
0.0073687187
0.0040870384
-0.00043813272
-0.0050787841
-0.010222926
-0.014993613
-0.019245757
-0.022619158
-0.024947564
-0.026193735
-0.026426514
-0.025769088
-0.02439952
-0.022587663
-0.020622657
-0.018612601
-0.016452726
-0.014148931
-0.012146229
-0.010419031
-0.0089482941
-0.0077025626
-0.0066566728
-0.0057894677
-0.0050846315
-0.0045309677
-0.004121972
-0.0038603142
-0.00664731
-0.0063285223
-0.0055729904
-0.004568722
-0.0035152264
-0.0024421108
-0.0014291437
-0.00053013332
0.0001688539
0.00054792701
0.00071060435
0.00074982712
0.00064847236
0.00057511398
0.00053013047
0.00049561544
0.00043458931
0.00033941878
0.00024023599
0.00016100798
0.00011086555
5.8225843e-05
-3.1005077e-06
-0.0062721807
-0.0051202267
-0.0032235951
-0.00064285832
0.0023972956
0.0056689235
0.0085238159
0.010794077
0.011665485
0.011185839
0.0091788024
0.0058728144
0.0019492556
-0.0032353861
-0.008355118
-0.013788749
-0.018646642
-0.022753865
-0.025812231
-0.027716787
-0.028486078
-0.028208838
-0.027049378
-0.02530119
-0.023305285
-0.021193167
-0.018829086
-0.016216736
-0.013926733
-0.011940011
-0.010238959
-0.0087884374
-0.0075595255
-0.0065269469
-0.0056701589
-0.0049728387
-0.0044236163
-0.0040164404
-0.00375472
-0.0067773477
-0.0065905065
-0.0058211622
-0.0047423076
-0.0036118537
-0.0025420146
-0.0015454924
-0.0006335496
0.00014275238
0.00065553374
0.00095294492
0.0010191222
0.00091654952
0.00079749826
0.00066588937
0.00060051897
0.00052289812
0.00044125174
0.00033925647
0.00023377908
0.00016529679
0.0001000296
5.9274064e-05
-1.1623786e-05
-0.006246026
-0.00490302
-0.0027623327
0.00010776564
0.0033897272
0.006817888
0.0096102069
0.01163796
0.011845145
0.010655021
0.0079715306
0.0038484936
-0.00074256127
-0.0065741431
-0.012119004
-0.01773734
-0.022559851
-0.026404534
-0.029056153
-0.030466393
-0.030676415
-0.029822442
-0.028212697
-0.026241968
-0.024065245
-0.021506062
-0.018561972
-0.015957028
-0.013683878
-0.011728145
-0.010051679
-0.0086221509
-0.0074104141
-0.0063918755
-0.0055458741
-0.0048557973
-0.0043109373
-0.0039064528
-0.0036448048
-0.0067748221
-0.0066848211
-0.0059928891
-0.0048669207
-0.0036517615
-0.002513239
-0.0015290879
-0.00062964881
0.00014812595
0.00071554399
0.0011239477
0.0013071641
0.0012093965
0.0010918304
0.00090307814
0.00075162567
0.00064293909
0.00053628399
0.00044087042
0.00032714929
0.00023416642
0.0001535446
9.9497207e-05
4.7137392e-05
-1.1227004e-05
-0.006134981
-0.0045973928
-0.0021820576
0.00097571066
0.00450102
0.0080051356
0.010633362
0.012273077
0.011658057
0.009655394
0.0062313313
0.0012229764
-0.0040426295
-0.0104774
-0.016361896
-0.022032673
-0.026685353
-0.030159508
-0.032314781
-0.033125546
-0.032684634
-0.031303246
-0.029429298
-0.027240148
-0.024505059
-0.021208769
-0.018260735
-0.015672401
-0.013435021
-0.011508475
-0.0098575607
-0.0084494869
-0.0072558942
-0.0062517976
-0.0054160734
-0.0047328254
-0.0041937424
-0.0037921817
-0.0035307246
-0.006720654
-0.0066546642
-0.0060106529
-0.0049121928
-0.0036326008
-0.0024099133
-0.0013720604
-0.00048730401
0.00026218752
0.00081926903
0.0012637695
0.0015349848
0.0015236565
0.0014077285
0.0012111516
0.00099175076
0.00080471055
0.0006616492
0.00054308485
0.00042435223
0.00032203852
0.0002173601
0.00015187726
8.4183335e-05
4.6110108e-05
-1.852918e-05
-0.0059618841
-0.0041836359
-0.0014807708
0.0019962219
0.0056997055
0.0091828241
0.011525041