/*--------------------------------*- C++ -*----------------------------------*\
| =========                 |                                                 |
| \\      /  F ield         | OpenFOAM: The Open Source CFD Toolbox           |
|  \\    /   O peration     | Version:  5.0                                   |
|   \\  /    A nd           | Web:      www.OpenFOAM.org                      |
|    \\/     M anipulation  |                                                 |
\*---------------------------------------------------------------------------*/
FoamFile
{
    version     2.0;
    format      ascii;
    class       volScalarField;
    location    "100";
    object      pPrime2Mean;
}
// * * * * * * * * * * * * * * * * * * * * * * * * * * * * * * * * * * * * * //

dimensions      [0 4 -4 0 0 0 0];

internalField   nonuniform List<scalar> 
9520
(
5.5693449e-07
5.1391728e-07
3.7962801e-06
4.4157852e-07
3.5029821e-06
1.0275295e-05
3.5420791e-07
3.0093108e-06
9.4844259e-06
2.0277044e-05
2.6433309e-07
2.412395e-06
8.1528246e-06
1.8724372e-05
3.4341153e-05
1.8157713e-07
1.7974829e-06
6.5414863e-06
1.6108077e-05
3.1729584e-05
5.3206708e-05
1.123701e-07
1.2301329e-06
4.8798951e-06
1.2938691e-05
2.7324935e-05
4.9194143e-05
7.7815919e-05
6.0213661e-08
7.5427412e-07
3.3449521e-06
9.6658378e-06
2.1981749e-05
4.2419143e-05
7.2005509e-05
0.00010929383
2.6238136e-08
3.9390247e-07
2.0556136e-06
6.6372497e-06
1.6454198e-05
3.4186651e-05
6.2182225e-05
0.00010122618
0.00014894628
9.8602931e-09
1.5674334e-07
1.0772762e-06
4.0880058e-06
1.1328003e-05
2.565134e-05
5.0221915e-05
8.7566705e-05
0.0001380945
0.00019824784
9.4120683e-09
3.8486682e-08
4.3159121e-07
2.1487048e-06
7.0017822e-06
1.7714534e-05
3.7789576e-05
7.0897848e-05
0.00011969087
0.00018401503
0.00025883064
2.2642363e-08
2.7059532e-08
1.0764248e-07
8.638528e-07
3.6997074e-06
1.0994596e-05
2.6192505e-05
5.3519765e-05
9.7175332e-05
0.00015983345
0.00024055034
0.00033246583
4.7332036e-08
1.0602782e-07
7.3171079e-08
2.1368575e-07
1.5013078e-06
5.8443971e-06
1.6336009e-05
3.7250519e-05
7.362351e-05
0.00013016528
0.00020943001
0.00030940603
0.00042104142
8.1294773e-08
2.5740095e-07
2.8364474e-07
1.3597421e-07
3.7758234e-07
2.3950999e-06
8.7455558e-06
2.3362618e-05
5.1484565e-05
9.9016836e-05
0.00017113051
0.00027006409
0.00039241189
0.00052653301
1.2335967e-07
4.6327175e-07
6.9020276e-07
5.4393836e-07
2.2646804e-07
6.0988973e-07
3.6264118e-06
1.2608636e-05
3.2493124e-05
6.960454e-05
0.00013075718
0.00022148384
0.00034345399
0.00049149665
0.0006509705
1.7210128e-07
7.0788156e-07
1.2441669e-06
1.3412742e-06
9.0354424e-07
3.3732486e-07
9.3839148e-07
5.2980665e-06
1.7696093e-05
4.4235939e-05
9.2445044e-05
0.000170048
0.00028278184
0.00043143449
0.00060865802
0.0007963977
2.2803871e-07
9.7778011e-07
1.9018505e-06
2.4320243e-06
2.2470568e-06
1.3586418e-06
4.7185922e-07
1.3966486e-06
7.5474933e-06
2.4334378e-05
5.9202085e-05
0.00012097513
0.00021823983
0.0003567153
0.00053593289
0.0007459264
0.00096483113
2.9077719e-07
1.2626917e-06
2.6244354e-06
3.7286719e-06
4.0951574e-06
3.4257723e-06
1.9153324e-06
6.2942028e-07
2.0352318e-06
1.0551323e-05
3.2927038e-05
7.8117999e-05
0.0001563059
0.0002768297
0.00044509321
0.0006589397
0.00090532624
0.0011582148
3.6025077e-07
1.5544336e-06
3.3815826e-06
5.1537353e-06
6.2977845e-06
6.2885055e-06
4.910497e-06
2.5726887e-06
8.1480559e-07
2.9220702e-06
1.4536632e-05
4.396786e-05
0.00010183764
0.00019969766
0.0003474543
0.00054982258
0.00080247503
0.0010888327
0.0013783787
4.3642224e-07
1.8462202e-06
4.1502285e-06
6.6444875e-06
8.7235239e-06
9.7131546e-06
9.0923484e-06
6.7307576e-06
3.3308861e-06
1.0335648e-06
4.1504539e-06
1.9791999e-05
5.8055074e-05
0.00013135543
0.00025256222
0.00043188011
0.00067288239
0.00096855008
0.0012983275
0.0016269923
5.1664894e-07
2.1402753e-06
4.9121724e-06
8.1515097e-06
1.1263409e-05
1.349535e-05
1.4118393e-05
1.2593436e-05
8.9213759e-06
4.1814309e-06
1.2961402e-06
5.8464606e-06
2.6681599e-05
7.5907455e-05
0.00016781633
0.00031646363
0.00053198687
0.0008162929
0.0011591258
0.0015355585
0.0019055247
5.9817698e-07
2.4277935e-06
5.6634523e-06
9.637874e-06
1.3831426e-05
1.746239e-05
1.9685852e-05
1.9678456e-05
1.6896167e-05
1.1506585e-05
5.1064966e-06
1.6199424e-06
8.1805865e-06
3.5661455e-05
9.8379749e-05
0.00021252588
0.00039311224
0.00064974731
0.00098208056
0.0013760681
0.0018020974
0.0022152042
6.7854544e-07
2.7296851e-06
6.3910225e-06
1.1084596e-05
1.6361887e-05
2.1479282e-05
2.5537496e-05
2.7553599e-05
2.6595601e-05
2.2099204e-05
1.4493501e-05
6.0745934e-06
2.0369738e-06
1.1381299e-05
4.7296652e-05
0.00012647932
0.00026695465
0.00048435627
0.00078719989
0.0011722327
0.001621114
0.002099297
0.0025569893
7.5307915e-07
3.0211505e-06
7.1176734e-06
1.2474058e-05
1.8816645e-05
2.5440778e-05
3.1471578e-05
3.585225e-05
3.7422828e-05
3.5079467e-05
2.8284961e-05
1.7862899e-05
7.0437681e-06
2.6027229e-06
1.575057e-05
6.2281206e-05
0.00016137907
0.00033274185
0.00059216553
0.0009464166
0.0013886651
0.0018958239
0.0024282597
0.002931542
8.1201546e-07
3.3460927e-06
7.8227108e-06
1.3818303e-05
2.1163164e-05
2.9282108e-05
3.732984e-05
4.428108e-05
4.8869021e-05
4.9645065e-05
4.5332485e-05
3.5505099e-05
2.1568455e-05
7.9656607e-06
3.4069437e-06
2.1683058e-05
8.1456262e-05
0.00020443197
0.00041169177
0.00071860992
0.0011294589
0.0016331795
0.0022015451
0.0027898061
0.0033392118
8.7028316e-07
3.6728088e-06
8.5596586e-06
1.5105919e-05
2.3412296e-05
3.2951813e-05
4.3008175e-05
5.261083e-05
6.0519987e-05
6.5104689e-05
6.4578264e-05
5.7528773e-05
4.3776368e-05
2.5535275e-05
8.7900526e-06
4.5889557e-06
2.9685548e-05
0.00010583235
0.00025717958
0.00050576545
0.00086583174
0.0013383496
0.0019074206
0.0025393752
0.0031844566
0.0037800253
9.275568e-07
4.042069e-06
9.299644e-06
1.6389455e-05
2.5547344e-05
3.6454584e-05
4.8431224e-05
6.0683419e-05
7.2050372e-05
8.0888523e-05
8.5100442e-05
8.2561526e-05
7.1810297e-05
5.3076744e-05
2.9657912e-05
9.4711687e-06
6.3532644e-06
4.0402069e-05
0.00013660777
0.00032135854
0.00061706527
0.0010360024
0.0015750289
0.0022128337
0.0029101365
0.0036124145
0.0042536864
1.0007683e-06
4.3931131e-06
1.0076854e-05
1.7648831e-05
2.7637252e-05
3.9768624e-05
5.3586994e-05
6.8389533e-05
8.3231162e-05
9.6544642e-05
0.00010613194
0.00010939358
0.00010391483
8.8283187e-05
6.3337018e-05
3.3795647e-05
9.975028e-06
8.9916458e-06
5.463825e-05
0.0001751885
0.00039889893
0.00074781283
0.001231299
0.0018413078
0.0025506313
0.0033143503
0.0040735621
0.0047595825
1.0853727e-06
4.7260189e-06
1.0807113e-05
1.8929779e-05
2.9648377e-05
4.2983006e-05
5.8451576e-05
7.56935e-05
9.3901776e-05
0.00011174925
0.00012705763
0.00013700822
0.0001385234
0.00012893951
0.00010700535
7.4423681e-05
3.776917e-05
1.02946e-05
1.2908712e-05
7.3390676e-05
0.00022320094
0.00049191905
0.00090031069
0.0014538573
0.002138827
0.002921757
0.0037522255
0.0045674618
0.0052967978
1.1887892e-06
5.0419072e-06
1.1507492e-05
2.0127447e-05
3.1684663e-05
4.6060994e-05
6.312082e-05
8.25713e-05
0.00010399593
0.00012626887
0.00014743019
0.00016458085
0.00017430375
0.00017304228
0.00015790515
0.00012795768
8.6123024e-05
4.1362515e-05
1.0471388e-05
1.8654609e-05
9.787188e-05
0.00028250434
0.00060270912
0.0010769178
0.0017057264
0.0024690123
0.0033268639
0.0042236493
0.0050933649
0.0058641342
1.3001696e-06
5.281949e-06
1.2149358e-05
2.127524e-05
3.3594551e-05
4.9143789e-05
6.7575898e-05
8.9122241e-05
0.0001134776
0.00013999449
0.00016692102
0.000191505
0.00021016381
0.00021886387
0.00021350521
0.0001910105
0.00015101276
9.8127417e-05
4.4333825e-05
1.0623911e-05
2.6958875e-05
0.00012953939
0.00035519266
0.00073370209
0.0012800083
0.0019888186
0.0028330407
0.003766292
0.0047281884
0.0056502281
0.0064601366
1.4055654e-06
5.4835299e-06
1.266478e-05
2.2316883e-05
3.5417188e-05
5.202447e-05
7.1976583e-05
9.5349845e-05
0.00012244368
0.00015286357
0.00018536239
0.00021732503
0.0002452851
0.00026497283
0.00027158879
0.00026042297
0.00022833641
0.00017590391
0.00011003041
4.643568e-05
1.09823e-05
3.876964e-05
0.00017011526
0.00044359114
0.00088744798
0.0015119195
0.0023048647
0.0032318046
0.0042400586
0.005265097
0.006236736
0.0070831228
1.4910162e-06
5.6026661e-06
1.3091834e-05
2.3193124e-05
3.7067112e-05
5.4757362e-05
7.6089939e-05
0.00010144164
0.00013092239
0.00016496843
0.00020265477
0.0002417972
0.00027904319
0.00031027156
0.00033030051
0.0003333817
0.00031419845
0.00026979635
0.00020220315
0.00012133218
4.7443315e-05
1.1932173e-05
5.5289178e-05
0.00022160589
0.0005502379
0.0010665781
0.0017749025
0.0026553666
0.003665888
0.0047478531
0.0058333321
0.0068513272
0.0077312158
1.5482373e-06
5.6686313e-06
1.3365899e-05
2.3889132e-05
3.848281e-05
5.7234953e-05
7.9968787e-05
0.00010716083
0.00013914655
0.00017634251
0.00021887858
0.00026477331
0.00031108042
0.00035391415
0.00038818207
0.00040750646
0.00040506944
0.00037506087
0.00031509694
0.00022930942
0.00013145608
4.7194936e-05
1.4060175e-05
7.8014471e-05
0.0002863084
0.00067785722
0.001273755
0.0020710658
0.003041558
0.0041355448
0.005289042
0.006431574
0.0074922256
0.0084023791
1.5709619e-06
5.6569178e-06
1.3521207e-05
2.4323981e-05
3.9580081e-05
5.9369517e-05
8.3494323e-05
0.00011253793
0.00014688545
0.00018727601
0.0002340837
0.00028632268
0.00034116914
0.0003953857
0.00044410052
0.00048088193
0.00049792427
0.00048731993
0.00044300757
0.00036370838
0.00025644779
0.00013977591
4.5636182e-05
1.8208531e-05
0.00010876745
0.0003668117
0.00082933748
0.0015116157
0.0024023236
0.0034643654
0.0046406905
0.0058626793
0.0070582528
0.0081574736
0.0090944506
1.5524257e-06
5.5492919e-06
1.3533393e-05
2.4603799e-05
4.0259089e-05
6.0995377e-05
8.6559554e-05
0.00011740514
0.00015416643
0.00019759118
0.00024862986
0.00030651554
0.00036933705
0.00043434195
0.00049732694
0.00055200733
0.00059027475
0.00060276448
0.00058056839
0.0005177596
0.00041484502
0.00028267555
0.00014565104
4.2880268e-05
2.552567e-05
0.00014972526
0.00046597182
0.0010076795
0.0017827121
0.002770341
0.0039243832
0.0051808972
0.0064675254
0.0077115786
0.0088449661
0.0098051783
1.4897729e-06
5.3455837e-06
1.3382166e-05
2.4724778e-05
4.0717434e-05
6.2005388e-05
8.8850207e-05
0.00012169024
0.00016073927
0.00020729353
0.00026232814
0.00032575939
0.0003956625
0.00047075728
0.00054735826
0.00061987312
0.00068015359
0.00071819889
0.00072302781
0.00068496041
0.00059872554
0.00046744844
0.0003069017
0.00014848034
3.9269324e-05
3.7522926e-05
0.00020343437
0.000586905
0.0012159399
0.0020894463
0.0031764897
0.0044218479
0.0057554008
0.0071020708
0.0083895741
0.0095524864
0.010532253
1.3942929e-06
5.0714118e-06
1.307838e-05
2.4654434e-05
4.0965097e-05
6.2695937e-05
9.0266776e-05
0.00012480022
0.00016659562
0.00021604621
0.00027529462
0.00034387253
0.00042060367
0.00050468981
0.00059407599
0.00068376065
0.00076617896
0.00083106793
0.00086632316
0.0008594388
0.00080030311
0.0006849625
0.00052018017
0.00032791808
0.00014776069
3.545169e-05
5.6121685e-05
0.00027281031
0.00073294061
0.0014571651
0.0024340092
0.0036218021
0.0049566311
0.0063631133
0.0077645644
0.0090901097
0.01027774
0.011273342
1.3009713e-06
4.7745472e-06
1.2661916e-05
2.439476e-05
4.0951065e-05
6.3109937e-05
9.1252677e-05
0.00012670146
0.00017071789
0.00022394154
0.00028704369
0.00036117668
0.0004440925
0.00053661878
0.00063748349
0.00074342167
0.00084734065
0.00093950631
0.0010071628
0.0010360811
0.0010123955
0.00092601201
0.00077514003
0.00057142424
0.00034444568
0.00014317073
3.2454873e-05
8.3697549e-05
0.00036113264
0.00090756905
0.0017343205
0.0028183157
0.0041069426
0.0055282329
0.0070026438
0.0084530465
0.0098109386
0.011018389
0.012026114
1.2431369e-06
4.5264915e-06
1.2202752e-05
2.3983877e-05
4.0676106e-05
6.3161368e-05
9.1907773e-05
0.00012803904
0.00017321183
0.00022927624
0.00029776797
0.00037686252
0.00046657802
0.0005666197
0.00067805295
0.00079876151
0.00092320313
0.0010421253
0.0011430606
0.0012106793
0.001228625
0.0011819049
0.0010610465
0.00086750518
0.00061930252
0.00035520359
0.00013465915
3.1768443e-05
0.00012310503
0.00047202313
0.0011143725
0.0020502118
0.0032439513
0.0046321786
0.0061357915
0.0076723251
0.009165384
0.010549732
0.011772079
0.012788272
4.4033907e-06
1.2326098e-06
1.180095e-05
2.3498884e-05
4.0192574e-05
6.2847144e-05
9.2105711e-05
0.00012900843
0.00017498982
0.00023243758
0.00030485254
0.00039135706
0.00048704208
0.00059529258
0.00071599665
0.00085023146
0.00099352776
0.0011382337
0.0012721394
0.0013799587
0.0014436527
0.0014447668
0.0013675032
0.0012038377
0.00095985699
0.00066171542
0.00035899698
0.00012255514
3.5414912e-05
0.00017768813
0.00060939663
0.0013569451
0.0024074104
0.0037121187
0.0051973716
0.006778096
0.0083702453
0.0098993062
0.011304113
0.012536474
0.013557568
1.1571884e-05
4.4465608e-06
1.2732511e-06
2.3051924e-05
3.9594629e-05
6.2232718e-05
9.183737e-05
0.00012943062
0.00017637298
0.00023471471
0.00030904662
0.00040085971
0.00050600309
0.00062149121
0.00075202338
0.00089809232
0.0010586901
0.0012273937
0.0013933623
0.0015414128
0.0016532067
0.0017078675
0.0016848858
0.0015681462
0.0013522123
0.0010495397
0.0006964049
0.00035483722
0.00010767893
4.6017724e-05
0.00025128655
0.00077739475
0.0016388048
0.0028081754
0.0042236021
0.0058019693
0.0074536119
0.0090942832
0.010652442
0.012071687
0.013309274
0.014331831
2.2786847e-05
1.1594048e-05
4.6433595e-06
1.347675e-06
3.9019842e-05
6.14446e-05
9.118188e-05
0.00012929917
0.00017715327
0.00023662366
0.00031206665
0.00040682807
0.00051827179
0.00064569047
0.000785052
0.00094322363
0.0011189907
0.0013098877
0.0015060203
0.0016935432
0.0018539825
0.0019656937
0.0020047838
0.0019487964
0.0017820809
0.0015033239
0.0011334639
0.00072105908
0.00034207627
9.1462698e-05
6.6835312e-05
0.00034819981
0.00098030151
0.0019632975
0.0032543868
0.0047787337
0.0064450185
0.0081605095
0.0098421459
0.011422353
0.012850072
0.014088244
0.015108976
3.8653668e-05
2.2795507e-05
1.1861867e-05
4.9373096e-06
1.4295161e-06
6.0663759e-05
9.0294612e-05
0.00012871355
0.00017730327
0.00023786076
0.00031479384
0.00041114264
0.00052632971
0.00066097014
0.00081541751
0.00098467685
0.0011754615
0.0013860101
0.0016102748
0.0018352795
0.002043863
0.0022139059
0.0023201498
0.0023353878
0.0022355744
0.0020067125
0.0016536173
0.001208167
0.00073344794
0.00032056638
7.6056451e-05
0.00010180246
0.00047313038
0.0012224427
0.0023335013
0.0037474821
0.0053773829
0.007125178
0.0088967002
0.010611408
0.012206573
0.013636925
0.014871227
0.015887023
6.0145806e-05
3.86206e-05
2.3072483e-05
1.2295346e-05
5.2541026e-06
1.4893802e-06
8.9393029e-05
0.00012786509
0.00017693694
0.00023839799
0.00031676257
0.00041536414
0.00053221817
0.00067114887
0.00083396337
0.0010226637
0.0012273023
0.0014569032
0.0017063274
0.0019666087
0.0022213041
0.0024495646
0.0026253259
0.0027189966
0.0026999648
0.0025433473
0.0022384947
0.0017988269
0.0012699212
0.00073160321
0.00029082678
6.4421663e-05
0.00015552167
0.00063110042
0.0015080734
0.0027521318
0.0042884114
0.0060189473
0.0078407496
0.009659875
0.011399549
0.013002632
0.014429965
0.015656163
0.016664104
8.8796262e-05
6.0053716e-05
3.8924427e-05
2.3523948e-05
1.2778798e-05
5.5264504e-06
1.5158612e-06
0.00012700371
0.00017627617
0.00023835023
0.00031787933
0.00041859863
0.00053828358
0.00067856465
0.00084609846
0.0010447241
0.0012747001
0.0015220269
0.0017954744
0.0020875642
0.0023860608
0.002670477
0.0029162787
0.003092312
0.0031640756
0.0030978444
0.0028691203
0.0024728499
0.0019340163
0.0013148968
0.00071402485
0.00025421998
6.040111e-05
0.00023322817
0.00082734207
0.0018412559
0.0032214573
0.0048775989
0.0067023673
0.0085897091
0.010447548
0.012203993
0.013808093
0.015226988
0.016441101
0.017438473
0.00012651249
8.8702823e-05
6.0397557e-05
3.9443306e-05
2.4017039e-05
1.3213723e-05
5.7108198e-06
1.5074538e-06
0.00017560134
0.00023796023
0.00031823024
0.00042067659
0.00054326938
0.00068668239
0.00085484955
0.0010589087
0.0013006116
0.0015814181
0.0018773376
0.0021995964
0.0025379771
0.0028760155
0.0031899481
0.003449893
0.0036185576
0.0036563549
0.0035271431
0.0032086057
0.0027041203
0.0020536938
0.0013393759
0.00067991428
0.00021310578
6.8766422e-05
0.00034071202
0.0010671664
0.002225738
0.0037432217
0.005514927
0.0074261426
0.0093697506
0.011257097
0.013022146
0.014620571
0.016025892
0.017224205
0.018208506
0.00017534259
0.00012661499
8.9127276e-05
6.1036753e-05
4.0006572e-05
2.4439838e-05
1.3529675e-05
5.7885779e-06
1.4671668e-06
0.00023754985
0.00031804444
0.00042155877
0.00054685738
0.00069381762
0.00086501881
0.0010687364
0.0013167958
0.0016120356
0.0019519501
0.0023024785
0.0026787215
0.0030657218
0.0034451266
0.0037875445
0.0040561787
0.0042070281
0.0041956038
0.0039845234
0.0035560706
0.0029255969
0.0021519896
0.0013400178
0.0006294175
0.00017097125
9.5210585e-05
0.00048420712
0.0013558159
0.0026648322
0.0043185868
0.0061997292
0.0081883691
0.010178329
0.012085809
0.013851421
0.015437756
0.016824681
0.018003764
0.018972711
0.00023762148
0.00017572003
0.00012730227
8.9890432e-05
6.1738106e-05
4.0483494e-05
2.4709326e-05
1.3681146e-05
5.7717076e-06
1.3974827e-06
0.00031765983
0.00042145895
0.00054879072
0.00069945456
0.00087455448
0.0010810161
0.0013275485
0.0016273995
0.0019886187
0.0023962166
0.0028080761
0.0032413223
0.0036809247
0.0041032493
0.0044712703
0.0047404017
0.0048596301
0.004780081
0.0044649172
0.0039042454
0.0031296118
0.0022229125
0.0013141712
0.00056387871
0.00013254535
0.00014629479
0.00067024379
0.0016983052
0.0031613072
0.0049480874
0.0069308065
0.008986777
0.011012711
0.012930917
0.014689274
0.016257435
0.017621481
0.018778198
0.019729723
0.00031764803
0.00023835951
0.00017669577
0.00012834527
9.0694078e-05
6.2324786e-05
4.0766726e-05
2.4778635e-05
1.3659781e-05
5.6898904e-06
1.3076475e-06
0.00042073161
0.00054920705
0.00070301476
0.00088277335
0.0010932712
0.0013421661
0.0016390677
0.0020018327
0.0024412147
0.0029261922
0.003402704
0.0038988787
0.0043954751
0.0048606903
0.0052489031
0.0055069886
0.0055768458
0.005406191
0.0049613265
0.0042443073
0.003307735
0.0022606742
0.0012602217
0.00048605942
0.00010384448
0.00022934171
0.00090547161
0.002099261
0.0037172918
0.0056316122
0.0077064521
0.0098187822
0.011870017
0.013789642
0.015533229
0.017077505
0.018414548
0.019546055
0.020478307
0.00042009348
0.00031818452
0.00023963127
0.00017799347
0.00012935526
9.1328443e-05
6.2650422e-05
4.0793698e-05
2.4648888e-05
1.3493906e-05
5.552025e-06
1.2093877e-06
0.0005484387
0.00070446864
0.00088879316
0.0011047366
0.0013575253
0.0016563845
0.0020137734
0.0024546425
0.0029825756
0.0035497237
0.0040990654
0.0046653959
0.005221988
0.0057279001
0.0061276797
0.006359177
0.0063573238
0.0060681155
0.0054646378
0.0045659441
0.003451053
0.0022600963
0.0011779423
0.00040033102
9.2160053e-05
0.00035227815
0.0011964593
0.0025627655
0.0043342043
0.0063684014
0.0085244939
0.010681532
0.012747273
0.014659223
0.016380903
0.017895991
0.019202268
0.020306013
0.021253227
0.00054730379
0.00041972228
0.00031917295
0.0002411113
0.00017912007
0.00013006247
9.1614474e-05
6.2633203e-05
4.0561621e-05
2.4363616e-05
1.3202416e-05
5.325146e-06
1.1142738e-06
0.00070404367
0.00089237291
0.0011141594
0.0013728158
0.0016751983
0.0020339806
0.0024668454
0.0029976877
0.0036204657
0.0042804683
0.0049133455
0.0055558331
0.0061736778
0.0067151002
0.0071139886
0.0072985551
0.007197376
0.0067575036
0.005963541
0.0048575352
0.0035505737
0.0022170633
0.0010688414
0.00031281082
0.00010597496
0.0005234267
0.0015494814
0.0030922207
0.0050127033
0.0071570644
0.0093823368
0.011571962
0.013641452
0.015536964
0.01723003
0.018711044
0.019983152
0.021089242
0.02207147
0.0007025681
0.00054597208
0.00041971399
0.00032031576
0.0002422187
0.00017975455
0.00013024577
9.1458909e-05
6.2275649e-05
4.012299e-05
2.3918079e-05
1.2749187e-05
5.0673699e-06
1.0326835e-06
0.00089355315
0.0011211355
0.0013865103
0.0016947043
0.0020563905
0.002490334
0.0030121149
0.0036423999
0.0043676936
0.005136785
0.005862216
0.0065862187
0.0072638999
0.0078320946
0.0082129781
0.0083244701
0.0080905335
0.0074631831
0.0064445325
0.0051064641
0.0035977176
0.0021290364
0.00093648219
0.00023142115
0.00015480096
0.00075125776
0.0019703105
0.0036902323
0.0057526628
0.0079956065
0.010277019
0.012486855
0.014549537
0.01642026
0.018078459
0.019520935
0.020786654
0.021913425
0.022910902
0.00089299657
0.00070017761
0.00054464353
0.00041987441
0.00032099021
0.00024260487
0.0001796433
0.00012981053
9.0868392e-05
6.1645488e-05
3.945504e-05
2.3208159e-05
1.2212126e-05
4.7436456e-06
9.596224e-07
0.0011254409
0.0013979383
0.0017130051
0.0020803046
0.002517059
0.0030415502
0.0036613562
0.0043955273
0.0052443706
0.0061366564
0.0069647708
0.0077730621
0.0085059055
0.0090881073
0.0094278199
0.0094334281
0.0090270497
0.0081709619
0.0068920692
0.00529957
0.0035849297
0.001995562
0.00078674609
0.00016584331
0.00024894366
0.0010441205
0.0024640207
0.0043585185
0.0065531606
0.0088814758
0.011205284
0.013422915
0.015468562
0.017306599
0.01892415
0.020355103
0.021630886
0.022762197
0.023771224
0.0011274686
0.00089057453
0.00069739912
0.00054341257
0.00041957402
0.00032082923
0.00024201
0.00017871626
0.0001287782
8.994043e-05
6.0682609e-05
3.8363715e-05
2.2320981e-05
1.1554404e-05
4.4125621e-06
9.0422437e-07
0.0014065727
0.0017291196
0.0021032113
0.0025461958
0.0030749737
0.0036988903
0.0044207709
0.0052762691
0.0062676205
0.0073026147
0.0082408646
0.0091328629
0.0099134309
0.01049076
0.010759036
0.010618471
0.0099934925
0.0088635365
0.0072888617
0.0054237634
0.003506357
0.0018187548
0.00062798773
0.00012737169
0.00039920902
0.0014099645
0.0030348053
0.0050978333
0.0074124996
0.0098116369
0.01216367
0.014376827
0.016395606
0.018193558
0.019798214
0.021231817
0.022503276
0.023635137
0.024652067
0.0014124624
0.0011266252
0.00088683657
0.000694615
0.0005417023
0.00041845534
0.00031956199
0.00024041548
0.00017703089
0.00012734711
8.8569519e-05
5.9095468e-05
3.6959224e-05
2.1262949e-05
1.0851153e-05
4.0471914e-06
8.5042132e-07
0.0017421182
0.0021238426
0.0025746573
0.0031115071
0.0037414706
0.0044678043
0.005301692
0.0063021693
0.0074629162
0.0086581412
0.0097097061
0.010684387
0.011499001
0.012045484
0.012203762
0.011868536
0.010972369
0.0095205626
0.0076163885
0.0054667972
0.0033585902
0.0016037402
0.00047107985
0.00012866654
0.00061656769
0.0018560522
0.0036858046
0.005907936
0.0083282738
0.01078268
0.013148586
0.015345245
0.017327798
0.019115743
0.020718775
0.022140555
0.023403322
0.024531706
0.025552988
0.0017516817
0.0014142646
0.0011231986
0.00088251449
0.00069129984
0.00053920953
0.00041623602
0.00031721749
0.00023795069
0.00017490811
0.00012532603
8.6312766e-05
5.6997289e-05
3.5320697e-05
2.0120264e-05
1.0092509e-05
3.6784548e-06
7.8814398e-07
0.0021407484
0.0026002839
0.0031469283
0.0037881226
0.0045213065
0.0053597431
0.0063276278
0.0074990037
0.0088572752
0.010223486
0.011395622
0.012445205
0.013273617
0.013754679
0.013754914
0.013167789
0.011941889
0.010118897
0.0078556177
0.0054181855
0.0031414032
0.001358989
0.00032930941
0.00018341986
0.00091176625
0.0023886604
0.0044189887
0.0067876304
0.0092974825
0.011790904
0.014156295
0.016324808
0.018305271
0.020090801
0.021675639
0.023080764
0.024330365
0.025451243
0.026473472
0.0021535166
0.0017556541
0.0014115751
0.0011181267
0.0008772169
0.00068718146
0.00053566888
0.00041298702
0.00031397028
0.00023506167
0.00017202535
0.00012209087
8.3270731e-05
5.4573052e-05
3.3525056e-05
1.8900253e-05
9.2990351e-06
3.3573706e-06
7.090385e-07
0.0026209152
0.0031778573
0.0038326747
0.0045801863
0.005425559
0.0063975561
0.0075244178
0.0088984641
0.010467748
0.012030087
0.013321139
0.01443248
0.015245962
0.01561676
0.015400323
0.014495052
0.012875836
0.010633126
0.0079879736
0.0052702198
0.0028584207
0.0010964816
0.00021815268
0.00030590771
0.001294887
0.0030128387
0.0052351407
0.0077348652
0.010316611
0.012832284
0.015182933
0.017363401
0.019344818
0.021106988
0.02266824
0.02405171
0.025283581
0.026392968
0.02741293
0.0026358394
0.002159488
0.0017532737
0.0014056217
0.0011109407
0.00087086664
0.00068201938
0.0005312188
0.00040887756
0.00031040224
0.0002312563
0.00016756438
0.00011768096
7.9801985e-05
5.1886459e-05
3.1612871e-05
1.7613417e-05
8.5689028e-06
3.0320059e-06
6.2578542e-07
0.0032011028
0.003869773
0.0046361454
0.0054979229
0.0064758994
0.0076019294
0.0089255255
0.010506712
0.01233421
0.01410495
0.015509856
0.016661884
0.01742124
0.017625075
0.017121727
0.015823269
0.013743742
0.011036402
0.0079965431
0.0050190481
0.0025177136
0.00083174433
0.00015485948
0.00051041963
0.0017749491
0.0037323013
0.0061339204
0.0087467944
0.011381576
0.013902504
0.01628664
0.018476568
0.020431034
0.022163767
0.023695815
0.025052457
0.026261986
0.027355978
0.028370704
0.003216163
0.0026418688
0.0021570748
0.0017458642
0.00139587
0.0011017629
0.00086339237
0.00067607989
0.00052600431
0.00040465494
0.00030567627
0.00022537704
0.00016140434
0.00011271835
7.5949475e-05
4.9024904e-05
2.9585919e-05
1.63714e-05
7.8378236e-06
2.7410838e-06
5.4018823e-07
0.0038948538
0.004681513
0.0055662783
0.0065630055
0.0076954018
0.0089942749
0.010537921
0.012374739
0.014484987
0.0164782
0.017985188
0.019146495
0.019800039
0.019766694
0.01889389
0.017119115
0.014511371
0.011301637
0.0078674709
0.0046657311
0.0021322419
0.00058360623
0.00015781198
0.00081068982
0.0023596735
0.0045494157
0.0071138598
0.009819666
0.01248776
0.015072746
0.017481395
0.019642894
0.021563455
0.023260387
0.024757361
0.026081867
0.027264429
0.028339257
0.029346067
0.003908123
0.0032196645
0.0026373984
0.0021476053
0.0017328256
0.0013827806
0.001090815
0.00085528627
0.00066958191
0.00052105012
0.00039894791
0.00029826435
0.00021707877
0.00015459381
0.00010724028
7.1846314e-05
4.5982285e-05
2.759089e-05
1.510253e-05
7.1334331e-06
2.4368763e-06
4.5513905e-07
0.0047097751
0.0056207657
0.0066464361
0.0078014656
0.0091027176
0.010630832
0.012410431
0.014530226
0.016955476
0.019181254
0.020768794
0.021895633
0.022377118
0.022021152
0.020683623
0.018342972
0.015141619
0.011403067
0.0075915107
0.0042172346
0.0017199935
0.00037362018
0.00024581611
0.0012195164
0.0030553519
0.0054650808
0.0081721615
0.010948864
0.013722343
0.016355308
0.018737088
0.020862044
0.022741402
0.024395832
0.025851641
0.027138599
0.028289607
0.029341678
0.03033822
0.0047215691
0.0039064918
0.0032105325
0.0026240938
0.0021305641
0.0017150763
0.0013670966
0.0010790963
0.00084692178
0.00066377292
0.00051415719
0.00038976532
0.00028736938
0.00020795379
0.00014714072
0.00010144713
6.7489468e-05
4.2928238e-05
2.5523949e-05
1.382028e-05
6.408304e-06
2.1481409e-06
3.7535808e-07
0.0056530818
0.0067129557
0.0079037158
0.0092377125
0.010753743
0.012521814
0.014569017
0.017010714
0.019784602
0.022244914
0.023879777
0.024913629
0.025139695
0.024358847
0.022448948
0.01944925
0.015595994
0.011318168
0.0071656806
0.0036871932
0.0013036747
0.00022530791
0.00043758964
0.0017484713
0.0038665312
0.006478364
0.009304719
0.012240521
0.015096171
0.017708349
0.020053579
0.022133487
0.023963905
0.025568815
0.026977171
0.028221114
0.029336061
0.030362056
0.031346449
0.0056647536
0.0047143187
0.0038904087
0.00319123
0.0026017713
0.0021075755
0.0016940047
0.0013506005
0.0010673874
0.00083999051
0.00065545874
0.00050286004
0.00037564467
0.00027543906
0.00019795702
0.00013925123
9.5346695e-05
6.3062584e-05
3.973788e-05
2.3397806e-05
1.2482766e-05
5.6790381e-06
1.8525558e-06
3.0224282e-07
0.0067516512
0.0079864035
0.0093659734
0.010907806
0.012659077
0.014702726
0.017053917
0.019859867
0.023010946
0.025698694
0.027333551
0.028198126
0.028065456
0.0267394
0.024138666
0.020387351
0.015836598
0.011029902
0.0065947761
0.003096125
0.00091007915
0.00016359467
0.00075130582
0.0024072952
0.0047953985
0.0075864691
0.010639277
0.013704925
0.016552445
0.019131963
0.021430546
0.023456369
0.025229689
0.026777771
0.028132234
0.029327684
0.03040229
0.031399286
0.032369849
0.0067642309
0.0056536276
0.0046905944
0.003863308
0.0031618567
0.002572788
0.0020808454
0.001672347
0.0013344579
0.0010580923
0.00082964592
0.00064158335
0.0004848208
0.00036026008
0.00026229589
0.00018744877
0.00013095364
8.9122816e-05
5.8416028e-05
3.6435897e-05
2.1159697e-05
1.1095403e-05
4.9265926e-06
1.5594727e-06
2.369834e-07
0.0080352731
0.0094710176
0.011065223
0.012837593
0.014874654
0.017202711
0.019915491
0.023122683
0.026673289
0.029570211
0.031140343
0.03173773
0.031120223
0.029110231
0.025692486
0.021103392
0.015828792
0.01052915
0.0058924124
0.0024712061
0.00056965006
0.00021424801
0.0012036013
0.003202904
0.0058416259
0.0089404861
0.012187482
0.015267097
0.018091505
0.02062611
0.02286733
0.024829496
0.026537163
0.028020857
0.029314879
0.030456549
0.031486841
0.032452031
0.033407478
0.0080520778
0.006750169
0.0056238849
0.0046547024
0.0038252709
0.0031255799
0.0025401842
0.0020540497
0.0016515894
0.0013222857
0.0010444336
0.00081230697
0.0006186635
0.00046508084
0.00034318992
0.00024852481
0.00017639055
0.00012245398
8.256096e-05
5.3565041e-05
3.2943598e-05
1.8817766e-05
9.6511448e-06
4.1625885e-06
1.2671919e-06
1.7880168e-07
0.0095355837
0.011197558
0.013028331
0.015069262
0.01740833
0.020080295
0.023202512
0.026844304
0.030810457
0.03388426
0.035302924
0.035509031
0.034255301
0.031405629
0.027041995
0.021542857
0.01554439
0.0098167369
0.0050815548
0.001846254
0.00031598849
0.00040242657
0.0018080346
0.0041390109
0.00717959
0.010556934
0.013853405
0.016927595
0.019713646
0.022190394
0.024362892
0.026251316
0.027884419
0.029295957
0.030523143
0.031605932
0.032588019
0.033518825
0.034458354
0.0095612512
0.0080380676
0.0067150984
0.005580022
0.004606824
0.0037803652
0.0030862979
0.0025086199
0.0020289986
0.0016370155
0.0013044421
0.0010223721
0.00078287102
0.00059347627
0.00044317848
0.00032525685
0.00023397322
0.00016496221
0.00011346145
7.5680479e-05
4.8420248e-05
2.928181e-05
1.6368264e-05
8.1649871e-06
3.3922512e-06
9.8207509e-07
1.2829815e-07
0.011283841
0.01319684
0.01529323
0.017658235
0.020323845
0.023394007
0.026966991
0.031071104
0.035460889
0.038660922
0.039813193
0.039472942
0.03740519
0.033546317
0.028112681
0.021654293
0.014964876
0.0089050564
0.0041953238
0.0012616348
0.00018394226
0.00075039397
0.0025743587
0.0054101136
0.0088364927
0.012317423