/*--------------------------------*- C++ -*----------------------------------*\
| =========                 |                                                 |
| \\      /  F ield         | OpenFOAM: The Open Source CFD Toolbox           |
|  \\    /   O peration     | Version:  5.0                                   |
|   \\  /    A nd           | Web:      www.OpenFOAM.org                      |
|    \\/     M anipulation  |                                                 |
\*---------------------------------------------------------------------------*/
FoamFile
{
    version     2.0;
    format      ascii;
    class       volVectorField;
    location    "100";
    object      U;
}
// * * * * * * * * * * * * * * * * * * * * * * * * * * * * * * * * * * * * * //

dimensions      [0 1 -1 0 0 0 0];

internalField   nonuniform List<vector> 
9520
(
(1.0111349 8.5917935e-05 0)
(1.0112738 0.00025582858 0)
(1.0108713 9.4828424e-05 0)
(1.0115226 0.0004247636 0)
(1.0109991 0.00028171695 0)
(1.01075 9.5551167e-05 0)
(1.0118584 0.00059656425 0)
(1.0112277 0.00046614578 0)
(1.0108737 0.0002834784 0)
(1.0105734 9.5080394e-05 0)
(1.0122597 0.00077465165 0)
(1.0115351 0.0006518959 0)
(1.0110949 0.00046832815 0)
(1.0106914 0.00028199995 0)
(1.0104324 9.1820558e-05 0)
(1.0127081 0.00096054205 0)
(1.0119008 0.00084244467 0)
(1.0113918 0.00065382061 0)
(1.0109012 0.00046506603 0)
(1.0105461 0.00027233021 0)
(1.0102933 8.6954415e-05 0)
(1.0131877 0.0011551058 0)
(1.0123073 0.0010395954 0)
(1.0117442 0.00084293128 0)
(1.0111824 0.00064758219 0)
(1.0107483 0.00044806815 0)
(1.0104032 0.00025759524 0)
(1.0101707 8.1162016e-05 0)
(1.013686 0.0013589612 0)
(1.0127394 0.0012449311 0)
(1.0121345 0.0010373636 0)
(1.0115152 0.00083226822 0)
(1.0110189 0.00062213816 0)
(1.0105987 0.00042277024 0)
(1.0102778 0.0002399638 0)
(1.0100601 7.5231669e-05 0)
(1.0141935 0.0015709062 0)
(1.0131845 0.0014602742 0)
(1.0125469 0.0012385959 0)
(1.0118823 0.0010206991 0)
(1.0113386 0.00079685583 0)
(1.0108599 0.00058510298 0)
(1.0104684 0.00039318188 0)
(1.010165 0.00022185338 0)
(1.009962 6.9553685e-05 0)
(1.0147046 0.0017935491 0)
(1.0136327 0.0016869106 0)
(1.0129672 0.0014479947 0)
(1.012268 0.0012141551 0)
(1.0116901 0.00097355028 0)
(1.0111679 0.00074627517 0)
(1.0107229 0.00054247808 0)
(1.0103517 0.00036335155 0)
(1.010065 0.00020473961 0)
(1.0098747 6.4099128e-05 0)
(1.0152186 0.0020208824 0)
(1.0140776 0.0019302732 0)
(1.0133831 0.0016664544 0)
(1.0126582 0.0014135226 0)
(1.0120579 0.001153328 0)
(1.0115057 0.00090695908 0)
(1.0110235 0.00068890212 0)
(1.0106016 0.00050028955 0)
(1.0102484 0.0003356072 0)
(1.0099758 0.00018876144 0)
(1.0097972 5.8576517e-05 0)
(1.0157372 0.0022668984 0)
(1.0145122 0.0021897328 0)
(1.0137837 0.0018978812 0)
(1.0130405 0.0016190032 0)
(1.0124282 0.0013372012 0)
(1.0118573 0.001067637 0)
(1.0113533 0.00083204219 0)
(1.0108977 0.00063317617 0)
(1.0104949 0.00046202431 0)
(1.010156 0.00030990236 0)
(1.0098964 0.00017293661 0)
(1.0097292 5.2648026e-05 0)
(1.0162582 0.0025133934 0)
(1.0149313 0.0024856312 0)
(1.0141548 0.0021407727 0)
(1.0134036 0.0018322393 0)
(1.0127886 0.0015254533 0)
(1.0122086 0.0012291445 0)
(1.0116965 0.00097104309 0)
(1.0112241 0.00076049453 0)
(1.0107884 0.00058421397 0)
(1.0103993 0.00042753741 0)
(1.0100733 0.000284498 0)
(1.0098264 0.000155892 0)
(1.0096709 4.6067341e-05 0)
(1.0167502 0.0028148173 0)
(1.0153059 0.0028076805 0)
(1.0144835 0.0024096323 0)
(1.0137371 0.0020503304 0)
(1.0131283 0.0017194205 0)
(1.0125464 0.0013921167 0)
(1.0120382 0.0011048902 0)
(1.0115664 0.00087981664 0)
(1.011115 0.00070010718 0)
(1.0106905 0.00054204048 0)
(1.0103127 0.00039424283 0)
(1.0099995 0.00025725537 0)
(1.009766 0.00013661082 0)
(1.0096227 3.8667492e-05 0)
(1.0171846 0.0031037688 0)
(1.0156021 0.003200939 0)
(1.0147451 0.002683392 0)
(1.014033 0.0022788934 0)
(1.0134386 0.0019165263 0)
(1.0128601 0.0015590989 0)
(1.0123641 0.0012323303 0)
(1.0119107 0.00098742696 0)
(1.0114622 0.00080633266 0)
(1.0110176 0.0006516092 0)
(1.0106004 0.00050298128 0)
(1.010234 0.0003588441 0)
(1.009935 0.00022650949 0)
(1.0097156 0.00011480418 0)
(1.0095848 3.0474574e-05 0)
(1.0175735 0.0035037329 0)
(1.0158005 0.0036015707 0)
(1.0149347 0.002996821 0)
(1.0142789 0.002492906 0)
(1.0137132 0.0021198477 0)
(1.0131427 0.0017309221 0)
(1.0126616 0.0013541631 0)
(1.0122432 0.001078719 0)
(1.0118191 0.00089756293 0)
(1.0113702 0.00075327555 0)
(1.0109252 0.00061004689 0)
(1.0105157 0.00046203818 0)
(1.0101632 0.00031845169 0)
(1.0098801 0.00019144787 0)
(1.0096756 9.0999e-05 0)
(1.0095569 2.2135199e-05 0)
(1.0179949 0.0038309505 0)
(1.0159231 0.0041138789 0)
(1.015025 0.0032814442 0)
(1.0144738 0.0027225715 0)
(1.013949 0.0023146419 0)
(1.0133871 0.0019134785 0)
(1.0129185 0.0014697347 0)
(1.0125505 0.0011485735 0)
(1.0121756 0.0009666901 0)
(1.0117405 0.00084238475 0)
(1.0112789 0.00071426614 0)
(1.0108344 0.00056815261 0)
(1.0104367 0.00041492348 0)
(1.0101012 0.00027143894 0)
(1.0098357 0.00015268397 0)
(1.0096459 6.6701423e-05 0)
(1.0095386 1.4625206e-05 0)
(1.0183937 0.0043671912 0)
(1.0159933 0.0045502502 0)
(1.0150711 0.0036235619 0)
(1.0146062 0.0028870177 0)
(1.0141587 0.002528385 0)
(1.013594 0.0021008228 0)
(1.0131263 0.001588482 0)
(1.0128167 0.001191924 0)
(1.0125189 0.0010035865 0)
(1.0121219 0.00091142548 0)
(1.0116559 0.00081312366 0)
(1.0111823 0.00067791535 0)
(1.0107449 0.00051851894 0)
(1.010365 0.00035866452 0)
(1.0100496 0.00021842938 0)
(1.0098022 0.00011271564 0)
(1.0096259 4.3890719e-05 0)
(1.0095279 8.1653047e-06 0)
(1.0187366 0.0047107514 0)
(1.016017 0.0051752556 0)
(1.0150776 0.0038231529 0)
(1.0147395 0.0030499904 0)
(1.0143436 0.0026797569 0)
(1.0137767 0.0023160482 0)
(1.0132815 0.0017097916 0)
(1.0130282 0.0012059803 0)
(1.0128436 0.0010018138 0)
(1.0125068 0.00095174756 0)
(1.0120537 0.00090163654 0)
(1.0115551 0.00079167288 0)
(1.0110793 0.00063195132 0)
(1.0106594 0.0004557956 0)
(1.0103029 0.00029252319 0)
(1.0100098 0.00016281479 0)
(1.0097792 7.4753326e-05 0)
(1.0096141 2.3685784e-05 0)
(1.0095234 2.6410658e-06 0)
(1.0190312 0.0054407197 0)
(1.0159277 0.0056952382 0)
(1.0150304 0.0041807427 0)
(1.0148362 0.0030949925 0)
(1.0145343 0.0028534063 0)
(1.0139542 0.0025123262 0)
(1.0133888 0.0018530208 0)
(1.0131706 0.0011798832 0)
(1.0131368 0.00093754667 0)
(1.0129106 0.00095254942 0)
(1.0124763 0.0009741061 0)
(1.0119528 0.00090872897 0)
(1.0114352 0.00075847518 0)
(1.0109752 0.00056716808 0)
(1.0105828 0.00037831991 0)
(1.0102531 0.00022071779 0)
(1.0099814 0.00010918324 0)
(1.0097652 4.0662128e-05 0)
(1.0096094 6.2252056e-06 0)
(1.0095237 -1.8949267e-06 0)
(1.0192135 0.005767532 0)
(1.0156742 0.0063631174 0)
(1.0148374 0.0043102965 0)
(1.0149233 0.0032420196 0)
(1.0147157 0.0029591692 0)
(1.0141239 0.0027990236 0)
(1.0134379 0.002008801 0)
(1.0132451 0.001144307 0)
(1.0133835 0.00079078418 0)
(1.0133317 0.00088639526 0)
(1.0129254 0.0010129433 0)
(1.0123834 0.001030031 0)
(1.0118116 0.0009025246 0)
(1.011305 0.00069785363 0)
(1.0108781 0.00048023418 0)
(1.0105188 0.00029015797 0)
(1.0102167 0.00015052613 0)
(1.0099636 6.0126096e-05 0)
(1.0097593 1.0535225e-05 0)
(1.0096105 -8.8263543e-06 0)
(1.0095288 -6.3361645e-06 0)
(1.0192632 0.0068050988 0)
(1.0151517 0.0070486806 0)
(1.0144936 0.0045127515 0)
(1.0151327 0.0031035036 0)
(1.015026 0.0031670235 0)
(1.0142263 0.0030625385 0)
(1.0133896 0.0022796266 0)
(1.0131867 0.001076448 0)
(1.0135376 0.00055912201 0)
(1.0137644 0.00072621195 0)
(1.0134346 0.0010302986 0)
(1.0128476 0.0011454653 0)
(1.0122135 0.0010715629 0)
(1.0116443 0.00085525725 0)
(1.0111792 0.00060348937 0)
(1.0107946 0.0003754288 0)
(1.0104706 0.00020189928 0)
(1.0101926 8.5097087e-05 0)
(1.0099553 1.5590719e-05 0)
(1.0097605 -1.6311335e-05 0)
(1.0096163 -2.1846132e-05 0)
(1.0095363 -1.0036573e-05 0)
(1.0193031 0.0070621473 0)
(1.0144857 0.0076250225 0)
(1.0140576 0.004709716 0)
(1.0153692 0.0030550084 0)
(1.0155033 0.0031066782 0)
(1.0142951 0.0035831515 0)
(1.0130724 0.0025481905 0)
(1.0129696 0.0010442367 0)
(1.0136448 0.00018163942 0)
(1.0142155 0.00044533689 0)
(1.0140237 0.00098463021 0)
(1.0133662 0.0012749566 0)
(1.012642 0.0012722671 0)
(1.0119902 0.0010502393 0)
(1.0114771 0.00075518748 0)
(1.0110694 0.00048067861 0)
(1.0107304 0.00026690429 0)
(1.0104375 0.00011827392 0)
(1.0101801 2.4206181e-05 0)
(1.009956 -2.5235262e-05 0)
(1.009768 -4.0471037e-05 0)
(1.0096264 -3.4302224e-05 0)
(1.0095478 -1.4056106e-05 0)
(1.0186256 0.0084149922 0)
(1.0137957 0.0085862749 0)
(1.0132989 0.0042376112 0)
(1.0158514 0.0025512281 0)
(1.0161427 0.0035652334 0)
(1.014386 0.0040677511 0)
(1.0125309 0.0030807376 0)
(1.0124737 0.0009337878 0)
(1.0136215 -0.00029140773 0)
(1.0146821 -3.2289473e-05 0)
(1.0147229 0.00087093209 0)
(1.0139833 0.0014107716 0)
(1.0131022 0.001518747 0)
(1.0123416 0.0012988564 0)
(1.0117617 0.00094507046 0)
(1.0113313 0.00061042099 0)
(1.0109844 0.00034835643 0)
(1.0106852 0.00016275306 0)
(1.0104183 3.8936156e-05 0)
(1.0101786 -3.2995605e-05 0)
(1.0099647 -6.2989116e-05 0)
(1.0097809 -6.3164568e-05 0)
(1.0096402 -4.6258359e-05 0)
(1.0095613 -1.7843119e-05 0)
(1.0136439 0.0085872976 0)
(1.012818 0.0090717013 0)
(1.0126246 0.0047195216 0)
(1.0160951 0.0021604629 0)
(1.0171065 0.0030932323 0)
(1.0145375 0.0051828669 0)
(1.0116719 0.0036477344 0)
(1.0116477 0.00088752086 0)
(1.0134136 -0.00099858761 0)
(1.0151772 -0.00069909915 0)
(1.0155664 0.00061901885 0)
(1.0147376 0.0015799906 0)
(1.0136214 0.0018314438 0)
(1.0126871 0.0016196178 0)
(1.0120217 0.0011870415 0)
(1.0115673 0.00076977501 0)
(1.011221 0.00044834964 0)
(1.0109245 0.00022038747 0)
(1.0106568 6.2830891e-05 0)
(1.0104125 -3.7099702e-05 0)
(1.0101872 -8.7124276e-05 0)
(1.0099805 -9.9002371e-05 0)
(1.009799 -8.55728e-05 0)
(1.0096573 -5.7880298e-05 0)
(1.0095777 -2.1593219e-05 0)
(1.0024141 0.0096402644 0)
(1.0071769 0.01017021 0)
(1.0113897 0.0033542877 0)
(1.0167912 0.0010878028 0)
(1.0182005 0.0041317225 0)
(1.0147498 0.0060621803 0)
(1.0106418 0.0046924151 0)
(1.0103728 0.00070916105 0)
(1.0129664 -0.0018771645 0)
(1.0157079 -0.0017165816 0)
(1.0165988 0.00023725804 0)
(1.0156845 0.0017494022 0)
(1.0142303 0.0022651754 0)
(1.0130185 0.0020395749 0)
(1.0122417 0.0015015779 0)
(1.0117573 0.00096278287 0)
(1.0114274 0.00056613032 0)
(1.0111458 0.00029138815 0)
(1.0108854 9.7788317e-05 0)
(1.0106442 -3.419619e-05 0)
(1.0104191 -0.00011038189 0)
(1.0102052 -0.00013984307 0)
(1.0100037 -0.0001349694 0)
(1.0098218 -0.00010733581 0)
(1.0096774 -6.8841915e-05 0)
(1.0095959 -2.4783869e-05 0)
(0.98967168 0.0098719525 0)
(0.99758899 0.009781065 0)
(1.0083698 0.0040882496 0)
(1.0167829 0.00044129236 0)
(1.0195721 0.0030263491 0)
(1.0150788 0.0080781307 0)
(1.0090264 0.0058586942 0)
(1.008587 0.0006796697 0)
(1.0121685 -0.0031698942 0)
(1.0162743 -0.003030293 0)
(1.0178911 -0.00041961553 0)
(1.0168989 0.0019826916 0)
(1.014962 0.0028334761 0)
(1.0133426 0.0026155778 0)
(1.012382 0.0019041605 0)
(1.0118825 0.0011985624 0)
(1.0115878 0.00069828215 0)
(1.0113397 0.00037180644 0)
(1.0110966 0.00014384701 0)
(1.0108641 -2.1487704e-05 0)
(1.0106463 -0.00012903222 0)
(1.0104375 -0.00018320158 0)
(1.0102329 -0.00019321757 0)
(1.0100334 -0.00017010897 0)
(1.0098489 -0.00012788618 0)
(1.0096998 -7.8341563e-05 0)
(1.0096155 -2.7016723e-05 0)
(0.97747243 0.010021205 0)
(0.98693173 0.009896837 0)
(1.0027482 0.0016383525 0)
(1.0164905 -0.001127343 0)
(1.0201975 0.0046140953 0)
(1.0155234 0.0095883377 0)
(1.0072835 0.0076990484 0)
(1.0061124 0.00056100187 0)
(1.0109634 -0.0046932923 0)
(1.0168602 -0.0049558511 0)
(1.0195206 -0.001274027 0)
(1.018462 0.0021727674 0)
(1.0158757 0.0036533925 0)
(1.0136405 0.0033939088 0)
(1.0124145 0.0024320537 0)
(1.0119069 0.0014805405 0)
(1.0116804 0.00083413381 0)
(1.0114978 0.00045241312 0)
(1.0112862 0.00019724977 0)
(1.0110664 2.3544013e-06 0)
(1.0108588 -0.00013907969 0)
(1.0106623 -0.0002248393 0)
(1.0104682 -0.00025806701 0)
(1.0102698 -0.00024616994 0)
(1.0100694 -0.00020370967 0)
(1.0098795 -0.00014609371 0)
(1.0097242 -8.5633012e-05 0)
(1.0096357 -2.7930269e-05 0)
(0.96589989 0.01008729 0)
(0.9760666 0.0086033587 0)
(0.99541235 0.00028465549 0)
(1.0144788 -0.0025547604 0)
(1.0203052 0.0026397284 0)
(1.0163496 0.012686208 0)
(1.0044967 0.0098280614 0)
(1.0028815 0.00060421829 0)
(1.009242 -0.0068271992 0)
(1.0174584 -0.0073144989 0)
(1.0215931 -0.0026268065 0)
(1.0204917 0.0024842483 0)
(1.017021 0.0046958415 0)
(1.0139269 0.0044910253 0)
(1.0122902 0.0031190366 0)
(1.0117786 0.0018107901 0)
(1.0116796 0.00096128777 0)
(1.0116103 0.0005150086 0)
(1.0114541 0.00024809214 0)
(1.0112509 3.669373e-05 0)
(1.0110515 -0.00013668978 0)
(1.0108686 -0.00025931926 0)
(1.0106931 -0.00032490918 0)
(1.0105111 -0.00033359135 0)
(1.0103155 -0.00029753604 0)
(1.0101109 -0.0002340723 0)
(1.0099131 -0.00016049588 0)
(1.0097494 -8.9662667e-05 0)
(1.0096555 -2.7377918e-05 0)
(0.95441772 0.0099462085 0)
(0.96549629 0.0078434982 0)
(0.98747645 -0.0027429097 0)
(1.0089367 -0.0044557734 0)
(1.0182554 0.0048519566 0)
(1.0163542 0.014890927 0)
(1.0024326 0.012723889 0)
(0.99861069 0.00079964358 0)
(1.0068693 -0.009303604 0)
(1.0180748 -0.01062761 0)
(1.0241667 -0.0042730765 0)
(1.0231165 0.0026771347 0)
(1.0184938 0.0062050461 0)
(1.0141657 0.005940779 0)
(1.0119589 0.0040514246 0)
(1.0114308 0.0021829872 0)
(1.0115483 0.0010564669 0)
(1.0116636 0.00053008542 0)
(1.0116041 0.00027851297 0)
(1.0114243 7.658101e-05 0)
(1.0112253 -0.00011827723 0)
(1.0110501 -0.00027994469 0)
(1.0108946 -0.00038715854 0)
(1.0107392 -0.00042789911 0)
(1.0105661 -0.00040816694 0)
(1.0103694 -0.00034503384 0)
(1.0101569 -0.00025918784 0)
(1.0099485 -0.00016964548 0)
(1.009775 -8.9760276e-05 0)
(1.0096741 -2.5391651e-05 0)
(0.94219497 0.0098687733 5.0946703e-24)
(0.95499428 0.0062237486 0)
(0.97879706 -0.0046422368 0)
(1.0012326 -0.0051832642 0)
(1.010208 0.0040572162 0)
(1.0083021 0.01875901 0)
(0.9984506 0.016724442 0)
(0.99330146 0.00079157361 0)
(1.0038473 -0.012569531 0)
(1.0186353 -0.014511678 0)
(1.0273926 -0.0067389877 0)
(1.0264808 0.0031002296 0)
(1.0203507 0.0080456496 0)
(1.014381 0.0079898969 0)
(1.0113182 0.0052517433 0)
(1.0107854 0.0026268041 0)
(1.0112296 0.0010731868 0)
(1.0116471 0.0004599079 0)
(1.0117448 0.00025784969 0)
(1.0116008 0.00011095106 0)
(1.011389 -8.1290543e-05 0)
(1.0112062 -0.00027852527 0)
(1.0110639 -0.00043569214 0)
(1.0109389 -0.00052209836 0)
(1.0108014 -0.00053165864 0)
(1.0106328 -0.00047872698 0)
(1.0104304 -0.00038589608 0)
(1.0102065 -0.00027703181 0)
(1.0099849 -0.00017244343 0)
(1.0097996 -8.552056e-05 0)
(1.0096906 -2.2026542e-05 0)
(0.92889348 0.0096469619 -4.8873756e-24)
(0.9436666 0.0048889107 -5.3286953e-24)
(0.97027542 -0.0072837994 0)
(0.99329046 -0.0069329567 0)
(0.99976476 0.0083496655 0)
(0.99200049 0.02236695 0)
(0.98685218 0.02059267 0)
(0.98629448 0.0018775744 0)
(0.99971827 -0.016384448 0)
(1.0192562 -0.019731554 0)
(1.031291 -0.0096004732 0)
(1.0307417 0.0032658791 0)
(1.0227257 0.010684221 0)
(1.014505 0.010595044 0)
(1.0102908 0.006908465 0)
(1.0097179 0.0031034521 0)
(1.010658 0.0009803029 0)
(1.0115409 0.00024114669 0)
(1.0118859 0.00014884156 0)
(1.0118008 0.00012060721 0)
(1.0115601 -2.4550841e-05 0)
(1.0113434 -0.00024487475 0)
(1.0111971 -0.00045853055 0)
(1.011098 -0.00060603264 0)
(1.0110037 -0.00066132759 0)
(1.0108797 -0.00063218752 0)
(1.0107102 -0.00054156139 0)
(1.0104973 -0.00041740563 0)
(1.0102583 -0.00028601765 0)
(1.0100211 -0.00016817245 0)
(1.0098225 -7.6878018e-05 0)
(1.0097043 -1.7328312e-05 0)
(0.91543972 0.0093522464 4.9055841e-24)
(0.93143904 0.003142873 1.5782816e-23)
(0.9602927 -0.0098612415 0)
(0.9853441 -0.0072979317 0)
(0.99070482 0.0096874465 0)
(0.97627453 0.028570608 0)
(0.96656906 0.024509327 0)
(0.9758671 0.0019522611 0)
(0.99452975 -0.021080888 0)
(1.0197078 -0.025651625 0)
(1.0360511 -0.013696694 0)
(1.0360353 0.0037858189 0)
(1.0256535 0.013796561 0)
(1.0145662 0.014211769 0)
(1.0087156 0.0089775473 0)
(1.0081059 0.0037022319 0)
(1.0097343 0.00067767783 0)
(1.0113216 -0.00019855331 0)
(1.0120538 -0.00010798255 0)
(1.0120495 9.0046022e-05 0)
(1.0117633 5.4915472e-05 0)
(1.0114763 -0.00016468997 0)
(1.0112949 -0.00043947315 0)
(1.0112074 -0.00066527307 0)
(1.0111572 -0.00078710815 0)
(1.0110902 -0.00079972147 0)
(1.0109734 -0.0007245426 0)
(1.0107967 -0.00059305714 0)
(1.0105685 -0.00043740147 0)
(1.010311 -0.0002851107 0)
(1.010056 -0.0001565819 0)
(1.0098429 -6.4005147e-05 0)
(1.0097145 -1.1353859e-05 0)
(0.9022365 0.0089650388 0)
(0.91913574 0.0011836973 -1.5808645e-23)
(0.94914378 -0.012591721 0)
(0.97592541 -0.0089630783 0)
(0.98140961 0.013895613 0)
(0.96460218 0.033291044 0)
(0.94980988 0.02749036 0)
(0.96021341 0.002236652 0)
(0.98808645 -0.027166304 0)
(1.0206332 -0.033264094 0)
(1.0415996 -0.018106138 0)
(1.0425063 0.0038782468 0)
(1.0292643 0.018147874 0)
(1.0144449 0.018637877 0)
(1.0064789 0.011827173 0)
(1.0057505 0.0042891407 0)
(1.0083672 0.00015582019 0)
(1.0109491 -0.00098607961 0)
(1.0122736 -0.00059505706 0)
(1.0124336 -2.7174139e-05 0)
(1.0120368 0.00014442849 0)
(1.0116324 -1.9751041e-05 0)
(1.0113646 -0.00035610228 0)
(1.0112612 -0.00068058896 0)
(1.0112481 -0.00089537212 0)
(1.0112457 -0.00097278355 0)
(1.0111985 -0.00093065859 0)
(1.0110808 -0.00080385741 0)
(1.0108905 -0.00063030214 0)
(1.0106424 -0.00044444885 0)
(1.0103634 -0.00027386293 0)
(1.0100887 -0.00013779867 0)
(1.0098599 -4.7276427e-05 0)
(1.009721 -4.3211317e-06 0)
(0.8897283 0.0084752136 -2.093285e-24)
(0.90706052 -0.00088627907 0)
(0.93743089 -0.015480959 -9.2056388e-24)
(0.9650654 -0.010351825 0)
(0.97133028 0.016352201 0)
(0.95373839 0.03879337 0)
(0.93749392 0.031605241 0)
(0.94555473 -0.0012089575 0)
(0.98089927 -0.033736527 0)
(1.0210432 -0.041742668 0)
(1.0480935 -0.024582013 0)
(1.0502072 0.0046109547 0)
(1.0335318 0.023188546 0)
(1.0141392 0.024564423 0)
(1.0033565 0.015265 0)
(1.0024861 0.0050944964 0)
(1.0063907 -0.00081116533 0)
(1.010399 -0.0021994495 0)
(1.0125817 -0.0014304902 0)
(1.0130005 -0.00028039094 0)
(1.0124631 0.00025543845 0)
(1.0118504 0.00020169905 0)
(1.0114226 -0.00018032177 0)
(1.0112565 -0.00062644674 0)
(1.0112632 -0.00096693295 0)
(1.0113278 -0.001139363 0)
(1.0113646 -0.0011534662 0)
(1.011327 -0.0010474192 0)
(1.0111999 -0.00086614186 0)
(1.0109897 -0.00065130277 0)
(1.0107173 -0.0004378559 0)
(1.0104142 -0.00025234345 0)
(1.0101184 -0.00011238548 0)
(1.0098731 -2.7099457e-05 0)
(1.0097231 3.3655875e-06 0)
(0.87840557 0.0078886771 5.2693433e-24)
(0.89562533 -0.0031070236 2.538624e-23)
(0.92540627 -0.018323875 9.1981749e-24)
(0.95303357 -0.011808755 -4.3958293e-23)
(0.96028058 0.018922406 -3.7288263e-23)
(0.94309411 0.043868374 0)
(0.92681075 0.033388744 0)
(0.93386476 -0.0024673463 0)
(0.97263925 -0.043318573 0)
(1.0206156 -0.050861775 0)
(1.0513926 -0.029332792 0)
(1.0574413 0.0044833886 0)
(1.0384698 0.02983026 0)
(1.0134713 0.031604839 0)
(0.99916677 0.019869691 0)
(0.99803403 0.0058010626 0)
(1.0037048 -0.0021275655 0)
(1.0095942 -0.0040877207 0)
(1.0130174 -0.0027073866 0)
(1.0138488 -0.00075776325 0)
(1.0131456 0.00039462548 0)
(1.0121613 0.00051970332 0)
(1.0115024 0.00013493116 0)
(1.0111933 -0.00046818153 0)
(1.0111893 -0.00097713948 0)
(1.0113181 -0.0012845059 0)
(1.0114509 -0.0013842843 0)
(1.011513 -0.0013196832 0)
(1.0114732 -0.0011443928 0)
(1.011328 -0.00090858366 0)
(1.011092 -0.00065502186 0)
(1.0107917 -0.00041761484 0)
(1.0104624 -0.00022113221 0)
(1.0101444 -8.102941e-05 0)
(1.0098822 -3.9408611e-06 0)
(1.0097212 1.2010734e-05 0)
(0.86876746 0.00720923 -4.7194428e-24)
(0.88524923 -0.0053810258 -3.6895227e-23)
(0.91345104 -0.021094802 0)
(0.94036625 -0.01337579 1.2537727e-22)
(0.94791352 0.021845203 3.7093169e-23)
(0.9326249 0.048704806 -3.184368e-23)
(0.91647688 0.037881233 -1.6628739e-23)
(0.92417185 -0.0072078992 0)
(0.96452864 -0.052232875 0)
(1.0182484 -0.059991223 0)
(1.0518385 -0.037143818 0)
(1.0594742 0.0057598599 0)
(1.0434218 0.037748261 0)
(1.0119633 0.040555839 0)
(0.99367845 0.025304067 0)
(0.99217247 0.0068322941 0)
(1.0000678 -0.0042418161 0)
(1.0085223 -0.0066510028 0)
(1.0136255 -0.0046642127 0)
(1.015076 -0.0015083826 0)
(1.0141899 0.00051230812 0)
(1.0126854 0.0010228165 0)
(1.0115957 0.00061171988 0)
(1.0110821 -0.00015166884 0)
(1.0110124 -0.00089137568 0)
(1.0111953 -0.0013879113 0)
(1.0114352 -0.0016124161 0)
(1.0116166 -0.0016151322 0)
(1.0116876 -0.0014632098 0)
(1.0116337 -0.0012175407 0)
(1.0114625 -0.00092964231 0)
(1.0111955 -0.00064129082 0)
(1.0108643 -0.00038431378 0)
(1.010507 -0.00018116979 0)
(1.010166 -4.4684059e-05 0)
(1.0098867 2.1217195e-05 0)
(1.009715 2.1013218e-05 0)
(0.86130988 0.006462516 2.7426237e-24)
(0.87635384 -0.0076257283 8.0929648e-24)
(0.90197892 -0.023671121 2.2980555e-23)
(0.92728578 -0.014744583 -4.1455873e-23)
(0.93515864 0.024461673 -8.4493431e-23)
(0.92120304 0.053665235 4.9429967e-23)
(0.90672794 0.04197434 -1.8540996e-22)
(0.91356403 -0.0083004501 2.665158e-23)
(0.95770668 -0.06214344 0)
(1.0139154 -0.069512747 0)
(1.0500036 -0.040096358 0)
(1.0590489 0.0051537703 0)
(1.0464523 0.047952872 0)
(1.0073854 0.051244834 0)
(0.98628205 0.032223749 0)
(0.98459582 0.0076782104 0)
(0.99537993 -0.006877974 0)
(1.0070641 -0.010364576 0)
(1.0144545 -0.0073244553 0)
(1.0168372 -0.0027332323 0)
(1.015742 0.00065038068 0)
(1.0135192 0.001729854 0)
(1.0117676 0.0013593815 0)
(1.0109092 0.00037541373 0)
(1.0107127 -0.00067077478 0)
(1.0109341 -0.0014260011 0)
(1.0112928 -0.0018267857 0)
(1.0116154 -0.0019290666 0)
(1.0118212 -0.0018204286 0)
(1.011884 -0.0015782783 0)
(1.011805 -0.0012645434 0)
(1.0116006 -0.0009288859 0)
(1.0112983 -0.00061066988 0)
(1.0109337 -0.00033905579 0)
(1.0105473 -0.00013374164 0)
(1.0101831 -4.2340071e-06 0)
(1.0098868 4.8234582e-05 0)
(1.0097044 3.0659171e-05 0)
(0.8565126 0.0056726448 -2.082511e-24)
(0.86940027 -0.0097528644 -1.008805e-24)
(0.89140028 -0.025974033 0)
(0.91430769 -0.016058627 -1.9195755e-23)
(0.92204839 0.027170644 4.416744e-24)
(0.90990766 0.058342345 0)
(0.89666655 0.046356755 4.4980222e-23)
(0.90323749 -0.0082111787 9.2046736e-23)
(0.94696037 -0.07111259 0)
(1.0086294 -0.077055595 0)
(1.0453435 -0.047648273 0)
(1.0550563 0.0098174266 0)
(1.0370238 0.059483949 0)
(0.99699364 0.064383521 0)
(0.97498369 0.040237488 0)
(0.97492415 0.0088153358 0)
(0.98938515 -0.010755308 0)
(1.0052307 -0.015012625 0)
(1.0155535 -0.011151778 0)
(1.0192459 -0.004405573 0)
(1.0179901 0.00067208132 0)
(1.0148102 0.0027673849 0)
(1.0120866 0.0024659026 0)
(1.0106434 0.0011869116 0)
(1.0102741 -0.00024107632 0)
(1.0104994 -0.0013680193 0)
(1.0109926 -0.0020160649 0)
(1.0114841 -0.00225798 0)
(1.0118525 -0.0022154733 0)
(1.0120578 -0.0019910524 0)
(1.0120971 -0.0016613617 0)
(1.0119833 -0.001284569 0)
(1.0117399 -0.00090681263 0)
(1.0113988 -0.00056434564 0)
(1.010999 -0.00028328835 0)
(1.0105828 -8.0082593e-05 0)
(1.0101953 3.9128741e-05 0)
(1.0098824 7.6412809e-05 0)
(1.00969 4.0250176e-05 0)
(0.8547654 0.0047951085 0)
(0.86505415 -0.011711165 0)
(0.88211642 -0.027956276 1.0399693e-24)
(0.90194561 -0.017191906 0)
(0.90927372 0.029678657 6.847668e-25)
(0.89882758 0.062729347 5.72424e-23)
(0.88710968 0.05062348 -7.0139225e-23)
(0.89302037 -0.0084559348 -1.2550324e-22)
(0.93465354 -0.077891432 0)
(0.99842754 -0.087389223 0)
(1.0390626 -0.048186494 0)
(1.0470024 0.012409222 0)
(1.0204196 0.073427432 0)
(0.97825009 0.080338265 0)
(0.95652534 0.048982491 0)
(0.96259727 0.0097985976 0)
(0.9819127 -0.015489499 0)
(1.0029183 -0.021369058 0)
(1.0169738 -0.015937681 0)
(1.0225053 -0.0069607629 0)
(1.0211314 0.00072982827 0)
(1.0167133 0.0040965703 0)
(1.0126436 0.004109744 0)
(1.0103027 0.0023988056 0)
(1.0096251 0.00043869865 0)
(1.0098461 -0.0011776659 0)
(1.0104951 -0.0021637987 0)
(1.0111928 -0.0026004389 0)
(1.0117588 -0.0026505571 0)
(1.0121357 -0.0024579281 0)
(1.0123189 -0.0021220136 0)
(1.0123218 -0.0017111761 0)
(1.0121654 -0.0012780413 0)
(1.0118781 -0.00086467924 0)
(1.0114956 -0.00050394335 0)
(1.0110592 -0.00021869846 0)
(1.0106131 -2.1583645e-05 0)
(1.0102027 8.4801044e-05 0)
(1.0098738 0.00010501049 0)
(1.0096717 4.993774e-05 0)
(0.86372578 -0.013382151 -2.5890029e-26)
(0.85608854 0.0038697386 0)
(0.87492261 -0.029545054 -3.6090439e-25)
(0.89076163 -0.018167476 -1.6365313e-23)
(0.89744653 0.031942333 -8.5598815e-24)
(0.88864583 0.066646837 -5.2729042e-23)
(0.87844691 0.054640652 9.7454611e-24)
(0.88343537 -0.0083437229 -1.9563531e-23)
(0.92233447 -0.08520536 1.7579515e-22)
(0.98486363 -0.09676344 0)
(1.0301499 -0.055472745 -1.0932083e-21)
(1.0381002 0.019724305 0)
(1.0070288 0.086632443 0)
(0.96161682 0.095439921 0)
(0.93468334 0.058307784 0)
(0.94571896 0.0097040632 0)
(0.9731131 -0.021795489 0)
(1.0000876 -0.028948338 0)
(1.0187713 -0.022475318 0)
(1.0267038 -0.01014926 0)
(1.0254303 0.0004623386 0)
(1.0194473 0.0060210995 0)
(1.013507 0.0063670953 0)
(1.0098973 0.0042039221 0)
(1.0086842 0.0014439667 0)
(1.0089197 -0.00079342813 0)
(1.0097427 -0.0022736432 0)
(1.0107058 -0.0029668798 0)
(1.0115172 -0.0031350307 0)
(1.0121 -0.002985122 0)
(1.0124536 -0.0026496216 0)
(1.0125971 -0.0022113948 0)
(1.0125535 -0.00172808 0)
(1.0123483 -0.0012463374 0)
(1.0120134 -0.00080429851 0)
(1.0115874 -0.00043145059 0)
(1.0111138 -0.00014686877 0)
(1.010638 4.06075e-05 0)
(1.0102053 0.00013177199 0)
(1.009861 0.00013409044 0)
(1.0096499 5.9575779e-05 0)
(0.87044794 -0.03067865 -3.6796986e-25)
(0.86539389 -0.014720269 0)
(0.8605352 0.0028644814 -1.6940305e-23)
(0.88146994 -0.018988556 1.6353944e-23)
(0.88725591 0.033803911 6.1711409e-24)
(0.88009784 0.069965785 1.0466527e-22)
(0.87131151 0.058229458 -6.3639824e-23)
(0.87499548 -0.0081723141 2.3746818e-24)
(0.9101818 -0.092289252 9.420081e-23)
(0.97015728 -0.10584862 -9.2787906e-23)
(1.0181874 -0.064694564 -1.2250576e-21)
(1.027663 0.022511408 1.1440145e-21)
(0.99451989 0.10002992 0)
(0.949801 0.10874271 0)
(0.91951456 0.066823835 0)
(0.92587243 0.0082846647 0)
(0.96249362 -0.029789285 0)
(0.99689537 -0.038706407 0)
(1.0209161 -0.030184485 0)
(1.0320854 -0.014779178 0)
(1.031105 0.00027095166 0)
(1.0232291 0.008297191 0)
(1.01482 0.009611269 0)
(1.0093856 0.0067223282 0)
(1.0073873 0.0029380849 0)
(1.0075929 -0.00021614403 0)
(1.0086691 -0.0023145731 0)
(1.0099741 -0.0033620603 0)
(1.0111001 -0.0036870682 0)
(1.0119352 -0.0035859266 0)
(1.0124879 -0.0032511315 0)
(1.0127943 -0.0027880679 0)
(1.0128857 -0.0022598393 0)
(1.0127881 -0.0017137573 0)
(1.0125293 -0.0011915314 0)
(1.012144 -0.00072789037 0)
(1.0116734 -0.00034880427 0)
(1.0111624 -6.9467225e-05 0)
(1.0106573 0.00010529289 0)
(1.0102031 0.00017955681 0)
(1.0098444 0.00016307705 0)
(1.0096249 6.910157e-05 0)
(0.87473054 -0.019604351 2.1213813e-24)
(0.8689256 -0.03134202 3.4182236e-24)
(0.86996317 -0.01576619 0)
(0.86774165 0.001855751 -3.071303e-24)
(0.87936522 0.035186785 -3.4671932e-24)
(0.87388444 0.072601613 -4.7212075e-23)
(0.8662947 0.061272916 0)
(0.86825325 -0.007992162 -2.3590603e-24)
(0.89847995 -0.098765433 -1.0660415e-22)
(0.95443358 -0.11501548 9.1566949e-23)
(1.0030668 -0.072120021 1.316078e-21)
(1.0172118 0.017953782 1.2805053e-21)
(0.98174644 0.11223566 0)
(0.93791965 0.11978824 0)
(0.90905798 0.075814006 0)
(0.90927837 0.0047183334 0)
(0.95062375 -0.039872661 0)
(0.99315458 -0.049883626 0)
(1.0235425 -0.040197544 0)
(1.0386336 -0.02020343 0)
(1.0384751 -0.00061496479 0)
(1.0283503 0.011585604 0)
(1.016665 0.01377871 0)
(1.0087765 0.01033328 0)
(1.0056126 0.005009287 0)
(1.0057314 0.00063397649 0)
(1.0071803 -0.0022937132 0)
(1.0089349 -0.0038389712 0)
(1.0104785 -0.0043396596 0)
(1.0116276 -0.0042837901 0)
(1.0124145 -0.0039399073 0)
(1.0129046 -0.0034470067 0)
(1.0131487 -0.0028752942 0)
(1.0131794 -0.0022698403 0)
(1.0130223 -0.0016707374 0)
(1.0127063 -0.0011161071 0)
(1.0122687 -0.00063773784 0)
(1.0117527 -0.00025802783 0)
(1.0112048 1.2138407e-05 0)
(1.0106711 0.00017158765 0)
(1.0101965 0.0002275685 0)
(1.0098242 0.00019179202 0)
(1.0095971 7.851995e-05 0)
(0.87429314 0.035975571 -3.2373115e-24)
(0.87103545 -0.020090146 -1.5053571e-24)
(0.87060649 -0.031626208 -2.8222191e-24)
(0.87704304 -0.016398584 -1.7866038e-24)
(0.87717093 0.00082072037 6.8612492e-23)
(0.87049732 0.074528455 4.4360948e-23)
(0.86381459 0.063839471 2.0100697e-23)
(0.86342706 -0.0077918937 0)
(0.88808288 -0.10450185 9.6508295e-23)
(0.93803307 -0.1233273 -3.5332056e-22)
(0.98577283 -0.080492266 0)
(1.001907 0.018164941 -1.560648e-21)
(0.97247158 0.11816928 0)
(0.92454334 0.13376255 0)
(0.89971852 0.080440361 0)
(0.89661969 0.0039804037 0)
(0.93769747 -0.053041619 0)
(0.98967839 -0.063568015 0)
(1.0264243 -0.05133693 0)
(1.0466015 -0.027738399 0)
(1.0477298 -0.0013622415 0)
(1.0350539 0.015230051 0)
(1.0192394 0.019632757 0)
(1.007957 0.015054859 0)
(1.0032333 0.0079696089 0)
(1.0031592 0.0017687369 0)
(1.0051387 -0.0022295731 0)
(1.0075076 -0.0044076891 0)
(1.0096104 -0.0051428541 0)
(1.0111675 -0.0051219959 0)
(1.012235 -0.0047410439 0)
(1.012928 -0.0041987468 0)
(1.013336 -0.0035772323 0)
(1.013509 -0.0029153272 0)
(1.0134739 -0.0022448129 0)
(1.0132533 -0.0016020004 0)
(1.0128776 -0.0010227403 0)
(1.0123863 -0.00053618885 0)
(1.0118249 -0.00016078228 0)
(1.0112406 9.6606078e-05 0)
(1.0106796 0.00023873727 0)
(1.0101857 0.00027543761 0)
(1.0098007 0.00022021858 0)
(1.0095666 8.7799578e-05 0)
(0.87036015 0.07557986 1.9074175e-24)
(0.87229508 0.03602765 2.2119255e-24)
(0.87096899 -0.020326103 1.4848118e-24)
(0.87469516 -0.031535523 1.8426837e-24)
(0.88639397 -0.016668163 -1.1404183e-23)
(0.88833869 -0.0002194584 -4.5043447e-23)
(0.86376531 0.065695608 -4.994482e-23)
(0.86105739 -0.0073561946 -3.1415884e-23)
(0.87867199 -0.10938973 -1.2349064e-22)
(0.92179674 -0.13043835 3.3779333e-22)
(0.96650951 -0.088326153 -1.3343965e-21)
(0.98588566 0.016417188 5.7427794e-22)
(0.95711786 0.12761707 0)
(0.91509622 0.14609351 -2.9209412e-23)
(0.8867744 0.093892143 -8.5459189e-22)
(0.88497906 -0.0019892141 0)
(0.92559744 -0.065186969 0)
(0.98541443 -0.078357774 0)
(1.0299264 -0.065515845 0)
(1.0559226 -0.036047118 0)
(1.0591956 -0.0033912348 0)
(1.0436951 0.020415037 0)
(1.0225753 0.026792361 0)
(1.006903 0.021647373 0)
(1.0000244 0.011783204 0)