/*--------------------------------*- C++ -*----------------------------------*\
| =========                 |                                                 |
| \\      /  F ield         | OpenFOAM: The Open Source CFD Toolbox           |
|  \\    /   O peration     | Version:  5.0                                   |
|   \\  /    A nd           | Web:      www.OpenFOAM.org                      |
|    \\/     M anipulation  |                                                 |
\*---------------------------------------------------------------------------*/
FoamFile
{
    version     2.0;
    format      ascii;
    class       volVectorField;
    location    "100";
    object      U_0;
}
// * * * * * * * * * * * * * * * * * * * * * * * * * * * * * * * * * * * * * //

dimensions      [0 1 -1 0 0 0 0];

internalField   nonuniform List<vector> 
9520
(
(1.0111382 8.5690991e-05 0)
(1.0112772 0.00025516475 0)
(1.0108752 9.4691208e-05 0)
(1.0115263 0.0004236953 0)
(1.0110032 0.00028132892 0)
(1.010754 9.5465791e-05 0)
(1.0118625 0.0005951245 0)
(1.011232 0.00046554569 0)
(1.0108778 0.00028323774 0)
(1.0105775 9.5063242e-05 0)
(1.0122643 0.00077286641 0)
(1.0115397 0.00065112475 0)
(1.0110992 0.00046797271 0)
(1.0106956 0.00028195639 0)
(1.0104364 9.1847679e-05 0)
(1.0127133 0.00095842647 0)
(1.0119059 0.0008415573 0)
(1.0113964 0.00065340505 0)
(1.0109056 0.00046505427 0)
(1.0105502 0.00027242714 0)
(1.0102973 8.700223e-05 0)
(1.0131937 0.0011526521 0)
(1.0123131 0.0010386457 0)
(1.0117492 0.00084252161 0)
(1.011187 0.00064767232 0)
(1.0107525 0.00044830016 0)
(1.0104072 0.00025776372 0)
(1.0101745 8.1197325e-05 0)
(1.0136927 0.0013561171 0)
(1.012746 0.0012439667 0)
(1.0121401 0.0010370298 0)
(1.0115202 0.00083254505 0)
(1.0110233 0.00062258703 0)
(1.0106027 0.00042311542 0)
(1.0102817 0.00024010335 0)
(1.010064 7.5229211e-05 0)
(1.0142011 0.0015675486 0)
(1.0131921 0.0014593335 0)
(1.0125532 0.0012384145 0)
(1.0118878 0.0010212536 0)
(1.0113433 0.00079762813 0)
(1.010864 0.00058571804 0)
(1.0104722 0.00039346394 0)
(1.0101688 0.00022187809 0)
(1.0099659 6.950439e-05 0)
(1.0147131 0.0017894415 0)
(1.0136415 0.0016860111 0)
(1.0129744 0.0014480592 0)
(1.0122739 0.0012150837 0)
(1.0116951 0.00097476996 0)
(1.0111721 0.00074728354 0)
(1.0107267 0.0005429944 0)
(1.0103555 0.00036342631 0)
(1.0100688 0.00020460792 0)
(1.0098786 6.4009276e-05 0)
(1.0152281 0.0020156477 0)
(1.014088 0.0019294061 0)
(1.0133913 0.0016668875 0)
(1.0126648 0.0014149239 0)
(1.0120633 0.0011551307 0)
(1.01151 0.00090852345 0)
(1.0110273 0.00068977563 0)
(1.0106052 0.0005004876 0)
(1.0102522 0.00033541272 0)
(1.0099797 0.00018848788 0)
(1.0098013 5.8460824e-05 0)
(1.0157478 0.0022599314 0)
(1.014525 0.0021888525 0)
(1.0137934 0.0018988695 0)
(1.0130478 0.0016209901 0)
(1.012434 0.0013397132 0)
(1.0118618 0.0010699616 0)
(1.0113569 0.00083344759 0)
(1.010901 0.00063359857 0)
(1.0104984 0.00046180957 0)
(1.0101598 0.00030946789 0)
(1.0099005 0.00017257591 0)
(1.0097335 5.2522298e-05 0)
(1.0162707 0.0025038465 0)
(1.0149473 0.0024846329 0)
(1.0141662 0.0021425772 0)
(1.0134118 0.0018349574 0)
(1.0127951 0.0015287784 0)
(1.0122133 0.0012324741 0)
(1.0116999 0.00097321952 0)
(1.0112271 0.0007612866 0)
(1.0107916 0.00058403659 0)
(1.0104028 0.00042694679 0)
(1.0100772 0.0002839067 0)
(1.0098306 0.00015550856 0)
(1.0096753 4.594761e-05 0)
(1.0167656 0.002801924 0)
(1.0153265 0.0028066986 0)
(1.0144971 0.0024127365 0)
(1.0137463 0.0020539642 0)
(1.0131355 0.0017236206 0)
(1.0125516 0.0013967255 0)
(1.0120414 0.0011081767 0)
(1.0115688 0.00088118463 0)
(1.0111176 0.00070004234 0)
(1.0106937 0.00054129425 0)
(1.0103164 0.00039338862 0)
(1.0100037 0.00025660235 0)
(1.0097704 0.00013625238 0)
(1.0096273 3.8569851e-05 0)
(1.0172035 0.0030868242 0)
(1.0156281 0.0032005089 0)
(1.0147606 0.0026886023 0)
(1.0140431 0.0022837526 0)
(1.0134466 0.0019215927 0)
(1.0128659 0.0015652553 0)
(1.012367 0.0012371839 0)
(1.0119123 0.00098967552 0)
(1.0114641 0.00080647841 0)
(1.0110203 0.00065069639 0)
(1.0106038 0.0005018241 0)
(1.010238 0.00035786985 0)
(1.0099393 0.00022587981 0)
(1.0097201 0.00011449051 0)
(1.0095895 3.0391527e-05 0)
(1.0175968 0.0034823167 0)
(1.0158327 0.0036023774 0)
(1.0149514 0.003005152 0)
(1.0142895 0.0024991724 0)
(1.0137222 0.0021258135 0)
(1.0131493 0.001738877 0)
(1.0126644 0.0013612028 0)
(1.0122437 0.0010822631 0)
(1.0118198 0.00089803741 0)
(1.0113721 0.000752144 0)
(1.0109282 0.00060848334 0)
(1.0105195 0.00046066835 0)
(1.0101675 0.00031749754 0)
(1.0098846 0.00019088875 0)
(1.0096803 9.0705175e-05 0)
(1.0095617 2.2022065e-05 0)
(1.0180242 0.0038046534 0)
(1.0159611 0.0041166945 0)
(1.0150423 0.003294399 0)
(1.0144841 0.0027303725 0)
(1.0139589 0.0023212415 0)
(1.0133948 0.0019231192 0)
(1.0129214 0.0014797251 0)
(1.0125495 0.001154043 0)
(1.0121746 0.00096766509 0)
(1.0117413 0.00084091383 0)
(1.0112813 0.00071212838 0)
(1.010838 0.00056624763 0)
(1.0104409 0.00041353816 0)
(1.0101057 0.00027058742 0)
(1.0098404 0.00015215582 0)
(1.0096507 6.6351788e-05 0)
(1.0095435 1.4460271e-05 0)
(1.0184294 0.0043366386 0)
(1.0160388 0.0045570717 0)
(1.0150871 0.0036428519 0)
(1.014615 0.0028964792 0)
(1.0141692 0.0025353038 0)
(1.0136033 0.0021122574 0)
(1.0131297 0.0016024111 0)
(1.0128138 0.0012000731 0)
(1.0125157 0.001005302 0)
(1.0121213 0.00090945578 0)
(1.0116575 0.00081015875 0)
(1.0111855 0.00067527714 0)
(1.0107489 0.0005165938 0)
(1.0103695 0.00035741449 0)
(1.0100544 0.0002176297 0)
(1.0098071 0.00011209433 0)
(1.0096308 4.3424443e-05 0)
(1.009533 7.9667184e-06 0)
(1.0187798 0.00467341 0)
(1.01607 0.0051870732 0)
(1.015091 0.0038507008 0)
(1.0147466 0.0030615113 0)
(1.0143538 0.0026861979 0)
(1.013788 0.0023292255 0)
(1.0132862 0.0017284952 0)
(1.0130231 0.0012182843 0)
(1.0128368 0.0010045227 0)
(1.0125038 0.00094890688 0)
(1.012054 0.00089749002 0)
(1.0115578 0.00078800179 0)
(1.0110833 0.00062930818 0)
(1.010664 0.00045407393 0)
(1.0103077 0.00029142745 0)
(1.0100147 0.00016188661 0)
(1.0097842 7.3938907e-05 0)
(1.0096193 2.3103737e-05 0)
(1.0095287 2.4002114e-06 0)
(1.0190842 0.0054023571 0)
(1.0159872 0.00571351 0)
(1.0150422 0.0042165728 0)
(1.0148427 0.0031056348 0)
(1.0145449 0.0028577391 0)
(1.0139684 0.0025259807 0)
(1.0133951 0.0018769236 0)
(1.0131632 0.0011982388 0)
(1.0131249 0.00094225242 0)
(1.012904 0.00094896371 0)
(1.0124746 0.00096836359 0)
(1.011955 0.00090355631 0)
(1.0114392 0.00075485544 0)
(1.0109798 0.00056486763 0)
(1.0105877 0.00037684743 0)
(1.0102581 0.00021946288 0)
(1.0099866 0.00010798095 0)
(1.0097705 3.9653123e-05 0)
(1.0096147 5.556167e-06 0)
(1.0095292 -2.1103053e-06 0)
(1.019284 0.0057195902 0)
(1.0157449 0.0063930862 0)
(1.0148441 0.0043609889 0)
(1.0149237 0.0032533138 0)
(1.0147264 0.0029608226 0)
(1.0141434 0.0028116003 0)
(1.0134493 0.0020388313 0)
(1.0132372 0.0011714324 0)
(1.0133647 0.00079864433 0)
(1.0133193 0.0008812725 0)
(1.0129214 0.0010050972 0)
(1.0123849 0.0010226026 0)
(1.0118158 0.000897508 0)
(1.01131 0.00069484985 0)
(1.0108832 0.0004783523 0)
(1.0105239 0.0002885827 0)
(1.0102219 0.00014890262 0)
(1.009969 5.8660525e-05 0)
(1.0097648 9.4022184e-06 0)
(1.0096161 -9.5198189e-06 0)
(1.0095345 -6.5522798e-06 0)
(1.0193494 0.0067647965 0)
(1.0152297 0.007084659 0)
(1.0144892 0.0045722488 0)
(1.0151218 0.0031129318 0)
(1.0150389 0.0031624238 0)
(1.0142567 0.0030719989 0)
(1.0134085 0.0023172563 0)
(1.0131763 0.0011154698 0)
(1.0135096 0.00057241757 0)
(1.0137436 0.00071935001 0)
(1.0134278 0.001018451 0)
(1.0128484 0.001134382 0)
(1.0122184 0.0010644993 0)
(1.0116499 0.00085138367 0)
(1.0111846 0.00060122039 0)
(1.0107999 0.00037358265 0)
(1.0104759 0.00019985366 0)
(1.0101982 8.313251e-05 0)
(1.009961 1.3963075e-05 0)
(1.0097663 -1.7466632e-05 0)
(1.0096222 -2.2485617e-05 0)
(1.0095422 -1.02001e-05 0)
(1.0194096 0.0070098173 0)
(1.0145759 0.0076895994 0)
(1.0140298 0.0047906075 0)
(1.0153399 0.0030580527 0)
(1.0155214 0.0030912523 0)
(1.0143416 0.0035877327 0)
(1.0131016 0.0025956468 0)
(1.0129577 0.001099119 0)
(1.0136051 0.00020474654 0)
(1.0141822 0.00043626647 0)
(1.014012 0.00096647176 0)
(1.0133667 0.00125903 0)
(1.0126482 0.0012619421 0)
(1.0119972 0.0010452856 0)
(1.0114831 0.00075266856 0)
(1.0110749 0.00047869692 0)
(1.0107358 0.00026448368 0)
(1.0104431 0.0001157816 0)
(1.010186 2.2027251e-05 0)
(1.009962 -2.6893406e-05 0)
(1.009774 -4.1547801e-05 0)
(1.0096324 -3.4802022e-05 0)
(1.0095538 -1.4138699e-05 0)
(1.0187287 0.0083748282 0)
(1.0138898 0.0086539212 0)
(1.0132518 0.0043369105 0)
(1.0157975 0.0025600201 0)
(1.0161679 0.0035296071 0)
(1.0144617 0.0040606015 0)
(1.0125775 0.0031418386 0)
(1.0124578 0.0010085692 0)
(1.013566 -0.00025444448 0)
(1.0146322 -4.3481712e-05 0)
(1.0147038 0.00084304797 0)
(1.0139842 0.001387421 0)
(1.013111 0.0015038664 0)
(1.0123512 0.0012924935 0)
(1.011769 0.00094260947 0)
(1.0113371 0.00060858708 0)
(1.0109898 0.00034569922 0)
(1.0106909 0.00015973032 0)
(1.0104244 3.6151543e-05 0)
(1.0101848 -3.5226049e-05 0)
(1.009971 -6.4549243e-05 0)
(1.0097871 -6.403105e-05 0)
(1.0096463 -4.6568122e-05 0)
(1.0095674 -1.7845562e-05 0)
(1.0137899 0.0085407858 0)
(1.0129454 0.0091902484 0)
(1.0125484 0.004855614 0)
(1.0160001 0.0021368728 0)
(1.0171388 0.0030311849 0)
(1.0146457 0.0051688461 0)
(1.0117421 0.0037272674 0)
(1.0116277 0.00099062175 0)
(1.0133363 -0.00094240608 0)
(1.0151035 -0.00071235647 0)
(1.0155358 0.00057715872 0)
(1.0147396 0.0015450159 0)
(1.0136352 0.0018100946 0)
(1.012701 0.0016113381 0)
(1.0120315 0.0011853398 0)
(1.0115736 0.00076869631 0)
(1.0112263 0.00044575357 0)
(1.0109301 0.00021688249 0)
(1.010663 5.9390229e-05 0)
(1.010419 -3.9984992e-05 0)
(1.0101938 -8.9249484e-05 0)
(1.0099871 -0.00010028671 0)
(1.0098054 -8.6132137e-05 0)
(1.0096635 -5.7969951e-05 0)
(1.0095837 -2.1518544e-05 0)
(1.0025575 0.0096317929 0)
(1.0072342 0.010276245 0)
(1.0112858 0.0035085702 0)
(1.0166622 0.0010810071 0)
(1.0182466 0.0040239237 0)
(1.0149135 0.0060196981 0)
(1.0107504 0.0047975223 0)
(1.0103488 0.00084891986 0)
(1.0128596 -0.001793943 0)
(1.0156009 -0.0017312374 0)
(1.0165516 0.00017549416 0)
(1.0156882 0.0016969382 0)
(1.0142524 0.0022347438 0)
(1.0130398 0.0020289893 0)
(1.0122552 0.0015015342 0)
(1.0117644 0.0009635001 0)
(1.0114323 0.00056417231 0)
(1.0111509 0.00028754541 0)
(1.0108914 9.3631957e-05 0)
(1.0106509 -3.7839275e-05 0)
(1.010426 -0.0001131782 0)
(1.0102122 -0.00014163005 0)
(1.0100105 -0.00013584752 0)
(1.0098283 -0.00010755104 0)
(1.0096836 -6.8718707e-05 0)
(1.0096018 -2.4659436e-05 0)
(0.98975404 0.0098695233 0)
(0.99754024 0.0099444344 0)
(1.0081862 0.0042968668 0)
(1.0166308 0.00038100415 0)
(1.0196219 0.0028634072 0)
(1.0152961 0.0080280732 0)
(1.0091857 0.0059928398 0)
(1.0085614 0.00087030587 0)
(1.0120227 -0.0030497519 0)
(1.0161216 -0.0030459049 0)
(1.0178207 -0.00050798784 0)
(1.0169048 0.0019039505 0)
(1.0149976 0.0027894828 0)
(1.0133763 0.0026027254 0)
(1.0124013 0.0019073369 0)
(1.011891 0.0012031317 0)
(1.0115917 0.00069795837 0)
(1.0113438 0.00036790305 0)
(1.0111022 0.00013891487 0)
(1.0108708 -2.6020936e-05 0)
(1.0106535 -0.00013263714 0)
(1.0104449 -0.00018560541 0)
(1.0102401 -0.00019449727 0)
(1.0100403 -0.0001705289 0)
(1.0098554 -0.00012776152 0)
(1.009706 -7.8038532e-05 0)
(1.0096213 -2.6868728e-05 0)
(0.97751501 0.010053055 0)
(0.98682405 0.010093284 0)
(1.0024274 0.0018574305 0)
(1.0163046 -0.0011518629 0)
(1.0202293 0.0043735575 0)
(1.0158306 0.009484118 0)
(1.007515 0.0078745435 0)
(1.0060835 0.00081577105 0)
(1.0107678 -0.0045246989 0)
(1.0166443 -0.0049707338 0)
(1.0194179 -0.0013983703 0)
(1.0184712 0.0020566819 0)
(1.0159317 0.0035902432 0)
(1.0136936 0.003378592 0)
(1.0124429 0.0024413338 0)
(1.0119169 0.0014917072 0)
(1.0116825 0.00083710937 0)
(1.0115 0.0004489744 0)
(1.0112907 0.000191467 0)
(1.0110729 -3.2808558e-06 0)
(1.0108663 -0.00014369272 0)
(1.0106701 -0.00022801815 0)
(1.0104759 -0.00025986352 0)
(1.0102772 -0.00024687565 0)
(1.0100764 -0.00020366893 0)
(1.0098861 -0.00014567979 0)
(1.0097303 -8.5204302e-05 0)
(1.0096415 -2.7778054e-05 0)
(0.96591894 0.010133092 0)
(0.97591043 0.0088607832 0)
(0.99499053 0.00054049748 0)
(1.0142486 -0.0026770431 0)
(1.0203361 0.0023333502 0)
(1.0167164 0.012574374 0)
(1.0048201 0.010045888 0)
(1.0028542 0.00094550556 0)
(1.0089821 -0.0065922821 0)
(1.0171599 -0.0073277931 0)
(1.0214461 -0.0027987843 0)
(1.0205045 0.0023154201 0)
(1.0171072 0.0046046889 0)
(1.0140087 0.0044736236 0)
(1.0123323 0.0031388269 0)
(1.0117904 0.001832739 0)
(1.0116787 0.00097033109 0)
(1.0116088 0.000512779 0)
(1.0114565 0.00024131622 0)
(1.0112567 2.9600372e-05 0)
(1.011059 -0.00014263759 0)
(1.0108769 -0.00026350606 0)
(1.0107014 -0.00032737597 0)
(1.0105191 -0.00033469208 0)
(1.0103231 -0.00029766247 0)
(1.0101179 -0.00023363486 0)
(1.0099196 -0.00015987426 0)
(1.0097554 -8.9172379e-05 0)
(1.0096612 -2.7228561e-05 0)
(0.95442845 0.010013826 0)
(0.96529947 0.0081447174 0)
(0.98699542 -0.0025238822 0)
(1.008777 -0.0045924898 0)
(1.0184275 0.0044242007 0)
(1.0168197 0.014658963 0)
(1.0028872 0.013002051 0)
(0.9985783 0.0012467006 0)
(1.0065305 -0.0089872732 0)
(1.0176682 -0.010636183 0)
(1.0239599 -0.0045074655 0)
(1.0231352 0.0024370759 0)
(1.018622 0.0060752212 0)
(1.0142894 0.0059208368 0)
(1.0120219 0.0040882117 0)
(1.0114449 0.0022221555 0)
(1.0115419 0.0010753488 0)
(1.0116558 0.00053033541 0)
(1.0116025 0.00027047616 0)
(1.0114286 6.7398936e-05 0)
(1.0112327 -0.00012609767 0)
(1.0110589 -0.0002855142 0)
(1.0109036 -0.00039050604 0)
(1.010748 -0.00042952719 0)
(1.0105744 -0.00040856155 0)
(1.010377 -0.00034465787 0)
(1.010164 -0.00025845684 0)
(1.0099549 -0.00016890486 0)
(1.0097809 -8.9258807e-05 0)
(1.0096797 -2.5245243e-05 0)
(0.94219431 0.0099569842 4.740539e-24)
(0.95474089 0.0065785223 0)
(0.97827744 -0.0044425524 0)
(1.0011315 -0.005446639 0)
(1.0105586 0.0035302824 0)
(1.0089778 0.018525149 0)
(0.9990633 0.017040574 0)
(0.99328402 0.0013749041 0)
(1.0034055 -0.012145099 0)
(1.0180929 -0.014513164 0)
(1.0271072 -0.0070521588 0)
(1.0265056 0.0027634621 0)
(1.0205378 0.0078617042 0)
(1.0145644 0.0079681753 0)
(1.0114111 0.005314159 0)
(1.0108028 0.0026925341 0)
(1.0112139 0.0011071959 0)
(1.0116291 0.00046424405 0)
(1.0117365 0.00024816881 0)
(1.0116023 9.8495305e-05 0)
(1.0113962 -9.1933089e-05 0)
(1.0112157 -0.00028608112 0)
(1.0110738 -0.00044022801 0)
(1.0109485 -0.00052441046 0)
(1.0108105 -0.00053243012 0)
(1.0106412 -0.00047850841 0)
(1.0104381 -0.00038514466 0)
(1.0102135 -0.00027612285 0)
(1.0099912 -0.00017166248 0)
(1.0098054 -8.5039901e-05 0)
(1.009696 -2.188469e-05 0)
(0.92887928 0.0097612626 -4.1707658e-24)
(0.94337661 0.0052958956 -4.9581272e-24)
(0.96972163 -0.0071143144 0)
(0.99320327 -0.0072297305 0)
(1.0002805 0.0076690354 0)
(0.99296032 0.022036162 0)
(0.98750181 0.021008213 0)
(0.98627931 0.0026349029 0)
(0.99915544 -0.015841312 0)
(1.0185533 -0.019722953 0)
(1.0309035 -0.010014287 0)
(1.0307764 0.0028025713 0)
(1.0229913 0.010429112 0)
(1.014771 0.010570285 0)
(1.0104267 0.0070088713 0)
(1.0097392 0.0032085321 0)
(1.0106279 0.0010372299 0)
(1.0115064 0.00025183191 0)
(1.0118673 0.00013543883 0)
(1.0117987 0.0001030139 0)
(1.0115669 -3.9651562e-05 0)
(1.0113538 -0.00025539595 0)
(1.0112083 -0.00046472871 0)
(1.0111087 -0.0006092136 0)
(1.0110137 -0.00066257599 0)
(1.010889 -0.00063221486 0)
(1.0107186 -0.00054088351 0)
(1.010505 -0.00041641943 0)
(1.0102652 -0.00028503303 0)
(1.0100273 -0.00016740861 0)
(1.0098282 -7.6433355e-05 0)
(1.0097096 -1.7197039e-05 0)
(0.91541004 0.0094953131 4.1862902e-24)
(0.93111425 0.003602769 1.511416e-23)
(0.95971164 -0.0097113233 0)
(0.98526693 -0.0077224966 0)
(0.99130535 0.0088601519 0)
(0.97732317 0.028313503 0)
(0.96711959 0.024998445 0)
(0.97577541 0.0029359089 0)
(0.99379996 -0.020370405 0)
(1.0188043 -0.025625952 0)
(1.0355284 -0.014225367 0)
(1.0360805 0.0031558697 0)
(1.0260246 0.013445808 0)
(1.0149446 0.014185314 0)
(1.0089104 0.0091310724 0)
(1.0081321 0.0038642243 0)
(1.0096823 0.0007677898 0)
(1.0112624 -0.00017802186 0)
(1.0120179 -0.00012608823 0)
(1.0120416 6.2764568e-05 0)
(1.0117693 3.224655e-05 0)
(1.0114884 -0.00017972399 0)
(1.0113081 -0.00044803202 0)
(1.0112197 -0.0006695252 0)
(1.0111684 -0.00078888678 0)
(1.0111004 -0.00080004803 0)
(1.0109827 -0.00072401777 0)
(1.0108052 -0.00059208847 0)
(1.0105762 -0.00043630409 0)
(1.0103179 -0.0002841256 0)
(1.0100621 -0.0001558658 0)
(1.0098485 -6.3597478e-05 0)
(1.0097198 -1.1232245e-05 0)
(0.90218988 0.0091369504 0)
(0.91877974 0.001698637 -1.5138801e-23)
(0.94854676 -0.012473729 0)
(0.97584327 -0.0094644607 0)
(0.98208785 0.012955655 0)
(0.96569421 0.033060762 0)
(0.95030042 0.028167127 0)
(0.95988758 0.0034338696 0)
(0.98710639 -0.026297607 0)
(1.0194683 -0.033218973 0)
(1.0409135 -0.018792246 0)
(1.0425691 0.0030355057 0)
(1.0297718 0.017678536 0)
(1.0149708 0.018607358 0)
(1.0067539 0.012054641 0)
(1.0057824 0.0045309472 0)
(1.008283 0.00029327803 0)
(1.0108529 -0.00095193957 0)
(1.0122121 -0.0006196216 0)
(1.0124143 -6.7710072e-05 0)
(1.0120404 0.00011208886 0)
(1.0116468 -4.1498403e-05 0)
(1.0113811 -0.00036798889 0)
(1.0112761 -0.00068614663 0)
(1.011261 -0.00089762741 0)
(1.011257 -0.00097335854 0)
(1.0112088 -0.00093031702 0)
(1.0110902 -0.00080299019 0)
(1.0108991 -0.00062918926 0)
(1.01065 -0.0004433301 0)
(1.0103702 -0.00027291932 0)
(1.0100948 -0.00013713216 0)
(1.0098654 -4.6896857e-05 0)
(1.0097262 -4.1981724e-06 0)
(0.88966408 0.008676729 -1.9220523e-24)
(0.90668124 -0.00032015076 0)
(0.93683711 -0.015386271 -1.1554906e-23)
(0.96497245 -0.010938038 0)
(0.97205007 0.015256071 0)
(0.95484614 0.038617689 0)
(0.93798817 0.032359465 0)
(0.94507296 0.00028058681 0)
(0.97957364 -0.032679203 0)
(1.0196407 -0.041732757 0)
(1.0473112 -0.025410091 0)
(1.0502916 0.0035068096 0)
(1.0342171 0.022564243 0)
(1.0148566 0.02453296 0)
(1.0037366 0.015590121 0)
(1.0025237 0.0054459694 0)
(1.006261 -0.00060914506 0)
(1.01025 -0.0021457829 0)
(1.0124821 -0.0014651166 0)
(1.0129633 -0.00034118525 0)
(1.012467 0.00020775553 0)
(1.0118683 0.00016949285 0)
(1.0114442 -0.00019687463 0)
(1.0112753 -0.00063353165 0)
(1.0112786 -0.00096940257 0)
(1.0113407 -0.0011399479 0)
(1.0113759 -0.0011532184 0)
(1.0113374 -0.0010466907 0)
(1.0112094 -0.0008651124 0)
(1.0109982 -0.00065014962 0)
(1.0107249 -0.00043676432 0)
(1.0104209 -0.00025144855 0)
(1.0101244 -0.0001117487 0)
(1.0098786 -2.6729366e-05 0)
(1.0097283 3.4863754e-06 0)
(0.87832435 0.0081191087 4.085353e-24)
(0.89523124 -0.0024924645 2.3592421e-23)
(0.92483071 -0.018250546 1.1545499e-23)
(0.95293858 -0.012498917 -4.2893467e-23)
(0.96101384 0.017685793 -3.7274557e-23)
(0.9441991 0.04371515 0)
(0.92729289 0.034353012 0)
(0.93330018 -0.00069558262 0)
(0.9710143 -0.042158131 0)
(1.0190874 -0.050856568 0)
(1.0507457 -0.030382622 0)
(1.0575192 0.0030130172 0)
(1.0393901 0.02902668 0)
(1.0144268 0.031568729 0)
(0.99968311 0.020323948 0)
(0.99807766 0.0062990908 0)
(1.0035118 -0.0018378602 0)
(1.0093712 -0.0040080908 0)
(1.012864 -0.0027563124 0)
(1.0137859 -0.00084844849 0)
(1.0131476 0.00032117284 0)
(1.0121864 0.00047268081 0)
(1.0115322 0.00011106337 0)
(1.0112185 -0.00047707848 0)
(1.0112084 -0.00097926945 0)
(1.0113329 -0.0012845097 0)
(1.0114634 -0.0013838124 0)
(1.0115243 -0.0013190256 0)
(1.0114836 -0.0011435157 0)
(1.0113376 -0.00090751459 0)
(1.0111005 -0.00065388141 0)
(1.0107993 -0.00041655784 0)
(1.010469 -0.00022026129 0)
(1.0101503 -8.0386894e-05 0)
(1.0098875 -3.5342466e-06 0)
(1.0097263 1.2177035e-05 0)
(0.86867106 0.0074668983 -3.2276587e-24)
(0.88485315 -0.0047231022 -3.4451816e-23)
(0.91290642 -0.021049655 0)
(0.9402729 -0.0141666 1.2243287e-22)
(0.94865105 0.020459528 3.7080088e-23)
(0.93371291 0.048555352 -3.2517078e-23)
(0.91696616 0.038946673 -1.723005e-23)
(0.92351622 -0.0051791493 0)
(0.96272181 -0.050922162 0)
(1.0165496 -0.060210195 0)
(1.0512872 -0.038362308 0)
(1.0594907 0.003945809 0)
(1.0446884 0.036720912 0)
(1.0132285 0.040518128 0)
(0.99436613 0.025919832 0)
(0.99221942 0.0075225993 0)
(0.99978901 -0.0038379878 0)
(1.0082007 -0.0065365248 0)
(1.0133959 -0.004732284 0)
(1.0149759 -0.0016423718 0)
(1.0141883 0.00040051247 0)
(1.0127227 0.00095398747 0)
(1.0116387 0.00057668502 0)
(1.0111179 -0.0001624298 0)
(1.0110374 -0.0008921774 0)
(1.0112128 -0.0013861713 0)
(1.0114489 -0.0016109846 0)
(1.0116287 -0.0016142642 0)
(1.0116988 -0.0014624885 0)
(1.0116442 -0.0012166726 0)
(1.0114721 -0.00092858981 0)
(1.011204 -0.00064016704 0)
(1.0108718 -0.00038326075 0)
(1.0105136 -0.00018027206 0)
(1.0101718 -4.3990155e-05 0)
(1.009892 2.1691383e-05 0)
(1.00972 2.1214516e-05 0)
(0.86120016 0.006744477 2.5780079e-24)
(0.87597165 -0.0069319049 7.3794316e-24)
(0.90147443 -0.023666956 2.2247311e-23)
(0.92720725 -0.015633694 -4.0257191e-23)
(0.9358813 0.022927417 -8.2563583e-23)
(0.92224727 0.053533081 5.4290444e-23)
(0.9072311 0.043134972 -2.006748e-22)
(0.91292011 -0.0059464088 2.9250383e-23)
(0.95582362 -0.060828644 0)
(1.0121327 -0.069807421 0)
(1.049562 -0.041557221 0)
(1.0591542 0.0028133485 0)
(1.0481242 0.046631691 0)
(1.0090694 0.051217576 0)
(0.98717616 0.033045423 0)
(0.98464394 0.0086164398 0)
(0.99498664 -0.0063283312 0)
(1.0066109 -0.01020601 0)
(1.014123 -0.0074182669 0)
(1.0166842 -0.0029262794 0)
(1.0157337 0.00048166649 0)
(1.0135752 0.0016273862 0)
(1.0118327 0.0013099807 0)
(1.0109604 0.00036125009 0)
(1.0107472 -0.00066825199 0)
(1.0109556 -0.0014204088 0)
(1.0113077 -0.0018229681 0)
(1.0116279 -0.001927313 0)
(1.0118331 -0.0018197055 0)
(1.0118954 -0.0015777144 0)
(1.0118157 -0.0012637486 0)
(1.0116103 -0.00092784412 0)
(1.0113069 -0.00060952259 0)
(1.0109411 -0.00033794599 0)
(1.0105538 -0.00013275421 0)
(1.0101888 -3.4297339e-06 0)
(1.009892 4.8793995e-05 0)
(1.0097093 3.0904063e-05 0)
(0.85638799 0.0059744214 -2.4007816e-24)
(0.86905126 -0.0090302215 -1.0416026e-24)
(0.89095467 -0.02600661 0)
(0.9142518 -0.017025474 -1.8361508e-23)
(0.92273735 0.02549863 4.4564429e-24)
(0.91089216 0.058220955 0)
(0.89715985 0.047613364 4.5022671e-23)
(0.90264852 -0.0056064306 9.6926729e-23)
(0.9450683 -0.069651596 0)
(1.0069624 -0.077605654 0)
(1.0449973 -0.049394989 0)
(1.0556537 0.0070979001 0)
(1.0393862 0.057796261 0)
(0.99927118 0.064399777 0)
(0.97607168 0.041311837 0)
(0.97496151 0.010068571 0)
(0.98884181 -0.010023272 0)
(1.0046104 -0.014799252 0)
(1.0150852 -0.011277554 0)
(1.0190205 -0.0046790173 0)
(1.0179723 0.00042450071 0)
(1.014893 0.0026148333 0)
(1.0121858 0.0023960312 0)
(1.0107193 0.0011701125 0)
(1.0103232 -0.0002326234 0)
(1.0105267 -0.0013555541 0)
(1.0110088 -0.0020074883 0)
(1.0114964 -0.002254089 0)
(1.0118642 -0.0022143472 0)
(1.0120696 -0.0019908314 0)
(1.0121087 -0.0016610369 0)
(1.0119942 -0.0012838246 0)
(1.0117496 -0.00090572182 0)
(1.0114074 -0.00056309888 0)
(1.0110063 -0.00028203981 0)
(1.0105892 -7.893671e-05 0)
(1.010201 4.0091832e-05 0)
(1.0098875 7.7106199e-05 0)
(1.0096948 4.055175e-05 0)
(0.85462406 0.0051090481 0)
(0.86475482 -0.010969834 0)
(0.88174297 -0.028022766 1.0736907e-24)
(0.90190784 -0.018242088 0)
(0.90990903 0.027874718 1.063e-24)
(0.89972172 0.062621672 5.8262547e-23)
(0.88758117 0.05196788 -6.9168507e-23)
(0.89247839 -0.0055534474 -1.2509198e-22)
(0.93283751 -0.076238159 0)
(0.99673199 -0.087999807 0)
(1.0387167 -0.050210202 0)
(1.0479588 0.0091926552 0)
(1.0230068 0.071456153 0)
(0.98080658 0.08046886 0)
(0.95774341 0.050414843 0)
(0.96256135 0.011438358 0)
(0.98117541 -0.014538695 0)
(1.0020869 -0.021089821 0)
(1.016333 -0.016103203 0)
(1.0221788 -0.0073374029 0)
(1.0210971 0.00036814664 0)
(1.0168342 0.0038709643 0)
(1.0127935 0.0040106749 0)
(1.0104179 0.0023804616 0)
(1.0096943 0.00045621267 0)
(1.009883 -0.0011521989 0)
(1.0105127 -0.002146399 0)
(1.0112037 -0.0025922665 0)
(1.0117692 -0.002648209 0)
(1.0121472 -0.0024580071 0)
(1.0123311 -0.0021224139 0)
(1.0123338 -0.0017110407 0)
(1.0121765 -0.0012772512 0)
(1.0118879 -0.00086343676 0)
(1.0115041 -0.000502494 0)
(1.0110665 -0.00021722362 0)
(1.0106194 -2.0210981e-05 0)
(1.0102082 8.5965976e-05 0)
(1.0098788 0.00010585104 0)
(1.0096763 5.0291235e-05 0)
(0.86348811 -0.012631913 -3.5574676e-26)
(0.85592758 0.004193645 0)
(0.87463748 -0.029641329 -4.1825391e-26)
(0.89073022 -0.019290652 -1.6598892e-23)
(0.8979966 0.030030919 -9.6151593e-24)
(0.88943577 0.066558707 -5.0715782e-23)
(0.87887525 0.056067567 1.0724626e-23)
(0.8829491 -0.0051672436 -1.9376145e-23)
(0.92062615 -0.083402232 1.7946021e-22)
(0.98311778 -0.097371302 0)
(1.0297764 -0.057801823 -1.1101164e-21)
(1.0392363 0.016118017 0)
(1.0096034 0.08444369 0)
(0.9640912 0.095823512 0)
(0.9358687 0.060209315 0)
(0.94547496 0.011795258 0)
(0.97212427 -0.020576525 0)
(0.99899824 -0.028596991 0)
(1.0179125 -0.02268623 0)
(1.0262466 -0.010656904 0)
(1.0253728 -4.746316e-05 0)
(1.0196199 0.0056914082 0)
(1.0137309 0.0062252491 0)
(1.0100714 0.004185311 0)
(1.0087846 0.0014781941 0)
(1.0089699 -0.00074854706 0)
(1.0097617 -0.0022416954 0)
(1.0107137 -0.0029507701 0)
(1.0115243 -0.0031299715 0)
(1.0121097 -0.0029852733 0)
(1.0124655 -0.0026510882 0)
(1.0126099 -0.0022123249 0)
(1.012566 -0.0017279766 0)
(1.0123596 -0.0012453509 0)
(1.0120232 -0.00080277127 0)
(1.0115959 -0.00042968523 0)
(1.011121 -0.00014507906 0)
(1.0106441 4.2269723e-05 0)
(1.0102107 0.00013317826 0)
(1.0098659 0.00013508529 0)
(1.0096544 5.9985192e-05 0)
(0.87026394 -0.030798821 -6.7942421e-25)
(0.86523098 -0.013978209 0)
(0.86036091 0.0031890208 -1.7025292e-23)
(0.88143718 -0.020166695 1.6587261e-23)
(0.88769101 0.031805403 6.5065027e-24)
(0.88077296 0.069907819 1.0453397e-22)
(0.8716646 0.059727047 -6.999999e-23)
(0.87457744 -0.0047365484 3.7318562e-24)
(0.90861178 -0.090312802 9.4203651e-23)
(0.96846024 -0.10649998 -8.8003027e-23)
(1.0177566 -0.067167484 -1.2346591e-21)
(1.0289427 0.018390195 1.1625274e-21)
(0.99714126 0.097859929 0)
(0.95211792 0.10928795 0)
(0.92058298 0.069154933 0)
(0.92535344 0.01088781 0)
(0.96115909 -0.028299487 0)
(0.99550352 -0.038268978 0)
(1.0197966 -0.03044998 0)
(1.0314561 -0.015446908 0)
(1.0310091 -0.00043633917 0)
(1.0234741 0.0078238459 0)
(1.0151482 0.0094100602 0)
(1.0096452 0.0067051715 0)
(1.0075355 0.0030002385 0)
(1.0076599 -0.00014211349 0)
(1.0086901 -0.002257287 0)
(1.009976 -0.003332745 0)
(1.0111008 -0.0036770714 0)
(1.0119406 -0.0035857124 0)
(1.0124981 -0.003254086 0)
(1.0128073 -0.0027907404 0)
(1.0128994 -0.0022610279 0)
(1.0128011 -0.0017134496 0)
(1.0125408 -0.0011901638 0)
(1.0121539 -0.00072593264 0)
(1.0116817 -0.00034660984 0)
(1.0111695 -6.7281736e-05 0)
(1.0106633 0.00010729752 0)
(1.0102084 0.00018122533 0)
(1.0098491 0.00016424529 0)
(1.0096292 6.9563203e-05 0)
(0.87469456 -0.020817845 2.1388531e-24)
(0.86883825 -0.031478047 3.5817559e-24)
(0.86987519 -0.01504255 0)
(0.86755959 0.0021721122 -3.2032725e-24)
(0.87965911 0.033117713 -3.9054998e-24)
(0.87439138 0.07257298 -4.7507956e-23)
(0.86653664 0.062820833 0)
(0.86790827 -0.0043211912 -3.7070416e-24)
(0.89708417 -0.096636489 -1.0114219e-22)
(0.95284144 -0.11568202 8.6844695e-23)
(1.002641 -0.074795676 1.3197462e-21)
(1.0184556 0.013493583 1.2915178e-21)
(0.9844212 0.10989791 0)
(0.9401324 0.12060563 0)
(0.91021356 0.078507136 0)
(0.90871732 0.0079401059 0)
(0.9488389 -0.038085116 0)
(0.99141305 -0.049380007 0)
(1.0221153 -0.040516878 0)
(1.0377868 -0.021064481 0)
(1.0383275 -0.001574123 0)
(1.0286866 0.010916857 0)
(1.0171394 0.013492917 0)
(1.0091577 0.010319949 0)
(1.0058298 0.0051148587 0)
(1.0058217 0.00075343548 0)
(1.0072028 -0.0021996952 0)
(1.0089264 -0.0037883138 0)
(1.0104678 -0.0043205843 0)
(1.0116247 -0.0042821621 0)
(1.0124205 -0.0039448493 0)
(1.0129165 -0.0034524161 0)
(1.0131631 -0.0028787038 0)
(1.013194 -0.002270901 0)
(1.0130357 -0.0016699464 0)
(1.012718 -0.0011141608 0)
(1.0122785 -0.00063520543 0)
(1.0117609 -0.00025530528 0)
(1.0112116 1.4785733e-05 0)
(1.010677 0.00017396738 0)
(1.0102016 0.00022951518 0)
(1.0098287 0.00019312424 0)
(1.0096012 7.9029097e-05 0)
(0.87442944 0.033862655 -3.2589209e-24)
(0.87099737 -0.021315559 -1.5521757e-24)
(0.87060582 -0.031772031 -2.9693696e-24)
(0.87703487 -0.015703201 -1.9627535e-24)
(0.87698187 0.0011207124 6.9566811e-23)
(0.87083561 0.074521399 4.4763164e-23)
(0.86398036 0.065416717 2.0331496e-23)
(0.86319952 -0.0039139871 0)
(0.88689468 -0.10224848 9.0665058e-23)
(0.93660822 -0.1240004 -3.5082648e-22)
(0.98533255 -0.083359949 0)
(1.0032035 0.013236568 -1.5670819e-21)
(0.97518185 0.11536775 0)
(0.92680108 0.13455657 0)
(0.90094424 0.083494095 0)
(0.89615485 0.0077051437 0)
(0.93552863 -0.051030344 0)
(0.98755684 -0.06297222 0)
(1.0246426 -0.051722357 0)
(1.0454832 -0.028818896 0)
(1.0475009 -0.0026445642 0)
(1.035511 0.01429833 0)
(1.0199118 0.019233355 0)
(1.0085084 0.015048893 0)
(1.0035475 0.0081400854 0)
(1.0032827 0.0019568441 0)
(1.0051597 -0.0020827102 0)
(1.0074834 -0.0043235826 0)
(1.0095816 -0.0051106166 0)
(1.0111509 -0.0051181645 0)
(1.0122329 -0.0047488325 0)
(1.0129366 -0.0042083624 0)
(1.0133504 -0.0035843199 0)
(1.0135252 -0.0029188401 0)
(1.0134894 -0.0022453066 0)
(1.0132671 -0.0016004394 0)
(1.0128892 -0.0010200271 0)
(1.012396 -0.00053295648 0)
(1.0118329 -0.00015745291 0)
(1.0112473 9.9757002e-05 0)
(1.0106852 0.0002415091 0)
(1.0101905 0.00027765835 0)
(1.009805 0.00022170891 0)
(1.0095705 8.8351594e-05 0)
(0.87052371 0.075590072 1.9127128e-24)
(0.87226971 0.033892357 2.2428065e-24)
(0.8709518 -0.021545173 1.6744121e-24)
(0.87478024 -0.031683417 2.0241702e-24)
(0.88645811 -0.016009177 -1.1422986e-23)
(0.88814414 5.765375e-05 -4.5728885e-23)
(0.86390939 0.067297394 -5.0215852e-23)
(0.86100341 -0.003308204 -3.145775e-23)
(0.87770342 -0.10704054 -1.1810538e-22)
(0.92059893 -0.1311158 3.3505707e-22)
(0.96608692 -0.091372119 -1.3467256e-21)
(0.98710501 0.011078113 5.8008668e-22)
(0.95970161 0.12457313 0)
(0.9174197 0.14673564 -5.2602133e-23)
(0.88798093 0.097160276 -8.4053806e-22)
(0.88458653 0.0023510997 0)
(0.92316435 -0.062734401 0)
(0.98284603 -0.077770779 0)
(1.0277671 -0.065937126 0)
(1.0544626 -0.0373782 0)
(1.0588576 -0.0050687428 0)
(1.0443002 0.01913831 0)
(1.0235144 0.026238616 0)
(1.0076876 0.021655882 0)
(1.000468 0.012047442 0)
(0.99986668 0.0036652472 0)