/*--------------------------------*- C++ -*----------------------------------*\
| =========                 |                                                 |
| \\      /  F ield         | OpenFOAM: The Open Source CFD Toolbox           |
|  \\    /   O peration     | Version:  5.0                                   |
|   \\  /    A nd           | Web:      www.OpenFOAM.org                      |
|    \\/     M anipulation  |                                                 |
\*---------------------------------------------------------------------------*/
FoamFile
{
    version     2.0;
    format      ascii;
    class       volVectorField;
    location    "100";
    object      UMean;
}
// * * * * * * * * * * * * * * * * * * * * * * * * * * * * * * * * * * * * * //

dimensions      [0 1 -1 0 0 0 0];

internalField   nonuniform List<vector> 
9520
(
(1.0042651 -0.0001322473 0)
(1.0043318 -0.00038761631 0)
(1.0046606 -0.00013282469 0)
(1.0044506 -0.00062385471 0)
(1.0047247 -0.00038888348 0)
(1.0048141 -0.00013417181 0)
(1.0046107 -0.00084184684 0)
(1.0048386 -0.00062553156 0)
(1.004877 -0.00039328242 0)
(1.0050718 -0.00013775047 0)
(1.0048023 -0.0010419173 0)
(1.0049922 -0.00084347539 0)
(1.0049888 -0.00063246214 0)
(1.0051323 -0.00040333416 0)
(1.0052694 -0.00014136924 0)
(1.0050165 -0.0012252443 0)
(1.005176 -0.0010429731 0)
(1.0051396 -0.00085251791 0)
(1.0052401 -0.00064839032 0)
(1.0053285 -0.00041419412 0)
(1.0054992 -0.0001471091 0)
(1.0052455 -0.0013928992 0)
(1.0053817 -0.0012251428 0)
(1.00532 -0.0010535795 0)
(1.0053856 -0.0008735314 0)
(1.0054335 -0.00066581961 0)
(1.0055561 -0.00043089856 0)
(1.0057088 -0.00015289052 0)
(1.0054828 -0.0015459112 0)
(1.005602 -0.0013911061 0)
(1.0055219 -0.0012366493 0)
(1.0055596 -0.0010788868 0)
(1.0055748 -0.00089672639 0)
(1.0056572 -0.00069266786 0)
(1.005764 -0.00044797556 0)
(1.0059348 -0.00016032743 0)
(1.0057226 -0.0016861612 0)
(1.0058305 -0.0015421824 0)
(1.0057382 -0.0014025773 0)
(1.0057542 -0.0012654354 0)
(1.0057435 -0.0011068804 0)
(1.0057933 -0.00093286755 0)
(1.0058618 -0.00072028297 0)
(1.0059883 -0.0004698954 0)
(1.0061517 -0.0001678454 0)
(1.0059602 -0.0018133757 0)
(1.0060613 -0.0016794701 0)
(1.0059627 -0.001552183 0)
(1.0059625 -0.0014340668 0)
(1.0059321 -0.0012972123 0)
(1.0059555 -0.001151364 0)
(1.005993 -0.00097020128 0)
(1.0060827 -0.00075590683 0)
(1.0062036 -0.0004921305 0)
(1.0063808 -0.00017647277 0)
(1.0061918 -0.0019321683 0)
(1.0062911 -0.0018028175 0)
(1.0061896 -0.0016879992 0)
(1.0061784 -0.00158586 0)
(1.0061336 -0.0014685292 0)
(1.0061366 -0.0013489234 0)
(1.006149 -0.0011974865 0)
(1.006209 -0.0010187539 0)
(1.0062948 -0.00079217607 0)
(1.0064316 -0.00051774492 0)
(1.0066049 -0.00018505071 0)
(1.0064144 -0.0020353174 0)
(1.0065155 -0.0019172786 0)
(1.0064149 -0.0018100635 0)
(1.0063968 -0.0017220588 0)
(1.0063426 -0.0016219027 0)
(1.0063296 -0.0015262308 0)
(1.0063225 -0.0014027518 0)
(1.0063585 -0.0012580936 0)
(1.0064164 -0.0010684389 0)
(1.0065203 -0.0008342688 0)
(1.0066546 -0.00054327082 0)
(1.0068388 -0.00019422446 0)
(1.006626 -0.002142366 0)
(1.0067323 -0.0020172176 0)
(1.0066345 -0.0019215952 0)
(1.0066143 -0.0018433022 0)
(1.006554 -0.0017588639 0)
(1.0065291 -0.0016842072 0)
(1.0065071 -0.0015865338 0)
(1.006524 -0.0014743793 0)
(1.0065597 -0.0013205141 0)
(1.0066378 -0.0011266071 0)
(1.0067411 -0.00087638706 0)
(1.0068882 -0.00057070086 0)
(1.0070691 -0.00020310055 0)
(1.0068253 -0.0022173212 0)
(1.0069378 -0.0021178642 0)
(1.0068466 -0.0020182354 0)
(1.006827 -0.0019533126 0)
(1.0067639 -0.0018801376 0)
(1.0067305 -0.0018241623 0)
(1.0066974 -0.0017497126 0)
(1.006699 -0.0016679433 0)
(1.0067174 -0.0015486668 0)
(1.0067753 -0.0013942749 0)
(1.0068551 -0.0011851717 0)
(1.0069736 -0.00092203702 0)
(1.0071185 -0.00059732659 0)
(1.0073067 -0.00021206415 0)
(1.007012 -0.0023284539 0)
(1.0071341 -0.002189972 0)
(1.0070479 -0.0021144353 0)
(1.0070325 -0.0020482801 0)
(1.0069684 -0.0019883675 0)
(1.0069303 -0.0019468392 0)
(1.0068887 -0.0018934472 0)
(1.0068784 -0.0018394257 0)
(1.0068831 -0.0017530216 0)
(1.0069252 -0.001637332 0)
(1.0069873 -0.0014691463 0)
(1.0070853 -0.001249275 0)
(1.0072035 -0.00096661098 0)
(1.007357 -0.00062437487 0)
(1.007541 -0.00022041497 0)
(1.007183 -0.002362432 0)
(1.0073138 -0.0022911975 0)
(1.0072383 -0.0021827377 0)
(1.0072271 -0.0021403684 0)
(1.0071657 -0.0020809092 0)
(1.007125 -0.0020550783 0)
(1.0070778 -0.0020185912 0)
(1.0070577 -0.0019898628 0)
(1.0070518 -0.0019340597 0)
(1.0070812 -0.0018556396 0)
(1.0071302 -0.0017281615 0)
(1.0072135 -0.0015519365 0)
(1.0073138 -0.0013123994 0)
(1.0074432 -0.0010123544 0)
(1.0075927 -0.00064970839 0)
(1.0077796 -0.00022834567 0)
(1.0073413 -0.0024946148 0)
(1.007483 -0.002323546 0)
(1.0074118 -0.0022785173 0)
(1.0074113 -0.0022062578 0)
(1.0073525 -0.0021687105 0)
(1.0073125 -0.0021467001 0)
(1.0072612 -0.0021272714 0)
(1.0072339 -0.0021200325 0)
(1.007219 -0.0020925948 0)
(1.0072383 -0.0020494023 0)
(1.0072773 -0.0019617755 0)
(1.0073502 -0.0018296318 0)
(1.0074391 -0.0016343206 0)
(1.007554 -0.0013779519 0)
(1.0076809 -0.0010555866 0)
(1.0078339 -0.00067397222 0)
(1.0080142 -0.00023532932 0)
(1.0074814 -0.0024788785 0)
(1.0076355 -0.00244623 0)
(1.0075755 -0.0023048449 0)
(1.0075779 -0.0022963762 0)
(1.0075289 -0.0022320328 0)
(1.0074897 -0.0022313023 0)
(1.0074372 -0.0022181968 0)
(1.0074038 -0.0022319583 0)
(1.007382 -0.0022293763 0)
(1.0073924 -0.0022191864 0)
(1.0074233 -0.0021698742 0)
(1.0074886 -0.0020815671 0)
(1.0075708 -0.0019317759 0)
(1.0076783 -0.0017209302 0)
(1.0077936 -0.0014406482 0)
(1.0079262 -0.0010975605 0)
(1.0080716 -0.00069553052 0)
(1.0082499 -0.00024141993 0)
(1.0076092 -0.0026432344 0)
(1.0077788 -0.002423352 0)
(1.0077234 -0.0024223171 0)
(1.0077354 -0.0023213943 0)
(1.0076893 -0.0023154466 0)
(1.0076571 -0.0022918816 0)
(1.0076031 -0.0022997517 0)
(1.0075656 -0.002324796 0)
(1.0075377 -0.0023462089 0)
(1.0075408 -0.0023654948 0)
(1.0075645 -0.002352634 0)
(1.0076235 -0.0023071736 0)
(1.0077018 -0.0022035761 0)
(1.0078068 -0.0020404739 0)
(1.0079186 -0.0018049118 0)
(1.0080432 -0.001502484 0)
(1.0081691 -0.0011354113 0)
(1.0083117 -0.00071461468 0)
(1.0084803 -0.00024626345 0)
(1.0077123 -0.0025743014 0)
(1.0078965 -0.0025849266 0)
(1.0078595 -0.0023916065 0)
(1.0078773 -0.002432794 0)
(1.0078416 -0.0023391024 0)
(1.0078098 -0.0023689179 0)
(1.0077596 -0.002357641 0)
(1.007717 -0.0024056783 0)
(1.0076845 -0.0024427709 0)
(1.0076808 -0.0024902016 0)
(1.0076983 -0.002510364 0)
(1.0077513 -0.0025061602 0)
(1.0078267 -0.0024486529 0)
(1.0079317 -0.0023349934 0)
(1.0080458 -0.0021474483 0)
(1.0081716 -0.001889103 0)
(1.008292 -0.0015592376 0)
(1.0084165 -0.0011696441 0)
(1.0085471 -0.00073006557 0)
(1.0087083 -0.00024985434 0)
(1.0078044 -0.0027642383 0)
(1.0079961 -0.0024991716 0)
(1.0079729 -0.0025500824 0)
(1.0080075 -0.0023995232 0)
(1.0079783 -0.0024438747 0)
(1.0079561 -0.00238883 0)
(1.0079023 -0.0024276904 0)
(1.0078595 -0.0024625766 0)
(1.0078206 -0.0025252427 0)
(1.007811 -0.0025932054 0)
(1.0078225 -0.0026447136 0)
(1.0078694 -0.002678447 0)
(1.0079416 -0.0026660892 0)
(1.0080473 -0.0026028122 0)
(1.0081667 -0.0024662696 0)
(1.0083001 -0.0022564119 0)
(1.0084261 -0.0019678879 0)
(1.0085484 -0.0016118578 0)
(1.0086606 -0.0011981513 0)
(1.0087814 -0.00074186934 0)
(1.0089296 -0.00025193848 0)
(1.0078546 -0.0026596724 0)
(1.0080808 -0.0027038689 0)
(1.0080698 -0.0024527098 0)
(1.0081151 -0.0025538142 0)
(1.0081049 -0.0024094841 0)
(1.008086 -0.0024843465 0)
(1.0080397 -0.0024431219 0)
(1.0079882 -0.0025269883 0)
(1.007947 -0.0025838473 0)
(1.0079304 -0.0026800382 0)
(1.007936 -0.0027556989 0)
(1.0079764 -0.0028253625 0)
(1.0080444 -0.002855396 0)
(1.0081497 -0.0028423563 0)
(1.0082749 -0.0027590898 0)
(1.0084193 -0.0026020497 0)
(1.0085588 -0.0023604354 0)
(1.0086915 -0.0020426963 0)
(1.0088033 -0.0016570814 0)
(1.0089058 -0.0012210061 0)
(1.0090096 -0.00074931245 0)
(1.0091454 -0.0002525251 0)
(1.007895 -0.0028452877 0)
(1.0081232 -0.0025692199 0)
(1.0081438 -0.0026554933 0)
(1.0082074 -0.0024544066 0)
(1.0082119 -0.0025607958 0)
(1.0082098 -0.0024435919 0)
(1.0081579 -0.0025280578 0)
(1.0081108 -0.0025385868 0)
(1.0080596 -0.0026460251 0)
(1.0080394 -0.0027432176 0)
(1.0080387 -0.0028484408 0)
(1.0080716 -0.0029466948 0)
(1.0081337 -0.0030169585 0)
(1.0082365 -0.003052383 0)
(1.008366 -0.0030235544 0)
(1.0085222 -0.0029231156 0)
(1.0086794 -0.0027342059 0)
(1.0088317 -0.0024613605 0)
(1.008958 -0.0021090548 0)
(1.0090626 -0.0016951684 0)
(1.0091462 -0.0012368427 0)
(1.0092333 -0.00075227312 0)
(1.0093528 -0.00025144334 0)
(1.0078546 -0.0027467506 0)
(1.0081585 -0.0027940286 0)
(1.0081788 -0.0025074771 0)
(1.0082781 -0.0026571085 0)
(1.0083064 -0.0024577859 0)
(1.0083146 -0.0025860162 0)
(1.0082725 -0.0024788051 0)
(1.0082109 -0.0026127693 0)
(1.0081641 -0.002658627 0)
(1.0081347 -0.0028066707 0)
(1.0081311 -0.0029172058 0)
(1.0081556 -0.0030470824 0)
(1.0082096 -0.0031507256 0)
(1.008307 -0.0032324186 0)
(1.0084377 -0.0032576603 0)
(1.0086037 -0.0032165005 0)
(1.0087798 -0.0030857251 0)
(1.0089572 -0.0028650503 0)
(1.0091091 -0.0025536166 0)
(1.0092325 -0.0021674002 0)
(1.0093187 -0.0017238853 0)
(1.0093841 -0.0012455222 0)
(1.0094492 -0.00075039901 0)
(1.0095519 -0.00024871801 0)
(1.0076149 -0.0028724264 0)
(1.0081113 -0.002651461 0)
(1.0082031 -0.0027195739 0)
(1.0083054 -0.0025086204 0)
(1.0083801 -0.0026682217 0)
(1.0084113 -0.0024691986 0)
(1.0083662 -0.0026052414 0)
(1.0083069 -0.0025557971 0)
(1.0082451 -0.0027274807 0)
(1.0082212 -0.0028243445 0)
(1.0082106 -0.0029831443 0)
(1.0082295 -0.0031219248 0)
(1.0082732 -0.0032601241 0)
(1.0083614 -0.003382228 0)
(1.0084892 -0.0034599606 0)
(1.0086611 -0.0034792691 0)
(1.0088543 -0.0034110961 0)
(1.0090586 -0.0032497741 0)
(1.0092432 -0.0029878505 0)
(1.0093986 -0.0026376597 0)
(1.0095068 -0.0022145109 0)
(1.0095757 -0.0017431095 0)
(1.0096154 -0.0012463084 0)
(1.0096577 -0.00074361955 0)
(1.0097411 -0.00024432026 0)
(1.0067975 -0.0028268401 0)
(1.0078013 -0.0028443889 0)
(1.0081566 -0.0025703806 0)
(1.0083262 -0.0027356837 0)
(1.0084165 -0.0025063987 0)
(1.0084884 -0.0026752203 0)
(1.008455 -0.0024715405 0)
(1.0083788 -0.0026678761 0)
(1.0083207 -0.0026712876 0)
(1.0082849 -0.002893062 0)
(1.008282 -0.0030071477 0)
(1.008292 -0.0031895863 0)
(1.0083263 -0.0033415278 0)
(1.0084012 -0.0035036175 0)
(1.0085211 -0.0036294017 0)
(1.0086935 -0.0037090395 0)
(1.0088997 -0.0037065067 0)
(1.0091295 -0.0036108979 0)
(1.0093498 -0.00340737 0)
(1.009546 -0.0031031908 0)
(1.0096916 -0.0027093259 0)
(1.0097856 -0.002250238 0)
(1.0098276 -0.0017515428 0)
(1.009841 -0.0012390759 0)
(1.0098568 -0.00073186584 0)
(1.00992 -0.00023828548 0)
(1.0052604 -0.0028257316 0)
(1.0068194 -0.0027543218 0)
(1.00782 -0.0027288149 0)
(1.0082709 -0.002581561 0)
(1.0084417 -0.0027571381 0)
(1.0085342 -0.0024858764 0)
(1.0085205 -0.0026577417 0)
(1.0084443 -0.0025206638 0)
(1.0083684 -0.0027788529 0)
(1.0083429 -0.0028445124 0)
(1.0083335 -0.0030770365 0)
(1.008348 -0.0032173 0)
(1.0083689 -0.0034105011 0)
(1.0084289 -0.0035936417 0)
(1.0085348 -0.0037670224 0)
(1.0087018 -0.003903758 0)
(1.0089147 -0.0039685448 0)
(1.0091655 -0.0039436509 0)
(1.009421 -0.0038068334 0)
(1.0096624 -0.0035593324 0)
(1.0098564 -0.003205787 0)
(1.0099935 -0.0027682496 0)
(1.010062 -0.0022725539 0)
(1.0100766 -0.0017489714 0)
(1.0100581 -0.001223585 0)
(1.0100461 -0.00071519137 0)
(1.0100878 -0.00023065674 0)
(1.0030488 -0.002806284 0)
(1.005098 -0.0028199338 0)
(1.0067983 -0.0026523433 0)
(1.0079446 -0.0027667207 0)
(1.0083965 -0.0025839266 0)
(1.00857 -0.0027430593 0)
(1.0085611 -0.0024356271 0)
(1.0084796 -0.0026890504 0)
(1.0084066 -0.0026321312 0)
(1.0083716 -0.0029567078 0)
(1.0083816 -0.0030381059 0)
(1.0083882 -0.0032835444 0)
(1.0084064 -0.0034388349 0)
(1.0084452 -0.0036651245 0)
(1.0085337 -0.0038696647 0)
(1.0086873 -0.0040636558 0)
(1.0089001 -0.0041944189 0)
(1.0091653 -0.0042436371 0)
(1.0094519 -0.0041806267 0)
(1.0097387 -0.0040001601 0)
(1.0099876 -0.0036991425 0)
(1.010181 -0.0032951242 0)
(1.0102965 -0.0028116558 0)
(1.0103389 -0.0022810914 0)
(1.0103183 -0.0017348557 0)
(1.0102666 -0.0011998634 0)
(1.0102245 -0.00069371586 0)
(1.010244 -0.00022150237 0)
(0.99963041 -0.0027195569 0)
(1.0027616 -0.0027790819 0)
(1.005037 -0.0026988876 0)
(1.0069045 -0.0027003948 0)
(1.0081118 -0.0028030848 0)
(1.0085393 -0.0025262407 0)
(1.0085827 -0.0026714759 0)
(1.0084896 -0.0024409474 0)
(1.0084089 -0.002799799 0)
(1.0083905 -0.002821604 0)
(1.0084029 -0.0031565673 0)
(1.0084291 -0.0032474994 0)
(1.0084319 -0.0034963216 0)
(1.0084562 -0.0036933557 0)
(1.0085183 -0.0039476267 0)
(1.0086535 -0.0041851869 0)
(1.0088575 -0.0043827892 0)
(1.0091292 -0.0045069713 0)
(1.00944 -0.0045234227 0)
(1.0097688 -0.0044191296 0)
(1.0100743 -0.0041830171 0)
(1.0103325 -0.0038261972 0)
(1.0105111 -0.0033674381 0)
(1.0106045 -0.0028388069 0)
(1.0106108 -0.002274838 0)
(1.0105537 -0.001709105 0)
(1.0104649 -0.0011680346 0)
(1.0103917 -0.00066762186 0)
(1.0103881 -0.00021090974 0)
(0.99564916 -0.0027481924 0)
(0.99925601 -0.0027282543 0)
(1.0026453 -0.0026902139 0)
(1.0051054 -0.0027925005 0)
(1.0070995 -0.0027177078 0)
(1.0083045 -0.0027636186 0)
(1.0085562 -0.0024013844 0)
(1.0084661 -0.0026582371 0)
(1.0083813 -0.0025496152 0)
(1.0083715 -0.0030059666 0)
(1.0084192 -0.0030356958 0)
(1.0084488 -0.0033621157 0)
(1.0084615 -0.0034549363 0)
(1.0084568 -0.0037394214 0)
(1.0084953 -0.0039795972 0)
(1.0086013 -0.0042766992 0)
(1.0087902 -0.004530664 0)
(1.009059 -0.0047313375 0)
(1.0093856 -0.004830157 0)
(1.0097496 -0.004809592 0)
(1.0101091 -0.0046501079 0)
(1.0104357 -0.0043548201 0)
(1.0106885 -0.0039355655 0)
(1.0108516 -0.0034216169 0)
(1.0109106 -0.0028481493 0)
(1.0108793 -0.0022534854 0)
(1.0107797 -0.0016717692 0)
(1.0106524 -0.0011283361 0)
(1.0105469 -0.00063715834 0)
(1.0105201 -0.00019898154 0)
(0.9905662 -0.0026123324 4.3484598e-25)
(0.99526323 -0.0027643925 0)
(0.99917561 -0.0026295739 0)
(1.0026702 -0.0028026159 0)
(1.0052877 -0.0028515655 0)
(1.0072961 -0.0026236972 0)
(1.0083524 -0.0026083251 0)
(1.0083964 -0.002346182 0)
(1.00831 -0.0027750315 0)
(1.0083215 -0.0027731383 0)
(1.008401 -0.0032399798 0)
(1.0084717 -0.0032418615 0)
(1.0084752 -0.0035523669 0)
(1.0084626 -0.0036875423 0)
(1.0084603 -0.0040179724 0)
(1.0085373 -0.004319509 0)
(1.0086997 -0.0046442884 0)
(1.0089584 -0.0049136559 0)
(1.0092906 -0.0050974362 0)
(1.0096807 -0.0051658156 0)
(1.0100878 -0.0050928447 0)
(1.0104814 -0.0048729889 0)
(1.0108142 -0.0045093356 0)
(1.0110609 -0.0040257602 0)
(1.0111943 -0.0034553282 0)
(1.0112172 -0.0028389309 0)
(1.0111399 -0.0022168737 0)
(1.0109963 -0.0016230124 0)
(1.0108284 -0.0010811349 0)
(1.0106899 -0.00060262138 0)
(1.0106397 -0.00018583646 0)
(0.98354047 -0.0026243989 -1.7603414e-24)
(0.99006548 -0.0026617164 -4.5529967e-25)
(0.99519019 -0.0027050041 0)
(0.99921801 -0.002779605 0)
(1.0028115 -0.0028372209 0)
(1.0054163 -0.0027735118 0)
(1.0073188 -0.0023946698 0)
(1.008173 -0.0025271773 0)
(1.0081807 -0.0024582139 0)
(1.0082251 -0.0030362589 0)
(1.0083581 -0.0030288354 0)
(1.0084678 -0.0034493759 0)
(1.0085004 -0.003415241 0)
(1.0084547 -0.0037580685 0)
(1.0084281 -0.0039592842 0)
(1.0084576 -0.0043590383 0)
(1.0085922 -0.0047076897 0)
(1.0088292 -0.0050579989 0)
(1.0091587 -0.0053212496 0)
(1.0095638 -0.0054827923 0)
(1.0100095 -0.0055036806 0)
(1.010464 -0.0053719775 0)
(1.0108775 -0.0050802977 0)
(1.0112162 -0.0046447455 0)
(1.011441 -0.0040934273 0)
(1.0115426 -0.0034672509 0)
(1.0115184 -0.002810694 0)
(1.0113933 -0.0021649527 0)
(1.0112017 -0.0015632894 0)
(1.0109921 -0.001026868 0)
(1.0108204 -0.00056435757 0)
(1.0107471 -0.00017161629 0)
(0.97592413 -0.0024310133 1.7648723e-24)
(0.98286616 -0.0027052269 3.2465666e-25)
(0.98997836 -0.0026040352 0)
(0.99527122 -0.0028777734 0)
(0.9993881 -0.0028321089 0)
(1.0028548 -0.0026836602 0)
(1.0052928 -0.0025281742 0)
(1.0071366 -0.0022487089 0)
(1.0079208 -0.0026617527 0)
(1.0080636 -0.0027411971 0)
(1.0082733 -0.0033339912 0)
(1.0084511 -0.0032374624 0)
(1.0085059 -0.0036008679 0)
(1.0084631 -0.003592005 0)
(1.0083808 -0.0040044527 0)
(1.0083759 -0.0043032466 0)
(1.0084642 -0.0047600887 0)
(1.0086774 -0.0051514784 0)
(1.0089928 -0.00550453 0)
(1.0094027 -0.0057559022 0)
(1.0098753 -0.0058766285 0)
(1.0103815 -0.0058432999 0)
(1.0108711 -0.0056389484 0)
(1.0113045 -0.0052699007 0)
(1.0116324 -0.0047564635 0)
(1.0118329 -0.0041366183 0)
(1.0118891 -0.0034564532 0)
(1.0118155 -0.0027629375 0)
(1.0116363 -0.0020981999 0)
(1.0113954 -0.0014930698 0)
(1.0111433 -0.00096607097 0)
(1.0109384 -0.0005227297 0)
(1.0108422 -0.00015647723 0)
(0.9678893 -0.002348834 0)
(0.97498813 -0.0025432465 -3.2797775e-25)
(0.98273785 -0.0026764765 0)
(0.99004625 -0.0028172812 0)
(0.99549567 -0.0029164079 0)
(0.9994145 -0.0026573162 0)
(1.0026157 -0.0023658171 0)
(1.0049857 -0.0023711982 0)
(1.0069191 -0.0023702978 0)
(1.0077934 -0.0030174718 0)
(1.0081268 -0.0030693156 0)
(1.0084038 -0.003561766 0)
(1.0085108 -0.0033549355 0)
(1.0084537 -0.0037375523 0)
(1.0083484 -0.0038126281 0)
(1.0082747 -0.0043346569 0)
(1.0083292 -0.0047207573 0)
(1.0085007 -0.0052276473 0)
(1.0087992 -0.0056366223 0)
(1.0092019 -0.0059856528 0)
(1.009689 -0.006205795 0)
(1.0102349 -0.0062786317 0)
(1.0107914 -0.0061751605 0)
(1.0113167 -0.0058909029 0)
(1.0117534 -0.0054358478 0)
(1.0120676 -0.0048418819 0)
(1.0122278 -0.0041536053 0)
(1.0122357 -0.0034217267 0)
(1.0121037 -0.0026961077 0)
(1.0118688 -0.002016946 0)
(1.0115764 -0.0014130676 0)
(1.0112815 -0.00089932595 0)
(1.0110438 -0.00047812706 0)
(1.0109254 -0.00014045456 0)
(0.95928934 -0.002079274 -3.1696793e-25)
(0.96652333 -0.0024881241 0)
(0.97475801 -0.002541619 -8.919682e-25)
(0.98276225 -0.0029320723 0)
(0.99026969 -0.0028571948 0)
(0.99557599 -0.0026890776 0)
(0.9991354 -0.0022970406 0)
(1.0021879 -0.0021930424 0)
(1.0047303 -0.0025312842 0)
(1.0068844 -0.0027589935 0)
(1.007902 -0.0034252291 0)
(1.0083065 -0.0032924373 0)
(1.008495 -0.0036560244 0)
(1.0084517 -0.0034340638 0)
(1.0082943 -0.0039187566 0)
(1.0081832 -0.0041329044 0)
(1.0081692 -0.0047549993 0)
(1.0083125 -0.0052166129 0)
(1.0085762 -0.00574571 0)
(1.0089682 -0.0061634864 0)
(1.0094559 -0.0064893484 0)
(1.0100272 -0.0066713196 0)
(1.0106384 -0.0066792483 0)
(1.0112473 -0.0064967651 0)
(1.0117927 -0.0061210317 0)
(1.0122296 -0.0055749266 0)
(1.0125123 -0.0048981521 0)
(1.0126284 -0.0041423988 0)
(1.0125759 -0.0033634302 0)
(1.0123833 -0.0026101408 0)
(1.0120886 -0.0019221 0)
(1.0117442 -0.0013240108 0)
(1.0114067 -0.00082726456 0)
(1.0111369 -0.00043094515 0)
(1.010997 -0.0001237892 0)
(0.95037572 -0.0018652804 6.3909286e-24)
(0.95742251 -0.0022514766 -1.1636012e-26)
(0.96612705 -0.0025266088 8.9376327e-25)
(0.9746424 -0.002833306 5.3049325e-25)
(0.98297067 -0.0029858426 6.0078838e-25)
(0.9903481 -0.0025828518 0)
(0.99536032 -0.0022777971 0)
(0.99866343 -0.0021012202 0)
(1.0018504 -0.0024157618 0)
(1.0047855 -0.0030092883 0)
(1.0071365 -0.0031932562 0)
(1.0081392 -0.0036960935 0)
(1.0084439 -0.0033297699 0)
(1.0084315 -0.0036837734 0)
(1.008248 -0.0035601353 0)
(1.0080614 -0.00421659 0)
(1.008013 -0.004565794 0)
(1.0080954 -0.0052680277 0)
(1.0083386 -0.0057720861 0)
(1.0087012 -0.0063124081 0)
(1.0091845 -0.0067195344 0)
(1.0097641 -0.0070167756 0)
(1.010415 -0.0071424836 0)
(1.0110948 -0.0070759071 0)
(1.0117425 -0.0067998087 0)
(1.0123049 -0.0063250543 0)
(1.0127233 -0.0056828072 0)
(1.0129697 -0.0049224299 0)
(1.0130266 -0.0041028814 0)
(1.0129109 -0.0032807075 0)
(1.012651 -0.0025061615 0)
(1.0122953 -0.0018143711 0)
(1.0118983 -0.0012267852 0)
(1.0115188 -0.0007505404 0)
(1.0112179 -0.00038159203 0)
(1.0110573 -0.00010653859 0)
(0.94119472 -0.0015029112 -9.5786394e-24)
(0.94797216 -0.0020487747 6.2997065e-25)
(0.95682415 -0.0023143322 0)
(0.96573945 -0.0028588903 -7.2367504e-25)
(0.97473143 -0.0028929489 -6.052009e-25)
(0.98305569 -0.0026979917 -9.7387043e-25)
(0.9901347 -0.0021137904 -5.9751205e-25)
(0.99497078 -0.0020852335 0)
(0.99829763 -0.0023720115 0)
(1.0018846 -0.0029819165 0)
(1.0051961 -0.0035437206 0)
(1.0075143 -0.0034497904 0)
(1.0083385 -0.003710229 0)
(1.0083836 -0.0032613058 0)
(1.0081777 -0.003757392 0)
(1.0079432 -0.0038248846 0)
(1.0078179 -0.0046516603 0)
(1.0078782 -0.005108215 0)
(1.0080704 -0.0058502655 0)
(1.0084164 -0.0063819529 0)
(1.0088753 -0.0069145467 0)
(1.0094553 -0.0073065052 0)
(1.010126 -0.0075580116 0)
(1.0108616 -0.0076173959 0)
(1.0115995 -0.0074594343 0)
(1.0122837 -0.0070797636 0)
(1.0128443 -0.0064974207 0)
(1.0132381 -0.0057557955 0)
(1.0134304 -0.00491368 0)
(1.013424 -0.0040333595 0)
(1.0132349 -0.0031750442 0)
(1.0129062 -0.0023846128 0)
(1.0124878 -0.0016949438 0)
(1.0120385 -0.0011222629 0)
(1.011618 -0.00066983286 0)
(1.0112871 -0.00033044785 0)
(1.0111068 -8.8847628e-05 0)
(0.93147315 -0.0011644261 -2.9821459e-25)
(0.9381758 -0.0016837001 -7.2063506e-25)
(0.94713344 -0.0021477497 2.6868415e-26)
(0.95606754 -0.0026843843 -3.2321427e-25)
(0.96560186 -0.0029348736 2.1135614e-25)
(0.97471281 -0.0025687919 -9.7499086e-26)
(0.98288617 -0.0022061132 -2.9302133e-24)
(0.98975072 -0.001879832 1.2173252e-24)
(0.99470501 -0.0024275159 0)
(0.99832701 -0.0030330722 0)
(1.002317 -0.0035544423 0)
(1.0057622 -0.0038663889 0)
(1.0078503 -0.0033783227 0)
(1.0082758 -0.003577095 0)
(1.0080787 -0.0032380883 0)
(1.0077886 -0.0039965214 0)
(1.0076221 -0.0042604613 0)
(1.0076171 -0.0052149586 0)
(1.0078006 -0.0057309548 0)
(1.0081016 -0.0064915388 0)
(1.0085448 -0.0070312762 0)
(1.0091039 -0.007554295 0)
(1.0097813 -0.007916576 0)
(1.0105513 -0.0081124357 0)
(1.0113642 -0.0080869371 0)
(1.0121599 -0.0078249348 0)
(1.0128627 -0.0073291737 0)
(1.0134146 -0.0066331273 0)
(1.0137638 -0.0057914128 0)
(1.0138962 -0.0048693101 0)
(1.013813 -0.0039352525 0)
(1.0135486 -0.0030460481 0)
(1.0131468 -0.0022470685 0)
(1.0126655 -0.0015648183 0)
(1.0121646 -0.001011428 0)
(1.0117044 -0.00058582351 0)
(1.011345 -0.00027792881 0)
(1.0111461 -7.087007e-05 0)
(0.92107465 -0.000667545 3.8455208e-24)
(0.92775938 -0.0013239941 4.992965e-26)
(0.93704505 -0.0018188844 0)
(0.94596855 -0.0025408388 3.8614583e-26)
(0.95562294 -0.0027705021 -5.5079255e-25)
(0.96534803 -0.0025889925 0)
(0.97447597 -0.0020271038 -7.7392268e-25)
(0.98257527 -0.0019682498 2.6688152e-24)
(0.98950048 -0.0022552033 0)
(0.99485314 -0.0031802747 0)
(0.99877811 -0.0037208398 0)
(1.0029334 -0.0038468964 0)
(1.0062813 -0.003770608 0)
(1.0078546 -0.0031053659 0)
(1.0079002 -0.0034878448 0)
(1.0076001 -0.0034133414 0)
(1.0073768 -0.0044463806 0)
(1.0073548 -0.0048500234 0)
(1.0074856 -0.0058671059 0)
(1.0077857 -0.0064156863 0)
(1.008185 -0.0071742943 0)
(1.0087258 -0.0077225029 0)
(1.0093871 -0.0082249886 0)
(1.0101727 -0.0085496164 0)
(1.0110399 -0.0086706021 0)
(1.0119318 -0.0085460349 0)
(1.0127698 -0.0081635001 0)
(1.013484 -0.007542187 0)
(1.0140057 -0.006728168 0)
(1.0143024 -0.0057861431 0)
(1.014358 -0.0047901556 0)
(1.0141947 -0.0038073436 0)
(1.0138475 -0.0028960898 0)
(1.0133723 -0.0020944197 0)
(1.012828 -0.0014253247 0)
(1.0122767 -0.00089520835 0)
(1.0117784 -0.00049918604 0)
(1.011392 -0.00022441692 0)
(1.0111757 -5.2787641e-05 0)
(0.91024272 -0.00019489195 0)
(0.91658653 -0.00078247299 0)
(0.92625494 -0.0014856669 -5.1572329e-26)
(0.93539293 -0.0022269598 0)
(0.94516882 -0.0026300253 -4.9556164e-25)
(0.95502744 -0.0024029817 2.1634231e-24)
(0.96491699 -0.0020221929 6.0543832e-24)
(0.97413387 -0.0017567015 -9.0398869e-25)
(0.98241131 -0.0023804649 0)
(0.98967268 -0.0030887866 0)
(0.99541535 -0.0039107061 0)
(0.99940148 -0.0040897231 0)
(1.0034679 -0.0036353533 0)
(1.0064055 -0.0033842629 0)
(1.0074153 -0.0028858948 0)
(1.007322 -0.0036370979 0)
(1.0070945 -0.0038496285 0)
(1.0070345 -0.0050783395 0)
(1.0071736 -0.0055408066 0)
(1.0074274 -0.0065807788 0)
(1.0078258 -0.0071413448 0)
(1.0083171 -0.0079012144 0)
(1.0089586 -0.0084520351 0)
(1.0097342 -0.0089307431 0)
(1.0106328 -0.0091983693 0)
(1.0116018 -0.0092285266 0)
(1.012561 -0.0089843788 0)
(1.0134343 -0.0084680339 0)
(1.0141378 -0.0077125331 0)
(1.0146192 -0.006777683 0)
(1.0148435 -0.0057395905 0)
(1.0148168 -0.0046741814 0)
(1.0145625 -0.0036524143 0)
(1.0141318 -0.0027252518 0)
(1.0135812 -0.0019285108 0)
(1.0129749 -0.0012776269 0)
(1.0123749 -0.0007746028 0)
(1.0118404 -0.00041054074 0)
(1.0114287 -0.0001702561 0)
(1.0111962 -3.4488814e-05 0)
(0.90487088 -0.00024059701 -1.024771e-26)
(0.9102013 0.00047600561 0)
(0.91466705 -0.00096633536 2.9894935e-26)
(0.92401801 -0.0018989624 -6.4871922e-25)
(0.93416912 -0.0023223231 -1.0034716e-24)
(0.94418724 -0.0022330114 1.1097601e-24)
(0.95429462 -0.0018079775 1.1111374e-24)
(0.9643972 -0.0017391988 8.5465673e-27)
(0.97395653 -0.0022061399 1.9859331e-24)
(0.98267085 -0.003288387 0)
(0.9902707 -0.0039005149 3.1962705e-23)
(0.99613409 -0.0042515084 0)
(0.99989176 -0.0038627855 0)
(1.0036057 -0.0030817778 0)
(1.0060429 -0.0030633622 0)
(1.0067406 -0.0029581592 0)
(1.0067244 -0.0041078361 0)
(1.00668 -0.0045005321 0)
(1.0068008 -0.0058224311 0)
(1.0070794 -0.0062939404 0)
(1.0074288 -0.0073293424 0)
(1.0079102 -0.0079090084 0)
(1.0084943 -0.0086721417 0)
(1.0092514 -0.0092271108 0)
(1.0101521 -0.0096653153 0)
(1.0111735 -0.0098589542 0)
(1.0122364 -0.0097753928 0)
(1.0132581 -0.0093939669 0)
(1.014145 -0.0087301244 0)
(1.0148258 -0.0078341088 0)
(1.0152443 -0.0067797001 0)
(1.0153878 -0.0056489185 0)
(1.0152643 -0.004524009 0)
(1.014917 -0.0034697558 0)
(1.0143981 -0.002536501 0)
(1.0137731 -0.0017505337 0)
(1.0131062 -0.001123098 0)
(1.0124595 -0.00065051303 0)
(1.0118909 -0.00032051114 0)
(1.0114555 -0.00011573627 0)
(1.0112081 -1.6226799e-05 0)
(0.9025091 -0.00045088875 -6.5380357e-26)
(0.90490374 0.00054999376 0)
(0.92099876 0.00093390443 3.6712281e-24)
(0.91178447 -0.0013736249 6.4745796e-25)
(0.92229436 -0.0019896582 3.4743744e-25)
(0.93272504 -0.0018962154 5.3259713e-24)
(0.94310313 -0.0016031276 -9.4985083e-24)
(0.95347467 -0.001512285 -4.0717338e-24)
(0.9640434 -0.0022267044 -6.0141921e-24)
(0.97421172 -0.0032006758 -7.3649708e-26)
(0.98337385 -0.0041895682 1.5328739e-23)
(0.99102842 -0.0042613664 -3.343944e-23)
(0.99667758 -0.0039212358 0)
(0.99996441 -0.0032419149 0)
(1.0033153 -0.0026087872 0)
(1.0054003 -0.0031124357 0)
(1.0060706 -0.0034163107 0)
(1.0062464 -0.0048392975 0)
(1.0064026 -0.0052760149 0)
(1.0066724 -0.0066240595 0)
(1.0070512 -0.0070757224 0)
(1.0074691 -0.0081127156 0)
(1.0080295 -0.0087227105 0)
(1.0087238 -0.0094993222 0)
(1.0096128 -0.010046536 0)
(1.0106553 -0.010427671 0)
(1.0117982 -0.010520748 0)
(1.0129523 -0.010301899 0)
(1.0140166 -0.0097639927 0)
(1.0149039 -0.0089419658 0)
(1.0155368 -0.0079026256 0)
(1.0158807 -0.006730215 0)
(1.0159253 -0.005515878 0)
(1.015701 -0.0043382847 0)
(1.0152529 -0.0032632219 0)
(1.0146466 -0.0023303027 0)
(1.0139475 -0.0015624567 0)
(1.013222 -0.00096292716 0)
(1.012531 -0.00052388135 0)
(1.0119304 -0.00022965317 0)
(1.0114733 -6.119124e-05 0)
(1.0112121 1.9694962e-06 0)
(0.8989126 -0.00083731857 1.6383298e-25)
(0.90251726 0.00031982242 9.2496953e-26)
(0.9166398 0.0010849199 0)
(0.93137618 0.0014231629 -4.0510899e-25)
(0.90949096 -0.0014534992 -5.0049014e-25)
(0.92029507 -0.0015292298 -3.4411762e-24)
(0.93122196 -0.0012374074 0)
(0.94192933 -0.0012818044 4.0471863e-24)
(0.95280436 -0.002045499 -5.8502847e-24)
(0.96410363 -0.0033002943 6.4795452e-26)
(0.97492627 -0.0041927785 1.0359898e-24)
(0.98426726 -0.0046374712 -1.6077463e-23)
(0.99160279 -0.003850112 0)
(0.99676626 -0.003183856 0)
(0.99963314 -0.0026956995 0)
(1.0027755 -0.0025703211 0)
(1.0047717 -0.0036356796 0)
(1.0055733 -0.0041655713 0)
(1.0059361 -0.0057093093 0)
(1.0062553 -0.0061034859 0)
(1.0066204 -0.0074380463 0)
(1.0070565 -0.0078809896 0)
(1.0075305 -0.0089395404 0)
(1.0081872 -0.0096021024 0)
(1.009016 -0.010386776 0)
(1.0100607 -0.010911261 0)
(1.0112517 -0.011206982 0)
(1.0125171 -0.011174169 0)
(1.0137459 -0.010795187 0)
(1.0148392 -0.010084708 0)
(1.0157001 -0.0090966544 0)
(1.0162703 -0.0079127819 0)
(1.0165177 -0.0066296263 0)
(1.016456 -0.0053385736 0)
(1.0161196 -0.004121153 0)
(1.0155708 -0.0030325515 0)
(1.0148752 -0.0021099633 0)
(1.0141041 -0.0013655803 0)
(1.0133225 -0.00079843979 0)
(1.0125898 -0.00039553164 0)
(1.0119596 -0.00013851158 0)
(1.0114824 -6.8755856e-06 0)
(1.0112088 1.995268e-05 0)
(0.89604964 -0.00090389591 -3.1899787e-25)
(0.89891263 -3.2683566e-05 -1.695904e-25)
(0.91474606 0.00083671942 -4.4884023e-26)
(0.92779863 0.0016040124 -9.7411479e-26)
(0.94104614 0.0017406026 -9.2131985e-24)
(0.906884 -0.00095535473 3.5918805e-24)
(0.91829643 -0.0008345108 2.9260926e-24)
(0.92961985 -0.00089347486 0)
(0.94087864 -0.0018358957 6.5801066e-24)
(0.95250126 -0.003205141 -3.2013798e-24)
(0.9646163 -0.0043845748 0)
(0.97586833 -0.0046907928 -2.880207e-24)
(0.98500709 -0.0042603357 0)
(0.99172605 -0.0029891743 0)
(0.99646284 -0.0025695893 0)
(0.99907583 -0.0026374122 0)
(1.0022689 -0.0030991406 0)
(1.0043463 -0.0045071863 0)
(1.0052811 -0.0050555349 0)
(1.0057817 -0.0066246866 0)
(1.0061998 -0.0069245248 0)
(1.0065973 -0.0082519632 0)
(1.0070653 -0.008723069 0)
(1.0076116 -0.0098379584 0)
(1.0083968 -0.010559194 0)
(1.0093931 -0.011341067 0)
(1.0106094 -0.011812614 0)
(1.0119555 -0.011994117 0)
(1.0133308 -0.01180427 0)
(1.0146215 -0.011243197 0)
(1.0157161 -0.010346351 0)
(1.0165325 -0.0091870831 0)
(1.0170141 -0.0078628816 0)
(1.0171537 -0.0064752305 0)
(1.0169708 -0.0051207396 0)
(1.0165204 -0.0038719103 0)
(1.0158664 -0.0027823024 0)
(1.0150841 -0.0018761495 0)
(1.0142429 -0.0011618744 0)
(1.013408 -0.00063075848 0)
(1.0126364 -0.00026630343 0)
(1.0119789 -4.7562332e-05 0)
(1.0114837 4.6941851e-05 0)
(1.0111987 3.7701291e-05 0)
(0.89275006 -0.00036928011 2.0410003e-25)
(0.89600724 -7.6860921e-05 3.148569e-25)
(0.9117942 0.00051176022 7.5889949e-25)
(0.9263757 0.0013605174 1.0081124e-25)
(0.93819116 0.001947267 -5.2050619e-26)
(0.95013716 0.0020850369 5.6329491e-24)
(0.90432502 -0.0002223877 -6.6198216e-24)
(0.91617782 -0.00045499859 -4.2143393e-24)
(0.92810483 -0.001465975 -1.2015834e-23)
(0.9401261 -0.0030523733 4.6496006e-24)