/*--------------------------------*- C++ -*----------------------------------*\
| =========                 |                                                 |
| \\      /  F ield         | OpenFOAM: The Open Source CFD Toolbox           |
|  \\    /   O peration     | Version:  5.0                                   |
|   \\  /    A nd           | Web:      www.OpenFOAM.org                      |
|    \\/     M anipulation  |                                                 |
\*---------------------------------------------------------------------------*/
FoamFile
{
    version     2.0;
    format      ascii;
    class       volSymmTensorField;
    location    "100";
    object      UPrime2Mean;
}
// * * * * * * * * * * * * * * * * * * * * * * * * * * * * * * * * * * * * * //

dimensions      [0 2 -2 0 0 0 0];

internalField   nonuniform List<symmTensor> 
9520
(
(1.6599225e-05 1.1214314e-07 0 1.0482541e-08 0 0)
(1.7171236e-05 3.2639101e-07 0 9.1214748e-08 0 0)
(1.5953813e-05 1.3479077e-07 0 1.1306708e-08 0 0)
(1.8225329e-05 5.2049448e-07 0 2.4191781e-07 0 0)
(1.6535853e-05 3.9687132e-07 0 9.8630178e-08 0 0)
(1.5547885e-05 1.4902618e-07 0 1.178528e-08 0 0)
(1.9710709e-05 6.9067524e-07 0 4.5450335e-07 0 0)
(1.7611437e-05 6.4093727e-07 0 2.6166604e-07 0 0)
(1.6129233e-05 4.3758264e-07 0 1.0238715e-07 0 0)
(1.4994406e-05 1.6585205e-07 0 1.2577805e-08 0 0)
(2.1584378e-05 8.3490319e-07 0 7.2351674e-07 0 0)
(1.9132384e-05 8.662407e-07 0 4.9213163e-07 0 0)
(1.720367e-05 7.1067085e-07 0 2.7177372e-07 0 0)
(1.5571952e-05 4.9049666e-07 0 1.096739e-07 0 0)
(1.4481754e-05 1.7932212e-07 0 1.3373981e-08 0 0)
(2.3807795e-05 9.5001702e-07 0 1.04589e-06 0 0)
(2.1058467e-05 1.0721096e-06 0 7.8446265e-07 0 0)
(1.8723666e-05 9.6813529e-07 0 5.1126961e-07 0 0)
(1.6645876e-05 8.0183785e-07 0 2.9131881e-07 0 0)
(1.5059194e-05 5.3035386e-07 0 1.1633211e-07 0 0)
(1.3887901e-05 1.9242674e-07 0 1.4327153e-08 0 0)
(2.6341321e-05 1.0337292e-06 0 1.4197669e-06 0 0)
(2.3354279e-05 1.2561513e-06 0 1.1356039e-06 0 0)
(2.0650771e-05 1.2103707e-06 0 8.1516059e-07 0 0)
(1.8169593e-05 1.1021507e-06 0 5.4828943e-07 0 0)
(1.6129589e-05 8.7048829e-07 0 3.0896392e-07 0 0)
(1.4456571e-05 5.7114335e-07 0 1.2481908e-07 0 0)
(1.3337423e-05 2.0251414e-07 0 1.5281322e-08 0 0)
(2.9143012e-05 1.0849814e-06 0 1.8450919e-06 0 0)
(2.5982901e-05 1.4158165e-06 0 1.5439515e-06 0 0)
(2.2951356e-05 1.4356431e-06 0 1.1801298e-06 0 0)
(2.0106149e-05 1.3928989e-06 0 8.7454626e-07 0 0)
(1.7648764e-05 1.2038492e-06 0 5.8164197e-07 0 0)
(1.5514589e-05 9.419951e-07 0 3.3180918e-07 0 0)
(1.3900357e-05 6.0201451e-07 0 1.3307995e-07 0 0)
(1.2725248e-05 2.1163924e-07 0 1.6369616e-08 0 0)
(3.2168151e-05 1.0993528e-06 0 2.3215232e-06 0 0)
(2.8905001e-05 1.5481682e-06 0 2.0094476e-06 0 0)
(2.5590159e-05 1.6428411e-06 0 1.6043472e-06 0 0)
(2.2422855e-05 1.6729007e-06 0 1.2666924e-06 0 0)
(1.9581415e-05 1.5332556e-06 0 9.2819982e-07 0 0)
(1.7020256e-05 1.3109607e-06 0 6.2513748e-07 0 0)
(1.4947089e-05 9.9626986e-07 0 3.5391817e-07 0 0)
(1.3277309e-05 6.3050485e-07 0 1.4265295e-07 0 0)
(1.2163579e-05 2.1763968e-07 0 1.7414831e-08 0 0)
(3.5370391e-05 1.0829669e-06 0 2.8512701e-06 0 0)
(3.2072432e-05 1.652081e-06 0 2.5326428e-06 0 0)
(2.8528491e-05 1.8319767e-06 0 2.0880254e-06 0 0)
(2.5085399e-05 1.9406543e-06 0 1.7228413e-06 0 0)
(2.1897212e-05 1.8579056e-06 0 1.3449729e-06 0 0)
(1.8941152e-05 1.6820964e-06 0 9.9831173e-07 0 0)
(1.6437655e-05 1.3930764e-06 0 6.6723529e-07 0 0)
(1.4305477e-05 1.0473214e-06 0 3.7973675e-07 0 0)
(1.2705354e-05 6.4945549e-07 0 1.5180886e-07 0 0)
(1.1563653e-05 2.2222325e-07 0 1.8552536e-08 0 0)
(3.870326e-05 1.0204129e-06 0 3.4342724e-06 0 0)
(3.545231e-05 1.7337096e-06 0 3.1170772e-06 0 0)
(3.171962e-05 1.9950069e-06 0 2.6308888e-06 0 0)
(2.8055455e-05 2.1940304e-06 0 2.2428692e-06 0 0)
(2.4563658e-05 2.1766049e-06 0 1.8299423e-06 0 0)
(2.1248955e-05 2.0554127e-06 0 1.447472e-06 0 0)
(1.8341369e-05 1.7976671e-06 0 1.0663846e-06 0 0)
(1.5772455e-05 1.4716152e-06 0 7.166264e-07 0 0)
(1.3714969e-05 1.0819607e-06 0 4.0446871e-07 0 0)
(1.2092156e-05 6.6421998e-07 0 1.618354e-07 0 0)
(1.1015701e-05 2.2403528e-07 0 1.960525e-08 0 0)
(4.2123246e-05 9.5316639e-07 0 4.0757512e-06 0 0)
(3.8994062e-05 1.7742422e-06 0 3.761379e-06 0 0)
(3.5120025e-05 2.1362566e-06 0 3.2358477e-06 0 0)
(3.1291965e-05 2.4309495e-06 0 2.8272959e-06 0 0)
(2.7546063e-05 2.4871123e-06 0 2.382832e-06 0 0)
(2.3912063e-05 2.4299725e-06 0 1.9704463e-06 0 0)
(2.0631771e-05 2.210807e-06 0 1.5473457e-06 0 0)
(1.765041e-05 1.9098285e-06 0 1.1465076e-06 0 0)
(1.5157277e-05 1.5262372e-06 0 7.6413097e-07 0 0)
(1.3078109e-05 1.109882e-06 0 4.3173372e-07 0 0)
(1.1531303e-05 6.7057793e-07 0 1.7111315e-07 0 0)
(1.0451165e-05 2.2415358e-07 0 2.0689083e-08 0 0)
(4.559638e-05 7.8806402e-07 0 4.7727234e-06 0 0)
(4.2661864e-05 1.8049174e-06 0 4.471836e-06 0 0)
(3.8682505e-05 2.2469455e-06 0 3.9032984e-06 0 0)
(3.4759701e-05 2.6525497e-06 0 3.4790736e-06 0 0)
(3.0803567e-05 2.7854064e-06 0 3.0035732e-06 0 0)
(2.6896665e-05 2.8036225e-06 0 2.5668255e-06 0 0)
(2.3280645e-05 2.6319562e-06 0 2.107881e-06 0 0)
(1.9915326e-05 2.3633738e-06 0 1.6651705e-06 0 0)
(1.7006612e-05 1.9898731e-06 0 1.2240052e-06 0 0)
(1.4489149e-05 1.5718244e-06 0 8.1685159e-07 0 0)
(1.2494195e-05 1.1233014e-06 0 4.5702045e-07 0 0)
(1.0951797e-05 6.7180467e-07 0 1.8073062e-07 0 0)
(9.9380159e-06 2.2204546e-07 0 2.1639639e-08 0 0)
(4.9101552e-05 7.2766218e-07 0 5.5388992e-06 0 0)
(4.6403798e-05 1.7605368e-06 0 5.2493441e-06 0 0)
(4.2370392e-05 2.3519227e-06 0 4.6419957e-06 0 0)
(3.8410783e-05 2.8460101e-06 0 4.1982468e-06 0 0)
(3.429216e-05 3.0712433e-06 0 3.6947948e-06 0 0)
(3.0163398e-05 3.1726052e-06 0 3.2367256e-06 0 0)
(2.625532e-05 3.0584468e-06 0 2.7471705e-06 0 0)
(2.2540423e-05 2.8320863e-06 0 2.2701098e-06 0 0)
(1.9241008e-05 2.4750601e-06 0 1.7798612e-06 0 0)
(1.630246e-05 2.0588138e-06 0 1.3105303e-06 0 0)
(1.3874086e-05 1.5961194e-06 0 8.6599643e-07 0 0)
(1.1887628e-05 1.1280647e-06 0 4.8347134e-07 0 0)
(1.0424516e-05 6.6626624e-07 0 1.8917867e-07 0 0)
(9.4251154e-06 2.1827043e-07 0 2.2556367e-08 0 0)
(5.2611548e-05 3.9944974e-07 0 6.368903e-06 0 0)
(5.0232552e-05 1.7946831e-06 0 6.111341e-06 0 0)
(4.6135234e-05 2.3880019e-06 0 5.4477195e-06 0 0)
(4.2204723e-05 3.0331841e-06 0 4.9941162e-06 0 0)
(3.7963633e-05 3.3371511e-06 0 4.4573714e-06 0 0)
(3.3674298e-05 3.5357725e-06 0 3.9827551e-06 0 0)
(2.9516824e-05 3.4863528e-06 0 3.465005e-06 0 0)
(2.5494899e-05 3.3134133e-06 0 2.9601936e-06 0 0)
(2.1835957e-05 2.9819592e-06 0 2.4290715e-06 0 0)
(1.8498654e-05 2.5738572e-06 0 1.9086315e-06 0 0)
(1.5650245e-05 2.0987973e-06 0 1.3918389e-06 0 0)
(1.3231184e-05 1.6080574e-06 0 9.17926e-07 0 0)
(1.1334884e-05 1.1210563e-06 0 5.0679592e-07 0 0)
(9.8961608e-06 6.5557926e-07 0 1.9739235e-07 0 0)
(8.9612891e-06 2.1295133e-07 0 2.3301534e-08 0 0)
(5.6087004e-05 4.5811458e-07 0 7.2943623e-06 0 0)
(5.4044529e-05 1.615969e-06 0 7.0599535e-06 0 0)
(4.9955931e-05 2.4939994e-06 0 6.3462047e-06 0 0)
(4.6083944e-05 3.161936e-06 0 5.8644078e-06 0 0)
(4.17814e-05 3.5985683e-06 0 5.3008566e-06 0 0)
(3.7383477e-05 3.8835412e-06 0 4.8055278e-06 0 0)
(3.3026992e-05 3.9132545e-06 0 4.263849e-06 0 0)
(2.8741617e-05 3.8028082e-06 0 3.7348315e-06 0 0)
(2.4762256e-05 3.507837e-06 0 3.170037e-06 0 0)
(2.1055402e-05 3.1176693e-06 0 2.6084932e-06 0 0)
(1.7805541e-05 2.6351967e-06 0 2.0308425e-06 0 0)
(1.496443e-05 2.1226152e-06 0 1.4785441e-06 0 0)
(1.2643538e-05 1.6024474e-06 0 9.640397e-07 0 0)
(1.0778316e-05 1.1050557e-06 0 5.2976356e-07 0 0)
(9.4182096e-06 6.4016401e-07 0 2.0408424e-07 0 0)
(8.5094293e-06 2.0629959e-07 0 2.3960087e-08 0 0)
(5.9528787e-05 -1.0721498e-07 0 8.3132546e-06 0 0)
(5.7901272e-05 1.7473877e-06 0 8.1227949e-06 0 0)
(5.375238e-05 2.3888384e-06 0 7.3291685e-06 0 0)
(5.0035589e-05 3.3444231e-06 0 6.8366967e-06 0 0)
(4.5693313e-05 3.8096859e-06 0 6.2215335e-06 0 0)
(4.1250296e-05 4.2276276e-06 0 5.7139923e-06 0 0)
(3.6739123e-05 4.3326709e-06 0 5.1447472e-06 0 0)
(3.2243281e-05 4.2970204e-06 0 4.5956565e-06 0 0)
(2.7984144e-05 4.0481732e-06 0 4.0015184e-06 0 0)
(2.3945778e-05 3.6876123e-06 0 3.4080928e-06 0 0)
(2.0320309e-05 3.2066469e-06 0 2.7806263e-06 0 0)
(1.7072757e-05 2.6765886e-06 0 2.1622759e-06 0 0)
(1.4334359e-05 2.1220347e-06 0 1.5563649e-06 0 0)
(1.2048573e-05 1.5834187e-06 0 1.0100765e-06 0 0)
(1.0274682e-05 1.0806869e-06 0 5.485972e-07 0 0)
(8.9515078e-06 6.205001e-07 0 2.1005737e-07 0 0)
(8.1025786e-06 1.9883027e-07 0 2.4429759e-08 0 0)
(6.2918684e-05 1.3936065e-07 0 9.4030717e-06 0 0)
(6.1752641e-05 1.33898e-06 0 9.3098138e-06 0 0)
(5.7610841e-05 2.5865072e-06 0 8.4610833e-06 0 0)
(5.3956035e-05 3.3275951e-06 0 7.895813e-06 0 0)
(4.9678918e-05 4.0613412e-06 0 7.2504229e-06 0 0)
(4.5223872e-05 4.5279389e-06 0 6.7053192e-06 0 0)
(4.0614856e-05 4.7513011e-06 0 6.1164635e-06 0 0)
(3.5955064e-05 4.7887145e-06 0 5.5430444e-06 0 0)
(3.1464899e-05 4.5987707e-06 0 4.9240832e-06 0 0)
(2.7136885e-05 4.2789766e-06 0 4.3055027e-06 0 0)
(2.3169746e-05 3.8107697e-06 0 3.6391122e-06 0 0)
(1.9538837e-05 3.2721109e-06 0 2.9673985e-06 0 0)
(1.6394867e-05 2.6854744e-06 0 2.281913e-06 0 0)
(1.3693129e-05 2.1030483e-06 0 1.6350907e-06 0 0)
(1.1509171e-05 1.5515929e-06 0 1.0482593e-06 0 0)
(9.7808473e-06 1.0486116e-06 0 5.6573325e-07 0 0)
(8.5313685e-06 5.9829192e-07 0 2.1434703e-07 0 0)
(7.7142976e-06 1.9053957e-07 0 2.4780157e-08 0 0)
(6.6246421e-05 -7.2748999e-07 0 1.071438e-05 0 0)
(6.5732642e-05 1.6902651e-06 0 1.0660406e-05 0 0)
(6.1480962e-05 2.2428166e-06 0 9.7114143e-06 0 0)
(5.7948685e-05 3.5718242e-06 0 9.1044044e-06 0 0)
(5.3669844e-05 4.1391506e-06 0 8.3693667e-06 0 0)
(4.9289865e-05 4.8611092e-06 0 7.8109726e-06 0 0)
(4.4606965e-05 5.1354902e-06 0 7.177036e-06 0 0)
(3.9836002e-05 5.2810016e-06 0 6.5848626e-06 0 0)
(3.5158937e-05 5.1518609e-06 0 5.9372544e-06 0 0)
(3.0593065e-05 4.8870698e-06 0 5.300133e-06 0 0)
(2.6323174e-05 4.4433092e-06 0 4.6041278e-06 0 0)
(2.2340552e-05 3.9074686e-06 0 3.8921317e-06 0 0)
(1.8810138e-05 3.2957452e-06 0 3.1399981e-06 0 0)
(1.5701682e-05 2.6705862e-06 0 2.4043711e-06 0 0)
(1.3109609e-05 2.0656883e-06 0 1.7014521e-06 0 0)
(1.097817e-05 1.5077911e-06 0 1.0837274e-06 0 0)
(9.3366684e-06 1.0118795e-06 0 5.7820869e-07 0 0)
(8.129885e-06 5.73357e-07 0 2.1759476e-07 0 0)
(7.3648142e-06 1.8202777e-07 0 2.4944198e-08 0 0)
(6.9452201e-05 -2.3783536e-07 0 1.2025549e-05 0 0)
(6.9589944e-05 9.0988944e-07 0 1.2288399e-05 0 0)
(6.5428959e-05 2.6500557e-06 0 1.1165275e-05 0 0)
(6.1974618e-05 3.3184917e-06 0 1.0433789e-05 0 0)
(5.7754503e-05 4.4365384e-06 0 9.6484627e-06 0 0)
(5.3387736e-05 5.0353735e-06 0 9.0069331e-06 0 0)
(4.8707679e-05 5.5471141e-06 0 8.3576923e-06 0 0)
(4.3842631e-05 5.7462589e-06 0 7.7197288e-06 0 0)
(3.9024623e-05 5.7072195e-06 0 7.0471945e-06 0 0)
(3.4270513e-05 5.502244e-06 0 6.3900434e-06 0 0)
(2.9747153e-05 5.0990633e-06 0 5.6741908e-06 0 0)
(2.5450807e-05 4.5789649e-06 0 4.934328e-06 0 0)
(2.1560741e-05 3.9519663e-06 0 4.1297143e-06 0 0)
(1.8061484e-05 3.2898469e-06 0 3.3186626e-06 0 0)
(1.5067459e-05 2.6301233e-06 0 2.5095566e-06 0 0)
(1.2533003e-05 2.0110793e-06 0 1.764256e-06 0 0)
(1.0500353e-05 1.4565972e-06 0 1.1102019e-06 0 0)
(8.9108308e-06 9.6991807e-07 0 5.8807461e-07 0 0)
(7.7691908e-06 5.4784952e-07 0 2.1919711e-07 0 0)
(7.037216e-06 1.7326986e-07 0 2.4965374e-08 0 0)
(7.2589331e-05 -1.4198922e-06 0 1.3800181e-05 0 0)
(7.3556042e-05 1.5176025e-06 0 1.410228e-05 0 0)
(6.9327629e-05 1.909075e-06 0 1.2886194e-05 0 0)
(6.6095622e-05 3.7462457e-06 0 1.202003e-05 0 0)
(6.1889858e-05 4.2729588e-06 0 1.1061877e-05 0 0)
(5.7615539e-05 5.4134653e-06 0 1.0380649e-05 0 0)
(5.2858806e-05 5.8239855e-06 0 9.6388721e-06 0 0)
(4.7972491e-05 6.2346825e-06 0 8.9793556e-06 0 0)
(4.3023639e-05 6.2419043e-06 0 8.2520711e-06 0 0)
(3.8127624e-05 6.1222655e-06 0 7.5793043e-06 0 0)
(3.340041e-05 5.7678779e-06 0 6.8462099e-06 0 0)
(2.8838278e-05 5.2814902e-06 0 6.0920417e-06 0 0)
(2.4621706e-05 4.6514656e-06 0 5.2496251e-06 0 0)
(2.0755245e-05 3.9609656e-06 0 4.3783591e-06 0 0)
(1.7371788e-05 3.2494674e-06 0 3.4751599e-06 0 0)
(1.4438687e-05 2.5662609e-06 0 2.6107516e-06 0 0)
(1.2013538e-05 1.9453636e-06 0 1.8125226e-06 0 0)
(1.004098e-05 1.3966209e-06 0 1.1319558e-06 0 0)
(8.5293191e-06 9.2687927e-07 0 5.9338185e-07 0 0)
(7.4303167e-06 5.2134278e-07 0 2.1962159e-07 0 0)
(6.7415364e-06 1.6482233e-07 0 2.4834079e-08 0 0)
(7.5377439e-05 -6.8558531e-07 0 1.5529519e-05 0 0)
(7.7704257e-05 2.4616076e-07 0 1.6520199e-05 0 0)
(7.3409567e-05 2.5604893e-06 0 1.4905532e-05 0 0)
(7.0245691e-05 3.0765527e-06 0 1.3896846e-05 0 0)
(6.6156634e-05 4.732672e-06 0 1.2760422e-05 0 0)
(6.1907074e-05 5.3629468e-06 0 1.1899621e-05 0 0)
(5.7167268e-05 6.286331e-06 0 1.1121797e-05 0 0)
(5.2164389e-05 6.6071618e-06 0 1.0347425e-05 0 0)
(4.7146796e-05 6.7929914e-06 0 9.5832929e-06 0 0)
(4.213292e-05 6.7259011e-06 0 8.8650896e-06 0 0)
(3.7245934e-05 6.4469185e-06 0 8.1230609e-06 0 0)
(3.2466605e-05 6.004639e-06 0 7.3610386e-06 0 0)
(2.7965057e-05 5.3894049e-06 0 6.4979871e-06 0 0)
(2.3760905e-05 4.6822024e-06 0 5.5831285e-06 0 0)
(2.000742e-05 3.924777e-06 0 4.6003708e-06 0 0)
(1.6685937e-05 3.1785902e-06 0 3.6280211e-06 0 0)
(1.3870467e-05 2.4858591e-06 0 2.690856e-06 0 0)
(1.1512966e-05 1.8661645e-06 0 1.8536843e-06 0 0)
(9.6302921e-06 1.3347154e-06 0 1.1447644e-06 0 0)
(8.1699723e-06 8.8152498e-07 0 5.956103e-07 0 0)
(7.1252583e-06 4.9578629e-07 0 2.1858536e-07 0 0)
(6.4674368e-06 1.5662912e-07 0 2.4557498e-08 0 0)
(7.8109492e-05 -2.2164658e-06 0 1.783461e-05 0 0)
(8.1765094e-05 1.1312928e-06 0 1.9222649e-05 0 0)
(7.7685969e-05 1.207148e-06 0 1.7558336e-05 0 0)
(7.466488e-05 3.6896199e-06 0 1.6136122e-05 0 0)
(7.0575222e-05 4.1463925e-06 0 1.476259e-05 0 0)
(6.6432045e-05 5.9085199e-06 0 1.3763311e-05 0 0)
(6.1527349e-05 6.3392307e-06 0 1.2764976e-05 0 0)
(5.6520991e-05 7.1445837e-06 0 1.1935942e-05 0 0)
(5.1338303e-05 7.2454383e-06 0 1.1026809e-05 0 0)
(4.6264175e-05 7.336466e-06 0 1.0277151e-05 0 0)
(4.125725e-05 7.115071e-06 0 9.5001907e-06 0 0)
(3.6303369e-05 6.7459918e-06 0 8.7446969e-06 0 0)
(3.1558387e-05 6.1579537e-06 0 7.8708752e-06 0 0)
(2.7052281e-05 5.4498308e-06 0 6.9320421e-06 0 0)
(2.2953731e-05 4.6553672e-06 0 5.8863722e-06 0 0)
(1.9261065e-05 3.8499468e-06 0 4.8202166e-06 0 0)
(1.6063433e-05 3.0837903e-06 0 3.7526161e-06 0 0)
(1.3322846e-05 2.3864757e-06 0 2.7616432e-06 0 0)
(1.1065937e-05 1.7833699e-06 0 1.8799962e-06 0 0)
(9.2429732e-06 1.2682877e-06 0 1.1517954e-06 0 0)
(7.8480106e-06 8.3787255e-07 0 5.9372907e-07 0 0)
(6.8420078e-06 4.7085105e-07 0 2.1641845e-07 0 0)
(6.2184286e-06 1.4908094e-07 0 2.4169552e-08 0 0)
(7.9543556e-05 -1.4202935e-06 0 2.0325556e-05 0 0)
(8.6224386e-05 -9.4294837e-07 0 2.2862498e-05 0 0)
(8.2066305e-05 2.0670415e-06 0 2.0700428e-05 0 0)
(7.9439773e-05 2.3854999e-06 0 1.922012e-05 0 0)
(7.5393326e-05 4.7891504e-06 0 1.7285557e-05 0 0)
(7.1202073e-05 5.449429e-06 0 1.5972718e-05 0 0)
(6.6202136e-05 6.9521519e-06 0 1.4833252e-05 0 0)
(6.0920763e-05 7.2943315e-06 0 1.3703754e-05 0 0)
(5.5684361e-05 7.8334644e-06 0 1.2701786e-05 0 0)
(5.0477152e-05 7.8576598e-06 0 1.1803324e-05 0 0)
(4.5411381e-05 7.7870131e-06 0 1.1005398e-05 0 0)
(4.0327552e-05 7.4855109e-06 0 1.0236989e-05 0 0)
(3.5373551e-05 6.9529779e-06 0 9.3717055e-06 0 0)
(3.0602351e-05 6.2581955e-06 0 8.4225712e-06 0 0)
(2.6186904e-05 5.4383618e-06 0 7.3333261e-06 0 0)
(2.2145402e-05 4.5804747e-06 0 6.1902334e-06 0 0)
(1.8580483e-05 3.7417203e-06 0 5.0043221e-06 0 0)
(1.5463944e-05 2.9632353e-06 0 3.8657925e-06 0 0)
(1.2833186e-05 2.2801712e-06 0 2.8100214e-06 0 0)
(1.0644664e-05 1.6928268e-06 0 1.8971042e-06 0 0)
(8.897541e-06 1.2043051e-06 0 1.1506134e-06 0 0)
(7.5485187e-06 7.947012e-07 0 5.8875647e-07 0 0)
(6.5854856e-06 4.4789235e-07 0 2.1309663e-07 0 0)
(5.9886762e-06 1.4216705e-07 0 2.3671301e-08 0 0)
(7.6993065e-05 -4.0959272e-06 0 2.3370318e-05 0 0)
(8.9819646e-05 2.2169216e-07 0 2.7241521e-05 0 0)
(8.7216226e-05 -1.4346006e-07 0 2.5170261e-05 0 0)
(8.4516191e-05 3.0905813e-06 0 2.2829819e-05 0 0)
(8.079831e-05 3.5167612e-06 0 2.0660245e-05 0 0)
(7.6565211e-05 6.2000377e-06 0 1.892366e-05 0 0)
(7.1199224e-05 6.6079254e-06 0 1.7336399e-05 0 0)
(6.5691453e-05 7.9568077e-06 0 1.5965496e-05 0 0)
(6.00946e-05 8.0677162e-06 0 1.457105e-05 0 0)
(5.4846216e-05 8.478229e-06 0 1.3570209e-05 0 0)
(4.9677658e-05 8.3772213e-06 0 1.262881e-05 0 0)
(4.4523551e-05 8.2336878e-06 0 1.186492e-05 0 0)
(3.9394033e-05 7.7605646e-06 0 1.0996811e-05 0 0)
(3.4383614e-05 7.1013581e-06 0 1.0057639e-05 0 0)
(2.968166e-05 6.2701941e-06 0 8.9408052e-06 0 0)
(2.5315999e-05 5.3683536e-06 0 7.7395599e-06 0 0)
(2.1403899e-05 4.4605532e-06 0 6.4508762e-06 0 0)
(1.7925279e-05 3.5994376e-06 0 5.1755204e-06 0 0)
(1.4926987e-05 2.8308095e-06 0 3.9481262e-06 0 0)
(1.2373587e-05 2.1620124e-06 0 2.8454236e-06 0 0)
(1.0270405e-05 1.6050876e-06 0 1.9002592e-06 0 0)
(8.5762148e-06 1.1400165e-06 0 1.1434064e-06 0 0)
(7.2788259e-06 7.5511113e-07 0 5.8044222e-07 0 0)
(6.3486554e-06 4.2674225e-07 0 2.0882545e-07 0 0)
(5.7779824e-06 1.3604068e-07 0 2.3084791e-08 0 0)
(6.7138584e-05 -7.8102052e-06 0 2.6937179e-05 0 0)
(8.9339188e-05 -4.932217e-06 0 3.2623053e-05 0 0)
(9.2024466e-05 9.9650929e-07 0 3.0548256e-05 0 0)
(9.0805015e-05 7.6795876e-07 0 2.833592e-05 0 0)
(8.6940175e-05 4.2404336e-06 0 2.5063575e-05 0 0)
(8.2790267e-05 5.0440482e-06 0 2.2825941e-05 0 0)
(7.6970461e-05 7.4168574e-06 0 2.0802774e-05 0 0)
(7.0880744e-05 7.6929466e-06 0 1.8734083e-05 0 0)
(6.4910377e-05 8.768781e-06 0 1.6991282e-05 0 0)
(5.9314409e-05 8.7703535e-06 0 1.5552586e-05 0 0)
(5.4129783e-05 9.0314118e-06 0 1.4501755e-05 0 0)
(4.8881274e-05 8.9180241e-06 0 1.3622079e-05 0 0)
(4.361128e-05 8.588473e-06 0 1.2775543e-05 0 0)
(3.8382431e-05 7.9720646e-06 0 1.1837714e-05 0 0)
(3.3413011e-05 7.1454679e-06 0 1.0711852e-05 0 0)
(2.8748611e-05 6.210793e-06 0 9.4687961e-06 0 0)
(2.4512102e-05 5.239244e-06 0 8.0952044e-06 0 0)
(2.0690535e-05 4.2966265e-06 0 6.6982047e-06 0 0)
(1.7338019e-05 3.4384748e-06 0 5.3068266e-06 0 0)
(1.4425705e-05 2.6809114e-06 0 4.0131232e-06 0 0)
(1.1966066e-05 2.0459579e-06 0 2.8592263e-06 0 0)
(9.9233997e-06 1.5154838e-06 0 1.8933921e-06 0 0)
(8.2889045e-06 1.081274e-06 0 1.129304e-06 0 0)
(7.0295375e-06 7.1823313e-07 0 5.6944242e-07 0 0)
(6.1320205e-06 4.0808941e-07 0 2.0372175e-07 0 0)
(5.583121e-06 1.3072507e-07 0 2.2423072e-08 0 0)
(6.8557715e-05 -1.5945895e-05 0 3.0649533e-05 0 0)
(8.2290132e-05 -1.1693175e-05 0 3.9131819e-05 0 0)
(9.3220164e-05 -4.7628968e-06 0 3.8034972e-05 0 0)
(9.7236446e-05 1.8073559e-06 0 3.5040971e-05 0 0)
(9.4719026e-05 1.7261373e-06 0 3.1434831e-05 0 0)
(9.0235815e-05 5.9209304e-06 0 2.8348545e-05 0 0)
(8.3862914e-05 6.3443813e-06 0 2.5509803e-05 0 0)
(7.7039945e-05 8.4894739e-06 0 2.265395e-05 0 0)
(7.023745e-05 8.5931734e-06 0 1.9984045e-05 0 0)
(6.4221562e-05 9.466836e-06 0 1.8159438e-05 0 0)
(5.8758926e-05 9.3699173e-06 0 1.6614712e-05 0 0)
(5.3485365e-05 9.6499013e-06 0 1.5638264e-05 0 0)
(4.8033e-05 9.3804304e-06 0 1.4706864e-05 0 0)
(4.2594989e-05 8.876208e-06 0 1.3795086e-05 0 0)
(3.736264e-05 8.0567216e-06 0 1.2650532e-05 0 0)
(3.24207e-05 7.1043108e-06 0 1.1380586e-05 0 0)
(2.7880808e-05 6.0758213e-06 0 9.938627e-06 0 0)
(2.373855e-05 5.0546616e-06 0 8.4385179e-06 0 0)
(2.0051185e-05 4.1053684e-06 0 6.8966758e-06 0 0)
(1.6792482e-05 3.2525314e-06 0 5.4164153e-06 0 0)
(1.3982253e-05 2.5312819e-06 0 4.047446e-06 0 0)
(1.1591502e-05 1.9257796e-06 0 2.8580451e-06 0 0)
(9.6152919e-06 1.4335577e-06 0 1.8744406e-06 0 0)
(8.0235415e-06 1.0257543e-06 0 1.1097307e-06 0 0)
(6.8027513e-06 6.8592789e-07 0 5.5600128e-07 0 0)
(5.9316937e-06 3.9189371e-07 0 1.9794767e-07 0 0)
(5.4024739e-06 1.2625729e-07 0 2.1707292e-08 0 0)
(9.7707042e-05 -2.3563808e-05 0 3.473506e-05 0 0)
(8.8850464e-05 -2.5904749e-05 0 4.6519865e-05 0 0)
(8.8557465e-05 -1.3179936e-05 0 4.6520757e-05 0 0)
(0.00010097488 -4.3476335e-06 0 4.4927116e-05 0 0)
(0.00010352783 2.7451058e-06 0 4.0071251e-05 0 0)
(9.9991547e-05 3.4312481e-06 0 3.6123945e-05 0 0)
(9.2512131e-05 7.2296883e-06 0 3.2434516e-05 0 0)
(8.4687526e-05 7.4093194e-06 0 2.8123282e-05 0 0)
(7.6729605e-05 9.4264264e-06 0 2.4319574e-05 0 0)
(6.9722518e-05 9.3172041e-06 0 2.1444561e-05 0 0)
(6.3923547e-05 1.0027292e-05 0 1.9425565e-05 0 0)
(5.8392141e-05 1.0100316e-05 0 1.791814e-05 0 0)
(5.2760697e-05 1.0232606e-05 0 1.6931481e-05 0 0)
(4.7034465e-05 9.7694116e-06 0 1.5940634e-05 0 0)
(4.1533299e-05 9.0100796e-06 0 1.4791797e-05 0 0)
(3.6310403e-05 8.0387684e-06 0 1.3479739e-05 0 0)
(3.1487842e-05 6.9667936e-06 0 1.1983377e-05 0 0)
(2.7046364e-05 5.8724503e-06 0 1.0398303e-05 0 0)
(2.3046966e-05 4.8320302e-06 0 8.7245259e-06 0 0)
(1.9460227e-05 3.8793207e-06 0 7.0694984e-06 0 0)
(1.6312304e-05 3.063494e-06 0 5.4850182e-06 0 0)
(1.3579518e-05 2.3739061e-06 0 4.0605916e-06 0 0)
(1.1260547e-05 1.8149763e-06 0 2.8375518e-06 0 0)
(9.332139e-06 1.3549312e-06 0 1.845943e-06 0 0)
(7.7840785e-06 9.7756735e-07 0 1.0849989e-06 0 0)
(6.5930041e-06 6.5774228e-07 0 5.4060844e-07 0 0)
(5.7461787e-06 3.783498e-07 0 1.91673e-07 0 0)
(5.2339479e-06 1.2262347e-07 0 2.0954939e-08 0 0)
(0.00016184488 -3.5587109e-05 0 3.8599961e-05 0 0)
(0.00012892017 -3.8237043e-05 0 5.4512942e-05 0 0)
(9.8831345e-05 -3.0458636e-05 0 5.7024941e-05 0 0)
(9.9162992e-05 -1.4127835e-05 0 5.631279e-05 0 0)
(0.00011074681 -3.8101799e-06 0 5.249617e-05 0 0)
(0.00011192165 4.7286909e-06 0 4.7474972e-05 0 0)
(0.00010416403 4.6184767e-06 0 4.2389413e-05 0 0)
(9.4758768e-05 8.1094502e-06 0 3.6307531e-05 0 0)
(8.5110647e-05 8.4763318e-06 0 3.0497996e-05 0 0)
(7.655175e-05 1.0105587e-05 0 2.6363156e-05 0 0)
(6.9857029e-05 9.8188165e-06 0 2.302844e-05 0 0)
(6.4003134e-05 1.0814685e-05 0 2.0947674e-05 0 0)
(5.7907356e-05 1.0872795e-05 0 1.9470884e-05 0 0)
(5.1809655e-05 1.0737931e-05 0 1.8430878e-05 0 0)
(4.593337e-05 9.9674588e-06 0 1.7157916e-05 0 0)
(4.0419458e-05 9.0195552e-06 0 1.5799411e-05 0 0)
(3.5312394e-05 7.9040808e-06 0 1.4233373e-05 0 0)
(3.0591589e-05 6.7480791e-06 0 1.2579404e-05 0 0)
(2.6301833e-05 5.6172489e-06 0 1.0793112e-05 0 0)
(2.2410588e-05 4.5627809e-06 0 8.9829471e-06 0 0)
(1.8943816e-05 3.6448302e-06 0 7.1905808e-06 0 0)
(1.5881885e-05 2.86138e-06 0 5.525443e-06 0 0)
(1.3225734e-05 2.2271239e-06 0 4.0452903e-06 0 0)
(1.0960528e-05 1.7072917e-06 0 2.8019979e-06 0 0)
(9.0789826e-06 1.2871059e-06 0 1.8081163e-06 0 0)
(7.5627401e-06 9.3505446e-07 0 1.0560902e-06 0 0)
(6.399402e-06 6.343952e-07 0 5.2371539e-07 0 0)
(5.5731589e-06 3.6740173e-07 0 1.8505408e-07 0 0)
(5.0758866e-06 1.1979565e-07 0 2.0184456e-08 0 0)
(0.0002700796 -5.0445799e-05 0 4.2254152e-05 0 0)
(0.00020543487 -5.8005377e-05 0 6.3307631e-05 0 0)
(0.00014279847 -4.5565273e-05 0 6.8362919e-05 0 0)
(0.00011213385 -3.5028996e-05 0 7.0861703e-05 0 0)
(0.00011279674 -1.4961593e-05 0 6.7910631e-05 0 0)
(0.00012372851 -1.9463159e-06 0 6.3513297e-05 0 0)
(0.00011956925 5.8513501e-06 0 5.7277782e-05 0 0)
(0.00010890801 5.094162e-06 0 4.8421612e-05 0 0)
(9.6642342e-05 9.2732975e-06 0 3.994201e-05 0 0)
(8.5606332e-05 9.1824107e-06 0 3.3552945e-05 0 0)
(7.7407555e-05 1.0383445e-05 0 2.8574753e-05 0 0)
(7.0686986e-05 1.0693445e-05 0 2.4849851e-05 0 0)
(6.3913656e-05 1.1790697e-05 0 2.2846956e-05 0 0)
(5.706345e-05 1.1561018e-05 0 2.1324045e-05 0 0)
(5.0674296e-05 1.0997635e-05 0 1.9916819e-05 0 0)
(4.4756228e-05 1.0009227e-05 0 1.8365104e-05 0 0)
(3.9351084e-05 8.8874996e-06 0 1.6716395e-05 0 0)
(3.4354142e-05 7.6739363e-06 0 1.4981773e-05 0 0)
(2.9793488e-05 6.460546e-06 0 1.3105093e-05 0 0)
(2.5622987e-05 5.3049433e-06 0 1.1163868e-05 0 0)
(2.185985e-05 4.2770694e-06 0 9.1790694e-06 0 0)
(1.8487817e-05 3.3899058e-06 0 7.2761334e-06 0 0)
(1.5507724e-05 2.6699728e-06 0 5.5262598e-06 0 0)
(1.2911726e-05 2.0824534e-06 0 4.0075106e-06 0 0)
(1.0694157e-05 1.6141273e-06 0 2.7509547e-06 0 0)
(8.8461825e-06 1.2264479e-06 0 1.7625893e-06 0 0)
(7.3598112e-06 9.004349e-07 0 1.023917e-06 0 0)
(6.2188638e-06 6.1566936e-07 0 5.0577314e-07 0 0)
(5.4108318e-06 3.5897981e-07 0 1.7825486e-07 0 0)
(4.9267624e-06 1.1771942e-07 0 1.9412231e-08 0 0)
(0.00045793705 -6.5209502e-05 -4.3709014e-27 4.6004636e-05 2.2888768e-26 3.1133742e-47)
(0.00032809446 -8.1036308e-05 0 7.2046646e-05 0 0)
(0.00022599226 -6.8099041e-05 0 8.1866874e-05 0 0)
(0.00015834778 -5.2967688e-05 0 8.7183694e-05 0 0)
(0.00012880679 -4.0343831e-05 0 8.7405132e-05 0 0)
(0.0001298738 -1.4673765e-05 0 8.4705539e-05 0 0)
(0.00013696651 -1.0143954e-06 0 7.911775e-05 0 0)
(0.00012876987 5.5824175e-06 0 6.6540696e-05 0 0)
(0.00011339227 6.4747823e-06 0 5.4213351e-05 0 0)
(9.8366642e-05 9.9268948e-06 0 4.4845999e-05 0 0)
(8.7687267e-05 9.1235649e-06 0 3.683529e-05 0 0)
(7.9478264e-05 1.1240639e-05 0 3.0916477e-05 0 0)
(7.1277564e-05 1.2016783e-05 0 2.7231403e-05 0 0)
(6.3251295e-05 1.267462e-05 0 2.5196934e-05 0 0)
(5.5911756e-05 1.1911887e-05 0 2.3163544e-05 0 0)
(4.9432646e-05 1.1059876e-05 0 2.1346372e-05 0 0)
(4.3614602e-05 9.8835195e-06 0 1.9455526e-05 0 0)
(3.8330217e-05 8.646596e-06 0 1.762813e-05 0 0)
(3.3504292e-05 7.356736e-06 0 1.5659179e-05 0 0)
(2.9075134e-05 6.1041895e-06 0 1.3612775e-05 0 0)
(2.5040575e-05 4.9621379e-06 0 1.1460508e-05 0 0)
(2.138178e-05 3.9613065e-06 0 9.3333292e-06 0 0)
(1.8097559e-05 3.1439099e-06 0 7.3093521e-06 0 0)
(1.5184174e-05 2.478542e-06 0 5.4953917e-06 0 0)
(1.2635085e-05 1.9562081e-06 0 3.9458924e-06 0 0)
(1.0453299e-05 1.5298604e-06 0 2.6870617e-06 0 0)
(8.6346227e-06 1.1778547e-06 0 1.7109513e-06 0 0)
(7.1704891e-06 8.7265133e-07 0 9.8930517e-07 0 0)
(6.0495221e-06 6.0154896e-07 0 4.872358e-07 0 0)
(5.2575365e-06 3.5292087e-07 0 1.714163e-07 0 0)
(4.7852076e-06 1.1632196e-07 0 1.8651473e-08 0 0)
(0.00074169311 -7.7646024e-05 -1.0694307e-26 4.9873246e-05 -2.9585814e-26 1.0254422e-46)
(0.00052354486 -0.00010559338 1.4728007e-26 8.3225426e-05 -5.0657965e-27 3.4003133e-47)
(0.00035245404 -9.4753268e-05 0 9.5183412e-05 0 0)
(0.00024611801 -7.8991151e-05 0 0.00010680854 0 0)
(0.00017688725 -6.2274606e-05 0 0.00011034082 0 0)
(0.00015038043 -4.7099254e-05 0 0.0001114427 0 0)
(0.00014987192 -1.6894244e-05 0 0.00010841569 0 0)
(0.00015424994 -2.3498579e-06 0 9.4379085e-05 0 0)
(0.00013817229 7.0668588e-06 0 7.5711748e-05 0 0)
(0.00011729275 7.2755903e-06 0 6.2293831e-05 0 0)
(0.00010242959 9.1651226e-06 0 5.013138e-05 0 0)
(9.1826736e-05 9.9277591e-06 0 3.9992003e-05 0 0)
(8.1210278e-05 1.2997497e-05 0 3.4067241e-05 0 0)
(7.0937302e-05 1.324062e-05 0 3.0329281e-05 0 0)
(6.210433e-05 1.3070928e-05 0 2.752379e-05 0 0)
(5.4615039e-05 1.1999413e-05 0 2.4853185e-05 0 0)
(4.8209403e-05 1.0930373e-05 0 2.2611663e-05 0 0)
(4.2530952e-05 9.6400586e-06 0 2.0538165e-05 0 0)
(3.7431154e-05 8.3034269e-06 0 1.8472764e-05 0 0)
(3.2748947e-05 6.9589552e-06 0 1.6330099e-05 0 0)
(2.8467868e-05 5.7036694e-06 0 1.4043112e-05 0 0)
(2.4545586e-05 4.5791177e-06 0 1.1714179e-05 0 0)
(2.0981581e-05 3.6500532e-06 0 9.4213877e-06 0 0)
(1.7771036e-05 2.8941936e-06 0 7.3000593e-06 0 0)
(1.4903636e-05 2.3090584e-06 0 5.4295518e-06 0 0)
(1.2392603e-05 1.8406737e-06 0 3.8639706e-06 0 0)
(1.0235798e-05 1.4627894e-06 0 2.6125518e-06 0 0)
(8.4378366e-06 1.1385946e-06 0 1.6543714e-06 0 0)
(6.9933343e-06 8.5234521e-07 0 9.5326699e-07 0 0)
(5.8893955e-06 5.9174267e-07 0 4.6850326e-07 0 0)
(5.1118575e-06 3.4901067e-07 0 1.6465839e-07 0 0)
(4.6501152e-06 1.1551877e-07 0 1.7908648e-08 0 0)
(0.0011524334 -8.0888725e-05 1.1386288e-26 5.4119763e-05 3.3116712e-26 1.0312962e-46)
(0.0008085765 -0.00012687565 4.0195108e-27 9.4927915e-05 8.3095045e-27 2.3528741e-46)
(0.00054919019 -0.00012383729 0 0.00011286987 0 0)
(0.00037620004 -0.00010940381 0 0.00012629608 0 0)
(0.0002694975 -9.3076956e-05 0 0.00013758908 0 0)
(0.00020301701 -7.6588616e-05 0 0.00014513669 0 0)
(0.00018276951 -6.1364545e-05 0 0.00014620187 0 0)
(0.0001789728 -2.044167e-05 0 0.00013200743 0 0)
(0.00017298305 -1.595652e-07 0 0.00010939504 0 0)
(0.00014595189 7.7592881e-06 0 8.8923062e-05 0 0)
(0.00012459653 5.6005348e-06 0 7.1003047e-05 0 0)
(0.00010987412 9.6623071e-06 0 5.4774018e-05 0 0)
(9.5463421e-05 1.2384307e-05 0 4.4304018e-05 0 0)
(8.1426367e-05 1.4630109e-05 0 3.8361454e-05 0 0)
(6.9875065e-05 1.3722478e-05 0 3.338835e-05 0 0)
(6.0780412e-05 1.3113828e-05 0 2.9524908e-05 0 0)
(5.3318165e-05 1.187838e-05 0 2.6296486e-05 0 0)
(4.7053906e-05 1.0678981e-05 0 2.3859572e-05 0 0)
(4.1586385e-05 9.2772547e-06 0 2.1564627e-05 0 0)
(3.6642907e-05 7.8658183e-06 0 1.9329922e-05 0 0)
(3.2124935e-05 6.500221e-06 0 1.6927554e-05 0 0)
(2.7961503e-05 5.2468236e-06 0 1.4428917e-05 0 0)
(2.4143245e-05 4.1913374e-06 0 1.188538e-05 0 0)
(2.0660414e-05 3.3289855e-06 0 9.4551522e-06 0 0)
(1.7495723e-05 2.6687482e-06 0 7.2415757e-06 0 0)
(1.4668271e-05 2.1519551e-06 0 5.3334379e-06 0 0)
(1.2174761e-05 1.7482373e-06 0 3.7648275e-06 0 0)
(1.003665e-05 1.4082237e-06 0 2.52908e-06 0 0)
(8.2545746e-06 1.1110552e-06 0 1.5949471e-06 0 0)
(6.8254562e-06 8.3882812e-07 0 9.1658606e-07 0 0)
(5.7368231e-06 5.8591188e-07 0 4.499457e-07 0 0)
(4.9725273e-06 3.470103e-07 0 1.5809601e-07 0 0)
(4.5205688e-06 1.1523463e-07 0 1.7186351e-08 0 0)
(0.0017114175 -8.0768758e-05 0 5.8404685e-05 0 0)
(0.0012180819 -0.00013703057 -4.4845435e-26 0.0001090007 3.0909845e-27 2.3550447e-46)
(0.00082960957 -0.00014929154 0 0.00013132265 0 0)
(0.00057290253 -0.00014411191 0 0.00015283888 0 0)
(0.00040334625 -0.00012818468 0 0.00016533929 0 0)
(0.00030245759 -0.00011627831 0 0.00018452699 0 0)
(0.00024988988 -0.00010324505 0 0.00019358105 0 0)
(0.00023096769 -7.5942851e-05 0 0.00018169017 0 0)
(0.00021096043 -1.6462248e-05 0 0.0001563357 0 0)
(0.00018860364 1.0935089e-06 0 0.00013110019 0 0)
(0.00015823748 4.1176764e-06 0 0.00010324986 0 0)
(0.00013739005 5.6617381e-06 0 7.8036838e-05 0 0)
(0.00011659341 1.307871e-05 0 6.1038678e-05 0 0)
(9.6630871e-05 1.4675013e-05 0 5.0497458e-05 0 0)
(8.0586246e-05 1.5076429e-05 0 4.2574145e-05 0 0)
(6.8626759e-05 1.3718866e-05 0 3.5808514e-05 0 0)
(5.9434489e-05 1.2960994e-05 0 3.1142384e-05 0 0)
(5.2089379e-05 1.1638389e-05 0 2.7707113e-05 0 0)
(4.6062796e-05 1.0294479e-05 0 2.5069926e-05 0 0)