/*--------------------------------*- C++ -*----------------------------------*\
| =========                 |                                                 |
| \\      /  F ield         | OpenFOAM: The Open Source CFD Toolbox           |
|  \\    /   O peration     | Version:  5.0                                   |
|   \\  /    A nd           | Web:      www.OpenFOAM.org                      |
|    \\/     M anipulation  |                                                 |
\*---------------------------------------------------------------------------*/
FoamFile
{
    version     2.0;
    format      ascii;
    class       volScalarField;
    location    "380";
    object      p;
}
// * * * * * * * * * * * * * * * * * * * * * * * * * * * * * * * * * * * * * //

dimensions      [0 2 -2 0 0 0 0];

internalField   nonuniform List<scalar> 
9200
(
0.00094280869
0.00095600949
0.0024276646
0.00096403568
0.0024586306
0.0040437031
0.00098439335
0.0024879389
0.0040908726
0.0055036613
0.0010000637
0.0025449062
0.0041429931
0.0055644214
0.006942377
0.0010145818
0.0026066993
0.0042332395
0.0056375983
0.0070159287
0.0082814035
0.0010176069
0.0026800301
0.0043348827
0.0057583622
0.0071088461
0.0083654793
0.0095404558
0.0010052052
0.0027522055
0.0044522706
0.005900067
0.0072586613
0.0084747326
0.00963325
0.010712959
0.00097991998
0.0028115798
0.0045735418
0.0060678896
0.007438898
0.0086477309
0.009755884
0.010812736
0.011804178
0.00091932553
0.0028281677
0.0046949258
0.0062558817
0.0076559959
0.0088576377
0.0099464883
0.010946184
0.011909817
0.012816689
0.00075001478
0.002790718
0.0047998826
0.0064642328
0.0079087049
0.0091106714
0.010176877
0.011149957
0.012052733
0.012927232
0.013754394
0.00042979117
0.0027638741
0.0048700413
0.006684088
0.0081989857
0.0094071083
0.010450361
0.011394298
0.0122679
0.0130786
0.01386892
0.014621102
-3.468484e-05
0.002690702
0.0049150441
0.0069369756
0.0085371458
0.0097515886
0.010764233
0.011678595
0.012525913
0.013304367
0.01402775
0.014738651
0.015420814
-0.00063244035
0.0024605835
0.0049046308
0.0072171718
0.0089371344
0.010153977
0.01111963
0.011996187
0.012822801
0.01357573
0.014262566
0.014904111
0.01554032
0.016157565
-0.0013742987
0.0020099276
0.004786075
0.0074973634
0.0094009776
0.010628895
0.011526781
0.012342891
0.01314985
0.013883966
0.014545551
0.015147182
0.01571167
0.01627778
0.016835509
-0.0022548156
0.0012969025
0.0045092653
0.0077603489
0.0099458339
0.011189422
0.01199741
0.012723699
0.0134989
0.014216939
0.014863726
0.01544149
0.015962607
0.0164538
0.016954978
0.017458939
-0.0036544172
0.00023842551
0.0040211401
0.0079801455
0.010586264
0.011863287
0.012544428
0.013114723
0.013853137
0.014555856
0.015204628
0.015774135
0.016268976
0.016710935
0.017133906
0.017576027
0.018032221
-0.0052992615
-0.0011903297
0.0032755794
0.008120951
0.011336418
0.012678549
0.01318609
0.013546679
0.014156401
0.014876998
0.015547564
0.016133546
0.016619575
0.017029434
0.017394751
0.017755683
0.018145197
0.018559699
-0.0075604849
-0.0029828389
0.0022229008
0.0081413505
0.012211755
0.013665896
0.013946
0.014028513
0.014420417
0.015169818
0.015866201
0.016498924
0.017005035
0.017397972
0.017722533
0.018016881
0.018323167
0.018666841
0.019045686
-0.0095662749
-0.005409486
0.00084022683
0.0079985426
0.0132164
0.014858903
0.014858191
0.014559805
0.01465989
0.015390419
0.01616233
0.016851054
0.017407152
0.01781257
0.018106896
0.018349448
0.018580847
0.018840588
0.019145309
0.019494469
-0.012826084
-0.009107697
-0.00088964008
0.0075823395
0.014358075
0.016286751
0.01595198
0.015150695
0.014861102
0.01548813
0.016393353
0.017189366
0.017822889
0.018260851
0.018547246
0.018743987
0.018913062
0.019090701
0.01931226
0.019584934
0.01991009
-0.0162494
-0.013052523
-0.0030009149
0.0067784884
0.015612115
0.017935582
0.017240968
0.015810563
0.014990311
0.015437516
0.016500585
0.017475034
0.018243027
0.018745572
0.019036352
0.019201803
0.019310591
0.019417145
0.019550819
0.019742658
0.019989963
0.020296205
-0.018394107
-0.016930434
-0.005859434
0.0053616581
0.016911476
0.01978283
0.018723315
0.016550454
0.015013845
0.015193236
0.016430082
0.017671987
0.018639883
0.019254303
0.019575922
0.0197194
0.019777166
0.01981041
0.019866197
0.019965954
0.020136264
0.020364329
0.020656416
-0.019554308
-0.02130794
-0.010292207
0.0027063412
0.018265295
0.021892927
0.020404465
0.017366544
0.014899987
0.014682536
0.016117163
0.017731935
0.018993655
0.019781095
0.020162959
0.020299395
0.020310048
0.0202759
0.020248389
0.020265275
0.020340891
0.020496969
0.020711606
0.020994448
-0.020530486
-0.026205441
-0.015702469
-0.00038214269
0.019775141
0.024293026
0.022234128
0.018252027
0.014605708
0.013831184
0.015478482
0.017597323
0.019276842
0.020317997
0.020801725
0.020943961
0.020912636
0.020810941
0.020703955
0.020629962
0.020619545
0.020679469
0.020828313
0.021035634
0.021313428
-0.021518732
-0.031334959
-0.021176806
-0.0031492864
0.021141197
0.026938261
0.02413085
0.019185691
0.014076724
0.012494559
0.014395229
0.017206282
0.019462929
0.020859791
0.0214951
0.021659289
0.021587765
0.021418282
0.021229732
0.021067999
0.020960894
0.02093324
0.020985427
0.021134941
0.021340547
0.021615672
-0.022476611
-0.036143011
-0.02631492
-0.0056647678
0.021595099
0.02978358
0.025978197
0.020113652
0.013228212
0.010517905
0.012707512
0.016480686
0.019507794
0.021405905
0.0222528
0.022455305
0.022341677
0.022099078
0.021827071
0.021575514
0.021374764
0.021246654
0.021210971
0.021264911
0.021421457
0.021628667
0.02190373
-0.023349341
-0.040496099
-0.031036911
-0.0082034832
0.021232817
0.032434124
0.027547491
0.020923547
0.011915476
0.0076775453
0.010230996
0.015315709
0.019353025
0.021941046
0.023079133
0.023343025
0.02318288
0.022856738
0.022494586
0.022152563
0.02185721
0.021631273
0.021491755
0.021459759
0.02152322
0.021689499
0.02190148
0.022180072
-0.024080257
-0.044601887
-0.035329664
-0.010752444
0.020508137
0.03453499
0.028601764
0.021470647
0.009998742
0.0037471793
0.0068017079
0.013561278
0.018910846
0.022435993
0.023977605
0.024330839
0.02411962
0.023695166
0.023231153
0.022795075
0.022407567
0.022083261
0.021842507
0.021704194
0.021682835
0.021759501
0.021940366
0.022161621
0.022446378
-0.024635602
-0.048513307
-0.039153666
-0.013319238
0.019307321
0.035509208
0.028924167
0.021673064
0.0074658422
-0.0013566103
0.0024385553
0.011031224
0.018034385
0.022842406
0.02494618
0.025427452
0.025160384
0.024617341
0.024033418
0.023496102
0.023019316
0.02260275
0.022259964
0.022011698
0.021885751
0.021878692
0.021974822
0.022177805
0.022411802
0.022704199
-0.024837135
-0.052025845
-0.042534148
-0.015822795
0.01773634
0.034992373
0.028334651
0.021443795
0.0043806215
-0.0076280428
-0.0030944304
0.0074450435
0.016553247
0.023094397
0.025967039
0.026634731
0.026307069
0.025625557
0.024895868
0.024245327
0.023680343
0.023181991
0.02274561
0.022390528
0.022148334
0.022036854
0.022050638
0.022177005
0.022405641
0.022654119
0.022955157
-0.024679239
-0.054505121
-0.045387101
-0.018142462
0.015863171
0.033192109
0.026984967
0.020799498
0.00052771429
-0.01551783
-0.010576449
0.0026133992
0.014140577
0.023100335
0.027007118
0.02793802
0.02755887
0.026704629
0.025810035
0.025027848
0.024374445
0.02380598
0.023292781
0.022840314
0.022481586
0.022255066
0.022162971
0.022211244
0.022371001
0.022625684
0.022890154
0.023200603
-0.024061799
-0.056213346
-0.047802723
-0.020291276
0.013699826
0.03066362
0.025170868
0.019531181
-0.0041025015
-0.025548854
-0.020723041
-0.0037321342
0.010608732
0.022585423
0.028003653
0.029304999
0.02889503
0.02786097
0.026759285
0.025823375
0.025077941
0.02445465
0.023886678
0.023356367
0.022890613
0.022538707
0.022330584
0.022271016
0.022362095
0.022555591
0.022839056
0.02312117
0.023441467
-0.022921957
-0.056349734
-0.049856004
-0.022775416
0.011168524
0.027589595
0.023070208
0.017299813
-0.0094235955
-0.03621811
-0.032799638
-0.012131649
0.0057957751
0.021327006
0.028843321
0.030657851
0.03027455
0.029058607
0.027723998
0.026604874
0.02575905
0.025097436
0.024506073
0.023927157
0.023373941
0.022899936
0.022560813
0.022380706
0.02236651
0.022500383
0.022732907
0.023047836
0.023348377
0.023678584
-0.02136839
-0.054614345
-0.050569242
-0.025333671
0.0074025372
0.024342106
0.020607259
0.014096233
-0.015254859
-0.046836871
-0.046433372
-0.022543912
-0.0016118914
0.019166837
0.029289506
0.031904852
0.031610662
0.030249314
0.028667278
0.027336409
0.026377075
0.025693087
0.025117411
0.024534125
0.023924995
0.02334454
0.022867323
0.022548872
0.022411686
0.022449736
0.022632062
0.022907893
0.0232539
0.023572608
0.023912638
-0.019532828
-0.051165802
-0.05000241
-0.027536175
0.0031552225
0.019594554
0.018055661
0.010201004
-0.021397939
-0.057416052
-0.060884161
-0.03490365
-0.012065555
0.015709942
0.029557159
0.032861525
0.032812154
0.031361446
0.029535417
0.027970009
0.026879888
0.026187672
0.025674014
0.025146065
0.02453154
0.02387319
0.023264552
0.022792913
0.022510712
0.022427848
0.022523973
0.022761218
0.023080526
0.023457558
0.023794518
0.024143903
-0.01747734
-0.046877616
-0.048400858
-0.029292407
-0.0015749934
0.014232092
0.014608009
0.0056387288
-0.027579143
-0.067752486
-0.075403805
-0.048877979
-0.02335934
0.011132679
0.029660929
0.033553888
0.033713161
0.03229578
0.030262328
0.028446012
0.027205419
0.026513165
0.026113218
0.025717034
0.025170024
0.024482871
0.023762981
0.023133622
0.022682876
0.022451193
0.022432692
0.022594143
0.022888107
0.0232515
0.023659913
0.024014703
0.024372841
-0.015269097
-0.041939548
-0.04599993
-0.03058149
-0.0066457923
0.0076641172
0.010642394
0.0010128669
-0.033862569
-0.07740322
-0.089477312
-0.063542663
-0.033908238
0.0059479762
0.028627132
0.033584766
0.034246874
0.032939128
0.030750843
0.028682187
0.027269283
0.026581886
0.026352919
0.026182919
0.025802531
0.025160732
0.024368924
0.023588095
0.022953448
0.022541589
0.022375185
0.022430887
0.022662785
0.023015153
0.023423464
0.023861971
0.024233506
0.024599651
-0.012971568
-0.036515858
-0.042744915
-0.031305683
-0.012103802
0.00013539554
0.0051734037
-0.0029262856
-0.038324746
-0.086598093
-0.10253498
-0.07775126
-0.043751265
0.00013204235
0.025407061
0.032863089
0.033836532
0.033139945
0.030893047
0.028578197
0.026965338
0.026275139
0.026280644
0.026453414
0.026372783
0.025883328
0.025082724
0.024173918
0.023346094
0.02272773
0.022374632
0.022288225
0.022426514
0.022732519
0.023144705
0.023596825
0.02406382
0.024451139
0.024824272
-0.010612849
-0.030754723
-0.038632037
-0.031397733
-0.017765241
-0.0082219383
-0.0019356258
-0.0069988518
-0.0419398
-0.092724403
-0.11532148
-0.091861284
-0.053207433
-0.0061487746
0.021137438
0.031247846
0.032528824
0.032667893
0.030579402
0.028023636
0.026183434
0.025469901
0.02575681
0.026414827
0.026795061
0.026611303
0.025897991
0.024904766
0.023888197
0.023038512
0.022462272
0.022189306
0.022195826
0.022423447
0.022806016
0.023277666
0.023771863
0.024265919
0.024667728
0.025046948
-0.024656799
-0.0082074128
-0.033812495
-0.030863351
-0.023421017
-0.017288456
-0.010461613
-0.011711664
-0.045314819
-0.098574106
-0.12539371
-0.10548868
-0.062142739
-0.012836749
0.016403171
0.029027578
0.030831071
0.031358164
0.029713082
0.026903427
0.024811445
0.024025924
0.024617999
0.025916608
0.026964298
0.027281034
0.026796215
0.025791117
0.024605321
0.023509003
0.022670682
0.022165945
0.021992606
0.022102748
0.022424806
0.022885384
0.023415001
0.023949657
0.024468488
0.024883282
0.025267459
-0.028433996
-0.018247428
-0.0058083159
-0.029639833
-0.029056181
-0.02693848
-0.019962679
-0.017383882
-0.048501047
-0.10322141
-0.13670304
-0.11754695
-0.069479343
-0.019411886
0.011077647
0.02577107
0.028190878
0.029171521
0.028159511
0.025124494
0.022717088
0.021785219
0.022653723
0.0247442
0.026735898
0.027803506
0.027742809
0.026835326
0.025522746
0.024174394
0.023040501
0.022253285
0.021849025
0.021789136
0.022013059
0.022434486
0.022972295
0.023557855
0.024130157
0.02467146
0.02509773
0.025485765
-0.027758414
-0.02250383
-0.011729782
-0.0034313455
-0.034606423
-0.036984436
-0.029905785
-0.023841566
-0.051721315
-0.10638542
-0.14494991
-0.13125345
-0.07701351
-0.025766529
0.0055776675
0.021092777
0.024532241
0.026034013
0.02576651
0.022616816
0.019780011
0.018573046
0.019616253
0.02262775
0.025887558
0.028047139
0.028682084
0.02802954
0.026660761
0.025071857
0.023613583
0.022494526
0.021798443
0.021516782
0.021588049
0.021933614
0.02245469
0.02306792
0.023706471
0.024313479
0.024874843
0.025310961
0.025701797
-0.039813517
-0.025296334
-0.016157406
-0.0053648199
-0.001107832
-0.047212697
-0.040198991
-0.030407558
-0.054892009
-0.10791364
-0.15089231
-0.14285488
-0.087055171
-0.03487234
-0.00011468464
0.015501283
0.019879845
0.021867011
0.022446897
0.01932634
0.015883978
0.014230408
0.015212829
0.019220491
0.02413702
0.027827852
0.029523232
0.029349848
0.028032635
0.026235394
0.024435621
0.022935362
0.021884792
0.021314238
0.021179248
0.021398886
0.021868968
0.022487172
0.023172997
0.023860871
0.024499665
0.025078478
0.025522789
0.025915269
-0.057333283
-0.044470367
-0.022291093
-0.0098369918
0.00069883923
0.0011263132
-0.050748351
-0.036790302
-0.057780315
-0.10748541
-0.15390173
-0.15229255
-0.096656993
-0.044932348
-0.0099328085
0.0094422082
0.01392048
0.016792762
0.018110268
0.015210866
0.010987444
0.0086067206
0.0091464967
0.014058054
0.021096968
0.026895256
0.030133416
0.030746015
0.029637945
0.027693181
0.025550211
0.023626758
0.022155932
0.021224784
0.020814415
0.020851564
0.02122556
0.021820455
0.022533549
0.023288042
0.024021412
0.024688496
0.025282138
0.02573301
0.026126148
-0.061211083
-0.067116523
-0.048475163
-0.018866141
-0.003902638
0.0064423728
0.0032681386
-0.043142192
-0.060114444
-0.10516705
-0.15235262
-0.15728683
-0.10494465
-0.055304389
-0.019447226
-0.0013994101
0.014127977
0.010696978
0.012785398
0.010254479
0.0051002747
0.0016600354
0.0011072808
0.0065894856
0.016179028
0.024876124
0.030294086
0.032132088
0.03145448
0.02946084
0.026995425
0.02461812
0.02266507
0.021294996
0.020532908
0.02031741
0.020541799
0.021071938
0.021790525
0.022594964
0.023413349
0.024187829
0.02487971
0.025485564
0.025941404
0.026334171
-0.049540104
-0.071200124
-0.076184617
-0.051801873
-0.015344978
0.001524938
0.011759663
0.0053641938
-0.061557578
-0.10126924
-0.14671949
-0.15712362
-0.11076202
-0.065150769
-0.030423845
-0.011238015
-0.00024413424
0.0043443257
0.0064431807
0.0045206081
-0.0016213863
-0.0066526043
-0.0092594038
-0.0039936299
0.0086195939
0.021243741
0.029675041
0.033353637
0.033425152
0.031532455
0.028797374
0.025953794
0.023465362
0.021577545
0.020376967
0.019831757
0.019837127
0.02025467
0.020942388
0.021781146
0.022672006
0.023548821
0.0243597
0.025072921
0.025688474
0.026147781
0.026539214
-0.061900418
-0.055402196
-0.080159696
-0.084395568
-0.054375576
-0.011968771
0.0064702072
0.016552953
0.0073402123
-0.095885561
-0.13864008
-0.15357395
-0.11348909
-0.074154948
-0.041676719
-0.023400693
-0.0081291371
-0.0045698801
-0.0005454292
-0.0020143817
-0.0090895411
-0.016159121
-0.02246442
-0.018686886
-0.0027971669
0.015328094
0.027888253
0.034184454
0.035440372
0.033867009
0.030959937
0.027666841
0.024603145
0.022126942
0.020396839
0.01943085
0.019142146
0.019382003
0.01999683
0.020839735
0.021793622
0.022764701
0.023694048
0.024536686
0.025267797
0.025890666
0.026351916
0.026741024
-0.08913092
-0.060963312
-0.060053958
-0.087659739
-0.091505059
-0.056102544
-0.0088249081
0.011009414
0.020808204
0.0091313911
-0.12820381
-0.14687165
-0.11361492
-0.081868469
-0.053216443
-0.036503068
-0.019690021
-0.012772413
-0.0088954469
-0.0088811139
-0.017175801
-0.027131577
-0.037958044
-0.03703819
-0.017692826
0.0066305225
0.023932525
0.034266603
0.037319408
0.036372582
0.03345181
0.029767628
0.026114241
0.022991352
0.020646764
0.019161116
0.018484879
0.018477174
0.018960593
0.019773596
0.020766372
0.021828495
0.022872572
0.023848468
0.024718318
0.025464134
0.026091832
0.026553365
0.026939366
-0.11583533
-0.081037267
-0.058604435
-0.06364451
-0.093367452
-0.097228598
-0.056925727
-0.0059049673
0.015141679
0.02455237
0.010710689
-0.1370217
-0.11144973
-0.087114832
-0.064461047
-0.050544894
-0.033860065
-0.02351586
-0.016367103
-0.016286582
-0.025436339
-0.039242475
-0.05581938
-0.058146343
-0.035738975
-0.0048028999
0.016690717
0.032612216
0.03872218
0.038886028
0.036191166
0.03223222
0.028014617
0.024201271
0.021172003
0.019072481
0.017909885
0.017563
0.017850096
0.018581536
0.019588326
0.020723616
0.021885464
0.022995023
0.024011828
0.024904523
0.0256615
0.026291188
0.026751662
0.027134346
-0.12425561
-0.10190759
-0.071954866
-0.055079612
-0.065925167
-0.097266423
-0.10114343
-0.056736244
-0.0032511001
0.01875283
0.027779672
0.012047306
-0.10685459
-0.088882647
-0.074789541
-0.065179017
-0.050257726
-0.037473039
-0.025745645
-0.022635718
-0.032915464
-0.052972899
-0.073773622
-0.081402954
-0.057688592
-0.020387538
0.0063880839
0.029185953
0.039026377
0.041109866
0.039029752
0.034987779
0.03028713
0.02577819
0.021998055
0.019202281
0.017454112
0.0166727
0.016680051
0.017272694
0.018251192
0.019443577
0.020711661
0.021963937
0.023132021
0.02418418
0.025094636
0.025858425
0.026487942
0.026947269
0.027335648
-0.10035574
-0.10930471
-0.087315011
-0.061976973
-0.050808131
-0.066575672
-0.099301734
-0.1021812
-0.055584268
-0.0009249334
0.021775856
0.030527886
0.0130989
-0.088002406
-0.084029845
-0.080128535
-0.068444783
-0.054117003
-0.038022859
-0.030401806
-0.038504424
-0.062641199
-0.093664109
-0.10497895
-0.082618171
-0.040325797
-0.0072951805
0.023620926
0.038304425
0.042600707
0.041718743
0.037900609
0.03286885
0.027711913
0.023147864
0.019579804
0.017149307
0.015834457
0.015474054
0.015853859
0.016754676
0.01797328
0.019340114
0.020730039
0.022064187
0.023283821
0.02436423
0.025285954
0.026053452
0.026683301
0.027151165
0.027546718
-0.085063639
-0.091842825
-0.093514946
-0.072487757
-0.051742777
-0.045832756
-0.065825386
-0.09898522
-0.10040659
-0.053580916
0.0010545689
0.024342126
0.032571219
0.013974307
-0.092029181
-0.095016465
-0.08804053
-0.073326403
-0.052928917
-0.040128489
-0.045042556
-0.069697699
-0.10637467
-0.13021537
-0.10885716
-0.063834257
-0.024109874
0.014818456
0.035820239
0.043226366
0.043926371
0.040761301
0.035643316
0.029948242
0.024616335
0.020221504
0.017026886
0.015075262
0.014250212
0.014338131
0.015099501
0.016303198
0.017749423
0.019277663
0.020779268
0.022186886
0.023448266
0.024547594
0.025476193
0.026249211
0.026891163
0.027364167
0.027761973
-0.09831237
-0.080474804
-0.081547374
-0.077620604
-0.057822724
-0.041627441
-0.040183044
-0.063936235
-0.095372536
-0.096566755
-0.050911796
0.0029879488
0.026352318
0.034064347
0.014621928
-0.10932837
-0.10860468
-0.09465529
-0.070269402
-0.05161898
-0.053011321
-0.076152161
-0.11877782
-0.1477787
-0.13947713
-0.091585834
-0.042379874
0.0030908077
0.029835586
0.04241037
0.045296073
0.043276034
0.038427946
0.032390307
0.026355594
0.021122954
0.01709674
0.014417675
0.013027669
0.012734163
0.01328746
0.014427955
0.015923176
0.017578839
0.019257121
0.020860793
0.022329062
0.023618622
0.024731031
0.025670323
0.026466296
0.027106947
0.027583005
0.027981178
-0.12233388
-0.10246615
-0.074879894
-0.070058857
-0.062131374
-0.043626376
-0.03167862
-0.034209403
-0.061091929
-0.089373792
-0.090548656
-0.047683512
0.0051267841
0.027923218
0.034680695
0.014977825
-0.12955123
-0.11769454
-0.089770853
-0.064532816
-0.062269435
-0.082871232
-0.1279541
-0.17210423
-0.16576908
-0.12291968
-0.063722465
-0.011013815
0.021276746
0.038386171
0.04545213
0.045087449
0.040964211
0.034880978
0.028292916
0.022246367
0.017351422
0.013868618
0.01181853
0.011050548
0.011316656
0.012338233
0.013846633
0.015617309
0.017462814
0.019281527
0.020971215
0.022480879
0.023790489
0.024923013
0.025899318
0.026691027
0.027330769
0.027806789
0.028204367
-0.15003069
-0.13364642
-0.10428246
-0.06854663
-0.058299681
-0.047418897
-0.030243284
-0.021936342
-0.028092601
-0.057455847
-0.082428542
-0.084502814
-0.043258646
0.0071400525
0.028856424
0.034291214
0.015039895
-0.14196292
-0.11109138
-0.07864097
-0.07226084
-0.090440779
-0.13549154
-0.18850989
-0.20482034
-0.15224172
-0.086359234
-0.027356139
0.011026213
0.031966782
0.043511753
0.045747275
0.042979196
0.037187911
0.030274103
0.023519933
0.017758479
0.013418099
0.010624716
0.009288941
0.0091848996
0.010021178
0.011500943
0.013358573
0.015387174
0.01741214
0.0193476
0.021096695
0.022635907
0.023977339
0.025169335
0.026136292
0.026926461
0.027560156
0.028035684
0.028431325
-0.16636509
-0.16911799
-0.14258702
-0.10411695
-0.061821321
-0.046842242
-0.033870858
-0.017923522
-0.01261127
-0.021776967
-0.052982848
-0.076427206
-0.07685625
-0.038664848
0.0090628094
0.029066675
0.032660588
0.014912168
-0.1336162
-0.093712605
-0.082515126
-0.098193068
-0.14278749
-0.20130919
-0.23203984
-0.19490659
-0.10923202
-0.044666182
-0.00046328134
0.024319465
0.039125284
0.044981905
0.044087928
0.039066311
0.032111811
0.024817087
0.018253196
0.013034695
0.0094323683
0.0074442104
0.006884284
0.00746426
0.0088637041
0.010781431
0.01296655
0.015231895
0.017419046
0.019436566
0.02122727
0.022814282
0.024245984
0.025424739
0.026386918
0.027168003
0.027795813
0.028269129
0.028662022
-0.15569756
-0.1899475
-0.18518817
-0.14903266
-0.10209199
-0.054755091
-0.035798308
-0.021762876
-0.0068981953
-0.0037879109
-0.015604611
-0.048880326
-0.069705823
-0.069412918
-0.033847821
0.010831393
0.028529564
0.03016972
0.014690385
-0.10872646
-0.092364815
-0.10551412
-0.14921409
-0.21113978
-0.25715453
-0.23579933
-0.1440832
-0.06850136
-0.013148201
0.015281191
0.032993194
0.042498056
0.043704917
0.040201447
0.033593008
0.025981883
0.018728436
0.012660192
0.0082093326
0.0054958474
0.004398943
0.0046490401
0.0059114867
0.0078536451
0.010185335
0.012679515
0.015155295
0.01745861
0.019532868
0.021391647
0.023111634
0.024526182
0.025697215
0.026644119
0.027417117
0.0280368
0.028507181
0.028896227
-0.12236025
-0.17592178
-0.2103309
-0.19778317
-0.15272527
-0.098530688
-0.047651071
-0.025583835
-0.011328638
0.002601629
0.0039753628
-0.0096605888
-0.044884599
-0.062248116
-0.061316627
-0.029010609
0.012280651
0.027227926
0.027150231
0.014485234
-0.10116968
-0.11227392
-0.15382616
-0.21672538
-0.27700858
-0.27574253
-0.18481134
-0.099172113
-0.034087744
0.004736268
0.025643575
0.037776328
0.041835085
0.040397272
0.034421738
0.026820048
0.019050644
0.012201368
0.0069006972
0.0034086507
0.0017007691
0.0015474159
0.0026124249
0.004538592
0.0070001532
0.0097257067
0.012497492
0.015124642
0.017507459
0.019675802
0.021725119
0.023424694
0.024827169
0.025976665
0.026910178
0.0276725
0.028283134
0.028749328
0.029133823
-0.10857456
-0.13365657
-0.19176356
-0.22610244
-0.20656788
-0.15361895
-0.094035976
-0.04139894
-0.017097596
-0.0031245864
0.010038955
0.011480623
-0.0053786537
-0.039966178
-0.054212744
-0.052653472
-0.024122502
0.013121262
0.02526601
0.02370789
0.014191707
-0.11807743
-0.15554294
-0.21725662
-0.2895141
-0.30729889
-0.22782731
-0.13316696
-0.056229981
-0.014329793
0.016796812
0.031282977
0.038350869
0.038760694
0.034386965
0.027069859
0.019040936
0.011542961
0.0054230668
0.0011278855
-0.0012511628
-0.0018768763
-0.0010704101
0.00079423498
0.0033627186
0.0063222978
0.0094024759
0.012377308
0.015105895
0.017618518
0.020054433
0.022080958
0.023762995
0.025135437
0.02626637
0.027183401
0.027934146
0.028534115
0.028995449
0.029374609
-0.12181685
-0.11429379
-0.14190176
-0.20187566
-0.23684165
-0.21025519
-0.15199411
-0.089350216
-0.036483928
-0.010741755
0.0031735481
0.016898126
0.016286181
-0.0013186939
-0.034384725
-0.045405997
-0.043719765
-0.019072542
0.0131513
0.022992196
0.02008137
0.013434569
-0.15386156
-0.2128689
-0.29155707
-0.34031503
-0.26927697
-0.1649512
-0.08372274
-0.030939141
-0.0018201562
0.024583076
0.032773103
0.03519632
0.033003383
0.026510396
0.01848892
0.010525711
0.0036762546
-0.0014241342
-0.004514492
-0.0056726845
-0.0051837515
-0.0034254478
-0.0007768323
0.0024133799
0.0058207224
0.0091582867
0.012271031
0.015170942
0.018054093
0.020464913
0.022467299
0.024108664
0.025455317
0.026564262
0.027463752
0.028201176
0.028789528
0.029245112
0.029618454
-0.14911815
-0.12175541
-0.11780378
-0.14607473
-0.205583
-0.23952017
-0.20881728
-0.14807957
-0.084694678
-0.032411938
-0.005685204
0.0097026346
0.020970296
0.020634185
0.0024432997
-0.028436105
-0.036134742
-0.034852171
-0.013807408
0.012655247
0.020524312
0.0167297
0.011987506
-0.20353556
-0.28217334
-0.34789137
-0.30449528
-0.19513288
-0.11164082
-0.053916662
-0.016489637
0.0076101718
0.026932381
0.028511725
0.030207463
0.024744515
0.01718898
0.0089809503
0.0015197766
-0.0043373613
-0.0081655681
-0.0099034193
-0.0097858009
-0.008178805
-0.0054760078
-0.0020610206
0.0016880569
0.0054188238
0.008935754
0.012274425
0.01567852
0.018533737
0.020912438
0.022860676
0.024467364
0.025784366
0.026870281
0.027750151
0.02847333
0.02904881
0.029498287
0.029865054
-0.19028486
-0.14102213
-0.11743095
-0.11840599
-0.14545717
-0.20206107
-0.23245844
-0.20284484
-0.14218272
-0.079434844
-0.028546445
0.00016493675
0.014542489
0.024790639
0.024579622
0.0057517415
-0.022156461
-0.027007103
-0.026011005
-0.0085916468
0.011727268
0.017976475
0.013943717
0.010034673
-0.26425918
-0.33559837
-0.32244303
-0.22005589
-0.13944318
-0.07751102
-0.037731217
-0.0061878128
0.012281093
0.026488352
0.0249384
0.021782144
0.014814874
0.0067205782
-0.0011794338
-0.0077389065
-0.012290463
-0.014648185
-0.014948037
-0.01353421
-0.010803225
-0.0071673984
-0.0030642069
0.0010856075
0.0050411788
0.0088667572
0.012873078
0.016244363
0.019058655
0.021365993
0.023268514
0.024836263
0.026122543
0.027183217
0.028042228
0.028749948
0.029312127
0.029754428
0.030114203
-0.24100833
-0.17295908
-0.13004852
-0.11005589
-0.11415514
-0.14053184
-0.1895741
-0.21858292
-0.192312
-0.13416986
-0.073483787
-0.023256311
0.0055615399
0.018995523
0.027579504
0.027755392
0.0087619581
-0.015522169
-0.018343268
-0.01797859
-0.0040593782
0.010876557
0.015491903
0.011610853
0.0080904998
-0.31070839
-0.32053377
-0.23725662
-0.16363803
-0.10133717
-0.059919599
-0.0263713
-0.00048312702
0.012232442
0.019259198
0.016695727
0.011309447
0.0035034744
-0.0045913827
-0.011730944
-0.01700915
-0.019995555
-0.020755789
-0.019572595
-0.016836826
-0.012982727
-0.008509517
-0.0039182293
0.00051003267
0.0048644586
0.0095814896
0.013545568
0.016866117
0.019587468
0.021835579
0.023687524
0.02521539
0.026468538
0.027502567
0.028339254
0.029031564
0.029578518
0.030013237
0.030365644
-0.27932806
-0.21267137
-0.15327299
-0.116425
-0.10013564
-0.10505564
-0.13219374
-0.17050343
-0.20009812
-0.17831434
-0.12366803
-0.066434435
-0.016252636
0.010442147
0.022550943
0.029476843
0.029960325
0.011644653
-0.008620582
-0.010638968
-0.011117687
-0.00093627964
0.010099111
0.013238598
0.0096078404
0.0063709845
-0.30396546
-0.24601534
-0.17897127
-0.12287603
-0.082949619
-0.047992109
-0.020816727
0.00074608137
0.0085399988
0.010979439
0.0059314093
-0.00072831953
-0.0088854017
-0.016475863
-0.022402237
-0.026063847
-0.027305344
-0.026388022
-0.023667327
-0.019593696
-0.014732058
-0.0096738529
-0.0047444825
0.00019663671
0.0057284862
0.010384314
0.014287447
0.017488861
0.020133777
0.022317217
0.024117931
0.025603359
0.026821616
0.027827672
0.028642358
0.029316608
0.029847643
0.030274244
0.030619148
-0.27551202
-0.24200698
-0.18219991
-0.13229545
-0.10112869
-0.087612157
-0.093130317
-0.1200076
-0.1497055
-0.17826028
-0.15841696
-0.1141731
-0.055324233
-0.0095927518
0.014625516
0.025290061
0.030820374
0.031116993
0.014013567
-0.0020992603
-0.0050483324
-0.0055459582
0.001621679
0.0093573015
0.011281543
0.0078952309
0.00494811
-0.24312954
-0.18382434
-0.13992795
-0.10477745
-0.071291975
-0.043017793
-0.018285684
-0.0023884247
0.0017494556
0.00016402378
-0.0065679495
-0.014126976
-0.022069157
-0.028641262
-0.03292517
-0.034717863
-0.034088011
-0.031398443
-0.027098816
-0.021824897
-0.0162726
-0.010812661
-0.0052304954
0.0012486307
0.0066914971
0.011274481
0.01502629
0.018129973
0.020693215
0.022811563
0.024558207
0.025999159
0.027181312
0.028160355
0.028949334
0.029604678
0.030118887
0.030537097
0.030874472
-0.22701197
-0.23914704
-0.20329774
-0.15124399
-0.11065559
-0.084822238
-0.073395804
-0.078904823
-0.10369496
-0.12906257
-0.15274119
-0.14158408
-0.099337753
-0.044570289
-0.0033324098
0.018056435
0.027233805
0.031488889
0.030707128
0.015681799
0.0028414467
-0.00086598168
-0.001497603
0.0035979451
0.0086676801
0.0096087623
0.0064716366
0.0038255011
-0.18110718
-0.1505167
-0.1232653
-0.094223647
-0.067406103
-0.043390615
-0.020019146
-0.0065615453
-0.0077800329
-0.012811997
-0.020721358
-0.028617455
-0.035747589
-0.040773798
-0.043071743
-0.042800233
-0.040149968
-0.035610155
-0.029892216
-0.023814032
-0.017794509
-0.011513688
-0.0039396603
0.0024039275
0.0077666791
0.012155144
0.015784553
0.018785052
0.02126674
0.023316774
0.025007117
0.026402687
0.027550416
0.028497395
0.029259738
0.029894932
0.030391847
0.030801417
0.031131386
-0.17180284
-0.20071952
-0.20067671
-0.16556304
-0.12190557
-0.089244229
-0.068129271
-0.058519729
-0.063340166
-0.084942138
-0.10944702
-0.1322873
-0.12060061
-0.084659436
-0.033801515
0.0022368824
0.020670566
0.028449314
0.031234356
0.028872198
0.016831566
0.0060048911
0.0023290995
0.0015735875
0.0050073775
0.0080432302
0.0082217661
0.005324486
0.0029674748
-0.15364374
-0.13562415
-0.11472123
-0.092905739
-0.071660974
-0.045122444
-0.023687956
-0.012844714
-0.019946861
-0.027773761
-0.036329252
-0.043913043
-0.049564009
-0.052587306
-0.052624057
-0.0500574
-0.045256822
-0.039051287
-0.032407448
-0.025797843
-0.01875862
-0.0099217085
-0.0025535276
0.0037060803
0.0088215011
0.013056807
0.016557478
0.019455637
0.021852142
0.023831556
0.025465051
0.026817868
0.027924587
0.028838321
0.029572518
0.03018688
0.030666139
0.031066871
0.031389495
-0.14941375
-0.15683733
-0.17035384
-0.16306641
-0.13083486
-0.095152239
-0.068821827
-0.051824168
-0.043959921
-0.047227732
-0.066765979
-0.095117507
-0.10955965
-0.1001087
-0.06934102
-0.02362798
0.0069895221
0.022453679
0.028898421
0.029863401
0.026758921
0.01719373