/*--------------------------------*- C++ -*----------------------------------*\
| =========                 |                                                 |
| \\      /  F ield         | OpenFOAM: The Open Source CFD Toolbox           |
|  \\    /   O peration     | Version:  5.0                                   |
|   \\  /    A nd           | Web:      www.OpenFOAM.org                      |
|    \\/     M anipulation  |                                                 |
\*---------------------------------------------------------------------------*/
FoamFile
{
    version     2.0;
    format      ascii;
    class       surfaceScalarField;
    location    "380";
    object      phi;
}
// * * * * * * * * * * * * * * * * * * * * * * * * * * * * * * * * * * * * * //

dimensions      [0 3 -1 0 0 0 0];

internalField   nonuniform List<scalar> 
18180
(
-0.001887606
-1.3894848
-0.0036730246
-1.2995163
-0.001839497
-1.3876453
-0.005347577
-1.2155011
-0.0035793087
-1.2977765
-0.0017624332
-1.3858829
-0.0069325719
-1.1370175
-0.0052235005
-1.2138569
-0.0034324734
-1.2961065
-0.0016489743
-1.3842339
-0.008409273
-1.0636765
-0.0067859321
-1.135455
-0.0050189284
-1.2122704
-0.0032146151
-1.2945408
-0.0015172465
-1.3827167
-0.0097587065
-0.99513364
-0.0082655414
-1.0621969
-0.0065392511
-1.1339347
-0.0047053151
-1.2107797
-0.0029560316
-1.293102
-0.0013790225
-1.3813376
-0.010942327
-0.93106645
-0.0096540709
-0.99374511
-0.0080060962
-1.06073
-0.006143073
-1.132497
-0.004324175
-1.2094116
-0.0026817786
-1.2917993
-0.0012538764
-1.3800838
-0.011917402
-0.87119992
-0.010932699
-0.92978782
-0.0094326561
-0.99231855
-0.0075494249
-1.0593237
-0.0056390867
-1.131182
-0.0039140268
-1.2081793
-0.0024313012
-1.2906219
-0.0011496751
-1.3789341
-0.012642978
-0.81526659
-0.012077543
-0.87005508
-0.010839495
-0.92838099
-0.0089567999
-0.99091117
-0.0069190415
-1.0580437
-0.0050845625
-1.1300115
-0.0035383163
-1.2070723
-0.0022225375
-1.289549
-0.0010673748
-1.3778667
-0.012990323
-0.76307228
-0.013029963
-0.81431417
-0.012266488
-0.86862808
-0.010419415
-0.92691837
-0.0081931221
-0.98963709
-0.0062007127
-1.0569276
-0.0045756458
-1.1289742
-0.0032278618
-1.206067
-0.0020603597
-1.288556
-0.0010008854
-1.3768658
-0.012837322
-0.7143928
-0.013808539
-0.7622937
-0.013789032
-0.81279163
-0.012005245
-0.86704225
-0.0095056177
-0.92560587
-0.007273891
-0.98856391
-0.005541491
-1.0559617
-0.0041620763
-1.12804
-0.0029929104
-1.2051344
-0.0019341568
-1.2876227
-0.00094271735
-1.3759231
-0.012055268
-0.66910344
-0.014570213
-0.71363113
-0.01555484
-0.76052789
-0.01383192
-0.81096495
-0.010906264
-0.86564161
-0.0083171397
-0.92456262
-0.0064266707
-0.98767873
-0.0050207757
-1.055103
-0.0038621083
-1.1271708
-0.0028161889
-1.2042524
-0.0018275343
-1.2867379
-0.00088674624
-1.3750364
-0.010495167
-0.62698476
-0.015373512
-0.66830014
-0.017578717
-0.71160725
-0.015970979
-0.75838883
-0.012466364
-0.80940485
-0.0093436263
-0.86461512
-0.0072145107
-0.92377478
-0.0057848893
-0.98691462
-0.0046667625
-1.0542984
-0.0036479352
-1.126339
-0.0026693999
-1.2034105
-0.0017248729
-1.2858998
-0.00082856777
-1.3742078
-0.0080616861
-0.58779986
-0.016123831
-0.62623444
-0.019964019
-0.66591484
-0.018495545
-0.70908268
-0.014237491
-0.75661771
-0.010346606
-0.80840187
-0.0078802814
-0.86394935
-0.0064240169
-0.92313566
-0.0053888556
-0.98619253
-0.0044326909
-1.0535136
-0.0034743525
-1.1255341
-0.0025261276
-1.2026093
-0.0016147348
-1.2851136
-0.00076517914
-1.3734426
-0.0046766671
-0.55135751
-0.01672838
-0.58719531
-0.022948157
-0.6232503
-0.021612467
-0.66279792
-0.016305919
-0.70701425
-0.011313166
-0.75565115
-0.0083755846
-0.80790657
-0.0068943784
-0.86347899
-0.0059986171
-0.92252589
-0.0051604657
-0.98546475
-0.0042500308
-1.0527379
-0.0033014213
-1.1247588
-0.002368078
-1.2018559
-0.0014909368
-1.2843879
-0.00069561207
-1.372747
-0.00033111927
-0.51737596
-0.017150154
-0.55093574
-0.026742967
-0.58340051
-0.025562641
-0.61930013
-0.018798076
-0.66030576
-0.01226994
-0.70605748
-0.0086056578
-0.75542107
-0.0071159145
-0.80768503
-0.0064489129
-0.86302869
-0.0058095284
-0.92187683
-0.0049991395
-0.98471564
-0.0040644985
-1.0519748
-0.0031022075
-1.1240246
-0.0021857732
-1.2011611
-0.001352981
-1.2837305
-0.00062163516
-1.3721254
0.0051311541
-0.48565277
-0.01735932
-0.5171668
-0.031549392
-0.54612931
-0.030586608
-0.57837654
-0.02185527
-0.61624294
-0.013214759
-0.65936094
-0.008502555
-0.70616058
-0.0069592524
-0.75557774
-0.0066445204
-0.80748943
-0.0063333148
-0.86250491
-0.0057176531
-0.92115832
-0.0048314305
-0.98394871
-0.0038370068
-1.05124
-0.0028631548
-1.1233473
-0.0019790118
-1.2005351
-0.0012055164
-1.2831466
-0.00054714028
-1.3715782
0.01188653
-0.45613378
-0.017463199
-0.48554889
-0.037603637
-0.51111255
-0.036925574
-0.53979035
-0.0256321
-0.57459971
-0.014148326
-0.61530937
-0.0079682809
-0.65989521
-0.0062879961
-0.70683184
-0.0065197456
-0.75570251
-0.0066810183
-0.80714172
-0.006391186
-0.86183137
-0.0056251164
-0.92036463
-0.0045970822
-0.98318864
-0.0035444489
-1.0505588
-0.0025848233
-1.1227414
-0.0017559282
-1.1999846
-0.0010565386
-1.2826372
-0.00047644947
-1.3711018
0.020400762
-0.42918233
-0.017210297
-0.45638668
-0.045037189
-0.47811534
-0.044766344
-0.50327178
-0.03027191
-0.53515054
-0.015081759
-0.57366628
-0.0068803381
-0.61639731
-0.0049587619
-0.66122445
-0.0059127405
-0.70743885
-0.0068888321
-0.7554947
-0.0070562631
-0.80647665
-0.0064819203
-0.86097457
-0.0054251109
-0.9195366
-0.004257232
-0.98247585
-0.0031873231
-1.0499563
-0.0022796388
-1.1222177
-0.0015296945
-1.1995115
-0.00091482174
-1.2821988
-0.00041296402
-1.3706888
0.030695845
-0.404663
-0.015775247
-0.43061738
-0.053803581
-0.44762029
-0.054206592
-0.46867509
-0.035855791
-0.4976879
-0.016022553
-0.53420974
-0.0050985907
-0.57544802
-0.0027831267
-0.61857295
-0.0046580008
-0.66247919
-0.006859307
-0.70746837
-0.0077380419
-0.75481292
-0.0074776877
-0.80548088
-0.0063860824
-0.8600136
-0.0050445263
-0.91874931
-0.0038110373
-0.98185214
-0.0027866227
-1.0494493
-0.0019676433
-1.1217798
-0.0013143253
-1.199112
-0.00078766201
-1.2818241
-0.00035885248
-1.37033
0.041023384
-0.38042983
-0.012082357
-0.40835589
-0.063679726
-0.42074124
-0.065433272
-0.43639361
-0.042487906
-0.46204298
-0.016952895
-0.49675756
-0.0024670864
-0.53684125
0.00045521093
-0.57868636
-0.0025656801
-0.62066527
-0.0064373195
-0.66290118
-0.0084461396
-0.70676027
-0.00864153
-0.75364908
-0.0075525861
-0.80431438
-0.0059705107
-0.85908761
-0.0044887076
-0.91807164
-0.0032920004
-0.98134676
-0.0023731334
-1.0490438
-0.0016698644
-1.1214242
-0.0011213158
-1.1987783
-0.0006797145
-1.2815033
-0.00031530192
-1.3700147
0.051607199
-0.35529637
-0.0064331672
-0.38607902
-0.074515718
-0.3975199
-0.078915795
-0.40725871
-0.050613411
-0.42826811
-0.017845673
-0.4611502
0.0011709159
-0.50039556
0.0050022517
-0.54138829
0.00059125169
-0.58184329
-0.0054798419
-0.62162275
-0.0091772588
-0.66217006
-0.010065543
-0.70533626
-0.0089951329
-0.75220653
-0.007099256
-0.80318563
-0.0052670205
-0.8583093
-0.0038170653
-0.91754658
-0.0027503831
-0.98096951
-0.0019781395
-1.0487355
-0.0014034936
-1.1211421
-0.00095792302
-1.1985001
-0.00059291296
-1.2812257
-0.00028266073
-1.369732
0.062118745
-0.33051609
-6.9111687e-05
-0.36166043
-0.084742371
-0.37585236
-0.095376858
-0.38105883
-0.061237171
-0.39663495
-0.018886183
-0.4272276
0.005971685
-0.46595097
0.011088303
-0.50648161
0.0050663493
-0.54586339
-0.0038232208
-0.58349991
-0.0099069841
-0.62089302
-0.01187345
-0.66036215
-0.010859861
-0.70347153
-0.0085246782
-0.75078111
-0.0061984824
-0.80225417
-0.0043856703
-0.8577407
-0.0031073406
-0.91718962
-0.0022343289
-0.98071332
-0.0016270962
-1.0485119
-0.0011797268
-1.1209203
-0.00082699938
-1.198266
-0.00052697836
-1.2809814
-0.00026017932
-1.3694718
0.072229933
-0.30582238
0.0051708655
-0.33575606
-0.094837077
-0.35156572
-0.11505622
-0.35617301
-0.075308515
-0.36698749
-0.020701404
-0.39481973
0.012082836
-0.43333875
0.018937792
-0.47380046
0.011131228
-0.51254649
-0.0012771723
-0.54840943
-0.010609888
-0.58279701
-0.014198302
-0.61856817
-0.013324324
-0.65789769
-0.010384478
-0.70161173
-0.0073575577
-0.74962203
-0.0050268106
-0.80161303
-0.0034462786
-0.85740176
-0.0024326741
-0.91699127
-0.0017811077
-0.98055931
-0.0013365516
-1.0483551
-0.0010033757
-1.1207439
-0.0007279621
-1.1980651
-0.00047999718
-1.2807615
-0.00024580307
-1.369226
0.08163241
-0.28127462
0.0089634432
-0.30961496
-0.10618434
-0.3244088
-0.13577355
-0.33084839
-0.092734642
-0.33874688
-0.02385584
-0.36383305
0.019627025
-0.40236392
0.028774672
-0.44317563
0.019053698
-0.48172293
0.0023811713
-0.51620484
-0.011260067
-0.54775926
-0.017203411
-0.5797919
-0.0166103
-0.61528219
-0.012848836
-0.65543333
-0.0088365909
-0.7001327
-0.005776005
-0.74887284
-0.0037677659
-0.80129154
-0.0025576491
-0.85727678
-0.0018488996
-0.91692348
-0.0014138102
-0.98048205
-0.001113286
-1.0482452
-0.00087336312
-1.1205985
-0.00065805606
-1.197887
-0.00044888033
-1.2805585
-0.00023661663
-1.3689894
0.090093309
-0.25762109
0.012463925
-0.2847751
-0.11814833
-0.29765097
-0.15506901
-0.30511334
-0.11135814
-0.31222489
-0.028195068
-0.33440765
0.028699947
-0.37290597
0.040855627
-0.41444488
0.029076741
-0.45319867
0.0074027571
-0.48674452
-0.011807007
-0.5156579
-0.021089644
-0.54387302
-0.020984682
-0.57541752
-0.01612714
-0.61200389
-0.010751556
-0.65351836
-0.006672489
-0.69923622
-0.0040690336
-0.74857157
-0.0025859632
-0.80126323
-0.0018025808
-0.8573231
-0.0013891011
-0.91694819
-0.0011403663
-0.98045497
-0.00095507224
-1.0481635
-0.00078408671
-1.1204725
-0.0006130201
-1.1977229
-0.00042989688
-1.2803652
-0.00023019924
-1.3687592
0.097639001
-0.2353122
0.015549866
-0.26070704
-0.13001128
-0.27291215
-0.1721626
-0.28055738
-0.12874092
-0.28773056
-0.03344896
-0.306971
0.039265067
-0.34497277
0.055324767
-0.38737511
0.041333631
-0.42670177
0.013994453
-0.45979037
-0.012199929
-0.48635159
-0.026091623
-0.51065592
-0.026755496
-0.53810221
-0.020453671
-0.57109099
-0.013235269
-0.60952018
-0.0077618151
-0.65242904
-0.0043415626
-0.69896369
-0.0024839462
-0.74867359
-0.0016030685
-0.80146274
-0.0012286823
-0.85748352
-0.0010621513
-0.91702641
-0.00095589337
-0.98045415
-0.00085257397
-1.048095
-0.00072800386
-1.1203575
-0.00058727656
-1.1975655
-0.00041960958
-1.2801758
-0.00022568703
-1.3685335
0.10436496
-0.21452727
0.018259238
-0.23802157
-0.14158622
-0.2491321
-0.18832835
-0.2567464
-0.14470075
-0.26459755
-0.039583252
-0.28159627
0.050808066
-0.318514
0.072013073
-0.36166108
0.055757354
-0.40179884
0.022149153
-0.43485647
-0.012469604
-0.45952069
-0.03250059
-0.47994263
-0.034279715
-0.5031317
-0.026088029
-0.53246785
-0.01642902
-0.56789724
-0.0090889385
-0.60819305
-0.0045684843
-0.65220212
-0.002205426
-0.69924221
-0.0011963642
-0.74908029
-0.00088615132
-0.80180527
-0.00084544357
-0.85770023
-0.00085790328
-0.9171244
-0.00084699759
-0.98045973
-0.00079280327
-1.0480302
-0.00069747049
-1.1202473
-0.00057498187
-1.1974101
-0.00041570479
-1.2799858
-0.00022341399
-1.3683101
0.11036363
-0.19533091
0.020673129
-0.21694116
-0.15264683
-0.22696096
-0.20339014
-0.2340703
-0.15936024
-0.24208692
-0.046113051
-0.25806775
0.062664298
-0.2934525
0.090585901
-0.33708682
0.07219405
-0.37809777
0.031734185
-0.41138387
-0.012869642
-0.43445643
-0.040735455
-0.45128583
-0.043953082
-0.47026926
-0.033317412
-0.49590232
-0.020479818
-0.52841705
-0.010697164
-0.56628901
-0.0047233636
-0.60803817
-0.0016887836
-0.65271876
-0.00051169523
-0.69992687
-0.00029838637
-0.74966806
-0.00044462642
-0.80220609
-0.00063379024
-0.85792434
-0.00075494457
-0.91721645
-0.00079515085
-0.98045738
-0.00076133842
-1.0479663
-0.0006848253
-1.1201374
-0.00057208096
-1.1972537
-0.00041645684
-1.2797927
-0.0002233961
-1.3680867
0.11571299
-0.1777423
0.022844908
-0.19750269
-0.16306998
-0.20651802
-0.21733247
-0.21301863
-0.17243406
-0.22099648
-0.051912449
-0.23628752
0.074509515
-0.26991297
0.11075546
-0.31362206
0.090659317
-0.35555209
0.043028912
-0.3893925
-0.013468879
-0.41078463
-0.051325946
-0.42386594
-0.0561819
-0.43905701
-0.042434219
-0.46115245
-0.025531028
-0.49085111
-0.012617927
-0.52649629
-0.0047697267
-0.56624265
-0.00085866065
-0.6088683
0.00053967509
-0.65377013
0.00061632688
-0.70084159
0.00020209094
-0.75031477
-0.00024526081
-0.80259462
-0.00055913473
-0.85812015
-0.00072658675
-0.91728501
-0.00077842896
-0.98044029
-0.00075127348
-1.0478999
-0.00068670127
-1.1200228
-0.00057632107
-1.1970939
-0.0004197245
-1.2795964
-0.00022475213
-1.3678619
0.11932472
-0.1892269
0.024813616
-0.17971101
-0.17274694
-0.18782573
-0.2301582
-0.19369228
-0.18403594
-0.20141675
-0.056629204
-0.21627973
0.086240656
-0.24801866
0.13191555
-0.29107306
0.11126379
-0.33422653
0.056800162
-0.36932334
-0.013258513
-0.38960286
-0.064120577
-0.39799
-0.071210457
-0.40883738
-0.053614892
-0.42787634
-0.031701071
-0.45498241
-0.014857727
-0.48861131
-0.0046568522
-0.52660916
0.00037545113
-0.56747676
0.0020650117
-0.61039363
0.0019597826
-0.65511358
0.0011751867
-0.70181468
0.0003592979
-0.75091933
-0.00023378951
-0.80291996
-0.00058083145
-0.85826591
-0.00074398207
-0.91731946
-0.000783022
-0.98040854
-0.00076296505
-1.0478236
-0.00069971329
-1.1198994
-0.00058318118
-1.1969304
-0.00042343762
-1.2793977
-0.00022633935
-1.3676356
0.12310534
-0.18348044
0.026852944
-0.19126623
-0.18159388
-0.17086407
-0.24183974
-0.17614419
-0.19428577
-0.18344245
-0.060224911
-0.19782105
0.097688957
-0.22772803
0.15322268
-0.26932579
0.13291142
-0.31272069
0.073030643
-0.35045701
-0.010650632
-0.37193122
-0.077621914
-0.37610153
-0.088791266
-0.38040919
-0.066796621
-0.39565565
-0.038983354
-0.42059406
-0.017385728
-0.45245441
-0.0043103089
-0.48895785
0.0021146278
-0.52834834
0.0041850016
-0.56959675
0.003851358
-0.61228521
0.0025733619
-0.65651176
0.0012466569
-0.70270204
0.00025648293
-0.7514096
-0.00034746556
-0.80315333
-0.00065854897
-0.85835134
-0.00078284374
-0.91731964
-0.00080778964
-0.98036372
-0.00078622113
-1.0477371
-0.00071033381
-1.1197723
-0.00058868877
-1.1967652
-0.00042657222
-1.2791975
-0.00022738376
-1.3674082
0.12688793
-0.17752642
0.029373953
-0.18600145
-0.18902519
-0.18383492
-0.25239304
-0.16031077
-0.2032714
-0.16715857
-0.062826632
-0.18084073
0.10877881
-0.2089109
0.17401418
-0.24851952
0.15466963
-0.291084
0.0895852
-0.32927524
-0.0053210298
-0.35578662
-0.090528875
-0.35902426
-0.10827717
-0.35661562
-0.082178809
-0.365027
-0.047188922
-0.38745009
-0.020098293
-0.41788149
-0.0036284831
-0.45313623
0.0044699343
-0.49131316
0.0070297943
-0.53119313
0.0064281524
-0.57217354
0.0045159882
-0.61422784
0.0025013031
-0.65776641
0.0009564214
-0.70340198
-1.2474232e-05
-0.7517446
-0.00052784558
-0.80328403
-0.00075770241
-0.85837648
-0.00083363705
-0.91729379
-0.00084295057
-0.98030699
-0.00080373551
-1.0476437
-0.00071847001
-1.1196425
-0.00059399376
-1.1965977
-0.00042865009
-1.2789962
-0.00022757196
-1.3671807
0.13053711
-0.17145533
0.032165683
-0.18031815
-0.19539039
-0.17963625
-0.26272915
-0.17349881
-0.21113951
-0.15244266
-0.064686074
-0.16529913
0.11940028
-0.1914622
0.19388657
-0.22878329
0.17594357
-0.26979347
0.10591271
-0.30741151
0.0016997437
-0.33629602
-0.10253442
-0.34378107
-0.12935998
-0.33794146
-0.10072998
-0.33806445
-0.056613916
-0.35560201
-0.022771045
-0.38477733
-0.0024830766
-0.4190269
0.0075601507
-0.45622645
0.010731902
-0.49501527
0.0098365002
-0.53460148
0.0071397117
-0.57479727
0.0042266281
-0.61595316
0.0019252965
-0.65873528
0.00044394444
-0.7038584
-0.00035877996
-0.75191366
-0.0007249585
-0.80331677
-0.00085783663
-0.85835228
-0.00088862025
-0.91724812
-0.00087254317
-0.98023818
-0.00081641071
-1.0475457
-0.00072732677
-1.1195092
-0.00059777925
-1.1964286
-0.00042914343
-1.2787946
-0.0002268432
-1.3669538
0.13399296
-0.16553292
0.035111334
-0.17440099
-0.20071164
-0.1749969
-0.27200973
-0.17035567
-0.22168888
-0.16294944
-0.065892091
-0.15123664
0.12939644
-0.17529528
0.21263446
-0.21021009
0.19610027
-0.24893999
0.12186923
-0.28574999
0.008279986
-0.31399175
-0.1131254
-0.32570504
-0.15220941
-0.32093164
-0.12297695
-0.31569449
-0.068868414
-0.32580995
-0.025331825
-0.35304123
-0.00070151712
-0.38655889
0.011504806
-0.42297155
0.015416766
-0.46091131
0.014224408
-0.49940317
0.010595842
-0.53805761
0.0065445862
-0.57711523
0.0032371864
-0.61726505
0.0010484499
-0.65933979
-0.00015788333
-0.7040593
-0.00070827896
-0.75193034
-0.00090422853
-0.80327038
-0.00094533384
-0.85829557
-0.00093184485
-0.91718882
-0.00089098326
-0.98016361
-0.00082726441
-1.0474458
-0.00073261952
-1.1193743
-0.00059858589
-1.1962592
-0.00042790269
-1.2785936
-0.00022532208
-1.3667285
0.13725108
-0.15998093
0.038144198
-0.16856578
-0.20486772
-0.1702449
-0.28001597
-0.16699066
-0.23116753
-0.16087702
-0.074143108
-0.15469843
0.13876564
-0.16060584
0.23016753
-0.19282835
0.21484275
-0.22895257
0.13711755
-0.26418831
0.013349711
-0.29081971
-0.12385683
-0.30326032
-0.17565557
-0.30225888
-0.14818662
-0.29572196
-0.085456346
-0.29910656
-0.028470963
-0.32267082
0.0019283116
-0.35567106
0.016412329
-0.39146642
0.021194139
-0.42874893
0.019731132
-0.46641804
0.015041993
-0.50384932
0.0095957634
-0.54110879
0.0049832158
-0.57886126
0.0018360178
-0.61805262
6.6878992e-05
-0.65956455
-0.00073813308
-0.70402944
-0.0010076301
-0.75182694
-0.0010429767
-0.80317274
-0.0010059617
-0.85822145
-0.00095615115
-0.91712365
-0.00090192784
-0.98008894
-0.00083303519
-1.0473454
-0.00073347205
-1.1192394
-0.00059710693
-1.19609
-0.00042530403
-1.2783936
-0.0002231309
-1.3665054
0.14030141
-0.15491675
0.041206139
-0.16304287
-0.20782156
-0.16561195
-0.28663437
-0.1636265
-0.23947498
-0.1586832
-0.081612349
-0.15340778
0.13940902
-0.1553418
0.24636393
-0.17680225
0.23206981
-0.2100554
0.15130208
-0.24313711
0.01745013
-0.26828873
-0.13521739
-0.27945915
-0.19766131
-0.28125458
-0.17385438
-0.27659112
-0.10543775
-0.27574056
-0.03358728
-0.29399024
0.0055765725
-0.32631908
0.022382017
-0.36164075
0.028142287
-0.39841456
0.026476473
-0.43549427
0.020634607
-0.47201065
0.013535486
-0.50778905
0.0072741352
-0.54339971
0.0028526899
-0.57987793
0.0003071474
-0.61829289
-0.00085443962
-0.65944824
-0.0012176329
-0.70381944
-0.0012252287
-0.75164469
-0.0011291383
-0.80304956
-0.0010352038
-0.8581424
-0.00096509815
-0.91706048
-0.00090558872
-0.98001639
-0.00083325488
-1.0472456
-0.00073183194
-1.1191047
-0.00059387786
-1.1959214
-0.00042139569
-1.2781953
-0.00022039433
-1.366285
0.14316378
-0.1505001
0.044255417
-0.15796603
-0.20958403
-0.1612804
-0.29185798
-0.16038834
-0.24655768
-0.1565438
-0.088251905
-0.15204365
0.1401825
-0.15418127
0.25711957
-0.16609744
0.24760457
-0.19233701
0.16415097
-0.22290429
0.020831519
-0.2465185
-0.14661681
-0.25688931
-0.21771694
-0.25940352
-0.19738694
-0.25772202
-0.12661491
-0.25541397
-0.041390713
-0.26793713
0.0098902277
-0.2983039
0.029577975
-0.33351503
0.036315378
-0.36981384
0.034550154
-0.40648824
0.027518193
-0.44237785
0.018530265
-0.47700543
0.010241838
-0.51075675
0.0041596839
-0.5447067
0.0005556937
-0.58012648
-0.0011059955
-0.61804133
-0.0015982072
-0.65906767
-0.001551895
-0.70349277
-0.0013488608
-0.75142497
-0.0011620488
-0.80292272
-0.0010374045
-0.85807009
-0.00096140019
-0.91700467
-0.00090202256
-0.97994762
-0.00082988207
-1.0471476
-0.00072765175
-1.1189709
-0.00058853668
-1.1957542
-0.00041643206
-1.2779993
-0.00021725443
-1.3660677
0.14588052
-0.14689459
0.047293777
-0.15353846
-0.21014581
-0.15740425
-0.29567226
-0.15746612
-0.2523508
-0.15459522
-0.093969082
-0.15082662
0.14102799
-0.15288914
0.26781125
-0.16487295
0.26195065
-0.18044352
0.17554235
-0.20372838
0.023395493
-0.22546827
-0.15773432
-0.23540098
-0.23648913
-0.23811713
-0.21837227
-0.23841819
-0.14733253
-0.2370044
-0.051973767
-0.24483091
0.013961055
-0.27200795
0.038195018
-0.30692094
0.045672984
-0.34287264
0.04399364
-0.37925732
0.035806349
-0.4147764
0.024746671
-0.44859426
0.014042073
-0.48080567
0.0058388032
-0.51243587
0.00080980108
-0.54496081
-0.001551794
-0.57968068
-0.0022297762
-0.61740976
-0.0021008055
-0.65851876
-0.0017281405
-0.70311349
-0.0013827382
-0.75120428
-0.0011490924
-0.80281103
-0.0010183055
-0.85801319
-0.00094758983
-0.9169591
-0.00089325979
-0.97988424
-0.00082328782
-1.0470519
-0.00072083147
-1.1188386
-0.00058187967
-1.1955888
-0.00041076511
-1.2778058
-0.00021387001
-1.3658538
-0.14425404
0.14849269
0.050348044
-0.14994886
-0.20951294
-0.15417133
-0.29807703
-0.15499948
-0.25683329
-0.15298363
-0.09869498
-0.14986932
0.14206415
-0.15186278
0.27809092
-0.16316881
0.27581986
-0.17874216
0.19198261
-0.19688378
0.025427419
-0.20576031
-0.16825643
-0.21494616
-0.25418765
-0.21770246
-0.23746127
-0.21902813
-0.16649352
-0.2192572
-0.064672925
-0.22430524
0.01682691
-0.24769677
0.048069707
-0.28188264
0.056266901
-0.31751486
0.054770264
-0.35364926
0.045569378
-0.38902035
0.032342675
-0.4223724
0.018848183
-0.45340037
0.007996984
-0.48296385
0.001078664
-0.51270473
-0.0022601312
-0.54425247
-0.0032119952
-0.57869846
-0.0029704029
-0.61654017
-0.0023485022
-0.6578984
-0.0017577198
-0.70273851
-0.0013410431
-0.75101233
-0.0011007646
-0.80272857
-0.00098360901
-0.85797717
-0.00092696773
-0.91692539
-0.00088094984
-0.97982658
-0.00081413129
-1.0469586
-0.00071261164
-1.1187079
-0.00057432818
-1.1954252
-0.00040463062
-1.277615
-0.00021035902
-1.3656435
-0.14731344
0.053407446
-0.14258991
0.15098033
-0.20774917
-0.15171263
-0.29916144
-0.15308692
-0.26006638
-0.1517664
-0.10248334
-0.14919527
0.14344766
-0.15125284
0.28770047
-0.16147233
0.28896469
-0.17631364
0.20777389
-0.19453344
0.039927839
-0.2113842
-0.17785135
-0.19616538
-0.27062123
-0.19851258
-0.254815
-0.20034873
-0.18376592
-0.20175573
-0.078047856
-0.20588226
0.017927567
-0.2254059
0.058707027
-0.25833409
0.0680774
-0.29369314
0.066803209
-0.3295478
0.056843343
-0.36492323
0.041461676
-0.39813935
0.024859996
-0.42838422
0.010774886
-0.45617827
0.0013815475
-0.48326673
-0.0033101072
-0.51165475
-0.0046661468
-0.54279832
-0.0042830043
-0.57738586
-0.0033127918
-0.61557588
-0.0023643002
-0.65729182
-0.001666503
-0.70241305
-0.0012423371
-0.75087075
-0.0010280163
-0.80268416
-0.00093941807
-0.85796472
-0.00090260418
-0.91690374
-0.00086658131
-0.97977413
-0.00080362398
-1.0468676
-0.00070347541
-1.1185788
-0.00056616813
-1.1952637
-0.00039828601
-1.2774271
-0.00020683283
-1.3654366
-0.15006122
-0.20500139
-0.1456973
0.056514834
-0.14229637
0.15330811
-0.2990791
-0.15179498
-0.26217689
-0.1509764
-0.10536995
-0.14887979
0.14514081
-0.15088842
0.29654462
-0.16009699
0.30090064
-0.17340828
0.22262087
-0.19116062
0.054167504
-0.2087731
-0.17358974
-0.21564581
-0.28594225
-0.18084436
-0.2703775
-0.18295007
-0.19910703
-0.18500762
-0.090848756
-0.18895483
0.017287299
-0.205242
0.06957434
-0.23627321
0.081060315
-0.27131701
0.079952258
-0.30684219
0.069599136
-0.34230359
0.052226883
-0.37568844
0.032295465
-0.40557482
0.014355933
-0.43196526
0.001766077
-0.4565628
-0.0047788706
-0.48179797
-0.0067363424
-0.50958456
-0.0061878819
-0.54089344
-0.0047472336
-0.57595141
-0.003298459
-0.61464172
-0.0021925994
-0.65676572
-0.0014862419
-0.70216915
-0.0011063516
-0.75079242
-0.00094293844
-0.80268064
-0.00089236203
-0.85797496
-0.00087690545
-0.91689341
-0.00085151448
-0.97972624
-0.00079249552
-1.0467786
-0.00069378735
-1.1184511
-0.00055784607
-1.1951041
-0.00039194439
-1.277242
-0.00020337671
-1.3652333
-0.15112566
-0.29801466
-0.14945703
-0.20124165
-0.14518058
0.059399044
-0.14284443
0.15558335
-0.26335166
-0.15062021
-0.10728543
-0.14906092
0.14711017
-0.15084915
0.30460373
-0.15894753
0.31118917
-0.17038552
0.23596116
-0.18674857
0.067595858
-0.20458898
-0.16798568
-0.21437716
-0.29496364
-0.20662442
-0.28430202
-0.16691984
-0.21263669
-0.16942041
-0.10245796
-0.17339842
0.015453265
-0.18712079
0.080141358
-0.21580901
0.095093999
-0.25030689
0.094074308
-0.28543906
0.083734554
-0.32097761
0.064717435
-0.35479414
0.041382305
-0.38477528
0.018971923
-0.41019081
0.0023159235
-0.43251511
-0.0067434204
-0.45459825
-0.0096005467
-0.47893376
-0.008866613
-0.50690583
-0.0068040617
-0.53883662
-0.0046755973
-0.57457428
-0.0030007722
-0.61383354
-0.0018858091
-0.65636615
-0.0012504785
-0.70202502
-0.00095399881
-0.75078136
-0.00085654971
-0.80271646
-0.00084549761
-0.85800637
-0.00085206671
-0.91689286
-0.00083661097
-0.97968213
-0.00078126794
-1.0466911
-0.00068417149
-1.1183248
-0.00054962442
-1.1949464
-0.00038574892
-1.2770596
-0.00020003717
-1.3650332
-0.15102443
-0.26345289
-0.15181139
-0.2956603
-0.1495363
-0.19688593
-0.14559108
0.062145693
-0.14430119
0.15751818
-0.10808195
-0.14982368
0.14947743
-0.15142818
0.31183919
-0.1580846
0.31974219
-0.16750055
0.24743142
-0.18185578
0.079752781
-0.19890549
-0.16176776
-0.2108069
-0.30260104
-0.20673976
-0.29904762
-0.19187882
-0.22455716
-0.15499937
-0.11273521
-0.15914317
0.012902185
-0.17084734
0.090059338
-0.19703877
0.10989349
-0.23060851
0.10904006
-0.26527265
0.099082766
-0.30078727
0.078972052
-0.33523222
0.052345277
-0.36575712
0.024904041
-0.39070739
0.0031595794
-0.41103447
-0.0092967626
-0.42996177
-0.013460591
-0.45073821
-0.012533593
-0.47526678
-0.0096637101
-0.50404618
-0.0066312952
-0.53688092
-0.0041862651
-0.57338878
-0.0025038886
-0.61321546
-0.0014979475
-0.65611868
-0.00099208028
-0.70198694
-0.00080194791
-0.75083596
-0.00077303186
-0.80278892
-0.00080198877
-0.85805644
-0.00082947892
-0.91689999
-0.00082276321
-0.97964063
-0.00077072524
-1.0466046
-0.00067499921
-1.1181994
-0.00054171465
-1.1947905
-0.00037981004
-1.2768798
-0.00019685523
-1.3648364
-0.15156893
-0.10753745
-0.15307611
-0.26218817
-0.15298232
-0.29221428
-0.15033327
-0.19214374
-0.14667935
0.064523852
-0.14653315
0.15890318
0.15244863
-0.15279489
0.31809324
-0.15768223
0.32665321
-0.16499562
0.25668585
-0.17675498
0.090401989
-0.19250499
-0.15483515
-0.2058381
-0.30878027
-0.20462767
-0.31229153
-0.19349584
-0.24388972
-0.17254626
-0.12171877
-0.14601581
0.010064815
-0.15630579
0.099120319
-0.17990832
0.12508332
-0.2122286
0.12469205
-0.24626049
0.11543149
-0.28162138
0.094962758
-0.31677797
0.065406292
-0.34829324
0.032488064
-0.37334114
0.0044740945
-0.39202191
-0.012517299
-0.40781393
-0.018551509
-0.42487085
-0.017453644
-0.44581815
-0.013536449
-0.47139404
-0.0093204037
-0.50135707
-0.0058569252
-0.53521026
-0.0034112547
-0.57248142
-0.001891357
-0.61282206
-0.0010791897
-0.65603157
-0.00073674113
-0.70205215
-0.00065872225
-0.75095027
-0.0006968868
-0.80289402
-0.00076463218
-0.85812129
-0.00081033005
-0.91691243
-0.0008108526
-0.9796005
-0.00076127564
-1.0465183
-0.00066644319
-1.1180747
-0.00053425429
-1.194636
-0.00037418519
-1.2767025
-0.00019383682
-1.3646425
-0.1550013
0.155881
-0.15454019
-0.10607338
-0.15564774
-0.25952274
-0.15483267
-0.28771488
-0.15169337
-0.18712972
-0.14824331
0.066234007
-0.14928198
0.15969019
0.32317273
-0.15787438
0.33189393
-0.16292295
0.26351395
-0.17182372
0.099043046
-0.18539604
-0.14766388
-0.19967626
-0.31336464
-0.20125373
-0.32381135
-0.19310785
-0.26158383
-0.17580174
-0.14426772
-0.14999731
0.0071938189
-0.14314481
0.10720888
-0.16439436
0.1403212
-0.19514619
0.14081934
-0.2283559
0.13252378
-0.26335278
0.11252794
-0.29918655
0.080673634
-0.33204532
0.042057855
-0.35786303
0.0065205151
-0.37538756
-0.016466229
-0.38807298
-0.025154348
-0.40121109
-0.023933749
-0.41839074
-0.018665498
-0.44068911
-0.012915166
-0.46779928
-0.0081302936
-0.4990837
-0.0046841027
-0.53393741
-0.0024764439
-0.57189633
-0.0012384753
-0.61266277
-0.00066870627
-0.65609961
-0.00050008489
-0.70221078
-0.00052998498
-0.75111717
-0.0006330446
-0.80302561
-0.00073497142
-0.85819665
-0.00079551721
-0.91692776
-0.0008013594
-0.97956042
-0.00075310092
-1.0464316
-0.00065870038
-1.1179503
-0.00052731758
-1.1944829
-0.00036889455
-1.2765274
-0.00019098071
-1.3644516
-0.15873279
0.32690422
-0.15758285
0.15892367
-0.15848446
-0.10323666
-0.15899527
-0.25536015
-0.15727945
-0.28212881
-0.15358178
-0.18179125
-0.15033776
0.067289786
-0.15247274
0.15983659
0.33540234
-0.16138279
0.26790381
-0.16731281
0.1055167
-0.17829738
-0.14079058
-0.19226934
-0.31652577
-0.19651513
-0.33363009
-0.19143499
-0.27763233
-0.17705935
-0.16535584
-0.15471362
-0.012878457
-0.12992504
0.11481578
-0.15075171
0.1552005
-0.17927366
0.1571814
-0.21150825
0.15005853
-0.24589065
0.13127215
-0.282097
0.097804716
-0.31631763
0.053587939
-0.3435754
0.0094842046
-0.36082672
-0.021156057
-0.37069773
-0.033577013
-0.37965031
-0.032343634
-0.39280121
-0.025327059
-0.41172918
-0.017599961
-0.43600431
-0.011128326
-0.46480125
-0.0063998481
-0.49736796
-0.0032990768
-0.53311478
-0.0014919855
-0.57164282
-0.00060358422
-0.61272789
-0.0002922314
-0.65630746
-0.00029062214
-0.70245015
-0.00042274872
-0.75132747
-0.00058419546
-0.80317639
-0.0007138808
-0.85827828
-0.00078549462
-0.91694363
-0.00079446383
-0.97951906
-0.00074639842
-1.0463439
-0.00065183858
-1.1178258
-0.00052091522
-1.1943309
-0.00036392896
-1.2763545
-0.00018827188
-1.3642633
-0.16049264
0.3371622
-0.15944612
0.32876749
-0.16155015
0.16198935
-0.16319137
-0.099040553
-0.16306196
-0.24957763
-0.16043422
-0.27527636
-0.15614583
-0.17598317
-0.15296043
0.067777475
-0.15610804
0.15922901
0.26995822
-0.16343721
0.10961152
-0.17140763
-0.13463263
-0.18445533
-0.31792512
-0.19086999
-0.34156051
-0.18858471
-0.29190007
-0.17716726
-0.18481197
-0.15760321
-0.033252266
-0.13433981
0.10755973
-0.12266899
0.16968926
-0.16524047
0.17348038
-0.19557264
0.16762753
-0.22907725
0.15053246
-0.26515096
0.11572074
-0.30001302
0.066149424
-0.32887912
0.012719985
-0.34681118
-0.027040154
-0.35494262
-0.044192056
-0.36008269
-0.04311479
-0.36887916
-0.033834427
-0.38429384
-0.023563767
-0.40576538
-0.014968796
-0.43216384
-0.0086314978
-0.4625696
-0.0043997401
-0.49626729
-0.0018582495
-0.53274851
-0.00054290421
-0.5717035
-2.616483e-05
-0.61299396
3.6403873e-05
-0.65663449
-0.00011697476
-0.70275592
-0.00034171934
-0.75156994
-0.00055086805
-0.8033394
-0.00070155707
-0.85836222
-0.00078025955
-0.91695783
-0.00079014082
-0.97947531
-0.00074112939
-1.0462546
-0.00064578349
-1.1177009