/*--------------------------------*- C++ -*----------------------------------*\
| =========                 |                                                 |
| \\      /  F ield         | OpenFOAM: The Open Source CFD Toolbox           |
|  \\    /   O peration     | Version:  5.0                                   |
|   \\  /    A nd           | Web:      www.OpenFOAM.org                      |
|    \\/     M anipulation  |                                                 |
\*---------------------------------------------------------------------------*/
FoamFile
{
    version     2.0;
    format      ascii;
    class       surfaceScalarField;
    location    "380";
    object      phi_0;
}
// * * * * * * * * * * * * * * * * * * * * * * * * * * * * * * * * * * * * * //

dimensions      [0 3 -1 0 0 0 0];

internalField   nonuniform List<scalar> 
18180
(
-0.0018862841
-1.3894707
-0.0036703396
-1.2995028
-0.0018382901
-1.3876324
-0.0053435791
-1.2154879
-0.0035766101
-1.2977645
-0.0017623742
-1.38587
-0.0069272605
-1.1370042
-0.005219056
-1.2138455
-0.0034321159
-1.2960948
-0.001650286
-1.3842198
-0.008402663
-1.0636624
-0.0067790715
-1.1354442
-0.0050179993
-1.2122596
-0.0032171093
-1.294528
-0.0015192957
-1.3827005
-0.0097507621
-0.99511753
-0.0082550406
-1.0621864
-0.0065371386
-1.1339251
-0.0047088535
-1.2107678
-0.002960158
-1.2930871
-0.0013809404
-1.3813195
-0.010932968
-0.93104674
-0.0096377255
-0.99373484
-0.008001648
-1.0607219
-0.0061474867
-1.1324864
-0.0043304516
-1.2093976
-0.0026858184
-1.2917822
-0.0012549514
-1.3800646
-0.011905899
-0.87117504
-0.010906946
-0.92977752
-0.009423695
-0.99231279
-0.007554397
-1.059315
-0.0056478631
-1.131169
-0.0039203758
-1.208163
-0.0024337723
-1.2906034
-0.0011495905
-1.378915
-0.012627275
-0.81523461
-0.012036987
-0.870045
-0.010822088
-0.92837913
-0.0089616145
-0.99090558
-0.0069310009
-1.0580319
-0.0050937828
-1.1299956
-0.0035423301
-1.2070544
-0.0022226298
-1.2895303
-0.0010662832
-1.3778487
-0.012967579
-0.76303105
-0.012967031
-0.81430456
-0.012234587
-0.8686325
-0.010422668
-0.92691808
-0.0082094479
-0.98962713
-0.00621385
-1.0569118
-0.0045816356
-1.1289563
-0.0032280678
-1.206049
-0.0020581838
-1.2885384
-0.0009991976
-1.3768495
-0.012803577
-0.71434329
-0.013710333
-0.76228774
-0.01373207
-0.81280708
-0.012004948
-0.86705022
-0.0095285242
-0.925599
-0.0072929975
-0.98854798
-0.005550152
-1.0559433
-0.0041623814
-1.128022
-0.0029893843
-1.2051178
-0.0019304982
-1.2876071
-0.00094087025
-1.3759086
-0.012002365
-0.6690446
-0.014420492
-0.71363313
-0.015460382
-0.76055943
-0.013826091
-0.81098594
-0.010939465
-0.86563928
-0.0083458841
-0.92454611
-0.006439463
-0.98765867
-0.0050210661
-1.0550846
-0.0038567626
-1.1271546
-0.0028102453
-1.204238
-0.0018234363
-1.2867246
-0.00088511569
-1.3750235
-0.010412294
-0.62691081
-0.015148942
-0.66831615
-0.017435844
-0.71165767
-0.01595974
-0.75842578
-0.012517035
-0.80940837
-0.0093876755
-0.86459749
-0.0072339594
-0.92375161
-0.0057852459
-0.98689449
-0.0046588889
-1.0542825
-0.0036390786
-1.1263258
-0.0026628284
-1.2033987
-0.001721314
-1.2858884
-0.00082748321
-1.374196
-0.0079367173
-0.587707
-0.015789684
-0.62627007
-0.019759166
-0.66599283
-0.018477745
-0.70913967
-0.014315035
-0.75662778
-0.010414503
-0.80838154
-0.0079102066
-0.86392124
-0.0064249179
-0.92311194
-0.005377467
-0.98617591
-0.0044200863
-1.0535014
-0.0034647275
-1.1255239
-0.0025205306
-1.2025994
-0.0016124714
-1.2851034
-0.00076488902
-1.3734311
-0.0044939747
-0.55124428
-0.016242374
-0.58725431
-0.022661555
-0.62336768
-0.021587566
-0.662883
-0.016420651
-0.70703405
-0.011417328
-0.75562496
-0.0084218963
-0.80786985
-0.0068970782
-0.86344908
-0.0059824512
-0.92250696
-0.0051427343
-0.98545326
-0.0042365181
-1.0527297
-0.0032933465
-1.1247511
-0.002364618
-1.2018473
-0.0014904037
-1.2843779
-0.00069618392
-1.3727349
-7.0514599e-05
-0.51724314
-0.016463225
-0.55102343
-0.026347163
-0.5835687
-0.025532928
-0.61942232
-0.018966061
-0.66033759
-0.012427274
-0.7060241
-0.0086782122
-0.75536864
-0.0071230224
-0.8076439
-0.0064268258
-0.8630047
-0.0057847659
-0.92186493
-0.0049801198
-0.98470966
-0.0040531146
-1.0519699
-0.0030973737
-1.1240183
-0.0021850992
-1.2011526
-0.0013542161
-1.2837198
-0.00062291339
-1.372112
0.0054850694
-0.48549872
-0.016415809
-0.51729055
-0.031009713
-0.54636088
-0.030556537
-0.57854509
-0.022098663
-0.61628972
-0.013447714
-0.65931715
-0.0086157341
-0.70608658
-0.0069722235
-0.75551944
-0.0066148522
-0.80745588
-0.0062991747
-0.8624903
-0.0056902025
-0.92115484
-0.0048152406
-0.98394753
-0.0038303003
-1.051237
-0.0028624452
-1.123341
-0.0019811303
-1.2005257
-0.0012081784
-1.2831346
-0.00054882652
-1.3715632
0.012353923
-0.45594789
-0.016201036
-0.48571349
-0.036880696
-0.51141957
-0.036903273
-0.54001415
-0.025978565
-0.57466519
-0.014486075
-0.61525136
-0.0081394015
-0.65979349
-0.0063121068
-0.7067467
-0.0064761097
-0.75565818
-0.0066311341
-0.80712392
-0.006349651
-0.86183085
-0.0056010099
-0.92036908
-0.0045876396
-0.9831902
-0.0035438675
-1.0505555
-0.0025881997
-1.1227339
-0.0017602552
-1.1999736
-0.0010600345
-1.2826234
-0.00047822825
-1.371085
0.020990494
-0.42892752
-0.015571423
-0.45657751
-0.044092504
-0.47850169
-0.044766587
-0.50355626
-0.030754456
-0.53523826
-0.015561505
-0.57358976
-0.0071315809
-0.61625918
-0.005001072
-0.66110452
-0.0058473577
-0.70737545
-0.0068133035
-0.75547601
-0.0069910332
-0.80648254
-0.0064440263
-0.86098783
-0.0054113398
-0.91954538
-0.0042568811
-0.98247718
-0.0031927191
-1.049951
-0.0022862095
-1.1222079
-0.0015352771
-1.1994984
-0.00091849271
-1.2821831
-0.00041457369
-1.3706704
0.031415355
-0.40432772
-0.013692043
-0.4308069
-0.052592189
-0.44807782
-0.054247051
-0.46902122
-0.036512387
-0.49779833
-0.01669
-0.53410976
-0.0054580057
-0.57526334
-0.0028524837
-0.61840777
-0.0045649566
-0.66238692
-0.0067414675
-0.70744729
-0.0076399057
-0.75482714
-0.0074190595
-0.8055075
-0.0063654612
-0.86003371
-0.0050448776
-0.91875738
-0.003819577
-0.98185032
-0.0027965262
-1.0494407
-0.001975988
-1.1217672
-0.0013201279
-1.1990967
-0.00079094071
-1.2818067
-0.00036008985
-1.3703103
0.041920573
-0.38010889
-0.0095090534
-0.40851071
-0.062128381
-0.4212707
-0.065513383
-0.43681149
-0.043357124
-0.46217648
-0.017859111
-0.49662922
-0.0029690433
-0.53659873
0.00034769491
-0.57846351
-0.0024379124
-0.62053481
-0.0062566973
-0.66287169
-0.0083009566
-0.70678624
-0.0085536011
-0.7536926
-0.0075227876
-0.80435018
-0.0059726117
-0.85910598
-0.004502202
-0.91807475
-0.00330708
-0.98133977
-0.0023854193
-1.0490313
-0.0016784566
-1.1214089
-0.001126454
-1.1987612
-0.00068220266
-1.2814846
-0.00031601167
-1.3699943
0.052657123
-0.35495921
-0.0033850232
-0.38623292
-0.072488974
-0.39815011
-0.079000697
-0.40778339
-0.051728792
-0.42843982
-0.019047593
-0.460988
0.00048602573
-0.50008428
0.0048428883
-0.54109392
0.00076214833
-0.58166358
-0.0052125067
-0.621579
-0.0089609142
-0.66221174
-0.0099352724
-0.70540457
-0.0089514899
-0.7522639
-0.0071045404
-0.80321825
-0.0052887036
-0.85831948
-0.0038400002
-0.91754183
-0.0027685483
-0.98095664
-0.0019905559
-1.0487192
-0.0014110065
-1.1211244
-0.00096179092
-1.1984816
-0.00059439029
-1.2812062
-0.00028276092
-1.3697115
0.063275847
-0.33018319
0.0034948745
-0.36183911
-0.082150983
-0.37657091
-0.095405372
-0.38174544
-0.062622184
-0.39689
-0.020458339
-0.42702908
0.0050582982
-0.46556028
0.010860566
-0.50610196
0.0052898471
-0.54562162
-0.0034401594
-0.58343592
-0.0095859984
-0.62095392
-0.011681798
-0.66046521
-0.010795846
-0.70356021
-0.0085345486
-0.75083389
-0.0062328123
-0.80227414
-0.004420728
-0.85773875
-0.0031343966
-0.91717599
-0.0022522114
-0.98069499
-0.0016376813
-1.0484925
-0.0011852047
-1.1209009
-0.0008292816
-1.1982467
-0.00052738795
-1.2809616
-0.00025972444
-1.3694518
0.07347834
-0.30553581
0.0093305089
-0.33601882
-0.091618526
-0.35237157
-0.11493437
-0.35704191
-0.076993217
-0.36737441
-0.022755244
-0.39459309
0.010887394
-0.43285817
0.018622258
-0.47332197
0.0114153
-0.51222741
-0.00074345595
-0.54831832
-0.010140377
-0.58288154
-0.013917723
-0.61871799
-0.013231393
-0.65802966
-0.010402073
-0.70169268
-0.0074111414
-0.74965556
-0.0050802787
-0.80161459
-0.0034867941
-0.85738635
-0.0024587357
-0.91696946
-0.0017958757
-0.98053679
-0.0013439113
-1.0483338
-0.0010063216
-1.1207239
-0.0007285734
-1.1980455
-0.00047942835
-1.2807419
-0.00024499947
-1.3692068
0.08300533
-0.28103798
0.013725036
-0.30993034
-0.10239277
-0.32524458
-0.13550325
-0.33180269
-0.094774852
-0.33926028
-0.026543221
-0.36358643
0.018074646
-0.40178035
0.028349724
-0.44258564
0.01940531
-0.48131198
0.0031078464
-0.51607872
-0.010585771
-0.54787293
-0.016795398
-0.58000387
-0.016476913
-0.61547247
-0.012879162
-0.65555257
-0.0089194026
-0.70018442
-0.005857054
-0.74887879
-0.0038284152
-0.80127297
-0.0025959225
-0.85724916
-0.0018697563
-0.91689558
-0.0014235671
-0.98045714
-0.0011167433
-1.0482234
-0.00087376449
-1.1205787
-0.00065708891
-1.1978679
-0.00044753738
-1.2805394
-0.00023571242
-1.3689711
0.091600415
-0.25743639
0.01780035
-0.28511329
-0.11387892
-0.29844419
-0.15473528
-0.30601254
-0.1137726
-0.31280494
-0.031662346
-0.33414115
0.026698344
-0.37221013
0.040302906
-0.41373353
0.029503027
-0.45268336
0.0083699466
-0.48657408
-0.010857224
-0.51580726
-0.020502998
-0.54416533
-0.020797178
-0.5756836
-0.016178067
-0.61217357
-0.01087796
-0.65359402
-0.0067940268
-0.69924745
-0.0041592167
-0.74854798
-0.0026421963
-0.8012267
-0.0018323339
-0.85728659
-0.0014021113
-0.91691704
-0.0011443156
-0.98042957
-0.00095469586
-1.0481424
-0.00078227962
-1.1204535
-0.00061075106
-1.1977047
-0.00042803549
-1.2803471
-0.00022933449
-1.3687418
0.099279671
-0.23516885
0.021423074
-0.26105911
-0.12531713
-0.27367509
-0.1717985
-0.28138097
-0.13145034
-0.2883348
-0.037754882
-0.3067124
0.03672822
-0.34417103
0.054636175
-0.3865434
0.04185123
-0.42608173
0.015258865
-0.45957227
-0.010885247
-0.48654606
-0.025259875
-0.51105039
-0.02649844
-0.53846407
-0.020537711
-0.57132396
-0.013425467
-0.60962606
-0.0079415871
-0.65244646
-0.0044740404
-0.69893263
-0.0025661166
-0.74862406
-0.0016456946
-0.80141334
-0.0012461838
-0.85744251
-0.0010664118
-0.91699494
-0.00095418885
-0.98043007
-0.00084901352
-1.0480757
-0.00072444997
-1.1203398
-0.00058412141
-1.1975486
-0.00041744759
-1.2801589
-0.00022483701
-1.3685169
0.10613547
-0.21441524
0.02462753
-0.2383733
-0.136513
-0.24986324
-0.18793659
-0.25753699
-0.14763126
-0.26520006
-0.044709206
-0.28138048
0.047645555
-0.31762974
0.071188496
-0.36072335
0.056394502
-0.40108667
0.02377947
-0.43460234
-0.010676148
-0.45978137
-0.031339848
-0.48046608
-0.033937215
-0.50361161
-0.0262233
-0.53277848
-0.016709559
-0.56803987
-0.0093504535
-0.60821719
-0.0047602089
-0.65216029
-0.0023242164
-0.69917453
-0.0012573359
-0.74901242
-0.00090991931
-0.8017496
-0.00084969561
-0.85765923
-0.00085391142
-0.91709522
-0.00084052533
-0.98043856
-0.00078697022
-1.0480132
-0.00069268114
-1.1202313
-0.00057134598
-1.1973947
-0.00041338826
-1.2799704
-0.00022250454
-1.3682944
0.11225896
-0.19524493
0.027493728
-0.21728144
-0.14722999
-0.22765632
-0.2030001
-0.23479972
-0.16252953
-0.24263872
-0.052011565
-0.2578977
0.058770123
-0.29250505
0.089613305
-0.33605455
0.072966124
-0.37729497
0.033787783
-0.41109498
-0.010457428
-0.43482106
-0.039143958
-0.45197726
-0.043510893
-0.4708924
-0.033529313
-0.4963056
-0.020885245
-0.52860279
-0.011070303
-0.56632002
-0.0049959381
-0.60798147
-0.0018579529
-0.65262655
-0.00059831043
-0.69983355
-0.0003308732
-0.74959147
-0.00044843241
-0.80215086
-0.00062586817
-0.85788727
-0.0007441534
-0.91719159
-0.00078549
-0.98044004
-0.00075442784
-1.0479514
-0.00067927452
-1.1201233
-0.00056822423
-1.1972399
-0.00041414985
-1.2797787
-0.00022244485
-1.368072
0.1177248
-0.17767853
0.030069908
-0.19782111
-0.15733595
-0.20717548
-0.2169765
-0.21367992
-0.17585542
-0.22147383
-0.058515699
-0.23613459
0.069798487
-0.26892606
0.10960151
-0.31249326
0.091544023
-0.35463244
0.045513921
-0.38902111
-0.010309234
-0.41124317
-0.04920866
-0.42475636
-0.055638908
-0.43984925
-0.042758571
-0.46166315
-0.026105817
-0.49108503
-0.013139635
-0.52653346
-0.0051498813
-0.56616608
-0.0010953577
-0.60874406
0.00041802883
-0.65364289
0.00057179945
-0.70073622
0.00019929792
-0.7502392
-0.00023103852
-0.80254569
-0.00054143832
-0.85808999
-0.00071109009
-0.91726599
-0.00076759516
-0.98042687
-0.00074328249
-1.0478874
-0.00068067891
-1.1200109
-0.00057257782
-1.1970814
-0.0004176227
-1.2795836
-0.00022386539
-1.3678481
0.12142779
-0.18914195
0.032391268
-0.17999989
-0.1667163
-0.18844077
-0.22986552
-0.19428645
-0.1877161
-0.20181925
-0.063863063
-0.21612647
0.080690926
-0.24702703
0.13056778
-0.28989233
0.11223707
-0.33318631
0.059666294
-0.36878482
-0.0092980765
-0.39003227
-0.06142818
-0.39902365
-0.070595766
-0.4097995
-0.054105316
-0.4285025
-0.032501728
-0.45526724
-0.015572683
-0.48865198
-0.0051760751
-0.52650726
5.0595503e-05
-0.56731203
0.0018967334
-0.61022277
0.0018989996
-0.65497009
0.001174263
-0.70171119
0.00038311446
-0.75085335
-0.00020540806
-0.80288172
-0.00055651102
-0.85824457
-0.00072642284
-0.91730716
-0.00077135723
-0.9803988
-0.00075422159
-1.0478139
-0.00069417861
-1.1198893
-0.00057995857
-1.1969191
-0.00042168528
-1.2793858
-0.00022562484
-1.3676225
0.12529345
-0.18341201
0.034726869
-0.19147755
-0.17528198
-0.17143421
-0.24163585
-0.17667044
-0.19822294
-0.18377961
-0.068029096
-0.19765321
0.091319912
-0.22675545
0.15168785
-0.2681471
0.13399766
-0.31165291
0.076240139
-0.34976015
-0.0058689627
-0.37221393
-0.074309574
-0.37715087
-0.088128
-0.38149142
-0.067520043
-0.39638477
-0.040078069
-0.42092616
-0.018346482
-0.45249344
-0.005004553
-0.4888235
0.0016772037
-0.52813387
0.0039560825
-0.56937138
0.0037688278
-0.61209259
0.0025752392
-0.65637107
0.0012845597
-0.70261264
0.00030102089
-0.75135978
-0.00030966908
-0.80312856
-0.00063113869
-0.85833985
-0.00076503558
-0.91731348
-0.0007956308
-0.98035739
-0.00077829414
-1.0477298
-0.00070587073
-1.1197634
-0.00058607195
-1.1967547
-0.00042523825
-1.2791861
-0.00022689991
-1.3673956
0.12915192
-0.1774754
0.037514494
-0.18619963
-0.18237857
-0.18438096
-0.25229412
-0.16077594
-0.2074583
-0.16743508
-0.071151299
-0.18065741
0.10164715
-0.20798046
0.17231352
-0.24738112
0.15589005
-0.29003948
0.0932435
-0.32865627
0.0003098659
-0.35593898
-0.086462427
-0.36006108
-0.10749052
-0.35778836
-0.083161735
-0.36584973
-0.048649108
-0.38781373
-0.021362104
-0.41791054
-0.0045366537
-0.45296134
0.0038936186
-0.49103992
0.0067240498
-0.53090184
0.0063170972
-0.57191965
0.004521626
-0.61403898
0.0025590467
-0.65764555
0.0010244329
-0.70333605
4.5476073e-05
-0.75171493
-0.00048576059
-0.80327394
-0.00073026483
-0.85837462
-0.00081627418
-0.91729284
-0.00083172096
-0.98030396
-0.00079751955
-1.0476381
-0.00071482234
-1.1196346
-0.00059201004
-1.1965879
-0.00042778509
-1.2789853
-0.00022733333
-1.3671683
0.13285997
-0.17141951
0.040540811
-0.18050171
-0.18840837
-0.18016983
-0.2626495
-0.17402558
-0.21555208
-0.15268216
-0.073476683
-0.1651097
0.11157721
-0.19058747
0.19204757
-0.22771451
0.1773104
-0.26880148
0.11003063
-0.30682661
0.0080678276
-0.33641423
-0.097492244
-0.34490916
-0.12830091
-0.33925068
-0.10190353
-0.33904656
-0.058504338
-0.3559945
-0.024393317
-0.38478252
-0.0036447621
-0.41880243
0.0068176939
-0.45588541
0.010331047
-0.49464692
0.0096885358
-0.53427328
0.0071498126
-0.57454783
0.0043113236
-0.61579126
0.0020264386
-0.65864756
0.00053113845
-0.70382171
-0.00029512768
-0.75190556
-0.00068325081
-0.80332096
-0.00083218512
-0.85835871
-0.00087293459
-0.91725163
-0.00086377243
-0.98023771
-0.00081159395
-1.0475414
-0.00072464203
-1.119502
-0.00059658627
-1.1964191
-0.00042876956
-1.2787838
-0.00022683435
-1.3669414
0.13635245
-0.1655062
0.043679777
-0.17455847
-0.1934105
-0.17549958
-0.27196763
-0.17085171
-0.22616105
-0.16341661
-0.07511526
-0.15104358
0.12095534
-0.17448783
0.21068091
-0.20922081
0.19761857
-0.24802268
0.12641739
-0.28518824
0.015417727
-0.31417651
-0.10700798
-0.3268985
-0.15076462
-0.32244546
-0.12422881
-0.3169254
-0.071251349
-0.32629955
-0.02737867
-0.35300915
-0.0021524301
-0.38627485
0.0105698
-0.42255454
0.01490139
-0.46045575
0.014029357
-0.49898774
0.010610456
-0.53773392
0.0066645133
-0.57690102
0.0033837687
-0.61714859
0.0011770621
-0.65929348
-6.3094605e-05
-0.70405374
-0.00064598369
-0.75194283
-0.00086640619
-0.80328674
-0.0009233626
-0.85830828
-0.00091979719
-0.9171956
-0.00088472373
-0.98016458
-0.00082393061
-1.0474421
-0.00073121364
-1.1193674
-0.00059817346
-1.1962497
-0.00042797958
-1.2785827
-0.00022551642
-1.3667159
0.1396285
-0.15996028
0.046868568
-0.16869499
-0.19727086
-0.17069811
-0.28002304
-0.16744417
-0.23569377
-0.16131899
-0.083671541
-0.15486033
0.12976664
-0.15985488
0.22810929
-0.1919162
0.21650395
-0.22810619
0.14208823
-0.26369352
0.021349338
-0.29111985
-0.11665527
-0.30452922
-0.17375679
-0.30390633
-0.14950613
-0.29716814
-0.088362813
-0.29981394
-0.031072915
-0.32260531
0.00015554692
-0.35531712
0.01526213
-0.39096718
0.020544607
-0.42819776
0.019476823
-0.46590322
0.015059788
-0.50343707
0.0097599433
-0.54082935
0.0051903701
-0.57870763
0.0020219353
-0.61799346
0.0002058032
-0.65956238
-0.00064639337
-0.70405333
-0.00095235858
-0.75185687
-0.0010119059
-0.80319819
-0.00098952332
-0.85823856
-0.0009480266
-0.9171323
-0.00089804018
-0.98009047
-0.00083150989
-1.0473418
-0.00073317097
-1.1192324
-0.00059737317
-1.1960803
-0.0004257884
-1.2783824
-0.00022350027
-1.3664924
0.14268384
-0.15490334
0.050054111
-0.16314582
-0.19996231
-0.16600354
-0.28668834
-0.16403281
-0.24404661
-0.15909133
-0.091420949
-0.15356958
0.12975183
-0.15484552
0.2442327
-0.17597829
0.23388057
-0.20929282
0.1566884
-0.24270636
0.026290269
-0.26863446
-0.12701023
-0.28076489
-0.19547685
-0.28280915
-0.17528692
-0.27812554
-0.10885841
-0.27667255
-0.036938582
-0.29394827
0.0034271496
-0.32587691
0.020998626
-0.36105362
0.027339013
-0.39776159
0.026148355
-0.43486929
0.020651916
-0.47149535
0.013752842
-0.50742997
0.0075597332
-0.54319872
0.0031161418
-0.57980183
0.00050750097
-0.61829516
-0.00072107013
-0.6594877
-0.001137497
-0.7038682
-0.0011809805
-0.7516878
-0.0011065607
-0.80308115
-0.0010246923
-0.85816189
-0.00096072659
-0.91706961
-0.00090419583
-0.98001778
-0.00083331179
-1.0472416
-0.00073250235
-1.1190972
-0.00059479472
-1.1959113
-0.00042223908
-1.2781837
-0.00022090676
-1.3662715
0.1455426
-0.15049456
0.053192865
-0.15804209
-0.20150428
-0.16160385
-0.29195007
-0.16074182
-0.25116846
-0.15691096
-0.098307763
-0.15220452
0.12989998
-0.15371772
0.25467073
-0.16528355
0.24956571
-0.19166343
0.1699348
-0.22253922
0.030490852
-0.24690694
-0.13750823
-0.25813646
-0.2154374
-0.26080434
-0.1989432
-0.25915287
-0.13049553
-0.25648842
-0.04562443
-0.2679867
0.0072501957
-0.29777132
0.027960611
-0.33283889
0.035341564
-0.36905617
0.034132303
-0.40574554
0.027528598
-0.44174597
0.018808276
-0.47655078
0.010625941
-0.51049618
0.0045258031
-0.54460838
0.00084007531
-0.58013441
-0.00091460771
-0.61810162
-0.0014831884
-0.65914201
-0.0014890915
-0.70356008
-0.0013177561
-0.7514766
-0.0011484463
-0.8029574
-0.0010326027
-0.85809001
-0.00096061112
-0.9170132
-0.0009029166
-0.97994818
-0.00083135013
-1.0471428
-0.00072928571
-1.1189627
-0.00059001163
-1.1957436
-0.00041756155
-1.277987
-0.00021787315
-1.3660536
0.14824943
-0.14689576
0.056282184
-0.15358388
-0.20189467
-0.1576517
-0.29579387
-0.15776005
-0.25699328
-0.154917
-0.10424214
-0.15097658
0.13016294
-0.15246748
0.26504762
-0.16409462
0.26379449
-0.17951232
0.18169958
-0.20342821
0.033831285
-0.22587966
-0.14781552
-0.23659966
-0.23414547
-0.23942839
-0.21999103
-0.23975651
-0.15149594
-0.23815245
-0.057122816
-0.24499003
0.010673142
-0.27140965
0.036332781
-0.30614349
0.044518214
-0.34201554
0.04347027
-0.37839414
0.035800344
-0.41401728
0.025090392
-0.44802809
0.014546011
-0.48047085
0.0063378525
-0.51230822
0.0012072628
-0.54497557
-0.0012806399
-0.57976838
-0.0020665084
-0.6175183
-0.0020124422
-0.65861866
-0.0016854834
-0.70319236
-0.0013652529
-0.7512598
-0.0011441157
-0.80284589
-0.0010187907
-0.85803183
-0.00095003569
-0.91696608
-0.00089614878
-0.97988338
-0.0008260548
-1.047046
-0.00072324249
-1.1188295
-0.00058378465
-1.1955773
-0.00041210818
-1.2777928
-0.00021455896
-1.3658391
-0.14425871
0.15084706
0.059347931
-0.14996151
-0.20113757
-0.15434097
-0.29821421
-0.15523136
-0.26149507
-0.15325826
-0.10915828
-0.15000086
0.13066895
-0.1514826
0.27502257
-0.16244242
0.27755883
-0.17785896
0.19814285
-0.19595558
0.03655894
-0.20615587
-0.15762006
-0.21607511
-0.25180601
-0.21893911
-0.23913972
-0.2202797
-0.17086622
-0.22038624
-0.070606982
-0.22466829
0.012771088
-0.24708798
0.045928507
-0.28100537
0.054937845
-0.31656312
0.054122439
-0.35266771
0.04553255
-0.38812634
0.03275146
-0.42167835
0.0194924
-0.45297447
0.0086647356
-0.48279774
0.0016261666
-0.51272713
-0.001880583
-0.54437562
-0.002982866
-0.57885202
-0.0028474097
-0.61668334
-0.0022905658
-0.65801358
-0.0017355505
-0.70282206
-0.001336487
-0.75106743
-0.0011036582
-0.80276102
-0.0009888301
-0.85799304
-0.00093213356
-0.91693009
-0.00088554116
-0.97982389
-0.00081793647
-1.0469513
-0.00071561842
-1.1186977
-0.00057656061
-1.1954129
-0.00040611567
-1.2776012
-0.00021108415
-1.365628
-0.14729624
0.062385456
-0.14259468
0.1533117
-0.19929294
-0.15180614
-0.29928813
-0.15326705
-0.26473088
-0.15199556
-0.11310464
-0.1493119
0.13156237
-0.15089427
0.28437052
-0.16083054
0.29061059
-0.17549418
0.21394341
-0.19365952
0.051470294
-0.21086694
-0.16657639
-0.19719953
-0.26822575
-0.19965538
-0.25657987
-0.20149896
-0.18834071
-0.20280521
-0.084624362
-0.20636886
0.012945862
-0.22484306
0.056206654
-0.25736613
0.066588348
-0.29265587
0.066014204
-0.32845488
0.056754358
-0.36388952
0.041926569
-0.39730145
0.025661082
-0.42784703
0.011651241
-0.45596098
0.0021252047
-0.48329677
-0.0027850075
-0.5118227
-0.0043481681
-0.54301032
-0.0041138628
-0.57758557
-0.0032351589
-0.61573874
-0.0023368088
-0.65741232
-0.0016634757
-0.70249507
-0.0012493814
-0.7509217
-0.0010377355
-0.80271211
-0.00094839823
-0.85797678
-0.00091011865
-0.91690552
-0.00087251362
-0.97976932
-0.00080822444
-1.0468587
-0.00070693647
-1.1185673
-0.00056861264
-1.1952504
-0.00039984213
-1.2774125
-0.00020756246
-1.3654204
-0.15007973
-0.19650944
-0.14564293
0.065433704
-0.14230628
0.15561705
-0.29917079
-0.15192348
-0.26683182
-0.15116611
-0.11612344
-0.14897676
0.13281049
-0.15056002
0.29302426
-0.15954801
0.30246987
-0.17268983
0.22879502
-0.19034579
0.066038644
-0.20822787
-0.16139222
-0.2160511
-0.2835249
-0.18190038
-0.27224607
-0.18398918
-0.20388506
-0.18595461
-0.097933021
-0.18949655
0.011332859
-0.20475585
0.066597913
-0.23523432
0.079423621
-0.2702014
0.079009411
-0.30565108
0.069430074
-0.3411306
0.052729093
-0.37469205
0.033262877
-0.40490324
0.015484494
-0.43168028
0.0027626457
-0.45659842
-0.0040593594
-0.48202242
-0.0062992449
-0.50987163
-0.0059581569
-0.54116603
-0.0046449231
-0.5761758
-0.0032655022
-0.61481005
-0.0021930551
-0.65688274
-0.0015000255
-0.70224443
-0.0011229601
-0.75083648
-0.00095770181
-0.80270281
-0.00090427744
-0.85798262
-0.00088617676
-0.91689185
-0.00085846366
-0.97971908
-0.00079768248
-1.046768
-0.00069753306
-1.1184384
-0.00056039174
-1.1950898
-0.00039350903
-1.2772265
-0.00020408454
-1.3652163
-0.15119675
-0.29805377
-0.14939533
-0.19275705
-0.14510275
0.068230177
-0.14285944
0.15787172
-0.26798464
-0.15077066
-0.11816973
-0.14911981
0.13438705
-0.15055333
0.30096027
-0.15849603
0.31271536
-0.1697935
0.24215624
-0.18605105
0.079743208
-0.20405036
-0.15493638
-0.21468372
-0.29194182
-0.20763419
-0.28629248
-0.16785397
-0.21760912
-0.17026512
-0.10993916
-0.17394847
0.0085546085
-0.1867183
0.076574756
-0.2147327
0.093308756
-0.24911946
0.092974584
-0.28416657
0.083450102
-0.31967111
0.06522632
-0.35362783
0.042514648
-0.38394382
0.020397315
-0.40981607
0.0036358218
-0.43255346
-0.0057660675
-0.45489171
-0.0090058763
-0.47931579
-0.0085586182
-0.50727116
-0.0066718114
-0.53913914
-0.0046380317
-0.57480327
-0.0030080054
-0.6139951
-0.001910217
-0.65647255
-0.0012775781
-0.70208981
-0.00097749692
-0.75081668
-0.00087507865
-0.80273201
-0.0008596749
-0.85800912
-0.00086258209
-0.91688773
-0.00084429722
-0.97967246
-0.00078680831
-1.0466787
-0.0006880378
-1.1183107
-0.00055217565
-1.1949312
-0.00038726771
-1.2770433
-0.00020070102
-1.3650156
-0.15112364
-0.26805775
-0.15182156
-0.29562754
-0.1494002
-0.1884596
-0.14550175
0.07087249
-0.14432379
0.15978035
-0.11909706
-0.14984333
0.13642254
-0.1511553
0.30813363
-0.15772669
0.32126194
-0.16704261
0.25366441
-0.18130167
0.092083777
-0.19839162
-0.14796644
-0.21102029
-0.29893992
-0.20768562
-0.30074847
-0.1931782
-0.22970326
-0.15575982
-0.12054388
-0.1596604
0.0051313076
-0.17052517
0.08581693
-0.19596047
0.10793775
-0.22936169
0.10779165
-0.26393652
0.098642212
-0.29935868
0.07944212
-0.33388691
0.05362554
-0.36473872
0.026669084
-0.39021558
0.0048876941
-0.41106794
-0.0079812516
-0.43033828
-0.012656921
-0.45124067
-0.012125532
-0.47574888
-0.0094965542
-0.50444642
-0.0065917269
-0.53718544
-0.0042056174
-0.57360566
-0.002544703
-0.61336061
-0.0015408423
-0.65620929
-0.0010286949
-0.70203861
-0.00083040395
-0.75086136
-0.00079454339
-0.80279714
-0.00081773144
-0.85805397
-0.00084081638
-0.91689121
-0.00083086019
-0.97962841
-0.0007763935
-1.0465903
-0.00067885397
-1.1181841
-0.000544187
-1.1947742
-0.00038123769
-1.2768628
-0.00019745799
-1.3648182
-0.15154143
-0.11867927
-0.15312098
-0.26675833
-0.15292778
-0.29209995
-0.15014481
-0.18381654
-0.14658692
0.073135617
-0.14656953
0.16113172
0.13913084
-0.15255163
0.31440232
-0.15742399
0.32820633
-0.16467108
0.26295735
-0.17633556
0.10283341
-0.1920513
-0.14042476
-0.2059333
-0.30447841
-0.2054818
-0.31369736
-0.19473673
-0.24880271
-0.17407875
-0.12986101
-0.14644269
0.0015207663
-0.15604985
0.094148122
-0.17885636
0.12291939
-0.21094211
0.12330872
-0.24487877
0.11479395
-0.28008826
0.095333834
-0.3152504
0.066798792
-0.34706016
0.034628368
-0.372698
0.006711102
-0.39203899
-0.010757821
-0.40829137
-0.017471238
-0.42552396
-0.016920012
-0.44644619
-0.013330641
-0.47191479
-0.0092842419
-0.50175391
-0.0058967288
-0.53549433
-0.0034768314
-0.57267353
-0.001957521
-0.61294393
-0.0011350122
-0.65610297
-0.00077979463
-0.70208922
-0.00069089579
-0.75096501
-0.00072028615
-0.80289459
-0.00078124375
-0.85811354
-0.00082204901
-0.91690003
-0.00081904673
-0.97958576
-0.00076689035
-1.0465023
-0.00067016794
-1.1180581
-0.00053657801
-1.1946189
-0.00037548659
-1.2766848
-0.00019436629
-1.3646238
-0.15479548
0.14238489
-0.15450469
-0.11729557
-0.15562007
-0.26406605
-0.1547178
-0.28752697
-0.15145856
-0.17894489
-0.14814434
0.074710425
-0.14932836
0.16188313
0.31956888
-0.15771818
0.33350885
-0.16272651
0.26982383
-0.17153756
0.11149668
-0.18499883
-0.13276828
-0.19970778
-0.3084013
-0.20201042
-0.3249199
-0.19425926
-0.26626898
-0.17727046
-0.15231295
-0.15162681
-0.0019402859
-0.14298164
0.10150745
-0.16340918
0.13790322
-0.19384019
0.13931496
-0.22694835
0.13165746
-0.26174228
0.11274489
-0.29749931
0.082144081
-0.33059569
0.044611658
-0.35704345
0.0093820384
-0.37536894
-0.014126483
-0.38867033
-0.023709863
-0.40205274
-0.023244123
-0.41919985
-0.018420481
-0.44135635
-0.012892311
-0.46830672
-0.0082030361
-0.4994476
-0.0047863146
-0.53418485
-0.0025761229
-0.57205493
-0.001321775
-0.61275717
-0.0007327285
-0.65615004
-0.00054745882
-0.70223266
-0.00056436838
-0.75112092
-0.00065723289
-0.8030186
-0.00075183584
-0.85818375
-0.0008072122
-0.91691186
-0.00080939228
-0.97954325
-0.00075849862
-1.046414
-0.00066219283
-1.1179325
-0.00052943809
-1.194465
-0.00037004371
-1.2765091
-0.00019142848
-1.3644324
-0.15867477
0.32344818
-0.15747088
0.14535108
-0.15841374
-0.1145019
-0.15888658
-0.25989727
-0.15709213
-0.2818934
-0.15328335
-0.17380588
-0.15022324
0.075605304
-0.15253037
0.16199038
0.33709394
-0.16130327
0.27426624
-0.16716891
0.11795633
-0.17799721
-0.12556421
-0.1922029
-0.31094886
-0.19716022
-0.33445513
-0.19247519
-0.28207615
-0.17845209
-0.17328488
-0.15629853
-0.022648448
-0.13091865
0.10832457
-0.14979877
0.15246952
-0.17797549
0.15557365
-0.21009888
0.14895204
-0.24424293
0.13132466
-0.28032206
0.099383043
-0.31473827
0.056652773
-0.3426368
0.013140064
-0.36080148
-0.01805836
-0.37143706
-0.031659081
-0.38072111
-0.031463326
-0.39383354
-0.025048265
-0.41257206
-0.017607246
-0.43664141
-0.011252173
-0.46525758
-0.0065551771
-0.49767874
-0.0034459165
-0.53331505
-0.0016137435
-0.57176296
-0.00069699406
-0.6127929
-0.00036098986
-0.65633651
-0.00034032074
-0.70245671
-0.00045767526
-0.75132048
-0.00060832651
-0.80316211
-0.00073047207
-0.85826049
-0.00079683267
-0.91692442
-0.00080212715
-0.97949963
-0.00075144451
-1.0463247
-0.00065502609
-1.1178069
-0.00052279294
-1.1943122
-0.00036490858
-1.2763356
-0.00018863357
-1.3642438
-0.1605268
0.33894596
-0.15949767
0.32547497
-0.16152343
0.14846077
-0.1630868
-0.11030167
-0.16287183
-0.25411757
-0.16015904
-0.2750177
-0.15578088
-0.16824823
-0.15282601
0.075900939
-0.1561774
0.16133561
0.2763967
-0.16343374
0.12198581
-0.17119839
-0.11928081
-0.18428061
-0.31176054
-0.19139122
-0.34213707
-0.18947827
-0.2961018
-0.17844954
-0.19262054
-0.15911643
-0.043478941
-0.13546803
0.09992266
-0.12251674
0.16663823
-0.16396747
0.17178669
-0.19418852
0.16629962
-0.22744646
0.15046833
-0.2633866
0.11757656
-0.29851558
0.069971535
-0.32805703
0.017464173
-0.34696091
-0.022902901
-0.35595694
-0.041651924
-0.36144422
-0.042002678
-0.37018176
-0.033537753
-0.38534405
-0.023628413
-0.4065509
-0.015169439
-0.43272415
-0.0088620577
-0.4629507
-0.0046116525
-0.496513
-0.00203271
-0.53289608
-0.00067657778
-0.57178338
-0.00012427365
-0.61302962
-3.4268675e-05
-0.65664256
-0.00016674306
-0.70274764
-0.00037596065
-0.75155285
-0.00057425989
-0.80331832
-0.00071745372
-0.85833987
-0.00079098159
-0.91693557
-0.00079726892
-0.9794538
-0.00074572692
-1.046234
-0.00064861001
-1.1176811
-0.00051662451
-1.1941605
-0.00036005305