/*--------------------------------*- C++ -*----------------------------------*\
| =========                 |                                                 |
| \\      /  F ield         | OpenFOAM: The Open Source CFD Toolbox           |
|  \\    /   O peration     | Version:  5.0                                   |
|   \\  /    A nd           | Web:      www.OpenFOAM.org                      |
|    \\/     M anipulation  |                                                 |
\*---------------------------------------------------------------------------*/
FoamFile
{
    version     2.0;
    format      ascii;
    class       volScalarField;
    location    "380";
    object      pMean;
}
// * * * * * * * * * * * * * * * * * * * * * * * * * * * * * * * * * * * * * //

dimensions      [0 2 -2 0 0 0 0];

internalField   nonuniform List<scalar> 
9200
(
0.00059306078
0.00061206299
0.0014927957
0.00063132488
0.0015339183
0.0024661736
0.00066770843
0.0015800186
0.0025280504
0.0033152306
0.00071190525
0.0016581426
0.002606212
0.0033939535
0.0041243356
0.00076737284
0.001752366
0.0027296357
0.003498946
0.0042176156
0.0048436943
0.00083572501
0.0018631861
0.0028793328
0.0036583578
0.0043463871
0.0049481885
0.0054884537
0.00091606099
0.0019897021
0.0030515192
0.0038533647
0.0045371564
0.0050970495
0.0056022563
0.0060544532
0.0010061709
0.0021265452
0.003243063
0.0040773836
0.0047707429
0.0053138985
0.0057684048
0.0061750394
0.0065459628
0.0010978603
0.0022700788
0.0034468016
0.0043274243
0.0050366484
0.0055804882
0.0060071576
0.0063553504
0.0066712861
0.0069673606
0.0011771337
0.0024113977
0.0036609109
0.0045922284
0.005330758
0.0058827695
0.006302024
0.0066118913
0.0068630669
0.0070950969
0.0073231613
0.0012203341
0.0025429094
0.0038727942
0.0048623297
0.0056387632
0.0062162401
0.0066359019
0.0069307643
0.0071336537
0.0072953835
0.0074510689
0.0076190907
0.0011973432
0.002647818
0.0040625324
0.0051214699
0.0059494981
0.0065649154
0.0070043934
0.0072921661
0.0074725922
0.0075758446
0.0076567915
0.0077447146
0.0078603374
0.0011114327
0.002702675
0.0042058094
0.0053528871
0.0062461029
0.0069174294
0.0073896331
0.0076925882
0.0078575673
0.0079304852
0.0079428621
0.0079525282
0.0079812381
0.0080533529
0.00099637361
0.002691144
0.0042872701
0.005535048
0.0065146825
0.0072556224
0.0077799748
0.0081129926
0.0082864841
0.00833491
0.0083084509
0.0082395004
0.0081876689
0.0081669391
0.0082034093
0.00089816619
0.0025963702
0.0042801535
0.0056425914
0.0067312197
0.0075659497
0.0081586173
0.0085418615
0.0087398092
0.008788753
0.0087274063
0.0086106528
0.0084706219
0.0083682147
0.008307206
0.0083171907
0.00078967234
0.0024247064
0.0041488895
0.0056481355
0.00686697
0.0078231658
0.0085118117
0.0089641924
0.009206904
0.0092724005
0.0092016632
0.0090386411
0.0088415238
0.0086417746
0.0084996034
0.0084087234
0.0083998858
0.00068070966
0.0022043692
0.0039107075
0.0055214019
0.0068928947
0.0079970423
0.0088134382
0.0093645921
0.0096734263
0.0097765534
0.0097122848
0.0095278795
0.0092721624
0.0090060158
0.0087583397
0.0085883677
0.0084767339
0.0084578697
0.0005544721
0.0019695286
0.0036150083
0.0052637421
0.0067803273
0.0080564501
0.0090335544
0.0097168356
0.010122461
0.010286776
0.010250597
0.010059945
0.0097697803
0.0094321451
0.0091092556
0.0088266015
0.0086398869
0.0085178331
0.0084961474
0.00039284889
0.0017341951
0.0032736886
0.004913471
0.0065176253
0.0079744475
0.0091391326
0.0099916744
0.01052959
0.010785978
0.010802361
0.010627648
0.010316936
0.0099304728
0.009523136
0.0091570896
0.0088522078
0.0086608764
0.0085371966
0.0085202424
7.2515859e-05
0.0014359403
0.0028946715
0.0044798554
0.0061252847
0.0077272334
0.0090999283
0.010156251
0.010865792
0.011251082
0.011351183
0.011217492
0.010907908
0.010484707
0.010013618
0.0095504482
0.0091552063
0.0088419131
0.0086566379
0.008540651
0.0085347259
-0.0003434083
0.0010693311
0.0024459323
0.0039697366
0.0056166211
0.007320423
0.008887595
0.010169814
0.011097334
0.011654135
0.011875163
0.011813546
0.011530451
0.011091184
0.010565904
0.010023689
0.0095195966
0.0091102814
0.0088012771
0.0086334187
0.0085329756
0.0085440589
-0.00071294706
0.00062702615
0.0018570689
0.0033626235
0.0049959341
0.0067696788
0.0084937003
0.010007464
0.011178886
0.01195908
0.012347426
0.01239527
0.012169149
0.011738777
0.011178673
0.010563952
0.0099658499
0.0094370529
0.0090283281
0.0087370753
0.0085962644
0.0085189872
0.0085520555
-0.001005953
0.00016281879
0.0010723382
0.0025614266
0.0042512779
0.0060713341
0.0079260456
0.0096517844
0.011080514
0.012123039
0.01273046
0.01293658
0.012804685
0.01241335
0.011842172
0.011172146
0.01048319
0.0098460669
0.0093091194
0.0089164505
0.0086547231
0.0085505339
0.0085027993
0.0085621727
-0.0013060188
-0.00035229431
0.00012220537
0.0014695377
0.0032776144
0.0052143332
0.0071725593
0.0090909558
0.010774919
0.012099858
0.012982988
0.013401133
0.013412819
0.013097063
0.012543572
0.011840338
0.01107491
0.010328874
0.0096707256
0.0091431261
0.0087805678
0.0085603702
0.0085007441
0.008488123
0.0085772832
-0.0016324462
-0.0010026261
-0.00095413295
0.00013342391
0.0019518693
0.0041042248
0.0062228312
0.0083083576
0.010238466
0.011853425
0.013046921
0.013744396
0.013958509
0.013766631
0.013266919
0.012557503
0.0117353
0.010891378
0.010107218
0.0094473237
0.0089457289
0.0086276874
0.0084590607
0.0084511801
0.0084781076
0.0085997545
-0.0020000147
-0.001759439
-0.0021231469
-0.0013405813
0.00028740961
0.002595548
0.0049893951
0.0072888038
0.0094466796
0.011357913
0.012876509
0.013910303
0.014394549
0.0143897
0.013989826
0.013309241
0.012455261
0.011530001
0.010627328
0.0098257088
0.0091831899
0.008724556
0.0084634812
0.0083559433
0.0084054693
0.0084754293
0.0086315594
-0.0024259788
-0.0026498491
-0.0034441955
-0.0029121295
-0.0015672048
0.00065082369
0.0033180122
0.0059625504
0.0083753504
0.010574743
0.012438899
0.013836022
0.014668815
0.01491889
0.01468269
0.014075316
0.013222372
0.012238097
0.011229434
0.010289772
0.009492122
0.0088863998
0.0084861212
0.0082941744
0.0082553178
0.0083667757
0.0084823055
0.0086743432
-0.0028862587
-0.0036488974
-0.0049133266
-0.0046752651
-0.0035473577
-0.0015442273
0.0011357638
0.0041588027
0.0069678591
0.0094655269
0.01168393
0.013469259
0.014703486
0.015298204
0.015301263
0.014827514
0.014018249
0.013005437
0.011909857
0.01084011
0.0098865766
0.0091151518
0.0085644547
0.0082376609
0.0081246608
0.0081611034
0.0083377935
0.0085005433
0.008729096
-0.0033484121
-0.0047095782
-0.0064684984
-0.0065681623
-0.0057379627
-0.003924097
-0.0013918324
0.0017693635
0.0050482135
0.0079758113
0.010559233
0.012762581
0.014427747
0.015455143
0.015784206
0.015525261
0.014816704
0.013815725
0.0126607
0.01147598
0.010369851
0.0094269292
0.0087033037
0.0082258671
0.0079848961
0.0079598093
0.0080765162
0.0083207058
0.0085314503
0.008795984
-0.0038441455
-0.0057732402
-0.008022504
-0.0085025358
-0.008060939
-0.0065349041
-0.0041683871
-0.0010849816
0.0024742836
0.005953179
0.0090041126
0.011648858
0.013791116
0.015296458
0.016065073
0.016108023
0.015580258
0.014644972
0.013467783
0.012191979
0.010943766
0.0098279012
0.0089203048
0.0082659341
0.0078778567
0.007734474
0.0078036607
0.0080044609
0.0083171664
0.008575839
0.0088750707
-0.0043315099
-0.0068626464
-0.0095577196
-0.010429831
-0.010411669
-0.0092897293
-0.007190956
-0.0042602474
-0.00068573787
0.0032266338
0.0069063015
0.010052776
0.012708179
0.014748702
0.016039551
0.016501991
0.016252201
0.015457782
0.014309441
0.01297647
0.011605886
0.010322488
0.009224238
0.0083768877
0.007811668
0.0075279676
0.0074916112
0.0076604897
0.0079473818
0.0083283773
0.0086342354
0.0089673913
-0.0047060442
-0.007961711
-0.011124776
-0.012329983
-0.012752015
-0.012077972
-0.010368478
-0.0076896724
-0.0042422691
-0.00020753504
0.0040656186
0.0079089565
0.011097953
0.013721152
0.015603696
0.016617223
0.016753183
0.016202583
0.015153014
0.013810303
0.012347008
0.010911183
0.0096225669
0.0085702087
0.0078064959
0.0073492828
0.0071825615
0.0072613
0.0075335597
0.0079070247
0.0083552202
0.0087070301
0.0090738772
-0.0049215501
-0.0089120624
-0.01273093
-0.014249655
-0.015062427
-0.014846126
-0.013591463
-0.011281294
-0.008072866
-0.0041285091
0.0003925343
0.0049845522
0.0089232199
0.012126444
0.01466509
0.016319715
0.016998119
0.016801374
0.015950431
0.014663434
0.013151241
0.011587576
0.010118574
0.0088559523
0.007876826
0.007219607
0.0068866886
0.0068481623
0.007047542
0.0074252217
0.0078847044
0.0083982414
0.0087942979
0.0091942486
-0.0050368438
-0.0096696281
-0.014171343
-0.016229742
-0.017380264
-0.017576271
-0.016783686
-0.014931659
-0.012064814
-0.0083455613
-0.0038805613
0.0011166546
0.0059217555
0.0099331147
0.013115719
0.015495689
0.016854166
0.017158617
0.016629941
0.015490936
0.013990609
0.012338692
0.010708728
0.0092403036
0.0080348573
0.007155943
0.0066258577
0.0064318535
0.0065299231
0.0068541136
0.0073373651
0.0078813677
0.008457693
0.008895931
0.0093266471
-0.0050801696
-0.010297138
-0.015357654
-0.018107233
-0.019778055
-0.020307979
-0.01993012
-0.018551115
-0.016136949
-0.012739163
-0.0084709646
-0.003458306
0.0019135293
0.0068848376
0.010917315
0.014014824
0.016168026
0.017165073
0.017090381
0.016227831
0.014823933
0.013139471
0.011382796
0.0097228517
0.0082897723
0.0071726047
0.0064189448
0.0060348466
0.0059915855
0.0062329253
0.0066837193
0.0072715375
0.0078974347
0.0085333998
0.0090118782
0.0094692118
-0.00508038
-0.010847075
-0.01633335
-0.019763722
-0.022097544
-0.023129965
-0.023074927
-0.022118053
-0.020188172
-0.017235903
-0.013273044
-0.0084137012
-0.0028944194
0.0027989823
0.0078630424
0.011829807
0.014789116
0.016639617
0.017220335
0.016776115
0.015590757
0.013952138
0.012119144
0.010296286
0.0086441163
0.0072815726
0.00628222
0.005677276
0.005455093
0.0055724843
0.005961032
0.0065387479
0.0072288113
0.0079329864
0.0086247035
0.0091410571
0.0096209787
-0.0050735819
-0.011297737
-0.017205714
-0.021152987
-0.024203746
-0.025882375
-0.026330504
-0.025684535
-0.024184227
-0.021730028
-0.018205443
-0.013619839
-0.0081743808
-0.0021720446
0.0037556727
0.0087942284
0.012646727
0.015397983
0.016863295
0.017009298
0.016199659
0.014719344
0.012882898
0.010942109
0.0090935684
0.0074882146
0.0062303138
0.0053770242
0.0049414246
0.0048948337
0.005179891
0.0057178632
0.006420782
0.0072096928
0.0079878542
0.0087309839
0.0092822154
0.0097808007
-0.0050742156
-0.011650749
-0.017945983
-0.022380362
-0.02600922
-0.028458313
-0.029522261
-0.029385982
-0.02818654
-0.02617285
-0.023155015
-0.018983935
-0.013752555
-0.0077310618
-0.0013284465
0.0047017362
0.0096331567
0.013338553
0.015792637
0.016795598
0.016523219
0.015357662
0.013620798
0.011628497
0.009623328
0.0077916295
0.006271449
0.0051511887
0.00446955
0.0042214709
0.0043611934
0.0048188193
0.0055058113
0.0063309976
0.0072139741
0.0080614528
0.008851475
0.0094343502
0.0099481211
-0.0050881036
-0.011916946
-0.018539308
-0.023438976
-0.027558849
-0.030706076
-0.032581957
-0.033033509
-0.032350016
-0.030626322
-0.028055135
-0.024387923
-0.019529942
-0.013654625
-0.0071232741
-0.00045803193
0.005573056
0.010357162
0.01386303
0.015907614
0.016416194
0.015747182
0.01425531
0.012306519
0.01020483
0.0081804075
0.0064081096
0.0050107962
0.0040587983
0.0035720559
0.0035264428
0.0038607964
0.0044928718
0.0053269456
0.006269874
0.0072413483
0.008153012
0.0089852544
0.0095963398
0.010122762
-0.012098411
-0.0051228885
-0.018974128
-0.02429786
-0.02891589
-0.032607223
-0.035297553
-0.036576833
-0.036463588
-0.035261427
-0.032972774
-0.029752153
-0.025377964
-0.019824558
-0.013362673
-0.0064410944
0.00038348975
0.006337847
0.010935275
0.014149449
0.01569022
0.01572532
0.01467444
0.012903288
0.010792299
0.0086296926
0.0066324217
0.0049617177
0.003722863
0.002967555
0.0026956688
0.0028648525
0.0033988377
0.0042051516
0.0051823839
0.0062375851
0.0072912785
0.0082615899
0.0091313369
0.0097671321
0.010304251
-0.019234955
-0.012164577
-0.0051815481
-0.024925488
-0.030016002
-0.034268333
-0.037594643
-0.039772549
-0.040485259
-0.039849718
-0.038091999
-0.035140037
-0.03119183
-0.026097098
-0.019895993
-0.012949306
-0.005733203
0.0011576718
0.0069650885
0.011318279
0.014131508
0.015121246
0.014717656
0.013313888
0.011318209
0.0090978266
0.0069237279
0.0049997098
0.0034709497
0.0024242409
0.0018908872
0.0018508432
0.0022439105
0.0029798057
0.003957765
0.0050728842
0.0062335962
0.0073628855
0.0083861159
0.0092886821
0.0099457671
0.010491692
-0.025280827
-0.0192942
-0.012110493
-0.0052545858
-0.03080776
-0.035609372
-0.039561669
-0.042499799
-0.044171254
-0.04436255
-0.043171038
-0.040752463
-0.037038547
-0.032350665
-0.026572261
-0.019815855
-0.012473879
-0.0050481075
0.0018215648
0.0074119223
0.011439214
0.013743986
0.014199683
0.013388559
0.011683609
0.0095207635
0.0072444974
0.0051087509
0.0033027637
0.0019545432
0.001130648
0.00084164686
0.0010469752
0.0016697993
0.0026071518
0.003752286
0.0049983737
0.0062571738
0.0074550975
0.0085254164
0.0094561947
0.010131386
0.010684174
-0.031247171
-0.02533441
-0.019145988
-0.011960886
-0.0053364205
-0.036585403
-0.041158166
-0.044783021
-0.04733138
-0.048549478
-0.048187526
-0.046335163
-0.043141284
-0.038649852
-0.033247274
-0.026871239
-0.019642604
-0.011988005
-0.0044461832
0.0023272885
0.0076050172
0.011222197
0.012947234
0.012932944
0.011750184
0.0098059665
0.0075346086
0.0052555074
0.0032068387
0.0015621788
0.00043040678
-0.00014271485
-0.00016859567
0.00029248608
0.0011475126
0.0022834884
0.0035892703
0.00495845
0.0063072283
0.0075667009
0.0086782686
0.0096327063
0.010322951
0.010880811
-0.037140565
-0.031311648
-0.025081331
-0.018811721
-0.011714794
-0.0054064655
-0.042338012
-0.046643791
-0.049933333
-0.052140238
-0.052886373
-0.051873733
-0.049231187
-0.045243027
-0.039995235
-0.033951709
-0.027049995
-0.019429688
-0.011548479
-0.0039782795
0.0025886405
0.0074822361
0.010615445
0.01175274
0.011329253
0.0098247914
0.0077076147
0.0053849049
0.0031547968
0.0012404026
-0.00020204992
-0.0010839399
-0.0013818141
-0.0011291421
-0.00040570798
0.00068106707
0.0020104451
0.0034688096
0.0049521523
0.0063825508
0.0076963599
0.0088433901
0.0098171007
0.010519459
0.011080657
-0.043023807
-0.037238881
-0.030998561
-0.024544545
-0.018304557
-0.011352376
-0.0054279343
-0.048031825
-0.05206417
-0.055066409
-0.056907706
-0.057100189
-0.055292416
-0.051831731
-0.047078844
-0.041145637
-0.03451859
-0.027165913
-0.019231488
-0.01121137
-0.0037188078
0.0025305962
0.0070008126
0.0095756069
0.010189105
0.009398053
0.0076419465
0.0054158804
0.0030971572
0.0009664919
-0.00076856063
-0.0019703148
-0.0025720379
-0.0025735358
-0.002030692
-0.0010418092
0.00027350363
0.0017886958
0.0033902909
0.0049783272
0.0064816769
0.0078425975
0.0090194266
0.010008255
0.010719987
0.011282882
-0.048848638
-0.04316346
-0.03687381
-0.03032095
-0.02375352
-0.017633011
-0.010873956
-0.0053595053
-0.053653362
-0.057462573
-0.060162064
-0.061572138
-0.061047474
-0.058404285
-0.054165648
-0.04871243
-0.042143713
-0.035001932
-0.027267627
-0.019105093
-0.011051993
-0.0037577636
0.0021006259
0.0061042306
0.0081015563
0.008285011
0.0071688044
0.0052338479
0.0029590489
0.00069702867
-0.0012860049
-0.0027986528
-0.0037239296
-0.0040182653
-0.0037060695
-0.0028651786
-0.0016112356
-7.3252619e-05
0.0016182265
0.0033527423
0.0050354556
0.0066029576
0.0080037571
0.0092049935
0.010205179
0.010923749
0.011486699
-0.054590639
-0.049023959
-0.042748737
-0.03606927
-0.029307782
-0.02274069
-0.016801767
-0.010290399
-0.0051773682
-0.059241013
-0.062817204
-0.065161607
-0.065989395
-0.064678976
-0.061252066
-0.056296021
-0.050182452
-0.043046083
-0.035461058
-0.027425884
-0.019137377
-0.011174625
-0.004164899
0.0012560986
0.0047689989
0.0062505447
0.0060598927
0.0046813499
0.0026323253
0.00036435496
-0.0017907049
-0.0035795785
-0.0048292768
-0.0054448365
-0.0054082109
-0.0047687665
-0.0036259547
-0.0021104903
-0.0003583965
0.0014984669
0.0033547588
0.0051216705
0.0067443891
0.0081782192
0.0093990074
0.010407087
0.011129927
0.011691322
-0.060281338
-0.054788751
-0.048547437
-0.04181618
-0.034865927
-0.028006819
-0.021524082
-0.015831783
-0.0095494756
-0.0048071294
-0.06477278
-0.068076214
-0.069953711
-0.070102907
-0.068040457
-0.063894862
-0.058257763
-0.051546745
-0.043907593
-0.035967456
-0.027731139
-0.019439488
-0.01166382
-0.0049939818
-8.0140822e-06
0.0030188855
0.0040605174
0.0035466601
0.0019706104
-0.00013322966
-0.002342983
-0.0043419531
-0.0058922137
-0.0068403357
-0.0071160804
-0.0067285583
-0.0057523597
-0.0043077336
-0.002537184
-0.00058177563
0.0014283859
0.0033943532
0.0052346062
0.006904085
0.0083648414
0.0096007192
0.010612978
0.011337346
0.011895983
-0.065898261
-0.060481383
-0.054234183
-0.047468543
-0.040423763
-0.0333033
-0.026472637
-0.020109484
-0.014618958
-0.0085704622
-0.0042741291
-0.070199825
-0.073134488
-0.074475423
-0.073963566
-0.071194186
-0.066372568
-0.060096844
-0.052844697
-0.044805764
-0.036608201
-0.028293318
-0.020116228
-0.012571593
-0.0062366285
-0.0016677774
0.00088529186
0.0015596524
0.00077487504
-0.00093258639
-0.0030356976
-0.005137891
-0.0069337295
-0.0082022746
-0.0088125466
-0.0087215997
-0.0079672076
-0.0066492378
-0.0049064262
-0.0028901121
-0.00074405216
0.0014060423
0.0034688524
0.0053721006
0.0070808903
0.0085629442
0.0098087883
0.010820971
0.011544818
0.012100414
-0.071396684
-0.06607974
-0.059824899
-0.052990081
-0.045866754
-0.038606116
-0.031446047
-0.024649386
-0.018390938
-0.013101932
-0.0073767173
-0.0036899761
-0.075435368
-0.07793559
-0.07876424
-0.077630618
-0.074185141
-0.068716525
-0.061860015
-0.054160226
-0.045838074
-0.03751047
-0.029233959
-0.021225535
-0.013880673
-0.0078856952
-0.0037214531
-0.0015798049
-0.0012251515
-0.0022209719
-0.0039973349
-0.0060502832
-0.0079969729
-0.0095436182
-0.010488872
-0.010727344
-0.010246529
-0.0091136611
-0.0074531997
-0.0054189723
-0.003169109
-0.00084693943
0.0014284908
0.003575769
0.0055330869
0.0072742336
0.0087706293
0.010020107
0.011029312
0.011752795
0.012314872
-0.076707247
-0.071548738
-0.065303764
-0.058388959
-0.051148955
-0.043775977
-0.036401066
-0.029198854
-0.022472049
-0.016393667
-0.011354093
-0.0061417193
-0.0031056993
-0.08042269
-0.082521926
-0.082866193
-0.081147403
-0.077054349
-0.070983844
-0.063622743
-0.055595792
-0.04712094
-0.038798074
-0.030622197
-0.022739706
-0.015576931
-0.0099265087
-0.0061247204
-0.0043254136
-0.004248238
-0.0054018737
-0.0071972912
-0.0091538576
-0.010897601
-0.012149687
-0.012731352
-0.012567089
-0.011677289
-0.010158944
-0.0081591562
-0.0058436914
-0.0033752991
-0.00089344064
0.0014929536
0.003714218
0.0057171575
0.0074813967
0.0089830348
0.010232047
0.011239876
0.011975274
0.012542617
-0.081777863
-0.076828254
-0.070639748
-0.063655302
-0.056275942
-0.048757915
-0.041168341
-0.03370213
-0.026557177
-0.020009568
-0.014224495
-0.0095926524
-0.0049018476
-0.0024898698
-0.085215795
-0.086931661
-0.086821661
-0.084560292
-0.07984297
-0.073245007
-0.065491155
-0.057262566
-0.048789866
-0.040559427
-0.032438761
-0.02462041
-0.017651193
-0.01229061
-0.0088031241
-0.0073188851
-0.0074757003
-0.0087408814
-0.010510556
-0.012324724
-0.01381813
-0.014730199
-0.014909731
-0.014315147
-0.013001582
-0.011095338
-0.0087633461
-0.0061808536
-0.0035115433
-0.00088631253
0.0015988593
0.0038840185
0.0059204503
0.0076952022
0.0091964613
0.01044902
0.011473022
0.012210982
0.012777834
-0.086668736
-0.081878717
-0.075787159
-0.068762839
-0.061243735
-0.053554318
-0.045724564
-0.037991657
-0.030565516
-0.023651958
-0.017402329
-0.012080009
-0.0078332639
-0.0036206625
-0.0018763325
-0.089849175
-0.091198491
-0.090672146
-0.087907086
-0.082631956
-0.075606156
-0.067604442
-0.059313817
-0.0509368
-0.04278667
-0.034629322
-0.026841428
-0.020039685
-0.014918726
-0.011737632
-0.010536198
-0.010892092
-0.012217493
-0.013918182
-0.015542262
-0.016736536
-0.017263362
-0.017004353
-0.015955766
-0.014208329
-0.011916588
-0.0092642301
-0.0064328543
-0.0035807559
-0.00082575716
0.0017464108
0.0040799602
0.0061328003
0.0079108423
0.0094189903
0.010703156
0.011718449
0.01245576
0.013020254
-0.091417367
-0.08675876
-0.080711719
-0.073682652
-0.066040394
-0.058153972
-0.050061158
-0.042041422
-0.0343505
-0.027198631
-0.020602308
-0.014834833
-0.0099256413
-0.0060132375
-0.0023558507
-0.0012975209
-0.094356051
-0.095356727
-0.094467294
-0.091252908
-0.085525551
-0.078213884
-0.070097404
-0.061845655
-0.053584609
-0.045424679
-0.037132254
-0.029360098
-0.022705952
-0.017779021
-0.014895497
-0.013950392
-0.014470177
-0.015813373
-0.017401139
-0.01878579
-0.019630645
-0.019727409
-0.018996106
-0.017473973
-0.015288058
-0.012619085
-0.0096632057
-0.0066021446
-0.0035824587
-0.00071093808
0.0019289123
0.0042881949
0.0063480824
0.0081410931
0.0096993014
0.010969748
0.011975242
0.01270847
0.013269923
-0.096054282
-0.091506727
-0.085473912
-0.078382952
-0.070643828
-0.06256066
-0.054185666
-0.045842789
-0.037894402
-0.030502683
-0.023686704
-0.017601615
-0.012239098
-0.0076980081
-0.0041479413
-0.0011593901
-0.00074573026
-0.098765161
-0.099458937
-0.098271985
-0.094707614
-0.08867601
-0.081220437
-0.073098254
-0.064910944
-0.056674559
-0.048357799
-0.039887131
-0.032147945
-0.025586294
-0.020827583
-0.018242169
-0.01753882
-0.018191757
-0.019514579
-0.020941728
-0.022034001
-0.022477538
-0.022100267
-0.020866174
-0.018856335
-0.016234191
-0.013202211
-0.0099619846
-0.0066871403
-0.0035146906
-0.0005501353
0.0021279958
0.0045009863
0.0065853073
0.0084565248
0.0099929652
0.011250544
0.012240192
0.012969399
0.013526563
-0.10060423
-0.096156513
-0.090112951
-0.082923377
-0.075038117
-0.066752059
-0.058097013
-0.049413739
-0.041163511
-0.033547195
-0.026515907
-0.020243967
-0.014553418
-0.0095631082
-0.0054233181
-0.0023262979
-7.5297842e-05
-0.00021988333
-0.10310758
-0.10357523
-0.1022021
-0.098408716
-0.092246466
-0.084768553
-0.076668529
-0.068476136
-0.060074254
-0.051505678
-0.042863429
-0.035109851
-0.028575634
-0.024050205
-0.021759951
-0.021298492
-0.02204559
-0.023307179
-0.024521576
-0.025264297
-0.025252944
-0.024358872
-0.022596366
-0.020092632
-0.017044148
-0.013666
-0.010157379
-0.0066845363
-0.0033871364
-0.00036708808
0.0023337347
0.0047451259
0.0069441556
0.0087869465
0.010304263
0.011539314
0.012514328
0.013237914
0.013790062
-0.1050847
-0.10072792
-0.09465886
-0.087346396
-0.079269393
-0.070712869
-0.061782334
-0.052755854
-0.044185265
-0.036303962
-0.029065777
-0.022628269
-0.016740946
-0.011415147
-0.0068351601
-0.0031555136
-0.00063027632
0.00090149841
0.00029236012
-0.10745251
-0.10783498
-0.10639381
-0.10251966
-0.096395771
-0.08894525
-0.080792025
-0.072393797
-0.06365569
-0.054819679
-0.045982532
-0.038144691
-0.031646017
-0.027437606
-0.025446839
-0.025218168
-0.026025001
-0.027177838
-0.028120317
-0.028451828
-0.027930421
-0.02648047
-0.024172103
-0.021177089
-0.017715343
-0.014004948
-0.010243859
-0.0066058241
-0.0032300572
-0.00017460388
0.0025827675
0.0051571705
0.0073211435
0.0091394145
0.01062302
0.011838274
0.012796586
0.013513994
0.014060105
-0.10955686
-0.10523529
-0.099136947
-0.091679608
-0.083387465
-0.074506742
-0.065231957
-0.055874985
-0.046975692
-0.038803001
-0.031324907
-0.024716246
-0.018674291
-0.013138053
-0.0082083333
-0.0041035252
-0.0010008257
0.00091664386
0.0017307287
0.00084516235
-0.11193012
-0.11238954
-0.11102007
-0.10724637
-0.10123768
-0.09374049
-0.085334016
-0.07650019
-0.067322742
-0.058239026
-0.049157586
-0.041226914
-0.034823397
-0.030997274
-0.029319273
-0.029299733
-0.030124582
-0.031110838
-0.031714208
-0.031567798
-0.030482499
-0.0284456
-0.025583726
-0.022104357
-0.018238288
-0.01421058
-0.010234144
-0.0064885626
-0.0030600016
7.606175e-05
0.0030589041
0.0055918425
0.0077253094
0.0094984658
0.010952836
0.012145763
0.013086936
0.013797064
0.014336505
-0.1141492
-0.10971533
-0.10355273
-0.095954855
-0.087432429
-0.078188548
-0.068509375
-0.058776882
-0.049551586
-0.041068182
-0.033318853
-0.026493272
-0.020309163
-0.014612841
-0.0094565488
-0.0050028981
-0.0014923843
0.00095301432
0.0023435769
0.0024461561
0.0013797164
-0.11672205
-0.11743692
-0.11630269
-0.112721
-0.10677908
-0.099019974
-0.090122431
-0.080662883
-0.071011617
-0.061669777
-0.052316
-0.044302042
-0.038154828
-0.034735686
-0.033390955
-0.033542538
-0.034335348
-0.035085917
-0.035273977
-0.034580818
-0.03288464
-0.030240088
-0.026821399
-0.022859423
-0.018600191
-0.014296928
-0.010174866
-0.0063538293
-0.0028133364
0.00062803568
0.0035643757
0.0060601508
0.0081346441
0.009869363
0.011291411
0.012461854
0.013384626
0.014086927
0.014618961
-0.11907178
-0.11430395
-0.10792513
-0.10016648
-0.091434155
-0.081804867
-0.071673111
-0.061527268
-0.051926825
-0.043131887
-0.035089642
-0.028008436
-0.02163378
-0.01579398
-0.010470969
-0.0057888878
-0.0019316302
0.00089713253
0.0027643459
0.0035662077
0.0030454905
0.0017472286
-0.12203469
-0.12317039
-0.12238196
-0.11898426
-0.112885
-0.10459714
-0.094982721
-0.084767393
-0.074663527
-0.065008867
-0.055356894
-0.047361545
-0.041685297
-0.038659331
-0.037663341
-0.037950827
-0.038643796
-0.03907572
-0.038765775
-0.037461893
-0.035117897
-0.031848007
-0.027863282
-0.023422772
-0.018816251
-0.014320838
-0.010093228
-0.0061197333
-0.0021723681
0.0012185405
0.0041111711
0.0065316216
0.008556346
0.010249209
0.01163881
0.012785652
0.013689328
0.014383048
0.014907298
-0.12452996
-0.11921582
-0.11239069
-0.10432789
-0.095365429
-0.085378158
-0.074767097
-0.064179514
-0.054161863
-0.045009865
-0.036668816
-0.02930799
-0.022693925
-0.01666901
-0.011214817
-0.0063612051
-0.0022678282
0.00089213679
0.0030962542
0.0043493951
0.0045043417
0.0034572138
0.0018879572
-0.12803971
-0.12973079
-0.1293235
-0.12591063
-0.11934864
-0.11028592
-0.099756707
-0.088730101
-0.078218816
-0.068165017
-0.058288847
-0.050542257
-0.045406027
-0.042820848
-0.042158573
-0.042519895
-0.043027162
-0.043046031
-0.042156932
-0.040187024
-0.03715949
-0.033238524
-0.028682043
-0.023810386
-0.018955267
-0.014315255
-0.0098846959
-0.0053757643
-0.0014804204
0.0018599316
0.0046582934
0.0070159295
0.0089869311
0.010638143
0.011994027
0.01311671
0.01400045
0.014685374
0.015201027
-0.13066292
-0.12465019
-0.11715423
-0.10856544
-0.099214664
-0.088859259
-0.077786628
-0.066754997
-0.056304099
-0.046751307
-0.038061305
-0.030422952
-0.023543472
-0.017281308
-0.011660569
-0.0066873603
-0.0024027699
0.00098409639
0.0034567809
0.0050046808
0.0055666028
0.0051147876
0.0036832361
0.0019084512
-0.13488192
-0.13718673
-0.13703041
-0.13328214
-0.12598827
-0.11590318
-0.1043444
-0.092531787
-0.081594537
-0.071146648
-0.061193565
-0.053904037
-0.04933749
-0.047256615
-0.046884027
-0.047233936
-0.047453946
-0.046962574
-0.045419659
-0.042726357
-0.038966762
-0.034374204
-0.029292798
-0.024105112
-0.019057325
-0.014147767
-0.0090227595
-0.0045644864
-0.00072591123
0.0024978957
0.0052185002
0.0075089231
0.0094266773
0.01103503
0.012356468
0.01345449
0.014318175
0.014993226
0.015499884
-0.13762944
-0.13074399
-0.12239296
-0.11305264
-0.10309036
-0.092219799
-0.080689629
-0.069244281
-0.058362939
-0.048403418
-0.039320773
-0.031367129
-0.0242182
-0.017692762
-0.011851381
-0.0067339374
-0.0023218082
0.0012600649
0.0039020449
0.0056591938
0.0064514896
0.0063642282
0.0054373438
0.0037201967
0.0018405372
-0.14263221
-0.14546328
-0.14528311
-0.14089789
-0.13260061
-0.12130822
-0.1086976
-0.096136818
-0.084749678
-0.073980313
-0.064095002
-0.057515086
-0.053555866
-0.051999712
-0.051831353
-0.05206742
-0.05189096
-0.050795512
-0.048516901
-0.045022732
-0.040488754
-0.035269611
-0.029793953
-0.0243552
-0.01895589
-0.013153027
-0.0080722976
-0.0036762449
2.0253948e-05
0.0031491195
0.0057869257
0.0080110981
0.0098743167
0.011439168
0.012725704
0.013799559
0.014641354
0.015306167
0.015803483
-0.14552311
-0.13764343
-0.12826334
-0.11796263
-0.10715108
-0.09558218
-0.083456282
-0.071587547
-0.060322522
-0.049962309
-0.040481081
-0.032182204
-0.024727477
-0.017936917
-0.011853958
-0.0065398067
-0.0020043234
0.0017141196
0.0045074225
0.0063563127
0.0073029217
0.0074055678
0.0068112505
0.005540069
0.0036452906
0.0017233664
-0.15124259
-0.15437742
-0.15386697
-0.14855402
-0.13900622
-0.12642528
-0.11278902
-0.099512739
-0.087671865
-0.076699022
-0.067187434
-0.0614626
-0.058153385
-0.057054368
-0.056986061
-0.056991794
-0.05630904
-0.054502393
-0.051376025
-0.047007668
-0.04173924
-0.0360394
-0.030243745
-0.024352568
-0.017813111
-0.012042547
-0.0070271693
-0.002802566
0.00077974746
0.0038078784
0.0063643903
0.0085210591
0.010329062
0.011850335
0.013102967
0.014150174
0.014969463
0.015623549
0.016111509
-0.15430809
-0.14546451
-0.13492309
-0.12347551
-0.11157486
-0.099099253
-0.086211781
-0.073790044
-0.062126506
-0.051425124
-0.041551128
-0.032902746
-0.025116912
-0.018031669
-0.011707613
-0.0061806044
-0.0014781334
0.0023618844
0.0052498883
0.0071726597
0.0081609202
0.0083867418
0.0079624282
0.0070017164
0.0054886011
0.003496785
0.0015576145
-0.16054808
-0.1637059
-0.16258049
-0.15606143
-0.14510855
-0.13123696
-0.11661066
-0.10263914
-0.090362551
-0.079344242
-0.070704795
-0.065800793
-0.063153499
-0.062415564
-0.062330626
-0.061982969
-0.060663043
-0.057993918
-0.053905992
-0.048692197
-0.04285244
-0.036753427
-0.030383009
-0.023048194
-0.016519929
-0.010815419
-0.0060043398
-0.0019154084
0.0015458309
0.0044754472
0.0069494079
0.0090379662
0.01079092
0.012270601
0.013485818
0.014505623
0.015301731
0.01594493
0.016423595
-0.16383339
-0.15418809
-0.14246398
-0.12973182
-0.11654643
-0.10293384
-0.089126568
-0.075973979
-0.063800067
-0.052741447
-0.042520285
-0.033541993
-0.025433422
-0.018032614
-0.011440069
-0.0057048355
-0.000814841
0.0031754842
0.006132197
0.0080755955
0.009094264
0.0093536911
0.0090350538
0.0082326588
0.0069938653
0.0053261219
0.003302409
0.0013976655
-0.17033638
-0.17325414
-0.17122283
-0.16329698
-0.15089672
-0.13574675
-0.12013108
-0.10551849
-0.09279949
-0.082050692
-0.074731995
-0.070585919
-0.068561356
-0.068082351
-0.067851735
-0.066997572
-0.064847282
-0.061152415
-0.056111826
-0.050235187
-0.043909983
-0.037090678
-0.028905672
-0.021549308
-0.015082927
-0.0096199331
-0.0049676803
-0.0010228325