/*--------------------------------*- C++ -*----------------------------------*\
| =========                 |                                                 |
| \\      /  F ield         | OpenFOAM: The Open Source CFD Toolbox           |
|  \\    /   O peration     | Version:  5.0                                   |
|   \\  /    A nd           | Web:      www.OpenFOAM.org                      |
|    \\/     M anipulation  |                                                 |
\*---------------------------------------------------------------------------*/
FoamFile
{
    version     2.0;
    format      ascii;
    class       volScalarField;
    location    "380";
    object      pPrime2Mean;
}
// * * * * * * * * * * * * * * * * * * * * * * * * * * * * * * * * * * * * * //

dimensions      [0 4 -4 0 0 0 0];

internalField   nonuniform List<scalar> 
9200
(
8.1842175e-07
8.6756957e-07
5.2083225e-06
9.3351529e-07
5.4178593e-06
1.4329137e-05
1.0805416e-06
5.6710614e-06
1.4824141e-05
2.6270838e-05
1.3053445e-06
6.1765765e-06
1.5511127e-05
2.7037797e-05
4.1155692e-05
1.695463e-06
6.8785603e-06
1.680699e-05
2.8121965e-05
4.2187773e-05
5.7928804e-05
2.3362651e-06
7.9327657e-06
1.8604894e-05
3.0119583e-05
4.3587224e-05
5.9116161e-05
7.6257101e-05
3.3971063e-06
9.4078692e-06
2.1209587e-05
3.2854754e-05
4.6147389e-05
6.066959e-05
7.7527951e-05
9.5826435e-05
5.0667118e-06
1.1463316e-05
2.4738969e-05
3.6761625e-05
4.9579419e-05
6.3535555e-05
7.9077708e-05
9.7097807e-05
0.0001164528
7.6297904e-06
1.4211873e-05
2.9514521e-05
4.1963672e-05
5.4393754e-05
6.7291281e-05
8.2003297e-05
9.8498031e-05
0.0001176786
0.00013804624
1.1232293e-05
1.7824793e-05
3.585704e-05
4.8844207e-05
6.0679405e-05
7.250188e-05
8.5738574e-05
0.00010128211
0.00011882882
0.00013919822
0.00016057086
1.4867478e-05
2.2372676e-05
4.4192008e-05
5.7749554e-05
6.8855126e-05
7.9176018e-05
9.0892651e-05
0.00010472803
0.00012133303
0.00014003509
0.00016164225
0.00018399835
1.7160576e-05
2.8292196e-05
5.5115067e-05
6.9252756e-05
7.9298291e-05
8.7719023e-05
9.7386309e-05
0.00010948881
0.00012431244
0.00014218326
0.00016213773
0.00018500248
0.00020833973
2.0081201e-05
3.7889921e-05
7.0213074e-05
8.432057e-05
9.2648401e-05
9.8446538e-05
0.00010559857
0.00011539606
0.00012847202
0.0001446026
0.00016390785
0.00018516121
0.00020929916
0.0002335569
2.7330053e-05
5.5429349e-05
9.3302458e-05
0.00010512154
0.00010999041
0.00011194837
0.00011576184
0.00012279814
0.00013356168
0.00014806405
0.00016575056
0.00018658119
0.0002091451
0.00023450733
0.00025967216
4.0405963e-05
8.7462709e-05
0.00013041299
0.00013618771
0.00013367163
0.00012930105
0.00012840536
0.00013185316
0.0001399092
0.0001522453
0.00016851651
0.00018789453
0.00021027246
0.00023408804
0.00026064633
0.00028662181
6.0365417e-05
0.00013902024
0.00019093258
0.00018487617
0.00016817454
0.00015272853
0.00014451736
0.00014305224
0.00014763198
0.00015747194
0.00017181577
0.00019004247
0.00021114897
0.00023501231
0.00026000901
0.00028765417
0.00031441834
8.7002177e-05
0.00020973344
0.00028301549
0.00026207303
0.00022159265
0.00018664661
0.00016606882
0.00015725895
0.00015720654
0.00016384123
0.00017597844
0.0001925738
0.0002128161
0.00023558536
0.00026082485
0.00028685398
0.00031554215
0.0003429861
0.00011756423
0.00029674334
0.00040564091
0.00037933505
0.00030621253
0.00023921226
0.00019712958
0.00017618823
0.00016938996
0.00017181525
0.00018109529
0.00019583327
0.00021476223
0.00023695785
0.00026124315
0.00028767036
0.00031462705
0.00034422148
0.00037231095
0.00014682482
0.00039095778
0.00055283018
0.00053720624
0.00043508554
0.0003224242
0.00024534333
0.00020343572
0.00018565682
0.00018205434
0.00018761128
0.00019989093
0.00021733952
0.00023855977
0.00026253488
0.00028810287
0.00031553204
0.00034322906
0.00037367359
0.000402332
0.00017095747
0.00048482094
0.00070959828
0.00072780605
0.00061072608
0.00045073855
0.00032241883
0.00024586023
0.00020907931
0.00019588727
0.00019612517
0.00020515176
0.00022058833
0.00024074879
0.00026407698
0.00028955555
0.00031613427
0.00034430369
0.00037263692
0.00040382222
0.00043302146
0.00018525867
0.00056836005
0.00086260104
0.00093216406
0.00082422418
0.0006306191
0.00044385511
0.00031550183
0.00024573165
0.00021587066
0.00020783617
0.00021218153
0.00022485858
0.00024351199
0.00026622596
0.00029136625
0.00031798729
0.00034522797
0.00037394575
0.00040274667
0.00043463214
0.00046433868
0.00019033695
0.00063189383
0.0010029098
0.0011291035
0.0010566936
0.00085399419
0.00061956923
0.00042719425
0.00030702284
0.00024726167
0.00022492509
0.00022206033
0.00023067902
0.00024714338
0.00026890222
0.00029388936
0.0003204096
0.00034772086
0.00037530609
0.00040431382
0.00043351274
0.00046604949
0.0004962561
0.00019260879
0.00067601353
0.0011243211
0.0013081399
0.0012842448
0.0011033971
0.00084437231
0.00059296625
0.00040700651
0.0002999732
0.00025175958
0.00023669838
0.00023902146
0.00025209745
0.00027233609
0.00029697762
0.00032376603
0.00035111023
0.00037863865
0.00040619212
0.00043534615
0.00046485566
0.00049804087
0.0005287496
0.00019542955
0.0007086625
0.0012128445
0.0014641259
0.0014916616
0.0013537736
0.0011039281
0.00081352287
0.00056036705
0.0003882337
0.00029676249
0.00025956338
0.00025149975
0.00025920201
0.00027687393
0.00030078604
0.00032784792
0.00035579267
0.00038331954
0.00041053254
0.0004377881
0.00046691536
0.00049673033
0.00053057299
0.00056180377
0.00020001993
0.00073893104
0.0012765774
0.0015729079
0.0016711771
0.0015844516
0.0013714659
0.0010764934
0.00077288321
0.00052851959
0.00037408162
0.00029770078
0.00027099863
0.00026984754
0.00028318427
0.00030551796
0.00033272283
0.00036152502
0.00038981289
0.00041679451
0.00044323601
0.00046990249
0.00049895603
0.00052908728
0.00056362472
0.00059540577
0.00020577945
0.00076369001
0.0013311007
0.0016424134
0.0018030831
0.001786407
0.0016247065
0.0013585484
0.001034905
0.00072979783
0.0004997676
0.0003636769
0.0003030131
0.00028640064
0.00029243614
0.0003116872
0.0003384563
0.00036829511
0.00039788106
0.00042555454
0.00045128988
0.00047648963
0.00050244117
0.00053138362
0.00056189444
0.00059718077
0.00062953672
0.00021003646
0.000778805
0.0013686639
0.0016916692
0.0018851834
0.0019482782
0.0018520764
0.0016333414
0.0013271357
0.00098631194
0.00068605079
0.00047309267
0.00035792984
0.0003130509
0.00030657356
0.00032018264
0.00034536469
0.00037603563
0.00040745905
0.00043664139
0.00046269412
0.00048646224
0.00051012838
0.00053524886
0.00056414954
0.0005951279
0.00063122802
0.00066416878
0.00021128722
0.00078276218
0.0013865563
0.0017196042
0.0019373703
0.0020544641
0.0020437848
0.0018858117
0.0016209906
0.0012836294
0.00093354289
0.0006424269
0.00045170813
0.00035825801
0.00032876563
0.00033259754
0.00035409477
0.00038485176
0.00041836255
0.00044997938
0.00047741034
0.00050079492
0.00052203189
0.00054390609
0.00056824713
0.00059720681
0.00062877454
0.00066575262
0.00069929729
0.00020821701
0.00077479942
0.0013872445
0.0017258914
0.0019677918
0.0021196989
0.0021820769
0.0021066623
0.0018974831
0.0015938908
0.0012300739
0.00087721171
0.0006014638
0.00043623344
0.00036546938
0.00035144899
0.00036584918
0.00039513865
0.00043050862
0.00046531594
0.0004954214
0.0005196395
0.00053943428
0.00055765855
0.00057769481
0.00060134386
0.00063053355
0.00066283057
0.00070074608
0.00073495627
0.00019669613
0.00075912981
0.0013727747
0.0017162298
0.0019753649
0.0021609052
0.0022721082
0.0022860006
0.0021504737
0.0018941877
0.0015522238
0.001166912
0.0008174203
0.00056331137
0.00042833459
0.0003812527
0.00038259834
0.00040771869
0.00044404244
0.00048242995
0.00051647857
0.00054313101
0.00056273892
0.00057812122
0.0005931132
0.00061133417
0.00063451441
0.00066413182
0.00069729892
0.00073620709
0.00077114129
0.00018003307
0.00072684729
0.0013470795
0.0016907227
0.0019672918
0.002180302
0.0023324457
0.0024103728
0.0023709511
0.0021780645
0.0018750636
0.0014940155
0.0010944569
0.00075522121
0.00053346711
0.00043131286
0.00040762624
0.00042408746
0.00045943983
0.00050122344
0.00054028664
0.00057112685
0.00059233681
0.00060602505
0.00061645747
0.00062811934
0.00064477837
0.00066774958
0.00069801703
0.00073218333
0.00077212622
0.00080772518
0.00015777668
0.00068400314
0.0012892708
0.0016566105
0.0019430672
0.0021838692
0.0023729496
0.0024964536
0.0025342883
0.0024340326
0.00218696
0.0018344139
0.0014180403
0.0010150274
0.00069797013
0.00051615542
0.00044757023
0.00044673071
0.00047769668
0.00052185363
0.00056657594
0.00060334847
0.00062830073
0.00064211571
0.00064887141
0.00065402149
0.00066255163
0.00067795329
0.00070106602
0.00073220303
0.00076748714
0.00080847345
0.00084460661
0.00013027663
0.00062042307
0.0012179653
0.0015858307
0.0019126294
0.0021717726
0.0023966131
0.0025643539
0.0026556693
0.0026441185
0.0024782985
0.0021706409
0.0017690608
0.001327575
0.00093209277
0.00065174842
0.00051451415
0.00048001209
0.00050066279
0.00054486823
0.00059521011
0.00063944742
0.00067049549
0.00068679916
0.00069154795
0.00069064087
0.00069054278
0.0006962675
0.00071088478
0.00073448578
0.00076671108
0.00080320807
0.00084522425
0.00088179015
0.00010269962
0.00053649849
0.0011123903
0.0015072761
0.0018394629
0.0021555739
0.0024048329
0.0026147702
0.0027553411
0.0028097576
0.0027401683
0.0024951811
0.0021253655
0.0016793782
0.0012275704
0.00085343478
0.00062406474
0.00053311008
0.0005312579
0.00057147761
0.00062636206
0.00067909662
0.00071861952
0.00074022922
0.00074534405
0.00073968853
0.00073084574
0.00072577306
0.00072926701
0.00074359004
0.00076805659
0.00080156942
0.00083933522
0.00088234541
0.00091935664
7.7612269e-05
0.00044352808
0.00097260668
0.0013958912
0.0017652959
0.0020881321
0.0024108293
0.0026494723
0.0028375635
0.0029473908
0.0029578808
0.0028040488
0.0024772601
0.0020476631
0.0015705199
0.0011242265
0.00079088557
0.00062068905
0.0005755643
0.00060382938
0.00066069143
0.00072216462
0.00077230278
0.00080232287
0.00081085341
0.00080258396
0.0007857408
0.00076905741
0.00075962963
0.00076154365
0.00077615116
0.00080183373
0.00083680277
0.00087585663
0.00091976312
0.0009573278
5.601851e-05
0.00035275893
0.00081456322
0.0012474281
0.0016567507
0.0020276484
0.0023555288
0.002682479
0.0029029796
0.0030675186
0.0031431356
0.0030794326
0.0028266185
0.002421626
0.0019421244
0.00145063
0.0010270538
0.0007555257
0.00064607634
0.00064559592
0.00069954324
0.00076882485
0.00083121388
0.00087282135
0.00088838142
0.00088050164
0.00085729179
0.00082899369
0.00080504073
0.00079206394
0.00079320594
0.00080864596
0.00083588056
0.00087243016
0.00091278125
0.00095747137
0.00099561813
3.8940898e-05
0.00026977255
0.0006602933
0.0010689325
0.0015080437
0.0019280584
0.0023169407
0.0026413794
0.0029671839
0.0031707163
0.0033087222
0.0033215792
0.003159901
0.0028028008
0.0023308682
0.0018167638
0.0013296242
0.00095303139
0.00075583592
0.00070510303
0.00074534565
0.00081978208
0.00089520657
0.00095139788
0.0009780008
0.00097432741
0.0009473883
0.00090834922
0.00086896915
0.000838655
0.00082317139
0.000824354
0.00084119013
0.00087025576
0.00090845607
0.00095008459
0.00099545941
0.0010341863
2.7618676e-05
0.00020113744
0.00051798687
0.00088907283
0.0013221413
0.0017886228
0.0022326532
0.0026287433
0.0029415189
0.0032732107
0.0034575367
0.0035393946
0.0034599866
0.003182768
0.0027357178
0.0022125822
0.0016824576
0.0012219682
0.00091579107
0.00079633527
0.00080282166
0.00087653423
0.00096443772
0.0010377409
0.0010796146
0.0010846705
0.0010576552
0.0010098191
0.00095491067
0.00090534518
0.00086994294
0.00085308266
0.00085516617
0.0008738889
0.00090501231
0.00094488379
0.00098773301
0.0010336822
0.0010729569
2.2896021e-05
0.00015267963
0.00039895463
0.00072238677
0.0011240891
0.001603673
0.0021085673
0.0025628376
0.002958264
0.0032670343
0.003607664
0.0037422456
0.0037324923
0.0035439045
0.0031538306
0.0026364315
0.0020765702
0.0015510022
0.0011431446
0.00092871102
0.0008832451
0.00094162587
0.0010396395
0.0011316717
0.0011929542
0.0012118994
0.0011894532
0.0011359093
0.0010664128
0.00099635006
0.00093804825
0.0008990385
0.00088202684
0.00088580478
0.00090686096
0.00094018741
0.00098171122
0.0010256901
0.0010720977
0.0011118182
0.00012891454
2.5052829e-05
0.00031422495
0.00058258552
0.00094038531
0.0013935435
0.0019294289
0.0024548155
0.0029129771
0.0033177537
0.0036295908
0.0039495918
0.0039936871
0.0038784145
0.0035739059
0.0030867809
0.0025115645
0.0019331198
0.001438715
0.0011163867
0.00099894897
0.0010216756
0.001122237
0.0012334077
0.0013178372
0.0013561415
0.0013438649
0.0012889123
0.0012069641
0.001116077
0.0010323716
0.00096716183
0.00092621308
0.00091024905
0.000916474
0.00094019818
0.00097581264
0.001018923
0.0010639094
0.0011106517
0.001150682
0.00027217582
0.00013216969
3.4137807e-05
0.00048304051
0.00078573179
0.0011977902
0.0017123375
0.0022835355
0.0028209109
0.0032976585
0.0037256244
0.0040078207
0.0042649977
0.0041996863
0.003971421
0.0035514228
0.0029853552
0.0023690451
0.0017966985
0.0013702304
0.0011568172
0.0011297307
0.0012153472
0.0013435707
0.0014541216
0.0015174283
0.0015217101
0.0014708667
0.0013799324
0.0012690513
0.0011581595
0.0010629366
0.00099298045
0.0009517891
0.00093804796
0.00094733656
0.00097399141
0.0010119029
0.0010564928
0.0011023385
0.0011492821
0.0011894903
0.00043352173
0.00027684648
0.00016230405
5.0013508e-05
0.00067541939
0.0010325774
0.0015051186
0.0020644841
0.0026604754
0.0032253332
0.0037388728
0.0041631899
0.0043678028
0.0045397131
0.0043591453
0.0040143956
0.0034884229
0.00285729
0.002220273
0.0016930627
0.0013693489
0.0012747262
0.0013280999
0.0014633053
0.0016019296
0.0016956526
0.0017235606
0.001683561
0.001588502
0.0014597967
0.0013209558
0.0011923707
0.0010883043
0.0010159048
0.00097617511
0.00096568584
0.00097857237
0.0010083027
0.0010484618
0.001094385
0.0011409213
0.0011879195
0.0012281881
0.00062010707
0.00043902359
0.00032776865
0.00021653595
7.2120941e-05
0.00091522368
0.0013306397
0.0018454323
0.0024418859
0.0030802207
0.0036927051
0.0042209259
0.0045924428
0.0046938097
0.0047749889
0.0044758508
0.0040121426
0.0033921937
0.0027111758
0.0020889483
0.0016514896
0.0014587829
0.0014735654
0.0015971632
0.0017616469
0.0018908002
0.001949807
0.0019284745
0.0018356776
0.0016927999
0.0015264722
0.0013619652
0.0012188439
0.0011089332
0.0010364682
0.00099979984
0.00099345842
0.0010103209
0.0010431854
0.0010854766
0.001132555
0.0011796012
0.0012265048
0.0012667123
0.00085704425
0.00062548758
0.00049821548
0.00041954476
0.00028980157
9.9068278e-05
0.0012074669
0.0016609406
0.0022101771
0.0028629351
0.0035698507
0.0042140957
0.004706526
0.0050010194
0.0049890375
0.0049729021
0.0045476286
0.003964168
0.003265142
0.0025655805
0.0020094602
0.0017020069
0.0016498514
0.0017566101
0.001934774
0.0021028895
0.0022006674
0.0022068372
0.0021241659
0.0019724471
0.0017805778
0.0015786119
0.0013919712
0.001238049
0.0011254899
0.0010552685
0.0010230943
0.0010216222
0.0010427099
0.0010786652
0.0011229227
0.0011709517
0.0012183155
0.0012649767
0.0013050021
0.0011479317
0.00086427855
0.00068989852
0.00060403024
0.00054242015
0.00037535232
0.00012963967
0.0015310525
0.0020148933
0.0026176041
0.0033554593
0.0041242653
0.0047510938
0.0051819791
0.0053898189
0.0052571198
0.0051315668
0.0045704562
0.0038754505
0.0031216393
0.0024547907
0.002019172
0.0018673462
0.0019476915
0.0021272903
0.0023319646
0.0024761949
0.0025195877
0.0024563814
0.0023029281
0.0020891555
0.001849533
0.0016156474
0.0014113421
0.0012507689
0.00113876
0.0010729345
0.0010464674
0.0010504114
0.0010758272
0.001114754
0.0011607635
0.0012095187
0.0012570008
0.0013032731
0.0013429974
0.0014699213
0.0011586724
0.00093457101
0.00080482311
0.00074438129
0.00068401819
0.00046609784
0.00016206557
0.0018770252
0.0024095691
0.0030951499
0.0039201979
0.0047046205
0.0052894261
0.0056511732
0.0057642396
0.005495477
0.0052424681
0.0045381643
0.0037529356
0.0029928496
0.0024248042
0.0021516169
0.002166505
0.0023505285
0.0025798982
0.0027759467
0.0028671875
0.0028343595
0.002688149
0.0024580425
0.002182158
0.0018983874
0.0016377212
0.0014209436
0.001258
0.0011496113
0.0010900884
0.0010703061
0.0010800146
0.0011097398
0.0011514407
0.0011989548
0.0012481964
0.001295591
0.0013413312
0.0013806458
0.0018138698
0.0014845481
0.0012368541
0.0010582304
0.00095640302
0.00090421799
0.00083075528
0.00055496511
0.00019325308
0.0022620687
0.0028709804
0.0036452474
0.0045212203
0.0052971775
0.005835628
0.0061204636
0.0061227302
0.0056924679
0.0052969135
0.0044567401
0.0036247042
0.0029291827
0.0025180681
0.0024351087
0.0026012725
0.0028553576
0.0030999228
0.0032496678
0.0032596722
0.003131661
0.002892888
0.0025840818
0.0022491607
0.0019268621
0.0016456776
0.0014219861
0.0012608908
0.0011589428
0.0011073285
0.0010949451
0.0011105864
0.0011444837
0.001188705
0.0012374412
0.0012869154
0.0013340184
0.0013790929
0.0014178979
0.0021958733
0.0018327296
0.0015713133
0.0013711
0.0012198554
0.001126878
0.0010666264
0.00097332466
0.00063023361
0.00021706677
0.0027103963
0.0034032018
0.004242165
0.0051461588
0.0059092248
0.0063976645
0.0065894527
0.0064537305
0.0058355334
0.0052908229
0.0043486389
0.0035404751
0.0029822928
0.0027749471
0.0028832876
0.0031629727
0.0034528616
0.0036666137
0.0037330809
0.0036364418
0.0033990436
0.0030628225
0.0026772763
0.0022891412
0.0019356321
0.0016408987
0.0014159215
0.0012606795
0.0011676395
0.0011251952
0.001120675
0.00114224
0.0011800765
0.0012265046
0.0012761524
0.0013256002
0.0013722234
0.0014165118
0.0014547079
0.0026382432
0.0022191773
0.001928928
0.0017168693
0.0015436577
0.0013988025
0.0012978282
0.0012160807
0.0010894404
0.00067766332
0.00023169284
0.0032262701
0.0039839941
0.0048744771
0.0058054313
0.0065516167
0.0069781295
0.0070474317
0.0067359455
0.0059155509
0.0052358911
0.004260381
0.0035596357
0.0032029829
0.0032213652
0.0034949869
0.0038403957
0.0041191978
0.0042544565
0.0042045878
0.0039812398
0.0036257341
0.0031921944
0.0027355253
0.0023024197
0.0019261775
0.0016251904
0.0014044067
0.0012586197
0.0011765258
0.0011441655
0.0011477316
0.0011750551
0.0012165018
0.0012647741
0.0013150063
0.0013641898
0.0014101676
0.0014535458
0.001491025
0.0031454059
0.0026647045
0.0023260493
0.0020871211
0.0019005388
0.0017310675
0.0015742226
0.0014423148
0.0013217847
0.0011589131
0.0006942755
0.00023851242
0.0037920631
0.0046035637
0.0055495535
0.0065111716
0.0072289179
0.0075649919
0.0074695005
0.0069551826
0.0059314544
0.0051702839
0.0042557426
0.0037431433
0.0036321817
0.003868825
0.0042573854
0.004610753
0.0048226988
0.0048365901
0.0046432248
0.0042795867
0.003803395
0.0032774168
0.0027585187
0.0022904529
0.0019006587
0.0016006872
0.0013891608
0.0012559187
0.0011863527
0.0011646519
0.0011762916
0.0012090644
0.001253707
0.0013034271
0.0013539422
0.0014026574
0.0014478104
0.001490126
0.0015285297
0.0037028493
0.0031740356
0.0027828907
0.0024987261
0.002282737
0.0020967642
0.0019082877
0.0017053029
0.0015297856
0.0013719344
0.001178914
0.00069409861
0.00023458244
0.0043979497
0.0052680039
0.0062801207
0.0072711751
0.0079340317
0.0081346633
0.0078314785
0.0071030895
0.0059059295
0.0051618051
0.0044034062
0.0041427532
0.0042965277
0.0047071396
0.0051398746
0.005440274
0.0055314851
0.0053870205
0.0050301024
0.0045198764
0.003926366
0.0033171131
0.0027474794
0.0022556895
0.0018617225
0.0015696766
0.0013718812
0.0012537055
0.0011977908
0.0011869886
0.0012064625
0.0012442401
0.0012916095
0.0013424071
0.0013929474
0.0014409641
0.0014850476
0.0015276429
0.0015680752
0.004301191
0.0037344761
0.0033038182
0.0029713614
0.0027080717
0.0024886182
0.0022700403
0.0020208443
0.001765631
0.0015542816
0.0013701727
0.0011770483
0.00067264711
0.0002235294
0.0050491413
0.0059901093
0.0070778327
0.0080814173
0.0086414484
0.0086565114
0.0081179152
0.0071828666
0.0058989525
0.0052864988
0.0047655214
0.004800991
0.005195393
0.0057030155
0.0061058036
0.0062898668
0.0062128995
0.0058813734
0.0053497056
0.0046937698
0.003991833
0.0033120291
0.0027050486
0.0022013258
0.0018123354
0.0015344789
0.0013541981
0.0012530084
0.0012113997
0.0012114089
0.0012382692
0.0012805203
0.0013301697
0.0013817217
0.0014319818
0.0014789448
0.0015230323
0.0015670758
0.001608593
0.0049438478
0.0043372343
0.0038776056
0.0035084259
0.0031948412
0.0029256004
0.002653429
0.0023613861
0.002047096
0.0017607445
0.0015247751
0.0013537349
0.0011357977
0.00063687488
0.0002062289
0.005757933
0.0067817764
0.0079391936
0.0089205997
0.0093206537
0.0091033965
0.008327772
0.0072408077
0.0059871255
0.0056189106
0.0053966003
0.0057356898
0.0062953728
0.0068088427
0.0071088756
0.0071186407
0.006834733
0.0062990839
0.0055902182
0.0047964149
0.0039996639
0.003264823
0.0026349615
0.0021310955
0.0017555939
0.0014973686
0.0013376345
0.0012547083
0.0012275838
0.0012380215
0.0012716971
0.0013178938
0.0013694178
0.00142132
0.0014708069
0.0015175021
0.0015629375
0.0016076571
0.0016500786
0.0056428503
0.0049832518
0.0044948397
0.0040995277
0.0037460095
0.003420899
0.0030773951
0.0027197075
0.0023529885
0.0020071897
0.0016957461
0.0014889219
0.0012930821
0.0010729861
0.00058339889
0.00018442569
0.0065367991
0.0076410628
0.0088468168
0.0097510641
0.0099353503
0.009465269
0.0084773417
0.0073412069
0.0062502691
0.0062222256
0.0063306305
0.0069234879
0.0075435518
0.0079735607
0.0081015619
0.0078880685
0.0073712872
0.0066244161
0.0057441316
0.0048264006
0.0039522738
0.0031797022
0.0025417865
0.0020490261
0.0016945978
0.0014605151
0.0013235209
0.0012594819
0.0012465941
0.0012668953
0.0013067851
0.0013564178
0.0014092835
0.0014608802
0.001510102
0.0015580804
0.0016041675
0.0016493846
0.0016925195
0.0064107001
0.005684111
0.0051545235
0.0047339307
0.0043506443
0.0039797304
0.0035582163
0.0031131064
0.002677403
0.0022760308
0.0018995612
0.0016336916
0.0014015617
0.0012116525
0.00098580557
0.00051467355
0.00016116497
0.0073856972
0.0085519244
0.0097637092
0.010526201
0.010462974
0.0097459257
0.0086237536
0.0075719884
0.0067605361
0.0071408255
0.0075646728
0.008304864
0.008874729
0.0091453132
0.009037059
0.0085657519
0.0078020918
0.006846456
0.005808133
0.0047855128
0.0038541876
0.0030621115
0.0024306163
0.0019592427
0.001632345
0.0014258687
0.0013129128
0.0012678031
0.0012686396
0.0012981551
0.0013436225
0.0013959916
0.0014493495
0.0015008862
0.0015516379
0.0016001823
0.0016467497
0.0016922329
0.0017359015
0.0072489625
0.0064540191
0.0058681075
0.0054088996
0.0049984554
0.0045849291
0.0040947172
0.0035567218
0.0030332113
0.0025616029
0.0021238852
0.0018058335
0.0015107519
0.0012950306
0.0011046627
0.00087630986
0.00043477944
0.00013817159
0.0082874217
0.0094789214
0.01064144
0.011210927
0.01089717
0.0099860429
0.008848243
0.0080160393
0.007571067
0.0083902221
0.0090443431
0.0097979814
0.010224394
0.010267597
0.0098757934
0.0091248568
0.0081123084
0.0069594713
0.0057830266
0.0046783661
0.0037116949
0.0029183408
0.0023068247
0.0018658009
0.001571586
0.0013950175
0.001306606
0.0012800842
0.0012939913
0.0013319315
0.0013820643
0.0014360945
0.0014899382
0.0015434923
0.0015949128
0.0016438848
0.0016906385
0.0017361805
0.0017802044
0.0081368336
0.0072946863
0.0066510729
0.0061359836
0.0056832052
0.0052216665
0.0046705183
0.004046574
0.0034342498
0.0028752256
0.0023622064
0.0019980642
0.0016417028
0.0013717449
0.0011633712
0.00097793876
0.00074729596
0.00035236277
0.00011641182
0.0092038979
0.010384424
0.011438284
0.011788638
0.011261184
0.010259589
0.0092380602
0.0087245843
0.0087085807
0.0099311526
0.01067672
0.011327138
0.011538652
0.011290247
0.010587628
0.0095462442
0.0082928955
0.0069626268
0.0056731047
0.0045119694
0.0035323814
0.0027551963
0.0021757836
0.0017724702
0.0015146367
0.0013692168
0.0013053355
0.0012967843
0.0013228298
0.0013680129
0.00142148
0.0014769588
0.0015336499
0.001588078
0.001640081
0.0016891162
0.0017358093
0.0017811928
0.0018254072
0.0090341097
0.0081816104
0.0075060005
0.0069317093
0.0064162773
0.005887409
0.0052678636
0.004566956
0.0038741242
0.0032280143
0.0026254896
0.0022039504
0.0017897427
0.0014642378
0.0012095018
0.0010145712
0.00083351203
0.00061013247
0.00027411332
9.5841121e-05
0.010097114
0.011229309
0.012131099
0.012273962
0.011619429
0.010647982
0.0098520841
0.0097343477
0.010154817
0.011670944
0.012371145
0.012829494
0.012761748
0.012175449
0.011146108
0.0098162932
0.0083406365
0.006859354
0.0054858695
0.0042951932
0.0033246877
0.0025796465
0.0020425453
0.0016825108
0.0014634091
0.0013496587
0.0013098663
0.0013181719
0.0013548498
0.0014056649
0.0014620935
0.0015216848
0.0015796268
0.0016349113
0.0016870452
0.0017358557
0.0017822165
0.0018272352
0.0018714831
0.0099056427
0.009073672
0.0084038959
0.0077991155
0.0072185695
0.0065935923
0.0058817488
0.0051007064
0.0043337096
0.0036116866
0.0029204436
0.0024329043
0.0019499531
0.001571185
0.001265214
0.0010331306
0.00085219988
0.000681709
0.00047916603
0.00020421658
7.7049585e-05
0.010930009
0.011975695
0.012721874
0.012722765
0.012050857
0.011210935
0.010732653
0.011044619
0.011841385
0.013503641
0.014051486
0.014248211
0.013843142
0.012895724
0.011531553
0.0099289308
0.008257385
0.0066572427
0.0052313582
0.0040382736
0.0030974463
0.0023983688
0.0019116118
0.0015987583
0.001419743
0.0013375175
0.0013205561
0.001343828
0.0013892316
0.0014452386
0.0015075651
0.0015690187
0.0016282893
0.0016838717
0.0017357858
0.0017840462
0.0018298132
0.0018742625
0.0019184032
0.010716697
0.0099374633
0.0093032396
0.0087039535
0.0080917571
0.0073605507
0.0065225142
0.0056421441
0.0047956468
0.0040071473
0.0032379643
0.0026892082
0.0021298669
0.0016882864
0.0013341691
0.0010560534
0.00084895977
0.0006864239
0.00053731421
0.00036043038
0.0001463563
6.0456267e-05
0.011666533
0.012620053
0.013260799
0.013216314
0.012611189
0.011993373
0.011884626
0.012605134
0.013667064
0.015338742
0.015651359
0.015538506
0.014746251
0.013428445
0.01173479
0.0098837548
0.0080501942
0.0063672217
0.0049216415
0.0037521872
0.0028593117
0.0022174281
0.001787021
0.001523953
0.0013853734
0.0013332959
0.0013368135
0.0013728912
0.0014266248
0.0014909925
0.0015560801
0.0016195852
0.0016794838
0.0017349379
0.0017862438
0.00183363
0.001878541
0.0019222277
0.0019661325
0.011431527
0.010736613
0.010171796
0.0096038583
0.0089960896
0.0081874744
0.0072089739
0.0062014406
0.0052541856
0.004396126
0.0035575713
0.0029639223
0.0023321225
0.001822699
0.0014121472
0.0010913442
0.00084705537
0.00066825593
0.00053280923
0.00040671174
0.00026118722
0.000102204
4.5832174e-05
0.012301342
0.013202796
0.0138269
0.013807744
0.013340162
0.013005907
0.01326882
0.014338341
0.01553764
0.017100418
0.017131433
0.016657949
0.015448711
0.013754842
0.011751595
0.0096863252
0.0077304371
0.0060030806
0.0045700559
0.0034479123
0.0026183145
0.0020424155
0.0016727006
0.0014605676
0.0013609852
0.0013362796
0.0013578215
0.0014065387
0.0014719091
0.001540351
0.0016085212
0.0016731822
0.0017331936
0.0017880453
0.00183835
0.0018845387
0.0019283349
0.0019710744
0.0020146457
0.012047129
0.011437591
0.010970538
0.010471776
0.0098824063
0.0090313926
0.0079338957
0.0067909305
0.0057199105
0.0047717581
0.0038596608
0.0032350198
0.0025464734
0.0019759026
0.001505002
0.0011351193
0.00085607466
0.00064903593
0.00050460319
0.00039794489
0.00029872043
0.00018716443
7.0264247e-05
3.2895269e-05
0.012871856
0.013796904
0.014476296
0.014528013
0.014258845
0.014216509
0.014830883
0.01616606
0.017374225
0.018745038
0.018459923
0.01756988
0.015937989
0.013867615
0.011585374
0.0093478407
0.0073132896
0.0055806171
0.0041902916
0.003135911
0.0023820204
0.0018788048
0.0015721257
0.0014095416
0.0013457228
0.0013458138
0.0013856028
0.0014502563
0.0015215463
0.0015945183
0.0016646188
0.0017298054
0.001789347
0.0018431191
0.0018920264
0.0019366904
0.0019791191
0.0020207567
0.0020639029
0.01259803
0.012043335
0.011674482
0.011272055
0.010722228
0.0098390986
0.008656658
0.0074062146
0.0062038111
0.005145259
0.0041405554
0.0034853572
0.0027539982
0.0021379555
0.0016142174
0.0011921141
0.00087350893
0.00063942777
0.00047414621
0.00036697097
0.00029036961
0.00021826733
0.00013427455
4.8239017e-05
2.3020964e-05
0.013444069
0.014460561
0.015232803
0.015396749
0.01533314
0.015575186
0.016515142
0.018009591
0.019120505
0.020243385
0.019604209
0.018248016
0.016196094
0.013762991
0.011246185
0.0088840497
0.0068168735
0.0051165058
0.0037956753
0.0028262342
0.0021579029
0.0017313888
0.0014866148
0.0013698854
0.0013392881
0.0013649014
0.0014261872
0.00149933
0.0015771269
0.0016531324
0.001724387
0.0017893737
0.0018478646
0.0019000724
0.0019471742
0.0019899915
0.0020308352
0.0020712147
0.0021138637
0.013146849
0.012583994
0.012285188
0.011980962
0.011485574
0.010590139
0.0093295192
0.0079995141
0.0066966937
0.0055264663
0.0044108281
0.0037091158
0.0029371191
0.0022907724
0.0017303491
0.0012634634
0.00090286913
0.00063903718
0.0004530785
0.00033408283
0.00026268827
0.00021286112
0.00016090326
9.6426971e-05
3.3225019e-05
1.5370061e-05
0.014080057
0.015223899
0.01611123
0.016381108
0.016502895
0.017038383
0.018255188
0.019809264
0.020742264
0.0215839
0.020526137
0.018671198
0.016201067
0.013448741
0.010748783
0.0083147611
0.0062609744
0.0046274406
0.0033993711
0.0025289294
0.0019524513
0.0016020554
0.001415059
0.001341885
0.0013460011
0.0014001592
0.0014734944
0.0015558105
0.0016381647
0.001716233
0.0017877323
0.0018518042
0.0019086507
0.0019587932
0.0020036827
0.0020443698
0.0020834066
0.0021223841
0.0021644839
0.013757533
0.01311583
0.012828572
0.01260104
0.012157908
0.011261369
0.0099401452
0.0085378077
0.0071574371
0.0059046394
0.0046772457
0.0039161158
0.0030921369
0.0024193528
0.0018375457
0.001340898
0.00094472605
0.00065103289
0.00044283092
0.00031011588
0.00023335005
0.00019124088
0.00015889599
0.00011984524
6.9690935e-05
2.3162231e-05
9.8277715e-06
0.01481442
0.016099344
0.017081208
0.017418035
0.017731883
0.018575209
0.019990147
0.021525216
0.022224101
0.022758909
0.021171695
0.018825704
0.015954797
0.01293851
0.010113475
0.0076626524
0.0056660294
0.004130326
0.003014706
0.002252678
0.0017683539
0.0014896067
0.001358619
0.0013314074
0.0013729541
0.0014440239
0.0015301004
0.0016190488
0.0017047285
0.0017837092
0.001854567
0.0019169927
0.0019715822
0.0020191524
0.0020614725
0.0020997374
0.0021367454
0.0021741933
0.0022157183
0.014474161