/*--------------------------------*- C++ -*----------------------------------*\
| =========                 |                                                 |
| \\      /  F ield         | OpenFOAM: The Open Source CFD Toolbox           |
|  \\    /   O peration     | Version:  5.0                                   |
|   \\  /    A nd           | Web:      www.OpenFOAM.org                      |
|    \\/     M anipulation  |                                                 |
\*---------------------------------------------------------------------------*/
FoamFile
{
    version     2.0;
    format      ascii;
    class       volVectorField;
    location    "380";
    object      U;
}
// * * * * * * * * * * * * * * * * * * * * * * * * * * * * * * * * * * * * * //

dimensions      [0 1 -1 0 0 0 0];

internalField   nonuniform List<vector> 
9200
(
(1.0388409 0.00074073259 -1.5187371e-24)
(1.0390201 0.0023615722 7.4908797e-22)
(1.0366108 0.00074275121 0)
(1.0393003 0.0037592491 -3.9547964e-22)
(1.0367663 0.0023872896 6.5230614e-22)
(1.0356271 0.00073403003 0)
(1.0396838 0.0051536987 -3.9768628e-23)
(1.0370326 0.0038041845 1.1278102e-23)
(1.035771 0.002373091 0)
(1.0341763 0.0007088711 0)
(1.0401201 0.006430623 8.1450517e-22)
(1.0373879 0.0052239738 6.0021621e-22)
(1.0360226 0.0037870314 3.7067904e-22)
(1.0342971 0.0023041295 2.2647336e-23)
(1.033061 0.00067483365 2.1624619e-25)
(1.0406031 0.0076250328 7.8020765e-22)
(1.0378218 0.0065383639 -3.1961599e-23)
(1.0363585 0.005209373 1.2367446e-21)
(1.0345217 0.0036812484 5.0666295e-22)
(1.0331659 0.0021984052 1.5808763e-23)
(1.0319552 0.00063621002 -9.5364251e-22)
(1.0411052 0.0086986035 7.9465466e-22)
(1.0383435 0.0077887254 8.9048411e-22)
(1.0367694 0.0065452186 -7.4728575e-22)
(1.0348088 0.0050682042 -5.4358241e-23)
(1.033371 0.0035124453 4.6001184e-22)
(1.0320449 0.0020705239 4.6636266e-22)
(1.030984 0.00060232337 8.2392713e-23)
(1.0416362 0.0096165736 3.7400836e-22)
(1.0389639 0.0089552331 7.2841625e-22)
(1.0372689 0.0078474122 8.9003537e-22)
(1.0351493 0.0063864551 4.6797085e-23)
(1.0336244 0.0048293051 -1.1840317e-21)
(1.032232 0.0033051754 -5.2559875e-22)
(1.031067 0.0019488071 -5.3749599e-22)
(1.0300881 0.00057688702 8.8534488e-22)
(1.0421952 0.010326478 -1.041283e-21)
(1.0397259 0.010007499 7.925439e-22)
(1.0378658 0.009122923 3.7223413e-23)
(1.0355414 0.0076938467 4.301308e-22)
(1.0339122 0.0060794536 1.1281398e-22)
(1.0324567 0.004527987 -1.7680438e-21)
(1.031247 0.0031076223 1.525809e-22)
(1.0301703 0.0018482999 -9.1260856e-22)
(1.0292644 0.00055928739 -1.8769721e-21)
(1.0427394 0.010793342 7.6582771e-22)
(1.0406852 0.010950634 -3.6724036e-22)
(1.0385805 0.010381383 -4.2022691e-23)
(1.0359712 0.0090213702 -1.6501506e-22)
(1.0342179 0.0073101262 -1.8129134e-22)
(1.0327025 0.0056767393 1.9514701e-22)
(1.0314652 0.0042385642 6.197645e-22)
(1.030348 0.0029466297 1.0342576e-21)
(1.0293507 0.0017755708 5.8663926e-22)
(1.0284938 0.00054543647 1.5155371e-22)
(1.0433052 0.011015031 -3.7373122e-22)
(1.0420226 0.011706535 1.1717302e-22)
(1.0394685 0.01168283 6.2332964e-22)
(1.0364361 0.010418132 -7.2256982e-22)
(1.0344908 0.0085525262 5.4247399e-22)
(1.0329384 0.0067747815 -1.6267118e-21)
(1.031708 0.0052883408 6.442599e-23)
(1.0305702 0.0040052 1.557509e-21)
(1.0295269 0.0028349069 -7.7428525e-22)
(1.0285843 0.001725227 1.7043523e-21)
(1.0277689 0.0005320101 -2.5433161e-22)
(1.0442638 0.010601593 1.0281352e-22)
(1.0435062 0.012254674 -3.5036916e-22)
(1.0404007 0.013137339 -7.4203551e-22)
(1.0369248 0.011992902 0)
(1.0346943 0.0098549647 3.181157e-23)
(1.0331015 0.007840582 -2.8735758e-22)
(1.0319481 0.0062567045 -3.2022836e-22)
(1.030827 0.0049831792 -7.7186677e-22)
(1.0297555 0.0038513739 -2.1343318e-22)
(1.028755 0.0027635318 -9.8089494e-22)
(1.0278594 0.0016862008 -6.6439239e-22)
(1.0270855 0.00051789969 1.5379816e-22)
(1.0453109 0.009624353 6.1977841e-23)
(1.0454481 0.012974812 -1.1826602e-22)
(1.041375 0.014820721 0)
(1.0373218 0.013824204 0)
(1.0346913 0.011278174 -1.9533276e-22)
(1.0331463 0.0088813673 -1.8017743e-22)
(1.032129 0.0071420691 -4.2383422e-22)
(1.0311057 0.0058668094 9.167615e-22)
(1.0300268 0.0047987573 9.5357645e-23)
(1.0289822 0.003762744 2.5849776e-24)
(1.0280198 0.0027123465 1.0908572e-21)
(1.0271707 0.0016463739 -1.1652654e-21)
(1.026444 0.00050254452 2.421183e-21)
(1.0464821 0.0079604383 -9.1069957e-22)
(1.048252 0.01367016 4.8353024e-23)
(1.0426801 0.016760124 -3.7707279e-22)
(1.0376089 0.015960731 1.6893546e-22)
(1.0344346 0.012871863 -9.4605476e-23)
(1.0329808 0.0099120855 -1.3839611e-22)
(1.0322135 0.0079107074 2.5763359e-22)
(1.0313657 0.0066437012 1.5442046e-23)
(1.0303461 0.0056605385 1.0341021e-21)
(1.0292541 0.0047101328 9.6329152e-22)
(1.0282358 0.0037046613 3.0334377e-22)
(1.0273169 0.0026589539 8.7734847e-22)
(1.0265203 0.0015953971 5.9443699e-22)
(1.0258475 0.00048414537 -6.61201e-22)
(1.0480335 0.0056806328 6.3905053e-22)
(1.0519105 0.014287578 1.8304497e-21)
(1.0444307 0.019112142 -3.1604416e-22)
(1.0378088 0.018528954 4.9932251e-23)
(1.0338728 0.014702928 -5.9461373e-23)
(1.0325115 0.010902047 2.6380054e-22)
(1.0321211 0.0085445978 2.4917836e-22)
(1.0315901 0.0072615702 -3.2815964e-22)
(1.0306909 0.0064250648 -9.8449085e-23)
(1.029595 0.0055922407 -1.1579523e-22)
(1.0284938 0.0046633532 -1.8109808e-23)
(1.027512 0.0036404164 -1.4687139e-22)
(1.0266507 0.0025845657 -1.1116082e-21)
(1.0259146 0.0015260501 5.578679e-22)
(1.0253006 0.00046059874 -5.0146965e-22)
(1.0497966 0.0022723654 2.6564244e-21)
(1.0564349 0.014678528 -2.0751276e-21)
(1.046683 0.022101265 3.1682514e-22)
(1.0378721 0.021761112 -1.9111421e-22)
(1.0328144 0.016878089 -2.4574105e-23)
(1.0315845 0.011870289 -5.5275214e-22)
(1.0318017 0.0089521278 -3.8576958e-23)
(1.0317508 0.0076674833 3.5194353e-23)
(1.0310696 0.0070351525 -2.0055504e-22)
(1.0300006 0.0064059577 -2.7441609e-22)
(1.0288278 0.0055802271 -1.9617736e-21)
(1.0277398 0.0046060351 3.9128619e-22)
(1.0268189 0.0035414905 3.4635161e-22)
(1.0260295 0.0024767932 1.7982002e-22)
(1.0253606 0.0014356259 4.3965897e-23)
(1.0248079 0.00043174891 5.5523016e-22)
(1.0519983 -0.0015432125 0)
(1.0617079 0.015033171 -2.9783883e-21)
(1.049429 0.025917744 8.0304446e-22)
(1.0377341 0.025872981 0)
(1.0311002 0.019521662 0)
(1.0300269 0.012834701 0)
(1.0311009 0.0090483367 1.1925673e-22)
(1.0319203 0.0077638567 4.6539552e-22)
(1.03153 0.0074243689 3.7518098e-22)
(1.0305161 0.0071050044 5.8857441e-22)
(1.0292468 0.0064704818 9.829691e-23)
(1.0280315 0.005554233 4.294131e-22)
(1.0270025 0.0044961677 7.4156906e-24)
(1.0261703 0.0033897694 -3.9769334e-22)
(1.0254631 0.002331867 -1.2334078e-22)
(1.0248639 0.0013267529 -2.706616e-22)
(1.0243715 0.0003997944 0)
(1.0542682 -0.0062059714 4.1280266e-21)
(1.0674305 0.015074516 6.7702158e-21)
(1.0524527 0.030721445 -2.9386316e-21)
(1.037235 0.03109922 7.4855388e-22)
(1.0285696 0.022785092 9.4508708e-22)
(1.0276413 0.013781454 0)
(1.0299147 0.0087587387 8.0549546e-22)
(1.031923 0.0073492923 -2.6092698e-22)
(1.03224 0.0075219718 3.729577e-22)
(1.0312604 0.0076242637 4.380681e-22)
(1.0298272 0.0073145635 -3.5101082e-22)
(1.0283961 0.0065229742 1.2911122e-22)
(1.0272239 0.0054527277 6.959858e-22)
(1.0263029 0.00430548 -1.3196792e-21)
(1.0255807 0.0031796154 -3.8282852e-22)
(1.0249595 0.0021549373 -1.8200803e-21)
(1.0244272 0.0012066056 -7.2628617e-22)
(1.02399 0.00036762605 -6.9081293e-22)
(1.0574267 -0.011798155 -3.259189e-22)
(1.0744079 0.015070115 4.6453144e-21)
(1.0554553 0.036787218 1.1439521e-21)
(1.0359962 0.037660835 -1.5360645e-22)
(1.0249818 0.026821889 -1.9645506e-22)
(1.0241954 0.014724433 -6.4918155e-22)
(1.0280748 0.0079603973 -2.1118385e-21)
(1.0317314 0.006332319 -1.1453224e-21)
(1.0331135 0.0071527509 -1.6535863e-22)
(1.032234 0.0079281737 -6.2525833e-22)
(1.0306511 0.0081044933 -1.0075434e-22)
(1.0289056 0.0075393945 -7.8053757e-22)
(1.0274711 0.0064658107 1.0530337e-22)
(1.0264422 0.0052289594 1.1899965e-22)
(1.0256703 0.0040274083 1.7968673e-22)
(1.0250628 0.0029196369 2.7538221e-22)
(1.0245222 0.0019582023 -5.9724795e-22)
(1.0240495 0.0010845551 2.2489769e-23)
(1.0236592 0.00033760056 -6.4947322e-22)
(1.0606692 -0.020136075 -4.0132418e-21)
(1.0849767 0.01445501 -8.7981429e-21)
(1.0596756 0.044045564 1.278346e-20)
(1.0338811 0.045683719 -4.5773144e-22)
(1.0200222 0.031754783 -1.8708197e-22)
(1.0194179 0.015660511 -3.0956728e-22)
(1.0253903 0.0065177175 2.8292655e-22)
(1.0313108 0.0045081782 -5.4795125e-24)
(1.0341463 0.0061660598 -7.4603098e-23)
(1.0336476 0.0081019122 2.4005863e-22)
(1.0316861 0.0089019568 -9.9413752e-22)
(1.0295606 0.0086743439 2.7434968e-22)
(1.0277789 0.007603479 4.3115589e-22)
(1.0265443 0.0062215735 -3.9154376e-23)
(1.0257331 0.0048687558 1.2856425e-22)
(1.0251252 0.0036748743 8.7124337e-22)
(1.0246232 0.0026295808 -1.6094674e-22)
(1.0241504 0.0017573813 9.8358548e-22)
(1.0237263 0.0009694905 2.5993077e-22)
(1.0233726 0.00031179781 6.7675779e-22)
(1.0659577 -0.027476397 -3.5315116e-22)
(1.0997555 0.013341328 -1.7607282e-20)
(1.0684179 0.052479729 9.9579063e-22)
(1.0323873 0.05524255 -1.0432649e-21)
(1.0134688 0.037570421 -1.4797938e-21)
(1.0130562 0.016602316 -1.2255938e-21)
(1.0216422 0.0042689643 2.5742677e-21)
(1.0305885 0.0016525119 2.3317483e-21)
(1.0354487 0.0043615421 3.5196299e-22)
(1.0356307 0.0078754251 0)
(1.0332025 0.0097408161 6.6988092e-22)
(1.0303836 0.010006611 3.0506445e-22)
(1.0281017 0.0089593931 -5.8070029e-22)
(1.0266055 0.0073532176 4.7601011e-23)
(1.0257096 0.0057675564 -4.1114142e-22)
(1.0251379 0.0043959509 6.9236435e-22)
(1.0246789 0.0032762216 1.6412208e-22)
(1.0242618 0.0023337312 -2.8646862e-22)
(1.023839 0.0015678915 5.7606575e-22)
(1.0234505 0.00086822009 4.6174387e-23)
(1.0231227 0.00029239829 6.4533037e-22)
(1.0627865 -0.03683529 2.4807476e-21)
(1.1066116 0.0079016429 -1.7061182e-20)
(1.0835285 0.061651791 -1.119806e-20)
(1.0348518 0.06656051 5.3992503e-21)
(1.00596 0.044519008 -2.9434348e-21)
(1.004821 0.017522002 -1.4171613e-22)
(1.0166226 0.0010470686 0)
(1.0294858 -0.0024773755 1.7566469e-22)
(1.0371063 0.0014984127 -8.934382e-23)
(1.0383236 0.0071178228 7.214537e-22)
(1.0354256 0.010608604 3.6925071e-22)
(1.0316025 0.011577253 6.0370476e-23)
(1.028493 0.010610169 -7.3178378e-23)
(1.0265714 0.0087071532 3.4556034e-22)
(1.025562 0.0067660724 -2.0076599e-22)
(1.0250291 0.0051390275 2.1301715e-22)
(1.0246762 0.0038567879 -8.7447557e-23)
(1.0243319 0.0028667929 5.2625811e-22)
(1.0239729 0.0020548922 1.3024157e-22)
(1.0235799 0.0014019983 1.8763578e-23)
(1.0232133 0.00078535827 3.412441e-22)
(1.0229013 0.00028125387 0)
(1.0542792 -0.046522683 3.5112679e-22)
(1.1073114 0.0032399327 1.1133494e-20)
(1.1003971 0.071581239 -4.3567817e-22)
(1.0421484 0.079959434 7.5096463e-21)
(0.99918548 0.053262054 -3.7829374e-21)
(0.99443378 0.018445222 1.8012422e-21)
(1.0101274 -0.0033052415 -1.6124285e-22)
(1.0278855 -0.0081355745 1.5740447e-21)
(1.0392036 -0.0026927053 7.9180729e-23)
(1.0419383 0.0056508266 -5.8557717e-23)
(1.0385714 0.011487672 -2.0781723e-24)
(1.0333727 0.013551113 -1.8179331e-22)
(1.0290284 0.012694312 -9.7421598e-23)
(1.0264318 0.010382054 1.2166549e-21)
(1.025217 0.0079358514 8.439933e-22)
(1.0247457 0.0059217908 5.8016866e-22)
(1.0245351 0.0044113444 -1.4009881e-22)
(1.0243484 0.0033043618 -8.2061219e-22)
(1.0240756 0.002480591 -2.2110605e-23)
(1.0237457 0.0018105113 3.073201e-22)
(1.0233632 0.0012673863 0)
(1.0230066 0.00072362582 -7.6468055e-22)
(1.0227005 0.0002788422 -3.0822912e-24)
(1.0399554 -0.056049774 -6.4233403e-21)
(1.1041491 -0.0030478927 3.9973985e-20)
(1.1040774 0.081176625 -2.7776088e-20)
(1.0496987 0.097682575 -7.328746e-21)
(0.99297708 0.064946016 -4.2572061e-21)
(0.98168878 0.019603594 0)
(1.0018466 -0.0089399521 -9.1871036e-23)
(1.0256838 -0.015596565 1.0900878e-21)
(1.0417491 -0.0085099721 -4.8746955e-22)
(1.0467258 0.0032795588 -1.3988665e-21)
(1.0429202 0.012346689 7.1924949e-22)
(1.035897 0.016073381 3.0966272e-22)
(1.0297725 0.015427096 -2.4194994e-22)
(1.0261377 0.012534777 6.1795506e-22)
(1.0245986 0.0093652425 -6.8208656e-22)
(1.0241917 0.0067861381 -1.3565886e-21)
(1.024202 0.0049354474 -2.8557541e-22)
(1.0242298 0.0036677593 -2.8684774e-22)
(1.0241396 0.0027882536 7.7502378e-22)
(1.0238943 0.0021453089 -2.0056824e-22)
(1.0235669 0.0016114773 -6.4162552e-22)
(1.0231795 0.0011671982 6.9290825e-22)
(1.0228229 0.0006835204 -5.3001321e-22)
(1.0225126 0.00028299892 -1.7466039e-24)
(1.0202474 -0.064563081 1.9832369e-21)
(1.0954272 -0.0059655127 3.9474547e-20)
(1.0922604 0.090255189 1.6406923e-21)
(1.046949 0.11765717 3.2656367e-20)
(0.98417589 0.080701757 1.618526e-21)
(0.96642264 0.02194561 -8.9814095e-21)
(0.99126392 -0.016055063 -1.4937121e-22)
(1.0227447 -0.025089459 -2.3793844e-21)
(1.0447694 -0.016265632 6.0594862e-22)
(1.0528849 -0.00026370806 -8.2000084e-22)
(1.0488052 0.013153998 6.1503368e-22)
(1.0394104 0.019331502 -4.4738833e-22)
(1.0308088 0.019061399 5.5125289e-22)
(1.02565 0.01537119 -6.5991431e-23)
(1.0235938 0.011165777 -1.0420823e-21)
(1.0232634 0.007780881 -1.8134047e-23)
(1.0235752 0.0054333572 -5.9245036e-23)
(1.023933 0.0039299482 -4.1222975e-22)
(1.0240901 0.0029815526 0)
(1.0240254 0.0023472407 -9.3810039e-23)
(1.0237684 0.0018793027 -2.6645058e-23)
(1.0234229 0.0014631182 5.3680159e-23)
(1.0230199 0.0011011653 -2.9724711e-23)
(1.0226556 0.0006629373 7.5760226e-22)
(1.0223329 0.0002889267 4.3017478e-22)
(0.99834667 -0.072075062 8.6458181e-21)
(1.0801779 -0.0089967795 -2.4419961e-20)
(1.0713301 0.10111267 -1.0194651e-20)
(1.0304006 0.13675462 -3.6326287e-21)
(0.97255748 0.098597141 7.4521862e-21)
(0.94890884 0.02563134 1.9584468e-21)
(0.97812893 -0.024710926 -2.392256e-22)
(1.0188869 -0.036873291 2.0428533e-22)
(1.0482529 -0.026259257 -1.4136094e-21)
(1.0606543 -0.0052529403 -6.3491991e-22)
(1.0565829 0.01387888 -1.2963134e-21)
(1.0441777 0.023543554 6.0992956e-23)
(1.0321902 0.023913653 -9.2172559e-23)
(1.0248928 0.019147823 -3.2863707e-22)
(1.0220689 0.013487708 -3.4285333e-22)
(1.0218152 0.0089563832 1.4111404e-21)
(1.0225464 0.0059068021 2.1610152e-21)
(1.0233661 0.0040630931 5.3662033e-22)
(1.0239008 0.0030155961 7.2777595e-22)
(1.0240766 0.0024076358 2.2328482e-23)
(1.0239775 0.002004927 -8.2497254e-22)
(1.023679 0.0016889815 -1.7880225e-22)
(1.0233018 0.0013665977 5.5057529e-22)
(1.0228757 0.0010665732 -6.545976e-22)
(1.0224982 0.00065800021 5.7015609e-22)
(1.0221592 0.00029223657 -3.1251394e-23)
(0.97533111 -0.078789442 -3.0516877e-22)
(1.0598093 -0.01175329 -2.7092144e-20)
(1.0512428 0.11213221 3.7104781e-20)
(1.0112222 0.15325762 -2.4657435e-20)
(0.96037365 0.11682055 4.8199577e-21)
(0.93118493 0.029593397 1.1706543e-20)
(0.96287337 -0.035050185 2.8668579e-21)
(1.013871 -0.051253679 3.264437e-21)
(1.0521637 -0.038755995 3.9739756e-21)
(1.0701383 -0.011988321 2.7323755e-21)
(1.0666281 0.014449204 1.79268e-23)
(1.0504873 0.028997491 2.7094014e-21)
(1.0339579 0.030357547 -1.3050235e-21)
(1.0237541 0.024161852 -4.4839662e-22)
(1.0198438 0.016500892 -2.9522031e-22)
(1.0196658 0.010377921 2.9501454e-22)
(1.020967 0.0063444752 -5.7341687e-23)
(1.0224349 0.0040265034 6.4057597e-23)
(1.0234994 0.0028389866 1.4686342e-22)
(1.0240414 0.0022727874 7.8052561e-23)
(1.0241443 0.0019765859 0)
(1.0239682 0.0017691144 -2.8859807e-22)
(1.0236095 0.0015687288 -4.6540418e-23)
(1.0231933 0.0013187904 0)
(1.0227388 0.0010585931 8.0351456e-22)
(1.0223463 0.00066488315 4.6689412e-24)
(1.0219893 0.00029290597 -4.1822124e-22)
(0.95135718 -0.084747179 -2.9162189e-21)
(1.0366092 -0.013933686 -2.2887475e-21)
(1.0270589 0.12307575 2.9292456e-20)
(0.99045318 0.16868186 -4.0716096e-21)
(0.94594995 0.13264719 -1.1632556e-21)
(0.91419631 0.035577225 -1.2532649e-20)
(0.94580638 -0.046852022 -2.4477219e-22)
(1.0074475 -0.068300965 -1.4544543e-21)
(1.0560844 -0.053786419 -2.0024484e-21)
(1.0810434 -0.020636302 -5.707097e-21)
(1.0790442 0.014807784 5.6898224e-21)
(1.0585794 0.035987947 4.4535012e-22)
(1.0361493 0.038817067 2.4774803e-22)
(1.0220985 0.030747119 -4.7168876e-22)
(1.0167132 0.020402898 -8.2232981e-22)
(1.016596 0.012108627 -2.8981911e-22)
(1.0186561 0.006732069 -1.4986855e-21)
(1.0210117 0.0037547569 -1.009684e-21)
(1.0228205 0.002380487 -4.0394922e-22)
(1.0238728 0.0018773172 -7.587082e-22)
(1.0242826 0.0017410083 -2.8039281e-22)
(1.0242508 0.0016949502 1.1012822e-22)
(1.0239755 0.0016337644 2.7166853e-23)
(1.0235454 0.0015074048 0)
(1.0230898 0.0013115832 0)
(1.022606 0.0010715917 -5.8692903e-23)
(1.0221959 0.00068129821 7.2791162e-22)
(1.021822 0.00029485781 8.0085187e-22)
(0.92678481 -0.09002629 0)
(1.011991 -0.015488125 -1.5928305e-20)
(1.0011191 0.13364494 -2.5675428e-20)
(0.96556608 0.18337259 -9.9519536e-21)
(0.92466051 0.1476432 -5.828166e-21)
(0.89617554 0.041489382 9.5627029e-22)
(0.92713393 -0.05906757 -1.8163439e-21)
(0.99895938 -0.08743039 -4.6678313e-22)
(1.0590686 -0.071117698 -5.2710339e-21)
(1.092431 -0.030941342 9.1580701e-22)
(1.0930224 0.015099923 -6.4299702e-22)
(1.0681793 0.044937174 -1.3394956e-21)
(1.0386908 0.04977717 2.0525848e-21)
(1.0197121 0.039266941 -1.082232e-21)
(1.0124095 0.025393332 -3.3549961e-22)
(1.0123521 0.014217962 -9.9622972e-22)
(1.0153987 0.0070328733 -1.6015894e-22)
(1.0189467 0.0031694747 -3.4807561e-22)
(1.0217738 0.0015355113 3.9696795e-25)
(1.0235416 0.00113389 -4.2824126e-22)
(1.0243724 0.0012298394 -1.8139293e-22)
(1.0245585 0.0014229616 -1.4076582e-22)
(1.0243625 0.0015509337 2.8417879e-23)
(1.0239804 0.0015814447 6.1545013e-22)
(1.0234802 0.0014957854 2.048773e-22)
(1.0229909 0.0013346346 -1.3915595e-23)
(1.0224743 0.001101604 -7.5709783e-22)
(1.0220433 0.00070614362 4.7778447e-22)
(1.0216556 0.000301367 -1.1970267e-21)
(0.90229657 -0.094676443 4.6464996e-21)
(0.98666548 -0.017002825 0)
(0.97440663 0.14376144 0)
(0.9394848 0.19692765 0)
(0.90126296 0.16117722 3.1001816e-21)
(0.87664329 0.049159938 0)
(0.9079694 -0.071751359 -8.7030193e-22)
(0.98824629 -0.10844827 -2.7546738e-21)
(1.0605062 -0.090611877 -1.4362472e-20)
(1.1035685 -0.042876248 2.6992898e-20)
(1.1074584 0.015744472 -7.5549802e-21)
(1.0777579 0.056505987 2.0039667e-21)
(1.0408091 0.063808869 -5.3515934e-22)
(1.0162601 0.050124216 1.9109018e-21)
(1.0065856 0.031677897 1.8471486e-21)
(1.0066385 0.016759312 -2.4895538e-22)
(1.0109508 0.0072034876 -1.1770977e-21)
(1.0160629 0.0021580749 2.5873194e-22)
(1.0202595 0.00017993634 7.7254252e-22)
(1.0230058 -8.2502366e-05 4.8050281e-22)
(1.024423 0.00035498348 1.6080013e-22)
(1.0248959 0.00089186438 -1.6508242e-22)
(1.0248175 0.0012956992 -2.2982283e-22)
(1.0244576 0.0015195491 1.5718906e-22)
(1.0239708 0.0015813418 1.8011964e-23)
(1.023421 0.0015245588 1.4070728e-22)
(1.0228924 0.0013811942 -5.6165303e-22)
(1.0223398 0.0011453874 -2.2114335e-24)
(1.0218876 0.00073750672 -1.8468885e-21)
(1.0214884 0.00031218492 -7.1988099e-22)
(0.875999 -0.099472442 -4.249861e-21)
(0.96118283 -0.018241842 -7.3549587e-21)
(0.94759383 0.15321458 0)
(0.9131474 0.2094663 0)
(0.87714714 0.17309494 0)
(0.85750316 0.056451374 0)
(0.88949253 -0.083950134 0)
(0.97564297 -0.13101647 7.8644068e-22)
(1.0604199 -0.11268711 3.8737203e-21)
(1.114815 -0.057342248 -4.0173483e-20)
(1.1235605 0.016351008 1.9163266e-22)
(1.0871024 0.071245099 -8.4446348e-21)
(1.0407519 0.081359354 7.3468336e-21)
(1.0109056 0.063719516 1.5349541e-21)
(0.99881221 0.039451884 -2.5110464e-22)
(0.99910487 0.019766733 4.5612752e-22)
(1.0050475 0.0071779789 -1.9142037e-22)
(1.012163 0.00059373941 5.7475556e-22)
(1.0181584 -0.0018489268 -5.8493566e-22)
(1.0222243 -0.0019203061 -1.9596057e-22)
(1.0244429 -0.001010011 -1.5122036e-23)
(1.0253078 2.771546e-05 -3.5946075e-22)
(1.0253648 0.00082176694 -2.3746828e-23)
(1.0250271 0.0013200215 7.6632287e-23)
(1.0245171 0.0015659662 -1.1243668e-22)
(1.0239443 0.0016239979 -4.2102294e-22)
(1.0233552 0.0015930211 -1.5310894e-22)
(1.0227825 0.0014483951 2.4484403e-22)
(1.0222008 0.001197449 6.9394464e-25)
(1.0217296 0.00077245556 1.3311068e-21)
(1.02132 0.00032496006 4.6750815e-22)
(0.84794158 -0.10421562 5.1079718e-21)
(0.93366202 -0.021266079 -8.3900541e-22)
(0.92148178 0.16157274 -2.0489413e-20)
(0.88736704 0.22091629 -2.48302e-20)
(0.85325454 0.18375952 0)
(0.83817297 0.06075638 0)
(0.87165734 -0.095615543 -7.8703881e-22)
(0.96143702 -0.15409512 -4.377584e-21)
(1.0573751 -0.13669743 2.0812608e-20)
(1.1267645 -0.074998205 -4.8135034e-20)
(1.1444094 0.015101844 -5.0943301e-22)
(1.1018441 0.088273974 1.5703153e-20)
(1.0404377 0.10270213 -2.8864406e-22)
(1.0023118 0.080044192 -5.7702394e-23)
(0.98848116 0.048859585 -1.4588033e-21)
(0.9893617 0.023225974 -1.0977128e-22)
(0.99740325 0.0068643679 2.835463e-21)
(1.0070371 -0.0016744687 -8.1341037e-23)
(1.015341 -0.004733367 -1.5418467e-21)
(1.021147 -0.0045698674 -9.5332344e-23)
(1.0244516 -0.0030165998 -7.9374563e-22)
(1.0258474 -0.0012805621 1.0835801e-22)
(1.0260755 8.1385695e-05 1.6693361e-23)
(1.0257287 0.00095651302 -2.5731662e-22)
(1.0251681 0.0014464949 -1.0761472e-22)
(1.0245335 0.0016575554 -1.2954345e-22)
(1.0239053 0.0017205309 -1.1003311e-22)
(1.023271 0.0016932823 -1.2217855e-22)
(1.0226643 0.0015239306 3.3325803e-22)
(1.0220602 0.0012517655 -2.6005432e-23)
(1.0215702 0.00080829236 6.4465003e-22)
(1.0211503 0.00033763643 4.9505933e-23)
(0.81973185 -0.1086588 -3.8301777e-21)
(0.90378848 -0.025199809 1.248793e-22)
(0.89466989 0.16918271 2.3843207e-20)
(0.86274911 0.23137832 3.8971544e-20)
(0.83057876 0.19298941 0)
(0.81847609 0.063782827 0)
(0.85374674 -0.10744674 0)
(0.94584416 -0.17680953 -5.5032761e-22)
(1.0501058 -0.16126666 -4.4265322e-20)
(1.1317622 -0.094337665 -5.5751402e-20)
(1.1663524 0.010496094 -5.3322213e-22)
(1.1270689 0.10491901 4.2052254e-21)
(1.0485015 0.12690699 -2.2651723e-20)
(0.99248442 0.099150979 6.1695502e-21)
(0.97472331 0.059692748 -1.2145769e-21)
(0.97700704 0.027057497 0)
(0.9877276 0.006131173 8.1158239e-22)
(1.0004735 -0.0048156106 -7.4611931e-22)
(1.011664 -0.0086820398 -5.1692206e-22)
(1.0197228 -0.0082456008 2.1057187e-22)
(1.0244733 -0.0058584107 1.4441911e-22)
(1.0265916 -0.0031649809 3.5091371e-22)
(1.0270367 -0.0010061214 1.7365761e-22)
(1.0266488 0.00041611585 1.0012068e-22)
(1.0259634 0.0012236431 7.8310165e-23)
(1.0252316 0.0016270123 -5.5765341e-23)
(1.0245182 0.0017893881 2.0523781e-23)
(1.023853 0.0018471572 -5.4967091e-24)
(1.0231827 0.0017828317 3.1692287e-22)
(1.0225502 0.0015963839 2.491784e-22)
(1.0219189 0.0013063562 1.366521e-23)
(1.0214099 0.00084333654 -1.8130595e-21)
(1.0209803 0.00034922613 6.9992264e-22)
(0.79165139 -0.11265457 -7.0597842e-21)
(0.87209968 -0.030407412 0)
(0.86641914 0.17536222 2.4237247e-20)
(0.83836578 0.24140961 6.3060531e-20)
(0.80957228 0.20107492 -1.8199829e-20)
(0.79950092 0.065806624 -6.5011201e-22)
(0.83565024 -0.11884237 -3.1218579e-20)
(0.92921576 -0.19884973 1.1654685e-20)
(1.0389054 -0.18553149 1.1892736e-20)
(1.1295647 -0.11368956 1.2880357e-19)
(1.1728814 0.0026472183 -5.4432679e-20)
(1.1566897 0.12093549 -4.7602364e-20)
(1.0682777 0.15266793 1.6381804e-21)
(0.98953158 0.12151819 1.7227058e-21)
(0.95788662 0.071644009 -1.187123e-21)
(0.96158818 0.031054474 5.0723502e-22)
(0.97575706 0.0047900483 3.9014583e-22)
(0.99227228 -0.0090120636 1.0311813e-22)
(1.0069867 -0.013913747 -1.8154836e-22)
(1.0178874 -0.013190054 3.359064e-23)
(1.0245403 -0.0097569973 4.7220148e-22)
(1.0276366 -0.0057973295 2.8122188e-23)
(1.0283735 -0.002533781 -1.8133223e-22)
(1.0278952 -0.0003413873 3.8434941e-22)
(1.0269937 0.00092061951 6.9598406e-23)
(1.0260642 0.001553268 4.6569829e-25)
(1.0252282 0.0018352375 4.0625855e-24)
(1.0244777 0.0019498247 3.2861473e-23)
(1.0237853 0.0019700865 9.4633951e-23)
(1.0230907 0.0018722297 -3.4761172e-23)
(1.0224297 0.0016735952 1.686111e-22)
(1.0217747 0.0013606464 1.5429567e-23)
(1.0212487 0.00087671481 7.3647656e-22)
(1.0208105 0.00035954208 -1.3114143e-21)
(0.76459259 -0.11608267 6.5750886e-21)
(0.83868479 -0.03506604 -4.260529e-22)
(0.83700177 0.17906251 -1.281397e-21)
(0.81433033 0.25106315 -3.276883e-20)
(0.78910412 0.20969724 7.5388657e-20)
(0.78120121 0.066510753 8.2658669e-20)
(0.81729017 -0.12904556 4.9781056e-21)
(0.91180143 -0.2198906 0)
(1.0244188 -0.20891651 3.5497871e-20)
(1.1219499 -0.13249867 1.7447359e-19)
(1.1720007 -0.0060806957 7.912462e-21)
(1.1746107 0.13527418 2.3528637e-20)
(1.091825 0.18195967 0)
(0.99705384 0.14852264 3.1651688e-21)
(0.9419776 0.086208171 1.3692201e-21)
(0.94266858 0.034670277 -8.1658715e-22)
(0.96130357 0.0026808932 -3.1695629e-21)
(0.98226308 -0.014455221 0)
(1.0011743 -0.020641367 6.5980874e-22)
(1.0155745 -0.019656052 8.0604177e-22)
(1.0246784 -0.014967411 -2.0033301e-22)
(1.0290973 -0.0093787653 4.4536871e-22)
(1.0302411 -0.0046280146 0)
(1.0296231 -0.0013563571 1.5939897e-23)
(1.0283744 0.00054209132 2.2958311e-22)
(1.0271138 0.0014890742 -1.9219341e-23)
(1.0260484 0.0018948827 2.0780616e-23)
(1.0251762 0.0020551021 2.3631313e-23)
(1.024417 0.0021049625 -2.2194316e-24)
(1.0237092 0.0020800521 2.8280935e-22)
(1.022993 0.001967697 -6.7562929e-22)
(1.0223053 0.0017486332 -4.3429406e-22)
(1.0216294 0.0014118891 0)
(1.0210879 0.00090780006 -2.8827154e-23)
(1.0206413 0.0003687159 -3.9129045e-22)
(0.73930898 -0.11914042 9.5766078e-21)
(0.80574985 -0.037702809 -1.0273599e-20)
(0.80791985 0.18217733 1.9369651e-20)
(0.79040328 0.25987222 -7.5906435e-21)
(0.76949949 0.22050962 2.6404594e-20)
(0.76300483 0.069690223 1.0473397e-20)
(0.80085327 -0.14122659 4.6377804e-20)
(0.89363083 -0.23960795 2.9814727e-21)
(1.0074536 -0.23073042 0)
(1.1080817 -0.15083068 -6.2531362e-20)
(1.1664583 -0.013375637 6.9032173e-20)
(1.1720357 0.14828987 -6.6193817e-21)
(1.1043618 0.21351865 2.2142129e-20)
(1.0055206 0.18162314 -1.0101816e-20)
(0.93168934 0.10556586 3.326191e-21)
(0.92026411 0.038596404 6.6968792e-22)
(0.94413906 -0.00063681165 -5.9989142e-21)
(0.97034942 -0.021294745 -1.9522737e-21)
(0.99411081 -0.029052417 1.3102106e-21)
(1.0127093 -0.027888722 -1.5310428e-21)
(1.0249063 -0.021760458 6.5030939e-22)
(1.0310948 -0.014149 -6.3440782e-22)
(1.0328281 -0.0074401854 0)
(1.0320262 -0.0026904978 8.148451e-24)
(1.0302684 0.00010680715 5.7436287e-23)
(1.028487 0.0014804954 7.6167205e-23)
(1.0270428 0.0020339975 -1.1925092e-22)
(1.0259487 0.0022060206 -4.450985e-23)
(1.0250944 0.0022492786 4.6782077e-23)
(1.0243452 0.0022351599 0)
(1.0236309 0.0021848496 -2.120316e-22)
(1.0228941 0.0020550676 -7.323094e-22)
(1.0221828 0.0018162761 1.222527e-21)
(1.0214854 0.0014590881 -4.2146918e-22)
(1.0209276 0.00093674109 5.5373807e-23)
(1.020474 0.00037689623 1.3988924e-21)
(0.7163797 -0.12178487 -9.618865e-21)
(0.77505502 -0.040184132 -3.9622789e-22)
(0.78071089 0.18631013 -9.2841335e-21)
(0.76794194 0.26769854 -5.6811859e-22)
(0.75105033 0.22963192 -1.1072152e-19)
(0.74523181 0.078300464 -1.1388491e-19)
(0.78114819 -0.14722851 -7.0060063e-22)
(0.87632201 -0.25844433 4.0511752e-20)
(0.98879662 -0.25127174 5.6235763e-21)
(1.0901369 -0.16786431 5.7631155e-20)
(1.15496 -0.018437163 -1.7509491e-22)
(1.1560987 0.16237449 -3.3473232e-20)
(1.0973097 0.24289532 7.6240723e-22)
(1.0072603 0.21716615 -1.6475464e-20)
(0.92598859 0.13187676 3.9453563e-21)
(0.89678231 0.043435934 -7.8213128e-22)
(0.92388603 -0.0050647996 1.5298051e-21)
(0.95646529 -0.029763504 1.7294909e-21)
(0.98570976 -0.039321415 -1.3031971e-21)
(1.0092119 -0.038110964 -2.7376488e-22)
(1.0252239 -0.03041673 4.2381215e-22)
(1.033747 -0.020375197 -4.3863475e-22)
(1.0363462 -0.011160074 3.312755e-22)
(1.0353452 -0.0044190596 0)
(1.0328812 -0.00037123182 -4.4841385e-22)
(1.0303324 0.0016057297 4.3819098e-23)
(1.0282923 0.0023383107 -2.1378774e-22)
(1.0268345 0.0024910697 2.7816554e-22)
(1.0258007 0.002452401 -7.8778649e-24)
(1.0249994 0.0023978403 -7.3591679e-23)
(1.0242718 0.0023450951 1.8081175e-23)
(1.0235532 0.0022811358 -2.3206499e-22)
(1.0227967 0.0021331575 4.9863712e-24)
(1.0220602 0.0018800421 1.2472108e-21)
(1.0213406 0.0015034679 -1.4653355e-23)
(1.0207684 0.00096365414 -3.9806539e-23)
(1.0203081 0.00038423947 5.0674471e-22)
(0.69642299 -0.12405539 -8.2604153e-22)
(0.74686243 -0.042277451 1.9051074e-20)
(0.75613295 0.19012655 -2.1962347e-20)
(0.74747248 0.27444724 1.9253082e-21)
(0.73432667 0.23807822 4.0386613e-22)
(0.72913252 0.084912003 -2.9386748e-22)
(0.76062635 -0.14873118 3.7571299e-20)
(0.85447653 -0.27452177 -9.3688813e-21)
(0.96933565 -0.26897759 0)
(1.0693529 -0.18439569 -1.2789985e-20)
(1.1376353 -0.022902869 0)
(1.1372987 0.17676844 0)
(1.0796051 0.27026447 -2.3342061e-20)
(1.0028933 0.25085387 9.130482e-22)
(0.92416 0.16177454 2.7638019e-21)
(0.87655197 0.053396751 1.6268624e-22)
(0.89981849 -0.011987143 0)
(0.94090361 -0.039957129 -3.3624673e-22)
(0.97592282 -0.051530348 3.2678605e-22)
(1.0050134 -0.050510876 8.7151552e-23)
(1.0256137 -0.041204931 -7.9267217e-22)
(1.0371573 -0.028356602 -2.1255079e-22)
(1.0410192 -0.016014088 -5.0712432e-24)
(1.0398621 -0.0066465069 -4.7181886e-22)
(1.0364723 -0.00087405348 -1.1706517e-22)
(1.0328393 0.0019536722 6.1388996e-23)
(1.0299124 0.0029338941 1.8470056e-22)
(1.0278783 0.0030196696 -1.9090998e-22)
(1.0265474 0.0028206266 -5.792186e-24)
(1.0256348 0.0026198119 -3.8401663e-22)
(1.024906 0.0025047882 -8.5704102e-24)
(1.0242043 0.0024356787 -2.4961318e-23)
(1.0234789 0.0023645816 1.3233783e-22)
(1.0227 0.0022067144 6.8921448e-22)
(1.0219362 0.0019401594 -2.4892606e-21)
(1.0211971 0.0015443097 -5.2338145e-22)
(1.0206109 0.00098873565 -4.8537388e-22)
(1.0201446 0.00039085356 0)
(0.68010418 -0.12603986 2.0205675e-20)
(0.72202512 -0.043773726 -3.0722204e-22)
(0.73380737 0.19281463 -1.5134295e-20)
(0.72982423 0.27993733 5.8986385e-22)
(0.71990228 0.24570951 7.1095228e-20)
(0.71509249 0.091386059 6.8240827e-20)
(0.74196924 -0.15074052 -3.5737786e-22)
(0.83094073 -0.28891514 -9.1527786e-20)
(0.94451875 -0.28770075 -7.9628749e-21)
(1.0457213 -0.19637633 -1.1940981e-19)
(1.1152058 -0.027209431 -9.2896952e-22)
(1.1155668 0.19021788 0)
(1.0595111 0.29521632 0)
(0.99119199 0.28052028 1.3880226e-20)
(0.92215599 0.19197732 -1.9208046e-20)
(0.86124275 0.066790082 -3.8062008e-21)
(0.87462503 -0.017610645 1.4597155e-21)
(0.92287388 -0.052398894 5.6682238e-23)
(0.96487996 -0.065757027 6.189962e-22)
(1.0000595 -0.065189577 -1.3957015e-21)
(1.026037 -0.054353979 -7.5890626e-23)