/*--------------------------------*- C++ -*----------------------------------*\
| =========                 |                                                 |
| \\      /  F ield         | OpenFOAM: The Open Source CFD Toolbox           |
|  \\    /   O peration     | Version:  5.0                                   |
|   \\  /    A nd           | Web:      www.OpenFOAM.org                      |
|    \\/     M anipulation  |                                                 |
\*---------------------------------------------------------------------------*/
FoamFile
{
    version     2.0;
    format      ascii;
    class       volVectorField;
    location    "380";
    object      U_0;
}
// * * * * * * * * * * * * * * * * * * * * * * * * * * * * * * * * * * * * * //

dimensions      [0 1 -1 0 0 0 0];

internalField   nonuniform List<vector> 
9200
(
(1.0388295 0.00074024624 -1.4944717e-24)
(1.0390084 0.0023598817 7.4050228e-22)
(1.0366009 0.00074237345 0)
(1.039288 0.0037564711 -3.908334e-22)
(1.0367563 0.0023856101 6.4443397e-22)
(1.0356178 0.00073410544 0)
(1.0396705 0.005149801 -3.931363e-23)
(1.0370223 0.0038011707 1.1436243e-23)
(1.035762 0.0023729225 0)
(1.0341663 0.00070951158 0)
(1.040105 0.0064256562 8.0431644e-22)
(1.037377 0.0052192257 5.9138976e-22)
(1.0360136 0.0037864962 3.6635202e-22)
(1.0342874 0.0023059152 2.2389031e-23)
(1.0330499 0.00067577426 2.1358261e-25)
(1.0405846 0.0076189797 7.7044933e-22)
(1.0378098 0.0065311662 -3.2252583e-23)
(1.0363498 0.005208124 1.2222169e-21)
(1.0345121 0.0036840187 5.005218e-22)
(1.0331551 0.0022013868 1.5550326e-23)
(1.0319422 0.00063702613 -9.4303715e-22)
(1.041081 0.0086913473 7.8175603e-22)
(1.0383293 0.007777663 8.8017851e-22)
(1.0367612 0.0065425433 -7.390518e-22)
(1.0347998 0.0050718853 -5.3656194e-23)
(1.0333603 0.003517335 4.5505029e-22)
(1.032032 0.0020735083 4.6122358e-22)
(1.0309699 0.00060265851 8.1533082e-23)
(1.0416027 0.0096080387 3.6250665e-22)
(1.0389461 0.0089379771 7.1749237e-22)
(1.0372619 0.0078419395 8.7942391e-22)
(1.0351414 0.006390828 4.5405817e-23)
(1.0336143 0.0048363984 -1.171256e-21)
(1.0322189 0.0033101988 -5.1987895e-22)
(1.0310526 0.001950673 -5.3157907e-22)
(1.0300735 0.00057664457 8.7536148e-22)
(1.0421475 0.010315895 -1.020575e-21)
(1.039703 0.0099805012 7.8651035e-22)
(1.0378608 0.0091121896 3.4713609e-23)
(1.0355361 0.0076985056 4.2614733e-22)
(1.0339031 0.0060891259 1.1044155e-22)
(1.0324433 0.0045355634 -1.7498808e-21)
(1.0312321 0.0031108487 1.5080848e-22)
(1.0301552 0.0018483532 -9.0235882e-22)
(1.0292503 0.00055865134 -1.8555388e-21)
(1.0426717 0.010777493 7.425591e-22)
(1.0406547 0.010907504 -3.7436417e-22)
(1.0385795 0.010361055 -4.0798379e-23)
(1.0359717 0.0090254093 -1.5815628e-22)
(1.0342115 0.00732327 -1.7934308e-22)
(1.0326887 0.005687479 1.9224231e-22)
(1.0314494 0.0042436182 6.1355996e-22)
(1.0303323 0.0029467762 1.0232904e-21)
(1.0293359 0.0017737932 5.803983e-22)
(1.0284809 0.00054465996 1.499658e-22)
(1.0432168 0.010995154 -3.6211052e-22)
(1.0419813 0.011639802 1.0326951e-22)
(1.0394745 0.011645711 6.2249299e-22)
(1.0364471 0.010419657 -7.160585e-22)
(1.0344899 0.0085705204 5.4290377e-22)
(1.0329244 0.0067901565 -1.6141123e-21)
(1.0316906 0.0052956738 6.3842145e-23)
(1.0305533 0.0040054996 1.5412537e-21)
(1.0295118 0.0028318527 -7.6567672e-22)
(1.0285709 0.0017221451 1.6852622e-21)
(1.0277574 0.0005312257 -2.5109371e-22)
(1.0441508 0.01055898 1.1587453e-22)
(1.0434568 0.012152125 -3.2174761e-22)
(1.0404253 0.013072069 -7.3179189e-22)
(1.0369579 0.011989794 0)
(1.0347028 0.0098803715 3.129345e-23)
(1.0330877 0.0078631794 -2.8333613e-22)
(1.0319282 0.0062673199 -3.1757933e-22)
(1.0308082 0.0049835506 -7.6420439e-22)
(1.0297395 0.0038465685 -2.1252392e-22)
(1.0287417 0.0027581761 -9.6989073e-22)
(1.0278479 0.0016826084 -6.565119e-22)
(1.0270753 0.00051715252 1.5204119e-22)
(1.0451237 0.0095693521 6.2585115e-23)
(1.0454005 0.012819359 -1.3270324e-22)
(1.0414277 0.014715674 0)
(1.0373851 0.013816051 0)
(1.0347133 0.011316301 -1.9793885e-22)
(1.033133 0.0089160112 -1.7511597e-22)
(1.032105 0.0071579633 -4.2092656e-22)
(1.0310834 0.0058671328 9.0849993e-22)
(1.0300096 0.0047916592 9.4518919e-23)
(1.0289687 0.003754366 2.5786113e-24)
(1.0280086 0.0027061387 1.0774021e-21)
(1.0271609 0.0016431045 -1.1490723e-21)
(1.0264349 0.00050195443 2.3890565e-21)
(1.0462183 0.007876034 -9.2680946e-22)
(1.048209 0.013438705 5.1022326e-23)
(1.0427732 0.016608073 -3.9186795e-22)
(1.0377089 0.015947022 1.826079e-22)
(1.0344739 0.012930836 -1.0166734e-22)
(1.032968 0.009965211 -1.3627451e-22)
(1.0321831 0.0079350472 2.5636273e-22)
(1.0313376 0.0066442624 1.5408823e-23)
(1.0303265 0.0056501284 1.0255118e-21)
(1.0292402 0.0046980635 9.5521987e-22)
(1.0282251 0.0036951285 2.9994731e-22)
(1.0273077 0.0026533974 8.6731567e-22)
(1.0265119 0.001593197 5.8730631e-22)
(1.025839 0.0004839317 -6.5208536e-22)
(1.0476837 0.0055617531 7.0602541e-22)
(1.0518693 0.013943192 1.9437321e-21)
(1.0445869 0.018896695 -3.064481e-22)
(1.0379677 0.018508145 4.6968297e-23)
(1.0339403 0.014791832 -5.8230425e-23)
(1.0324991 0.010984138 2.60768e-22)
(1.0320801 0.0085823813 2.4862977e-22)
(1.0315527 0.0072630408 -3.2591908e-22)
(1.0306666 0.0064101802 -9.8394692e-23)
(1.0295799 0.0055752151 -1.1500936e-22)
(1.0284838 0.00464983 -1.7916144e-23)
(1.0275041 0.0036320739 -1.466365e-22)
(1.026643 0.0025809462 -1.0972892e-21)
(1.0259067 0.0015254605 5.4982848e-22)
(1.025292 0.00046091245 -4.9391155e-22)
(1.0493464 0.0021121437 2.6670207e-21)
(1.0563955 0.014184352 -2.1403704e-21)
(1.0469291 0.021802155 3.5161834e-22)
(1.0381187 0.021734156 -2.188145e-22)
(1.0329229 0.017008782 -8.8198939e-24)
(1.0315735 0.011995732 -5.6324422e-22)
(1.0317411 0.0090102699 -3.9235508e-23)
(1.0316971 0.0076727814 3.541844e-23)
(1.0310367 0.0070143871 -1.9870461e-22)
(1.0299824 0.0063821443 -2.7467592e-22)
(1.0288186 0.0055613465 -1.9414402e-21)
(1.0277335 0.0045942618 3.8437519e-22)
(1.0268127 0.0035362041 3.4190092e-22)
(1.0260224 0.0024759746 1.7822577e-22)
(1.0253525 0.001436841 4.4471693e-23)
(1.0247986 0.00043254157 5.4654779e-22)
(1.0514338 -0.0017751846 0)
(1.0616765 0.014339984 -3.1082048e-21)
(1.0498001 0.025506119 7.8881723e-22)
(1.0381015 0.025842871 0)
(1.0312653 0.019712799 0)
(1.0300156 0.013023029 0)
(1.0310132 0.0091407818 1.198821e-22)
(1.0318354 0.0077735455 4.6226349e-22)
(1.0314801 0.0073966358 3.7713898e-22)
(1.0304909 0.0070717786 5.8312288e-22)
(1.0292379 0.0064437767 9.8347457e-23)
(1.0280281 0.0055376711 4.2498631e-22)
(1.0269991 0.0044889297 7.9496099e-24)
(1.0261648 0.0033887898 -3.9268589e-22)
(1.0254557 0.0023340997 -1.2257319e-22)
(1.024855 0.0013295557 -2.66457e-22)
(1.0243609 0.0004008834 0)
(1.0535444 -0.0065125992 4.0169424e-21)
(1.0674097 0.014136114 6.9690364e-21)
(1.0529928 0.030164295 -3.1177526e-21)
(1.0377625 0.031070823 6.5752667e-22)
(1.0288118 0.023060507 9.0096284e-22)
(1.0276286 0.014058072 0)
(1.0297879 0.0089010817 8.1175249e-22)
(1.0317916 0.0073679624 -2.6528918e-22)
(1.0321668 0.0074845834 3.6152606e-22)
(1.0312231 0.0075778782 4.4103992e-22)
(1.0298171 0.0072755654 -3.4750073e-22)
(1.0283973 0.0064992322 1.2908274e-22)
(1.0272248 0.0054426276 6.8656626e-22)
(1.0263004 0.0043045413 -1.304676e-21)
(1.0255747 0.0031832772 -3.8059224e-22)
(1.0249509 0.0021598239 -1.7918352e-21)
(1.024417 0.0012104497 -7.1519937e-22)
(1.0239781 0.00036882403 -6.7872974e-22)
(1.0563774 -0.012243671 -3.220417e-22)
(1.0743785 0.013834559 4.8014262e-21)
(1.0562029 0.036045052 1.1623332e-21)
(1.0367253 0.037643823 -2.7650271e-22)
(1.0253238 0.027211855 -1.8945193e-22)
(1.0241805 0.015122361 -6.7299586e-22)
(1.0278922 0.0081729435 -2.1501112e-21)
(1.0315374 0.0063664104 -1.1812714e-21)
(1.0329947 0.0070933394 -1.7488219e-22)
(1.0321862 0.0078605175 -6.2007474e-22)
(1.0306424 0.0080435515 -1.0118099e-22)
(1.0289144 0.007503071 -7.7186354e-22)
(1.0274799 0.0064514576 1.0166977e-22)
(1.0264445 0.0052282695 1.1873181e-22)
(1.0256666 0.0040331108 1.7937657e-22)
(1.0250551 0.0029272397 2.7121746e-22)
(1.0245119 0.0019648324 -5.8729142e-22)
(1.0240377 0.0010887589 2.1486096e-23)
(1.023646 0.00033873589 -6.3709194e-22)
(1.0593069 -0.020621425 -4.004882e-21)
(1.0848432 0.012879443 -9.0166624e-21)
(1.0606121 0.043086512 1.323083e-20)
(1.034839 0.045699646 -3.757354e-22)
(1.0204802 0.032292202 -2.2546463e-22)
(1.0193993 0.016220952 -3.2536768e-22)
(1.0251306 0.0068267045 2.8831443e-22)
(1.0310286 0.0045661272 -1.8766377e-24)
(1.0339612 0.0060803434 -8.1034035e-23)
(1.0335838 0.0079964233 2.2757267e-22)
(1.031681 0.0088065144 -9.8111637e-22)
(1.0295843 0.0086163464 2.7208972e-22)
(1.0278018 0.0075819476 4.272273e-22)
(1.0265551 0.0062211839 -3.887744e-23)
(1.0257336 0.0048780062 1.2884275e-22)
(1.0251187 0.0036862118 8.581365e-22)
(1.024613 0.0026396699 -1.553388e-22)
(1.0241383 0.0017645921 9.6738694e-22)
(1.023713 0.0009734249 2.5552164e-22)
(1.0233584 0.00031266865 6.6326066e-22)
(1.0642524 -0.028193764 -3.4510563e-22)
(1.0993892 0.011276043 -1.7924635e-20)
(1.0695295 0.051254043 9.1876498e-22)
(1.033605 0.055300725 -1.2314954e-21)
(1.0140614 0.038294869 -1.5011864e-21)
(1.0130305 0.017377165 -1.2232886e-21)
(1.0212784 0.0047066828 2.6343961e-21)
(1.0301844 0.0017449119 2.4516135e-21)
(1.0351719 0.0042415098 3.4207088e-22)
(1.0355313 0.007709694 0)
(1.0332026 0.0096011862 6.598773e-22)
(1.0304274 0.0099184462 3.0347808e-22)
(1.0281463 0.0089277014 -5.7384923e-22)
(1.026631 0.0073543215 4.3858065e-23)
(1.0257168 0.0057819168 -4.0776818e-22)
(1.0251336 0.0044131696 6.8336059e-22)
(1.0246687 0.0032911127 1.6534452e-22)
(1.0242491 0.0023445543 -2.7993524e-22)
(1.0238251 0.0015745443 5.6441922e-22)
(1.023436 0.00087138245 4.5828913e-23)
(1.0231077 0.00029277462 6.316389e-22)
(1.0606733 -0.037853975 2.2719558e-21)
(1.1065001 0.0054832597 -1.6857213e-20)
(1.0848176 0.060093939 -1.1319592e-20)
(1.0363871 0.066656403 5.7987589e-21)
(1.006754 0.045466537 -2.7853757e-21)
(1.0047824 0.018560882 -1.6903093e-22)
(1.0161241 0.0016527343 0)
(1.0289182 -0.0023373453 1.5148212e-22)
(1.0367042 0.00133539 -1.170941e-22)
(1.0381672 0.0068670848 6.8551015e-22)
(1.0354322 0.010400612 3.6227253e-22)
(1.0316772 0.011446087 5.9663286e-23)
(1.0285689 0.010564426 -7.2520043e-23)
(1.0266187 0.0087115559 3.4291669e-22)
(1.0255804 0.0067891343 -1.9734579e-22)
(1.0250289 0.0051652046 2.0855213e-22)
(1.0246659 0.0038786706 -8.6317789e-23)
(1.0243178 0.0028826721 5.1735645e-22)
(1.0239576 0.0020648145 1.3059467e-22)
(1.0235646 0.0014071903 1.8938953e-23)
(1.023198 0.00078736016 3.3383342e-22)
(1.022886 0.00028095374 0)
(1.0520642 -0.047555687 3.4517454e-22)
(1.1072568 0.00040443274 1.0952865e-20)
(1.1015433 0.069524048 -4.2509034e-22)
(1.0441748 0.080032364 8.0117378e-21)
(1.0003627 0.054457508 -3.6277602e-21)
(0.99439484 0.019809893 1.807427e-21)
(1.0094586 -0.0024867197 -9.9711657e-23)
(1.0271077 -0.0079315401 1.6818139e-21)
(1.0386327 -0.002909253 1.0676015e-22)
(1.0416991 0.0052851117 -5.7082889e-23)
(1.0385833 0.011177118 -1.7236396e-24)
(1.0334942 0.013357617 -1.743736e-22)
(1.0291545 0.012626713 -9.6446463e-23)
(1.0265129 0.010391114 1.2082391e-21)
(1.025253 0.0079727482 8.3902285e-22)
(1.0247516 0.0059616866 5.7478297e-22)
(1.0245249 0.0044437969 -1.4024971e-22)
(1.0243319 0.0033270739 -8.0736724e-22)
(1.0240579 0.0024949137 -2.0839495e-23)
(1.0237286 0.0018182754 3.0089726e-22)
(1.023347 0.0012705585 0)
(1.0229909 0.00072422948 -7.4703443e-22)
(1.0226853 0.00027789298 -3.1376668e-24)
(1.0379492 -0.057113913 -6.2651712e-21)
(1.1040168 -0.0063923214 3.9678076e-20)
(1.1053638 0.078573322 -2.8327307e-20)
(1.0525087 0.097612535 -7.7572351e-21)
(0.99477109 0.066400354 -3.554894e-21)
(0.98171365 0.021385044 0)
(1.0009641 -0.0078582648 -7.3908928e-23)
(1.0246427 -0.015309102 1.111237e-21)
(1.040956 -0.0087896489 -3.9085208e-22)
(1.0463709 0.0027602325 -1.3303037e-21)
(1.042935 0.011887445 7.0224769e-22)
(1.0360859 0.015789118 3.116506e-22)
(1.0299742 0.015328474 -2.4411083e-22)
(1.0262712 0.012551455 6.1501047e-22)
(1.0246616 0.0094232391 -6.7823271e-22)
(1.0242069 0.0068471219 -1.3486874e-21)
(1.0241917 0.0049839207 -2.9043524e-22)
(1.0242096 0.0037006021 -2.8255944e-22)
(1.0241179 0.002808103 7.5627372e-22)
(1.0238741 0.0021559279 -1.9088588e-22)
(1.0235487 0.0016162539 -6.258277e-22)
(1.0231627 0.0011681265 6.7503208e-22)
(1.0228071 0.00068273933 -5.1626553e-22)
(1.022498 0.00028178407 -1.788092e-24)
(1.018336 -0.065712305 2.2885674e-21)
(1.0953337 -0.0098568947 3.9143195e-20)
(1.0942276 0.087056809 1.8793727e-21)
(1.0503994 0.11750198 3.6882896e-20)
(0.98660445 0.082518761 1.2344681e-21)
(0.96658149 0.024272101 -9.1650393e-21)
(0.99011433 -0.014649205 -1.2867405e-22)
(1.0213811 -0.024696301 -2.590895e-21)
(1.0436927 -0.016617259 6.3654847e-22)
(1.0523696 -0.00098026476 -7.7755952e-22)
(1.0488194 0.012487298 5.8733263e-22)
(1.0396951 0.018915799 -4.7282469e-22)
(1.0311212 0.018918494 5.46968e-22)
(1.0258616 0.01540048 -6.4754238e-23)
(1.0236967 0.011256043 -1.0379623e-21)
(1.0232923 0.0078737986 -1.7717119e-23)
(1.0235643 0.0055060212 -5.9960502e-23)
(1.0239066 0.0039780496 -4.0678629e-22)
(1.0240616 0.0030093626 0)
(1.0240001 0.0023613096 -9.275041e-23)
(1.023747 0.0018848568 -2.6225112e-23)
(1.0234045 0.0014644316 5.261863e-23)
(1.0230033 0.0010998877 -2.8074884e-23)
(1.02264 0.00066103389 7.38078e-22)
(1.0223189 0.00028802609 4.1922056e-22)
(0.9966609 -0.073306371 8.1917782e-21)
(1.0803242 -0.013368824 -2.4339016e-20)
(1.0737736 0.09745259 -1.0431693e-20)
(1.0337822 0.13649727 -4.1225378e-21)
(0.97528584 0.10079632 7.2425866e-21)
(0.94919946 0.028661136 2.1043409e-21)
(0.97665852 -0.022887159 -2.1403606e-22)
(1.0171293 -0.036350154 2.1993181e-22)
(1.046824 -0.026688738 -1.2019636e-21)
(1.0599243 -0.0062167763 -6.7808755e-22)
(1.0565907 0.012929122 -1.2805465e-21)
(1.0445969 0.022941128 6.8070693e-23)
(1.032663 0.023710295 -7.4417281e-23)
(1.0252178 0.019198098 -3.264977e-22)
(1.0222301 0.01362661 -3.3967502e-22)
(1.0218638 0.0090967166 1.4092189e-21)
(1.0225342 0.0060154657 2.1621539e-21)
(1.0233298 0.0041338326 5.3084359e-22)
(1.0238613 0.0030550719 7.1577909e-22)
(1.0240428 0.0024263123 2.2518506e-23)
(1.0239507 0.0020114601 -8.0677825e-22)
(1.0236577 0.0016892516 -1.7097484e-22)
(1.023284 0.0013643158 5.3342039e-22)
(1.0228597 0.0010633507 -6.3596088e-22)
(1.0224833 0.00065532534 5.5483364e-22)
(1.0221459 0.00029192913 -3.0458342e-23)
(0.97388763 -0.080112951 -2.8000808e-22)
(1.0601655 -0.016570243 -2.7090518e-20)
(1.0538906 0.1079744 3.6770226e-20)
(1.0143149 0.15295495 -2.6600537e-20)
(0.96317543 0.11930843 5.8708841e-21)
(0.93164318 0.033394951 1.2291332e-20)
(0.96105949 -0.032704345 3.0725492e-21)
(1.0116537 -0.050584845 3.4361252e-21)
(1.0503185 -0.039272479 3.535022e-21)
(1.0691364 -0.013259343 2.6507106e-21)
(1.0666233 0.013122337 4.1137925e-23)
(1.0510945 0.02813659 2.7405714e-21)
(1.0346542 0.0300741 -1.3371577e-21)
(1.0242347 0.024246109 -4.3049051e-22)
(1.0200862 0.016712358 -2.958332e-22)
(1.0197416 0.010587598 2.9429534e-22)
(1.0209519 0.0065054756 -5.8533303e-23)
(1.0223831 0.0041303579 6.826791e-23)
(1.0234427 0.00289547 1.4183494e-22)
(1.0239937 0.0022977562 8.0057172e-23)
(1.0241085 0.0019839151 0)
(1.0239419 0.0017676036 -2.8033684e-22)
(1.0235896 0.001564438 -4.7229631e-23)
(1.0231766 0.001313291 0)
(1.0227238 0.0010538663 7.8064826e-22)
(1.0223323 0.00066171448 4.8416931e-24)
(1.0219766 0.00029289466 -4.0693286e-22)
(0.94999947 -0.086181774 -2.7886191e-21)
(1.0371316 -0.019117668 -2.3207833e-21)
(1.0298879 0.11851623 2.9254534e-20)
(0.99362614 0.16833309 -4.1834103e-21)
(0.94883644 0.13538968 -8.2972365e-22)
(0.91490763 0.040223651 -1.3101293e-20)
(0.94370752 -0.043915619 -2.5418683e-22)
(1.0047472 -0.06749263 -1.7487794e-21)
(1.0537879 -0.054422123 -1.9278853e-21)
(1.0797442 -0.022290783 -5.484938e-21)
(1.0790402 0.012980827 5.8112577e-21)
(1.0594485 0.03477564 5.0992517e-22)
(1.0371485 0.038433262 2.9643161e-22)
(1.0227895 0.030885473 -4.7284263e-22)
(1.0170651 0.020718715 -8.0987806e-22)
(1.0167079 0.012416913 -2.9177549e-22)
(1.0186356 0.0069673678 -1.5026004e-21)
(1.0209365 0.0039060496 -1.0069392e-21)
(1.0227373 0.0024614754 -4.0178658e-22)
(1.0238035 0.0019110574 -7.6491157e-22)
(1.0242323 0.0017486681 -2.7276173e-22)
(1.0242163 0.0016905417 1.1136925e-22)
(1.0239513 0.0016248559 2.6617563e-23)
(1.0235278 0.001499312 0)
(1.0230744 0.0013037393 0)
(1.0225922 0.0010658247 -5.7066476e-23)
(1.022183 0.00067778711 7.0712004e-22)
(1.0218099 0.00029462472 7.7893774e-22)
(0.92551757 -0.091561485 0)
(1.012637 -0.020975174 -1.5722484e-20)
(1.0040749 0.12876138 -2.6553265e-20)
(0.96876519 0.18300255 -1.063484e-20)
(0.92755742 0.15059557 -7.8050152e-21)
(0.89715175 0.047074704 9.2429918e-22)
(0.92482758 -0.055408117 -1.8720653e-21)
(0.99575903 -0.086478354 -1.0723565e-21)
(1.0563128 -0.071910726 -4.5325916e-21)
(1.0908376 -0.03306621 7.6586795e-22)
(1.0930818 0.012612866 -6.578297e-22)
(1.0694315 0.043256206 -1.3152758e-21)
(1.0400953 0.049272408 2.2304749e-21)
(1.0206815 0.03948771 -1.0879455e-21)
(1.0129051 0.025855645 -3.4219041e-22)
(1.0125106 0.014663345 -9.9248981e-22)
(1.0153687 0.0073711794 -1.6193815e-22)
(1.0188373 0.0033871163 -3.5083995e-22)
(1.0216517 0.001651168 8.618987e-24)
(1.0234396 0.0011798915 -4.3571984e-22)
(1.0242995 0.0012372204 -1.7615219e-22)
(1.0245108 0.0014132494 -1.3667237e-22)
(1.0243317 0.0015359522 2.8787387e-23)
(1.0239604 0.0015671678 5.9023149e-22)
(1.0234647 0.0014844687 2.0020031e-22)
(1.0229769 0.0013253526 -1.4394279e-23)
(1.0224617 0.0010951728 -7.333049e-22)
(1.0220316 0.00070243691 4.637137e-22)
(1.0216442 0.00030070782 -1.1639473e-21)
(0.90113653 -0.096317366 4.2305105e-21)
(0.98731964 -0.022967966 0)
(0.97743062 0.13863536 0)
(0.94268614 0.1965743 0)
(0.90400179 0.16436473 3.5664038e-21)
(0.87762407 0.05548766 0)
(0.90553265 -0.067301086 -8.2829227e-22)
(0.98452373 -0.10731626 -2.6495293e-21)
(1.0572559 -0.091554678 -1.3113595e-20)
(1.1016125 -0.045515143 2.6268738e-20)
(1.1075946 0.012443301 -7.5533739e-21)
(1.0795609 0.054225334 1.9950108e-21)
(1.0427595 0.063165765 -6.4291992e-22)
(1.0175908 0.050465929 1.9259983e-21)
(1.0072631 0.032340815 1.8050548e-21)
(1.0068539 0.017389782 -2.5682144e-22)
(1.010905 0.0076810443 -1.1818663e-21)
(1.0159047 0.0024659442 2.6176914e-22)
(1.0200814 0.00034363182 7.8039228e-22)
(1.0228555 -1.954936e-05 4.8277337e-22)
(1.0243158 0.0003611858 1.5564295e-22)
(1.0248277 0.00087339275 -1.6691251e-22)
(1.0247766 0.0012706717 -2.1874781e-22)
(1.0244324 0.0014964973 1.4607824e-22)
(1.0239547 0.0015651683 1.9940848e-23)
(1.0234073 0.001510766 1.3475932e-22)
(1.0228804 0.0013710602 -5.4028325e-22)
(1.0223287 0.001138803 -2.8973969e-24)
(1.021877 0.00073386421 -1.7917085e-21)
(1.0214778 0.00031128197 -6.9986631e-22)
(0.87495456 -0.10120034 -4.2511787e-21)
(0.96174865 -0.024734184 -5.9324963e-21)
(0.95061419 0.14789081 0)
(0.91632279 0.20915516 0)
(0.87967737 0.17653961 0)
(0.85832664 0.063384635 0)
(0.88704421 -0.078636856 0)
(0.97145024 -0.12967482 7.4414947e-22)
(1.0565851 -0.11372295 3.3349085e-21)
(1.1122931 -0.060444567 -3.9079991e-20)
(1.1235587 0.012089626 1.5666627e-22)
(1.0894357 0.068239037 -8.3939195e-21)
(1.0433542 0.080597616 7.6019101e-21)
(1.01268 0.06424037 1.401168e-21)
(0.99971175 0.040384676 -2.4746041e-22)
(0.99938455 0.020641172 4.4251839e-22)
(1.004977 0.0078385286 -1.7986114e-22)
(1.0119372 0.0010216579 5.8161592e-22)
(1.0179023 -0.0016203942 -5.9083471e-22)
(1.0220053 -0.0018340903 -1.9595829e-22)
(1.0242854 -0.0010061755 -1.4518785e-23)
(1.0252084 -4.5118537e-06 -3.590549e-22)
(1.0253078 0.0007810226 -2.4028451e-23)
(1.0249957 0.0012834148 7.2170291e-23)
(1.0244998 0.0015387424 -1.1357515e-22)
(1.0239322 0.0016046819 -4.0042979e-22)
(1.0233444 0.0015772339 -1.466667e-22)
(1.0227727 0.0014382945 2.353389e-22)
(1.0221908 0.0011913582 6.2586788e-25)
(1.0217198 0.00076920172 1.2910092e-21)
(1.0213099 0.00032410409 4.544116e-22)
(0.84702136 -0.10603078 5.2904169e-21)
(0.93411509 -0.028160874 -7.2073875e-22)
(0.92444894 0.15606048 -2.0184492e-20)
(0.89047689 0.22068812 -2.3875532e-20)
(0.85557764 0.18745684 0)
(0.83876861 0.068499817 0)
(0.86919676 -0.089369482 -7.5260317e-22)
(0.95681838 -0.15251974 -3.7077778e-21)
(1.0531038 -0.13784269 1.9421213e-20)
(1.1236024 -0.078522487 -4.6271185e-20)
(1.1438504 0.0098450818 -3.9269022e-22)
(1.1042873 0.084537936 1.580095e-20)
(1.0435758 0.10186288 -3.9822863e-22)
(1.0045589 0.080832835 -3.0628152e-23)
(0.98962981 0.050151534 -1.4121681e-21)
(0.98970772 0.02441449 -1.1387047e-22)
(0.99729363 0.0077589787 2.8501847e-21)
(1.0067205 -0.0010916516 -8.2040784e-23)
(1.0149793 -0.0044192576 -1.5665046e-21)
(1.0208327 -0.004452352 -8.7092931e-23)
(1.0242223 -0.003016629 -8.0464814e-22)
(1.0257023 -0.0013334192 1.0436317e-22)
(1.0259945 1.6499117e-05 3.0521116e-23)
(1.0256877 0.00089926041 -2.5526982e-22)
(1.0251483 0.0014034581 -1.1508757e-22)
(1.0245235 0.0016285117 -1.1924113e-22)
(1.0238968 0.001698616 -1.0376583e-22)
(1.0232631 0.0016787186 -1.1527575e-22)
(1.0226557 0.0015151493 3.1996219e-22)
(1.0220509 0.0012466025 -2.5089666e-23)
(1.021561 0.00080569786 6.2527891e-22)
(1.0211407 0.0003370242 4.8119928e-23)
(0.81895596 -0.11054676 -3.7883366e-21)
(0.90406057 -0.032358194 9.9794624e-23)
(0.89759698 0.16338367 2.2463766e-20)
(0.86575606 0.23123362 3.7724984e-20)
(0.83267771 0.19694345 0)
(0.81894258 0.07211262 0)
(0.85125247 -0.10036386 0)
(0.94091068 -0.17509323 -3.9953616e-22)
(1.0455538 -0.16255772 -4.2498549e-20)
(1.1282746 -0.098346254 -5.3911878e-20)
(1.1651861 0.0041762392 -3.7074295e-22)
(1.1293564 0.10037059 4.2056756e-21)
(1.0519911 0.12601333 -2.3616086e-20)
(0.99519703 0.10029605 6.5338813e-21)
(0.97611088 0.061442017 -1.2567187e-21)
(0.97741009 0.028643167 0)
(0.9875574 0.0073166213 8.1546519e-22)
(1.0000378 -0.0040383525 -7.5748331e-22)
(1.0111632 -0.0082578276 -5.309218e-22)
(1.0192801 -0.0080865773 2.1484337e-22)
(1.0241442 -0.0058640402 1.3956634e-22)
(1.026381 -0.0032476284 3.5552358e-22)
(1.0269202 -0.001106817 1.6779846e-22)
(1.0265933 0.0003274409 9.1068127e-23)
(1.0259409 0.0011569099 8.4949683e-23)
(1.0252239 0.0015820578 -5.6880466e-23)
(1.0245143 0.0017589865 2.1110723e-23)
(1.0238483 0.0018262077 -4.913153e-24)
(1.0231765 0.0017709718 2.9974583e-22)
(1.0225425 0.0015890075 2.3897417e-22)
(1.0219103 0.0013022834 1.3335263e-23)
(1.0214011 0.00084156016 -1.7589992e-21)
(1.020971 0.00034893173 6.8084877e-22)
(0.79104561 -0.11460468 -6.9006486e-21)
(0.87230308 -0.037586763 0)
(0.86926721 0.16929906 2.1775421e-20)
(0.84124043 0.24135042 6.0693238e-20)
(0.81147518 0.20527433 -1.786922e-20)
(0.79983886 0.074587505 -4.5944585e-22)
(0.83312596 -0.1109776 -2.7132939e-20)
(0.92414834 -0.19704106 1.2689678e-20)
(1.0341792 -0.18697955 1.1674369e-20)
(1.1259638 -0.11821966 1.2546976e-19)
(1.1723144 -0.0045847241 -5.4609908e-20)
(1.1589418 0.1153142 -4.749151e-20)
(1.0722259 0.15154911 1.6011798e-21)
(0.99283668 0.12301688 2.0748486e-21)
(0.95955263 0.073954471 -1.1035928e-21)
(0.96201515 0.033118878 5.3408437e-22)
(0.97549661 0.0063266651 3.9248289e-22)
(0.99168368 -0.0079972849 7.7600271e-23)
(1.0063087 -0.013351451 -1.8547316e-22)
(1.0172762 -0.012976837 3.4746659e-23)
(1.024076 -0.0097698278 4.8310988e-22)
(1.0273344 -0.0059213431 1.4021148e-23)
(1.028206 -0.0026859921 -1.8332757e-22)
(1.0278185 -0.00047643126 3.9268258e-22)
(1.0269677 0.00081874522 5.8219997e-23)
(1.0260608 0.0014841724 -4.5824896e-24)
(1.0252313 0.0017907943 -2.1741081e-24)
(1.0244794 0.0019206472 3.4335224e-23)
(1.0237838 0.0019531003 8.6495654e-23)
(1.0230859 0.0018620834 -3.2753684e-23)
(1.0224231 0.0016678201 1.6151312e-22)
(1.0217666 0.0013579147 1.4812218e-23)
(1.0212401 0.00087584363 7.1476087e-22)
(1.0208013 0.00035956352 -1.2763326e-21)
(0.76414907 -0.11808828 6.3602391e-21)
(0.8389272 -0.042345963 -3.9945943e-22)
(0.83969974 0.17255572 -1.4800405e-21)
(0.81702781 0.25100633 -3.1313441e-20)
(0.79085518 0.2140333 7.295476e-20)
(0.78152125 0.075830948 8.5038203e-20)
(0.81481707 -0.12048943 4.7278494e-21)
(0.90674499 -0.2179815 0)
(1.0196723 -0.21052857 3.4568605e-20)
(1.1184063 -0.13753948 1.7153568e-19)
(1.1715189 -0.01419767 8.5072889e-21)
(1.1762512 0.12832571 2.3798192e-20)
(1.0967216 0.18035825 0)
(1.0012057 0.15015655 3.184705e-21)
(0.94425357 0.089147677 1.1952422e-21)
(0.94309308 0.037292242 -8.3400817e-22)
(0.96091117 0.0046271331 -3.1721342e-21)
(0.98148249 -0.013161175 0)
(1.0002763 -0.019910262 6.9313243e-22)
(1.0147489 -0.019373353 8.4111409e-22)
(1.0240357 -0.014988324 -2.1236355e-22)
(1.0286699 -0.0095580954 4.5509905e-22)
(1.0300016 -0.0048520998 0)
(1.0295158 -0.0015580318 5.2889329e-24)
(1.0283432 0.0003888846 2.3618884e-22)
(1.0271173 0.0013847516 -1.9838198e-23)
(1.0260622 0.0018286407 1.6682796e-23)
(1.0251881 0.0020140871 3.1244899e-23)
(1.0244231 0.0020812953 -2.4150225e-24)
(1.0237096 0.0020670415 2.5476444e-22)
(1.0229893 0.0019601221 -6.3590938e-22)
(1.022299 0.0017452478 -4.1563381e-22)
(1.0216214 0.0014107196 0)
(1.0210793 0.00090784387 -2.7977083e-23)
(1.0206321 0.00036902791 -3.8114788e-22)
(0.73899722 -0.12117935 9.3230299e-21)
(0.80601542 -0.045215196 -8.5764695e-21)
(0.81037275 0.17523563 1.5045537e-20)
(0.79284527 0.25985266 -6.9540826e-21)
(0.7711193 0.2249095 2.5692741e-20)
(0.76342684 0.079239269 1.0242415e-20)
(0.79828605 -0.13209475 4.8023641e-20)
(0.88864808 -0.23752034 3.2187642e-21)
(1.002774 -0.23251226 0)
(1.1046639 -0.15637525 -6.1445689e-20)
(1.1657848 -0.022499558 6.9007332e-20)
(1.174279 0.14002334 -6.5554534e-21)
(1.1105931 0.21130103 2.2871273e-20)
(1.0106743 0.18331763 -1.0605959e-20)
(0.93504257 0.10924319 3.4030042e-21)
(0.92079862 0.041915439 6.7045765e-22)
(0.94355908 0.0017620772 -5.919129e-21)
(0.96933465 -0.019677615 -2.0431986e-21)
(0.99294765 -0.028120536 1.3216201e-21)
(1.0116185 -0.027518007 -1.5982185e-21)
(1.0240344 -0.021788872 6.7974848e-22)
(1.0304999 -0.014399559 -6.6274052e-22)
(1.0324891 -0.0077616975 0)
(1.0318756 -0.0029856452 4.9985682e-24)
(1.0302301 -0.00011999186 5.8710886e-23)
(1.0285013 0.001325682 8.0903922e-23)
(1.0270729 0.0019369412 -1.2090209e-22)
(1.0259762 0.0021486374 -4.5685319e-23)
(1.0251128 0.0022170228 5.3635163e-23)
(1.0243542 0.0022180774 0)
(1.0236324 0.0021757704 -1.8887199e-22)
(1.0228906 0.0020512167 -6.8846803e-22)
(1.0221764 0.0018152745 1.1733763e-21)
(1.0214773 0.0014594244 -4.0837922e-22)
(1.0209188 0.00093766249 5.3617108e-23)
(1.0204645 0.00037747182 1.3629597e-21)
(0.71617822 -0.12383892 -9.3515854e-21)
(0.7752888 -0.047901719 -3.7032563e-22)
(0.78291547 0.17926649 -6.2403925e-21)
(0.77010704 0.26771257 -5.8780542e-22)
(0.75250825 0.23411055 -1.0606201e-19)
(0.74569259 0.088156765 -1.1500195e-19)
(0.77857389 -0.13751533 -6.1358613e-22)
(0.87154927 -0.25627747 4.1276626e-20)
(0.9842133 -0.2531921 5.5190093e-21)
(1.086774 -0.17390019 5.6830236e-20)
(1.1543993 -0.028621759 -3.0873645e-22)
(1.1595974 0.15264987 -3.5137961e-20)
(1.1039104 0.24012379 6.6086381e-22)
(1.0128855 0.21904223 -1.7078626e-20)
(0.93035387 0.1363198 5.2116847e-21)
(0.89775176 0.047690019 -1.0177005e-21)
(0.92301888 -0.0021526425 1.8012424e-21)
(0.95516916 -0.027798566 1.8024423e-21)
(0.98423578 -0.038156145 -1.3920239e-21)
(1.0078025 -0.037629425 -2.9771894e-22)
(1.0240653 -0.0304482 4.3468997e-22)
(1.0329331 -0.020713336 -4.812932e-22)
(1.0358719 -0.011609898 3.5504165e-22)
(1.0351339 -0.0048423313 0)
(1.032833 -0.00070157693 -4.4293092e-22)
(1.030363 0.0013788617 5.1054008e-23)
(1.0283471 0.0021967718 -2.1895919e-22)
(1.0268857 0.0024093017 2.8858016e-22)
(1.025838 0.0024083114 -8.1802043e-24)
(1.0250218 0.0023757869 -8.1818067e-23)
(1.024282 0.0023347951 -5.1555673e-24)
(1.0235549 0.0022770916 -2.1132986e-22)
(1.0227931 0.0021325732 4.3335983e-24)
(1.0220537 0.0018812275 1.1973112e-21)
(1.0213323 0.0015052809 -1.5404984e-23)
(1.0207593 0.00096539968 -3.8818937e-23)
(1.0202983 0.00038505334 4.9410913e-22)
(0.69631478 -0.12611553 -8.2552613e-22)
(0.74708035 -0.050176057 1.7312628e-20)
(0.75796084 0.18292403 -2.3752475e-20)
(0.74932795 0.27449753 1.1166849e-21)
(0.73565204 0.24256015 4.9179113e-22)
(0.72958005 0.095061365 -3.8662229e-22)
(0.75823151 -0.1382582 4.4728421e-20)
(0.8499554 -0.27208201 -8.9025961e-21)
(0.96498372 -0.27114178 0)
(1.0661955 -0.19089988 -1.2685312e-20)
(1.1372842 -0.034045844 0)
(1.141236 0.16591483 0)
(1.0859251 0.26738088 -2.2975196e-20)
(1.0084242 0.25288225 9.5530812e-22)
(0.9293488 0.16688295 3.1724127e-21)
(0.87824516 0.058798327 2.102482e-22)
(0.89862938 -0.008477102 0)
(0.93926985 -0.037610782 -1.0291117e-22)
(0.97409086 -0.050102303 4.3110976e-22)
(1.0032284 -0.049893375 1.2329568e-22)
(1.0241029 -0.041231484 -8.3457359e-22)
(1.036062 -0.028797902 -1.7165213e-22)
(1.0403637 -0.016627713 -2.1647037e-25)
(1.0395665 -0.0072414131 -4.7171255e-22)
(1.0364101 -0.0013474262 -1.1658075e-22)
(1.0328939 0.0016255438 6.2835557e-23)
(1.0300041 0.0027293958 1.8581647e-22)
(1.0279653 0.0029031498 -1.9505477e-22)
(1.0266136 0.0027597928 -5.9701454e-24)
(1.025678 0.0025912209 -4.0159969e-22)
(1.02493 0.0024932474 -5.9344968e-24)
(1.0242145 0.002432537 -2.2167348e-23)
(1.0234801 0.002365499 1.1061366e-22)
(1.0226959 0.0022093011 6.5225619e-22)
(1.0219292 0.0019436815 -2.3900494e-21)
(1.0211883 0.0015475447 -5.0566857e-22)
(1.0206013 0.00099121162 -4.7193269e-22)
(1.0201343 0.00039186839 0)
(0.6800724 -0.12809989 1.9670877e-20)
(0.72223687 -0.051832211 -3.0579515e-22)
(0.73514165 0.18521573 -1.5520595e-20)
(0.7313297 0.28003084 -3.0976394e-22)
(0.72103032 0.25027444 6.0639724e-20)
(0.71549515 0.10181465 6.8360031e-20)
(0.73989275 -0.13952528 -2.0580351e-22)
(0.82660778 -0.28605992 -8.9163821e-20)
(0.94034304 -0.28986898 -7.8351145e-21)
(1.0428058 -0.20337168 -1.1833696e-19)
(1.1150155 -0.039266709 -1.2890248e-21)
(1.1198877 0.17830052 0)
(1.0657318 0.29223354 0)
(0.99659956 0.28267868 1.4202952e-20)
(0.92720077 0.19759496 -2.0678737e-20)
(0.86341759 0.073592373 -3.1573039e-21)
(0.87334641 -0.0131975 1.5069478e-21)
(0.92079982 -0.049714568 -3.5461821e-23)
(0.96266245 -0.064040323 7.3751288e-22)
(0.99784743 -0.064407711 -1.3767917e-21)
(1.0241103 -0.054362299 -7.1614542e-23)