/*--------------------------------*- C++ -*----------------------------------*\
| =========                 |                                                 |
| \\      /  F ield         | OpenFOAM: The Open Source CFD Toolbox           |
|  \\    /   O peration     | Version:  5.0                                   |
|   \\  /    A nd           | Web:      www.OpenFOAM.org                      |
|    \\/     M anipulation  |                                                 |
\*---------------------------------------------------------------------------*/
FoamFile
{
    version     2.0;
    format      ascii;
    class       volVectorField;
    location    "380";
    object      UMean;
}
// * * * * * * * * * * * * * * * * * * * * * * * * * * * * * * * * * * * * * //

dimensions      [0 1 -1 0 0 0 0];

internalField   nonuniform List<vector> 
9200
(
(1.0325974 0.00046552429 -2.2833777e-24)
(1.0327964 0.0014911697 4.5262054e-22)
(1.0312502 0.0004477268 0)
(1.0331077 0.0024222773 -2.4360133e-22)
(1.0314061 0.0014445181 3.898957e-22)
(1.0306529 0.00043577328 0)
(1.0335167 0.0033490235 -2.3664032e-23)
(1.0316724 0.0023460084 -7.1851025e-24)
(1.0307993 0.0014005637 0)
(1.0298216 0.00040902655 0)
(1.033993 0.0042820074 5.2694762e-22)
(1.0320025 0.0032307602 4.2894107e-22)
(1.0310431 0.0022762389 2.243605e-22)
(1.0299451 0.0013161583 1.2894165e-23)
(1.0291702 0.00038675339 2.9572747e-25)
(1.0345125 0.005199568 4.974989e-22)
(1.0323861 0.0041219074 1.8760434e-24)
(1.0313453 0.0031273218 7.6745853e-22)
(1.0301615 0.0021455208 3.2663877e-22)
(1.0292846 0.0012354513 2.4439216e-23)
(1.0285627 0.00035847368 -4.8516253e-22)
(1.035037 0.0061426482 6.089942e-22)
(1.0327999 0.0049809819 5.407312e-22)
(1.031693 0.0039851978 -4.5570813e-22)
(1.0304263 0.0029380044 -3.8364737e-23)
(1.0294809 0.0020185332 2.5016619e-22)
(1.0286649 0.0011348421 2.5796442e-22)
(1.0280165 0.00033093993 5.1795519e-23)
(1.0355422 0.0070848163 4.4355995e-22)
(1.0332189 0.005853634 4.9773627e-22)
(1.0320669 0.0048027588 5.8109247e-22)
(1.0307302 0.0037448184 6.8577191e-23)
(1.0297185 0.0027542964 -7.0155238e-22)
(1.0288422 0.0018629811 -3.1053733e-22)
(1.0281111 0.0010328507 -2.3068476e-22)
(1.0275569 0.00030140781 3.8596514e-22)
(1.0360073 0.0080446347 -8.4620797e-22)
(1.0336333 0.0067049506 4.2628737e-22)
(1.0324359 0.0056268308 6.5644446e-23)
(1.0310584 0.0045071963 2.5132238e-22)
(1.0299881 0.0035092985 1.536366e-22)
(1.029056 0.0025326642 -9.7732961e-22)
(1.0282729 0.0017045696 -7.3852374e-23)
(1.0276455 0.00092143732 -3.68864e-22)
(1.0271437 0.00027264022 -7.6260168e-22)
(1.0363872 0.0090044705 7.4802046e-22)
(1.0340162 0.0075562517 -3.544937e-23)
(1.0327817 0.0064192546 -4.026699e-23)
(1.0313842 0.0052799162 -2.3160335e-22)
(1.0302797 0.0042147582 -1.2038762e-22)
(1.0292955 0.0032290811 2.6004278e-22)
(1.0284668 0.0023072101 3.3336646e-22)
(1.0277949 0.0015318296 4.924403e-22)
(1.027228 0.00081072852 2.88928e-22)
(1.0268104 0.00024368443 7.2566131e-23)
(1.0366185 0.0099519232 -3.3413749e-22)
(1.0343459 0.0083792012 2.4733638e-22)
(1.033089 0.0072015921 3.2025372e-22)
(1.0316997 0.0060235277 -4.5582807e-22)
(1.0305671 0.0049285969 1.7352911e-22)
(1.0295537 0.0038724529 -8.0607404e-22)
(1.0286813 0.0029434809 8.7271541e-23)
(1.0279734 0.0020617358 6.4755875e-22)
(1.027367 0.0013599964 -2.93857e-22)
(1.0268933 0.00069659695 6.8487508e-22)
(1.0265198 0.00021616123 -6.9976486e-23)
(1.0367603 0.010877189 6.2429324e-24)
(1.0345295 0.0091672318 -4.7978909e-22)
(1.0333352 0.0079594083 -4.9325615e-22)
(1.0319971 0.0067544027 0)
(1.0308455 0.0056092011 2.4988927e-23)
(1.0298064 0.0045274031 -3.0033288e-22)
(1.0289133 0.0035244515 -1.4826919e-22)
(1.0281662 0.0026324888 -3.227055e-22)
(1.027533 0.0018178524 -2.9848281e-22)
(1.0270255 0.0011823774 -3.5891371e-22)
(1.0266028 0.00058605635 -2.164918e-22)
(1.026296 0.00018966637 5.4880487e-23)
(1.0367698 0.011776463 1.9463384e-23)
(1.0346269 0.0099463799 6.2705829e-23)
(1.0334941 0.0086955171 0)
(1.0322638 0.0074559543 0)
(1.0310938 0.0062786181 -8.2520002e-23)
(1.0300511 0.0051541485 -2.8429831e-22)
(1.0291349 0.0041186096 -5.3632066e-23)
(1.0283741 0.0031464177 4.4724188e-22)
(1.027708 0.0023229496 5.864395e-23)
(1.0271841 0.0015649594 3.5795131e-24)
(1.0267303 0.0010099907 2.7105691e-22)
(1.0263823 0.00047682243 -1.7965385e-22)
(1.0261093 0.00016526197 5.5199492e-22)
(1.0362512 0.012527346 -2.0769013e-22)
(1.034697 0.010747891 4.7851363e-24)
(1.0335514 0.0093828223 -1.1651736e-22)
(1.0324377 0.0081139113 5.4073659e-23)
(1.0313058 0.0069262298 -2.9548975e-23)
(1.0302743 0.005776279 -1.2275973e-22)
(1.0293477 0.004685926 1.5207111e-22)
(1.0285684 0.0036770085 2.0788568e-23)
(1.0278956 0.0027691595 6.1712426e-22)
(1.0273459 0.0020003655 5.8103871e-22)
(1.0268844 0.0013191428 9.6155441e-23)
(1.0265091 0.00083891124 2.8662923e-22)
(1.0262003 0.00037387808 1.7494071e-22)
(1.025975 0.00014286298 -1.2620796e-22)
(1.0349703 0.013075043 -5.0189405e-22)
(1.0345506 0.011516795 1.8010201e-22)
(1.0335195 0.010027589 -1.9375973e-22)
(1.0324953 0.0087376254 2.6874025e-23)
(1.0314479 0.0075505439 -3.1844898e-23)
(1.0304645 0.006378063 1.7781351e-22)
(1.0295367 0.0052519114 1.5666122e-22)
(1.0287513 0.004184267 -1.913436e-22)
(1.0280649 0.003233615 -1.4014693e-22)
(1.0275179 0.0023752676 -8.4557285e-23)
(1.0270368 0.0016854344 -5.8196309e-24)
(1.0266643 0.0010739075 -1.7133784e-22)
(1.0263288 0.00067710264 -2.2371599e-22)
(1.0260742 0.00027624204 7.2567717e-23)
(1.0258709 0.00012311768 -6.2104137e-23)
(1.0328754 0.013407771 6.069373e-22)
(1.0337681 0.012122288 -5.472381e-22)
(1.0333899 0.010680272 6.4618933e-23)
(1.0324395 0.0093181061 -1.2222884e-22)
(1.0314956 0.0081445726 6.1706641e-23)
(1.0305928 0.0069598629 -3.9996248e-22)
(1.0296866 0.0058017319 -7.4219164e-23)
(1.0289074 0.0046939824 4.2465781e-23)
(1.0282204 0.0036779966 -8.7115526e-23)
(1.0276662 0.0027702538 -4.1820186e-22)
(1.0271968 0.0019886826 -6.4603932e-22)
(1.0268132 0.0013688179 -1.4229697e-22)
(1.0264889 0.00084104771 5.4274355e-23)
(1.0262089 0.00052273692 8.1852626e-23)
(1.0259797 0.0001872553 6.5428525e-23)
(1.0258045 0.00010610137 5.2292677e-23)
(1.0301204 0.013669603 0)
(1.0322856 0.01257504 -5.1233141e-22)
(1.0327665 0.011254266 3.4383573e-22)
(1.0323078 0.0098966724 0)
(1.0313989 0.0086939776 0)
(1.0306406 0.0075166096 0)
(1.0297881 0.0063429652 7.717446e-23)
(1.0290207 0.0051909893 3.1418642e-22)
(1.0283452 0.0041273101 5.8745181e-22)
(1.0277956 0.0031469579 2.6121257e-22)
(1.0273278 0.0023116944 1.5447853e-22)
(1.0269673 0.0015973946 1.4294015e-22)
(1.0266387 0.0010660425 5.743388e-23)
(1.02638 0.00061732198 -6.3542205e-23)
(1.0261229 0.00038131474 -6.8457084e-23)
(1.0259263 0.00010682864 -1.8467805e-23)
(1.0257608 9.2158979e-05 0)
(1.0272072 0.013863821 4.138341e-22)
(1.0299703 0.012842405 1.2412231e-21)
(1.031425 0.01166673 -9.1562898e-22)
(1.0318409 0.010461468 -7.8290751e-23)
(1.0312087 0.0092359721 -5.4023343e-23)
(1.030531 0.008032875 0)
(1.0298256 0.006866312 3.2660063e-22)
(1.029089 0.005686231 -2.326202e-22)
(1.0284235 0.0045686599 -1.2757911e-22)
(1.0278891 0.0035303007 7.9680199e-22)
(1.0274358 0.0026180187 -1.4668925e-22)
(1.0270866 0.0018447998 1.9799169e-22)
(1.026792 0.0012205388 -3.1883725e-23)
(1.0265378 0.00077220077 -2.5664696e-22)
(1.0263091 0.00041103783 -2.1503225e-22)
(1.0260831 0.00025252896 -4.3677582e-23)
(1.025897 3.6949466e-05 -5.10473e-23)
(1.0257412 8.1431558e-05 -1.4622499e-23)
(1.0248466 0.014094736 -6.5984782e-23)
(1.0270957 0.012986304 5.47085e-22)
(1.0293113 0.011981539 3.2448086e-22)
(1.0307012 0.010880324 -4.9923892e-22)
(1.0307897 0.0097894737 1.8172162e-23)
(1.0302799 0.0085261299 -4.2835709e-22)
(1.0297127 0.0073576849 -9.6785932e-22)
(1.0291058 0.0061706977 -7.7924162e-22)
(1.0284584 0.0050126792 -3.4741116e-22)
(1.0279328 0.0039109225 -4.2212093e-22)
(1.0275028 0.0029321659 -1.9642595e-22)
(1.0271773 0.0020753423 -1.9460537e-22)
(1.026905 0.0013908486 -2.9635061e-22)
(1.0266979 0.00085125872 1.1858582e-22)
(1.0264802 0.0004985663 1.5345048e-22)
(1.0262911 0.00022137085 -7.6982429e-24)
(1.0260698 0.00013978576 2.0075732e-23)
(1.0258947 -2.2031854e-05 -1.9194541e-23)
(1.0257364 7.4065709e-05 1.106727e-23)
(1.0223524 0.014307219 -7.159699e-22)
(1.0246306 0.013070704 -8.5403248e-22)
(1.0266451 0.01217811 3.0814541e-21)
(1.02881 0.011188057 1.9100924e-22)
(1.0298115 0.010245202 -3.2302812e-22)
(1.0298546 0.0090445284 -1.9980662e-22)
(1.0294037 0.0078119153 4.1111971e-23)
(1.0289972 0.0066347411 -3.052615e-22)
(1.0284479 0.0054518296 -1.401219e-22)
(1.0279305 0.0042966334 -5.7362466e-22)
(1.0275162 0.0032470881 -4.2321459e-22)
(1.0272203 0.0023133488 2.4496912e-22)
(1.0269847 0.0015430276 1.9539412e-22)
(1.0268123 0.00094157108 -2.1042717e-23)
(1.0266534 0.00050402183 1.5661072e-22)
(1.0264834 0.00024364431 -1.0469196e-22)
(1.0263033 5.3680574e-05 1.5601415e-22)
(1.026088 4.358194e-05 -3.6321193e-23)
(1.0259086 -6.9103027e-05 -3.7207441e-24)
(1.0257441 7.0084464e-05 -2.5226744e-23)
(1.0175328 0.014415321 1.3536324e-24)
(1.0228231 0.013328539 -1.5522325e-21)
(1.0241851 0.012290679 1.4350941e-22)
(1.0262733 0.011392229 -8.0329974e-22)
(1.0281047 0.010594773 -1.7614606e-22)
(1.0289762 0.0095144509 2.7271486e-22)
(1.0289284 0.0082870127 -2.954814e-23)
(1.0286605 0.0070510963 7.8780358e-22)
(1.0283398 0.0058817822 6.6292078e-22)
(1.0278831 0.0046841335 0)
(1.0274797 0.0035702164 3.0960548e-22)
(1.0272041 0.0025557023 6.4034205e-22)
(1.0270093 0.0017014332 1.5454533e-22)
(1.0268878 0.0010110134 -5.4429101e-22)
(1.0267764 0.00051442547 -1.0810128e-22)
(1.0266785 0.00017645776 -7.4428225e-23)
(1.0265223 1.5034376e-05 1.8054635e-22)
(1.026354 -9.140393e-05 1.0779872e-22)
(1.0261247 -3.4266611e-05 -9.4013333e-23)
(1.0259372 -0.000103934 5.6612969e-24)
(1.0257587 6.9514039e-05 -3.398507e-23)
(1.009263 0.013984589 1.7894713e-21)
(1.019479 0.013193078 -1.8133221e-21)
(1.0223693 0.012407851 -2.3421381e-21)
(1.0239001 0.011530273 2.1616144e-21)
(1.0256898 0.010844397 1.0722087e-21)
(1.0274131 0.0098901116 -2.5006903e-22)
(1.0281029 0.0087575915 0)
(1.0281168 0.0074722639 -6.2324081e-22)
(1.0280105 0.0062677088 -5.5165215e-22)
(1.0277631 0.0050719586 -6.7043017e-23)
(1.0273943 0.003899943 3.9211765e-22)
(1.0271329 0.0028083692 2.9542787e-22)
(1.0269698 0.0018658384 -1.2399211e-22)
(1.0268996 0.0010831407 8.880227e-23)
(1.0268558 0.00049920184 2.298867e-22)
(1.0268197 0.00010604981 -2.105268e-22)
(1.0267462 -0.00012124452 1.1845648e-23)
(1.026608 -0.00018652775 -1.3440899e-22)
(1.0264265 -0.00021091906 6.4249275e-23)
(1.0261798 -9.3141471e-05 8.6544612e-24)
(1.0259738 -0.00012620587 -4.101384e-23)
(1.0257767 7.2331169e-05 0)
(0.99827437 0.013528429 5.8515405e-22)
(1.0117474 0.012823266 1.3579763e-21)
(1.0198916 0.01247804 -4.2154701e-23)
(1.0222136 0.011637813 2.8891634e-21)
(1.0232613 0.011032757 9.4490757e-22)
(1.0251059 0.010170443 -5.9089199e-22)
(1.0266485 0.0091509882 5.9607048e-22)
(1.0272872 0.0079099184 -5.2455456e-22)
(1.0274045 0.0066265703 -1.7352951e-22)
(1.0274593 0.0054334986 7.6789843e-23)
(1.0272502 0.0042363987 -3.3148769e-23)
(1.0270064 0.0030730463 -7.6482238e-22)
(1.0268683 0.0020416786 -2.0783444e-23)
(1.0268411 0.0011615089 1.1201456e-21)
(1.0268634 0.00048144271 2.2773486e-22)
(1.0269124 3.3899909e-06 -7.655553e-23)
(1.0269141 -0.00027050785 -1.1133163e-22)
(1.0268703 -0.00038831907 2.9984484e-22)
(1.0267203 -0.00035659871 4.3448379e-23)
(1.0265232 -0.00030387098 -9.5144465e-23)
(1.026245 -0.00013236496 0)
(1.0260151 -0.00013589143 1.0226117e-22)
(1.0257943 7.8552557e-05 3.8136091e-24)
(0.98457892 0.01297542 -2.4918259e-21)
(1.0007593 0.012108056 4.9279983e-21)
(1.0135011 0.012169016 -5.1573359e-21)
(1.0202864 0.011758653 -1.9449446e-21)
(1.0215802 0.011205185 3.2360863e-21)
(1.0226272 0.010404503 0)
(1.0244387 0.0094474862 1.3370291e-22)
(1.0259244 0.0082959603 -6.0619613e-22)
(1.0265392 0.0070064861 -1.4479779e-22)
(1.0268386 0.0057367934 7.8025181e-22)
(1.0269703 0.004568142 1.3831343e-22)
(1.0268244 0.0033501876 -3.0220658e-22)
(1.026704 0.0022338531 3.932737e-22)
(1.0267119 0.0012514301 -3.2821556e-24)
(1.0267944 0.00046802712 2.3924815e-22)
(1.0269252 -0.0001087244 -1.1733183e-22)
(1.0270301 -0.0004604151 -6.6945822e-22)
(1.0270755 -0.00061451921 1.3758041e-22)
(1.0270279 -0.00061840919 -6.2974479e-22)
(1.0268649 -0.00049355997 2.8831801e-22)
(1.026633 -0.00036902381 2.6648501e-22)
(1.0263175 -0.00015175353 -1.7992521e-22)
(1.0260569 -0.00013318613 6.5305455e-23)
(1.0258084 8.7798583e-05 4.1041022e-24)
(0.96864876 0.012312151 -3.1369586e-22)
(0.98810863 0.011663339 5.1445861e-21)
(1.0036096 0.011360377 8.5679199e-22)
(1.0150047 0.011662563 1.4016391e-20)
(1.0201284 0.011458998 -2.9765933e-21)
(1.0208484 0.010615544 3.8362609e-21)
(1.0218928 0.0097038417 1.2033685e-22)
(1.023814 0.0085914033 1.8076795e-21)
(1.0252483 0.0073682268 -4.3164736e-22)
(1.0259139 0.0060465351 -9.8185068e-23)
(1.0263875 0.0048371309 3.8668738e-22)
(1.0265468 0.0036395959 7.5178668e-22)
(1.0264785 0.002443135 6.7979836e-23)
(1.0265109 0.0013605563 -9.1021373e-23)
(1.0266452 0.00046397843 -4.4871304e-22)
(1.0268544 -0.00022169274 1.0428571e-22)
(1.0270596 -0.00066868265 -1.2918658e-22)
(1.0272263 -0.0008915133 2.4366016e-22)
(1.0272792 -0.00091723162 0)
(1.027227 -0.00080912212 2.3242083e-23)
(1.0270265 -0.00059548061 9.6640871e-24)
(1.0267542 -0.00040587194 -1.9850943e-23)
(1.0263919 -0.00015146924 5.9037655e-24)
(1.0260958 -0.00011843317 -9.5514281e-23)
(1.0258165 0.00010006964 -2.5906746e-24)
(0.95130013 0.011586817 1.9124732e-21)
(0.97318234 0.011095242 -3.5470439e-21)
(0.99099907 0.010736072 -2.4628379e-21)
(1.0055992 0.011006406 -2.1339509e-21)
(1.0161152 0.011492933 -1.3150919e-20)
(1.0196351 0.010926525 -5.7321401e-22)
(1.0199656 0.0099444682 1.16164e-22)
(1.021205 0.0088417774 -1.7644006e-22)
(1.0232337 0.0076470153 -1.2734927e-21)
(1.02465 0.0063662223 3.442505e-22)
(1.0254225 0.0050757373 -1.5122521e-22)
(1.0260218 0.0038921616 -9.5544427e-23)
(1.0261794 0.0026746237 -4.5784966e-22)
(1.0262388 0.0014912104 -1.1581098e-22)
(1.0264142 0.00047976416 -3.7308762e-22)
(1.026693 -0.00032919709 6.0115455e-22)
(1.0269986 -0.00088555531 1.3625976e-21)
(1.0272846 -0.0011977983 -3.719534e-22)
(1.0274754 -0.0012784364 -6.4453033e-22)
(1.0275354 -0.0011755264 1.6060123e-23)
(1.0274488 -0.000957531 6.5126528e-22)
(1.0272058 -0.00066109874 1.9813393e-22)
(1.0268796 -0.00041443772 -2.79413e-22)
(1.0264649 -0.00013195474 1.6422968e-22)
(1.026129 -9.2158806e-05 -5.7300536e-23)
(1.0258162 0.00011487579 2.6656214e-24)
(0.93332996 0.010827497 -8.7950024e-23)
(0.95656074 0.010513759 -4.5521276e-21)
(0.97631657 0.0099516761 1.0857003e-20)
(0.9935956 0.010357734 -1.3337794e-20)
(1.0076969 0.011053618 1.3725493e-20)
(1.0166953 0.011134838 -7.4278825e-21)
(1.0188 0.010275579 -3.2596712e-21)
(1.0190946 0.0090888561 -2.7481993e-21)
(1.0205897 0.0078733269 2.7479834e-21)
(1.0227305 0.0066200372 7.0270867e-22)
(1.0241274 0.0053305096 -1.1815673e-22)
(1.0250621 0.0040711512 1.4041606e-22)
(1.025701 0.0029052335 2.715366e-22)
(1.0258965 0.0016502279 -5.320831e-22)
(1.0261004 0.00051933712 -5.7522477e-23)
(1.0264389 -0.00041856934 2.8877917e-22)
(1.0268372 -0.0011032182 -4.8878844e-22)
(1.0272462 -0.0015227223 5.9055317e-22)
(1.0275757 -0.0016812896 -4.2027817e-22)
(1.0277887 -0.0016171834 1.5407855e-22)
(1.0278222 -0.0013848699 0)
(1.0276968 -0.0010611887 3.1853064e-22)
(1.0273925 -0.00069023189 4.0665486e-24)
(1.0270059 -0.00039509862 0)
(1.0265328 -9.4007768e-05 -2.02115e-22)
(1.0261538 -5.5042471e-05 -1.7580299e-23)
(1.0258057 0.00013208104 -3.4357747e-23)
(0.91521541 0.01011618 -7.3957673e-22)
(0.93919459 0.0099448994 -4.2726207e-22)
(0.9600662 0.0092815217 1.071187e-20)
(0.97969251 0.0095622376 -1.2936087e-21)
(0.99614689 0.01031336 3.7493766e-21)
(1.0092763 0.010957179 1.0976038e-20)
(1.0167125 0.01060147 4.2196554e-22)
(1.0178598 0.0094016905 3.8328413e-21)
(1.0182728 0.0080942425 -3.7602067e-22)
(1.0200908 0.0068143069 -1.8744587e-21)
(1.0222999 0.0055644661 8.9874511e-22)
(1.0237054 0.004248574 -1.0326576e-22)
(1.0248184 0.0030547311 -2.276605e-22)
(1.0254284 0.001832874 -8.435415e-23)
(1.025708 0.000590512 -6.8916394e-22)
(1.0260897 -0.00048426597 -2.1126391e-23)
(1.0265721 -0.0013076953 -1.4229349e-21)
(1.0270977 -0.0018573604 7.6520119e-22)
(1.0275741 -0.0021150894 2.0373178e-22)
(1.0279447 -0.0021145665 -6.0638062e-22)
(1.0281433 -0.0019005821 4.9161529e-22)
(1.028145 -0.001541653 4.505301e-23)
(1.0279561 -0.0011198186 -2.4645752e-23)
(1.027584 -0.00068277323 0)
(1.0271282 -0.00034883032 0)
(1.0265927 -3.8653279e-05 1.8204246e-23)
(1.0261683 -7.7683456e-06 -1.1188423e-23)
(1.0257836 0.00015127351 1.0374156e-22)
(0.89735653 0.009414161 0)
(0.92160697 0.0093648258 -2.9063458e-21)
(0.94310814 0.0085907435 -1.1080211e-20)
(0.96401937 0.0090321346 -8.7275815e-21)
(0.98264478 0.0096169562 -1.6368861e-20)
(0.99843226 0.010212358 -1.8023349e-21)
(1.01049 0.010604729 6.6138237e-21)
(1.0163728 0.0097966234 9.1096846e-21)
(1.0169254 0.0083880268 -6.1666134e-21)
(1.0175405 0.0069943959 8.3053729e-22)
(1.0196966 0.005726393 -1.4797873e-22)
(1.021923 0.0044554409 -3.359958e-22)
(1.0234214 0.0031566757 2.8648731e-22)
(1.0246387 0.0019721485 -1.9675181e-22)
(1.025216 0.00069674828 -7.6524454e-24)
(1.0256479 -0.00051746183 -7.5876269e-22)
(1.0261995 -0.0014917009 6.0151458e-23)
(1.0268345 -0.0021864241 -6.3180057e-22)
(1.0274543 -0.0025700278 1.1587748e-21)
(1.0279946 -0.0026569247 -7.323785e-22)
(1.028368 -0.0024879039 4.3167431e-22)
(1.0285451 -0.0021240476 2.8475444e-22)
(1.0284852 -0.0016450045 5.3274809e-24)
(1.0282267 -0.0011320208 -9.6096956e-22)
(1.0277736 -0.00063976149 -2.0700919e-22)
(1.0272432 -0.00027680719 3.7322934e-23)
(1.0266421 3.2932446e-05 1.3435665e-22)
(1.0261708 4.843126e-05 2.4715197e-23)
(1.0257491 0.00017198679 -2.390564e-22)
(0.88004752 0.0086774616 2.2855823e-21)
(0.90413579 0.0085566127 0)
(0.92580256 0.0077399836 0)
(0.94737289 0.0082022308 0)
(0.96740456 0.0090943685 4.8964317e-21)
(0.98541895 0.0096497396 -1.4909132e-20)
(1.0004817 0.0098909709 3.8261682e-22)
(1.0115271 0.0098999228 8.6616961e-23)
(1.0158414 0.0087900623 -1.2752942e-20)
(1.0160105 0.0072759158 8.4996853e-21)
(1.0169157 0.0058745776 -2.3147015e-21)
(1.0193728 0.0045931873 5.3520891e-22)
(1.0215905 0.0032984308 -3.6551347e-22)
(1.0232715 0.0020163786 3.450545e-22)
(1.0244926 0.00080695794 8.0948167e-22)
(1.0251104 -0.00051311669 4.2112778e-23)
(1.0257198 -0.001645012 -9.155236e-22)
(1.0264517 -0.0025012497 -2.6781194e-22)
(1.0272098 -0.0030297277 7.9307037e-22)
(1.0279198 -0.0032342705 1.3123358e-22)
(1.0284846 -0.0031352241 -5.2018412e-22)
(1.0288515 -0.0027951569 -1.0289598e-22)
(1.0289735 -0.0022851752 7.9960753e-22)
(1.0288442 -0.0016913924 -5.4565103e-22)
(1.0284977 -0.0010995844 1.1845971e-23)
(1.027958 -0.00056239831 -1.5074665e-22)
(1.0273478 -0.00018069297 2.5877686e-22)
(1.026679 0.00011936337 9.4106117e-23)
(1.0261601 0.00011281352 -1.7840083e-22)
(1.0257019 0.0001939553 -1.9023091e-22)
(0.86209499 0.0078257903 -9.5754417e-23)
(0.88707776 0.0077748591 -3.6549158e-21)
(0.90842649 0.006868504 0)
(0.93021055 0.0074442033 0)
(0.95105494 0.0082512733 0)
(0.9706948 0.0090972334 0)
(0.98801265 0.0093627032 0)
(1.0024601 0.0093134289 7.2071848e-25)
(1.0123169 0.0090159183 7.1008098e-21)
(1.015124 0.0076538528 -1.3785395e-20)
(1.0151106 0.0061577734 9.3929065e-23)
(1.0163845 0.0047266529 -2.3009621e-21)
(1.0190843 0.0034214808 2.6977899e-21)
(1.0213532 0.002055658 -3.9981841e-22)
(1.0232579 0.00081938807 -4.2100099e-23)
(1.0244074 -0.00047544149 3.0839185e-22)
(1.0251336 -0.0017621421 -4.7040522e-22)
(1.025948 -0.002790095 4.9018141e-22)
(1.0268343 -0.0034845227 4.0884454e-23)
(1.0277114 -0.0038291664 1.3007726e-22)
(1.028472 -0.0038332742 6.9570868e-23)
(1.0290497 -0.003542408 1.5900266e-22)
(1.0293732 -0.0030315998 -1.062011e-23)
(1.0294303 -0.0023797941 -3.2872629e-22)
(1.0292076 -0.0016831405 9.174385e-23)
(1.0287661 -0.0010220248 8.8699081e-22)
(1.028132 -0.00045264871 1.9487123e-22)
(1.0274391 -6.2241948e-05 -1.1684809e-22)
(1.0267018 0.00021916802 1.1426547e-23)
(1.0261354 0.00018441925 2.0391404e-22)
(1.0256418 0.00021702185 1.3723539e-22)
(0.8432822 0.0067478944 -2.4662733e-21)
(0.86928425 0.0068753401 -8.4082292e-22)
(0.89135083 0.006042289 -1.2155989e-20)
(0.91289059 0.0066438897 -1.9773454e-20)
(0.93414579 0.0075194606 0)
(0.95464301 0.0082676434 0)
(0.97385655 0.0087479623 -8.2297736e-23)
(0.99062226 0.0087391963 -1.6431831e-20)
(1.0043864 0.008624065 2.0476953e-20)
(1.0126291 0.0079992102 -1.8142111e-20)
(1.0142344 0.0064956734 -2.1967368e-22)
(1.0142079 0.0050170186 5.3352481e-21)
(1.0159266 0.0035411582 -6.6538555e-22)
(1.0188409 0.0021367555 1.9021521e-22)
(1.0213069 0.00075501673 2.9877953e-22)
(1.0233133 -0.00048411293 -1.9630719e-23)
(1.0244148 -0.0018370902 1.4152789e-21)
(1.025323 -0.0030464518 -7.8185397e-23)
(1.0263251 -0.0039209808 -1.5040282e-21)
(1.0273618 -0.0044308817 1.5073115e-21)
(1.028319 -0.0045638235 -8.3038018e-22)
(1.0291163 -0.004357662 -4.6694165e-22)
(1.0296674 -0.0038709998 1.3695794e-21)
(1.0299344 -0.003191707 3.883203e-22)
(1.029898 -0.0024091731 -3.0312767e-22)
(1.0295745 -0.0016188835 5.8271559e-22)
(1.0290251 -0.00090234427 2.6720847e-22)
(1.028292 -0.00031170814 8.3780396e-23)
(1.0275147 7.6698229e-05 -1.157739e-22)
(1.0267093 0.00033075368 -4.8937829e-23)
(1.0260962 0.00026221066 1.8073925e-22)
(1.0255681 0.00024032928 1.8016896e-23)
(0.82451199 0.0054785916 8.2465189e-22)
(0.85066349 0.0060117019 3.8625379e-21)
(0.87339595 0.0051447586 1.7671629e-20)
(0.89586931 0.0059106024 2.4582895e-20)
(0.91700542 0.0067284008 0)
(0.93792696 0.0075091935 0)
(0.95814611 0.0079209996 0)
(0.97702681 0.0080487978 2.3877813e-21)
(0.99327608 0.0079908908 -2.5020227e-20)
(1.006029 0.0078550481 -1.9845357e-20)
(1.0125439 0.0069705584 -1.6491258e-22)
(1.0131867 0.0053306184 1.4415437e-21)
(1.013282 0.0038205557 -1.0064627e-20)
(1.0155456 0.0022213206 3.3577857e-21)
(1.018702 0.00072261649 -2.348238e-22)
(1.0214711 -0.00062752744 0)
(1.0234163 -0.0019028434 2.5737949e-22)
(1.024569 -0.0032624722 -4.4326013e-22)
(1.0256805 -0.0043312257 -1.3622056e-22)
(1.0268667 -0.0050253439 2.4146469e-22)
(1.0280162 -0.0053155251 -6.6032536e-22)
(1.0290378 -0.0052221982 3.5124582e-22)
(1.02983 -0.004796664 -7.4676393e-22)
(1.030338 -0.0041140046 -1.0621385e-21)
(1.0305162 -0.0032752846 4.8436872e-22)
(1.0303758 -0.002370594 4.0119443e-23)
(1.0299334 -0.0015024392 -4.0043084e-23)
(1.0292715 -0.00074231481 1.0523476e-23)
(1.0284357 -0.00014271277 -2.2682522e-22)
(1.0275732 0.00023357417 -1.4333644e-22)
(1.0267006 0.00045264472 6.7287223e-23)
(1.0260421 0.00034510975 -6.4751841e-22)
(1.02548 0.00026197771 3.3640095e-22)
(0.80605406 0.0043386319 6.0870335e-22)
(0.83197206 0.0047141004 3.4173264e-22)
(0.8545715 0.0042990655 2.9757568e-20)
(0.8779227 0.005055229 4.8660182e-20)
(0.90010498 0.0060147068 -1.0521011e-20)
(0.92091059 0.0067093484 -1.1253762e-21)
(0.94161837 0.0071040116 -4.2091617e-20)
(0.96171595 0.0071902465 1.9985354e-20)
(0.98023307 0.0071998654 2.8748026e-21)
(0.99588227 0.0072027397 5.0209651e-20)
(1.0074215 0.0070828903 -1.6715961e-20)
(1.0120234 0.0059523793 -1.7709969e-20)
(1.0119572 0.0041272214 1.3844517e-22)
(1.0123882 0.0024490829 4.030682e-21)
(1.0152946 0.00073228349 2.3672875e-21)
(1.0187893 -0.00081887443 1.5623344e-22)
(1.0218102 -0.0020884501 2.5034942e-23)
(1.023613 -0.0034409084 1.5811893e-22)
(1.0248956 -0.0047071728 -1.618451e-22)
(1.0262238 -0.0056021418 -3.6453698e-23)
(1.0275575 -0.0060734555 6.350133e-22)
(1.0288028 -0.0061244707 -1.4107837e-21)
(1.029845 -0.0057898226 -1.5855683e-22)
(1.0306122 -0.0051417156 7.6269901e-22)
(1.031041 -0.0042692826 -1.4854776e-21)
(1.0311163 -0.0032787043 -5.2703264e-22)
(1.0308495 -0.0022680896 -4.800551e-22)
(1.0302823 -0.0013339535 -1.2063653e-22)
(1.0295003 -0.00054528718 -2.5471373e-22)
(1.0285604 5.1524824e-05 1.6367606e-24)
(1.0276131 0.00040667776 -1.4622784e-23)
(1.0266754 0.00058320139 -1.7173317e-23)
(1.0259732 0.00043224585 3.1299174e-22)
(1.0253798 0.00028331345 -7.1956535e-22)
(0.78843476 0.0032262481 -9.1641721e-22)
(0.81346774 0.003656322 -5.3047804e-22)
(0.8356907 0.0031056904 -3.4277829e-20)
(0.85912724 0.0042340728 -2.4216861e-20)
(0.88212713 0.00514031 4.0773571e-20)
(0.90408246 0.0060242023 5.0820065e-20)
(0.92471262 0.0062535159 5.9348105e-21)
(0.94537902 0.00630082 0)
(0.96536249 0.0062924943 2.24618e-20)
(0.98338667 0.0063319923 7.037527e-20)
(0.99830253 0.006462732 2.6387376e-21)
(1.008368 0.00631251 8.754172e-21)
(1.011119 0.0049339492 0)
(1.0105553 0.0027660116 -5.3846183e-22)
(1.0116317 0.00087062678 -6.89692e-21)
(1.0152568 -0.00096112723 -2.8874233e-22)
(1.0191895 -0.002422721 9.9399799e-22)
(1.022215 -0.0036681678 0)
(1.0239443 -0.0050419446 4.4121202e-22)
(1.0254266 -0.0061531176 9.2792897e-22)
(1.0269406 -0.0068250275 -1.0536971e-21)
(1.0284036 -0.0070481456 6.6543573e-22)
(1.0296992 -0.0068388413 0)
(1.0307393 -0.0062563136 -1.4049514e-21)
(1.0314416 -0.0053882007 7.3058708e-22)
(1.0317728 -0.0043321233 -5.0814958e-23)
(1.0317185 -0.0032051533 -6.2589634e-22)
(1.0313168 -0.00210084 5.6040565e-22)
(1.0306128 -0.0011184877 1.9295337e-23)
(1.0297088 -0.0003140757 -6.2618125e-22)
(1.0286643 0.00026819561 4.4866691e-22)
(1.0276338 0.00059337484 9.4179512e-23)
(1.0266335 0.00072087911 0)
(1.0258896 0.00052287911 -1.2762078e-23)
(1.0252682 0.00030414861 -2.4194227e-22)
(0.77170995 0.0020861252 -6.427388e-22)
(0.79574622 0.0028454987 2.0816892e-21)
(0.81709862 0.0018919658 -3.193098e-20)
(0.84022908 0.0033671419 -8.3838197e-21)
(0.86328143 0.0043247897 1.0878171e-20)
(0.88606397 0.0051398734 6.8510934e-21)
(0.90795714 0.0055492838 4.4632126e-20)
(0.92857064 0.0053714776 2.195347e-22)
(0.9492673 0.0053527476 0)
(0.96899948 0.0054104534 -2.6851339e-20)
(0.98638853 0.0055825139 2.2355245e-20)
(1.0003422 0.0058724705 -1.4575004e-21)
(1.0086158 0.0054868736 9.0853244e-21)
(1.0097375 0.0036754841 -9.0845309e-21)
(1.0091479 0.001171772 -4.1363236e-21)
(1.0111384 -0.00095489925 -4.4617108e-21)
(1.0155298 -0.0027851471 5.6744033e-21)
(1.0198871 -0.0040897409 4.9648818e-22)
(1.0226824 -0.0053675527 5.3721284e-22)
(1.0244661 -0.0066704502 -1.8492398e-21)
(1.0261575 -0.0075617131 1.4746224e-21)
(1.0278368 -0.007980194 -1.6993063e-21)
(1.0293831 -0.0079263495 0)
(1.0307033 -0.0074461027 -3.7728555e-22)
(1.0316976 -0.0066136261 1.7484124e-22)
(1.0323126 -0.0055294442 8.0417205e-22)
(1.0325154 -0.0043040114 1.2476474e-22)
(1.0323191 -0.0030532852 7.4274897e-23)
(1.0317666 -0.0018747862 4.231274e-22)
(1.0309229 -0.00085765808 0)
(1.0298937 -5.2506255e-05 5.5540354e-22)
(1.028746 0.00050437264 5.0811012e-22)
(1.0276348 0.00079150867 3.514316e-22)
(1.0265751 0.00086420581 -2.6777624e-22)
(1.0257915 0.00061619596 1.3662621e-23)
(1.0251471 0.00032595137 9.1160985e-22)
(0.75608312 0.0010702565 7.6720445e-22)
(0.77918301 0.0019601137 -1.9078304e-22)
(0.79923601 0.0011118674 9.566353e-21)
(0.82167242 0.0021505728 3.4599301e-22)
(0.84414881 0.0035854807 -4.7641415e-20)
(0.86714835 0.0043601695 -5.0696556e-20)
(0.88988637 0.0046546085 -1.7463829e-22)
(0.91189039 0.0046066267 3.4418215e-20)
(0.93258377 0.0043645339 1.9140984e-22)
(0.95320494 0.00442818 2.6294614e-20)
(0.97251304 0.0046914311 -3.819376e-23)
(0.98906062 0.0050848154 -1.2035078e-20)
(1.0017093 0.0053757303 -1.4079718e-21)
(1.0080278 0.0044168927 -9.5051171e-21)
(1.0080544 0.0020744788 3.1715112e-20)
(1.0078649 -0.00076253264 4.5559665e-22)
(1.0110191 -0.0029945207 -3.6399132e-21)
(1.0162431 -0.0046647117 -1.9273259e-21)
(1.0207305 -0.0058316036 1.6488939e-22)
(1.0232752 -0.0071548979 -3.0578857e-22)
(1.0252006 -0.0082754974 5.9508593e-22)
(1.0270947 -0.008909487 -1.9871929e-21)
(1.0288919 -0.0090392795 1.7860078e-21)
(1.0304933 -0.0086929378 0)
(1.0317908 -0.0079344214 7.6447604e-22)
(1.0327131 -0.0068534662 1.6461746e-21)
(1.0332057 -0.0055655187 -7.8860181e-22)
(1.0332635 -0.0041830045 1.4844324e-21)
(1.0329052 -0.0028288937 2.3080677e-23)
(1.0321962 -0.0015908308 -4.9156132e-22)
(1.0312066 -0.00055722983 -6.2988136e-22)
(1.0300532 0.00023615237 -5.1810215e-24)
(1.0288045 0.00075705681 -3.8315056e-23)
(1.0276162 0.00099868955 4.4672516e-22)
(1.0265006 0.001011823 -1.2279684e-22)
(1.0256798 0.00071152256 -3.565045e-23)
(1.0250157 0.00035097374 3.5976918e-22)
(0.74244843 3.1136535e-05 -2.168399e-22)
(0.76405711 0.0010392062 -1.6769557e-21)
(0.78252512 0.00037555714 1.2269723e-20)
(0.80367801 0.0014695161 6.6970858e-21)
(0.82537468 0.0025489659 -3.7598274e-22)
(0.84773343 0.0036684788 3.1931533e-22)
(0.87089208 0.0038881532 2.7818825e-20)
(0.8937643 0.003697856 -1.3092635e-20)
(0.91599897 0.0035290068 0)
(0.93669225 0.0034076682 -5.9815469e-21)
(0.95711102 0.0037035334 0)
(0.97573116 0.004263145 0)
(0.99121927 0.0047526866 -1.2740103e-20)
(1.0023049 0.0046781353 1.5291875e-21)
(1.0067256 0.0029599467 6.771604e-21)
(1.0062523 4.5256713e-05 8.9459036e-21)
(1.0069024 -0.0029993825 -1.0607547e-20)
(1.0113986 -0.0051834173 -3.4837958e-21)
(1.017387 -0.0065454094 -1.3736406e-21)
(1.0216104 -0.0076842484 5.4222558e-23)
(1.024047 -0.0089573278 -1.0804494e-21)
(1.0261679 -0.0098276622 1.1522419e-21)
(1.0282186 -0.010162905 1.9086384e-22)
(1.0301021 -0.0099828883 -8.6874125e-22)
(1.0317086 -0.0093319766 -8.8908052e-23)
(1.0329539 -0.0082935516 3.8909217e-22)
(1.0337646 -0.0069737767 -7.5705636e-23)
(1.0341137 -0.0054934956 -9.3189676e-22)
(1.034002 -0.0039741432 -7.5660945e-23)
(1.0334725 -0.0025323916 -1.5145566e-21)
(1.0325977 -0.0012559627 -3.0036175e-22)
(1.0314622 -0.00021979131 -1.1606629e-22)
(1.0301856 0.0005479809 -6.6569843e-22)
(1.0288396 0.0010233388 1.6808615e-22)
(1.027578 0.001212953 -9.3165124e-22)
(1.026411 0.0011625269 -2.0232166e-22)
(1.0255558 0.00080777679 -3.1712988e-22)
(1.0248753 0.00037635692 0)
(0.73243763 -0.0010004447 -1.1845405e-21)
(0.75096979 1.6753799e-05 -1.8269648e-22)
(0.76721912 -0.00027289924 3.0853964e-21)
(0.78674727 0.00085607886 5.447176e-21)
(0.80716323 0.0017295576 2.4017432e-20)
(0.82870457 0.002887545 2.0363955e-20)
(0.85115185 0.0032100311 -6.5664811e-23)