/*--------------------------------*- C++ -*----------------------------------*\
| =========                 |                                                 |
| \\      /  F ield         | OpenFOAM: The Open Source CFD Toolbox           |
|  \\    /   O peration     | Version:  5.0                                   |
|   \\  /    A nd           | Web:      www.OpenFOAM.org                      |
|    \\/     M anipulation  |                                                 |
\*---------------------------------------------------------------------------*/
FoamFile
{
    version     2.0;
    format      ascii;
    class       volSymmTensorField;
    location    "380";
    object      UPrime2Mean;
}
// * * * * * * * * * * * * * * * * * * * * * * * * * * * * * * * * * * * * * //

dimensions      [0 2 -2 0 0 0 0];

internalField   nonuniform List<symmTensor> 
9200
(
(0.00040034722 1.5228554e-05 -4.4017396e-26 1.2484471e-06 -3.3625094e-27 2.8899749e-47)
(0.000409596 4.978514e-05 1.3958472e-23 1.4098441e-05 1.7447546e-24 5.7892701e-43)
(0.00031885924 1.3019026e-05 0 1.2086136e-06 0 0)
(0.00042390907 7.9885848e-05 -7.6056699e-24 3.6433263e-05 -1.5094297e-24 1.6623705e-43)
(0.00032572166 4.2699678e-05 1.0803883e-23 1.3884019e-05 1.6086014e-24 4.3136991e-43)
(0.00028168202 1.2022221e-05 0 1.1529686e-06 0 0)
(0.00044756501 0.00011243936 -7.6047412e-25 7.3234461e-05 -1.9942119e-25 1.5455528e-45)
(0.00033710132 6.7862026e-05 8.54143e-26 3.5655414e-05 -6.8349677e-26 1.5604262e-45)
(0.0002881609 3.9076743e-05 0 1.3245761e-05 0 0)
(0.00023874519 1.035516e-05 0 1.0804724e-06 0 0)
(0.00047846139 0.00014368208 1.7203741e-23 0.00012241035 6.0053787e-24 7.5958012e-43)
(0.00035592641 9.4016261e-05 1.0941428e-23 7.1385098e-05 4.2046643e-24 4.6987944e-43)
(0.00029794424 6.1790997e-05 5.7272235e-24 3.38536e-05 1.6604034e-24 1.3811042e-43)
(0.00024414447 3.3728189e-05 3.0424683e-25 1.2560502e-05 6.251199e-26 4.9330172e-46)
(0.00020620285 9.1532586e-06 1.7647761e-27 1.0187122e-06 3.2466174e-28 2.496234e-49)
(0.00051945267 0.00017638806 1.6714455e-23 0.00019063521 6.60045e-24 6.4441118e-43)
(0.00038109049 0.00011767731 -3.4548119e-25 0.00011836772 2.3553282e-25 4.797137e-45)
(0.00031420137 8.5033581e-05 1.9495437e-23 6.7439538e-05 7.9937406e-24 1.5589602e-42)
(0.0002531296 5.3058222e-05 6.7737836e-24 3.1923183e-05 2.4648935e-24 2.6638905e-43)
(0.00021157579 2.9638699e-05 1.1217659e-25 1.1840052e-05 8.7816456e-26 1.8662894e-45)
(0.0001775831 7.9304607e-06 -1.0077265e-23 9.5442078e-07 -7.7479513e-25 8.6322723e-43)
(0.0005707085 0.00020842467 2.1629731e-23 0.00028032483 1.2080731e-23 1.1511171e-42)
(0.00041523854 0.00014067309 1.6288262e-23 0.00018261268 7.2649535e-24 7.5248806e-43)
(0.00033599343 0.0001053667 -1.195446e-23 0.00011098233 -5.9427542e-24 5.4385277e-43)
(0.00026845097 7.2428969e-05 -7.1893854e-25 6.3320004e-05 -4.0768168e-25 3.4684031e-45)
(0.00022012446 4.6401373e-05 5.4955773e-24 2.9890461e-05 1.9830493e-24 1.9436378e-43)
(0.00018259526 2.5639979e-05 4.8067152e-24 1.1165587e-05 1.3041787e-24 2.0025873e-43)
(0.00015422298 6.8910262e-06 6.8885289e-25 8.9660389e-07 7.0633234e-26 6.283374e-45)
(0.00063501282 0.00023911273 1.6360059e-23 0.00039924125 1.4948628e-23 1.0626757e-42)
(0.00046046466 0.00016090918 1.4372674e-23 0.0002657607 9.3412311e-24 6.1807204e-43)
(0.00036579221 0.00012422008 1.4554945e-23 0.00016963536 9.6347126e-24 8.3444379e-43)
(0.00028949869 8.881795e-05 4.1547538e-25 0.00010351894 1.0497425e-24 2.2169073e-44)
(0.00023464994 6.2980865e-05 -1.383103e-23 5.9015212e-05 -7.4674088e-24 1.2691799e-42)
(0.00019079379 4.0066364e-05 -5.2670699e-24 2.8069718e-05 -2.3689205e-24 2.4957337e-43)
(0.0001591706 2.2219702e-05 -5.2632874e-24 1.0525671e-05 -1.4225198e-24 2.9841091e-43)
(0.00013433664 5.930115e-06 7.3758627e-24 8.4549456e-07 7.0974765e-25 7.9763401e-43)
(0.00071510338 0.0002663894 -3.1368848e-23 0.00055490506 -2.3248405e-23 2.0446724e-42)
(0.00052131824 0.00017784508 1.5391742e-23 0.00037483081 5.4928337e-24 5.2783507e-43)
(0.00040555966 0.00013945451 4.0035221e-25 0.00024397895 2.2258758e-24 3.6189045e-44)
(0.00031905591 0.00010348585 6.0212312e-24 0.00015719178 3.8910949e-24 1.5841179e-43)
(0.00025470127 7.6699779e-05 3.0534349e-25 9.5847831e-05 1.9720093e-24 9.359006e-44)
(0.00020488855 5.4247065e-05 -1.8372996e-23 5.5295832e-05 -1.0609864e-23 2.7435879e-42)
(0.0001671782 3.472042e-05 2.7305983e-24 2.6338802e-05 3.3933411e-25 1.7049681e-43)
(0.00013910709 1.907631e-05 -7.8700336e-24 9.9922903e-06 -2.4593311e-24 8.9350488e-43)
(0.00011824114 5.0817019e-06 -1.36265e-23 7.995182e-07 -1.5107115e-24 3.7410484e-42)
(0.00081337896 0.00028568196 2.6675636e-23 0.00075575572 2.8263319e-23 1.7941129e-42)
(0.00060345632 0.0001892441 -8.3745239e-24 0.00051627166 8.4608624e-24 5.4088925e-43)
(0.00045940109 0.00015053752 -5.0567522e-25 0.00033927905 -1.3658987e-24 7.1627881e-45)
(0.0003593862 0.00011476271 3.1194233e-25 0.00022462295 -6.4710272e-24 3.6204874e-43)
(0.00028302747 8.8685454e-05 -1.8839386e-24 0.00014460266 -1.9240672e-24 3.0331198e-44)
(0.00022458837 6.5950119e-05 -1.5854584e-25 8.9379885e-05 2.6970925e-24 2.1805803e-43)
(0.00018087475 4.6990156e-05 5.6394126e-24 5.1783764e-05 3.6639267e-24 3.3474393e-43)
(0.00014686505 2.9852843e-05 8.4494858e-24 2.4923522e-05 4.3693497e-24 1.0118538e-42)
(0.00012288168 1.6292486e-05 3.943969e-24 9.5154218e-06 1.5917139e-24 3.1874989e-43)
(0.00010476663 4.2903044e-06 8.474863e-25 7.6003083e-07 1.2135224e-25 2.1993634e-44)
(0.00093209438 0.00029265206 -1.3483783e-23 0.0010118027 -1.3152826e-23 3.4261082e-43)
(0.00071376721 0.0001911949 -2.5639525e-24 0.00069906193 1.8073683e-23 6.8652826e-43)
(0.00053291651 0.00015574816 1.320031e-23 0.00046015893 5.0460372e-24 3.7903176e-43)
(0.00041504467 0.00012243593 -9.5410816e-24 0.00031067102 -1.016268e-23 4.4155568e-43)
(0.00032193139 9.7546713e-05 1.1191565e-23 0.00020515226 1.7488742e-24 6.4445162e-43)
(0.00025257882 7.6205815e-05 -1.9959865e-23 0.00013425331 -1.2951414e-23 2.4539637e-42)
(0.00019999543 5.718935e-05 -1.9228135e-25 8.3386912e-05 7.1599547e-25 1.9902561e-44)
(0.00016010845 4.0442989e-05 1.4080963e-23 4.8996238e-05 8.942333e-24 2.5585179e-42)
(0.00013037934 2.5576651e-05 -5.9469713e-24 2.3666887e-05 -3.296747e-24 6.6991628e-43)
(0.00010924643 1.3672669e-05 1.0386496e-23 9.132556e-06 4.7182281e-24 3.1000275e-42)
(9.4127356e-05 3.5777792e-06 -1.4032489e-24 7.2349693e-07 -2.121687e-25 8.6743248e-44)
(0.0010774993 0.00030456626 4.4190841e-24 0.0013465361 -2.5092615e-24 6.5381177e-44)
(0.0008568822 0.00017836099 1.3746918e-23 0.00093532284 -3.899181e-23 2.6482373e-42)
(0.00063347694 0.0001529865 -1.0596384e-23 0.00061512507 -1.8126641e-23 6.4650933e-43)
(0.00049220816 0.00012530839 0 0.00041969307 0 0)
(0.00037575493 0.00010326806 1.4950931e-26 0.0002818746 6.344932e-25 1.9872654e-45)
(0.00029112727 8.4026572e-05 1.7581761e-24 0.00018960701 -5.2500572e-24 3.3348179e-43)
(0.00022705266 6.6264681e-05 -3.7079799e-24 0.00012488807 -2.5908686e-24 1.0516685e-43)
(0.00017860459 4.9420486e-05 -7.4422689e-24 7.873471e-05 -5.4490742e-24 6.3925448e-43)
(0.00014310722 3.4721171e-05 4.3036745e-25 4.6542258e-05 -1.1919315e-24 1.4293403e-43)
(0.00011643674 2.1547798e-05 -6.3490539e-24 2.2669254e-05 -4.2715821e-24 1.1017213e-42)
(9.8459545e-05 1.1283456e-05 -3.5390949e-24 8.7847916e-06 -1.9029783e-24 5.431388e-43)
(8.5580479e-05 2.9045918e-06 6.0621198e-25 6.905851e-07 1.2626888e-25 2.7647737e-44)
(0.0012276576 0.00032361532 2.7159815e-24 0.0017702556 8.851818e-25 9.4345385e-45)
(0.0010397874 0.00015409927 -2.336258e-23 0.0012463323 1.5321661e-23 1.057635e-42)
(0.00076690908 0.00013692106 0 0.00081409216 0 0)
(0.00059952577 0.00012221025 0 0.000559478 0 0)
(0.00045012675 0.00010505129 -6.9251307e-24 0.00037872818 -4.9464768e-25 1.4650512e-43)
(0.00034437953 8.9665016e-05 1.0029031e-23 0.00025953262 -6.6482618e-24 1.040951e-42)
(0.00026411563 7.3482086e-05 -1.0693014e-23 0.0001758402 -2.5345318e-24 7.8294463e-43)
(0.00020476398 5.7638744e-05 8.6955819e-24 0.00011771496 7.8546221e-24 7.9361761e-43)
(0.00016078604 4.2663497e-05 5.4551705e-25 7.4699016e-05 6.9071289e-25 6.9415874e-45)
(0.00012859593 2.9285184e-05 -5.2497185e-27 4.4644068e-05 1.1745736e-26 1.7046605e-47)
(0.00010533134 1.7872045e-05 6.4945948e-24 2.1773106e-05 5.0208972e-24 1.7275805e-42)
(8.977438e-05 8.983146e-06 -5.6431315e-24 8.4900952e-06 -3.6280555e-24 2.3246654e-42)
(7.9172008e-05 2.295335e-06 7.923254e-24 6.5847865e-07 2.0682049e-24 8.5846413e-42)
(0.0012782367 0.00026284149 -4.4345131e-23 0.0022235176 -5.5907958e-24 2.7892076e-42)
(0.0012663516 0.0001379113 5.9066476e-24 0.0016625625 -1.7813567e-24 4.1186068e-44)
(0.00093560604 0.00010451754 -3.3033552e-23 0.0010722178 5.678514e-24 1.5916476e-42)
(0.00074459013 0.00010925588 2.2180091e-23 0.00074028966 -4.7386492e-24 9.4926399e-43)
(0.00055334146 0.00010253221 -1.3102167e-23 0.00050329645 2.3705013e-24 4.6295678e-43)
(0.00041762789 9.2652821e-05 4.41821e-24 0.0003478327 -3.5159166e-24 1.4935981e-43)
(0.00031510486 7.9132456e-05 3.0203354e-24 0.00024010359 3.0436035e-24 5.8076286e-44)
(0.00024043377 6.463652e-05 -1.9571256e-25 0.00016541659 2.0595596e-25 1.1814397e-45)
(0.00018561623 5.0113129e-05 6.393535e-24 0.00011161444 9.0512729e-24 8.1517877e-43)
(0.00014539143 3.6187612e-05 4.6238102e-24 7.1652349e-05 6.8852488e-24 7.0926752e-43)
(0.00011689451 2.4290538e-05 1.7812437e-24 4.2955905e-05 1.9145373e-24 1.1863306e-43)
(9.6332676e-05 1.4304797e-05 3.7122007e-24 2.1023692e-05 3.9876857e-24 9.5699335e-43)
(8.3259429e-05 6.8605282e-06 1.8371555e-24 8.2004814e-06 1.7597721e-24 4.649539e-43)
(7.4455647e-05 1.7246801e-06 -1.448856e-24 6.2727753e-07 -5.7107257e-25 6.8563429e-43)
(0.001192881 6.3098539e-05 3.834208e-23 0.0026482273 -1.3348599e-22 1.0926255e-41)
(0.0014758098 0.00010975444 2.5107734e-22 0.0021959482 -6.8509074e-23 6.0548958e-41)
(0.0011478978 6.9054493e-05 5.1985284e-24 0.001411632 -1.8790358e-23 3.1857168e-43)
(0.00092958358 8.0367332e-05 -4.2183029e-24 0.00097642854 2.6920042e-24 3.4808611e-44)
(0.00069496108 9.3744772e-05 2.0311179e-24 0.00066596851 -1.7231788e-24 1.4421467e-44)
(0.00051875263 9.2881506e-05 -8.8769816e-24 0.00046175827 6.2283364e-24 3.634096e-43)
(0.00038481479 8.298819e-05 3.3917417e-24 0.00032123666 3.566215e-24 6.1105555e-44)
(0.00028908969 7.0750341e-05 -3.4205953e-24 0.00022550859 -3.9467582e-24 9.605248e-44)
(0.00021921835 5.679131e-05 1.2046249e-24 0.00015669987 -1.033456e-24 4.2501596e-44)
(0.00016889287 4.2839271e-05 -3.7718585e-25 0.00010708194 -9.7980917e-25 9.5485407e-45)
(0.00013273822 3.0174231e-05 -1.158781e-25 6.8988205e-05 -1.4402692e-25 4.3250229e-46)
(0.0001073254 1.9361944e-05 7.7562416e-26 4.1578072e-05 -5.7922374e-25 2.6932004e-44)
(8.9535522e-05 1.0997166e-05 -3.9294089e-24 2.0295379e-05 -5.4135262e-24 1.9627228e-42)
(7.8478625e-05 4.8232353e-06 1.3013271e-24 7.9234104e-06 1.7924626e-24 5.5227054e-43)
(7.1339043e-05 1.2147253e-06 -5.9113806e-25 5.954387e-07 -4.3826477e-25 4.4040655e-43)
(0.0010868387 -0.0002243393 5.3350631e-23 0.0030217179 4.0471234e-23 1.0142408e-41)
(0.0015268002 -9.2433793e-06 -1.6928638e-22 0.0027748896 -1.3138565e-23 2.5906886e-41)
(0.0013959849 5.4153612e-05 8.3586172e-23 0.0018741893 -1.8844495e-23 6.5524711e-42)
(0.0011537911 3.982774e-05 -5.9055855e-23 0.0012882983 3.0041422e-24 3.7429327e-42)
(0.00087914557 7.1958848e-05 3.4226476e-23 0.00088090209 -2.0120915e-24 1.6492285e-42)
(0.00065773755 8.9390123e-05 -2.912922e-23 0.0006117625 -1.2267169e-23 1.6635733e-42)
(0.00048039839 8.4985044e-05 2.7115866e-23 0.00042613732 -1.4841669e-24 2.1040307e-42)
(0.00035512192 7.5859875e-05 -1.0454049e-24 0.00030128014 6.3391338e-25 8.2694605e-45)
(0.00026487264 6.3062869e-05 -2.7609386e-24 0.00021338155 -2.4387936e-24 5.8446582e-44)
(0.00020048708 4.9156543e-05 3.1334832e-24 0.00015028601 -2.3081106e-24 3.0413291e-43)
(0.0001547543 3.594258e-05 -1.4204799e-23 0.00010319331 -1.9065233e-23 5.2625884e-42)
(0.00012226109 2.4115138e-05 3.9080943e-24 6.6877448e-05 4.2405718e-24 7.2034041e-43)
(0.00010001252 1.4736385e-05 1.3897384e-24 4.024142e-05 2.4560681e-24 2.1360391e-43)
(8.453137e-05 7.78774e-06 2.7954238e-25 1.9607287e-05 7.8051779e-25 3.3557666e-44)
(7.5344554e-05 2.9618303e-06 -3.9953648e-26 7.6286603e-06 6.2678585e-26 4.5052e-45)
(6.9527125e-05 7.5225595e-07 4.11336e-26 5.6296275e-07 4.8386652e-25 5.6744356e-43)
(0.0010795298 -0.00053161884 0 0.0033396181 0 0)
(0.0014993578 -0.0002231712 -2.4293756e-22 0.0033610525 4.4037036e-23 5.8852325e-41)
(0.0015295602 2.2958509e-06 -2.6046108e-24 0.0024353138 5.9520185e-23 1.71028e-42)
(0.0014137882 1.7617024e-05 0 0.0017175647 0 0)
(0.0011006406 3.2206959e-05 0 0.001168281 0 0)
(0.00084184505 7.6377052e-05 0 0.00081267692 0 0)
(0.00061204974 8.5019008e-05 -3.6157262e-24 0.0005649722 2.5311125e-24 4.4032852e-44)
(0.00044502395 7.9891373e-05 1.0300933e-23 0.00039918188 9.1955374e-24 4.2973267e-43)
(0.00032653767 6.8891583e-05 -1.2249564e-23 0.00028468789 6.3317062e-24 1.2003723e-42)
(0.00024304608 5.5451919e-05 6.5863927e-24 0.00020451026 7.6397509e-24 4.7179543e-43)
(0.00018411321 4.1631007e-05 -9.7026622e-25 0.00014489268 6.6061404e-25 3.3835581e-44)
(0.00014288449 2.8813326e-05 2.3828492e-24 0.00010019764 4.2974713e-24 2.4742266e-43)
(0.00011410417 1.833127e-05 -2.9308725e-25 6.4854519e-05 -1.8695669e-25 7.7461511e-45)
(9.4602344e-05 1.0164953e-05 -1.0139849e-24 3.8992544e-05 -2.8720004e-24 2.8156529e-43)
(8.1238719e-05 4.8415228e-06 -4.7503579e-26 1.8878511e-05 -5.1450799e-25 1.4863074e-44)
(7.3577244e-05 1.2270654e-06 1.6360289e-27 7.3194253e-06 -8.9254504e-25 1.4440857e-43)
(6.8865629e-05 3.5172075e-07 0 5.2939442e-07 0 0)
(0.0012939757 -0.00079017381 4.0638456e-23 0.0036281185 -8.4202242e-23 1.7727654e-41)
(0.001466168 -0.00050015576 3.2242789e-22 0.003932935 2.0230367e-23 1.3346888e-40)
(0.001542443 -0.00014454333 -4.5655362e-22 0.0030333865 4.5435893e-23 1.8647503e-40)
(0.0016050324 -3.3437915e-06 -2.075418e-22 0.0022830558 4.7393591e-23 3.4109975e-41)
(0.0013613644 -6.9501023e-07 -1.3540956e-22 0.0015661839 1.3720576e-23 1.6109189e-41)
(0.0010646513 4.1598196e-05 0 0.0010832625 0 0)
(0.00079019281 7.9266101e-05 -5.506289e-23 0.00075289806 1.3275391e-23 4.9284184e-42)
(0.00056857146 8.2893119e-05 1.0840955e-23 0.00052871847 -5.8946478e-24 3.7338417e-43)
(0.00041006572 7.4179826e-05 3.1500413e-23 0.00037661297 6.2366547e-24 3.3338638e-42)
(0.00030016148 6.1747592e-05 -1.3799605e-23 0.00027247218 6.1738663e-24 1.7120561e-42)
(0.00022347268 4.7570143e-05 -3.2784106e-24 0.00019712228 -4.7335527e-24 1.6862614e-43)
(0.00017018558 3.3652067e-05 -1.0149191e-24 0.00014082802 7.0352706e-25 4.633497e-44)
(0.00013341317 2.1851562e-05 4.7524534e-24 9.7367833e-05 8.6183627e-24 1.3736725e-42)
(0.00010799919 1.2486776e-05 -3.6227525e-24 6.3003008e-05 -1.2046033e-23 3.0068203e-42)
(9.1017857e-05 5.9187857e-06 -8.7563003e-26 3.7654584e-05 -2.2486484e-24 1.422674e-43)
(7.9410415e-05 2.064083e-06 1.2151528e-27 1.8117868e-05 -9.8029467e-24 7.2332033e-42)
(7.3013415e-05 -3.1354719e-07 8.5135425e-25 6.9829226e-06 -2.3874137e-24 1.0472165e-42)
(6.9118954e-05 8.3226114e-09 1.3900658e-24 4.9489948e-07 -5.8496152e-25 9.7596926e-43)
(0.001855218 -0.00092497961 -1.0351278e-24 0.0038980187 2.0899825e-24 1.2772784e-43)
(0.0015434135 -0.00080647491 1.6409494e-22 0.004475438 -5.8834727e-23 4.284686e-41)
(0.0015200377 -0.00035635814 5.048957e-23 0.0036646551 5.2157313e-23 4.11866e-42)
(0.0016649016 -0.00010804819 -2.458456e-22 0.0029143422 -1.0661801e-24 4.7527461e-41)
(0.0015880324 -1.4347236e-05 2.5074842e-23 0.0021174185 -2.872937e-24 4.8176951e-43)
(0.0013223487 -4.9944266e-06 -1.4997237e-23 0.0014563466 -4.5472246e-23 1.9363557e-42)
(0.0010121385 5.3196097e-05 1.0888651e-22 0.0010081356 -6.2016736e-23 1.8266462e-41)
(0.00073850287 8.2941013e-05 9.9776039e-23 0.00070487466 -2.1472738e-23 1.7138868e-41)
(0.00052455029 7.9037519e-05 2.1093783e-23 0.00049795718 -5.0353626e-24 1.2359506e-42)
(0.00037721494 6.8013252e-05 -7.4681971e-24 0.00035968306 -1.2501133e-23 5.5432597e-43)
(0.00027605437 5.3837021e-05 2.7748335e-24 0.00026233506 -1.1144117e-24 8.2282751e-44)
(0.00020649024 3.8909354e-05 -7.486311e-24 0.00019165436 -1.1416387e-23 1.1296e-42)
(0.00015873718 2.5589169e-05 3.7144515e-24 0.00013707422 3.5250206e-24 4.7741344e-43)
(0.00012621164 1.4634375e-05 -1.5446344e-25 9.4838006e-05 7.3366438e-25 1.1911718e-44)
(0.00010387434 6.9687431e-06 -1.2778298e-25 6.100852e-05 1.0569194e-24 2.6191017e-44)
(8.9065977e-05 1.8424521e-06 1.1547409e-26 3.6251333e-05 2.2310579e-24 1.8895021e-43)
(7.8863805e-05 -4.1010514e-07 7.5213389e-25 1.7288837e-05 -3.2755655e-24 8.5249211e-43)
(7.3422904e-05 -1.6766892e-06 -3.7510007e-26 6.6220994e-06 8.0034367e-26 3.3113026e-45)
(7.0124062e-05 -2.71928e-07 1.8950353e-24 4.5970386e-07 -5.2790028e-25 8.9399924e-43)
(0.0027941316 -0.00095698224 -2.2709729e-23 0.0042081977 2.2920358e-23 5.4499923e-42)
(0.0019341211 -0.0010360933 -1.6743393e-22 0.0050211308 4.1584891e-23 5.1523503e-41)
(0.0015576605 -0.00061395974 7.6936642e-22 0.0043010732 3.7521676e-23 8.1377991e-40)
(0.0016735789 -0.00027910189 1.3125219e-22 0.003601059 -5.1628135e-23 1.5019124e-41)
(0.0016990455 -8.4357217e-05 -6.9991919e-23 0.0027758618 -5.127246e-23 5.0133724e-42)
(0.0015714092 -3.1159557e-05 -6.8623417e-24 0.0019889834 -3.3107652e-23 7.0796352e-43)
(0.0012672115 -1.6655576e-06 -2.697312e-23 0.0013582763 4.6069148e-24 6.723495e-43)
(0.0009586015 6.7378072e-05 -4.0249509e-23 0.00094664167 -2.3620524e-23 2.4646614e-42)
(0.00068338487 8.2829224e-05 1.3597214e-23 0.00066285314 -2.6859263e-24 3.4856656e-43)
(0.00048252043 7.4250811e-05 4.9453513e-23 0.00047412876 3.1892006e-24 6.7927802e-42)
(0.00034678115 6.0445525e-05 -1.6550259e-23 0.00034559038 -1.9689648e-23 1.9943706e-42)
(0.00025468953 4.4716173e-05 -3.2389404e-25 0.00025487095 3.6580164e-24 6.946031e-44)
(0.00019220155 2.979292e-05 1.8788253e-24 0.00018672125 5.7751269e-24 2.075015e-43)
(0.00014985845 1.7000957e-05 -5.7949027e-26 0.00013381502 -4.2399252e-25 1.4297933e-45)
(0.00012120731 7.6812604e-06 -3.2931045e-25 9.2101024e-05 5.7653884e-25 2.0642931e-44)
(0.00010161093 1.5609326e-06 2.6271005e-25 5.891657e-05 9.7421752e-24 2.3078175e-42)
(8.8525547e-05 -1.8210775e-06 1.3043126e-25 3.4696819e-05 -1.786655e-24 2.08627e-43)
(7.9394953e-05 -2.6217549e-06 -2.5157786e-24 1.6399801e-05 5.3810056e-24 2.3485584e-42)
(7.4633553e-05 -2.8270827e-06 -8.860585e-25 6.2362096e-06 8.5796712e-25 1.5351776e-43)
(7.1685737e-05 -4.9125615e-07 -2.5693391e-24 4.2406505e-07 5.2732759e-25 9.889641e-43)
(0.0038512135 -0.00097165256 1.2458299e-24 0.0045431087 4.2621245e-23 7.2976907e-43)
(0.0028048247 -0.0011478855 -3.2878444e-22 0.0056396323 1.3658894e-22 1.281591e-40)
(0.0018473603 -0.00084704484 -9.8336666e-23 0.0049505185 2.4673286e-22 2.0797776e-41)
(0.0016948593 -0.00050760742 -2.1559162e-22 0.004332014 -8.3937304e-24 4.9244648e-41)
(0.0017491808 -0.00022542049 4.4845957e-23 0.0035122412 -1.0672655e-22 5.058895e-42)
(0.0017261443 -8.7645222e-05 1.405582e-22 0.0026660511 1.0323877e-23 1.4458953e-41)
(0.0015363681 -5.0664082e-05 -2.9580463e-22 0.0018635819 3.1795688e-23 6.6927986e-41)
(0.0012158441 1.3105815e-05 -3.5815977e-22 0.001275822 5.6348337e-23 1.2208124e-40)
(0.00089708259 7.6963074e-05 1.8199216e-23 0.00089143957 4.2962821e-23 2.719857e-42)
(0.00062908811 8.0380931e-05 0 0.00062883902 0 0)
(0.00044315441 6.736442e-05 1.4378145e-23 0.00045416246 1.6607774e-23 1.1014716e-42)
(0.0003193025 5.1144805e-05 -1.0944343e-23 0.00033510776 3.2173813e-24 9.4328793e-43)
(0.00023637221 3.4657479e-05 -1.0260396e-23 0.00024829228 -1.2486801e-23 1.6440874e-42)
(0.00018083738 1.9809208e-05 5.9160245e-24 0.00018257092 6.1014401e-24 1.1628606e-42)
(0.00014345754 8.5176643e-06 -7.1620981e-25 0.00013030109 -5.512742e-24 2.8005334e-43)
(0.00011837689 7.1324414e-07 4.1259028e-25 8.9233544e-05 9.826067e-24 1.5189135e-42)
(0.0001009505 -3.3650335e-06 -4.0410749e-25 5.6563035e-05 8.5401077e-25 3.7244518e-44)
(8.9254118e-05 -5.1560344e-06 8.289902e-25 3.3010276e-05 -2.6150242e-24 3.2932203e-43)
(8.0806973e-05 -4.4916265e-06 -2.1527392e-24 1.5446427e-05 3.1696993e-24 9.3927064e-43)
(7.6443071e-05 -3.7678436e-06 -2.4605009e-25 5.8302251e-06 1.683546e-25 5.4631888e-45)
(7.3649721e-05 -6.4918988e-07 -2.8983659e-24 3.8850061e-07 4.7026522e-25 8.9744448e-43)
(0.0048776954 -0.0010233517 1.9121623e-22 0.0048895299 1.0292008e-22 2.54593e-41)
(0.003973605 -0.0012523647 -4.2767334e-22 0.0063693358 1.0715912e-22 1.0141769e-40)
(0.0026157641 -0.0010048045 -3.6267587e-22 0.0056704365 -4.9379026e-23 1.6336725e-40)
(0.0019012201 -0.00072123886 3.4338278e-22 0.0051057332 1.6037453e-22 1.7019392e-40)
(0.0017990959 -0.00042994414 2.9932857e-22 0.00432867 -1.0624958e-23 8.2787607e-41)
(0.0018204398 -0.00021262204 -2.0805142e-23 0.0034453911 -7.4166238e-23 2.3865465e-42)
(0.0017355711 -0.00010691398 0 0.002543812 0 0)
(0.0015028907 -6.0466611e-05 -6.1824585e-24 0.0017482588 -9.7875022e-23 6.6917625e-42)
(0.0011568891 3.3557603e-05 8.2361771e-23 0.0012030599 -3.9361633e-23 8.3407036e-42)
(0.00083222649 8.1964357e-05 1.0382577e-22 0.00084413999 2.7482194e-23 1.4924516e-41)
(0.00057718573 7.4586335e-05 -1.7572552e-24 0.00059990052 1.371873e-23 4.1146972e-43)
(0.00040715623 5.8183762e-05 -9.2807316e-24 0.00043894382 5.9242125e-25 3.7788331e-43)
(0.00029533372 4.0310933e-05 1.6752837e-24 0.00032605192 -5.0522448e-25 2.8493241e-44)
(0.00022138682 2.3274536e-05 2.0297463e-24 0.00024292209 6.0621233e-24 2.0154946e-43)
(0.00017233577 9.6434239e-06 -2.664033e-24 0.00017816072 -6.3426534e-24 5.3836935e-43)
(0.00013963682 -1.8517278e-07 9.1602633e-25 0.00012664598 5.5368498e-24 4.7470975e-43)
(0.00011742231 -5.7429345e-06 1.3340456e-25 8.5953285e-05 -1.2906415e-24 2.591657e-44)
(0.00010182699 -7.9409316e-06 -1.7915082e-24 5.3981299e-05 6.3798658e-24 1.0425529e-42)
(9.0984979e-05 -7.9954849e-06 -6.3302457e-25 3.1176815e-05 9.8388924e-25 3.6712661e-44)
(8.2897986e-05 -6.0310401e-06 -1.2766341e-25 1.444135e-05 1.1853094e-25 1.2461626e-45)
(7.8688877e-05 -4.488595e-06 -1.747028e-24 5.4096435e-06 1.0384693e-24 2.8883634e-43)
(7.5862714e-05 -7.4863459e-07 0 3.5352292e-07 0 0)
(0.0058383505 -0.0011080577 1.0891745e-22 0.0052812323 1.2122367e-22 9.7332661e-42)
(0.0050244187 -0.0014964786 3.2662266e-22 0.007180575 -4.6088202e-23 4.0707512e-41)
(0.0038375766 -0.0011106193 9.9729648e-24 0.0065559789 -5.5828784e-23 5.7876571e-43)
(0.0025542042 -0.00085663632 4.1518836e-22 0.0059678263 -1.3608846e-23 1.8238503e-40)
(0.0019920817 -0.00064484427 2.2899389e-22 0.0052223506 -1.3768733e-22 5.3206415e-41)
(0.0019116144 -0.00040613475 -1.5163031e-22 0.0043324016 -2.4203549e-23 1.9760827e-41)
(0.0018746856 -0.00022255722 3.8122037e-24 0.0033589396 2.1404836e-22 1.6375126e-41)
(0.0017440151 -0.00013339784 -3.558115e-22 0.0024152726 -2.7991239e-23 8.9680815e-41)
(0.001452775 -5.7209073e-05 -6.3140732e-23 0.0016404257 -2.7987138e-23 3.7961759e-42)
(0.0010930711 5.5344503e-05 -1.5342517e-23 0.0011416684 2.948572e-24 2.568001e-43)
(0.00076633482 8.0506849e-05 2.2121093e-24 0.00080197627 -8.1521838e-25 9.5561528e-45)
(0.00052912343 6.5770091e-05 3.1775758e-23 0.0005771733 -5.9999146e-24 3.0602596e-42)
(0.00037532398 4.678841e-05 -1.4859654e-24 0.00042597794 -2.2201597e-24 1.9881596e-44)
(0.00027523087 2.7594341e-05 -6.7620088e-24 0.00031880383 1.3860196e-23 1.5364675e-42)
(0.00020980751 1.1314461e-05 2.7997034e-24 0.00023736486 1.5285965e-23 1.2100554e-42)
(0.00016691532 -1.023401e-06 1.3739157e-24 0.00017364004 1.2362628e-23 1.2581318e-42)
(0.00013806502 -8.417304e-06 4.0161084e-25 0.00012240013 -1.266365e-24 1.921426e-44)
(0.00011836599 -1.1866575e-05 3.1177914e-24 8.2313467e-05 -1.3720714e-23 3.185907e-42)
(0.00010387737 -1.1877608e-05 1.3266955e-25 5.1132808e-05 -4.1781279e-25 8.9978594e-45)
(9.3549521e-05 -1.0373844e-05 -1.859833e-24 2.9221792e-05 2.6948152e-24 3.5004574e-43)
(8.5488122e-05 -7.2099642e-06 0 1.3397743e-05 0 0)
(8.1205927e-05 -4.9946716e-06 4.4248725e-24 4.981405e-06 -2.1896788e-24 1.4435392e-42)
(7.8195724e-05 -7.9278954e-07 8.2786844e-26 3.1972261e-07 -7.8449251e-27 2.6725447e-46)
(0.0065993333 -0.0012029229 -5.9090838e-22 0.0056986235 -1.7363814e-22 1.3827002e-40)
(0.0059498733 -0.0018898291 1.1001881e-21 0.0080748749 1.7774689e-22 4.1203421e-40)
(0.004920048 -0.0013160445 -7.8025656e-22 0.0075914426 -1.7547932e-22 2.4475294e-40)
(0.0037633446 -0.00092476213 -2.0876945e-22 0.0070209102 -2.1246988e-22 3.8062693e-41)
(0.0025884747 -0.0007877486 3.863315e-22 0.0062321423 1.7677696e-22 1.6639905e-40)
(0.0021113503 -0.00063024863 0 0.0053316867 0 0)
(0.0020241044 -0.00040637913 -4.548877e-24 0.0043046305 6.7577308e-23 1.2480187e-42)
(0.0019311015 -0.00024762292 -1.2416656e-22 0.0032564542 -1.2434465e-22 1.792834e-41)
(0.001741924 -0.00015848613 -2.485514e-22 0.0022776645 1.1422165e-23 4.2640712e-41)
(0.0013989479 -3.5111503e-05 -2.4788816e-22 0.0015475318 7.447595e-23 5.3897018e-41)
(0.001022356 6.9602329e-05 5.5987243e-23 0.0010858966 3.1773311e-23 4.1917647e-42)
(0.00070268333 7.3652204e-05 3.7415878e-23 0.00076723658 6.9327931e-24 2.4763017e-42)
(0.00048618681 5.4030455e-05 -2.5289502e-23 0.00055793849 -9.6783913e-24 2.1101505e-42)
(0.00034803882 3.289024e-05 1.0480254e-23 0.00041566328 1.640303e-23 1.235195e-42)
(0.0002592319 1.3777731e-05 -9.8179132e-24 0.00031159212 -2.1231001e-23 2.7977567e-42)
(0.0002019092 -1.5203639e-06 -3.1841021e-24 0.00023181675 -2.9655658e-23 4.9114759e-42)
(0.00016424433 -1.1353326e-05 2.1758659e-24 0.00016834053 2.9519023e-24 6.7676141e-43)
(0.00013885912 -1.6392722e-05 1.1431831e-24 0.00011764217 -6.4161993e-24 4.927417e-43)
(0.00012074576 -1.721446e-05 -5.2145772e-24 7.8230329e-05 1.5420781e-23 4.6877695e-42)
(0.00010701631 -1.5248012e-05 1.5573519e-24 4.8054914e-05 -3.1790653e-24 4.8173459e-43)
(9.6712547e-05 -1.2211009e-05 4.7207358e-24 2.717034e-05 -5.5236691e-24 1.6834843e-42)
(8.8396068e-05 -8.0373501e-06 -4.4939488e-24 1.2333071e-05 3.3170491e-24 1.4418657e-42)
(8.3855955e-05 -5.2918153e-06 3.0641445e-24 4.552983e-06 -1.3168508e-24 6.4292252e-43)
(8.0536499e-05 -7.8502633e-07 7.4105856e-26 2.8746327e-07 -5.8034036e-27 1.7510566e-46)
(0.00722464 -0.0013170924 -1.4672744e-22 0.0061210785 -2.6126505e-22 2.5508521e-41)
(0.0068645972 -0.0022209432 1.0963292e-21 0.009025653 5.7078862e-23 3.4112158e-40)
(0.0057829245 -0.0016222828 1.8587791e-22 0.0087484093 -3.5195747e-22 2.3804248e-41)
(0.0049719768 -0.0010549307 1.7825313e-21 0.0082913191 3.6591311e-22 1.1678671e-39)
(0.00378785 -0.00085291318 -2.9481689e-22 0.0074676161 -2.6800101e-22 6.9303785e-41)
(0.002665266 -0.0007898301 4.6259224e-22 0.0064745408 2.1142786e-22 2.1376983e-40)
(0.0022631034 -0.00063689607 -1.111946e-23 0.0053990624 8.4125303e-23 1.5249655e-42)
(0.0021427323 -0.00042588711 5.1347129e-22 0.0042537897 9.1026143e-23 1.9436769e-40)
(0.0019864388 -0.00027942487 -5.2639858e-23 0.0031302442 -1.1517552e-22 7.6268611e-42)
(0.0017354453 -0.00016793201 -1.2478627e-22 0.0021420886 -1.3011375e-23 1.0990974e-41)
(0.0013371592 -3.1285445e-06 2.9941367e-23 0.0014698658 5.8569826e-23 3.5059309e-42)
(0.00094726676 7.405212e-05 -1.1035233e-22 0.0010364022 1.6122011e-24 1.529196e-41)
(0.00064410449 6.1998239e-05 1.6232275e-23 0.0007376672 1.7043169e-23 8.7710241e-43)
(0.0004487981 3.9091211e-05 2.3423293e-24 0.00054251874 -4.0837181e-25 2.5595049e-44)
(0.00032573531 1.7207187e-05 -2.2462164e-24 0.00040583377 -2.0943231e-23 1.254455e-42)
(0.00024762523 -1.3940679e-06 -1.311983e-24 0.00030463107 -2.5618715e-24 6.3911346e-44)
(0.00019741524 -1.4268256e-05 6.0712195e-25 0.00022533273 7.4228278e-25 2.7754878e-44)
(0.00016452832 -2.156763e-05 1.5422168e-24 0.00016236705 -1.2128731e-23 1.2919382e-42)
(0.00014147183 -2.34932e-05 0 0.00011220732 0 0)
(0.00012457161 -2.1896462e-05 8.2973949e-25 7.3754489e-05 -1.5528193e-24 3.9712563e-44)
(0.00011088247 -1.7879523e-05 2.6150965e-25 4.4789363e-05 -3.4419201e-25 3.3417816e-45)
(0.00010028359 -1.3525047e-05 -5.1610662e-25 2.5057072e-05 4.7986225e-25 1.2182609e-44)
(9.1466658e-05 -8.5166885e-06 -2.8275907e-26 1.1266485e-05 -1.7059416e-26 3.8566284e-45)
(8.6516145e-05 -5.3927745e-06 -4.9469477e-24 4.1316215e-06 1.8190847e-24 1.3205329e-42)
(8.2793683e-05 -7.2953676e-07 -2.3871379e-24 2.574998e-07 2.0012686e-25 3.284398e-43)
(0.007777489 -0.0014451036 4.8826292e-22 0.006530169 2.2885494e-22 1.0120616e-40)
(0.0076831726 -0.0025404196 -6.7559691e-22 0.010015993 2.818357e-23 1.1955857e-40)
(0.0065673302 -0.00195976 -3.5664812e-22 0.010009033 2.0567648e-23 3.5549252e-41)
(0.0058928182 -0.0013396404 -2.5183912e-22 0.0097249884 -4.7553891e-23 1.9329186e-41)
(0.0051571382 -0.0009677295 -1.4590776e-21 0.0089890526 -3.7294757e-22 7.6777378e-40)
(0.0038405536 -0.00085654427 -1.13791e-22 0.0078759141 1.9426916e-22 1.0449059e-41)
(0.002809911 -0.00081369087 -1.8752006e-23 0.0066684696 1.1251106e-22 2.1960188e-42)
(0.0024383094 -0.00066198001 -3.1968192e-23 0.0054346549 -1.3945184e-23 8.6870693e-43)
(0.0022563521 -0.00045898569 -3.9457119e-22 0.0041717098 -6.4789163e-23 1.0789953e-40)
(0.0020437931 -0.00031055892 -2.5731174e-23 0.0029848328 1.2489816e-22 6.2654806e-42)
(0.0017116997 -0.0001538218 -1.3404219e-22 0.0020165052 -3.9535564e-23 1.3814214e-41)
(0.0012659756 2.8691134e-05 2.2307052e-23 0.0014070581 -3.0204965e-24 4.6788423e-43)
(0.0008722239 6.8118183e-05 4.7732798e-23 0.00099137502 -7.9393642e-25 3.3133401e-42)
(0.00059212355 4.6087673e-05 -2.2499876e-24 0.00071368219 -8.8324762e-24 1.365918e-43)
(0.00041752313 2.1623525e-05 7.5522782e-24 0.00052838835 -1.6679037e-24 3.4293059e-43)
(0.00030869878 -4.29073e-07 1.4472184e-25 0.00039669872 2.9739865e-23 2.5847571e-42)
(0.00024024751 -1.6866866e-05 -7.9814689e-24 0.00029665499 3.3389971e-23 4.9418267e-42)
(0.00019659597 -2.713265e-05 -1.4781179e-24 0.00021803824 2.0503506e-23 2.7900645e-42)
(0.00016716677 -3.0868856e-05 -6.146486e-24 0.00015542663 2.4868773e-23 5.6299234e-42)
(0.00014599853 -2.9851059e-05 -1.7341198e-25 0.00010616407 2.7272229e-25 1.0440454e-45)
(0.00012931736 -2.5609143e-05 1.037389e-23 6.8944391e-05 -1.627957e-23 5.2736866e-42)