/*--------------------------------*- C++ -*----------------------------------*\
| =========                 |                                                 |
| \\      /  F ield         | OpenFOAM: The Open Source CFD Toolbox           |
|  \\    /   O peration     | Version:  5.0                                   |
|   \\  /    A nd           | Web:      www.OpenFOAM.org                      |
|    \\/     M anipulation  |                                                 |
\*---------------------------------------------------------------------------*/
FoamFile
{
    version     2.0;
    format      ascii;
    class       volScalarField;
    location    "60";
    object      p;
}
// * * * * * * * * * * * * * * * * * * * * * * * * * * * * * * * * * * * * * //

dimensions      [0 2 -2 0 0 0 0];

internalField   nonuniform List<scalar> 
9200
(
-0.00041802527
-0.00041446483
-0.00093133487
-0.00041229181
-0.00092890266
-0.0015994988
-0.00041167812
-0.0009188804
-0.0015919578
-0.0021858093
-0.00040975745
-0.00090720122
-0.0015765931
-0.0021766649
-0.0027996468
-0.00040897171
-0.0008898314
-0.0015587662
-0.0021553998
-0.0027877524
-0.0033864781
-0.00040792538
-0.00087152128
-0.0015328953
-0.0021297303
-0.0027614638
-0.0033734195
-0.003970221
-0.0004079677
-0.00085003541
-0.0015050972
-0.0020927093
-0.0027298413
-0.0033427294
-0.0039565421
-0.004539802
-0.00040899821
-0.00082764489
-0.0014726539
-0.0020518943
-0.0026838873
-0.003306008
-0.0039224525
-0.0045268802
-0.0050988694
-0.00041171567
-0.00080407062
-0.0014385773
-0.0020039549
-0.0026324623
-0.003251695
-0.0038822174
-0.0044907453
-0.0050882024
-0.0056444826
-0.00041645565
-0.00078021568
-0.0014027768
-0.0019525269
-0.0025714529
-0.0031899972
-0.003821119
-0.0044489511
-0.0050517834
-0.0056375493
-0.0061764584
-0.00042356884
-0.00075630496
-0.0013666692
-0.0018975337
-0.0025051045
-0.0031157735
-0.0037507454
-0.0043830249
-0.0050109392
-0.0056027955
-0.0061751938
-0.0066930566
-0.00043308185
-0.00073260778
-0.0013308708
-0.0018407813
-0.0024333396
-0.0030338517
-0.0036646935
-0.0043060008
-0.0049427586
-0.0055657726
-0.0061446012
-0.0066994015
-0.0071925646
-0.00044455408
-0.0007091301
-0.00129604
-0.0017831775
-0.0023583778
-0.0029440417
-0.0035683172
-0.0042099139
-0.0048616358
-0.0054984733
-0.0061150069
-0.0066756529
-0.0072086183
-0.0076729054
-0.00045683487
-0.0006857807
-0.0012624047
-0.0017258003
-0.002281429
-0.0028489247
-0.0034612325
-0.0041005265
-0.004757793
-0.0054166476
-0.0060525455
-0.0066574042
-0.0071946893
-0.0077007976
-0.0081317716
-0.00046789228
-0.00066249788
-0.0012298058
-0.0016693607
-0.0022039684
-0.0027499612
-0.0033463588
-0.0039771172
-0.0046373087
-0.0053083104
-0.0059741097
-0.006604244
-0.0071922042
-0.0076998248
-0.0081737321
-0.0085666771
-0.00047476898
-0.000639489
-0.0011976384
-0.0016142961
-0.0021270769
-0.0026490248
-0.0032253739
-0.0038428799
-0.0044990083
-0.0051796563
-0.0058652038
-0.0065341699
-0.0071534935
-0.0077177739
-0.0081889362
-0.0086250061
-0.0089752013
-0.00047373426
-0.00061745468
-0.0011649323
-0.0015607017
-0.0020515163
-0.0025476408
-0.0031005276
-0.0036996627
-0.0043463208
-0.0050288773
-0.0057320068
-0.0064297463
-0.0070974343
-0.0076991216
-0.0082321984
-0.0086596871
-0.0090520527
-0.0093550868
-0.00046062869
-0.00059769372
-0.0011305129
-0.0015083967
-0.0019775644
-0.0024471073
-0.002973741
-0.0035500498
-0.0041812458
-0.0048595702
-0.0055718489
-0.0062968172
-0.0070033424
-0.0076635016
-0.008239585
-0.0087331661
-0.009109615
-0.0094524066
-0.0097042711
-0.00043134932
-0.00058200694
-0.0010932084
-0.0014570496
-0.0019049906
-0.0023483052
-0.0028467805
-0.0033963321
-0.0040067135
-0.0046738516
-0.0053883355
-0.0061315776
-0.0068764981
-0.0075865672
-0.008231321
-0.0087727919
-0.0092181353
-0.009536117
-0.0098238029
-0.010020926
-0.00038245181
-0.00057243671
-0.0010520871
-0.0014063175
-0.0018331168
-0.0022515772
-0.0027210367
-0.0032407439
-0.0038254042
-0.00447503
-0.0051836035
-0.0059374423
-0.0067116286
-0.0074727114
-0.008179138
-0.0087992395
-0.0092962718
-0.0096843969
-0.0099365962
-0.010164167
-0.010303445
-0.00031185164
-0.00057098762
-0.0010066838
-0.0013560065
-0.001760975
-0.0021566525
-0.0025974153
-0.0030852377
-0.0036400362
-0.004266195
-0.0049613136
-0.0057164087
-0.006511679
-0.0073148674
-0.0080862669
-0.0087799864
-0.0093650321
-0.0098072406
-0.010129174
-0.010308661
-0.010471639
-0.010550421
-0.00021954433
-0.00057944514
-0.00095712119
-0.0013062107
-0.0016875656
-0.0020629351
-0.002476175
-0.0029314326
-0.0034531589
-0.0040505343
-0.0047250058
-0.0054724118
-0.0062782732
-0.0071152045
-0.0079434754
-0.008716853
-0.009387455
-0.0099259182
-0.010302742
-0.010549714
-0.01065013
-0.010744577
-0.010760672
-0.00010759943
-0.00059916883
-0.00090396399
-0.0012573511
-0.001612164
-0.0019697531
-0.0023569759
-0.0027804923
-0.0032670851
-0.0038310862
-0.0044784207
-0.0052094397
-0.0060154712
-0.0068746699
-0.0077517929
-0.0085981344
-0.0093636686
-0.0099988894
-0.01047892
-0.010779625
-0.010943341
-0.010959006
-0.01098156
-0.010933418
2.1547221e-05
-0.00063050561
-0.00084705023
-0.0012101594
-0.0015345744
-0.0018764995
-0.0022390825
-0.0026328062
-0.003083738
-0.0036107092
-0.0042251751
-0.0049318639
-0.0057276408
-0.0065972098
-0.0075111409
-0.0084233803
-0.0092791809
-0.010024443
-0.010611532
-0.011020485
-0.011234734
-0.011307412
-0.011233482
-0.011181468
-0.011068501
0.00016460669
-0.00067140778
-0.0007844626
-0.0011657107
-0.0014548105
-0.0017828539
-0.0021215716
-0.0024880817
-0.0029043812
-0.0033919777
-0.0039687353
-0.0046440179
-0.0054197948
-0.0062874217
-0.0072250372
-0.0081911084
-0.009131714
-0.0099850372
-0.010696839
-0.011221592
-0.011547109
-0.011664795
-0.011639439
-0.011471991
-0.011343621
-0.011166382
0.00031603008
-0.00071587878
-0.0007152905
-0.0011248403
-0.0013729668
-0.001689021
-0.0020036083
-0.0023457722
-0.0027293814
-0.0031770958
-0.0037123535
-0.0043501083
-0.0050970452
-0.0059509168
-0.0068980545
-0.0079040455
-0.0089180134
-0.0098762437
-0.010714048
-0.011377109
-0.011825328
-0.012054797
-0.01206667
-0.0119372
-0.011673279
-0.011467894
-0.011227776
0.00047199493
-0.00076010161
-0.00064126044
-0.0010882597
-0.0012902159
-0.0015954716
-0.0018848988
-0.0022052762
-0.0025584391
-0.0029675924
-0.0034590142
-0.004054092
-0.0047644445
-0.0055936444
-0.0065362429
-0.007566405
-0.0086396345
-0.0096926645
-0.010656288
-0.011462825
-0.012061443
-0.01241817
-0.012539715
-0.012437294
-0.012198847
-0.011836575
-0.011554643
-0.011253292
0.00062741151
-0.00080513906
-0.00056641327
-0.0010550814
-0.001207764
-0.0015030587
-0.0017659596
-0.0020660688
-0.0023909103
-0.0027640496
-0.0032112714
-0.0037596182
-0.0044267901
-0.0052216191
-0.0061463441
-0.0071844034
-0.0083000554
-0.0094342951
-0.010515679
-0.011469169
-0.012227764
-0.012744911
-0.012995566
-0.012997791
-0.012773882
-0.012422918
-0.01196167
-0.011604502
-0.011243353
0.00077402809
-0.00084823942
-0.00049352521
-0.0010211062
-0.0011271725
-0.0014130858
-0.0016478475
-0.0019279672
-0.0022261076
-0.002566353
-0.002970853
-0.0034699529
-0.0040885369
-0.0048406101
-0.0057354124
-0.0067653906
-0.0079053081
-0.0091034768
-0.010290275
-0.011385447
-0.012311816
-0.013003858
-0.013422373
-0.013552494
-0.013425222
-0.013073907
-0.012608223
-0.012048785
-0.011618156
-0.011198357
0.00091255369
-0.00088641566
-0.0004205639
-0.00098679743
-0.0010506791
-0.001326756
-0.0015320451
-0.001791401
-0.0020637255
-0.0023740891
-0.0027384132
-0.0031878054
-0.0037537424
-0.0044559805
-0.0053103555
-0.0063173968
-0.0074630534
-0.0087056525
-0.0099808755
-0.011207393
-0.012299806
-0.013179506
-0.013785629
-0.014087952
-0.014084026
-0.013818286
-0.013335197
-0.012753956
-0.012098296
-0.01159618
-0.011119263
0.0010553921
-0.00091867101
-0.00035172034
-0.00095313987
-0.00097763849
-0.0012435276
-0.001420283
-0.0016574726
-0.0019039403
-0.0021867085
-0.0025137693
-0.0029150715
-0.0034259789
-0.0040726432
-0.0048776373
-0.0058485362
-0.0069820896
-0.0082484033
-0.0095919095
-0.010933843
-0.012184772
-0.013254722
-0.014066763
-0.014566549
-0.014735621
-0.014585168
-0.014173634
-0.013555956
-0.01285969
-0.012110445
-0.011539062
-0.011008209
0.0011955784
-0.00095143752
-0.00029080141
-0.000920222
-0.00090364248
-0.0011634529
-0.0013136454
-0.0015278493
-0.0017475512
-0.0020038767
-0.0022965179
-0.0026526716
-0.0031081444
-0.0036950628
-0.0044431432
-0.0053665642
-0.0064716597
-0.0077409469
-0.0091304401
-0.010567771
-0.011963159
-0.013219496
-0.014245141
-0.014966727
-0.015339637
-0.015359069
-0.015051198
-0.014488236
-0.013734801
-0.012925206
-0.012085599
-0.011447853
-0.010867756
0.0013285941
-0.00098471864
-0.00023164672
-0.00088957533
-0.00083052082
-0.0010847095
-0.0012107696
-0.001404025
-0.0015961042
-0.0018258206
-0.0020862697
-0.0024007184
-0.0028022638
-0.0033271719
-0.004012206
-0.0048785942
-0.005940878
-0.0071934038
-0.0086056766
-0.010115256
-0.01163601
-0.013067436
-0.014307399
-0.015264294
-0.015871722
-0.016097324
-0.015952085
-0.01547766
-0.014759543
-0.013870768
-0.012950718
-0.0120247
-0.01132461
-0.010699862
0.0014510078
-0.0010173749
-0.00017506006
-0.00085698786
-0.0007650714
-0.0010090959
-0.001109076
-0.0012849759
-0.0014516317
-0.0016536397
-0.0018828879
-0.0021588972
-0.0025094339
-0.0029721513
-0.0035896635
-0.0043910437
-0.0053982873
-0.0066161431
-0.0080282298
-0.0095850224
-0.01120793
-0.01279715
-0.014243875
-0.0154423
-0.016304198
-0.01677312
-0.01683189
-0.016508599
-0.015860558
-0.014985482
-0.013963368
-0.012936842
-0.011929164
-0.011171344
-0.010505877
0.0015595408
-0.0010482779
-0.0001233102
-0.00082558145
-0.00070271481
-0.00094544328
-0.0010116044
-0.0011673632
-0.0013141034
-0.0014894458
-0.001686955
-0.001926809
-0.0022299993
-0.0026322433
-0.003179781
-0.0039097301
-0.0048516466
-0.0060192204
-0.0074094428
-0.0089877057
-0.010686662
-0.012411229
-0.014050202
-0.015487418
-0.016616404
-0.017355494
-0.017661783
-0.017535536
-0.017022923
-0.016196391
-0.015164521
-0.014012538
-0.012884506
-0.011800609
-0.010989879
-0.010287353
0.0016509647
-0.0010762624
-7.7532464e-05
-0.00079697815
-0.0006439928
-0.00088481303
-0.00092971084
-0.0010548309
-0.0011764984
-0.0013339703
-0.0015004844
-0.0017044672
-0.0019638133
-0.0023087535
-0.0027860412
-0.0034399491
-0.0043079571
-0.0054119883
-0.0067607637
-0.008335209
-0.010082373
-0.011915901
-0.013726373
-0.015391774
-0.016791038
-0.017820085
-0.018407874
-0.018528185
-0.01820069
-0.01748983
-0.016482257
-0.015295652
-0.014018614
-0.012794919
-0.011640729
-0.010781984
-0.010045957
0.0017223635
-0.0011002114
-3.824267e-05
-0.00077217357
-0.00058982423
-0.00082666298
-0.00085204783
-0.00096259838
-0.0010418519
-0.001176791
-0.0013251453
-0.0014933654
-0.0017106897
-0.0020021929
-0.0024109877
-0.0029863745
-0.0037736144
-0.004802963
-0.0060932291
-0.0076400699
-0.0094070501
-0.011320354
-0.013276514
-0.015152139
-0.016816226
-0.018145422
-0.019042264
-0.019450228
-0.019362761
-0.018820141
-0.017904707
-0.016715871
-0.015378373
-0.013982285
-0.012669505
-0.011451292
-0.010549405
-0.0097834487
0.0017713412
-0.0011191028
-5.9893615e-06
-0.00075121817
-0.00054199514
-0.00077232592
-0.00077791477
-0.00087603891
-0.00093389283
-0.001015535
-0.0011491659
-0.0012955236
-0.0014716248
-0.001712619
-0.0020561902
-0.0025528652
-0.0032544721
-0.0041999061
-0.0054171383
-0.0069148921
-0.0086739001
-0.010636169
-0.012708279
-0.014769882
-0.016684896
-0.018315236
-0.019539274
-0.020270556
-0.020471021
-0.020156114
-0.019387248
-0.018263626
-0.016895591
-0.015412666
-0.013904597
-0.012509882
-0.011234111
-0.010293915
-0.0095015719
0.0017962411
-0.0011321888
1.8690605e-05
-0.00073417817
-0.00050101908
-0.00072426879
-0.0007085776
-0.00079327876
-0.00083448541
-0.00088914639
-0.00096534603
-0.0010992121
-0.0012484383
-0.0014408557
-0.0017224473
-0.0021422891
-0.0027557258
-0.0036099762
-0.004741972
-0.00617187
-0.0078967775
-0.0098767539
-0.01203234
-0.01425051
-0.016394976
-0.018318047
-0.019877981
-0.020959415
-0.021491647
-0.021458568
-0.020899286
-0.019896067
-0.01856343
-0.017020415
-0.015399006
-0.013786938
-0.012317852
-0.01099106
-0.010017294
-0.0092020614
-0.0011389045
0.0017962411
3.5180542e-05
-0.00072118361
-0.00046737848
-0.00068299837
-0.00064720918
-0.00071557081
-0.0007396295
-0.00077928866
-0.00082384147
-0.00089783965
-0.0010284567
-0.0011883445
-0.0014109423
-0.0017565727
-0.0022816799
-0.0030397373
-0.0040764878
-0.0054225137
-0.007089646
-0.009056789
-0.011261828
-0.01360322
-0.015949123
-0.018147652
-0.02004204
-0.021491153
-0.022391146
-0.022691621
-0.022401377
-0.021583967
-0.020341506
-0.018801773
-0.017089998
-0.01533838
-0.013631014
-0.012095358
-0.010724043
-0.0097213349
-0.0088866279
4.3245385e-05
-0.0011389047
0.0017713411
-0.00071260985
-0.00044162218
-0.00064894821
-0.00059448447
-0.00064694353
-0.00065011139
-0.00067444268
-0.00070210348
-0.00074562884
-0.00080668496
-0.00094029975
-0.0011230816
-0.001397755
-0.0018356594
-0.002494971
-0.0034288062
-0.0046775739
-0.0062661469
-0.0081916844
-0.01041179
-0.012840363
-0.015354408
-0.017803116
-0.020020502
-0.021844276
-0.023139265
-0.023818572
-0.02385636
-0.02328845
-0.022202701
-0.020719427
-0.018977161
-0.017104676
-0.015232264
-0.013438785
-0.011844443
-0.010434984
-0.0094078169
-0.0085569967
-0.00070851001
4.3245292e-05
-0.0011321892
0.0017223634
-0.00042459644
-0.00062265563
-0.00055097201
-0.00058817086
-0.00057091879
-0.00057456412
-0.0005840974
-0.00060958091
-0.00063977296
-0.00069268574
-0.0008416406
-0.0010676402
-0.0014209906
-0.0019805301
-0.0028062973
-0.0039470808
-0.0054393357
-0.0072970696
-0.0094986478
-0.011976878
-0.014621815
-0.017288629
-0.019808081
-0.022002571
-0.023709269
-0.024804929
-0.025225054
-0.024971942
-0.024109569
-0.022749077
-0.021026755
-0.019088965
-0.017065468
-0.015082522
-0.013212382
-0.011567175
-0.010125786
-0.0090785356
-0.0082148968
-0.00041652247
-0.00070851
3.5180276e-05
-0.0011191035
0.0016509646
-0.00060505851
-0.00051738559
-0.0005399121
-0.00050299418
-0.00048591421
-0.00047069229
-0.00047591229
-0.00048517588
-0.00050761396
-0.00056311746
-0.00074626755
-0.0010404295
-0.0015013228
-0.0022154547
-0.0032402529
-0.0046215643
-0.006388396
-0.0085396762
-0.011029731
-0.01376565
-0.0166131
-0.019405266
-0.021955718
-0.024079369
-0.02561887
-0.026469316
-0.026593674
-0.026025037
-0.024855568
-0.023217896
-0.021261499
-0.019137431
-0.016973962
-0.014891295
-0.012954008
-0.011265635
-0.0097983718
-0.0087353034
-0.0078620468
-0.00059646186
-0.00041652229
-0.00071260983
1.8690219e-05
-0.0011002122
0.0015595407
-0.00049498149
-0.00050302632
-0.00044704555
-0.00040976733
-0.00036992889
-0.00034697465
-0.00033574357
-0.00033265262
-0.00036095909
-0.00043016929
-0.00067120923
-0.0010615775
-0.0016629672
-0.0025654041
-0.0038243197
-0.0054806437
-0.0075525446
-0.010017395
-0.012802931
-0.015789558
-0.018818046
-0.021699655
-0.024233626
-0.026232918
-0.027552638
-0.028112662
-0.027907744
-0.027003267
-0.025518567
-0.02360529
-0.021422742
-0.019123582
-0.016832159
-0.014660876
-0.012665925
-0.010941947
-0.009454712
-0.008379964
-0.0075001155
-0.00048416223
-0.00059646154
-0.00042459597
-0.0007211835
-5.9897864e-06
-0.0010762633
0.0014510077
-0.00047894407
-0.0004039831
-0.00034700597
-0.00028344516
-0.00023243484
-0.00019143663
-0.00016694948
-0.00016613912
-0.00020891467
-0.00030920458
-0.00063574517
-0.0011549761
-0.0019311674
-0.0030580853
-0.0045880124
-0.0065549242
-0.0089593866
-0.011752841
-0.014834499
-0.018057379
-0.02123652
-0.02416263
-0.026625131
-0.028442016
-0.029488371
-0.02971487
-0.029151287
-0.027895537
-0.026092185
-0.023908703
-0.021510544
-0.019049056
-0.016642341
-0.014393697
-0.012350503
-0.01059837
-0.0090968731
-0.0080143531
-0.0071308143
-0.0004678452
-0.00048416171
-0.00060505744
-0.0004416213
-0.00073417792
-3.8243036e-05
-0.0010482788
0.0013285941
-0.00037545848
-0.00029871928
-0.00021222166
-0.00013414171
-6.2855682e-05
-6.4079229e-06
1.9092007e-05
9.1895389e-06
-6.2798851e-05
-0.00021857979
-0.00066324286
-0.0013459269
-0.0023337162
-0.0037236359
-0.0055640227
-0.0078758633
-0.010636282
-0.013767291
-0.017138522
-0.020574248
-0.0238637
-0.02678007
-0.029109343
-0.030682678
-0.031402734
-0.0312561
-0.030309478
-0.028692311
-0.026571609
-0.024126779
-0.02152584
-0.01891595
-0.016407049
-0.014092394
-0.012010353
-0.010237338
-0.0087269494
-0.0076402897
-0.0067559097
-0.00036187729
-0.00046784448
-0.0004949798
-0.0006226539
-0.00046737722
-0.00075121767
-7.753265e-05
-0.0010173757
0.0011955785
-0.0002668513
-0.0001574416
-5.3180628e-05
4.7903864e-05
0.00013735587
0.00019988175
0.00021876323
0.00018608261
6.0574091e-05
-0.00018099648
-0.000778782
-0.0016622125
-0.0029010258
-0.0045961047
-0.0067870783
-0.0094754974
-0.012609712
-0.016080396
-0.01972596
-0.023340691
-0.026689311
-0.029532667
-0.03166144
-0.032928786
-0.033271974
-0.032717348
-0.031369011
-0.029385787
-0.026953521
-0.024259264
-0.021470267
-0.018726785
-0.016129157
-0.013759988
-0.011648396
-0.0098613359
-0.0083468732
-0.0072594658
-0.0063767206
-0.00025184534
-0.00036187649
-0.00047894203
-0.00051738289
-0.00064894572
-0.00050101728
-0.00077217274
-0.00012331009
-0.00098471921
0.0010553922
-0.00012124347
9.102574e-06
0.00013942307
0.00026183413
0.0003626879
0.00042441991
0.00042597377
0.00035014951
0.00013958853
-0.00022103766
-0.0010100395
-0.0021343178
-0.0036678835
-0.0057127297
-0.0082935663
-0.011385616
-0.014905084
-0.018709321
-0.022603522
-0.026351537
-0.029697037
-0.032395972
-0.034253255
-0.035152855
-0.035072604
-0.034080939
-0.032318357
-0.029969942
-0.027235945
-0.024306945
-0.021346112
-0.018484572
-0.015812097
-0.013399987
-0.011267591
-0.0094723564
-0.0079581548
-0.0068733206
-0.0059933357
-0.00010405533
-0.00025184466
-0.00037545628
-0.00050302294
-0.00055096823
-0.00068299521
-0.00054199285
-0.00079697688
-0.00017505953
-0.00095143774
0.00091255396
5.0272667e-05
0.00020999233
0.00036510223
0.00050402408
0.00061007321
0.00066157693
0.00062809363
0.00048205395
0.00015041884
-0.00036591134
-0.0013874405
-0.0027973336
-0.0046732354
-0.0071136491
-0.0101205
-0.013637516
-0.017546021
-0.021667601
-0.025772285
-0.029594922
-0.032864221
-0.035340808
-0.036854055
-0.037326848
-0.036782061
-0.035330897
-0.033147928
-0.030440458
-0.027418251
-0.024271533
-0.021156333
-0.0181931
-0.015460036
-0.013015927
-0.010869944
-0.0090715616
-0.0075624936
-0.0064833383
-0.0056074898
6.9852989e-05
-0.00010405478
-0.00026684917
-0.00040397942
-0.00053990762
-0.00059447982
-0.00072426489
-0.00058982128
-0.00082557969
-0.00023164569
-0.00091867079
0.00077402846
0.00025674793
0.00044496608
0.0006215265
0.0007712865
0.00087420525
0.00090013749
0.00080776228
0.00056019944
6.6726097e-05
-0.00064567334
-0.0019461361
-0.0036912006
-0.0059601699
-0.0088407714
-0.012305118
-0.016261442
-0.020553317
-0.024963526
-0.029226272
-0.033051565
-0.036162022
-0.038334008
-0.039431449
-0.039422963
-0.038379215
-0.036453215
-0.033850184
-0.030794655
-0.027501097
-0.024155653
-0.020904936
-0.017857224
-0.015077173
-0.01260975
-0.010456106
-0.0086613038
-0.0071635466
-0.006092064
-0.0052112326
0.00027910683
6.9853451e-05
-0.00012124165
-0.00029871596
-0.00044704078
-0.00058816535
-0.00064720364
-0.00077232137
-0.00064398926
-0.00085698553
-0.00029079979
-0.00088641495
0.00062741203
0.00049803209
0.00071255198
0.00090548331
0.0010588623
0.0011454319
0.0011248439
0.00094546098
0.00056057941
-0.00014073979
-0.0010951219
-0.0027265636
-0.0048610956
-0.0075748761
-0.010937159
-0.014884378
-0.019285717
-0.023943228
-0.028598327
-0.032951233
-0.036694549
-0.039555993
-0.041339355
-0.041952312
-0.041414337
-0.039844809
-0.03743613
-0.034419678
-0.03103146
-0.027486338
-0.023963269
-0.020597422
-0.017481883
-0.014665318
-0.012181394
-0.010029427
-0.0082490006
-0.0067647265
-0.0056804704
-0.004800841
0.00052355035
0.00027910711
5.0273888e-05
-0.00015743883
-0.00034700152
-0.00050298837
-0.00064693732
-0.0007085714
-0.00082665774
-0.00070271057
-0.00088957247
-0.00035171817
-0.00084823819
0.00047199554
0.00077318176
0.0010095699
0.0012125578
0.0013582009
0.0014104024
0.0013180725
0.0010192286
0.00045642635
-0.00050566403
-0.0017545716
-0.0037752785
-0.0063566697
-0.0095658707
-0.013446465
-0.017894265
-0.022735084
-0.027725331
-0.032564422
-0.036923947
-0.040489634
-0.043006983
-0.04431862
-0.044383669
-0.043275654
-0.041161879
-0.038270406
-0.034852864
-0.031151343
-0.027377529
-0.023700417
-0.020239515
-0.017068654
-0.014223477
-0.011735661
-0.009602191
-0.0078385829
-0.0063291314
-0.0052551164
-0.0043801558
0.00080251723
0.00052355038
0.00025674851
9.1045744e-06
-0.00021221793
-0.00040976213
-0.00057091238
-0.00071556404
-0.00077790796
-0.00088480727
-0.00076506662
-0.00092021863
-0.0004205612
-0.00080513737
0.0003160308
0.0010790529
0.0013317959
0.0015348911
0.0016571328
0.0016529801
0.0014598255
0.0010044205
0.00021695913
-0.001067043
-0.0026711047
-0.0051445802
-0.0082312416
-0.011983316
-0.016412369
-0.021368317
-0.026628367
-0.031900248
-0.036844156
-0.041112144
-0.04439601
-0.046472242
-0.04723262
-0.046693504
-0.044983804
-0.042316263
-0.038949208
-0.035147986
-0.031156928
-0.027181011
-0.023373575
-0.019832421
-0.016615335
-0.013758315
-0.01129131
-0.0091787097
-0.0073619853
-0.0058834884
-0.0048179894
-0.0039515427
0.0011128771
0.00080251722
0.00049803238
0.00020999338
-5.3178117e-05
-0.00028344089
-0.00048590841
-0.00065010447
-0.00079327179
-0.00085204071
-0.00094543706
-0.00083051556
-0.0009531361
-0.00049352208
-0.00076009949
0.00016460746
0.0014115151
0.001671807
0.0018614691
0.0019412734
0.0018552188
0.0015274341
0.00087259721
-0.0001933553
-0.0018706645
-0.0038986559
-0.0068918546
-0.010541029
-0.014878476
-0.019877335
-0.025335255
-0.030975747
-0.036457761
-0.041409209
-0.045474992
-0.048367378
-0.049906618
-0.05004223
-0.04885165
-0.046518578
-0.043296651
-0.039467661
-0.035305999
-0.031054509
-0.026903932
-0.022983359
-0.019372387
-0.016130935
-0.013296653
-0.01085273
-0.0086509503
-0.0068789463
-0.0054236136
-0.0043725418
-0.0035137455
0.0014505457
0.001112877
0.00077318158
0.00044496633
0.00013942423
-0.00013413875
-0.00036992417
-0.00057455813
-0.00073962254
-0.00087603187
-0.00092970349
-0.0010090894
-0.0009036369
-0.00098679331
-0.00056640978
-0.00071587634
2.1548063e-05
0.0017633906
0.0020193668
0.0021794167
0.0021947617
0.0019962592
0.0014946113
0.00059105482
-0.00081645503
-0.0029695937
-0.0054976584
-0.0090787981
-0.013344557
-0.018302706
-0.023880355
-0.029815916
-0.03577623
-0.041375604
-0.046220672
-0.049964023
-0.052353243
-0.053263771
-0.052709501
-0.050830763
-0.047862905
-0.04409411
-0.039824017
-0.035332623
-0.030851725
-0.026545977
-0.022523982
-0.018871298
-0.015652301
-0.012842872
-0.010258639
-0.0081223994
-0.0063787588
-0.004955538
-0.0039171311
-0.0030674155
0.0018084254
0.0014505453
0.0010790523
0.0007125517
0.00036510258
4.7905217e-05
-0.0002324318
-0.00047068757
-0.00067443666
-0.00083447846
-0.00096259159
-0.0010115971
-0.0010847029
-0.00097763268
-0.0010211018
-0.00064125667
-0.00067140505
-0.00010759851
0.0021248647
0.0023626991
0.002473928
0.0023978452
0.0020518296
0.0013312091
0.00012101915
-0.0017015034
-0.0044241432
-0.0075344435
-0.011770772
-0.016701811
-0.022305407
-0.028453732
-0.034820132
-0.041015733
-0.04661898
-0.051229682
-0.054524438
-0.056300303
-0.056497506
-0.055198929
-0.052606748
-0.049002394
-0.044703085
-0.04002266
-0.035235686
-0.030546873
-0.02609865
-0.022010803
-0.018378302
-0.015183642
-0.012169243
-0.0096698854
-0.0075721926
-0.0058705522
-0.0044769572
-0.0034527263
-0.002612392
0.00217682
0.0018084249
0.0014115142
0.0010095691
0.0006215259
0.00026183422
-6.2854529e-05
-0.00034697165
-0.00058409279
-0.00077928298
-0.00093388628
-0.0010548244
-0.0011090687
-0.0011634462
-0.0010506732
-0.0010550767
-0.00071528648
-0.00063050267
-0.00021954329
0.0024849518
0.0026880604
0.0027264754
0.0025283019
0.0019940065
0.0010013136
-0.00058324856
-0.0029053183
-0.0063014126
-0.010080665
-0.015036065
-0.020672445
-0.026930824
-0.033619455
-0.040344057
-0.046665917
-0.052140742
-0.056378583
-0.059096616
-0.060153978
-0.059563335
-0.057478176
-0.054158289
-0.049926595
-0.045125502
-0.040071116
-0.035011469
-0.030127819
-0.02558135
-0.021508082
-0.017897303
-0.014413756
-0.011508386
-0.0090535152
-0.0070145824
-0.0053518169
-0.0039891998
-0.002979133
-0.0021490589
0.0025453292
0.0021768195
0.0017633893
0.0013317943
0.0009054818
0.00050402318
0.00013735575
-0.00019143568
-0.00047590968
-0.00070209936
-0.00088914113
-0.0010418457
-0.001167357
-0.0012107626
-0.0012435208
-0.0011271664
-0.0010882548
-0.00078445833
-0.00059916569
-0.00031185042
0.0028307857
0.0029781569
0.0029171395
0.0025603727
0.0017894123
0.00046245847
-0.0015753184
-0.0044922275
-0.0086747362
-0.013212725
-0.018944303
-0.025312741
-0.032214085
-0.039385774
-0.046368188
-0.052683733
-0.05788224
-0.061602498
-0.063617831
-0.063860252
-0.062419556
-0.059517606
-0.05546843
-0.05063382
-0.045367918
-0.039962844
-0.034642988
-0.029618522
-0.025076803
-0.021019354
-0.017013459
-0.013665308
-0.010811817
-0.0084314218
-0.0064464276
-0.0048241187
-0.0034919262
-0.0024969233
-0.00167773
0.0029017527
0.0025453286
0.002124863
0.0016718047
0.0012125554
0.00077128451
0.00036268642
-6.4086267e-06
-0.0003357432
-0.00060957877
-0.00082383789
-0.0010155304
-0.0011764927
-0.00128497
-0.0013136385
-0.0013267492
-0.0012077578
-0.0011248352
-0.00084704576
-0.00057944185
-0.00038245045
0.0031456949
0.0032137472
0.003021029
0.0024624868
0.0013985978
-0.00033574697
-0.0029166565
-0.006533744
-0.011623173
-0.017010435
-0.023563626
-0.030671488
-0.038177079
-0.045744334
-0.052856135
-0.059011771
-0.063774809
-0.066831176
-0.068024316
-0.067367142
-0.065026893
-0.061292071
-0.056530814
-0.05112869
-0.045419976
-0.039674451
-0.034159209
-0.029124133
-0.024588193
-0.020001322
-0.016160802
-0.01287112
-0.01011139
-0.0077991944
-0.0058696062
-0.0042870238
-0.0029858707
-0.0020065574
-0.0011988861
0.0032293749
0.002901752
0.0024849498
0.0020193639
0.0015348878
0.001058859
0.00061007037
0.00019987968
-0.00016695076
-0.00048517611
-0.00074562744
-0.00096534329
-0.0011767868
-0.0013140982
-0.0014040195
-0.0014202764
-0.0014130791
-0.0012902096
-0.0011657054
-0.00090395942
-0.0005709843
-0.00043134785
0.0034109195
0.0033706817
0.0030083678
0.0021976389
0.00077412597
-0.0014517235
-0.004676515
-0.009108395
-0.015230317
-0.021554502
-0.028956542
-0.036785317
-0.044824658
-0.052668025
-0.059754263
-0.065579474
-0.069741707
-0.071991267
-0.072253172
-0.070624533
-0.067350378
-0.062788877
-0.057347181
-0.051395851
-0.045249901
-0.039240268
-0.033692414
-0.028647543
-0.023413719
-0.019025618
-0.015250445
-0.012075594
-0.0094018656
-0.0071586253
-0.0052836319
-0.0037413607
-0.0024716041
-0.0015087898
-0.00071293998
0.0035096543
0.0032293741
0.0028307835
0.0023626958
0.001861465
0.0013581965
0.0008742011
0.00042441632
1.9089057e-05
-0.00033265483
-0.000639774
-0.00089783908
-0.0011491639
-0.0013339668
-0.0014516271
-0.0015278441
-0.0015320387
-0.0015030522
-0.0013729606
-0.0012101541
-0.0009571167
-0.00057243352
-0.00046062731
0.0036034082
0.0034217023
0.0028443098
0.0017211092
-0.00013944691
-0.0029521663
-0.0069319209
-0.012300995
-0.019582164
-0.02692254
-0.035174836
-0.043674
-0.052141468
-0.060109773
-0.066992433
-0.072305072
-0.075700576
-0.077008653
-0.076242465
-0.073586094
-0.069369101
-0.064006025
-0.05789549
-0.051392534
-0.04489749
-0.038825291
-0.033245326
-0.027291747
-0.022294504
-0.017977099
-0.014342379
-0.011272402
-0.0086847916
-0.006509564
-0.0046893896
-0.0031878464
-0.0019500768
-0.0010037311
-0.00022057498
0.0037203413
0.0035096537
0.0031456929
0.0026880567
0.0021794121
0.0016571276
0.0011454265
0.00066157172
0.00021875858
-0.00016614298
-0.00050761704
-0.00080668681
-0.0010992125
-0.0013251441
-0.0014894431
-0.0015961003
-0.001657468
-0.0016478417
-0.0015954655
-0.0014548046
-0.0012573461
-0.0010066797
-0.00058200415
-0.00047373308
0.0036960705
0.0033327341
0.0024860626
0.00098022542
-0.0014062111
-0.0049121498
-0.0097672208
-0.016201342
-0.024763505
-0.033183769
-0.042254008
-0.051336216
-0.060089753
-0.068002576
-0.074485754
-0.079098183
-0.081566179
-0.081808911
-0.079933119
-0.076220842
-0.071075991
-0.06491298
-0.058118502
-0.051163543
-0.044567016
-0.038432343
-0.031681058
-0.026006497
-0.021083173
-0.016935885
-0.013427956
-0.010462699
-0.0079599442
-0.0058526526
-0.0040877845
-0.0026276423
-0.001420782
-0.00049215135
0.00027769954
0.0038343976
0.0037203411
0.0034109177
0.0029781533
0.0024739232
0.0019412678
0.0014103961
0.00090013098
0.00042596763
9.1839482e-06
-0.00036096408
-0.00069268994
-0.0010284596
-0.0012955249
-0.0015004841
-0.001653638
-0.0017475482
-0.001791397
-0.0017659545
-0.0016890155
-0.0015345691
-0.0013062062
-0.0010520836
-0.00059769151
-0.0004747682
0.0036557043
0.0030625043
0.0018833176
-8.6689794e-05
-0.0030990829
-0.0074149474
-0.013273171
-0.020901603
-0.030852899
-0.040392708
-0.050207884
-0.059746342
-0.06860851
-0.07626082
-0.082137235
-0.085862947
-0.087251283
-0.086319052
-0.08328233
-0.078515139
-0.072430475
-0.065433746
-0.058064961
-0.050960208
-0.04426192
-0.036630475
-0.030205541
-0.024604412
-0.019885653
-0.015889992
-0.012508412
-0.0096460872
-0.0072278143
-0.0051891486
-0.0034801776
-0.0020591069
-0.00088540237
2.5513779e-05
0.00078137381
0.0038191437
0.0038343973
0.0036034068
0.0032137443
0.0027264709
0.0021947559
0.0016529735
0.0011248367
0.00062808632
0.00018607553
-0.00020892134
-0.00056312348
-0.00094030491
-0.0012484422
-0.0014933678
-0.0016869559
-0.00182582
-0.0019039383
-0.0019279641
-0.0018848947
-0.0017828493
-0.0016121596
-0.0013560028
-0.0010932057
-0.0006174533
-0.00046789194
0.003443417
0.0025624541
0.00097634301
-0.0015503144
-0.0052999622
-0.010551411
-0.017544939
-0.026492423
-0.037916214
-0.048582506
-0.059024361
-0.068852646
-0.077614067
-0.084782772
-0.089841249
-0.092499364
-0.092668038
-0.09048284
-0.086268615
-0.080416929
-0.073333212
-0.065619661
-0.058043085
-0.050787817
-0.042191921
-0.034939163
-0.028581438
-0.023224457
-0.018685517
-0.01484078
-0.011582963