/*--------------------------------*- C++ -*----------------------------------*\
| =========                 |                                                 |
| \\      /  F ield         | OpenFOAM: The Open Source CFD Toolbox           |
|  \\    /   O peration     | Version:  5.0                                   |
|   \\  /    A nd           | Web:      www.OpenFOAM.org                      |
|    \\/     M anipulation  |                                                 |
\*---------------------------------------------------------------------------*/
FoamFile
{
    version     2.0;
    format      ascii;
    class       surfaceScalarField;
    location    "60";
    object      phi;
}
// * * * * * * * * * * * * * * * * * * * * * * * * * * * * * * * * * * * * * //

dimensions      [0 3 -1 0 0 0 0];

internalField   nonuniform List<scalar> 
18180
(
0.00090950639
-1.3680887
0.0017531959
-1.2794286
0.000862237
-1.368951
0.0025478686
-1.1965981
0.0016592382
-1.2802256
0.00082723963
-1.3697782
0.0033035076
-1.1191274
0.0024113191
-1.1973502
0.0015964
-1.2809948
0.00079650717
-1.3705747
0.0040261526
-1.046668
0.0031242508
-1.1198404
0.0023213788
-1.1980751
0.0015383319
-1.2817366
0.00077107498
-1.3713458
0.0047220287
-0.97886013
0.0038044367
-1.0473482
0.0030072976
-1.1205263
0.0022377141
-1.1987745
0.0014920172
-1.2824576
0.00074982022
-1.3720956
0.0053952795
-0.91539112
0.0044567248
-0.97951242
0.003660771
-1.0480016
0.0028985818
-1.1211871
0.0021716934
-1.1994542
0.0014529739
-1.2831607
0.00073159144
-1.3728272
0.006050573
-0.85596615
0.0050853415
-0.91601974
0.0042860258
-0.98013767
0.0035268997
-1.04863
0.0028134597
-1.1218289
0.0021163601
-1.2001176
0.0014200726
-1.2838492
0.00071584949
-1.3735431
0.0066920717
-0.80031539
0.0056942689
-0.85657508
0.0048872728
-0.91662098
0.0041264524
-0.98073723
0.0034228601
-1.0492394
0.0027428174
-1.1224554
0.0020703387
-1.2007678
0.0013918873
-1.2845252
0.00070144725
-1.3742445
0.0073241653
-0.74818497
0.0062873492
-0.80090847
0.0054681932
-0.857156
0.0047010128
-0.91719554
0.0040032533
-0.98131762
0.0033373415
-1.0498339
0.0026849834
-1.12307
0.0020315521
-1.2014075
0.0013663459
-1.2851901
0.0006877113
-1.3749322
0.0079512979
-0.69934271
0.0068684822
-0.7487661
0.0060325198
-0.8014728
0.0052539118
-0.8577089
0.0045580204
-0.91775031
0.0039028412
-0.98188312
0.0032685484
-1.0504174
0.0026374198
-1.1236759
0.0019970167
-1.2020382
0.0013422739
-1.2858447
0.0006739469
-1.3756062
0.0085780751
-0.65356758
0.0074418273
-0.69991605
0.0065839976
-0.74931758
0.0057885645
-0.80200745
0.0050901055
-0.85824098
0.0044421838
-0.91828965
0.0038235045
-0.98243808
0.0032135755
-1.0509936
0.0025962227
-1.1242751
0.0019651535
-1.2026611
0.0013181206
-1.2864889
0.00065936978
-1.3762655
0.0092091132
-0.6106519
0.0080121259
-0.65413788
0.0071266107
-0.70045867
0.006308481
-0.74983749
0.0056025836
-0.80251993
0.0049578381
-0.85875663
0.0043521906
-0.91881834
0.0037620497
-0.98298655
0.003167636
-1.051565
0.0025595232
-1.1248695
0.0019335384
-1.2032765
0.001292495
-1.287122
0.00064339134
-1.3769089
0.0098486361
-0.57039644
0.0085850797
-0.61122486
0.0076647681
-0.65467603
0.0068174984
-0.70096768
0.0060986573
-0.75033357
0.0054524414
-0.80301453
0.0048565434
-0.85926099
0.0042845695
-0.91934086
0.0037128525
-0.98353177
0.0031286677
-1.0521342
0.0025239398
-1.1254599
0.0019002104
-1.2038842
0.0012642066
-1.2877428
0.00062547954
-1.3775344
0.010499606
-0.5326083
0.0091675567
-0.57097892
0.0082035676
-0.61176366
0.0073200128
-0.65517855
0.006581874
-0.7014509
0.0059288241
-0.75080995
0.0053386907
-0.80349668
0.004782454
-0.85975887
0.0042329816
-0.91986099
0.0036737841
-0.98407688
0.003092281
-1.0527025
0.0024870517
-1.1260467
0.0018633644
-1.2044833
0.0012322274
-1.2883496
0.00060527463
-1.3781397
0.011162333
-0.49710236
0.0097672491
-0.53320799
0.0087489449
-0.57152429
0.0078213265
-0.61226497
0.0070563126
-0.65565299
0.006390225
-0.7019123
0.0058009884
-0.75127225
0.0052572133
-0.80397144
0.0047287107
-0.8602546
0.0041953312
-0.92038254
0.0036394287
-0.98462403
0.0030557747
-1.0532712
0.0024463291
-1.1266297
0.0018214341
-1.2050726
0.0011957396
-1.28894
0.00058255443
-1.3787222
0.011832769
-0.46370347
0.010391379
-0.49772649
0.0093074298
-0.53376647
0.0083279547
-0.57203092
0.0075269047
-0.61273556
0.0068404659
-0.65610323
0.0062462501
-0.70235756
0.0057106339
-0.75172567
0.0052008969
-0.80444362
0.0046932911
-0.86075256
0.0041652025
-0.92090831
0.0036069613
-0.98517522
0.0030156892
-1.0538406
0.0023996546
-1.1272079
0.0017731432
-1.20565
0.0011541645
-1.2895116
0.00055713551
-1.3792794
0.012500995
-0.43225412
0.011044362
-0.46435646
0.0098851577
-0.49830422
0.0088476093
-0.53428613
0.0079997847
-0.5725038
0.00728428
-0.61317938
0.0066778742
-0.65653485
0.0061449817
-0.70279191
0.0056506968
-0.75217547
0.0051677568
-0.80491809
0.0046688571
-0.86125622
0.0041397907
-0.92144114
0.0035718418
-0.98573137
0.0029694865
-1.0544104
0.0023451685
-1.1277799
0.001717509
-1.2062133
0.0011072117
-1.2900617
0.00052893784
-1.3798083
0.013150564
-0.40262072
0.011724918
-0.43293467
0.010485952
-0.46495725
0.009388436
-0.49884504
0.0084824365
-0.53476878
0.0077277264
-0.57294725
0.0071001858
-0.61360169
0.0065631561
-0.65695303
0.0060797736
-0.70322099
0.0056191397
-0.75262685
0.0051496813
-0.80539891
0.0046527642
-0.86176919
0.0041133959
-0.9219827
0.0035312641
-0.98629315
0.0029145122
-1.0549798
0.0022814298
-1.1283438
0.00165388
-1.20676
0.001054759
-1.2905875
0.00049802809
-1.3803063
0.01375917
-0.37469992
0.012423548
-0.40331935
0.011108895
-0.43355762
0.0099571472
-0.46552596
0.0089832575
-0.49934586
0.0081783122
-0.53521937
0.0075187873
-0.57336585
0.0069689869
-0.61400752
0.0064904468
-0.6573637
0.0060484112
-0.70365026
0.0056072847
-0.75308446
0.0051442919
-0.80589044
0.0046381327
-0.86229393
0.0040830882
-0.92253452
0.0034815523
-0.98686019
0.0028488743
-1.0555472
0.0022073712
-1.1288973
0.0015819503
-1.2072872
0.00099683201
-1.2910863
0.00046457103
-1.3807709
0.014300796
-0.34841868
0.01312139
-0.37539777
0.011746092
-0.40395655
0.010556402
-0.43415687
0.0095101443
-0.46605285
0.0086448169
-0.49981237
0.0079410143
-0.53564159
0.0073676573
-0.57376452
0.006885935
-0.61440301
0.0064572183
-0.65777251
0.0060418665
-0.70408484
0.005613075
-0.75355324
0.0051435762
-0.80639589
0.004622051
-0.86283289
0.0040440097
-0.92309698
0.0034204236
-0.98743174
0.0027708751
-1.0561107
0.0021223673
-1.1294377
0.0015017415
-1.2077921
0.00093368305
-1.2915555
0.00042881449
-1.3811997
0.014749058
-0.32372966
0.013791139
-0.34908843
0.01238155
-0.37603323
0.011182023
-0.40458217
0.010067998
-0.43471472
0.0091366896
-0.46654472
0.0083759612
-0.50024732
0.0077663407
-0.53604028
0.0072708359
-0.57414942
0.0068481068
-0.6147939
0.0064543547
-0.65818499
0.0060584121
-0.70453018
0.0056274798
-0.75403714
0.0051447798
-0.80691862
0.004598392
-0.86338727
0.0039935505
-0.9236701
0.0033453195
-0.98800618
0.0026794836
-1.0566678
0.0020261725
-1.1299622
0.0014135439
-1.2082719
0.00086575394
-1.2919924
0.00039107747
-1.3815908
0.015080926
-0.300601
0.014400323
-0.32433885
0.01299177
-0.34969865
0.011821133
-0.37667234
0.010655687
-0.40516986
0.0096615015
-0.43523954
0.0088337096
-0.46700247
0.0081743622
-0.50065534
0.0076516534
-0.53642109
0.0072249099
-0.57452623
0.0068465912
-0.61518613
0.0064803645
-0.65860695
0.0060881764
-0.70499088
0.0056480262
-0.75454039
0.0051404913
-0.80746072
0.0045642856
-0.86395801
0.0039280946
-0.92425288
0.0032547532
-0.98858145
0.0025740519
-1.0572157
0.0019189448
-1.1304676
0.0013178833
-1.2087241
0.00079362797
-1.2923949
0.00035172842
-1.3819425
0.015278556
-0.27900268
0.014916976
-0.30111765
0.01354774
-0.32489482
0.012452192
-0.35032971
0.011263963
-0.37728061
0.010221591
-0.40572995
0.0093233784
-0.43572921
0.0086021421
-0.46743025
0.0080372149
-0.5010409
0.0075933336
-0.53678952
0.0072216458
-0.57490128
0.0068799345
-0.6155857
0.0065247876
-0.65904356
0.0061290696
-0.70547192
0.0056660807
-0.75506598
0.005127663
-0.80802409
0.0045149258
-0.86454484
0.0038456733
-0.9248438
0.0031474628
-0.98915487
0.0024544539
-1.0577512
0.0018011934
-1.1309509
0.0012155108
-1.2091459
0.0007179934
-1.2927612
0.00031116693
-1.3822537
0.015330447
-0.25889871
0.01531115
-0.27939686
0.014016777
-0.30158668
0.013047821
-0.32549045
0.011874108
-0.35093986
0.010811064
-0.37787008
0.0098500553
-0.40625663
0.009059968
-0.43618703
0.0084383933
-0.46783143
0.0079615728
-0.50140914
0.0075843519
-0.53715222
0.0072593446
-0.57528069
0.0069374098
-0.61599833
0.0065859795
-0.65950047
0.0061713614
-0.7059772
0.0056785035
-0.75561682
0.0051002307
-0.8086094
0.0044478262
-0.865147
0.0037441692
-0.92544051
0.0030229083
-0.98972332
0.0023210571
-1.0582711
0.0016737541
-1.1314091
0.0011073516
-1.2095353
0.00063961951
-1.2930897
0.00026980421
-1.3825235
0.015244414
-0.24023879
0.015557957
-0.25914551
0.01437308
-0.27975316
0.013575722
-0.30211459
0.012458986
-0.32607533
0.011414909
-0.3515437
0.010411298
-0.37843133
0.0095556367
-0.4067523
0.008866598
-0.43661524
0.0083405335
-0.46821039
0.0079419924
-0.50176678
0.0076225324
-0.53751541
0.0073273557
-0.57567064
0.0070178157
-0.61643016
0.0066532929
-0.6599824
0.0062119142
-0.70651061
0.0056779861
-0.75619458
0.0050551706
-0.80921674
0.0043598389
-0.86576266
0.0036225421
-0.92604014
0.0028810993
-0.99028336
0.0021745713
-1.0587719
0.0015377478
-1.1318395
0.00099447853
-1.2098902
0.00055931856
-1.2933792
0.00022805479
-1.3827516
0.015024486
-0.22294934
0.015647111
-0.24032795
0.014599338
-0.25937177
0.014005576
-0.28018302
0.012990289
-0.30264589
0.012008611
-0.32666903
0.010995638
-0.35212804
0.010090747
-0.37896644
0.0093314491
-0.40721715
0.0087426355
-0.43701734
0.0083047444
-0.46857314
0.007975841
-0.50212009
0.0076976047
-0.53788566
0.0074248572
-0.57607768
0.0071098261
-0.6168867
0.0067236854
-0.66049417
0.0062422578
-0.70707489
0.0056609642
-0.75680037
0.0049881855
-0.80984509
0.0042492987
-0.86638942
0.0034801854
-0.92663923
0.0027224854
-0.99083128
0.0020161774
-1.0592503
0.001394473
-1.1322395
0.00087807877
-1.2102089
0.00047792267
-1.293629
0.00018633487
-1.3829379
0.014684057
-0.20695169
0.015578353
-0.22288058
0.014682495
-0.2404111
0.014313749
-0.25967994
0.013437398
-0.28063013
0.01256146
-0.30319874
0.011582346
-0.32725574
0.010657083
-0.35269438
0.0098374351
-0.37947242
0.00917922
-0.40765373
0.0086852398
-0.43739783
0.0083286057
-0.46892591
0.0080534708
-0.50247595
0.0078090067
-0.53826981
0.0075401296
-0.57650798
0.0072105697
-0.61737358
0.0067876707
-0.66103959
0.0062583165
-0.70767224
0.0056219389
-0.75743413
0.0048968691
-0.81049266
0.0041147773
-0.86702401
0.003317159
-0.9272339
0.0025481249
-0.99136322
0.0018472684
-1.0597031
0.0012453976
-1.1326068
0.00075939083
-1.2104904
0.00039626644
-1.293839
0.00014505402
-1.3830829
0.014241389
-0.19214954
0.015357506
-0.20673085
0.014626177
-0.22282426
0.014483833
-0.24058119
0.013772462
-0.26001501
0.013041561
-0.28111023
0.012142846
-0.30375924
0.011236224
-0.32783488
0.010380437
-0.35323738
0.0096574751
-0.37995068
0.0090963587
-0.40806485
0.0086930673
-0.43776229
0.008403298
-0.46927573
0.0081744461
-0.50284139
0.0079449549
-0.53867464
0.0076705187
-0.57696793
0.0073097391
-0.61789565
0.0068407202
-0.66162199
0.006253397
-0.7083037
0.0055576683
-0.75809493
0.0047787952
-0.81115668
0.0039557635
-0.86766262
0.0031341651
-0.92781994
0.0023593758
-0.99187533
0.0016695712
-1.0601273
0.0010920889
-1.1329395
0.00063966911
-1.2107338
0.0003151579
-1.2940091
0.00010460113
-1.3831875
0.013714901
-0.17843816
0.014995663
-0.1917877
0.014432501
-0.20653717
0.014504119
-0.22284455
0.0139747
-0.24078343
0.013420235
-0.26039368
0.012644709
-0.28161209
0.011801368
-0.30432438
0.010946305
-0.32840074
0.010177034
-0.35375694
0.0095478012
-0.38040212
0.0090828984
-0.40845468
0.0087586554
-0.43811765
0.0085283998
-0.46962969
0.0083272583
-0.5032237
0.0081030264
-0.53910714
0.0078051325
-0.57746333
0.0074024361
-0.61845737
0.0068750156
-0.66224361
0.0062233715
-0.7089694
0.0054645968
-0.75878073
0.0046326985
-0.81183362
0.0037723851
-0.86830084
0.0029323794
-0.92839294
0.002158067
-0.99236383
0.0014849159
-1.0605201
0.00093622167
-1.1332361
0.00052006997
-1.2109387
0.00023536653
-1.2941398
6.5332064e-05
-1.3832529
0.01127074
-0.19467122
0.01451242
-0.17795492
0.014114231
-0.19146943
0.014375763
-0.20640881
0.014034554
-0.2229044
0.013675518
-0.24103871
0.013056481
-0.26080545
0.012320671
-0.28213139
0.011510748
-0.30488882
0.010727081
-0.32895079
0.010042421
-0.35425156
0.009510095
-0.38082932
0.0091333618
-0.40882939
0.0088815684
-0.43847082
0.0086930072
-0.46999544
0.0085097101
-0.50363038
0.008272005
-0.53957402
0.0079388001
-0.57799969
0.007479843
-0.61906219
0.0068855378
-0.66290578
0.0061634681
-0.70966827
0.005340533
-0.75948856
0.0044579122
-0.81251914
0.0035654356
-0.86893389
0.0027135449
-0.92894842
0.0019462038
-0.99282511
0.0012953143
-1.0608792
0.00077937078
-1.1334954
0.00040178089
-1.2111051
0.00015760867
-1.2942321
2.7613697e-05
-1.3832805
0.0092102568
-0.19364176
0.012183272
-0.19234207
0.013688439
-0.17752912
0.01410955
-0.19120321
0.013954511
-0.20632877
0.01379384
-0.22302272
0.013352083
-0.24133431
0.012761934
-0.26124672
0.012042757
-0.2826634
0.011286457
-0.3054482
0.010573576
-0.32948195
0.009980934
-0.3547224
0.0095408776
-0.38123683
0.0092475573
-0.40919538
0.0090518021
-0.43882962
0.0088951427
-0.47038087
0.008710541
-0.50406892
0.0084465505
-0.54008177
0.0080618744
-0.57858172
0.0075360906
-0.61971275
0.0068662694
-0.66360858
0.0060704333
-0.71039817
0.0051838139
-0.76021446
0.0042546298
-0.81320834
0.0033363701
-0.86955672
0.0024797235
-0.92948194
0.0017260849
-0.99325589
0.0011027561
-1.0612026
0.00062313479
-1.1337167
0.00028589324
-1.2112334
8.2475202e-05
-1.294287
-7.9550172e-06
-1.3832725
0.0074745594
-0.19256491
0.0102013
-0.19165979
0.011487001
-0.19014063
0.013722274
-0.17714185
0.013740688
-0.19098939
0.013769889
-0.20630482
0.013514099
-0.22318474
0.013097199
-0.24166958
0.012509136
-0.2617131
0.011826006
-0.28320295
0.011123728
-0.30599835
0.010492419
-0.32999343
0.0099903812
-0.3551719
0.0096407477
-0.38163002
0.0094166613
-0.40956024
0.0092676254
-0.4392021
0.0091237875
-0.47079411
0.0089243483
-0.50454671
0.0086163936
-0.54063629
0.0081677195
-0.57921335
0.0075639457
-0.62041042
0.0068128041
-0.66435095
0.0059414322
-0.71115579
0.0049938034
-0.76095364
0.0040237864
-0.81389575
0.003087129
-0.87016413
0.0022333845
-0.92998924
0.0015000564
-0.99365319
0.00090925257
-1.0614887
0.0004689819
-1.1338998
0.00017335742
-1.2113243
1.0610583e-05
-1.2943056
-4.2092992e-05
-1.3832304
0.0060039766
-0.19147403
0.0084981236
-0.19086173
0.009617678
-0.18979047
0.011621002
-0.18803936
0.013405804
-0.17680696
0.013607439
-0.19082694
0.013536786
-0.20632751
0.013306124
-0.22339367
0.012879394
-0.24203984
0.012312698
-0.26219979
0.011665857
-0.28374508
0.011030595
-0.30653653
0.010482712
-0.33048576
0.010072622
-0.35560377
0.0098023482
-0.38201571
0.0096392957
-0.40993191
0.0095185493
-0.43959686
0.0093735881
-0.47124336
0.0091404703
-0.50507079
0.0087742484
-0.54124282
0.0082479734
-0.57989738
0.0075578106
-0.62115543
0.006721002
-0.66513052
0.0057747846
-0.71193677
0.004770674
-0.76170052
0.0037669851
-0.81457561
0.0028201964
-0.87075094
0.0019771581
-0.93046634
0.0012705548
-0.99401449
0.00071672126
-1.0617365
0.00031824693
-1.1340447
6.4951044e-05
-1.2113786
-5.7853709e-05
-1.2942898
-7.4473561e-05
-1.383156
0.0047426229
-0.19041099
0.0070105634
-0.18998647
0.0080158114
-0.18925987
0.0098301243
-0.18799959
0.011417847
-0.1860514
0.01331972
-0.17651924
0.013420659
-0.19071081
0.01337745
-0.20639883
0.013129819
-0.22364409
0.012714616
-0.24244175
0.012167392
-0.26270132
0.011571229
-0.28428571
0.011007797
-0.30706161
0.010547502
-0.33096064
0.01022206
-0.35602349
0.010024876
-0.38240129
0.0099057854
-0.41031914
0.0097993901
-0.44002266
0.0096337492
-0.47173663
0.0093511162
-0.50564766
0.008910758
-0.5419056
0.008295864
-0.58063543
0.0075121634
-0.62194659
0.0065879543
-0.66594369
0.0055696549
-0.71273575
0.004515439
-0.76244898
0.0034865192
-0.81524193
0.0025383611
-0.87131214
0.0017138611
-0.93090965
0.0010399675
-0.99433773
0.00052696586
-1.0619452
0.00017212664
-1.1341519
-3.8666641e-05
-1.2113978
-0.00012257292
-1.2942417
-0.00010474028
-1.3830512
0.0036394907
-0.18942188
0.0056813417
-0.18908177
0.006619429
-0.18859009
0.0082822794
-0.18771202
0.0097205598
-0.1863023
0.011432833
-0.18416452
0.013175737
-0.17627432
0.013310168
-0.19064353
0.013246113
-0.20651513
0.013005439
-0.22393491
0.012595185
-0.24286955
0.012082979
-0.26321307
0.011544555
-0.28482247
0.011059257
-0.30757337
0.010683135
-0.33142172
0.010438754
-0.35643736
0.010299769
-0.38279527
0.010211248
-0.410731
0.010099496
-0.44048841
0.0098961438
-0.47228166
0.0095461136
-0.50628302
0.0090180477
-0.54262779
0.0083044694
-0.58142774
0.0074227263
-0.62278136
0.0064115908
-0.66678563
0.005326201
-0.71354652
0.0042299584
-0.76319242
0.0031851607
-0.81588873
0.0022447292
-0.87184301
0.0014463431
-0.93131603
0.00081060511
-0.99462137
0.00034163635
-1.0621147
3.165735e-05
-1.1342222
-0.00013692746
-1.2113835
-0.00018323313
-1.2941632
-0.00013277713
-1.3829185
0.0026496719
-0.18855439
0.0044609126
-0.18820146
0.0053718965
-0.18783423
0.0069138746
-0.18722168
0.0082464639
-0.18623793
0.0098146445
-0.18468411
0.011384406
-0.18237319
0.013111143
-0.1760753
0.013225138
-0.19062256
0.013167545
-0.20667723
0.012920334
-0.22426006
0.01253214
-0.24331871
0.012063417
-0.26373194
0.011590314
-0.28535353
0.011183215
-0.30807345
0.0108908
-0.33187376
0.01071556
-0.35685316
0.0106226
-0.38320663
0.01054547
-0.41117698
0.010410604
-0.44100287
0.010149999
-0.47288555
0.009716602
-0.50698157
0.009087838
-0.54341115
0.0082680595
-0.58227307
0.0072860055
-0.62365578
0.0061909493
-0.66765037
0.0050455726
-0.71436213
0.003916755
-0.76392401
0.0028661564
-0.81651016
0.0019425579
-0.87233922
0.0011774373
-0.93168286
0.00058463481
-0.99486437
0.00016221224
-1.0622452
-0.0001022763
-1.1342569
-0.00022935881
-1.2113373
-0.00023964137
-1.2940563
-0.00015851988
-1.3827599
0.0017344942
-0.1878535
0.0033092183
-0.18740269
0.0042249744
-0.18705453
0.0056682191
-0.18658858
0.0069324156
-0.18590763
0.008398312
-0.18482159
0.0098460383
-0.18314574
0.011413047
-0.18067509
0.013070765
-0.17592092
0.013193582
-0.1906486
0.013121832
-0.20687873
0.012887653
-0.22461558
0.012530744
-0.24378603
0.012113416
-0.26425504
0.011708398
-0.28587871
0.011382167
-0.30856481
0.011165024
-0.33232323
0.011048709
-0.35727927
0.010983881
-0.38364504
0.010900283
-0.41166665
0.010721597
-0.44157447
0.010385631
-0.47355458
0.0098530438
-0.50774678
0.0091129246
-0.54425602
0.0081815786
-0.58316865
0.0070996756
-0.62456451
0.0059261797
-0.66853098
0.0047297703
-0.71517515
0.0035790152
-0.76463687
0.002533064
-0.81710067
0.0016351845
-0.87279697
0.00090987295
-0.9320081
0.00036404784
-0.99506621
-1.0024663e-05
-1.0623375
-0.00022894642
-1.1342573
-0.00031562519
-1.2112614
-0.00029165893
-1.2939232
-0.00018196612
-1.382578
0.00086090825
-0.18735766
0.0021955207
-0.1867398
0.0031393883
-0.18631711
0.0044977996
-0.18588411
0.0057217657
-0.18537793
0.0071200819
-0.1846294
0.0084917256
-0.18346728
0.0099499979
-0.1816827
0.011460698
-0.17906502
0.013084359
-0.1758117
0.013188613
-0.19071538
0.013125216
-0.2071163
0.012913938
-0.22499877
0.012595622
-0.24426824
0.012234162
-0.2647808
0.011902654
-0.2863992
0.011652415
-0.3090522
0.011502928
-0.33277745
0.011429716
-0.3577251
0.011375796
-0.38412055
0.011264517
-0.41220957
0.011022178
-0.44221102
0.010592401
-0.47429393
0.0099468018
-0.50858065
0.0090866141
-0.54516105
0.0080411375
-0.58411011
0.0068626034
-0.62550093
0.005618455
-0.66941966
0.0043816598
-0.71597779
0.0032204245
-0.76532423
0.0021896548
-0.81765514
0.0013259176
-0.87321302
0.00064622331
-0.93229027
0.00015061954
-0.99522685
-0.0001739932
-1.0623924
-0.00034779304
-1.1342251
-0.00039549406
-1.2111575
-0.00033923192
-1.2937659
-0.00020314375
-1.3823748
-0.18709522
2.1744018e-09
0.0010976499
-0.18625979
0.0020859109
-0.18568632
0.0033660544
-0.18518536
0.0045677185
-0.18473007
0.0059231014
-0.18418095
0.0072555908
-0.18339327
0.0086516349
-0.18216892
0.010068881
-0.18029088
0.011556542
-0.17753721
0.013119404
-0.17574249
0.013229873
-0.19082003
0.013185999
-0.20738836
0.013003393
-0.22540654
0.012728796
-0.24476287
0.012430762
-0.26530891
0.012171107
-0.28691789
0.011992188
-0.30954147
0.01189729
-0.33324502
0.011851376
-0.35820068
0.011787444
-0.38464348
0.011627523
-0.41281492
0.011300814
-0.44291943
0.010760339
-0.47510747
0.0099895333
-0.50948357
0.0090033049
-0.54612322
0.0078440606
-0.58509156
0.0065748165
-0.62645729
0.0052700153
-0.67030802
0.0040048232
-0.71676219
0.002845061
-0.76597964
0.001839792
-0.81816901
0.0010179621
-0.87358475
0.00038884644
-0.9325285
-5.41106e-05
-0.99534673
-0.0003288197
-1.0624114
-0.00045841176
-1.1341622
-0.00046884412
-1.2110279
-0.00038237449
-1.2935867
-0.00022210534
-1.3821527
-0.18599757
2.6169574e-09
-0.18709522
-0.00086090398
0.0010440655
-0.18521795
0.0022477161
-0.18456798
0.0034354484
-0.18405309
0.0047609061
-0.18356787
0.0060799068
-0.18300526
0.0074510818
-0.18219272
0.0088238522
-0.18092389
0.010230788
-0.17896512
0.011669792
-0.17608759
0.013196737
-0.17570936
0.013328632
-0.19096267
0.013307474
-0.20769244
0.01315833
-0.22583607
0.012936464
-0.24526857
0.012702784
-0.26584059
0.012513216
-0.28743892
0.012395732
-0.31003991
0.01234178
-0.33373542
0.01230339
-0.35871663
0.012208134
-0.38522409
0.011977147
-0.41349125
0.011546368
-0.44370546
0.010879509
-0.47599745
0.0099738438
-0.51045411
0.0088585695
-0.54713773
0.0075889239
-0.58610567
0.0062375941
-0.62742487
0.0048840473
-0.67118724
0.0036034478
-0.71752057
0.0024572561
-0.7665971
0.0014873256
-0.81863838
0.00071433546
-0.87391024
0.00013984865
-0.93272246
-0.00024885138
-0.9954267
-0.00047383613
-1.062396
-0.00056054774
-1.1340705
-0.00053565179
-1.2108746
-0.00042115673
-1.2933876
-0.00023892357
-1.3819138
-0.18495351
2.4999004e-09
-0.18599757
-0.0010976448
-0.18735766
-0.0017344899
0.001127954
-0.18409819
0.0023025122
-0.18343505
0.003600247
-0.18289243
0.0049183541
-0.18240632
0.0062894378
-0.18184362
0.0076569843
-0.18102585
0.0090345963
-0.1797277
0.010409105
-0.17770444
0.011818903
-0.17470976
0.013333386
-0.17571411
0.013486499
-0.19114169
0.013491614
-0.20802572
0.013385844
-0.22628545
0.013219472
-0.24578526
0.013050912
-0.26637828
0.01292479
-0.28796798
0.012857836
-0.31055596
0.012827012
-0.33425905
0.012775366
-0.35928386
0.012625417
-0.38587236
0.012301312
-0.4142462
0.01174744
-0.44457339
0.010940714
-0.47696432
0.0098933992
-0.51148894
0.0086492512
-0.54819806
0.0072756981
-0.58714378
0.0058533877
-0.62839421
0.0044645838
-0.67204838
0.0031821825
-0.7182455
0.0020614707
-0.76717125
0.0011359852
-0.81906002
0.00041781217
-0.87418821
-9.8946182e-05
-0.93287236
-0.00043256447
-0.99546797
-0.00060857094
-1.062348
-0.00065408396
-1.1339521
-0.0005959802
-1.2106998
-0.00045569571
-1.2931709
-0.00025368636
-1.3816601
-0.18382556
2.6095842e-09
-0.18495351
-0.0010440605
-0.18625979
-0.0021955157
-0.1878535
-0.0026496679
0.0011580881
-0.18295376
0.0024220271
-0.18225683
0.0037387063
-0.18171278
0.00511999
-0.18123687
0.0065076778
-0.18069431
0.0078974995
-0.17988875
0.0092618469
-0.17858044
0.010619191
-0.17650473
0.012023027
-0.1733994
0.013528795
-0.17575641
0.013704446
-0.19135452
0.013746293
-0.20838617
0.013687787
-0.22675377
0.013579622
-0.24631397
0.013472495
-0.26692599
0.013401932
-0.28851207
0.013370303
-0.31109926
0.013343239
-0.33482692
0.01325494
-0.35991338
0.013026586
-0.38659763
0.012587358
-0.41508611
0.01189309
-0.44552576
0.010935629
-0.47800655
0.0097430813
-0.51258277
0.0083736796
-0.54929604
0.0069057307
-0.58819612
0.0054257492
-0.62935537
0.004016366
-0.67288256
0.0027459964
-0.71893003
0.0016621552
-0.76769742
0.00078929506
-0.81943151
0.00013087151
-0.87441802
-0.00032600885
-0.93297892
-0.0006044586
-0.99547209
-0.00073273737
-1.0622693
-0.00073902636
-1.133809
-0.00064996534
-1.2105055
-0.0004861453
-1.2929384
-0.00026649348
-1.3813936
-0.18266747
2.943918e-09
-0.18382556
-0.0011279488
-0.18521795
-0.0020859061
-0.1867398
-0.0033092135
-0.18855439
-0.0036394869
0.0012204279
-0.18175216
0.002524755
-0.18104287
0.003912023
-0.18050482
0.0053287745
-0.18005797
0.0067567682
-0.17955358
0.0081544712
-0.17878138
0.0095180131
-0.17747926
0.010878544
-0.17536024
0.012281545
-0.17215215
0.013781957
-0.17583392
0.013991041
-0.19159927
0.014074116
-0.2087725
0.014066872
-0.22724102
0.014015645
-0.24685712
0.013965036
-0.26748909
0.013937852
-0.28907962
0.013924356
-0.31168037
0.013878574
-0.33545055
0.013729139
-0.36061593
0.013397999
-0.38740828
0.012822751
-0.41601577
0.011972999
-0.44656314
0.010857007
-0.47912047
0.0095192748
-0.51372837
0.0080317161
-0.55042203
0.0064817139
-0.58925208
0.0049592133
-0.63029822
0.0035446955
-0.67368126
0.0023000131
-0.71956788
0.001263638
-0.76817176
0.00045050161
-0.81975114
-0.00014433621
-0.8745997
-0.00054010775
-0.93304327
-0.00076398009
-0.99544084
-0.00084621663
-1.0621621
-0.00081548843
-1.1336435
-0.00069780441
-1.2102939
-0.00051268762
-1.2926922
-0.00027745378
-1.3811162
-0.18144705
3.7230685e-09
-0.18266747
-0.0011580822
-0.18409819
-0.0022477111
-0.18568632
-0.0031393838
-0.18740269
-0.0044609082
-0.18942189
-0.0047426194
0.0012750353
-0.18050244
0.0026519823
-0.17978283
0.0040902072
-0.17926625
0.005564039
-0.17886524
0.007021914
-0.17842102
0.0084383998
-0.17770176
0.0098176906
-0.17641841
0.011187873
-0.17426657
0.012590351
-0.17096054
0.014101961
-0.17594484
0.014349449
-0.1918746
0.014478445
-0.20918407
0.014522982
-0.22774836
0.014526419
-0.24741851
0.014523284
-0.26807452
0.014525022
-0.28968029
0.014508966
-0.31231077
0.014420202
-0.33614161
0.014183708
-0.36140164
0.013725767
-0.38831129
0.01299526
-0.41703803
0.011977702
-0.44768383
0.010699036
-0.48030023
0.0092199883
-0.51491664
0.0076247867
-0.5515651
0.0060076125
-0.59030048
0.0044591589
-0.63121269
0.0030552481
-0.6744365
0.0018493699
-0.72015362
0.00087001954
-0.76859128
0.00012251183
-0.82001799
-0.00040600432
-0.8747338
-0.0007403052
-0.93306694
-0.000910797
-0.99537626
-0.00094904059
-1.0620286
-0.00088367431
-1.1334576
-0.0007397416
-1.2100668
-0.0005355264
-1.2924341
-0.00028668253
-1.3808295
-0.18017202
4.6619982e-09
-0.18144705
-0.0012204207
-0.18295376
-0.0023025066
-0.18456798
-0.0033660497
-0.18631711
-0.0042249702
-0.18820146
-0.0056813377
-0.19041099
-0.0060039734
0.001342816
-0.17919328
0.0027814544
-0.17847408
0.0042899913
-0.1779922
0.005814316
-0.17765764
0.0073119537
-0.17729458
0.0087606234
-0.17664469
0.010163522
-0.17539406
0.011543123
-0.17321934
0.012958805
-0.16981739
0.014492555
-0.17608794
0.014783425
-0.19217958
0.014960048
-0.20962114
0.015056227
-0.22827817
0.015108253
-0.24800348
0.015141171
-0.26869067
0.015153603
-0.29032492
0.015111895
-0.31300246
0.014953677
-0.33691158
0.014603729
-0.36227961
0.013995924
-0.38931196
0.013093198
-0.41815353
0.011899008
-0.4488838
0.010457538
-0.48153778
0.0088449607
-0.51613681
0.0071558656
-0.55271335
0.0054885465
-0.59132987
0.0039316121
-0.63208905
0.0025539088
-0.67514104
0.0013990759
-0.72068267
0.00048508601
-0.76895385
-0.00019214567
-0.82023184
-0.00065267524
-0.87482143
-0.0009259457
-0.93305179
-0.0010447805
-0.99528052
-0.0010413707
-1.0618709
-0.0009438619
-1.1332535
-0.00077605894
-1.2098263
-0.00055488091
-1.292166
-0.00029429757
-1.3805352
-0.17882921
5.6467642e-09
-0.18017202
-0.0012750262
-0.18175216
-0.0024220199
-0.18343505
-0.0034354429
-0.18518536
-0.0044977952
-0.18705453
-0.0053718927
-0.18908177
-0.0070105599
-0.19147403
-0.0074745565
0.0014104765
-0.1778223
0.0029265971
-0.17711069
0.0045024258
-0.17668031
0.0060865309
-0.17643222
0.0076353872
-0.17616934
0.009125186
-0.17560636
0.010552434
-0.17440337
0.011951988
-0.17221253
0.013391658
-0.16871649
0.01495776
-0.17626228
0.01529438
-0.19251392
0.015520063
-0.21008497
0.015664396
-0.22883431
0.015756655
-0.24861896
0.015810309
-0.26934738
0.01581233
-0.29102536
0.015718971
-0.31376775
0.015463466
-0.33777132
0.014973784
-0.36325747
0.014194667
-0.39041342
0.013105904
-0.41936043
0.011730275
-0.45015654
0.010130159
-0.48282298
0.0083957248
-0.51737667
0.0066294093
-0.55385421
0.0049306044
-0.59232886
0.0033830648
-0.63291821
0.0020465949
-0.67578855
0.00095389023
-0.72115148
0.00011223891
-0.76925824
-0.00049134264
-0.82039318
-0.0008832374
-0.87486414
-0.0010966388
-0.93299994
-0.0011659812
-0.99515591
-0.0011234771
-1.0616913
-0.00099638737
-1.1330332
-0.00080706515
-1.2095741
-0.00057097969
-1.2918893
-0.00030041712
-1.3802348
-0.17741874
6.749968e-09
-0.17882921
-0.0013428047
-0.18050244
-0.0025247459
-0.18225683
-0.0036002402
-0.18405309
-0.0045677135
-0.18588412
-0.005668215
-0.18783423
-0.0066194257
-0.18998647
-0.0084981208
-0.19256491
-0.0092102543
0.0014867888
-0.17638249
0.0030809667
-0.17568923
0.0047330389
-0.17532682
0.0063874359
-0.17518427
0.007996963
-0.17504112
0.0095297048
-0.17458363
0.010990029
-0.17344141
0.012419983
-0.17124085
0.013893279
-0.16765201
0.015499402
-0.1764673
0.015884244
-0.1928781
0.016157582
-0.21057816
0.016344562
-0.22942222
0.016464854
-0.2492735
0.016520744
-0.27005579
0.016487758
-0.29179415
0.016314516
-0.3146188
0.01593308
-0.33873062
0.015278168
-0.36434097
0.01430887
-0.39161639
0.013024067
-0.42065422
0.011466681
-0.45149306
0.0097165234
-0.48414378
0.0078756083
-0.51862287
0.0060511931
-0.5549748
0.0043406557
-0.59328645
0.0028202679
-0.63369188
0.0015390935
-0.67637376
0.00051821943
-0.72155746
-0.0002455577
-0.76950402
-0.00077335819
-0.82050306
-0.0010969131
-0.87486387
-0.0012522336
-0.93291368
-0.001274603
-0.99500479
-0.0011957165
-1.0614919
-0.0010416311
-1.1327986
-0.00083309264
-1.209312
-0.00058405957
-1.2916056
-0.00030515725
-1.3799296
-0.17593196
8.0397528e-09
-0.17741874
-0.001410463
-0.17919328
-0.0026519714
-0.18104287
-0.0037386977
-0.18289243
-0.0047608996
-0.18473007
-0.005721761
-0.18658858
-0.0069138709
-0.18859009
-0.0080158086
-0.19086174
-0.010201298
-0.19364176