/*--------------------------------*- C++ -*----------------------------------*\
| =========                 |                                                 |
| \\      /  F ield         | OpenFOAM: The Open Source CFD Toolbox           |
|  \\    /   O peration     | Version:  5.0                                   |
|   \\  /    A nd           | Web:      www.OpenFOAM.org                      |
|    \\/     M anipulation  |                                                 |
\*---------------------------------------------------------------------------*/
FoamFile
{
    version     2.0;
    format      ascii;
    class       volScalarField;
    location    "60";
    object      pMean;
}
// * * * * * * * * * * * * * * * * * * * * * * * * * * * * * * * * * * * * * //

dimensions      [0 2 -2 0 0 0 0];

internalField   nonuniform List<scalar> 
9200
(
-0.00044849475
-0.00044245238
-0.00096201988
-0.00043793836
-0.00095520183
-0.0016472832
-0.00043181465
-0.00094329516
-0.0016337802
-0.0022457525
-0.00042429129
-0.00092544297
-0.0016139862
-0.0022293067
-0.0028681409
-0.0004155871
-0.00090245539
-0.001585249
-0.0022028193
-0.0028482219
-0.003461698
-0.00040540484
-0.00087556203
-0.001548165
-0.002164759
-0.0028155637
-0.0034400162
-0.0040477486
-0.00039414672
-0.00084443731
-0.0015046418
-0.0021150858
-0.0027693454
-0.003402641
-0.0040251695
-0.0046158483
-0.00038174631
-0.00081013377
-0.0014542272
-0.0020566538
-0.0027084128
-0.0033503876
-0.0039843644
-0.0045937705
-0.0051701999
-0.00036837691
-0.00077280884
-0.0013984537
-0.0019887863
-0.0026365286
-0.0032804647
-0.0039280025
-0.0045511111
-0.0051499951
-0.0057072823
-0.0003539843
-0.00073313992
-0.0013376616
-0.0019135482
-0.0025526496
-0.0031975983
-0.0038511717
-0.0044929655
-0.0051073583
-0.0056905002
-0.0062282494
-0.00033843262
-0.00069157717
-0.0012728551
-0.001831458
-0.0024593547
-0.0031001508
-0.0037596061
-0.0044117549
-0.0050501992
-0.0056498296
-0.0062164842
-0.0067303068
-0.00032132105
-0.00064871774
-0.0012046938
-0.0017439196
-0.0023573085
-0.0029911441
-0.0036508786
-0.004314232
-0.0049676204
-0.0055964807
-0.0061799826
-0.0067252675
-0.0072131731
-0.00030195888
-0.00060514675
-0.0011339313
-0.0016519513
-0.0022483005
-0.002871288
-0.0035284032
-0.0041968988
-0.0048673083
-0.0055156579
-0.006133677
-0.0066952215
-0.0072166169
-0.0076743717
-0.00027929919
-0.00056155398
-0.001061167
-0.0015567657
-0.0021336461
-0.0027427363
-0.0033928547
-0.0040634791
-0.0047444843
-0.0054159831
-0.0060582407
-0.00665929
-0.0071955174
-0.007688089
-0.0081127423
-0.0002519694
-0.00051872531
-0.00098688851
-0.001459486
-0.0020148664
-0.0026071357
-0.0032467105
-0.0039144978
-0.0046030909
-0.0052910701
-0.0059630892
-0.0065930246
-0.0071735965
-0.0076784742
-0.0081385333
-0.0085261527
-0.00021840386
-0.00047758548
-0.00091152009
-0.0013612255
-0.0018933395
-0.0024664243
-0.0030918707
-0.0037527026
-0.0044433789
-0.005144928
-0.0058399735
-0.0065065896
-0.0071207034
-0.0076742657
-0.0081430527
-0.0085657797
-0.0089130858
-0.00017704705
-0.00043920439
-0.00083543456
-0.001263042
-0.0017704048
-0.002322357
-0.0029306205
-0.0035802317
-0.0042682844
-0.0049773657
-0.0056928452
-0.0063895265
-0.0070476102
-0.007639093
-0.0081604601
-0.0085870665
-0.0089682472
-0.0092717682
-0.00012662295
-0.00040470074
-0.00075888086
-0.0011659478
-0.001647266
-0.0021766333
-0.0027650516
-0.0033997245
-0.0040801116
-0.0047914358
-0.0055208733
-0.0062454974
-0.0069413773
-0.0075842529
-0.008147668
-0.0086299495
-0.0090089371
-0.0093440447
-0.0096007338
-6.6451366e-05
-0.00037506376
-0.00068214093
-0.0010709892
-0.0015249982
-0.0020308158
-0.0025971793
-0.0032136275
-0.0038818349
-0.0045895601
-0.0053270947
-0.0060728731
-0.0068051768
-0.0074939684
-0.0081163704
-0.0086442446
-0.0090811845
-0.0094066617
-0.0096915718
-0.0098986101
3.3276351e-06
-0.00035102852
-0.00060564355
-0.00097917157
-0.0014045387
-0.001886295
-0.0024288419
-0.0030243295
-0.0036762639
-0.0043750228
-0.0051139553
-0.0058745475
-0.0066363368
-0.0073707417
-0.0080476891
-0.0086419485
-0.0091274448
-0.0095120207
-0.0097784996
-0.010009287
-0.010164256
8.1681525e-05
-0.00033289375
-0.00052992994
-0.00089139068
-0.0012867662
-0.0017443056
-0.0022616916
-0.0028340243
-0.0034661799
-0.004150993
-0.0048850118
-0.0056528793
-0.0064374319
-0.0072106103
-0.0079431963
-0.0086008157
-0.0091598774
-0.0095950073
-0.0099205829
-0.010122701
-0.010295851
-0.010396795
0.00016680777
-0.00032043426
-0.00045577025
-0.00080849482
-0.0011724878
-0.0016059309
-0.0020971584
-0.0026446901
-0.0032541561
-0.0039206698
-0.0046437906
-0.0054116312
-0.0062105941
-0.0070156323
-0.0077973914
-0.0085212716
-0.0091526276
-0.0096678843
-0.010045019
-0.010304826
-0.010437698
-0.010550141
-0.010595597
0.00025639627
-0.00031304627
-0.0003842451
-0.00073131462
-0.0010624725
-0.0014722601
-0.0019364875
-0.0024580718
-0.0030425301
-0.0036870586
-0.0043939327
-0.0051546592
-0.0059597029
-0.0067875367
-0.0076115855
-0.0083959973
-0.0091047582
-0.0097010509
-0.010164129
-0.010475163
-0.010662853
-0.010722074
-0.010771298
-0.010760317
0.00034772622
-0.0003102712
-0.00031664443
-0.00066064898
-0.00095746867
-0.0013443142
-0.0017807866
-0.0022756664
-0.0028333609
-0.0034529205
-0.0041389127
-0.0048860629
-0.0056888966
-0.0065301925
-0.0073869033
-0.0082253059
-0.0090068732
-0.0096919707
-0.010244399
-0.010646072
-0.010883275
-0.010992823
-0.010974604
-0.010958726
-0.010890943
0.00043777823
-0.00031271419
-0.00025424589
-0.00059714392
-0.00085822799
-0.0012229579
-0.001631054
-0.0020987735
-0.0026284282
-0.0032207194
-0.0038819629
-0.0046098331
-0.0054027261
-0.0062479374
-0.0071270428
-0.0080094743
-0.0088580122
-0.0096289088
-0.010281554
-0.010780141
-0.011111359
-0.011267074
-0.01129307
-0.011194321
-0.011112109
-0.010987696
0.00052370473
-0.00032166372
-0.00019740454
-0.00054115334
-0.00076563995
-0.0011089111
-0.0014881891
-0.0019285949
-0.002429257
-0.0029926015
-0.0036259985
-0.0043297384
-0.0051057271
-0.0059457393
-0.0068364264
-0.0077518268
-0.0086573361
-0.0095093463
-0.010261287
-0.010871181
-0.011305801
-0.011557274
-0.011624414
-0.011562112
-0.011380545
-0.011231435
-0.011050872
0.00060295773
-0.00033754206
-0.00014574716
-0.00049276059
-0.00068041737
-0.0010027851
-0.0013530647
-0.0017662544
-0.0022371924
-0.002770403
-0.0033735833
-0.0040492151
-0.0048022633
-0.0056286893
-0.0065203752
-0.0074567116
-0.0084075534
-0.0093310264
-0.010179226
-0.010902113
-0.01145845
-0.011818405
-0.011981205
-0.011953221
-0.01179873
-0.011532887
-0.011316908
-0.011081022
0.00067289742
-0.00035961039
-9.9815747e-05
-0.00045192569
-0.00060307671
-0.00090545553
-0.0012265275
-0.0016126831
-0.0020534486
-0.0025556973
-0.0031269214
-0.0037713186
-0.0044963695
-0.0053017939
-0.0061845205
-0.007129698
-0.0081127358
-0.0090957559
-0.010031383
-0.010866437
-0.011549302
-0.012040306
-0.012314926
-0.012380438
-0.012251607
-0.012001992
-0.011651245
-0.011368898
-0.011079308
0.00073075477
-0.00038637671
-6.0991489e-05
-0.00041875944
-0.00053415278
-0.00081773078
-0.0011093184
-0.0014686482
-0.0018790813
-0.0023498618
-0.0028878846
-0.0034987019
-0.0041916736
-0.0049697653
-0.0058345418
-0.0067769048
-0.0077785509
-0.0088070761
-0.0098183364
-0.0107581
-0.011569475
-0.012199963
-0.012613473
-0.012792099
-0.012752392
-0.012517877
-0.012171179
-0.011735712
-0.011388106
-0.011047009
0.00078155223
-0.00041585723
-2.9655151e-05
-0.00039345264
-0.00047421248
-0.00073998977
-0.0010019931
-0.0013348158
-0.0017149839
-0.0021541387
-0.0026580882
-0.0032336327
-0.0038913568
-0.0046369024
-0.005475894
-0.0064046853
-0.0074115129
-0.00847055
-0.0095427935
-0.010576096
-0.011510529
-0.012285905
-0.012850814
-0.013174269
-0.013246653
-0.013094575
-0.012750564
-0.012305731
-0.011786558
-0.01137555
-0.01098549
0.00083831358
-0.00043989329
-6.4696382e-06
-0.00037493524
-0.00042378859
-0.00067232783
-0.00090488061
-0.0012119064
-0.0015619724
-0.0019695954
-0.00243896
-0.0029780502
-0.0035981532
-0.004307027
-0.0051136367
-0.0060192848
-0.0070186141
-0.0080929444
-0.0092099519
-0.010321946
-0.011369497
-0.012287001
-0.013012728
-0.013497965
-0.013718829
-0.013675287
-0.013404698
-0.012948462
-0.01240542
-0.011804385
-0.011332401
-0.010896294
0.00089512602
-0.00045627367
1.0049616e-05
-0.00036432679
-0.00038140588
-0.00061485026
-0.00081861987
-0.0011007494
-0.0014207617
-0.0017970998
-0.002231728
-0.002733634
-0.0033143991
-0.0039834596
-0.0047523307
-0.0056266107
-0.0066069099
-0.0076818107
-0.0088266285
-0.010000156
-0.011146312
-0.012197942
-0.013085144
-0.013746151
-0.014137148
-0.014243096
-0.014074813
-0.013680698
-0.013110696
-0.012470391
-0.011790057
-0.011260067
-0.010781011
0.00094886993
-0.00047089425
2.9894047e-05
-0.00035713657
-0.00034584658
-0.00056543458
-0.00074400011
-0.001001918
-0.0012918865
-0.001637365
-0.002037416
-0.0025018507
-0.0030421106
-0.0036690442
-0.0043959898
-0.0052320775
-0.0061832203
-0.0072449976
-0.0084008014
-0.009617324
-0.010844408
-0.012016646
-0.01306004
-0.013901612
-0.014481769
-0.014763692
-0.014742976
-0.014442193
-0.013920819
-0.013236707
-0.012501053
-0.011744702
-0.011160091
-0.010641285
0.00099833143
-0.00048504837
4.954927e-05
-0.00034103148
-0.00031794948
-0.00052505692
-0.000678528
-0.00091563575
-0.0011760821
-0.0014911482
-0.0018568692
-0.0022839149
-0.0027830389
-0.0033662179
-0.0040480785
-0.004840524
-0.0057539147
-0.0067902779
-0.0079410493
-0.0091816561
-0.010469819
-0.011745029
-0.012932876
-0.013953285
-0.014732226
-0.015214544
-0.01537269
-0.015214399
-0.01477464
-0.014123628
-0.013326265
-0.012498086
-0.01166962
-0.0110341
-0.010478825
0.0010423034
-0.00049833227
6.7295679e-05
-0.00032359509
-0.00028633992
-0.00049571104
-0.00062154549
-0.00083872576
-0.0010739272
-0.0013593818
-0.0016908341
-0.0020808039
-0.0025386731
-0.0030770918
-0.003711571
-0.0044561781
-0.0053247811
-0.006325064
-0.007456102
-0.0087023401
-0.010030704
-0.011388147
-0.012703565
-0.013893739
-0.014874143
-0.015571918
-0.015938945
-0.015959066
-0.015653437
-0.015069664
-0.014288045
-0.01337946
-0.012462429
-0.011566273
-0.010883789
-0.010295435
0.0010794609
-0.00051024519
8.2776786e-05
-0.00030761467
-0.00025616269
-0.00045838426
-0.0005772949
-0.00077143107
-0.00098159894
-0.0012425158
-0.0015402698
-0.0018933717
-0.0023102147
-0.0028034892
-0.0033890357
-0.0040826852
-0.0049009549
-0.005856217
-0.0069544743
-0.0081890193
-0.009536667
-0.010953749
-0.012375698
-0.013720369
-0.014896796
-0.015817946
-0.016414847
-0.016649032
-0.016517722
-0.016056385
-0.015325136
-0.014413361
-0.013396698
-0.012395258
-0.011436262
-0.010710953
-0.010092972
0.0011085675
-0.00052037968
9.5965759e-05
-0.00029382214
-0.00022831976
-0.00042088401
-0.00052652189
-0.00072105345
-0.00089861982
-0.0011357479
-0.001405819
-0.0017227887
-0.0020986409
-0.0025468713
-0.0030826942
-0.0037231892
-0.0044869063
-0.0053899328
-0.0064442071
-0.0076513382
-0.0089981588
-0.010451577
-0.011956165
-0.013434757
-0.01479455
-0.015938268
-0.016778959
-0.017254465
-0.0173386
-0.017043642
-0.016419859
-0.015539315
-0.014499248
-0.013378686
-0.012297958
-0.011281319
-0.010517451
-0.0098733283
0.0011285921
-0.00052835589
0.0001067342
-0.00028219488
-0.00020375899
-0.0003857177
-0.00047809097
-0.00066228798
-0.00083547624
-0.001038409
-0.001281819
-0.0015698658
-0.0019051722
-0.0023084212
-0.0027943824
-0.0033804112
-0.0040865036
-0.0049316816
-0.0059326967
-0.007098602
-0.0084259324
-0.0098927045
-0.011454469
-0.013042401
-0.014566389
-0.015923733
-0.017013038
-0.017750412
-0.018083653
-0.018001317
-0.017532025
-0.016740859
-0.015710898
-0.014545757
-0.013326421
-0.012172074
-0.011103265
-0.010305185
-0.009638341
0.0011388043
-0.00053388035
0.00011493941
-0.00027277438
-0.00018269199
-0.00035465282
-0.00043275554
-0.00060504425
-0.00076361077
-0.0009657169
-0.0011666107
-0.0014279922
-0.0017308932
-0.0020895859
-0.0025256067
-0.0030566651
-0.0037031018
-0.0044862308
-0.0054265893
-0.0065395382
-0.0078306081
-0.0092889051
-0.010882024
-0.012552084
-0.014215814
-0.015770128
-0.017103985
-0.01811462
-0.018724611
-0.018894876
-0.018630873
-0.017978384
-0.01701684
-0.015839031
-0.014553321
-0.013241163
-0.01201932
-0.01090399
-0.010076026
-0.0093897422
-0.00053673455
0.0011388042
0.00012040415
-0.00026562997
-0.00016537912
-0.00032805214
-0.00039244425
-0.00055091999
-0.00069504637
-0.00088340318
-0.0010807353
-0.0012946089
-0.0015683987
-0.0018917448
-0.0022780478
-0.0027538167
-0.0033395759
-0.0040577257
-0.0049317436
-0.0059821387
-0.007222353
-0.0086521161
-0.010251449
-0.011975168
-0.013750303
-0.015478288
-0.01704381
-0.018329707
-0.01923522
-0.01969307
-0.019680343
-0.019221138
-0.018378672
-0.017245763
-0.015923339
-0.014522736
-0.013124428
-0.011841553
-0.010685404
-0.0098317741
-0.0091291234
0.00012306679
-0.0005367347
0.0011285921
-0.00026090922
-0.00015211257
-0.00030622972
-0.0003577101
-0.00050273241
-0.00063018778
-0.00080441313
-0.00098477165
-0.0011963624
-0.0014141088
-0.0017065077
-0.0020532928
-0.0024738835
-0.0029982792
-0.003649724
-0.0044532855
-0.005433562
-0.0066106597
-0.0079940219
-0.009575931
-0.011324837
-0.013180656
-0.015053714
-0.016829991
-0.018383381
-0.019593611
-0.020365827
-0.020646688
-0.020432202
-0.019766307
-0.018729357
-0.017426149
-0.015963923
-0.014455157
-0.012977958
-0.011640728
-0.010449394
-0.0095741086
-0.0088580089
-0.00025864178
0.00012306661
-0.00053388049
0.0011085673
-0.00014327963
-0.00028952
-0.00032906063
-0.00046124243
-0.00057221672
-0.00072921282
-0.00089345936
-0.0010870148
-0.0013010847
-0.0015293869
-0.0018420569
-0.0022188108
-0.0026817103
-0.0032652427
-0.0039956519
-0.0049001321
-0.0060041908
-0.007325752
-0.0088686966
-0.010615362
-0.012520215
-0.014506012
-0.016465296
-0.018269069
-0.019782761
-0.020886745
-0.021496368
-0.021575954
-0.021142728
-0.020261059
-0.019027524
-0.017557108
-0.015961366
-0.01435208
-0.012803678
-0.011418818
-0.010197746
-0.0093046317
-0.008577917
-0.00013902613
-0.00025864201
0.00012040351
-0.00052835635
0.0010794607
-0.00027837622
-0.00030703297
-0.00042705404
-0.0005221232
-0.00066184392
-0.00080636251
-0.00098291189
-0.0011756117
-0.0014006083
-0.0016389006
-0.0019783482
-0.0023922909
-0.0029073374
-0.0035626359
-0.0043873685
-0.0054107014
-0.006657664
-0.0081426175
-0.0098614664
-0.011784055
-0.013848135
-0.015957387
-0.017986014
-0.019791414
-0.021233783
-0.02219859
-0.022615906
-0.022471174
-0.021804536
-0.020700685
-0.019270935
-0.017638361
-0.015916719
-0.014215299
-0.012603609
-0.011177746
-0.0099321613
-0.0090249167
-0.0082903673
-0.00027296187
-0.0001390264
-0.00026090989
0.00011493841
-0.00052038015
0.0010423031
-0.0002923189
-0.00040079925
-0.00048070792
-0.00060357057
-0.0007281123
-0.00088326166
-0.0010568382
-0.0012575157
-0.0014919874
-0.0017460358
-0.002118625
-0.0025790196
-0.0031580191
-0.0039000088
-0.0048370314
-0.0059991879
-0.0074099145
-0.0090778176
-0.010988251
-0.013095548
-0.015318149
-0.017539086
-0.019614471
-0.021390456
-0.022726182
-0.023517217
-0.023712888
-0.023322728
-0.02241078
-0.021081213
-0.019458097
-0.017670246
-0.015831478
-0.014046812
-0.012379769
-0.010919341
-0.0096543124
-0.0087365516
-0.0079967618
-0.00028519639
-0.0002729622
-0.00014328045
-0.00026563112
0.00010673274
-0.00051024596
0.00099833112
-0.00038328763
-0.00044879838
-0.00055536342
-0.00066026809
-0.00079354329
-0.00094301439
-0.0011226619
-0.0013284601
-0.0015791619
-0.001853072
-0.0022677203
-0.0027855868
-0.003442784
-0.0042891202
-0.0053587455
-0.0066819294
-0.0082786371
-0.010149238
-0.012265398
-0.014562861
-0.016938275
-0.0192531
-0.021346566
-0.023057046
-0.024247688
-0.024829527
-0.024775438
-0.024121338
-0.022955348
-0.021399509
-0.019588292
-0.01765373
-0.015707493
-0.013848692
-0.012134111
-0.010645429
-0.009365914
-0.008441062
-0.0076983723
-0.00037481345
-0.00028519679
-0.00027837721
-0.00015211395
-0.000272776
9.5963924e-05
-0.00049833307
0.00094886946
-0.00042744733
-0.00051822153
-0.00060402239
-0.00071564519
-0.00084034229
-0.00099329444
-0.0011753655
-0.0013925454
-0.0016634063
-0.0019643877
-0.0024316001
-0.0030204599
-0.0037728137
-0.0047437339
-0.0059689424
-0.0074773943
-0.0092833267
-0.011375764
-0.013709315
-0.016197938
-0.018714447
-0.021098633
-0.023175215
-0.02477941
-0.025784196
-0.026121554
-0.025791683
-0.024858354
-0.023433017
-0.021653385
-0.019661636
-0.017590309
-0.015546784
-0.013622961
-0.011868596
-0.010357909
-0.0090686327
-0.0081398306
-0.0073964424
-0.00041708467
-0.00037481385
-0.00029232001
-0.00028952167
-0.00016538107
-0.00028219701
8.2774479e-05
-0.00048504952
0.00089512549
-0.00049340569
-0.00056058649
-0.00065098658
-0.00075106596
-0.00087642243
-0.001028492
-0.0012187093
-0.0014500024
-0.0017488926
-0.002085321
-0.0026181123
-0.0032941166
-0.0041613715
-0.0052800949
-0.0066865169
-0.0084062922
-0.010445045
-0.012776969
-0.015335914
-0.018011045
-0.020649921
-0.023071655
-0.025090148
-0.026543229
-0.027320059
-0.027378842
-0.026750118
-0.025526006
-0.023839628
-0.021841671
-0.019678964
-0.01748178
-0.015351361
-0.013371706
-0.011585379
-0.010058689
-0.0087639174
-0.0078340332
-0.0070920593
-0.00048140301
-0.00041708509
-0.00038328891
-0.00030703489
-0.00030623206
-0.00018269453
-0.0002938248
6.7292986e-05
-0.00047089548
0.0008383128
-0.00053147519
-0.0006010144
-0.00067686161
-0.00077467163
-0.00089560407
-0.0010519676
-0.001252373
-0.001504496
-0.0018402877
-0.0022230334
-0.0028370216
-0.0036192234
-0.0046242844
-0.0059172013
-0.0075329883
-0.009491448
-0.011786202
-0.014372604
-0.017159988
-0.020010079
-0.022744661
-0.025164507
-0.027077834
-0.028331844
-0.028838474
-0.028586878
-0.02763997
-0.026117647
-0.024172237
-0.021964193
-0.019641605
-0.017329995
-0.01512338
-0.01309737
-0.011286685
-0.0097492224
-0.008452852
-0.0075247807
-0.0067855425
-0.00051731052
-0.00048140355
-0.00042744874
-0.00040080136
-0.00032906329
-0.00032805519
-0.00020376216
-0.00030761789
4.9546095e-05
-0.00045627528
0.00078155139
-0.00056752463
-0.00061942398
-0.000690005
-0.00077979206
-0.00090092936
-0.0010629513
-0.001279396
-0.0015595814
-0.0019441025
-0.0023863049
-0.0031002744
-0.0040110053
-0.005180338
-0.0066770013
-0.0085324937
-0.01075769
-0.013330116
-0.016181995
-0.019194471
-0.022199818
-0.024994744
-0.027365622
-0.029121547
-0.030126622
-0.030321978
-0.02973156
-0.028451574
-0.026627987
-0.024429128
-0.022021408
-0.019551015
-0.017137062
-0.014865582
-0.012802557
-0.010973949
-0.0094303193
-0.0081368044
-0.0072136815
-0.0064776404
-0.00055124768
-0.00051731113
-0.00049340721
-0.00044880064
-0.00042705704
-0.00035771359
-0.00035465656
-0.00022832357
-0.0003235989
2.9890474e-05
-0.00043989497
0.00073075356
-0.00058084435
-0.00062440593
-0.00068333365
-0.00076923768
-0.00089122415
-0.0010639277
-0.0013025572
-0.0016206092
-0.0020681363
-0.0025860157
-0.0034223243
-0.0044877363
-0.005851551
-0.0075845062
-0.0097117981
-0.012231513
-0.015100466
-0.018223288
-0.021449585
-0.024581134
-0.027391846
-0.029659396
-0.031201647
-0.031907472
-0.031753003
-0.030799699
-0.029176717
-0.027053175
-0.024609445
-0.022014048
-0.01940907
-0.016905983
-0.014580987
-0.012488627
-0.010647571
-0.0091040339
-0.0078189308
-0.0069026342
-0.0061584206
-0.00056199527
-0.00055124832
-0.00053147688
-0.00051822415
-0.00048071119
-0.00046124628
-0.0003924485
-0.00038572218
-0.00025616717
-0.00034103589
1.0045587e-05
-0.00041585934
0.00067289618
-0.00058030881
-0.00060852563
-0.00065949163
-0.00074146274
-0.00086850633
-0.0010569967
-0.001326301
-0.0016940232
-0.0022224114
-0.0028357616
-0.0038207163
-0.0050711822
-0.0066634054
-0.0086679052
-0.011100085
-0.013940614
-0.017120573
-0.02051255
-0.023931896
-0.027150227
-0.029922859
-0.032026301
-0.033296055
-0.033653477
-0.033114506
-0.031779535
-0.029808772
-0.027390439
-0.024712736
-0.021943456
-0.019218921
-0.016640204
-0.014270784
-0.012155379
-0.010310488
-0.0087763925
-0.0075014672
-0.0065717554
-0.0058249958
-0.000558736
-0.00056199602
-0.00056752666
-0.00056058943
-0.00055536702
-0.00052212734
-0.00050273721
-0.00043276064
-0.00042088922
-0.00028634506
-0.00035714158
-6.4740357e-06
-0.00038637893
0.00060295612
-0.00055816102
-0.00057432994
-0.00061663031
-0.00069805122
-0.00083420484
-0.0010457587
-0.0013560312
-0.0017883123
-0.002419499
-0.003152372
-0.0043167135
-0.0057869487
-0.0076450284
-0.0099585208
-0.01272861
-0.015913255
-0.019412499
-0.023062713
-0.026643317
-0.029897956
-0.032569755
-0.034443257
-0.035380932
-0.035343634
-0.034390639
-0.032661021
-0.030342332
-0.027637525
-0.02473935
-0.021812742
-0.018984397
-0.016340596
-0.013933945
-0.011806975
-0.0099725818
-0.0084494687
-0.0071516419
-0.0062267606
-0.005482005
-0.00053341789
-0.00055873697
-0.00058084676
-0.00060101773
-0.00060402643
-0.00060357528
-0.0005722219
-0.00055092569
-0.00047809685
-0.00045839022
-0.00031795529
-0.00036433238
-2.965999e-05
-0.00035961303
0.00052370315
-0.00051694254
-0.00051972296
-0.00055599423
-0.00063993033
-0.00079119578
-0.0010346979
-0.0013989465
-0.0019138708
-0.0026751302
-0.0035562119
-0.0049357643
-0.006664647
-0.0088293174
-0.011490596
-0.014630172
-0.018177402
-0.021995942
-0.02588239
-0.029580129
-0.032809381
-0.035309775
-0.036884297
-0.037431512
-0.036957686
-0.035567225
-0.033435415
-0.030772601
-0.02779324
-0.024692034
-0.021625985
-0.018705843
-0.016005007
-0.013576202
-0.011458516
-0.0096359558
-0.008066727
-0.0067907297
-0.005870854
-0.0051311799
-0.00048867471
-0.00053341894
-0.00058031155
-0.00061942791
-0.00065099132
-0.00066027339
-0.00066184965
-0.00063019387
-0.00060505094
-0.00052652862
-0.00049571767
-0.00034585302
-0.00037494136
-6.0996625e-05
-0.00033754477
0.00043777644
-0.00045434646
-0.00044570749
-0.0004781013
-0.000569396
-0.0007431611
-0.0010298277
-0.0014639354
-0.0020839739
-0.0030085556
-0.0040717742
-0.0057075714
-0.0077382188
-0.010252871
-0.013300927
-0.016838338
-0.020759635
-0.024886929
-0.028974616
-0.032732173
-0.035863682
-0.038115991
-0.039321443
-0.03942307
-0.038476768
-0.036631447
-0.03409451
-0.031096056
-0.027859458
-0.024574894
-0.021382727
-0.018379601
-0.015641139
-0.013219342
-0.011111948
-0.0092121772
-0.0076755265
-0.006416302
-0.005506242
-0.0047719333
-0.00042202004
-0.00048867585
-0.00055816426
-0.00062441064
-0.00067686725
-0.00071565127
-0.00072811875
-0.0007292197
-0.00069505355
-0.00066229558
-0.00057730237
-0.00052506424
-0.00038141292
-0.00039345924
-9.9821214e-05
-0.00032166673
0.00034772451
-0.00037124743
-0.0003524963
-0.00038471224
-0.00048933064
-0.00069502838
-0.001038716
-0.0015623695
-0.0023152872
-0.0034428944
-0.0047282415
-0.0066666922
-0.0090459906
-0.011955837
-0.0154282
-0.019386419
-0.023683791
-0.028096333
-0.032335662
-0.036082382
-0.0390345
-0.040958182
-0.041725808
-0.041331772
-0.039883236
-0.037570917
-0.034631476
-0.031313009
-0.027839925
-0.024386253
-0.02107729
-0.018015753
-0.015279251
-0.01286504
-0.010635308
-0.0087834964
-0.0072680692
-0.0060330359
-0.0051323574
-0.0044048759
-0.00033431241
-0.00042202134
-0.00051694615
-0.000608531
-0.00069001156
-0.00075107318
-0.00079355085
-0.00080637028
-0.00080442107
-0.00076361888
-0.000721062
-0.00062155374
-0.00056544255
-0.00042379614
-0.0004187664
-0.00014575278
-0.00031271724
0.00025639457
-0.00026764957
-0.00024144268
-0.00027810363
-0.00040376708
-0.00065318703
-0.0010710791
-0.0017086276
-0.0026279307
-0.0040060154
-0.0055600694
-0.0078526608
-0.010630753
-0.013981384
-0.017912064
-0.02230613
-0.026969332
-0.031628337
-0.035954137
-0.039606829
-0.042290754
-0.043804012
-0.044068622
-0.043134621
-0.041159615
-0.038374405
-0.035044141
-0.031426364
-0.027731207
-0.024117776
-0.020722558
-0.017655055
-0.014920594
-0.012325722
-0.010156968
-0.0083350643
-0.006851836
-0.0056398087
-0.0047499523
-0.0040300905
-0.00022543918
-0.00033431378
-0.00045435026
-0.00057433589
-0.0006833413
-0.00077468024
-0.0008403513
-0.00088327067
-0.00089346836
-0.00088341231
-0.00083548541
-0.00077144045
-0.00067853694
-0.00061485879
-0.00047422044
-0.00045193295
-0.00019741036
-0.00031027435
0.00016680621
-0.00014463236
-0.00011434393
-0.00016175191
-0.00031819034
-0.00062590343
-0.0011392425
-0.0019203596
-0.0030462303
-0.0047308787
-0.0066071426
-0.0093103116
-0.012539411
-0.016374921
-0.020791878
-0.025625903
-0.030629533
-0.035479087
-0.039810616
-0.043275334
-0.045597823
-0.046620233
-0.046321343
-0.044808248
-0.042289319
-0.039036038
-0.03533381
-0.031430154
-0.027521404
-0.023785517
-0.020372139
-0.017298185
-0.014306624
-0.011787913
-0.0096547789
-0.0078783991
-0.0064254259
-0.0052377278
-0.0043592372
-0.0036479695
-9.6323594e-05
-0.00022544052
-0.00037125138
-0.00051972942
-0.00065950015
-0.00077980196
-0.000876433
-0.00094302512
-0.00098292251
-0.00098478207
-0.00096572711
-0.00089862989
-0.00083873601
-0.00074400971
-0.00067233679
-0.00053416105
-0.00049276798
-0.00025425165
-0.00031304941
8.1680165e-05
-3.634208e-06
2.578483e-05
-4.0284212e-05
-0.00023953526
-0.0006236897
-0.0012585709
-0.0022190621
-0.0035991483
-0.0056560682
-0.0079154003
-0.01108963
-0.014822366
-0.019182949
-0.024105039
-0.029368883
-0.03466971
-0.039635819
-0.043877932
-0.047052613
-0.048918907
-0.049372966
-0.048454245
-0.046329522
-0.043261486
-0.03955456
-0.035491153
-0.03130775
-0.02723006
-0.023458632
-0.020025996
-0.016597639
-0.01369708
-0.011221186
-0.0091455756
-0.0074115185
-0.0059901884
-0.0048269164
-0.0039607502
-0.003258839
5.1842446e-05
-9.6324887e-05
-0.00026765371
-0.00044571427
-0.00061663941
-0.00076924868
-0.0008956164
-0.00099330722
-0.0010568509
-0.001087027
-0.001080747
-0.0010384204
-0.00098160998
-0.00091564666
-0.00081862995
-0.00073999909
-0.00060308517
-0.00054116081
-0.00031665017
-0.0003204373
3.3264372e-06
0.00015261214
0.00017487013
8.0425894e-05
-0.00017677523
-0.00065987894
-0.0014479576
-0.0026306061
-0.0043210938
-0.0068264243
-0.0095369261
-0.013245326
-0.017532512
-0.022451491
-0.027884908
-0.033550824
-0.039085837
-0.044076717
-0.048122153
-0.050899713
-0.052215495
-0.052026095
-0.05043668
-0.04768138
-0.044071043
-0.039916216
-0.035493278
-0.031082339
-0.026945139
-0.023136117
-0.019225792
-0.015903925
-0.013052556
-0.010649048
-0.0086265125
-0.0069360008
-0.005546158
-0.0044080768
-0.0035550196
-0.0028631223
0.00021640903
5.1841124e-05
-0.00014463649
-0.0003525032
-0.00055600373
-0.00074147465
-0.0009009431
-0.0010285067
-0.0011226768
-0.0011756263
-0.0011963764
-0.0011666238
-0.0011357603
-0.001073939
-0.0010019296
-0.00090489119
-0.00081774035
-0.00068042595
-0.00059715131
-0.00038425061
-0.00033289672
-6.645222e-05
0.00032039514
0.00032759703
0.0001925246
-0.00014156879
-0.0007510344
-0.0017303838
-0.0031859534
-0.0052525009
-0.0082932492
-0.011529772
-0.015835986
-0.020723797
-0.026224027
-0.032158454
-0.038178217
-0.043863858
-0.048771576
-0.052504056
-0.054774727
-0.055445592
-0.054540956
-0.052243882
-0.04885372
-0.044698397
-0.040089784
-0.035366729
-0.030864381
-0.026664439
-0.022222694
-0.018434104
-0.015167791
-0.012404756
-0.010067682
-0.0080992228
-0.0064517947
-0.0050941209
-0.003981894
-0.0031427105
-0.002461174
0.0003938413
0.00021640777
-3.6380795e-06
-0.00024144944
-0.0004781111
-0.00069806371
-0.00089123888
-0.001051984
-0.0011753828
-0.0012575331
-0.0013011014
-0.0012946244
-0.0012818334
-0.0012425293
-0.0011760948
-0.0011007615
-0.001002004
-0.00090546531
-0.00076564855
-0.00066065624
-0.00045577554
-0.0003510312
-0.00012662368
0.00049483248
0.00047722172
0.00028577358
-0.00014855131
-0.0009175155
-0.0021335593
-0.0039218542
-0.0064402396
-0.010114302
-0.013957321
-0.018922765
-0.024449259
-0.030539023
-0.036944013
-0.043247057
-0.048979916
-0.053683191
-0.056980063
-0.058630917
-0.05856261
-0.056883864
-0.053859497
-0.049819469
-0.045101518
-0.040104486
-0.0352489
-0.030650517
-0.02562347
-0.021318613
-0.017590699
-0.014431074
-0.011748754
-0.0094787209
-0.0075636463
-0.0059597408
-0.0046349255
-0.0035491897
-0.002723939
-0.0020536074
0.0005795481
0.00039384024
0.00015260858
-0.00011435047
-0.0003847219
-0.00063994301
-0.00086852171
-0.001062969
-0.0012187286
-0.00132848
-0.0014006279
-0.0014141274
-0.0014280094
-0.0014058347
-0.0013593963
-0.0012918999
-0.0012119191
-0.0011093298
-0.001002795
-0.00085823658
-0.00073132168
-0.0005299349
-0.00037506634
-0.00017704738
0.00066962464
0.00061460109
0.00034703698
-0.00021582944
-0.0011840694
-0.0026906832
-0.0048813604
-0.0079379072
-0.012353311
-0.01688718
-0.022567539
-0.028758553
-0.035427411
-0.042249548
-0.048742522
-0.054401493
-0.058768513
-0.061500462
-0.062414636
-0.061523267
-0.05903079
-0.055247605
-0.050522698
-0.04531111
-0.04013
-0.035135619
-0.029467786
-0.024591512
-0.020350795
-0.016750145
-0.013687466
-0.011086015
-0.0088820076
-0.0070205492
-0.0054608348
-0.0041695188
-0.003109539
-0.0022994585
-0.0016408475
0.00076743994
0.00057954733
0.00032039188
2.5778709e-05
-0.00027811274
-0.00056940836
-0.00083422054
-0.0010639462
-0.0012523936
-0.0013925675
-0.00149201
-0.0015294089
-0.0015684192
-0.0015698845
-0.0015402868
-0.0014911638
-0.001420776
-0.0013348289
-0.0012265392
-0.0011089212
-0.00095747724
-0.00080850168
-0.0006056482
-0.00040470289
-0.00021840414
0.00083644174
0.00072756537
0.00035997376
-0.00036560343
-0.0015806156
-0.0034410244
-0.0061142683
-0.0098056844
-0.015079017
-0.020389561
-0.026830514
-0.033695308
-0.040910476
-0.048071792
-0.054639695
-0.060088669
-0.063977146
-0.066006296
-0.066073051
-0.064294849
-0.060935696
-0.056334799
-0.050993774
-0.04553535
-0.040162129
-0.033797745
-0.028291835
-0.023480489
-0.019390096
-0.015904245
-0.012938179
-0.010416204
-0.0082781567
-0.0064711076
-0.0049561321
-0.0036965546
-0.0026644935
-0.0018696384
-0.0012232274
0.00094948035
0.00076743926
0.00049482977
0.00017486471
-0.00016176034
-0.00048934243
-0.00079121108
-0.0010570154
-0.0012794175
-0.0014500261
-0.0015791869
-0.0016389256
-0.0017065318
-0.0017309156
-0.0017228091
-0.0016908526
-0.0016373817
-0.0015619875
-0.001468662
-0.0013530768
-0.0012229683
-0.0010624811
-0.00089139738
-0.00068214533
-0.00043920647
-0.00025196939
0.00098402899
0.00080102186
0.00030440023
-0.0006249201
-0.0021428698
-0.0044304789
-0.0076771993
-0.012109789
-0.018363677