/*--------------------------------*- C++ -*----------------------------------*\
| =========                 |                                                 |
| \\      /  F ield         | OpenFOAM: The Open Source CFD Toolbox           |
|  \\    /   O peration     | Version:  5.0                                   |
|   \\  /    A nd           | Web:      www.OpenFOAM.org                      |
|    \\/     M anipulation  |                                                 |
\*---------------------------------------------------------------------------*/
FoamFile
{
    version     2.0;
    format      ascii;
    class       volScalarField;
    location    "60";
    object      pPrime2Mean;
}
// * * * * * * * * * * * * * * * * * * * * * * * * * * * * * * * * * * * * * //

dimensions      [0 4 -4 0 0 0 0];

internalField   nonuniform List<scalar> 
9200
(
3.8602038e-09
3.9916407e-09
1.6893869e-08
4.1219043e-09
1.7708872e-08
4.8195714e-08
4.4817518e-09
1.8251877e-08
5.0294493e-08
8.5849248e-08
4.8893257e-09
1.9531141e-08
5.2192011e-08
8.9493993e-08
1.338936e-07
5.4897208e-09
2.1001967e-08
5.6081245e-08
9.3028282e-08
1.3961868e-07
1.8479647e-07
6.2347717e-09
2.3134815e-08
6.0752942e-08
9.993332e-08
1.4557794e-07
1.9283477e-07
2.3853752e-07
7.197825e-09
2.5742691e-08
6.7247896e-08
1.0833429e-07
1.5679973e-07
2.0149618e-07
2.491933e-07
2.9167409e-07
8.4071374e-09
2.8963103e-08
7.5200354e-08
1.1979498e-07
1.7052384e-07
2.1749183e-07
2.6099821e-07
3.0516856e-07
3.4285489e-07
9.9343524e-09
3.273471e-08
8.4942522e-08
1.3370957e-07
1.8894267e-07
2.3710452e-07
2.8248003e-07
3.2042782e-07
3.5927879e-07
3.9092964e-07
1.1868705e-08
3.7036589e-08
9.6402664e-08
1.5051115e-07
2.1112299e-07
2.6316973e-07
3.0882871e-07
3.4793188e-07
3.7820047e-07
4.103452e-07
4.3486009e-07
1.4330742e-08
4.1795471e-08
1.0961761e-07
1.6999921e-07
2.3759853e-07
2.9439042e-07
3.4356248e-07
3.8174333e-07
4.1209676e-07
4.3307561e-07
4.5719006e-07
4.745167e-07
1.7476147e-08
4.6903144e-08
1.2453978e-07
1.9212334e-07
2.6799089e-07
3.3141247e-07
3.8491004e-07
4.2610469e-07
4.5384396e-07
4.7367039e-07
4.8373758e-07
4.9962859e-07
5.0975106e-07
2.1469934e-08
5.2238132e-08
1.4105466e-07
2.1666668e-07
3.021468e-07
3.7360946e-07
4.33582e-07
4.7869794e-07
5.0841024e-07
5.2385187e-07
5.311313e-07
5.2991411e-07
5.3739487e-07
5.4104138e-07
2.6436508e-08
5.7661131e-08
1.5898695e-07
2.4326318e-07
3.3968239e-07
4.2061955e-07
4.8866393e-07
5.4020503e-07
5.7292252e-07
5.8937332e-07
5.9004726e-07
5.8409761e-07
5.712441e-07
5.708873e-07
5.6904919e-07
3.2362249e-08
6.3062102e-08
1.7808184e-07
2.7141607e-07
3.8005161e-07
4.7173057e-07
5.4959433e-07
6.0929192e-07
6.4807332e-07
6.6675347e-07
6.6703722e-07
6.5194294e-07
6.3206654e-07
6.0797683e-07
6.0066313e-07
5.9472976e-07
3.8960145e-08
6.8397352e-08
1.978808e-07
3.0053994e-07
4.2253085e-07
5.2601005e-07
6.1539014e-07
6.8508566e-07
7.3209503e-07
7.5663702e-07
7.5807032e-07
7.4088974e-07
7.0893968e-07
6.7506881e-07
6.40587e-07
6.2759678e-07
6.1926946e-07
4.5569633e-08
7.3713459e-08
2.1770556e-07
3.299954e-07
4.6616612e-07
5.8239002e-07
6.8480841e-07
7.6621494e-07
8.2378595e-07
8.5673474e-07
8.6378751e-07
8.4636443e-07
8.102623e-07
7.6082212e-07
7.1349067e-07
6.6979422e-07
6.5279839e-07
6.4397939e-07
5.116845e-08
7.9194756e-08
2.3677529e-07
3.5910562e-07
5.0989713e-07
6.3960883e-07
7.5646079e-07
8.5105814e-07
9.213705e-07
9.6546334e-07
9.8131476e-07
9.6895728e-07
9.3103889e-07
8.7472604e-07
8.0792978e-07
7.4778161e-07
6.9662947e-07
6.7752522e-07
6.7028949e-07
5.4541143e-08
8.5183683e-08
2.5412056e-07
3.8709334e-07
5.5257067e-07
6.9630174e-07
8.2877914e-07
9.3787965e-07
1.0228389e-06
1.0805811e-06
1.1086222e-06
1.1052189e-06
1.0718348e-06
1.0114253e-06
9.346044e-07
8.5039603e-07
7.788647e-07
7.2222739e-07
7.031633e-07
6.997013e-07
5.4634935e-08
9.2098435e-08
2.6862807e-07
4.1320192e-07
5.9302098e-07
7.5116538e-07
9.0005556e-07
1.0247697e-06
1.1261149e-06
1.1996185e-06
1.2429283e-06
1.2526354e-06
1.2285735e-06
1.1715763e-06
1.0879918e-06
9.8972091e-07
8.8908853e-07
8.0765594e-07
7.4791591e-07
7.3116688e-07
7.3374748e-07
5.0962291e-08
1.0028974e-07
2.7928507e-07
4.3677984e-07
6.3002985e-07
8.0287207e-07
9.6852343e-07
1.10971e-06
1.2289922e-06
1.3200994e-06
1.3812515e-06
1.4078111e-06
1.3981921e-06
1.3504572e-06
1.2688948e-06
1.1602894e-06
1.0409076e-06
9.2459163e-07
8.3537429e-07
7.7507472e-07
7.6305527e-07
7.7385041e-07
4.3839971e-08
1.0977161e-07
2.8526186e-07
4.5725138e-07
6.624034e-07
8.5010184e-07
1.0325017e-06
1.1906838e-06
1.3291665e-06
1.4394524e-06
1.5206736e-06
1.5671726e-06
1.576583e-06
1.5444065e-06
1.4719692e-06
1.3631979e-06
1.2291601e-06
1.0883948e-06
9.5802641e-07
8.6325132e-07
8.0514557e-07
8.0030967e-07
8.2137325e-07
3.4317364e-08
1.2000982e-07
2.8613597e-07
4.741587e-07
6.8891835e-07
8.9140973e-07
1.0903341e-06
1.2657876e-06
1.424308e-06
1.5550548e-06
1.6582416e-06
1.7272902e-06
1.7594807e-06
1.7485042e-06
1.692907e-06
1.5925248e-06
1.4554471e-06
1.2945887e-06
1.1332025e-06
9.9036193e-07
8.926407e-07
8.3958405e-07
8.4428322e-07
8.7758455e-07
2.4022821e-08
1.3008265e-07
2.8214043e-07
4.8729738e-07
7.0844021e-07
9.254862e-07
1.1403724e-06
1.3333355e-06
1.5121945e-06
1.6642949e-06
1.7910151e-06
1.8847725e-06
1.9428502e-06
1.9576756e-06
1.9258564e-06
1.8432937e-06
1.7133771e-06
1.5454958e-06
1.357455e-06
1.1759354e-06
1.0228185e-06
9.2489283e-07
8.7981032e-07
8.9626524e-07
9.4353235e-07
1.4993377e-08
1.3972974e-07
2.7442372e-07
4.9667199e-07
7.2011547e-07
9.5145431e-07
1.1812161e-06
1.3917811e-06
1.5908104e-06
1.764684e-06
1.9161086e-06
2.0363118e-06
2.1227811e-06
2.1671622e-06
2.1647876e-06
2.1086059e-06
1.9973153e-06
1.8344379e-06
1.6341988e-06
1.4180841e-06
1.2176345e-06
1.0565367e-06
9.6134514e-07
9.2709596e-07
9.5740919e-07
1.0200429e-06
9.1668684e-09
1.4977112e-07
2.6354762e-07
5.02248e-07
7.2386864e-07
9.6865104e-07
1.2117374e-06
1.4395676e-06
1.6583153e-06
1.8540311e-06
2.0307739e-06
2.1787128e-06
2.2955442e-06
2.3724319e-06
2.4040614e-06
2.3813079e-06
2.2992067e-06
2.1551937e-06
1.9567356e-06
1.721685e-06
1.4772512e-06
1.259105e-06
1.0927245e-06
1.0032811e-06
9.825926e-07
1.0286163e-06
1.107721e-06
7.9552743e-09
1.6074006e-07
2.4875713e-07
5.0387573e-07
7.2011254e-07
9.7638474e-07
1.2311951e-06
1.4752561e-06
1.7130264e-06
1.9304907e-06
2.1325536e-06
2.3089361e-06
2.4576087e-06
2.5692522e-06
2.6383811e-06
2.6546813e-06
2.6105853e-06
2.4984782e-06
2.3184101e-06
2.0804024e-06
1.808527e-06
1.5354052e-06
1.3013222e-06
1.132526e-06
1.0519332e-06
1.0473487e-06
1.1105727e-06
1.2069608e-06
1.2163902e-08
1.7189342e-07
2.3005164e-07
5.0138525e-07
7.0908984e-07
9.7455155e-07
1.2392944e-06
1.4978926e-06
1.7535575e-06
1.9924618e-06
2.2194014e-06
2.4242496e-06
2.6056512e-06
2.7537015e-06
2.8628987e-06
2.9224699e-06
2.9234061e-06
2.8543246e-06
2.7086949e-06
2.4874164e-06
2.2059905e-06
1.8948209e-06
1.5931411e-06
1.3451231e-06
1.1770488e-06
1.1083862e-06
1.1221779e-06
1.2037335e-06
1.3179482e-06
2.1660122e-08
1.8171286e-07
2.0867836e-07
4.9483157e-07
6.9090671e-07
9.6403959e-07
1.236041e-06
1.5069735e-06
1.7790587e-06
2.0385993e-06
2.2895911e-06
2.5224185e-06
2.7366609e-06
2.9221454e-06
3.0732275e-06
3.1790477e-06
3.2301896e-06
3.2130706e-06
3.1159574e-06
2.9310478e-06
2.6630696e-06
2.3333887e-06
1.9807297e-06
1.6508527e-06
1.3913657e-06
1.2272865e-06
1.1734451e-06
1.2076116e-06
1.3083585e-06
1.4406395e-06
3.6130822e-08
1.8931797e-07
1.859915e-07
4.8421534e-07
6.6591741e-07
9.4608737e-07
1.2214634e-06
1.5022463e-06
1.7892915e-06
2.067806e-06
2.3416414e-06
2.6017145e-06
2.8481468e-06
3.0712936e-06
3.2653863e-06
3.4194475e-06
3.5242937e-06
3.5656742e-06
3.5286043e-06
3.3978992e-06
3.1671717e-06
2.8453705e-06
2.4624062e-06
2.0660696e-06
1.7089324e-06
1.4408043e-06
1.284093e-06
1.2477643e-06
1.3039802e-06
1.4245107e-06
1.5748464e-06
5.6191858e-08
1.9540878e-07
1.644599e-07
4.6897901e-07
6.3512533e-07
9.2130829e-07
1.1954016e-06
1.4840648e-06
1.7842338e-06
2.079441e-06
2.3744616e-06
2.6607431e-06
2.9382663e-06
3.1983848e-06
3.4358016e-06
3.6392782e-06
3.7999881e-06
3.9041373e-06
3.9356153e-06
3.8741414e-06
3.7031566e-06
3.4177011e-06
3.034048e-06
2.5922704e-06
2.1505554e-06
1.7676488e-06
1.4941377e-06
1.3482025e-06
1.3318555e-06
1.4114293e-06
1.5520855e-06
1.7203248e-06
8.0621119e-08
2.0323144e-07
1.4513242e-07
4.5000307e-07
5.9959151e-07
8.8991348e-07
1.1587397e-06
1.453994e-06
1.7640014e-06
2.0734669e-06
2.3876137e-06
2.698446e-06
3.0056392e-06
3.3014137e-06
3.581435e-06
3.8346751e-06
4.0523609e-06
4.22168e-06
4.3271808e-06
4.3463017e-06
4.2547129e-06
4.0337089e-06
3.6828061e-06
3.2279262e-06
2.7218871e-06
2.2336694e-06
1.8272374e-06
1.5519851e-06
1.4202272e-06
1.4260424e-06
1.5299747e-06
1.6909077e-06
1.8768762e-06
1.0810394e-07
2.1220617e-07
1.2798284e-07
4.285975e-07
5.6196784e-07
8.5132242e-07
1.113483e-06
1.4137135e-06
1.7290492e-06
2.0502039e-06
2.3813139e-06
2.7142394e-06
3.0492209e-06
3.3790523e-06
3.7000484e-06
4.0023452e-06
4.2772186e-06
4.5126672e-06
4.6950429e-06
4.8021828e-06
4.8054257e-06
4.6744931e-06
4.3909585e-06
3.9613839e-06
3.4251556e-06
2.8496894e-06
2.3148043e-06
1.8878912e-06
1.614914e-06
1.5006634e-06
1.5305523e-06
1.6595632e-06
1.8408345e-06
2.0443217e-06
1.3704145e-07
2.214381e-07
1.1332864e-07
4.0857076e-07
5.2402107e-07
8.0727966e-07
1.0606019e-06
1.3642496e-06
1.6807757e-06
2.0108024e-06
2.3560401e-06
2.7082404e-06
3.0684442e-06
3.4303605e-06
3.7903019e-06
4.1398052e-06
4.4710397e-06
4.7724794e-06
5.032498e-06
5.2314481e-06
5.3400259e-06
5.3202559e-06
5.1371487e-06
4.7746995e-06
4.2511845e-06
3.6229964e-06
2.9738222e-06
2.3932863e-06
1.949827e-06
1.6834559e-06
1.589924e-06
1.6455381e-06
1.8001313e-06
2.0017606e-06
2.2225273e-06
1.65561e-07
2.3042747e-07
1.0115154e-07
3.9148946e-07
4.8956448e-07
7.6135755e-07
1.0036844e-06
1.3053546e-06
1.6211777e-06
1.957528e-06
2.3126235e-06
2.6810843e-06
3.0634354e-06
3.4547864e-06
3.8513931e-06
4.2456282e-06
4.6311217e-06
4.9973752e-06
5.3342775e-06
5.6257856e-06
5.8453143e-06
5.9519097e-06
5.8979107e-06
5.6445527e-06
5.1830479e-06
4.5484622e-06
3.8180191e-06
3.0922126e-06
2.4685063e-06
2.0133296e-06
1.7581425e-06
1.6883831e-06
1.7711078e-06
1.9516807e-06
2.1736605e-06
2.4114886e-06
1.9163823e-07
2.3877988e-07
9.1257725e-08
3.7665928e-07
4.5965223e-07
7.1902743e-07
9.4467984e-07
1.2398462e-06
1.5505985e-06
1.8923646e-06
2.2529527e-06
2.6337596e-06
3.0350447e-06
3.452382e-06
3.8828591e-06
4.319195e-06
4.7558891e-06
5.1845065e-06
5.5963442e-06
5.9788614e-06
6.3105888e-06
6.5524328e-06
6.6496254e-06
6.5438334e-06
6.1964355e-06
5.6118609e-06
4.8481195e-06
4.0062049e-06
3.2027849e-06
2.540021e-06
2.0788135e-06
1.8395561e-06
1.7964375e-06
1.9074443e-06
2.1143339e-06
2.3566174e-06
2.6112927e-06
2.1329348e-07
2.4609496e-07
8.3422192e-08
3.6401505e-07
4.3365845e-07
6.8179224e-07
8.8988014e-07
1.1704406e-06
1.4730741e-06
1.8147294e-06
2.1792858e-06
2.5686685e-06
2.9845281e-06
3.4240416e-06
3.8847593e-06
4.3602281e-06
4.8448812e-06
5.3321716e-06
5.8157636e-06
6.2861016e-06
6.7277687e-06
7.1076782e-06
7.3703611e-06
7.443856e-06
7.2610989e-06
6.7894475e-06
6.054708e-06
5.1437933e-06
4.1832649e-06
3.3036628e-06
2.6076855e-06
2.1468913e-06
1.9283878e-06
1.9145909e-06
2.0548895e-06
2.2882937e-06
2.55077e-06
2.821816e-06
2.2879601e-07
2.5197976e-07
7.744171e-08
3.5352444e-07
4.1165729e-07
6.4906532e-07
8.4183453e-07
1.1063685e-06
1.3908009e-06
1.7284028e-06
2.0912096e-06
2.4885621e-06
2.9139048e-06
3.3712502e-06
3.8579494e-06
4.3688202e-06
4.8981163e-06
5.4400107e-06
5.9908054e-06
6.5444497e-06
7.0912379e-06
7.6068034e-06
8.0411977e-06
8.3166906e-06
8.3431465e-06
8.0490065e-06
7.4167988e-06
6.5028397e-06
5.4282511e-06
4.3449702e-06
3.3934164e-06
2.6717765e-06
2.218458e-06
2.0255153e-06
2.0434998e-06
2.2139454e-06
2.4738165e-06
2.7560678e-06
3.04245e-06
2.3687307e-07
2.5612194e-07
7.3139237e-08
3.4515953e-07
3.9357041e-07
6.2110561e-07
7.9945103e-07
1.0493459e-06
1.3144306e-06
1.6353576e-06
1.9932692e-06
2.3925455e-06
2.8261923e-06
3.2961758e-06
3.8040767e-06
4.3456798e-06
4.915815e-06
5.508456e-06
6.1212013e-06
6.7522638e-06
7.3975589e-06
8.0422874e-06
8.6471224e-06
9.1371002e-06
9.4077772e-06
9.3519585e-06
8.9022022e-06
8.0679397e-06
6.945582e-06
5.6938747e-06
4.4875811e-06
3.4713095e-06
2.733112e-06
2.2947725e-06
2.1320483e-06
2.1839739e-06
2.3851213e-06
2.6710927e-06
2.9720517e-06
3.2721166e-06
2.5828393e-07
2.3687315e-07
7.0390744e-08
3.3889824e-07
3.7928384e-07
5.978731e-07
7.6314607e-07
9.9886963e-07
1.2464418e-06
1.5487617e-06
1.8866269e-06
2.2852042e-06
2.7204564e-06
3.2022291e-06
3.7255714e-06
4.2925208e-06
4.898642e-06
5.538027e-06
6.2078778e-06
6.9094656e-06
7.6451826e-06
8.4097006e-06
9.1773845e-06
9.8840796e-06
1.0421843e-05
1.0656271e-05
1.0469088e-05
9.8098337e-06
8.7287931e-06
7.3709418e-06
5.9333176e-06
4.6082741e-06
3.5375122e-06
2.7931648e-06
2.3774899e-06
2.2493209e-06
2.3368864e-06
2.5688296e-06
2.8800172e-06
3.1978474e-06
3.50976e-06
6.9085532e-08
2.5828361e-07
2.2879607e-07
3.3479782e-07
3.6870096e-07
5.7931281e-07
7.3294411e-07
9.5577197e-07
1.1859809e-06
1.4707161e-06
1.7871512e-06
2.1664749e-06
2.6016074e-06
3.0879862e-06
3.6255453e-06
4.2120909e-06
4.8482521e-06
5.5294676e-06
6.251903e-06
7.0175195e-06
7.8343643e-06
8.7073159e-06
9.6254607e-06
1.0541761e-05
1.1356185e-05
1.1919551e-05
1.2068731e-05
1.1686035e-05
1.0755365e-05
9.3823659e-06
7.7665195e-06
6.1402067e-06
4.7055594e-06
3.5932698e-06
2.8540991e-06
2.4686244e-06
2.3787707e-06
2.5030401e-06
2.7652277e-06
3.100037e-06
3.4325099e-06
3.7549388e-06
3.3284209e-07
6.9085201e-08
2.5612127e-07
2.1329369e-07
3.6185164e-07
5.6540326e-07
7.0880584e-07
9.200057e-07
1.1341447e-06
1.4010198e-06
1.6974822e-06
2.0551064e-06
2.468007e-06
2.958636e-06
3.5023236e-06
4.1074189e-06
4.7675198e-06
5.4841543e-06
6.2541886e-06
7.0783754e-06
7.9671897e-06
8.935753e-06
9.9887077e-06
1.1099777e-05
1.2187326e-05
1.3102213e-05
1.3648846e-05
1.3642939e-05
1.2986036e-05
1.1716959e-05
1.0009872e-05
8.1205704e-06
6.3098542e-06
4.7795985e-06
3.640963e-06
2.918677e-06
2.5703579e-06
2.5217353e-06
2.6829483e-06
2.9740758e-06
3.3303341e-06
3.6754464e-06
4.0080608e-06
3.5865296e-07
3.3284127e-07
7.0389722e-08
2.5197846e-07
1.9163843e-07
5.5629214e-07
6.9073071e-07
8.914504e-07
1.0909674e-06
1.3413933e-06
1.6172043e-06
1.9537022e-06
2.3420585e-06
2.8106037e-06
3.3617229e-06
3.9765092e-06
4.659712e-06
5.4049949e-06
6.2160228e-06
7.0934729e-06
8.0468108e-06
9.0978366e-06
1.0267809e-05
1.1553145e-05
1.28985e-05
1.4170166e-05
1.5157466e-05
1.561895e-05
1.5365755e-05
1.4343847e-05
1.2668642e-05
1.0592195e-05
8.4231379e-06
6.4398606e-06
4.8323407e-06
3.6839874e-06
2.9899693e-06
2.6847415e-06
2.6791875e-06
2.8766712e-06
3.1947434e-06
3.5701535e-06
3.926651e-06
4.2698724e-06
5.5194581e-07
3.5865171e-07
3.3479539e-07
7.313754e-08
2.4609332e-07
1.6556134e-07
6.7894886e-07
8.7007005e-07
1.056381e-06
1.2918451e-06
1.5483798e-06
1.8625277e-06
2.2270295e-06
2.669718e-06
3.1968746e-06
3.8258156e-06
4.5217457e-06
5.2956461e-06
6.1402222e-06
7.064261e-06
8.075771e-06
9.1981251e-06
1.0466333e-05
1.1901702e-05
1.3480045e-05
1.5096828e-05
1.6546693e-05
1.7548704e-05
1.7825978e-05
1.7211766e-05
1.5726609e-05
1.3582114e-05
1.1111563e-05
8.6670873e-06
6.5304706e-06
4.8673518e-06
3.7263063e-06
3.0709138e-06
2.8133676e-06
2.8515666e-06
3.0837929e-06
3.4265459e-06
3.819254e-06
4.1865899e-06
4.540795e-06
6.7341898e-07
5.5194384e-07
3.618479e-07
3.3889415e-07
7.7439294e-08
2.3877765e-07
1.370418e-07
8.5612675e-07
1.030411e-06
1.2522225e-06
1.491067e-06
1.7843582e-06
2.1233892e-06
2.5395847e-06
3.0379303e-06
3.6432018e-06
4.3607428e-06
5.1516908e-06
6.0305607e-06
6.9933026e-06
8.0559724e-06
9.2410253e-06
1.0590337e-05
1.2149355e-05
1.3929091e-05
1.5864368e-05
1.7775966e-05
1.9367725e-05
2.028863e-05
2.0249844e-05
1.9143322e-05
1.7095783e-05
1.4429025e-05
1.1553197e-05
8.8488303e-06
6.5844413e-06
4.8892431e-06
3.7718303e-06
3.163899e-06
2.9572091e-06
3.0387838e-06
3.3037284e-06
3.66919e-06
4.0780003e-06
4.4558183e-06
4.8209698e-06
8.495426e-07
6.7341623e-07
5.5628623e-07
3.6869468e-07
3.4515379e-07
8.3419063e-08
2.3042492e-07
1.0810441e-07
1.0134505e-06
1.2225275e-06
1.445131e-06
1.7192963e-06
2.0344464e-06
2.4218692e-06
2.8901334e-06
3.4636421e-06
4.1577322e-06
4.9809999e-06
5.8814863e-06
6.8843409e-06
7.9901982e-06
9.229638e-06
1.0646772e-05
1.2303543e-05
1.4248688e-05
1.6464055e-05
1.881455e-05
2.1017024e-05
2.2671199e-05
2.3370487e-05
2.2852715e-05
2.1112117e-05
1.8409961e-05
1.5183402e-05
1.1906608e-05
8.9684087e-06
6.6062657e-06
4.9027443e-06
3.8238464e-06
3.2706034e-06
3.1166722e-06
3.2404824e-06
3.5361336e-06
3.9229086e-06
4.3469254e-06
4.7347164e-06
5.1110617e-06
1.0054634e-06
8.4953899e-07
6.7894069e-07
5.6539339e-07
3.7927503e-07
3.5351698e-07
9.1253829e-08
2.21435e-07
8.0621605e-08
1.2032017e-06
1.410613e-06
1.6671788e-06
1.9603796e-06
2.3207501e-06
2.7561818e-06
3.2954178e-06
3.9537249e-06
4.7555908e-06
5.7020907e-06
6.7303849e-06
7.8821625e-06
9.1674499e-06
1.064112e-05
1.2374073e-05
1.4447e-05
1.6895625e-05
1.9643045e-05
2.2447171e-05
2.4892417e-05
2.6474089e-05
2.6764018e-05
2.557947e-05
2.3062252e-05
1.9628151e-05
1.5823754e-05
1.2166067e-05
9.0286335e-06
6.6009287e-06
4.9119514e-06
3.8848816e-06
3.3921682e-06
3.2918748e-06
3.4564354e-06
3.7811608e-06
4.1881689e-06
4.6264491e-06
5.0239764e-06
5.4120576e-06
1.1941471e-06
1.0054587e-06
8.5611578e-07
6.9071701e-07
5.7929894e-07
3.9355898e-07
3.6400587e-07
1.0114688e-07
2.1220279e-07
5.6192455e-08
1.3880641e-06
1.6280687e-06
1.9010246e-06
2.2365463e-06
2.6409858e-06
3.1425623e-06
3.7617895e-06
4.5233757e-06
5.4520129e-06
6.5425361e-06
7.7222638e-06
9.058505e-06
1.0578479e-05
1.2370265e-05
1.4536444e-05
1.7166296e-05
2.0253563e-05
2.3621492e-05
2.6877979e-05
2.9455134e-05
3.0765008e-05
3.041375e-05
2.8360397e-05
2.4934305e-05
2.0712905e-05
1.6334206e-05
1.2329787e-05
9.0334095e-06
6.5728527e-06
4.9202934e-06
3.9571046e-06
3.5295557e-06
3.4830168e-06
3.6868988e-06
4.0393659e-06
4.465536e-06
4.917357e-06
5.3246263e-06
5.7242508e-06
1.3774351e-06
1.1941409e-06
1.0134362e-06
8.7005181e-07
7.0878663e-07
5.9785519e-07
4.1164323e-07
3.7664831e-07
1.1332316e-07
2.0322757e-07
3.6131385e-08
1.6026023e-06
1.8564472e-06
2.1690946e-06
2.5449849e-06
3.0108392e-06
3.5870468e-06
4.3038502e-06
5.186417e-06
6.2650009e-06
7.5239767e-06
8.8893424e-06
1.0464134e-05
1.2300494e-05
1.4531206e-05
1.7290042e-05
2.0648977e-05
2.4517804e-05
2.8565828e-05
3.2209151e-05
3.4727397e-05
3.5499024e-05
3.4240264e-05
3.111568e-05
2.6669591e-05
2.1632394e-05
1.6703901e-05
1.239794e-05
8.986302e-06
6.5260002e-06
4.9312121e-06
4.0428068e-06
3.6838427e-06
3.6907404e-06
3.932654e-06
4.3115783e-06
4.7559642e-06
5.2207629e-06
5.637274e-06
6.0486586e-06
1.5906884e-06
1.3774272e-06
1.2031833e-06
1.0303873e-06
8.9142464e-07
7.3291921e-07
6.210836e-07
4.3364167e-07
3.9147672e-07
1.2797655e-07
1.9540473e-07
2.1660763e-08
1.8273367e-06
2.118489e-06
2.4680445e-06
2.9009076e-06
3.4359662e-06
4.1033547e-06
4.9340895e-06
5.9597923e-06
7.2148159e-06
8.6774971e-06
1.0279487e-05
1.2172908e-05
1.4445242e-05
1.7285936e-05
2.0842337e-05
2.5128675e-05
2.9910221e-05
3.4640084e-05
3.8513997e-05
4.0690712e-05
4.0595999e-05
3.8144283e-05
3.3760711e-05
2.8213395e-05
2.2360334e-05
1.6924695e-05
1.2370842e-05
8.8908004e-06
6.465194e-06
4.9489556e-06
4.1446296e-06
3.8565217e-06
3.916303e-06
4.1949203e-06
4.5990553e-06
5.0606387e-06
5.5369175e-06
5.963366e-06
6.3922164e-06
1.8136057e-06
1.5906786e-06
1.3880407e-06
1.2224966e-06
1.0563474e-06
9.1997242e-07
7.6311547e-07
6.4903915e-07
4.5963271e-07
4.0855622e-07
1.4512529e-07
1.8931353e-07
1.2164433e-08
2.0854937e-06
2.4103109e-06
2.8127391e-06
3.3095632e-06
3.9292317e-06
4.7028466e-06
5.668367e-06
6.8620484e-06
8.3323757e-06
1.0047939e-05
1.1962045e-05
1.4292018e-05
1.7175885e-05
2.085622e-05
2.5461386e-05
3.0884088e-05
3.6667232e-05
4.1987502e-05
4.5821324e-05
4.7279434e-05
4.5942852e-05
4.2012584e-05
3.6210592e-05
2.9515676e-05
2.2873476e-05
1.6989036e-05
1.224944e-05
8.7526406e-06
6.3973712e-06
4.9787104e-06
4.2656593e-06
4.0497584e-06
4.1615587e-06
4.4753277e-06
4.9031979e-06
5.3794493e-06
5.8661894e-06
6.3076432e-06
6.7565592e-06
2.0699988e-06
1.8135936e-06
1.6025725e-06
1.4105735e-06
1.2521791e-06
1.090924e-06
9.5573086e-07
7.994145e-07
6.8176184e-07
4.8954214e-07
4.2858118e-07
1.6445202e-07
1.8170838e-07
7.9557381e-09
2.3726086e-06
2.7465962e-06
3.2080241e-06
3.7830271e-06
4.5010827e-06
5.4001515e-06
6.5235377e-06
7.9207365e-06
9.6597034e-06
1.1697514e-05
1.4037138e-05
1.6982411e-05
2.0721714e-05
2.553847e-05
3.1480529e-05
3.8230844e-05
4.5020221e-05
5.0709088e-05
5.410232e-05
5.4379116e-05
5.1399007e-05
4.5723659e-05
3.8381745e-05
3.0528561e-05
2.3149012e-05
1.689122e-05
1.2038915e-05
8.5820126e-06
6.3315191e-06
5.0262924e-06
4.4096585e-06
4.2664067e-06
4.4286662e-06
4.7754317e-06
5.2237504e-06
5.7119424e-06
6.2168138e-06
6.6713966e-06
7.1368065e-06
2.3547997e-06
2.0699838e-06
1.8272997e-06
1.628019e-06
1.4450755e-06
1.2917886e-06
1.1340909e-06
9.9882059e-07
8.4179203e-07
7.1899274e-07
5.239959e-07
4.4998511e-07
1.8598282e-07
1.7188872e-07
9.1671315e-09
2.703403e-06
3.1318e-06
3.6652778e-06
4.3308032e-06
5.1647701e-06
6.2104053e-06
7.5234568e-06
9.1714993e-06
1.1252341e-05
1.3718336e-05
1.6659903e-05
2.0475327e-05
2.5399173e-05
3.1715103e-05
3.929671e-05
4.750367e-05
5.5169414e-05
6.0842386e-05
6.3262357e-05
6.1829559e-05
5.680266e-05
4.9150231e-05
4.0189404e-05
3.1203215e-05
2.3166791e-05
1.6632969e-05
1.1752703e-05
8.393454e-06
6.2778863e-06
5.0981364e-06
4.5809834e-06
4.5093936e-06
4.719323e-06
5.0947752e-06
5.5595588e-06
6.0714151e-06
6.5848382e-06
7.0531554e-06
7.536084e-06
2.6830095e-06
2.3547826e-06
2.0854493e-06
1.8563854e-06
1.6671084e-06
1.4909946e-06
1.3413235e-06
1.1859165e-06
1.0492885e-06
8.8983143e-07
7.6131857e-07
5.6193993e-07
4.6895959e-07
2.0866891e-07
1.6073542e-07
1.4993435e-08
3.0819223e-06
3.5767788e-06
4.1931661e-06
4.9648763e-06
5.9338376e-06
7.153937e-06
8.6985934e-06
1.0659732e-05
1.3196648e-05
1.6254222e-05
2.005786e-05
2.509874e-05
3.163077e-05
3.9861519e-05
4.9357983e-05
5.9028286e-05
6.7254224e-05
7.2343951e-05
7.3138718e-05
6.9430329e-05
6.1973969e-05
5.2156458e-05
4.1543765e-05
3.1492948e-05
2.2918663e-05
1.6229737e-05
1.1412795e-05
8.2039842e-06
6.2471592e-06
5.2008134e-06
4.7836228e-06
4.7807713e-06
5.0329563e-06
5.4317336e-06
5.9283639e-06
6.4477793e-06
6.9724806e-06
7.4525957e-06
7.9562401e-06
3.0582645e-06
2.6829905e-06
2.3725566e-06
2.1184139e-06
1.9009368e-06
1.7192046e-06
1.5482901e-06
1.4009358e-06
1.2463662e-06
1.1063027e-06
9.446249e-07
8.0723651e-07
5.9956095e-07
4.8419445e-07
2.3004132e-07
1.4976638e-07
2.4022653e-08
3.5187631e-06
4.0894523e-06
4.8025934e-06
5.6974168e-06
6.8254351e-06
8.2561684e-06
1.0087431e-05
1.2456801e-05
1.5623922e-05
1.952225e-05
2.4562206e-05
3.1304172e-05
3.9962411e-05
5.0542589e-05
6.2137621e-05
7.3084777e-05
8.1324175e-05
8.507796e-05
8.3502789e-05
7.6943912e-05
6.6711491e-05
5.4592637e-05
4.2353926e-05
3.136751e-05
2.2419134e-05
1.5712424e-05
1.1046203e-05
8.0308043e-06
6.2491298e-06
5.3397994e-06
5.0204874e-06
5.0804056e-06
5.3676252e-06
5.8080296e-06
6.3152081e-06
6.8463909e-06
7.3764727e-06
7.8725837e-06
8.3987094e-06
3.4911636e-06
3.0582435e-06
2.7033448e-06
2.4102238e-06
2.1689885e-06
1.9602652e-06
1.784244e-06
1.6170961e-06
1.4706174e-06
1.3143434e-06
1.1703658e-06
1.0036233e-06
8.5127516e-07
6.3509207e-07
4.9480926e-07
2.4874599e-07
1.3972504e-07
3.4316964e-08
4.0212278e-06
4.6798133e-06
5.5042062e-06
6.5425501e-06
7.8602395e-06
9.5491627e-06
1.1748149e-05
1.4669113e-05
1.8734787e-05
2.384662e-05
3.0641771e-05
3.9695883e-05
5.1071998e-05
6.4394104e-05
7.8094277e-05
8.9866335e-05
9.7314348e-05
9.881101e-05
9.4061495e-05
8.4090743e-05
7.0784082e-05
5.6299333e-05
4.2548423e-05
3.0832065e-05
2.1708636e-05
1.5122177e-05
1.0679898e-05
7.8883435e-06
6.2913445e-06
5.519856e-06
5.29311e-06
5.406318e-06
5.746532e-06
6.2060755e-06
6.7284739e-06
7.2615732e-06
7.8001854e-06
8.3146159e-06
8.8657081e-06
3.9885779e-06
3.4911411e-06
3.0818593e-06
2.7464988e-06
2.4679204e-06
2.2364071e-06
2.0343036e-06
1.8623901e-06
1.6973547e-06
1.5486473e-06
1.3907014e-06
1.2397628e-06
1.0605347e-06
8.8986205e-07
6.6588142e-07
5.0136144e-07
2.6353552e-07
1.3007788e-07
4.3839376e-08
4.5986901e-06
5.3572909e-06
6.3095772e-06
7.5167772e-06
9.0640949e-06
1.1079569e-05
1.3767438e-05
1.7459073e-05
2.2830614e-05
2.9699159e-05
3.8944239e-05
5.10542e-05
6.5763503e-05
8.2085592e-05
9.7620459e-05
0.0001094382
0.0001150273
0.00011320846
0.00010444987
9.0536492e-05
7.3933265e-05
5.7135483e-05
4.2106549e-05
2.9935894e-05
2.0846757e-05
1.4500117e-05
1.0334652e-05
7.7870389e-06
6.3822883e-06
5.7464165e-06
5.5998543e-06
5.7780399e-06
6.1542747e-06
6.6351705e-06
7.1602845e-06
7.6965816e-06
8.2451444e-06
8.7816286e-06
9.3598457e-06
4.5596413e-06
3.9885556e-06
3.5186966e-06
3.1316934e-06
2.8125998e-06
2.5448226e-06
2.3205767e-06
2.1232168e-06
1.9535392e-06
1.787003e-06
1.6352267e-06
1.4729626e-06
1.3052626e-06
1.1134095e-06
9.2125264e-07
6.9086789e-07
5.0385043e-07
2.7441073e-07
1.2000498e-07
5.0961541e-08
5.2597747e-06
6.1315488e-06
7.2318697e-06
8.6402711e-06
1.0473468e-05
1.2916764e-05
1.6277751e-05
2.1073072e-05
2.8356846e-05
3.7752984e-05
5.0336079e-05
6.6346874e-05
8.4939662e-05
0.00010426365
0.00012098382
0.00013170063
0.0001341186
0.00012782244
0.00011421185
9.5889117e-05
7.5908937e-05
5.7027247e-05
4.1078676e-05
2.8761943e-05
1.989474e-05
1.3875712e-05
1.0025095e-05
7.7422143e-06
6.535241e-06
6.0184053e-06
5.9474586e-06
6.1912432e-06
6.5977431e-06
7.086213e-06
7.6137981e-06
8.1529215e-06
8.7150227e-06
9.2766207e-06
9.8842557e-06
5.2126752e-06
4.5596198e-06
4.0211595e-06
3.5766657e-06
3.2078725e-06
2.9007252e-06
2.6407825e-06
2.4216587e-06
2.226825e-06
2.0549167e-06
1.8864568e-06
1.7282554e-06
1.5504751e-06
1.3641488e-06
1.1586599e-06
9.4602727e-07
7.0904805e-07
5.0222103e-07
2.8212638e-07
1.0976665e-07
5.4634051e-08
6.0127239e-06
7.0126467e-06
8.2858923e-06
9.9403572e-06
1.21427e-05
1.5167104e-05
1.948207e-05
2.5883034e-05
3.5959698e-05
4.8941517e-05
6.5935172e-05
8.6719151e-05
0.00010954819
0.00013147811
0.00014826608
0.0001563557
0.00015407602
0.00014206419
0.00012278717
9.9739286e-05
7.6541556e-05
5.6007915e-05
3.9575866e-05
2.739809e-05
1.8893708e-05
1.3269385e-05
9.7784355e-06
7.7813132e-06
6.7497299e-06
6.3147018e-06
6.3573472e-06
6.6445876e-06
7.0683259e-06
7.5622167e-06
8.0904419e-06
8.6345996e-06
9.2133375e-06
9.8030347e-06
1.0441984e-05
5.9550837e-06
5.2126544e-06
4.5986231e-06
4.0893375e-06
3.6651172e-06
3.3093632e-06
3.0106097e-06
2.7559352e-06
2.5393353e-06
2.3418203e-06
2.1662564e-06
1.9930772e-06
1.8145661e-06
1.6210421e-06
1.4136034e-06
1.195315e-06
9.6397484e-07
7.2006757e-07
4.9664327e-07
2.8612087e-07
1.0028453e-07
5.4540238e-08
6.8654097e-06
8.0110643e-06
9.491494e-06
1.145836e-05
1.4155591e-05
1.7995792e-05
2.3691397e-05
3.2441346e-05
4.6552959e-05
6.4517712e-05
8.7124515e-05
0.000113453
0.00014049954
0.00016409503
0.0001793019
0.00018286952
0.00017418036
0.00015517568
0.00012954951
0.00010176001
7.5813168e-05
5.421327e-05
3.7720805e-05
2.5900224e-05
1.7871457e-05
1.2728317e-05
9.64617e-06
7.9043612e-06
6.9523038e-06
6.7066375e-06
6.8112076e-06
7.1325672e-06
7.568396e-06
8.0648258e-06
8.5942732e-06
9.1453591e-06
9.7440004e-06
1.0363782e-05
1.1035349e-05
6.7934976e-06
5.9550648e-06
5.2597125e-06
4.6797012e-06
4.1930013e-06
3.7828143e-06
3.4357149e-06
3.1422835e-06
2.8898398e-06
2.6694266e-06
2.4677323e-06
2.2849578e-06
2.0909968e-06
1.8921846e-06
1.6806272e-06
1.4538742e-06
1.2213696e-06
9.7448176e-07
7.2382023e-07
4.8726667e-07
2.8524557e-07
9.2092983e-08
5.1167488e-08
7.8256788e-06
9.1412575e-06
1.0879625e-05
1.3259527e-05
1.6645002e-05
2.1660586e-05
2.9376766e-05
4.1551874e-05
6.139162e-05
8.610168e-05
0.00011553385
0.00014788758
0.00017855683
0.00020219973
0.00021361206
0.00021041572
0.0001934573
0.00016625467
0.0001339324
0.00010182381
7.3868599e-05
5.1809264e-05
3.5585003e-05
2.4304502e-05
1.6907477e-05
1.2343406e-05
9.628295e-06
7.9491084e-06
7.3028197e-06
7.1453223e-06
7.3105263e-06
7.6562064e-06
8.0997542e-06
8.5979064e-06
9.1290034e-06
9.6892324e-06
1.0309912e-05
1.0960569e-05
1.1665316e-05
7.7345495e-06
6.7934835e-06
6.0126691e-06
5.3571843e-06
4.802431e-06
4.3305855e-06
3.928964e-06
3.5867394e-06
3.2950848e-06
3.0375875e-06
2.8102685e-06
2.6012976e-06
2.3922718e-06
2.1790508e-06
1.9573307e-06
1.7288872e-06
1.4839346e-06
1.2359395e-06
9.7630955e-07
7.2006334e-07
4.7412586e-07
2.7926759e-07
8.5177777e-08
4.5568751e-08
8.9036132e-06
1.0425969e-05
1.2500811e-05
1.5450558e-05
1.9823589e-05
2.6560671e-05
3.7239467e-05
5.4356509e-05
8.2141986e-05
0.00011570057
0.00015297455
0.00019129538
0.00022419905
0.0002454865
0.0002503179
0.00023780229
0.00021067667
0.00017439608
0.00013560778
0.00010004792
7.0916754e-05
4.8882978e-05
3.3211913e-05
2.2740364e-05
1.6155734e-05
1.2113218e-05
9.4195174e-06
8.2221807e-06
7.7018564e-06
7.6449185e-06
7.8541164e-06
8.217344e-06
8.6661083e-06
9.1651963e-06
9.6984255e-06
1.0268866e-05
1.0912623e-05
1.1594161e-05
1.2330569e-05
8.7861614e-06
7.7345413e-06
6.8653648e-06
6.1314523e-06
5.5040522e-06
4.9646612e-06
4.5008063e-06
4.1030256e-06
3.7614225e-06
3.463253e-06
3.1964795e-06
2.9582571e-06
2.7201123e-06
2.4882605e-06
2.2526952e-06
2.0105867e-06
1.763825e-06
1.5021051e-06
1.2391847e-06
9.6856993e-07
7.0838408e-07
4.5721616e-07
2.6860934e-07
7.9188477e-08
3.8959231e-08
1.0116577e-05
1.1905046e-05
1.444189e-05
1.8208204e-05
2.4030063e-05
3.3305115e-05
4.8301492e-05
7.2431979e-05
0.00011093214
0.00015567897
0.00020131337
0.00024470941
0.00027745392
0.00029312513
0.0002880343
0.00026343385
0.00022448735
0.00017893975
0.0001345939
9.6669348e-05
6.7055777e-05
4.5478923e-05
3.0807222e-05
2.1462098e-05
1.56106e-05
1.1509734e-05
9.5619265e-06
8.5437545e-06
8.1837736e-06
8.2008343e-06
8.4434888e-06
8.8193491e-06
9.2711926e-06
9.7700558e-06
1.0304533e-05
1.0885674e-05
1.155301e-05
1.2263563e-05
1.3027718e-05
9.9630156e-06
8.7861572e-06
7.8256481e-06
7.0125675e-06
6.3094362e-06
5.6972086e-06
5.1644941e-06
4.7025063e-06
4.3034562e-06
3.9532938e-06
3.6427525e-06
3.3612767e-06
3.0875663e-06
2.8258137e-06
2.568338e-06
2.312342e-06
2.0499692e-06