/*--------------------------------*- C++ -*----------------------------------*\
| =========                 |                                                 |
| \\      /  F ield         | OpenFOAM: The Open Source CFD Toolbox           |
|  \\    /   O peration     | Version:  5.0                                   |
|   \\  /    A nd           | Web:      www.OpenFOAM.org                      |
|    \\/     M anipulation  |                                                 |
\*---------------------------------------------------------------------------*/
FoamFile
{
    version     2.0;
    format      ascii;
    class       volVectorField;
    location    "60";
    object      U;
}
// * * * * * * * * * * * * * * * * * * * * * * * * * * * * * * * * * * * * * //

dimensions      [0 1 -1 0 0 0 0];

internalField   nonuniform List<vector> 
9200
(
(1.0209401 -0.00038178484 -8.1665192e-24)
(1.0210461 -0.0011207415 -6.2847552e-21)
(1.0220106 -0.00037329619 0)
(1.0212127 -0.0017978453 3.2316205e-21)
(1.022104 -0.0011032294 -4.7891302e-21)
(1.0224646 -0.00036995208 0)
(1.0213729 -0.002454027 3.2086861e-22)
(1.0222796 -0.0017648714 -2.5696136e-22)
(1.0225568 -0.0011014188 0)
(1.0231546 -0.00036678757 0)
(1.021522 -0.0030684561 -6.1624688e-21)
(1.022458 -0.0024104323 -3.407625e-21)
(1.0227359 -0.0017622001 -2.6690992e-21)
(1.0232421 -0.0011026761 -1.654866e-22)
(1.0237008 -0.00036550858 5.8501855e-25)
(1.0216259 -0.0036653261 -5.6636596e-21)
(1.0226324 -0.0030097269 4.6090095e-22)
(1.0229182 -0.0024089132 -8.5404332e-21)
(1.0234271 -0.0017613833 -3.1714476e-21)
(1.0237878 -0.0011103853 8.2167636e-23)
(1.0242876 -0.00036516466 6.9428822e-21)
(1.0216666 -0.0042371495 -5.4793658e-21)
(1.022769 -0.0035923406 -5.7768198e-21)
(1.0230997 -0.0030059367 5.1432067e-21)
(1.0236181 -0.002410614 2.9160232e-22)
(1.0239772 -0.0017719937 -3.3420285e-21)
(1.0243756 -0.0011230278 -3.2306415e-21)
(1.0248324 -0.00036572188 -4.659447e-22)
(1.0216175 -0.0047939736 -2.7312933e-21)
(1.0228487 -0.0041468801 -3.9624499e-21)
(1.0232453 -0.0035866457 -5.5269421e-21)
(1.0238131 -0.0030057208 2.0342481e-22)
(1.0241735 -0.0024284813 7.7209441e-21)
(1.0245702 -0.0017894834 3.3465806e-21)
(1.0249225 -0.0011397461 4.3886756e-21)
(1.0253785 -0.00036681793 -6.6938885e-21)
(1.0214558 -0.0053363595 6.7438722e-21)
(1.0228465 -0.0046852548 -4.5516625e-21)
(1.0233368 -0.0041372782 1.7848733e-22)
(1.0239755 -0.0035852264 -2.7854169e-21)
(1.0243769 -0.0030266874 4.6120511e-22)
(1.0247726 -0.0024566076 1.1950096e-20)
(1.0251221 -0.0018135744 -2.9421275e-21)
(1.0254738 -0.0011600367 7.4183158e-21)
(1.0259062 -0.00036811176 1.4236575e-20)
(1.0211557 -0.0058692809 -5.3193838e-21)
(1.0227402 -0.0052067975 2.1760735e-21)
(1.0233492 -0.0046709092 1.2895006e-22)
(1.0240875 -0.0041319195 -6.9726009e-22)
(1.0245498 -0.0036101414 9.2716389e-22)
(1.0249855 -0.0030611313 7.8747629e-22)
(1.0253299 -0.0024944955 -4.17068e-21)
(1.0256796 -0.0018430862 -7.5004962e-21)
(1.0260071 -0.0011824056 -4.0174821e-21)
(1.0264266 -0.00036921722 -9.9749564e-22)
(1.0206899 -0.0063959162 2.3825408e-21)
(1.0225061 -0.0057167877 -2.1954325e-22)
(1.023261 -0.0051861834 -3.6048018e-21)
(1.0241242 -0.0046603369 3.6588697e-21)
(1.0246749 -0.0041583702 -5.534133e-21)
(1.0251695 -0.0036522573 1.2081714e-20)
(1.025551 -0.0031088225 2.6139753e-22)
(1.0258943 -0.0025408903 -1.2352834e-20)
(1.0262196 -0.0018759905 6.2261876e-21)
(1.0265362 -0.0012059296 -1.2833711e-20)
(1.0269357 -0.00036981344 2.0963102e-21)
(1.0200261 -0.0069202754 5.4321563e-23)
(1.0221192 -0.0062180923 9.9791054e-22)
(1.0230493 -0.0056886278 3.1261474e-21)
(1.024065 -0.005168037 0)
(1.0247273 -0.0046872459 -5.6914787e-23)
(1.0253077 -0.0042057405 -5.6180594e-22)
(1.0257445 -0.0037115998 2.4744796e-21)
(1.0261247 -0.0031684126 6.0955046e-21)
(1.0264416 -0.0025929277 -7.2645933e-22)
(1.0267574 -0.0019109307 7.7174369e-21)
(1.0270553 -0.001229317 5.3098367e-21)
(1.0274345 -0.0003694876 -1.1126115e-21)
(1.0191231 -0.0074461735 -5.6371017e-23)
(1.0215504 -0.0067149359 2.8888486e-22)
(1.0226902 -0.0061809509 0)
(1.023888 -0.005660776 0)
(1.0246871 -0.0051932303 1.8639185e-21)
(1.0253753 -0.0047388592 -2.8648368e-21)
(1.0258938 -0.0042747046 5.6507852e-21)
(1.0263283 -0.0037869481 -6.4741645e-21)
(1.0266815 -0.0032364545 -5.0512912e-22)
(1.0269895 -0.0026491042 7.7441009e-24)
(1.0272865 -0.0019458266 -9.5250188e-21)
(1.0275664 -0.001251168 1.0785765e-20)
(1.0279218 -0.00036786913 -1.9366864e-20)
(1.0179257 -0.0079773451 -2.5990487e-22)
(1.0207621 -0.0072117965 -6.9524871e-23)
(1.0221562 -0.0066673533 1.4457468e-21)
(1.0235707 -0.0061410075 -1.6884088e-21)
(1.0245333 -0.0056822114 1.9182477e-21)
(1.025353 -0.0052467735 -6.1669053e-22)
(1.0259739 -0.0048167581 -1.5919873e-21)
(1.0264887 -0.0043642008 7.0168326e-23)
(1.0268954 -0.0038742558 -5.639335e-21)
(1.0272417 -0.0033114691 -5.0611407e-21)
(1.0275306 -0.0027063854 -2.4432587e-21)
(1.02781 -0.0019785731 -6.7263148e-21)
(1.028068 -0.0012700916 -4.5716204e-21)
(1.0283965 -0.00036459032 5.2669196e-21)
(1.0163608 -0.0085168602 4.5162388e-21)
(1.0197031 -0.0077140972 -1.1055969e-21)
(1.0214124 -0.0071521073 8.7448876e-22)
(1.0230876 -0.0066130576 4.902599e-24)
(1.0242446 -0.0061562564 -9.1371023e-26)
(1.0252204 -0.0057354603 5.8722602e-22)
(1.0259663 -0.0053315387 -1.4807723e-21)
(1.0265805 -0.004920099 1.9848629e-21)
(1.0270664 -0.0044698092 -4.638111e-22)
(1.0274683 -0.0039723352 4.4467899e-22)
(1.0277967 -0.0033895605 1.4468474e-22)
(1.0280694 -0.0027620402 -4.8288446e-23)
(1.0283261 -0.0020069923 9.4403953e-21)
(1.028559 -0.0012846866 -4.8542089e-21)
(1.0288568 -0.00035932445 4.0429432e-21)
(1.0143356 -0.0090662659 -8.2224653e-22)
(1.0183022 -0.0082280275 1.6450566e-21)
(1.0204114 -0.0076402593 -3.9153907e-22)
(1.0224071 -0.0070814484 1.3825104e-21)
(1.0237975 -0.0066195638 -1.6560622e-21)
(1.0249575 -0.0062065189 4.4341386e-21)
(1.0258511 -0.0058250246 -4.4586516e-21)
(1.0265855 -0.0054468583 1.6773033e-22)
(1.0271689 -0.0050442941 1.5450647e-21)
(1.0276519 -0.004590811 -1.3294158e-21)
(1.0280376 -0.0040763859 1.5483094e-20)
(1.0283534 -0.0034676812 -5.6082015e-21)
(1.0286043 -0.0028129994 -3.0942455e-21)
(1.0288344 -0.0020288819 -1.1071737e-21)
(1.0290378 -0.0012936245 3.5440713e-23)
(1.0293007 -0.0003517764 -4.3853328e-21)
(1.0117439 -0.0096243102 0)
(1.0164639 -0.0087599516 7.9580042e-22)
(1.0190861 -0.0081374043 -1.4984285e-21)
(1.0214853 -0.0075518526 0)
(1.0231631 -0.0070764581 0)
(1.0245427 -0.0066640166 0)
(1.0256097 -0.0062982275 5.8264519e-23)
(1.0264845 -0.005950355 -3.2812178e-21)
(1.0271849 -0.0055882794 2.3055276e-21)
(1.0277663 -0.0051892532 -4.2491856e-21)
(1.0282349 -0.0047216323 4.6179761e-22)
(1.0286129 -0.0041833832 -3.2216493e-21)
(1.0289097 -0.0035418843 4.5741807e-22)
(1.0291355 -0.0028561747 3.4223093e-21)
(1.0293333 -0.0020421139 6.6307577e-22)
(1.0295024 -0.0012956658 2.2806315e-21)
(1.0297264 -0.00034167959 0)
(1.0084813 -0.010185552 7.6826345e-22)
(1.014071 -0.0093149257 -2.1592303e-21)
(1.0173447 -0.0086492157 1.4339645e-21)
(1.0202595 -0.0080309816 1.8927127e-22)
(1.0223018 -0.0075325159 1.2115982e-21)
(1.0239495 -0.0071121254 0)
(1.0252218 -0.0067549306 1.9985763e-21)
(1.0262599 -0.006430887 -4.8438905e-22)
(1.0270959 -0.0061074534 -6.9969285e-21)
(1.0277936 -0.0057563919 3.058477e-21)
(1.0283619 -0.0053487618 2.4496568e-21)
(1.0288282 -0.0048595678 5.4175322e-22)
(1.0291911 -0.0042883125 -7.4938946e-21)
(1.029467 -0.0036083867 1.0938345e-20)
(1.0296615 -0.0028884928 1.9808106e-21)
(1.029821 -0.0020446906 1.6171998e-20)
(1.0299505 -0.0012896907 5.9056617e-21)
(1.030132 -0.00032882787 5.177819e-21)
(1.0044672 -0.010739378 1.1679417e-22)
(1.010997 -0.0098945165 -5.3193381e-22)
(1.0150701 -0.009180204 -8.9722808e-22)
(1.0186406 -0.0085262847 1.1106229e-21)
(1.0211559 -0.007994521 -1.0184566e-22)
(1.0231426 -0.0075564747 2.0176475e-21)
(1.024664 -0.0071989272 5.3193953e-22)
(1.0258928 -0.0068918515 -4.6011905e-21)
(1.026885 -0.0066012914 -2.0132402e-21)
(1.0277155 -0.0062975475 3.4201716e-21)
(1.0284004 -0.0059445574 -7.2847289e-22)
(1.0289713 -0.0055207038 6.226777e-21)
(1.0294274 -0.0049985245 -3.8719931e-21)
(1.0297764 -0.0043870131 -9.0172439e-23)
(1.0300241 -0.0036631693 -4.3367403e-22)
(1.0301808 -0.0029070118 -2.6237226e-21)
(1.0302954 -0.0020348082 5.318347e-21)
(1.0303802 -0.0012747161 -2.2054031e-22)
(1.0305154 -0.00031308006 4.6050624e-21)
(0.99966928 -0.011269973 1.4056763e-21)
(1.007128 -0.010494505 6.7947011e-22)
(1.0121303 -0.0097318417 -4.7327558e-21)
(1.0165104 -0.0090447549 -1.8178985e-23)
(1.0196412 -0.0084703785 1.0986606e-21)
(1.0220696 -0.008004149 8.237926e-22)
(1.0239044 -0.00763557 2.8518714e-22)
(1.0253619 -0.0073365869 2.9815353e-21)
(1.026535 -0.0070727444 -7.8996994e-22)
(1.0275159 -0.0068112034 -7.2791056e-21)
(1.0283324 -0.0065138419 6.7106302e-21)
(1.0290238 -0.0061514965 -5.1418813e-22)
(1.0295895 -0.0056979781 -2.3911978e-21)
(1.03004 -0.0051343103 1.8488122e-22)
(1.0303662 -0.0044742658 1.7022674e-22)
(1.03058 -0.0037024051 -9.1166556e-21)
(1.0306916 -0.0029090111 2.4575118e-21)
(1.0307542 -0.0020108932 -8.51619e-21)
(1.0307893 -0.0012499541 -2.0670067e-21)
(1.0308747 -0.00029435484 -4.5365138e-21)
(0.99412203 -0.011757451 -3.4115595e-22)
(1.0023906 -0.011103263 2.8319637e-22)
(1.0083983 -0.010300478 -1.2586832e-21)
(1.013728 -0.0095908885 1.034826e-21)
(1.0176415 -0.0089682008 8.3795987e-22)
(1.0206523 -0.0084637626 -9.6730439e-22)
(1.0228955 -0.0080717803 2.3250339e-21)
(1.0246391 -0.00777002 5.2843366e-21)
(1.0260268 -0.0075245644 -3.4650991e-21)
(1.0271787 -0.0072996984 0)
(1.0281425 -0.0070539638 -4.162235e-21)
(1.0289675 -0.00675608 2.5047029e-21)
(1.0296581 -0.006369249 6.7429197e-21)
(1.030227 -0.0058766616 -5.6578391e-21)
(1.030662 -0.0052603665 2.9157405e-21)
(1.0309621 -0.0045455274 -7.2567987e-21)
(1.0311328 -0.0037223851 -1.6566719e-22)
(1.0311914 -0.0028920705 3.1432835e-21)
(1.0311949 -0.0019716519 -5.0226984e-21)
(1.0311757 -0.0012148386 -4.1979619e-22)
(1.0312082 -0.00027263067 -3.952284e-21)
(0.9879315 -0.012179955 -5.4752429e-21)
(0.99677618 -0.011701404 -1.730339e-22)
(1.0037804 -0.010875705 2.6459647e-21)
(1.0101486 -0.010164154 -2.6742669e-21)
(1.0150121 -0.0094944308 -1.4278546e-21)
(1.0187789 -0.0089448914 7.6350995e-22)
(1.0215649 -0.0085165203 0)
(1.0236829 -0.0081989113 2.4072972e-21)
(1.0253357 -0.0079611454 -5.2473641e-22)
(1.0266867 -0.0077650625 -7.1536055e-21)
(1.0278156 -0.0075665398 -9.5869531e-22)
(1.0287874 -0.0073304364 1.6731451e-21)
(1.0296149 -0.0070156531 -4.6122517e-22)
(1.0303172 -0.0065944898 -2.2338426e-21)
(1.0308792 -0.006048829 4.1020146e-21)
(1.0312981 -0.0053716948 -3.9841161e-21)
(1.0315609 -0.0045958383 9.2167274e-22)
(1.0316805 -0.0037197334 -5.7776696e-21)
(1.0316778 -0.0028541127 -9.3707721e-22)
(1.0316154 -0.0019160664 -1.8598917e-22)
(1.0315374 -0.0011690188 -2.3932646e-21)
(1.0315142 -0.00024794075 0)
(0.98126423 -0.012516003 -3.0909905e-21)
(0.99035563 -0.012262747 4.3210981e-22)
(0.99824283 -0.011439878 2.0610613e-22)
(1.0056512 -0.010756759 -1.9751711e-21)
(1.0115958 -0.010051091 -6.4033132e-22)
(1.016304 -0.0094563774 9.9705689e-22)
(1.0198079 -0.0089804462 -1.8515147e-21)
(1.0224286 -0.0086324346 3.6950465e-21)
(1.0244256 -0.0083886344 1.6937143e-21)
(1.0260184 -0.0082109958 3.6305237e-22)
(1.0273361 -0.0080528085 -9.4331853e-23)
(1.0284694 -0.0078752335 -3.4802919e-21)
(1.0294451 -0.0076316404 5.6897607e-22)
(1.0302915 -0.0072901528 5.0612015e-22)
(1.030996 -0.0068180096 -5.189368e-21)
(1.0315535 -0.0062092435 -6.0659434e-21)
(1.0319436 -0.0054618684 2.7777126e-22)
(1.0321624 -0.0046208542 1.0060766e-20)
(1.0322205 -0.0036914615 4.6468204e-22)
(1.0321482 -0.0027934434 -3.070588e-21)
(1.0320133 -0.0018434556 0)
(1.0318725 -0.0011123471 4.8939321e-21)
(1.0317913 -0.00022036671 1.0614372e-22)
(0.97432322 -0.012746319 1.4680603e-20)
(0.98327511 -0.012757781 1.4839147e-21)
(0.99183133 -0.011968676 3.4592355e-21)
(1.0001688 -0.011352706 1.4251323e-21)
(1.0072497 -0.010633157 -3.2274259e-21)
(1.0130601 -0.010003265 0)
(1.0174809 -0.00947416 -3.6726673e-22)
(1.0207777 -0.009081911 2.0263233e-21)
(1.0232386 -0.0088157437 2.6536321e-21)
(1.0251426 -0.0086428971 2.9721521e-21)
(1.0266852 -0.008515723 -3.4223691e-21)
(1.0279993 -0.0083907016 -3.3617206e-21)
(1.0291352 -0.0082167294 4.5875653e-21)
(1.0301351 -0.0079563681 -4.6406617e-21)
(1.0309923 -0.0075692614 8.0389962e-21)
(1.0317047 -0.0070345913 1.0714339e-20)
(1.0322447 -0.0063499112 -3.9481788e-21)
(1.0326007 -0.0055256876 3.8788138e-21)
(1.0327624 -0.0046164323 -1.1977701e-20)
(1.0327498 -0.0036350133 3.3188672e-21)
(1.0325999 -0.0027088251 6.3155087e-21)
(1.0323865 -0.001753468 -4.9441668e-21)
(1.0321793 -0.0010448684 2.6636149e-21)
(1.0320384 -0.0001900358 8.7118812e-23)
(0.96732227 -0.012859759 3.8157829e-21)
(0.97572692 -0.013158046 2.4424394e-21)
(0.98467882 -0.01243362 3.2245788e-22)
(0.99371001 -0.011929425 -5.1938524e-21)
(1.0018794 -0.011226666 2.3926473e-21)
(1.008885 -0.010583804 -3.8920484e-21)
(1.0144094 -0.010005454 -2.9980938e-22)
(1.0185911 -0.0095595387 -4.2909421e-21)
(1.021683 -0.0092538451 1.5048457e-21)
(1.0240091 -0.0090688664 1.8858621e-21)
(1.0258362 -0.0089598296 -2.2225347e-21)
(1.0273606 -0.0088788775 5.2708047e-21)
(1.0286721 -0.0087699567 -2.5688777e-21)
(1.0298347 -0.0085912549 -3.9736125e-22)
(1.030853 -0.0082934719 3.3133179e-21)
(1.0317302 -0.0078480611 1.2413821e-21)
(1.0324381 -0.0072346901 -8.0069585e-22)
(1.0329568 -0.006464851 6.0622952e-21)
(1.0332641 -0.0055575637 0)
(1.0333595 -0.0045789258 1.059708e-21)
(1.0332655 -0.0035484229 3.0713364e-22)
(1.0330299 -0.0025995001 -5.556635e-22)
(1.0327329 -0.0016460894 -9.0527233e-23)
(1.0324566 -0.00096681486 -3.6836819e-21)
(1.032255 -0.00015712659 -1.2795403e-21)
(0.96040079 -0.012847769 -1.2143136e-20)
(0.96792578 -0.013437006 -1.9250997e-21)
(0.97696061 -0.012810409 1.116881e-21)
(0.98635744 -0.012459673 5.6382281e-22)
(0.99547216 -0.011809162 6.790552e-21)
(1.0036499 -0.011187376 8.1051486e-23)
(1.010411 -0.010575909 -2.7180895e-22)
(1.0156921 -0.010075888 2.988624e-22)
(1.0196255 -0.0097164463 3.658132e-21)
(1.0225357 -0.00950026 -9.0618945e-22)
(1.0247459 -0.0093923194 2.8015367e-21)
(1.0265307 -0.0093433184 -5.8345123e-22)
(1.0280416 -0.0092923066 -2.8751764e-21)
(1.0293785 -0.0091923698 7.9540434e-22)
(1.0305648 -0.0089871765 -1.5449925e-21)
(1.0316142 -0.0086386248 -4.436041e-21)
(1.0325008 -0.0081155788 -3.6171594e-21)
(1.0332021 -0.0074116461 -8.4556357e-21)
(1.0336844 -0.0065468356 -1.2590744e-20)
(1.0339334 -0.0055527233 -7.8732428e-23)
(1.0339491 -0.0045054007 1.2256806e-20)
(1.0337642 -0.0034302301 2.3123758e-21)
(1.0334358 -0.0024651823 -4.7157541e-21)
(1.0330507 -0.0015216217 3.7047906e-21)
(1.0327031 -0.00087861312 -2.2145979e-21)
(1.0324407 -0.00012187308 1.2028224e-22)
(0.95370832 -0.01272236 5.2419351e-22)
(0.9601181 -0.013589775 -1.8070633e-21)
(0.96888355 -0.013081773 -5.377525e-21)
(0.97830258 -0.012912919 3.2617832e-21)
(0.9880947 -0.012354118 -6.3170331e-21)
(0.99729205 -0.011793839 3.5507896e-21)
(1.0053355 -0.011177979 2.0044385e-21)
(1.0118864 -0.010636343 3.5151681e-21)
(1.0168913 -0.010216694 -5.211484e-21)
(1.0205964 -0.0099512144 -2.4717017e-21)
(1.0233414 -0.0098238264 2.2850653e-22)
(1.0254726 -0.009790171 -7.4951495e-21)
(1.0272246 -0.0097862648 7.3841843e-21)
(1.0287539 -0.0097593531 -3.0536536e-21)
(1.0301165 -0.0096462194 1.1733042e-21)
(1.0313432 -0.0094010545 1.1278365e-21)
(1.0324156 -0.0089796678 -4.9404902e-21)
(1.0333117 -0.0083646194 5.6789916e-21)
(1.0339918 -0.0075565321 -5.4320444e-21)
(1.034428 -0.0065898972 6.7522716e-22)
(1.0346033 -0.0055068823 0)
(1.0345285 -0.0043933534 4.790658e-21)
(1.0342428 -0.0032796492 7.0794499e-22)
(1.0338152 -0.0023059909 0)
(1.0333383 -0.0013806579 -4.2355653e-21)
(1.0329183 -0.00078088906 -3.1751106e-22)
(1.0325956 -8.4553923e-05 4.6845659e-22)
(0.94731114 -0.012488484 3.863663e-21)
(0.95240327 -0.013604534 -2.4818908e-22)
(0.96067009 -0.013234686 -4.8116961e-21)
(0.96977888 -0.013261395 4.0556404e-22)
(0.97989213 -0.012833164 -1.1576279e-21)
(0.98985375 -0.012374985 -4.1307269e-21)
(0.99909694 -0.011794141 -2.2604945e-22)
(1.0069949 -0.011237219 -3.2019251e-21)
(1.0132757 -0.01076329 4.0693746e-22)
(1.018019 -0.010436914 4.1110047e-21)
(1.0215069 -0.010268563 -4.418186e-21)
(1.0241228 -0.010229122 -1.851316e-21)
(1.02619 -0.010256845 -3.6034813e-21)
(1.0279448 -0.010293375 1.1507521e-21)
(1.0294969 -0.010268655 -3.6677676e-21)
(1.0309062 -0.010129233 1.6719465e-21)
(1.0321684 -0.0098198876 -5.1891098e-21)
(1.0332668 -0.0093090616 1.6615886e-20)
(1.034159 -0.0085845915 5.5263665e-21)
(1.0348085 -0.0076621264 8.9132656e-22)
(1.0351819 -0.0065881142 6.8597998e-21)
(1.0352711 -0.0054163556 -7.9151667e-22)
(1.0350929 -0.0042412641 -4.3527964e-22)
(1.034698 -0.0030964133 0)
(1.0341658 -0.0021225198 0)
(1.0335946 -0.0012240524 3.4642488e-22)
(1.0331019 -0.0006744345 -1.3806415e-21)
(1.0327199 -4.5462141e-05 -2.5350886e-22)
(0.94119554 -0.012161886 0)
(0.94491966 -0.013482261 -1.1502289e-21)
(0.95253625 -0.013248141 4.5660184e-21)
(0.9610237 -0.013485187 1.0845479e-21)
(0.97107238 -0.013218327 4.9238888e-21)
(0.9814692 -0.012899191 3.0936367e-22)
(0.99169297 -0.012397902 -2.8893199e-21)
(1.0008881 -0.011863324 -5.2709716e-21)
(1.0085765 -0.011356622 5.8790825e-21)
(1.0145943 -0.010969681 -1.3135635e-21)
(1.0190749 -0.01074288 3.8182779e-22)
(1.0223766 -0.010673976 1.2541302e-21)
(1.024883 -0.010712576 -1.0175558e-20)
(1.0269258 -0.010798137 1.9036185e-21)
(1.0286927 -0.010854101 1.6764507e-21)
(1.0302929 -0.010819328 -3.7872095e-21)
(1.031748 -0.010627996 1.9031716e-21)
(1.0330521 -0.010236035 -4.5559688e-21)
(1.0341653 -0.0096146957 1.2386669e-20)
(1.0350454 -0.0087670189 -3.6206308e-21)
(1.0356472 -0.0077206948 5.5885503e-21)
(1.0359438 -0.0065364004 3.7154209e-21)
(1.0359313 -0.005278434 -2.7421482e-22)
(1.035639 -0.004048077 -1.1377081e-20)
(1.0351268 -0.0028809193 -3.1876323e-21)
(1.0344858 -0.0019158056 6.9084399e-22)
(1.0338189 -0.0010529061 2.4336185e-21)
(1.033254 -0.00056013922 -3.6953491e-22)
(1.0328138 -4.8309568e-06 -8.5382729e-22)
(0.93527704 -0.011753947 -1.1398406e-20)
(0.93770545 -0.013232047 0)
(0.94459332 -0.013137574 0)
(0.95223335 -0.013589488 0)
(0.96187118 -0.013485482 -1.3222965e-21)
(0.97234365 -0.013335286 4.1540799e-21)
(0.98322061 -0.01295711 -3.0755127e-22)
(0.99353224 -0.012489234 -2.9229505e-22)
(1.0026388 -0.011986035 8.2284442e-21)
(1.0101026 -0.01155428 -8.5824683e-21)
(1.0158329 -0.011261932 3.9118808e-21)
(1.0200755 -0.011141834 -1.5376474e-21)
(1.0232096 -0.011166414 3.3429134e-21)
(1.0256503 -0.011280879 -2.3575695e-21)
(1.0276829 -0.01140474 7.5642616e-21)
(1.0294924 -0.011469094 2.2186793e-21)
(1.0311448 -0.011398034 -4.3104446e-21)
(1.032656 -0.01113506 -5.3430604e-21)
(1.0339938 -0.010636111 2.5685294e-21)
(1.0351152 -0.0098869112 -2.6579142e-21)
(1.0359663 -0.0089022635 -6.3332831e-21)
(1.0365053 -0.0077255381 5.5417945e-22)
(1.0367075 -0.0064304953 8.7362795e-21)
(1.0365798 -0.0050910381 -5.3292859e-21)
(1.0361623 -0.0038137425 -4.5994211e-22)
(1.0355263 -0.0026340795 -1.6039363e-21)
(1.0347735 -0.0016873534 2.9362029e-21)
(1.0340106 -0.00086857389 1.2957214e-21)
(1.0333748 -0.00043893574 1.0320517e-22)
(1.0328776 3.7088587e-05 -1.1542384e-21)
(0.92899033 -0.011231979 -9.3173164e-22)
(0.93071898 -0.012863312 -9.486118e-22)
(0.93687229 -0.01291058 0)
(0.94351553 -0.013538239 0)
(0.95251581 -0.013614447 0)
(0.9627202 -0.013656047 0)
(0.97386369 -0.013438304 0)
(0.98499604 -0.013082309 5.7552194e-23)
(0.99538606 -0.012628579 -3.559512e-21)
(1.0043526 -0.012183805 9.48835e-21)
(1.0115473 -0.011834863 -1.4342292e-22)
(1.0170085 -0.011650238 4.3683976e-21)
(1.0210223 -0.011635488 -9.5840835e-21)
(1.0240355 -0.011753494 5.6875661e-21)
(1.026429 -0.011926304 -6.1017523e-22)
(1.0284877 -0.012078901 4.2914178e-21)
(1.0303493 -0.012125612 -6.3993273e-21)
(1.0320689 -0.01199786 2.1814593e-21)
(1.0336318 -0.011636108 5.3505311e-21)
(1.0349993 -0.011009425 3.0114209e-21)
(1.0361134 -0.010114179 8.0371606e-22)
(1.0369202 -0.0089818581 4.5025667e-21)
(1.037377 -0.0076705347 1.2163973e-22)
(1.0374683 -0.0062669471 -3.3842442e-21)
(1.0372112 -0.0048532037 2.1242269e-21)
(1.0366593 -0.0035387354 8.8145028e-21)
(1.0358942 -0.0023573888 2.1083479e-21)
(1.0350279 -0.0014387062 -1.2348494e-21)
(1.0341698 -0.00067262502 1.4086839e-22)
(1.0334645 -0.00031175632 9.9439308e-22)
(1.0329123 7.9582508e-05 9.3477222e-22)
(0.92228936 -0.010553028 1.2052741e-20)
(0.92334706 -0.012361199 -6.1206273e-22)
(0.92935998 -0.012574232 3.5105778e-21)
(0.93500177 -0.013358611 2.2474123e-21)
(0.9432012 -0.013606318 0)
(0.95283956 -0.013845817 0)
(0.96386116 -0.013810571 -7.4991654e-23)
(0.97544331 -0.013607273 5.0400942e-21)
(0.98684644 -0.013251842 -7.8521985e-21)
(0.99722947 -0.012838619 9.1490812e-21)
(1.006002 -0.012460104 2.8899482e-22)
(1.0129303 -0.012212339 -6.6585059e-21)
(1.0181152 -0.012138871 1.3998046e-21)
(1.0219458 -0.012232738 -8.5881455e-22)
(1.0248591 -0.012429353 -5.7180618e-21)
(1.0272474 -0.0126527 4.0572493e-22)
(1.029348 -0.012808973 9.7409278e-21)
(1.0312822 -0.012817636 -5.8855965e-22)
(1.0330695 -0.012603987 -6.3159979e-21)
(1.0346835 -0.012119648 1.769694e-20)
(1.0360673 -0.011342675 -1.6826693e-21)
(1.0371593 -0.010286194 -5.2089711e-21)
(1.0379013 -0.008997571 1.2013964e-20)
(1.038257 -0.0075505073 5.6350053e-21)
(1.0382199 -0.0060434649 -1.1522039e-21)
(1.0378207 -0.0045646911 5.2189106e-21)
(1.0371261 -0.0032243935 2.541723e-21)
(1.0362282 -0.0020527347 4.6636079e-22)
(1.035248 -0.0011719709 -1.0039538e-21)
(1.0342963 -0.0004668482 -5.4285381e-22)
(1.0335238 -0.00017952976 1.4281892e-21)
(1.0329195 0.00012113413 1.2914682e-22)
(0.91564655 -0.0097374479 -3.9491795e-21)
(0.91550393 -0.011693716 1.3150595e-21)
(0.92150275 -0.012108113 -4.8080805e-21)
(0.92671317 -0.013052671 -2.8562494e-21)
(0.9340326 -0.013468891 0)
(0.94288811 -0.013899969 0)
(0.95346768 -0.014049374 0)
(0.96510684 -0.01403063 -7.1389281e-22)
(0.97715486 -0.013818882 7.6488081e-21)
(0.98872409 -0.013487877 7.6116116e-21)
(0.99904332 -0.013122291 2.4066909e-22)
(1.0075997 -0.012831473 -1.211089e-21)
(1.0142374 -0.012693123 1.4206858e-20)
(1.0191832 -0.01273857 -8.4851571e-21)
(1.0228503 -0.012929882 1.1666564e-21)
(1.0257105 -0.013199423 0)
(1.0281159 -0.013449966 2.9365603e-21)
(1.0302853 -0.013590195 -2.3794005e-21)
(1.0322985 -0.013530366 3.1676441e-21)
(1.034157 -0.013204435 9.5131675e-22)
(1.035812 -0.012570829 -8.0105876e-21)
(1.0371988 -0.011623748 4.4114712e-22)
(1.0382479 -0.010392458 -7.9734857e-21)
(1.0389042 -0.0089421748 -9.9923269e-21)
(1.0391381 -0.0073614155 3.333937e-21)
(1.0389564 -0.0057586881 9.7069398e-22)
(1.0384033 -0.0042262985 -6.6067595e-22)
(1.0375596 -0.0028725591 4.7242784e-23)
(1.0365266 -0.001722415 -1.3184974e-21)
(1.0354333 -0.00088925312 -1.2805494e-21)
(1.0343904 -0.0002528375 6.9270734e-22)
(1.0335533 -4.4139745e-05 -5.4595536e-21)
(1.0329017 0.00016468762 2.6468412e-21)
(0.90922005 -0.008787411 -3.537649e-21)
(0.90766896 -0.010866163 3.7686377e-22)
(0.91313743 -0.011476857 -8.27737e-21)
(0.91805154 -0.012605138 -4.9231817e-21)
(0.92505743 -0.013205311 1.9760024e-21)
(0.93302315 -0.0138089 7.1482696e-23)
(0.94291719 -0.01414807 8.7108517e-21)
(0.95424914 -0.014324519 -4.5802852e-21)
(0.96653083 -0.014293031 -6.3368523e-22)
(0.9789395 -0.014093879 -1.6282125e-20)
(0.99061829 -0.01379282 6.8351338e-21)
(1.0008268 -0.013497109 1.0075555e-20)
(1.0091271 -0.01330647 -1.9048991e-22)
(1.0154952 -0.013290173 -6.2818539e-21)
(1.0202153 -0.013448211 -6.8805805e-21)
(1.023767 -0.013733925 -1.1794331e-21)
(1.0266019 -0.014055542 1.3309742e-21)
(1.0290584 -0.014314917 5.5845475e-21)
(1.0313101 -0.014408361 -1.0802491e-21)
(1.0334113 -0.014251716 -9.544076e-22)
(1.035335 -0.013783123 2.3189424e-21)
(1.0370201 -0.012975867 -1.3326366e-20)
(1.0383899 -0.011839833 -1.1463704e-23)
(1.0393743 -0.010423436 3.6370815e-21)
(1.0399215 -0.0088094714 -1.3127744e-20)
(1.0400135 -0.0071003274 -4.3827244e-21)
(1.0396713 -0.0054124663 -3.7729871e-21)
(1.0389544 -0.0038395589 -1.6509295e-21)
(1.0379567 -0.0024857132 -1.8300488e-21)
(1.0367881 -0.0013690089 -1.1255372e-22)
(1.0355837 -0.00059274758 4.3197295e-23)
(1.0344529 -3.1876843e-05 -1.615655e-22)
(1.0335548 9.4817552e-05 2.6700696e-21)
(1.0328588 0.0002093194 -5.7025954e-21)
(0.90319044 -0.0077057166 3.6538747e-21)
(0.9000299 -0.0098712699 -5.2095196e-22)
(0.90471642 -0.01068186 9.1692459e-21)
(0.90883063 -0.011986273 2.7382169e-21)
(0.91574437 -0.012792729 -7.0104301e-21)
(0.92333346 -0.013584408 -7.7891365e-21)
(0.93237654 -0.014102494 -1.1134107e-21)
(0.94312066 -0.014476079 0)
(0.95524059 -0.01464178 -5.2058041e-21)
(0.96807646 -0.014617524 -1.915536e-20)
(0.98079241 -0.01443393 -6.8850836e-22)
(0.99251603 -0.014184056 -3.7487903e-21)
(1.0025597 -0.013973696 0)
(1.0106039 -0.013900187 3.5902005e-22)
(1.0167038 -0.014005468 1.2341173e-20)
(1.0212419 -0.014276411 1.490316e-21)
(1.0247094 -0.014639 -1.1248004e-20)
(1.0275598 -0.014996345 0)
(1.0300889 -0.015234546 1.8595357e-21)
(1.0324386 -0.015251742 3.3671845e-21)
(1.0346272 -0.014964793 -1.0810834e-20)
(1.0366088 -0.014324838 2.1998781e-21)
(1.0383059 -0.013319721 0)
(1.0396369 -0.011978937 -1.1702897e-20)
(1.0405309 -0.010370421 4.4600051e-21)
(1.0409454 -0.0085944869 -2.7800646e-22)
(1.0408754 -0.0067656645 -5.4183768e-21)
(1.0403587 -0.0050056319 4.1461447e-21)
(1.0394697 -0.0034068485 2.292379e-22)
(1.0383152 -0.0020667476 -3.4242819e-21)
(1.0370117 -0.00099528891 1.9998572e-21)
(1.0356994 -0.00028471179 3.293885e-22)
(1.0344849 0.00019460788 0)
(1.0335298 0.00023627624 -1.079061e-22)
(1.0327923 0.00025390693 -1.9519655e-21)
(0.89775306 -0.0064999835 2.65414e-21)
(0.89281013 -0.0087087181 3.1246709e-22)
(0.89645546 -0.0097184356 8.2619041e-21)
(0.89950584 -0.011193325 8.0373134e-22)
(0.90584936 -0.012203992 -1.9225918e-21)
(0.91327091 -0.01320277 -6.7609569e-22)
(0.9219787 -0.013916829 -7.2306522e-21)
(0.93191274 -0.014484433 2.7371905e-23)
(0.94355379 -0.014843239 0)
(0.95639909 -0.015022425 6.2737798e-21)
(0.96974171 -0.015004428 -6.2497473e-21)
(0.98269224 -0.014855586 5.5498687e-22)
(0.9943963 -0.014673917 -4.206629e-21)
(1.0042534 -0.014568818 6.4213091e-21)
(1.0120267 -0.014617996 4.4746049e-21)
(1.017891 -0.014849424 9.6345336e-21)
(1.0222774 -0.015219933 -2.3129686e-20)
(1.0257062 -0.015645725 -8.2873211e-21)
(1.0286014 -0.016010614 9.3440266e-21)
(1.0312269 -0.016198008 -1.4959355e-20)
(1.0336808 -0.016103132 1.1747595e-20)
(1.0359542 -0.015653281 -9.2509375e-21)
(1.0379789 -0.014812513 0)
(1.0396672 -0.013587913 -3.0217981e-21)
(1.0409326 -0.012029574 1.0383028e-21)
(1.0417096 -0.010225945 6.0456897e-21)
(1.0419669 -0.0082936927 1.9091842e-21)
(1.0417162 -0.0063570834 1.0460025e-21)
(1.0410125 -0.0045401047 2.7909241e-21)
(1.0399455 -0.00293118 0)
(1.0386331 -0.0016189506 3.06747e-21)
(1.0371972 -0.00060416659 2.0636994e-21)
(1.0357811 3.2645152e-05 4.578473e-21)
(1.0344874 0.00042513012 -2.4300219e-21)
(1.0334796 0.00037911958 1.2334418e-22)
(1.0327038 0.0002981288 7.2189982e-21)
(0.89310487 -0.0051831824 -2.4611663e-21)
(0.88625724 -0.0073851227 -1.6826215e-22)
(0.88860721 -0.0085859707 -2.4543529e-21)
(0.8903102 -0.010215719 2.7837254e-23)
(0.8957604 -0.011432537 7.9523275e-21)
(0.90255727 -0.012636295 6.6600007e-21)
(0.91119738 -0.01356478 -2.6695741e-24)
(0.92079925 -0.014344089 -5.5600831e-21)
(0.93170091 -0.014908705 3.3636677e-24)
(0.94419154 -0.015279751 -5.5362927e-21)
(0.95772273 -0.015463864 -7.2191101e-25)
(0.97150093 -0.015469226 3.4518237e-21)
(0.98461746 -0.015372514 4.9017744e-22)
(0.9962623 -0.015280209 4.9499368e-21)
(1.0059005 -0.01529106 -2.529976e-20)
(1.0134184 -0.015472462 5.965245e-23)
(1.0190703 -0.015821749 7.7221583e-21)
(1.023351 -0.016281465 1.0528884e-20)
(1.0267771 -0.016745184 -1.1205037e-20)
(1.0297498 -0.017088949 -3.6440301e-21)
(1.0324861 -0.017188378 5.614432e-21)
(1.035048 -0.016945527 -1.353794e-20)
(1.0373959 -0.016298404 1.1049028e-20)
(1.0394452 -0.015229292 0)
(1.041098 -0.013766039 8.1309776e-21)
(1.0422689 -0.011981404 1.2508345e-20)
(1.0429004 -0.0099840028 -5.0599964e-21)
(1.0429769 -0.0079050174 1.0311483e-20)
(1.0425282 -0.0058755827 2.7186874e-22)
(1.0416275 -0.0040187056 -3.0596462e-21)
(1.0403784 -0.002416171 -2.8209869e-21)
(1.0389089 -0.0011458771 -1.7383404e-21)
(1.0373444 -0.00019864964 -2.8364066e-22)
(1.0358295 0.00035706698 5.3395489e-21)
(1.034462 0.00065811948 -9.4179118e-22)
(1.0334059 0.00052247753 -2.7782681e-22)
(1.0325952 0.00034175587 2.7984452e-21)
(0.88942951 -0.0037734362 2.5127664e-22)
(0.88062471 -0.0059149776 -6.1523838e-22)
(0.88145244 -0.0072901995 -3.0821694e-21)
(0.88152965 -0.0090512963 -4.4839888e-22)
(0.88574633 -0.010463885 2.4838314e-23)
(0.89158651 -0.011874739 3.6310317e-23)
(0.89971523 -0.013022727 -3.9955327e-21)
(0.90927626 -0.014025472 1.9087937e-21)
(0.9198796 -0.014814806 0)
(0.93171478 -0.015401031 1.1947097e-21)
(0.94502966 -0.015775588 0)
(0.95918408 -0.015981424 0)
(0.97333287 -0.016026567 3.8317141e-21)
(0.98656523 -0.016002919 -5.9717748e-22)
(0.99810305 -0.016014078 -3.8315066e-21)
(1.0075176 -0.016155435 -7.8919631e-21)
(1.01479 -0.016466543 1.6251474e-20)
(1.0202706 -0.016927256 6.7644051e-21)
(1.0244847 -0.017454798 9.2256069e-21)
(1.0279485 -0.01792997 4.1993949e-21)
(1.0310227 -0.018215383 -1.0464091e-20)
(1.0338818 -0.018188454 7.4190978e-21)
(1.0365474 -0.017758844 1.7546921e-21)
(1.038955 -0.016881164 -3.0405131e-21)
(1.0410036 -0.015557859 -8.2531168e-23)
(1.0425909 -0.013840602 2.563782e-21)
(1.0436354 -0.01182544 -1.4374245e-21)
(1.0440929 -0.0096401986 -6.3410801e-21)
(1.0439658 -0.0074279801 -5.8316734e-22)
(1.0433041 -0.0053233679 -9.3897263e-21)
(1.0421985 -0.0034451198 -2.8446381e-21)
(1.0407658 -0.0018658927 -1.2420882e-21)
(1.0391419 -0.00065127296 -3.6705997e-21)
(1.0374536 0.00021825525 3.3578142e-21)
(1.0358459 0.00068633737 -1.0913272e-20)
(1.0344101 0.00089216931 -1.9866364e-21)
(1.0333102 0.00066547735 -2.5260173e-21)
(1.0324679 0.00038465735 0)
(0.8868825 -0.0022934196 2.1479749e-21)
(0.87615141 -0.0043206981 -1.4259895e-22)