/*--------------------------------*- C++ -*----------------------------------*\
| =========                 |                                                 |
| \\      /  F ield         | OpenFOAM: The Open Source CFD Toolbox           |
|  \\    /   O peration     | Version:  5.0                                   |
|   \\  /    A nd           | Web:      www.OpenFOAM.org                      |
|    \\/     M anipulation  |                                                 |
\*---------------------------------------------------------------------------*/
FoamFile
{
    version     2.0;
    format      ascii;
    class       volVectorField;
    location    "60";
    object      UMean;
}
// * * * * * * * * * * * * * * * * * * * * * * * * * * * * * * * * * * * * * //

dimensions      [0 1 -1 0 0 0 0];

internalField   nonuniform List<vector> 
9200
(
(1.0139185 -0.00049583058 -1.3966444e-23)
(1.014276 -0.0014367961 -6.6356664e-21)
(1.0152838 -0.00050094432 0)
(1.0142763 -0.0023096299 3.4016042e-21)
(1.0156218 -0.0014494145 -4.884795e-21)
(1.0159118 -0.00050383797 0)
(1.0140587 -0.003121235 3.4023055e-22)
(1.0156116 -0.002326525 -2.8808436e-22)
(1.016242 -0.0014598792 0)
(1.016824 -0.00050929932 0)
(1.0137131 -0.0038736073 -6.4008157e-21)
(1.0153856 -0.0031457162 -3.347376e-21)
(1.0162276 -0.0023435196 -2.7321082e-21)
(1.0171414 -0.0014791206 -1.6887561e-22)
(1.0175738 -0.00051411048 9.8813365e-25)
(1.0132594 -0.0045762483 -5.8908344e-21)
(1.0150347 -0.0039049183 5.100977e-22)
(1.0159985 -0.0031712579 -8.7012748e-21)
(1.0171221 -0.0023724459 -3.172985e-21)
(1.0178816 -0.0014986107 1.0868455e-22)
(1.0183747 -0.00051960437 7.0295754e-21)
(1.0127004 -0.005228829 -5.3958911e-21)
(1.0145758 -0.0046164582 -5.8882283e-21)
(1.0156465 -0.0039379218 5.2621663e-21)
(1.0168905 -0.0032142378 2.8466053e-22)
(1.017859 -0.0024023043 -3.4000329e-21)
(1.018673 -0.0015222739 -3.2416233e-21)
(1.0191228 -0.00052434129 -4.4603803e-22)
(1.0120255 -0.0058365487 -2.2542844e-21)
(1.0140109 -0.0052781158 -3.9236163e-21)
(1.0151864 -0.0046583408 -5.5698622e-21)
(1.0165386 -0.0039937027 2.8535677e-22)
(1.0176262 -0.0032589227 7.7596616e-21)
(1.0186493 -0.0024382674 3.3309719e-21)
(1.0194128 -0.001545625 4.4435079e-21)
(1.019875 -0.00052875829 -6.6953346e-21)
(1.0112224 -0.0064010284 6.4466999e-21)
(1.0133294 -0.0058962084 -4.7021432e-21)
(1.0146205 -0.0053288267 2.8781845e-22)
(1.0160789 -0.0047292467 -2.8441654e-21)
(1.0172755 -0.0040518639 6.3499295e-22)
(1.0184184 -0.0033130441 1.2017844e-20)
(1.0193886 -0.0024736528 -3.1506988e-21)
(1.020158 -0.0015701347 7.4450027e-21)
(1.0205969 -0.00053192874 1.4118093e-20)
(1.0102759 -0.0069255188 -4.7982552e-21)
(1.012519 -0.0064719834 2.4925016e-21)
(1.013938 -0.0059564313 9.4680041e-23)
(1.0155135 -0.0054150368 -1.0134664e-21)
(1.0168173 -0.00480315 9.0490465e-22)
(1.0180727 -0.0041228667 1.0464386e-21)
(1.0191603 -0.00336691 -4.1563657e-21)
(1.0201362 -0.0025107752 -7.461286e-21)
(1.0208741 -0.0015927422 -3.932006e-21)
(1.0213106 -0.00053396065 -9.5769514e-22)
(1.0091693 -0.0074122813 2.208927e-21)
(1.0115647 -0.0070092585 9.4220868e-23)
(1.0131269 -0.0065419853 -3.8101626e-21)
(1.0148312 -0.0060591023 3.6583463e-21)
(1.0162535 -0.0055047607 -5.9447099e-21)
(1.0176199 -0.0048939895 1.2402154e-20)
(1.0188199 -0.0041939743 3.3769539e-22)
(1.0199146 -0.003424264 -1.241929e-20)
(1.0208559 -0.0025448222 6.2010646e-21)
(1.0215837 -0.0016138081 -1.2579881e-20)
(1.0219995 -0.000534242 2.0698361e-21)
(1.0078842 -0.0078636387 -1.0738454e-22)
(1.01045 -0.0075107033 4.4459952e-22)
(1.0121726 -0.0070894186 3.0006461e-21)
(1.0140206 -0.006661681 0)
(1.0155729 -0.0061656107 -3.8177608e-23)
(1.0170615 -0.0056157919 -8.5551014e-22)
(1.0183728 -0.0049855194 2.523146e-21)
(1.0195842 -0.0042705942 6.1465289e-21)
(1.0206423 -0.0034781569 -9.3393577e-22)
(1.0215719 -0.0025764427 7.6046293e-21)
(1.0222699 -0.0016311708 5.1886787e-21)
(1.022673 -0.00053269536 -1.064275e-21)
(1.0064009 -0.0082812141 -9.1819431e-23)
(1.0091557 -0.0079794945 5.3470327e-22)
(1.0110589 -0.0076012575 0)
(1.0130674 -0.0072269104 0)
(1.0147644 -0.0067852655 2.0299849e-21)
(1.0163863 -0.0062981223 -3.3946226e-21)
(1.0178203 -0.0057281685 6.0015983e-21)
(1.0191475 -0.0050853063 -6.4941178e-21)
(1.0203229 -0.0043436644 -4.8527741e-22)
(1.0213703 -0.0035298363 9.9818179e-24)
(1.0222664 -0.0026022583 -9.3802574e-21)
(1.0229428 -0.0016445162 1.0590746e-20)
(1.0233225 -0.00052893577 -1.8735953e-20)
(1.0046993 -0.008665803 4.6734775e-22)
(1.0076609 -0.0084184067 -1.0158491e-22)
(1.0097672 -0.0080805945 1.7928566e-21)
(1.0119556 -0.0077572694 -2.0251611e-21)
(1.013814 -0.0073679398 2.2021324e-21)
(1.0155833 -0.0069396679 -7.9871181e-22)
(1.0171509 -0.0064327023 -1.6087512e-21)
(1.0186056 -0.0058519941 8.6276781e-23)
(1.0198978 -0.0051819468 -5.4715002e-21)
(1.0210665 -0.0044152521 -4.8204276e-21)
(1.0220792 -0.003574472 -2.388001e-21)
(1.0229504 -0.0026218143 -6.485261e-21)
(1.0235935 -0.0016523527 -4.3725731e-21)
(1.0239509 -0.00052280743 5.0553845e-21)
(1.0027611 -0.0090169265 2.8747416e-21)
(1.0059422 -0.0088298357 -2.0677283e-21)
(1.0082766 -0.0085299969 7.1511131e-22)
(1.0106669 -0.0082560594 6.1043662e-23)
(1.0127064 -0.0079158769 -4.5087474e-23)
(1.0146389 -0.0075446473 8.4034004e-22)
(1.0163539 -0.0070968656 -1.5034158e-21)
(1.0179462 -0.0065823226 1.9923526e-21)
(1.0193675 -0.0059734349 -5.5024924e-22)
(1.0206581 -0.0052785955 4.0983124e-22)
(1.0217934 -0.004479169 1.4154025e-22)
(1.0227816 -0.00361158 -1.4939298e-22)
(1.0236145 -0.0026328026 9.1055585e-21)
(1.0242252 -0.0016540147 -4.673523e-21)
(1.0245538 -0.00051407785 3.8803639e-21)
(1.0005748 -0.0093323916 -1.865081e-21)
(1.0039761 -0.0092153338 1.9851666e-21)
(1.0065634 -0.0089515746 -9.1459763e-22)
(1.00918 -0.0087260895 1.8061244e-21)
(1.0114237 -0.0084323631 -2.0242959e-21)
(1.0135382 -0.008114977 4.7859165e-21)
(1.0154162 -0.0077248327 -5.0094095e-21)
(1.017159 -0.0072728671 2.0389491e-22)
(1.0187193 -0.0067306496 1.5685113e-21)
(1.0201442 -0.0060969673 -1.5311466e-21)
(1.0214037 -0.0053676974 1.5174457e-20)
(1.0225184 -0.0045350348 -5.5898659e-21)
(1.0234672 -0.0036378897 -2.9837053e-21)
(1.0242624 -0.0026341888 -1.0118504e-21)
(1.0248334 -0.0016484702 9.5086138e-23)
(1.025131 -0.00050260505 -4.1764851e-21)
(0.9981424 -0.0096079898 0)
(1.0017424 -0.009574951 1.3764136e-21)
(1.004603 -0.0093465575 -1.254844e-21)
(1.0074707 -0.0091701631 0)
(1.009945 -0.0089202589 0)
(1.0122639 -0.0086538928 0)
(1.0143234 -0.0083181316 1.2684955e-22)
(1.016231 -0.007927594 -3.3911128e-21)
(1.0179429 -0.0074489082 2.6725482e-21)
(1.0195116 -0.0068837063 -4.2505291e-21)
(1.0209085 -0.00621373 5.189748e-22)
(1.022153 -0.0054490614 -3.1052965e-21)
(1.02323 -0.0045787455 4.7326758e-22)
(1.0241409 -0.0036519686 3.2510572e-21)
(1.0248894 -0.002624367 5.7651067e-22)
(1.0254178 -0.0016350144 2.1618757e-21)
(1.0256798 -0.00048826227 0)
(0.99548653 -0.009837534 -1.1301125e-21)
(0.99923086 -0.0099065034 -2.765421e-21)
(1.0023726 -0.0097148419 3.4518734e-21)
(1.0055119 -0.0095903761 1.1345789e-21)
(1.0082459 -0.0093822371 2.0142617e-21)
(1.0107954 -0.0091642006 0)
(1.0130588 -0.0088798077 2.6187846e-21)
(1.0151485 -0.0085474555 -6.6010376e-22)
(1.0170258 -0.0081319148 -7.4857936e-21)
(1.0187499 -0.0076327111 3.4020511e-21)
(1.0202937 -0.0070313569 2.4162154e-21)
(1.0216817 -0.0063239036 5.9986508e-22)
(1.022892 -0.0055178534 -7.2622232e-21)
(1.0239346 -0.0046085152 1.031558e-20)
(1.0247973 -0.0036515143 1.7120805e-21)
(1.0254955 -0.0026022078 1.5290739e-20)
(1.0259759 -0.0016129428 5.5234973e-21)
(1.0261991 -0.00047097237 4.8892379e-21)
(0.9926563 -0.010013395 2.6957613e-22)
(0.99644956 -0.010204965 -9.3872705e-22)
(0.99985672 -0.010054357 -1.0001207e-21)
(1.0032761 -0.0099874925 2.0279153e-21)
(1.0062981 -0.0098203784 -2.1710106e-22)
(1.0091082 -0.0096487456 2.1110153e-21)
(1.0116022 -0.00941253 -2.7599781e-22)
(1.0138953 -0.0091352587 -5.607608e-21)
(1.0159546 -0.0087799675 -2.2848629e-21)
(1.0178465 -0.008347276 3.4559086e-21)
(1.0195487 -0.0078129515 -7.8070176e-22)
(1.0210895 -0.0071743944 6.086615e-21)
(1.022448 -0.0064219816 -3.8386237e-21)
(1.0236298 -0.0055718736 -2.9980414e-23)
(1.0246259 -0.0046214573 -3.1133032e-22)
(1.0254371 -0.0036348584 -2.464067e-21)
(1.0260779 -0.0025665911 5.0007716e-21)
(1.0265063 -0.0015817155 -2.3975786e-22)
(1.0266871 -0.00045069928 4.3619669e-21)
(0.98972762 -0.010127559 2.3277615e-21)
(0.99343271 -0.010462513 1.1237238e-21)
(0.99705595 -0.010360125 -8.0999836e-21)
(1.0007407 -0.010360019 -5.1453705e-22)
(1.0040714 -0.010235779 1.3384633e-21)
(1.0071734 -0.010109953 8.7166796e-22)
(1.0099295 -0.0099191894 4.2249304e-22)
(1.0124521 -0.0096934744 3.3067462e-21)
(1.0147138 -0.0093955067 -9.0372396e-22)
(1.0167888 -0.0090268664 -7.7678901e-21)
(1.0186611 -0.0085612959 6.7774704e-21)
(1.0203654 -0.0079912549 -4.6681226e-22)
(1.021882 -0.0073066022 -2.2634221e-21)
(1.023219 -0.0065055776 1.6778718e-22)
(1.0243585 -0.0056078094 2.4198511e-22)
(1.0253056 -0.0046153346 -8.5238643e-21)
(1.026057 -0.0036003154 2.4334048e-21)
(1.0266353 -0.0025166269 -7.8957497e-21)
(1.0270073 -0.0015409165 -1.9086742e-21)
(1.0271424 -0.00042744889 -4.2765064e-21)
(0.98679689 -0.010173064 -6.5730054e-23)
(0.9902445 -0.010669146 1.1413151e-21)
(0.99399573 -0.010624723 -5.4467722e-22)
(0.9978961 -0.010704057 1.8349384e-21)
(1.0015378 -0.010627783 6.5782339e-22)
(1.004958 -0.010549474 -1.4592689e-21)
(1.0080111 -0.010402387 3.4107604e-21)
(1.010795 -0.010224964 6.7647672e-21)
(1.0132849 -0.0099806781 -3.726779e-21)
(1.0155619 -0.0096734235 0)
(1.0176184 -0.0092749057 -4.2674129e-21)
(1.0194968 -0.0087765963 2.5514421e-21)
(1.0211822 -0.0081607413 6.5619383e-21)
(1.0226847 -0.0074257162 -5.5007263e-21)
(1.0239856 -0.0065708381 2.6688845e-21)
(1.0250819 -0.0056226762 -6.7063936e-21)
(1.02597 -0.0045879601 5.2283262e-24)
(1.026656 -0.0035464671 2.9799536e-21)
(1.0271656 -0.0024516137 -4.706913e-21)
(1.0274773 -0.0014902754 -3.5808193e-22)
(1.027564 -0.00040126889 -3.7317214e-21)
(0.983968 -0.010145465 -4.9203696e-21)
(0.98697596 -0.010814198 7.4931913e-22)
(0.99073135 -0.010838572 3.903117e-21)
(0.99475541 -0.011012347 -4.0357449e-21)
(0.99867902 -0.0109929 -2.482537e-21)
(1.002429 -0.01096737 8.8245339e-22)
(1.0058124 -0.010864062 0)
(1.0088947 -0.010732494 2.6999491e-21)
(1.0116447 -0.010538222 -6.5850629e-22)
(1.0141481 -0.010288646 -7.7276858e-21)
(1.0164066 -0.0099550907 -1.0146699e-21)
(1.0184717 -0.0095278023 1.6788584e-21)
(1.0203358 -0.0089857465 -4.5620768e-22)
(1.0220141 -0.0083195065 -2.1049669e-21)
(1.0234879 -0.0075272552 3.8743477e-21)
(1.0247531 -0.0066143526 -3.7327458e-21)
(1.0257949 -0.0056139131 8.3775654e-22)
(1.0266185 -0.004537288 -5.2869385e-21)
(1.0272316 -0.0034721571 -7.277976e-22)
(1.0276673 -0.0023710549 -1.425672e-22)
(1.027915 -0.0014296702 -2.2376575e-21)
(1.0279509 -0.0003722469 0)
(0.98133579 -0.010043956 -2.2080329e-21)
(0.98373442 -0.010888193 -2.5766515e-22)
(0.98734754 -0.010991361 1.220989e-22)
(0.99136187 -0.011274885 -3.4178421e-21)
(0.9954973 -0.011324498 -1.4020894e-21)
(0.99955972 -0.011361148 1.4625796e-21)
(1.0032963 -0.011304863 -2.1336157e-21)
(1.0067154 -0.011218442 4.5979972e-21)
(1.0097641 -0.011070965 1.9442687e-21)
(1.0125252 -0.010875037 3.844363e-22)
(1.0150086 -0.010602963 -9.377897e-23)
(1.0172765 -0.010245378 -3.4396398e-21)
(1.0193308 -0.0097777361 5.6019715e-22)
(1.0211939 -0.009187398 5.4220488e-22)
(1.0228514 -0.008462519 -4.7677259e-21)
(1.0242982 -0.0076076177 -5.5315599e-21)
(1.025516 -0.0066329171 1.8403902e-22)
(1.0264982 -0.0055786136 9.1063564e-21)
(1.0272481 -0.0044616871 4.5669856e-22)
(1.0277822 -0.0033764672 -2.8091972e-21)
(1.0281386 -0.0022746882 0)
(1.0283193 -0.0013591247 4.5786137e-21)
(1.0283023 -0.00034050935 8.4582568e-23)
(0.9789707 -0.0098717134 1.0994092e-20)
(0.98062619 -0.010884934 -9.1928767e-22)
(0.98395037 -0.011073579 4.1064378e-21)
(0.98779035 -0.011480037 1.8894291e-21)
(0.99202442 -0.011612548 -4.4370257e-21)
(0.99634073 -0.011724543 0)
(1.0004288 -0.011723062 -4.3478483e-22)
(1.0042167 -0.011684085 2.5002843e-21)
(1.0076069 -0.01158156 3.0225905e-21)
(1.0106648 -0.011435392 2.9584849e-21)
(1.0134035 -0.011220661 -3.6636312e-21)
(1.0158954 -0.010929679 -3.370292e-21)
(1.0181542 -0.010536251 4.4816031e-21)
(1.0202124 -0.01002408 -4.4452704e-21)
(1.0220622 -0.0093761023 7.4880898e-21)
(1.0237019 -0.0085861635 9.667454e-21)
(1.0251103 -0.007662904 -3.8042844e-21)
(1.0262759 -0.0066230485 3.4741294e-21)
(1.0271881 -0.0055147086 -1.0906154e-20)
(1.0278574 -0.0043596703 3.2146495e-21)
(1.0283057 -0.0032588045 5.8103785e-21)
(1.0285782 -0.0021624725 -4.6493389e-21)
(1.0286891 -0.0012788112 2.560278e-21)
(1.0286179 -0.00030621284 6.9814092e-23)
(0.9769073 -0.0096350988 1.9318339e-21)
(0.97773852 -0.010802402 -1.2479382e-22)
(0.98065057 -0.011078337 -8.9424691e-23)
(0.98413985 -0.011616312 -7.6364923e-21)
(0.98832609 -0.011845032 2.9676195e-21)
(0.99279031 -0.012048209 -5.1693013e-21)
(0.99719 -0.012113587 -3.6504215e-22)
(1.0013581 -0.012128667 -5.313337e-21)
(1.0051301 -0.01207185 1.8371932e-21)
(1.0085307 -0.011972604 2.0242681e-21)
(1.0115638 -0.011810816 -2.5372469e-21)
(1.0143083 -0.01158231 5.1168614e-21)
(1.016791 -0.011260712 -2.5919892e-21)
(1.0190568 -0.01082794 -3.6768418e-22)
(1.0211081 -0.010261147 3.1022036e-21)
(1.0229491 -0.0095484145 1.1387405e-21)
(1.0245605 -0.0086859265 -7.5065221e-22)
(1.0259264 -0.0076891472 5.3751849e-21)
(1.0270289 -0.0065819232 0)
(1.0278636 -0.0054198738 9.1063954e-22)
(1.0284437 -0.0042302281 2.6717176e-22)
(1.0288003 -0.003118862 -4.9024322e-22)
(1.0289849 -0.0020345981 -2.5659981e-23)
(1.0290238 -0.0011890404 -3.4746977e-21)
(1.0288975 -0.00026954496 -1.2542024e-21)
(0.97513816 -0.0093430068 -7.2314469e-21)
(0.97512737 -0.010641999 -3.5615619e-22)
(0.9775437 -0.01100297 1.0553721e-21)
(0.98052264 -0.011674045 8.0355269e-22)
(0.98449761 -0.012009506 8.0784461e-21)
(0.98896088 -0.012319649 1.5367024e-22)
(0.99358531 -0.012467341 -3.4084045e-22)
(0.99810882 -0.012548101 3.6635208e-22)
(1.0022876 -0.012541892 4.1955246e-21)
(1.0060782 -0.012489053 -1.2313152e-21)
(1.0094538 -0.012376426 2.9306372e-21)
(1.012489 -0.012205583 -5.3562335e-22)
(1.0152224 -0.011952025 -2.678495e-21)
(1.0177131 -0.011597265 8.1128763e-22)
(1.0199767 -0.01111472 -1.396845e-21)
(1.0220271 -0.010485851 -4.0006685e-21)
(1.0238503 -0.0096993441 -2.8628894e-21)
(1.0254303 -0.0087574639 -7.4273289e-21)
(1.0267429 -0.0076827106 -1.102574e-20)
(1.0277742 -0.0065065134 -4.9449168e-23)
(1.0285214 -0.0052926028 1.0768355e-20)
(1.029005 -0.0040726076 2.1928832e-21)
(1.0292644 -0.0029566572 -4.3783073e-21)
(1.0293574 -0.0018914716 3.4878116e-21)
(1.029323 -0.0010902479 -2.1167138e-21)
(1.0291412 -0.00023073132 1.100771e-22)
(0.97361612 -0.0090062816 2.7157637e-22)
(0.97280761 -0.010409617 -3.9738829e-22)
(0.9746926 -0.010850482 -4.0365077e-21)
(0.97704558 -0.011647124 4.2329262e-21)
(0.98064996 -0.01209541 -6.755373e-21)
(0.98493861 -0.012525402 4.1894351e-21)
(0.98965494 -0.012771944 2.2718468e-21)
(0.99446066 -0.012934058 4.2740451e-21)
(0.99903953 -0.012988694 -5.8604329e-21)
(1.0032569 -0.012985663 -2.6346509e-21)
(1.0070279 -0.012920291 3.6536155e-22)
(1.0104029 -0.012802467 -7.4948252e-21)
(1.0134236 -0.012612016 7.2233198e-21)
(1.0161635 -0.012332045 -2.7454212e-21)
(1.0186545 -0.011933774 1.1269769e-21)
(1.0209237 -0.011394051 1.0048295e-21)
(1.0229662 -0.010692918 -4.4117916e-21)
(1.0247697 -0.0098243177 5.0585285e-21)
(1.0263082 -0.0087963621 -4.7701656e-21)
(1.0275594 -0.0076398303 6.7810705e-22)
(1.0285085 -0.0063945005 0)
(1.0291596 -0.0051314186 4.2148582e-21)
(1.0295392 -0.0038865218 5.4176636e-22)
(1.0296963 -0.0027725078 0)
(1.0296952 -0.0017337042 -3.9477499e-21)
(1.0295866 -0.00098298768 -2.5888318e-22)
(1.0293494 -0.00019005525 5.0685576e-22)
(0.97225605 -0.0086357041 1.840904e-21)
(0.97074656 -0.010113334 -1.3001522e-22)
(0.97211732 -0.010626227 -3.137439e-21)
(0.97378792 -0.011533994 4.390162e-22)
(0.97689236 -0.012095782 -1.1412993e-21)
(0.9808331 -0.012652749 -4.5083886e-21)
(0.98547501 -0.013013021 -2.4649994e-22)
(0.99043903 -0.013274166 -3.6242826e-21)
(0.99536449 -0.01340502 3.2512037e-22)
(1.000018 -0.013460567 4.5125749e-21)
(1.0042322 -0.013444107 -4.1170355e-21)
(1.0080042 -0.013376081 -1.4227976e-21)
(1.0113612 -0.013243464 -3.2750138e-21)
(1.014385 -0.013033418 1.1894148e-21)
(1.0171251 -0.012717175 -3.2037512e-21)
(1.0196259 -0.012268427 1.5383182e-21)
(1.0218956 -0.011660597 -4.6044362e-21)
(1.0239301 -0.010877729 1.4353108e-20)
(1.0257052 -0.0099182482 4.6721089e-21)
(1.0271945 -0.0087981409 2.8510317e-22)
(1.0283727 -0.0075572568 5.8903273e-21)
(1.0292297 -0.006243645 -5.5395556e-22)
(1.0297752 -0.0049355529 -3.6778496e-22)
(1.030044 -0.0036720173 0)
(1.0300948 -0.0025670452 0)
(1.0299975 -0.0015620889 3.1262509e-22)
(1.0298146 -0.0008679221 -1.3966846e-21)
(1.0295225 -0.00014800193 -3.7469595e-22)
(0.97094381 -0.0082414653 0)
(0.96887322 -0.0097621039 -6.4133321e-22)
(0.96979369 -0.010337214 2.6106977e-21)
(0.9707873 -0.011338327 1.2372005e-21)
(0.97331264 -0.012007694 4.3973511e-21)
(0.97675908 -0.012691646 2.6337535e-22)
(0.98114941 -0.013176622 -2.9756158e-21)
(0.98610778 -0.013553537 -5.5979226e-21)
(0.99127309 -0.013779084 6.5774239e-21)
(0.99632736 -0.01390768 -1.6327065e-21)
(1.0010106 -0.013947122 3.7094002e-22)
(1.0052366 -0.013928844 1.4867041e-21)
(1.00899 -0.013849658 -9.2764589e-21)
(1.0123456 -0.013703769 2.0345947e-21)
(1.0153671 -0.013465144 1.6146879e-21)
(1.0181185 -0.013106482 -3.2372774e-21)
(1.020626 -0.012596068 1.6811199e-21)
(1.0228982 -0.011909912 -3.9736459e-21)
(1.0249176 -0.011034699 1.0646393e-20)
(1.0266575 -0.0099760195 -3.3537793e-21)
(1.0280861 -0.0087585724 4.7298908e-21)
(1.0291805 -0.0074318448 3.1486373e-21)
(1.0299344 -0.0060523856 -1.9658323e-22)
(1.0303658 -0.0047045034 -9.9481335e-21)
(1.0305177 -0.0034295751 -2.6938338e-21)
(1.0304588 -0.0023412153 5.5101418e-22)
(1.0302643 -0.0013775894 2.3360441e-21)
(1.0300074 -0.00074587169 -4.3340394e-22)
(1.0296619 -0.00010463545 -5.2633403e-22)
(0.96954798 -0.0078297501 -4.3012508e-21)
(0.96707824 -0.0093655575 0)
(0.96765142 -0.0099931573 0)
(0.96803257 -0.011067385 0)
(0.96996135 -0.011833183 -1.0810136e-21)
(0.97281613 -0.012637436 3.9064992e-21)
(0.97679386 -0.013251325 -3.8271197e-22)
(0.98156449 -0.013756627 -4.8236127e-22)
(0.98681549 -0.014095643 8.6190974e-21)
(0.99217972 -0.014315991 -8.8882023e-21)
(0.99731673 -0.014424579 4.4543691e-21)
(1.0020376 -0.014461118 -1.6377659e-21)
(1.0062524 -0.01443361 2.8005492e-21)
(1.0100014 -0.014346379 -2.6273576e-21)
(1.0133502 -0.014179457 6.4593065e-21)
(1.0163813 -0.01390727 2.0471301e-21)
(1.019143 -0.013495235 -3.637246e-21)
(1.0216616 -0.012912652 -4.5714924e-21)
(1.0239314 -0.012136141 2.3437209e-21)
(1.0259305 -0.011158222 -2.0340442e-21)
(1.0276245 -0.0099924528 -5.2839836e-21)
(1.0289813 -0.008673518 3.1070114e-22)
(1.0299796 -0.0072610401 7.4217456e-21)
(1.0306197 -0.0058194963 -4.6596678e-21)
(1.0309287 -0.0044383759 -2.9553841e-22)
(1.0309584 -0.0031600108 -1.4373792e-21)
(1.0307874 -0.0020963125 2.7492956e-21)
(1.0304955 -0.0011813974 1.0575604e-21)
(1.0301655 -0.00061761788 4.4124112e-22)
(1.0297681 -5.9690362e-05 -8.7292971e-22)
(0.96786712 -0.0073720479 -1.0270839e-22)
(0.96523207 -0.008928954 -7.2325694e-22)
(0.96558763 -0.0096060399 0)
(0.96546928 -0.010729402 0)
(0.96684216 -0.011578398 0)
(0.96906916 -0.012490289 0)
(0.97251474 -0.013230023 0)
(0.97692499 -0.013870033 1.0231446e-22)
(0.98207938 -0.014338119 -3.7646678e-21)
(0.98760984 -0.014670154 9.5388692e-21)
(0.99312993 -0.014866565 -2.597484e-22)
(0.99834994 -0.014969529 4.8265291e-21)
(1.0030809 -0.01499672 -9.0321841e-21)
(1.0072943 -0.014964717 4.609032e-21)
(1.0110324 -0.014863163 -4.9192168e-22)
(1.0143866 -0.014671694 3.7623887e-21)
(1.0174282 -0.014355727 -5.5783784e-21)
(1.0202066 -0.01388003 1.8351023e-21)
(1.0227338 -0.013212328 4.3865566e-21)
(1.0249982 -0.012333398 2.4289162e-21)
(1.0269678 -0.011242285 6.6106581e-22)
(1.028605 -0.0099623943 3.4762715e-21)
(1.0298767 -0.0085392776 7.5168562e-23)
(1.0307665 -0.007042657 -2.8502706e-21)
(1.0312823 -0.0055444004 1.6186154e-21)
(1.0314613 -0.004137665 7.6618129e-21)
(1.0313645 -0.002864547 1.828642e-21)
(1.0310799 -0.0018336694 -1.1376399e-21)
(1.0306912 -0.00097478668 1.1559463e-22)
(1.0302898 -0.00048370847 6.3900285e-22)
(1.0298426 -1.3863156e-05 7.3455827e-22)
(0.96597309 -0.0068249078 4.8142596e-21)
(0.96307612 -0.0084364756 -3.888689e-22)
(0.96346909 -0.0091823987 1.0759111e-21)
(0.96300378 -0.010338866 9.6331243e-22)
(0.96390915 -0.011252121 0)
(0.96553584 -0.012255323 0)
(0.96838893 -0.01311109 -1.3439532e-22)
(0.97230295 -0.013884258 4.4699134e-21)
(0.97717761 -0.014491078 -7.523609e-21)
(0.98269405 -0.014952657 9.1761204e-21)
(0.98846841 -0.015258185 6.0425155e-22)
(0.9941372 -0.015445469 -6.2515996e-21)
(0.99940822 -0.015537014 9.6287305e-22)
(1.004153 -0.015561136 -7.1466974e-22)
(1.0083557 -0.015519992 -4.8064646e-21)
(1.012094 -0.015402314 3.9725921e-22)
(1.0154556 -0.015177291 7.9538886e-21)
(1.0185161 -0.014807969 -4.9206692e-22)
(1.0213116 -0.014255308 -5.3576521e-21)
(1.023847 -0.01348919 1.4429657e-20)
(1.0260988 -0.012495027 -1.8277851e-21)
(1.028029 -0.011280779 -4.2053e-21)
(1.029596 -0.0098809134 1.0039324e-20)
(1.0307689 -0.0083525035 4.4139001e-21)
(1.0315374 -0.0067751644 -1.2450698e-21)
(1.0319189 -0.0052270114 4.4886612e-21)
(1.0319613 -0.003803384 2.1859491e-21)
(1.0317348 -0.0025446916 4.9826818e-22)
(1.0313362 -0.0015547766 -9.7343445e-22)
(1.030852 -0.00075881855 -4.4355286e-22)
(1.0303814 -0.00034511598 1.1197333e-21)
(1.0298867 3.2709618e-05 1.0473288e-22)
(0.96402356 -0.0062159859 -1.5925931e-21)
(0.96067942 -0.0078487651 6.673593e-22)
(0.96107234 -0.0086946768 -1.4508312e-21)
(0.96051607 -0.0098977214 -9.0906594e-22)
(0.96107018 -0.010867506 0)
(0.96218355 -0.01193928 0)
(0.96444983 -0.012897331 0)
(0.96778798 -0.013795368 -6.8162324e-22)
(0.97222785 -0.014542913 6.298155e-21)
(0.9775401 -0.015146448 6.9607665e-21)
(0.98339453 -0.015581265 6.0151706e-22)
(0.98940014 -0.015874727 -1.1616366e-21)
(0.9951832 -0.016047373 1.2885505e-20)
(1.0005018 -0.016135048 -8.0736463e-21)
(1.0052467 -0.016153117 1.3456941e-21)
(1.0094471 -0.01610288 0)
(1.0131875 -0.015961704 2.3882023e-21)
(1.0165664 -0.015694757 -1.9010752e-21)
(1.0196488 -0.015259031 2.5897281e-21)
(1.0224638 -0.014615436 8.2487743e-22)
(1.0250028 -0.013736206 -6.3395761e-21)
(1.0272339 -0.012614119 6.3260044e-22)
(1.0291118 -0.011267549 -6.3281359e-21)
(1.0305942 -0.009743351 -8.1222911e-21)
(1.0316537 -0.0081104509 2.9249622e-21)
(1.0322884 -0.006457595 7.0009835e-22)
(1.0325263 -0.004867859 -4.9827472e-22)
(1.0324266 -0.0034369432 5.0922792e-23)
(1.0320683 -0.0022022171 -1.3356575e-21)
(1.0315562 -0.0012613409 -1.1468063e-21)
(1.0309786 -0.00053483544 5.7404078e-22)
(1.0304415 -0.00020257599 -4.4009736e-21)
(1.0299017 7.9915116e-05 2.1927534e-21)
(0.96207663 -0.0055469062 -1.3541172e-21)
(0.95820379 -0.0071865899 2.3061648e-22)
(0.95841235 -0.0081050775 -2.829512e-21)
(0.95771235 -0.0093872271 -1.7174734e-21)
(0.95819861 -0.010433372 9.3641645e-22)
(0.95893536 -0.011558199 -2.960608e-23)
(0.96067895 -0.012595317 5.9227437e-21)
(0.96342723 -0.013605413 -3.4723404e-21)
(0.96732992 -0.014487461 -2.7511071e-22)
(0.97226809 -0.015237617 -1.4352371e-20)
(0.9780081 -0.015817152 6.4845857e-21)
(0.98418542 -0.016238815 9.213402e-21)
(0.99038851 -0.01651463 -3.785685e-22)
(0.99627542 -0.016680936 -5.0886709e-21)
(1.0016224 -0.016763274 -5.718896e-21)
(1.006371 -0.016777193 -1.2430302e-21)
(1.0105694 -0.016712443 1.0658175e-21)
(1.0143224 -0.016541061 4.8147435e-21)
(1.0177238 -0.016220008 -8.7650772e-22)
(1.0208334 -0.015703862 -7.4494368e-22)
(1.0236664 -0.014953331 2.0922431e-21)
(1.0262035 -0.013945903 -1.0506592e-20)
(1.0284024 -0.012683396 -1.9127635e-22)
(1.0302138 -0.011196557 3.3903316e-21)
(1.0315956 -0.0095455324 -1.0616078e-20)
(1.0325267 -0.00781097 -3.6293973e-21)
(1.0330154 -0.0060896809 -3.2036542e-21)
(1.0331013 -0.0044680072 -1.2562806e-21)
(1.0328552 -0.0030401672 -1.6317057e-21)
(1.0323642 -0.0018391194 -6.4744346e-23)
(1.0317401 -0.0009551491 -1.9927033e-23)
(1.031072 -0.00030411593 -1.3743812e-22)
(1.0304714 -5.695884e-05 2.1855876e-21)
(1.0298893 0.0001274093 -4.7700017e-21)
(0.96020145 -0.0048178786 1.5381443e-21)
(0.95571955 -0.0064458812 -3.1375571e-22)
(0.95563736 -0.0074334692 3.1572307e-21)
(0.95461642 -0.0087678737 1.4332105e-21)
(0.95506233 -0.0099139019 -3.2723085e-21)
(0.95567815 -0.011116895 -3.9769672e-21)
(0.95700686 -0.012220471 -6.730491e-22)
(0.95921672 -0.013319216 0)
(0.9625459 -0.014323782 -3.9426647e-21)
(0.96698718 -0.015217368 -1.5666374e-20)
(0.97242889 -0.015949706 5.9618413e-23)
(0.97858246 -0.016517794 -3.338494e-21)
(0.98505323 -0.016920424 0)
(0.9914383 -0.017186983 -1.8042653e-22)
(0.99740466 -0.017346598 1.0196097e-20)
(1.0027771 -0.017427226 1.6567489e-21)
(1.0075262 -0.017433689 -8.9153739e-21)
(1.0117318 -0.017349748 0)
(1.015504 -0.017137443 1.415534e-21)
(1.018936 -0.01674888 2.8516892e-21)
(1.0220748 -0.016135684 -8.3668089e-21)
(1.0249233 -0.01526127 2.1213576e-21)
(1.0274494 -0.01411009 0)
(1.0296029 -0.012695475 -9.2540858e-21)
(1.0313311 -0.011062058 3.866311e-21)
(1.0325955 -0.009283844 -2.534747e-22)
(1.0333831 -0.007452654 -4.3749707e-21)
(1.0337143 -0.005671815 3.5270956e-21)
(1.033641 -0.0040290738 1.7592765e-22)
(1.0332455 -0.0026152288 -3.265942e-21)
(1.0326221 -0.0014575952 2.0833154e-21)
(1.0318885 -0.00063805574 3.9890077e-22)
(1.0311333 -6.8047135e-05 0)
(1.0304727 9.0914192e-05 -8.8948956e-23)
(1.0298511 0.00017487318 -1.6391812e-21)
(0.95847453 -0.0040319426 9.9266734e-22)
(0.95331534 -0.0056252817 4.0007033e-23)
(0.9528356 -0.0066767286 2.7729608e-21)
(0.95138772 -0.008058264 4.3393898e-22)
(0.95161754 -0.0092791764 -1.0325105e-21)
(0.95211923 -0.010584776 -1.9236268e-22)
(0.95332526 -0.011780282 -3.9661963e-21)
(0.9551005 -0.012952778 1.2550641e-22)
(0.95788695 -0.014055722 0)
(0.96177337 -0.015082902 4.8539256e-21)
(0.96677315 -0.015967715 -5.3315123e-21)
(0.97270825 -0.016693404 8.0850642e-22)
(0.97925379 -0.017243704 -3.6566826e-21)
(0.9860006 -0.017635305 5.4750888e-21)
(0.99253999 -0.01789284 3.1308345e-21)
(0.99857582 -0.018050772 8.2262323e-21)
(1.0039653 -0.018128483 -1.7856901e-20)
(1.0087209 -0.018125062 -6.1997524e-21)
(1.0129403 -0.018013215 7.5125807e-21)
(1.0167417 -0.017747857 -1.1894841e-20)
(1.0202095 -0.017275272 9.2000158e-21)
(1.0233786 -0.016546891 -7.7694034e-21)
(1.0262367 -0.015530448 0)
(1.0287404 -0.014220187 -2.3459895e-21)
(1.0308323 -0.012642998 8.9093544e-22)
(1.0324592 -0.010858748 4.882108e-21)
(1.0335884 -0.0089554009 1.3225805e-21)
(1.0342179 -0.0070348582 7.4498111e-22)
(1.0343811 -0.005205089 2.4239274e-21)
(1.0341429 -0.0035531728 0)
(1.0335963 -0.00216461 2.8520269e-21)
(1.032842 -0.001059977 2.1424448e-21)
(1.0320021 -0.00031197226 3.4998673e-21)
(1.0311639 0.00017204246 -1.9943596e-21)
(1.0304468 0.00024019545 1.0000932e-22)
(1.0297888 0.00022214341 6.0666573e-21)
(0.95697393 -0.0031948789 -9.9545871e-22)
(0.95109158 -0.0047274693 -9.9500576e-23)
(0.95011169 -0.0058341459 -8.2681952e-22)
(0.9481193 -0.0072527282 1.9508432e-23)
(0.94798796 -0.0085466441 4.0631091e-21)
(0.94821208 -0.0099274257 4.1091281e-21)
(0.94936101 -0.011235588 -4.9274656e-23)
(0.9509832 -0.012512886 -3.2665963e-21)
(0.95330982 -0.01369976 1.092985e-22)
(0.95665344 -0.014836027 -3.9333444e-21)
(0.96112989 -0.015865663 -8.0383313e-23)
(0.96668422 -0.016751908 2.8474508e-21)
(0.97310157 -0.017464259 1.4143173e-22)
(0.98002335 -0.01800415 4.651977e-21)
(0.98701857 -0.018384986 -2.0813053e-20)
(0.99369633 -0.018639326 6.4793985e-22)
(0.99978689 -0.018796232 5.7068183e-21)
(1.0051941 -0.018870878 8.1732795e-21)
(1.0099607 -0.018851256 -8.6887582e-21)
(1.0142047 -0.018701274 -2.86128e-21)
(1.0180434 -0.018367244 4.2404339e-21)
(1.021552 -0.017792094 -1.0702099e-20)
(1.0247492 -0.016928448 8.9690959e-21)
(1.0276085 -0.015751351 0)
(1.030075 -0.014267298 5.6894509e-21)
(1.0320866 -0.01251884 9.7855816e-21)
(1.0335926 -0.010581964 -4.2599198e-21)
(1.0345687 -0.0085581308 8.5353694e-21)
(1.0350258 -0.0065577647 1.9636938e-22)
(1.035012 -0.0046912557 -2.6729712e-21)
(1.0346046 -0.003042875 -2.7761111e-21)
(1.0339067 -0.0016910394 -1.0974379e-21)
(1.033024 -0.00064869751 -2.3954027e-22)
(1.032082 2.1185949e-05 4.1616163e-21)
(1.0311652 0.0004148237 -7.9783922e-22)
(1.0303956 0.00039012058 -2.3290949e-22)
(1.0297044 0.00026902134 2.3481497e-21)
(0.95577286 -0.0023149322 1.7285849e-22)
(0.94915203 -0.0037592472 -2.5561761e-22)
(0.94758294 -0.0049084455 -1.0494535e-21)
(0.94493119 -0.0063496868 -2.3413277e-22)
(0.94429022 -0.0077070758 -3.6548397e-24)
(0.94409671 -0.0091619539 6.2341702e-23)
(0.94503854 -0.010556185 -2.6116933e-21)
(0.94657105 -0.011957503 1.3392383e-21)
(0.94872978 -0.013263148 0)
(0.95159919 -0.014494018 7.5066346e-22)
(0.95554188 -0.015642913 0)
(0.9606112 -0.01668507 0)
(0.96672065 -0.017565824 3.1516454e-21)
(0.97360955 -0.018271523 -4.5632685e-22)
(0.98088375 -0.018800992 -3.1694802e-21)
(0.9881082 -0.019177104 -6.1197974e-21)
(0.99490402 -0.019430261 1.2899109e-20)
(1.0010434 -0.019588113 4.5809631e-21)
(1.0064685 -0.019655955 7.0196956e-21)
(1.0112556 -0.019612315 3.2512507e-21)
(1.0155339 -0.019410239 -7.9699555e-21)
(1.0194184 -0.018989436 6.2203949e-21)
(1.0229698 -0.01829052 1.1981413e-21)
(1.0261905 -0.017270273 -3.33413e-21)
(1.0290386 -0.01591375 -2.4302322e-22)
(1.0314501 -0.014242462 2.0582314e-21)
(1.0333607 -0.012316327 -8.432226e-22)
(1.0347249 -0.010227827 -5.16247e-21)
(1.0355301 -0.0080908812 -4.5889196e-22)
(1.0358019 -0.0060223852 -8.0713641e-21)
(1.0356033 -0.0041327023 -2.1676256e-21)
(1.0350241 -0.0025011426 -9.3739768e-22)
(1.0341762 -0.0011974369 -3.2937052e-21)
(1.0331688 -0.00022623913 2.4415338e-21)
(1.0321294 0.00035951001 -8.5463866e-21)
(1.0311388 0.00065903266 -1.6029804e-21)
(1.0303207 0.00053994736 -2.0980996e-21)
(1.0295995 0.00031534497 0)
(0.95493345 -0.0014025193 8.7094037e-22)
(0.94759483 -0.0027313022 -8.2331039e-23)