/*--------------------------------*- C++ -*----------------------------------*\
| =========                 |                                                 |
| \\      /  F ield         | OpenFOAM: The Open Source CFD Toolbox           |
|  \\    /   O peration     | Version:  5.0                                   |
|   \\  /    A nd           | Web:      www.OpenFOAM.org                      |
|    \\/     M anipulation  |                                                 |
\*---------------------------------------------------------------------------*/
FoamFile
{
    version     2.0;
    format      ascii;
    class       volSymmTensorField;
    location    "60";
    object      UPrime2Mean;
}
// * * * * * * * * * * * * * * * * * * * * * * * * * * * * * * * * * * * * * //

dimensions      [0 2 -2 0 0 0 0];

internalField   nonuniform List<symmTensor> 
9200
(
(2.4408414e-05 -1.317279e-07 2.5555694e-26 6.9227561e-09 -1.2750735e-28 3.0254633e-47)
(2.384422e-05 -4.3132756e-07 -2.4467967e-24 6.1747311e-08 1.9265921e-25 8.4869251e-43)
(2.5299821e-05 -9.8247603e-08 0 7.2069446e-09 0 0)
(2.4407131e-05 -6.460498e-07 1.3692892e-24 1.5624356e-07 -1.6056458e-25 2.3374329e-43)
(2.4677916e-05 -3.6118169e-07 -1.6796092e-24 6.3838311e-08 1.179014e-25 4.1231236e-43)
(2.5428257e-05 -6.8612168e-08 0 7.2706775e-09 0 0)
(2.5553039e-05 -9.3643854e-07 1.2755587e-25 2.8685404e-07 -2.1808269e-26 2.2826493e-45)
(2.5343642e-05 -5.1235867e-07 2.0864492e-25 1.6143539e-07 -7.5671642e-29 4.7239042e-45)
(2.477958e-05 -2.9558403e-07 0 6.390446e-08 0 0)
(2.577034e-05 -2.7398275e-08 0 7.5534115e-09 0 0)
(2.7066216e-05 -1.229009e-06 -3.3431177e-24 4.419303e-07 5.6749055e-25 9.9073953e-43)
(2.6677658e-05 -7.5123601e-07 -2.7181101e-24 2.9522582e-07 2.5337494e-25 4.2549672e-43)
(2.5499841e-05 -4.0191575e-07 -1.1281315e-24 1.6185639e-07 1.0650268e-25 1.3102584e-43)
(2.5084982e-05 -1.9972092e-07 -5.9133774e-26 6.5150189e-08 3.5981965e-27 4.1744059e-46)
(2.5879738e-05 1.2874842e-08 -3.9125284e-27 7.8657912e-09 3.1561748e-30 7.010121e-49)
(2.8781606e-05 -1.5824287e-06 -3.2231841e-24 6.1865229e-07 6.4392035e-25 8.7622868e-43)
(2.8416092e-05 -9.8040137e-07 -2.2255426e-25 4.5340062e-07 -9.6732681e-27 9.0420841e-45)
(2.6912645e-05 -5.9996016e-07 -4.1314682e-24 2.9528894e-07 4.9088973e-25 1.4750826e-42)
(2.5878581e-05 -2.3649515e-07 -1.955162e-24 1.6581961e-07 1.2554722e-25 2.4399087e-43)
(2.5170786e-05 -1.0372397e-07 -3.0005192e-25 6.6312848e-08 2.0852618e-27 4.8983252e-45)
(2.5871839e-05 5.8931429e-08 1.9308529e-24 8.3575102e-09 -3.1957137e-26 5.2010382e-43)
(3.0660532e-05 -1.9801521e-06 -4.7177381e-24 8.1075329e-07 8.136092e-25 1.1558361e-42)
(3.0408243e-05 -1.2709622e-06 -2.7123225e-24 6.3168904e-07 5.2828533e-25 7.3046418e-43)
(2.8749358e-05 -7.8160186e-07 2.4117211e-24 4.5304489e-07 -3.7131121e-25 5.291053e-43)
(2.7402177e-05 -3.7111658e-07 2.6450383e-25 3.0140928e-07 -1.8645058e-26 3.4705514e-45)
(2.6024909e-05 -7.4021813e-08 -1.1627466e-24 1.6967247e-07 9.9195751e-26 1.5292183e-43)
(2.5145215e-05 9.4847914e-09 -1.3382664e-24 6.8406313e-08 5.2608653e-26 1.4656548e-43)
(2.5803101e-05 1.0563194e-07 -3.8058416e-25 8.971398e-09 1.1315937e-27 6.9847838e-45)
(3.2655272e-05 -2.4414735e-06 -4.2180812e-24 1.0159221e-06 5.6263201e-25 6.439754e-43)
(3.2609056e-05 -1.5989814e-06 -3.0813005e-24 8.2325365e-07 5.2084583e-25 5.1719676e-43)
(3.0857955e-05 -1.0244252e-06 -3.5332081e-24 6.2992735e-07 5.3639808e-25 7.8403089e-43)
(2.9377614e-05 -4.7991348e-07 -7.7262906e-25 4.6202766e-07 1.7850215e-26 3.1155384e-44)
(2.7634931e-05 -1.4679454e-07 4.0243955e-24 3.0728833e-07 -3.5180175e-25 1.1089055e-42)
(2.6059586e-05 1.178646e-07 1.8342094e-24 1.763945e-07 -8.8106506e-26 2.0797264e-43)
(2.5064767e-05 1.2525072e-07 6.4068288e-25 7.1099691e-08 -5.2616498e-26 1.6367814e-43)
(2.553995e-05 1.5499929e-07 -1.2274066e-24 9.7771462e-09 1.7901333e-26 3.3854152e-43)
(3.4731208e-05 -2.9676798e-06 7.1547004e-24 1.2321733e-06 -1.4110591e-24 2.1820441e-42)
(3.4978012e-05 -1.9873241e-06 -2.211447e-24 1.0243555e-06 5.8348543e-25 5.0837645e-43)
(3.3194811e-05 -1.3010667e-06 -7.5266396e-25 8.1929791e-07 3.0635407e-26 2.6944926e-44)
(3.1652353e-05 -6.4856933e-07 -1.3543392e-24 6.4059805e-07 2.2817381e-25 1.5295798e-43)
(2.9718318e-05 -1.8560491e-07 -1.7514941e-24 4.7093312e-07 2.3735616e-26 1.5490056e-43)
(2.7752865e-05 1.1957205e-07 5.2574604e-24 3.181399e-07 -4.4351968e-25 2.1282329e-42)
(2.6035116e-05 3.1317787e-07 1.9785895e-24 1.8485466e-07 5.9155216e-26 3.627092e-43)
(2.479913e-05 2.5037967e-07 9.7070059e-25 7.4879221e-08 -7.1469783e-26 4.1311654e-43)
(2.5237454e-05 2.0483714e-07 2.3049086e-24 1.0745683e-08 -2.5315918e-26 1.3598424e-42)
(3.6841576e-05 -3.5664609e-06 -6.926594e-24 1.4598055e-06 1.3399432e-24 1.7394629e-42)
(3.7485193e-05 -2.4354268e-06 -5.3105363e-25 1.2316501e-06 -1.8090447e-25 1.8057638e-43)
(3.5718796e-05 -1.6363292e-06 3.5942839e-25 1.0168555e-06 -3.5377501e-26 4.4927563e-45)
(3.418416e-05 -8.447448e-07 2.5844754e-24 8.3089184e-07 -7.6134295e-26 3.1055806e-43)
(3.2121967e-05 -2.8320166e-07 8.6295793e-25 6.5159575e-07 -8.0541442e-26 3.2456785e-44)
(2.9939688e-05 1.6413791e-07 -2.9557769e-24 4.8766678e-07 1.1242791e-26 4.3307846e-43)
(2.780417e-05 3.9008445e-07 -1.884297e-24 3.3193057e-07 1.2263426e-25 2.446009e-43)
(2.5821829e-05 5.2373016e-07 -2.3141502e-24 1.9645884e-07 1.0924072e-25 5.3810487e-43)
(2.4498374e-05 3.7737354e-07 -1.5927365e-24 7.955214e-08 2.0380715e-26 1.7609691e-43)
(2.4767914e-05 2.5545294e-07 -4.5797436e-25 1.1929338e-08 -1.6101575e-27 1.2440146e-44)
(3.8918964e-05 -4.2415262e-06 3.0426947e-24 1.7014083e-06 -6.7219422e-25 3.3821161e-43)
(4.0095974e-05 -2.9518109e-06 -2.3238708e-24 1.4433666e-06 2.4888357e-25 1.9138923e-43)
(3.8400743e-05 -2.0289489e-06 -1.6601527e-24 1.2190763e-06 5.0664369e-25 3.125233e-43)
(3.6932673e-05 -1.0954635e-06 3.047969e-24 1.0274463e-06 -4.9728797e-25 4.4234028e-43)
(3.4804766e-05 -4.0286379e-07 3.7827144e-25 8.4375284e-07 3.7640465e-25 5.6828125e-43)
(3.2467138e-05 1.5183525e-07 3.6158656e-24 6.7336107e-07 -7.2772091e-25 1.9858222e-42)
(3.0084534e-05 5.1772255e-07 -9.8855214e-25 5.0892252e-07 -5.5570695e-27 4.7699209e-44)
(2.7660033e-05 6.8315667e-07 -2.3152774e-24 3.5118583e-07 2.9080085e-25 1.3236369e-42)
(2.5569913e-05 7.3711974e-07 8.4329155e-25 2.1056079e-07 -7.5127294e-26 2.7602499e-43)
(2.4038689e-05 5.0859181e-07 -2.7768527e-24 8.5556111e-08 4.46035e-26 1.1081828e-42)
(2.4241911e-05 3.0574763e-07 -1.0505531e-25 1.3305351e-08 -3.9824299e-27 2.8435513e-44)
(4.0850691e-05 -4.9931965e-06 5.4445209e-25 1.96239e-06 -5.4339263e-26 8.6140109e-45)
(4.2762256e-05 -3.5410992e-06 4.5132171e-24 1.6595511e-06 -6.0410021e-25 6.392114e-43)
(4.120809e-05 -2.4882518e-06 3.7508055e-24 1.4237126e-06 -6.8323967e-25 5.1439575e-43)
(3.9871499e-05 -1.3980308e-06 0 1.2263007e-06 0 0)
(3.7725839e-05 -5.735725e-07 -2.377216e-25 1.0409205e-06 1.5246313e-26 1.9168466e-45)
(3.5295253e-05 1.2393314e-07 3.2706444e-24 8.7074157e-07 -4.7417233e-26 4.4555762e-43)
(3.2724586e-05 5.8954342e-07 6.6169346e-25 7.0124769e-07 -1.2765586e-25 7.3406697e-44)
(3.0026247e-05 9.0153113e-07 1.285591e-24 5.3871675e-07 -1.9832793e-25 3.5376553e-43)
(2.7470896e-05 9.8001516e-07 3.4663037e-24 3.7461535e-07 7.9270955e-26 6.0428997e-43)
(2.5155305e-05 9.5700029e-07 1.1989937e-24 2.2835829e-07 -5.7891243e-26 3.8485879e-43)
(2.3527457e-05 6.3998967e-07 5.2479196e-25 9.2732596e-08 -1.4253692e-26 1.5964936e-43)
(2.3592757e-05 3.5528888e-07 -2.6517197e-25 1.4910407e-08 -2.5927103e-27 8.1464026e-45)
(4.2443375e-05 -5.8129322e-06 3.4542776e-26 2.2523494e-06 9.5416284e-27 2.2615138e-46)
(4.5400078e-05 -4.2072228e-06 -1.1548563e-24 1.8823413e-06 7.7880946e-26 6.0469428e-44)
(4.4098351e-05 -3.0194076e-06 0 1.6302455e-06 0 0)
(4.297341e-05 -1.7622495e-06 0 1.4241289e-06 0 0)
(4.0859677e-05 -7.9115215e-07 6.0696612e-26 1.2389979e-06 -1.9171984e-25 7.2078216e-44)
(3.8383645e-05 4.9265134e-08 4.0560503e-24 1.0720722e-06 1.0362378e-25 8.9203518e-43)
(3.568492e-05 6.5135046e-07 -1.3437584e-24 9.0569581e-07 -3.2969071e-25 6.1492989e-43)
(3.2769679e-05 1.0659178e-06 -2.5577974e-24 7.4088464e-07 2.7879318e-25 5.3196308e-43)
(2.9913193e-05 1.2893463e-06 -4.588498e-25 5.746956e-07 6.027526e-27 8.7503631e-45)
(2.7113271e-05 1.2869983e-06 -4.2033944e-26 4.0446522e-07 -1.3942452e-27 8.8794849e-47)
(2.4685736e-05 1.1771577e-06 1.9323563e-25 2.4934688e-07 8.9305014e-26 6.2448208e-43)
(2.2898841e-05 7.7137828e-07 -1.8222164e-24 1.0145496e-07 -7.857679e-26 1.0900321e-42)
(2.2879047e-05 4.0354622e-07 8.9544661e-25 1.6732614e-08 1.4358675e-26 2.4209296e-42)
(4.3381584e-05 -6.6738446e-06 -2.3704112e-24 2.586125e-06 3.3656004e-25 1.4207276e-43)
(4.785238e-05 -4.9505793e-06 1.0176467e-25 2.1177406e-06 1.1176985e-27 8.2607232e-46)
(4.699919e-05 -3.6277439e-06 -3.5297626e-25 1.8398444e-06 -2.0209841e-25 8.7951049e-44)
(4.6206005e-05 -2.1933696e-06 6.8753351e-25 1.6192586e-06 1.8848483e-25 1.1805931e-43)
(4.4181831e-05 -1.0657322e-06 -6.9450612e-25 1.4339272e-06 -1.8822044e-25 1.2230824e-43)
(4.1708385e-05 -6.6605211e-08 1.5691863e-24 1.2732507e-06 -1.0862813e-27 1.0258985e-43)
(3.8923052e-05 6.7024871e-07 -1.0262427e-24 1.113166e-06 1.422428e-25 5.6529206e-44)
(3.5851516e-05 1.2261285e-06 -2.3280164e-25 9.5597573e-07 -3.6973857e-27 2.345584e-45)
(3.2746935e-05 1.5457097e-06 -4.842629e-24 7.8851778e-07 1.3890593e-25 9.5305601e-43)
(2.9627341e-05 1.690546e-06 -4.8125859e-24 6.2039837e-07 -3.163296e-26 9.4540004e-43)
(2.6695215e-05 1.5949663e-06 -3.7139078e-25 4.3971165e-07 1.7690917e-26 3.7350724e-44)
(2.4095117e-05 1.3969839e-06 -1.2527776e-24 2.7450653e-07 -1.8258599e-26 2.5972294e-43)
(2.2210206e-05 9.0078774e-07 -6.5073002e-25 1.1166689e-07 -1.6514482e-26 1.1204246e-43)
(2.207869e-05 4.4984085e-07 -3.8423359e-25 1.8791459e-08 -3.5891609e-27 1.9946287e-43)
(4.3199295e-05 -7.5149342e-06 1.022863e-23 2.9846295e-06 -2.5366018e-24 2.868972e-42)
(4.9837614e-05 -5.7626073e-06 4.1406582e-24 2.3772705e-06 -3.1169424e-25 7.5718582e-43)
(4.9773143e-05 -4.3164542e-06 1.95566e-24 2.0570472e-06 -3.5662095e-25 1.0088631e-43)
(4.9515421e-05 -2.6980959e-06 -4.1097281e-25 1.8112341e-06 3.3397885e-26 4.8394389e-45)
(4.7666459e-05 -1.4024953e-06 4.0253096e-25 1.6234168e-06 -2.5950388e-26 4.7780753e-45)
(4.5247626e-05 -2.3398829e-07 -2.2756071e-24 1.4693761e-06 3.8164747e-26 1.8621584e-43)
(4.2414489e-05 6.5368756e-07 -1.1038191e-24 1.3196781e-06 1.6745088e-25 5.9536244e-44)
(3.922883e-05 1.3470329e-06 1.3707587e-24 1.1733993e-06 -1.5086518e-25 9.0919513e-44)
(3.5934662e-05 1.8027351e-06 1.5462855e-24 1.0159918e-06 4.2163152e-26 1.0323122e-43)
(3.2551444e-05 2.0427667e-06 7.8728021e-25 8.4919896e-07 9.7943222e-27 2.3325003e-44)
(2.9271848e-05 2.0929024e-06 2.9445059e-26 6.7397481e-07 -1.513777e-27 1.4561639e-46)
(2.615154e-05 1.9037891e-06 2.0670012e-24 4.8223997e-07 1.1528267e-25 2.1094684e-43)
(2.3440535e-05 1.6136426e-06 -6.1365339e-26 3.0363639e-07 -3.2645016e-26 5.454128e-43)
(2.1438817e-05 1.0268556e-06 6.8450065e-25 1.2364016e-07 2.5161121e-26 2.0767051e-43)
(2.1219605e-05 4.93795e-07 -7.7295468e-25 2.1080942e-08 -1.1007556e-26 1.7540211e-43)
(4.1310042e-05 -8.2203756e-06 1.8839712e-24 3.4746006e-06 -1.2253355e-25 1.4008827e-43)
(5.0892892e-05 -6.6136737e-06 2.506313e-25 2.6799011e-06 -4.0730629e-25 1.4839943e-43)
(5.2167094e-05 -5.0824929e-06 2.2376416e-24 2.2911082e-06 -1.7020981e-25 1.5078481e-43)
(5.2794138e-05 -3.2841374e-06 -1.0233685e-24 2.0029148e-06 -1.6273039e-25 1.2100076e-43)
(5.1271317e-05 -1.8082001e-06 9.8138905e-25 1.8058532e-06 1.909705e-25 1.3021685e-43)
(4.8982125e-05 -4.5761422e-07 1.8759804e-24 1.6574451e-06 -7.0980124e-25 4.8998855e-43)
(4.6138429e-05 5.9147489e-07 2.7079708e-24 1.5196458e-06 3.916251e-25 7.5060506e-43)
(4.287659e-05 1.4374449e-06 -4.8822654e-25 1.3895231e-06 -6.8159861e-27 9.3465869e-45)
(3.9432145e-05 2.0234021e-06 5.1744389e-25 1.2448993e-06 -9.5488201e-26 3.0829841e-44)
(3.5846261e-05 2.4001071e-06 4.5633239e-24 1.0925131e-06 1.8320503e-25 8.9861527e-43)
(3.2270203e-05 2.5403674e-06 4.0857237e-24 9.1985903e-07 -2.3941095e-25 1.9295109e-42)
(2.8788248e-05 2.4970002e-06 2.7255975e-24 7.3837607e-07 2.5568955e-25 7.5481129e-43)
(2.5538288e-05 2.2095845e-06 3.1019519e-26 5.316439e-07 2.1268835e-26 6.1646113e-44)
(2.2699218e-05 1.8247546e-06 -8.3301388e-25 3.374294e-07 -5.7002467e-26 3.3764543e-44)
(2.0612024e-05 1.1483451e-06 -1.0728289e-24 1.3739925e-07 -5.2263977e-26 6.8434826e-44)
(2.030185e-05 5.3477301e-07 8.9317692e-25 2.3604007e-08 1.3039467e-26 2.342025e-43)
(3.7157616e-05 -8.5982893e-06 0 4.0856035e-06 0 0)
(5.035474e-05 -7.4343598e-06 -2.4761325e-24 3.0538208e-06 2.5296247e-25 2.6551249e-43)
(5.3745252e-05 -5.9052932e-06 -3.3489692e-24 2.5575327e-06 7.4872368e-25 2.9178258e-43)
(5.5820327e-05 -3.9538003e-06 0 2.2002318e-06 0 0)
(5.4908698e-05 -2.2907422e-06 0 1.9821631e-06 0 0)
(5.2882258e-05 -7.4426786e-07 0 1.8347442e-06 0 0)
(5.0080105e-05 4.7984427e-07 -9.1001821e-25 1.7096321e-06 3.4114333e-26 2.497392e-44)
(4.6774495e-05 1.4869977e-06 -2.1238703e-24 1.5981349e-06 3.9618291e-25 2.6802421e-43)
(4.3213592e-05 2.2180034e-06 -6.4647573e-24 1.4721099e-06 -1.6109644e-25 1.6523756e-42)
(3.9465306e-05 2.7232085e-06 -1.9202574e-24 1.3362826e-06 1.9976562e-25 2.5032924e-43)
(3.5653283e-05 2.996526e-06 -1.6774002e-24 1.180766e-06 -9.00646e-26 1.2156516e-43)
(3.1866552e-05 3.0417671e-06 -1.1795662e-24 1.0048003e-06 -4.3157895e-27 9.2161785e-44)
(2.8226923e-05 2.8979179e-06 -7.5779006e-25 8.1282856e-07 -6.474289e-26 3.2585843e-44)
(2.4833874e-05 2.5093997e-06 2.2517503e-25 5.8931515e-07 1.015361e-26 6.5352951e-44)
(2.1898029e-05 2.0285456e-06 8.9103409e-25 3.7591729e-07 7.4109748e-26 4.011927e-44)
(1.9728797e-05 1.2636308e-06 -3.8117776e-25 1.5309585e-07 -1.3492335e-26 5.6032175e-44)
(1.9340547e-05 5.7239166e-07 0 2.635193e-08 0 0)
(3.0529077e-05 -8.3717111e-06 5.4589163e-24 4.8434533e-06 -1.6829442e-24 1.0206806e-42)
(4.7446225e-05 -8.0888118e-06 9.5343001e-25 3.5360763e-06 3.0628422e-25 3.1637396e-43)
(5.3851539e-05 -6.7289107e-06 -8.0868989e-24 2.8789781e-06 7.9311547e-25 1.8227637e-42)
(5.8196515e-05 -4.7003447e-06 -6.0346839e-24 2.4148821e-06 6.3709218e-25 8.7690041e-43)
(5.8396462e-05 -2.8588909e-06 -4.4047548e-24 2.1568626e-06 1.537879e-25 5.7879789e-43)
(5.6884643e-05 -1.103122e-06 0 2.0007732e-06 0 0)
(5.422184e-05 3.122793e-07 -5.6073802e-24 1.8861139e-06 1.1167734e-26 1.0665034e-42)
(5.0911269e-05 1.4927395e-06 2.6997836e-24 1.7954843e-06 -3.6262136e-26 2.3482299e-43)
(4.7258617e-05 2.3761135e-06 3.1184167e-24 1.6909327e-06 6.3024839e-25 1.307764e-42)
(4.338062e-05 3.0233828e-06 -8.4104886e-24 1.5779678e-06 -3.1236333e-25 2.8258455e-42)
(3.937425e-05 3.4198827e-06 1.2586469e-24 1.4406343e-06 -7.1889007e-26 8.5953586e-44)
(3.5346041e-05 3.598496e-06 -2.1614428e-24 1.2865349e-06 -1.4911664e-25 2.0192634e-43)
(3.136914e-05 3.5390185e-06 8.4823112e-25 1.10253e-06 1.9292253e-25 5.1888176e-43)
(2.7572091e-05 3.2925927e-06 2.3637752e-24 8.9954978e-07 1.6068758e-25 7.0658602e-43)
(2.40639e-05 2.8010407e-06 2.9347504e-24 6.5536814e-07 2.9796958e-25 4.0003883e-43)
(2.1035777e-05 2.2223401e-06 -2.5481428e-24 4.194784e-07 -1.7014225e-25 2.6996377e-42)
(1.8803604e-05 1.3715246e-06 -5.1660636e-25 1.7076101e-07 -4.5750592e-27 3.2109314e-43)
(1.8343644e-05 6.0615838e-07 -1.5519754e-24 2.9312483e-08 -3.1435339e-26 5.3392483e-43)
(2.1976837e-05 -7.1970709e-06 -2.6147787e-25 5.760706e-06 4.6464787e-26 3.9010088e-45)
(4.1550357e-05 -8.348504e-06 1.8401349e-24 4.1685621e-06 -3.7294807e-25 1.4040809e-43)
(5.1667288e-05 -7.4388722e-06 -7.3057355e-25 3.2850535e-06 3.5866631e-25 4.5232853e-44)
(5.9285159e-05 -5.4960616e-06 -4.0341947e-24 2.6671954e-06 2.3893075e-25 4.7443714e-43)
(6.1382474e-05 -3.5167958e-06 7.1500751e-25 2.3395425e-06 -5.0181067e-26 1.2699593e-44)
(6.0844527e-05 -1.5460978e-06 3.2271513e-24 2.1578362e-06 -6.8790367e-25 3.5360003e-43)
(5.8521395e-05 7.944632e-08 1.3153795e-23 2.0475365e-06 -9.7571876e-25 4.5064781e-42)
(5.5277423e-05 1.4491513e-06 1.1583384e-23 1.9773173e-06 1.2006437e-25 4.6896438e-42)
(5.1558315e-05 2.495831e-06 4.1753682e-24 1.8975734e-06 1.2514794e-25 6.7887125e-43)
(4.7570493e-05 3.2899658e-06 3.573905e-24 1.8103904e-06 -2.9588153e-25 4.8223857e-43)
(4.3403319e-05 3.8225673e-06 2.0034254e-24 1.6976167e-06 9.9738929e-26 1.6224145e-43)
(3.9175897e-05 4.1226295e-06 1.9434493e-24 1.565133e-06 -1.4187459e-25 3.6749904e-43)
(3.4927944e-05 4.1946422e-06 3.2502932e-24 1.407274e-06 3.5357534e-25 7.004792e-43)
(3.0785469e-05 4.0319179e-06 -1.46321e-24 1.216551e-06 -1.4781521e-25 9.1913166e-44)
(2.6844343e-05 3.6783681e-06 -2.1083453e-24 9.98723e-07 -2.4299627e-25 2.0480409e-43)
(2.3227425e-05 3.0809782e-06 2.6709297e-25 7.3065721e-07 2.1814598e-26 5.9373416e-44)
(2.0126525e-05 2.4043044e-06 -1.1029365e-24 4.6817584e-07 -8.56438e-26 3.6875292e-43)
(1.7843641e-05 1.470584e-06 5.3855526e-25 1.90419e-07 3.9452781e-26 2.2475753e-44)
(1.7322111e-05 6.3569883e-07 -1.9684659e-24 3.2465946e-08 -5.0360855e-26 6.670137e-43)
(1.3173551e-05 -4.720403e-06 -1.2042716e-24 6.8266777e-06 -8.2847464e-26 1.8228884e-43)
(3.2676044e-05 -7.8803359e-06 -1.6258851e-24 4.9882523e-06 4.0348103e-25 1.3798392e-43)
(4.643345e-05 -7.8394939e-06 9.7278459e-24 3.8124331e-06 -5.579399e-25 3.9941549e-42)
(5.820609e-05 -6.2699775e-06 3.2122802e-24 2.988402e-06 -4.8191567e-25 2.3755324e-43)
(6.3264323e-05 -4.2523885e-06 3.3664691e-25 2.5462402e-06 -3.1136324e-25 5.4190226e-44)
(6.4460562e-05 -2.085154e-06 1.4802832e-24 2.312565e-06 -3.3443756e-25 7.2677653e-44)
(6.2868707e-05 -2.3169605e-07 -1.3693049e-24 2.1943501e-06 5.2519296e-26 5.1041723e-44)
(5.984886e-05 1.3479939e-06 1.0079751e-24 2.1409713e-06 -5.6710046e-25 2.5327519e-43)
(5.611048e-05 2.572838e-06 1.8114601e-24 2.0873047e-06 3.6359432e-26 1.1929772e-43)
(5.2026499e-05 3.5221795e-06 7.0658668e-24 2.0298129e-06 6.6924985e-25 2.8794852e-42)
(4.771661e-05 4.1935066e-06 3.669538e-24 1.9441799e-06 -4.5341644e-25 8.1977211e-43)
(4.3324315e-05 4.6265266e-06 -2.4762827e-24 1.8393699e-06 -8.6890823e-26 2.0633852e-43)
(3.8853324e-05 4.8178526e-06 -2.2913805e-24 1.7060861e-06 -9.598173e-26 1.8096799e-43)
(3.4432132e-05 4.7880204e-06 2.6596972e-25 1.5477554e-06 2.3862428e-26 2.4862375e-45)
(3.0114397e-05 4.5145628e-06 -2.0407214e-24 1.3466987e-06 -2.5109038e-25 1.9043619e-43)
(2.6046551e-05 4.0514306e-06 7.9032132e-25 1.1118212e-06 9.3525023e-26 6.9550724e-43)
(2.2337777e-05 3.3468749e-06 -2.7320581e-24 8.1543087e-07 -3.5651033e-25 5.7191157e-43)
(1.9176879e-05 2.572032e-06 1.082607e-24 5.2206505e-07 6.2774145e-26 8.0433215e-43)
(1.685922e-05 1.5595946e-06 2.8363353e-25 2.1201931e-07 9.2215388e-27 5.7083496e-44)
(1.6285768e-05 6.6065615e-07 2.1144603e-24 3.5785496e-08 6.1232977e-26 8.0608878e-43)
(6.9581321e-06 -6.6719819e-07 -2.2427822e-25 8.0004514e-06 5.2176092e-25 4.0333428e-44)
(2.1983382e-05 -6.2718114e-06 -2.9874968e-24 6.0146603e-06 1.421862e-24 5.9591086e-43)
(3.7888117e-05 -7.6312979e-06 -4.2762515e-24 4.4947895e-06 1.5103524e-24 6.6688108e-43)
(5.4001311e-05 -6.8696144e-06 -3.1945356e-24 3.4158803e-06 2.7787957e-25 3.1195946e-43)
(6.3156036e-05 -5.0183304e-06 3.1655141e-24 2.8011149e-06 -6.6613727e-25 2.4680132e-43)
(6.7183185e-05 -2.7244958e-06 2.7685352e-24 2.4774691e-06 -6.9010914e-26 2.1618816e-43)
(6.701409e-05 -6.3814507e-07 -1.0097008e-23 2.3306312e-06 4.3280057e-25 2.669555e-42)
(6.4549961e-05 1.1760914e-06 -1.9467005e-23 2.2852943e-06 4.6062186e-25 1.1045249e-41)
(6.0907091e-05 2.600208e-06 -4.9621968e-24 2.2568134e-06 8.2887116e-25 9.5796683e-43)
(5.6750924e-05 3.7171902e-06 0 2.2312521e-06 0 0)
(5.2305043e-05 4.5327992e-06 -2.5959777e-24 2.1768902e-06 3.8415059e-25 3.9780106e-43)
(4.7764781e-05 5.0984542e-06 -6.1031452e-24 2.1013517e-06 -3.6323899e-25 1.5127257e-42)
(4.3109378e-05 5.4204824e-06 -6.9360193e-25 1.998297e-06 -3.2598753e-25 5.2341169e-43)
(3.8459662e-05 5.5104498e-06 5.0511524e-24 1.8691119e-06 6.2589908e-25 1.6107031e-42)
(3.3837568e-05 5.3703212e-06 1.9638338e-24 1.7076103e-06 2.1028236e-25 1.4288607e-43)
(2.9378546e-05 4.9864426e-06 -5.4324428e-25 1.495815e-06 -6.4922722e-26 3.2589463e-43)
(2.5188325e-05 4.4088824e-06 -2.9915858e-24 1.239361e-06 -4.6964317e-25 4.5496629e-43)
(2.1401248e-05 3.5954336e-06 -1.6554988e-24 9.0999258e-07 -2.2998934e-25 3.274916e-43)
(1.8197016e-05 2.7235672e-06 1.9351583e-24 5.8100656e-07 2.2089e-25 6.7125329e-43)
(1.585944e-05 1.6373465e-06 -3.0213228e-25 2.3544888e-07 -3.2611306e-26 6.2137342e-45)
(1.5244402e-05 6.8074916e-07 2.2745005e-24 3.9237136e-08 7.6702625e-26 8.9499621e-43)
(6.9060544e-06 5.0594571e-06 3.0390966e-24 9.2113835e-06 4.2991546e-24 2.1746594e-42)
(1.2100592e-05 -3.1051989e-06 -1.8990416e-24 7.2361526e-06 1.599398e-24 5.5510642e-43)
(2.684356e-05 -6.4294367e-06 -2.4738044e-24 5.3537541e-06 -1.0930255e-25 5.577985e-43)
(4.6056049e-05 -7.0392932e-06 3.7262989e-24 3.9909019e-06 1.0349734e-26 7.3011562e-43)
(5.9997553e-05 -5.7054342e-06 5.2528296e-24 3.1379683e-06 -4.8960321e-25 7.2154121e-43)
(6.8147572e-05 -3.445974e-06 1.019415e-24 2.6730015e-06 -3.5238399e-25 5.4365379e-44)
(7.0468988e-05 -1.1569489e-06 0 2.4657123e-06 0 0)
(6.9185519e-05 9.1398773e-07 4.4983423e-24 2.4118651e-06 -9.5457776e-25 7.5865122e-43)
(6.5902356e-05 2.5659774e-06 7.230396e-24 2.4037142e-06 -4.3551544e-25 1.5002273e-42)
(6.1747882e-05 3.8702261e-06 3.8501359e-24 2.4109502e-06 8.6982805e-25 1.6817338e-42)
(5.7173389e-05 4.8390092e-06 -3.5348322e-24 2.3907603e-06 1.6663933e-25 4.0096524e-43)
(5.2486146e-05 5.539279e-06 -2.6982378e-24 2.3481012e-06 -1.7873151e-25 3.266836e-43)
(4.7665814e-05 5.9895039e-06 1.1494674e-24 2.2756019e-06 8.5317742e-26 5.441623e-44)
(4.2830108e-05 6.2101855e-06 -1.5179207e-24 2.1803886e-06 -6.1776708e-26 8.5709866e-44)
(3.7961095e-05 6.1918145e-06 -1.4573465e-24 2.0540008e-06 -2.4530104e-25 3.0152935e-43)
(3.3182862e-05 5.943465e-06 1.4396078e-24 1.8907194e-06 2.3652988e-25 2.8913556e-43)
(2.8569974e-05 5.441273e-06 1.44248e-25 1.6642541e-06 2.5753533e-26 5.1123745e-45)
(2.4277621e-05 4.7470465e-06 4.1969512e-25 1.3820775e-06 3.3758532e-26 3.0409478e-43)
(2.0427331e-05 3.8239111e-06 -1.8503013e-24 1.0142671e-06 -3.3403448e-25 1.8995419e-43)
(1.7195663e-05 2.8568897e-06 -3.553931e-25 6.44705e-07 -5.7777601e-26 8.3273796e-45)
(1.4853631e-05 1.7027871e-06 1.1693432e-24 2.6052133e-07 1.0491759e-25 2.6352848e-43)
(1.4206871e-05 6.9576723e-07 0 4.2780489e-08 0 0)
(1.6498734e-05 1.2312968e-05 3.8530921e-24 1.0368632e-05 3.2049344e-24 1.0037316e-42)
(6.9475635e-06 1.9264155e-06 3.6438615e-25 8.6023501e-06 -1.1388765e-24 2.287999e-43)
(1.5622471e-05 -3.8224599e-06 2.6719184e-25 6.3868291e-06 -2.6521227e-25 1.2575503e-44)
(3.4709143e-05 -6.4091344e-06 4.9939653e-24 4.7478613e-06 -9.2717401e-25 1.0512062e-42)
(5.2905645e-05 -6.1048503e-06 4.7265001e-24 3.5956738e-06 -8.6235042e-25 6.0354091e-43)
(6.6217981e-05 -4.1819344e-06 -2.3154315e-24 2.9290801e-06 9.2942038e-26 1.5540019e-43)
(7.2413736e-05 -1.7922941e-06 -3.6407808e-24 2.6156206e-06 1.0074775e-24 5.3389085e-43)
(7.3338853e-05 5.3666631e-07 -7.6508932e-24 2.5264665e-06 -2.6374391e-26 1.8553252e-42)
(7.0951207e-05 2.4503618e-06 -7.2303614e-25 2.5276343e-06 -2.8815972e-25 1.0203037e-43)
(6.6997474e-05 3.9716079e-06 -1.0714516e-24 2.565602e-06 1.1908734e-26 3.8634512e-44)
(6.2335047e-05 5.1095157e-06 3.3269164e-25 2.5819169e-06 -1.4372689e-28 3.9157798e-45)
(5.7493541e-05 5.9489519e-06 6.9299017e-24 2.5748855e-06 3.2009394e-25 2.0006085e-42)
(5.2508284e-05 6.5259915e-06 3.0489116e-25 2.5355794e-06 -2.5386632e-26 5.3879849e-45)
(4.7509442e-05 6.872456e-06 -1.1325805e-23 2.4727979e-06 -8.7503037e-25 4.5572393e-42)
(4.2442897e-05 6.987855e-06 -4.5764633e-24 2.3856573e-06 -3.8834383e-25 6.6879069e-43)
(3.740724e-05 6.8650469e-06 -1.7430151e-24 2.2652391e-06 -1.8428745e-25 2.594573e-43)
(3.2448615e-05 6.500014e-06 1.7194453e-24 2.0979803e-06 2.9499534e-25 1.1896176e-43)
(2.770985e-05 5.8781439e-06 1.5725005e-25 1.8540942e-06 7.5326418e-26 7.5745068e-43)
(2.3321578e-05 5.0623468e-06 -6.2672449e-25 1.5400851e-06 -1.2252013e-25 2.9179226e-44)
(1.942426e-05 4.0293767e-06 7.5641146e-25 1.1279325e-06 1.1308329e-25 1.763816e-43)
(1.6181915e-05 2.9702123e-06 0 7.1267527e-07 0 0)
(1.3850548e-05 1.7550341e-06 -2.8620001e-24 2.8697583e-07 -2.9726417e-25 1.5678886e-42)
(1.3182175e-05 7.0560198e-07 1.0612115e-25 4.6370258e-08 5.7681212e-27 8.9061911e-46)
(3.8204706e-05 2.0700473e-05 -2.6579116e-23 1.1377101e-05 -1.4461354e-23 1.8589104e-41)
(1.0981959e-05 8.9038377e-06 -9.2027566e-25 1.0025797e-05 -2.399977e-24 1.281693e-42)
(8.0664231e-06 5.2274675e-07 -9.3050708e-25 7.5571871e-06 -1.2268481e-24 3.9847349e-43)
(2.1851603e-05 -4.532945e-06 -6.6387062e-25 5.7007775e-06 -3.2176056e-25 1.0197224e-43)
(4.1794434e-05 -5.8884041e-06 3.7510371e-24 4.2125738e-06 -1.1271616e-25 7.4034412e-43)
(6.0266256e-05 -4.7798437e-06 0 3.2862049e-06 0 0)
(7.1688826e-05 -2.513595e-06 -7.6837663e-25 2.805247e-06 2.4109371e-25 2.6443007e-44)
(7.6258271e-05 2.0605499e-08 -4.2094275e-25 2.6409555e-06 -4.9407251e-25 1.7670442e-43)
(7.5708836e-05 2.2237791e-06 -6.382871e-24 2.6314229e-06 1.3803798e-25 1.273778e-42)
(7.2401782e-05 4.0031879e-06 -1.2663962e-23 2.693205e-06 6.1344342e-25 5.1525017e-42)
(6.7791922e-05 5.3374613e-06 2.0084836e-25 2.746531e-06 5.1269863e-25 2.754569e-43)
(6.2806094e-05 6.3272634e-06 2.8931488e-24 2.7780545e-06 3.0844558e-25 5.5062285e-43)
(5.7640317e-05 7.030895e-06 -2.7803005e-24 2.7739649e-06 -4.0499191e-25 7.046633e-43)
(5.247902e-05 7.4980432e-06 -1.5399703e-24 2.7445525e-06 1.4309419e-25 2.4658181e-43)
(4.7244527e-05 7.7410858e-06 1.0735817e-24 2.693078e-06 -1.3990926e-25 5.7230912e-43)
(4.2007552e-05 7.7573831e-06 7.1742783e-24 2.618878e-06 8.0548432e-25 1.7341902e-42)
(3.6772007e-05 7.5233184e-06 6.6358659e-24 2.5047325e-06 1.153139e-24 2.2645089e-42)
(3.1663037e-05 7.0402405e-06 4.1198504e-25 2.3323674e-06 8.5509493e-26 1.019281e-43)
(2.6793634e-05 6.2905424e-06 3.0709251e-24 2.0653392e-06 5.9124053e-25 2.3223957e-42)
(2.2328687e-05 5.3512108e-06 -3.9555571e-24 1.7132261e-06 -8.6290059e-25 1.2913434e-42)
(1.8400617e-05 4.2091137e-06 -2.6832676e-24 1.2502856e-06 -5.0965056e-25 1.3463428e-42)
(1.5164609e-05 3.0619696e-06 3.5227021e-24 7.8423908e-07 6.1821271e-25 1.9325401e-42)
(1.2858329e-05 1.793427e-06 -2.6775208e-24 3.1448545e-07 -3.2917066e-25 1.1571486e-42)
(1.2178206e-05 7.1018864e-07 7.7006281e-26 4.9953445e-08 4.589667e-27 5.0647957e-46)
(7.2857551e-05 2.9649644e-05 -1.2578355e-23 1.2150918e-05 -5.1149292e-24 2.2097017e-42)
(2.8126656e-05 1.7616067e-05 -3.9862802e-24 1.1394261e-05 -2.8238269e-24 1.1853329e-42)
(8.8965489e-06 6.7432447e-06 -7.1147151e-25 8.7898907e-06 -1.2185715e-24 1.9889013e-43)
(1.1153626e-05 -9.7750825e-07 3.9483686e-24 6.8313837e-06 -1.2721348e-24 2.4163684e-42)
(2.8090087e-05 -4.6218164e-06 -1.0503379e-24 5.0125064e-06 -3.5023055e-25 2.0217891e-43)
(4.9767219e-05 -4.957959e-06 4.650918e-24 3.7847347e-06 -7.7941296e-26 1.0264841e-42)
(6.6997686e-05 -3.2174625e-06 -6.3719148e-25 3.0690574e-06 2.3883727e-25 2.2200299e-44)
(7.6798441e-05 -6.3684566e-07 7.3487472e-24 2.7749652e-06 -5.4343073e-26 1.7899019e-42)
(7.9502188e-05 1.849911e-06 7.1120802e-25 2.7227679e-06 -5.0853499e-25 1.3302962e-43)
(7.7689616e-05 3.9341548e-06 -2.7632716e-24 2.7939514e-06 -7.2449203e-26 3.137199e-43)
(7.3487986e-05 5.5076443e-06 -2.1103812e-24 2.88148e-06 5.8627514e-25 3.1597425e-43)
(6.8442046e-05 6.6707087e-06 -7.7631621e-24 2.9536763e-06 -2.9698169e-25 2.8488477e-42)
(6.308378e-05 7.5061848e-06 -9.5721611e-25 2.9876358e-06 2.4174895e-25 1.207779e-43)
(5.773899e-05 8.0884908e-06 7.1655956e-25 2.992074e-06 5.2511149e-26 2.3663031e-44)
(5.2342238e-05 8.4511382e-06 6.2726328e-24 2.9750291e-06 3.9966997e-25 1.1699588e-42)
(4.6941247e-05 8.5997843e-06 -4.2153882e-25 2.9411421e-06 -8.0080357e-26 2.9975989e-44)
(4.1493387e-05 8.5135558e-06 1.0825303e-24 2.883106e-06 1.8522033e-25 6.2791194e-44)
(3.6088093e-05 8.1677295e-06 1.2065799e-24 2.7762844e-06 2.2020041e-25 2.4995844e-43)
(3.0815636e-05 7.5570844e-06 0 2.5947292e-06 0 0)
(2.5836495e-05 6.6763491e-06 5.1095456e-25 2.2988638e-06 1.3233739e-25 1.3167005e-44)
(2.1306022e-05 5.6098408e-06 7.3076553e-26 1.9006719e-06 2.1661841e-26 7.8326943e-46)
(1.7364761e-05 4.3606002e-06 -5.5478634e-27 1.3802738e-06 -8.2278182e-27 3.6129265e-45)
(1.4152279e-05 3.1309066e-06 -7.2981693e-25 8.5852501e-07 -1.5649479e-25 4.9705589e-44)
(1.1885102e-05 1.8175291e-06 3.1354046e-24 3.4265367e-07 4.220899e-25 1.9864746e-42)
(1.120241e-05 7.095234e-07 1.8212929e-24 5.3469162e-08 9.9958819e-26 6.4670898e-43)
(0.00011959161 3.8523932e-05 4.3369166e-23 1.2629029e-05 1.405171e-23 1.5778038e-41)
(6.0786579e-05 2.7563873e-05 4.9143613e-24 1.2582399e-05 2.2012587e-24 4.8164668e-43)
(2.2619928e-05 1.4696677e-05 -4.9106585e-25 9.9836176e-06 -3.186464e-25 1.8426536e-44)
(7.7041816e-06 4.5454903e-06 -1.498968e-25 8.0816312e-06 1.4587702e-25 2.1527874e-44)
(1.5163472e-05 -1.8423502e-06 -2.8099845e-24 5.9927981e-06 5.8959021e-26 1.3134932e-42)
(3.558612e-05 -4.3053871e-06 -1.1365189e-24 4.4585161e-06 5.3270322e-25 8.9802046e-44)
(5.7445208e-05 -3.6834813e-06 -5.4314134e-25 3.4487642e-06 2.6456209e-25 2.3020553e-44)
(7.3543847e-05 -1.3840564e-06 -3.5263213e-25 2.9579838e-06 -1.1894368e-26 5.4340066e-45)
(8.1234563e-05 1.2987644e-06 -5.4251225e-24 2.8160849e-06 6.5177781e-28 1.1030431e-42)
(8.2283e-05 3.7197398e-06 -2.2596422e-24 2.8716334e-06 5.9910526e-25 2.7136112e-43)
(7.9221761e-05 5.5908026e-06 -2.3199612e-24 2.984935e-06 -2.6493406e-25 3.715541e-43)
(7.4380733e-05 6.9681899e-06 1.1374244e-24 3.0980228e-06 -6.8235465e-27 5.6820168e-44)
(6.8868828e-05 7.951753e-06 3.8981616e-24 3.1729469e-06 1.7354356e-25 8.0046255e-43)
(6.3311015e-05 8.647711e-06 1.3141564e-24 3.2131033e-06 -3.5711772e-26 5.8612764e-44)
(5.7731222e-05 9.1193673e-06 2.844878e-24 3.2287052e-06 2.5365383e-25 3.8026239e-43)
(5.2178889e-05 9.3898357e-06 -9.5798295e-24 3.2312252e-06 -9.3133259e-25 2.6495661e-42)
(4.6566204e-05 9.4457576e-06 -1.9508279e-23 3.2211806e-06 -2.9110666e-24 1.217805e-41)
(4.0937449e-05 9.2584891e-06 -2.4741084e-24 3.1829321e-06 -4.1389557e-25 5.3024607e-43)