/*--------------------------------*- C++ -*----------------------------------*\
| =========                 |                                                 |
| \\      /  F ield         | OpenFOAM: The Open Source CFD Toolbox           |
|  \\    /   O peration     | Version:  5.0                                   |
|   \\  /    A nd           | Web:      www.OpenFOAM.org                      |
|    \\/     M anipulation  |                                                 |
\*---------------------------------------------------------------------------*/
FoamFile
{
    version     2.0;
    format      ascii;
    class       volScalarField;
    location    "270";
    object      p;
}
// * * * * * * * * * * * * * * * * * * * * * * * * * * * * * * * * * * * * * //

dimensions      [0 2 -2 0 0 0 0];

internalField   nonuniform List<scalar> 
9200
(
-0.0006272815
-0.0006253524
-0.0014386415
-0.00062085299
-0.0014406166
-0.0024513447
-0.00061926433
-0.0014299942
-0.0024516831
-0.0033536632
-0.0006120459
-0.0014228622
-0.0024372126
-0.00335702
-0.0042785517
-0.00060476468
-0.0014042661
-0.0024265811
-0.0033411541
-0.0042855615
-0.0051566334
-0.0005933638
-0.0013837194
-0.0023995422
-0.0033303602
-0.0042709783
-0.0051706897
-0.0060151404
-0.00057993654
-0.0013542981
-0.0023677161
-0.0032991652
-0.0042639115
-0.0051609994
-0.0060381782
-0.0068366062
-0.00056343452
-0.0013193222
-0.0023221273
-0.0032610729
-0.0042329717
-0.0051630038
-0.0060365401
-0.006871329
-0.0076238325
-0.00054459475
-0.0012770648
-0.0022666326
-0.0032049919
-0.0041934142
-0.0051385335
-0.0060527799
-0.0068815135
-0.0076737529
-0.0083710849
-0.00052364106
-0.0012285655
-0.0021991024
-0.0031351699
-0.0041316999
-0.0051047241
-0.0060407414
-0.0069182709
-0.0077006508
-0.0084390561
-0.0090755038
-0.00050138897
-0.0011738591
-0.0021209201
-0.0030489398
-0.0040523018
-0.005045263
-0.006019371
-0.0069262518
-0.0077636042
-0.0084865818
-0.0091644672
-0.009733334
-0.00047893932
-0.0011134392
-0.0020324911
-0.0029478648
-0.0039519039
-0.0049647064
-0.0059694577
-0.0069259932
-0.0077986996
-0.0085817003
-0.0092371783
-0.0098460592
-0.010341089
-0.00045785673
-0.0010475329
-0.0019350557
-0.002832412
-0.0038322219
-0.0048588004
-0.0058954989
-0.0068946559
-0.0078280592
-0.0086518302
-0.0093721364
-0.0099482106
-0.010480178
-0.01089541
-0.00043974152
-0.00097627742
-0.0018298984
-0.0027040387
-0.0036938414
-0.0047292149
-0.0057918831
-0.0068363881
-0.0078246878
-0.0087196133
-0.0094849479
-0.010128768
-0.010615901
-0.011063208
-0.011393277
-0.00042680113
-0.00089953628
-0.0017185513
-0.0025641655
-0.003538674
-0.0045764023
-0.0056600044
-0.0067442659
-0.0077921105
-0.0087538963
-0.0096005586
-0.010291849
-0.010848302
-0.011236298
-0.011591828
-0.011832066
-0.00041944099
-0.00081825257
-0.0016024156
-0.0024144034
-0.0033687559
-0.0044024188
-0.0055000539
-0.0066192748
-0.0077216877
-0.0087575049
-0.0096829905
-0.010464481
-0.011070053
-0.011525989
-0.011805735
-0.012063079
-0.012209615
-0.0004159743
-0.00073317699
-0.0014835848
-0.0022562534
-0.0031864911
-0.0042094804
-0.0053142135
-0.0064611297
-0.0076137509
-0.0087196872
-0.0097339769
-0.010605486
-0.011309104
-0.011813327
-0.012157985
-0.012320754
-0.012474434
-0.012524363
-0.00041310691
-0.00064572087
-0.0013631625
-0.0020920392
-0.0029942267
-0.0040002198
-0.0051049898
-0.006271915
-0.0074673276
-0.0086398512
-0.0097404487
-0.010715291
-0.011519377
-0.012127671
-0.012518241
-0.012739903
-0.012778281
-0.012823836
-0.012775556
-0.00040478516
-0.000559222
-0.0012416112
-0.0019236475
-0.0027948749
-0.0037772868
-0.004875486
-0.0060541757
-0.0072842536
-0.008516084
-0.0097006132
-0.010778192
-0.011699771
-0.01241757
-0.012916469
-0.013179052
-0.013268185
-0.013175641
-0.013109889
-0.012963048
-0.00038347162
-0.00047763703
-0.0011197721
-0.0017530623
-0.0025905689
-0.0035439718
-0.0046289312
-0.0058112117
-0.0070670365
-0.008349728
-0.009611362
-0.010790927
-0.011831741
-0.012680228
-0.013296102
-0.013668825
-0.013791925
-0.013739348
-0.013510944
-0.013332106
-0.013086326
-0.00034159047
-0.00040556404
-0.00099774838
-0.0015833066
-0.00238307
-0.0033031133
-0.0043690834
-0.0055465867
-0.0068191709
-0.0081430263
-0.0094733192
-0.010748913
-0.011910291
-0.012894037
-0.013652577
-0.01414761
-0.014380253
-0.014351913
-0.014151054
-0.013783338
-0.013490621
-0.013144674
-0.00027313712
-0.00034755175
-0.00087546247
-0.0014172231
-0.0021747483
-0.003057508
-0.0040991649
-0.0052644147
-0.0065445909
-0.0078994599
-0.0092882789
-0.010651806
-0.01192907
-0.013052018
-0.013961089
-0.014608955
-0.014966893
-0.01504459
-0.014855634
-0.014500749
-0.013992387
-0.013585036
-0.013140908
-0.00017496915
-0.00030729358
-0.00075285349
-0.0012576226
-0.0019677341
-0.0028106193
-0.0038221793
-0.0049684729
-0.0062477905
-0.0076231402
-0.0090595914
-0.010500683
-0.011886512
-0.013145777
-0.014212447
-0.015024751
-0.015543562
-0.015746733
-0.015657308
-0.01529903
-0.014786347
-0.01413673
-0.013614392
-0.013078874
-4.7447264e-05
-0.00028695103
-0.00063004391
-0.0011070702
-0.0017642437
-0.0025655806
-0.0035416441
-0.0046624329
-0.0059331028
-0.0073188121
-0.0087914705
-0.010298542
-0.011782713
-0.013172231
-0.014395945
-0.015383407
-0.016078833
-0.016448253
-0.016481465
-0.01621309
-0.015679304
-0.015005955
-0.014215392
-0.013582261
-0.012961526
0.00010556564
-0.00028678923
-0.00050745251
-0.00096768911
-0.0015664815
-0.0023253959
-0.0032609575
-0.004350457
-0.0056047113
-0.0069913009
-0.0084889043
-0.0100495
-0.011620095
-0.013130234
-0.014506681
-0.015671668
-0.016558569
-0.017114443
-0.017316307
-0.017164463
-0.016707894
-0.015993652
-0.015159053
-0.014230569
-0.013491996
-0.012790373
0.00027732196
-0.00030517148
-0.00038578251
-0.00084100201
-0.0013765634
-0.0020929144
-0.0029836703
-0.0040366004
-0.0052671643
-0.0066453544
-0.0081571881
-0.0097586319
-0.011402507
-0.013021331
-0.014541979
-0.015882523
-0.016966752
-0.017728527
-0.018123957
-0.018139796
-0.017790325
-0.017137672
-0.016240557
-0.015246109
-0.014184299
-0.013346036
-0.012568244
0.00046020138
-0.00033813929
-0.00026595712
-0.00072780805
-0.0011964259
-0.0018708056
-0.0027133272
-0.003724981
-0.004925007
-0.0062860824
-0.0078016144
-0.0094315526
-0.011135
-0.012848858
-0.01450223
-0.016011444
-0.017293995
-0.018271573
-0.018884971
-0.019098238
-0.018911905
-0.018353524
-0.017499569
-0.016419123
-0.015268272
-0.014079092
-0.013147145
-0.012298231
0.00064775299
-0.00037619698
-0.0001497743
-0.0006284039
-0.0010274718
-0.0016614787
-0.0024532499
-0.0034197288
-0.0045829158
-0.005918735
-0.0074278055
-0.0090740222
-0.010823422
-0.012617635
-0.014389969
-0.016057375
-0.01753361
-0.018731577
-0.019577405
-0.020017726
-0.020029103
-0.019625507
-0.018849656
-0.01779123
-0.016529344
-0.01522714
-0.013917552
-0.012898305
-0.011983991
0.00082834978
-0.0004038944
-4.3167849e-05
-0.00054251598
-0.00087042262
-0.0014671877
-0.0022063435
-0.0031248703
-0.0042456997
-0.0055486937
-0.0070415994
-0.0086921883
-0.010473956
-0.01233354
-0.01420958
-0.01602175
-0.017682752
-0.019099395
-0.020186436
-0.020873281
-0.021117369
-0.020907806
-0.020274506
-0.019274737
-0.018011282
-0.016571789
-0.015124786
-0.013702582
-0.012602803
-0.011629129
0.00099970032
-0.00043187964
4.808469e-05
-0.00046784513
-0.00072663124
-0.0012895432
-0.0019748786
-0.0028441695
-0.0039181135
-0.0051815082
-0.0066489956
-0.0082925454
-0.01009324
-0.012003027
-0.013966795
-0.015908212
-0.017741446
-0.019370069
-0.020700202
-0.021647126
-0.022148749
-0.022173607
-0.021726497
-0.020853122
-0.019625794
-0.018159001
-0.016547674
-0.014963664
-0.013437337
-0.012264155
-0.011237484
0.0011792862
-0.0004734136
0.00012991139
-0.00039477003
-0.00059890589
-0.0011299022
-0.0017608436
-0.0025808435
-0.003604618
-0.004822737
-0.00625624
-0.0078818304
-0.0096883474
-0.011633142
-0.013668223
-0.015722094
-0.017712303
-0.019541855
-0.021111307
-0.022324458
-0.023102444
-0.023392137
-0.023176859
-0.02247748
-0.021356578
-0.019900546
-0.018234474
-0.016458742
-0.014746611
-0.013125209
-0.011886036
-0.010812784
0.0013596724
-0.00052333106
0.0002074782
-0.00032689999
-0.00048363072
-0.00098834387
-0.0015665587
-0.0023373719
-0.0033090712
-0.0044776943
-0.0058696798
-0.0074671089
-0.0092666637
-0.011231496
-0.013321224
-0.015469939
-0.017599977
-0.019615995
-0.02141589
-0.022895146
-0.023960547
-0.024539585
-0.024592239
-0.024117466
-0.023154014
-0.021780778
-0.020097659
-0.018238443
-0.016307266
-0.014476787
-0.01276978
-0.011472194
-0.010358806
0.0015327279
-0.00057462606
0.00028839689
-0.00028378335
-0.000373981
-0.00084999073
-0.0013937327
-0.0021163369
-0.0030346416
-0.004151059
-0.0054954891
-0.0070556354
-0.0088359899
-0.010806161
-0.012933856
-0.015159258
-0.017410713
-0.019596159
-0.021613462
-0.023352864
-0.02470993
-0.025594849
-0.02594592
-0.025737484
-0.02498661
-0.023749975
-0.022122669
-0.020216574
-0.018172345
-0.01609597
-0.014157627
-0.012374758
-0.0110264
-0.0098791854
0.0016923047
-0.00062623962
0.00036988631
-0.00024628776
-0.00028016209
-0.00070724082
-0.0012284434
-0.0019189588
-0.0027847501
-0.0038466837
-0.0051392415
-0.006654562
-0.0084044339
-0.01036574
-0.012514775
-0.014798436
-0.017152003
-0.019487981
-0.021706364
-0.023695015
-0.025341479
-0.026541605
-0.027213594
-0.027308108
-0.026816954
-0.025775982
-0.024260298
-0.022380077
-0.020257588
-0.018038223
-0.015827985
-0.013792781
-0.011943925
-0.01055238
-0.0093774856
0.0018333543
-0.00067624489
0.00044561522
-0.0002067215
-0.00018957064
-0.00060048546
-0.0010665196
-0.0017266821
-0.0025614514
-0.0035686418
-0.0048056797
-0.0062704468
-0.0079801305
-0.0099192775
-0.012073295
-0.014396653
-0.016832404
-0.019298667
-0.021699306
-0.023922232
-0.025850114
-0.027367651
-0.028375601
-0.028801905
-0.028613199
-0.027820054
-0.026478281
-0.024680868
-0.022551823
-0.020221765
-0.017838686
-0.015506775
-0.01338605
-0.011481074
-0.010053785
-0.0088570952
0.0019514348
-0.00072197267
0.00051257326
-0.00017132887
-0.00010247104
-0.00051146285
-0.00093869343
-0.0015385672
-0.0023438024
-0.003319364
-0.0044998691
-0.0059089473
-0.0075707108
-0.0094759663
-0.011619324
-0.01396392
-0.016461472
-0.01903675
-0.021598922
-0.024037929
-0.026234368
-0.028065071
-0.029416421
-0.030195827
-0.030344972
-0.029848304
-0.0287371
-0.027087151
-0.025008697
-0.022637658
-0.020110921
-0.017576837
-0.015136074
-0.012941325
-0.010989968
-0.0095341403
-0.0083212576
0.0020429245
-0.00076110224
0.00056986578
-0.00014280166
-2.2098151e-05
-0.0004212663
-0.00081715899
-0.0013953445
-0.0021322538
-0.0030743302
-0.0042251909
-0.0055760743
-0.0071829211
-0.0090445785
-0.011163097
-0.013511014
-0.016049774
-0.018712003
-0.021413479
-0.024047832
-0.026495969
-0.028629893
-0.030324966
-0.031470859
-0.031985878
-0.03182771
-0.031001277
-0.029559248
-0.027597447
-0.025241854
-0.022638273
-0.019927544
-0.017256196
-0.014719814
-0.012462534
-0.010474285
-0.0089968284
-0.0077730178
0.0021051102
-0.00079180629
0.00061668889
-0.00012015812
4.7100544e-05
-0.00033629444
-0.00069697969
-0.0012560292
-0.0019682833
-0.0028363935
-0.0039539245
-0.0052761015
-0.006823977
-0.0086330036
-0.010714585
-0.013049233
-0.015608843
-0.018335427
-0.021152738
-0.023959641
-0.026639365
-0.029061743
-0.031094379
-0.03261247
-0.033513318
-0.033728675
-0.033235517
-0.032060657
-0.030278883
-0.028005189
-0.025379531
-0.022555225
-0.019674721
-0.016880627
-0.014262058
-0.011953582
-0.0099375926
-0.0084450563
-0.0072152356
0.0021365054
-0.00081308132
0.00065227922
-0.00010252331
0.00010486496
-0.00026323518
-0.00058439051
-0.00111619
-0.0018015263
-0.0026536225
-0.0036899341
-0.0049778838
-0.0064994435
-0.008249704
-0.010282957
-0.012589779
-0.015150962
-0.017919219
-0.020827928
-0.02378284
-0.026671349
-0.029363388
-0.031721759
-0.033610549
-0.034909102
-0.035525024
-0.035407284
-0.034554254
-0.033016091
-0.03088962
-0.028307668
-0.025421988
-0.022390887
-0.019356065
-0.016454256
-0.013766937
-0.011418311
-0.0093833083
-0.0078818475
-0.0066505602
-0.00082390055
0.0021365054
0.00067545159
-8.9461717e-05
0.00015134085
-0.00020251911
-0.00048816047
-0.00098573761
-0.0016359819
-0.0024620934
-0.0034837624
-0.0046870334
-0.006174769
-0.0079015846
-0.0098781185
-0.012143141
-0.01468855
-0.017476573
-0.020451712
-0.023528652
-0.026600814
-0.029540324
-0.032207762
-0.034459255
-0.036159551
-0.037194774
-0.037486944
-0.03700492
-0.035770724
-0.03385846
-0.031386449
-0.028503429
-0.025370518
-0.022148356
-0.018975614
-0.015981396
-0.013238588
-0.010860457
-0.0088146831
-0.0073100235
-0.0060814401
0.00068627264
-0.00082390053
0.0021051102
-8.1551845e-05
0.00018647055
-0.00015403457
-0.00040851694
-0.00087422158
-0.0014809594
-0.0022710872
-0.0032599557
-0.0044542115
-0.0058564511
-0.0075504127
-0.0095086466
-0.011720714
-0.014233479
-0.017021078
-0.020038032
-0.023209999
-0.026438672
-0.029600495
-0.032556171
-0.035156687
-0.037255493
-0.038720425
-0.039448686
-0.039379795
-0.038505501
-0.036872802
-0.034580096
-0.031765766
-0.028592276
-0.025227373
-0.021831365
-0.018537754
-0.015466471
-0.012681103
-0.010283612
-0.0082347785
-0.0067322035
-0.0055101131
-7.8271188e-05
0.0006862727
-0.00081308123
0.0020429245
0.00020903372
-0.00011795245
-0.00034497301
-0.00078183253
-0.0013485135
-0.0020919231
-0.0030384831
-0.0041937153
-0.0055954639
-0.007204362
-0.0091327326
-0.011332867
-0.01379876
-0.01656598
-0.019601537
-0.02284138
-0.026197814
-0.029554161
-0.03277358
-0.035704478
-0.038192029
-0.04008912
-0.041271016
-0.041649322
-0.041184672
-0.039893797
-0.037849814
-0.035174814
-0.032025427
-0.02857521
-0.024995679
-0.021444189
-0.01804712
-0.01491395
-0.012098482
-0.0096912082
-0.00764646
-0.006150795
-0.0049386169
0.00021933641
-7.8271153e-05
0.0006754517
-0.00079180618
0.0019514349
-9.5812689e-05
-0.00029749242
-0.00070811077
-0.0012389453
-0.0019387473
-0.0028304349
-0.0039405067
-0.0052940402
-0.0069151665
-0.0087599321
-0.010934126
-0.013396837
-0.016125919
-0.019156801
-0.022438335
-0.025893014
-0.02941385
-0.032869201
-0.036107427
-0.03896818
-0.041292542
-0.042937095
-0.043787934
-0.043775128
-0.042883239
-0.041155868
-0.038692633
-0.035638053
-0.03216472
-0.028454361
-0.024679331
-0.020991536
-0.017508519
-0.014328279
-0.011494595
-0.009086487
-0.007052381
-0.0055679983
-0.0043687904
-8.6974138e-05
0.00021933646
-8.1551701e-05
0.00065227944
-0.00076110205
0.0018333544
-0.00026770955
-0.00065306217
-0.0011516394
-0.0018119965
-0.002652542
-0.0037024845
-0.0050032841
-0.0065696879
-0.0084405258
-0.010536012
-0.012978697
-0.01571555
-0.018720121
-0.022016654
-0.025540457
-0.029194281
-0.032854797
-0.03637327
-0.039586497
-0.042326646
-0.044434806
-0.045774598
-0.046247274
-0.045804753
-0.044458184
-0.042279296
-0.039393825
-0.035966891
-0.032184328
-0.028232898
-0.024282884
-0.020478445
-0.016926839
-0.013713839
-0.010873153
-0.0084724845
-0.0064549808
-0.0049858112
-0.0038022863
-0.00025489761
-8.6974051e-05
0.00020903392
-8.9461508e-05
0.00061668917
-0.00072197245
0.0016923047
-0.00061856288
-0.001086538
-0.0017110148
-0.0025054615
-0.0034985013
-0.0047301571
-0.0062374845
-0.0080449785
-0.010184966
-0.012557777
-0.0152823
-0.018308573
-0.021594217
-0.025156968
-0.028911974
-0.032744631
-0.036512558
-0.040052766
-0.043191255
-0.045756593
-0.047593058
-0.048575763
-0.048624869
-0.047717561
-0.045893542
-0.043253399
-0.039947756
-0.036160054
-0.032086252
-0.027914908
-0.023811435
-0.019910191
-0.016306995
-0.013074891
-0.010237664
-0.0078520091
-0.0058564965
-0.0044060545
-0.0032405611
-0.00060376712
-0.00025489751
-9.5812485e-05
0.00018647085
-0.00010252299
0.00056986616
-0.00067624459
0.0015327278
-0.001045697
-0.0016357641
-0.0023884088
-0.0033297321
-0.0044959621
-0.005925599
-0.0076653834
-0.0097339101
-0.012173394
-0.014842058
-0.017866158
-0.021190622
-0.024761889
-0.028584513
-0.032555147
-0.036538626
-0.040375834
-0.043889722
-0.046899082
-0.049231844
-0.050739939
-0.051313927
-0.050896886
-0.049493932
-0.047175064
-0.04406936
-0.040350659
-0.036217869
-0.031873708
-0.027505275
-0.023270508
-0.019292201
-0.015653849
-0.012415515
-0.0095914079
-0.007227681
-0.0052590057
-0.0038303311
-0.0026848856
-0.0010281043
-0.00060376706
-0.00026770934
-0.00011795207
0.00015134131
-0.00012015773
0.00051257367
-0.0006262393
0.0013596723
-0.0015885167
-0.0023012868
-0.0031954381
-0.0043022052
-0.0056579806
-0.0073094506
-0.0093020825
-0.011660361
-0.014423202
-0.017411399
-0.020746457
-0.024377439
-0.028232483
-0.032304327
-0.036467355
-0.040567571
-0.04442866
-0.047862694
-0.050683921
-0.052724055
-0.05384671
-0.053962285
-0.053040156
-0.051115799
-0.048290359
-0.044720389
-0.040600631
-0.036142185
-0.031550996
-0.027009554
-0.022665959
-0.018629957
-0.014972122
-0.011739564
-0.0089374986
-0.006601991
-0.004664319
-0.0032599259
-0.002136456
-0.001568099
-0.0010281042
-0.0006185626
-0.00029749201
-0.00015403407
0.00010486552
-0.00014280116
0.00044561571
-0.00057462567
0.0011792861
-0.0022465262
-0.0030955376
-0.0041481092
-0.005436499
-0.007003955
-0.0088976283
-0.011170015
-0.013841962
-0.01695708
-0.020283423
-0.023940885
-0.027880718
-0.032013683
-0.036316652
-0.040642719
-0.044817895
-0.048651261
-0.051946298
-0.05451698
-0.056202913
-0.056883938
-0.056494278
-0.055032674
-0.052566913
-0.049229133
-0.045201781
-0.040697592
-0.035936257
-0.031123385
-0.026433863
-0.022003847
-0.017928862
-0.014266331
-0.011050777
-0.0082789694
-0.005977061
-0.0040737321
-0.002696103
-0.001596457
-0.0022227451
-0.0015680988
-0.0010456967
-0.00065306175
-0.00034497248
-0.00020251844
4.7101263e-05
-0.00017132832
0.00036988682
-0.00052333067
0.00099970018
-0.0030326591
-0.0040335786
-0.0052603939
-0.0067510894
-0.0085502759
-0.010711285
-0.013287327
-0.016300967
-0.019793367
-0.023477503
-0.027463162
-0.031710597
-0.036108509
-0.040618534
-0.045070379
-0.049271936
-0.053019459
-0.056111874
-0.058366871
-0.059636816
-0.059821947
-0.058884128
-0.056854098
-0.05383308
-0.049983328
-0.045510926
-0.040643198
-0.035604638
-0.030596991
-0.025784725
-0.021290247
-0.017194157
-0.013540957
-0.010352885
-0.0076183354
-0.0053541448
-0.0034887056
-0.0021410263
-0.001065266
-0.0030052228
-0.0022227449
-0.0015885165
-0.0010865375
-0.00070811013
-0.00040851621
-0.0002632344
-2.209735e-05
-0.00020672084
0.00028839745
-0.00047341314
0.00082834971
-0.0039613924
-0.0051295921
-0.0065500949
-0.0082626035
-0.010317181
-0.012768981
-0.015675419
-0.019056069
-0.022951974
-0.027009279
-0.031325682
-0.035872657
-0.040516914
-0.045202032
-0.049735164
-0.05390724
-0.0575053
-0.06032755
-0.062200302
-0.062993285
-0.062631374
-0.061107295
-0.05848609
-0.054902407
-0.0505472
-0.045647263
-0.040440761
-0.03515307
-0.029978585
-0.025068811
-0.020531158
-0.016431186
-0.012800581
-0.0096488815
-0.0069568076
-0.0047351024
-0.0029128865
-0.0015958069
-0.00051624288
-0.0039297292
-0.0030052227
-0.0022465259
-0.0016357636
-0.0011516387
-0.00078183174
-0.00048815961
-0.0003362935
-0.0001024701
-0.00024628704
0.00020747883
-0.00043187911
0.00064775313
-0.0050470285
-0.0064009144
-0.0080339532
-0.0099906287
-0.012323356
-0.015091552
-0.018353347
-0.022127298
-0.026449513
-0.030893189
-0.035536266
-0.040369628
-0.045233948
-0.050054742
-0.054616803
-0.05869712
-0.062077039
-0.064558876
-0.065982514
-0.06623962
-0.065283659
-0.063141077
-0.059912542
-0.055765456
-0.050917329
-0.045612252
-0.04009516
-0.034588255
-0.029275276
-0.024292852
-0.019732876
-0.015645551
-0.012048768
-0.0089398872
-0.0062967928
-0.0041262834
-0.0023477519
-0.0010260842
5.788709e-05
-0.005010624
-0.0039297291
-0.0030326588
-0.0023012863
-0.0017110142
-0.0012389445
-0.00087422057
-0.00058438946
-0.00042126526
-0.00018956961
-0.00028378249
0.00012991224
-0.00040389369
0.0004602018
-0.0063066159
-0.0078643309
-0.0097310701
-0.011953839
-0.014589124
-0.017698119
-0.021340821
-0.025532027
-0.03030136
-0.035139048
-0.040100222
-0.045199479
-0.050250103
-0.055158944
-0.059690406
-0.063610565
-0.066699739
-0.06876926
-0.069678044
-0.069343553
-0.067751666
-0.064964944
-0.061119845
-0.056415321
-0.051092658
-0.045409321
-0.039612587
-0.033917462
-0.028494418
-0.023464153
-0.01890217
-0.014841474
-0.011286494
-0.0082290678
-0.0056479634
-0.003529479
-0.001744786
-0.00043428792
0.00064320929
-0.0062648273
-0.0050106238
-0.003961392
-0.0030955371
-0.0023884081
-0.0018119956
-0.0013485125
-0.00098573645
-0.00069697852
-0.00051146164
-0.00028016086
-0.00032689888
4.8085872e-05
-0.00037619606
0.00027732281
-0.0077569524
-0.0095386063
-0.011660064
-0.014172128
-0.017133615
-0.020608109
-0.024655507
-0.029285717
-0.034517982
-0.039754606
-0.04501822
-0.050355568
-0.055550424
-0.060491986
-0.064926313
-0.068612753
-0.071335626
-0.072920773
-0.073251084
-0.07227371
-0.070010262
-0.066560775
-0.062097046
-0.056847747
-0.051074493
-0.045043592
-0.039000069
-0.033148459
-0.027644325
-0.022590779
-0.018043979
-0.014019636
-0.010517881
-0.0075304739
-0.0050124736
-0.0028687945
-0.001128914
0.00017310413
0.0012383404
-0.0077091433
-0.0062648272
-0.0050470282
-0.0040335781
-0.0031954373
-0.0025054605
-0.0019387462
-0.0014809582
-0.0011161887
-0.00081715761
-0.00060048407
-0.0003739795
-0.00039476849
-4.316617e-05
-0.000338138
0.00010556697
-0.0094165943
-0.011442281
-0.013840483
-0.016664564
-0.019976019
-0.023839356
-0.028312788
-0.033400352
-0.039108142
-0.044743152
-0.050286281
-0.055825757
-0.061114794
-0.066026133
-0.070290465
-0.073665388
-0.075944735
-0.076974571
-0.076666245
-0.075000343
-0.072036671
-0.067913119
-0.062836056
-0.057061219
-0.050866222
-0.044521308
-0.038265454
-0.03229049
-0.026734445
-0.021678399
-0.01715857
-0.013185224
-0.0097623726
-0.0068466859
-0.0042798778
-0.0022049901
-0.00049119732
0.0007911419
0.0018433095
-0.0093620287
-0.0077091433
-0.0063066155
-0.0051295915
-0.0041481084
-0.0033297311
-0.0026525408
-0.0020919217
-0.0016359805
-0.0012560277
-0.00093869184
-0.00070723908
-0.00048362877
-0.00046784311
-0.00014977208
-0.00030516978
-4.744541e-05
-0.011304021
-0.013594656
-0.016291294
-0.019450109
-0.023134204
-0.027407692
-0.032326345
-0.037886519
-0.044076458
-0.050103282
-0.055894905
-0.061592567
-0.066917841
-0.071728735
-0.075744688
-0.078727335
-0.08048562
-0.080891756
-0.079889098
-0.077495821
-0.073810642
-0.069009517
-0.063331852
-0.057056656
-0.05047264
-0.043849919
-0.037418725
-0.031354411
-0.025771131
-0.020726696
-0.016252481
-0.012364776
-0.0090230019
-0.006020973
-0.003557242
-0.0015116848
0.00015775768
0.0014211674
0.0024573391
-0.011241942
-0.0093620286
-0.007756952
-0.0064009138
-0.0052603932
-0.0043022042
-0.0034984999
-0.0028304334
-0.0022710856
-0.0018015246
-0.0013953426
-0.0010665176
-0.00084998856
-0.0005989034
-0.00054251332
-0.00026595428
-0.00028678705
-0.00017496685
-0.013438368
-0.016014586
-0.019031254
-0.022546559
-0.026624314
-0.031327258
-0.036707742
-0.0427505
-0.049422838
-0.05582813
-0.061829055
-0.067633274
-0.072928893
-0.077562406
-0.081247375
-0.083755158
-0.084916127
-0.084634035
-0.08288759
-0.079734981
-0.075314907
-0.069840815
-0.063582139
-0.056836631
-0.049900167
-0.043039837
-0.036472092
-0.030347122
-0.024753189
-0.019743861
-0.01536065
-0.011561689
-0.0080860248
-0.0052199162
-0.002794495
-0.00080727723
0.00082039312
0.0020613414
0.0030800087
-0.013367946
-0.011241942
-0.0094165939
-0.0078643303
-0.006550094
-0.0054364979
-0.0044959607
-0.003702483
-0.0030384814
-0.0024620916
-0.0019682813
-0.001538565
-0.0012284409
-0.00098834105
-0.00072662805
-0.00062840057
-0.00038577909
-0.00028694848
-0.00027313449
-0.01583841
-0.018720658
-0.022078049
-0.025970203
-0.03046076
-0.035610045
-0.041464314
-0.047994385
-0.05514206
-0.061905174
-0.068068587
-0.073919674
-0.079111868
-0.08348589
-0.086753802
-0.088703918
-0.089194376
-0.088164151
-0.085631759
-0.081695528
-0.076535682
-0.070400808
-0.063586437
-0.056405775
-0.049159205
-0.042104463
-0.035432719
-0.029266101
-0.023690808
-0.018774854
-0.014487154
-0.01049119
-0.007190651
-0.0043656921
-0.0020218624
-8.8147521e-05
0.0014938728
0.002711384
0.0037106571
-0.015758775
-0.013367946
-0.011304021
-0.0095386056
-0.0080339522
-0.0067510882
-0.0056579793
-0.0047301555
-0.0039405048
-0.0032599536
-0.0026536204
-0.0021322514
-0.0017266792
-0.0013937295
-0.0011298987
-0.00087041871
-0.00072780403
-0.00050744855
-0.00030729076
-0.00034158769
-0.018522617
-0.021730455
-0.025447981
-0.029735588
-0.034655778
-0.04026442
-0.04659981
-0.053615762
-0.06122332
-0.068317154
-0.074587941
-0.080417271
-0.085426671
-0.08945402
-0.092216885
-0.093528085
-0.093278787
-0.091447467
-0.088094169
-0.083358804
-0.077462307
-0.070685136
-0.063346726
-0.055773913
-0.048264055
-0.041050759
-0.034296093
-0.028123891
-0.022640956
-0.017824772
-0.01326029
-0.0094815261
-0.0062259774
-0.0035033496
-0.0012333311
0.00064213437
0.0021781441
0.0033701555
0.0043486866
-0.018432849
-0.015758774
-0.013438367
-0.011442281
-0.0097310691
-0.0082626022
-0.0070039534
-0.0059255972
-0.0050032821
-0.0041937131
-0.0034837601
-0.0028363907
-0.0023437993
-0.0019189552
-0.0015665547
-0.0012895388
-0.0010274672
-0.00084099742
-0.0006300396
-0.00034754882
-0.00038346888
-0.021508486
-0.02506023
-0.029155644
-0.033855113
-0.039218451
-0.045295317
-0.0521139
-0.059606514
-0.067651698
-0.075041808
-0.081353789
-0.087087921
-0.091828624
-0.095418257
-0.097588247
-0.098182502
-0.097128998
-0.094451357
-0.090250673
-0.084709353
-0.078085839
-0.07069223
-0.062871596
-0.054955836
-0.047220782
-0.039871269
-0.033077473
-0.02699192
-0.021610141
-0.016415688
-0.012115664
-0.0083832118
-0.0052557392
-0.0026251772
-0.00043328277
0.0013834915
0.0028716594
0.0040368412
0.00499345
-0.021407636
-0.018432849
-0.01583841
-0.013594655
-0.011660063
-0.0099906273
-0.0085502741
-0.0073094487
-0.0062374825
-0.0052940379
-0.0044542089
-0.0036899311
-0.0030743268
-0.0025614475
-0.0021163325
-0.0017608388
-0.0014671826
-0.0011964207
-0.0009676841
-0.00075284898
-0.00040556114
-0.00040478261
-0.024812222
-0.028724558
-0.03321349
-0.038338267
-0.044154537
-0.050703869
-0.058000818
-0.065954633
-0.07440864
-0.082046872
-0.088330326
-0.093888543
-0.098268409
-0.10132808
-0.10281923
-0.1026227
-0.10070853
-0.097146153
-0.092080537
-0.08573304
-0.078400311
-0.070428754
-0.062175827
-0.053955741
-0.046017665
-0.038584328
-0.031865784
-0.025878572
-0.019990637
-0.015112941
-0.010859221
-0.0072830805
-0.0042700067
-0.0017358541
0.0003776009
0.0021341661
0.0035734375
0.0047103852
0.0056443796
-0.024699316
-0.021407636
-0.018522616
-0.016014585
-0.013840482
-0.011953838
-0.01031718
-0.0088976263
-0.007665381
-0.0065696853
-0.005595461
-0.0046870302
-0.0039539208
-0.0033193598
-0.0027847453
-0.0023373665
-0.0019748731
-0.001661473
-0.0013765577
-0.001107065
-0.00087545797
-0.00047763426
-0.00041310467
-0.028448362
-0.03273588
-0.037631204
-0.043191328
-0.049466161
-0.056486315
-0.064250682
-0.072649118
-0.081461831
-0.089300301
-0.095476859
-0.10076981
-0.10469403
-0.10713207
-0.10786156
-0.10680543
-0.10398504
-0.09950681
-0.093564167
-0.086418639
-0.078409812
-0.06990898
-0.061260479
-0.052755844
-0.04467646
-0.037300074
-0.030671793
-0.024017614
-0.018504513
-0.013670743
-0.0096060068
-0.0061682763
-0.0032738487
-0.00083600401
0.0011978103
0.0028929551
0.0042820955
0.0053903521
0.0063006561
-0.028322399
-0.024699316
-0.021508485
-0.018720657
-0.016291293
-0.014172126
-0.012323354
-0.010711283
-0.00930208
-0.0080449758
-0.0069151634
-0.0058564477
-0.0049778797
-0.0042251862
-0.0035686367
-0.0030346359
-0.0025808374
-0.0022063373
-0.0018707995
-0.0015664756
-0.0012576173
-0.00099774402
-0.00055921945
-0.00041597242
-0.032429313
-0.037103953
-0.042415365
-0.048417053
-0.055150968
-0.062634828
-0.070852998
-0.079661462
-0.088782347
-0.096765317
-0.10274421
-0.10767892
-0.1110523
-0.11277841
-0.11266846
-0.11069182
-0.10692743
-0.10150953
-0.094684766
-0.086767109
-0.078127666
-0.069129333
-0.06009931
-0.05138167
-0.043333048
-0.036032223
-0.028535599
-0.022320776
-0.016845977
-0.012238451
-0.008339374
-0.0050442773
-0.0022677651
7.2744829e-05
0.0020254803
0.0036582085
0.004997612
0.0060754962
0.0069615577
-0.032289284
-0.028322399
-0.024812222
-0.021730454
-0.019031252
-0.016664563
-0.014589122
-0.012768978
-0.011170012
-0.0097339071
-0.0084405223
-0.0072043581
-0.0061747646
-0.0052760965
-0.0044998635
-0.0038466776
-0.0033090647
-0.0028441627
-0.0024532433
-0.002092908
-0.0017642378
-0.001417218
-0.0011197681
-0.00064571857
-0.0004194395
-0.036764848
-0.041835491
-0.047569072
-0.054014002
-0.06120264
-0.069139142
-0.077784094
-0.086960212
-0.096339056
-0.10439391
-0.11007828
-0.1145624
-0.11728873
-0.11821612
-0.11719425
-0.11424686
-0.10950321
-0.10313091
-0.095440239
-0.086790792
-0.077544
-0.068051982
-0.058721997
-0.050000405
-0.042004691
-0.033584534
-0.026598633
-0.020412049
-0.015205985
-0.010794511
-0.0070652882
-0.0039113545
-0.0012534854
0.00098809723
0.0028590897
0.00443077
0.0057176799
0.006765025
0.007626354
-0.036609748
-0.032289283
-0.028448361
-0.025060229
-0.022078048
-0.019450107
-0.017133613
-0.015091549
-0.013287324
-0.011660357
-0.010184962
-0.0087599278
-0.0075504079
-0.0064994381
-0.0055760682
-0.004805673
-0.004151052
-0.0036046108
-0.0031248631
-0.0027133203
-0.0023253895
-0.0019677283
-0.0015833018
-0.0012416075
-0.00073317496
-0.00042679998
-0.041461724
-0.046933768
-0.053091456
-0.059976807
-0.067611294
-0.075979912
-0.0850139
-0.094526439
-0.10408773
-0.11213052
-0.11742662
-0.12136426
-0.12334859
-0.12339703
-0.12139916
-0.11743646
-0.11168191
-0.10436363
-0.095842643
-0.086472034
-0.076605768
-0.066710745
-0.057334213
-0.048633297
-0.039207231
-0.031376464
-0.024402401
-0.018532873
-0.013556645
-0.0093454589
-0.0057836837
-0.0027712665
-0.00023366746
0.0019083907
0.0037009395
0.0052072797
0.0064413878
0.0074577691
0.0082943475
-0.041290566
-0.036609748
-0.032429313
-0.028724557
-0.02544798
-0.022546557
-0.019976017
-0.017698116
-0.015675415
-0.013841959
-0.01217339
-0.010536007
-0.0091327272
-0.0079015786
-0.0068239704
-0.0059089402
-0.0051392341
-0.0044776867
-0.0039181058
-0.0034197214
-0.0029836634
-0.0025655743
-0.0021747428
-0.0017530578
-0.0013631592
-0.00081825079
-0.00043974069
-0.046523288