/*--------------------------------*- C++ -*----------------------------------*\
| =========                 |                                                 |
| \\      /  F ield         | OpenFOAM: The Open Source CFD Toolbox           |
|  \\    /   O peration     | Version:  5.0                                   |
|   \\  /    A nd           | Web:      www.OpenFOAM.org                      |
|    \\/     M anipulation  |                                                 |
\*---------------------------------------------------------------------------*/
FoamFile
{
    version     2.0;
    format      ascii;
    class       surfaceScalarField;
    location    "270";
    object      phi;
}
// * * * * * * * * * * * * * * * * * * * * * * * * * * * * * * * * * * * * * //

dimensions      [0 3 -1 0 0 0 0];

internalField   nonuniform List<scalar> 
18180
(
0.0013162614
-1.3977287
0.0025474327
-1.3074003
0.0012757341
-1.3990044
0.0036922572
-1.223246
0.0024638223
-1.3085883
0.0012324135
-1.4002368
0.004757868
-1.1446816
0.0035740592
-1.2243562
0.0023835101
-1.3097394
0.0011932361
-1.4014301
0.0057434018
-1.0713129
0.0046080513
-1.1457156
0.0034607463
-1.2254334
0.0023093051
-1.3108555
0.001152933
-1.402583
0.0066532582
-1.0027231
0.0055676172
-1.0722724
0.0044653967
-1.1467202
0.0033572396
-1.2264814
0.0022344927
-1.3119371
0.0011121952
-1.4036952
0.007488103
-0.93856776
0.0064551028
-1.0036106
0.0054007278
-1.0732077
0.0043388577
-1.1477019
0.003253273
-1.2275001
0.00215878
-1.3129837
0.0010690872
-1.4047643
0.0082507281
-0.87852708
0.0072719483
-0.9393846
0.0062681507
-1.004478
0.005257318
-1.0741262
0.0042120579
-1.1486606
0.0031489305
-1.2284903
0.0020789786
-1.3139935
0.0010232108
-1.4057875
0.0089433442
-0.82231712
0.0080200448
-0.87927517
0.0070693164
-0.94018577
0.0061139932
-1.0053347
0.005114078
-1.0750282
0.0040866108
-1.1495983
0.0030390993
-1.2294504
0.0019938243
-1.3149642
0.00097392939
-1.4067614
0.0095690777
-0.76967608
0.0087013316
-0.82299841
0.0078055935
-0.88001145
0.0069101095
-0.94098189
0.0059605149
-1.0061811
0.004975051
-1.0759167
0.0039544619
-1.1505137
0.0029218786
-1.2303785
0.0019020818
-1.3158923
0.00092049823
-1.4076819
0.01013165
-0.72036947
0.0093181114
-0.77029286
0.0084787114
-0.82367153
0.00764659
-0.88074793
0.0067521807
-0.94177355
0.0058154461
-1.0070215
0.0048283398
-1.0767905
0.0038136607
-1.1514055
0.0027946643
-1.2312711
0.0018024012
-1.3167742
0.00086275752
-1.4085447
0.010636047
-0.67417749
0.0098730297
-0.72092439
0.0090907029
-0.77090486
0.0083245656
-0.8243495
0.0074894358
-0.88148518
0.0066081483
-0.94256625
0.0056618804
-1.007855
0.0046726601
-1.0776495
0.0036602571
-1.1522711
0.0026560228
-1.2321247
0.001694325
-1.3176058
0.00080062233
-1.4093453
0.011089265
-0.63089515
0.010369419
-0.67467388
0.0096441393
-0.72147783
0.0089454184
-0.77152571
0.0081727648
-0.82503283
0.0073529278
-0.88222996
0.006454893
-0.94335927
0.0054999456
-1.0086823
0.004502018
-1.0784913
0.0034922303
-1.1531073
0.0025054807
-1.2329358
0.0015775681
-1.3183827
0.00073425611
-1.4100796
0.011501506
-0.59032184
0.010812049
-0.63133778
0.010142413
-0.67517215
0.0095109745
-0.72204338
0.0088028749
-0.77215582
0.0080495447
-0.82572945
0.0072064016
-0.88298147
0.0062949394
-0.94415426
0.005320888
-1.0095012
0.004313845
-1.0793129
0.0033082831
-1.1539101
0.0023419346
-1.2337002
0.001452396
-1.3191009
0.00066397078
-1.4107435
0.011887267
-0.55224974
0.01120872
-0.59071851
0.01059034
-0.63178571
0.010023702
-0.67568488
0.00938096
-0.72262147
0.0086979076
-0.77280418
0.0079153917
-0.82643844
0.0070561983
-0.88374273
0.0061159116
-0.94494928
0.0051224406
-1.0103098
0.0041065596
-1.0801112
0.0031071369
-1.1546753
0.0021658045
-1.2344136
0.0013193223
-1.3197562
0.00059022687
-1.4113338
0.012265902
-0.51645358
0.011572572
-0.55261359
0.010995356
-0.59112352
0.01048721
-0.63224921
0.0099088816
-0.6762128
0.0092983362
-0.7232219
0.0085808919
-0.77346968
0.0077818346
-0.82716408
0.0068850429
-0.88451186
0.0059165785
-0.94574342
0.0049015245
-1.0111048
0.0038778013
-1.0808819
0.0028896228
-1.1553991
0.0019776079
-1.2350719
0.001179179
-1.3203452
0.00051360054
-1.4118474
0.012659585
-0.48268212
0.011923891
-0.5168049
0.01136922
-0.55298746
0.010907377
-0.59154369
0.010389634
-0.63272997
0.0098517006
-0.67676616
0.0092023377
-0.72384334
0.0084699346
-0.77415778
0.0076255365
-0.82790457
0.0066935789
-0.88528886
0.0056914942
-0.94653339
0.0046554231
-1.0118824
0.0036286052
-1.0816208
0.0026553195
-1.1560768
0.0017785118
-1.2356712
0.0010330139
-1.3208646
0.00043475945
-1.4122821
0.013089365
-0.45065976
0.012289988
-0.48304821
0.0117294
-0.51716508
0.011294212
-0.55337429
0.010828307
-0.59198236
0.010359811
-0.63323808
0.0097797467
-0.67734357
0.0091189207
-0.72449233
0.008334541
-0.77486679
0.0074499179
-0.82866091
0.0064733452
-0.88607071
0.005438178
-0.94731615
0.0043847273
-1.0126385
0.0033577843
-1.0823233
0.0024062928
-1.1567046
0.0015698572
-1.2362081
0.0008820705
-1.3213119
0.0003544203
-1.4126365
0.013569825
-0.42010985
0.012702077
-0.45107185
0.01209892
-0.48341773
0.011663785
-0.51753465
0.011233695
-0.55377968
0.010826268
-0.59244882
0.0103141
-0.63377243
0.0097277378
-0.67795239
0.0090094806
-0.72516727
0.0081818128
-0.77559868
0.0072428043
-0.82943037
0.0062225102
-0.88685505
0.0051560574
-0.94808748
0.00408769
-1.0133684
0.0030680607
-1.0829851
0.0021434278
-1.1572782
0.0013534276
-1.2366794
0.00072770957
-1.3216852
0.00027332835
-1.4129099
0.014103482
-0.39078675
0.013188304
-0.42059608
0.012504011
-0.45147694
0.012038875
-0.48379283
0.011620065
-0.51792102
0.011258054
-0.55421147
0.010808097
-0.59294282
0.010296193
-0.63434089
0.0096483019
-0.67859121
0.0088856359
-0.72587109
0.0079952011
-0.77635108
0.0070034802
-0.83021134
0.0059388097
-0.8876378
0.0048431649
-0.94884295
0.0037671646
-1.0140675
0.0027596782
-1.0836013
0.0018694597
-1.1577942
0.0011311328
-1.2370828
0.00057138057
-1.3219832
0.00019228563
-1.4131022
0.014677789
-0.36251003
0.013765326
-0.39136377
0.012968189
-0.42106026
0.012447282
-0.45188535
0.012007949
-0.48418071
0.011667547
-0.51833051
0.011267568
-0.55467094
0.010825615
-0.59347224
0.010249807
-0.63494239
0.0095582327
-0.67926381
0.0087259018
-0.72660179
0.0077755928
-0.77712319
0.0067275135
-0.83100004
0.0056202689
-0.8884149
0.004501897
-0.94957768
0.0034229299
-1.0147308
0.0024363237
-1.0841682
0.0015861785
-1.1582492
0.00090513116
-1.2374166
0.00041461353
-1.3222056
0.00011219013
-1.4132143
0.015265842
-0.33518881
0.014431495
-0.36317619
0.013505127
-0.39190071
0.012916045
-0.42152902
0.012423022
-0.45230042
0.012073849
-0.48458701
0.011703369
-0.51876631
0.011320181
-0.5551655
0.010814249
-0.59403668
0.010197227
-0.63558138
0.0094307047
-0.67996861
0.0085332452
-0.72735944
0.0075159578
-0.77791164
0.0064131236
-0.8317929
0.0052683893
-0.8891814
0.0041317427
-0.9502865
0.0030590883
-1.0153535
0.0020994928
-1.0846815
0.0012966634
-1.1586408
0.0006776715
-1.2376797
0.00025898445
-1.3223524
3.4093844e-05
-1.4132484
0.015830584
-0.30882633
0.015164294
-0.33592161
0.01411275
-0.36378382
0.013463618
-0.39244829
0.012891235
-0.42199723
0.012502269
-0.45272884
0.01213285
-0.48501649
0.011788842
-0.51923497
0.011344516
-0.55569577
0.01080157
-0.59464103
0.010106144
-0.63625682
0.0092711587
-0.68070652
0.0082976637
-0.72814115
0.0072149299
-0.77871344
0.0060605546
-0.83258506
0.0048824408
-0.88993209
0.003736757
-0.95096417
0.0026769571
-1.015931
0.0017532461
-1.0851381
0.0010035288
-1.1589666
0.00045079887
-1.2378715
0.00010640696
-1.3224247
-3.9973577e-05
-1.4132085
0.016331092
-0.28350448
0.015922909
-0.30958494
0.014770973
-0.33657983
0.014092751
-0.36441295
0.013431649
-0.3929887
0.012979905
-0.42247487
0.012579787
-0.45317578
0.012247105
-0.48547476
0.011847955
-0.51973841
0.011372621
-0.55626682
0.010750008
-0.59528489
0.0099847229
-0.63697039
0.0090663498
-0.68147521
0.0080184258
-0.72894465
0.0068711755
-0.77952406
0.0056688917
-0.83337151
0.0044660752
-0.89066141
0.003318139
-0.95160535
0.0022811511
-1.0164589
0.001400031
-1.0855346
0.00070977885
-1.1592256
0.00022712646
-1.2379922
-4.170511e-05
-1.3224229
-0.00011425833
-1.4130942
0.016729119
-0.25935556
0.016654831
-0.2842364
0.015443963
-0.31025793
0.014786912
-0.33727399
0.014049253
-0.36503056
0.013528352
-0.39353715
0.013070664
-0.42296575
0.012717474
-0.45364615
0.012338297
-0.4859651
0.011915922
-0.52028171
0.011362306
-0.55687912
0.010670465
-0.59597063
0.0098163342
-0.63772037
0.0088164055
-0.68227319
0.007692355
-0.72976583
0.0064836379
-0.78033881
0.0052410868
-0.83414652
0.0040203443
-0.89136362
0.0028807226
-0.95220492
0.0018741998
-1.0169331
0.0010438215
-1.0858686
0.00041791442
-1.1594164
7.9609911e-06
-1.2380419
-0.00018614593
-1.3223511
-0.00018553843
-1.4129087
0.016994424
-0.23652844
0.017304259
-0.26000499
0.016086096
-0.28487854
0.015511582
-0.3109826
0.014730638
-0.33795538
0.014155844
-0.36565805
0.013627884
-0.39409437
0.013226332
-0.42347461
0.012836486
-0.45414434
0.012443273
-0.48649245
0.011946939
-0.52086635
0.011326941
-0.55753559
0.010542966
-0.59669726
0.0096021247
-0.63850609
0.0085160823
-0.68309692
0.0073183095
-0.7306005
0.0060543036
-0.78115203
0.0047779773
-0.83490416
0.0035500263
-0.89203292
0.0024271621
-0.95275788
0.0014607355
-1.01735
0.0006873787
-1.0861381
0.00013048958
-1.1595389
-0.00020529766
-1.2380227
-0.00032491454
-1.3222117
-0.00025300664
-1.4126557
0.017108091
-0.21515741
0.017820191
-0.23704437
0.016649549
-0.26056844
0.016219856
-0.28558681
0.015444305
-0.31169627
0.014852021
-0.33865155
0.014261826
-0.36629199
0.013797484
-0.39466552
0.013368181
-0.4240063
0.012973941
-0.45467501
0.012513822
-0.48705933
0.011956312
-0.52149572
0.011243445
-0.55823607
0.010369758
-0.5974649
0.0093346585
-0.63932467
0.0081642227
-0.68394283
0.006897077
-0.73144327
0.0055837255
-0.78195777
0.004284037
-0.83563817
0.0030578348
-0.89266359
0.0019625315
-0.95325968
0.0010439265
-1.0177065
0.00033422907
-1.0863418
-0.00015037504
-1.1595938
-0.00041084848
-1.2379368
-0.00045719745
-1.3220075
-0.00031625855
-1.4123394
0.017063178
-0.19534141
0.01816285
-0.21550007
0.017091156
-0.23748598
0.016860589
-0.26120918
0.016145363
-0.28628787
0.015587461
-0.31243171
0.014964896
-0.33935462
0.014443959
-0.36693846
0.013957777
-0.39525511
0.013532799
-0.42456516
0.013080407
-0.45524159
0.012566512
-0.48766953
0.011918296
-0.52217057
0.011115134
-0.55898145
0.010141164
-0.5982714
0.0090128264
-0.64017327
0.0077602265
-0.68480598
0.0064288675
-0.73228841
0.005075835
-0.78274957
0.0037619244
-0.83634226
0.0025490821
-0.89325014
0.0014903908
-0.95370614
0.00062807396
-1.0180004
-1.2881853e-05
-1.0864793
-0.00042228293
-1.1595824
-0.00060725808
-1.2377867
-0.0005818568
-1.3217419
-0.00037498571
-1.4119644
0.016861095
-0.17712938
0.018308034
-0.19548659
0.017377578
-0.21578649
0.017385897
-0.23801129
0.016782752
-0.26184657
0.016318049
-0.28701846
0.015710073
-0.31317689
0.015161267
-0.34007193
0.014620154
-0.36760084
0.014144811
-0.39586713
0.013670445
-0.4251552
0.013173054
-0.45584814
0.012573514
-0.48832475
0.011837119
-0.52289255
0.010930147
-0.55977043
0.0098561787
-0.59911475
0.0086344954
-0.64104754
0.0073039151
-0.68568103
0.0059168489
-0.73312943
0.0045331067
-0.78352075
0.0032169851
-0.83701016
0.0020276382
-0.89378739
0.0010156699
-0.95409374
0.00021653069
-1.0182298
-0.00035086555
-1.0865507
-0.00068331711
-1.1595064
-0.00079314952
-1.2375754
-0.00069827972
-1.3214186
-0.00042906569
-1.4115353
0.01651349
-0.16053133
0.01825072
-0.17707207
0.017488854
-0.19559787
0.017757039
-0.21615763
0.017308156
-0.23853669
0.016992363
-0.26252088
0.016454573
-0.28776296
0.015924956
-0.31394058
0.015353347
-0.34080512
0.014826774
-0.36828281
0.014309017
-0.3965057
0.013798404
-0.42578055
0.013222606
-0.45649723
0.012539734
-0.48902736
0.011698901
-0.52366131
0.010687598
-0.56060185
0.0095110452
-0.5999913
0.0081990724
-0.6419427
0.0067974976
-0.68656168
0.005363181
-0.7339595
0.0039607047
-0.78426447
0.0026532742
-0.83763579
0.0014989173
-0.89427064
0.00054230729
-0.95441951
-0.00018688815
-1.0183938
-0.00067721611
-1.0865569
-0.00093160651
-1.1593679
-0.00096750194
-1.2373062
-0.00080593995
-1.3210417
-0.00047837252
-1.411057
0.014393558
-0.17054219
0.017994398
-0.16027501
0.017421052
-0.17700427
0.017946667
-0.1957875
0.01768239
-0.21653187
0.017560052
-0.23910438
0.017147287
-0.26321359
0.01669344
-0.28853144
0.016135242
-0.31472247
0.015579371
-0.34155772
0.015014387
-0.36898818
0.014467576
-0.39717487
0.013886536
-0.42644448
0.013234391
-0.45719188
0.012449528
-0.48977799
0.011502849
-0.52447656
0.010382076
-0.56147288
0.0091047404
-0.60089697
0.0077076414
-0.64285284
0.0062426971
-0.68744119
0.0047726326
-0.73477143
0.0033627203
-0.78497392
0.0020765323
-0.83821341
0.00096738581
-0.89469572
7.4824847e-05
-0.95468123
-0.0005790365
-1.0184919
-0.00098947202
-1.086499
-0.0011657045
-1.1591697
-0.0011294844
-1.2369826
-0.00090455006
-1.3206155
-0.000522901
-1.4105341
0.012557241
-0.16474864
0.016012927
-0.16856072
0.017176195
-0.16003015
0.017937266
-0.17699487
0.017879482
-0.19598459
0.017978534
-0.21695035
0.017736627
-0.23969372
0.01741494
-0.26393509
0.016925697
-0.28932189
0.016382921
-0.31552602
0.015789576
-0.34233291
0.015200169
-0.36972077
0.014589929
-0.39787826
0.013940386
-0.42715047
0.013191327
-0.45793368
0.01230214
-0.49057728
0.011241932
-0.52533641
0.010012118
-0.56238026
0.008637098
-0.60182643
0.0071613847
-0.64377153
0.0056436816
-0.68831224
0.0041491681
-0.73555788
0.0027450406
-0.78564243
0.0014916567
-0.83873768
0.00043821688
-0.89505911
-0.00038296786
-0.9548773
-0.00095677702
-1.0185246
-0.0012856632
-1.086379
-0.0013843819
-1.1589148
-0.0012785534
-1.2366086
-0.00099395624
-1.3201445
-0.0005626617
-1.4099714
0.010914561
-0.15895047
0.014269597
-0.16300531
0.015267386
-0.16665191
0.017731279
-0.15982416
0.017888065
-0.17700345
0.018217183
-0.19622324
0.018178187
-0.21739191
0.018036264
-0.24031504
0.017673164
-0.26468256
0.017198668
-0.29013764
0.016617245
-0.31635369
0.016001493
-0.34313423
0.015353386
-0.37048422
0.014681737
-0.39861961
0.013941783
-0.42790093
0.013092619
-0.45872416
0.012089006
-0.49142436
0.010914225
-0.52623852
0.0095762203
-0.56331938
0.0081086691
-0.60277371
0.0065636805
-0.64469153
0.0050041229
-0.6891672
0.003498625
-0.73631146
0.0021128641
-0.78626363
0.0009043807
-0.83920384
-8.4109062e-05
-0.89535797
-0.00082719792
-0.95500687
-0.0013175241
-1.0184928
-0.0015640641
-1.0861993
-0.0015867688
-1.1586066
-0.0014143669
-1.2361882
-0.0010741433
-1.319633
-0.00059774576
-1.4093737
0.0093829882
-0.15332263
0.012655554
-0.15733643
0.013591027
-0.16132895
0.01589644
-0.16481707
0.017707643
-0.15964374
0.018258588
-0.17704486
0.018439943
-0.19648499
0.018510636
-0.21786628
0.018323395
-0.24096528
0.017975038
-0.26545893
0.017460148
-0.29098054
0.016856555
-0.31720875
0.016184273
-0.34396512
0.015479845
-0.37128233
0.014724054
-0.39940189
0.013889829
-0.42869814
0.012928321
-0.45956348
0.011807728
-0.49231786
0.010516852
-0.52717915
0.0090742321
-0.56428495
0.0075218811
-0.60373191
0.0059177487
-0.64560515
0.0043296041
-0.68999817
0.0028263465
-0.73702494
0.0014723581
-0.78683161
0.00031981644
-0.83960777
-0.00059497624
-0.89559019
-0.0012545855
-0.95506981
-0.0016589494
-1.0183979
-0.0018233769
-1.0859627
-0.0017722524
-1.1582487
-0.0015367999
-1.2357256
-0.0011452147
-1.3190855
-0.00062826988
-1.4087454
0.0078948624
-0.14804866
0.011078554
-0.15174562
0.012045091
-0.15579049
0.01426925
-0.15970176
0.015944841
-0.16305427
0.018100748
-0.1594859
0.018504612
-0.17710953
0.018803139
-0.1967775
0.01882773
-0.21837061
0.018656526
-0.24164676
0.018266939
-0.26626572
0.017729604
-0.29185359
0.017069856
-0.31809434
0.016344017
-0.34482929
0.015560075
-0.37211835
0.01471586
-0.40022792
0.013773385
-0.4295432
0.012695548
-0.4604513
0.011454052
-0.49325506
0.010048901
-0.52815382
0.0085074972
-0.56527056
0.0068793543
-0.60469352
0.0052287148
-0.64650426
0.0036254377
-0.69079727
0.0021387759
-0.73769136
0.00082918219
-0.78734098
-0.00025669853
-0.83994605
-0.0010903565
-0.89575442
-0.0016621069
-0.95506665
-0.0019792156
-1.0182421
-0.0020626148
-1.0856724
-0.0019405106
-1.157845
-0.0016459054
-1.2352249
-0.0012073676
-1.3185064
-0.0006544013
-1.408091
0.0064002598
-0.14331096
0.0094661659
-0.14643627
0.010540419
-0.15024095
0.012743439
-0.15426468
0.014372565
-0.15812948
0.0163944
-0.16134792
0.018368499
-0.15934979
0.018893314
-0.1771997
0.019149135
-0.1970989
0.019192408
-0.2189065
0.01898109
-0.24236091
0.018569443
-0.26710556
0.017975914
-0.29275965
0.017263754
-0.31901407
0.016460897
-0.34573012
0.015592961
-0.37299545
0.014645029
-0.40109956
0.013589085
-0.43043674
0.012388712
-0.46138596
0.011026269
-0.49423243
0.0095105321
-0.52915686
0.0078779055
-0.56626911
0.0061855655
-0.60565037
0.0045016773
-0.6473805
0.0028981613
-0.69155665
0.0014419975
-0.73830418
0.0001893428
-0.78778702
-0.0008203733
-0.84021603
-0.0015664552
-0.89585007
-0.0020472754
-0.9549986
-0.0022768443
-1.0180278
-0.0022811542
-1.0853317
-0.0020914615
-1.1573994
-0.0017418941
-1.2346904
-0.0012608863
-1.3179
-0.00067633122
-1.4074147
0.0048684598
-0.13928141
0.007769341
-0.14161413
0.0090058587
-0.14490171
0.011226626
-0.14872414
0.012885895
-0.15277801
0.01485755
-0.15659263
0.016719689
-0.15969911
0.018775905
-0.15923238
0.019265293
-0.17731586
0.019543264
-0.19744976
0.019550012
-0.21947542
0.019318398
-0.24310987
0.018851476
-0.26798112
0.018206367
-0.29370226
0.017418184
-0.31997136
0.016533786
-0.34667094
0.015565578
-0.373916
0.014507735
-0.40201821
0.013330096
-0.43137812
0.01200529
-0.46236498
0.01052329
-0.49524519
0.0089027931
-0.53018174
0.0071891126
-0.56727266
0.0054452154
-0.60659391
0.0037430699
-0.64822541
0.0021541301
-0.69226878
0.00074258571
-0.73885742
-0.00044163958
-0.78816575
-0.0013665979
-0.84041589
-0.0020200427
-0.8958773
-0.0024080012
-0.95486744
-0.0025507909
-1.0177582
-0.0024786773
-1.0849445
-0.0022252469
-1.1569161
-0.0018251116
-1.2341261
-0.0013061205
-1.3172702
-0.0006942802
-1.4067204
0.0032871225
-0.13611135
0.0059643092
-0.13747638
0.0073930124
-0.14000129
0.0096461805
-0.14332126
0.011392373
-0.14723062
0.01338431
-0.15130477
0.015224851
-0.15509779
0.017173816
-0.15809702
0.019168868
-0.15913595
0.019684506
-0.1774571
0.0199321
-0.19783185
0.019921879
-0.2200789
0.019637775
-0.24389617
0.019121083
-0.26889584
0.018400802
-0.29468488
0.017532127
-0.3209697
0.016549121
-0.34765448
0.015473695
-0.37488196
0.014296022
-0.40298414
0.012993089
-0.43236592
0.011542919
-0.46338461
0.0099452318
-0.49628762
0.0082283688
-0.531221
0.0064452457
-0.56827269
0.0046644308
-0.60751527
0.0029593413
-0.64903062
0.001400344
-0.69292654
4.6734867e-05
-0.73934579
-0.0010583322
-0.78847402
-0.0018913278
-0.8405446
-0.0024483055
-0.895837
-0.0027426924
-0.95467554
-0.002800383
-1.0174365
-0.0026551595
-1.0845146
-0.0023421993
-1.156399
-0.0018960159
-1.2335362
-0.0013434763
-1.316621
-0.00070848352
-1.4060119
0.0016595353
-0.13392284
0.0040512939
-0.13419834
0.0056773676
-0.13576073
0.0079537818
-0.13830889
0.0098189256
-0.14174782
0.011881972
-0.14572828
0.01377622
-0.14985614
0.015707577
-0.15363156
0.017614854
-0.15654301
0.019607298
-0.15905874
0.020100661
-0.17762566
0.020336008
-0.19824598
0.020278237
-0.22071936
0.019947942
-0.24472303
0.019358203
-0.26985324
0.018558423
-0.29571118
0.017591525
-0.32201211
0.016502344
-0.34868313
0.015308361
-0.3758943
0.014005788
-0.40399684
0.012574441
-0.43339744
0.011000725
-0.4644401
0.0092936869
-0.49735294
0.007490651
-0.53226641
0.0056519259
-0.56926019
0.0038495616
-0.60840549
0.0021577475
-0.64978803
0.0006435671
-0.69352337
-0.00063935423
-0.73976477
-0.0016558356
-0.78870951
-0.0023909342
-0.84060197
-0.0028489802
-0.89573071
-0.0030501923
-0.95442573
-0.0030253146
-1.0170663
-0.0028108305
-1.084046
-0.0024428173
-1.1558522
-0.0019551559
-1.2329246
-0.0013733975
-1.3159561
-0.00071919099
-1.4052927
-0.13280139
9.9091605e-09
0.0020511965
-0.13192274
0.0038581114
-0.13237908
0.00612777
-0.13393472
0.0081173205
-0.13660728
0.010276891
-0.14014274
0.012277379
-0.14422944
0.014268811
-0.14841737
0.01618012
-0.15219682
0.018094919
-0.15503063
0.02004486
-0.15900294
0.02053205
-0.1778217
0.020726711
-0.19869445
0.020628216
-0.22139964
0.020229212
-0.24559404
0.01956234
-0.27085716
0.018664844
-0.2967845
0.01759161
-0.32310137
0.016383638
-0.34975841
0.01506475
-0.37695326
0.013632198
-0.40505459
0.012072263
-0.43446898
0.01037912
-0.46552553
0.0085711693
-0.49843346
0.0066945676
-0.53330905
0.0048152059
-0.57022583
0.0030079289
-0.60925567
0.0013454742
-0.65048993
-0.00010930223
-0.69405343
-0.0013099221
-0.74011069
-0.0022296422
-0.7888708
-0.0028623686
-0.84058859
-0.0032202925
-0.89556061
-0.0033297852
-0.95412126
-0.0032256047
-1.0166516
-0.0029461477
-1.0835426
-0.002527735
-1.1552796
-0.0020031488
-1.2322948
-0.0013963588
-1.3152789
-0.00072665784
-1.4045661
-0.1307502
9.1060429e-09
-0.13280138
-0.0016595155
0.0019544668
-0.13001909
0.0041725536
-0.13042386
0.0062668278
-0.13208423
0.0085205491
-0.13485094
0.010653002
-0.13851836
0.012759377
-0.14272
0.014753179
-0.14699043
0.016684574
-0.15078648
0.018574296
-0.15356007
0.020497756
-0.15896865
0.020952425
-0.17804742
0.02111328
-0.19917951
0.020952877
-0.2221233
0.02048138
-0.24651308
0.019718981
-0.27191129
0.018715219
-0.2979081
0.017521822
-0.32423956
0.016187519
-0.35088118
0.014736889
-0.37805795
0.013172354
-0.40615468
0.011485737
-0.4355756
0.0096796273
-0.46663399
0.0077817448
-0.49952064
0.0058456781
-0.53433952
0.003942269
-0.57116017
0.002146966
-0.61005716
0.00053000371
-0.65112924
-0.00085170692
-0.69451164
-0.0019595514
-0.74038078
-0.0027758278
-0.78895734
-0.0033031123
-0.84050577
-0.0035609805
-0.89532941
-0.0035811544
-0.95376571
-0.0034015694
-1.0161961
-0.0030617587
-1.0830086
-0.0025976931
-1.1546851
-0.0020406648
-1.2316505
-0.0014128508
-1.3145927
-0.00073114251
-1.4038349
-0.12879574
8.3850571e-09
-0.1307502
-0.0020511784
-0.13392283
-0.0032871028
0.0021153383
-0.12796188
0.0042738034
-0.12843084
0.0065933328
-0.13015701
0.0088545896
-0.13305253
0.01110232
-0.1368613
0.01323441
-0.14120124
0.015263878
-0.14556974
0.017189335
-0.14940152
0.019066535
-0.15212885
0.020941555
-0.15895778
0.021370149
-0.17830429
0.021478002
-0.19970464
0.021252172
-0.22289409
0.020690058
-0.24748415
0.019823348
-0.27301942
0.018698404
-0.29908469
0.017376117
-0.32542815
0.015906951
-0.35205124
0.014320892
-0.37920649
0.012624195
-0.40729314
0.010815319
-0.43671129
0.0089053083
-0.46775756
0.0069302942
-0.50060525
0.0049508219
-0.53534807
0.003040603
-0.57205381
0.00127458
-0.61080174
-0.00028139757
-0.65169955
-0.001577328
-0.69489386
-0.0025833858
-0.74057322
-0.0032910181
-0.78896944
-0.0037112198
-0.84035553
-0.0038702549
-0.89504031
-0.0038043576
-0.95336292
-0.0035537803
-1.0157041
-0.0031584667
-1.0824478
-0.0026535177
-1.1540722
-0.0020684069
-1.2309949
-0.0014233731
-1.3139005
-0.00073290122
-1.403102
-0.12668041
7.7639854e-09
-0.12879574
-0.0019544501
-0.13192274
-0.004051276
-0.13611135
-0.0048684403
0.0021686794
-0.12585676
0.0045045534
-0.12634206
0.0068640293
-0.12816645
0.0092485684
-0.13119878
0.011545615
-0.13517251
0.013731218
-0.13966858
0.015775256
-0.14415566
0.017703674
-0.14803866
0.019550285
-0.15073758
0.021383536
-0.15897117
0.021769287
-0.17859557
0.021820728
-0.20027319
0.021512127
-0.22371616
0.020850647
-0.24851145
0.019863917
-0.27418494
0.01860793
-0.3003165
0.017146485
-0.32666769
0.015537099
-0.35326745
0.013813467
-0.38039576
0.01198707
-0.40846489
0.010062959
-0.43786894
0.0080602011
-0.46888746
0.0060231117
-0.50167754
0.0040173354
-0.5363248
0.0021183539
-0.57289758
0.00039863003
-0.61148177
-0.0010815763
-0.6521953
-0.0022803541
-0.6951969
-0.0031771088
-0.74068713
-0.0037724552
-0.7889082
-0.0040852865
-0.84014049
-0.0041477818
-0.89469689
-0.0039997821
-0.95291692
-0.0036830242
-1.0151796
-0.0032372022
-1.0818642
-0.0026960921
-1.1534445
-0.0020870981
-1.2303312
-0.0014284244
-1.3132049
-0.00073218543
-1.4023698
-0.12451174
7.1192563e-09
-0.12668041
-0.0021153229
-0.13001909
-0.0038580949
-0.13419833
-0.0059642916
-0.1392814
-0.0064002405
0.0022889739
-0.12364118
0.0046944245
-0.12417246
0.0071815138
-0.1260994
0.0096377141
-0.12929088
0.012006824
-0.13344811
0.014228628
-0.13812195
0.016293649
-0.14274563
0.018210557
-0.14669893
0.020030384
-0.14938442
0.021809718
-0.1590116
0.022149262
-0.17892411
0.022128206
-0.20088927
0.021728366
-0.22459388
0.020951491
-0.24959903
0.019833965
-0.27541097
0.018434943
-0.30160496
0.016827195
-0.32795779
0.015073456
-0.35452744
0.013212836
-0.38162153
0.011261742
-0.40966367
0.0092317197
-0.43904046
0.0071498694
-0.47001422
0.0050671739
-0.50272738
0.0030534029
-0.53725985
0.0011838101
-0.57368276
-0.00047300718
-0.61209034
-0.0018637852
-0.65261187
-0.0029554778
-0.69541853
-0.0037370414
-0.74072254
-0.0042179792
-0.78877551
-0.004424443
-0.83986383
-0.0043936381
-0.89430303
-0.0041681014
-0.95243184
-0.0037902699
-1.0146265
-0.0032989884
-1.0812613
-0.0027263392
-1.1528053
-0.0020974668
-1.2296622
-0.0014284966
-1.3125086
-0.00072923919
-1.4016406
-0.12222277
6.511215e-09
-0.12451174
-0.0021686653
-0.12796188
-0.0041725383
-0.13237907
-0.0056773513
-0.13747637
-0.0077693237
-0.14331095
-0.0078948433
0.002386176
-0.12133293
0.0049171758
-0.12190812
0.0074951803
-0.12395686
0.010040982
-0.12732503
0.012468476
-0.13168796
0.01473124
-0.13655954
0.016805441
-0.14134052
0.01871255
-0.14538109
0.020495759
-0.14807046
0.022219079
-0.15908141
0.022497844
-0.17929374
0.022396229
-0.20155714
0.021889368
-0.22553176
0.020985808
-0.25075087
0.019723989
-0.27670002
0.018172914
-0.30295068
0.016412558
-0.32929689
0.014513106
-0.35582771
0.012518535
-0.38287832
0.010450211
-0.41088217
0.0083262783
-0.44021687
0.006180731
-0.47112778
0.0040704925
-0.50374447
0.002067549
-0.53814359
0.00024544883
-0.57440122
-0.0013327182
-0.6126214
-0.0026217144
-0.65294563
-0.0035980183
-0.69555755
-0.0042601403
-0.74068038
-0.0046260375
-0.78857391
-0.0047283146
-0.83952916
-0.0046082672
-0.89386287
-0.0043102373
-0.95191187
-0.003876625
-1.0140488
-0.0033449167
-1.0806427
-0.0027452004
-1.1521576
-0.0021002371
-1.2289904
-0.0014240693
-1.3118138
-0.00072429657
-1.4009163
-0.1198366
5.9995318e-09
-0.12222277
-0.0022889609
-0.12585675
-0.0042737894
-0.13042386
-0.0061277551
-0.13576072
-0.0073929966
-0.14161413
-0.0094661491
-0.14804865
-0.0093829692
0.002500962
-0.11891671
0.0051373154
-0.11955025
0.0078195052
-0.12173539
0.010444756
-0.12530131
0.012933986
-0.12989071
0.015227958
-0.13498205
0.01731177
-0.13993974
0.019201152
-0.14408649
0.020945178
-0.14679656
0.022600453
-0.15918402
0.022810842
-0.17970836
0.02261368
-0.20228145
0.021988461
-0.22653441
0.020943694
-0.25197057
0.019526833
-0.27805394
0.017815049
-0.30435317
0.015898513
-0.33068229
0.013854316
-0.35716349
0.011731424
-0.38415954
0.0095561382
-0.41211203
0.0073523182
-0.44138845
0.0051604158
-0.4722177
0.0030416227
-0.50471855
0.001068682
-0.53896683
-0.00068838142
-0.57504555
-0.0021732213
-0.6130699
-0.0033496406
-0.65319401
-0.0042039441
-0.69561375
-0.0047440279
-0.74056239
-0.0049956539
-0.78830658
-0.0049969805
-0.83914044
-0.0047924388
-0.89338067
-0.0044273102
-0.95136119
-0.0039433063
-1.0134505
-0.0033761197
-1.0800118
-0.0027536214
-1.1515042
-0.0020961188
-1.2283184
-0.0014156038
-1.3111225
-0.00071757964
-1.4001987
-0.11733564
5.5663443e-09
-0.1198366
-0.002386164
-0.12364117
-0.0045045407
-0.12843083
-0.0062668142
-0.13393471
-0.0079537673
-0.14000128
-0.0090058432
-0.14643626
-0.011078537
-0.15332262
-0.010914543
0.0026144015
-0.1163938
0.0053645733
-0.11709532
0.0081442037
-0.11943483
0.010851119
-0.12321845
0.013394318
-0.12805707
0.015719399
-0.13338968
0.017806102
-0.13854469
0.019674409
-0.14281572
0.021368948
-0.14556506
0.022949646
-0.15932283
0.023077786
-0.18017246
0.022774091
-0.20306708
0.022015625
-0.22760634
0.020817598
-0.25326134
0.019234755
-0.27947364
0.017356179
-0.30581083
0.015282023
-0.33211
0.013096745
-0.35852881
0.010854056
-0.38545745
0.0085843313
-0.41334404
0.0063168949
-0.44254493
0.0040972982
-0.47327338
0.0019897019
-0.50563957
6.5757799e-05
-0.53972097
-0.0016094988
-0.57560928
-0.0029877512
-0.61343179
-0.0040424708
-0.65335548
-0.0047699261
-0.69558785
-0.0051869748
-0.74037107
-0.0053263943
-0.78797716
-0.0052309326
-0.83870195
-0.0049471936
-0.89286078
-0.0045206028
-0.95078389
-0.0039916049
-1.012835
-0.0033937511
-1.0793716
-0.0027525377
-1.1508477
-0.0020857976
-1.2276482
-0.0014035396
-1.3104365
-0.00070930175
-1.3994894
-0.11472125
5.1510775e-09
-0.11733564
-0.002500951
-0.12133292
-0.0046944128
-0.12634205
-0.0065933203
-0.13208422
-0.0081173073
-0.13830888
-0.0096461664
-0.1449017
-0.010540404
-0.15174562
-0.012655538
-0.15895047
-0.012557222
0.0027314328
-0.11376066
0.005592131
-0.11454325
0.0084706887
-0.1170544
0.011253473
-0.1210776
0.013849872
-0.12618754
0.016199941
-0.13178352
0.018285993
-0.13715627
0.020124729
-0.1415715
0.021763232
-0.14437864
0.023256885
-0.15950193
0.023292421
-0.18069079
0.022867605
-0.20391906
0.021963156
-0.2287519
0.020599074
-0.25462566
0.018841602
-0.28095907
0.016791965
-0.30732077
0.014561468
-0.33357472
0.012241736
-0.35991649
0.0098902441
-0.38676337
0.0075411051
-0.41456825
0.0052280024
-0.44367564
0.0030005351
-0.47428421
0.00092411983
-0.50649793
-0.00093229348
-0.54039817
-0.0025101396
-0.57608689
-0.0037701212
-0.61370413
-0.004695825
-0.65342959
-0.00529334
-0.69548148
-0.0055878786
-0.74010958
-0.0056183306
-0.78758976
-0.0054310187
-0.83821812
-0.0050738015
-0.89230758
-0.0045915182
-0.95018398
-0.0040228601
-1.0122059
-0.0033989645
-1.0787252
-0.0027428578
-1.1501907
-0.0020699303
-1.2269818
-0.0013883016
-1.3097575
-0.0006996593
-1.3987897
-0.11198982
4.6987549e-09
-0.11472125
-0.0026143913
-0.11891671
-0.0049171649
-0.12417245
-0.0068640178
-0.130157
-0.008520537
-0.13660727
-0.0098189128
-0.14332126
-0.011226612
-0.15024094
-0.012045076
-0.15733642
-0.014269581
-0.16474863
-0.014393539
0.0028486197
-0.11101715
0.0058207997
-0.11189336
0.0087941523
-0.11459508