/*--------------------------------*- C++ -*----------------------------------*\
| =========                 |                                                 |
| \\      /  F ield         | OpenFOAM: The Open Source CFD Toolbox           |
|  \\    /   O peration     | Version:  5.0                                   |
|   \\  /    A nd           | Web:      www.OpenFOAM.org                      |
|    \\/     M anipulation  |                                                 |
\*---------------------------------------------------------------------------*/
FoamFile
{
    version     2.0;
    format      ascii;
    class       volVectorField;
    location    "270";
    object      U;
}
// * * * * * * * * * * * * * * * * * * * * * * * * * * * * * * * * * * * * * //

dimensions      [0 1 -1 0 0 0 0];

internalField   nonuniform List<vector> 
9200
(
(1.0428047 -0.00053567393 -4.343276e-24)
(1.0431107 -0.0016345577 -9.412883e-21)
(1.0443442 -0.00053284744 0)
(1.0437069 -0.0026063542 4.8395846e-21)
(1.0446455 -0.0016445758 -7.2615486e-21)
(1.0450413 -0.00052972521 0)
(1.0444636 -0.0035508572 4.8422885e-22)
(1.0452366 -0.0026125892 -3.3964747e-22)
(1.045342 -0.0016518315 0)
(1.0460567 -0.00052562976 0)
(1.0453694 -0.0044008542 -9.2609638e-21)
(1.0459868 -0.0035673812 -5.4180231e-21)
(1.0459329 -0.0026204711 -4.0455714e-21)
(1.0463562 -0.0016630251 -2.4876593e-22)
(1.0468827 -0.00052028093 -3.3832029e-25)
(1.0463585 -0.0052019706 -8.5697208e-21)
(1.0468783 -0.0044215092 6.6287179e-22)
(1.0466793 -0.0035847717 -1.3062365e-20)
(1.0469498 -0.0026317291 -4.9598323e-21)
(1.0471835 -0.0016714715 3.3776576e-23)
(1.0477513 -0.00051281082 1.0101983e-20)
(1.0474023 -0.0059311056 -8.0149942e-21)
(1.0478495 -0.0052327604 -8.9954716e-21)
(1.0475657 -0.0044452511 7.892332e-21)
(1.0476966 -0.0036105722 4.7374676e-22)
(1.047781 -0.0026400019 -4.9967103e-21)
(1.0480567 -0.0016777249 -4.8656529e-21)
(1.0485573 -0.00050286947 -7.7001585e-22)
(1.0484623 -0.006602737 -3.4700181e-21)
(1.0488675 -0.0059708223 -6.2803889e-21)
(1.0485288 -0.0052673259 -8.6044542e-21)
(1.0485818 -0.0044825077 1.7786801e-22)
(1.0485296 -0.0036327231 1.1945563e-20)
(1.0486635 -0.0026442384 5.2044153e-21)
(1.0488682 -0.0016785749 6.1401175e-21)
(1.0493429 -0.0004898826 -9.3062942e-21)
(1.0495136 -0.0072127094 9.6844239e-21)
(1.0498955 -0.0066536809 -7.2854111e-21)
(1.0495358 -0.0060164583 2.6650091e-22)
(1.0495404 -0.0053231775 -4.36849e-21)
(1.0494158 -0.004516435 3.2823013e-22)
(1.049422 -0.0036517878 1.8352383e-20)
(1.0494849 -0.0026402697 -3.2960734e-21)
(1.0496643 -0.0016727668 1.0215522e-20)
(1.0500886 -0.00047345829 1.9436526e-20)
(1.0505332 -0.0077659376 -7.2640367e-21)
(1.0509075 -0.0072750394 3.6460197e-21)
(1.0505493 -0.0067125119 1.9674686e-22)
(1.050539 -0.0060923653 -8.6789901e-22)
(1.0503728 -0.0053762076 1.5221559e-21)
(1.0503185 -0.0045491285 3.8961223e-22)
(1.0502545 -0.0036606965 -6.4202441e-21)
(1.0502978 -0.0026254242 -1.1006747e-20)
(1.0504221 -0.0016583076 -5.9923245e-21)
(1.0507974 -0.00045303112 -1.510067e-21)
(1.0515038 -0.0082641707 3.3453738e-21)
(1.0518816 -0.0078402037 -1.503012e-22)
(1.0515436 -0.0073479724 -5.8659475e-21)
(1.0515399 -0.0068123428 5.9822117e-21)
(1.0513668 -0.0061665701 -8.4479738e-21)
(1.0512842 -0.0054318061 1.8700289e-20)
(1.0511628 -0.0045705751 6.5895094e-23)
(1.0510887 -0.0036562379 -1.7790717e-20)
(1.0510742 -0.0025966865 8.5958413e-21)
(1.0511464 -0.0016330475 -1.7864314e-20)
(1.0514645 -0.00042831729 2.5327234e-21)
(1.0524081 -0.0087112863 -1.410037e-22)
(1.0528011 -0.0083498838 1.1647679e-21)
(1.0524965 -0.0079284138 4.9575049e-21)
(1.0525167 -0.0074738132 0)
(1.052359 -0.0069118346 -1.1081458e-22)
(1.0522843 -0.0062486735 -2.4512368e-22)
(1.0521389 -0.0054756404 3.805348e-21)
(1.0520206 -0.0045775538 9.0269174e-21)
(1.0518872 -0.0036336028 6.1693388e-22)
(1.0518215 -0.0025512383 1.0620146e-20)
(1.0518317 -0.0015956242 6.9516323e-21)
(1.0520868 -0.00039905574 -1.5245745e-21)
(1.0532235 -0.0091119523 -1.2806795e-22)
(1.0536515 -0.0088070654 7.5660302e-22)
(1.0533917 -0.0084542706 0)
(1.0534477 -0.0080824348 0)
(1.0533233 -0.007600932 3.0681241e-21)
(1.0532791 -0.0070262665 -3.9108877e-21)
(1.0531474 -0.0063191278 8.208112e-21)
(1.0530208 -0.00550551 -1.0254907e-20)
(1.0528441 -0.0045633158 -8.9841986e-22)
(1.0526682 -0.0035889181 -1.1657507e-23)
(1.0525335 -0.0024867828 -1.1975398e-20)
(1.0524753 -0.001544588 1.1996265e-20)
(1.0526611 -0.00036509639 -2.2451312e-20)
(1.053906 -0.0094728621 4.1461386e-22)
(1.0544154 -0.0092148938 -1.6108129e-22)
(1.0542151 -0.008928717 2.7749672e-21)
(1.0543168 -0.0086377958 -3.0815678e-21)
(1.0542375 -0.0082394708 3.2731478e-21)
(1.0542419 -0.0077515055 -8.2362668e-22)
(1.0541473 -0.0071296132 -2.7278634e-21)
(1.0540514 -0.0063776809 3.0361099e-23)
(1.0538702 -0.0055119576 -1.0059177e-20)
(1.0536634 -0.0045227967 -9.2982353e-21)
(1.0534169 -0.0035188665 -3.3868653e-21)
(1.0532076 -0.0024007218 -9.1954852e-21)
(1.0530735 -0.0014789024 -5.9671217e-21)
(1.0531844 -0.00032637227 5.8626262e-21)
(1.0543635 -0.0098047839 4.6837334e-21)
(1.0550597 -0.0095782993 -3.4270464e-21)
(1.0549511 -0.0093550598 1.2662502e-21)
(1.0551112 -0.0091425279 5.3249722e-23)
(1.055086 -0.0088262085 -8.5044719e-24)
(1.0551502 -0.0084298699 8.0037613e-22)
(1.0551112 -0.0078918891 -2.6375311e-21)
(1.0550699 -0.0072249287 3.5065874e-21)
(1.0549264 -0.0064115333 -7.6168395e-23)
(1.0547296 -0.005489535 1.0055144e-21)
(1.0544511 -0.0044520013 2.0977201e-22)
(1.0541345 -0.0034198372 1.2551865e-21)
(1.0538399 -0.0022916124 1.1488235e-20)
(1.0536232 -0.0013977725 -5.190318e-21)
(1.0536537 -0.00028290906 4.0102141e-21)
(1.0544208 -0.010119588 -1.5208757e-21)
(1.0555113 -0.0099065681 3.5779079e-21)
(1.0555705 -0.009738362 -1.3419485e-21)
(1.0558177 -0.0095990662 2.8641712e-21)
(1.0558565 -0.0093633493 -3.1462862e-21)
(1.0559884 -0.0090590388 8.088015e-21)
(1.0560162 -0.0086111213 -7.1698024e-21)
(1.0560485 -0.0080299098 1.3886352e-22)
(1.0559689 -0.0072949969 2.5827482e-21)
(1.0558252 -0.0064157266 1.9520486e-22)
(1.0555616 -0.0054326986 2.3616461e-20)
(1.0552221 -0.0043454695 -5.6358914e-21)
(1.0548157 -0.003289504 -3.8354815e-21)
(1.0544269 -0.0021581028 -1.9544452e-21)
(1.0541212 -0.0013007361 -8.4294652e-22)
(1.0540669 -0.00023481697 -4.1547325e-21)
(1.0537849 -0.010438408 0)
(1.0556214 -0.010211943 2.7780048e-21)
(1.0560083 -0.010087417 -2.216551e-21)
(1.0564124 -0.010011454 0)
(1.0565376 -0.0098528027 0)
(1.0567446 -0.0096404498 0)
(1.0568467 -0.0092838059 -2.7516344e-23)
(1.0569637 -0.0087973713 -6.1526577e-21)
(1.0569679 -0.0081427517 1.3928711e-21)
(1.0569048 -0.0073363259 -7.354435e-21)
(1.0567027 -0.006382261 -2.4296479e-22)
(1.0563892 -0.0053346472 -5.0738109e-21)
(1.0559582 -0.0042012337 7.0939219e-23)
(1.0554572 -0.0031254981 4.3360465e-21)
(1.0549652 -0.0019994931 1.4912138e-21)
(1.0545648 -0.0011876263 2.2422795e-21)
(1.0544218 -0.000182285 0)
(1.0520195 -0.010777864 8.3415466e-22)
(1.0551261 -0.010518084 -5.8112133e-21)
(1.0561288 -0.010413356 5.1920456e-21)
(1.0568413 -0.010387112 1.6158536e-21)
(1.0571095 -0.010298139 2.9613578e-21)
(1.0574087 -0.010174991 0)
(1.0575911 -0.009910589 3.0652606e-21)
(1.0577992 -0.0095224375 -2.1802298e-22)
(1.0578989 -0.0089590728 -1.0796014e-20)
(1.0579375 -0.008229473 1.1180175e-21)
(1.0578273 -0.0073376604 4.3373857e-21)
(1.0575886 -0.0063038356 -5.4995422e-22)
(1.0571878 -0.0051926157 -9.3164031e-21)
(1.0566654 -0.0040144935 1.5372894e-20)
(1.0560547 -0.0029266433 4.6541637e-21)
(1.0554516 -0.0018154331 1.6303293e-20)
(1.0549517 -0.0010585906 6.0317633e-21)
(1.0547171 -0.00012557718 4.0619697e-21)
(1.0485744 -0.011155669 3.9587647e-23)
(1.0536098 -0.010849188 -2.4394629e-21)
(1.0556847 -0.010737082 -1.6758688e-21)
(1.0569859 -0.010736261 3.3988857e-21)
(1.0575263 -0.010706014 -3.1090348e-22)
(1.0579644 -0.010665106 4.1735548e-21)
(1.0582404 -0.010491492 2.4652067e-21)
(1.0585438 -0.01020472 -6.0305014e-21)
(1.0587453 -0.0097376376 -2.165274e-21)
(1.0588977 -0.0090989386 7.3375265e-21)
(1.0589023 -0.0082749202 -7.5016842e-23)
(1.058771 -0.0072918954 1.02673e-20)
(1.0584531 -0.0061761452 -3.1205166e-21)
(1.0579683 -0.0050002759 -1.1661709e-21)
(1.0573318 -0.0037849053 -2.1555584e-21)
(1.0566046 -0.0026919423 -2.8142189e-21)
(1.0558831 -0.001606143 4.9275237e-21)
(1.0552802 -0.00091406696 2.8041157e-22)
(1.0549521 -6.5045164e-05 2.8356673e-21)
(1.0428509 -0.011580229 5.2731684e-22)
(1.0505216 -0.011233885 3.0981088e-21)
(1.054277 -0.011079656 -1.2646857e-20)
(1.0566211 -0.011079179 -8.5763531e-22)
(1.0576835 -0.01108585 2.3953513e-21)
(1.0583734 -0.011115942 1.7639778e-21)
(1.0587815 -0.011028202 4.6686181e-22)
(1.059189 -0.010843018 6.1676808e-21)
(1.0594956 -0.010476979 -8.6844e-22)
(1.0597679 -0.0099368342 -9.7161949e-21)
(1.0599004 -0.0091972396 1.3042807e-20)
(1.0599014 -0.0082727843 -2.2985484e-21)
(1.0597028 -0.0071924991 -4.9206798e-21)
(1.059311 -0.0059917388 4.3537737e-22)
(1.058714 -0.0047570086 -1.3439155e-21)
(1.0579584 -0.0035094322 -1.0097365e-20)
(1.0571033 -0.0024214094 3.9321599e-22)
(1.0562575 -0.0013722074 -8.1737845e-21)
(1.0555488 -0.00075478724 -1.8638976e-21)
(1.0551266 -1.1469715e-06 -2.3558359e-21)
(1.034302 -0.012048061 -3.0173453e-22)
(1.0452301 -0.011693345 4.0433963e-21)
(1.0513633 -0.011466131 -1.2233537e-21)
(1.0553695 -0.011438442 3.3586036e-21)
(1.0573746 -0.011456316 1.4222716e-21)
(1.0585449 -0.011535562 -2.3306443e-21)
(1.0591824 -0.011524923 4.2495725e-21)
(1.059724 -0.011437772 6.7920282e-21)
(1.060142 -0.011174701 -8.6387954e-21)
(1.0605363 -0.010740457 0)
(1.0608033 -0.01009512 -8.6749404e-21)
(1.0609511 -0.009249145 1.9276644e-22)
(1.060899 -0.0082138357 9.4843959e-21)
(1.0606401 -0.007031317 -4.0770171e-21)
(1.0601423 -0.0057490046 5.217737e-21)
(1.0594287 -0.0044581282 -9.1449208e-21)
(1.0585369 -0.0031891156 -2.7325145e-21)
(1.0575479 -0.0021154379 1.9154381e-21)
(1.056573 -0.001114644 -3.3533063e-21)
(1.0557572 -0.00058172948 -7.4153221e-22)
(1.0552405 6.5507205e-05 -1.316208e-21)
(1.022538 -0.012542371 -3.8026214e-21)
(1.0371233 -0.012235385 3.0735107e-21)
(1.0463049 -0.011914919 6.2467315e-21)
(1.0526975 -0.011842237 -7.62481e-21)
(1.0562429 -0.01183886 -4.2133125e-21)
(1.0582926 -0.011941116 1.7745563e-21)
(1.0593649 -0.011988886 0)
(1.0601225 -0.011991631 6.3780166e-21)
(1.0606754 -0.011830147 1.5183188e-21)
(1.0611951 -0.01150596 -1.2301651e-20)
(1.0615985 -0.0109646 -3.8115607e-21)
(1.0619004 -0.010209843 1.0622423e-21)
(1.0620112 -0.009242273 9.6242126e-23)
(1.0619152 -0.008089546 -4.2882374e-21)
(1.0615606 -0.0068051211 4.2574362e-21)
(1.0609522 -0.005441951 -3.7271725e-21)
(1.0601008 -0.0041047497 1.1849382e-21)
(1.0590662 -0.0028227871 -5.9689667e-21)
(1.0579357 -0.0017753623 -2.7324316e-21)
(1.0568286 -0.00083480749 -5.5189768e-22)
(1.0559052 -0.000396071 -1.0157886e-21)
(1.0552943 0.00013371969 0)
(1.0074061 -0.013035227 -2.5335909e-21)
(1.0257246 -0.012849752 -1.3221887e-21)
(1.0384633 -0.012432537 2.5067433e-22)
(1.0479536 -0.012313743 -6.7808088e-21)
(1.0537674 -0.012260817 -2.3200734e-21)
(1.0572823 -0.012353979 2.5552354e-21)
(1.0591607 -0.01243577 -4.8137836e-21)
(1.0603178 -0.012510387 6.8225089e-21)
(1.0610749 -0.012444696 3.4999104e-21)
(1.0617368 -0.012231273 2.0916101e-22)
(1.0622782 -0.011800341 2.2275966e-23)
(1.0627357 -0.011149568 -1.4031721e-21)
(1.0630181 -0.010265104 1.1450976e-21)
(1.0631038 -0.0091680992 -7.9467338e-21)
(1.0629258 -0.0078946617 -1.0619186e-20)
(1.0624709 -0.0065067974 -9.0017635e-21)
(1.061727 -0.005070993 1.7606431e-21)
(1.06073 -0.0036944113 1.1268719e-20)
(1.0595408 -0.0024127604 -8.8311228e-23)
(1.0582641 -0.0014035283 -2.3422147e-21)
(1.0570237 -0.00053483241 0)
(1.0559929 -0.00019948026 1.1461629e-21)
(1.0552922 0.00019924951 2.2339017e-22)
(0.98902379 -0.013492374 1.3697909e-20)
(1.0107895 -0.013508107 -2.8232418e-21)
(1.0273186 -0.013009281 7.176616e-21)
(1.0404611 -0.012864515 3.7324224e-21)
(1.0492921 -0.012745875 -8.2600369e-21)
(1.0550087 -0.012802689 0)
(1.0582578 -0.012886214 -1.0077887e-21)
(1.0601599 -0.01300778 4.8949384e-21)
(1.0612834 -0.01302299 3.5767806e-21)
(1.0621442 -0.012916147 -5.1502361e-22)
(1.0628359 -0.012598891 -6.9206978e-21)
(1.063449 -0.012061343 -4.1604174e-21)
(1.063905 -0.011275646 5.5995278e-21)
(1.0641826 -0.010252784 -8.3561963e-21)
(1.0642029 -0.0090189955 1.2076294e-20)
(1.0639385 -0.0076210557 1.9646429e-20)
(1.0633552 -0.0061355059 8.8002511e-22)
(1.0624664 -0.0046325206 4.6853347e-21)
(1.0613083 -0.0032296237 -9.8814293e-21)
(1.0599588 -0.0019598489 -4.5506523e-22)
(1.058532 -0.001001789 3.2895832e-21)
(1.0571573 -0.00021847073 -5.5305803e-22)
(1.0560206 3.9282067e-06 -1.0382331e-21)
(1.0552357 0.00027337644 1.7363188e-22)
(0.96776267 -0.013879102 3.8205356e-21)
(0.99235767 -0.014168367 -7.6344863e-22)
(1.0125749 -0.013619154 -2.3779575e-23)
(1.0296404 -0.013488704 -1.61105e-20)
(1.0421119 -0.013307493 5.7428386e-21)
(1.0508142 -0.013313835 -9.8219455e-21)
(1.0561685 -0.013368373 -8.6851712e-22)
(1.0593599 -0.01350366 -8.7867896e-21)
(1.0611678 -0.013576897 4.0983812e-21)
(1.0623699 -0.013563653 2.7075418e-21)
(1.063258 -0.013358469 -6.4380442e-21)
(1.0640342 -0.012940115 4.1060399e-21)
(1.0646631 -0.012265295 -5.4103141e-21)
(1.0651355 -0.011335544 -1.3191729e-23)
(1.0653665 -0.010162604 1.0182045e-20)
(1.0653177 -0.0087859548 1.2625203e-21)
(1.064936 -0.0072662397 -3.6935873e-23)
(1.0642134 -0.0056864694 7.8630735e-21)
(1.0631605 -0.004128588 0)
(1.0618335 -0.0027103263 1.5397403e-21)
(1.0603165 -0.0014673876 3.6684553e-22)
(1.0587379 -0.00057290197 -5.1322467e-22)
(1.0572302 0.00011423591 -9.6479551e-22)
(1.0559913 0.00021932914 1.1523285e-21)
(1.0551229 0.00034961477 1.5764726e-21)
(0.94419156 -0.0141654 -1.3462941e-20)
(0.97075014 -0.01478169 -4.7359381e-22)
(0.99422298 -0.014223856 2.1292009e-21)
(1.0151265 -0.014161838 1.7656798e-21)
(1.0315979 -0.01394245 1.5925163e-20)
(1.0439676 -0.013904522 1.6046432e-22)
(1.0522369 -0.013909803 -8.3195986e-22)
(1.0574501 -0.014026125 6.6070431e-22)
(1.0604617 -0.014125393 6.5902821e-21)
(1.0622966 -0.014183518 -3.9030118e-21)
(1.0635047 -0.014080606 4.5248802e-21)
(1.0644804 -0.01378235 -1.7734241e-22)
(1.0652866 -0.013227359 -1.6959493e-21)
(1.0659527 -0.012406114 2.5708339e-21)
(1.0663988 -0.011316159 3.4382927e-22)
(1.0665808 -0.0099848602 -1.4588458e-20)
(1.0664297 -0.0084645129 -2.1717378e-20)
(1.0659185 -0.0068241964 -1.1744716e-20)
(1.0650338 -0.0051607847 -1.5361195e-20)
(1.0638064 -0.0035583001 -4.1993281e-22)
(1.0623 -0.002140134 1.1838664e-20)
(1.0606122 -0.00093755709 -4.1575773e-22)
(1.0588814 -0.00011946054 -1.3825832e-22)
(1.0572433 0.00046170419 -1.2640347e-21)
(1.055907 0.00044170266 1.8177509e-21)
(1.0549592 0.00042541613 -5.343161e-23)
(0.918998 -0.014329337 6.0808842e-22)
(0.94652026 -0.015299617 -1.1044221e-21)
(0.97254619 -0.014779522 -8.9662896e-21)
(0.99684582 -0.014844297 9.4251821e-21)
(1.0173235 -0.014628556 -1.3863127e-20)
(1.0337898 -0.01457479 8.365449e-21)
(1.0457096 -0.014529812 3.7150775e-21)
(1.0537803 -0.014604496 8.4028502e-21)
(1.0587184 -0.014695909 -9.3768278e-21)
(1.0616812 -0.014793497 -3.9214482e-21)
(1.0634739 -0.014773006 1.5115522e-21)
(1.064755 -0.01458774 -1.1046115e-20)
(1.0657666 -0.014156553 1.0918019e-20)
(1.0666281 -0.013456048 -1.2174461e-21)
(1.0672887 -0.012467742 2.9866578e-21)
(1.0677079 -0.011207288 -5.8356735e-22)
(1.0678058 -0.0097128581 -4.8334553e-21)
(1.0675393 -0.0080473501 4.5794211e-21)
(1.0668726 -0.0062946684 -5.546255e-21)
(1.0658129 -0.0045565914 -9.490114e-22)
(1.0643969 -0.0029251123 0)
(1.0627053 -0.0015210217 3.7338811e-21)
(1.0608439 -0.00037410841 1.8076349e-21)
(1.0589627 0.00035600024 0)
(1.0571984 0.00082125347 1.758773e-21)
(1.0557695 0.00067027082 -6.0118046e-22)
(1.0547459 0.00050128318 -2.6569941e-21)
(0.89290645 -0.014360503 4.6594146e-21)
(0.9203748 -0.015679987 -1.7111422e-22)
(0.94807682 -0.015244096 -7.6219139e-21)
(0.97503517 -0.015488387 9.2901765e-22)
(0.99915374 -0.015327243 -2.4014841e-21)
(1.0197874 -0.015304381 -9.3062716e-21)
(1.0358605 -0.015231264 -4.7556477e-22)
(1.0475795 -0.015261149 -6.8155268e-21)
(1.0552968 -0.015318772 -7.2918665e-25)
(1.0600995 -0.015420181 7.9145736e-21)
(1.0629439 -0.01545189 -3.7964632e-21)
(1.0647696 -0.015361781 1.0346424e-21)
(1.0660766 -0.015050697 -2.7395721e-21)
(1.0671542 -0.014478172 3.1736509e-21)
(1.0680295 -0.013607205 -7.4074217e-22)
(1.0686862 -0.012439754 3.8815731e-21)
(1.0690423 -0.010999827 4.5501256e-21)
(1.0690428 -0.0093379596 2.6991322e-20)
(1.068632 -0.0075325035 9.3731868e-21)
(1.0677942 -0.0056746284 1.0807366e-20)
(1.0665416 -0.003876734 7.273109e-21)
(1.0649283 -0.0022306607 -2.806918e-21)
(1.0630459 -0.00085741945 -5.1099019e-22)
(1.0610111 0.00021973986 0)
(1.0589827 0.00084984467 0)
(1.0570975 0.0011901527 -2.5272158e-23)
(1.0555817 0.0009023279 4.5084085e-21)
(1.0544875 0.00057640613 5.8725016e-21)
(0.86661096 -0.014262013 0)
(0.89308175 -0.01589664 -8.6032178e-22)
(0.92152161 -0.015583101 6.941209e-21)
(0.95020334 -0.016045966 3.2362747e-21)
(0.97727851 -0.015990335 9.7388528e-21)
(1.0017567 -0.016055013 5.07766e-22)
(1.0221325 -0.015996115 -6.051384e-21)
(1.0380766 -0.016002427 -1.0742744e-20)
(1.0494121 -0.016018596 1.2817362e-20)
(1.0569229 -0.016094856 -3.829611e-21)
(1.0615143 -0.016142748 4.9590184e-22)
(1.0643241 -0.016118799 3.9278129e-21)
(1.0661405 -0.015913084 -9.8219702e-21)
(1.0675096 -0.015468248 5.8337521e-21)
(1.0686145 -0.01472545 3.7143015e-21)
(1.069508 -0.013670375 2.2141801e-23)
(1.0701244 -0.01231052 3.7094451e-21)
(1.0704041 -0.010683851 -2.8007917e-21)
(1.0702758 -0.0088562045 1.3497086e-20)
(1.0697029 -0.0069155672 2.0263169e-21)
(1.0686725 -0.004965904 6.4002879e-21)
(1.067215 -0.0031222812 3.9483998e-21)
(1.0653954 -0.0014796093 -8.475214e-22)
(1.0633201 -0.00015294257 -6.4202429e-21)
(1.0611136 0.00083955362 -3.2812826e-21)
(1.0589428 0.0013587216 1.3682039e-21)
(1.056943 0.0015655311 -4.290356e-21)
(1.0553461 0.0011364806 3.6950396e-21)
(1.0541866 0.00065079236 -1.0259738e-20)
(0.84074515 -0.01402878 -1.4339568e-20)
(0.86537117 -0.015951548 0)
(0.8936807 -0.015766631 0)
(0.92305513 -0.016474565 0)
(0.95217891 -0.016567789 -2.5270117e-21)
(0.97982707 -0.016776237 8.7215273e-21)
(1.0042558 -0.016786602 -9.536396e-22)
(1.0246491 -0.016812945 -1.4172783e-21)
(1.0402521 -0.016804617 1.6655978e-20)
(1.0513562 -0.016844573 -1.5770314e-20)
(1.0585714 -0.016877305 9.7048655e-21)
(1.0630429 -0.016882937 -3.3632576e-21)
(1.0657786 -0.016755906 1.5313435e-21)
(1.0676294 -0.016427219 -8.1104951e-21)
(1.0690263 -0.015816143 3.7403838e-21)
(1.0701669 -0.014888123 4.7012619e-21)
(1.0710428 -0.01363142 1.0044018e-21)
(1.0716065 -0.012068912 -9.7672141e-21)
(1.0717769 -0.010253173 -4.3319563e-21)
(1.0715001 -0.0082616287 -8.480548e-21)
(1.0707398 -0.0061969627 -7.7786168e-21)
(1.0695013 -0.0041686978 3.2144938e-21)
(1.0678262 -0.0022977102 7.6266662e-21)
(1.0657952 -0.00067573884 -2.481728e-21)
(1.0635263 0.00058719576 -1.976704e-21)
(1.0611517 0.0014811936 7.1007145e-23)
(1.0588447 0.0018787838 -3.3237217e-21)
(1.0567375 0.0019447781 2.2860462e-21)
(1.0550661 0.0013710766 -1.5619466e-20)
(1.0538473 0.00072396196 -6.8275514e-21)
(0.81371253 -0.01363819 -1.1330941e-21)
(0.83798944 -0.015805155 -9.6588081e-22)
(0.86538439 -0.015783271 0)
(0.89439777 -0.016741506 0)
(0.92455794 -0.017015526 0)
(0.95444934 -0.017415474 0)
(0.98230613 -0.017551867 0)
(1.0069536 -0.017655754 3.1155999e-22)
(1.027131 -0.01766387 -8.1081586e-21)
(1.0425484 -0.017681818 1.762922e-20)
(1.0533141 -0.017684606 -9.32536e-22)
(1.0603297 -0.017686082 1.0913483e-20)
(1.0646402 -0.017601703 -1.4094114e-20)
(1.0673537 -0.017364843 1.7055191e-21)
(1.0692102 -0.016877842 -4.9543549e-23)
(1.0706485 -0.016084463 5.0939137e-21)
(1.0717911 -0.014949582 -9.8407729e-21)
(1.0726388 -0.013478116 -1.0740039e-21)
(1.0731156 -0.011706359 1.3633431e-20)
(1.0731556 -0.009700136 6.0766076e-21)
(1.0727018 -0.0075528923 1.054195e-21)
(1.0717355 -0.0053757065 9.4988863e-21)
(1.070272 -0.0032868905 5.401391e-22)
(1.0683705 -0.0014066973 -2.9053877e-21)
(1.0661244 0.0001752187 4.5437347e-21)
(1.0636637 0.0013581458 3.4608237e-21)
(1.0611265 0.0021399164 7.6724316e-22)
(1.0586908 0.0024064975 1.3968625e-21)
(1.0564839 0.0023253496 2.3891404e-22)
(1.0547449 0.0016047725 1.2308685e-20)
(1.0534728 0.00079573568 4.5151571e-21)
(0.78501681 -0.013021393 1.5863662e-20)
(0.80937239 -0.015475336 -4.8036775e-22)
(0.83729459 -0.015651988 4.4061369e-21)
(0.86505168 -0.016841599 4.8201856e-21)
(0.89524592 -0.01729649 0)
(0.92631914 -0.017923071 0)
(0.95669471 -0.018236379 -3.8980144e-22)
(0.985001 -0.018478256 9.572667e-21)
(1.0096331 -0.018560338 -1.5805572e-20)
(1.0297498 -0.018596384 1.8630965e-20)
(1.0448567 -0.018580104 2.31059e-21)
(1.0553811 -0.018559171 -9.9107166e-21)
(1.0621488 -0.018482102 -4.7531396e-22)
(1.0663568 -0.018301773 -5.8801158e-22)
(1.0690242 -0.017917685 -4.1356447e-21)
(1.0709068 -0.01725546 1.2261447e-21)
(1.072357 -0.01625431 1.0876469e-21)
(1.0734936 -0.014896685 -4.3551152e-22)
(1.0742789 -0.013199433 5.0788284e-21)
(1.0746472 -0.011213435 2.722185e-20)
(1.0745255 -0.0090213287 8.6029852e-21)
(1.0738728 -0.0067275185 -7.022893e-21)
(1.0726792 -0.0044546658 1.0011521e-20)
(1.0709781 -0.0023237231 9.2282551e-21)
(1.068843 -0.0004551938 3.3153691e-21)
(1.066381 0.0010678898 2.4831462e-21)
(1.0637325 0.0021542415 1.1441645e-21)
(1.0610396 0.0028112474 -1.969964e-21)
(1.0584836 0.002938266 2.9305745e-21)
(1.0561856 0.002704956 -1.0807183e-21)
(1.054386 0.0018363107 7.0319551e-21)
(1.0530669 0.00086578239 5.0143131e-22)
(0.75672609 -0.012181103 -5.3215149e-21)
(0.77897186 -0.01490274 1.7817193e-21)
(0.80797983 -0.015320449 -6.5291521e-21)
(0.83581516 -0.016742606 -4.8980569e-21)
(0.86510731 -0.017401908 0)
(0.89627951 -0.018255625 0)
(0.92810377 -0.018787048 0)
(0.95916018 -0.019221642 -1.6621143e-21)
(0.98770323 -0.01944051 1.2150206e-20)
(1.0124687 -0.019553333 1.3617291e-20)
(1.0323877 -0.019556332 2.4572021e-21)
(1.0472793 -0.01952072 -2.1009044e-21)
(1.0575026 -0.019429572 1.9797654e-20)
(1.0640844 -0.019269013 -1.5549531e-20)
(1.0681678 -0.018954183 4.9256138e-21)
(1.0708172 -0.018405427 0)
(1.072702 -0.017539126 1.1642268e-21)
(1.0741602 -0.016311759 1.4212829e-21)
(1.075258 -0.014715934 1.2436303e-20)
(1.0759593 -0.012784156 -1.1438442e-21)
(1.0761857 -0.010584412 -1.3574834e-20)
(1.0758776 -0.0082125034 -4.8375081e-21)
(1.0750006 -0.0057869493 -1.0964148e-20)
(1.073563 -0.0034362784 -1.0611539e-20)
(1.0716126 -0.0012850132 4.5205534e-22)
(1.0692399 0.00055108242 2.4280205e-21)
(1.0665635 0.0019958122 -1.4177799e-21)
(1.0637331 0.002970069 -1.8055459e-22)
(1.0608931 0.0034905753 4.4874736e-21)
(1.058226 0.0034707874 1.3045512e-21)
(1.0558458 0.0030814626 1.1088446e-21)
(1.0539931 0.0020645468 -2.0863561e-20)
(1.052633 0.00093390787 7.8774938e-21)
(0.7296277 -0.011121065 -4.8205151e-21)
(0.74878818 -0.014064032 2.7532062e-22)
(0.77682822 -0.014745729 -1.2059107e-20)
(0.80531926 -0.016417494 -6.5191788e-21)
(0.83494326 -0.017332244 3.0278734e-21)
(0.86522097 -0.018412139 -2.1137128e-23)
(0.89738884 -0.019156247 1.4495866e-20)
(0.93009792 -0.019828286 -7.8796111e-21)
(0.9616631 -0.020242885 -6.218161e-24)
(0.99057842 -0.020497996 -2.957995e-20)
(1.0153391 -0.020579606 1.3322542e-20)
(1.0351521 -0.020566206 1.6159234e-20)
(1.049756 -0.020465503 -1.6760726e-21)
(1.0597395 -0.020300324 -4.8051139e-21)
(1.0661105 -0.020017334 -6.302578e-21)
(1.0701039 -0.019550438 -4.5613885e-21)
(1.0727171 -0.018805417 5.419965e-22)
(1.0746063 -0.017714275 1.4227373e-20)
(1.0760427 -0.016240936 -2.4538569e-22)
(1.0770812 -0.014394357 -2.6415702e-21)
(1.0776639 -0.012224066 -4.0590285e-21)
(1.0777214 -0.0098130416 -1.8469985e-20)
(1.0771977 -0.0072732864 3.0148564e-21)
(1.0760755 -0.0047324351 -3.0456434e-21)
(1.0743777 -0.0023258289 -1.3404462e-20)
(1.0721702 -0.00017653107 -3.4388739e-21)
(1.0695582 0.0016050559 -1.9185083e-21)
(1.0666716 0.0029526962 -3.3205864e-21)
(1.063667 0.0037999397 6.207814e-22)
(1.0606896 0.0041735746 -8.6815508e-22)
(1.0579214 0.0040009153 2.1448931e-21)
(1.0554682 0.0034529578 -7.6047161e-23)
(1.0535697 0.0022884827 8.7196426e-21)
(1.0521746 0.00099988701 -1.5167337e-20)
(0.70451854 -0.0098464816 5.0261306e-21)
(0.71967238 -0.012946609 -3.9686912e-22)
(0.74572312 -0.013907511 1.3883752e-20)
(0.77288892 -0.015847895 3.4024551e-21)
(0.80346707 -0.017023702 -1.0457959e-20)
(0.83401844 -0.018376654 -1.440064e-20)
(0.86547273 -0.019343824 -1.8320434e-21)
(0.89868001 -0.020245061 0)
(0.93215845 -0.020905808 -8.4352162e-21)
(0.96434868 -0.021365807 -3.2236153e-20)
(0.99350997 -0.021594355 2.3700098e-21)
(1.0183525 -0.021663352 -6.0755718e-21)
(1.0379781 -0.021588334 0)
(1.0523522 -0.021419924 -3.2932691e-21)
(1.0620638 -0.02114184 1.2162737e-20)
(1.0682615 -0.020719103 6.6710206e-21)
(1.0721506 -0.020066549 -5.4975284e-21)
(1.074737 -0.019102633 0)
(1.0766056 -0.017762836 -7.3499398e-21)
(1.0780027 -0.01602719 -9.7582104e-21)
(1.0789475 -0.013921152 -1.9223403e-20)
(1.0793831 -0.011510743 -5.6827792e-21)
(1.0792391 -0.008896786 0)
(1.0784748 -0.0062033586 -1.3165459e-20)
(1.0770864 -0.0035682957 4.6929163e-22)
(1.075116 -0.0011287915 1.2196396e-22)
(1.0726459 0.00099430368 -5.5468347e-21)
(1.0697959 0.0026996755 1.8521852e-21)
(1.0667053 0.0039318104 4.3507707e-22)
(1.063536 0.0046384325 5.8997065e-21)
(1.0604319 0.0048560593 -9.8690455e-21)
(1.0575731 0.0045257949 -4.7076842e-21)
(1.0550562 0.0038177285 0)
(1.0531192 0.0025072215 -3.3322434e-22)
(1.0516951 0.0010635688 -4.6597571e-21)
(0.68217647 -0.0083704322 3.6396386e-21)
(0.69251593 -0.01154874 1.042146e-21)
(0.71558551 -0.012795934 1.2641839e-20)
(0.74035948 -0.014988066 1.0710104e-21)
(0.77002377 -0.016446451 -3.0450354e-21)
(0.80143194 -0.018048358 -7.1612611e-22)
(0.83326149 -0.019324276 -1.1547281e-20)
(0.86586103 -0.020475871 4.7276047e-22)
(0.90006094 -0.021370715 0)
(0.93440078 -0.022090607 1.0289738e-20)
(0.96711335 -0.02253311 -1.1250794e-20)
(0.99660107 -0.022755637 2.8475514e-21)
(1.0214428 -0.02276733 -6.2823394e-21)
(1.0409345 -0.022629359 8.3811186e-21)
(1.0550376 -0.022354579 -1.8670103e-22)
(1.0645137 -0.021946738 1.3826214e-20)
(1.0705238 -0.021349394 -8.2052626e-21)
(1.0743243 -0.020487186 4.4126434e-21)
(1.0768648 -0.01927699 1.387305e-20)
(1.0787001 -0.017668596 -6.6489598e-21)
(1.0800251 -0.015657118 1.3746812e-20)
(1.0808471 -0.013285618 1.7368069e-21)
(1.0811005 -0.010639196 0)
(1.0807263 -0.0078333997 -3.6140861e-21)
(1.0796956 -0.0050056313 1.3307568e-22)
(1.0780239 -0.0022993055 5.1793466e-21)
(1.0757707 0.00014740168 4.5832161e-21)
(1.0730358 0.0022199073 2.3921882e-21)
(1.0699518 0.0038272426 4.5399631e-22)
(1.0666657 0.0049266209 0)
(1.0633425 0.0054802103 -3.9154147e-21)
(1.0601232 0.0055341698 -1.0462677e-20)
(1.0571847 0.0050428246 1.931137e-20)
(1.0546135 0.0041742731 -6.3533734e-21)
(1.0526452 0.0027200111 5.2512509e-22)
(1.0511976 0.001124813 1.6392025e-20)
(0.66332279 -0.00671496 -3.3803338e-21)
(0.66821075 -0.0098809482 -1.3301276e-22)
(0.68737255 -0.011410102 -3.7997898e-21)
(0.70869045 -0.013825849 2.5699831e-23)
(0.73626819 -0.015577714 1.232366e-20)
(0.76677106 -0.017471816 1.0233821e-20)
(0.79960792 -0.019014916 -1.7317379e-22)
(0.83260336 -0.02047972 -9.5061568e-21)
(0.86635285 -0.021643772 5.0519917e-22)
(0.90161051 -0.022607854 -8.7878942e-21)
(0.9367414 -0.023325287 -4.4512179e-22)
(0.97004942 -0.023772433 5.4666151e-21)
(0.99978833 -0.023945122 -1.0430291e-21)
(1.0246794 -0.023899612 1.0142032e-20)
(1.0439893 -0.023660245 -2.9128057e-20)
(1.0578537 -0.023262754 6.5546591e-21)
(1.0670754 -0.022689518 4.0738605e-22)
(1.0729169 -0.021892724 5.2612379e-21)
(1.0766146 -0.020790556 -2.61699e-21)
(1.0791029 -0.01931088 -7.7499195e-22)
(1.0808758 -0.017415613 1.0951154e-20)
(1.0821008 -0.015117699 -9.2244408e-21)
(1.0827634 -0.012480096 4.5427456e-21)
(1.0828026 -0.00960494 0)
(1.082168 -0.0066239523 1.6893099e-20)
(1.0808487 -0.0036837437 1.3265751e-20)
(1.0788784 -0.00093250297 -2.0529906e-21)
(1.076336 0.0014949089 6.6215899e-21)
(1.073337 0.0034917614 5.748376e-22)
(1.0700257 0.0049801311 -2.8362975e-22)
(1.0665544 0.0059305856 5.3662127e-21)
(1.0630894 0.0063202737 -9.3852501e-21)
(1.0597673 0.0062043337 -2.0887965e-22)
(1.0567599 0.0055497001 1.9571748e-20)
(1.0541437 0.0045212998 -1.1329186e-21)
(1.0521509 0.0029262081 -5.6655334e-22)
(1.0506853 0.0011835267 5.9339543e-21)
(0.64858571 -0.0049102349 3.5801089e-22)
(0.64759886 -0.0079683036 -1.0822049e-21)
(0.66204485 -0.009759786 -4.8162006e-21)
(0.67890838 -0.01235869 -5.5161649e-22)
(0.70323784 -0.014389361 1.385909e-24)
(0.73164913 -0.016571489 1.7847421e-22)
(0.7638042 -0.018422918 -6.6609273e-21)
(0.7978256 -0.020165611 3.8424862e-21)
(0.83203813 -0.021673766 0)
(0.86698905 -0.022926927 1.7819827e-21)
(0.90327007 -0.023900066 0)
(0.9392565 -0.024638353 0)
(0.97310031 -0.025047879 5.7416546e-21)
(1.0031392 -0.025172484 -5.3342286e-22)
(1.0280306 -0.025031699 -4.9178279e-21)
(1.0471867 -0.0246751 -6.1761755e-21)
(1.0607864 -0.024118669 1.6147356e-20)
(1.0697715 -0.02335469 -9.2705124e-21)
(1.0754318 -0.022325906 6.4531186e-22)
(1.0790267 -0.020957854 7.6141004e-22)
(1.0814388 -0.01918596 -1.4103285e-20)
(1.0831248 -0.016988563 -5.9504509e-21)
(1.0842131 -0.014398462 4.424735e-21)
(1.0846821 -0.011497603 1.1270096e-20)
(1.0844728 -0.0084068016 2.1783571e-21)
(1.0835506 -0.0052705035 1.8131966e-21)
(1.0819221 -0.0022438877 -4.6561473e-21)
(1.0796418 0.00052436899 -4.6272958e-21)
(1.076807 0.0029046528 -6.6196137e-22)
(1.0735478 0.0048012594 -2.8479953e-21)
(1.0700182 0.0061505652 -5.0560156e-21)
(1.0663738 0.0069374701 -2.7392277e-21)
(1.0627801 0.0071539189 1.7736483e-21)
(1.0593676 0.0068633407 1.4384978e-20)
(1.0563024 0.006044404 -3.767348e-20)
(1.0536503 0.004857719 -6.2405509e-21)
(1.0516397 0.0031252982 -5.7993786e-21)
(1.0501609 0.0012396391 0)
(0.63846805 -0.002993031 2.9274854e-21)
(0.63142336 -0.0058494546 -1.2115172e-22)
(0.64051349 -0.0078694402 -1.2449006e-21)
(0.65206283 -0.010594112 -4.6362097e-22)
(0.67204285 -0.012879245 -5.5873489e-21)
(0.6971322 -0.015327969 -4.284996e-21)