/*--------------------------------*- C++ -*----------------------------------*\
| =========                 |                                                 |
| \\      /  F ield         | OpenFOAM: The Open Source CFD Toolbox           |
|  \\    /   O peration     | Version:  5.0                                   |
|   \\  /    A nd           | Web:      www.OpenFOAM.org                      |
|    \\/     M anipulation  |                                                 |
\*---------------------------------------------------------------------------*/
FoamFile
{
    version     2.0;
    format      ascii;
    class       volScalarField;
    location    "300";
    object      p;
}
// * * * * * * * * * * * * * * * * * * * * * * * * * * * * * * * * * * * * * //

dimensions      [0 2 -2 0 0 0 0];

internalField   nonuniform List<scalar> 
9200
(
-0.0006218241
-0.00061995375
-0.0014280648
-0.00061546073
-0.0014300219
-0.0024329548
-0.00061387455
-0.001419421
-0.0024333329
-0.0033289089
-0.00060664402
-0.0014123519
-0.0024189039
-0.0033323099
-0.0042470035
-0.00059935125
-0.0013938176
-0.0024083622
-0.0033165143
-0.0042540927
-0.0051188079
-0.00058792782
-0.0013733481
-0.0023814107
-0.0033058609
-0.0042396121
-0.0051329666
-0.0059711407
-0.00057447147
-0.0013439987
-0.00234969
-0.0032748146
-0.0042327323
-0.0051234158
-0.0059943116
-0.0067867211
-0.00055792826
-0.0013090947
-0.0023041976
-0.0032368994
-0.004201995
-0.0051256637
-0.0059928516
-0.0068216052
-0.00756826
-0.00053903649
-0.0012668995
-0.0022487938
-0.0031809928
-0.0041626746
-0.0051014643
-0.0060093929
-0.0068320098
-0.0076183699
-0.0083100425
-0.00051802118
-0.0012184512
-0.0021813363
-0.0031113454
-0.0041011981
-0.0050679727
-0.0059976946
-0.0068691307
-0.0076455294
-0.0083782297
-0.0090091874
-0.00049570535
-0.0011637781
-0.0021032065
-0.0030252754
-0.0040220443
-0.0050088397
-0.0059767286
-0.0068775251
-0.0077089041
-0.0084260571
-0.0090983917
-0.0096619303
-0.00047320435
-0.0011033663
-0.0020148051
-0.0029243433
-0.0039218809
-0.0049286264
-0.0059272521
-0.0068777572
-0.0077444888
-0.0085216545
-0.0091714433
-0.0097749192
-0.010264774
-0.00045210708
-0.0010374314
-0.0019173722
-0.0028090094
-0.0038024197
-0.0048230621
-0.0058537429
-0.0068469449
-0.0077744314
-0.0085923516
-0.0093069377
-0.0098774471
-0.010404148
-0.010814356
-0.00043404715
-0.00096609743
-0.0018121945
-0.0026807273
-0.0036642409
-0.0046938112
-0.0057505787
-0.0067892378
-0.0077716845
-0.0086608053
-0.0094203857
-0.010058592
-0.01054028
-0.010982455
-0.011307651
-0.00042126868
-0.00088921523
-0.0017008108
-0.0025409127
-0.0035092558
-0.004541319
-0.0056191512
-0.0066976903
-0.0077397812
-0.0086958214
-0.0095367539
-0.010222382
-0.010773314
-0.011155981
-0.011506515
-0.011742021
-0.0004142101
-0.00080771867
-0.001584632
-0.0023911741
-0.0033395024
-0.0043676387
-0.0054596447
-0.0065732833
-0.0076700579
-0.0087002204
-0.0096200176
-0.010395854
-0.010995831
-0.011446346
-0.01172088
-0.011973362
-0.012115289
-0.0004112066
-0.00072235253
-0.0014657591
-0.0022330104
-0.0031573911
-0.0041749827
-0.0052742391
-0.006415723
-0.0075628397
-0.0086632305
-0.0096719079
-0.010537789
-0.011235804
-0.011734516
-0.012073841
-0.012231509
-0.012380457
-0.012425918
-0.00040896384
-0.0006345249
-0.0013453131
-0.0020687421
-0.0029652721
-0.0039659815
-0.0050654391
-0.00622709
-0.0074171443
-0.0085842517
-0.0096793324
-0.010648606
-0.011447096
-0.012049847
-0.012434984
-0.012651393
-0.012684785
-0.01272574
-0.012673219
-0.00040141178
-0.00054757226
-0.0012237699
-0.0019002768
-0.0027660504
-0.0037432826
-0.0048363499
-0.0060099252
-0.0072348028
-0.0084613599
-0.0096404899
-0.01071258
-0.011628603
-0.012340846
-0.012834249
-0.013091473
-0.013175446
-0.013078026
-0.013007834
-0.012856971
-0.00038098444
-0.0004654599
-0.001101985
-0.0017296028
-0.0025618456
-0.0035102137
-0.0045901994
-0.0057675271
-0.0070183181
-0.0082958913
-0.0095522588
-0.01072644
-0.01176176
-0.012604708
-0.013215049
-0.013582336
-0.013700158
-0.013642533
-0.013409368
-0.013226272
-0.012976367
-0.00034007442
-0.00039280384
-0.00098007431
-0.0015597482
-0.0023544712
-0.003269587
-0.0043307346
-0.0055034572
-0.0067711822
-0.0080900824
-0.0094152564
-0.010685588
-0.011841558
-0.012819805
-0.013572808
-0.014062346
-0.014289608
-0.014256087
-0.014050349
-0.013678004
-0.01338113
-0.013030764
-0.00027265049
-0.00033417752
-0.00085796912
-0.0013935725
-0.0021462902
-0.0030241867
-0.0040612114
-0.0052218442
-0.0064973257
-0.0078474096
-0.0092312689
-0.010589672
-0.011861634
-0.012979149
-0.0138827
-0.014525039
-0.014877515
-0.014949906
-0.014755883
-0.014396244
-0.01388344
-0.013471895
-0.01302397
-0.00017555341
-0.00029330121
-0.00073561656
-0.0012339044
-0.0019394457
-0.0027775216
-0.0037846238
-0.00492645
-0.0062012479
-0.0075719805
-0.0090036405
-0.010439759
-0.01182041
-0.01307433
-0.014135523
-0.014942294
-0.015455586
-0.015653345
-0.015558692
-0.015195443
-0.014678127
-0.014024192
-0.013497661
-0.012958831
-4.9133553e-05
-0.00027236175
-0.00061314619
-0.0010833274
-0.0017361721
-0.0025327336
-0.0035044916
-0.0046209516
-0.0058872746
-0.0072685458
-0.0087365794
-0.010238841
-0.011717973
-0.013102254
-0.014320558
-0.015302505
-0.015992379
-0.016356304
-0.016384156
-0.016110641
-0.015572004
-0.014894094
-0.014099285
-0.013462378
-0.012838476
0.00010276189
-0.00027164408
-0.00049098112
-0.00094398328
-0.0015386873
-0.0022928349
-0.0032242251
-0.0043095258
-0.0055595936
-0.0069419185
-0.0084350743
-0.0099910276
-0.011556737
-0.013061764
-0.014432889
-0.015592403
-0.016473744
-0.017024064
-0.017220461
-0.017063328
-0.016601713
-0.015882723
-0.015043707
-0.014111194
-0.013369051
-0.012664423
0.00027340408
-0.00028953433
-0.00036983038
-0.00081741058
-0.0013491158
-0.0020606842
-0.0029473927
-0.0039962353
-0.0052227675
-0.0065968478
-0.0081044128
-0.0097013918
-0.011340541
-0.012954395
-0.014469828
-0.015804965
-0.016883651
-0.017639836
-0.018029714
-0.018040133
-0.017685453
-0.017027861
-0.016126136
-0.015127432
-0.014061781
-0.013220209
-0.01243946
0.00045513067
-0.00032216864
-0.00025062126
-0.00070442052
-0.0011693998
-0.0018389623
-0.002677556
-0.0036852105
-0.0048813412
-0.0062384559
-0.0077498884
-0.0093755415
-0.011074433
-0.012783474
-0.014431757
-0.01593565
-0.017212698
-0.018184676
-0.018792459
-0.019000197
-0.018808502
-0.018245009
-0.017386242
-0.016301341
-0.015146422
-0.01395362
-0.013018521
-0.01216679
0.00064153216
-0.00036034045
-0.00013508139
-0.00060530323
-0.0010009633
-0.0016300868
-0.0024180507
-0.0033805923
-0.0045400024
-0.0058719957
-0.0073771313
-0.0090192345
-0.010764254
-0.012553815
-0.014321199
-0.015983391
-0.017454185
-0.018646564
-0.019486738
-0.019921441
-0.019927325
-0.019518448
-0.018737601
-0.017674507
-0.016408342
-0.015102265
-0.013789248
-0.012767026
-0.01184999
0.00082100137
-0.00038826399
-2.8825145e-05
-0.00051981198
-0.00084455103
-0.0014362903
-0.0021717942
-0.0030864165
-0.0042035738
-0.0055028591
-0.0069919814
-0.0086386239
-0.010416183
-0.012271288
-0.014142531
-0.015949611
-0.017605255
-0.019016345
-0.020097715
-0.020778875
-0.021017355
-0.020802359
-0.020163877
-0.019159249
-0.017891289
-0.016447706
-0.014997025
-0.013571588
-0.012468972
-0.011492731
0.00099136598
-0.00041580201
6.1797586e-05
-0.00044574329
-0.00070146609
-0.0012591911
-0.0019410701
-0.0028064527
-0.0038768227
-0.0051366072
-0.0066004466
-0.0082402071
-0.01003686
-0.011942343
-0.013901478
-0.015837943
-0.017665922
-0.019289049
-0.020613518
-0.021554708
-0.022050629
-0.022069915
-0.021617453
-0.020739018
-0.019506982
-0.018035865
-0.016420643
-0.014833152
-0.013303773
-0.012127909
-0.011098797
0.0011699813
-0.00045694255
0.00014231067
-0.00037340628
-0.00057439304
-0.0011001593
-0.0017278497
-0.0025439204
-0.0035642192
-0.0047788092
-0.006208784
-0.0078307293
-0.0096333601
-0.011574021
-0.013604641
-0.015653713
-0.017638787
-0.01946292
-0.021026736
-0.022234129
-0.023006335
-0.023290335
-0.023069543
-0.022364919
-0.021239096
-0.019778527
-0.018108322
-0.016328896
-0.014613476
-0.012989205
-0.01174749
-0.010671951
0.0013494165
-0.00050684032
0.00021865704
-0.00030563902
-0.00045980867
-0.00095925553
-0.0015344287
-0.0023013025
-0.0032696269
-0.0044347869
-0.005823352
-0.0074172675
-0.0092130749
-0.011173939
-0.013259377
-0.015403455
-0.017528494
-0.019539191
-0.021333498
-0.022806993
-0.023866558
-0.024439796
-0.02448679
-0.024006588
-0.023038017
-0.021660022
-0.019972552
-0.018109402
-0.016174733
-0.014341158
-0.012631454
-0.011331477
-0.01021594
0.0015215687
-0.00055825879
0.00029887476
-0.00026236552
-0.00035113598
-0.00082171151
-0.0013624653
-0.0020811664
-0.0029962123
-0.004109224
-0.0054503342
-0.0070070879
-0.0087838133
-0.01075017
-0.012873744
-0.015094676
-0.01734128
-0.019521519
-0.021533304
-0.023266963
-0.024618157
-0.025497189
-0.025842465
-0.025628432
-0.02487224
-0.023630632
-0.021998745
-0.020088499
-0.01804054
-0.015960877
-0.014019626
-0.012234235
-0.010883628
-0.0097344141
0.0016803109
-0.00061001459
0.00037972521
-0.0002253825
-0.00025842152
-0.00068038358
-0.0011981884
-0.0018847038
-0.0027473772
-0.003805974
-0.0050953097
-0.0066073526
-0.008353693
-0.010311327
-0.012456401
-0.014735758
-0.017084631
-0.019415531
-0.021628486
-0.023611431
-0.025252008
-0.026446177
-0.027112254
-0.02720101
-0.026704348
-0.025658192
-0.024137704
-0.022253097
-0.020126664
-0.017903778
-0.015690455
-0.01365253
-0.011801322
-0.010407676
-0.0092309192
0.0018206155
-0.00066014149
0.00045480209
-0.00018651077
-0.00016869705
-0.0005748299
-0.0010376743
-0.0016935452
-0.0025251431
-0.0035290935
-0.0047630217
-0.0062246262
-0.0079308566
-0.0098664615
-0.01201667
-0.014335883
-0.016767099
-0.019228425
-0.021623741
-0.023841021
-0.02576302
-0.027274551
-0.028276486
-0.028696886
-0.028502489
-0.027703954
-0.026357152
-0.024555126
-0.022421902
-0.020088114
-0.017701725
-0.015366931
-0.013243668
-0.01133651
-0.0099072619
-0.0087088494
0.001938065
-0.00070597319
0.00052115618
-0.00015178297
-8.2385954e-05
-0.00048631826
-0.00091101795
-0.001506921
-0.0023087432
-0.0032809831
-0.0044585192
-0.0058645662
-0.0075229402
-0.0094247762
-0.011564463
-0.013905065
-0.016398242
-0.018968728
-0.021525697
-0.023959136
-0.026149717
-0.027974382
-0.029319633
-0.030093001
-0.030236283
-0.029734022
-0.028617573
-0.026962774
-0.024879913
-0.02250491
-0.019974663
-0.01743748
-0.014994035
-0.012796931
-0.010843556
-0.0093859117
-0.0081714383
0.0020290608
-0.00074518963
0.0005779116
-0.00012382268
-2.8111351e-06
-0.00039677494
-0.00079018462
-0.0013649094
-0.0020987174
-0.0030373034
-0.004185153
-0.0055331642
-0.0071366894
-0.0089950481
-0.011110026
-0.01345409
-0.015988627
-0.018646211
-0.021342615
-0.023971493
-0.026413816
-0.028541692
-0.030230598
-0.031370334
-0.031879327
-0.031715371
-0.030883474
-0.029436368
-0.027469919
-0.025110137
-0.022502815
-0.019788798
-0.017114564
-0.014575699
-0.012316241
-0.010326138
-0.0088470015
-0.0076217311
0.0020909075
-0.0007759619
0.00062427919
-0.00010165828
6.5675123e-05
-0.00031252768
-0.00067078963
-0.001226379
-0.0019359897
-0.0028009538
-0.0039153969
-0.0052346623
-0.0067793042
-0.0085851675
-0.010663335
-0.012994262
-0.015549795
-0.018271877
-0.02108425
-0.023885782
-0.026559758
-0.028976095
-0.031002515
-0.032514346
-0.033409016
-0.033618396
-0.033119561
-0.031939393
-0.030152735
-0.027874612
-0.025244993
-0.022417176
-0.019533608
-0.016736838
-0.014115983
-0.011805503
-0.0097878185
-0.0082937369
-0.0070625808
0.0021221288
-0.00079728565
0.00065951208
-8.4415979e-05
0.00012282455
-0.00024012812
-0.00055907054
-0.0010874612
-0.0017701071
-0.0026194763
-0.0036531264
-0.0049381322
-0.0064563179
-0.008203581
-0.010233559
-0.012536788
-0.015094032
-0.017857925
-0.020761829
-0.023711485
-0.026594323
-0.029280349
-0.031632474
-0.033514915
-0.034807153
-0.035416918
-0.03529329
-0.034434725
-0.032891438
-0.030760298
-0.028174148
-0.025284743
-0.022250365
-0.019212702
-0.016308426
-0.013619013
-0.011268554
-0.0092320121
-0.0077291359
-0.0064966349
-0.00080813442
0.0021221289
0.00068243889
-7.1655272e-05
0.00016879006
-0.00018000195
-0.00046364571
-0.00095800886
-0.0016055497
-0.0024289194
-0.0034482608
-0.0046491817
-0.0061333691
-0.0078571571
-0.0098305865
-0.012092158
-0.014633763
-0.017417552
-0.020388019
-0.023459819
-0.026526399
-0.029459941
-0.032121121
-0.034366196
-0.036060051
-0.037088947
-0.037375022
-0.036887236
-0.035647676
-0.0337305
-0.031254053
-0.028367078
-0.025230684
-0.022005478
-0.018830119
-0.01583364
-0.013088926
-0.010709128
-0.0086619659
-0.0071560174
-0.0059263365
0.00069313321
-0.00080813444
0.0020909078
-6.3949962e-05
0.00020352484
-0.00013202334
-0.00038470171
-0.00084738671
-0.0014516035
-0.0022390126
-0.0032254512
-0.0044173702
-0.005816916
-0.0075078538
-0.009462959
-0.011671751
-0.014180858
-0.016964353
-0.019976763
-0.023143707
-0.026366894
-0.029522806
-0.032472232
-0.035066278
-0.037158532
-0.038616976
-0.039338943
-0.039264062
-0.038384167
-0.036746305
-0.03444892
-0.031630402
-0.028453207
-0.025085067
-0.021686251
-0.018390242
-0.015316899
-0.01252981
-0.010130814
-0.0080807384
-0.0065769959
-0.0053539207
-6.0776113e-05
0.00069313326
-0.00079728563
0.0020290612
0.00022581855
-9.6340816e-05
-0.00032174278
-0.00075577025
-0.0013201261
-0.0020610217
-0.0030051796
-0.0041575976
-0.0055575097
-0.0071638423
-0.009089064
-0.011285896
-0.013748314
-0.01651157
-0.019542711
-0.022777647
-0.026128694
-0.029479197
-0.032692389
-0.035616782
-0.038097688
-0.039988142
-0.04116355
-0.041535642
-0.04106515
-0.039768864
-0.037719952
-0.035040522
-0.031887205
-0.028433538
-0.024851018
-0.021296954
-0.017897705
-0.014762671
-0.011945661
-0.009537039
-0.0074911905
-0.005994476
-0.0047814208
0.00023598168
-6.0776069e-05
0.000682439
-0.00077596191
0.0019380656
-7.4475189e-05
-0.00027471779
-0.00068269352
-0.0012113964
-0.0019088988
-0.0027983829
-0.0039057664
-0.0052574349
-0.0068763374
-0.0087184448
-0.010889316
-0.013348533
-0.016073829
-0.019100435
-0.022377178
-0.02582657
-0.029341636
-0.032790796
-0.0360225
-0.038876533
-0.041194122
-0.042832003
-0.043676407
-0.043657513
-0.042759965
-0.041027407
-0.038559497
-0.035500752
-0.032023754
-0.028310205
-0.024532433
-0.020842294
-0.01735731
-0.014175399
-0.011340347
-0.0089310423
-0.006895973
-0.0054106534
-0.0042106726
-6.5776319e-05
0.00023598174
-6.3949811e-05
0.00065951228
-0.00074518959
0.0018206162
-0.00024524564
-0.00062814583
-0.0011247904
-0.0017830596
-0.0026216047
-0.0036692141
-0.0049680248
-0.0065322584
-0.0084008619
-0.010493526
-0.012932699
-0.015665739
-0.018666218
-0.021958089
-0.025476708
-0.02912484
-0.032779209
-0.036291158
-0.039497606
-0.042230863
-0.044332177
-0.045665316
-0.046131661
-0.045683224
-0.044331211
-0.042147392
-0.039257516
-0.035826692
-0.032040736
-0.028086376
-0.024133866
-0.02032731
-0.016773945
-0.013559461
-0.010717574
-0.0083158557
-0.0062975206
-0.0048275231
-0.003643325
-0.00023259285
-6.5776214e-05
0.00022581878
-7.1655034e-05
0.00062427946
-0.00070597313
0.0016803116
-0.00059398701
-0.0010602324
-0.0016828375
-0.0024754936
-0.0034665043
-0.0046963379
-0.0062015148
-0.0080068597
-0.010144429
-0.012514246
-0.015234931
-0.01825709
-0.021538245
-0.025095926
-0.028845323
-0.032671883
-0.036433294
-0.039966683
-0.043098178
-0.04565651
-0.047486113
-0.048462241
-0.048505169
-0.047592156
-0.045762944
-0.043118147
-0.039808383
-0.036017074
-0.031940154
-0.027766139
-0.023660412
-0.019757274
-0.01615252
-0.012919113
-0.010080849
-0.0076942847
-0.0056980678
-0.0042469017
-0.0030808317
-0.000579365
-0.00023259274
-7.4474902e-05
0.00020352519
-8.4415615e-05
0.00057791198
-0.00066014133
0.0015215695
-0.0010197605
-0.0016081754
-0.0023592515
-0.0032988221
-0.004463446
-0.0058911795
-0.0076288273
-0.0096950618
-0.012131945
-0.014797289
-0.017817252
-0.021137193
-0.024703552
-0.028520663
-0.032485256
-0.036462235
-0.040292596
-0.043799409
-0.046801618
-0.049127317
-0.050628595
-0.05119614
-0.050773122
-0.049364709
-0.04704093
-0.043930864
-0.040208338
-0.036072229
-0.031725223
-0.027354376
-0.023117593
-0.019137608
-0.015497895
-0.012258433
-0.0094334459
-0.0070689455
-0.0050996875
-0.0036703893
-0.0025244582
-0.0010023559
-0.00057936489
-0.00024524534
-9.6340321e-05
0.00016879059
-0.00010165779
0.00052115665
-0.00061001436
0.0013494173
-0.001561327
-0.0022727581
-0.0031654294
-0.0042708166
-0.0056249566
-0.0072745555
-0.00926495
-0.01162076
-0.014380638
-0.017365231
-0.020695726
-0.024321757
-0.028171433
-0.032237304
-0.036393852
-0.040487205
-0.044341152
-0.04776791
-0.050581889
-0.052614969
-0.053730916
-0.053840235
-0.052912372
-0.050982837
-0.048152789
-0.044578764
-0.040455482
-0.035994005
-0.031400245
-0.026856642
-0.022511263
-0.018473793
-0.014814788
-0.011581271
-0.0087784761
-0.0064423251
-0.0045041875
-0.003099266
-0.0019753983
-0.0015411124
-0.0010023558
-0.00059398665
-0.00027471727
-0.00013202265
0.00012282525
-0.00012382203
0.00045480268
-0.00055825839
0.0011699821
-0.0022184235
-0.0030662243
-0.0041176589
-0.0054046828
-0.0069705503
-0.0088622945
-0.011132233
-0.013801407
-0.01691325
-0.020235547
-0.02388801
-0.027822416
-0.031949527
-0.036246045
-0.04056524
-0.044733218
-0.0485592
-0.051846824
-0.05441023
-0.056089185
-0.056763672
-0.056367993
-0.054900937
-0.052430308
-0.049088238
-0.045057148
-0.040549739
-0.035785662
-0.030970487
-0.026279052
-0.021847478
-0.017771228
-0.014107712
-0.010891361
-0.0081189687
-0.005816541
-0.0039128597
-0.0025347946
-0.0014348415
-0.0021948593
-0.0015411122
-0.0010197601
-0.00062814525
-0.00032174205
-0.00018000103
6.5676034e-05
-0.00015178216
0.0003797259
-0.00050683979
0.00099136687
-0.0030038151
-0.0040038543
-0.0052295822
-0.0067189756
-0.0085165283
-0.010675416
-0.01324874
-0.016259318
-0.019747955
-0.023427592
-0.02740776
-0.031649253
-0.036040792
-0.040543945
-0.044988546
-0.049182625
-0.052922585
-0.056007521
-0.058255285
-0.059518399
-0.059697218
-0.05875366
-0.056718494
-0.053692941
-0.04983923
-0.045363409
-0.040492767
-0.035451751
-0.030442064
-0.025628126
-0.021132309
-0.017035153
-0.013381145
-0.01019243
-0.0074574337
-0.0051928467
-0.0033271652
-0.0019791391
-0.00090316288
-0.0029766173
-0.0021948592
-0.0015613266
-0.0010602318
-0.00068269267
-0.00038470072
-0.00024012698
-2.8100253e-06
-0.00018650976
0.00029887561
-0.00045694179
0.00082100231
-0.003932159
-0.0050995567
-0.0065190539
-0.0082302289
-0.010283024
-0.012732455
-0.015635895
-0.019013019
-0.022904646
-0.026956935
-0.031267303
-0.035807771
-0.04044521
-0.045123044
-0.049648612
-0.05381299
-0.057403382
-0.060218164
-0.062083803
-0.062870167
-0.062502222
-0.060972722
-0.058346726
-0.054758855
-0.050400026
-0.045496994
-0.04028788
-0.034998012
-0.029821746
-0.024910533
-0.020371755
-0.016270907
-0.012639661
-0.0094874668
-0.0067950849
-0.0045731032
-0.0027507447
-0.0014334012
-0.00035363334
-0.003900746
-0.0029766172
-0.0022184231
-0.0016081747
-0.0011247895
-0.00075576914
-0.00046364447
-0.00031252629
-8.2384596e-05
-0.00022538128
0.00021865805
-0.00041580104
0.00064153328
-0.0050175177
-0.0063707012
-0.0080027214
-0.0099579466
-0.012288675
-0.015054219
-0.018312593
-0.022082518
-0.02639987
-0.030837936
-0.035474361
-0.040300751
-0.045157799
-0.049970945
-0.054525182
-0.058597659
-0.061969885
-0.064444345
-0.065861058
-0.066111822
-0.065150146
-0.063002503
-0.059769539
-0.055618621
-0.050767214
-0.045459363
-0.039939955
-0.034431148
-0.029116637
-0.024133003
-0.019572106
-0.015484083
-0.011886818
-0.0087775977
-0.0061343322
-0.003963645
-0.0021850533
-0.00086317307
0.00022104027
-0.0049813807
-0.0039007459
-0.0030038146
-0.0022727574
-0.0016828365
-0.0012113952
-0.00084738529
-0.00055906901
-0.00039677329
-0.00016869546
-0.00026236408
0.00014231199
-0.00038826271
0.00045513197
-0.0062769614
-0.0078339809
-0.0096996112
-0.011920746
-0.014553762
-0.01765971
-0.021298514
-0.025485137
-0.030248921
-0.035080272
-0.040034325
-0.045126109
-0.050169051
-0.05506994
-0.059593397
-0.063505657
-0.066587198
-0.068649511
-0.069551632
-0.069211128
-0.067613888
-0.064822489
-0.060973337
-0.056265342
-0.050939738
-0.045253944
-0.039455185
-0.033758423
-0.028334092
-0.023302836
-0.018740122
-0.0146789
-0.011123609
-0.0080659939
-0.0054848192
-0.0033662248
-0.0015815783
-0.00027084899
0.00080689516
-0.006235458
-0.0049813805
-0.0039321585
-0.0030662235
-0.0023592504
-0.0017830583
-0.0013201246
-0.00095800714
-0.0006707878
-0.00048631629
-0.0002584196
-0.00030563723
6.1799282e-05
-0.00036033889
0.00027340571
-0.0077271972
-0.0095080901
-0.011628281
-0.014138464
-0.017097318
-0.020568309
-0.024611258
-0.029236132
-0.034462049
-0.039691844
-0.044947785
-0.0502772
-0.055464022
-0.06039741
-0.064823637
-0.068502207
-0.071217597
-0.072795784
-0.073119755
-0.072136739
-0.069868342
-0.066414574
-0.061947175
-0.056694766
-0.050918908
-0.044885856
-0.038840594
-0.032987608
-0.02748242
-0.022428085
-0.017880737
-0.013856057
-0.010354167
-0.0073666583
-0.0048486447
-0.0027050237
-0.00096519901
0.00033707424
0.001402558
-0.0076796919
-0.0062354579
-0.0050175172
-0.0040038535
-0.0031654283
-0.0024754922
-0.0019088972
-0.0014516017
-0.0010874591
-0.00079018245
-0.00057482762
-0.00035113366
-0.00037340399
-2.8822985e-05
-0.00032216672
0.00010276388
-0.0093867134
-0.011411508
-0.013808223
-0.016630086
-0.019938476
-0.023797783
-0.028265986
-0.033347513
-0.039048289
-0.044675806
-0.050210756
-0.055741894
-0.061022626
-0.065925656
-0.070181887
-0.073549066
-0.075821163
-0.076844366
-0.076530071
-0.074858949
-0.07189075
-0.067763322
-0.062682974
-0.056905382
-0.050708109
-0.044361347
-0.03810403
-0.032127939
-0.026571053
-0.021514416
-0.016994248
-0.013020756
-0.0095978484
-0.0066821019
-0.0041155228
-0.0020407268
-0.00032695439
0.00095564294
0.0020080515
-0.0093324724
-0.0076796917
-0.0062769609
-0.0050995558
-0.0041176578
-0.0032988207
-0.0026216029
-0.0020610197
-0.0016055474
-0.0012263766
-0.00091101543
-0.00068038087
-0.00045980584
-0.00044574056
-0.00013507879
-0.00028953215
-4.9131118e-05
-0.011273926
-0.013563472
-0.016258317
-0.01941451
-0.023095035
-0.027363787
-0.032276598
-0.037829968
-0.044012055
-0.050030753
-0.05581374
-0.061502742
-0.06681953
-0.071622077
-0.07563003
-0.078605151
-0.080356506
-0.0807564
-0.079748201
-0.077350152
-0.073660872
-0.06885628
-0.06317571
-0.056898108
-0.050312137
-0.043687862
-0.03725547
-0.031190256
-0.025606346
-0.020561545
-0.016087203
-0.012199421
-0.0088576099
-0.0058558506
-0.0033924083
-0.0013468838
0.00032253292
0.0015861991
0.0026226004
-0.011212195
-0.0093324722
-0.0077271967
-0.0063707003
-0.005229581
-0.0042708151
-0.0034665024
-0.0027983807
-0.0022390102
-0.0017701045
-0.0013649065
-0.0010376713
-0.00082170831
-0.00057438972
-0.0005198088
-0.00025061822
-0.00027164168
-0.00017555057
-0.013407909
-0.015982761
-0.018997261
-0.022509463
-0.02658301
-0.031280582
-0.036654475
-0.042689583
-0.049353277
-0.055749817
-0.06174173
-0.067537059
-0.072824109
-0.077449345
-0.081126517
-0.08362708
-0.084781528
-0.084493614
-0.082742113
-0.079585194
-0.075161455
-0.069684301
-0.063423091
-0.05667552
-0.049737414
-0.04287581
-0.036307106
-0.03018146
-0.024587144
-0.019577681
-0.015194399
-0.011395359
-0.0079200827
-0.0050543249
-0.0026291127
-0.00064193712
0.00098570576
0.0022269013
0.0032457827
-0.013337857
-0.011212195
-0.0093867129
-0.0078339801
-0.0065190526
-0.0054046812
-0.004463444
-0.0036692118
-0.003005177
-0.0024289165
-0.0019359866
-0.0015069176
-0.0011981848
-0.00095925179
-0.00070146226
-0.00060529963
-0.000369827
-0.00027235928
-0.0002726473
-0.015807359
-0.018687895
-0.022042666
-0.025931131
-0.030416844
-0.035560028
-0.041406892
-0.047928478
-0.055066722
-0.061820505
-0.067974627
-0.073816684
-0.079000341
-0.083366267
-0.086626681
-0.08856998
-0.089054385
-0.088018835
-0.085481877
-0.081541793
-0.076378722
-0.070241182
-0.063424641
-0.056242249
-0.048994333
-0.041938569
-0.035266104
-0.029099079
-0.023523651
-0.018607606
-0.014319813
-0.010324297
-0.0070242422
-0.0041995373
-0.001855927
7.7741586e-05
0.0016597236
0.0028774694
0.0038769368
-0.015728119
-0.013337857
-0.011273926
-0.0095080893
-0.0080027202
-0.0067189739
-0.0056249546
-0.0046963356
-0.0039057636
-0.0032254481
-0.0026194729
-0.0020987138
-0.0016935413
-0.0013624612
-0.001100155
-0.00084454676
-0.00070441658
-0.00049097746
-0.00029329879
-0.00034007103
-0.01849068
-0.021696384
-0.025410746
-0.029694052
-0.034608688
-0.040210441
-0.046537597
-0.053544225
-0.061141618
-0.068225608
-0.074486905
-0.080307186
-0.085308203
-0.089327736
-0.092083509
-0.093388381
-0.093133524
-0.091297466
-0.087940068
-0.083201307
-0.077302015
-0.070522567
-0.063182342
-0.055608111
-0.048097172
-0.040883108
-0.034128012
-0.027955666
-0.022472628
-0.017656306
-0.013092369
-0.0093141653
-0.0060589852
-0.0033366274
-0.001066827
0.00080858007
0.0023445334
0.0035367617
0.0045154645
-0.018401334
-0.015728119
-0.013407908
-0.011411507
-0.00969961
-0.0082302273
-0.0069705482
-0.0058911769
-0.0049680219
-0.0041575943
-0.0034482572
-0.0028009498
-0.0023087389
-0.0018846992
-0.001534424
-0.0012591864
-0.0010009586
-0.00081740647
-0.00061314244
-0.00033417526
-0.00038098105
-0.021475295
-0.025024401
-0.029116068
-0.033810552
-0.039167571
-0.045236731
-0.052046239
-0.059528715
-0.067563111
-0.074942879
-0.081245298
-0.086970504
-0.091703072
-0.095285288
-0.097448694
-0.098037162
-0.096978629
-0.094296832
-0.090092553
-0.084548286
-0.077922395
-0.070526889
-0.06270477
-0.054787872
-0.047052006
-0.039702037
-0.032908093
-0.026822413
-0.02144046
-0.01624663
-0.011947268
-0.0082152448
-0.0050881609
-0.0024578645
-0.00026620187
0.0015504961
0.0030385848
0.0042039632
0.0051607176
-0.021374895
-0.018401334
-0.015807359
-0.013563472
-0.01162828
-0.0099579449
-0.0085165261
-0.0072745529
-0.0062015118
-0.0052574315
-0.0044173664
-0.0036531222
-0.0030372988
-0.0025251382
-0.0020811613
-0.0017278446
-0.0014362853
-0.0011693949
-0.00094397911
-0.0007356128
-0.0003928018
-0.00040140856
-0.024777335
-0.028686482
-0.033171015
-0.038290069
-0.04409922
-0.050640013
-0.057927047
-0.065870035
-0.074312622
-0.08194012
-0.088214114
-0.093763601
-0.098135709
-0.10118849
-0.10267363
-0.1024719
-0.10055332
-0.096987305
-0.091918604
-0.085568603
-0.078233902
-0.0702608
-0.062006683
-0.05378574
-0.045847188
-0.038413694
-0.031695
-0.025707566
-0.01982035
-0.014943395
-0.010690193
-0.0071145069
-0.0041018128
-0.0015679403
0.00054526461
0.0023017308
0.0037408958
0.0048780162
0.0058121283
-0.02466491
-0.021374895
-0.01849068
-0.01598276
-0.013808221
-0.011920744
-0.010283022
-0.0088622919
-0.0076288241
-0.0065322548
-0.0055575056
-0.0046491771
-0.0039153919
-0.0032809778
-0.0027473717
-0.0023012969
-0.0019410647
-0.0016300815
-0.0013491109
-0.0010833233
-0.0008579655
-0.00046545807
-0.00040896101
-0.02841129
-0.032695002
-0.037585223
-0.043138849
-0.04940574
-0.056416514
-0.064170206
-0.072557218
-0.081357888
-0.089185436
-0.095352685
-0.10063722
-0.10455423
-0.10698599
-0.10771012
-0.10664939
-0.10382521
-0.099343843
-0.093398631
-0.086251037
-0.078240611
-0.069738543
-0.06108915
-0.052584016
-0.044504471
-0.037127908
-0.030499357
-0.023845993
-0.018333718
-0.013500537
-0.0094363479
-0.0059990598
-0.0031050264
-0.00066748014
0.0013660604
0.0030610776
0.0044500817
0.0055584842
0.0064688763
-0.028285839
-0.02466491
-0.021475294
-0.018687895
-0.016258316
-0.014138463
-0.012288673
-0.010675413
-0.0092649467
-0.0080068559
-0.0068763332
-0.0058169112
-0.0049381269
-0.0041851473
-0.0035290876
-0.0029962063
-0.0025439145
-0.0021717886
-0.001838957
-0.0015386825
-0.0012339005
-0.00098007091
-0.00054757065
-0.00041120421
-0.032389504
-0.03705967
-0.042365234
-0.048359623
-0.055084762
-0.062558449
-0.070765298
-0.079561602
-0.088670193
-0.09664205
-0.10261186
-0.10753872
-0.11090552
-0.11262602
-0.11251142
-0.11053084
-0.10676325
-0.10134267
-0.094515843
-0.086596531
-0.077955814
-0.068956559
-0.059926023
-0.051208215
-0.043159392
-0.035858244
-0.028362542
-0.02214862
-0.016674493
-0.01206759
-0.0081690422
-0.0048744031
-0.0020983033
0.00024188463
0.0021943158
0.0038268875
0.0051661183
0.0062441194
0.0071302397
-0.032250019
-0.028285839
-0.024777335
-0.021696383
-0.018997259
-0.016630084
-0.01455376
-0.012732452
-0.01113223
-0.0096950579
-0.0084008574
-0.0071638372
-0.0061333636
-0.0052346564
-0.0044585129
-0.0038059676
-0.0032696206
-0.0028064466
-0.0024180451
-0.002060679
-0.0017361675
-0.0013935689
-0.0011019819
-0.00063452343
-0.00041420827
-0.036721702
-0.041787161
-0.047514122
-0.053950937
-0.061129992
-0.069055614
-0.07768844
-0.086852073
-0.096218409
-0.10426187
-0.10993779
-0.1144147
-0.11713518
-0.1180577
-0.11703188
-0.11408116
-0.10933499
-0.10296045
-0.095268131
-0.086617391
-0.077369655
-0.067877118
-0.058546959
-0.049825145
-0.041829052
-0.033409932
-0.026425007
-0.020239175
-0.01503382
-0.010622946
-0.0068942673
-0.0037408094
-0.0010833765
0.0011578542
0.0030285071
0.0046000008
0.0058866967
0.0069341288
0.007795487
-0.036567181
-0.032250019
-0.028411289
-0.025024401
-0.022042665
-0.019414509
-0.017097315
-0.015054216
-0.013248737
-0.011620756
-0.010144424
-0.0087184394
-0.007507848
-0.0064563117
-0.0055331576
-0.004763015
-0.0041092174
-0.0035642128
-0.0030864104
-0.0026775505
-0.00229283
-0.0019394413
-0.0015597448
-0.0012237671
-0.00072235123
-0.00042126732
-0.041414601
-0.046880724
-0.053031005
-0.059907436
-0.067531594
-0.075888545
-0.084909841
-0.094409969
-0.10395797
-0.11198977
-0.11727809
-0.12120927
-0.1231885
-0.12323293
-0.12123174
-0.11726635
-0.11150987
-0.10418982
-0.095667528
-0.086295982
-0.076429199
-0.06653401
-0.057157225
-0.048455877
-0.039030975
-0.03120125
-0.024228028
-0.018359292
-0.013383744
-0.0091731729
-0.0056119587
-0.0026000409
-6.2906592e-05
0.0020787637
0.003870936
0.0053770484
0.006610905
0.0076273409
0.0084639208
-0.041244057
-0.036567181
-0.032389504
-0.028686482
-0.025410745
-0.022509462
-0.019938474
-0.017659707
-0.015635892
-0.013801403
-0.01213194
-0.010493521
-0.0090890579
-0.0078571506
-0.0067792973
-0.0058645592
-0.0050953027
-0.0044347801
-0.0038768163
-0.0033805864
-0.0029473874
-0.0025327289
-0.0021462862
-0.0017295997
-0.0013453106
-0.00080771746