/*--------------------------------*- C++ -*----------------------------------*\
| =========                 |                                                 |
| \\      /  F ield         | OpenFOAM: The Open Source CFD Toolbox           |
|  \\    /   O peration     | Version:  5.0                                   |
|   \\  /    A nd           | Web:      www.OpenFOAM.org                      |
|    \\/     M anipulation  |                                                 |
\*---------------------------------------------------------------------------*/
FoamFile
{
    version     2.0;
    format      ascii;
    class       surfaceScalarField;
    location    "300";
    object      phi;
}
// * * * * * * * * * * * * * * * * * * * * * * * * * * * * * * * * * * * * * //

dimensions      [0 3 -1 0 0 0 0];

internalField   nonuniform List<scalar> 
18180
(
0.0012997873
-1.3981078
0.0025159012
-1.3077486
0.0012600521
-1.3993678
0.0036467566
-1.2235711
0.0024339141
-1.3089224
0.0012174461
-1.4005853
0.0046993112
-1.1449866
0.0035309354
-1.2246682
0.0023549144
-1.3100599
0.0011789465
-1.4017642
0.0056725951
-1.0715993
0.0045525753
-1.1460083
0.0034195065
-1.2257328
0.00228202
-1.311163
0.0011392715
-1.4029035
0.0065709482
-1.0029922
0.0055005649
-1.0725473
0.0044123461
-1.1470011
0.0033178949
-1.2267686
0.0022083927
-1.3122321
0.0010991216
-1.4040026
0.0073949753
-0.93882051
0.0063771948
-1.0038688
0.0053366179
-1.0734716
0.0042882549
-1.1479715
0.0032156328
-1.2277759
0.0021338035
-1.3132668
0.0010565635
-1.4050592
0.0081474183
-0.87876433
0.0071838535
-0.93962717
0.006193678
-1.0047259
0.0051961844
-1.0743795
0.0041636494
-1.1489195
0.0031129097
-1.228755
0.0020550457
-1.3142653
0.0010112024
-1.4060704
0.0088304381
-0.8225397
0.0079223853
-0.87950287
0.0069851294
-0.94041862
0.0060430074
-1.0055727
0.0050556034
-1.0752715
0.0040402907
-1.1498469
0.0030045792
-1.2297045
0.0019708717
-1.3152249
0.00096240506
-1.4070328
0.0094471186
-0.76988473
0.0085946836
-0.823212
0.007712297
-0.88023003
0.0068299068
-0.94120552
0.0058926304
-1.0064098
0.0049191124
-1.0761503
0.0039100691
-1.1507524
0.0028887691
-1.2306224
0.001880049
-1.3161426
0.00090943081
-1.4079422
0.010001148
-0.7205649
0.009203007
-0.77049306
0.0083768682
-0.82387657
0.0075577656
-0.88095789
0.0066755025
-0.94198839
0.0057505282
-1.0072412
0.0047747297
-1.077015
0.0037710803
-1.1516347
0.002762875
-1.2315052
0.0017812356
-1.3170144
0.00085212275
-1.4087943
0.010497497
-0.67436033
0.0097499594
-0.72111185
0.0089808379
-0.77109703
0.008227677
-0.82454648
0.0074045418
-0.88168693
0.006534852
-0.94277272
0.0055996742
-1.0080661
0.004621241
-1.0778651
0.0036193711
-1.1524912
0.0026254764
-1.2323495
0.0016739798
-1.3178362
0.00079039891
-1.4095847
0.010943182
-0.63106593
0.010238839
-0.67484921
0.0095267446
-0.72165776
0.0088409869
-0.77171034
0.0080801968
-0.82522214
0.0072718208
-0.8824239
0.0063846628
-0.94355771
0.005440284
-1.0088852
0.0044526411
-1.0786984
0.0034529371
-1.1533186
0.0024761102
-1.2331516
0.0015580023
-1.3186038
0.00072442536
-1.4103091
0.011348473
-0.59048081
0.010674398
-0.63150149
0.010017959
-0.67534042
0.0093994884
-0.72221626
0.0087031415
-0.77233328
0.0079611617
-0.82591148
0.0071287
-0.88316794
0.0062276034
-0.94434502
0.0052635916
-1.0096961
0.0042663836
-1.0795119
0.0032704932
-1.154113
0.0023136793
-1.2339073
0.0014335739
-1.319313
0.00065451618
-1.4109637
0.011728008
-0.55239671
0.011064462
-0.59087088
0.010459293
-0.63194282
0.0099056211
-0.67584655
0.0092745395
-0.72278766
0.0086027512
-0.77297487
0.007830736
-0.82661351
0.0069817223
-0.88392206
0.0060512453
-0.94513268
0.005067367
-1.0104971
0.0040609046
-1.0803023
0.0030707693
-1.1548701
0.002138613
-1.2346123
0.001301213
-1.3199597
0.00058113441
-1.4115448
0.012101343
-0.51658757
0.011422265
-0.55275452
0.010858219
-0.59126981
0.010362977
-0.63240018
0.0097962287
-0.67636824
0.0091968771
-0.72338178
0.0084897687
-0.7736339
0.0077007225
-0.82733251
0.0068135211
-0.88468433
0.0058544163
-0.94591973
0.0048485335
-1.0112847
0.0038338496
-1.0810653
0.0028546129
-1.1555861
0.0019514343
-1.2352625
0.0011617556
-1.3205403
0.00050485879
-1.4120497
0.012490909
-0.48280105
0.011768266
-0.51693357
0.011226584
-0.55312288
0.010777445
-0.59168427
0.010271193
-0.63287514
0.0097443808
-0.67691575
0.0091052049
-0.72399722
0.0083826609
-0.77431584
0.0075476457
-0.82806664
0.0066248263
-0.88545474
0.0056316717
-0.94670287
0.0046043983
-1.0120553
0.0035862811
-1.081797
0.0026216028
-1.1562563
0.001753317
-1.2358541
0.0010162531
-1.3210517
0.00042635818
-1.412476
0.012918013
-0.45076034
0.012130032
-0.48316281
0.011582017
-0.51728901
0.01115909
-0.55350453
0.010704537
-0.59211762
0.010247049
-0.63337781
0.0096770368
-0.67748758
0.0090259316
-0.72464049
0.0082507402
-0.77501894
0.0073750452
-0.82881686
0.0064071692
-0.88623024
0.0053805601
-0.94747903
0.0043355692
-1.0128046
0.0033170028
-1.0824924
0.0023738294
-1.1568768
0.0015456056
-1.2363835
0.00086595123
-1.3214913
0.00034634751
-1.4128224
0.013397434
-0.42018772
0.012539072
-0.45116938
0.011947767
-0.48352856
0.011524123
-0.51765404
0.011105113
-0.5539051
0.01070848
-0.59257905
0.010206228
-0.633907
0.0096294521
-0.6780911
0.0089202021
-0.72530995
0.0081012642
-0.77574516
0.0071707267
-0.82958041
0.0061587566
-0.88700844
0.0051005262
-0.94824398
0.0040403099
-1.0135279
0.0030287753
-1.0831474
0.0021121613
-1.1574433
0.001330091
-1.2368476
0.00071221202
-1.3218571
0.00026557288
-1.4130879
0.013931767
-0.39083704
0.013023796
-0.42067244
0.012350335
-0.45157195
0.01189553
-0.48389997
0.011487259
-0.51803619
0.011135694
-0.55433232
0.010695478
-0.5930683
0.010193007
-0.63447055
0.0095539528
-0.67872485
0.0087998298
-0.72600852
0.0079176494
-0.77649208
0.0069340243
-0.83035568
0.0058773423
-0.88778525
0.00478962
-0.9489933
0.0037214947
-1.0142206
0.0027218264
-1.083757
0.0018393645
-1.1579526
0.0011086883
-1.2372441
0.00055648922
-1.3221481
0.0001848483
-1.4132728
0.014508405
-0.36252815
0.013601014
-0.39141426
0.012813476
-0.42113558
0.012301383
-0.4519778
0.011871767
-0.48428448
0.011541189
-0.51844168
0.01115065
-0.55478749
0.010717917
-0.59359321
0.010150774
-0.63506738
0.0094675624
-0.67939258
0.0086432797
-0.72673415
0.0077008457
-0.7772589
0.0066605237
-0.83113886
0.0055609727
-0.88855661
0.0044502553
-0.94972206
0.003378907
-1.0148777
0.0023998717
-1.0843175
0.00155721
-1.1584011
0.00088356406
-1.2375711
0.00040032204
-1.3223635
0.00010508546
-1.4133779
0.015100259
-0.33517129
0.014269082
-0.36319622
0.013351004
-0.39195179
0.01276897
-0.42160317
0.012284516
-0.45239055
0.011944228
-0.48468752
0.011582693
-0.51887372
0.011208378
-0.55527795
0.010710909
-0.59415334
0.010102064
-0.63570188
0.0093433928
-0.68009269
0.0084535952
-0.7274869
0.0074438391
-0.77804221
0.0063484698
-0.83192636
0.0052111685
-0.88931752
0.0040819344
-0.95042508
0.0030166635
-1.0154945
0.0020643941
-1.0848247
0.001268803
-1.1587864
0.00065698195
-1.2378278
0.00024528804
-1.3225037
2.7330936e-05
-1.4134052
0.015670005
-0.30877148
0.01500533
-0.33590754
0.013960843
-0.36380606
0.013316908
-0.39249973
0.012751687
-0.42207034
0.012370333
-0.45281665
0.012009065
-0.48511389
0.011673411
-0.51933876
0.01123726
-0.5558043
0.010702273
-0.59475355
0.010014503
-0.63637299
0.0091869731
-0.68082607
0.0082207891
-0.72826385
0.0071452936
-0.77883904
0.005998128
-0.83271332
0.0048272158
-0.8900628
0.0036887226
-0.95109714
0.0026360852
-1.0160661
0.001719477
-1.0852754
0.00097678701
-1.1591062
0.0004309259
-1.2380134
9.3345517e-05
-1.3225698
-4.6303551e-05
-1.4133589
0.016176423
-0.28341271
0.015768684
-0.30953483
0.014622757
-0.33656945
0.013947971
-0.36443712
0.013292504
-0.39304054
0.012846845
-0.42254685
0.012453787
-0.45326138
0.012128674
-0.48556915
0.011737236
-0.51983873
0.011269557
-0.55637159
0.010654384
-0.59539343
0.0098963486
-0.63708236
0.0089850725
-0.68159036
0.0079441641
-0.72906272
0.0068038998
-0.77964481
0.0056086021
-0.83349471
0.0044127782
-0.89078686
0.0032718298
-0.95173289
0.0022417958
-1.0165885
0.0013675652
-1.0856662
0.00068409038
-1.1593593
0.00020814889
-1.2381283
-5.4195894e-05
-1.3225619
-0.00012068689
-1.4132382
0.016580983
-0.25922937
0.016506325
-0.28415035
0.015300651
-0.31021273
0.014645503
-0.33726699
0.013911993
-0.36505661
0.013395543
-0.39358924
0.012943568
-0.42303663
0.012596853
-0.45372955
0.012224678
-0.48605659
0.011809506
-0.52037868
0.011263052
-0.55698025
0.010578235
-0.59607532
0.0097309891
-0.63782828
0.0087378569
-0.68238405
0.0076205704
-0.72987939
0.0064186214
-0.78045483
0.0051828588
-0.83426479
0.0039689214
-0.89148395
0.0028360949
-0.95232719
0.0018363283
-1.0170572
0.0010126242
-1.0859947
0.00039328881
-1.1595445
-1.0290636e-05
-1.2381722
-0.00019821772
-1.3224843
-0.00019154368
-1.4130467
0.016853198
-0.23637207
0.017162156
-0.2598852
0.015948579
-0.28479828
0.015374745
-0.31094197
0.01459664
-0.33795163
0.014024721
-0.36568579
0.013500988
-0.39414666
0.013104556
-0.42354434
0.012720713
-0.45422559
0.012334028
-0.48658112
0.011844444
-0.52096007
0.011231189
-0.55763321
0.010453874
-0.59679821
0.0095196117
-0.63861003
0.008440113
-0.68320359
0.0072488888
-0.73070965
0.0059914629
-0.78126343
0.0047217508
-0.83501762
0.0035004288
-0.89214828
0.0023841803
-0.95287504
0.0014243126
-1.0174689
0.00065742241
-1.0862588
0.00010684859
-1.1596616
-0.00022279006
-1.2381476
-0.00033646073
-1.3223394
-0.00025881289
-1.4127878
0.016973943
-0.21497637
0.017684932
-0.23689485
0.016518397
-0.26045502
0.016088487
-0.28551202
0.015314722
-0.31166005
0.014723936
-0.33865085
0.014136502
-0.3663213
0.013675773
-0.39471788
0.01325122
-0.42407484
0.012862561
-0.45475412
0.012408566
-0.48714524
0.011857403
-0.52158629
0.011150927
-0.55833026
0.010283589
-0.59756218
0.0092548135
-0.63942473
0.0080907069
-0.68404541
0.0068299289
-0.73154812
0.005522994
-0.78206468
0.0042297595
-0.83574695
0.0030100246
-0.89277413
0.0019211586
-0.95337188
0.0010089221
-1.0178204
0.00030547128
-1.0864575
-0.00017303993
-1.1597114
-0.00042762271
-1.2380564
-0.00046827771
-1.32213
-0.00032174733
-1.4124661
0.016936121
-0.19514197
0.018034687
-0.21532613
0.016966672
-0.23734312
0.016735254
-0.26110179
0.016021058
-0.28621836
0.015463553
-0.31239967
0.014842454
-0.3393568
0.014323629
-0.36696916
0.013840784
-0.39530744
0.013420179
-0.42463246
0.012973026
-0.45531858
0.012464893
-0.48775273
0.011822694
-0.52225805
0.011025615
-0.55907229
0.01005774
-0.59836511
0.0089355108
-0.64026954
0.007689064
-0.68490454
0.0063639184
-0.73238904
0.005017157
-0.78285207
0.0037095556
-0.83644648
0.0025030213
-0.89335599
0.0014505963
-0.95381356
0.00059445186
-1.0181094
-4.0465265e-05
-1.08659
-0.00044400546
-1.159695
-0.0006233125
-1.2379014
-0.00059242646
-1.3218593
-0.00038023793
-1.4120859
0.016741195
-0.1769182
0.018187035
-0.19529432
0.017259859
-0.21561931
0.017266893
-0.23787476
0.016664314
-0.26174504
0.016199167
-0.28695397
0.015591635
-0.31314885
0.015043589
-0.34007676
0.014504392
-0.36763276
0.014032043
-0.39591931
0.013561774
-0.42522121
0.013069312
-0.455923
0.012475242
-0.48840528
0.011744574
-0.52297701
0.010843436
-0.55985798
0.0097753474
-0.59920495
0.0085595995
-0.64114007
0.0072350249
-0.68577565
0.0058540393
-0.73322593
0.0044764392
-0.78361896
0.0031664869
-0.83710994
0.0019832967
-0.89388869
0.00097742029
-0.95419653
0.0001842642
-1.0183341
-0.00037730517
-1.0866567
-0.0007041106
-1.1596142
-0.00080849882
-1.2376853
-0.00070837786
-1.3215311
-0.00043405039
-1.4116518
0.01640049
-0.16031418
0.018136569
-0.17686773
0.017377807
-0.19541227
0.017644455
-0.21599688
0.017195865
-0.23840631
0.016879054
-0.26242493
0.016340986
-0.28770332
0.015811032
-0.31391629
0.015240054
-0.34081242
0.01471507
-0.36831579
0.014200087
-0.39655762
0.013693316
-0.42584521
0.013122204
-0.45656996
0.012444547
-0.48910525
0.01160921
-0.52374279
0.010603529
-0.56068616
0.0094326868
-0.60007803
0.0081265072
-0.64203156
0.006730816
-0.68665243
0.0053024655
-0.73405195
0.0039060099
-0.78435848
0.002604617
-0.83773126
0.0014562635
-0.89436753
0.00050557539
-0.95451784
-0.00021782981
-1.0184936
-0.00070253226
-1.0866583
-0.00095149257
-1.1594712
-0.00098216004
-1.2374115
-0.00081555729
-1.3211496
-0.00048312442
-1.4111687
0.014291676
-0.17028581
0.017887253
-0.16006487
0.017316386
-0.17680631
0.017840518
-0.19560833
0.017576287
-0.2163773
0.017452575
-0.23897983
0.017039088
-0.26312303
0.016584112
-0.2884764
0.016025505
-0.31470174
0.015469937
-0.34156729
0.014906358
-0.36902206
0.014362114
-0.39722642
0.013784724
-0.42650773
0.013137064
-0.45726248
0.012357215
-0.48985326
0.011415834
-0.52455509
0.010300521
-0.561554
0.0090287575
-0.60098028
0.0076373385
-0.64293808
0.0061781762
-0.68752814
0.0047139734
-0.73485992
0.0033099695
-0.78506383
0.0020296864
-0.83830469
0.00092639321
-0.89478835
3.9580582e-05
-0.95477525
-0.00060867745
-1.0185875
-0.0010136912
-1.0865961
-0.0011847016
-1.1592686
-0.0011434659
-1.2370836
-0.00091371448
-1.320719
-0.00052741503
-1.4106413
0.012466474
-0.16447592
0.0159164
-0.16831495
0.017077893
-0.15982637
0.017837659
-0.17680345
0.017779425
-0.19581147
0.017876938
-0.21680166
0.017634104
-0.23957485
0.017310766
-0.26384968
0.016820355
-0.28927126
0.016276832
-0.31550863
0.015683622
-0.34234455
0.015095446
-0.36975539
0.014487622
-0.39792932
0.01384159
-0.42721226
0.013096855
-0.45800212
0.012212513
-0.49064993
0.011157455
-0.52541202
0.0099329701
-0.56245821
0.0085634169
-0.60190636
0.007093293
-0.6438532
0.0055812833
-0.68839545
0.0040925377
-0.73564249
0.0026942063
-0.78572835
0.0014465976
-0.83882489
0.00039885691
-0.89514763
-0.00041675044
-0.95496718
-0.00098514545
-1.018616
-0.001308808
-1.086472
-0.0014025117
-1.1590096
-0.0012918782
-1.2367055
-0.0010026739
-1.3202438
-0.00056695574
-1.4100743
0.010834839
-0.1586651
0.014183482
-0.162743
0.015178796
-0.16641586
0.017637843
-0.15962656
0.017793821
-0.17681785
0.018121381
-0.19605591
0.018081413
-0.21724897
0.017937528
-0.24020161
0.017572774
-0.2646021
0.017096764
-0.29009119
0.016514426
-0.31633944
0.015898653
-0.34314776
0.015251646
-0.37051942
0.014582334
-0.39867006
0.013845774
-0.42796118
0.013000808
-0.45879042
0.012001918
-0.4914944
0.010832171
-0.52631122
0.0094993996
-0.56339419
0.0080372348
-0.6028503
0.0064977613
-0.64476967
0.0049438208
-0.68924673
0.0034439987
-0.73639228
0.0020639245
-0.78634568
0.00086108219
-0.83928712
-0.00012186272
-0.89544251
-0.00085954748
-0.95509277
-0.0013446462
-1.0185802
-0.0015861612
-1.0862884
-0.0016040541
-1.1586974
-0.0014270531
-1.2362811
-0.0010824355
-1.3197283
-0.00060182347
-1.4094725
0.0093142763
-0.15302813
0.012579722
-0.15706134
0.013512035
-0.16107624
0.015812132
-0.16459014
0.01761907
-0.15945181
0.018168429
-0.17686489
0.018348818
-0.19632332
0.018417405
-0.21772885
0.018228249
-0.24085709
0.017877885
-0.26538322
0.017361305
-0.29093807
0.016756646
-0.31719743
0.01608421
-0.34398033
0.015380853
-0.37131794
0.014627319
-0.39945161
0.013796412
-0.42875678
0.012839019
-0.45962752
0.011723057
-0.49238528
0.010437135
-0.52724896
0.0089996795
-0.56435664
0.0074526541
-0.6038052
0.0058539766
-0.64567983
0.0042713762
-0.69007411
0.0027737054
-0.73710206
0.00142529
-0.78690989
0.00027825437
-0.83968723
-0.00063115101
-0.89567091
-0.0012855299
-0.95515189
-0.0016848544
-1.0184815
-0.0018444526
-1.086048
-0.0017887174
-1.1583358
-0.0015488697
-1.2358146
-0.0011530935
-1.319177
-0.00063214285
-1.4088404
0.0078372033
-0.14774823
0.011012971
-0.15146138
0.011975568
-0.15552487
0.01419386
-0.15945797
0.015864806
-0.16283588
0.018015916
-0.1592993
0.018418903
-0.17693498
0.018715335
-0.19662125
0.018737906
-0.2182385
0.018564425
-0.24154363
0.018172643
-0.26619456
0.017633468
-0.29181489
0.016972501
-0.31808572
0.01624652
-0.34484599
0.015463586
-0.3721542
0.0146216
-0.40027679
0.013682403
-0.42960017
0.012608627
-0.46051309
0.011371709
-0.49331986
0.0099714583
-0.52822074
0.008435172
-0.56533916
0.0068123096
-0.60476353
0.0051670707
-0.64657552
0.0035692689
-0.69086967
0.0020881009
-0.73776487
0.00078396483
-0.7874156
-0.00029655124
-0.84002183
-0.0011249801
-0.89583146
-0.0016916767
-0.95514507
-0.0020039332
-1.018322
-0.0020826978
-1.085754
-0.0019561808
-1.1579285
-0.0016573789
-1.2353104
-0.0012148511
-1.3185943
-0.00065807611
-1.4081823
0.0063537757
-0.1430072
0.0094109214
-0.14614618
0.010480321
-0.14996614
0.012676856
-0.15400787
0.01430099
-0.15789415
0.016317473
-0.16113744
0.018287929
-0.15916832
0.018810767
-0.17703041
0.019064554
-0.1969479
0.019105441
-0.21877952
0.018891651
-0.24226263
0.018477662
-0.26703875
0.017882106
-0.29272449
0.017168773
-0.31900798
0.016365707
-0.34574811
0.015498786
-0.37303139
0.014553081
-0.40114747
0.013500409
-0.43049195
0.012304081
-0.46144546
0.010946187
-0.49429459
0.0094353215
-0.52922089
0.0078077829
-0.56633463
0.0061206869
-0.60571715
0.00444215
-0.6474484
0.002844037
-0.69162561
0.0013932717
-0.73837418
0.00014595198
-0.7878581
-0.00085854241
-0.84028827
-0.0015995585
-0.89592358
-0.002075502
-0.9550735
-0.0023004062
-1.0181043
-0.002300274
-1.0854099
-0.0021063629
-1.1574795
-0.0017527938
-1.2347724
-0.0012679887
-1.3179844
-0.00067981705
-1.4075025
0.0048333311
-0.13897623
0.0077246357
-0.14132091
0.0089552541
-0.14462111
0.011168857
-0.14845814
0.012822687
-0.15252956
0.014788568
-0.15636524
0.016646737
-0.15949624
0.018698372
-0.15905593
0.019185778
-0.17715164
0.01946136
-0.19730381
0.019465524
-0.21935339
0.01923129
-0.24301626
0.018761801
-0.26791845
0.018114752
-0.29367047
0.017325303
-0.31996757
0.016440719
-0.34669005
0.01547355
-0.37395186
0.014417973
-0.40206503
0.013243632
-0.4314315
0.011922879
-0.46242215
0.010445426
-0.49530469
0.0088297898
-0.5302429
0.0071211791
-0.56733512
0.0053824957
-0.60665749
0.0036856498
-0.64829002
0.0021020384
-0.69233438
0.00069578946
-0.73892401
-0.00048322811
-0.78823342
-0.0014031128
-0.84048472
-0.0020516577
-0.89594742
-0.0024349186
-0.95493899
-0.0025732301
-1.0178313
-0.0024968645
-1.0850194
-0.0022394066
-1.1569929
-0.0018354587
-1.2342049
-0.001312858
-1.3173514
-0.00069758447
-1.4068049
0.0032635492
-0.13580593
0.0059304151
-0.13718201
0.0073520723
-0.13971773
0.0095973615
-0.14304962
0.01133754
-0.14697299
0.013323267
-0.15106426
0.015159445
-0.15487795
0.017103536
-0.15790141
0.019094195
-0.15896434
0.019607495
-0.17729777
0.019852504
-0.19769079
0.019839546
-0.21996165
0.01955256
-0.24380702
0.01903344
-0.26883714
0.01831108
-0.29465625
0.017441166
-0.32096802
0.016458004
-0.3476745
0.015383688
-0.37491757
0.01420835
-0.40302975
0.012908769
-0.43241739
0.011462685
-0.46343941
0.0098695611
-0.49634446
0.0081575621
-0.53127928
0.006379498
-0.56833212
0.004603866
-0.60757571
0.0029040221
-0.649092
0.0013502704
-0.69298886
1.8474599e-06
-0.73940909
-0.0010981448
-0.78853838
-0.0019262202
-0.84061015
-0.0024784672
-0.89590387
-0.002768336
-0.95474388
-0.0028217338
-1.0175065
-0.0026724455
-1.0845863
-0.0023556443
-1.1564727
-0.0019058325
-1.233612
-0.0013498636
-1.3166991
-0.00071161436
-1.4060933
0.001647694
-0.1336177
0.0040284965
-0.13390401
0.0056463311
-0.13547627
0.0079141584
-0.13803453
0.0097725954
-0.14148467
0.01182896
-0.14547868
0.013718281
-0.1496231
0.01564449
-0.15341891
0.017547101
-0.15635432
0.019534955
-0.1588918
0.020025801
-0.17747107
0.020258396
-0.19810964
0.020197588
-0.22060667
0.01986462
-0.2446382
0.019272259
-0.26979832
0.018470424
-0.29568551
0.017502305
-0.32201232
0.016413054
-0.34870387
0.015220279
-0.3759295
0.013920138
-0.40404112
0.012492223
-0.43344693
0.010922646
-0.46449249
0.0092202024
-0.4974071
0.0074220416
-0.53232182
0.0055883657
-0.56931662
0.0037911514
-0.60846284
0.0021045209
-0.64984625
0.00059549605
-0.6935825
-0.00068235623
-0.73982488
-0.0016939019
-0.7887707
-0.0024242385
-0.84066438
-0.0028777253
-0.89579448
-0.0030745993
-0.95449101
-0.0030456124
-1.0171333
-0.0028272474
-1.0841147
-0.0024555751
-1.1559229
-0.0019644634
-1.2329974
-0.0013794499
-1.3160313
-0.00072215587
-1.4053711
-0.13249655
1.8209714e-08
0.0020397332
-0.13162894
0.0038372342
-0.13209492
0.0060976524
-0.13365976
0.0080797179
-0.13634165
0.010232059
-0.13988777
0.012226943
-0.14398735
0.014212867
-0.14819148
0.016119186
-0.15199099
0.018029191
-0.15484855
0.019974517
-0.15884052
0.020459025
-0.1776717
0.020650574
-0.19856263
0.020549343
-0.2212914
0.020147411
-0.24551335
0.019477935
-0.27080583
0.018578379
-0.29676158
0.017504008
-0.32310327
0.016296075
-0.34977966
0.014978529
-0.37698789
0.013548533
-0.40509743
0.011992128
-0.43451641
0.010303193
-0.46557548
0.0084998762
-0.49848494
0.0066281633
-0.53336162
0.0047538396
-0.57027931
0.0029516718
-0.60930999
0.001294331
-0.65054509
-0.00015539069
-0.69410947
-0.0013510649
-0.74016771
-0.0022659952
-0.78892895
-0.0028941219
-0.84064799
-0.0032476602
-0.89562142
-0.0033529941
-0.95418363
-0.0032448857
-1.0167157
-0.0029617278
-1.0836086
-0.0025398328
-1.1553476
-0.0020119686
-1.2323649
-0.0014020908
-1.3153513
-0.00072946428
-1.4046416
-0.13045683
1.8415013e-08
-0.13249654
-0.0016476578
0.0019439658
-0.12973567
0.0041522573
-0.13014952
0.0062382414
-0.13181828
0.0084841277
-0.13459372
0.010610219
-0.13827105
0.012710593
-0.14248507
0.01469902
-0.14677131
0.016625399
-0.1505872
0.018510294
-0.15338433
0.02042915
-0.15881064
0.020880656
-0.17790178
0.021038816
-0.1990521
0.020875364
-0.22201935
0.020400955
-0.24643637
0.01963592
-0.27186337
0.018630168
-0.29788774
0.017435737
-0.32424294
0.016101622
-0.35090276
0.014652492
-0.37809185
0.013090659
-0.40619596
0.011407687
-0.4356209
0.009605863
-0.46668147
0.0077126575
-0.49956943
0.0057814922
-0.53438927
0.0038831028
-0.57121074
0.00209286
-0.61010852
0.00048093033
-0.65118141
-0.00089583379
-0.6945647
-0.0019988651
-0.74043484
-0.0028105036
-0.78901256
-0.0033333546
-0.84056229
-0.0035870115
-0.89538741
-0.0036032049
-0.95382531
-0.0034198703
-1.0162575
-0.0030765346
-1.0830719
-0.0026091582
-1.1547504
-0.002049018
-1.2317179
-0.0014182767
-1.3146625
-0.0007337977
-1.4039078
-0.12851288
1.7542709e-08
-0.13045683
-0.0020396968
-0.13361769
-0.0032635134
0.002105121
-0.12768853
0.0042545328
-0.12816581
0.0065656176
-0.12989977
0.0088197236
-0.13280322
0.011060853
-0.13662131
0.01318708
-0.14097313
0.015211198
-0.14535711
0.017131631
-0.14920854
0.019004113
-0.15195929
0.020873982
-0.15880397
0.021299953
-0.17816292
0.021404757
-0.1995815
0.021175891
-0.22279429
0.020610805
-0.24741126
0.019741513
-0.27297471
0.018614665
-0.29906667
0.017291488
-0.3254328
0.015822685
-0.35207295
0.014238309
-0.3792395
0.012544479
-0.40733276
0.010739373
-0.43675441
0.0088337288
-0.46780254
0.0068634337
-0.50065137
0.0048888689
-0.53539504
0.0029836424
-0.57210153
0.0012226189
-0.61085021
-0.00032841838
-0.65174882
-0.0016195193
-0.69494405
-0.0026209045
-0.74062444
-0.0033240563
-0.78902186
-0.0037399931
-0.84040931
-0.0038949916
-0.89509562
-0.0038252902
-0.95341989
-0.0035711383
-1.0157629
-0.0031724706
-1.0825086
-0.0026643768
-1.154135
-0.002076314
-1.2310599
-0.0014285068
-1.3139678
-0.00073541221
-1.4031724
-0.12640778
1.6945548e-08
-0.12851288
-0.0019439309
-0.13162893
-0.0040284606
-0.13580592
-0.0048332962
0.0021589751
-0.12559297
0.0044858532
-0.12608605
0.0068374236
-0.12791747
0.0092147058
-0.13095708
0.011505299
-0.13493953
0.013685092
-0.13944703
0.015723799
-0.14394928
0.017647282
-0.1478517
0.019488657
-0.15057397
0.021317415
-0.15882143
0.021700188
-0.17845835
0.021748587
-0.20015419
0.021436867
-0.22362035
0.020772454
-0.2484422
0.019783202
-0.27414325
0.018525439
-0.30030062
0.017063276
-0.32667339
0.015454457
-0.3532891
0.013732714
-0.38042774
0.011909359
-0.40850274
0.0099891464
-0.43790983
0.0079908363
-0.46892995
0.0059585015
-0.50172101
0.0039576297
-0.53636903
0.002063601
-0.57294251
0.00034880312
-0.61152743
-0.0011265653
-0.65224178
-0.0023206408
-0.69524431
-0.0032128705
-0.74073563
-0.0038038983
-0.78895796
-0.004112635
-0.84019167
-0.0041712679
-0.89474964
-0.0040196381
-0.95297139
-0.0036994764
-1.0152359
-0.0032504664
-1.0819225
-0.0027063716
-1.153505
-0.0020945793
-1.2303938
-0.0014332795
-1.3132699
-0.00073455902
-1.4024379
-0.12424882
1.6113658e-08
-0.12640778
-0.0021050874
-0.12973566
-0.0038372001
-0.133904
-0.0059303805
-0.13897621
-0.0063537417
0.0022795493
-0.12338667
0.0046764352
-0.12392506
0.0071556258
-0.12585839
0.0096047251
-0.1290565
0.011967452
-0.13322189
0.014183486
-0.13790671
0.01624325
-0.14254525
0.018154821
-0.14651787
0.019969927
-0.14922648
0.021744591
-0.15886583
0.022081152
-0.17879091
0.022056956
-0.20077428
0.021654022
-0.22450192
0.020874252
-0.24953325
0.01975431
-0.27537212
0.018353663
-0.30159101
0.016745402
-0.32796434
0.014992458
-0.35454884
0.013133947
-0.38165233
0.011186078
-0.40969967
0.0091600823
-0.43907908
0.007082753
-0.4700542
0.0050048381
-0.50276821
0.0029959555
-0.53730138
0.0011312626
-0.57372497
-0.00052071596
-0.61213328
-0.0019067684
-0.65265565
-0.0029938953
-0.69546329
-0.0037710879
-0.74076844
-0.0042478723
-0.78882272
-0.0044504128
-0.83991252
-0.0044159181
-0.89435336
-0.0041869221
-0.95248395
-0.0038058533
-1.0146805
-0.0033115446
-1.0813173
-0.0027360649
-1.1528635
-0.0021045417
-1.2297226
-0.0014330861
-1.3125714
-0.00073148196
-1.4017064
-0.12196929
1.5202486e-08
-0.12424882
-0.0021589432
-0.12768852
-0.0041522244
-0.1320949
-0.005646298
-0.13718199
-0.0077246023
-0.14300718
-0.0078371703
0.0023770992
-0.12108733
0.0048996464
-0.12166908
0.0074699154
-0.12372358
0.0100087
-0.12709775
0.012429868
-0.13146827
0.014686931
-0.13635039
0.016755585
-0.14114601
0.018657751
-0.14520569
0.02043615
-0.14791804
0.022154836
-0.15893952
0.022430511
-0.17916447
0.022325772
-0.20144603
0.021815837
-0.2254435
0.020909461
-0.2506884
0.019645354
-0.27666381
0.018092843
-0.30293845
0.016332203
-0.32930408
0.014433793
-0.35584869
0.012441561
-0.38290781
0.010376645
-0.41091623
0.0082568613
-0.44025319
0.0061158982
-0.47116526
0.0040104524
-0.50378271
0.0020123665
-0.53818248
0.00019509768
-0.57444078
-0.0013783287
-0.61266172
-0.0026627235
-0.65298682
-0.0036346066
-0.69559977
-0.0042925168
-0.7407238
-0.0046544282
-0.7886187
-0.004752953
-0.83957549
-0.0046293863
-0.8939109
-0.0043280642
-0.95196174
-0.0038913765
-1.0141007
-0.0033567962
-1.0806966
-0.0027543977
-1.1522136
-0.0021069247
-1.2290487
-0.0014284059
-1.3118745
-0.00072641487
-1.40098
-0.1195922
1.4283635e-08
-0.12196928
-0.0022795191
-0.12559296
-0.0042545017
-0.13014951
-0.0060976208
-0.13547625
-0.0073520405
-0.14132089
-0.0094108896
-0.14774821
-0.0093142441
0.002492109
-0.1186798
0.0051201838
-0.11931935
0.0077947368
-0.12150962
0.010413039
-0.12508092
0.012896009
-0.12967735
0.01518408
-0.13477889
0.017262651
-0.13975091
0.019147053
-0.1439166
0.0208863
-0.1466495
0.022536893
-0.1590459
0.022744198
-0.17958289
0.022543917
-0.20217411
0.02191568
-0.22644972
0.0208682
-0.25191125
0.019449217
-0.27802019
0.01773621
-0.30434246
0.015819642
-0.33068993
0.01377675
-0.35718388
0.011656431
-0.3841876
0.0094847299
-0.4121441
0.0072851694
-0.44142246
0.0050978996
-0.4722527
0.002983895
-0.50475424
0.0010157645
-0.53900315
-0.00073655098
-0.57508256
-0.0022167601
-0.61310768
-0.0033887128
-0.65323272
-0.0042387475
-0.69565354
-0.0047747826
-0.74060344
-0.0050225917
-0.78834907
-0.0050203358
-0.83918454
-0.0048124426
-0.89342652
-0.0044441847
-0.95140893
-0.003957262
-1.0135002
-0.0033873531
-1.0800636
-0.0027623149
-1.1515582
-0.0021024376
-1.2283747
-0.0014196999
-1.3111812
-0.00071957959
-1.4002604
-0.11710011
1.3213163e-08
-0.1195922
-0.0023770709
-0.12338666
-0.0044858238
-0.1281658
-0.0062382114
-0.13365974
-0.0079141282
-0.13971771
-0.0089552238
-0.14614616
-0.01101294
-0.15302812
-0.010834808
0.0026057416
-0.11616535
0.0053477548
-0.11687237
0.0081198281
-0.11921641
0.01081986
-0.12300477
0.013356668
-0.12784993
0.015676086
-0.13319232
0.017757546
-0.1383614
0.019620905
-0.1426512
0.021310624
-0.14542323
0.022886683
-0.15918838
0.023011741
-0.18005072
0.02270496
-0.20296339
0.021943555
-0.22752507
0.020742957
-0.25320499
0.01915818
-0.27944215
0.017278622
-0.30580144
0.015204706
-0.33211789
0.013021002
-0.35854845
0.010781118
-0.38548398
0.0085151428
-0.41337408
0.006252061
-0.44257662
0.0040371271
-0.47330594
0.0019342968
-0.50567277
1.5097998e-05
-0.5397548
-0.0016555067
-0.57564381
-0.0030292515
-0.61346714
-0.0040796481
-0.65339181
-0.0048029926
-0.69562533
-0.0052161586
-0.74040987
-0.0053519301
-0.78801747
-0.005253054
-0.83874393
-0.0049661275
-0.89290458
-0.0045365656
-0.95082963
-0.0040048005
-1.0128828
-0.0034043683
-1.0794216
-0.0027607513
-1.1508999
-0.0020917654
-1.2277026
-0.0014074069
-1.3104934
-0.00071118923
-1.3995492
-0.11449438
1.2037432e-08
-0.1171001
-0.0024920829
-0.12108732
-0.0046764077
-0.12608603
-0.0065655894
-0.13181826
-0.0080796894
-0.13803451
-0.0095973328
-0.14462109
-0.010480292
-0.15146137
-0.012579693
-0.15866509
-0.012466443
0.0027229234
-0.11354052
0.0055755575
-0.1143281
0.0084466248
-0.11684317
0.011222447
-0.12087055
0.013812637
-0.12598649
0.016157053
-0.13159183
0.0182379
-0.1369784
0.020071673
-0.14141225
0.021705372
-0.14424192
0.023194443
-0.15937109
0.023226912
-0.18057267
0.02279907
-0.20381891
0.021891798
-0.22867392
0.020525307
-0.25457212
0.018766121
-0.28092965
0.016715765
-0.3073125
0.014485789
-0.33358267
0.012167903
-0.35993523
0.009819437
-0.38678828
0.0074741985
-0.41459621
0.0051655256
-0.44370502
0.002942731
-0.47431437
0.00087103973
-0.50652871
-0.00098070943
-0.5404296
-0.0025540138
-0.57611905
-0.0038096221
-0.61373717
-0.0047311545
-0.65346365
-0.005324721
-0.69551676
-0.0056155443
-0.74014626
-0.0056425164
-0.78762801
-0.0054519553
-0.8382581
-0.0050917108
-0.89234943
-0.0046066099
-0.95022782
-0.0040353303
-1.0122518
-0.0034089944
-1.0787733
-0.0027506146
-1.1502411
-0.0020755645
-1.2270345
-0.0013919516
-1.3098126
-0.00070143998
-1.3988478
-0.11177146
1.0748005e-08
-0.11449437
-0.0026057178
-0.11867978
-0.004899621
-0.12392504
-0.0068373972
-0.12989975
-0.008484101
-0.13634163
-0.0097725684
-0.1430496
-0.01116883
-0.14996612
-0.01197554
-0.15706132
-0.014183454
-0.16447591
-0.014291646
0.002840227
-0.11080519
0.0058044169
-0.11168589
0.0087702418
-0.11439097
0.011620734
-0.11867865