/*--------------------------------*- C++ -*----------------------------------*\
| =========                 |                                                 |
| \\      /  F ield         | OpenFOAM: The Open Source CFD Toolbox           |
|  \\    /   O peration     | Version:  5.0                                   |
|   \\  /    A nd           | Web:      www.OpenFOAM.org                      |
|    \\/     M anipulation  |                                                 |
\*---------------------------------------------------------------------------*/
FoamFile
{
    version     2.0;
    format      ascii;
    class       volVectorField;
    location    "300";
    object      U;
}
// * * * * * * * * * * * * * * * * * * * * * * * * * * * * * * * * * * * * * //

dimensions      [0 1 -1 0 0 0 0];

internalField   nonuniform List<vector> 
9200
(
(1.0430993 -0.00052858279 -4.2099968e-24)
(1.0434001 -0.0016144291 -9.3348145e-21)
(1.0446195 -0.0005258389 0)
(1.0439958 -0.0025740282 4.7992939e-21)
(1.0449162 -0.001624754 -7.208439e-21)
(1.0453083 -0.00052277725 0)
(1.0447534 -0.0035072568 4.8024424e-22)
(1.0455068 -0.0025807949 -3.3727777e-22)
(1.0456045 -0.0016321939 0)
(1.0463113 -0.0005187413 0)
(1.0456604 -0.0043466186 -9.1836187e-21)
(1.0462579 -0.0035245324 -5.3778927e-21)
(1.0461951 -0.0025889328 -4.015063e-21)
(1.0466067 -0.0016435922 -2.4693611e-22)
(1.0471275 -0.00051344233 -3.4208247e-25)
(1.0466509 -0.0051377962 -8.4985072e-21)
(1.0471506 -0.0043682243 6.584572e-22)
(1.0469424 -0.00354227 -1.2964381e-20)
(1.0472001 -0.0026005153 -4.9236646e-21)
(1.0474244 -0.0016522005 3.3319436e-23)
(1.0479859 -0.0005060165 1.0027645e-20)
(1.0476959 -0.0058575643 -7.944866e-21)
(1.048123 -0.0051697426 -8.9307563e-21)
(1.04783 -0.0043924011 7.83365e-21)
(1.0479477 -0.0035685194 4.7031348e-22)
(1.0480218 -0.0026090282 -4.9602565e-21)
(1.0482877 -0.0016586017 -4.8307974e-21)
(1.0487824 -0.00049611379 -7.650758e-22)
(1.0487571 -0.0065203984 -3.4340436e-21)
(1.0491422 -0.0058986432 -6.2339173e-21)
(1.0487943 -0.0052048358 -8.5401005e-21)
(1.0488341 -0.0044302259 1.7700371e-22)
(1.0487713 -0.0035909959 1.1860161e-20)
(1.0488944 -0.0026134928 5.1679859e-21)
(1.04909 -0.001659575 6.0947499e-21)
(1.0495588 -0.00048316059 -9.2373672e-21)
(1.0498094 -0.0071220773 9.596899e-21)
(1.0501712 -0.0065729198 -7.2346401e-21)
(1.0498024 -0.0059449006 2.6597355e-22)
(1.0497939 -0.0052613825 -4.3376793e-21)
(1.0496587 -0.004464561 3.2613809e-22)
(1.0496538 -0.0036103726 1.8224785e-20)
(1.0497067 -0.0026097098 -3.2679272e-21)
(1.0498771 -0.0016538716 1.0140194e-20)
(1.0502957 -0.00046676598 1.9292421e-20)
(1.0508298 -0.0076674893 -7.1943343e-21)
(1.051184 -0.0071862081 3.6249871e-21)
(1.050817 -0.0066324703 1.9475588e-22)
(1.0507937 -0.006021636 -8.6539241e-22)
(1.0506169 -0.0053149065 1.5114182e-21)
(1.0505515 -0.0044976498 3.8563956e-22)
(1.0504772 -0.0036195293 -6.3767349e-21)
(1.0505106 -0.0025950232 -1.0930454e-20)
(1.0506263 -0.0016394987 -5.9519385e-21)
(1.0509961 -0.00044636548 -1.500446e-21)
(1.0518009 -0.0081583444 3.3138136e-21)
(1.0521588 -0.0077437884 -1.4331659e-22)
(1.0518121 -0.0072599635 -5.8257929e-21)
(1.0517955 -0.0067332742 5.9398698e-21)
(1.051612 -0.0060964222 -8.3934276e-21)
(1.0515184 -0.0053709914 1.8575737e-20)
(1.0513867 -0.0045194041 6.4435681e-23)
(1.0513025 -0.0036152832 -1.7667757e-20)
(1.0512785 -0.0025664148 8.5342176e-21)
(1.0513424 -0.0016143102 -1.7738294e-20)
(1.051655 -0.00042167631 2.5116931e-21)
(1.0527055 -0.0085985013 -1.4135556e-22)
(1.0530786 -0.0082463258 1.144982e-21)
(1.0527657 -0.0078329328 4.9185232e-21)
(1.0527732 -0.0073869344 0)
(1.0526053 -0.0068334388 -1.0983058e-22)
(1.0525197 -0.0061791085 -2.4479856e-22)
(1.0523641 -0.0054151926 3.7805695e-21)
(1.0522357 -0.0045266468 8.9670659e-21)
(1.0520926 -0.0035928173 6.2271514e-22)
(1.0520176 -0.0025210734 1.0545246e-20)
(1.0520198 -0.0015769461 6.9001865e-21)
(1.0522696 -0.00039243829 -1.5141407e-21)
(1.0535206 -0.008992625 -1.2712339e-22)
(1.0539291 -0.0086967746 7.5669547e-22)
(1.0536611 -0.0083517727 0)
(1.0537048 -0.007988255 0)
(1.0535703 -0.0075148218 3.0498831e-21)
(1.0535155 -0.0069485585 -3.890217e-21)
(1.0533737 -0.0062499898 8.1563214e-21)
(1.0532371 -0.0054453756 -1.0191193e-20)
(1.0530506 -0.0045126142 -8.9337442e-22)
(1.0528654 -0.0035482662 -1.1730876e-23)
(1.0527218 -0.0024567058 -1.1883983e-20)
(1.0526558 -0.0015259595 1.189004e-20)
(1.0528364 -0.00035850219 -2.2261035e-20)
(1.0542017 -0.0093474416 4.1412588e-22)
(1.0546926 -0.0090982531 -1.6075293e-22)
(1.0544846 -0.0088196349 2.761125e-21)
(1.0545742 -0.0085367844 -3.0664967e-21)
(1.0544852 -0.0081461608 3.2560349e-21)
(1.0544791 -0.0076662002 -8.2058074e-22)
(1.0543747 -0.0070523929 -2.7114506e-21)
(1.0542689 -0.0063089136 2.9996198e-23)
(1.0540781 -0.0054520605 -1.0003502e-20)
(1.0538619 -0.004472253 -9.2501585e-21)
(1.0536062 -0.0034783194 -3.364245e-21)
(1.0533883 -0.002370718 -9.1332228e-21)
(1.0532467 -0.0014603164 -5.9246882e-21)
(1.0533524 -0.00031980184 5.8110066e-21)
(1.0546555 -0.009673801 4.6256321e-21)
(1.0553356 -0.0094556898 -3.432154e-21)
(1.0552202 -0.0092398105 1.2537984e-21)
(1.0553686 -0.0090351281 5.4053733e-23)
(1.055334 -0.0087261743 -9.2932493e-24)
(1.0553881 -0.0083374947 7.991072e-22)
(1.0553395 -0.0078071335 -2.6221389e-21)
(1.0552885 -0.0071481478 3.4867661e-21)
(1.0551355 -0.0063430367 -7.3544198e-23)
(1.0549294 -0.0054298198 1.0011554e-21)
(1.0546417 -0.0044015802 2.0846893e-22)
(1.0543163 -0.0033793724 1.2573453e-21)
(1.0540134 -0.0022616731 1.140027e-20)
(1.0537893 -0.0013792252 -5.1430228e-21)
(1.0538149 -0.0002763639 3.9691655e-21)
(1.0547048 -0.0099837209 -1.4973383e-21)
(1.0557841 -0.0097784134 3.5658962e-21)
(1.0558384 -0.0096173725 -1.3423957e-21)
(1.0560746 -0.0094856965 2.853251e-21)
(1.0561045 -0.0092570434 -3.1326006e-21)
(1.0562266 -0.0089600806 8.0436202e-21)
(1.0562452 -0.0085193606 -7.1343926e-21)
(1.056268 -0.0079456653 1.3811659e-22)
(1.0561792 -0.0072185177 2.5686434e-21)
(1.0560262 -0.006347436 2.0350245e-22)
(1.0557535 -0.0053731115 2.3480941e-20)
(1.0554051 -0.0042951313 -5.5850908e-21)
(1.0549902 -0.0032491046 -3.8076906e-21)
(1.0545934 -0.002128224 -1.9460384e-21)
(1.0542805 -0.0012822274 -8.464616e-22)
(1.0542213 -0.00022829923 -4.1098574e-21)
(1.0540534 -0.010298525 0)
(1.0558877 -0.010078783 2.7856316e-21)
(1.0562734 -0.0099611621 -2.1955361e-21)
(1.0566683 -0.0098925237 0)
(1.0567853 -0.009740657 0)
(1.0569829 -0.0095353687 0)
(1.057076 -0.00918553 -2.6349404e-23)
(1.0571839 -0.0087061989 -6.1206523e-21)
(1.0571792 -0.0080588419 1.3818164e-21)
(1.057107 -0.0072600733 -7.3168646e-21)
(1.056896 -0.0063141027 -2.4615961e-22)
(1.0565736 -0.0052751428 -5.0468039e-21)
(1.056134 -0.0041509687 6.6303088e-23)
(1.0556246 -0.0030851554 4.3063803e-21)
(1.0551249 -0.0019696754 1.4876132e-21)
(1.0547176 -0.0011691592 2.219967e-21)
(1.0545698 -0.00017579644 0)
(1.0522606 -0.01063507 8.399751e-22)
(1.0553795 -0.010380644 -5.8078158e-21)
(1.056388 -0.010282431 5.1951807e-21)
(1.0570946 -0.010263057 1.6284307e-21)
(1.0573562 -0.010180581 2.958942e-21)
(1.0576467 -0.010064218 0)
(1.0578206 -0.0098062633 3.0584676e-21)
(1.0580199 -0.009424833 -2.1860555e-22)
(1.0581109 -0.0088682688 -1.0742259e-20)
(1.0581408 -0.008145813 1.1022659e-21)
(1.0580219 -0.0072615419 4.3167267e-21)
(1.0577743 -0.0062357574 -5.5420571e-22)
(1.0573649 -0.005133168 -9.254303e-21)
(1.0568342 -0.003964267 1.5284539e-20)
(1.0562154 -0.0028863505 4.6439698e-21)
(1.0556047 -0.0017856804 1.6151169e-20)
(1.0550982 -0.0010401695 5.9759583e-21)
(1.054859 -0.0001191199 4.0065189e-21)
(1.0487717 -0.01101127 3.6196361e-23)
(1.05384 -0.010708451 -2.4504002e-21)
(1.0559319 -0.010602242 -1.666209e-21)
(1.057234 -0.01060761 3.3994709e-21)
(1.0577708 -0.010583504 -3.1144293e-22)
(1.0582015 -0.010549054 4.1487208e-21)
(1.0584697 -0.010381556 2.4344018e-21)
(1.0587647 -0.010101154 -6.013142e-21)
(1.0589579 -0.009640437 -2.1555477e-21)
(1.0591018 -0.0090084091 7.3057099e-21)
(1.0590979 -0.0081913944 -7.1002921e-23)
(1.058958 -0.0072158455 1.0218198e-20)
(1.0586317 -0.0061081052 -3.0892245e-21)
(1.0581384 -0.0049408564 -1.1669763e-21)
(1.0574938 -0.0037347447 -2.1559342e-21)
(1.0567588 -0.0026516997 -2.7912597e-21)
(1.05603 -0.0015764656 4.8765597e-21)
(1.0554206 -0.0008956986 2.8510691e-22)
(1.0550881 -5.8626754e-05 2.7826985e-21)
(1.0429839 -0.011435657 4.9864306e-22)
(1.0507138 -0.011091094 3.1093666e-21)
(1.0545026 -0.010941902 -1.2630413e-20)
(1.0568589 -0.010946595 -8.6633543e-22)
(1.0579235 -0.01095893 2.3848202e-21)
(1.0586086 -0.010995052 1.7534493e-21)
(1.0590101 -0.010913081 4.6719824e-22)
(1.0594098 -0.010733928 6.1407936e-21)
(1.0597085 -0.010373855 -8.6523586e-22)
(1.0599726 -0.0098399355 -9.669634e-21)
(1.0600969 -0.0091068424 1.2988048e-20)
(1.0600896 -0.0081893132 -2.2933343e-21)
(1.0598826 -0.0071164628 -4.9028652e-21)
(1.0594825 -0.0059237084 4.3415955e-22)
(1.0588774 -0.0046976192 -1.3482028e-21)
(1.0581138 -0.0034593112 -1.002264e-20)
(1.0572512 -0.0023812261 3.6346672e-22)
(1.0563983 -0.0013426158 -8.0953746e-21)
(1.0556834 -0.00073648664 -1.8440763e-21)
(1.0552569 5.2161024e-06 -2.2992547e-21)
(1.0343479 -0.011904759 -2.9780588e-22)
(1.0453651 -0.011549941 4.0734783e-21)
(1.0515532 -0.011326705 -1.2007494e-21)
(1.0555882 -0.011302864 3.3603363e-21)
(1.0576054 -0.011325619 1.4076744e-21)
(1.058776 -0.01141026 -2.328337e-21)
(1.0594094 -0.011405053 4.2511685e-21)
(1.0599441 -0.011323577 6.7882829e-21)
(1.0603548 -0.011066096 -8.6019773e-21)
(1.0607414 -0.010637663 0)
(1.0610005 -0.0099983523 -8.6410527e-21)
(1.0611402 -0.009158786 1.793606e-22)
(1.06108 -0.0081303493 9.4364531e-21)
(1.0608129 -0.006955256 -4.0345811e-21)
(1.060307 -0.0056809711 5.1985308e-21)
(1.0595855 -0.0043987663 -9.0913685e-21)
(1.058686 -0.0031390757 -2.7397328e-21)
(1.0576897 -0.002075328 1.8835264e-21)
(1.056708 -0.0010851461 -3.3009724e-21)
(1.0558862 -0.00056351988 -7.3982631e-22)
(1.0553653 7.1794824e-05 -1.258546e-21)
(1.0224739 -0.012401677 -3.7380147e-21)
(1.0371791 -0.012092883 3.102259e-21)
(1.0464406 -0.011775254 6.2357752e-21)
(1.0528842 -0.011704842 -7.6182592e-21)
(1.0564564 -0.011705328 -4.2148228e-21)
(1.0585158 -0.011812154 1.7655182e-21)
(1.0595885 -0.011864794 0)
(1.0603413 -0.011872761 6.3483829e-21)
(1.0608879 -0.011716485 1.5080477e-21)
(1.0614002 -0.011397714 -1.2254563e-20)
(1.0617962 -0.010861935 -3.7997415e-21)
(1.0620903 -0.010113096 1.0531696e-21)
(1.0621933 -0.0091518647 9.8863616e-23)
(1.0620893 -0.0080059936 -4.2731835e-21)
(1.0617267 -0.0067290132 4.228122e-21)
(1.0611104 -0.0053739137 -3.6969518e-21)
(1.0602513 -0.0040454341 1.1785256e-21)
(1.0592092 -0.0027728217 -5.9235722e-21)
(1.0580717 -0.001735364 -2.733523e-21)
(1.056958 -0.00080541854 -5.524749e-22)
(1.0560289 -0.00037796286 -9.8607932e-22)
(1.0554137 0.00013987221 0)
(1.0072118 -0.012898275 -2.5021306e-21)
(1.0256786 -0.012709601 -1.3401955e-21)
(1.0385232 -0.012294136 2.4746842e-22)
(1.0480908 -0.012175922 -6.7895859e-21)
(1.0539516 -0.012125585 -2.3290414e-21)
(1.0574902 -0.012222115 2.5531535e-21)
(1.0593771 -0.012308017 -4.7894529e-21)
(1.0605335 -0.012387275 6.8095518e-21)
(1.0612861 -0.012326404 3.4881616e-21)
(1.0619416 -0.012117998 2.0849199e-22)
(1.0624761 -0.011692227 2.2423515e-23)
(1.0629262 -0.011046906 -1.3875569e-21)
(1.0632009 -0.010168271 1.141158e-21)
(1.0632789 -0.0090775767 -7.9483827e-21)
(1.0630931 -0.0078110107 -1.0587423e-20)
(1.0626304 -0.0064306364 -8.963428e-21)
(1.0618788 -0.0050029625 1.7618783e-21)
(1.0608744 -0.0036351593 1.1197384e-20)
(1.0596779 -0.0023629195 -9.4151459e-23)
(1.0583944 -0.0013637704 -2.3142194e-21)
(1.0571478 -0.00050562382 0)
(1.0561114 -0.00018148556 1.0777322e-21)
(1.0554073 0.00020490064 2.2346718e-22)
(0.98868396 -0.01336005 1.3571864e-20)
(1.0106213 -0.013371564 -2.8568488e-21)
(1.0272803 -0.012873576 7.1555958e-21)
(1.0405278 -0.012727759 3.725647e-21)
(1.0494302 -0.012610285 -8.2495676e-21)
(1.0551901 -0.012669016 0)
(1.0584606 -0.012755608 -1.0027342e-21)
(1.0603694 -0.012881039 4.8793717e-21)
(1.0614921 -0.012900515 3.5705742e-21)
(1.062348 -0.01279826 -5.1086884e-22)
(1.0630335 -0.01248575 -6.8972183e-21)
(1.0636397 -0.011953214 -4.1420817e-21)
(1.0640885 -0.01117286 5.5728707e-21)
(1.0643586 -0.010155784 -8.3269415e-21)
(1.0643713 -0.008928314 1.2027021e-20)
(1.0640992 -0.0075372913 1.9585159e-20)
(1.0635083 -0.0060592967 9.1476536e-22)
(1.062612 -0.0045645196 4.6604295e-21)
(1.0614467 -0.0031704695 -9.7882429e-21)
(1.0600903 -0.0019101697 -4.9636957e-22)
(1.0586569 -0.00096213932 3.2245075e-21)
(1.0572761 -0.00018966811 -4.8464029e-22)
(1.0561341 2.1569967e-05 -1.0860922e-21)
(1.0553455 0.00028002456 1.7367154e-22)
(0.96726835 -0.013752039 3.7880976e-21)
(0.99205116 -0.014036427 -8.0044159e-22)
(1.0124177 -0.013487382 -3.412665e-23)
(1.0296145 -0.013354455 -1.6113127e-20)
(1.0421837 -0.013173 5.7307975e-21)
(1.0509532 -0.013179668 -9.809008e-21)
(1.0563472 -0.013235966 -8.6418085e-22)
(1.0595574 -0.013374032 -8.7719062e-21)
(1.061371 -0.013450811 4.0848318e-21)
(1.0625715 -0.013441582 2.6999149e-21)
(1.0634548 -0.01324072 -6.4186342e-21)
(1.0642248 -0.012826942 4.0837994e-21)
(1.0648469 -0.012157004 -5.3935163e-21)
(1.0653122 -0.011232536 -1.1239063e-23)
(1.0655358 -0.010065379 1.016239e-20)
(1.0654796 -0.0086950888 1.2550311e-21)
(1.0650904 -0.0071823613 -3.0968869e-23)
(1.0643603 -0.0056102341 7.8276116e-21)
(1.0633001 -0.0040606461 0)
(1.0619661 -0.0026513087 1.534301e-21)
(1.0604425 -0.0014179029 3.6495683e-22)
(1.0588576 -0.00053352678 -5.089274e-22)
(1.057344 0.00014305194 -9.7027144e-22)
(1.0561 0.00023726795 1.2137787e-21)
(1.0552285 0.00035573648 1.6083763e-21)
(0.94354084 -0.014044016 -1.3376448e-20)
(0.97029557 -0.01465508 -4.4854613e-22)
(0.99393037 -0.01409698 2.1232069e-21)
(1.0149872 -0.014031357 1.7655003e-21)
(1.0315814 -0.013810479 1.5902599e-20)
(1.0440447 -0.013771313 1.6601134e-22)
(1.0523765 -0.013776873 -8.2781208e-22)
(1.0576258 -0.01389461 6.5940133e-22)
(1.0606542 -0.013996386 6.5766834e-21)
(1.0624935 -0.014057807 -3.890633e-21)
(1.0636997 -0.013958675 4.5107443e-21)
(1.0646703 -0.013664547 -1.7560598e-22)
(1.0654704 -0.013113986 -1.6836573e-21)
(1.0661298 -0.012297544 2.5652961e-21)
(1.0665689 -0.011212854 3.5171557e-22)
(1.0667436 -0.0098873713 -1.4566364e-20)
(1.0665852 -0.0083734546 -2.1712567e-20)
(1.0660666 -0.0067402224 -1.1699266e-20)
(1.0651747 -0.0050845511 -1.5290102e-20)
(1.0639403 -0.0034904589 -4.2051246e-22)
(1.0624271 -0.0020812834 1.1757094e-20)
(1.0607328 -0.00088829611 -4.4518119e-22)
(1.058996 -8.024124e-05 -7.8052856e-23)
(1.0573523 0.00049034388 -1.3240672e-21)
(1.0560113 0.00045938221 1.8628817e-21)
(1.05506 0.00043162435 -5.5670126e-23)
(0.91819592 -0.014213887 6.0440805e-22)
(0.94591486 -0.015178852 -1.0919226e-21)
(0.97210796 -0.014658197 -8.9261092e-21)
(0.99657609 -0.01471858 9.4089826e-21)
(1.0171977 -0.014500363 -1.3829475e-20)
(1.0337832 -0.01444398 8.3566255e-21)
(1.0457913 -0.014397784 3.7179154e-21)
(1.0539202 -0.01447233 8.383493e-21)
(1.0588913 -0.014564951 -9.358901e-21)
(1.0618686 -0.014664819 -3.9119245e-21)
(1.0636647 -0.014647411 1.5076297e-21)
(1.0649433 -0.014465725 -1.1009475e-20)
(1.06595 -0.014038511 1.0879845e-20)
(1.0668052 -0.013342338 -1.2042624e-21)
(1.0674593 -0.012358802 2.9798863e-21)
(1.0678715 -0.011103635 -5.8961104e-22)
(1.0679623 -0.0096150891 -4.8066022e-21)
(1.0676886 -0.0079561119 4.5465224e-21)
(1.0670147 -0.0062106254 -5.5154896e-21)
(1.065948 -0.0044804032 -9.5718485e-22)
(1.0645251 -0.0028574097 0)
(1.062827 -0.0014623821 3.6998347e-21)
(1.0609595 -0.00032507217 1.8090671e-21)
(1.0590725 0.00039499836 0)
(1.0573029 0.00084976966 1.8283223e-21)
(1.0558695 0.00068794971 -6.0135797e-22)
(1.0548427 0.0005072831 -2.6862941e-21)
(0.89196442 -0.014250947 4.632544e-21)
(0.91962278 -0.015565416 -1.6895392e-22)
(0.9474898 -0.015128662 -7.5839545e-21)
(0.97462394 -0.015368118 9.2395796e-22)
(0.99890121 -0.015203828 -2.3983537e-21)
(1.0196762 -0.015177253 -9.2932636e-21)
(1.0358628 -0.015101577 -4.7482438e-22)
(1.0476654 -0.015129737 -6.8031019e-21)
(1.0554368 -0.015187064 1.020612e-24)
(1.0602693 -0.015289461 7.8951612e-21)
(1.0631264 -0.015323272 -3.7845813e-21)
(1.0649544 -0.015236051 1.0363112e-21)
(1.0662586 -0.014928401 -2.7254302e-21)
(1.0673311 -0.014359733 3.1664128e-21)
(1.0682002 -0.01349305 -7.2475744e-22)
(1.0688503 -0.012330375 3.8730159e-21)
(1.0691996 -0.010895798 4.5798118e-21)
(1.069193 -0.0092399152 2.6914169e-20)
(1.0687751 -0.0074411101 9.3495165e-21)
(1.0679304 -0.0055905616 1.0823435e-20)
(1.066671 -0.0038006347 7.2364314e-21)
(1.0650511 -0.0021631463 -2.8098521e-21)
(1.0631624 -0.00079901453 -5.0883456e-22)
(1.0611218 0.0002685122 0)
(1.0590879 0.00088861647 0)
(1.0571976 0.001218456 -2.9987234e-23)
(1.0556776 0.00091975549 4.5626673e-21)
(1.0545802 0.00058236862 5.925816e-21)
(0.86554566 -0.014158455 0)
(0.89219397 -0.015787953 -8.6529585e-22)
(0.92078963 -0.015473655 6.9143423e-21)
(0.94964661 -0.015931558 3.2283953e-21)
(0.9768875 -0.015872383 9.7087284e-21)
(1.0015229 -0.015932573 5.1043643e-22)
(1.0220344 -0.015870073 -6.0381035e-21)
(1.0380875 -0.015873209 -1.0722384e-20)
(1.0495017 -0.015887527 1.2787925e-20)
(1.0570626 -0.015963258 -3.8197895e-21)
(1.061681 -0.016011989 4.9452067e-22)
(1.0645016 -0.015989973 3.9185492e-21)
(1.0663195 -0.015787012 -9.7812559e-21)
(1.0676853 -0.015345492 5.8215112e-21)
(1.0687851 -0.014606489 3.7053653e-21)
(1.0696724 -0.013555689 3.8864311e-23)
(1.0702822 -0.012200662 3.7006377e-21)
(1.0705552 -0.010579441 -2.777644e-21)
(1.0704199 -0.0087579057 1.3437296e-20)
(1.0698401 -0.0068240635 2.0539656e-21)
(1.0688029 -0.0048818616 6.3737413e-21)
(1.0673389 -0.0030463283 3.9298781e-21)
(1.0655129 -0.0014123262 -8.4829609e-22)
(1.0634317 -9.4822208e-05 -6.3356882e-21)
(1.0612195 0.00088803717 -3.2644681e-21)
(1.0590435 0.0013972182 1.3688427e-21)
(1.057039 0.0015935934 -4.3525325e-21)
(1.055438 0.0011537754 3.7291785e-21)
(1.0542755 0.00065663131 -1.0335038e-20)
(0.83957604 -0.013931125 -1.4259501e-20)
(0.86436525 -0.015849159 0)
(0.89281353 -0.015663821 0)
(0.92235612 -0.016366194 0)
(0.95164484 -0.016455723 -2.5165848e-21)
(0.9794586 -0.016659224 8.6991364e-21)
(1.0040389 -0.016665254 -9.4950932e-22)
(1.0245638 -0.016687241 -1.4117272e-21)
(1.0402708 -0.016675633 1.6617534e-20)
(1.0514491 -0.016713469 -1.5732866e-20)
(1.0587106 -0.016745537 9.6810627e-21)
(1.0632063 -0.016751859 -3.354752e-21)
(1.0659512 -0.016626651 1.5207432e-21)
(1.0678026 -0.016300608 -8.0948222e-21)
(1.069196 -0.015692785 3.7101826e-21)
(1.0703312 -0.014768536 4.690506e-21)
(1.071201 -0.013516149 1.0238212e-21)
(1.0717581 -0.011958558 -9.7445952e-21)
(1.0719218 -0.010148397 -4.3495378e-21)
(1.0716382 -0.0081631185 -8.4759298e-21)
(1.0708713 -0.0061054004 -7.7515318e-21)
(1.0696262 -0.0040847441 3.2185951e-21)
(1.0679447 -0.0022219586 7.58086e-21)
(1.0659076 -0.00060874431 -2.4441302e-21)
(1.063633 0.00064499218 -1.9817369e-21)
(1.0612531 0.0015293365 8.8594135e-23)
(1.0589412 0.0019169672 -3.3792905e-21)
(1.0568294 0.0019725653 2.2867143e-21)
(1.0551542 0.0013881336 -1.574465e-20)
(1.0539325 0.00072973251 -6.8699456e-21)
(0.81245389 -0.013546847 -1.1260036e-21)
(0.83688141 -0.015709062 -9.5498805e-22)
(0.86439537 -0.01568589 0)
(0.89356641 -0.016639056 0)
(0.92388331 -0.016909462 0)
(0.9539405 -0.017304251 0)
(0.98195738 -0.017435929 0)
(1.0067535 -0.017534636 3.1034658e-22)
(1.0270575 -0.017538312 -8.08707e-21)
(1.0425743 -0.017552656 1.7585626e-20)
(1.0534098 -0.017553181 -9.3054608e-22)
(1.0604681 -0.017553852 1.0887622e-20)
(1.0648001 -0.01747007 -1.4051731e-20)
(1.0675213 -0.017234949 1.6866241e-21)
(1.0693776 -0.016750535 -4.7402215e-23)
(1.0708121 -0.015960377 5.0753147e-21)
(1.0719493 -0.014829297 -9.8129228e-21)
(1.0727908 -0.013362228 -1.0841397e-21)
(1.0732612 -0.011595518 1.3615307e-20)
(1.0732945 -0.0095950325 6.0666914e-21)
(1.0728341 -0.0074542245 1.0510601e-21)
(1.0718613 -0.0052841556 9.4894578e-21)
(1.0703914 -0.0032030903 5.4073186e-22)
(1.0684838 -0.0013312148 -2.8885781e-21)
(1.0662319 0.0002418713 4.5440611e-21)
(1.0637659 0.0014155601 3.3938819e-21)
(1.0612236 0.0021876796 7.4977607e-22)
(1.0587832 0.0024443288 1.419811e-21)
(1.0565721 0.0023528277 2.3897351e-22)
(1.0548293 0.0016216409 1.239363e-20)
(1.0535546 0.0008014071 4.5410434e-21)
(0.7836814 -0.012937178 1.5787042e-20)
(0.80817896 -0.015385458 -4.7117558e-22)
(0.83620862 -0.015560096 4.3384286e-21)
(0.86410364 -0.016744892 4.7948067e-21)
(0.89443986 -0.017196529 0)
(0.92567167 -0.017817787 0)
(0.95620799 -0.018126271 -3.8781232e-22)
(0.98467246 -0.018362492 9.5443086e-21)
(1.0094484 -0.018439313 -1.5761295e-20)
(1.0296877 -0.018470532 1.8582359e-20)
(1.0448892 -0.018450473 2.3059639e-21)
(1.0554791 -0.018427119 -9.8817397e-21)
(1.0622861 -0.018349152 -4.7830238e-22)
(1.0665132 -0.018169368 -5.8489423e-22)
(1.0691868 -0.017786979 -4.1136709e-21)
(1.0710685 -0.017127313 1.2240911e-21)
(1.0725146 -0.016129411 1.0493375e-21)
(1.0736457 -0.014775657 -4.3308219e-22)
(1.0744249 -0.013082927 5.1095652e-21)
(1.0747868 -0.01110214 2.7157127e-20)
(1.0746586 -0.0089159527 8.6224613e-21)
(1.0739994 -0.0066287672 -7.0046631e-21)
(1.0727994 -0.0043631997 9.9577329e-21)
(1.0710922 -0.0022401544 9.2152898e-21)
(1.0689512 -0.00038004613 3.3359206e-21)
(1.0664838 0.0011341373 2.4495855e-21)
(1.0638301 0.0022112253 1.1264262e-21)
(1.0611325 0.0028585818 -1.9860269e-21)
(1.0585721 0.0029757078 2.9606387e-21)
(1.0562701 0.0027321097 -1.082305e-21)
(1.0544671 0.0018529447 7.0701115e-21)
(1.0531454 0.00087137279 5.0398232e-22)
(0.75533155 -0.012104602 -5.2963608e-21)
(0.77770678 -0.014819947 1.7786648e-21)
(0.80680974 -0.015235193 -6.4527376e-21)
(0.8347686 -0.016652823 -4.8965193e-21)
(0.86418441 -0.017307692 0)
(0.89550216 -0.018156313 0)
(0.92748024 -0.018682946 0)
(0.95869628 -0.019111672 -1.6561655e-21)
(0.98739318 -0.019324808 1.2110817e-20)
(1.0122992 -0.019431934 1.3577833e-20)
(1.0323361 -0.019429885 2.4526106e-21)
(1.0473179 -0.0193903 -2.095033e-21)
(1.0576025 -0.019296613 1.9736424e-20)
(1.0642202 -0.019135127 -1.550966e-20)
(1.0683204 -0.018820815 4.9182515e-21)
(1.0709747 -0.018273749 0)
(1.072858 -0.017410039 1.1530302e-21)
(1.0743119 -0.016185984 1.4306458e-21)
(1.0754041 -0.01459415 1.2426629e-20)
(1.0760992 -0.012667057 -1.1487987e-21)
(1.0763193 -0.010472715 -1.3549478e-20)
(1.0760048 -0.0081069313 -4.8465188e-21)
(1.0751216 -0.0056881954 -1.0939329e-20)
(1.0736778 -0.0033449849 -1.0575017e-20)
(1.0717216 -0.0012017537 4.3077839e-22)
(1.0693433 0.00062582159 2.4294412e-21)
(1.0666618 0.0020615928 -1.4184497e-21)
(1.0638266 0.0030265659 -1.8188361e-22)
(1.0609821 0.0035374403 4.5262482e-21)
(1.0583109 0.0035078094 1.3264802e-21)
(1.0559269 0.0031082664 1.1091274e-21)
(1.0540708 0.0020809633 -2.0962804e-20)
(1.0527083 0.00093940531 7.9101985e-21)
(0.72819053 -0.011052881 -4.7975894e-21)
(0.7474689 -0.013988749 2.695862e-22)
(0.77558638 -0.014667008 -1.1967153e-20)
(0.80418939 -0.016333053 -6.4994602e-21)
(0.83392441 -0.017243359 2.9975425e-21)
(0.8643286 -0.018318742 -2.0844039e-23)
(0.89663658 -0.019058243 1.44206e-20)
(0.92949909 -0.019724291 -7.8481939e-21)
(0.96122009 -0.020132969 -5.0214224e-24)
(0.9902868 -0.020381879 -2.9485829e-20)
(1.0151838 -0.02045752 1.3284122e-20)
(1.0351105 -0.020438835 1.6109774e-20)
(1.0498 -0.020333987 -1.67367e-21)
(1.0598408 -0.020166244 -4.7816284e-21)
(1.0662444 -0.0198823 -6.2759528e-21)
(1.0702526 -0.019415936 -4.5550481e-21)
(1.0728694 -0.01867265 5.3709154e-22)
(1.0747566 -0.017584167 1.4205524e-20)
(1.0761884 -0.016114258 -2.4120143e-22)
(1.0772213 -0.014271832 -2.6388284e-21)
(1.077798 -0.012106422 -4.0723628e-21)
(1.0778492 -0.0097010194 -1.8427919e-20)
(1.0773193 -0.0071676052 3.0195281e-21)
(1.076191 -0.0046337753 -3.0717549e-21)
(1.0744873 -0.0022347974 -1.3359042e-20)
(1.0722743 -9.3666647e-05 -3.4204662e-21)
(1.069657 0.0016793126 -1.8982967e-21)
(1.0667655 0.0030179454 -3.3219214e-21)
(1.0637563 0.0038559 6.3969071e-22)
(1.0607747 0.0042199286 -8.7211881e-22)
(1.0580027 0.0040374874 2.1584147e-21)
(1.0555459 0.0034794011 -7.484582e-23)
(1.0536443 0.0023046601 8.7568217e-21)
(1.052247 0.0010052969 -1.5223398e-20)
(0.70305335 -0.0097872588 5.0025906e-21)
(0.71831555 -0.012879386 -3.8925124e-22)
(0.74442769 -0.013835825 1.3777309e-20)
(0.77169087 -0.015770013 3.3505252e-21)
(0.80236697 -0.01694081 -1.0349988e-20)
(0.83302994 -0.018288107 -1.425563e-20)
(0.8646058 -0.019251616 -1.8189972e-21)
(0.89795377 -0.020147124 0)
(0.93158228 -0.020801876 -8.3998367e-21)
(0.96392658 -0.021255464 -3.2118454e-20)
(0.99323549 -0.021477495 2.3688481e-21)
(1.0182109 -0.021540247 -6.0557972e-21)
(1.0379456 -0.021459695 0)
(1.0524012 -0.021287106 -3.2916256e-21)
(1.062166 -0.021006404 1.2114056e-20)
(1.0683934 -0.020582739 6.6626125e-21)
(1.0722952 -0.019930779 -5.4567533e-21)
(1.0748842 -0.018968681 0)
(1.0767502 -0.017631668 -7.3575122e-21)
(1.0781425 -0.015899613 -9.7744746e-21)
(1.0790816 -0.013797928 -1.9191123e-20)
(1.0795112 -0.01139263 -5.6974375e-21)
(1.0793611 -0.0087845307 0)
(1.0785908 -0.0060976733 -1.3129324e-20)
(1.0771966 -0.003469831 4.4639002e-22)
(1.0752205 -0.0010381203 1.2390317e-22)
(1.0727451 0.001076689 -5.5293876e-21)
(1.0698902 0.0027733732 1.8301405e-21)
(1.066795 0.0039964671 4.3522455e-22)
(1.0636214 0.0046938058 5.9580342e-21)
(1.0605134 0.0049018661 -9.9440421e-21)
(1.057651 0.0045618936 -4.7413229e-21)
(1.0551308 0.0038437936 0)
(1.0531909 0.0025231631 -3.3458196e-22)
(1.0517646 0.0010688862 -4.6748809e-21)
(0.68069515 -0.008320831 3.6219129e-21)
(0.69113636 -0.011490198 1.0541001e-21)
(0.71425367 -0.01273192 1.2534501e-20)
(0.73911104 -0.014917071 1.0525329e-21)
(0.76885513 -0.01636995 -3.0170501e-21)
(0.80036265 -0.017966214 -7.0966308e-22)
(0.83229901 -0.01923716 -1.1447919e-20)
(0.86502107 -0.020383675 4.7093267e-22)
(0.89935859 -0.021272855 0)
(0.93384729 -0.02198625 1.0247714e-20)
(0.96671078 -0.022421998 -1.1210919e-20)
(0.99634347 -0.022637703 2.8420902e-21)
(1.0213137 -0.02264282 -6.2612958e-21)
(1.0409107 -0.022499268 8.3521687e-21)
(1.0550907 -0.022220194 -2.0180264e-22)
(1.0646164 -0.021809753 1.3786739e-20)
(1.0706533 -0.021211547 -8.1234103e-21)
(1.0744647 -0.020350038 4.4407011e-21)
(1.0770066 -0.019141801 1.3840327e-20)
(1.078839 -0.017536359 -6.5960234e-21)
(1.080159 -0.015528678 1.3708836e-20)
(1.0809754 -0.013161769 1.7747983e-21)
(1.0812228 -0.01052071 0)
(1.0808427 -0.0077210232 -3.6055487e-21)
(1.0798062 -0.0049000535 1.2832577e-22)
(1.0781288 -0.002201147 5.159315e-21)
(1.0758703 0.00023761528 4.5845187e-21)
(1.0731304 0.0023017228 2.3932604e-21)
(1.0700418 0.0039003087 4.3689651e-22)
(1.0667514 0.0049906251 0)
(1.0634242 0.0055349516 -3.9598582e-21)
(1.0602013 0.0055793959 -1.0540714e-20)
(1.0572594 0.0050784266 1.9391748e-20)
(1.0546851 0.0041999512 -6.3735389e-21)
(1.052714 0.0027357058 5.2774536e-22)
(1.0512645 0.0011300392 1.6441863e-20)
(0.66183406 -0.0066756097 -3.3639085e-21)
(0.66682036 -0.0098317821 -1.3062481e-22)
(0.68601954 -0.011354362 -3.7672171e-21)
(0.70740887 -0.013762291 2.5072695e-23)
(0.73505001 -0.015507847 1.2212763e-20)
(0.76563683 -0.01739544 1.0172917e-20)
(0.79856658 -0.018933959 -1.7229499e-22)
(0.83166813 -0.020392772 -9.4337845e-21)
(0.86553763 -0.021551627 5.0394159e-22)
(0.90093204 -0.022509575 -8.7461164e-21)
(0.93620919 -0.023220156 -4.4453594e-22)
(0.96966617 -0.023660227 5.445317e-21)
(0.99954635 -0.023825682 -1.0439523e-21)
(1.0245626 -0.023773547 1.0115625e-20)
(1.0439732 -0.023528401 -2.9019065e-20)
(1.0579106 -0.023126598 6.5513546e-21)
(1.0671781 -0.022550808 3.8078556e-22)
(1.0730436 -0.021753271 5.2243205e-21)
(1.0767504 -0.020651963 -2.5784894e-21)
(1.0792394 -0.019174432 -7.6244493e-22)
(1.0810089 -0.017282333 1.0935142e-20)
(1.0822288 -0.014988463 -9.1799485e-21)
(1.0828858 -0.012355717 4.5039699e-21)
(1.0829192 -0.0094861971 0)
(1.0822788 -0.0065115764 1.6882805e-20)
(1.0809539 -0.003578397 1.3232152e-20)
(1.0789782 -0.00083476236 -2.0322124e-21)
(1.0764309 0.001584563 6.5828992e-21)
(1.0734272 0.0035729218 5.7505308e-22)
(1.0701116 0.0050524939 -2.6477872e-22)
(1.0666363 0.0059938819 5.4098182e-21)
(1.0631676 0.0063743403 -9.4188818e-21)
(1.059842 0.0062489491 -2.0766248e-22)
(1.0568315 0.0055847872 1.9646962e-20)
(1.0542125 0.0045465785 -1.1316045e-21)
(1.0522171 0.0029416543 -5.679122e-22)
(1.0507496 0.0011886594 5.950284e-21)
(0.64709504 -0.0048816877 3.5651178e-22)
(0.64620605 -0.0079292012 -1.0853366e-21)
(0.66068284 -0.0097129777 -4.7747996e-21)
(0.67760905 -0.012303185 -5.4092777e-22)
(0.70198828 -0.01432683 1.8505551e-24)
(0.73046796 -0.016501628 1.7675958e-22)
(0.76269892 -0.018347874 -6.6230637e-21)
(0.79681253 -0.020084813 3.8189921e-21)
(0.83112833 -0.021586966 0)
(0.86619845 -0.022834352 1.7715676e-21)
(0.90261408 -0.023801025 0)
(0.93874537 -0.024532126 0)
(0.97273503 -0.024934098 5.7195075e-21)
(1.0029126 -0.025051445 -5.3054389e-22)
(1.0279251 -0.024903736 -4.9001049e-21)
(1.0471779 -0.024541286 -6.1446328e-21)
(1.0608464 -0.023980541 1.6085352e-20)
(1.0698738 -0.023214117 -9.2917133e-21)
(1.0755554 -0.022184764 6.1426104e-22)
(1.0791579 -0.020817781 7.4739884e-22)
(1.0815698 -0.01904827 -1.4071747e-20)
(1.0832521 -0.016854301 -5.9789797e-21)
(1.0843352 -0.014268525 4.4215388e-21)
(1.0847987 -0.011372815 1.1292181e-20)
(1.0845838 -0.0082879333 2.1813776e-21)
(1.0836559 -0.0051582639 1.8052869e-21)
(1.0820222 -0.0021388987 -4.6586545e-21)
(1.0797367 0.00062157585 -4.6070732e-21)
(1.0768972 0.0029936452 -6.6068101e-22)
(1.0736337 0.0048816794 -2.8031494e-21)
(1.0701001 0.0062221578 -5.0572336e-21)
(1.066452 0.0070000062 -2.7426534e-21)
(1.0628549 0.0072072727 1.8101892e-21)
(1.0594393 0.0069073191 1.4438595e-20)
(1.0563711 0.0060789588 -3.7813006e-20)
(1.0537163 0.0048825909 -6.2644964e-21)
(1.0517033 0.0031404897 -5.8166073e-21)
(1.0502229 0.0012446785 0)
(0.63697796 -0.0029757193 2.9128473e-21)
(0.63003287 -0.0058210328 -1.1927215e-22)
(0.6391509 -0.0078322161 -1.2341625e-21)
(0.65075798 -0.01054738 -4.5386712e-22)
(0.67077789 -0.012824667 -5.5326241e-21)
(0.6959222 -0.015265431 -4.2497727e-21)