/*--------------------------------*- C++ -*----------------------------------*\
| =========                 |                                                 |
| \\      /  F ield         | OpenFOAM: The Open Source CFD Toolbox           |
|  \\    /   O peration     | Version:  5.0                                   |
|   \\  /    A nd           | Web:      www.OpenFOAM.org                      |
|    \\/     M anipulation  |                                                 |
\*---------------------------------------------------------------------------*/
FoamFile
{
    version     2.0;
    format      ascii;
    class       volScalarField;
    location    "20";
    object      p;
}
// * * * * * * * * * * * * * * * * * * * * * * * * * * * * * * * * * * * * * //

dimensions      [0 2 -2 0 0 0 0];

internalField   nonuniform List<scalar> 
9200
(
-0.00020856549
-0.00019958542
-0.00052164915
-0.00018854413
-0.00050028164
-0.00089110567
-0.000172639
-0.00047196753
-0.00085654634
-0.00125456
-0.00015207314
-0.00043192551
-0.00080797894
-0.0012084326
-0.0016406724
-0.00013065637
-0.00038117344
-0.00074004009
-0.0011411623
-0.0015831936
-0.0020435301
-0.00010602383
-0.0003267708
-0.00065467711
-0.0010478367
-0.0014966344
-0.0019762118
-0.0024655201
-8.1259359e-05
-0.00026569499
-0.00056165837
-0.00093047564
-0.0013775282
-0.0018717491
-0.0023895038
-0.0029086061
-5.5463553e-05
-0.00020336619
-0.00045828732
-0.00080135522
-0.0012275272
-0.0017285897
-0.0022681567
-0.0028255425
-0.0033727583
-2.9995283e-05
-0.00013908439
-0.00035179168
-0.00065791152
-0.0010613802
-0.0015470939
-0.0021027769
-0.0026888371
-0.0032846908
-0.0038576283
-4.8310932e-06
-7.5360672e-05
-0.00024219584
-0.00050901988
-0.00087652729
-0.0013449241
-0.0018912881
-0.0025037168
-0.0031347983
-0.0037668737
-0.0043623257
1.9442836e-05
-1.2667115e-05
-0.00013315979
-0.00035537821
-0.00068351472
-0.0011191145
-0.001654207
-0.0022646183
-0.0029329845
-0.0036064394
-0.0042714438
-0.004884168
4.2586584e-05
4.7753484e-05
-2.5922167e-05
-0.00020173967
-0.00048372589
-0.00088184885
-0.0013878986
-0.0019948343
-0.0026691237
-0.0033919358
-0.0041036744
-0.004796072
-0.0054210819
6.4362961e-05
0.00010523464
7.7638019e-05
-5.0094062e-05
-0.00028301346
-0.00063508218
-0.0011060548
-0.0016895144
-0.0023692315
-0.0031073582
-0.0038810391
-0.0046248203
-0.0053387939
-0.0059686978
8.4665103e-05
0.00015922283
0.00017642739
9.694812e-05
-8.4142108e-05
-0.00038576219
-0.00081113955
-0.0013637381
-0.0020268174
-0.0027813542
-0.0035805536
-0.0043996224
-0.0051683484
-0.0058956632
-0.006523971
0.00010343184
0.00020944211
0.00026951519
0.00023773462
0.0001095115
-0.00013746718
-0.00051118419
-0.0010203212
-0.0016581262
-0.0024051861
-0.0032332349
-0.0040892764
-0.0049467082
-0.0057308718
-0.0064636895
-0.0070815331
0.00012069589
0.00025573524
0.00035634274
0.00037087799
0.0002956858
0.00010557922
-0.0002106414
-0.00066834348
-0.0012661418
-0.0019959804
-0.002827553
-0.0037269338
-0.0046334388
-0.0055198524
-0.0063096457
-0.007037721
-0.0076378222
0.00013650553
0.000298068
0.00043658561
0.00049548535
0.00047248013
0.0003403986
8.5327519e-05
-0.00031315903
-0.00086089886
-0.0015566114
-0.0023811485
-0.0032976372
-0.004263454
-0.0052118098
-0.0061166937
-0.0068998879
-0.0076140395
-0.0081871247
0.00015087989
0.00033650175
0.00051013756
0.00061100582
0.00063860612
0.00056446433
0.00037290763
3.9047562e-05
-0.00044865087
-0.0010979247
-0.0018964721
-0.0028190889
-0.0038177623
-0.0048430789
-0.0058227698
-0.0067331065
-0.0074979639
-0.0081869076
-0.0087254946
0.00016387597
0.00037117214
0.00057705593
0.00071720436
0.0007932224
0.00077598015
0.00064881913
0.00038349517
-3.6668751e-05
-0.00062701992
-0.001384956
-0.0022928915
-0.0033135761
-0.0043900007
-0.0054652515
-0.0064631758
-0.0073655571
-0.008098176
-0.0087522421
-0.0092475727
0.00017559499
0.00040226387
0.0006375246
0.00081409841
0.00093590159
0.00097371109
0.00091062884
0.00071599898
0.00036917694
-0.0001522884
-0.00085442753
-0.0017307352
-0.0027511612
-0.0038686997
-0.005015259
-0.0061282041
-0.0071299172
-0.0080084983
-0.0086963057
-0.009304344
-0.009750706
0.00018614073
0.00042999794
0.00069183176
0.00090190205
0.001066555
0.0011569452
0.0011565853
0.0010333288
0.00076363827
0.00031919963
-0.00031437293
-0.0011409638
-0.0021420362
-0.0032775334
-0.0044871803
-0.0056935643
-0.0068295858
-0.0078179038
-0.0086574468
-0.0092863486
-0.0098395837
-0.010229708
0.00019561177
0.00045461746
0.00074033434
0.00098098193
0.0011853608
0.0013254114
0.0013855799
0.0013330638
0.0011425083
0.00078096657
0.00022686836
-0.00053405749
-0.0014947472
-0.0026273016
-0.0038768379
-0.0051712531
-0.0064238068
-0.0075651444
-0.0085226187
-0.0093060858
-0.0098637709
-0.010353
-0.010681597
0.00020410077
0.00047637014
0.00078343524
0.0010518076
0.0012927107
0.0014791919
0.0015970596
0.0016135605
0.0015025122
0.0012276243
0.0007614445
8.0360913e-05
-0.00082055893
-0.0019263037
-0.0031936614
-0.0045539006
-0.005921574
-0.0072030841
-0.0083306291
-0.0092375491
-0.009949344
-0.010423088
-0.010841488
-0.011102646
0.00021169006
0.00049550646
0.00082155849
0.0011149219
0.0013891436
0.0016186581
0.0017909253
0.0018738677
0.0018412947
0.001654821
0.0012825844
0.00069295421
-0.00013029383
-0.0011862415
-0.0024451327
-0.0038488407
-0.0053116893
-0.0067371701
-0.0080278901
-0.0091196359
-0.0099570806
-0.01058078
-0.010960829
-0.011300301
-0.011490357
0.00021845013
0.00051227262
0.00085513661
0.0011709055
0.0014753077
0.0017443882
0.0019674579
0.0021136112
0.0021573455
0.0020592648
0.0017846184
0.00129538
0.00056519849
-0.00041892442
-0.0016429077
-0.0030620574
-0.0045986204
-0.0061517742
-0.0076158813
-0.0088924216
-0.0099261686
-0.01067399
-0.011195215
-0.011471586
-0.011726628
-0.011842725
0.00022443543
0.00052690922
0.00088459657
0.0012203617
0.0015519121
0.0018571204
0.0021272159
0.0023329111
0.0024498754
0.0024386741
0.0022630654
0.001880406
0.0012558802
0.00036336908
-0.00079944185
-0.0022045443
-0.0037860816
-0.0054477046
-0.0070740431
-0.0085531408
-0.0097907087
-0.0107423
-0.011381984
-0.011786785
-0.01195167
-0.012117946
-0.012158591
0.00022968568
0.00053964423
0.00091035751
0.0012638917
0.0016197081
0.0019576874
0.002270979
0.002532255
0.0027187297
0.0027916523
0.0027146239
0.0024420914
0.0019327536
0.0011488612
7.1743223e-05
-0.0012889218
-0.0028836532
-0.0046255564
-0.0063987671
-0.0080759415
-0.0095435917
-0.010714448
-0.011560671
-0.012073841
-0.012351174
-0.012397513
-0.012472472
-0.012437252
0.00023420304
0.00055070315
0.00093281363
0.0013020883
0.0016794564
0.0020469886
0.0023996617
0.0027124317
0.0029642353
0.0031176056
0.0031370657
0.0029758402
0.0025881591
0.001926633
0.00095714055
-0.00032964131
-0.0019034734
-0.0036926064
-0.005586647
-0.0074521219
-0.0091535042
-0.010579104
-0.011655376
-0.012372666
-0.01274341
-0.012883214
-0.012806476
-0.012788919
-0.012677648
0.00023799993
0.00056027408
0.00095234552
0.0013354982
0.0017319273
0.0021259385
0.0025142782
0.0028744149
0.0031871272
0.0034165636
0.0035291685
0.0034783452
0.0032158977
0.0026870556
0.0018437516
0.00065817494
-0.00086042133
-0.0026596681
-0.0046416499
-0.0066734067
-0.0086061374
-0.010299551
-0.011650931
-0.012603539
-0.013170372
-0.013384209
-0.013378898
-0.013176389
-0.013066353
-0.01287837
0.00024036561
0.00056865868
0.00096924553
0.001364652
0.001777843
0.0021954741
0.0026158733
0.0030193175
0.0033883982
0.0036891102
0.003890508
0.0039475555
0.0038112317
0.0034219912
0.0027196678
0.0016593672
0.0002290854
-0.0015413045
-0.0035722296
-0.0057393772
-0.007887586
-0.0098555818
-0.011505536
-0.012748064
-0.013549256
-0.013945388
-0.01399076
-0.013834634
-0.013505728
-0.013304322
-0.013040316
0.0002422655
0.00057455698
0.00098394723
0.0013899311
0.0018179324
0.0022564784
0.002705547
0.0031482852
0.0035692484
0.0039362038
0.0042213856
0.0043824625
0.004370877
0.0041248777
0.0035743826
0.0026594942
0.0013478581
-0.00035463262
-0.0023916313
-0.0046549368
-0.0069919993
-0.0092270844
-0.011193057
-0.012759958
-0.013859163
-0.014482006
-0.014690189
-0.014557859
-0.01424787
-0.013793653
-0.013503479
-0.013169968
0.0002439295
0.00057880383
0.00099383408
0.0014120456
0.0018526831
0.0023098977
0.0027843607
0.0032625308
0.0037309139
0.0041591478
0.0045225778
0.0047830518
0.0048927712
0.004790763
0.0043990193
0.0036453073
0.0024788826
0.00088154258
-0.0011167857
-0.0034307794
-0.0059194746
-0.0084018504
-0.010686871
-0.012607452
-0.014050202
-0.014971516
-0.015391852
-0.015397476
-0.015081451
-0.014616694
-0.014040007
-0.01366573
-0.013274471
0.00024537623
0.00058244675
0.0010003764
0.0014269168
0.0018831353
0.002356319
0.0028535193
0.003363236
0.0038747011
0.0043593306
0.0047952852
0.0051499987
0.0053760409
0.0054160968
0.0051864645
0.004605186
0.0036059774
0.0021478513
0.00023259311
-0.0020824793
-0.0046767616
-0.0073739513
-0.0099677101
-0.012257429
-0.014085576
-0.015361535
-0.016072527
-0.016268898
-0.01606101
-0.015557978
-0.014939925
-0.0142451
-0.013792421
-0.013343875
0.00024657895
0.0005856067
0.0010060136
0.0014365545
0.0019030523
0.0023973411
0.0029137074
0.0034518445
0.00400187
0.0045383829
0.0050409502
0.005484684
0.0058206263
0.0059987562
0.0059312452
0.005529419
0.0047144675
0.0034251863
0.0016352556
-0.00062963969
-0.0032766612
-0.0061447275
-0.0090225489
-0.011683177
-0.013926078
-0.01561117
-0.016678633
-0.017149281
-0.0171042
-0.016675228
-0.015984851
-0.015216946
-0.014409454
-0.013881977
-0.013366025
0.00024754932
0.0005882808
0.001010922
0.0014447387
0.0019155114
0.0024238709
0.0029672214
0.00352918
0.0041139863
0.0046978411
0.0052620918
0.0057888558
0.0062273574
0.0065376295
0.006629652
0.0064102082
0.0057916211
0.004695632
0.003069377
0.00090539273
-0.0017373314
-0.004722604
-0.0078458954
-0.010863767
-0.013537567
-0.01567592
-0.017166402
-0.017985262
-0.01818957
-0.017889526
-0.017235698
-0.016360189
-0.015447711
-0.014533872
-0.013932671
-0.013347311
0.0002483045
0.00059049505
0.0010150712
0.0014518285
0.0019260632
0.0024403946
0.0030010447
0.0035985776
0.0042119466
0.0048392764
0.0054608481
0.006063694
0.0065974285
0.0070327824
0.0072792853
0.007241903
0.0068268115
0.0059430607
0.0045137527
0.0024985588
-8.1077033e-05
-0.003122669
-0.0064401039
-0.0097856159
-0.012890783
-0.015514695
-0.017487216
-0.018731641
-0.019265427
-0.019181804
-0.018617878
-0.017738924
-0.016683116
-0.015632794
-0.014619707
-0.01394731
-0.013298944
0.0002488617
0.00059226864
0.0010184863
0.0014577909
0.0019352502
0.0024543602
0.0030219053
0.0036420858
0.0043002498
0.0049635747
0.0056389818
0.0063100086
0.0069328086
0.0074848353
0.0078793267
0.0080205043
0.0078118836
0.0071534966
0.0059485587
0.0041255367
0.0016666587
-0.0013656669
-0.0048153331
-0.0084433446
-0.011963117
-0.015089966
-0.017593996
-0.019337197
-0.020286723
-0.020503453
-0.020115649
-0.019283393
-0.018182544
-0.016953607
-0.015773409
-0.014668882
-0.013929888
-0.013231881
0.00024923598
0.00059361662
0.0010211877
0.0014626849
0.0019429966
0.0024666668
0.0030394519
0.0036693595
0.0043550336
0.0050761553
0.0057971762
0.0065300912
0.0072355864
0.007895596
0.0084296927
0.0087440613
0.0087406484
0.0083156461
0.0073559768
0.0057626457
0.0034789467
0.00052287185
-0.0029888792
-0.0068401828
-0.01074
-0.014369642
-0.017441577
-0.019750284
-0.021201402
-0.021811217
-0.021684793
-0.020982051
-0.019881582
-0.018565168
-0.017172268
-0.01587124
-0.014683618
-0.013883421
-0.013156037
0.00024943707
0.00059454695
0.0010232044
0.0014665643
0.0019493767
0.0024771718
0.0030551267
0.0036924761
0.004389668
0.0051460003
0.0059410552
0.0067247671
0.0075088349
0.0082668188
0.0089318943
0.009411538
0.0096094792
0.0094204163
0.0087209142
0.0073877944
0.0053283619
0.0025143986
-0.00098457574
-0.00498778
-0.0092157769
-0.013328911
-0.016988531
-0.019919324
-0.021955077
-0.023054132
-0.023285444
-0.022796224
-0.021773571
-0.020409248
-0.018886413
-0.017340168
-0.015928368
-0.014666305
-0.013811146
-0.01306685
0.00059506018
0.00024943744
0.0010245735
0.0014694887
0.0019544464
0.0024860023
0.0030686358
0.0037135204
0.0044193832
0.0051901548
0.0060329745
0.0069009615
0.0077528792
0.0086019096
0.0093871394
0.010023945
0.010415895
0.010461771
0.010030591
0.0089814131
0.0071883115
0.0045783345
0.0011689754
-0.0029060116
-0.0073941005
-0.011951563
-0.016199355
-0.019794394
-0.02249153
-0.024177188
-0.024869693
-0.024690903
-0.023826338
-0.022484395
-0.020864526
-0.019146772
-0.017459018
-0.015947182
-0.014619464
-0.013716646
-0.012955629
0.001025333
0.00059506138
0.00024923708
0.0014715043
0.0019582806
0.0024932042
0.0030800917
0.0037320516
0.0044468862
0.0052289237
0.0060919598
0.0070139331
0.0079737259
0.0089014789
0.0097994187
0.010581717
0.01116016
0.01143502
0.011275724
0.010526199
0.0090341909
0.0066838173
0.0034392555
-0.00062135571
-0.0052882679
-0.010230998
-0.015046146
-0.019329606
-0.022753908
-0.025121766
-0.026384187
-0.026623114
-0.026010981
-0.024765691
-0.023110447
-0.021246776
-0.019347557
-0.017531105
-0.015930129
-0.014545355
-0.013603666
-0.012823038
0.0014726404
0.0010253349
0.00059455052
0.00024886353
0.0019609398
0.0024988103
0.0030895495
0.0037481569
0.0044714629
0.0052658756
0.0061440021
0.0070843539
0.0081158392
0.0091745545
0.010168506
0.011089222
0.011841617
0.012339056
0.012448492
0.012008731
0.01084341
0.0088010382
0.0057919969
0.0018336386
-0.0029199163
-0.0081711833
-0.013510195
-0.018484995
-0.022687098
-0.02582631
-0.027770479
-0.028543459
-0.028291161
-0.027231311
-0.025607021
-0.023649313
-0.021556525
-0.019490784
-0.017559044
-0.015879564
-0.014445702
-0.013474251
-0.012675827
0.0019624586
0.0014726431
0.0010245792
0.00059362257
0.00024830707
0.0025027977
0.0030970376
0.0037618558
0.0044930055
0.0053002658
0.0061921134
0.0071488469
0.0082014642
0.0093526325
0.010506796
0.01154438
0.012465031
0.013171501
0.013545634
0.013417109
0.012597539
0.010901657
0.0081925721
0.0044228822
-0.00031903133
-0.0057858494
-0.011583573
-0.017228586
-0.022239647
-0.026228514
-0.028965068
-0.030396383
-0.030623585
-0.029852981
-0.02834017
-0.026345258
-0.024100189
-0.021795342
-0.019579077
-0.017545656
-0.015798048
-0.014322629
-0.013325035
-0.012515443
0.0025050944
0.0019624622
0.0014715126
0.0010232141
0.00059227697
0.00024755262
0.003102466
0.0037730118
0.0045115972
0.0053313381
0.0062351634
0.0072106815
0.0082799985
0.0094602216
0.010728982
0.011963792
0.013026154
0.013937311
0.014562192
0.014745133
0.014279627
0.012961504
0.010606879
0.0071079548
0.0024788408
-0.0030992447
-0.0092689781
-0.015538527
-0.021366137
-0.026267064
-0.029901264
-0.032119545
-0.032958279
-0.032595403
-0.031290769
-0.029328629
-0.02697753
-0.02446374
-0.02196564
-0.019615366
-0.017493955
-0.015688955
-0.014180193
-0.013160159
-0.012343298
0.0031056318
0.0025050989
0.0019609506
0.0014695025
0.0010212012
0.00059050575
0.000246583
0.0037812435
0.0045270552
0.0053584313
0.0062733658
0.0072697238
0.0083559679
0.0095587563
0.010866922
0.012240879
0.013546664
0.014629169
0.01550306
0.015984298
0.015879721
0.014957573
0.013004542
0.0098495401
0.0054332713
-0.00014323146
-0.0065813844
-0.013403668
-0.020029691
-0.025884101
-0.030510557
-0.033645271
-0.035237282
-0.035416634
-0.034433039
-0.032590158
-0.030190659
-0.027503011
-0.024741924
-0.022070472
-0.019602711
-0.017406663
-0.015555646
-0.014020454
-0.012982032
-0.012161129
0.003786027
0.0031056375
0.0025028114
0.0019582987
0.0014665836
0.0010185036
0.00058829388
0.00024538101
0.0045386716
0.0053809669
0.0063079611
0.0073237969
0.0084288224
0.0096528073
0.010992726
0.012419223
0.013894599
0.015274535
0.01635665
0.017139157
0.017384661
0.01687516
0.015355594
0.012610977
0.0085010392
0.0030424185
-0.0035451867
-0.010826142
-0.018203239
-0.025027877
-0.030724924
-0.034901412
-0.037395668
-0.038266193
-0.037735145
-0.036114664
-0.03374051
-0.030923048
-0.027922641
-0.024937624
-0.022113461
-0.019544809
-0.017286954
-0.015399764
-0.013844974
-0.01279249
-0.011970542
0.0045454541
0.0037860339
0.0031024832
0.0024988331
0.0019544718
0.0014627097
0.0010150925
0.00058562216
0.00024393502
0.0053977942
0.0063379035
0.0073711305
0.008497386
0.0097407962
0.01111306
0.012581591
0.014125852
0.015712636
0.017157358
0.018192238
0.018798253
0.018695004
0.017639523
0.015354712
0.011639743
0.0064129356
-0.00019593502
-0.0078187354
-0.015872956
-0.02365456
-0.030479391
-0.035813281
-0.039361831
-0.041085668
-0.041156826
-0.03988201
-0.037623094
-0.034734915
-0.031525099
-0.028238815
-0.025054465
-0.022098746
-0.019446295
-0.017138955
-0.015223203
-0.013655129
-0.012593344
-0.011772683
0.0054075184
0.0045454626
0.0037812642
0.0030970662
0.0024932362
0.0019494094
0.0014578213
0.0010109472
0.00058246458
0.00024227177
0.006360645
0.0074111419
0.0085582714
0.009822472
0.011225738
0.012738366
0.0143361
0.01601103
0.01771063
0.019187056
0.020095194
0.020419478
0.01982925
0.018053523
0.014804186
0.0099216967
0.003423637
-0.0044084663
-0.013036008
-0.021732275
-0.029714131
-0.036305849
-0.041058893
-0.04380844
-0.044649677
-0.043864348
-0.041830994
-0.038946031
-0.035569909
-0.031998106
-0.028455215
-0.02509721
-0.02203124
-0.019311351
-0.016964876
-0.015027608
-0.01345315
-0.012387011
-0.011569227
0.0063738897
0.0054075281
0.0045386971
0.0037730464
0.0030895896
0.0024860433
0.0019430366
0.0014518644
0.0010060426
0.00057882402
0.00024037263
0.0074416339
0.0086099833
0.0098971353
0.011329773
0.012886609
0.014539592
0.016282741
0.018096197
0.019888714
0.021331094
0.022012973
0.021924879
0.020670743
0.017959948
0.013516842
0.0072654223
-0.00063126825
-0.009706226
-0.019239358
-0.028378756
-0.036305921
-0.042406355
-0.046360525
-0.048156394
-0.048026237
-0.04635033
-0.043562061
-0.040075773
-0.03624497
-0.032345327
-0.02857681
-0.025071947
-0.021915998
-0.019141582
-0.016765876
-0.014816184
-0.013242891
-0.01217592
-0.011360892
0.0074595372
0.0063739011
0.0053978235
0.0045270979
0.0037619042
0.0030801431
0.0024772219
0.0019352975
0.0014447802
0.0010004094
0.00057457955
0.00023800766
0.0086492159
0.0099627866
0.011423446
0.013024343
0.014733045
0.016546304
0.018446211
0.020393309
0.022223743
0.0235462
0.023877445
0.023203524
0.021059267
0.017157049
0.011273323
0.0034672269
-0.0059071592
-0.01617213
-0.026431128
-0.035746203
-0.043322073
-0.048661555
-0.051611089
-0.052323526
-0.051160807
-0.048583931
-0.045061315
-0.041008645
-0.036762336
-0.032572821
-0.02861044
-0.024984521
-0.021754618
-0.018938152
-0.016546034
-0.014595407
-0.013027689
-0.011959385
-0.011137306
0.0086727531
0.0074595508
0.0063606793
0.0053810162
0.0045116571
0.0037482191
0.0030686985
0.0024667259
0.0019261178
0.0014366015
0.00099387112
0.00056868345
0.00023421143
0.010012828
0.011503678
0.013147553
0.014914804
0.01679686
0.018786473
0.020847049
0.022892777
0.024683416
0.025775513
0.025585952
0.02409603
0.020782642
0.015400548
0.0078307804
-0.0016770598
-0.012536073
-0.023846892
-0.034564654
-0.043725724
-0.050626368
-0.054939612
-0.056703247
-0.056234455
-0.054007857
-0.050542226
-0.046320334
-0.041745077
-0.037127704
-0.032689003
-0.028563985
-0.024838431
-0.021548928
-0.018706926
-0.016315131
-0.014370108
-0.012804474
-0.011718619
-0.010895295
0.010043303
0.0086727671
0.0074416749
0.006337961
0.005358501
0.0044930827
0.0037321276
0.0030552008
0.0024544285
0.0019155733
0.0014269694
0.00098398801
0.00056030092
0.00022969478
0.01156546
0.013251912
0.015080514
0.017031942
0.019110278
0.021286894
0.023488758
0.025574969
0.027225216
0.027928045
0.026983096
0.024384546
0.019575971
0.012409959
0.0029335801
-0.0083567556
-0.020608717
-0.032715112
-0.043538562
-0.052167576
-0.05806066
-0.0611034
-0.061535246
-0.059824038
-0.056531781
-0.052209723
-0.047336174
-0.042290349
-0.037350417
-0.032700823
-0.028441059
-0.024633515
-0.021306525
-0.018462032
-0.016080014
-0.014132445
-0.012542288
-0.011458745
-0.010640743
0.011603891
0.010043317
0.0086492586
0.0074112116
0.0063080429
0.005331428
0.0044715571
0.0037136102
0.0030395375
0.0024404725
0.0019031216
0.0014121033
0.00096928982
0.00055073217
0.00022444527
0.013331094
0.015221968
0.017248488
0.019412323
0.021705397
0.02406274
0.026365041
0.028414263
0.029775445
0.029857511
0.027849465
0.023788541
0.017124383
0.0078769209
-0.0036713883
-0.016724552
-0.030154757
-0.042694254
-0.05319556
-0.06088728
-0.065453621
-0.067018503
-0.066016217
-0.063039275
-0.058706786
-0.053578458
-0.048113005
-0.042654233
-0.037439515
-0.032610563
-0.02824129
-0.024379901
-0.021046876
-0.018212865
-0.015826384
-0.013830065
-0.012261043
-0.011185192
-0.010374198
0.013380286
0.011603909
0.010012872
0.0086100564
0.0073712317
0.0062734728
0.0053003758
0.0044469971
0.0036925797
0.0030220026
0.0024239581
0.0018832115
0.0013899937
0.0009523935
0.00053967554
0.00021846076
0.015327899
0.01743621
0.019688904
0.022093846
0.024607442
0.027121948
0.029465382
0.031363096
0.032205962
0.031349154
0.027893992
0.021962818
0.013067677
0.0014789476
-0.012209846
-0.026870296
-0.041124914
-0.053628591
-0.063327023
-0.069675615
-0.072631262
-0.072560967
-0.070069715
-0.065839734
-0.060517396
-0.05464983
-0.048662077
-0.042847085
-0.037397727
-0.032419144
-0.027977043
-0.024103795
-0.020782469
-0.017936954
-0.015473452
-0.013506537
-0.011964216
-0.010899148
-0.010095649
0.015392367
0.013380316
0.011565518
0.0099628593
0.0085583757
0.0073239266
0.0062352965
0.0052660062
0.0044195108
0.0036694769
0.0030011534
0.0023974367
0.0018527658
0.0013647198
0.00093286551
0.00052694294
0.00021170152
0.017576843
0.019929514
0.022445421
0.025111794
0.027837587
0.030469717
0.032763813
0.034327822
0.034320285
0.032108509
0.02674673
0.018497448
0.0070111321
-0.0070939059
-0.022847416
-0.038794817
-0.05337795
-0.065290457
-0.073683488
-0.078311848
-0.079427854
-0.077623178
-0.073635104
-0.068198817
-0.061960675
-0.055434876
-0.048994524
-0.042872891
-0.037226504
-0.032144968
-0.027683176
-0.023821483
-0.02048045
-0.017515516
-0.015096411
-0.013164837
-0.011654679
-0.010600395
-0.0098055208
0.017660758
0.015392414
0.013331185
0.011503775
0.0098972353
0.0084975253
0.0072698788
0.0061922699
0.0052290747
0.0043898122
0.003642217
0.0029673407
0.0023564227
0.0018180219
0.0013355715
0.00091041347
0.00051230885
0.00020411309
0.020110514
0.022748551
0.025564435
0.028498837
0.031417822
0.034099511
0.036197478
0.037151703
0.035840481
0.031748308
0.023953593
0.012924122
-0.0014472981
-0.018100222
-0.035654407
-0.052387776
-0.066676146
-0.077389919
-0.083990485
-0.086578541
-0.085695035
-0.082117061
-0.076669641
-0.070106854
-0.063046418
-0.055945892
-0.04911235
-0.042732582
-0.036946838
-0.031832365
-0.027380681
-0.023487316
-0.019973104
-0.017065821
-0.014698056
-0.012811217
-0.011331812
-0.010289601
-0.0095040164
0.020217358
0.017660833
0.015328043
0.013252065
0.011423581
0.0098226046
0.0084289926
0.0072108649
0.0061441823
0.0051903258
0.0043551944
0.0035987218
0.0029138366
0.00231001
0.0017779397
0.0013021672
0.0008846568
0.00049554531
0.000195625
0.022976212
0.025948832
0.029091455
0.032290714
0.035362877
0.037974931
0.039648937
0.039600497
0.036387663
0.029774688
0.018975446
0.0047411402
-0.012672897
-0.031702221
-0.050572451
-0.067414315
-0.080692074
-0.089592673
-0.093967806
-0.094275006
-0.09130775
-0.085977413
-0.079153333
-0.071570872
-0.063787143
-0.056183554
-0.049016575
-0.04245185
-0.036615994
-0.031507268
-0.027007974
-0.022871612
-0.019432135
-0.016590544
-0.014288801
-0.012444134
-0.010996463
-0.0099669763
-0.0091916067
0.023109761
0.020217474
0.017577063
0.015222211
0.013147769
0.011329947
0.0097409681
0.0083561692
0.007149058
0.0060921639
0.0051461912
0.0043004263
0.0035293364
0.002853659
0.0022565996
0.0017320315
0.0012639765
0.00085520128
0.00047641171
0.00018615488
0.026234549
0.029589384
0.03307307
0.036522787
0.039662756
0.042014197
0.042930119
0.041340631
0.035460541
0.025578376
0.011209054
-0.0065395567
-0.02693959
-0.047918566
-0.067388568
-0.083515882
-0.095027363
-0.10154407
-0.10334859
-0.10122718
-0.096170038
-0.089168535
-0.081088781
-0.07260259
-0.064182819
-0.056146852
-0.048738338
-0.042103191
-0.036266427
-0.031088441
-0.026257395
-0.022215877
-0.018860004
-0.016106368
-0.013866013
-0.012064511
-0.010648901
-0.009633106
-0.0088686179
0.026400746
0.02310994
0.020110842
0.01743657
0.015080854
0.013024619
0.01122596
0.0096530195
0.0082802305
0.0070845929
0.0060332016
0.0050763656
0.0042121373
0.0034520137
0.0027845114
0.0021956047
0.0016795684
0.0012204528
0.00082162775
0.00045466183
0.0001756101
0.029953189
0.033728956
0.037559003
0.041213227
0.044269808
0.046073951
0.045758425
0.041911809
0.03241869
0.018448912
3.5547686e-05
-0.021330098
-0.044367991
-0.066581142
-0.085725668
-0.10022809
-0.10924121
-0.11289509
-0.11189487
-0.10729704
-0.10022388
-0.091685795
-0.082485095
-0.073200539
-0.064232816
-0.055884931
-0.04837243
-0.041726759
-0.035792891
-0.030171212
-0.025459229
-0.02152159
-0.018281986
-0.015608842
-0.013430918
-0.011672587
-0.010289869
-0.0092884661
-0.0085354974
0.030160999
0.026400997
0.022976689
0.019930021
0.017248977
0.014915225
0.012886943
0.01111333
0.009559011
0.0082017281
0.0070141992
0.0059413044
0.0049638026
0.0041141922
0.0033634186
0.0027057092
0.002126079
0.0016198283
0.0011710029
0.00078350923
0.00043004519
0.00016389205
0.034201069
0.038427291
0.042592443
0.046348433
0.049086154
0.049922721
0.047726173
0.040697871
0.026486082
0.0076192036
-0.015111582
-0.039890363
-0.06486242
-0.087309646
-0.10505661
-0.11701292
-0.12288415
-0.12332569
-0.11941233
-0.11239505
-0.10345226
-0.093535009
-0.0833376
-0.073363938
-0.063994121
-0.055506626
-0.047966627
-0.041187992
-0.034670639
-0.029198021
-0.024613067
-0.020825858
-0.017691134
-0.015099628
-0.012983911
-0.011269208
-0.009919989
-0.0089336661
-0.0081925402
0.034463465
0.030161277
0.026235189
0.022749221
0.01968956
0.017032535
0.014733533
0.012738755
0.010993047
0.0094605171
0.0081161366
0.0069012539
0.0057974454
0.0048395225
0.0040020916
0.0032627273
0.0026160475
0.0020471393
0.0015520407
0.001115026
0.00074041317
0.00040231406
0.00015089696
0.039046357
0.043743918
0.048194385
0.051873413
0.053936236
0.053207135
0.0482643
0.036909767
0.016786122
-0.0076648276
-0.0346548
-0.06224012
-0.088064674
-0.10951878
-0.12473833
-0.13330053
-0.13553185
-0.13256752
-0.12576824
-0.1164846
-0.10585685
-0.094705514
-0.083646458
-0.073162529
-0.063604749
-0.055070423
-0.047350187
-0.039814591
-0.033483371
-0.028164566
-0.023771827
-0.020118261
-0.017089708
-0.014578976
-0.012525918
-0.01085521
-0.0095398734
-0.0085689337
-0.0078405842
0.039380724
0.034463625
0.029953871
0.025949629
0.022446208
0.019413095
0.016797535
0.01454014
0.012582035
0.010867292
0.0093529674
0.007974056
0.0067250826
0.0056392726
0.004698106
0.003874939
0.0031484963
0.0025144648
0.0019578486
0.0014754449
0.0010519185
0.00069191549
0.00037122532
0.0001365236
0.044557992
0.049728409
0.054350196
0.057669928
0.058526461
0.055412448
0.046606156
0.029599186
0.0024025905
-0.028039942
-0.058753994
-0.088079358
-0.11334948
-0.1324536
-0.14406007
-0.14853582
-0.14681917
-0.14042931
-0.13089868
-0.11955598
-0.10742262
-0.095198628
-0.083498392
-0.072766177
-0.063134432
-0.054362238
-0.045670298
-0.038367148
-0.032220142
-0.027144885
-0.022920391
-0.019401824
-0.01647775
-0.014048019
-0.012057724
-0.010431103
-0.0091493201
-0.0081949873
-0.0074800277
0.044986949
0.039380503
0.034201418
0.029590096
0.025565226
0.022094703
0.019111135
0.016547046
0.014336706
0.012419722
0.010729403
0.0091749264
0.0077532391
0.006530432
0.0054611617
0.0045386672
0.0037311686
0.0030195435
0.0023998611
0.0018572925
0.0013892896
0.00098109967
0.00063761326
0.0003365579
0.00012071493
0.050801214
0.056404426
0.06099138
0.063512296
0.062401013
0.05581534
0.041775241
0.017701876
-0.017514129
-0.053874576
-0.087185178
-0.11675912
-0.13985808
-0.15524094
-0.16230507
-0.16222882
-0.1564761
-0.14680805
-0.13477799
-0.12158446
-0.10815261
-0.095124003
-0.08309956
-0.07225818
-0.062316181
-0.052310038
-0.043908302
-0.036823632
-0.030982882
-0.02611751
-0.022062748
-0.018676226
-0.015856558
-0.013507757
-0.011579577
-0.0099959709
-0.0087499334
-0.0078126356
-0.0071114661
0.051354288
0.044986033
0.039045719
0.033729102
0.029091957
0.025112518
0.021706288
0.018787386
0.016283541
0.014126517
0.012241432
0.010507259
0.0089018842
0.0075092244
0.0063103765
0.0052624288
0.0043596347
0.0035695206
0.0028746563
0.0022711914
0.0017445713
0.0012928656
0.00090202673
0.0005771495
0.00029812709
0.00010345183
0.05782367
0.063747093
0.067956088
0.069012958
0.06488703
0.053448434
0.032610024
0.00010946279
-0.043578734
-0.085097278
-0.11928515
-0.14731087
-0.16654296
-0.17696628
-0.17882379
-0.17400589
-0.16434412
-0.15165417
-0.13736985
-0.12255469
-0.10819772
-0.094722995
-0.082548384
-0.071308118
-0.059812578
-0.050169835
-0.042024636
-0.035322642
-0.029741612
-0.025087681
-0.02119801
-0.01794291
-0.015227169
-0.012958069
-0.011089827
-0.0095521173
-0.0083426001
-0.007422719
-0.0067353918
0.058540171
0.051352445
0.044555596
0.038426131
0.033072807
0.028499107
0.024608097
0.021287791
0.018447162
0.016011883
0.013895317
0.011964389
0.010169005
0.0086023496
0.0072360052
0.0060640894
0.0050413107
0.0041594724
0.0033886882
0.0027126887
0.0021274415
0.0016188524
0.0011855247
0.00081423
0.00051023595
0.00025579718
8.468601e-05
0.065629338
0.071646461
0.07492807
0.073558504
0.06503668
0.047095112
0.017796598
-0.024174469
-0.075953618
-0.1211027
-0.15398781
-0.17848021
-0.19225223
-0.19677827
-0.19310929
-0.18363393
-0.17033765
-0.15491529
-0.13866571
-0.12261
-0.10775655
-0.094117349
-0.08143939
-0.068259708
-0.057219527
-0.047875418
-0.040205741
-0.033822842
-0.028503167
-0.024053665
-0.020327697
-0.017202896
-0.014589055
-0.012395651
-0.010591767
-0.0091007686
-0.0079283492
-0.0070259512
-0.0063523762
0.066561724
0.058537268
0.050796531
0.043740638
0.037557332
0.03229012
0.027837703
0.024063341
0.020847944
0.018097176
0.015713528
0.013547426
0.011545012
0.009799956
0.0082672946
0.006933258
0.005789279
0.0047956697
0.0039365493
0.0031874354
0.0025325278
0.0019676968
0.0014793973
0.0010667277
0.00071734275
0.00043668866
0.00020950675
6.4384734e-05
0.07414018
0.079848647
0.081362267
0.076230575
0.061588888
0.035283918
-0.0040339589