/*--------------------------------*- C++ -*----------------------------------*\
| =========                 |                                                 |
| \\      /  F ield         | OpenFOAM: The Open Source CFD Toolbox           |
|  \\    /   O peration     | Version:  5.0                                   |
|   \\  /    A nd           | Web:      www.OpenFOAM.org                      |
|    \\/     M anipulation  |                                                 |
\*---------------------------------------------------------------------------*/
FoamFile
{
    version     2.0;
    format      ascii;
    class       surfaceScalarField;
    location    "20";
    object      phi;
}
// * * * * * * * * * * * * * * * * * * * * * * * * * * * * * * * * * * * * * //

dimensions      [0 3 -1 0 0 0 0];

internalField   nonuniform List<scalar> 
18180
(
0.00059745525
-1.3414582
0.0011334368
-1.2543009
0.0006664429
-1.3421247
0.0016092433
-1.1727972
0.0012668117
-1.2549012
0.0006976013
-1.3428223
0.0020186819
-1.0965207
0.0018019138
-1.1733323
0.0013286016
-1.2555322
0.00075803665
-1.3435803
0.0023599054
-1.0251969
0.0022641346
-1.0969829
0.0018916537
-1.1738954
0.0014461258
-1.2562203
0.0008060413
-1.3443863
0.0026370717
-0.95848452
0.0026536787
-1.0255865
0.0023801301
-1.0974714
0.0020630305
-1.1745123
0.0015401303
-1.2569544
0.00086808176
-1.3452544
0.0028516444
-0.89610601
0.0029723173
-0.95880316
0.0027943668
-1.0260007
0.0026023989
-1.0980108
0.0022005509
-1.1751727
0.0016619495
-1.2577483
0.0009206897
-1.3461751
0.0030094151
-0.83777961
0.0032232392
-0.89635693
0.003135549
-0.95914434
0.0030639716
-1.0264623
0.002781461
-1.0985917
0.0023797741
-1.1758905
0.0017657434
-1.2585933
0.00098075218
-1.3471559
0.0031148827
-0.78324988
0.003411281
-0.83796765
0.003407157
-0.89662854
0.0034490439
-0.95952941
0.0032822239
-1.026963
0.0030165769
-1.0992285
0.0025332648
-1.1766581
0.0018848814
-1.2594975
0.0010313105
-1.3481872
0.003174168
-0.73226939
0.0035416852
-0.78338028
0.0036136678
-0.83817416
0.003760468
-0.89693996
0.003704047
-0.95995124
0.0035710983
-1.0275176
0.0032192294
-1.0999144
0.0027104729
-1.1774836
0.0019859649
-1.2604521
0.0010836164
-1.3492708
0.0031931973
-0.68461132
0.003620432
-0.73234814
0.0037604591
-0.78352708
0.0040025585
-0.83841625
0.0040495241
-0.89728544
0.004044403
-0.96042454
0.003822035
-1.0281204
0.0034545452
-1.1006585
0.0028622703
-1.17836
0.0020914113
-1.2614599
0.0011261392
-1.3503969
0.0031778091
-0.64005923
0.0036537313
-0.68464462
0.0038533649
-0.73244105
0.004180338
-0.78370486
0.0043227827
-0.83868951
0.0044383634
-0.8976794
0.0043423971
-0.9609449
0.0041149781
-1.0287808
0.003658326
-1.1014546
0.003021568
-1.1792901
0.0021784967
-1.2625123
0.0011661419
-1.3515631
0.0031332823
-0.59841207
0.0036476459
-0.64005315
0.0038984148
-0.68468967
0.0042995215
-0.73256023
0.004528665
-0.78391074
0.004756566
-0.83900771
0.0047815894
-0.89811859
0.0046922104
-0.96152214
0.0043717226
-1.0294942
0.0038737889
-1.1023068
0.0031551541
-1.1802668
0.0022615071
-1.2636076
0.0011963734
-1.3527595
0.0030646374
-0.55948086
0.0036078498
-0.59837227
0.0039015948
-0.64005633
0.0043660839
-0.68475623
0.0046727394
-0.7327043
0.0050033024
-0.78415747
0.0051426601
-0.83936878
0.0051866853
-0.89861307
0.0050025114
-0.96215292
0.0046452512
-1.0302657
0.0040575452
-1.1032092
0.0032837673
-1.181289
0.002325755
-1.264737
0.0012211004
-1.3539806
0.0029765626
-0.5230882
0.0035397405
-0.55941276
0.0038687005
-0.59833938
0.00438609
-0.64007633
0.0047608744
-0.68484437
0.0051837668
-0.73288477
0.0054293971
-0.78444421
0.0056007063
-0.8397828
0.0055503458
-0.8991609
0.0053356587
-0.96284333
0.0048825561
-1.0310907
0.0042367161
-1.1041621
0.0033858636
-1.1823491
0.0023797488
-1.2658957
0.0012359263
-1.3552165
0.0028732707
-0.48906869
0.0034483731
-0.52299683
0.0038052175
-0.55934927
0.0043654886
-0.59831878
0.0047990888
-0.64011455
0.0053036109
-0.68496421
0.0056466078
-0.73310198
0.0059373167
-0.78478082
0.0060166678
-0.84024913
0.0059436425
-0.89976889
0.0056295154
-0.96359029
0.0051168612
-1.0319708
0.0043829799
-1.1051592
0.0034738936
-1.1834433
0.0024145116
-1.2670743
0.0012432314
-1.3564597
0.0027584354
-0.45726695
0.0033383521
-0.48895866
0.0037162545
-0.52290787
0.0043099946
-0.55929378
0.0047933366
-0.59831302
0.0053687993
-0.64017973
0.0057996771
-0.68511728
0.0062007378
-0.7333654
0.0064036632
-0.78516782
0.0064695585
-0.84077504
0.0062960066
-0.90043538
0.0059233089
-0.96439674
0.0053134423
-1.0329013
0.004512612
-1.106198
0.0035344611
-1.1845632
0.0024348781
-1.2682659
0.0012408352
-1.3577005
0.0026352442
-0.42753827
0.0032138282
-0.45714243
0.003606502
-0.48884891
0.0042249892
-0.52282287
0.0047493758
-0.55924982
0.005385362
-0.59832959
0.0058944395
-0.6402745
0.0063959472
-0.68531249
0.0067148117
-0.73367655
0.0069144704
-0.78561273
0.0068811852
-0.84136022
0.0066524502
-0.90116452
0.006176208
-0.9652595
0.005492208
-1.0338809
0.0046075701
-1.1072711
0.0035745811
-1.1857029
0.002436205
-1.2694613
0.001230219
-1.3589308
0.0025064821
-0.39974689
0.003078481
-0.42740293
0.0034802067
-0.45701613
0.0041154562
-0.48873938
0.004672661
-0.52274615
0.0053592314
-0.55922369
0.0059369167
-0.59837206
0.0065285788
-0.64040713
0.0069545306
-0.68555221
0.0072808639
-0.73404294
0.0073848134
-0.78611636
0.0073020464
-0.84200982
0.0069664912
-0.9019548
0.0064116615
-0.96617896
0.0056305563
-1.0349039
0.0046770167
-1.1083735
0.0035869812
-1.1868537
0.0024213702
-1.2706524
0.0012107849
-1.3601416
0.0023745145
-0.37376621
0.002935499
-0.39960391
0.0033411711
-0.42726389
0.0039859437
-0.45688662
0.0045682767
-0.48863499
0.0052960988
-0.52268302
0.0059331345
-0.5592199
0.0066046482
-0.59844813
0.0071281085
-0.64058071
0.007572362
-0.68584371
0.0078081264
-0.73446626
0.0078702439
-0.78668456
0.0076805796
-0.8427239
0.0072650649
-0.90280821
0.0066025896
-0.96715099
0.0057396378
-1.0359665
0.0047107084
-1.1094972
0.0035757776
-1.1880081
0.0023887544
-1.2718304
0.0011834355
-1.361325
0.0022413316
-0.34947766
0.0027876132
-0.37361832
0.0031927512
-0.39945549
0.0038405506
-0.4271185
0.0044408982
-0.45675924
0.005201312
-0.48854021
0.0058889522
-0.52263884
0.0066303412
-0.5592456
0.0072414364
-0.59856146
0.0077937124
-0.64080206
0.0081536593
-0.68618924
0.0083566608
-0.73495267
0.0083148225
-0.7873188
0.0080472339
-0.84350607
0.0075168794
-0.9037225
0.0067620165
-0.96817337
0.0058059636
-1.0370617
0.0047139604
-1.1106354
0.003538193
-1.1891576
0.0023402709
-1.2729872
0.001148206
-1.3624732
0.0021085839
-0.32677067
0.0026371614
-0.34932721
0.0030378832
-0.37346346
0.0036829294
-0.39929787
0.0042947764
-0.42697237
0.0050798167
-0.45663775
0.0058099299
-0.48846119
0.0066118051
-0.5226203
0.0073007804
-0.55930494
0.0079505362
-0.59871828
0.0084253122
-0.64107371
0.00876234
-0.68659492
0.0088669293
-0.73550478
0.0087525699
-0.78802413
0.0083669116
-0.84435611
0.0077367407
-0.90469722
0.0068729846
-0.96924039
0.0058358589
-1.0381836
0.0046824356
-1.1117797
0.0034769197
-1.1902942
0.0022761385
-1.2741152
0.0011059745
-1.3635792
0.0019775976
-0.30554193
0.0024861152
-0.32661962
0.002879098
-0.34916842
0.0035163113
-0.37329684
0.0041337349
-0.39913683
0.0049361196
-0.42682868
0.0057012461
-0.45652906
0.0065549634
-0.48840434
0.0073125401
-0.52263206
0.0080490931
-0.5594035
0.0086281414
-0.59892111
0.0090899209
-0.64140129
0.0093360538
-0.68706405
0.0093766083
-0.73612882
0.0091451666
-0.78880239
0.0086561756
-0.84527554
0.0079041613
-0.9057284
0.0069426921
-0.97034722
0.0058230228
-1.0393242
0.0046194672
-1.1129222
0.0033919959
-1.1914101
0.0021980255
-1.2752072
0.0010576163
-1.3646368
0.0018494381
-0.28569462
0.0023360899
-0.30539191
0.0027185586
-0.32645908
0.0033435227
-0.34899564
0.0039611896
-0.37312429
0.0047742827
-0.39897499
0.0055676324
-0.42669506
0.006465392
-0.45643949
0.0072830182
-0.48837482
0.008096007
-0.52267897
0.0087681362
-0.55954349
0.0093434961
-0.59917469
0.0097230944
-0.64178833
0.0099162329
-0.68760367
0.0098449208
-0.73682857
0.0095110118
-0.78965723
0.008891072
-0.84626245
0.0080270592
-0.90681276
0.0069624649
-0.97148667
0.0057712067
-1.040476
0.0045244476
-1.1140547
0.0032857165
-1.1924978
0.0021073774
-1.276257
0.0010041904
-1.365641
0.0017249593
-0.26713852
0.0021884035
-0.28554693
0.0025580933
-0.30523144
0.0031670225
-0.32628258
0.0037801618
-0.34881461
0.004597933
-0.37294794
0.0054133544
-0.39882071
0.0063482043
-0.42657788
0.0072182433
-0.45637472
0.008097992
-0.48837681
0.0088519231
-0.52276276
0.0095284207
-0.55972842
0.01003065
-0.59948224
0.010370126
-0.64224222
0.010460585
-0.68821933
0.010292312
-0.73760987
0.009822917
-0.79058907
0.009080106
-0.8473155
0.008094033
-0.90794433
0.0069362285
-0.97265169
0.0056787588
-1.0416303
0.0044001274
-1.1151691
0.0031597869
-1.1935502
0.0020059703
-1.2772588
0.0009467394
-1.3665877
0.0016048534
-0.24978966
0.0020441281
-0.26699425
0.0023992462
-0.28538808
0.0029889244
-0.30505335
0.0035933118
-0.32609573
0.0044102799
-0.34862695
0.0052421977
-0.37277679
0.0062080048
-0.39868051
0.0071237995
-0.42648343
0.008061615
-0.45633834
0.0088864614
-0.48841135
0.0096510082
-0.52288535
0.010262893
-0.55996066
0.01073885
-0.59985097
0.010988313
-0.64276995
0.010991959
-0.68891898
0.010688754
-0.73847571
0.010089889
-0.79159885
0.0092089133
-0.84843038
0.0081089039
-0.90911701
0.0068607974
-0.97383373
0.0055486045
-1.0427787
0.004248372
-1.1162577
0.0030167544
-1.1945609
0.0018955189
-1.2782075
0.00088600335
-1.3674737
0.0014896888
-0.23356899
0.0019041531
-0.24964968
0.002243334
-0.26683834
0.0028110533
-0.28521021
0.0034029487
-0.30486298
0.004214139
-0.32589959
0.0050574848
-0.34844224
0.0060488384
-0.37261762
0.0070047355
-0.39856145
0.0079930657
-0.42641488
0.0088787484
-0.45633063
0.0097182042
-0.48847854
0.010425297
-0.52304775
0.011024821
-0.56024663
0.011426228
-0.60028888
0.011603437
-0.64338143
0.011478047
-0.68970828
0.011043735
-0.73942955
0.010294509
-0.79268445
0.0092809621
-0.84960244
0.0080664598
-0.91032267
0.0067389495
-0.97502407
0.0053822761
-1.0439127
0.004072148
-1.1173131
0.0028592189
-1.1955246
0.0017777954
-1.2790993
0.0008226362
-1.3682964
0.001379909
-0.21840348
0.0017692236
-0.23343406
0.0020915244
-0.24949787
0.0026350077
-0.26666229
0.0032110735
-0.28501834
0.0040119198
-0.30466076
0.0048620773
-0.32570418
0.0058741998
-0.3482676
0.0068654665
-0.37247835
0.0078980093
-0.39846639
0.0088355397
-0.42637167
0.0097372406
-0.45634966
0.010524311
-0.48857755
0.011232098
-0.52325503
0.011774532
-0.56059494
0.012122221
-0.60080767
0.012181619
-0.644085
0.011928854
-0.69059339
0.011336841
-0.74047189
0.010439689
-0.79384317
0.0092885594
-0.85082454
0.0079689517
-0.91155267
0.006571462
-0.97621326
0.0051830874
-1.0450236
0.0038745097
-1.1183283
0.0026897096
-1.1964366
0.0016546433
-1.2799313
0.00075744287
-1.3690538
0.0012757872
-0.20422381
0.0016399131
-0.21827417
0.0019448753
-0.23328741
0.0024622698
-0.24932513
0.0030194475
-0.26647066
0.0038056384
-0.28481205
0.0046583225
-0.30445701
0.0056870105
-0.32551699
0.0067097655
-0.3481119
0.0077814365
-0.37236178
0.0087631417
-0.39839399
0.0097153117
-0.42634975
0.010566998
-0.45639235
0.011366106
-0.48871156
0.012035408
-0.52351591
0.012546047
-0.56101876
0.012792215
-0.60141826
0.012733442
-0.64488959
0.01232116
-0.69157771
0.011570295
-0.74160249
0.010514885
-0.7950695
0.0092330126
-0.8520886
0.0078159023
-0.91279711
0.006361679
-0.97739185
0.0049544396
-1.0461035
0.0036588079
-1.1192974
0.0025109138
-1.1972928
0.0015278275
-1.2807017
0.00069139231
-1.3697452
0.0011771795
-0.19096539
0.0015165108
-0.20410041
0.0018042784
-0.21813357
0.0022942669
-0.23311941
0.0028297666
-0.24913545
0.003597004
-0.26626203
0.0044479953
-0.28460173
0.005489528
-0.30425953
0.0065407212
-0.32534795
0.0076476232
-0.34797809
0.0086672163
-0.37226585
0.0096593057
-0.39833799
0.010560696
-0.42634344
0.011433297
-0.45645954
0.012212832
-0.48888899
0.012874962
-0.52384482
0.01330495
-0.5615315
0.013447418
-0.60213224
0.013233168
-0.64580159
0.012656472
-0.69266389
0.011730464
-0.74281807
0.010520041
-0.79635653
0.009112036
-0.85338473
0.0076102754
-0.91404571
0.0061129298
-0.97855034
0.0047002044
-1.0471449
0.0034286937
-1.1202152
0.0023254158
-1.1980904
0.0013990256
-1.2814094
0.00062537531
-1.3703706
-0.00070454121
-0.20996953
0.0013990328
-0.19084791
0.0016702687
-0.2039664
0.0021322968
-0.2179716
0.0026438073
-0.23293345
0.0033877263
-0.24892617
0.0042323787
-0.26604641
0.0052832053
-0.2843954
0.0063606399
-0.30407945
0.0075000759
-0.3252004
0.0085527043
-0.34786358
0.0095755616
-0.37218211
0.010512717
-0.39829001
0.011440821
-0.42635097
0.01231229
-0.456559
0.013111247
-0.48912527
0.013717517
-0.52425739
0.014063037
-0.56214712
0.014059886
-0.60295896
0.013681671
-0.64682679
0.012918023
-0.69385145
0.011815563
-0.74411359
0.010450501
-0.79769499
0.0089277115
-0.85470217
0.0073548916
-0.91528767
0.0058294647
-0.9796796
0.0044247364
-1.048141
0.0031875869
-1.1210774
0.0021358001
-1.1988272
0.001269751
-1.2820537
0.00056000656
-1.3709306
-0.0020407546
-0.21051111
-0.00043967731
-0.20813082
0.0015428274
-0.19072047
0.0019772171
-0.20381132
0.002463378
-0.21779117
0.0031798725
-0.2327256
0.0040127413
-0.24870654
0.0050687186
-0.26583193
0.006170852
-0.28420562
0.0073414663
-0.30392084
0.0084237726
-0.32507147
0.0094697409
-0.34775776
0.010430083
-0.37209947
0.011396223
-0.39824541
0.012340484
-0.42637916
0.0132592
-0.45670695
0.014030241
-0.48943799
0.014575274
-0.52476962
0.014790439
-0.56287767
0.014630059
-0.60390735
0.014059238
-0.64796801
0.01310204
-0.69513793
0.011818049
-0.74548114
0.010306903
-0.79907418
0.0086818095
-0.85602908
0.0070540432
-0.91651225
0.0055161297
-0.98077099
0.0041322709
-1.0490856
0.0029390221
-1.1218806
0.0019444523
-1.1995019
0.0011413509
-1.2826351
0.00049569352
-1.3714263
-0.0028837932
-0.21100094
-0.0017531019
-0.20919769
-0.00024779954
-0.2063402
0.0018291644
-0.19057242
0.0022898364
-0.20363778
0.0029759295
-0.21758723
0.0037910459
-0.2325039
0.004846549
-0.24848437
0.0059716156
-0.26563269
0.0071734657
-0.28403762
0.0082838347
-0.3037809
0.0093467472
-0.32494848
0.010319364
-0.34764704
0.011307152
-0.3720104
0.012305009
-0.39820994
0.013324847
-0.42644481
0.01424592
-0.45692263
0.014982013
-0.48984473
0.015416615
-0.5253958
0.015487458
-0.56373507
0.015135729
-0.60498384
0.014360026
-0.64922599
0.013197679
-0.69651756
0.011736529
-0.74691077
0.010089335
-0.80048171
0.0083781945
-0.85735323
0.0067127616
-0.91770888
0.0051779259
-0.98181665
0.003827325
-1.0499739
0.0026862273
-1.1226224
0.0017535534
-1.2001141
0.00101511
-1.2831545
0.00043307581
-1.3718593
-0.0032897018
-0.21143551
-0.002591882
-0.21016216
-0.0015324925
-0.207913
7.1693019e-05
-0.20458273
0.0021236172
-0.1904062
0.0027781125
-0.20343996
0.0035703153
-0.2173665
0.004618051
-0.2322754
0.0057625395
-0.24827529
0.0069965484
-0.26545577
0.0081355465
-0.28388933
0.009210794
-0.30364494
0.010186567
-0.32481568
0.011181162
-0.34752105
0.01221402
-0.37191942
0.013315575
-0.39820066
0.014369542
-0.42656843
0.015284
-0.45722462
0.015933225
-0.49036134
0.016242076
-0.52615042
0.016130115
-0.56472945
0.015569139
-0.60619295
0.014569649
-0.65059796
0.013200961
-0.69798199
0.01156872
-0.74839015
0.0098006317
-0.80190415
0.0080216568
-0.85866213
0.0063366145
-0.91886757
0.0048202698
-0.98280959
0.0035141004
-1.0508018
0.00243228
-1.1233011
0.0015650596
-1.200664
0.00089229797
-1.2836137
0.00037526213
-1.3722346
-0.0033171981
-0.21181193
-0.0030096018
-0.21101779
-0.002360175
-0.20933447
-0.0011992904
-0.20664201
0.00039750546
-0.20285661
0.0025874588
-0.19021555
0.0033538301
-0.20322347
0.0043863063
-0.21713475
0.0055437427
-0.23205661
0.0068100269
-0.24808877
0.0079806202
-0.26530085
0.0090655406
-0.28374408
0.010037218
-0.3034956
0.011025517
-0.32466004
0.012075963
-0.34738299
0.013239734
-0.37184357
0.014407884
-0.39823901
0.015484592
-0.42676902
0.016338209
-0.4576296
0.016885064
-0.49100433
0.017026916
-0.52704722
0.016709178
-0.56586949
0.015912355
-0.60753566
0.014681078
-0.65207808
0.013106526
-0.69951979
0.011315707
-0.74990523
0.0094447661
-0.80332726
0.0076180007
-0.85994352
0.0059317794
-0.91997908
0.0044483889
-0.98374388
0.0031967333
-1.0515663
0.0021798822
-1.1239159
0.0013806588
-1.2011524
0.00077381286
-1.2840123
0.00032387912
-1.3725585
-0.0030278804
-0.21212711
-0.0030627848
-0.21175875
-0.0027822002
-0.21059576
-0.0020303417
-0.20850342
-0.00086039375
-0.20538411
0.00087984418
-0.201149
0.0031436022
-0.19000532
0.0041555384
-0.20299271
0.0053172846
-0.21690829
0.0066128939
-0.23185947
0.0078193951
-0.24792754
0.0089140247
-0.26514933
0.0098765777
-0.28358343
0.0108472
-0.30331728
0.011899271
-0.32448334
0.013106274
-0.34724953
0.014369056
-0.37180475
0.015589377
-0.39834379
0.016632513
-0.42706333
0.017410804
-0.45815534
0.017813291
-0.49179071
0.017761157
-0.5280992
0.017203426
-0.56716056
0.016154993
-0.60900957
0.014685224
-0.65365678
0.012912915
-0.701117
0.010979918
-0.75144038
0.0090272869
-0.80473654
0.0071739254
-0.86118566
0.005504505
-0.92103519
0.0040675246
-0.98461467
0.0028788846
-1.0522653
0.0019314656
-1.1244667
0.0012016732
-1.2015803
0.00066002031
-1.2843484
0.00027358866
-1.3728321
-0.0024854797
-0.21237882
-0.0028108024
-0.21237909
-0.0028531649
-0.21168778
-0.0024710706
-0.21015503
-0.0016954969
-0.20766832
-0.00037806594
-0.2041262
0.0014529584
-0.19945836
0.0039288547
-0.18977863
0.0050873783
-0.2027628
0.0064053876
-0.21670079
0.0076504852
-0.23169056
0.0087585702
-0.24777209
0.0097097865
-0.26498254
0.010653045
-0.28338928
0.011692245
-0.30311025
0.012924343
-0.32430141
0.014262077
-0.34714255
0.015605694
-0.37182106
0.016819791
-0.39853107
0.017816996
-0.42746952
0.018479537
-0.45882159
0.018708212
-0.49273776
0.018420827
-0.5293166
0.017599042
-0.56860461
0.016283703
-0.61060805
0.014577256
-0.65532112
0.01262015
-0.70275723
0.010565974
-0.75297907
0.0085550216
-0.80611764
0.0066965806
-0.86237774
0.0050611924
-0.92202886
0.0036824862
-0.98541827
0.0025639414
-1.0528977
0.0016891122
-1.1249542
0.0010291055
-1.2019494
0.00055107859
-1.2846259
0.00022323069
-1.3730553
-0.0017554449
-0.21256538
-0.0023149047
-0.21287472
-0.002629793
-0.21260246
-0.0025736699
-0.21158519
-0.0021549912
-0.20969554
-0.0012302378
-0.20681615
0.00019362595
-0.20286687
0.0022501123
-0.19777961
0.0048578793
-0.18954914
0.0061901572
-0.20254757
0.0074722659
-0.21652257
0.0085998479
-0.23153184
0.009541245
-0.24760355
0.010449954
-0.26477945
0.011463027
-0.28316006
0.012703069
-0.30288898
0.014096393
-0.32413573
0.01554218
-0.34707903
0.016905967
-0.37190724
0.018104517
-0.39881859
0.019019425
-0.42800941
0.019536321
-0.4596497
0.019543906
-0.49386084
0.018988849
-0.53070641
0.017878079
-0.57019899
0.016289497
-0.61232029
0.014353834
-0.6570548
0.012231067
-0.70442233
0.010080248
-0.75450429
0.0080357535
-0.80745681
0.0061935114
-0.86351006
0.004607945
-0.92295432
0.0032978267
-0.98615216
0.0022548424
-1.0534635
0.0014546128
-1.1253797
0.00086381085
-1.2022621
0.0004473138
-1.28485
0.00017478054
-1.3732301
-0.00090445871
-0.2126856
-0.0016381716
-0.21324212
-0.002171493
-0.21333302
-0.0023930322
-0.2127831
-0.0022892709
-0.21145091
-0.0017224093
-0.20920337
-0.00067714582
-0.20594538
0.00098369751
-0.20160046
0.0031989474
-0.19612068
0.0059706382
-0.18932962
0.0072847319
-0.20236004
0.0084370517
-0.21635977
0.0093734197
-0.23136402
0.010244759
-0.24739835
0.011219772
-0.26453619
0.012451347
-0.28290834
0.013881598
-0.30267418
0.015408217
-0.32400177
0.016898791
-0.34707186
0.018277121
-0.37207984
0.019430293
-0.39922946
0.020234901
-0.42870799
0.020554325
-0.46066012
0.020300457
-0.49517245
0.019442624
-0.53227095
0.018026738
-0.57193623
0.016164683
-0.61413114
0.01401499
-0.65883873
0.011750785
-0.70609286
0.0095307016
-0.75599924
0.0074780372
-0.80874134
0.0056722024
-0.86457431
0.0041506528
-0.92380714
0.0029175856
-0.9868149
0.0019542188
-1.0539631
0.0012294327
-1.1257453
0.00070655579
-1.2025213
0.00034922278
-1.2850244
0.00012815743
-1.3733582
-0.21273869
-3.762777e-08
-0.00084487499
-0.2134789
-0.0015390138
-0.21387459
-0.0019861939
-0.21373986
-0.0021513476
-0.21292103
-0.0019031387
-0.21127018
-0.0012045835
-0.20867593
8.679828e-05
-0.20504848
0.0019327124
-0.20033422
0.004342182
-0.19449222
0.0070894683
-0.18913435
0.0082693381
-0.20219232
0.0092065775
-0.21619293
0.010043113
-0.23116237
0.010970769
-0.24714935
0.012177874
-0.26426272
0.013627081
-0.28265382
0.015213633
-0.3024796
0.016807255
-0.32391023
0.018341058
-0.3471358
0.019712949
-0.3723625
0.020797162
-0.39979172
0.021436907
-0.42959057
0.02151144
-0.4618711
0.020950889
-0.49668071
0.019763136
-0.53400735
0.018032031
-0.57380358
0.01590534
-0.61602149
0.013563561
-0.6606515
0.011186756
-0.70774892
0.0089265943
-0.7574478
0.0068907389
-0.80995987
0.0051400527
-0.86556371
0.0036947089
-0.92458427
0.0025454275
-0.98740611
0.0016642967
-1.0543979
0.0010147366
-1.1260535
0.00055798882
-1.2027301
0.0002573233
-1.2851536
8.3666857e-05
-1.3734419
-0.21358353
-3.1240795e-08
-0.21273869
0.0009043835
-0.00079431269
-0.2142236
-0.0014118606
-0.21444893
-0.0017963424
-0.21409487
-0.0018239935
-0.21300017
-0.0014362399
-0.21103852
-0.00048556609
-0.20810357
0.0010160226
-0.20413179
0.0030854491
-0.19907749
0.005513206
-0.19291596
0.0080965449
-0.18896156
0.0090397316
-0.20202548
0.0098484222
-0.21599824
0.0107238
-0.2309154
0.011891384
-0.24686286
0.013341883
-0.26397752
0.014968261
-0.28240845
0.016641278
-0.30231362
0.018304518
-0.32387369
0.019871427
-0.34729427
0.021220257
-0.37278559
0.022180231
-0.40053504
0.022601936
-0.43068106
0.022376896
-0.46329711
0.021470896
-0.49838847
0.019931315
-0.53590663
0.017884891
-0.57578313
0.015510803
-0.61796874
0.013005545
-0.66247029
0.010548419
-0.70937075
0.0082780345
-0.75883509
0.0062828892
-0.81110271
0.0046040496
-0.86647305
0.0032450894
-0.92528393
0.0021845258
-0.98792634
0.0013869065
-1.0547701
0.00081150952
-1.126307
0.00041863543
-1.2028914
0.00017193859
-1.2852419
4.2445683e-05
-1.3734844
-0.21437781
-3.1401267e-08
-0.21358353
0.0008448126
-0.2126856
0.0017553698
-0.00072973321
-0.21490573
-0.0012810977
-0.21496417
-0.001538923
-0.21437994
-0.0014231296
-0.21301328
-0.00078182531
-0.21074226
0.00040255055
-0.2074901
0.0021564466
-0.20320278
0.0042874675
-0.19785175
0.0065858133
-0.19140523
0.0088726375
-0.18879447
0.0096610267
-0.20183808
0.010485148
-0.21575959
0.011600358
-0.23062438
0.013034787
-0.24655577
0.014681725
-0.26369099
0.016411206
-0.28217838
0.018177312
-0.30218642
0.019912472
-0.32391474
0.021505177
-0.34757919
0.022777044
-0.37338241
0.023555456
-0.40148856
0.023696305
-0.43200047
0.023121431
-0.46494764
0.021834829
-0.50029199
0.019931794
-0.53795354
0.01757977
-0.5778521
0.014984393
-0.61994759
0.012349757
-0.66427163
0.0098467862
-0.7109395
0.007595707
-0.76014791
0.0056632944
-0.81216195
0.0040707719
-0.86729874
0.0028062122
-0.92590562
0.0018376236
-0.98837705
0.0011235416
-1.0550822
0.00062060787
-1.126509
0.00028887119
-1.2030083
9.3233392e-05
-1.2852926
3.8014843e-06
-1.3734882
-0.21510751
-3.4374088e-08
-0.21437781
0.00079425
-0.2134789
0.0016381095
-0.21256538
0.0024854049
-0.00066311603
-0.21552371
-0.0011032385
-0.21539986
-0.00121938
-0.21458369
-0.0008547407
-0.21294037
4.1166243e-05
-0.21038088
0.0015069845
-0.20684063
0.0033672418
-0.20228256
0.0054109103
-0.19667685
0.0074172636
-0.18994986
0.0094808032
-0.18861424
0.010258433
-0.20161137
0.011312929
-0.21547216
0.012714248
-0.23030384
0.014363329
-0.24623737
0.016127578
-0.26340736
0.017970257
-0.28197132
0.019845235
-0.30211918
0.021656322
-0.32406588
0.023224331
-0.34802648
0.02435956
-0.37418651
0.024887386
-0.40267964
0.024686585
-0.43356563
0.023712726
-0.46682554
0.022020036
-0.50238023
0.019752676
-0.54012644
0.017115841
-0.57998354
0.014333191
-0.62193102
0.011607519
-0.66603236
0.0090940625
-0.71243785
0.006890401
-0.76137502
0.0050404338
-0.81313162
0.0035462088
-0.86803873
0.0023819613
-0.92644995
0.0015069814
-0.98876049
0.00087546179
-1.055337
0.00044263911
-1.1266628
0.00016893251
-1.203084
2.1860903e-05
-1.2853107
-2.7368902e-05
-1.3734608
-0.21577059
-4.0972803e-08
-0.21510751
0.00072966461
-0.2142236
0.0015389514
-0.21324212
0.002314843
-0.21237882
0.0030278057
-0.00057221581
-0.21605473
-0.00087967007
-0.21573957
-0.00076026636
-0.21467816
-0.00012520264
-0.212774
0.0010813801
-0.20995527
0.0027019206
-0.20617531
0.0045247734
-0.20139642
0.0062901141
-0.1955497
0.008056346
-0.1885254
0.010046199
-0.18840201
0.011035546
-0.20133398
0.012388902
-0.21514681
0.014021875
-0.22996238
0.015800826
-0.24591062
0.017694911
-0.26313201
0.019680502
-0.28180659
0.021681212
-0.30214407
0.023523018
-0.32436457
0.025006166
-0.34867309
0.025931957
-0.37523108
0.026139721
-0.40413278
0.025534197
-0.4353871
0.024120179
-0.46892568
0.022006829
-0.50463438
0.019387302
-0.5423979
0.016496996
-0.58214735
0.013567898
-0.6238914
0.010792194
-0.6677305
0.0083030755
-0.71385053
0.0061727828
-0.76250737
0.004422216
-0.81400762
0.0030357212
-0.86869249
0.0019756147
-0.92691859
0.0011944465
-0.98907948
0.00064362518
-1.055538
0.00027788959
-1.1267717
5.9112532e-05
-1.2031213
-4.4084337e-05
-1.285294
-5.6081254e-05
-1.3734047
-0.21634275
-5.1870017e-08
-0.21577059
0.00066303425
-0.21490573
0.0014117924
-0.21387459
0.0021714311
-0.21287472
0.0028107412
-0.21212711
0.0033171239
-0.00045689841
-0.2164775
-0.00055446222
-0.21594537
-0.00015885149
-0.21464451
0.00081405514
-0.21250667
0.0022306136
-0.20948397
0.0038739537
-0.20552449
0.0054436971
-0.20055
0.0069559707
-0.19444932
0.0086166706
-0.18709587
0.010775207
-0.18814167
0.012066498
-0.20101158
0.013666335
-0.21479127
0.015440879
-0.22960243
0.017363071
-0.24557878
0.019430399
-0.26288191
0.021589613
-0.28171499
0.023677794
-0.30229885
0.025491516
-0.32484992
0.02681599
-0.34955712
0.027456893
-0.37654826
0.027268623
-0.40586721
0.02620037
-0.43746729
0.024315045
-0.4712339
0.021780899
-0.50702798
0.018834604
-0.54473551
0.015732018
-0.58431147
0.012702379
-0.62580158
0.0099185364
-0.66934596
0.0074869083
-0.71516465
0.0054530536
-0.76353821
0.0038158594
-0.81478776
0.0025439257
-0.8692608
0.0015898799
-0.92731402
0.00090145941
-0.98933731
0.00042864556
-1.0556887
0.00012664492
-1.1268392
-4.0741421e-05
-1.2031246
-0.00010390883
-1.2852462
-8.232878e-05
-1.3733224
-0.21679958
-6.475593e-08
-0.21634275
0.00057211221
-0.21552371
0.0012810164
-0.21444893
0.0019861263
-0.21333302
0.0026297319
-0.21237909
0.0030627244
-0.21181193
0.003289628
-0.00028762548
-0.21674434
-0.00012061975
-0.2159836
0.00063067747
-0.21446113
0.0018774768
-0.21215354
0.0033900431
-0.20900006
0.0048251492
-0.20490594
0.0061319798
-0.19972601
0.0075121545
-0.19334481
0.0092990752
-0.18561974
0.011758289
-0.18783346
0.013305157
-0.2006504
0.015057513
-0.21440791
0.016986229
-0.22922559
0.019107669
-0.24525605
0.021393294
-0.26268559
0.023696214
-0.28173341
0.025816207
-0.30262354
0.027529953
-0.32556388
0.028617724
-0.35071795
0.028886898
-0.37816653
0.028227462
-0.4078943
0.026646363
-0.43979861
0.024273538
-0.47372654
0.021334155
-0.50952753
0.018099728
-0.54710322
0.014834224
-0.58644332
0.011752952
-0.627636
0.0090021637
-0.67086121
0.006658425
-0.71637003
0.0047407255
-0.76446307
0.0032277096
-0.81547155
0.0020746856
-0.86974561
0.001226885
-0.92763944
0.00062905646
-0.98953772
0.00023089433
-1.055793
-9.2861112e-06
-1.1268707
-0.00013080376
-1.2030977
-0.00015670667
-1.2851718
-0.00010534238
-1.373217
-0.21708713
-8.1615539e-08
-0.21679958
0.00045676897
-0.21605473
0.0011031353
-0.21496417
0.0017962618
-0.21373986
0.0023929655
-0.21260246
0.0028531047
-0.21175875
0.0030095423
-0.21143551
0.00288372
-5.8897311e-05
-0.21680606
0.00045899181
-0.21581192
0.0015482176
-0.21413187
0.0029805198
-0.21174401
0.0043632557
-0.20853816
0.0055341245
-0.20430809
0.0066835283
-0.19889739
0.0081486597
-0.19219439
0.010218533
-0.18407998
0.01295332
-0.18748162
0.014659644
-0.20025253
0.016575469
-0.21399715
0.018725117
-0.22884304
0.021105129
-0.24496788
0.023588663
-0.26257804
0.025984413
-0.28190162
0.028069159
-0.30316274
0.029606198
-0.32655235
0.030362485
-0.35219354
0.03016836
-0.38010743
0.028967002
-0.41021494
0.026837239
-0.44236231
0.023978273
-0.47637065
0.020665978
-0.51209378
0.017193946
-0.54946294
0.013820789
-0.58851115
0.010737711
-0.62937155
0.008058933
-0.67226172
0.0058299053
-0.71745921
0.0040443458
-0.76527971
0.0026631759
-0.81606004
0.0016310962
-0.87014982
0.0008881852
-0.92789857
0.00037782552
-0.98968465
5.0576339e-05
-1.0558529
-0.00013561575
-1.1268659
-0.00021123832
-1.2030432
-0.00020307415
-1.2850741
-0.00012553662
-1.3730915
-0.21714592
-1.0637248e-07
-0.21708713
0.00028746234
-0.21647751
0.00087954076
-0.21539986
0.0015388203
-0.21409487
0.002151268
-0.2127831
0.0025736045
-0.21168779
0.0027821412
-0.21101779
0.0025918235
-0.21100093
0.002040682
0.00025055022
-0.21659762
0.0011488857
-0.21541259
0.002528454
-0.21367981
0.0039479514
-0.21132871
0.0050938509
-0.20809789
0.0060814143
-0.20370598
0.007275461
-0.19802419
0.0089998334
-0.19097569
0.011352044
-0.18247871
0.014264889
-0.18708687
0.01614034
-0.1998174
0.01829521
-0.21356724
0.020738644
-0.22847655
0.023367287
-0.2447465
0.026004151
-0.26259778
0.028433192
-0.28226565
0.030411325
-0.30396787
0.031672642
-0.32786251
0.031991131
-0.35401631
0.031241591
-0.38238202
0.029439816
-0.41281751
0.026743999
-0.44512803
0.023420356
-0.47912503
0.019783598
-0.51468343
0.01613414
-0.5517763
0.012711962
-0.5904854
0.0096757327
-0.63098835
0.007104384
-0.6735362
0.0050126443
-0.7184275
0.0033713473
-0.76598788
0.002126679
-0.81655562
0.0012155154
-0.87047715
0.00057476563
-0.92809551
0.00014795561
-0.98978203
-0.00011291613
-1.0558756
-0.00024715099
-1.12683
-0.00028238793
-1.2029639
-0.0002435
-1.2849561
-0.00014283289
-1.3729487
-0.21689521
-1.5627975e-07
-0.21714592
5.8685174e-05
-0.21674434
0.00055429909
-0.21573957
0.0012192509
-0.21437994
0.0018238918
-0.21292103
0.0022891926
-0.21158519
0.0024710067
-0.21059576
0.0023601174
-0.21016216
0.0017530447
-0.21051111
0.00070446936
0.00062510703
-0.21607384
0.0019062748
-0.21479041
0.0034251543
-0.21315701
0.0046963696