/*--------------------------------*- C++ -*----------------------------------*\
| =========                 |                                                 |
| \\      /  F ield         | OpenFOAM: The Open Source CFD Toolbox           |
|  \\    /   O peration     | Version:  5.0                                   |
|   \\  /    A nd           | Web:      www.OpenFOAM.org                      |
|    \\/     M anipulation  |                                                 |
\*---------------------------------------------------------------------------*/
FoamFile
{
    version     2.0;
    format      ascii;
    class       surfaceScalarField;
    location    "20";
    object      phi_0;
}
// * * * * * * * * * * * * * * * * * * * * * * * * * * * * * * * * * * * * * //

dimensions      [0 3 -1 0 0 0 0];

internalField   nonuniform List<scalar> 
18180
(
0.00059481188
-1.3414504
0.001128417
-1.2542938
0.00066373225
-1.3421141
0.0016020476
-1.1727907
0.0012616304
-1.2548917
0.00069489066
-1.342809
0.0020095713
-1.096515
0.0017944701
-1.1733236
0.0013233977
-1.2555202
0.00075526675
-1.3435643
0.0023491287
-1.0251919
0.0022546626
-1.0969752
0.0018841632
-1.1738843
0.0014407926
-1.2562057
0.00080323464
-1.3443675
0.0026248697
-0.95848023
0.0026424114
-1.0255796
0.0023705707
-1.0974616
0.0020553256
-1.1744989
0.0015347165
-1.2569372
0.00086522993
-1.3452327
0.0028382583
-0.89610242
0.0029594793
-0.9587973
0.002782958
-1.025992
0.0025925235
-1.0979988
0.0021927166
-1.1751569
0.0016564301
-1.2577284
0.00091781653
-1.3461506
0.0029950671
-0.8377767
0.0032090542
-0.89635199
0.0031225014
-0.95913684
0.0030521266
-1.0264516
0.002771385
-1.0985774
0.0023717566
-1.1758722
0.0017601724
-1.2585707
0.00097786422
-1.3471284
0.0030997902
-0.78324763
0.0033959598
-0.83796361
0.0033926787
-0.89662217
0.0034354214
-0.95952013
0.003270092
-1.0269503
0.0030062233
-1.0992119
0.0025251537
-1.1766372
0.0018792636
-1.2594721
0.0010284453
-1.3481569
0.0031585319
-0.73226776
0.0035254324
-0.7833771
0.0035979564
-0.83816889
0.0037452578
-0.89693201
0.0036900356
-0.95994008
0.0035585757
-1.0275027
0.0032087321
-1.0998955
0.0027022648
-1.1774602
0.0019803685
-1.260424
0.0010807836
-1.3492376
0.0031772035
-0.68461026
0.0036034411
-0.73234577
0.0037437048
-0.78352285
0.0039859403
-0.83840957
0.004033806
-0.89727578
0.0040298669
-0.96041137
0.0038092937
-1.0281033
0.0034438826
-1.1006371
0.002854073
-1.1783339
0.0020858402
-1.2614291
0.0011233647
-1.350361
0.0031616253
-0.64005869
0.0036361849
-0.684643
0.0038357482
-0.73243781
0.0041624865
-0.7836994
0.0043055213
-0.83868129
0.0044219658
-0.89766787
0.0043275493
-0.96092962
0.0041019877
-1.0287614
0.0036476452
-1.1014307
0.0030133826
-1.1792614
0.0021730058
-1.2624787
0.0011634238
-1.3515244
0.0031170601
-0.59841201
0.0036297137
-0.64005222
0.0038801072
-0.68468736
0.004280603
-0.73255592
0.0045100175
-0.78390389
0.0047384509
-0.83899777
0.0047647688
-0.89810509
0.0046770116
-0.96150465
0.0043586679
-1.0294724
0.0038630855
-1.1022804
0.0031470673
-1.1802355
0.0022561021
-1.2635714
0.001193732
-1.3527182
0.0030485139
-0.55948123
0.0035896899
-0.59837198
0.0038827588
-0.64005487
0.0043462579
-0.68475301
0.0046528545
-0.73269876
0.0049836073
-0.78414905
0.005123993
-0.83935699
0.0051693931
-0.89859748
0.0049871856
-0.96213317
0.0046321252
-1.0302414
0.0040469361
-1.1031802
0.0032757885
-1.1812552
0.0023204895
-1.2646982
0.001218546
-1.3539367
0.0029606588
-0.52308894
0.0035215012
-0.55941304
0.0038494905
-0.59833871
0.0043655093
-0.64007412
0.0047398939
-0.68484005
0.0051626204
-0.73287778
0.0054090021
-0.78443406
0.0055814291
-0.83976903
0.0055328495
-0.89914314
0.0053201984
-0.96282124
0.0048695069
-1.031064
0.0042262096
-1.1041307
0.0033780673
-1.1823128
0.0023746471
-1.2658543
0.0012334905
-1.3551702
0.0028576916
-0.48906974
0.0034301911
-0.52299763
0.0037857795
-0.55934933
0.0043442999
-0.5983175
0.0047771476
-0.64011138
0.0052811336
-0.68495857
0.0056245937
-0.73309337
0.0059161558
-0.78476878
0.005997098
-0.84023328
0.0059259393
-0.89974888
0.0056140991
-0.96356583
0.0051038914
-1.0319417
0.0043726724
-1.1051253
0.0034663119
-1.1834044
0.0024096345
-1.2670304
0.0012409308
-1.3564111
0.0027432707
-0.45726828
0.0033203525
-0.4889599
0.0036967272
-0.52290857
0.0042883396
-0.55929337
0.0047705642
-0.59831092
0.0053451034
-0.64017535
0.0057761424
-0.68511012
0.0061777846
-0.733355
0.0063821111
-0.7851538
0.0064497037
-0.84075704
0.0062783063
-0.90041309
0.005907928
-0.96436987
0.0053006648
-1.0328697
0.0045025458
-1.1061615
0.003527182
-1.184522
0.0024302542
-1.2682197
0.0012386905
-1.3576498
0.0026205693
-0.42753982
0.0031961245
-0.45714405
0.0035870162
-0.48885019
0.0042030051
-0.52282324
0.0047258977
-0.5592487
0.005360552
-0.59832637
0.0058694713
-0.64026868
0.0063712811
-0.68530361
0.0066913597
-0.73366424
0.0068925537
-0.78559665
0.0068612897
-0.84134003
0.0066347291
-0.90113989
0.0061609897
-0.96523019
0.005479669
-1.0338468
0.0045978604
-1.1072322
0.0035676515
-1.1856594
0.0024318806
-1.2694129
0.0012282321
-1.3588781
0.0024923585
-0.39974861
0.0030611744
-0.42740487
0.0034608856
-0.45701792
0.0040932767
-0.48874046
0.0046486001
-0.52274594
0.0053334058
-0.55922155
0.0059105906
-0.59836749
0.0065022649
-0.64039966
0.0069292484
-0.6855415
0.0072569697
-0.73402866
0.0073628178
-0.78609817
0.0072820703
-0.84198737
0.0069488863
-0.90192779
0.0063966498
-0.96614717
0.0056183926
-1.0348673
0.0046677264
-1.1083323
0.0035804732
-1.186808
0.0024173655
-1.2706021
0.0012089674
-1.360087
0.0023609906
-0.37376807
0.0029186785
-0.39960612
0.0033221293
-0.42726611
0.0039636987
-0.45688834
0.0045437546
-0.48863562
0.0052693516
-0.52268189
0.0059055149
-0.55921648
0.0065767354
-0.59844196
0.0071010498
-0.64057146
0.0075465649
-0.6858311
0.0077841291
-0.73444997
0.0078481154
-0.78666422
0.0076606623
-0.84269914
0.0072476085
-0.90277874
0.0065879388
-0.96711672
0.0057279278
-1.0359275
0.0047019327
-1.1094537
0.0035697221
-1.1879603
0.0023851028
-1.2717782
0.0011818117
-1.3612688
0.002228444
-0.34947961
0.0027713556
-0.37362074
0.0031740945
-0.39945808
0.0038183666
-0.42712078
0.0044160363
-0.45676062
0.0051737347
-0.48854
0.005860094
-0.52263647
0.0066008613
-0.5592406
0.0072126356
-0.59855355
0.0077660727
-0.64079097
0.0081277574
-0.68617472
0.0083324985
-0.73493435
0.0082926954
-0.78729625
0.0080273839
-0.84347892
0.0074997362
-0.90369054
0.0067478181
-0.96813661
0.0057948264
-1.0370204
0.0047057381
-1.1105897
0.0035326415
-1.1891079
0.0023369968
-1.2729334
0.0011468093
-1.3624156
0.0020963579
-0.32677268
0.0026215319
-0.34932979
0.003019708
-0.37346636
0.0036609286
-0.39930064
0.0042696961
-0.42697444
0.0050515005
-0.45663839
0.0057798799
-0.48845979
0.0065807727
-0.52261638
0.0072702502
-0.55929822
0.0079210954
-0.59870857
0.0083975964
-0.64106081
0.0087362752
-0.6865785
0.0088427235
-0.73548438
0.0087304138
-0.78799928
0.0083472947
-0.84432648
0.0077200091
-0.90466273
0.006859379
-0.96920116
0.0058253414
-1.03814
0.0046748369
-1.1117319
0.0034719065
-1.1902428
0.0022732691
-1.2740599
0.0011048127
-1.3635205
0.0019660484
-0.30554398
0.0024711671
-0.32662232
0.0028614904
-0.34917157
0.0034946114
-0.37330004
0.0041085583
-0.39913951
0.0049071575
-0.4268301
0.0056700463
-0.45652855
0.0065223776
-0.48840139
0.0072802702
-0.5226264
0.0080178703
-0.55939499
0.0085986903
-0.59890966
0.0090620931
-0.64138663
0.0093099294
-0.68704571
0.0093522728
-0.73610624
0.0091231344
-0.78877512
0.0086368893
-0.84524336
0.0078879982
-0.90569135
0.0069297329
-0.97030555
0.0058132147
-1.0392784
0.0046125385
-1.1128726
0.0033875577
-1.1913571
0.002195572
-1.2751506
0.0010566624
-1.3645771
0.0018385716
-0.28569667
0.0023218648
-0.30539468
0.0027015943
-0.32646242
0.0033222355
-0.3489992
0.0039360388
-0.37312752
0.0047447711
-0.39897712
0.0055353233
-0.42669537
0.0064312388
-0.45643741
0.0072489755
-0.4883701
0.0080629964
-0.52267152
0.0087370117
-0.55953332
0.0093140479
-0.59916162
0.0096952386
-0.64177194
0.0098898872
-0.68758332
0.0098205756
-0.73680368
0.0094891888
-0.78962742
0.0088722849
-0.84622765
0.0080115229
-0.90677314
0.0069502617
-0.9714426
0.0057621677
-1.040428
0.0045182462
-1.1140032
0.0032818753
-1.1924434
0.0021053435
-1.2761993
0.0010034139
-1.3655805
0.0017147728
-0.26714056
0.0021749312
-0.28554973
0.0025418366
-0.30523492
0.0031462528
-0.32628644
0.0037551584
-0.34881832
0.0045679738
-0.37295072
0.0053799786
-0.39882178
0.0063124616
-0.4265766
0.0071823736
-0.45637081
0.0080631616
-0.48837026
0.0088191668
-0.52275368
0.0094974924
-0.55971676
0.010001274
-0.59946765
0.010341983
-0.64222403
0.010434078
-0.68819682
0.010268014
-0.73758251
0.0098014771
-0.79055661
0.0090618775
-0.847278
0.0080792544
-0.90790214
0.0069248563
-0.97260529
0.0056705715
-1.0415804
0.0043946882
-1.1151161
0.0031565586
-1.1934946
0.0020043581
-1.2772002
0.00094614195
-1.3665267
0.0015953355
-0.24979165
0.0020314262
-0.26699705
0.0023837496
-0.28539165
0.0029687695
-0.30505744
0.0035685764
-0.32609986
0.0043799815
-0.34863032
0.0052078042
-0.37277855
0.0061706468
-0.39867996
0.0070860312
-0.42648025
0.0080249067
-0.45633256
0.008852092
-0.48840319
0.0096187341
-0.52287492
0.010232229
-0.55994772
0.010709165
-0.59983483
0.010959843
-0.6427498
0.010965295
-0.68889411
0.010664674
-0.73844571
0.010068888
-0.79156363
0.0091913934
-0.84839014
0.0080949748
-0.90907225
0.0068503692
-0.97378509
0.0055413221
-1.042727
0.0042437234
-1.1162032
0.0030141442
-1.1945044
0.0018943234
-1.2781484
0.00088561439
-1.3674123
0.0014808199
-0.23357092
0.0018922262
-0.24965245
0.0022286367
-0.26684194
0.0027916022
-0.28521448
0.0033786015
-0.30486746
0.0041836187
-0.32590349
0.0050221334
-0.34844465
0.0060098426
-0.37261774
0.0069649847
-0.39855891
0.0079543974
-0.42640974
0.008842761
-0.45632323
0.0096847088
-0.48846916
0.010393592
-0.52303629
0.01099389
-0.56023244
0.011396045
-0.60027104
0.011574563
-0.64335906
0.011451387
-0.68968082
0.011019921
-0.73939674
0.010274112
-0.79264634
0.0092642593
-0.84955942
0.0080535278
-0.91027541
0.0067295414
-0.97497331
0.0053759474
-1.0438592
0.0040683105
-1.1172574
0.0028572253
-1.1954673
0.001777008
-1.2790398
0.00082247528
-1.3682348
0.0013716631
-0.21840532
0.0017580629
-0.23343676
0.0020776504
-0.24950146
0.0026163396
-0.26666668
0.0031872357
-0.28502311
0.0039813077
-0.30466515
0.0048258434
-0.3257072
0.0058335532
-0.34826836
0.0068236436
-0.3724764
0.0078572785
-0.3984618
0.0087979059
-0.42636489
0.0097026371
-0.45634116
0.010491825
-0.48856739
0.011200254
-0.52324265
0.011742933
-0.56057933
0.012091339
-0.60078781
0.012152479
-0.64406016
0.011902232
-0.69056313
0.011313468
-0.74043609
0.010420019
-0.7938021
0.0092728591
-0.85077875
0.0079571193
-0.91150299
0.0065631497
-0.97616051
0.0051777478
-1.0449686
0.0038714922
-1.1182717
0.0026883296
-1.1963786
0.0016542541
-1.2798716
0.00075749901
-1.3689923
0.0012681352
-0.20422557
0.0016294982
-0.21827676
0.0019318313
-0.23329094
0.0024444502
-0.24932957
0.0029962421
-0.26647568
0.0037750842
-0.28481689
0.0046213055
-0.30446061
0.0056447171
-0.32551837
0.0066657821
-0.3481105
0.0077385249
-0.37235765
0.0087238116
-0.3983877
0.0096797003
-0.42634195
0.010533999
-0.45638333
0.011333712
-0.48870085
0.012002729
-0.52350245
0.012513395
-0.56100139
0.012760737
-0.60139607
0.012704061
-0.64486199
0.012294757
-0.69154442
0.011547495
-0.74156357
0.010496166
-0.79502541
0.0092184475
-0.85204008
0.0078052789
-0.91274512
0.0063545184
-0.97733728
0.0049501108
-1.0460473
0.0036566066
-1.1192399
0.0025101348
-1.1972345
0.0015278234
-1.2806419
0.00069163905
-1.3696839
0.0011700933
-0.19096707
0.0015068157
-0.20410289
0.0017920539
-0.21813698
0.0022773416
-0.23312383
0.0028073124
-0.24914064
0.0035666818
-0.26626728
0.0044103317
-0.28460592
0.0054456178
-0.30426151
0.0064944971
-0.32534708
0.0076024026
-0.34797438
0.0086261202
-0.37225996
0.0096227728
-0.39833077
0.01052745
-0.4263354
0.011400738
-0.45645035
0.012179439
-0.48887756
0.012840807
-0.52382986
0.013271303
-0.56151195
0.01341537
-0.60210738
0.013203731
-0.64577096
0.012630427
-0.69262735
0.011708503
-0.74277591
0.010502441
-0.7963094
0.0090987557
-0.85333356
0.0076009442
-0.91399155
0.0061069641
-0.97849413
0.0046968961
-1.0470876
0.0034272934
-1.1201571
0.0023252164
-1.1980319
0.001399389
-1.2813497
0.00062579291
-1.3703097
-0.00071094911
-0.20997147
0.0013900318
-0.19085029
0.0016588423
-0.20396968
0.0021162877
-0.21797593
0.0026222064
-0.23293872
0.0033578288
-0.24893179
0.0041942536
-0.2660512
0.0052377477
-0.28439805
0.0063121076
-0.30407912
0.0074524128
-0.32519709
0.0085097555
-0.34785801
0.0095381789
-0.37217536
0.010479484
-0.39828281
0.011408489
-0.42634316
0.012278565
-0.45654948
0.013075872
-0.48911263
0.013681893
-0.52424045
0.014028448
-0.56212503
0.014027465
-0.60293111
0.013652315
-0.64679285
0.012892635
-0.69381148
0.011794642
-0.74406811
0.010434215
-0.79764486
0.008915834
-0.85464845
0.0073469256
-0.91523151
0.0058247206
-0.97962196
0.0044224393
-1.0480827
0.0031869668
-1.1210188
0.0021361536
-1.1987686
0.0012704613
-1.2819943
0.00056058607
-1.3708703
-0.0020464707
-0.21051311
-0.0004478449
-0.2081336
0.0015321748
-0.19072362
0.0019621259
-0.20381552
0.0024427014
-0.21779642
0.0031505886
-0.23273148
0.0039743885
-0.24871192
0.00502184
-0.26583529
0.0061199615
-0.2842059
0.0072912225
-0.30391793
0.0083788679
-0.3250662
0.0094315646
-0.3477514
0.0103971
-0.37209298
0.0113645
-0.39823882
0.012306808
-0.4263714
0.013222889
-0.4566965
0.013992838
-0.48942357
0.0145383
-0.5247503
0.014755134
-0.5628527
0.014597392
-0.60387619
0.014030289
-0.6479305
0.013077544
-0.69509438
0.011798414
-0.74543231
0.010292089
-0.79902112
0.0086714463
-0.85597297
0.0070474935
-0.91645428
0.0055126123
-0.98071213
0.0041309681
-1.0490267
0.0029391527
-1.1218218
0.0019453309
-1.1994435
0.0011423897
-1.2825761
0.0004964305
-1.3713667
-0.0028888061
-0.21100297
-0.0017604104
-0.20920054
-0.00025749187
-0.20634393
0.0018149828
-0.19057647
0.0022701214
-0.20364294
0.0029474147
-0.21759325
0.0037527249
-0.23250982
0.0047984469
-0.24848853
0.0059183463
-0.26563368
0.0071204909
-0.28403517
0.0082368468
-0.30377591
0.0093078158
-0.32494246
0.010286837
-0.34764114
0.011276392
-0.37200487
0.012271745
-0.39820376
0.013287871
-0.42643638
0.014206933
-0.45691059
0.014942831
-0.4898281
0.015378575
-0.52537374
0.015451542
-0.56370685
0.015103149
-0.60494905
0.014331746
-0.6491847
0.013174371
-0.69647034
0.011718384
-0.7468586
0.010076153
-0.80042582
0.0083694307
-0.85729491
0.0067076567
-0.91764932
0.0051756284
-0.98175679
0.0038269863
-1.0499145
0.0026870791
-1.1225636
0.0017549324
-1.200056
0.0010164648
-1.2830962
0.00043396447
-1.3718007
-0.0032940035
-0.21143758
-0.0025983067
-0.21016508
-0.0015411901
-0.20791684
5.8702896e-05
-0.20458765
0.002104878
-0.19041123
0.0027504713
-0.20344599
0.0035322697
-0.21737279
0.0045689918
-0.23228036
0.0057069328
-0.24827712
0.0069406746
-0.26545386
0.0080863012
-0.28388462
0.0091711204
-0.30363922
0.010154654
-0.32481027
0.011151671
-0.34751642
0.012181499
-0.37191463
0.013278187
-0.39819407
0.014329158
-0.42655861
0.0152428
-0.45721056
0.015892647
-0.49034217
0.016203042
-0.52612524
0.016093904
-0.5646976
0.015536923
-0.60615423
0.014542381
-0.65055271
0.013179095
-0.69793105
0.011552279
-0.74833473
0.0097892109
-0.8018456
0.0080145538
-0.8586018
0.0063329651
-0.91880666
0.004819168
-0.98274897
0.0035146948
-1.0507422
0.0024338235
-1.1232425
0.0015669193
-1.2006065
0.00089396139
-1.2835562
0.00037632508
-1.372177
-0.003320785
-0.21181402
-0.0030151254
-0.21102076
-0.0023678437
-0.20933842
-0.0012110315
-0.20664711
0.00038017469
-0.20286295
0.0025607538
-0.19022151
0.0033162489
-0.20322997
0.004336595
-0.2171404
0.0054859402
-0.23205937
0.0067510937
-0.24808754
0.0079288675
-0.26529643
0.0090250932
-0.2837386
0.010006013
-0.30349058
0.010997538
-0.32465614
0.01204447
-0.34737939
0.013202163
-0.3718386
0.014366278
-0.39823119
0.015441576
-0.42675738
0.016295335
-0.45761325
0.016843113
-0.49098225
0.016987151
-0.52701849
0.016672943
-0.56583362
0.015880884
-0.60749273
0.014655125
-0.65202874
0.013086382
-0.69946515
0.011301157
-0.74984668
0.0094352126
-0.80326626
0.0076125966
-0.85988144
0.0059295745
-0.91991707
0.0044484536
-0.98368273
0.0031982263
-1.0515066
0.0021820916
-1.1238577
0.0013829836
-1.2010955
0.0007757765
-1.2839556
0.00032508678
-1.3725021
-0.003030751
-0.21212921
-0.0030673974
-0.21176175
-0.0027888141
-0.21059979
-0.0020407747
-0.20850868
-0.00087623415
-0.2053907
0.00085474641
-0.20115694
0.0031066195
-0.19001188
0.0041054623
-0.20299884
0.0052575479
-0.21691201
0.0065508056
-0.23185908
0.0077648057
-0.24792347
0.0088726928
-0.26514403
0.009846093
-0.28357868
0.010820899
-0.30331394
0.011869039
-0.32448071
0.013068725
-0.34724595
0.014326396
-0.37179872
0.015544754
-0.39833437
0.016587626
-0.42704967
0.01736621
-0.45813635
0.01777013
-0.49176522
0.017720896
-0.52806644
0.017167571
-0.56712031
0.016124618
-0.60896222
0.014660934
-0.65360329
0.012894742
-0.70105874
0.010967421
-0.75137888
0.0090196779
-0.80467334
0.0071702315
-0.86112209
0.0055037224
-0.92097234
0.004068719
-0.98455322
0.0028812441
-1.0522057
0.001934316
-1.124409
0.001204449
-1.2015242
0.00066227456
-1.2842928
0.00027491265
-1.372777
-0.0024876335
-0.21238093
-0.0028144991
-0.21238211
-0.0028587073
-0.21169186
-0.0024801443
-0.21016042
-0.0017097554
-0.20767516
-0.0004014264
-0.20413453
0.0014175396
-0.19946786
0.0038786585
-0.18978508
0.0050260542
-0.20276734
0.0063401987
-0.2167014
0.007592725
-0.231687
0.0087160921
-0.24776687
0.0096799281
-0.26497786
0.010628511
-0.28338629
0.011663459
-0.30310836
0.012887002
-0.32429899
0.014218528
-0.34713808
0.015559685
-0.37181365
0.016773208
-0.39851995
0.017770101
-0.42745356
0.018433218
-0.45879943
0.018664001
-0.49270833
0.018380481
-0.52927935
0.017563958
-0.56855965
0.016254842
-0.61055613
0.014554953
-0.6552635
0.012604183
-0.7026955
0.010555662
-0.75291487
0.0085494025
-0.80605251
0.0066945895
-0.86231296
0.0050617978
-0.92196541
0.0036847732
-0.98535675
0.0025671335
-1.0528385
0.0016925751
-1.1248971
0.0010323159
-1.2018942
0.00055361399
-1.2845715
0.00022467648
-1.3730017
-0.0017568813
-0.2125675
-0.0023176818
-0.21287775
-0.0026342522
-0.21260656
-0.0025813421
-0.21159066
-0.0021675741
-0.2097026
-0.0012517007
-0.20682489
0.00015996584
-0.20287695
0.002201049
-0.19779025
0.0047953363
-0.18955436
0.0061221124
-0.20254926
0.0074110777
-0.21651975
0.0085558088
-0.23152672
0.009511799
-0.24759874
0.010427193
-0.26477655
0.011435831
-0.28315866
0.012666108
-0.30288746
0.014052124
-0.32413258
0.015495013
-0.34707341
0.016858033
-0.37189848
0.018055721
-0.39880557
0.018970266
-0.42799061
0.019488313
-0.45962375
0.01949904
-0.49382689
0.018948834
-0.53066423
0.017844252
-0.57014906
0.016262556
-0.61226373
0.014333838
-0.65699316
0.012217505
-0.70435734
0.010072214
-0.75443768
0.0080321422
-0.80739007
0.0061931969
-0.86344436
0.0046098988
-0.92289054
0.0033011626
-0.98609078
0.0022588285
-1.0534048
0.0014586519
-1.1253234
0.0008674317
-1.202208
0.00045011335
-1.2847969
0.00017633848
-1.373178
-0.00090517723
-0.21268772
-0.0016400256
-0.21324515
-0.0021748571
-0.21333714
-0.0023992629
-0.21278864
-0.0023000816
-0.21145815
-0.001741779
-0.20921252
-0.0007087803
-0.20595614
0.00093607188
-0.20161198
0.0031365332
-0.19613145
0.005900124
-0.18933237
0.0072200281
-0.20235821
0.0083909601
-0.2163549
0.0093440065
-0.23135893
0.010223671
-0.24739522
0.011194289
-0.264535
0.01241494
-0.28290749
0.01383679
-0.30267213
0.015360137
-0.32399771
0.016849871
-0.34706525
0.018226865
-0.37206962
0.019378676
-0.39921398
0.020183328
-0.42868562
0.02050499
-0.4606297
0.020255366
-0.49513342
0.019403488
-0.53222346
0.017994662
-0.57188117
0.016140079
-0.61406997
0.013997587
-0.65877324
0.011739788
-0.70602492
0.0095250017
-0.75593054
0.007476424
-0.80867329
0.005673526
-0.86450799
0.0041539036
-0.92374328
0.0029219195
-0.98675387
0.0019589454
-1.0539051
0.0012340131
-1.12569
0.00071055016
-1.2024685
0.00035225476
-1.2849729
0.00012980667
-1.3733078
-0.21274081
-3.7718027e-08
-0.00084580275
-0.21348194
-0.0015412686
-0.21387874
-0.0019909379
-0.21374547
-0.0021602758
-0.21292845
-0.0019201781
-0.21127975
-0.0012338305
-0.20868747
4.1033698e-05
-0.2050611
0.0018708771
-0.20034632
0.0042702158
-0.19450154
0.0070213854
-0.18913373
0.0082207434
-0.20218799
0.0091766726
-0.21618757
0.010023439
-0.23115869
0.010947112
-0.24714805
0.012142222
-0.26426229
0.013581932
-0.28265263
0.015164895
-0.30247689
0.016757721
-0.32390556
0.018289808
-0.34712819
0.019659307
-0.37235025
0.02074232
-0.39977297
0.02138323
-0.42956386
0.021461209
-0.46183554
0.020906166
-0.4966361
0.019725457
-0.53395426
0.01800223
-0.57374332
0.015883462
-0.61595585
0.013548997
-0.66058245
0.011178438
-0.70767835
0.0089232476
-0.75737736
0.0068910927
-0.80989086
0.0051429585
-0.86549704
0.0036991924
-0.92452055
0.0025506926
-0.98734562
0.0016697056
-1.0543408
0.0010198101
-1.1259993
0.00056230736
-1.2026785
0.00026054353
-1.2851036
8.5381547e-05
-1.3733932
-0.21358658
-3.0855715e-08
-0.21274081
0.00090510184
-0.00079544422
-0.21422777
-0.001415066
-0.21445461
-0.0018032526
-0.21410249
-0.0018384031
-0.21301022
-0.0014626142
-0.21105097
-0.00052885845
-0.20811758
0.00095536829
-0.20414559
0.0030126119
-0.19908872
0.0054416307
-0.19292178
0.0080451066
-0.18895809
0.0090087949
-0.20202011
0.0098297038
-0.21599383
0.010702028
-0.23091361
0.011856739
-0.24686256
0.013296624
-0.26397698
0.014919131
-0.28240687
0.016591498
-0.30231066
0.018252739
-0.32386849
0.019816213
-0.3472851
0.021162493
-0.37277042
0.022122414
-0.40051216
0.022546587
-0.43064924
0.022326389
-0.46325576
0.021427196
-0.49833783
0.019895733
-0.53584776
0.017857874
-0.57571773
0.015492007
-0.61789886
0.01299401
-0.66239802
0.010542842
-0.70929795
0.0082770265
-0.75876329
0.0062851532
-0.81103305
0.004608461
-0.86640631
0.0032507206
-0.92522058
0.0021906396
-0.98786655
0.0013929284
-1.0547139
0.00081700373
-1.126254
0.00042321816
-1.2028412
0.00017529461
-1.2851935
4.4215116e-05
-1.3734374
-0.21438199
-3.060235e-08
-0.21358658
0.00084574113
-0.21268772
0.0017568061
-0.00073135083
-0.21491148
-0.0012858337
-0.21497203
-0.0015503252
-0.21439057
-0.0014459819
-0.21302686
-0.00082177736
-0.21075805
0.00034393764
-0.20750615
0.0020835038
-0.20321648
0.0042129045
-0.19785999
0.0065300454
-0.19140672
0.0088401735
-0.18878947
0.0096426329
-0.20183304
0.010465181
-0.21575699
0.011567023
-0.23062389
0.012989708
-0.24655565
0.014632469
-0.26369032
0.016361525
-0.28217689
0.018125444
-0.30218337
0.019856144
-0.32390842
0.021444872
-0.34756748
0.022715356
-0.37336337
0.023495103
-0.40146067
0.02363991
-0.43196276
0.02307136
-0.46489993
0.021792904
-0.50023501
0.019898952
-0.53788884
0.017556024
-0.57778175
0.014968972
-0.61987382
0.01234138
-0.66419656
0.0098439652
-0.71086489
0.007596987
-0.76007513
0.0056673836
-0.81209198
0.0040765849
-0.86723217
0.0028128854
-0.92584283
0.0018444856
-0.98831811
0.0011300846
-1.055027
0.00062643252
-1.1264572
0.00029365078
-1.2029596
9.6657963e-05
-1.285246
5.8297935e-06
-1.3734433
-0.21511331
-3.3042731e-08
-0.21438199
0.00079538313
-0.21348194
0.0016399643
-0.21256749
0.0024875584
-0.00066552965
-0.21553179
-0.001111198
-0.21541116
-0.0012378682
-0.21459868
-0.00089013879
-0.21295849
-1.413807e-05
-0.21039997
0.0014350137
-0.20685766
0.0032904832
-0.20229406
0.0053506337
-0.19668058
0.0073815175
-0.18994807
0.0094620839
-0.18860892
0.010239976
-0.20160784
0.011281173
-0.21547114
0.012669709
-0.2303039
0.014314219
-0.2462374
0.016078302
-0.26340709
0.017918702
-0.28197015
0.019788236
-0.30211546
0.021593881
-0.32405743
0.023159104
-0.34801122
0.024294415
-0.37416268
0.024825104
-0.40264587
0.024629881
-0.43352128
0.023663944
-0.46677097
0.021980676
-0.50231673
0.019723216
-0.54005603
0.017095791
-0.57990857
0.014321365
-0.6218538
0.011602363
-0.66595496
0.0090939645
-0.71236186
0.0068938804
-0.76130162
0.0050462274
-0.81306162
0.0035532916
-0.86797258
0.0023895492
-0.92638789
0.0015144736
-0.9887025
0.00088241203
-1.0552829
0.00044870254
-1.1266122
0.00017382215
-1.2030367
2.5204661e-05
-1.2852653
-2.5754062e-05
-1.3734175
-0.2157788
-3.9145227e-08
-0.21511331
0.00073128489
-0.21422777
0.0015412078
-0.21324515
0.0023176208
-0.21238093
0.0030306761
-0.00057632271
-0.21606666
-0.00089281113
-0.21575622
-0.00078948956
-0.21469933
-0.00017531178
-0.21279732
0.0010119533
-0.20997691
0.0026241431
-0.20619132
0.0044600981
-0.20140353
0.0062505464
-0.19554961
0.0080360606
-0.18852204
0.010028748
-0.1883977
0.011005513
-0.20133218
0.012345306
-0.21514673
0.013973201
-0.22996288
0.015752214
-0.24591131
0.017644015
-0.26313241
0.019623253
-0.28180517
0.02161706
-0.30213864
0.023454645
-0.32435297
0.024936543
-0.34865335
0.02586391
-0.37520149
0.026076224
-0.40409221
0.025478113
-0.43533545
0.024073624
-0.46886392
0.021970853
-0.50456437
0.019361812
-0.54232205
0.016480988
-0.58206819
0.013559805
-0.62381125
0.010790259
-0.66765125
0.0083056164
-0.7137736
0.0061783279
-0.76243372
0.0044295577
-0.81393788
0.0030439163
-0.86862695
0.0019839711
-0.92685739
0.0012024326
-0.98902252
0.00065086241
-1.0554851
0.00028408583
-1.1267225
6.401838e-05
-1.2030755
-4.0606119e-05
-1.2852505
-5.4453912e-05
-1.373363
-0.21635507
-4.9519072e-08
-0.2157788
0.00066545152
-0.21491148
0.0014150005
-0.21387874
0.0021747968
-0.21287775
0.0028144387
-0.21212921
0.0033207105
-0.0004637603
-0.21649571
-0.00057557753
-0.21597013
-0.00020109629
-0.21467355
0.00074964549
-0.21253501
0.0021537048
-0.20950648
0.0038053826
-0.20553661
0.0053999045
-0.20055289
0.0069332876
-0.19444683
0.0086002839
-0.18709358
0.010746768
-0.18813895
0.012024205
-0.20101108
0.013618424
-0.21479196
0.015393151
-0.22960382
0.017313123
-0.24558042
0.019373296
-0.26288245
0.021524195
-0.2817123
0.023606725
-0.30229072
0.025417826
-0.32483425
0.026742426
-0.34953187
0.027386564
-0.37651183
0.027204877
-0.40581898
0.026145981
-0.43740781
0.024271729
-0.47116479
0.02174909
-0.50695164
0.018813589
-0.54465465
0.015720294
-0.58422868
0.012698073
-0.62571906
0.0099197552
-0.66926539
0.0074919472
-0.71508722
0.0054604856
-0.76346465
0.003824561
-0.81471853
0.0025530562
-0.86919603
0.0015988423
-0.9272538
0.00090979044
-0.98928145
0.00043604857
-1.0556371
0.00013285549
-1.1267914
-3.590628e-05
-1.2030802
-0.00010060414
-1.2852043
-8.0780329e-05
-1.3732823
-0.21681877
-6.1938878e-08
-0.21635507
0.00057622382
-0.21553179
0.001285756
-0.21445461
0.001990873
-0.21333715
0.0026341927
-0.21238211
0.0030673378
-0.21181402
0.0032939295
-0.00029877167
-0.21677252
-0.0001516837
-0.21601954
0.0005751155
-0.21449902
0.0018043503
-0.21218566
0.0033188946
-0.20901999
0.0047768047
-0.20491351
0.0061062956
-0.19972589
0.0074957136
-0.19334226
0.0092735495
-0.18562036
0.011717418
-0.18783216
0.013258335
-0.20065099
0.015010883
-0.21440969
0.016937463
-0.22922816
0.019051083
-0.2452582
0.021327075
-0.26268533
0.023622954
-0.28172853
0.02573895
-0.30261185
0.027451241
-0.32554307
0.028540652
-0.35068596
0.028815233
-0.37812218
0.02816466
-0.40783766
0.026594884
-0.43973097
0.024234473
-0.47365018
0.021307218
-0.50944527
0.018083577
-0.54701793
0.014826921
-0.58635753
0.011752397
-0.6275517
0.0090063966
-0.67077984
0.0066657639
-0.7162925
0.0047498259
-0.76438992
0.0032375611
-0.81540303
0.002084561
-0.86968175
0.0012362818
-0.92758029
0.00063758102
-0.98948298
0.00023833387
-1.0557425
-3.1878792e-06
-1.1268241
-0.00012611832
-1.2030547
-0.00015359606
-1.2851315
-0.00010390307
-1.3731784
-0.21711747
-7.8127065e-08
-0.21681877
0.0004636365
-0.21606666
0.0011110995
-0.21497203
0.0018031757
-0.21374547
0.0023991989
-0.21260656
0.0028586487
-0.21176175
0.0030150665
-0.21143758
0.0028887326
-7.5489529e-05
-0.21684871
0.000417326
-0.21586175
0.0014834232
-0.21417809
0.0029098003
-0.21177656
0.004310297
-0.20855348
0.0055049015
-0.20431211
0.0066660926
-0.19889627
0.0081251956
-0.19219391
0.010180511
-0.18408346
0.012907755
-0.18748158
0.014614338
-0.20025445
0.016528097
-0.21400032
0.018669393
-0.22884647
0.021038586
-0.24496971
0.02351376
-0.26257614
0.02590416
-0.28189374
0.027985774
-0.30314638
0.0295226
-0.32652502
0.030282762
-0.35215348
0.030096647
-0.38005417
0.028906566
-0.41014934
0.026789942
-0.44228643
0.023944412
-0.47628737
0.020644497
-0.51200619
0.017182917
-0.54937393
0.01381793
-0.58842306
0.010740783
-0.62928609
0.0080659677
-0.67218004
0.0058392953
-0.71738197
0.0040548702
-0.76520723
0.0026739535
-0.81599243
0.0016415181
-0.87008698
0.00089784662
-0.92784056
0.00038640335
-0.98963105
5.7917295e-05
-1.0558037
-0.00012962491
-1.1268206
-0.00020677916
-1.2030016
-0.00020018539
-1.2850352
-0.00012421813
-1.3730541
-0.21719285
-1.0138419e-07
-0.21711747
0.00029861549
-0.21649571
0.00089268746
-0.21541116
0.0015502273
-0.2141025
0.0021601998
-0.21278864
0.0025812792
-0.21169186
0.0027887566
-0.21102076
0.0025982489
-0.21100297
0.0020463978
0.00022799736
-0.21665938
0.0010991274
-0.21547745
0.0024633353
-0.21373163
0.0038917033
-0.21135797
0.0050605935
-0.20810917
0.0060622694
-0.20370829
0.0072531881
-0.19802427
0.0089642172
-0.19097762
0.011308441
-0.18248414
0.014221093
-0.18708834
0.016094582
-0.19982093
0.018240674
-0.2135716
0.020672259
-0.22848014
0.023291315
-0.24474727
0.025921518
-0.26259349
0.028345694
-0.28225366
0.030321535
-0.30394531
0.031584849
-0.3278271
0.03191011
-0.35396695
0.031171451
-0.38231905
0.029383294
-0.41274269
0.026702128
-0.44504415
0.023392525
-0.4790354
0.019767998
-0.51459128
0.016128348
-0.55168435
0.012713454
-0.59039573
0.0096822138
-0.63090233
0.0071139427
-0.67345469
0.005023802
-0.7183509
0.0033830377
-0.76591631
0.0021381549
-0.81648906
0.0012262889
-0.87041543
0.00058452929
-0.92803868
0.00015645341
-0.98972958
-0.00010572439
-1.0558276
-0.00024143014
-1.1267859
-0.00027821168
-1.2029235
-0.0002408662
-1.2849186
-0.00014166049
-1.3729125
-0.21696471
-1.4780158e-07
-0.21719285
7.5287271e-05
-0.21677252
0.00057542133
-0.21575622
0.0012377448
-0.21439057
0.0018383062
-0.21292845
0.002300007
-0.21159066
0.0024800829
-0.21059979
0.0023677876
-0.21016508
0.0017603538
-0.2105131
0.00071087699
0.00059773213
-0.21615799