/*--------------------------------*- C++ -*----------------------------------*\
| =========                 |                                                 |
| \\      /  F ield         | OpenFOAM: The Open Source CFD Toolbox           |
|  \\    /   O peration     | Version:  5.0                                   |
|   \\  /    A nd           | Web:      www.OpenFOAM.org                      |
|    \\/     M anipulation  |                                                 |
\*---------------------------------------------------------------------------*/
FoamFile
{
    version     2.0;
    format      ascii;
    class       volScalarField;
    location    "20";
    object      pMean;
}
// * * * * * * * * * * * * * * * * * * * * * * * * * * * * * * * * * * * * * //

dimensions      [0 2 -2 0 0 0 0];

internalField   nonuniform List<scalar> 
9200
(
-8.1293976e-05
-7.8632021e-05
-0.00020084462
-7.3340499e-05
-0.00019439118
-0.00034388706
-6.7628458e-05
-0.00018181071
-0.00033301015
-0.00048520416
-5.9257343e-05
-0.0001673514
-0.00031219256
-0.00047048153
-0.0006349886
-5.0890503e-05
-0.00014730946
-0.0002871874
-0.00044219232
-0.00061652512
-0.00079101547
-4.1196417e-05
-0.00012644605
-0.000253655
-0.00040759235
-0.00058066344
-0.00076936464
-0.00095455029
-3.1437269e-05
-0.00010283377
-0.00021783046
-0.00036156321
-0.00053642943
-0.00072641648
-0.00093027971
-0.0011253884
-2.1328871e-05
-7.8700268e-05
-0.00017774037
-0.00031169604
-0.000477723
-0.000673287
-0.00088076513
-0.0010992993
-0.0013043308
-1.1321847e-05
-5.3833116e-05
-0.00013637941
-0.00025588656
-0.00041350155
-0.00060247984
-0.00081950496
-0.001044059
-0.0012773265
-0.0014903577
-1.4764107e-06
-2.9116778e-05
-9.3833154e-05
-0.00019786149
-0.00034148894
-0.00052439725
-0.00073723901
-0.00097593049
-0.0012173384
-0.0014635804
-0.0016834973
8.0018261e-06
-4.825153e-06
-5.1443224e-05
-0.00013796119
-0.00026614244
-0.00043640756
-0.0006457693
-0.000883352
-0.0011437316
-0.0014001821
-0.0016581869
-0.0018820301
1.700678e-05
1.8585112e-05
-9.785804e-06
-7.798397e-05
-0.00018806142
-0.00034368903
-0.00054198632
-0.00077951793
-0.0010421739
-0.0013230192
-0.0015929207
-0.0018596484
-0.0020852206
2.5465638e-05
4.0836672e-05
3.0434121e-05
-1.8813331e-05
-0.00010950866
-0.000247052
-0.00043173287
-0.00066061873
-0.00092715849
-0.0012144028
-0.0015143804
-0.0017944169
-0.0020673302
-0.0022908515
3.3336207e-05
6.1734731e-05
6.8763498e-05
3.8545284e-05
-3.1693097e-05
-0.00014923466
-0.00031600471
-0.00053310251
-0.00079398323
-0.0010900453
-0.0014009784
-0.0017172176
-0.0020042641
-0.0022791979
-0.0024975421
4.0598179e-05
8.1167798e-05
0.00010484901
9.340773e-05
4.4053222e-05
-5.1793886e-05
-0.00019801746
-0.00039808314
-0.00064959983
-0.00094408423
-0.0012695031
-0.0016019416
-0.0019314369
-0.0022207233
-0.0024939559
-0.0027028006
4.7263167e-05
9.9076148e-05
0.00013847403
0.00014523213
0.00011678704
4.3568879e-05
-7.9706986e-05
-0.00025924793
-0.00049516841
-0.0007838451
-0.0011126658
-0.001466312
-0.001817647
-0.0021557626
-0.0024426941
-0.0027092009
-0.0029048189
5.3354592e-05
0.00011544728
0.00016951923
0.00019366524
0.00018575024
0.00013559967
3.6807682e-05
-0.00011893202
-0.00033481981
-0.00061041588
-0.00093798903
-0.0013012985
-0.0016813624
-0.0020474354
-0.0023893815
-0.0026679654
-0.0029231367
-0.0031010569
5.8889586e-05
0.00013030541
0.0001979513
0.00023849809
0.00025042591
0.00022326974
0.0001499041
2.0280592e-05
-0.00017130034
-0.00042831722
-0.00074634752
-0.0011144035
-0.0015114972
-0.0019147561
-0.0022909434
-0.0026304042
-0.0028948467
-0.0031332063
-0.0032895205
6.3893493e-05
0.00014370354
0.00022380246
0.00027964831
0.00031048849
0.00030584648
0.00025822213
0.00015633401
-7.7012911e-06
-0.00024069666
-0.00054256336
-0.00090609942
-0.0013152721
-0.0017442454
-0.0021667185
-0.0025467768
-0.0028773165
-0.0031208309
-0.0033373474
-0.003467816
6.8404504e-05
0.00015571408
0.00024715417
0.00031713442
0.00036578278
0.00038284052
0.00036075301
0.00028746223
0.00015342251
-5.1184257e-05
-0.00033015101
-0.00068137706
-0.0010925307
-0.0015425418
-0.0020005108
-0.0024365358
-0.0028137655
-0.0031277321
-0.0033438237
-0.0035330539
-0.0036340751
7.2462753e-05
0.00016642299
0.00026812589
0.00035105328
0.00041629243
0.00045398264
0.00045678731
0.00041230375
0.00030982007
0.00013710159
-0.00011329192
-0.00044404476
-0.00084825147
-0.0013085853
-0.0017980459
-0.0022804559
-0.0027235582
-0.0030898081
-0.0033795431
-0.0035612225
-0.0037182413
-0.0037863294
7.6107152e-05
0.00017592421
0.00028686257
0.00038156017
0.00046211022
0.00051918763
0.00054589186
0.00052985564
0.0004596912
0.00032133795
0.00010427784
-0.0001988183
-0.00058641884
-0.0010471036
-0.0015570494
-0.0020829976
-0.0025841683
-0.0030261677
-0.003372929
-0.0036300355
-0.0037707565
-0.0038907287
-0.00392307
7.9373942e-05
0.00018431443
0.00030352466
0.00040885007
0.0005034128
0.00057851769
0.00062787038
0.00063945394
0.00060165397
0.00049918628
0.00031907861
4.9912143e-05
-0.00031222593
-0.00076208223
-0.0012817047
-0.0018403257
-0.0023984359
-0.0029107644
-0.0033427036
-0.003660423
-0.0038767173
-0.0039699318
-0.0040488079
-0.0040426948
8.2295104e-05
0.00019169142
0.00031827947
0.00043314388
0.00054043528
0.00063215106
0.00070271992
0.00074073376
0.00073473331
0.00066878233
0.00052812778
0.00029793159
-3.0722414e-05
-0.00045908019
-0.00097576086
-0.0015557277
-0.0021606014
-0.002744477
-0.0032591535
-0.0036706457
-0.0039496503
-0.004116763
-0.0041566411
-0.0041906289
-0.0041439818
8.4897578e-05
0.00019815147
0.00033129556
0.00045467539
0.00057345278
0.00068034899
0.00077059417
0.00083357941
0.00085832435
0.00082873973
0.00072896266
0.00054150318
0.00025308229
-0.00014376736
-0.00064496683
-0.0012324091
-0.0018726593
-0.0025192529
-0.0031208929
-0.0036272644
-0.0040073504
-0.0042374968
-0.0043475597
-0.0043287471
-0.0043147233
-0.0042259418
8.7201942e-05
0.00020378853
0.00034273753
0.00047368315
0.000602762
0.00072343253
0.0008317614
0.00091808303
0.00097213765
0.00097812225
0.00091966833
0.00077743626
0.00053459467
0.00017802564
-0.00029551406
-0.00087605658
-0.0015368997
-0.0022353613
-0.0029172274
-0.0035263843
-0.0040126989
-0.0043495213
-0.0045209151
-0.004566404
-0.0044844253
-0.0044198282
-0.0042879157
8.9223608e-05
0.00020869224
0.00035276416
0.00049040178
0.00062867039
0.00076175725
0.0008865762
0.00099449203
0.0010761546
0.0011163868
0.001098866
0.0010031501
0.0008097626
0.00050076448
6.5967653e-05
-0.00049321035
-0.0011586142
-0.0018937418
-0.0026462524
-0.0033543634
-0.0039591258
-0.0044122065
-0.0046937375
-0.0047966352
-0.0047708833
-0.0046219253
-0.0045049754
-0.004329463
9.0964421e-05
0.0002129507
0.00036152379
0.00050505907
0.00065148356
0.00079569949
0.00093544551
0.001063176
0.0011705634
0.0012433383
0.0012656587
0.0012166885
0.0010751888
0.00081940634
0.0004329525
-9.121208e-05
-0.00074443258
-0.0014988734
-0.0023070771
-0.0031066835
-0.0038298051
-0.0044162347
-0.0048221744
-0.0050361822
-0.0050615294
-0.0049586929
-0.0047398503
-0.0045694638
-0.0043503408
9.2430796e-05
0.00021663759
0.00036915755
0.00051786754
0.00067150201
0.00082563767
0.00097881206
0.0011245814
0.0012557209
0.0013590526
0.0014195894
0.0014166752
0.0013281829
0.0011295781
0.00079929442
0.00032242015
-0.00030223807
-0.0010571184
-0.0019028732
-0.0027801164
-0.0036172038
-0.0043414554
-0.0048942015
-0.0052383632
-0.0053730072
-0.0053124916
-0.0051278045
-0.004837072
-0.0046128796
-0.0043507133
9.3338157e-05
0.00021987214
0.00037577699
0.00052903159
0.00068900738
0.00085194955
0.0010171279
0.0011792114
0.0013320935
0.001463836
0.0015605509
0.0016022827
0.0015667371
0.0014276794
0.0011594853
0.00074035536
0.00015953013
-0.00057662809
-0.0014392758
-0.0023759652
-0.0033152515
-0.0041769911
-0.0048863188
-0.0053886129
-0.005656268
-0.0057002376
-0.0055466542
-0.0052763679
-0.0049127808
-0.0046351206
-0.0043314062
9.406373e-05
0.00022214366
0.00038154997
0.00053871088
0.00070427508
0.00087499034
0.0010508535
0.0012275879
0.0014002347
0.0015581472
0.0016887444
0.0017731297
0.0017895131
0.001710891
0.0015088232
0.0011558027
0.00063232892
-6.6594549e-05
-0.00092431439
-0.001898579
-0.0029227816
-0.0039134622
-0.004784079
-0.0054601928
-0.0058944917
-0.0060710452
-0.0060140208
-0.0057613432
-0.0054029035
-0.0049664838
-0.004636388
-0.0042935206
9.4699245e-05
0.000223786
0.0003854637
0.00054717521
0.00071751391
0.00089511666
0.0010804235
0.0012702544
0.0014607302
0.0016425754
0.0018045786
0.001929244
0.0019957296
0.0019771908
0.0018434705
0.0015627603
0.0011079708
0.00046328301
-0.00036764493
-0.0013553482
-0.0024422139
-0.0035466245
-0.0045744042
-0.0054349933
-0.0060579585
-0.0064062323
-0.006477785
-0.006310629
-0.0059542419
-0.0055062727
-0.0049979758
-0.0046170096
-0.0042369703
9.5256275e-05
0.00022519689
0.00038809257
0.00055286381
0.00072910101
0.0009125864
0.0011062867
0.0013077252
0.0015142077
0.0017177611
0.0019086497
0.002070934
0.0021851358
0.0022252373
0.002160513
0.0019561445
0.0015789679
0.0010033693
0.00022004591
-0.00075596359
-0.0018796603
-0.0030762678
-0.0042494005
-0.0052959691
-0.0061249607
-0.0066735024
-0.0069178856
-0.0068715527
-0.0065866314
-0.0061233854
-0.0055856924
-0.0050072946
-0.0045771507
-0.0041600174
9.5725904e-05
0.00022642469
0.000390372
0.00055655726
0.00073669334
0.00092793583
0.0011287458
0.0013405572
0.0015612614
0.0017844169
0.0020016314
0.0021987785
0.0023578487
0.0024543636
0.0024578486
0.0023319103
0.0020387562
0.0015445424
0.00082771842
-0.0001117891
-0.0012442666
-0.0025064797
-0.0038055125
-0.0050310892
-0.0060743731
-0.0068477869
-0.0072999944
-0.0074232357
-0.0072475955
-0.0068389283
-0.0062671813
-0.0056407088
-0.0049947096
-0.0045169431
-0.0040635966
9.6111726e-05
0.00022746724
0.0003923708
0.00055973127
0.00074141925
0.00093780761
0.0011485291
0.0013690985
0.0016025679
0.0018432153
0.0020843352
0.0023134744
0.0025143595
0.0026643754
0.0027342155
0.0026869601
0.0024818958
0.0020785368
0.0014445372
0.00056490349
-0.00054759864
-0.0018451303
-0.0032439816
-0.0046327726
-0.0058896769
-0.0069039542
-0.0075960943
-0.0079299852
-0.007916046
-0.0076014251
-0.0070648435
-0.006384407
-0.0056712069
-0.0049607592
-0.0044372792
-0.0039515401
9.6417476e-05
0.00022833276
0.00039407879
0.00056250627
0.00074548616
0.00094375759
0.0011609194
0.0013943595
0.00163851
0.0018949605
0.0021575254
0.0024158761
0.002655321
0.0028555902
0.0029889478
0.0030192238
0.0029040205
0.0025982425
0.0020603538
0.0012615903
0.00019717502
-0.0011033321
-0.0025705415
-0.0040985677
-0.0055586802
-0.0068208322
-0.0077773291
-0.0083614166
-0.0085556861
-0.0083901987
-0.0079289633
-0.0072621552
-0.0064742824
-0.0056774029
-0.004906252
-0.0043397736
-0.0038268022
9.6646674e-05
0.00022902695
0.0003955031
0.000564869
0.00074906685
0.00094884479
0.0011681051
0.0014098491
0.0016704535
0.001940052
0.0022221513
0.0025067377
0.0027816606
0.0030285481
0.0032220624
0.0033273697
0.003301991
0.0030977202
0.002666121
0.0019661329
0.00097601336
-0.00029462029
-0.0017950144
-0.0034311147
-0.0050744269
-0.0065811914
-0.0078179301
-0.0086854429
-0.0091344923
-0.0091691653
-0.0088398984
-0.0082266182
-0.0074291477
-0.0065364422
-0.0056598135
-0.0048321988
-0.0042260811
-0.003691336
9.6802805e-05
0.00022955431
0.00039664795
0.0005668342
0.0007521305
0.00095333469
0.0011742209
0.0014185793
0.001689611
0.0019803283
0.0022786023
0.0025871563
0.0028942121
0.0031842087
0.0034338713
0.0036109627
0.0036735617
0.0035724527
0.0032540043
0.0026673183
0.0017747991
0.00056580849
-0.00093055868
-0.0026379464
-0.0044354694
-0.0061728688
-0.0076954232
-0.0088720059
-0.0096178432
-0.0099055072
-0.0097626172
-0.0092598095
-0.0084913723
-0.0075646109
-0.0065709135
-0.0056192118
-0.0047397366
-0.0040977558
-0.0035458503
9.6887338e-05
0.00022991752
0.00039751788
0.00056841215
0.00075468956
0.00095717986
0.0011796616
0.0014259635
0.0017001218
0.0020041024
0.0023292659
0.002657527
0.0029942985
0.0033234085
0.0036252943
0.0038699454
0.0040176423
0.0040189741
0.0038177584
0.0033550997
0.0025800029
0.0014620397
7.0649093e-06
-0.001730883
-0.0036459331
-0.0055893739
-0.0073919245
-0.0088934479
-0.0099719558
-0.010562943
-0.010664429
-0.010328576
-0.0096452018
-0.0087208215
-0.0076678416
-0.0065780742
-0.0055565873
-0.0046300845
-0.003956262
-0.0033898426
0.00023011722
9.6887271e-05
0.00039811716
0.00056961265
0.00075675128
0.00096040023
0.0011843373
0.001432581
0.0017089548
0.0020169472
0.0023588456
0.0027209605
0.0030821371
0.0034476503
0.0037970683
0.004105114
0.0043336121
0.0044352745
0.004352331
0.0040211274
0.0033790904
0.0023782107
0.0010005508
-0.00072540117
-0.0027151433
-0.0048302577
-0.0068950737
-0.0087259132
-0.010164351
-0.011104776
-0.011508407
-0.011401308
-0.010860141
-0.0099920452
-0.0089132015
-0.0077386177
-0.0065586227
-0.0054731038
-0.0045045291
-0.0038028864
-0.0032236255
0.00039844924
0.00023011707
9.6802604e-05
0.00057044307
0.000758325
0.0009630034
0.0011882691
0.0014382962
0.0017169526
0.0020277206
0.0023746576
0.002757814
0.0031615628
0.0035569358
0.0039509718
0.0043170046
0.0046220289
0.0048199098
0.0048544594
0.0046583441
0.0041612285
0.0032991175
0.0020318833
0.00036048306
-0.0016571811
-0.0039010503
-0.0061987273
-0.0083505719
-0.010165276
-0.011494379
-0.012255964
-0.012441536
-0.012106599
-0.011351147
-0.010297082
-0.0090673836
-0.0077771736
-0.0065135394
-0.0053700508
-0.0043644063
-0.0036388493
-0.0030485346
0.00057090821
0.00039844898
0.00022991707
9.6646341e-05
0.0007594184
0.00096499953
0.0011914595
0.0014431376
0.001723895
0.002037583
0.0023878672
0.0027774877
0.0032076745
0.0036561229
0.004086785
0.0045076737
0.0048830644
0.0051730309
0.0053215347
0.0052618346
0.0049169024
0.0042111076
0.0030831697
0.0015070457
-0.00048978653
-0.0028130906
-0.0053032643
-0.0077546244
-0.0099491504
-0.011696541
-0.012867297
-0.013409975
-0.013349701
-0.012771435
-0.011796307
-0.010557859
-0.009182864
-0.0077841609
-0.006444027
-0.0052487867
-0.0042110561
-0.0034654487
-0.0028658693
0.00076003711
0.00057090787
0.00039811636
0.00022955355
9.641701e-05
0.00096639512
0.0011939181
0.001447101
0.0017298078
0.0020462285
0.0024000431
0.0027940155
0.0032322762
0.0037139125
0.0042106874
0.0046763863
0.0051190711
0.0054942194
0.0057530661
0.0058273971
0.0056390841
0.0051017574
0.0041377084
0.0026939283
0.00076637625
-0.001582545
-0.0042157639
-0.0069320038
-0.0094958345
-0.011679044
-0.013302552
-0.014264872
-0.01455076
-0.014220744
-0.013387871
-0.012191309
-0.010772748
-0.0092597328
-0.0077605854
-0.0063514413
-0.0051107282
-0.0040458089
-0.0032838937
-0.0026768555
0.00096719359
0.00076003667
0.00057044203
0.00039751655
0.00022902589
9.6111126e-05
0.0011956493
0.0014501873
0.0017346826
0.0020536663
0.0024107755
0.0028094408
0.0032530444
0.0037448534
0.0042835027
0.0048310113
0.0053285405
0.0057861245
0.0061477339
0.0063535895
0.0063214653
0.0059614281
0.0051797742
0.0039013355
0.0020890285
-0.0002298871
-0.0029492494
-0.0058839519
-0.0087917229
-0.01141412
-0.013523429
-0.014962898
-0.015667493
-0.015662314
-0.015043351
-0.013949067
-0.012532883
-0.010940934
-0.0092986028
-0.0077077139
-0.0062372704
-0.0049574133
-0.0038700549
-0.0030952043
-0.0024826278
0.0011966524
0.00096719303
0.00075941706
0.00056961091
0.00039664608
0.00022833138
9.5725169e-05
0.0014523845
0.0017385157
0.0020598647
0.0024201032
0.002823214
0.0032725987
0.0037710719
0.0043230387
0.0049228452
0.0055215302
0.0060460818
0.0065084624
0.0068377742
0.0069612657
0.0067811142
0.0061966213
0.0051099844
0.0034555091
0.001221622
-0.0015225064
-0.004618593
-0.0078307285
-0.010879877
-0.013494721
-0.015460679
-0.016654566
-0.017054866
-0.016729211
-0.015807372
-0.014449446
-0.012818828
-0.011062342
-0.0093004921
-0.0076270325
-0.0061031959
-0.0047905165
-0.003685216
-0.0029003628
-0.0022842427
0.0014536716
0.0011966518
0.00096639343
0.00075832277
0.0005684097
0.00039550068
0.00022746553
9.5255404e-05
0.0017412752
0.0020647966
0.0024279774
0.0028352726
0.0032902212
0.0037959274
0.0043565933
0.0049738668
0.0056376852
0.0062869511
0.0068309204
0.0072830966
0.0075539915
0.0075562304
0.0071759044
0.0063035887
0.0048429561
0.002747049
4.1595058e-05
-0.0031512066
-0.0066142724
-0.01006167
-0.01318599
-0.015716295
-0.017464957
-0.018352753
-0.018406739
-0.0177371
-0.016504095
-0.014884786
-0.013047957
-0.011137492
-0.0092667754
-0.007520351
-0.0059511242
-0.0046115575
-0.0034923949
-0.002700266
-0.0020827252
0.0017429099
0.0014536709
0.0011956475
0.00096499672
0.00075674814
0.00056683103
0.00039407582
0.00022642265
9.4698237e-05
0.0020683842
0.002434328
0.0028455364
0.0033057954
0.0038184936
0.0043885437
0.0050172617
0.0057042151
0.0064343096
0.00713151
0.0076828759
0.0081029166
0.0082797496
0.0081106963
0.0074658201
0.0062312585
0.0043202828
0.0017168863
-0.0015024694
-0.0051520983
-0.0089525498
-0.012573244
-0.01569109
-0.018051298
-0.019507076
-0.020031782
-0.019703608
-0.018673151
-0.017126455
-0.015252197
-0.013219925
-0.011167448
-0.0091993325
-0.0073898868
-0.0057829159
-0.0044216093
-0.0032924898
-0.0024960326
-0.0018790007
0.0020705211
0.0017429091
0.0014523823
0.001193915
0.00096299946
0.0007546855
0.00056486511
0.00039236728
0.00022519451
9.4062589e-05
0.0024389971
0.0028539031
0.0033191044
0.0038386705
0.0044176494
0.0050587023
0.005760858
0.0065217654
0.0073189337
0.0080579975
0.0085981192
0.0089549327
0.0089906068
0.0085868343
0.007599542
0.0059173629
0.0034748137
0.00030174192
-0.0034605321
-0.0075546563
-0.011639848
-0.015351543
-0.018367686
-0.020466771
-0.021555576
-0.02166606
-0.020927404
-0.019526436
-0.017669082
-0.015549952
-0.013335184
-0.011154031
-0.0091006506
-0.0072377902
-0.0055996565
-0.0042214629
-0.0030869065
-0.002289268
-0.0016738008
0.0024417931
0.0020705202
0.0017412729
0.0014501836
0.0011914552
0.00096039516
0.00075212553
0.00056250164
0.0003903679
0.00022378328
9.3336884e-05
0.0028600984
0.0033300213
0.0038561488
0.0044437809
0.0050965659
0.0058151043
0.0065962562
0.0074345225
0.0082970015
0.0090661467
0.0095674641
0.0098186895
0.009651903
0.0089344909
0.0075125082
0.0052879278
0.0022318195
-0.0015631521
-0.0058776081
-0.010378467
-0.014670588
-0.018371611
-0.021180294
-0.022925507
-0.023577951
-0.023231059
-0.022062107
-0.020288094
-0.018128141
-0.015777434
-0.013395284
-0.011099988
-0.0089731903
-0.0070651434
-0.0054020263
-0.0040130175
-0.0028781378
-0.0020813468
-0.0014676353
0.0028638125
0.0024417922
0.0020683817
0.0017385119
0.0014470958
0.0011882635
0.00095717365
0.00074906095
0.00055972587
0.00038808789
0.00022214058
9.2429394e-05
0.003338171
0.0038706449
0.0044665155
0.005130686
0.0058648505
0.0066676976
0.0075329863
0.0084504459
0.0093715865
0.010151022
0.010574777
0.010663635
0.01021596
0.0090884918
0.0071255428
0.0042576909
0.0005114047
-0.0039402911
-0.0087896952
-0.013630004
-0.018025586
-0.021597463
-0.024086546
-0.025387503
-0.025541968
-0.024704245
-0.023094106
-0.020951229
-0.018501314
-0.015935571
-0.013403103
-0.011008106
-0.0088180733
-0.0068724173
-0.0051925579
-0.0038003724
-0.0026681607
-0.0018715936
-0.0012507233
0.0033430859
0.0028638116
0.0024389944
0.0020647925
0.0017346773
0.0014431308
0.0011843305
0.00095332732
0.0007454793
0.00055655107
0.00038545842
0.00021986872
9.09629e-05
0.003881487
0.0044854582
0.0051604559
0.0059098865
0.0067333386
0.0076274787
0.0085810806
0.0095762928
0.010541996
0.011301454
0.011594204
0.011445878
0.010618649
0.0089663233
0.0063443152
0.0027318903
-0.0017677489
-0.0068851301
-0.012219383
-0.017299827
-0.021671254
-0.02498289
-0.027038781
-0.027811661
-0.027417006
-0.026065729
-0.024012203
-0.021510943
-0.018788386
-0.016027171
-0.01336166
-0.010879318
-0.0086354111
-0.0066629116
-0.0049773923
-0.0035865661
-0.0024547109
-0.0016449644
-0.001019414
0.0038880406
0.003343085
0.0028600956
0.0024343236
0.0020598589
0.0017298009
0.001438288
0.0011796534
0.00094883626
0.00074141141
0.0005528568
0.00038154412
0.00021663384
8.9221958e-05
0.0044997084
0.0051853041
0.0059492975
0.0067929596
0.0077143994
0.0087064422
0.0097502687
0.010816223
0.011802387
0.012497242
0.012586546
0.012104083
0.01077611
0.0084664518
0.0050601994
0.00060962862
-0.0046831708
-0.010440526
-0.016171611
-0.021360582
-0.025559779
-0.028473034
-0.029986109
-0.030157617
-0.029175105
-0.027298456
-0.024807757
-0.02196514
-0.018991723
-0.016055327
-0.013271565
-0.010713291
-0.0084294975
-0.0064455679
-0.00476095
-0.0033662606
-0.0022152115
-0.0014034885
-0.00077936567
0.0045083761
0.0038880396
0.0033381682
0.0028538987
0.0024279713
0.0020536589
0.0017238866
0.0014325712
0.0011742114
0.00094374791
0.00073668449
0.00054716743
0.00037577059
0.00021294659
8.7200159e-05
0.0052040297
0.0059821896
0.0068454277
0.0077934779
0.0088218545
0.0099170352
0.011048801
0.012170752
0.013139115
0.013705281
0.013494539
0.012555217
0.01058181
0.0074679443
0.0031528711
-0.0022108223
-0.0083020139
-0.014630873
-0.020630073
-0.02576615
-0.029630384
-0.032006703
-0.032876784
-0.032387305
-0.030791449
-0.02838853
-0.025475766
-0.022315214
-0.01911429
-0.016020074
-0.013131878
-0.010515555
-0.0082128129
-0.0062266641
-0.0045338301
-0.003102724
-0.001960498
-0.0011520385
-0.00053080777
0.0052154687
0.004508375
0.0038814839
0.0033300168
0.0028455303
0.0024200955
0.0020462196
0.0017169428
0.0014259523
0.0011680943
0.00093779671
0.00072909121
0.00053870236
0.00036915055
0.00020868774
8.4895653e-05
0.0060069357
0.0068893439
0.0078633528
0.008926834
0.010070624
0.011271279
0.012482551
0.013634629
0.014526958
0.014874373
0.014237695
0.012690237
0.0099046636
0.0058318501
0.00049526989
-0.0058246513
-0.012673513
-0.019456549
-0.025554825
-0.030452182
-0.033811715
-0.035519316
-0.035660429
-0.034465885
-0.032244968
-0.029326674
-0.026015858
-0.022563559
-0.019155236
-0.015919678
-0.012949583
-0.010303085
-0.007993962
-0.0059912927
-0.0042403061
-0.0028218807
-0.0016944255
-0.00089128602
-0.00027382426
0.006022055
0.0052154675
0.0044997049
0.0038706401
0.0033190983
0.0028352649
0.002410766
0.0020375725
0.0017089435
0.0014185668
0.001160907
0.0009279238
0.00071750317
0.00052902226
0.00036151615
0.00020378361
8.2293026e-05
0.0069222833
0.0079220375
0.0090197444
0.010210223
0.01147622
0.012780117
0.01405348
0.015193685
0.015923838
0.015929249
0.014706652
0.012370457
0.0085887812
0.0034052417
-0.003038666
-0.010311352
-0.017821179
-0.024889432
-0.030881555
-0.035338219
-0.038025279
-0.038945896
-0.038289555
-0.036362738
-0.033520319
-0.030109627
-0.02642925
-0.022707908
-0.019111377
-0.015762782
-0.012747232
-0.010087361
-0.0077509556
-0.0056576028
-0.0039265354
-0.0025277976
-0.0014187122
-0.00062133397
-8.6556466e-06
0.0069423113
0.0060220541
0.0052040263
0.0044854528
0.0038561422
0.0033057878
0.0028232045
0.0024000311
0.002027708
0.001700108
0.0014098355
0.0011485154
0.0009125733
0.00070426332
0.00051785735
0.00035275584
0.0001981461
7.9371701e-05
0.007965967
0.0090979177
0.01033374
0.011662309
0.013054319
0.01445215
0.015756926
0.016820075
0.017264524
0.016763637
0.014757808
0.011425297
0.006456065
2.8705619e-05
-0.0075635419
-0.015724462
-0.023735657
-0.030870242
-0.03652294
-0.040331431
-0.04218928
-0.042223364
-0.040721134
-0.03805417
-0.03460986
-0.030736522
-0.026711496
-0.022743126
-0.018993403
-0.015578766
-0.012539909
-0.0098373381
-0.0073677651
-0.0052994408
-0.0035971644
-0.002224087
-0.0011331352
-0.000342498
0.00026452218
0.0079924877
0.006942311
0.0060069334
0.0051852986
0.0044665081
0.0038386624
0.003290212
0.0028094296
0.0023878547
0.0020169325
0.0016895959
0.0013943443
0.0011287309
0.00089510238
0.00068899452
0.00050504794
0.00034272848
0.00019168556
7.6104741e-05
0.0091563283
0.010437623
0.01182685
0.013303032
0.014819925
0.016291469
0.017577468
0.018466234
0.018452939
0.017232857
0.014208854
0.0096528354
0.0033128848
-0.0044523859
-0.013169874
-0.022081256
-0.030369355
-0.037308451
-0.042372305
-0.045331277
-0.046221861
-0.045292898
-0.042920245
-0.039526168
-0.035509398
-0.031199794
-0.026854676
-0.022682126
-0.018839136
-0.015387112
-0.012285074
-0.009392787
-0.0069545
-0.0049226252
-0.0032584138
-0.0019099613
-0.00083817341
-5.5088499e-05
0.00054540941
0.0091913013
0.0079924896
0.0069222834
0.0059821865
0.0051604485
0.0044437719
0.0038184839
0.0032725881
0.0027940029
0.0023746431
0.0020040864
0.0016704368
0.0013690817
0.0011062705
0.0008749748
0.00067148796
0.00049038964
0.00033128572
0.00018430805
7.2460155e-05
0.010515042
0.011964955
0.013522865
0.015153184
0.016785668
0.018294074
0.019483593
0.020057261
0.019353303
0.017146482
0.012836646
0.0068247792
-0.0010383901
-0.010173047
-0.01991029
-0.029353818
-0.037634042
-0.044085303
-0.048308959
-0.050233849
-0.050044502
-0.048104816
-0.044863938
-0.040769535
-0.036206873
-0.031487702
-0.026874265
-0.022572988
-0.018673461
-0.015130883
-0.011765914
-0.0089110348
-0.0065186235
-0.0045371059
-0.0029087686
-0.0015861057
-0.00053414424
0.00024050193
0.00083376537
0.010560993
0.0091913062
0.007965973
0.0068893453
0.0059492937
0.0051306771
0.0044176391
0.0037959159
0.0032530321
0.0027774736
0.0023588294
0.0019803107
0.0016384918
0.0013405389
0.0010804058
0.00085193265
0.00065146824
0.00047366992
0.00031826879
0.00017591728
6.84017e-05
0.012067432
0.013707005
0.015447668
0.017233308
0.018958825
0.020443161
0.021420417
0.021481526
0.019780504
0.016262978
0.010379807
0.0026972101
-0.0067828027
-0.01723106
-0.02778626
-0.037463297
-0.045402378
-0.051059458
-0.054203703
-0.054936543
-0.053588498
-0.05062395
-0.046535801
-0.041765911
-0.036685208
-0.031618109
-0.026830624
-0.022447151
-0.018421258
-0.014521493
-0.011200562
-0.0084014894
-0.0060752153
-0.0041403193
-0.0025491027
-0.0012528424
-0.00022159456
0.00054385367
0.001129277
0.012127652
0.010561004
0.0091563423
0.0079220464
0.0068454303
0.0059098818
0.0050965561
0.0043885324
0.0037710596
0.0032322625
0.0027577982
0.0023292481
0.0019400328
0.0016025479
0.0013077052
0.0010508342
0.0008256193
0.00062865369
0.00045466097
0.00030351308
0.00016641547
6.3890471e-05
0.013842864
0.015694013
0.017628695
0.019561356
0.021337253
0.022702435
0.023300379
0.022579376
0.019491581
0.014288962
0.0065479534
-0.0029721508
-0.014071583
-0.025668416
-0.036737822
-0.046278903
-0.05351323
-0.058073599
-0.059925034
-0.059346571
-0.056802361
-0.05282379
-0.047908816
-0.04249093
-0.036964583
-0.031666284
-0.02676315
-0.022206802
-0.017703435
-0.013854827
-0.010600665
-0.0078863057
-0.0056201892
-0.0037334135
-0.0021797702
-0.00091083711
9.8971611e-05
0.00085455618
0.0014316549
0.013921728
0.012127669
0.010515069
0.0090979388
0.007863366
0.0067929626
0.005864845
0.0050586916
0.0043565793
0.0037448396
0.0032076586
0.0027209431
0.0022785827
0.0018949395
0.0015612396
0.0012702326
0.0010171068
0.00079567952
0.00060274384
0.00043312819
0.00028685002
0.00015570591
5.8886328e-05
0.015874653
0.017959182
0.020093379
0.022149292
0.023903505
0.025007131
0.02499138
0.023131151
0.01818106
0.010885341
0.0010389343
-0.010399764
-0.022998056
-0.035455155
-0.046638747
-0.055621957
-0.061779024
-0.064962363
-0.065350159
-0.063391037
-0.05964579
-0.054665664
-0.048948737
-0.042966818
-0.037138222
-0.031681304
-0.026545675
-0.021359381
-0.016914762
-0.013144792
-0.0099979168
-0.0073592642
-0.0051550715
-0.0033166992
-0.001801554
-0.00056071506
0.00042709625
0.0011724365
0.0017404035
0.015977996
0.013921752
0.012067476
0.010437661
0.0090197712
0.0077934931
0.0067333417
0.0058150983
0.0050172498
0.0043230239
0.0037138967
0.0031615455
0.0026575077
0.0022221299
0.0018431924
0.001514184
0.0012275641
0.00097878913
0.00076173554
0.00057343302
0.00040883302
0.0002681123
0.00014369469
5.3351088e-05
0.018200056
0.020537809
0.022866452
0.024998106
0.026616261
0.027252063
0.026302655
0.022847003
0.015482777
0.0056826856
-0.0064342444
-0.019746092
-0.033574726
-0.046479219
-0.057297957
-0.065273351
-0.069995459
-0.07156638
-0.07037856
-0.067011137
-0.062064664
-0.056102194
-0.049679207
-0.043308007
-0.037266785
-0.031501684
-0.025544037
-0.020424684
-0.016071258
-0.01243586
-0.0093831956
-0.0068223564
-0.0046800929
-0.0028910503
-0.0014152245
-0.00020288158
0.00076286636
0.0014968534
0.0020551851
0.018335669
0.01597802
0.013842922
0.011965009
0.010333782
0.0089268638
0.0077144161
0.0066677013
0.0057608516
0.0049738542
0.0042834868
0.0036561057
0.0030821181
0.0025871351
0.0021575019
0.0017843919
0.0014607044
0.0011791855
0.00093542054
0.00072340893
0.0005404138
0.00038154165
0.00024713947
0.00013029582
4.7259397e-05
0.020859745
0.023465434
0.025965693
0.028090141
0.029398549
0.029276506
0.026970132
0.021361779
0.010981022
-0.0016909183
-0.016106572
-0.031083846
-0.045716556
-0.058543656
-0.068465963
-0.074984866
-0.077959114
-0.077750202
-0.074927085
-0.07013243
-0.063994308
-0.057157451
-0.050239936
-0.043589318
-0.037144979
-0.030317375
-0.024435404
-0.019420263
-0.015234321
-0.011714982
-0.0087590949
-0.006275624
-0.004196295
-0.002457308
-0.0010210816
0.00016328821
0.001105015
0.001827236
0.002375599
0.021038023
0.018335675
0.015874705
0.013707065
0.011826901
0.010210265
0.008821885
0.0076274939
0.0065962597
0.0057042084
0.0049228319
0.0042106705
0.003556917
0.0029942776
0.0025067145
0.0020843095
0.0017177337
0.0014002066
0.0011245533
0.00088654902
0.00068032334
0.00050338947
0.00035103319
0.00022378656
0.00011543689
4.0594122e-05
0.023896504
0.026774313
0.029395216
0.031377598
0.032121781
0.030846597
0.02664503
0.01823693
0.0042355188
-0.01156744
-0.028119493
-0.044371866
-0.059232157
-0.071370403
-0.079847137
-0.084500973
-0.085490705
-0.083399059
-0.078895062
-0.072667716
-0.065457543
-0.05800072
-0.05072287
-0.043551355
-0.035745233
-0.029002609
-0.023237805
-0.018429801
-0.014385641
-0.010985533
-0.0081253423
-0.0057202805
-0.0037045652
-0.0020155985
-0.00061779802
0.00053595166
0.0014528524
0.0021629718
0.0027012694
0.024131304
0.021037987
0.018200058
0.015694049
0.013522909
0.011662353
0.010070663
0.0087064715
0.0075330018
0.0065217685
0.005637678
0.0048309972
0.0040867667
0.0034476296
0.0028941892
0.0024158505
0.0020016033
0.0016425456
0.0013320629
0.0010631455
0.00083173183
0.00063212318
0.00046208489
0.00031711263
0.00019793409
9.9064901e-05
3.3331835e-05
0.027352187
0.030487439
0.033134718
0.034766282
0.034585522
0.031638592