/*--------------------------------*- C++ -*----------------------------------*\
| =========                 |                                                 |
| \\      /  F ield         | OpenFOAM: The Open Source CFD Toolbox           |
|  \\    /   O peration     | Version:  5.0                                   |
|   \\  /    A nd           | Web:      www.OpenFOAM.org                      |
|    \\/     M anipulation  |                                                 |
\*---------------------------------------------------------------------------*/
FoamFile
{
    version     2.0;
    format      ascii;
    class       volScalarField;
    location    "20";
    object      pPrime2Mean;
}
// * * * * * * * * * * * * * * * * * * * * * * * * * * * * * * * * * * * * * //

dimensions      [0 4 -4 0 0 0 0];

internalField   nonuniform List<scalar> 
9200
(
3.2878746e-07
3.0281248e-07
2.9405577e-06
2.5923925e-07
2.7089072e-06
8.2297174e-06
2.0667987e-07
2.3193315e-06
7.5839806e-06
1.6491517e-05
1.5273312e-07
1.8494926e-06
6.4968768e-06
1.520463e-05
2.8254804e-05
1.0328548e-07
1.3673137e-06
5.184973e-06
1.3035708e-05
2.6065269e-05
4.4246264e-05
6.2048647e-08
9.2490818e-07
3.837446e-06
1.0415701e-05
2.2370571e-05
4.084657e-05
6.5385832e-05
3.1113383e-08
5.5599902e-07
2.599439e-06
7.7209178e-06
1.7901592e-05
3.5101972e-05
6.0412062e-05
9.2784141e-05
1.1024275e-08
2.7899876e-07
1.5657534e-06
5.2407619e-06
1.329686e-05
2.8142085e-05
5.1994869e-05
8.5807775e-05
0.00012773685
1.3244293e-09
9.9011513e-08
7.8812317e-07
3.1657916e-06
9.0493968e-06
2.0954974e-05
4.1777151e-05
7.3981534e-05
0.0001182586
0.00017171999
8.6643833e-10
1.1944444e-08
2.8149547e-07
1.6006655e-06
5.4865507e-06
1.4307535e-05
3.1198394e-05
5.9593434e-05
0.00010216121
0.0001591663
0.00022638075
8.1459446e-09
7.5936071e-09
3.4918661e-08
5.7702715e-07
2.7900291e-06
8.7135673e-06
2.1382856e-05
4.4652337e-05
8.2527194e-05
0.0001378023
0.00021010288
0.00029351952
2.153218e-08
7.2520503e-08
2.028223e-08
7.4465965e-08
1.0176393e-06
4.4622843e-06
1.3091417e-05
3.0738591e-05
6.206975e-05
0.00011167131
0.00018234006
0.00027279663
0.00037507169
3.9436386e-08
1.9215304e-07
2.0026582e-07
3.7946224e-08
1.3784595e-07
1.6509495e-06
6.7594923e-06
1.8933731e-05
4.2940622e-05
8.4342289e-05
0.0001482776
0.00023736913
0.00034911694
0.00047307369
6.0415514e-08
3.5227962e-07
5.3424726e-07
3.9355585e-07
5.9224326e-08
2.3682425e-07
2.5424101e-06
9.8683947e-06
2.6630524e-05
5.8671002e-05
0.00011250691
0.00019375693
0.00030463391
0.00044104533
0.00058963428
8.3227179e-08
5.3998321e-07
9.8249186e-07
1.0603539e-06
6.5711071e-07
8.2309157e-08
3.8865569e-07
3.7816642e-06
1.402679e-05
3.6662271e-05
7.8737446e-05
0.00014775296
0.00024967617
0.0003860074
0.00055064979
0.00072688648
1.0685047e-07
7.4413557e-07
1.5087923e-06
1.9588209e-06
1.7938873e-06
9.9607105e-07
1.0472672e-07
6.1954117e-07
5.4871481e-06
1.9536289e-05
4.9610649e-05
0.00010408583
0.00019142581
0.00031774699
0.00048347195
0.00068004135
0.00088694973
1.3048052e-07
9.5557593e-07
2.0818867e-06
3.0162354e-06
3.3335778e-06
2.7647364e-06
1.4148334e-06
1.2377604e-07
9.6703447e-07
7.8159549e-06
2.6772525e-05
6.6174046e-05
0.00013580937
0.00024502572
0.00039981444
0.00059908345
0.00083133876
0.0010718747
1.5350848e-07
1.1670769e-06
2.6759884e-06
4.1696101e-06
5.1512486e-06
5.1759591e-06
4.0075553e-06
1.9147632e-06
1.367409e-07
1.4860232e-06
1.0972027e-05
3.6201018e-05
8.7180331e-05
0.00017515649
0.00031020539
0.00049783191
0.00073494188
0.0010066163
0.0012836003
1.7549753e-07
1.3731816e-06
3.2707115e-06
5.3668354e-06
7.1382459e-06
8.0334999e-06
7.5702714e-06
5.5573466e-06
2.4925688e-06
1.4262895e-07
2.2538587e-06
1.5219875e-05
4.8391125e-05
0.0001136013
0.00022353666
0.00038875684
0.00061383954
0.0008931447
0.0012078626
0.0015238995
1.9615548e-07
1.5699736e-06
3.850631e-06
6.5665987e-06
9.2043386e-06
1.1165821e-05
1.1812053e-05
1.0610163e-05
7.4466314e-06
3.138038e-06
1.4379138e-07
3.3799825e-06
2.0897271e-05
6.4033885e-05
0.00014656527
0.00028251949
0.00048259984
0.00074992653
0.0010757491
0.0014369265
0.0017943407
2.1530591e-07
1.7548242e-06
4.4046501e-06
7.7375484e-06
1.1277726e-05
1.4429799e-05
1.6477046e-05
1.6659083e-05
1.4395413e-05
9.6998881e-06
3.8323103e-06
1.5024932e-07
5.0153166e-06
2.8433054e-05
8.3958686e-05
0.00018736671
0.00035383383
0.00059375572
0.00090819931
0.0012847201
0.0016954771
0.0020962407
2.3286255e-07
1.9261442e-06
4.9252977e-06
8.857055e-06
1.3303709e-05
1.7711028e-05
2.135059e-05
2.3337319e-05
2.2767221e-05
1.9024071e-05
1.2329197e-05
4.5465004e-06
1.8442997e-07
7.3668287e-06
3.8364691e-05
0.00010915057
0.0002374755
0.00043935496
0.00072432454
0.0010907349
0.0015218905
0.0019849569
0.002430635
2.4880717e-07
2.0831564e-06
5.4080351e-06
9.9098171e-06
1.5242633e-05
2.0921941e-05
2.626016e-05
3.0335129e-05
3.205155e-05
3.0340502e-05
2.4586624e-05
1.5327491e-05
5.2412713e-06
2.8997691e-07
1.0712793e-05
5.1359237e-05
0.0001407674
0.0002985377
0.00054109326
0.00087644683
0.0012995421
0.0017889108
0.0023065484
0.0027982452
2.6317089e-07
2.2256978e-06
5.8506188e-06
1.0886477e-05
1.706753e-05
2.3998721e-05
3.1072969e-05
3.740202e-05
4.1814068e-05
4.295508e-05
3.9588479e-05
3.1154811e-05
1.8663291e-05
5.8683381e-06
5.4198223e-07
1.5423035e-05
6.8235086e-05
0.00018015267
0.00037237688
0.00066116786
0.0010522703
0.0015365117
0.0020872123
0.0026611367
0.0031994657
2.7601901e-07
2.3540535e-06
6.2525442e-06
1.178234e-05
1.8761764e-05
2.6897682e-05
3.5691638e-05
4.4343957e-05
5.1700998e-05
5.6272263e-05
5.640918e-05
5.0711987e-05
3.8772517e-05
2.2274448e-05
6.3737871e-06
1.0624638e-06
2.1981133e-05
8.9983324e-05
0.00022884896
0.00046098253
0.00080178272
0.0012539026
0.0018033744
0.0024179655
0.003049292
0.0036343516
2.8743901e-07
2.4688209e-06
6.614576e-06
1.2596255e-05
2.031683e-05
2.9591595e-05
4.0048974e-05
5.1017634e-05
6.1436294e-05
6.9803035e-05
7.4246977e-05
7.2785482e-05
6.3891635e-05
4.7442389e-05
2.6063673e-05
6.7056166e-06
2.0387468e-06
3.1009486e-05
0.00011779073
0.00028860165
0.00056649893
0.00096518725
0.0014833697
0.0021016552
0.0027820529
0.0034712523
0.0041026194
2.9753134e-07
2.5708023e-06
6.9383669e-06
1.3329661e-05
2.1730421e-05
3.2066238e-05
4.4102604e-05
5.7323291e-05
7.0814444e-05
8.3162702e-05
9.2437578e-05
9.6312873e-05
9.245372e-05
7.9268866e-05
5.7113712e-05
2.9896266e-05
6.8246006e-06
3.7469148e-06
4.3297579e-05
0.00015305727
0.00036136292
0.00069119868
0.0011536391
0.0017425657
0.0024326373
0.0031800411
0.0039269186
0.0046036536
3.0640152e-07
2.6609226e-06
7.2261516e-06
1.3985816e-05
2.3004785e-05
3.4317344e-05
4.7829863e-05
6.3197186e-05
7.9690982e-05
9.6062307e-05
0.00011045367
0.00012040502
0.00012307067
0.00011575945
9.6927218e-05
6.7669866e-05
3.3600859e-05
6.7210748e-06
6.5799191e-06
5.9829224e-05
0.00019741479
0.00044928185
0.00083745556
0.0013693556
0.0020332101
0.0027973241
0.0036121694
0.0044158571
0.0051365203
3.1415699e-07
2.7401635e-06
7.4805139e-06
1.4569174e-05
2.4145377e-05
3.6347991e-05
5.122325e-05
6.8604351e-05
8.7972303e-05
0.00010829653
0.00012789532
0.00014434905
0.00015456791
0.00015512406
0.00014300052
0.00011687033
7.8917801e-05
3.6975522e-05
6.4373275e-06
1.1078781e-05
8.1813053e-05
0.00025273522
0.00055469262
0.0010077036
0.0016144677
0.0023568001
0.0031964138
0.0040783411
0.0049373084
0.0056999936
3.1874679e-07
2.8095317e-06
7.7041981e-06
1.5084912e-05
2.5159774e-05
3.8166458e-05
5.4286504e-05
7.353208e-05
9.5605697e-05
0.00011973034
0.00014447509
0.00016759858
0.00018599344
0.0001958295
0.00019305379
0.00017439734
0.00013900059
9.0580917e-05
3.9799634e-05
6.096035e-06
1.7969422e-05
0.00011070713
0.00032113738
0.00068008797
0.0012043952
0.0018909665
0.0027145734
0.0036302778
0.0045781244
0.0054902075
0.0062925885
3.223799e-07
2.8551868e-06
7.9000144e-06
1.5538542e-05
2.6056853e-05
3.9784487e-05
5.7031386e-05
7.7984256e-05
0.0001025703
0.00013028561
0.00016000092
0.00018975604
0.00021660923
0.00023661839
0.00024510837
0.00023738249
0.00021006273
0.00016309789
0.00010229715
4.185301e-05
5.9364734e-06
2.8198929e-05
0.00014824432
0.00040498004
0.00082808872
0.0014299476
0.002200656
0.0031074719
0.0040989499
0.0051107623
0.0060732081
0.006912591
3.255443e-07
2.884732e-06
8.0291009e-06
1.5935748e-05
2.6846095e-05
4.1215976e-05
5.9475025e-05
8.1976701e-05
0.00010886911
0.0001399289
0.00017435866
0.00021055145
0.00024587117
0.00027650392
0.00029752066
0.0003033001
0.00028853885
0.00024996708
0.00018880256
0.00011362341
4.2944178e-05
6.3550801e-06
4.2975852e-05
0.00019644736
0.00050685005
0.001001399
0.0016866907
0.0025451031
0.0035361146
0.004602123
0.0056751889
0.0066847093
0.0075580692
3.2826341e-07
2.9105327e-06
8.1067561e-06
1.619328e-05
2.7537329e-05
4.2475825e-05
6.1637957e-05
8.5533284e-05
0.00011452247
0.00014866048
0.00018749581
0.00022982
0.00027340343
0.0003147485
0.00034898369
0.00037002311
0.00037123989
0.00034681132
0.00029390688
0.00021560168
0.00012404947
4.2946637e-05
7.9537566e-06
6.3805474e-05
0.00025764017
0.00062953494
0.0012027576
0.0019768086
0.0029255944
0.0040007781
0.0051391538
0.0062700512
0.0073228832
0.008226891
3.3055862e-07
2.9327699e-06
8.1748506e-06
1.6337725e-05
2.7973971e-05
4.3579632e-05
6.3542283e-05
8.8683101e-05
0.00011956247
0.00015650531
0.00019940674
0.00024748089
0.0002989703
0.00035083366
0.00039850625
0.00043583639
0.00045544
0.00044964792
0.00041230435
0.00034147175
0.00024282402
0.00013302166
4.1846032e-05
1.1589304e-05
9.2524718e-05
0.00033444486
0.00077598783
0.0014348785
0.0023022828
0.0033430984
0.0045013847
0.0057090744
0.0068937379
0.0079857101
0.0089168288
3.324511e-07
2.9516098e-06
8.2337627e-06
1.6464914e-05
2.819932e-05
4.4255159e-05
6.5211412e-05
9.1457648e-05
0.00012402901
0.00016350526
0.00021012063
0.00026351781
0.00032244925
0.00038442555
0.00044537897
0.00049941928
0.00053890843
0.00055501806
0.00053907661
0.00048488757
0.00039201806
0.00026964439
0.00013997913
3.9794395e-05
1.8427487e-05
0.00013132694
0.00042977002
0.000949278
0.0017003878
0.0026648372
0.0037982351
0.0050374998
0.0063106131
0.007544412
0.008671029
0.0096256154
3.3396013e-07
2.967209e-06
8.2838606e-06
1.6575358e-05
2.8398659e-05
4.457002e-05
6.6196772e-05
9.3890817e-05
0.00012796561
0.00016971361
0.00021969063
0.0002779624
0.00034380528
0.00041534106
0.00048913301
0.00055980921
0.00061990018
0.00066004653
0.00066987874
0.00063984546
0.00056414801
0.00044465009
0.00029510069
0.00014440202
3.7174325e-05
2.99934e-05
0.00018277993
0.00054678267
0.0011525323
0.0020017572
0.0030658885
0.0042912546
0.0056083404
0.0069422209
0.0082200466
0.0093765772
0.010350923
3.3510164e-07
2.9797051e-06
8.3254958e-06
1.6669625e-05
2.857245e-05
4.4849955e-05
6.6601033e-05
9.5272623e-05
0.00013141992
0.00017518896
0.00022818627
0.00029087957
0.00036306967
0.00044351496
0.00052949846
0.00061635367
0.00069711971
0.000762447
0.00080103883
0.00080094364
0.00075197405
0.00064934729
0.00049821182
0.00031812521
0.00014587359
3.4667009e-05
4.8220168e-05
0.00024982909
0.00068886747
0.0013888667
0.0023412375
0.0035065024
0.0048220257
0.0062127893
0.0076021015
0.0089184615
0.010100017
0.011090389
3.3588746e-07
2.9892094e-06
8.3589686e-06
1.6748255e-05
2.8721384e-05
4.5095064e-05
6.6962787e-05
9.5755305e-05
0.00013330339
0.00017999693
0.00023568487
0.00030235804
0.00038032018
0.00046897244
0.00056636258
0.00066866003
0.00076966684
0.00086048993
0.00092958711
0.00096353678
0.00094885234
0.00087511701
0.00073938533
0.00055129298
0.00033759212
0.00014415326
3.3325632e-05
7.548787e-05
0.00033578714
0.00085957036
0.0016613114
0.0027207936
0.0039873595
0.005390034
0.0068494171
0.0082882463
0.0096373598
0.010838968
0.011841641
3.3632526e-07
2.9958069e-06
8.3845294e-06
1.6811724e-05
2.8846132e-05
4.530605e-05
6.7281279e-05
9.6191072e-05
0.00013383758
0.00018251189
0.00024227472
0.00031249817
0.0003956683
0.00049180272
0.00059973503
0.00071654342
0.00083697776
0.00095294428
0.0010532341
0.0011238013
0.0011489632
0.0011138788
0.0010085005
0.00083277633
0.00060225102
0.00035238041
0.0001392623
3.4647122e-05
0.00011465259
0.00044430546
0.0010625293
0.0019727316
0.0031420463
0.0045087309
0.0059943899
0.0075165116
0.0089984714
0.010374363
0.011591038
0.012602316
2.9995526e-06
3.3632461e-07
8.4023723e-06
1.686043e-05
2.8947304e-05
4.5483642e-05
6.7556974e-05
9.6577577e-05
0.00013432633
0.0001830506
0.00024558177
0.00032141716
0.00040924101
0.00051214218
0.00062971271
0.00075998322
0.00089876093
0.0010390101
0.0011703118
0.0012787328
0.0013474287
0.0013584151
0.0012958448
0.0011508668
0.00092763816
0.00064924979
0.00036145522
0.00013157716
4.0641728e-05
0.00016905881
0.0005793278
0.0013013921
0.0023257472
0.0036062211
0.005070465
0.0066338457
0.0082121111
0.0097304552
0.011127049
0.012353851
0.013370118
8.4126231e-06
2.9995531e-06
3.3588548e-07
1.689467e-05
2.9025407e-05
4.5628492e-05
6.7790495e-05
9.6914699e-05
0.00013476469
0.00018355502
0.00024605139
0.00032571491
0.0004211901
0.00053014915
0.00065645934
0.00079907702
0.00095494348
0.0011182412
0.0012796986
0.0014260918
0.0015403413
0.0016025611
0.0015925601
0.0014940353
0.0013004296
0.0010216963
0.00069031913
0.00036396482
0.00012193103
5.3893033e-05
0.00024253367
0.00074502394
0.0015797257
0.0027226554
0.0041141075
0.0056719855
0.0073068212
0.0089340421
0.010481777
0.01189298
0.013125073
0.014142847
1.6914639e-05
8.4126282e-06
2.9958083e-06
3.350983e-07
2.9080817e-05
4.5741145e-05
6.7982366e-05
9.7202695e-05
0.00013515128
0.00018401585
0.00024651191
0.00032600807
0.00042672771
0.00054601889
0.00068016978
0.00083401579
0.0010056113
0.0011904803
0.0013807282
0.0015643245
0.001724723
0.0018412815
0.0018909302
0.0018515279
0.001707122
0.0014548379
0.0011123078
0.00072343435
0.00035935574
0.00011171716
7.7605349e-05
0.00033935788
0.0009457057
0.0019009188
0.0031653594
0.0046660297
0.0063123012
0.0080114357
0.0096799589
0.011249952
0.012669737
0.013902439
0.014918401
2.9113782e-05
1.6914655e-05
8.4023871e-06
2.9892112e-06
3.3395538e-07
4.5822002e-05
6.8133059e-05
9.744175e-05
0.00013548555
0.00018442974
0.00024694726
0.00032633893
0.00042669528
0.00055310905
0.00070109283
0.00086503283
0.0010509797
0.0012557815
0.0014731128
0.0016924575
0.0018984461
0.0020706544
0.0021845274
0.0022137823
0.0021348087
0.0019330896
0.0016111568
0.0011965038
0.00074662015
0.00034750286
0.00010299141
0.00011563106
0.00046421235
0.0011857259
0.0022680829
0.0036553062
0.0052618323
0.0069900255
0.0087455458
0.010447384
0.012032469
0.013454941
0.014683769
0.015694783
4.5871325e-05
2.9113815e-05
1.6894717e-05
8.3845515e-06
2.9797064e-06
3.3244484e-07
6.8242909e-05
9.763202e-05
0.000135767
0.0001847945
0.00024735104
0.00032668082
0.00042677598
0.00055255227
0.00071013401
0.0008924417
0.0010913213
0.0013143775
0.001556844
0.0018100082
0.0020601151
0.0022878006
0.0024682378
0.002572671
0.0025717587
0.0024411479
0.0021691735
0.0017658612
0.0012710563
0.00075807959
0.00032885404
9.8565948e-05
0.0001724733
0.00062209831
0.0014693643
0.0026839566
0.0041934383
0.0059008773
0.0077034057
0.0095067865
0.011233748
0.012826823
0.014246284
0.015466978
0.016470114
6.8312117e-05
4.5871329e-05
2.9080915e-05
1.6860505e-05
8.3589942e-06
2.9672086e-06
3.3055077e-07
9.7773582e-05
0.00013599521
0.00018510834
0.00024771882
0.00032702248
0.00042692769
0.00055222214
0.00070880069
0.00090393908
0.0011270275
0.0013665768
0.0016321572
0.0019168606
0.0022089658
0.002490755
0.0027382096
0.0029215918
0.0030077933
0.0029647709
0.0027684496
0.0024118019
0.0019148443
0.0013325726
0.00075635202
0.00030458403
0.00010208741
0.00025325764
0.00081823183
0.0018007056
0.0031508174
0.0047801586
0.006582056
0.0084503599
0.010292615
0.012036431
0.013630541
0.015041541
0.016250099
0.017242638
9.786641e-05
6.8312133e-05
4.5822014e-05
2.9025563e-05
1.6811825e-05
8.3255202e-06
2.9516063e-06
3.2825388e-07
0.0001361697
0.00018536969
0.00024804677
0.00032735483
0.00042713209
0.00055205488
0.00070785719
0.00090151374
0.0011416323
0.0014128631
0.0016993875
0.0020132282
0.0023447105
0.0026783555
0.002991721
0.0032554502
0.0034344712
0.0034913312
0.0033918813
0.003113675
0.0026565376
0.0020534465
0.0013776255
0.00074050107
0.0002767524
0.00011808927
0.00036366872
0.0010579153
0.0021835146
0.0036704059
0.0054153122
0.0073038119
0.0092285203
0.011100358
0.012852795
0.01444121
0.015838592
0.017031284
0.018010728
0.00013629002
9.7866384e-05
6.8242955e-05
4.5741163e-05
2.8947511e-05
1.6748374e-05
8.283878e-06
2.9327618e-06
3.2553299e-07
0.00018557707
0.00024833139
0.00032767081
0.00042737378
0.00055202193
0.00070720959
0.00089970483
0.0011377353
0.001431417
0.001759126
0.0020994547
0.0024675029
0.0028500546
0.0032270615
0.0035705339
0.0038451276
0.0040101355
0.0040239507
0.0038511776
0.0034727253
0.0028980226
0.0021765139
0.0014029295
0.00071033333
0.00024845436
0.00015200895
0.00050984941
0.0013463907
0.0026211146
0.0042438639
0.0060981836
0.008064176
0.010035283
0.011927255
0.013680222
0.015256498
0.016635425
0.017808816
0.01877289
0.00018572913
0.00013629001
9.7773502e-05
6.8133131e-05
4.5628511e-05
2.8846376e-05
1.6669756e-05
8.2337669e-06
2.9105183e-06
3.2236675e-07
0.00024856933
0.00032796409
0.00042763971
0.00055209951
0.00070681429
0.00089837841
0.0011347598
0.0014256037
0.0017827226
0.0021762521
0.0025776651
0.0030058891
0.0034433054
0.0038643911
0.0042347709
0.0045125528
0.0046512291
0.0046054209
0.0043396187
0.0038403018
0.0031299289
0.0022785041
0.0014055743
0.00066664195
0.00022395094
0.00021015968
0.00069826356
0.0016886811
0.0031162745
0.0048716918
0.0068275119
0.0088608143
0.010867857
0.012770496
0.014516137
0.016074169
0.017430158
0.018581112
0.019527757
0.0002487578
0.00018572903
0.00013616967
9.7631877e-05
6.7982457e-05
4.5483658e-05
2.8721651e-05
1.6575493e-05
8.1748356e-06
2.8847098e-06
3.1873175e-07
0.00032822846
0.0004279195
0.00055226699
0.00070663494
0.00089746934
0.0011325205
0.0014211141
0.0017744908
0.0022063167
0.0026760441
0.0031461121
0.0036402925
0.0041355634
0.004599965
0.004991956
0.0052626406
0.0053596788
0.0052344595
0.0048528349
0.0042097336
0.0033449346
0.0023536642
0.0013833228
0.00061146301
0.00020876139
0.00029965088
0.00093552486
0.0020894247
0.0036711099
0.0055537275
0.0076015254
0.0096910787
0.011723313
0.013627257
0.015358033
0.016892109
0.018221046
0.019346722
0.020274094
0.00032845881
0.0002487577
0.00018557677
0.00013599513
9.744153e-05
6.7790595e-05
4.5306056e-05
2.8572725e-05
1.6465044e-05
8.1067157e-06
2.8551553e-06
3.1414005e-07
0.00042820304
0.00055250688
0.00070663995
0.00089692382
0.0011309231
0.0014176966
0.0017680988
0.0021951381
0.0027144496
0.0032717159
0.0038181384
0.0043835841
0.0049385222
0.0054436214
0.0058494836
0.0060998504
0.0061365802
0.0059085179
0.0053848494
0.0045727846
0.0035347634
0.0023963068
0.001334971
0.00054832376
0.00020970112
0.00042825179
0.0012281958
0.0025527127
0.0042870092
0.0062891529
0.0084179838
0.010552055
0.01259862
0.014494742
0.016203513
0.017708346
0.019006479
0.020104317
0.021046478
0.00042848172
0.00032845863
0.00024856904
0.00018536919
0.00013576687
9.7202379e-05
6.7557069e-05
4.5095053e-05
2.8398925e-05
1.633784e-05
8.0290297e-06
2.8094904e-06
3.063829e-07
0.00055280142
0.00070680257
0.0008966944
0.0011298895
0.0014152167
0.0017632147
0.0021864375
0.0026997557
0.0033209045
0.0039779849
0.0046083371
0.0052495247
0.0058643849
0.0064053657
0.0068146107
0.0070281524
0.0069820292
0.0066234476
0.0059277055
0.0049194716
0.0036903298
0.0024012051
0.0012607563
0.00048245736
0.00023484818
0.00060419534
0.0015825673
0.0030819469
0.0049645921
0.0070765139
0.0092742203
0.011440609
0.013490702
0.015370232
0.017050314
0.018521037
0.019784958
0.020884978
0.021861894
0.00055313725
0.00042848145
0.00032822794
0.00024833089
0.00018510764
0.00013548532
9.6914269e-05
6.7281355e-05
4.4849919e-05
2.8199561e-05
1.6193373e-05
7.8999103e-06
2.7401124e-06
2.9751121e-07
0.000707096
0.00089674052
0.0011293495
0.0014135638
0.00175965
0.0021797986
0.0026883666
0.0033022276
0.0040411454
0.0048111073
0.0055325007
0.0062526916
0.0069258374
0.0074954144
0.0078945327
0.0080509725
0.0078948159
0.0073729863
0.0064710146
0.0052379582
0.0038020499
0.0023641134
0.0011627868
0.00042095227
0.00029342053
0.00083592847
0.0020044413
0.0036797296
0.0057036861
0.0079137395
0.010167186
0.012353453
0.014396514
0.016251131
0.017896296
0.01932843
0.020585858
0.021706282
0.02269829
0.00070749965
0.00055313706
0.00042820223
0.00032796326
0.00024804606
0.0001847936
0.00013515094
9.6577011e-05
6.6962828e-05
4.4569951e-05
2.7974171e-05
1.5935811e-05
7.7040607e-06
2.6608607e-06
2.8741762e-07
0.00089702277
0.0011292418
0.0014126391
0.0017572481
0.0021749609
0.0026797262
0.0032878394
0.0040181564
0.0048923806
0.0057888588
0.0066075585
0.0074084689
0.0081361338
0.0087243924
0.0090964999
0.009171021
0.0088718631
0.0081480364
0.0070014839
0.0055146161
0.0038603606
0.002282401
0.0010454476
0.00037279757
0.00039555873
0.0011318363
0.0024989384
0.0043477712
0.0065033022
0.0087981732
0.011093535
0.013287257
0.015313102
0.01713494
0.018739376
0.020159879
0.021427121
0.022551918
0.023555359
0.00089751097
0.00070749908
0.00055280083
0.0004279182
0.00032766971
0.00024771789
0.00018442865
0.0001347642
9.6190353e-05
6.6601016e-05
4.4255047e-05
2.7537481e-05
1.553857e-05
7.480341e-06
2.5707291e-06
2.7599665e-07
0.0011295083
0.0014123514
0.0017558738
0.0021717043
0.0026734823
0.0032770422
0.0040006335
0.0048650176
0.0058935788
0.0069304812
0.0078515774
0.0087331542
0.0095094071
0.010103664
0.010427892
0.010389824
0.0099073078
0.0089357571
0.0075025473
0.0057343616
0.0038564768
0.0021557574
0.00091572186
0.00034879662
0.00055204038
0.0014999674
0.0030703106
0.0050867888
0.0073616302
0.0097266732
0.012049763
0.014238726
0.016237567
0.018019166
0.019610558
0.02103342
0.022296237
0.023421471
0.024432723
0.0011301055
0.00089751059
0.0007070943
0.00055250589
0.00042763796
0.00032735352
0.00024734988
0.00018401457
0.00013432566
9.5754417e-05
6.6196677e-05
4.3579477e-05
2.6846192e-05
1.5084898e-05
7.2259424e-06
2.4687362e-06
2.6314793e-07
0.0014126111
0.0017553953
0.0021698436
0.0026693285
0.0032693666
0.0039877141
0.0048445121
0.0058622109
0.007065428
0.0082566828
0.0092838722
0.010244357
0.011061229
0.011645757
0.011896019
0.011706763
0.01099117
0.0097185977
0.0079542734
0.0058813612
0.0037833679
0.0019868838
0.00078336591
0.00036136485
0.00077395649
0.0019477351
0.003721725
0.0058964349
0.0082761349
0.010695777
0.01303231
0.015204537
0.017166924
0.018938222
0.02052765
0.021938632
0.023192726
0.024314397
0.02532993
0.0014133552
0.0011301052
0.00089702164
0.00070679984
0.00055226561
0.00042737166
0.000327021
0.00024694586
0.00018355352
0.0001338367
9.5271555e-05
6.5211232e-05
4.2475631e-05
2.6056883e-05
1.4569113e-05
6.9381229e-06
2.3539581e-06
2.4878403e-07
0.0017556768
0.0021691942
0.0026670111
0.0032643896
0.0039787863
0.0048298186
0.005839342
0.0070310371
0.008430327
0.0097897241
0.010925456
0.011961773
0.012809455
0.013364633
0.013507359
0.013117437
0.012107677
0.010473499
0.0083337443
0.0059401514
0.003636866
0.0017820735
0.00066093262
0.00042423859
0.0010723103
0.002481549
0.0044550795
0.006775375
0.0092437673
0.011701835
0.014037464
0.016181156
0.018140926
0.019909317
0.02148064
0.022874996
0.024115915
0.02523003
0.026246457
0.001756625
0.0014133549
0.0011295074
0.00089673864
0.00070663636
0.00055209777
0.00042712966
0.0003266792
0.00024651026
0.00018304889
0.0001333023
9.3889588e-05
6.3542022e-05
4.1215738e-05
2.5159728e-05
1.3985703e-05
6.6143006e-06
2.2255932e-06
2.3283969e-07
0.0021695554
0.0026662733
0.0032617648
0.0039732673
0.004820153
0.0058237083
0.0070071064
0.0083946721
0.010012413
0.011553851
0.012799986
0.013908483
0.01477514
0.015275424
0.015265842
0.014611264
0.013233489
0.011171579
0.0086160633
0.0058971179
0.0034167765
0.0015516435
0.00056365511
0.00055202403
0.0014574676
0.0031064701
0.005271038
0.007721533
0.010261098
0.012740846
0.015061098
0.017215818
0.019175773
0.020921095
0.022469009
0.023841753
0.025064976
0.026167586
0.027181713
0.0021707887
0.0017566254
0.0014126101
0.0011292404
0.00089669182
0.00070663069
0.00055201984
0.000426925
0.0003263372
0.00024604951
0.00018250996
0.00013141862
9.1456296e-05
6.1637603e-05
3.9784198e-05
2.414525e-05
1.3329493e-05
6.2522433e-06
2.0830448e-06
2.152838e-07
0.0026668256
0.0032611298
0.003970688
0.0048147074
0.0058143426
0.0069920816
0.0083718885
0.0099780984
0.011837872
0.013576327
0.014935488
0.016112664
0.016983084
0.01739302
0.017169903
0.016168527
0.014336261
0.011778633
0.0087760251
0.0057421923
0.0031279152
0.0013102013
0.000509065
0.00075947009
0.0019386016
0.0038261679
0.0061693058
0.0087322084
0.011324064
0.013808112
0.016160316
0.018323306
0.020256823
0.021973067
0.023491945
0.024837952
0.026038918
0.027126163
0.028135037
0.0026684658
0.0021707893
0.0017556782
0.0014123498
0.0011293475
0.0008969206
0.00070680958
0.00055205245
0.00042677304
0.00032600622
0.00024557964
0.00017999481
0.00012796413
8.8681639e-05
5.947457e-05
3.8166112e-05
2.3004574e-05
1.2596032e-05
5.8503004e-06
1.9260288e-06
1.9613459e-07
0.0032620699
0.0039705342
0.0048128489
0.0058101125
0.0069848265
0.008360015
0.0099597979
0.011808166
0.013935853
0.015889506
0.017366919
0.018609296
0.01946119
0.019728886
0.019208269
0.017757375
0.015374102
0.012256644
0.0087903413
0.0054706713
0.0027810251
0.0010765348
0.00051614636
0.0010606713
0.0025235418
0.0046431949
0.0071486674
0.0098036685
0.012427492
0.014973212
0.017348125
0.019483482
0.021383656
0.023064413
0.024548424
0.025862448
0.027036593
0.028104745
0.029105705
0.0032642965
0.0026684669
0.0021695572
0.0017553973
0.001412637
0.0011298868
0.0008974655
0.00070720461
0.00055221937
0.00042669208
0.00032571292
0.00024227238
0.00017518668
0.00012402736
8.5531732e-05
5.7030824e-05
3.6347582e-05
2.1730129e-05
1.1782065e-05
5.4077085e-06
1.7547086e-06
1.7547831e-07
0.003972202
0.0048138489
0.005810148
0.0069837526
0.0083577672
0.0099548322
0.011798823
0.013914088
0.016340506
0.018534276
0.02013928
0.021440894
0.022237581
0.022285716
0.021355015
0.019331588
0.016296382
0.012566313
0.0086403341
0.0050850711
0.0023932224
0.00087278552
0.00060430376
0.0014687981
0.0032190356
0.005558903
0.0082063503
0.010930506
0.01365618
0.016247179
0.018596393
0.020696049
0.02255549
0.024194082
0.02563719
0.026913901
0.028056701
0.02910221
0.030092917
0.0039752805
0.0032642987
0.0026668289
0.0021691972
0.001755876
0.0014135611
0.0011309197
0.00089837398
0.00070785205
0.00055254915
0.00042672424
0.00032141506
0.00023568236
0.00016971117
0.00011956066
8.1975084e-05
5.4285834e-05
3.431687e-05
2.0316463e-05
1.0886158e-05
4.9249731e-06
1.5698616e-06
1.5349131e-07
0.0048168089
0.0058134195
0.0069876204
0.0083629357
0.0099619482
0.011805995
0.013918997
0.016328853
0.019094782
0.021564856
0.02331026
0.024655767
0.025334527
0.025050227
0.023564918
0.020829933
0.017046119
0.012670588
0.0083149963
0.0045964892
0.0019874225
0.00072326235
0.00079301559
0.001996348
0.0040304427
0.0065724162
0.0093371524
0.012215438
0.015019349
0.0175911
0.019905008
0.021960314
0.023771301
0.025360761
0.026756764
0.027990783
0.029097796
0.030117376
0.031095968
0.0048211351
0.0039752825
0.0032620762
0.0026662784
0.0021698474
0.0017572502
0.0014152137
0.0011325164
0.00089969981
0.00070879548
0.00055310558
0.00042118644
0.000312496
0.00022818362
0.00016350267
0.00011452053
7.7982604e-05
5.1222479e-05
3.2065696e-05
1.8761336e-05
9.9094652e-06
4.4043376e-06
1.3730768e-06
1.3046565e-07
0.0058185724
0.006994962
0.0083737037
0.0099780407
0.011828585
0.01394487
0.016353125
0.019092435
0.022256349
0.025054083
0.026950424
0.028301987
0.028759016
0.027985363
0.025770402
0.022177723
0.017564117
0.012539121
0.0078136626
0.0040246021
0.0015911812
0.00065415028
0.0011021313
0.0026544709
0.0049600838
0.0076794531
0.010664042
0.013666677
0.016464299
0.019005129
0.021273421
0.02327534
0.025029772
0.026562882
0.027905445
0.029091383
0.030158382
0.031149143
0.032113956
0.0058247306
0.0048211372
0.0039722073
0.0032611393
0.0026670174
0.0021717085
0.0017596516
0.0014176932
0.0011347549
0.00090150823
0.00071012879
0.0005460152
0.00040923727
0.00030235577
0.00021968785
0.0001565026
0.00010886707
7.3530427e-05
4.7829004e-05
2.9590991e-05
1.7067057e-05
8.8566849e-06
3.8503402e-06
1.1669824e-06
1.0683803e-07
0.0070037131
0.0083879373
0.010000383
0.011862349
0.013990905
0.016404928
0.019139051
0.022257695
0.025905264
0.029096932
0.031138102
0.03241593
0.03249123
0.031023667
0.027881232
0.02329108
0.017794882
0.012152611
0.0071469634
0.0033968222
0.0012367306
0.00069400971
0.0015506601
0.0034503952
0.0060056775
0.0090246478
0.012196128
0.015214707
0.017991552
0.020488907
0.022700846
0.024639862
0.026329302
0.027798619
0.029081311
0.030213959
0.031237022
0.03219618
0.033145942
0.0070125647
0.0058247314
0.0048168145
0.0039705415
0.0032617762
0.0026693354
0.0021749653
0.0017632156
0.0014211104
0.0011377297
0.0009039332
0.00070108771
0.00053014539
0.0003956645
0.00029087718
0.00021011778
0.00014865767
0.00010256818
6.8602727e-05
4.4101677e-05
2.6897026e-05
1.5242136e-05
7.7371773e-06
3.2704507e-06
9.5549421e-07
8.3217166e-08
0.008402438
0.010025824
0.011903112
0.014051537
0.016483853
0.019223005
0.022324736
0.025899507
0.030151427
0.033808192
0.03594644
0.037006264
0.036473131
0.03406377
0.029788158
0.024084266
0.01769297
0.011505105
0.0063366761
0.0027491393
0.0009620017
0.0008718233
0.0021528025
0.0043853548
0.0073331439
0.010621664
0.013844373
0.01686052
0.019600963
0.022041865
0.024186136
0.02605231
0.027668002
0.029065896
0.030282428
0.031356757
0.032332033
0.033257028
0.034190947
0.008415244
0.007012563
0.0058185743
0.0048138562
0.003970696
0.0032644019
0.0026734893
0.0021798028
0.0017680985
0.0014255997
0.0011416262
0.00089243562
0.00068016486
0.0005121384
0.00038031636
0.00027795986
0.00019940385
0.00013992605
9.5603553e-05
6.3195612e-05
4.0048007e-05
2.3998033e-05
1.3303211e-05
6.5662455e-06
2.6757648e-06
7.4406847e-07
6.0407835e-08
0.010049311
0.011946157
0.014120312
0.016582867
0.019344244
0.022443111
0.025977403
0.030126538
0.035137271
0.039309735
0.04142284
0.042036031
0.040599857
0.036972291
0.031371394
0.024478298
0.017226928
0.010604942
0.0054180571
0.0021282379
0.0008077552
0.0012110325
0.0029152733