/*--------------------------------*- C++ -*----------------------------------*\
| =========                 |                                                 |
| \\      /  F ield         | OpenFOAM: The Open Source CFD Toolbox           |
|  \\    /   O peration     | Version:  5.0                                   |
|   \\  /    A nd           | Web:      www.OpenFOAM.org                      |
|    \\/     M anipulation  |                                                 |
\*---------------------------------------------------------------------------*/
FoamFile
{
    version     2.0;
    format      ascii;
    class       volVectorField;
    location    "20";
    object      U;
}
// * * * * * * * * * * * * * * * * * * * * * * * * * * * * * * * * * * * * * //

dimensions      [0 1 -1 0 0 0 0];

internalField   nonuniform List<vector> 
9200
(
(1.00127 -0.00024805737 -1.1959062e-24)
(1.0012076 -0.00074036687 -1.7818947e-22)
(1.002 -0.00028954729 0)
(1.0011406 -0.0011453942 8.8466072e-23)
(1.001909 -0.00085667254 -1.6577338e-22)
(1.0023864 -0.00031491218 0)
(1.0010229 -0.0015390994 9.2469963e-24)
(1.0018071 -0.0013282749 -1.9812285e-23)
(1.0022822 -0.00093129583 0)
(1.0029981 -0.00035414028 0)
(1.0009018 -0.0018376895 -1.4884949e-22)
(1.0016364 -0.0017889575 -6.4133164e-23)
(1.0021632 -0.0014448104 -9.128437e-23)
(1.002875 -0.0010509133 -6.5175228e-24)
(1.0035341 -0.0003888629 1.9544082e-25)
(1.0007561 -0.0021088274 -1.3493368e-22)
(1.0014507 -0.0021399184 3.0522637e-23)
(1.0019659 -0.001949046 -2.7479536e-22)
(1.0027302 -0.0016315892 -9.1515491e-23)
(1.0033954 -0.0011608472 1.8083436e-23)
(1.0041964 -0.00043106989 3.5076295e-22)
(1.0006082 -0.0023080593 -8.126415e-23)
(1.0012332 -0.0024622971 -1.826662e-22)
(1.0017489 -0.0023349165 1.7010771e-22)
(1.0024944 -0.0022069478 4.9931295e-24)
(1.0032293 -0.00180269 -1.4354122e-22)
(1.0040426 -0.001299166 -1.3823042e-22)
(1.0048309 -0.00047030006 -1.3873098e-23)
(1.0004529 -0.0024677675 1.4850462e-23)
(1.0010051 -0.0027017146 -8.3740088e-23)
(1.001495 -0.0026913751 -1.4851387e-22)
(1.0022303 -0.0026511329 4.3007757e-23)
(1.0029614 -0.0024434349 2.7510681e-22)
(1.0038541 -0.0020184323 1.2286232e-22)
(1.0046634 -0.0014318544 2.6007302e-22)
(1.0055701 -0.00051426443 -4.1944162e-22)
(1.0002992 -0.0025758006 6.742288e-23)
(1.0007663 -0.0028970565 -1.4429274e-22)
(1.0012273 -0.0029589485 3.7294679e-23)
(1.0019218 -0.0030649498 -9.7623119e-23)
(1.0026584 -0.002941933 1.035353e-22)
(1.003552 -0.0027436117 5.0262567e-22)
(1.004455 -0.0022249905 -2.9346156e-22)
(1.0053909 -0.0015854652 4.7511386e-22)
(1.0062961 -0.0005548901 9.7107554e-22)
(1.000147 -0.0026451632 -1.9912301e-23)
(1.0005252 -0.0030328641 1.2330622e-22)
(1.0009461 -0.0031794923 -6.4991532e-24)
(1.0015933 -0.0033811707 -1.4052003e-22)
(1.0023047 -0.0034089304 1.7104216e-23)
(1.0032058 -0.0033140177 1.8652596e-22)
(1.0041238 -0.0030318747 -1.8634933e-22)
(1.0051635 -0.0024646483 -4.1246957e-22)
(1.0061078 -0.0017328676 -2.1674508e-22)
(1.0071089 -0.00059720625 -5.8021696e-23)
(0.99999921 -0.0026769537 1.0921716e-23)
(1.0002851 -0.0031243638 6.6373583e-23)
(1.0006612 -0.0033360753 -1.2233116e-22)
(1.0012465 -0.0036457151 7.9332922e-23)
(1.0019258 -0.0037710331 -3.3718185e-22)
(1.0028011 -0.0038525325 5.8681664e-22)
(1.0037404 -0.0036729521 6.6178732e-23)
(1.0048036 -0.0033681532 -7.6267149e-22)
(1.0058655 -0.0026946757 4.262389e-22)
(1.006914 -0.0018930332 -8.7702758e-22)
(1.0079155 -0.00063541006 1.8781602e-22)
(0.9998575 -0.0026779585 -1.0283906e-23)
(1.0000505 -0.0031719995 -9.9380571e-23)
(1.0003763 -0.0034448843 2.6267486e-23)
(1.0008925 -0.0038392799 0)
(1.001525 -0.0040773892 6.5727017e-24)
(1.002364 -0.0042782467 -1.8253128e-22)
(1.0032916 -0.004282135 1.3316422e-22)
(1.004382 -0.0040940586 3.7004681e-22)
(1.0054828 -0.0036927832 -2.4337548e-22)
(1.0066586 -0.0029447926 5.5712629e-22)
(1.0077183 -0.0020454493 4.2560548e-22)
(1.0087892 -0.00067289615 -8.9464791e-23)
(0.99972393 -0.0026521074 -2.1348421e-24)
(0.99982386 -0.0031833252 5.1369342e-23)
(1.0000965 -0.0035060205 0)
(1.0005363 -0.00397913 0)
(1.0011138 -0.0043069639 1.0319511e-22)
(1.0018992 -0.0046434537 -3.5515643e-22)
(1.0028035 -0.0047718485 4.4040211e-22)
(1.0038871 -0.0047888665 -3.3202584e-22)
(1.0050299 -0.0045032121 -1.3773086e-23)
(1.0062561 -0.0040477815 3.0072283e-24)
(1.0074548 -0.0031831621 -8.3529963e-22)
(1.0085933 -0.0022026105 1.1014161e-21)
(1.0096585 -0.00070615755 -1.9815236e-21)
(0.99959914 -0.0026040004 3.2811157e-23)
(0.99960753 -0.0031625723 -6.6248042e-24)
(0.99982493 -0.0035273095 7.9420007e-23)
(1.0001841 -0.0040649622 -1.1132475e-22)
(1.0006985 -0.0044778903 1.3443414e-22)
(1.0014192 -0.004924922 -1.0595874e-22)
(1.0022821 -0.0051969442 -5.5645556e-23)
(1.0033445 -0.0053575761 1.6942731e-23)
(1.0044961 -0.0052844122 -1.7168049e-22)
(1.005774 -0.0049533234 -1.4274279e-22)
(1.0070397 -0.0043888987 -1.9202218e-22)
(1.0083253 -0.0034291655 -5.4602044e-22)
(1.0094688 -0.0023495254 -4.0771065e-22)
(1.0105746 -0.0007372202 5.8560941e-22)
(0.99948334 -0.0025376067 -8.3086402e-23)
(0.99940311 -0.0031149446 -1.8658457e-22)
(0.9995645 -0.0035131089 -2.1016135e-23)
(0.99984014 -0.0041050619 1.487291e-23)
(1.0002859 -0.0045895479 -1.5800997e-23)
(1.0009315 -0.0051413069 1.3323587e-22)
(1.0017404 -0.0055323563 -4.343333e-23)
(1.0027614 -0.0058574534 7.0261191e-23)
(1.0039062 -0.0059345034 -1.196791e-22)
(1.0052035 -0.00583288 -7.8273904e-24)
(1.0065365 -0.0053894115 1.103612e-23)
(1.0079029 -0.0047434284 -1.2981345e-22)
(1.0092017 -0.003659767 9.3873627e-22)
(1.0103958 -0.0024933566 -5.543192e-22)
(1.0114837 -0.00076372814 5.1000934e-22)
(0.99937672 -0.0024567332 -2.7195378e-23)
(0.99921175 -0.0030448711 6.7594749e-23)
(0.99931719 -0.003468936 -8.4568893e-23)
(0.99950807 -0.0041039923 1.0264201e-22)
(0.99988104 -0.0046505368 -1.2552051e-22)
(1.0004439 -0.0052915395 1.7336807e-22)
(1.0011873 -0.0057970551 -4.0967405e-22)
(1.0021517 -0.0062613301 3.6647567e-23)
(1.0032686 -0.0065126171 8.9726021e-23)
(1.0045671 -0.0065771812 -3.7135039e-22)
(1.0059375 -0.0063687518 1.1366312e-21)
(1.0073842 -0.0058459456 -6.9961902e-22)
(1.0087807 -0.0050791173 -3.1324856e-22)
(1.0101346 -0.0038863445 -6.3506234e-23)
(1.0113206 -0.0026234381 7.5741568e-23)
(1.0124193 -0.00078636617 -5.9666796e-22)
(0.99927929 -0.0023647707 0)
(0.99903404 -0.002956615 1.1874661e-22)
(0.99908442 -0.003399437 3.8690376e-23)
(0.99919061 -0.004067683 0)
(0.9994881 -0.0046655341 0)
(0.99996258 -0.0053844476 0)
(1.0006313 -0.0059895754 4.6559252e-23)
(1.0015252 -0.0065881579 -1.1460609e-22)
(1.0025973 -0.0069895753 5.2898877e-22)
(1.0038744 -0.0072469011 -2.4080739e-22)
(1.005263 -0.0072106135 1.4186444e-22)
(1.0067624 -0.0069340087 -2.3688172e-22)
(1.0082557 -0.0062828116 9.4659327e-23)
(1.009723 -0.005412044 3.5540539e-22)
(1.0110715 -0.0040924971 1.5910165e-23)
(1.0122771 -0.0027432577 3.020738e-22)
(1.0133419 -0.00080364166 0)
(0.99919087 -0.002264487 -7.6429634e-23)
(0.9988702 -0.002853963 -1.196455e-22)
(0.99886708 -0.0033091056 2.9819647e-22)
(0.99888973 -0.0040011827 2.2149061e-22)
(0.9991103 -0.0046407321 2.2914455e-22)
(0.99949257 -0.0054248838 0)
(1.0000795 -0.0061188472 3.8516374e-22)
(1.0008918 -0.0068359141 -1.7228151e-22)
(1.0019033 -0.0073839369 -6.9118288e-22)
(1.0031394 -0.0078105443 7.4358696e-22)
(1.004523 -0.0079767154 1.4331358e-22)
(1.0060545 -0.0078841539 1.8726785e-22)
(1.0076216 -0.0074808815 -8.2942793e-22)
(1.0092004 -0.0067205186 1.0476164e-21)
(1.0106786 -0.0057187465 3.5456485e-23)
(1.0120464 -0.0042836513 2.1563452e-21)
(1.0132252 -0.0028459501 8.0454618e-22)
(1.0142717 -0.00081590432 8.4747648e-22)
(0.99911109 -0.0021583544 5.1753728e-24)
(0.99872015 -0.0027403587 -8.9336393e-23)
(0.99866565 -0.0032019628 -9.2405767e-24)
(0.99860681 -0.0039094325 1.9177185e-22)
(0.99875009 -0.0045814155 -3.2687137e-23)
(0.99903788 -0.0054194088 -3.7984355e-23)
(0.9995379 -0.0061898469 -6.0439284e-22)
(1.0002597 -0.007013473 -9.0652807e-22)
(1.0011975 -0.0076930038 -3.8219118e-22)
(1.0023745 -0.0082858461 6.3139323e-23)
(1.0037313 -0.0086331832 -1.8935887e-22)
(1.0052708 -0.0087587286 4.8401455e-22)
(1.0068907 -0.0085432088 -6.1589782e-22)
(1.0085633 -0.0080345133 8.5456685e-23)
(1.0101695 -0.0071293886 9.0175985e-23)
(1.011682 -0.0060069872 -3.4645032e-22)
(1.0130194 -0.0044488185 7.796772e-22)
(1.0141855 -0.0029328102 -7.1713714e-23)
(1.0151806 -0.00082268504 8.5436634e-22)
(0.9990396 -0.0020486324 4.1162242e-23)
(0.99858363 -0.0026187828 8.5609291e-23)
(0.99848028 -0.0030816542 -5.011769e-22)
(0.99834262 -0.0037968679 -1.238323e-22)
(0.99840918 -0.0044928012 3.5237632e-23)
(0.99860157 -0.0053737149 -2.6430736e-23)
(0.99901113 -0.0062094198 8.3125471e-23)
(0.99963585 -0.0071259186 1.2754452e-22)
(1.0004894 -0.0079253528 -1.6082954e-22)
(1.0015915 -0.0086691403 -1.0118422e-21)
(1.0029012 -0.0091964483 3.6077086e-22)
(1.0044245 -0.0095211444 1.1085765e-22)
(1.0060732 -0.0095322802 -1.0270192e-22)
(1.0078184 -0.0092176245 3.3092641e-24)
(1.009542 -0.0085590396 1.5761698e-22)
(1.0111975 -0.0075194532 -1.2178421e-21)
(1.0126933 -0.006260656 5.2514386e-22)
(1.0140111 -0.0045898476 -1.2887813e-21)
(1.015129 -0.0029998548 -3.3384538e-22)
(1.0160793 -0.00082386095 -9.2336903e-22)
(0.99897578 -0.0019371037 1.9174468e-23)
(0.99846016 -0.0024918067 1.561607e-22)
(0.99831077 -0.0029514001 1.373729e-22)
(0.99809754 -0.0036675782 1.7086713e-22)
(0.99808868 -0.0043795941 -1.0014946e-22)
(0.99818583 -0.0052934803 -1.7421112e-22)
(0.99850285 -0.0061836152 6.3683947e-22)
(0.99902608 -0.007180419 1.4048249e-21)
(0.99978723 -0.0080860507 7.0797014e-23)
(1.0008014 -0.0089683906 0)
(1.0020456 -0.009661532 -1.9129944e-22)
(1.0035293 -0.010185909 6.5500318e-22)
(1.0051807 -0.010408675 7.6720398e-22)
(1.0069751 -0.010332191 -9.9508873e-22)
(1.0087964 -0.0098659682 2.2447001e-22)
(1.0105926 -0.0090668754 -9.0883466e-22)
(1.0122458 -0.0078696194 1.9118519e-22)
(1.0137337 -0.0064824453 5.7881776e-22)
(1.0149924 -0.0047002639 -9.2111197e-22)
(1.0160663 -0.0030471795 -4.1849469e-23)
(1.0169497 -0.00081866407 -9.100357e-22)
(0.99891904 -0.0018252988 -2.0199952e-23)
(0.9983491 -0.0023616297 1.3049147e-22)
(0.99815673 -0.0028140656 2.2908358e-22)
(0.99787153 -0.0035251603 -2.6780459e-22)
(0.99778922 -0.0042461826 -3.0346467e-22)
(0.99779214 -0.0051838454 -1.858951e-23)
(0.99801572 -0.0061185311 0)
(0.99843483 -0.0071835111 -1.3590812e-22)
(0.99909786 -0.008182472 -4.9487143e-22)
(1.0000141 -0.0091884494 -7.8788245e-22)
(1.0011771 -0.010035324 1.6423867e-22)
(1.0025993 -0.01074618 3.5188575e-22)
(1.0042274 -0.011184423 -1.304047e-22)
(1.006043 -0.011335838 -1.5435265e-22)
(1.0079404 -0.011112141 6.158125e-22)
(1.0098595 -0.010503181 -6.3221173e-22)
(1.011678 -0.0095316161 1.1952348e-22)
(1.013336 -0.0081832824 -8.8796331e-22)
(1.0147734 -0.0066625152 -1.7657729e-24)
(1.015974 -0.0047800667 -2.3926606e-25)
(1.0169777 -0.0030729019 -5.2862897e-22)
(1.017794 -0.00080672587 0)
(0.99886888 -0.0017144579 1.5773827e-23)
(0.99824973 -0.0022301346 -7.4925129e-23)
(0.99801752 -0.002672093 -1.9985581e-23)
(0.99766431 -0.0033728786 -3.7433209e-22)
(0.99751096 -0.0040964398 -2.8589765e-22)
(0.9974214 -0.005049652 1.6829951e-22)
(0.99755155 -0.0060197303 1.3131223e-22)
(0.99786537 -0.0071418831 6.7459094e-22)
(0.99842676 -0.0082216111 1.4921585e-22)
(0.99923796 -0.0093367517 1.0251076e-22)
(1.000307 -0.010322087 -3.2422483e-23)
(1.0016485 -0.011207149 -8.4872271e-22)
(1.0032276 -0.01185027 3.8451091e-23)
(1.0050356 -0.012237576 8.8672093e-22)
(1.0069807 -0.012252364 -3.3135267e-22)
(1.0090042 -0.011889828 -7.0094087e-22)
(1.0109737 -0.011097729 -8.4189284e-23)
(1.0128204 -0.0099574007 1.5175721e-21)
(1.0144382 -0.0084469306 1.2304005e-22)
(1.0158232 -0.0068007529 -5.793551e-22)
(1.0169349 -0.004825975 0)
(1.0178677 -0.0030770536 1.2215687e-21)
(1.0186027 -0.00078858736 1.0266225e-23)
(0.99882468 -0.0016055815 1.1952553e-22)
(0.99816123 -0.0020988639 -1.2051982e-22)
(0.99789241 -0.002527624 2.1043104e-22)
(0.99747531 -0.0032135216 8.7991443e-23)
(0.99725379 -0.0039339489 -3.8266477e-22)
(0.99707396 -0.0048951415 0)
(0.99711148 -0.005892496 3.5664122e-23)
(0.99732001 -0.0070617233 1.2397731e-22)
(0.99777806 -0.00821076 6.1784474e-22)
(0.99847982 -0.0094207174 1.1827545e-21)
(0.99944555 -0.010528952 -2.8714191e-22)
(1.0006902 -0.011571924 -5.4568951e-22)
(1.0021969 -0.012408987 7.0935471e-22)
(1.0039676 -0.013025157 -4.3289339e-22)
(1.0059296 -0.013292287 9.6008178e-22)
(1.0080294 -0.013179069 9.5904989e-22)
(1.0101362 -0.012628895 -1.0706972e-21)
(1.0121619 -0.011654571 5.7397976e-22)
(1.0139907 -0.010326578 -2.1988379e-21)
(1.0155633 -0.0086600526 8.9617335e-22)
(1.0168614 -0.0068917626 1.3831727e-21)
(1.0178795 -0.0048377376 -1.301264e-21)
(1.0187235 -0.003059275 8.5641546e-22)
(1.0193738 -0.00076542391 9.6325326e-24)
(0.99878588 -0.0014994604 -5.8203698e-23)
(0.99808278 -0.0019691037 -1.4211851e-22)
(0.99778058 -0.0023824254 -1.4620765e-22)
(0.99730384 -0.0030496143 -7.7729512e-22)
(0.99701728 -0.003761759 1.9217206e-22)
(0.99674988 -0.0047242913 -5.2282634e-22)
(0.99669603 -0.0057414324 3.8688902e-23)
(0.99680014 -0.0069489598 -7.6466483e-22)
(0.99715466 -0.0081568242 1.6208422e-23)
(0.99774506 -0.0094482654 3.5356254e-22)
(0.99860142 -0.0106635 1.8403709e-23)
(0.99973662 -0.011846813 1.1565882e-21)
(1.0011502 -0.012861771 -1.9035304e-22)
(1.0028551 -0.013698159 -1.0651027e-22)
(1.0048009 -0.014216287 -6.2834049e-23)
(1.0069452 -0.014373011 2.0853335e-22)
(1.0091632 -0.014075354 -2.029876e-22)
(1.0113605 -0.013335253 8.7863265e-22)
(1.0133963 -0.012151572 0)
(1.0151999 -0.010638082 1.4574004e-22)
(1.0166889 -0.0088146089 5.0407337e-23)
(1.0178916 -0.0069346587 -1.0760903e-22)
(1.0187942 -0.0048147327 6.442467e-23)
(1.0195443 -0.0030198188 -1.2265129e-21)
(1.0201031 -0.00073793117 -5.8819935e-22)
(0.99875205 -0.0013967457 -7.5535308e-23)
(0.99801364 -0.0018418628 1.0891894e-22)
(0.99768117 -0.0022380432 9.7637357e-23)
(0.99714905 -0.0028832338 9.2305965e-23)
(0.99680085 -0.0035827157 8.0101643e-22)
(0.99644882 -0.0045404244 1.468349e-22)
(0.9963053 -0.0055708949 4.574021e-23)
(0.99630642 -0.0068087444 4.4784526e-23)
(0.99655831 -0.0080664896 6.8152533e-22)
(0.99703756 -0.0094271479 1.7078632e-22)
(0.9977815 -0.010734058 4.264661e-22)
(0.99879862 -0.012039134 -1.6162117e-22)
(1.0001021 -0.013213324 -6.6627812e-22)
(1.001715 -0.014255018 -2.2243414e-23)
(1.0036111 -0.015020141 -4.4783603e-22)
(1.0057637 -0.015452436 1.3604007e-22)
(1.0080622 -0.015435741 9.7167371e-22)
(1.0104083 -0.014948314 -1.1975518e-21)
(1.0126517 -0.013982163 -1.9990565e-21)
(1.0146888 -0.012586896 1.5520715e-23)
(1.0164252 -0.010880534 2.3061089e-21)
(1.0178179 -0.0089088286 6.8615452e-22)
(1.0188979 -0.0069276003 -1.3533167e-21)
(1.0196772 -0.0047574227 1.2478917e-21)
(1.0203243 -0.0029593764 -9.0240201e-22)
(1.0207883 -0.00070561932 4.7910497e-23)
(0.99872312 -0.0012979449 1.4924371e-24)
(0.99795337 -0.001718011 5.8278329e-23)
(0.99759348 -0.0020957168 -2.6707219e-22)
(0.99701017 -0.0027162834 3.9375235e-22)
(0.99660373 -0.0033991312 -4.9850538e-22)
(0.99617031 -0.0043467203 5.5647212e-22)
(0.99593898 -0.005384428 5.9297015e-22)
(0.9958389 -0.0066459647 3.9091893e-22)
(0.99598981 -0.0079456138 -1.0289972e-21)
(0.9963597 -0.009364969 -4.7386998e-22)
(0.99699102 -0.010749128 -9.3953356e-23)
(0.99788511 -0.012157263 -1.2157917e-21)
(0.99906551 -0.013469958 1.1196374e-21)
(1.0005634 -0.01469795 -7.5122945e-22)
(1.0023778 -0.015698804 4.9701455e-23)
(1.0045009 -0.016408899 3.5751584e-22)
(1.0068423 -0.016687266 -8.9754094e-22)
(1.0093086 -0.016489116 1.1227154e-21)
(1.0117423 -0.015766752 -9.825176e-22)
(1.0140228 -0.014566902 2.6806158e-22)
(1.0160166 -0.012945182 0)
(1.0176689 -0.011050773 1.0245816e-21)
(1.0189333 -0.008939107 3.827181e-23)
(1.01988 -0.0068706146 0)
(1.0205215 -0.0046665275 -1.540596e-21)
(1.0210602 -0.002878999 -3.8623324e-23)
(1.0214271 -0.00066771678 5.0476756e-22)
(0.99869911 -0.0012035523 2.0778894e-23)
(0.997902 -0.0015982076 1.8945331e-23)
(0.99751724 -0.0019566076 -2.2972681e-22)
(0.99688669 -0.0025502677 -2.5879337e-24)
(0.99642527 -0.0032132061 -1.9151723e-22)
(0.99591358 -0.0041456574 -6.2184393e-22)
(0.99559652 -0.00518548 -3.7187772e-23)
(0.99539712 -0.0064644845 -5.2656695e-22)
(0.99544908 -0.0077997669 2.0143213e-22)
(0.9957126 -0.0092685363 6.4874272e-22)
(0.99623335 -0.010717175 -1.1411533e-21)
(0.99700314 -0.012210224 -7.0400057e-22)
(0.9980518 -0.013639417 -8.2398481e-22)
(0.99941606 -0.015031374 3.6908625e-23)
(1.0011189 -0.016251218 -9.6379181e-22)
(1.0031745 -0.017233359 1.1281853e-22)
(1.0055182 -0.017817032 -1.8260399e-21)
(1.0080671 -0.017931428 2.1647544e-21)
(1.0106668 -0.017497918 6.9660365e-22)
(1.0131802 -0.016527096 -7.0634298e-22)
(1.015452 -0.015069606 1.2928844e-21)
(1.0173818 -0.013221374 2.5649041e-23)
(1.0189126 -0.011142709 -8.1332852e-23)
(1.020033 -0.0089045019 0)
(1.0208269 -0.006764336 0)
(1.0213237 -0.0045431321 1.1980453e-22)
(1.0217494 -0.0027799598 -1.0502802e-21)
(1.022018 -0.00062430355 -8.9443988e-22)
(0.9986794 -0.0011137028 0)
(0.99785952 -0.0014831655 4.7289014e-23)
(0.99745268 -0.0018216326 2.2762172e-22)
(0.99677884 -0.0023867211 2.5068294e-22)
(0.99626523 -0.0030266046 5.3032304e-22)
(0.99567796 -0.0039396557 1.6195369e-22)
(0.99527686 -0.0049765612 -3.8452884e-22)
(0.99498016 -0.0062680867 -8.931517e-22)
(0.99493531 -0.0076332795 8.2334747e-22)
(0.9950961 -0.0091443513 -4.8654255e-23)
(0.99551024 -0.010646036 8.3329352e-23)
(0.99615752 -0.012207164 1.1184672e-23)
(0.99707012 -0.0137307 -2.198063e-21)
(0.99828652 -0.015261601 2.0606805e-23)
(0.99985219 -0.016679077 1.4350907e-22)
(1.0018039 -0.017920893 -1.0695774e-21)
(1.004107 -0.018811669 2.007185e-22)
(1.0066959 -0.019257752 -1.0232035e-21)
(1.0094262 -0.019146382 2.2824018e-21)
(1.0121544 -0.018457923 -1.2073878e-21)
(1.0147025 -0.017204644 1.0364357e-21)
(1.0169417 -0.015482851 7.3087792e-22)
(1.0187651 -0.013406059 -3.5338638e-24)
(1.0201531 -0.011154044 -2.8957452e-21)
(1.0211043 -0.0088047668 -6.8797149e-22)
(1.021735 -0.0066100842 8.1961566e-23)
(1.0220798 -0.0043889732 1.3844366e-21)
(1.0223899 -0.0026636595 -6.293945e-22)
(1.0225594 -0.00057633987 1.1562531e-21)
(0.99866247 -0.0010288833 -4.2600542e-23)
(0.99782465 -0.0013728551 0)
(0.99739979 -0.0016919173 0)
(0.99668761 -0.0022268092 0)
(0.99612449 -0.0028411601 -1.2774935e-22)
(0.99546336 -0.0037303166 4.8199013e-22)
(0.99497878 -0.0047601279 5.8394669e-23)
(0.99458611 -0.0060592965 1.2936248e-22)
(0.99444693 -0.0074504031 1.3031283e-21)
(0.99450903 -0.0089975049 -1.5605413e-21)
(0.9948217 -0.010543252 3.6875386e-22)
(0.99535106 -0.012156925 -1.7672763e-22)
(0.99612711 -0.013753192 9.1139062e-22)
(0.99718646 -0.015396908 4.0603596e-23)
(0.99859374 -0.016986531 1.884242e-21)
(1.0004084 -0.018469873 2.1571737e-22)
(1.0026285 -0.019661921 -1.3186152e-21)
(1.0052109 -0.020450038 -6.4885438e-22)
(1.0080291 -0.020690093 1.1208648e-21)
(1.0109405 -0.020327659 -1.127458e-23)
(1.013755 -0.01933954 -1.1567964e-21)
(1.0163124 -0.017789181 -1.2638534e-22)
(1.0184724 -0.015793095 1.9486698e-21)
(1.0201618 -0.013494848 -1.4254987e-21)
(1.0213755 -0.011082908 5.0487004e-23)
(1.0221429 -0.0086408054 -5.4773153e-22)
(1.0225978 -0.0064101377 1.4287232e-21)
(1.0227869 -0.0042062513 1.8938269e-22)
(1.0229805 -0.0025316313 2.2698911e-21)
(1.0230504 -0.00052478032 5.8830831e-22)
(0.99864586 -0.00094046076 4.6831292e-23)
(0.99779416 -0.0012686771 3.5702106e-23)
(0.99735664 -0.0015674665 0)
(0.9966134 -0.0020722699 0)
(0.99600505 -0.0026582032 0)
(0.99527168 -0.003519598 0)
(0.9947017 -0.0045373675 0)
(0.99421222 -0.0058405795 -3.3658994e-23)
(0.99398068 -0.0072537936 -3.8071593e-22)
(0.99394901 -0.0088330087 1.6996964e-21)
(0.99416636 -0.010414903 5.0599747e-23)
(0.99458423 -0.012068086 4.0126242e-22)
(0.99522707 -0.013716521 -1.7553609e-21)
(0.99612481 -0.015446398 1.6096552e-21)
(0.99735789 -0.017180486 -1.7951693e-22)
(0.99900681 -0.018881754 8.0501781e-22)
(1.0011036 -0.020362302 -9.7768411e-22)
(1.0036316 -0.021494122 7.2979381e-22)
(1.0064886 -0.022106053 3.3552337e-22)
(1.0095422 -0.022109958 3.4029485e-22)
(1.0125983 -0.021441071 1.4451705e-22)
(1.0154742 -0.020129501 4.9956152e-22)
(1.0179909 -0.018262262 -1.2340621e-23)
(1.0200381 -0.01599304 -7.9181442e-22)
(1.0215553 -0.013483389 2.4007737e-22)
(1.0225736 -0.01092923 2.6075367e-21)
(1.0231394 -0.0084149935 6.5678801e-22)
(1.0234119 -0.0061671427 -6.3406033e-22)
(1.0234428 -0.0039975631 2.2382227e-23)
(1.0235205 -0.0023854279 -1.4822198e-21)
(1.0234916 -0.00047009629 -3.6030111e-22)
(0.9986268 -0.00084557733 2.6346662e-23)
(0.99776378 -0.0011599821 6.8340009e-23)
(0.99731893 -0.0014506361 1.5220444e-22)
(0.99655337 -0.0019228784 3.1341013e-22)
(0.99590815 -0.0024802603 0)
(0.99510697 -0.0033087444 0)
(0.9944483 -0.0043099423 6.3326446e-23)
(0.99385614 -0.0056125193 6.9914468e-22)
(0.99353139 -0.0070461311 -1.0624335e-21)
(0.99341132 -0.008653954 1.3809951e-21)
(0.99354124 -0.010267045 -1.5204248e-22)
(0.9938558 -0.011947857 -1.360811e-21)
(0.99437149 -0.013630242 5.1644231e-22)
(0.99510794 -0.015420172 -2.1940099e-22)
(0.99615638 -0.017269303 -1.3894579e-21)
(0.99761628 -0.019161601 1.072282e-23)
(0.99955352 -0.020911003 2.8090347e-21)
(1.0019799 -0.022379912 -1.3505829e-22)
(1.0048233 -0.023374577 -2.3395211e-21)
(1.007969 -0.023776792 2.838578e-21)
(1.01123 -0.023479284 -1.2920842e-21)
(1.0144084 -0.02247029 -9.6309064e-22)
(1.0172945 -0.02080385 2.8369129e-21)
(1.0197316 -0.018612833 9.3075308e-22)
(1.0216205 -0.016074831 -7.0125486e-22)
(1.0229367 -0.013369938 1.5115963e-21)
(1.0237354 -0.010694672 7.6940597e-22)
(1.0240891 -0.0081300839 4.1129148e-22)
(1.0241734 -0.0058844521 -7.846241e-22)
(1.024046 -0.0037656634 -6.4263688e-23)
(1.02401 -0.0022265682 -5.4619395e-22)
(1.0238871 -0.00041278018 -3.4030462e-23)
(0.99861075 -0.00074923517 -8.3152919e-24)
(0.9977342 -0.0010428265 -6.1515617e-23)
(0.99728163 -0.0013273684 -1.4729334e-22)
(0.99650076 -0.0017831261 -2.0965189e-22)
(0.99583016 -0.0023068179 0)
(0.99497285 -0.003101377 0)
(0.99422569 -0.0040784761 0)
(0.99352059 -0.0053762046 -1.6670834e-23)
(0.99309348 -0.0068275916 1.4691819e-21)
(0.99288801 -0.0084637123 1.3418342e-21)
(0.99294053 -0.010103587 -1.9315426e-22)
(0.99316244 -0.011803472 -2.2502041e-22)
(0.99355972 -0.013502909 2.9634774e-21)
(0.99413913 -0.015328638 -1.3141108e-21)
(0.99499838 -0.017263263 -8.9704002e-23)
(0.99625191 -0.019316653 0)
(0.99799856 -0.021310662 7.9278201e-22)
(1.0002791 -0.023101413 -8.5446618e-22)
(1.003055 -0.024480037 -1.8318857e-22)
(1.0062368 -0.025302476 3.9649515e-22)
(1.0096541 -0.025421487 -1.2325504e-21)
(1.0131054 -0.024779015 5.8302466e-22)
(1.0163565 -0.023385509 -1.5248463e-21)
(1.01921 -0.021346986 -2.2425169e-21)
(1.0215151 -0.018828441 1.0608408e-21)
(1.0232085 -0.016034092 8.590449e-23)
(1.0242918 -0.013154613 -8.0847707e-23)
(1.0248541 -0.01038187 3.8479639e-23)
(1.0249856 -0.007790225 -1.0907476e-21)
(1.0248798 -0.0055657338 -7.1462155e-22)
(1.0245959 -0.003513379 1.2500316e-22)
(1.0244501 -0.0020568017 1.2510141e-21)
(1.024241 -0.00035437076 -2.8922732e-22)
(0.99859845 -0.00065144703 7.3850352e-24)
(0.99770991 -0.00092425754 -4.1702674e-23)
(0.99724437 -0.0011935538 -2.0241087e-22)
(0.9964477 -0.0016335903 -4.5966191e-22)
(0.99576202 -0.0021453992 8.8166956e-23)
(0.99486545 -0.0028963353 1.0188723e-22)
(0.99404199 -0.0038475578 1.0218761e-21)
(0.99321661 -0.0051310432 -6.2053106e-22)
(0.99266786 -0.0065988281 -2.9260885e-22)
(0.9923692 -0.0082625778 -2.6472992e-21)
(0.99235438 -0.009929139 1.0950819e-21)
(0.99249788 -0.011639786 2.0624601e-21)
(0.99278873 -0.013343375 1.015051e-22)
(0.9932193 -0.015181814 -1.6821103e-21)
(0.99388988 -0.017173464 -1.6667254e-21)
(0.9949264 -0.019357015 5.1376577e-23)
(0.99645744 -0.021566802 3.6910081e-22)
(0.99855284 -0.02365784 4.0622629e-22)
(1.0012088 -0.025411042 -3.1343799e-22)
(1.0043663 -0.026664973 -5.1090155e-23)
(1.0078822 -0.027235955 1.1124307e-21)
(1.0115625 -0.027019129 -2.5454e-21)
(1.0151592 -0.025973532 -2.8432886e-22)
(1.0184384 -0.024165945 1.4832408e-21)
(1.0212008 -0.021740752 -3.1254196e-21)
(1.023328 -0.018900915 -1.166466e-21)
(1.0247848 -0.01586842 -1.1367997e-21)
(1.0256106 -0.012839212 -2.3425788e-22)
(1.0259206 -0.0099951874 -7.8274089e-22)
(1.0258251 -0.0073997275 7.3444588e-23)
(1.0255292 -0.0052149307 -3.1173833e-22)
(1.0250925 -0.0032435875 -6.1470758e-23)
(1.0248419 -0.001878495 -4.0107258e-22)
(1.0245474 -0.00029896498 2.0300477e-22)
(0.99858885 -0.00055275595 2.0246135e-23)
(0.99769201 -0.00080361684 5.4455327e-23)
(0.99721377 -0.0010583281 1.7916134e-22)
(0.99639643 -0.0014694603 1.2551604e-22)
(0.99569232 -0.0019691718 -2.9401893e-22)
(0.99477232 -0.0027066933 -6.7905445e-22)
(0.9938952 -0.0036149183 -1.3596162e-22)
(0.99295993 -0.0048821777 0)
(0.99226857 -0.0063576063 -8.3231703e-22)
(0.99185157 -0.0080517655 -3.3095322e-21)
(0.99176948 -0.009744652 -5.817547e-22)
(0.99185165 -0.011462862 -7.6996663e-22)
(0.9920526 -0.013158099 0)
(0.99234675 -0.014990436 4.5762052e-22)
(0.99283447 -0.017011353 3.0288764e-21)
(0.99364925 -0.019294106 -1.4791385e-22)
(0.99494678 -0.021688751 -3.1347091e-21)
(0.99682343 -0.02405194 0)
(0.99931054 -0.026161987 1.3032323e-21)
(1.0023827 -0.027846299 2.0178175e-21)
(1.0059324 -0.028893791 -1.6621244e-21)
(1.0097853 -0.029153322 1.2587215e-21)
(1.0136918 -0.028528806 0)
(1.0173907 -0.027036508 -2.6866388e-21)
(1.0206353 -0.024786718 1.4757374e-21)
(1.0232521 -0.021971909 -1.0858156e-22)
(1.02515 -0.018824073 -1.3688109e-21)
(1.0263362 -0.015577878 1.3281306e-21)
(1.0268812 -0.012427656 3.666363e-23)
(1.0269291 -0.0095395244 -2.1553348e-21)
(1.0266036 -0.0069636819 2.3074407e-21)
(1.0261204 -0.004836072 9.3133846e-22)
(1.0255361 -0.0029591913 0)
(1.0251845 -0.0016940272 1.4315898e-23)
(1.0247927 -0.00025887933 -4.8567336e-24)
(0.99858092 -0.00045331599 -1.1913789e-23)
(0.99767874 -0.00068179984 4.1420159e-23)
(0.99719165 -0.00092039332 9.1706861e-23)
(0.9963544 -0.0013042283 8.3230075e-23)
(0.9956247 -0.0017731214 3.7113704e-23)
(0.99467486 -0.0024937819 -2.6704773e-22)
(0.99376988 -0.0034014602 -8.8413877e-22)
(0.99275402 -0.0046252342 -1.1124089e-22)
(0.99192049 -0.0061084867 0)
(0.99134855 -0.0078278048 1.0619769e-21)
(0.99117629 -0.0095547446 -1.0393848e-21)
(0.99120892 -0.011276121 -1.1751813e-22)
(0.99134184 -0.01295553 -9.320587e-22)
(0.9915172 -0.014762913 1.5092014e-21)
(0.99183284 -0.016789553 1.607408e-21)
(0.99242751 -0.019140402 1.9482954e-21)
(0.99348006 -0.021687598 -6.9812921e-21)
(0.99511173 -0.024291278 -3.1903782e-21)
(0.99738646 -0.026731341 1.7074441e-21)
(1.000314 -0.028834521 -4.276175e-21)
(1.0038285 -0.030369595 2.5491141e-21)
(1.0077872 -0.031145892 -3.269422e-21)
(1.0119523 -0.031009462 0)
(1.0160467 -0.029918689 -6.9117044e-22)
(1.0197835 -0.02793554 3.4785312e-22)
(1.0229316 -0.025228189 1.6335148e-21)
(1.0253411 -0.022029042 2.3131981e-22)
(1.0269645 -0.018595032 1.35977e-22)
(1.0278471 -0.015165129 1.0205382e-21)
(1.0280945 -0.011925011 0)
(1.0278732 -0.0090209793 1.8429765e-21)
(1.0273191 -0.006487061 2.5769307e-21)
(1.026653 -0.004433158 -1.2493206e-21)
(1.0259273 -0.0026628466 4.3566837e-23)
(1.0254772 -0.0015038931 -5.1373994e-23)
(1.025001 -0.00023450829 1.0048435e-22)
(0.99857429 -0.0003532618 -3.8354175e-24)
(0.99766819 -0.00055905576 1.6332957e-23)
(0.99717579 -0.00078105913 -4.7051313e-23)
(0.99632475 -0.001134973 -2.0004389e-23)
(0.99556867 -0.0015764733 2.5237781e-22)
(0.99458083 -0.0022520099 4.2321319e-22)
(0.99363693 -0.0031522276 5.4510866e-23)
(0.99258102 -0.0043918075 -5.6832836e-22)
(0.99163716 -0.0058435486 -1.1011004e-22)
(0.9908923 -0.0075939724 -9.0714803e-22)
(0.99058285 -0.0093550894 6.5284859e-23)
(0.99055817 -0.011084034 7.1621561e-22)
(0.99064276 -0.012740228 3.1262967e-22)
(0.99072363 -0.014510366 8.1632136e-22)
(0.99088325 -0.016518427 -6.3484959e-21)
(0.99126504 -0.018909915 -6.4463928e-22)
(0.99206827 -0.021576279 2.6554892e-21)
(0.99343552 -0.024385657 3.0878295e-21)
(0.99546152 -0.027123528 -3.5539028e-21)
(0.99818905 -0.029622142 -1.1597648e-21)
(1.0015987 -0.031643866 8.0496776e-22)
(1.0055886 -0.032963655 -3.7346296e-21)
(1.0099472 -0.033373603 3.3917892e-21)
(1.0143953 -0.032767593 0)
(1.0186156 -0.031148412 1.2591753e-21)
(1.0223231 -0.028643357 3.2163525e-21)
(1.0253027 -0.025472103 -1.6475077e-21)
(1.0274471 -0.021904824 3.1772975e-21)
(1.0287516 -0.018214044 4.2030763e-23)
(1.0293046 -0.014634759 -1.1905969e-21)
(1.0292415 -0.011337967 -1.8914937e-21)
(1.028749 -0.0084457959 6.2262721e-22)
(1.0279698 -0.0059751547 -9.887619e-23)
(1.0271272 -0.0040100308 -1.0700247e-21)
(1.0262674 -0.0023566233 -2.6085942e-22)
(1.0257216 -0.0013075497 -2.2707107e-23)
(1.0251809 -0.00019318119 8.8950461e-23)
(0.99856905 -0.00025270583 1.534241e-23)
(0.99765943 -0.00043559057 7.0930831e-24)
(0.99716349 -0.00064062306 -8.4015834e-23)
(0.99630446 -0.00096379039 -9.7214105e-23)
(0.99552905 -0.0013741652 3.4592548e-23)
(0.99450114 -0.0020106119 -6.1961973e-23)
(0.99350744 -0.0028617327 -1.7877029e-22)
(0.99239481 -0.0041047198 -4.3189306e-23)
(0.99140116 -0.005605694 0)
(0.99050956 -0.0073373681 1.9486451e-22)
(0.99002212 -0.0091483043 0)
(0.98989973 -0.010885255 0)
(0.98994219 -0.012521988 8.7328799e-22)
(0.98995591 -0.014239036 -1.7867442e-22)
(0.98998183 -0.016211787 -9.5188324e-22)
(0.99016323 -0.018614415 -2.2947974e-21)
(0.99071882 -0.021369583 4.2129046e-21)
(0.99181013 -0.024347759 3.3951883e-21)
(0.99355801 -0.027345755 3.1946958e-21)
(0.996037 -0.030208772 1.3960528e-21)
(0.9992738 -0.032701651 -2.1967238e-21)
(1.0032162 -0.034578752 3.2443969e-21)
(1.0076918 -0.035580378 1.7636225e-22)
(1.0124344 -0.035536303 -2.2193403e-21)
(1.0171102 -0.034379438 -2.4318476e-22)
(1.0213871 -0.032182068 7.6537682e-22)
(1.0249844 -0.029133208 -8.1320083e-23)
(1.0277247 -0.025504907 -1.9369201e-21)
(1.0295461 -0.021595607 -1.5644962e-22)
(1.0304939 -0.017684221 -3.4359764e-21)
(1.030696 -0.013993581 -5.5521478e-22)
(1.0303153 -0.010673858 -1.6153231e-22)
(1.0295529 -0.0078208346 -1.9899007e-21)
(1.0285554 -0.0054332727 -9.5200919e-22)