/*--------------------------------*- C++ -*----------------------------------*\
| =========                 |                                                 |
| \\      /  F ield         | OpenFOAM: The Open Source CFD Toolbox           |
|  \\    /   O peration     | Version:  5.0                                   |
|   \\  /    A nd           | Web:      www.OpenFOAM.org                      |
|    \\/     M anipulation  |                                                 |
\*---------------------------------------------------------------------------*/
FoamFile
{
    version     2.0;
    format      ascii;
    class       volVectorField;
    location    "20";
    object      U_0;
}
// * * * * * * * * * * * * * * * * * * * * * * * * * * * * * * * * * * * * * //

dimensions      [0 1 -1 0 0 0 0];

internalField   nonuniform List<vector> 
9200
(
(1.001266 -0.00024686035 -1.1910655e-24)
(1.0012036 -0.00073717018 -1.7762635e-22)
(1.0019928 -0.0002882654 0)
(1.0011368 -0.0011402652 8.8178734e-23)
(1.001902 -0.00085326492 -1.6527806e-22)
(1.0023777 -0.00031358721 0)
(1.0010193 -0.0015322075 9.2172432e-24)
(1.0018003 -0.001322783 -1.9759883e-23)
(1.0022737 -0.00092774837 0)
(1.0029871 -0.00035275078 0)
(1.0008984 -0.001829356 -1.4835409e-22)
(1.00163 -0.0017815476 -6.3914548e-23)
(1.0021549 -0.0014390924 -9.1000394e-23)
(1.0028643 -0.0010471374 -6.4975952e-24)
(1.0035212 -0.00038742346 1.9487475e-25)
(1.000753 -0.0020991378 -1.3447944e-22)
(1.0014446 -0.0021309125 3.043663e-23)
(1.0019581 -0.001941301 -2.7392299e-22)
(1.0027197 -0.001625512 -9.1208934e-23)
(1.0033828 -0.001156861 1.8038832e-23)
(1.0041812 -0.00042958104 3.4972838e-22)
(1.0006054 -0.0022973181 -8.0967959e-23)
(1.0012276 -0.0024517613 -1.8209409e-22)
(1.0017416 -0.0023254768 1.695668e-22)
(1.0024844 -0.002198669 4.9736275e-24)
(1.0032169 -0.0017962971 -1.4310038e-22)
(1.0040277 -0.001294941 -1.3780485e-22)
(1.0048137 -0.00046877343 -1.3828054e-23)
(1.0004505 -0.0024560967 1.4826022e-23)
(1.0010002 -0.0026899555 -8.345917e-23)
(1.0014882 -0.0026802939 -1.4801788e-22)
(1.0022209 -0.0026409978 4.2895356e-23)
(1.0029495 -0.0024346909 2.7421439e-22)
(1.0038395 -0.0020116784 1.2246092e-22)
(1.0046464 -0.0014274152 2.5932553e-22)
(1.0055507 -0.00051271641 -4.1824258e-22)
(1.0002972 -0.0025634308 6.7153201e-23)
(1.000762 -0.0028841854 -1.4382894e-22)
(1.0012211 -0.0029465287 3.7187757e-23)
(1.001913 -0.0030529902 -9.7307616e-23)
(1.0026471 -0.0029311911 1.032689e-22)
(1.0035379 -0.0027343076 5.0102686e-22)
(1.0044384 -0.0022179256 -2.927172e-22)
(1.0053717 -0.0015808046 4.7376208e-22)
(1.0062746 -0.00055335378 9.6834463e-22)
(1.0001455 -0.0026322447 -1.9805451e-23)
(1.0005216 -0.0030191107 1.2291942e-22)
(1.0009407 -0.003165839 -6.4822075e-24)
(1.0015852 -0.0033676836 -1.4012602e-22)
(1.0022942 -0.0033962042 1.7034876e-23)
(1.0031923 -0.0033025496 1.8605819e-22)
(1.0041077 -0.0030221029 -1.8575165e-22)
(1.0051445 -0.0024572654 -4.112219e-22)
(1.0060866 -0.0017280283 -2.1607738e-22)
(1.0070851 -0.00059570861 -5.7846579e-23)
(0.99999816 -0.0026636625 1.0864493e-23)
(1.0002823 -0.0031098742 6.6173025e-23)
(1.0006566 -0.0033214118 -1.2191598e-22)
(1.0012394 -0.0036307943 7.9039385e-23)
(1.0019161 -0.0037566143 -3.361465e-22)
(1.0027883 -0.0038388802 5.8495079e-22)
(1.0037249 -0.0036608766 6.6018801e-23)
(1.0047851 -0.0033578739 -7.604076e-22)
(1.0058444 -0.0026870597 4.250246e-22)
(1.0068905 -0.0018880088 -8.7450602e-22)
(1.0078898 -0.00063396722 1.8732377e-22)
(0.99985696 -0.0026644368 -1.0246712e-23)
(1.0000485 -0.0031569516 -9.9076768e-23)
(1.0003727 -0.0034293512 2.6144603e-23)
(1.0008863 -0.003823139 0)
(1.0015162 -0.0040613618 6.5563058e-24)
(1.0023522 -0.0042626924 -1.8205025e-22)
(1.0032769 -0.0042677047 1.3274251e-22)
(1.0043641 -0.0040813198 3.6891907e-22)
(1.0054622 -0.0036821145 -2.4286141e-22)
(1.0066352 -0.0029369429 5.555356e-22)
(1.0076927 -0.0020402832 4.2443728e-22)
(1.0087613 -0.00067150022 -8.921559e-23)
(0.99972391 -0.0026384919 -2.1260546e-24)
(0.99982273 -0.0031678656 5.1200307e-23)
(1.0000938 -0.0034897903 0)
(1.0005312 -0.0039619025 0)
(1.0011061 -0.0042895302 1.0285519e-22)
(1.0018883 -0.004626067 -3.5412558e-22)
(1.0027897 -0.0047553381 4.3908366e-22)
(1.00387 -0.0047735815 -3.3092809e-22)
(1.0050098 -0.0044899623 -1.3710534e-23)
(1.0062331 -0.004036705 3.0013152e-24)
(1.0074293 -0.003175155 -8.3306024e-22)
(1.0085654 -0.0021973068 1.0986566e-21)
(1.0096287 -0.00070479946 -1.9764972e-21)
(0.99959965 -0.002590411 3.2684722e-23)
(0.99960729 -0.0031468469 -6.6021324e-24)
(0.9998232 -0.0035105266 7.9138198e-23)
(1.0001801 -0.004046814 -1.109469e-22)
(1.0006919 -0.0044591738 1.3399066e-22)
(1.0014094 -0.00490589 -1.0564938e-22)
(1.0022692 -0.0051784096 -5.5433511e-23)
(1.0033282 -0.0053400129 1.6899993e-23)
(1.0044768 -0.0052684568 -1.7092707e-22)
(1.0057515 -0.0049395365 -1.4204644e-22)
(1.0070144 -0.0043775224 -1.9146561e-22)
(1.0082975 -0.003421008 -5.4445685e-22)
(1.0094389 -0.0023441467 -4.0659009e-22)
(1.0105428 -0.0007358956 5.8415832e-22)
(0.99948438 -0.0025241524 -8.2827811e-23)
(0.99940379 -0.0030990855 -1.8594266e-22)
(0.99956382 -0.0034959191 -2.095924e-23)
(0.99983733 -0.0040861329 1.4825547e-23)
(1.0002806 -0.0045697021 -1.5753397e-23)
(1.0009229 -0.0051207405 1.3284077e-22)
(1.0017287 -0.0055119698 -4.325104e-23)
(1.0027462 -0.0058376518 6.9977463e-23)
(1.0038877 -0.0059161063 -1.1938996e-22)
(1.0051816 -0.0058162156 -7.8518507e-24)
(1.0065117 -0.0053752247 1.1002733e-23)
(1.0078753 -0.0047317587 -1.2962454e-22)
(1.0091717 -0.003651534 9.3625572e-22)
(1.0103637 -0.0024879402 -5.5296037e-22)
(1.01145 -0.00076245494 5.0880953e-22)
(0.99937828 -0.0024435095 -2.7063823e-23)
(0.99921335 -0.003029003 6.7340591e-23)
(0.9993176 -0.0034514737 -8.4269521e-23)
(0.99950653 -0.0040844252 1.0227336e-22)
(0.99987701 -0.0046296901 -1.2508015e-22)
(1.0004367 -0.0052695758 1.7269114e-22)
(1.0011768 -0.0057749138 -4.083565e-22)
(1.0021376 -0.006239447 3.6547474e-23)
(1.003251 -0.0064918058 8.941112e-23)
(1.004546 -0.0065579049 -3.7049748e-22)
(1.0059133 -0.0063515445 1.1330095e-21)
(1.0073569 -0.0058313564 -6.9787487e-22)
(1.0087508 -0.0050672638 -3.1240228e-22)
(1.0101025 -0.0038780718 -6.3248943e-23)
(1.0112866 -0.0026180609 7.5673557e-23)
(1.0123838 -0.00078516501 -5.9529329e-22)
(0.99928137 -0.0023518585 0)
(0.99903656 -0.0029408517 1.1832223e-22)
(0.99908592 -0.0033818312 3.858428e-23)
(0.99919039 -0.0040476116 0)
(0.99948545 -0.0046438172 0)
(0.99995675 -0.0053611987 0)
(1.0006221 -0.0059657984 4.6427636e-23)
(1.0015123 -0.0065642778 -1.1410196e-22)
(1.0025807 -0.0069664985 5.2759558e-22)
(1.0038542 -0.0072250326 -2.3991569e-22)
(1.0052395 -0.0071906519 1.4155704e-22)
(1.0067356 -0.0069162394 -2.3609643e-22)
(1.0082261 -0.0062679446 9.4466962e-23)
(1.0096908 -0.0054000637 3.5442826e-22)
(1.0110374 -0.0040842899 1.5759143e-23)
(1.0122411 -0.0027379607 3.0136237e-22)
(1.0133048 -0.00080252345 0)
(0.99919343 -0.0022519552 -7.6134695e-23)
(0.99887363 -0.0028384089 -1.1918574e-22)
(0.9988697 -0.0032914778 2.9709259e-22)
(0.99889088 -0.003980738 2.2072586e-22)
(0.99910912 -0.0046182676 2.2834543e-22)
(0.99948822 -0.0054004609 0)
(1.0000717 -0.0060935274 3.8395538e-22)
(1.0008801 -0.0068101396 -1.7179999e-22)
(1.0018879 -0.0073586736 -6.8896472e-22)
(1.0031202 -0.0077862322 7.4170844e-22)
(1.0045003 -0.0079540122 1.4276441e-22)
(1.0060283 -0.0078634638 1.8688958e-22)
(1.0075923 -0.0074626893 -8.2712471e-22)
(1.0091683 -0.006705433 1.0444759e-21)
(1.0106443 -0.0057067929 3.5011425e-23)
(1.0120101 -0.0042755787 2.1511509e-21)
(1.0131875 -0.0028407999 8.0262047e-22)
(1.0142331 -0.00081485397 8.4566935e-22)
(0.99911413 -0.0021462615 5.1525135e-24)
(0.99872448 -0.0027251071 -8.9007236e-23)
(0.9986694 -0.0031844281 -9.1843321e-24)
(0.99860936 -0.003888741 1.9106299e-22)
(0.99875044 -0.0045583241 -3.2572559e-23)
(0.9990351 -0.0053939129 -3.7972892e-23)
(0.99953158 -0.0061630712 -6.0266648e-22)
(1.0002493 -0.0069858797 -9.0376189e-22)
(1.0011833 -0.0076656489 -3.8108326e-22)
(1.0023563 -0.0082591741 6.2644383e-23)
(1.0037095 -0.0086078927 -1.8890214e-22)
(1.0052454 -0.0087351196 4.8233051e-22)
(1.006862 -0.0085219369 -6.1438428e-22)
(1.0085314 -0.008015955 8.5372027e-23)
(1.010135 -0.0071142634 9.0185248e-23)
(1.0116453 -0.0059951603 -3.455774e-22)
(1.0129813 -0.004440989 7.7786559e-22)
(1.014146 -0.0029278503 -7.1625448e-23)
(1.0151405 -0.00082170134 8.5267247e-22)
(0.99904308 -0.002037024 4.098214e-23)
(0.99858882 -0.0026039167 8.5281939e-23)
(0.99848515 -0.0030643197 -4.9920976e-22)
(0.99834661 -0.0037760531 -1.2339085e-22)
(0.99841112 -0.004469201 3.5062814e-23)
(0.99860044 -0.005347243 -2.6395679e-23)
(0.99900637 -0.0061812609 8.2857337e-23)
(0.99962695 -0.0070965703 1.2694548e-22)
(1.0004765 -0.0078959742 -1.6035344e-22)
(1.0015745 -0.0086402098 -1.0087576e-21)
(1.0028804 -0.0091686698 3.5919822e-22)
(1.0043999 -0.0094947771 1.1073383e-22)
(1.0060451 -0.0095079116 -1.0215091e-22)
(1.0077869 -0.0091958114 3.2699369e-24)
(1.0095076 -0.0085403192 1.574236e-22)
(1.0111606 -0.0075044065 -1.2146715e-21)
(1.0126546 -0.006249108 5.2419324e-22)
(1.0139711 -0.0045823299 -1.2857345e-21)
(1.015088 -0.0029951489 -3.3308786e-22)
(1.0160379 -0.00082300179 -9.2158432e-22)
(0.99897968 -0.0019260155 1.9107287e-23)
(0.99846617 -0.0024773982 1.5557336e-22)
(0.99831674 -0.002934366 1.3690244e-22)
(0.99810298 -0.00364676 1.7020601e-22)
(0.99809227 -0.0043556033 -9.9843288e-23)
(0.99818645 -0.005266125 -1.7357319e-22)
(0.99849973 -0.0061541353 6.3471342e-22)
(0.99901866 -0.0071493597 1.4004344e-21)
(0.99977559 -0.0080546999 7.0990514e-23)
(1.0007856 -0.0089372796 0)
(1.0020259 -0.0096313919 -1.9034598e-22)
(1.0035057 -0.010156904 6.5341718e-22)
(1.0051534 -0.010381366 7.6482016e-22)
(1.0069441 -0.010307072 -9.9264057e-22)
(1.0087622 -0.0098438282 2.2357015e-22)
(1.0105555 -0.0090481318 -9.062435e-22)
(1.0122067 -0.0078548372 1.9112757e-22)
(1.0136929 -0.0064712677 5.7761774e-22)
(1.0149508 -0.0046931587 -9.1920068e-22)
(1.016024 -0.0030427846 -4.1688166e-23)
(1.0169072 -0.00081801886 -9.0837894e-22)
(0.99892332 -0.0018147565 -2.0071259e-23)
(0.9983559 -0.0023477409 1.2999558e-22)
(0.99816376 -0.002797423 2.2816534e-22)
(0.99787843 -0.0035044557 -2.6670237e-22)
(0.99779451 -0.0042219185 -3.0229303e-22)
(0.99779458 -0.0051556987 -1.8587025e-23)
(0.99801434 -0.0060877828 0)
(0.99842894 -0.0071507662 -1.3578095e-22)
(0.99908753 -0.0081491766 -4.9354145e-22)
(0.9999994 -0.0091552192 -7.8510661e-22)
(1.0011584 -0.010002936 1.6402755e-22)
(1.0025767 -0.010714701 3.5094998e-22)
(1.004201 -0.011154307 -1.3010385e-22)
(1.0060127 -0.011307547 -1.5367779e-22)
(1.0079066 -0.011086484 6.1414911e-22)
(1.0098224 -0.010480859 -6.306067e-22)
(1.0116384 -0.0095130701 1.1917689e-22)
(1.0132945 -0.0081688718 -8.8572453e-22)
(1.0147307 -0.0066518491 -1.428827e-24)
(1.0159307 -0.0047734634 -1.6620397e-25)
(1.0169341 -0.0030688866 -5.2763551e-22)
(1.0177505 -0.00080630767 0)
(0.9988735 -0.0017044786 1.5741225e-23)
(0.99825727 -0.002216817 -7.4639404e-23)
(0.99802558 -0.0026559249 -1.991783e-23)
(0.99767267 -0.0033523997 -3.7285169e-22)
(0.99751799 -0.0040720213 -2.8482088e-22)
(0.99742575 -0.0050208057 1.6764198e-22)
(0.997552 -0.0059877596 1.3109351e-22)
(0.99786109 -0.00710746 6.7222662e-22)
(0.99841775 -0.0081863731 1.4860585e-22)
(0.99922434 -0.0093014397 1.0221707e-22)
(1.0002893 -0.010287554 -3.2338019e-23)
(1.0016269 -0.011173365 -8.4647566e-22)
(1.0032023 -0.011817542 3.8278624e-23)
(1.0050063 -0.012206237 8.8529167e-22)
(1.0069475 -0.012223284 -3.2968438e-22)
(1.0089674 -0.011863773 -6.9861564e-22)
(1.0109338 -0.011075466 -8.4219339e-23)
(1.0127782 -0.0099391713 1.5135087e-21)
(1.0143945 -0.0084330682 1.2283968e-22)
(1.0157787 -0.0067907184 -5.7808623e-22)
(1.0168903 -0.0048199701 0)
(1.017823 -0.0030734787 1.2194508e-21)
(1.0185584 -0.00078829075 1.0219169e-23)
(0.99882962 -0.0015961739 1.1899048e-22)
(0.99816946 -0.002086159 -1.2001432e-22)
(0.99790146 -0.0025120034 2.0957583e-22)
(0.99748512 -0.0031933767 8.7590338e-23)
(0.9972626 -0.0039094938 -3.8103288e-22)
(0.9970803 -0.004865691 0)
(0.99711386 -0.0058593447 3.5594244e-23)
(0.99731739 -0.0070256133 1.233449e-22)
(0.99777037 -0.0081735559 6.1584259e-22)
(0.99846728 -0.0093833319 1.1794817e-21)
(0.99942886 -0.010492363 -2.8594863e-22)
(1.0006696 -0.011536014 -5.4400033e-22)
(1.0021727 -0.012373872 7.0718051e-22)
(1.0039394 -0.012990975 -4.3119118e-22)
(1.0058973 -0.013259876 9.568077e-22)
(1.007993 -0.013149318 9.5501375e-22)
(1.0100962 -0.012602695 -1.0686693e-21)
(1.0121191 -0.011632489 5.7234235e-22)
(1.013946 -0.010308873 -2.1936775e-21)
(1.0155175 -0.0086468868 8.9471836e-22)
(1.0168152 -0.0068825023 1.3804415e-21)
(1.0178336 -0.0048324069 -1.2990689e-21)
(1.0186779 -0.0030561921 8.5519746e-22)
(1.0193289 -0.00076514222 9.5922105e-24)
(0.99879109 -0.0014906259 -5.8013911e-23)
(0.99809164 -0.0019570426 -1.4155207e-22)
(0.99779056 -0.002367416 -1.4568382e-22)
(0.99731506 -0.0030299044 -7.7409284e-22)
(0.99702788 -0.0037373865 1.9128062e-22)
(0.99675829 -0.0046943353 -5.2060208e-22)
(0.99670043 -0.0057071434 3.8604533e-23)
(0.99679927 -0.0069111422 -7.6179094e-22)
(0.99714831 -0.0081176042 1.5915311e-23)
(0.99773352 -0.0094087863 3.5239438e-22)
(0.99858559 -0.010624917 1.8758345e-23)
(0.99971703 -0.011808957 1.1532251e-21)
(1.0011272 -0.012824527 -1.8948076e-22)
(1.0028282 -0.013661387 -1.0624388e-22)
(1.0047698 -0.014180724 -6.3631536e-23)
(1.0069096 -0.014339601 2.0794074e-22)
(1.0091236 -0.014045181 -2.0256449e-22)
(1.0113173 -0.013309025 8.7595423e-22)
(1.0133507 -0.012129911 0)
(1.0151527 -0.010621078 1.4527047e-22)
(1.0166411 -0.0088023279 5.0269484e-23)
(1.0178438 -0.0069262943 -1.0735697e-22)
(1.0187472 -0.0048101474 6.446789e-23)
(1.0194978 -0.0030172644 -1.2247334e-21)
(1.0200577 -0.00073770058 -5.875225e-22)
(0.9987575 -0.0013884784 -7.5197404e-23)
(0.99802305 -0.0018304668 1.0849935e-22)
(0.99769202 -0.0022236978 9.726782e-23)
(0.99716165 -0.0028640548 9.1924187e-23)
(0.99681324 -0.0035585427 7.97513e-22)
(0.99645937 -0.0045100691 1.4631273e-22)
(0.99631184 -0.0055355142 4.5632222e-23)
(0.99630738 -0.0067691919 4.4602557e-23)
(0.99655332 -0.0080251828 6.7906163e-22)
(0.99702694 -0.0093855219 1.7055945e-22)
(0.99776638 -0.010693521 4.2498256e-22)
(0.99877983 -0.011999504 -1.6116571e-22)
(1.0000801 -0.013174242 -6.6436866e-22)
(1.0016894 -0.014215971 -2.2393211e-23)
(1.0035814 -0.014981669 -4.4677087e-22)
(1.0057292 -0.015415494 1.3729883e-22)
(1.0080231 -0.015401566 9.7217136e-22)
(1.0103651 -0.014917821 -1.1936368e-21)
(1.0126054 -0.013956169 -1.9931679e-21)
(1.0146402 -0.012565855 1.5554533e-23)
(1.0163756 -0.010864475 2.3003832e-21)
(1.0177682 -0.0088975935 6.8508969e-22)
(1.0188489 -0.0069202484 -1.3511083e-21)
(1.0196293 -0.0047536506 1.2461036e-21)
(1.0202773 -0.0029573682 -9.0126107e-22)
(1.0207425 -0.0007055991 4.7844832e-23)
(0.99872875 -0.0012902318 1.4845358e-24)
(0.99796326 -0.0017072898 5.8023249e-23)
(0.99760511 -0.0020820778 -2.6606187e-22)
(0.99702409 -0.0026977219 3.9205272e-22)
(0.99661791 -0.0033752753 -4.9613466e-22)
(0.99618306 -0.0043160778 5.5407631e-22)
(0.99594778 -0.0053480117 5.9072468e-22)
(0.99584182 -0.0066046491 3.8909992e-22)
(0.99598621 -0.007902131 -1.0252296e-21)
(0.99634993 -0.0093211156 -4.7223028e-22)
(0.99697646 -0.010706644 -9.3790871e-23)
(0.99786696 -0.012116023 -1.2116473e-21)
(0.99904454 -0.013429349 1.1157676e-21)
(1.0005393 -0.014657002 -7.4910859e-22)
(1.0023496 -0.015657737 4.928493e-23)
(1.0044678 -0.016368615 3.5672642e-22)
(1.0068043 -0.016649143 -8.9494536e-22)
(1.0092657 -0.016454246 1.119768e-21)
(1.0116956 -0.015736212 -9.7980561e-22)
(1.0139731 -0.014541363 2.6771511e-22)
(1.0159653 -0.012925061 0)
(1.0176169 -0.011035865 1.02226e-21)
(1.0188819 -0.0089290824 3.7909697e-23)
(1.0198296 -0.006864386 0)
(1.0204727 -0.0046636363 -1.5384531e-21)
(1.0210128 -0.0028775546 -3.8463628e-23)
(1.0213811 -0.00066802755 5.0443075e-22)
(0.99870487 -0.0011963736 2.0686516e-23)
(0.99791227 -0.0015881599 1.8876499e-23)
(0.99752954 -0.0019437037 -2.2888654e-22)
(0.99690183 -0.0025324038 -2.6027022e-24)
(0.99644122 -0.0031897832 -1.9070747e-22)
(0.99592859 -0.0041148513 -6.1909791e-22)
(0.99560771 -0.0051480961 -3.7027808e-23)
(0.99540214 -0.0064213849 -5.24351e-22)
(0.99544695 -0.0077540092 2.0082054e-22)
(0.99570363 -0.0092223461 6.462663e-22)
(0.99621918 -0.010672727 -1.1376262e-21)
(0.99698543 -0.012167524 -7.0202971e-22)
(0.9980317 -0.013597615 -8.214154e-22)
(0.99939334 -0.014988948 3.6547698e-23)
(1.0010925 -0.016207936 -9.6116161e-22)
(1.0031432 -0.017189991 1.1208953e-22)
(1.0054815 -0.017775082 -1.8223952e-21)
(1.0080251 -0.017892152 2.1563278e-21)
(1.0106201 -0.017462624 6.9379246e-22)
(1.0131297 -0.016496743 -7.0673169e-22)
(1.015399 -0.015044879 1.2893645e-21)
(1.0173276 -0.013202428 2.6088028e-23)
(1.0188586 -0.011129173 -8.1110515e-23)
(1.01998 -0.0088958453 0)
(1.0207755 -0.0067593274 0)
(1.0212744 -0.0045411867 1.1962088e-22)
(1.0217017 -0.0027791072 -1.0494115e-21)
(1.021972 -0.00062493049 -8.9406639e-22)
(0.99868527 -0.0011070355 0)
(0.99787007 -0.0014737769 4.7096905e-23)
(0.9974655 -0.0018094793 2.2681635e-22)
(0.99679508 -0.0023696225 2.4962995e-22)
(0.99628288 -0.0030037346 5.2791878e-22)
(0.99569531 -0.0039088236 1.6133097e-22)
(0.99529061 -0.0049382984 -3.8274346e-22)
(0.99498747 -0.0062231951 -8.8932738e-22)
(0.99493478 -0.0075851448 8.1971576e-22)
(0.99508791 -0.0090956955 -4.8196795e-23)
(0.99549631 -0.010599574 8.3052049e-23)
(0.99614003 -0.012163142 1.0901122e-23)
(0.99705072 -0.013688046 -2.190788e-21)
(0.99826524 -0.015218171 2.0069966e-23)
(0.99982775 -0.016634026 1.4273017e-22)
(1.0017747 -0.017874762 -1.0668285e-21)
(1.0040721 -0.018766074 1.9974043e-22)
(1.0066551 -0.019214112 -1.0205061e-21)
(1.00938 -0.019106209 2.2755141e-21)
(1.0121034 -0.01842244 -1.2053631e-21)
(1.0146482 -0.017174888 1.0334115e-21)
(1.0168854 -0.01545924 7.288966e-22)
(1.0187083 -0.013388573 -3.3718612e-24)
(1.020097 -0.011142088 -2.8899067e-21)
(1.0210499 -0.0087976195 -6.8628351e-22)
(1.0216828 -0.0066063811 8.1586035e-23)
(1.0220301 -0.0043880236 1.3830661e-21)
(1.0223421 -0.0026634321 -6.2907236e-22)
(1.0225135 -0.00057720002 1.15628e-21)
(0.99866845 -0.0010227006 -4.2407098e-23)
(0.99783542 -0.0013641075 0)
(0.997413 -0.0016805101 0)
(0.99670475 -0.0022105319 0)
(0.99614373 -0.0028189608 -1.2715254e-22)
(0.99548311 -0.0036996219 4.7965438e-22)
(0.9949953 -0.004721104 5.8260202e-23)
(0.99459597 -0.0060126281 1.2906092e-22)
(0.99444816 -0.0073997948 1.297501e-21)
(0.99450165 -0.0089462379 -1.554611e-21)
(0.99480788 -0.010494705 3.6694102e-22)
(0.99533357 -0.012111695 -1.7597197e-22)
(0.99610825 -0.01371004 9.0842053e-22)
(0.99716658 -0.01535298 4.1154956e-23)
(0.99857142 -0.016940205 1.878466e-21)
(1.0003816 -0.018421349 2.1454345e-22)
(1.0025957 -0.019612916 -1.3154858e-21)
(1.0051718 -0.020402143 -6.4587131e-22)
(1.0079838 -0.020644991 1.1191377e-21)
(1.0108896 -0.020286809 -9.7680167e-24)
(1.0136998 -0.019304327 -1.1531713e-21)
(1.0162541 -0.017760376 -1.2677819e-22)
(1.0184129 -0.015770956 1.94391e-21)
(1.0201025 -0.013479088 -1.4227141e-21)
(1.0213177 -0.011072729 5.0791776e-23)
(1.0220874 -0.0086352965 -5.4689265e-22)
(1.022545 -0.0064078131 1.4271506e-21)
(1.0227369 -0.0042063298 1.8866529e-22)
(1.0229328 -0.0025320549 2.269268e-21)
(1.0230047 -0.00052582941 5.8869271e-22)
(0.99865198 -0.00093478828 4.6661356e-23)
(0.99780516 -0.0012605387 3.5549466e-23)
(0.99737015 -0.0015567953 0)
(0.99663124 -0.0020568408 0)
(0.99602566 -0.0026367893 0)
(0.9952938 -0.003489227 0)
(0.99472126 -0.0044977484 0)
(0.99422502 -0.0057921822 -3.3576661e-23)
(0.99398399 -0.0072006271 -3.7865118e-22)
(0.99394256 -0.0087789783 1.6930382e-21)
(0.99415257 -0.010364176 5.0519948e-23)
(0.99456656 -0.012021752 3.9930395e-22)
(0.99520856 -0.013673213 -1.7486927e-21)
(0.99610627 -0.0154025 1.6043999e-21)
(0.9973378 -0.017133413 -1.7898467e-22)
(0.99898259 -0.018831241 8.0213076e-22)
(1.0010734 -0.020310163 -9.7372665e-22)
(1.0035946 -0.021442142 7.2821361e-22)
(1.0064448 -0.022056055 3.3244921e-22)
(1.0094919 -0.022063582 3.3846661e-22)
(1.0125426 -0.021400039 1.4402939e-22)
(1.0154144 -0.020094957 4.9672395e-22)
(1.0179288 -0.018234838 -1.2432047e-23)
(1.0199755 -0.015972705 -7.8992133e-22)
(1.0214936 -0.013469618 2.3875666e-22)
(1.0225141 -0.010921012 2.6028203e-21)
(1.0230829 -0.0084112233 6.5563029e-22)
(1.0233586 -0.0061662542 -6.3337226e-22)
(1.0233927 -0.0039986894 2.2302325e-23)
(1.0234729 -0.0023865153 -1.4823338e-21)
(1.0234463 -0.00047134404 -3.6071003e-22)
(0.99863311 -0.00084046048 2.6219492e-23)
(0.99777506 -0.0011524935 6.8107179e-23)
(0.99733275 -0.0014406621 1.5173633e-22)
(0.99657176 -0.0019083226 3.119908e-22)
(0.99592987 -0.0024597098 0)
(0.99513128 -0.0032789015 0)
(0.99447111 -0.0042699484 6.3129523e-23)
(0.99387241 -0.0055624937 6.9566365e-22)
(0.99353725 -0.0069903363 -1.0571632e-21)
(0.99340601 -0.0085970032 1.3749606e-21)
(0.99352748 -0.010214023 -1.5175978e-22)
(0.9938378 -0.011900497 -1.3556396e-21)
(0.99435315 -0.013587109 5.1469619e-22)
(0.99509066 -0.015376831 -2.186268e-22)
(0.99613857 -0.017222023 -1.3847798e-21)
(0.99759491 -0.019109513 1.051372e-23)
(0.99952621 -0.020856026 2.801517e-21)
(1.0019455 -0.022324069 -1.3465227e-22)
(1.0047815 -0.023319803 -2.3349645e-21)
(1.0079199 -0.023724828 2.8271717e-21)
(1.0111743 -0.023432148 -1.2912166e-21)
(1.0143475 -0.022429514 -9.5977383e-22)
(1.0172301 -0.020770483 2.8297415e-21)
(1.0196657 -0.018587197 9.2715355e-22)
(1.0215549 -0.016056645 -7.0090252e-22)
(1.0228729 -0.013358402 1.508759e-21)
(1.0236745 -0.010688564 7.6800621e-22)
(1.0240318 -0.0081281461 4.1108017e-22)
(1.0241198 -0.0058850453 -7.8405202e-22)
(1.023996 -0.0037678539 -6.3951591e-23)
(1.0239627 -0.0022283306 -5.4678597e-22)
(1.0238424 -0.00041424479 -3.4089403e-23)
(0.99861722 -0.0007446904 -8.2744735e-24)
(0.99774581 -0.0010360581 -6.1288777e-23)
(0.99729584 -0.001318161 -1.4690241e-22)
(0.99651968 -0.0017693988 -2.0861361e-22)
(0.99585276 -0.0022872101 0)
(0.99499901 -0.0030722299 0)
(0.99425171 -0.004038378 0)
(0.99354087 -0.0053247239 -1.6407202e-23)
(0.99310259 -0.0067691235 1.4628475e-21)
(0.99288422 -0.0084036724 1.3362474e-21)
(0.99292687 -0.010048134 -1.9274799e-22)
(0.99314404 -0.01175515 -2.2409769e-22)
(0.99354141 -0.013460241 2.9516441e-21)
(0.99412299 -0.01528636 -1.3081375e-21)
(0.99498288 -0.017216302 -9.0102407e-23)
(0.99623353 -0.019263398 0)
(0.99797436 -0.021253146 7.9047355e-22)
(1.0002477 -0.023041969 -8.5253695e-22)
(1.0030158 -0.024420687 -1.8503063e-22)
(1.0061895 -0.025244972 3.9582228e-22)
(1.0095992 -0.025368061 -1.2270434e-21)
(1.013044 -0.02473158 5.8298458e-22)
(1.0162903 -0.023345566 -1.5195247e-21)
(1.019141 -0.021315278 -2.2362249e-21)
(1.0214455 -0.01880503 1.0590711e-21)
(1.0231401 -0.016018378 8.5198421e-23)
(1.0242261 -0.01314553 -8.0402463e-23)
(1.024792 -0.010378011 3.8463148e-23)
(1.0249278 -0.0077901882 -1.0901004e-21)
(1.0248261 -0.0055678486 -7.1385366e-22)
(1.0245462 -0.0035166573 1.2459223e-22)
(1.0244033 -0.0020592658 1.2534842e-21)
(1.0241968 -0.00035603402 -2.9016268e-22)
(0.99860504 -0.00064749014 7.3662138e-24)
(0.99772183 -0.00091823204 -4.1563622e-23)
(0.99725904 -0.0011852133 -2.0197044e-22)
(0.99646727 -0.0016208217 -4.5757701e-22)
(0.99578544 -0.0021266806 8.7650835e-23)
(0.99489312 -0.0028680623 1.0149459e-22)
(0.99407088 -0.0038076161 1.0165003e-21)
(0.99324118 -0.0050783633 -6.172665e-22)
(0.99268107 -0.0065376872 -2.9167083e-22)
(0.99236758 -0.0081992773 -2.6353693e-21)
(0.992341 -0.009871094 1.0900729e-21)
(0.99247903 -0.011590538 2.053788e-21)
(0.99277032 -0.013301416 1.0124308e-22)
(0.99320416 -0.015141049 -1.6758153e-21)
(0.99387662 -0.017127315 -1.6607054e-21)
(0.99491107 -0.019302977 5.2001729e-23)
(0.99643651 -0.021507039 3.6800484e-22)
(0.99852457 -0.023595083 4.0261685e-22)
(1.0011725 -0.025347395 -3.1260757e-22)
(1.0043215 -0.026602088 -5.0423792e-23)
(1.0078289 -0.027176173 1.1108918e-21)
(1.0115013 -0.026964698 -2.5358374e-21)
(1.0150917 -0.025926435 -2.8455475e-22)
(1.0183668 -0.024127396 1.4814947e-21)
(1.0211274 -0.021711245 -3.1169891e-21)
(1.0232548 -0.018880147 -1.1638429e-21)
(1.0247139 -0.015855478 -1.1346898e-21)
(1.0255433 -0.012832779 -2.3312634e-22)
(1.0258577 -0.0099936859 -7.8176281e-22)
(1.0257669 -0.0074016641 7.3530691e-23)
(1.0254755 -0.0052186101 -3.1176918e-22)
(1.0250431 -0.0032479902 -6.136976e-23)
(1.0247956 -0.0018817028 -4.0226985e-22)
(1.0245039 -0.0003008042 2.0539607e-22)
(0.99859551 -0.00054939639 2.0164705e-23)
(0.99770414 -0.00079836283 5.4274886e-23)
(0.99722885 -0.0010508794 1.7893211e-22)
(0.99641673 -0.0014578249 1.2494258e-22)
(0.99571671 -0.0019515785 -2.9232851e-22)
(0.99480132 -0.0026792389 -6.7496556e-22)
(0.99392648 -0.0035754254 -1.352215e-22)
(0.99298861 -0.0048286146 0)
(0.99228661 -0.0062938775 -8.2816665e-22)
(0.99185306 -0.0079849779 -3.2943759e-21)
(0.99175669 -0.0096838091 -5.7994556e-22)
(0.99183232 -0.01141269 -7.6656858e-22)
(0.99203397 -0.013117019 0)
(0.99233242 -0.014951562 4.5642545e-22)
(0.99282328 -0.016966449 3.0176682e-21)
(0.99363694 -0.019239638 -1.4869806e-22)
(0.99492921 -0.021627011 -3.1250722e-21)
(0.99679855 -0.023986178 0)
(0.99927761 -0.026094398 1.301286e-21)
(1.0023409 -0.027778308 2.0149355e-21)
(1.0058813 -0.028827715 -1.6538172e-21)
(1.0097251 -0.029091677 1.2574881e-21)
(1.0136238 -0.028474048 0)
(1.0173169 -0.02699038 -2.6782923e-21)
(1.0205582 -0.024750215 1.4732319e-21)
(1.0231742 -0.021945128 -1.0845415e-22)
(1.0250736 -0.018806349 -1.3653607e-21)
(1.026263 -0.015567985 1.3258307e-21)
(1.0268125 -0.012424039 3.6504496e-23)
(1.0268654 -0.009540486 -2.153718e-21)
(1.0265453 -0.006967662 2.3063896e-21)
(1.0260669 -0.0048413688 9.3113706e-22)
(1.0254872 -0.0029647682 0)
(1.0251389 -0.0016980192 1.4361235e-23)
(1.0247499 -0.00026100229 -4.7330147e-24)
(0.99858763 -0.00045055995 -1.1872657e-23)
(0.99769101 -0.00067733352 4.1292829e-23)
(0.99720704 -0.00091387936 9.185801e-23)
(0.9963754 -0.0012937579 8.2894701e-23)
(0.99565019 -0.0017569323 3.710503e-23)
(0.9947054 -0.0024675548 -2.6588271e-22)
(0.9938032 -0.0033623796 -8.7909588e-22)
(0.99278623 -0.00457118 -1.1091688e-22)
(0.99194361 -0.0060424138 0)
(0.99135425 -0.0077573467 1.0568827e-21)
(0.9911648 -0.0094906308 -1.0338388e-21)
(0.99118903 -0.011224874 -1.1733581e-22)
(0.99132276 -0.012915402 -9.2810057e-22)
(0.99150338 -0.014726211 1.5028622e-21)
(0.99182347 -0.016746264 1.6025629e-21)
(0.99241806 -0.019085819 1.9401286e-21)
(0.99346582 -0.021624143 -6.9602149e-21)
(0.99509036 -0.02422283 -3.1823828e-21)
(0.99735715 -0.026660237 1.7000938e-21)
(1.0002757 -0.02876182 -4.2637422e-21)
(1.0037804 -0.030297423 2.5396501e-21)
(1.0077287 -0.031076945 -3.2626569e-21)
(1.0118846 -0.030946639 0)
(1.0159714 -0.02986429 -6.8885013e-22)
(1.0197033 -0.027891143 3.4723892e-22)
(1.0228491 -0.025194381 1.6294838e-21)
(1.025259 -0.022005515 2.2961805e-22)
(1.0268851 -0.01858073 1.3509788e-22)
(1.027772 -0.015158524 1.0190957e-21)
(1.0280247 -0.011924362 0)
(1.0278092 -0.0090244967 1.8414101e-21)
(1.0272608 -0.0064931609 2.5756866e-21)
(1.0265999 -0.0044401343 -1.2524068e-21)
(1.025879 -0.0026696543 4.5078922e-23)
(1.0254324 -0.0015086916 -5.1415303e-23)
(1.0249593 -0.0002368515 9.728869e-23)
(0.99858103 -0.0003511135 -3.8202448e-24)
(0.99768053 -0.00055538776 1.6279652e-23)
(0.99719137 -0.00077550362 -4.7058723e-23)
(0.99634626 -0.0011257414 -1.9923911e-23)
(0.99559521 -0.0015617178 2.5097379e-22)
(0.9946131 -0.0022274663 4.200798e-22)
(0.99367258 -0.0031141853 5.4320814e-23)
(0.99261627 -0.004337307 -5.6436154e-22)
(0.99166503 -0.0057755181 -1.0984309e-22)
(0.99090321 -0.007519854 -9.0204137e-22)
(0.9905737 -0.0092873533 6.5099675e-23)
(0.99053763 -0.011031653 7.1267362e-22)
(0.99062277 -0.012701033 3.1153673e-22)
(0.99070986 -0.014476008 8.1207334e-22)
(0.99087532 -0.016477044 -6.3236215e-21)
(0.99125819 -0.018855504 -6.4412964e-22)
(0.99205724 -0.021511355 2.647854e-21)
(0.99341767 -0.024314861 3.0780041e-21)
(0.99543604 -0.027049393 -3.54344e-21)
(0.99815485 -0.029545248 -1.1564851e-21)
(1.0015542 -0.031565939 8.0017189e-22)
(1.0055329 -0.032887462 -3.7234356e-21)
(1.0098807 -0.033302434 3.3833015e-21)
(1.0143194 -0.032704309 0)
(1.0185328 -0.031095239 1.2515606e-21)
(1.0222363 -0.028601475 3.2070555e-21)
(1.025215 -0.025441663 -1.6445422e-21)
(1.0273612 -0.021885053 3.1710734e-21)
(1.0286695 -0.018203501 4.1800976e-23)
(1.0292279 -0.014631659 -1.1890695e-21)
(1.0291709 -0.011340422 -1.8905861e-21)
(1.0286847 -0.0084519669 6.2413024e-22)
(1.0279118 -0.0059834492 -9.8681379e-23)
(1.0270747 -0.0040187534 -1.0737981e-21)
(1.0262199 -0.0023647162 -2.6028296e-22)
(1.0256777 -0.0013131811 -2.2569903e-23)
(1.0251403 -0.00019569091 8.7009814e-23)
(0.99857582 -0.00025116861 1.5285326e-23)
(0.99767183 -0.00043272819 7.0629289e-24)
(0.99717917 -0.0006360438 -8.398569e-23)
(0.99632632 -0.0009558468 -9.6841154e-23)
(0.99555645 -0.001360972 3.4452194e-23)
(0.99453517 -0.0019877874 -6.1721669e-23)
(0.99354574 -0.0028254293 -1.7684053e-22)
(0.99243352 -0.004050615 -4.3959069e-23)
(0.99143333 -0.0055359095 0)
(0.99052619 -0.0072596934 1.9343422e-22)
(0.99001676 -0.009076561 0)
(0.98987901 -0.010831204 0)
(0.98992069 -0.01248352 8.6956025e-22)
(0.98994138 -0.0142071 -1.7797466e-22)
(0.98997476 -0.016172532 -9.4795872e-22)
(0.99015859 -0.01856043 -2.2868922e-21)
(0.99071078 -0.021303443 4.1974411e-21)
(0.99179573 -0.024274962 3.3869712e-21)
(0.99353649 -0.027269132 3.1852682e-21)
(0.99600725 -0.030128309 1.3919762e-21)
(0.99923376 -0.032618453 -2.1872315e-21)
(1.0031641 -0.034495517 3.2382654e-21)
(1.0076275 -0.035500729 1.7458664e-22)
(1.0123588 -0.035463629 -2.2186741e-21)
(1.0170256 -0.034316655 -2.4350912e-22)
(1.0212965 -0.032131043 7.6352515e-22)
(1.0248912 -0.029094679 -7.9536272e-23)
(1.0276321 -0.025478489 -1.9328191e-21)
(1.0294567 -0.021580056 -1.5603726e-22)
(1.0304096 -0.017677742 -3.4311518e-21)
(1.030618 -0.013994176 -5.5304095e-22)
(1.0302441 -0.010679548 -1.6057658e-22)
(1.0294886 -0.0078297486 -1.9877443e-21)
(1.0284977 -0.0054438155 -9.5394319e-22)