/*--------------------------------*- C++ -*----------------------------------*\
| =========                 |                                                 |
| \\      /  F ield         | OpenFOAM: The Open Source CFD Toolbox           |
|  \\    /   O peration     | Version:  5.0                                   |
|   \\  /    A nd           | Web:      www.OpenFOAM.org                      |
|    \\/     M anipulation  |                                                 |
\*---------------------------------------------------------------------------*/
FoamFile
{
    version     2.0;
    format      ascii;
    class       volVectorField;
    location    "20";
    object      UMean;
}
// * * * * * * * * * * * * * * * * * * * * * * * * * * * * * * * * * * * * * //

dimensions      [0 1 -1 0 0 0 0];

internalField   nonuniform List<vector> 
9200
(
(1.0008399 -0.00010260891 -3.6887635e-25)
(1.0007963 -0.00032620156 -7.0038548e-23)
(1.0011643 -0.00012785298 0)
(1.0007456 -0.00049787926 3.4417854e-23)
(1.0011083 -0.0004049024 -6.4608666e-23)
(1.0013528 -0.00014328371 0)
(1.0006636 -0.00066873416 3.6171867e-24)
(1.0010393 -0.0006185373 -7.8119758e-24)
(1.0012896 -0.00045373914 0)
(1.0016501 -0.00016658708 0)
(1.0005756 -0.00079711814 -5.8048962e-23)
(1.0009323 -0.00083224135 -2.5123365e-23)
(1.0012113 -0.00069348213 -3.5685058e-23)
(1.0015765 -0.0005287929 -2.5558714e-24)
(1.0019224 -0.00018775843 6.5131021e-26)
(1.0004748 -0.0009106397 -5.2634813e-23)
(1.000813 -0.00099306326 1.1938794e-23)
(1.0010897 -0.00093408658 -1.0760561e-22)
(1.0014836 -0.00080887754 -3.5752242e-23)
(1.0018395 -0.00059798379 6.9959469e-24)
(1.0022619 -0.00021348853 1.3683439e-22)
(1.0003716 -0.00099428873 -3.1476843e-23)
(1.000678 -0.0011363319 -7.1018412e-23)
(1.0009534 -0.0011159191 6.6577512e-23)
(1.0013402 -0.0010913566 1.9908209e-24)
(1.0017338 -0.00091549278 -5.6125687e-23)
(1.002169 -0.00068347129 -5.4219723e-23)
(1.0025998 -0.00023843567 -6.1876288e-24)
(1.0002664 -0.0010584792 6.1377971e-24)
(1.0005372 -0.0012425318 -3.2545454e-23)
(1.0007987 -0.0012785319 -5.8094491e-23)
(1.001178 -0.0013064447 1.68836e-23)
(1.0015713 -0.0012369285 1.079443e-22)
(1.0020488 -0.0010476766 4.8013113e-23)
(1.0024975 -0.0007676722 1.0146828e-22)
(1.0029925 -0.00026644988 -1.627414e-22)
(1.0001629 -0.0011009833 2.5975503e-23)
(1.0003928 -0.0013249412 -5.6136416e-23)
(1.0006367 -0.0013999555 1.4579872e-23)
(1.0009933 -0.0014999987 -3.8278924e-23)
(1.0013863 -0.0014834637 4.0644262e-23)
(1.0018643 -0.0014183848 1.9718356e-22)
(1.0023639 -0.0011781567 -1.1472276e-22)
(1.002881 -0.00086375513 1.8514001e-22)
(1.0033938 -0.00029395937 3.7731136e-22)
(1.0000624 -0.0011260672 -7.4299062e-24)
(1.0002494 -0.001380395 4.8019919e-23)
(1.0004701 -0.0014949198 -2.5432412e-24)
(1.0007987 -0.0016463756 -5.5126995e-23)
(1.001175 -0.001706366 6.7073594e-24)
(1.0016527 -0.0017056209 7.3147484e-23)
(1.0021592 -0.0015979746 -7.3217876e-23)
(1.0027335 -0.001327522 -1.6126424e-22)
(1.0032742 -0.00095971546 -8.5215477e-23)
(1.0038402 -0.00032310292 -2.3836812e-23)
(0.9999665 -0.0011352735 4.113857e-24)
(1.0001092 -0.0014142005 2.5886396e-23)
(1.0003038 -0.0015597662 -4.7659149e-23)
(1.0005972 -0.0017623013 3.0995661e-23)
(1.0009513 -0.0018768242 -1.3229862e-22)
(1.0014101 -0.0019670658 2.3019054e-22)
(1.0019227 -0.0019264921 2.5930479e-23)
(1.0025078 -0.0018045225 -2.9868616e-22)
(1.0031141 -0.0014771361 1.6643397e-22)
(1.0037134 -0.0010631972 -3.427035e-22)
(1.0043003 -0.00035154469 7.150428e-23)
(0.99987623 -0.0011313067 -4.0120772e-24)
(0.99997464 -0.0014280935 -3.8731978e-23)
(1.0001408 -0.0016003214 1.0069144e-23)
(1.0003951 -0.0018432925 0)
(1.0007189 -0.0020132358 2.5908915e-24)
(1.0011515 -0.002170059 -7.1827578e-23)
(1.0016507 -0.0022273315 5.2310899e-23)
(1.0022447 -0.0021820249 1.4539995e-22)
(1.0028694 -0.0020122569 -9.3408295e-23)
(1.0035414 -0.0016390397 2.1760723e-22)
(1.0041678 -0.0011661489 1.6554019e-22)
(1.004796 -0.00038027859 -3.5681649e-23)
(0.99979246 -0.0011162018 -8.24388e-25)
(0.99984704 -0.0014253296 1.997501e-23)
(0.99998352 -0.0016183646 0)
(1.0001956 -0.0018958358 0)
(1.0004846 -0.0021103945 4.0431489e-23)
(1.0008814 -0.0023347397 -1.3977417e-22)
(1.0013591 -0.002464241 1.7328515e-22)
(1.001941 -0.0025301695 -1.3080057e-22)
(1.0025819 -0.0024405443 -5.5133069e-24)
(1.0032787 -0.0022382048 1.1458312e-24)
(1.0039858 -0.0018007034 -3.2496427e-22)
(1.0046595 -0.0012723996 4.2254995e-22)
(1.0053061 -0.00040781137 -7.5761539e-22)
(0.99971529 -0.0010919933 1.2723757e-23)
(0.99972745 -0.0014083805 -2.5722025e-24)
(0.9998339 -0.001617449 3.0816914e-23)
(1.0000023 -0.0019218053 -4.3458059e-23)
(1.0002525 -0.0021753415 5.2665886e-23)
(1.0006074 -0.0024549224 -4.1752922e-23)
(1.0010528 -0.0026588563 -2.1809052e-23)
(1.0016128 -0.0028087094 6.6793654e-24)
(1.0022484 -0.00283833 -6.8527324e-23)
(1.002967 -0.002723543 -5.8073501e-23)
(1.0037078 -0.0024650461 -7.5557764e-23)
(1.0044695 -0.001968203 -2.1404388e-22)
(1.0051678 -0.0013765453 -1.5943109e-22)
(1.0058426 -0.00043446071 2.233591e-22)
(0.99964474 -0.0010605005 -3.2637495e-23)
(0.99961647 -0.0013797783 -7.2433259e-23)
(0.99969322 -0.0016003137 -8.303003e-24)
(0.99981725 -0.0019251779 5.828045e-24)
(1.0000265 -0.002209987 -6.2183432e-24)
(1.0003343 -0.0025381187 5.2533554e-23)
(1.0007403 -0.0028040381 -1.6927699e-23)
(1.0012662 -0.0030407063 2.7603935e-23)
(1.0018854 -0.0031615357 -4.7215858e-23)
(1.0026036 -0.0031778288 -2.8397705e-24)
(1.003375 -0.0030096762 4.3704286e-24)
(1.0041789 -0.0027015361 -4.7887037e-23)
(1.0049722 -0.0021330886 3.6516962e-22)
(1.0057047 -0.0014799424 -2.1190242e-22)
(1.0063909 -0.00045927861 1.9100392e-22)
(0.99958071 -0.0010233813 -1.0331195e-23)
(0.99951438 -0.0013417835 2.6149771e-23)
(0.99956223 -0.0015697912 -3.28418e-23)
(0.99964236 -0.0019090265 3.9909431e-23)
(0.9998093 -0.002218652 -4.8986781e-23)
(1.0000668 -0.0025862061 6.7376091e-23)
(1.0004272 -0.0029076482 -1.6132316e-22)
(1.0009101 -0.0032178662 1.4523016e-23)
(1.0014996 -0.0034343867 3.5467489e-23)
(1.002205 -0.0035529543 -1.4654204e-22)
(1.0029846 -0.003523563 4.5260882e-22)
(1.0038273 -0.0033102131 -2.7384241e-22)
(1.0046728 -0.0029359227 -1.2302695e-22)
(1.0055065 -0.0022975446 -2.6977811e-23)
(1.0062559 -0.001578898 2.4157629e-23)
(1.0069561 -0.00048221363 -2.2289393e-22)
(0.99952296 -0.00098210189 0)
(0.99942117 -0.0012964517 4.6027688e-23)
(0.99944135 -0.0015283881 1.5327315e-23)
(0.9994787 -0.00187659 0)
(0.99960308 -0.0022046849 0)
(0.99980838 -0.0026038346 0)
(1.0001188 -0.0029714625 1.8453923e-23)
(1.0005509 -0.0033482518 -4.4571586e-23)
(1.0011004 -0.0036473854 2.1028706e-22)
(1.0017781 -0.0038741212 -9.5632458e-23)
(1.0025528 -0.0039547124 5.5961874e-23)
(1.0034123 -0.0038894468 -9.5206089e-23)
(1.0043067 -0.003610577 3.6435491e-23)
(1.0052025 -0.0031714704 1.4063851e-22)
(1.0060584 -0.0024557776 9.5077781e-24)
(1.0068269 -0.0016733247 1.1472864e-22)
(1.0075279 -0.00050265272 0)
(0.99947117 -0.00093786823 -2.9577933e-23)
(0.99933662 -0.001245582 -4.6231006e-23)
(0.99933065 -0.0014784032 1.1551992e-22)
(0.99932694 -0.001830774 8.6431019e-23)
(0.99940928 -0.002171662 8.9442688e-23)
(0.99956164 -0.0025946465 0)
(0.99981917 -0.0030003713 1.5194756e-22)
(1.0001949 -0.003433424 -6.8486806e-23)
(1.0006953 -0.0038086042 -2.7374295e-22)
(1.0013331 -0.0041304378 2.965708e-22)
(1.0020867 -0.0043290241 5.7320453e-23)
(1.0029488 -0.0043833473 7.3763177e-23)
(1.0038713 -0.004258277 -3.3050041e-22)
(1.0048263 -0.0039151423 4.2191872e-22)
(1.0057547 -0.0034000161 2.4609264e-23)
(1.0066336 -0.0026076633 8.3008953e-22)
(1.0074073 -0.0017606598 3.0856017e-22)
(1.0081075 -0.00052039198 3.1007593e-22)
(0.99942496 -0.00089169654 1.983315e-24)
(0.99926038 -0.0011907479 -3.4576694e-23)
(0.99922997 -0.0014218665 -3.372495e-24)
(0.99918733 -0.0017742688 7.4429534e-23)
(0.99922882 -0.0021228161 -1.2754122e-23)
(0.99932856 -0.0025626148 -1.588869e-23)
(0.99953163 -0.002998243 -2.3987061e-22)
(0.99984691 -0.0034784288 -3.5911279e-22)
(1.000291 -0.0039192606 -1.5214112e-22)
(1.0008781 -0.0043297532 2.3869843e-23)
(1.001597 -0.0046341157 -7.5785888e-23)
(1.0024444 -0.0048182566 1.9473146e-22)
(1.0033803 -0.0048194544 -2.4502233e-22)
(1.0043753 -0.0046356991 3.1885942e-23)
(1.005374 -0.0042136498 3.0212177e-23)
(1.0063358 -0.0036214721 -1.3624422e-22)
(1.0072222 -0.0027491353 2.9849446e-22)
(1.0079985 -0.0018401702 -2.2537487e-23)
(1.0086871 -0.00053505897 3.0343554e-22)
(0.99938391 -0.00084448511 1.5793559e-23)
(0.999192 -0.00113329 3.3072712e-23)
(0.99913898 -0.0013605511 -1.9341143e-22)
(0.9990598 -0.0017094691 -4.8230388e-23)
(0.99906212 -0.002061171 1.3284116e-23)
(0.9991104 -0.0025113855 -1.084452e-23)
(0.9992586 -0.0029693814 3.2733818e-23)
(0.99951097 -0.0034873196 4.8758128e-23)
(0.99989336 -0.0039844136 -6.4020776e-23)
(1.0004208 -0.0044727636 -4.0330596e-22)
(1.0010924 -0.0048773611 1.4262324e-22)
(1.0019097 -0.0051801332 4.4507337e-23)
(1.002841 -0.0053206226 -4.2612122e-23)
(1.0038609 -0.0052700765 1.6597541e-24)
(1.0049134 -0.0050094688 5.9076384e-23)
(1.0059567 -0.0045061119 -4.866552e-22)
(1.0069359 -0.0038299902 1.9313491e-22)
(1.0078254 -0.0028789755 -4.9802965e-22)
(1.0085926 -0.0019101129 -1.2714187e-22)
(1.0092656 -0.00054646151 -3.2336722e-22)
(0.9993476 -0.00079694666 7.4715706e-24)
(0.99913096 -0.0010743263 6.0362001e-23)
(0.99905722 -0.0012959805 5.367884e-23)
(0.99894406 -0.0016384929 6.607634e-23)
(0.99890925 -0.0019894419 -3.94926e-23)
(0.99890791 -0.0024444155 -6.7765169e-23)
(0.99900177 -0.0029177928 2.5004625e-22)
(0.99919015 -0.0034647266 5.5576814e-22)
(0.99950714 -0.0040081949 3.1742594e-23)
(0.99996791 -0.0045643711 0)
(1.0005813 -0.0050587383 -7.4464749e-23)
(1.0013538 -0.0054755753 2.6449345e-22)
(1.0022637 -0.0057459783 3.1019006e-22)
(1.0032902 -0.0058447149 -4.0059856e-22)
(1.0043818 -0.0057212675 9.4722411e-23)
(1.0054932 -0.0053798205 -3.7117871e-22)
(1.0065653 -0.0047850031 6.3269276e-23)
(1.0075568 -0.0040237972 2.1963997e-22)
(1.0084357 -0.0029943432 -3.4395254e-22)
(1.0091885 -0.001969646 -2.1077215e-23)
(1.0098373 -0.0005543972 -3.0875952e-22)
(0.99931557 -0.00074966727 -7.4754485e-24)
(0.99907671 -0.0010147831 5.03989e-23)
(0.99898412 -0.0012294498 8.8386189e-23)
(0.99883962 -0.0015631705 -1.0296589e-22)
(0.99876998 -0.0019100546 -1.174256e-22)
(0.99872132 -0.0023648431 -7.8547678e-24)
(0.99876221 -0.0028473294 0)
(0.99888671 -0.0034150454 -5.675929e-23)
(0.99913617 -0.0039954721 -1.984995e-22)
(0.99952512 -0.0046086684 -3.1093547e-22)
(1.0000715 -0.0051827734 6.8030351e-23)
(1.0007863 -0.0057035919 1.4234028e-22)
(1.0016581 -0.0061010476 -5.292528e-23)
(1.0026729 -0.0063419288 -6.3468143e-23)
(1.0037854 -0.0063752161 2.5058224e-22)
(1.0049513 -0.0061736495 -2.5621916e-22)
(1.006107 -0.0057375595 4.9486746e-23)
(1.0072021 -0.0050479878 -3.5876916e-22)
(1.0081911 -0.0041986684 -1.7688767e-23)
(1.0090518 -0.0030937975 -4.6088931e-24)
(1.0097801 -0.0020176776 -1.870116e-22)
(1.0103999 -0.00055874701 0)
(0.99928742 -0.00070311425 6.3010651e-24)
(0.9990287 -0.00095541673 -2.892571e-23)
(0.99891906 -0.0011620342 -7.8179331e-24)
(0.99874588 -0.0014850724 -1.4452004e-22)
(0.99864384 -0.0018251232 -1.1087545e-22)
(0.99855054 -0.0022755064 6.5016606e-23)
(0.9985404 -0.0027615275 5.3762673e-23)
(0.99860215 -0.0033425746 2.640005e-22)
(0.99878333 -0.003950972 5.7642943e-23)
(0.99909717 -0.004610682 4.1101957e-23)
(0.99956963 -0.005253341 -1.3130215e-23)
(1.0002156 -0.0058680624 -3.4436118e-22)
(1.0010343 -0.0063836034 1.5330901e-23)
(1.0020189 -0.0067658535 3.6188742e-22)
(1.0031329 -0.006951708 -1.3893271e-22)
(1.0043357 -0.006913352 -2.9205131e-22)
(1.0055629 -0.0066165062 -2.9925396e-23)
(1.0067575 -0.0060797985 6.2671898e-22)
(1.00786 -0.0052894079 4.5824047e-23)
(1.0088374 -0.0043523819 -2.2645229e-22)
(1.0096676 -0.0031754794 0)
(1.0103651 -0.0020536019 4.2078833e-22)
(1.010949 -0.00055944546 7.4117281e-24)
(0.99926276 -0.00065764976 4.5771993e-23)
(0.99898634 -0.0008968301 -4.6241812e-23)
(0.99886142 -0.0010946221 8.1221155e-23)
(0.99866214 -0.0014055144 3.3483946e-23)
(0.99853022 -0.0017364847 -1.4669131e-22)
(0.99839515 -0.0021788968 0)
(0.99833641 -0.0026636256 1.44972e-23)
(0.9983373 -0.0032513148 4.6284345e-23)
(0.99845065 -0.0038794064 2.441328e-22)
(0.99868774 -0.0045754371 4.7572574e-22)
(0.99908144 -0.0052754722 -1.1153483e-22)
(0.99964974 -0.0059724199 -2.1959203e-22)
(1.0004017 -0.0065965648 2.8738118e-22)
(1.0013384 -0.0071127217 -1.7525775e-22)
(1.0024339 -0.0074532118 3.9462087e-22)
(1.0036538 -0.0075774006 4.0366636e-22)
(1.0049365 -0.0074471146 -4.324958e-22)
(1.0062205 -0.0070464921 2.4077883e-22)
(1.0074382 -0.0063993431 -8.963356e-22)
(1.0085379 -0.005506141 3.3451473e-22)
(1.0094896 -0.0044820144 5.2831464e-22)
(1.0102804 -0.0032382619 -4.5589104e-22)
(1.010939 -0.0020769276 2.7030588e-22)
(1.0114822 -0.00055652221 6.664701e-24)
(0.99924117 -0.00061355406 -2.2776048e-23)
(0.9989491 -0.00083949482 -5.4706453e-23)
(0.99881054 -0.001027925 -5.6976837e-23)
(0.99858766 -0.0013255976 -2.9898674e-22)
(0.99842838 -0.0016456874 7.3053687e-23)
(0.99825454 -0.0020772078 -2.0010817e-22)
(0.99814993 -0.0025564881 1.5634198e-23)
(0.99809246 -0.0031449819 -2.9656332e-22)
(0.99813939 -0.0037852299 3.4866318e-24)
(0.99829954 -0.0045080627 1.3985373e-22)
(0.99861154 -0.0052543819 1.2580725e-23)
(0.99909544 -0.006021512 4.6798116e-22)
(0.99976944 -0.0067426354 -7.4401283e-23)
(1.0006421 -0.0073841267 -4.3829487e-23)
(1.0016991 -0.0078741306 -2.8409313e-23)
(1.0029144 -0.0081663475 8.6324418e-23)
(1.0042329 -0.0082060438 -8.3526573e-23)
(1.0055928 -0.0079728701 3.7214168e-22)
(1.0069187 -0.0074548772 0)
(1.0081486 -0.0066920456 6.4684402e-23)
(1.0092295 -0.0056940181 2.1735103e-23)
(1.0101446 -0.0045856837 -4.4305219e-23)
(1.0108854 -0.0032811855 9.5296065e-24)
(1.0114987 -0.0020874512 -3.9364968e-22)
(1.0119964 -0.00055001497 -1.6135436e-22)
(0.99922228 -0.00057103998 -2.8914382e-23)
(0.99891641 -0.00078376487 4.2023586e-23)
(0.99876578 -0.00096251553 3.7922167e-23)
(0.9985217 -0.0012462105 3.5496396e-23)
(0.99833752 -0.001554048 3.0647633e-22)
(0.99812795 -0.0019722958 5.7168063e-23)
(0.99798039 -0.0024426718 1.8388564e-23)
(0.99786749 -0.003026889 1.7197992e-23)
(0.99785017 -0.0036726443 2.656197e-22)
(0.99793441 -0.0044135031 7.1989466e-23)
(0.99816348 -0.0051955446 1.6825979e-22)
(0.99855849 -0.0060206113 -6.5657843e-23)
(0.9991455 -0.0068262101 -2.7169695e-22)
(0.99994002 -0.0075816921 -1.0992795e-23)
(1.0009395 -0.0082143511 -1.8577525e-22)
(1.0021281 -0.0086724881 5.9684256e-23)
(1.00346 -0.0088917745 3.9767878e-22)
(1.0048768 -0.0088339739 -5.09137e-22)
(1.0063006 -0.0084804473 -8.5490696e-22)
(1.0076575 -0.0078364309 4.6324742e-24)
(1.0088826 -0.006952269 9.7693407e-22)
(1.0099318 -0.0058501959 2.5686265e-22)
(1.0107972 -0.0046616482 -4.9490206e-22)
(1.0114793 -0.0033037733 4.1730258e-22)
(1.0120411 -0.0020851466 -2.7323478e-22)
(1.0124893 -0.00054014085 1.4964786e-23)
(0.99920578 -0.00053025678 5.6233246e-25)
(0.99888778 -0.00072990594 2.2299073e-23)
(0.99872652 -0.00089882883 -1.037822e-22)
(0.99846348 -0.0011680811 1.5080312e-22)
(0.99825679 -0.0014626329 -1.892382e-22)
(0.99801451 -0.0018657673 2.1272613e-22)
(0.99782702 -0.0023243463 2.2950075e-22)
(0.9976619 -0.0029000351 1.4736178e-22)
(0.99758305 -0.00354543 -3.999077e-22)
(0.99759339 -0.0042965048 -1.8587383e-22)
(0.9977398 -0.0051043646 -3.9529957e-23)
(0.99804346 -0.0059754528 -4.832852e-22)
(0.99853695 -0.0068523996 4.4801774e-22)
(0.99924159 -0.0077090265 -3.0876106e-22)
(1.0001663 -0.0084740204 1.8295843e-23)
(1.0013062 -0.0090936096 1.4965529e-22)
(1.0026275 -0.0094942843 -3.75469e-22)
(1.0040787 -0.0096261387 4.7316003e-22)
(1.0055833 -0.0094497944 -4.1841354e-22)
(1.0070611 -0.0089635622 1.082514e-22)
(1.0084315 -0.0081838849 0)
(1.0096371 -0.0071759389 4.3177759e-22)
(1.0106389 -0.005971904 3.2689132e-23)
(1.0114435 -0.0047088463 0)
(1.0120582 -0.0033058782 -5.1501239e-22)
(1.0125635 -0.0020701965 -2.5947352e-23)
(1.012959 -0.00052705725 1.0667885e-22)
(0.99919148 -0.00049134048 7.9558035e-24)
(0.99886278 -0.00067808861 7.3398156e-24)
(0.99869216 -0.0008372136 -8.9470458e-23)
(0.99841229 -0.0010917648 -1.2222295e-24)
(0.99818537 -0.001372337 -7.3558844e-23)
(0.99791327 -0.0017589226 -2.3713e-22)
(0.99768892 -0.0022034237 -1.4195687e-23)
(0.99747493 -0.0027669684 -2.0108024e-22)
(0.9973377 -0.0034070598 7.9806666e-23)
(0.99727686 -0.0041613864 2.5058187e-22)
(0.99734211 -0.0049861353 -4.5585346e-22)
(0.99755381 -0.0058918706 -2.8731693e-22)
(0.99794958 -0.0068270261 -3.3408475e-22)
(0.99855528 -0.0077707927 1.1789594e-23)
(0.9993903 -0.0086555555 -3.9955037e-22)
(1.0004609 -0.009427953 4.3737979e-23)
(1.0017468 -0.01000891 -7.7235982e-22)
(1.003207 -0.010336886 9.1215016e-22)
(1.0047707 -0.010357167 3.008567e-22)
(1.006355 -0.010046313 -2.7931018e-22)
(1.0078698 -0.0094132357 5.6402848e-22)
(1.0092379 -0.0084917069 -4.7621503e-24)
(1.010406 -0.0073589273 -3.665237e-23)
(1.0113467 -0.0060572279 0)
(1.0120791 -0.0047266893 0)
(1.012619 -0.0032876767 4.2465121e-23)
(1.0130635 -0.0020429874 -2.6679428e-22)
(1.0134038 -0.00051097399 -1.5529694e-22)
(0.99917926 -0.00045430554 0)
(0.99884117 -0.00062847461 1.8204794e-23)
(0.99866224 -0.00077790527 8.8814104e-23)
(0.99836745 -0.0010177257 9.6337805e-23)
(0.99812242 -0.001283843 2.024902e-22)
(0.99782332 -0.0016528813 6.2585305e-23)
(0.99756507 -0.0020814432 -1.4550083e-22)
(0.99730565 -0.0026299764 -3.4018882e-22)
(0.99711338 -0.0032604855 3.1120659e-22)
(0.99698466 -0.0040121782 -1.4641058e-23)
(0.99697121 -0.0048457421 3.2913265e-23)
(0.99709189 -0.0057757114 -5.8689708e-25)
(0.99738796 -0.0067562427 -8.8526145e-22)
(0.99788834 -0.0077726653 1.2316675e-24)
(0.99862149 -0.008762796 5.4923792e-23)
(0.99960423 -0.0096762879 -4.4786501e-22)
(1.0008307 -0.010431563 8.0904754e-23)
(1.0022728 -0.010958797 -4.3351864e-22)
(1.0038695 -0.011187609 9.7464208e-22)
(1.0055406 -0.011077028 -5.1553876e-22)
(1.0071892 -0.010612878 4.5549516e-22)
(1.0087247 -0.009822313 3.2392293e-22)
(1.0100705 -0.0087540884 -6.8038561e-24)
(1.0111846 -0.0074981394 -1.2290139e-21)
(1.0120497 -0.0061048078 -3.1091108e-22)
(1.0127002 -0.0047150983 5.3950037e-23)
(1.0131588 -0.0032496555 4.158772e-22)
(1.0135392 -0.0020040717 -1.3450586e-22)
(1.0138225 -0.00049217505 1.2125557e-22)
(0.999169 -0.00041935551 -1.6268445e-23)
(0.99882278 -0.00058097568 0)
(0.99863646 -0.00072115793 0)
(0.99832847 -0.00094627094 0)
(0.99806725 -0.0011977482 -4.8663263e-23)
(0.99774375 -0.0015484834 1.8202534e-22)
(0.99745446 -0.0019597634 2.3418473e-23)
(0.99715295 -0.0024908811 5.202639e-23)
(0.99690917 -0.0031084082 4.9355282e-22)
(0.99671615 -0.0038523095 -6.0023029e-22)
(0.99662722 -0.0046878236 1.3421216e-22)
(0.99665909 -0.0056324738 -6.670333e-23)
(0.99685541 -0.0066463855 3.6909764e-22)
(0.99724668 -0.0077209529 2.7975236e-23)
(0.99786871 -0.0088009374 7.7450388e-22)
(0.99874772 -0.0098411904 8.321347e-23)
(0.99989222 -0.010760882 -5.5874203e-22)
(1.0012887 -0.011485046 -2.6495525e-22)
(1.0028896 -0.011930742 4.8588933e-22)
(1.0046217 -0.01203839 -3.9051551e-24)
(1.0063875 -0.011773593 -5.0869267e-22)
(1.0080848 -0.011140653 -4.6641202e-23)
(1.00962 -0.010183032 8.669046e-22)
(1.0109244 -0.0089663739 -6.158284e-22)
(1.0119667 -0.0075910898 -2.6441133e-26)
(1.0127434 -0.0061139805 -2.1602462e-22)
(1.0133028 -0.0046745095 4.8609569e-22)
(1.0136752 -0.003192583 1.2124629e-22)
(1.0139888 -0.0019541378 4.1733869e-22)
(1.0142142 -0.00047107137 1.1387645e-23)
(0.99915992 -0.00038292952 1.8212997e-23)
(0.99880722 -0.00053614402 1.3717324e-23)
(0.99861457 -0.00066686555 0)
(0.99829504 -0.00087777748 0)
(0.99801935 -0.0011144428 0)
(0.99767385 -0.0014465083 0)
(0.9973561 -0.0018393724 0)
(0.99701568 -0.0023513332 -1.3473805e-23)
(0.99672382 -0.0029529484 -1.3880198e-22)
(0.99647039 -0.0036849817 6.4919066e-22)
(0.99630964 -0.004516341 2.1788455e-23)
(0.99625592 -0.0054674759 1.4475475e-22)
(0.99635408 -0.0065035593 -6.9126516e-22)
(0.99663481 -0.0076223747 6.5523376e-22)
(0.99713946 -0.0087761844 -7.3986717e-23)
(0.99790198 -0.0099269754 3.2689071e-22)
(0.99894452 -0.010997682 -3.9498432e-22)
(1.0002688 -0.011911648 3.1353538e-22)
(1.0018433 -0.012576662 1.2521933e-22)
(1.0036066 -0.012916965 1.42527e-22)
(1.0054655 -0.012875971 6.3204066e-23)
(1.0073123 -0.012436421 2.2985158e-22)
(1.0090371 -0.011619731 -3.8621719e-24)
(1.0105507 -0.010488818 -3.5769197e-22)
(1.0117928 -0.0091245138 1.3882848e-22)
(1.012747 -0.007636174 1.1215434e-21)
(1.0134229 -0.006084773 2.7620897e-22)
(1.0138837 -0.004605757 -2.1912661e-22)
(1.014166 -0.0031174873 1.4210707e-23)
(1.0144114 -0.0018939775 -2.0688063e-22)
(1.0145787 -0.00044815076 8.7681683e-24)
(0.99915079 -0.00034400094 9.9686438e-24)
(0.99879353 -0.0004894677 2.6581709e-23)
(0.99859612 -0.00061590009 5.9831517e-23)
(0.9982668 -0.00081203113 1.1986345e-22)
(0.99797842 -0.0010344757 0)
(0.99761318 -0.0013474396 0)
(0.9972693 -0.001721238 2.4866416e-23)
(0.9968927 -0.0022124705 2.6101993e-22)
(0.99655599 -0.002796083 -3.9345209e-22)
(0.99624599 -0.0035126691 5.1653393e-22)
(0.99601755 -0.0043350733 -6.4895802e-23)
(0.9958821 -0.0052852937 -5.3051926e-22)
(0.99588502 -0.0063337937 2.0969455e-22)
(0.9960559 -0.0074836088 -8.8301013e-23)
(0.99643971 -0.0086954442 -5.6341899e-22)
(0.99707632 -0.0099394105 1.9618121e-24)
(0.99799998 -0.011144918 1.1808414e-21)
(0.99922743 -0.012237112 -5.6676914e-23)
(1.000745 -0.013118277 -1.0210494e-21)
(1.0025066 -0.013699515 1.1943077e-21)
(1.0044289 -0.0139036 -5.7973869e-22)
(1.006404 -0.013688565 -4.2675525e-22)
(1.0083118 -0.013053411 1.2756098e-21)
(1.0100417 -0.012041308 4.4259583e-22)
(1.0115099 -0.010733608 -2.8866834e-22)
(1.0126695 -0.0092255062 6.7435976e-22)
(1.0135195 -0.0076326338 3.3855857e-22)
(1.0140841 -0.0060178013 1.3450813e-22)
(1.01444 -0.0045100828 -2.4799345e-22)
(1.0146296 -0.0030256037 -5.2656187e-23)
(1.0148061 -0.0018244911 2.8024653e-24)
(1.0149162 -0.00042416121 4.4958005e-24)
(0.99914293 -0.00030465266 -3.1575767e-24)
(0.99878175 -0.00043941245 -2.3851811e-23)
(0.9985804 -0.00056241456 -5.8327578e-23)
(0.99824298 -0.00075052182 -7.9569922e-23)
(0.99794396 -0.00095751501 0)
(0.99756157 -0.0012520959 0)
(0.99719382 -0.0016059089 0)
(0.99678335 -0.0020754781 -4.3923321e-24)
(0.99640426 -0.0026390818 5.5552686e-22)
(0.99604129 -0.0033377596 5.0557512e-22)
(0.99574942 -0.004146902 -8.1792116e-23)
(0.99553683 -0.0050903916 -8.6198248e-23)
(0.99544838 -0.0061423433 1.1581726e-21)
(0.99551181 -0.0073114128 -5.0361483e-22)
(0.99577393 -0.0085658632 -4.687613e-23)
(0.99627846 -0.0098853274 0)
(0.99706989 -0.011207494 3.2996404e-22)
(0.9981789 -0.012462477 -3.6738298e-22)
(0.99961013 -0.01355122 -1.1114785e-22)
(1.0013357 -0.014375414 1.7618356e-22)
(1.0032869 -0.014839794 -5.1841126e-22)
(1.0053623 -0.01487795 2.6738694e-22)
(1.0074365 -0.014461993 -6.8493253e-22)
(1.0093828 -0.013613331 -1.0281583e-21)
(1.0110917 -0.012396883 4.793762e-22)
(1.0124905 -0.010912496 5.3887596e-23)
(1.0135472 -0.0092673384 -4.9473766e-23)
(1.0142786 -0.0075805252 1.3937306e-23)
(1.0147228 -0.0059142936 -3.7074467e-22)
(1.0149692 -0.004389059 -2.586398e-22)
(1.0150647 -0.0029183336 7.9617287e-23)
(1.0151722 -0.0017467006 -1.8108537e-22)
(1.0152262 -0.00040007591 1.7678878e-22)
(0.99913623 -0.00026482918 2.9039884e-24)
(0.99877196 -0.000389096 -1.623923e-23)
(0.99856695 -0.00050482759 -8.075105e-23)
(0.99822279 -0.00068550112 -1.7580204e-22)
(0.99791495 -0.00088582015 3.3084757e-23)
(0.99751835 -0.0011599303 3.9310305e-23)
(0.99712979 -0.0014945536 3.8087384e-22)
(0.99668775 -0.0019409217 -2.2978979e-22)
(0.99626796 -0.0024833565 -1.1432973e-22)
(0.99585442 -0.0031616741 -9.8276476e-22)
(0.99550321 -0.0039547277 4.0788977e-22)
(0.99521843 -0.0048861395 7.8863996e-22)
(0.9950435 -0.0059344637 4.399802e-23)
(0.99500324 -0.0071117867 -6.6853445e-22)
(0.99514504 -0.0083948842 -6.6470305e-22)
(0.9955145 -0.0097721746 3.3030316e-23)
(0.996164 -0.011191803 1.5286677e-22)
(0.99713656 -0.012591267 1.2928407e-22)
(0.99845458 -0.013873994 -1.3413562e-22)
(1.0001099 -0.014936844 -1.4199986e-23)
(1.0020527 -0.015670068 5.0475302e-22)
(1.0041937 -0.015984515 -1.0988197e-21)
(1.0064093 -0.015824097 -1.3408019e-22)
(1.0085616 -0.015182568 6.8029894e-22)
(1.0105192 -0.01410489 -1.4549592e-21)
(1.0121797 -0.01267911 -5.4730137e-22)
(1.0134844 -0.011021663 -5.2840356e-22)
(1.0144193 -0.0092490462 -1.4019413e-22)
(1.0150191 -0.00748074 -3.310827e-22)
(1.0153357 -0.0057759533 1.3889046e-23)
(1.0154693 -0.0042445375 -7.5535116e-23)
(1.0154703 -0.0027971964 -2.6876194e-23)
(1.0155095 -0.001661677 1.3701971e-22)
(1.0155077 -0.00037719515 -4.6185447e-22)
(0.99913044 -0.0002246901 7.8572313e-24)
(0.99876381 -0.00033814465 2.1212033e-23)
(0.99855589 -0.00044707483 7.2188442e-23)
(0.99820666 -0.00061507892 4.8092357e-23)
(0.99789056 -0.00080927964 -1.1103965e-22)
(0.99748199 -0.0010744779 -2.5113816e-22)
(0.99707648 -0.0013863228 -5.051155e-23)
(0.99660667 -0.0018104411 0)
(0.99614769 -0.0023293938 -3.0802951e-22)
(0.9956845 -0.0029861248 -1.2256008e-21)
(0.99527642 -0.003760161 -2.3579639e-22)
(0.99492449 -0.0046760922 -2.9090682e-22)
(0.99466869 -0.005714104 0)
(0.99452991 -0.0068908951 1.9091451e-22)
(0.99455459 -0.0081892819 1.1978778e-21)
(0.99478876 -0.0096079803 -8.0035716e-23)
(0.99529037 -0.011105332 -1.2885557e-21)
(0.9961124 -0.012628964 0)
(0.99729384 -0.014088109 5.8516461e-22)
(0.99884648 -0.015379097 9.1471225e-22)
(1.0007422 -0.016382639 -6.649706e-22)
(1.0029094 -0.016989751 5.8557863e-22)
(1.0052331 -0.017116576 0)
(1.0075713 -0.01672607 -1.2147837e-21)
(1.0097747 -0.01583599 6.8691573e-22)
(1.0117137 -0.014517808 -5.0518903e-23)
(1.0132968 -0.012881751 -6.6051275e-22)
(1.0144833 -0.011058562 6.2582253e-22)
(1.0152788 -0.0091707394 2.1683464e-23)
(1.0157361 -0.0073348781 -8.5800689e-22)
(1.0159194 -0.0056049802 7.8629893e-22)
(1.0159386 -0.0040785828 2.6819498e-22)
(1.015846 -0.0026637587 0)
(1.0158176 -0.0015703272 -6.013719e-24)
(1.0157617 -0.00035642859 -1.7070958e-22)
(0.99912547 -0.00018426151 -4.5980074e-24)
(0.99875685 -0.00028680996 1.6159253e-23)
(0.99854681 -0.00038853602 3.8327285e-23)
(0.99819373 -0.00054474469 3.2224005e-23)
(0.99787156 -0.00072594031 1.4757244e-23)
(0.99745123 -0.00098221168 -1.0210289e-22)
(0.99703179 -0.001286502 -3.2728283e-22)
(0.99653956 -0.0016826785 -4.3720062e-23)
(0.99604532 -0.002179376 0)
(0.99553266 -0.0028114241 3.8881843e-22)
(0.99506775 -0.0035653684 -3.7876652e-22)
(0.99465181 -0.0044621483 -5.4141552e-23)
(0.9943213 -0.0054856477 -3.5504767e-22)
(0.99409026 -0.0066533727 5.8230116e-22)
(0.99400294 -0.0079562241 6.495799e-22)
(0.99410398 -0.0094002787 7.5332381e-22)
(0.99445508 -0.010956499 -2.8674628e-21)
(0.99511679 -0.01258272 -1.3586502e-21)
(0.99614231 -0.014197535 6.7223862e-22)
(0.99756287 -0.015700947 -1.8255536e-21)
(0.99937343 -0.016968915 1.0634719e-21)
(1.0015244 -0.017877511 -1.4750956e-21)
(1.0039163 -0.018316954 0)
(1.0064103 -0.018218155 -3.0792701e-22)
(1.0088462 -0.017566553 1.6313561e-22)
(1.0110697 -0.016408644 7.7009511e-22)
(1.0129572 -0.014842797 1.1691622e-22)
(1.0144335 -0.013000004 7.5209839e-23)
(1.0154788 -0.011021965 4.8188889e-22)
(1.0161192 -0.0090335134 0)
(1.016425 -0.0071452343 7.6220673e-22)
(1.0164714 -0.005403857 8.9734064e-22)
(1.0163761 -0.0038934075 -3.6842463e-24)
(1.0161915 -0.0025195508 -1.871773e-22)
(1.0160967 -0.0014732888 -2.3241504e-24)
(1.0159935 -0.00033402168 6.6443357e-22)
(0.99912137 -0.00014358637 -1.5305826e-24)
(0.99875089 -0.00023513085 6.366153e-24)
(0.99853913 -0.00032956781 -1.9222646e-23)
(0.99818346 -0.00047335755 -7.7357278e-24)
(0.99785653 -0.00064301788 9.7263503e-23)
(0.99742819 -0.00088094683 1.5440983e-22)
(0.99699373 -0.0011771441 2.1145856e-23)
(0.99648359 -0.0015655623 -2.0112485e-22)
(0.99596095 -0.002031178 -4.3861315e-23)
(0.99540234 -0.00264039 -3.2927848e-22)
(0.99487857 -0.0033704198 2.6876118e-23)
(0.9943984 -0.0042471052 2.6430509e-22)
(0.99399739 -0.0052513433 1.264177e-22)
(0.99368155 -0.0064046296 2.9727692e-22)
(0.99348888 -0.0077011308 -2.4630013e-21)
(0.99346145 -0.0091572924 -2.8570493e-22)
(0.99366247 -0.010753507 1.0952937e-21)
(0.99415795 -0.012461042 1.2700858e-21)
(0.99501292 -0.014208579 -1.4966081e-21)
(0.99627592 -0.015904119 -4.9633728e-22)
(0.99796542 -0.017424149 2.9725002e-22)
(1.0000566 -0.01863471 -1.6208155e-21)
(1.0024716 -0.019404511 1.5219216e-21)
(1.0050829 -0.019632691 0)
(1.0077267 -0.019269157 5.2285201e-22)
(1.0102299 -0.018328363 1.4996092e-21)
(1.0124378 -0.016887605 -7.9302327e-22)
(1.0142393 -0.015072062 1.5475941e-21)
(1.0155797 -0.013030605 2.2997682e-23)
(1.0164624 -0.010911944 -5.7023628e-22)
(1.0169344 -0.0088394265 -8.1494269e-22)
(1.0170821 -0.0069146312 1.1306363e-22)
(1.0169899 -0.0051753522 -4.9172834e-23)
(1.0167811 -0.0036913016 9.7643178e-23)
(1.0165071 -0.0023660367 -1.5030906e-22)
(1.0163478 -0.0013713043 -3.1223826e-23)
(1.0162025 -0.00030778944 2.7605738e-22)
(0.99911822 -0.00010271028 5.956281e-24)
(0.99874594 -0.00018316952 2.759258e-24)
(0.99853255 -0.00027020431 -3.4031399e-23)
(0.99817495 -0.00040147144 -3.7846545e-23)
(0.99784484 -0.00055874329 1.3337628e-23)
(0.99741026 -0.00078063166 -2.3874709e-23)
(0.99696572 -0.0010560543 -6.0405438e-23)
(0.9964351 -0.0014349848 -2.4922647e-23)
(0.99589114 -0.0018962703 0)
(0.99529503 -0.0024696887 7.0344619e-23)
(0.99471417 -0.003178862 0)
(0.99416561 -0.004030727 0)
(0.99369424 -0.0050149527 3.2510886e-22)
(0.99329933 -0.0061473464 -6.9087685e-23)
(0.99300983 -0.0074306512 -3.6438626e-22)
(0.99286065 -0.0088852875 -9.072127e-22)
(0.9929151 -0.010505614 1.6635315e-21)
(0.99324225 -0.012272616 1.4560363e-21)
(0.99391643 -0.01412938 1.3447637e-21)
(0.99500134 -0.015993407 5.9410584e-22)
(0.99653734 -0.017746974 -8.7652937e-22)
(0.99852625 -0.019252292 1.478994e-21)
(1.0009162 -0.020361199 5.183873e-23)
(1.0035987 -0.020944433 -1.1002152e-21)
(1.0064153 -0.020914635 -1.2799689e-22)
(1.0091813 -0.020248844 3.590375e-22)
(1.0117149 -0.018994469 -2.2596394e-23)
(1.0138682 -0.017261332 -9.4606735e-22)
(1.0155483 -0.015199501 -7.8049013e-23)