/*--------------------------------*- C++ -*----------------------------------*\
| =========                 |                                                 |
| \\      /  F ield         | OpenFOAM: The Open Source CFD Toolbox           |
|  \\    /   O peration     | Version:  5.0                                   |
|   \\  /    A nd           | Web:      www.OpenFOAM.org                      |
|    \\/     M anipulation  |                                                 |
\*---------------------------------------------------------------------------*/
FoamFile
{
    version     2.0;
    format      ascii;
    class       volSymmTensorField;
    location    "20";
    object      UPrime2Mean;
}
// * * * * * * * * * * * * * * * * * * * * * * * * * * * * * * * * * * * * * //

dimensions      [0 2 -2 0 0 0 0];

internalField   nonuniform List<symmTensor> 
9200
(
(5.001812e-08 -1.6040016e-08 -9.4552116e-29 5.2452312e-09 3.1035415e-29 3.5489822e-49)
(4.4836132e-08 -4.5356537e-08 -1.2536846e-26 4.6382419e-08 1.2816606e-26 8.7404587e-45)
(1.8721281e-07 -3.540416e-08 0 6.7272426e-09 0 0)
(4.0862749e-08 -6.6791687e-08 5.9414054e-27 1.1040352e-07 -9.8131493e-27 2.1043483e-45)
(1.6985755e-07 -9.8290937e-08 -2.3073138e-26 5.6957354e-08 1.3382733e-26 8.8753992e-45)
(2.8818101e-07 -4.7099341e-08 0 7.723098e-09 0 0)
(3.2635277e-08 -8.0329842e-08 5.5486695e-28 1.9978411e-07 -1.3793224e-27 2.2707527e-47)
(1.5396166e-07 -1.4489023e-07 -2.6662654e-27 1.365689e-07 2.5138883e-27 1.5694181e-46)
(2.6278878e-07 -1.300599e-07 0 6.4422448e-08 0 0)
(4.9599198e-07 -6.8774111e-08 0 9.5523373e-09 0 0)
(2.589302e-08 -8.5326091e-08 -7.9069639e-27 2.8362966e-07 2.6287166e-26 5.627888e-45)
(1.2630713e-07 -1.7703201e-07 -7.4271903e-27 2.4849323e-07 1.0435108e-26 9.9084821e-46)
(2.3829036e-07 -1.9204827e-07 -1.4934339e-26 1.5492641e-07 1.2055557e-26 2.4361894e-45)
(4.5517022e-07 -1.8968035e-07 -1.4788172e-27 7.907939e-08 6.1696388e-28 1.3038209e-47)
(7.1329441e-07 -8.9676895e-08 6.274474e-29 1.1286018e-08 -7.8943184e-30 1.5005834e-50)
(1.8270454e-08 -8.2214728e-08 -6.0027421e-27 3.7300456e-07 2.7251895e-26 4.4703303e-45)
(1.0030121e-07 -1.8823503e-07 3.3051371e-27 3.5372319e-07 -6.2175192e-27 3.2910342e-46)
(1.968113e-07 -2.3583682e-07 -4.0629989e-26 2.8286388e-07 4.8774627e-26 2.1225293e-44)
(4.1338e-07 -2.8084005e-07 -1.944669e-26 1.9087429e-07 1.3224884e-26 2.1098476e-45)
(6.5762221e-07 -2.478665e-07 5.2214408e-27 9.3470279e-08 -1.9711815e-27 1.421658e-46)
(1.0428843e-06 -1.1958428e-07 1.2193986e-25 1.3720168e-08 -1.3996562e-26 4.0119504e-44)
(1.2051863e-08 -7.300589e-08 -2.8891213e-27 4.4556675e-07 1.7658212e-26 1.4504145e-45)
(7.2883083e-08 -1.8456212e-07 -1.6498012e-26 4.6808248e-07 4.1901323e-26 9.8715238e-45)
(1.5707149e-07 -2.5168478e-07 2.2457027e-26 4.0366222e-07 -3.6055774e-26 8.1218266e-45)
(3.4524099e-07 -3.4785459e-07 9.1528305e-28 3.5068715e-07 -9.2291247e-28 4.1018646e-48)
(5.9852156e-07 -3.6786292e-07 -3.738037e-26 2.2618093e-07 2.2998061e-26 6.2608909e-45)
(9.6699152e-07 -3.3307887e-07 -4.5541978e-26 1.1480724e-07 1.5698616e-26 5.7073012e-45)
(1.4011837e-06 -1.5012677e-07 -4.7779097e-27 1.6092083e-08 5.1245277e-28 4.3688466e-47)
(6.8210928e-09 -5.8611258e-08 4.3844892e-28 5.0789562e-07 -3.8188944e-27 9.3429401e-47)
(4.8921545e-08 -1.6558658e-07 -6.0852141e-27 5.6169893e-07 2.0677081e-26 1.798307e-45)
(1.1523273e-07 -2.4843703e-07 -1.6595511e-26 5.3630027e-07 3.5869332e-26 5.6207926e-45)
(2.7788197e-07 -3.738657e-07 7.8585133e-27 5.0338943e-07 -1.0596514e-26 7.2030417e-46)
(5.0373e-07 -4.5844633e-07 6.470749e-26 4.1750078e-07 -5.8961219e-26 2.0279976e-44)
(8.8344102e-07 -4.9595968e-07 3.8324385e-26 2.7856786e-07 -2.1530155e-26 3.9037005e-45)
(1.305581e-06 -4.2185702e-07 1.0176661e-25 1.3643551e-07 -3.2916039e-26 2.353882e-44)
(1.8958997e-06 -1.9025585e-07 -1.9878174e-25 1.9101857e-08 1.996999e-26 6.2584804e-44)
(3.1142351e-09 -4.1135939e-08 1.1856221e-27 5.5166257e-07 -1.594379e-26 8.2121991e-46)
(2.8753015e-08 -1.3580571e-07 -8.1136887e-27 6.4412284e-07 3.8593766e-26 5.8065516e-45)
(7.8274997e-08 -2.246358e-07 3.5524143e-27 6.4604405e-07 -1.0242629e-26 4.6877771e-46)
(2.0697706e-07 -3.7311634e-07 -1.4711484e-26 6.7350118e-07 2.6584874e-26 2.5701981e-45)
(4.0831468e-07 -4.9564202e-07 2.3006567e-26 6.0221379e-07 -2.7996675e-26 4.2848369e-45)
(7.5123555e-07 -6.2313881e-07 1.4508068e-25 5.1734517e-07 -1.2048088e-25 7.0246909e-44)
(1.1976306e-06 -6.3013284e-07 -1.1214762e-25 3.3177982e-07 5.9092924e-26 3.6724957e-44)
(1.7764221e-06 -5.415499e-07 2.1743445e-25 1.6530251e-07 -6.6349338e-26 8.0725649e-44)
(2.437043e-06 -2.3146984e-07 5.229069e-25 2.2001264e-08 -4.9721944e-26 3.4870353e-43)
(8.6458685e-10 -2.1684864e-08 -1.6729461e-28 5.7982547e-07 4.4159631e-27 3.8035494e-47)
(1.3793092e-08 -9.7987522e-08 4.8075532e-27 7.0365434e-07 -3.470546e-26 4.4258477e-45)
(4.6903501e-08 -1.8641477e-07 -4.8650074e-28 7.4413931e-07 1.9510573e-27 1.6364154e-47)
(1.430654e-07 -3.4151102e-07 -1.8137829e-26 8.1728582e-07 4.3517286e-26 6.8059954e-45)
(3.0772555e-07 -4.9886668e-07 2.9585124e-27 8.100586e-07 -4.800787e-27 4.61852e-47)
(6.1523755e-07 -6.7959768e-07 5.1163495e-26 7.5167662e-07 -5.6676021e-26 1.4490533e-44)
(1.0281551e-06 -7.9768712e-07 -6.2739008e-26 6.1962521e-07 4.8726502e-26 9.4417429e-45)
(1.637645e-06 -8.1183384e-07 -1.7842773e-25 4.0287527e-07 8.8526856e-26 5.2948555e-44)
(2.2956569e-06 -6.6766668e-07 -1.09724e-25 1.944926e-07 3.1915904e-26 1.4088091e-44)
(3.1326245e-06 -2.815285e-07 -3.3124795e-26 2.5331878e-08 2.9780817e-27 1.0243359e-45)
(7.6947781e-11 -1.6736541e-09 8.1925715e-30 5.919313e-07 -2.4713054e-27 1.1632945e-47)
(4.3236887e-09 -5.5524279e-08 1.4300422e-27 7.4416382e-07 -1.9406318e-26 1.3832654e-45)
(2.3263051e-08 -1.3705644e-07 -6.0888063e-27 8.166517e-07 3.6426079e-26 3.7742022e-45)
(8.8008414e-08 -2.8817692e-07 7.5304907e-27 9.4857342e-07 -2.4806818e-26 1.2918745e-45)
(2.1585854e-07 -4.6130358e-07 -5.2440561e-26 9.8887656e-07 1.1261526e-25 3.360602e-44)
(4.7102192e-07 -6.9193923e-07 1.3398698e-25 1.0186981e-06 -1.9738268e-25 9.5497091e-44)
(8.5057957e-07 -8.7727933e-07 2.148847e-26 9.0637178e-07 -2.2234509e-26 1.9229036e-45)
(1.4210875e-06 -1.0363746e-06 -3.0799508e-25 7.5705459e-07 2.2493745e-25 1.8601227e-43)
(2.1275724e-06 -1.0045765e-06 2.1291185e-25 4.7500285e-07 -1.0063264e-25 6.3872539e-44)
(2.9678064e-06 -8.2516174e-07 -5.157616e-25 2.2988639e-07 1.4346782e-25 2.6887677e-43)
(3.89364e-06 -3.3247792e-07 1.3183732e-25 2.8443789e-08 -1.1273508e-26 1.5485115e-44)
(6.362727e-10 1.7834176e-08 7.9594507e-29 5.9042334e-07 2.5871023e-27 2.3125352e-47)
(3.838021e-10 -1.1295048e-08 -4.0527184e-28 7.6423793e-07 2.9420518e-26 3.0903329e-45)
(7.8807816e-09 -8.0989676e-08 6.9181326e-28 8.6786376e-07 -7.3687981e-27 8.3089061e-47)
(4.5514131e-08 -2.1711973e-07 0 1.0490974e-06 0 0)
(1.3584818e-07 -3.9487748e-07 8.3796445e-28 1.1549086e-06 -2.4626285e-27 1.7014246e-47)
(3.3688973e-07 -6.4878537e-07 -3.6485982e-26 1.2543338e-06 7.0724021e-26 1.2370235e-44)
(6.6095871e-07 -9.0286365e-07 3.6008746e-26 1.2367022e-06 -4.93334e-26 4.9019577e-45)
(1.1895295e-06 -1.1509171e-06 1.3552232e-25 1.1160795e-06 -1.313822e-25 4.0787791e-44)
(1.8658921e-06 -1.2931368e-06 -1.2138277e-25 8.98072e-07 8.4394328e-26 3.3368681e-44)
(2.7668073e-06 -1.2464442e-06 3.1731539e-25 5.6258698e-07 -1.4308195e-25 1.0833575e-43)
(3.7094222e-06 -9.9053667e-07 2.8361348e-25 2.6514401e-07 -7.5775978e-26 7.0054812e-44)
(4.8157721e-06 -3.9000376e-07 -6.614632e-26 3.1674817e-08 5.3586233e-27 2.9550264e-45)
(2.3494076e-09 3.581732e-08 3.2269606e-29 5.7716535e-07 5.1728836e-28 7.997823e-49)
(1.6106964e-09 3.2289876e-08 -6.4447063e-28 7.6674713e-07 -1.4987125e-26 7.2561253e-46)
(9.2282293e-10 -2.1919867e-08 0 8.9565917e-07 0 0)
(1.687672e-08 -1.3482596e-07 0 1.123561e-06 0 0)
(7.29322e-08 -3.0404132e-07 9.1190663e-27 1.2857522e-06 -3.8697174e-26 2.7723329e-45)
(2.180948e-07 -5.6557207e-07 -5.587686e-26 1.4776126e-06 1.464099e-25 4.0068098e-44)
(4.8164882e-07 -8.577826e-07 1.026635e-25 1.5348586e-06 -1.8390439e-25 5.8768449e-44)
(9.4001889e-07 -1.1989312e-06 -1.0575964e-25 1.5344747e-06 1.3524248e-25 2.7288024e-44)
(1.5805751e-06 -1.4500831e-06 -5.0814589e-27 1.3341e-06 4.647747e-27 1.7883907e-47)
(2.4541424e-06 -1.6188131e-06 1.7466503e-27 1.0706391e-06 -1.1564454e-27 5.7053539e-48)
(3.4793614e-06 -1.5022224e-06 -5.4170491e-25 6.5014232e-07 2.3414634e-25 2.7891307e-43)
(4.6150586e-06 -1.1835148e-06 8.4263538e-25 3.0438914e-07 -2.1633544e-25 5.7616806e-43)
(5.8174774e-06 -4.4733615e-07 -1.7018275e-24 3.4537131e-08 1.3101493e-25 1.8616415e-42)
(4.9948566e-09 5.1788976e-08 -7.4534788e-28 5.5457877e-07 -7.9344036e-27 2.2146927e-46)
(7.418262e-09 7.3348765e-08 1.8654182e-28 7.5379528e-07 1.9004777e-27 1.1282206e-47)
(1.9545372e-09 3.6918051e-08 -1.0322583e-27 9.0300643e-07 -2.4726633e-26 1.5235091e-45)
(2.6750815e-09 -4.6624079e-08 -1.5428826e-27 1.1684641e-06 3.9642727e-26 3.1232856e-45)
(2.925824e-08 -1.9709323e-07 7.3880608e-27 1.3864063e-06 -5.2338582e-26 4.6983412e-45)
(1.2236029e-07 -4.4703826e-07 -1.2378459e-26 1.6598977e-06 4.6184571e-26 3.4842697e-45)
(3.2030164e-07 -7.6075039e-07 -9.9795616e-27 1.8224818e-06 2.3863106e-26 5.7319682e-46)
(6.9954765e-07 -1.1561726e-06 4.9140758e-27 1.9217252e-06 -8.1858877e-27 1.1279244e-46)
(1.2699548e-06 -1.5287795e-06 -5.7782413e-26 1.8480442e-06 6.944015e-26 3.1609271e-45)
(2.1059032e-06 -1.8344968e-06 -5.812388e-26 1.6036041e-06 5.0360359e-26 1.6303376e-45)
(3.1210443e-06 -1.9684469e-06 -1.1508973e-25 1.2454803e-06 7.2669551e-26 1.1962331e-44)
(4.357396e-06 -1.8024659e-06 -3.8920901e-25 7.478454e-07 1.6107508e-25 1.0056111e-43)
(5.6073091e-06 -1.3830844e-06 -3.3244637e-25 3.4230589e-07 8.1987366e-26 6.2867308e-44)
(6.9732153e-06 -5.0792593e-07 5.5357216e-25 3.7203064e-08 -4.0363547e-26 1.7208616e-43)
(8.3563927e-09 6.5472436e-08 2.5547593e-27 5.2497809e-07 2.0314625e-26 2.0044571e-45)
(1.7071948e-08 1.1050317e-07 8.029432e-27 7.2831365e-07 5.260317e-26 8.9940007e-45)
(1.0172563e-08 9.290572e-08 7.2431045e-28 8.9203017e-07 6.8302781e-27 1.5809612e-46)
(2.4507384e-09 4.2602441e-08 -2.0185732e-28 1.1869456e-06 -5.407168e-27 6.1897329e-47)
(5.9358667e-09 -8.0742197e-08 -3.4567141e-28 1.4518935e-06 6.4030286e-27 7.4191564e-47)
(5.3480186e-08 -3.0394001e-07 1.0062888e-26 1.8059871e-06 -6.0324176e-26 5.3245535e-45)
(1.8727477e-07 -6.1629508e-07 -5.7951587e-27 2.0646257e-06 1.9324672e-26 2.8224552e-46)
(4.7911188e-07 -1.045075e-06 1.5121335e-26 2.3023581e-06 -3.3169251e-26 7.6126499e-46)
(9.6487354e-07 -1.4960931e-06 -4.1059625e-26 2.3350879e-06 6.4214673e-26 5.9607185e-45)
(1.7222055e-06 -1.9589188e-06 -5.2151e-27 2.2392814e-06 6.0444389e-27 2.1918961e-46)
(2.7133587e-06 -2.2544107e-06 6.0762233e-27 1.8807955e-06 -5.0565219e-27 3.4672784e-47)
(3.9547885e-06 -2.3840651e-06 -1.0127542e-25 1.4427282e-06 6.1378282e-26 1.5613175e-44)
(5.3295418e-06 -2.1152588e-06 7.5629259e-25 8.4259095e-07 -3.0041291e-25 3.6039216e-43)
(6.7618624e-06 -1.6021786e-06 -5.1643462e-25 3.8113379e-07 1.2245043e-25 1.5474383e-43)
(8.2123388e-06 -5.664573e-07 5.3523936e-25 3.9356123e-08 -3.6964982e-26 1.4927012e-43)
(1.2223896e-08 7.6725917e-08 9.2286339e-28 4.9054077e-07 5.9008954e-27 1.0089467e-46)
(2.9769608e-08 1.4285503e-07 -3.7615602e-27 6.9309743e-07 -1.8192933e-26 9.7214954e-46)
(2.4525522e-08 1.4412507e-07 4.3325599e-27 8.6595657e-07 2.5852232e-26 1.781266e-45)
(1.5064884e-08 1.2882044e-07 -4.0100604e-27 1.1811601e-06 -3.6392972e-26 2.4661974e-45)
(2.6481873e-09 3.8617953e-08 1.3591075e-27 1.4852969e-06 5.0003382e-26 3.7460761e-45)
(1.3724883e-08 -1.4499349e-07 5.7788565e-27 1.9083929e-06 -7.62079e-26 5.696564e-45)
(8.8355689e-08 -4.373781e-07 -3.9210818e-26 2.265543e-06 2.041232e-25 4.3662368e-44)
(2.9268351e-07 -8.6935497e-07 6.6753148e-27 2.6331241e-06 -2.0306342e-26 4.4585337e-46)
(6.7991681e-07 -1.3776087e-06 2.3789153e-26 2.8224649e-06 -4.8611066e-26 1.677177e-45)
(1.337486e-06 -1.9472443e-06 -1.5132455e-25 2.8565438e-06 2.2239889e-25 6.1549108e-44)
(2.2582053e-06 -2.4382274e-06 5.6100853e-25 2.6477859e-06 -6.0724443e-25 3.1539154e-43)
(3.4856641e-06 -2.7609131e-06 -4.5847992e-25 2.1974814e-06 3.6440275e-25 2.1016867e-43)
(4.8935874e-06 -2.8240812e-06 -2.3906168e-25 1.6371182e-06 1.3813532e-25 3.6504401e-44)
(6.4717281e-06 -2.4609842e-06 -4.709907e-26 9.3994352e-07 1.781534e-26 3.4752306e-46)
(8.0106597e-06 -1.822948e-06 9.4772963e-26 4.1673754e-07 -2.169131e-26 9.8764971e-45)
(9.5843348e-06 -6.243706e-07 -6.7948388e-25 4.1053542e-08 4.430654e-26 2.1614348e-43)
(1.6403723e-08 8.5549562e-08 0 4.5319417e-07 0 0)
(4.4712646e-08 1.6994381e-07 -8.2296952e-27 6.5088052e-07 -3.1408557e-26 3.4517289e-45)
(4.3838703e-08 1.8926513e-07 -2.7806281e-27 8.2788083e-07 -1.2048893e-26 5.1825814e-46)
(3.8887807e-08 2.0891624e-07 0 1.1548376e-06 0 0)
(1.8094481e-08 1.5559807e-07 0 1.4885567e-06 0 0)
(3.3199223e-09 2.1075808e-08 0 1.9697754e-06 0 0)
(2.7346187e-08 -2.3448988e-07 2.3271208e-27 2.4148936e-06 -2.4489713e-26 6.706991e-46)
(1.4908914e-07 -6.4451648e-07 -1.3330968e-26 2.9169752e-06 5.9719971e-26 1.7311403e-45)
(4.3286056e-07 -1.1752847e-06 1.1772677e-25 3.2584747e-06 -3.2766617e-25 9.6303051e-44)
(9.7068995e-07 -1.8280685e-06 -7.4831833e-26 3.4855373e-06 1.4192063e-25 1.0001272e-44)
(1.7920644e-06 -2.4615899e-06 6.7627807e-26 3.4101266e-06 -9.3839747e-26 9.7583901e-45)
(2.953927e-06 -3.0259138e-06 -1.3142777e-25 3.1202014e-06 1.348365e-25 1.1624112e-44)
(4.3726219e-06 -3.3069949e-06 7.2718171e-26 2.5150574e-06 -5.5273017e-26 5.4659393e-45)
(6.0136451e-06 -3.3177193e-06 2.9806674e-25 1.8400021e-06 -1.6456461e-25 4.3754241e-44)
(7.7204503e-06 -2.8122006e-06 2.1127667e-27 1.0296611e-06 -6.2282134e-28 1.1480989e-45)
(9.4056384e-06 -2.0514876e-06 3.3572649e-25 4.4982369e-07 -7.3245308e-26 5.0416438e-44)
(1.1029953e-05 -6.7762541e-07 0 4.2112629e-08 0 0)
(2.0727459e-08 9.2046468e-08 3.5723541e-27 4.1445463e-07 1.6035891e-26 1.2686931e-45)
(6.1158076e-08 1.9165799e-07 9.5254298e-27 6.0409161e-07 2.9958711e-26 2.9973341e-45)
(6.6911173e-08 2.2756864e-07 -2.5149506e-26 7.8089084e-07 -8.5930282e-26 2.106814e-44)
(7.2006682e-08 2.8064966e-07 -1.9528102e-26 1.1116938e-06 -7.6813879e-26 1.2399873e-44)
(5.0232471e-08 2.6588456e-07 -1.6651157e-26 1.4656833e-06 -9.0873721e-26 1.2804095e-44)
(2.0984896e-08 1.8671226e-07 0 1.991588e-06 0 0)
(5.4168418e-09 -1.862279e-08 1.1183681e-27 2.5144682e-06 -2.0278664e-25 3.9475937e-44)
(5.4595084e-08 -3.8315949e-07 -1.2391577e-26 3.1394327e-06 1.032976e-25 9.1035884e-45)
(2.3612794e-07 -9.0657755e-07 -1.0797657e-25 3.6441148e-06 4.3456498e-25 1.1783431e-43)
(6.4419333e-07 -1.6002843e-06 2.0305978e-25 4.0644454e-06 -5.1751001e-25 1.9896515e-43)
(1.3381298e-06 -2.3550735e-06 5.1393126e-26 4.2009172e-06 -9.0928621e-26 2.9751895e-45)
(2.3965737e-06 -3.1041961e-06 1.0454682e-25 4.0590373e-06 -1.3691365e-25 1.8773992e-44)
(3.7723471e-06 -3.6727417e-06 -5.4617841e-25 3.602395e-06 5.3376849e-25 2.2069196e-43)
(5.4497741e-06 -3.9298718e-06 8.0957591e-25 2.8520549e-06 -5.8414705e-25 2.841245e-43)
(7.2590343e-06 -3.8282085e-06 -9.7803706e-27 2.0310399e-06 5.9387899e-27 1.2358484e-44)
(9.1295503e-06 -3.1787156e-06 2.3328098e-24 1.1135179e-06 -8.127921e-25 2.3333301e-42)
(1.0888623e-05 -2.2732149e-06 9.5295615e-25 4.7746254e-07 -1.9885751e-25 3.3674753e-43)
(1.2575034e-05 -7.2626384e-07 1.1326104e-24 4.2545197e-08 -6.5443053e-26 5.2338077e-43)
(2.5057471e-08 9.6400569e-08 -2.5952678e-28 3.7557177e-07 -1.0096449e-27 4.7022758e-48)
(7.8445519e-08 2.0814992e-07 8.153865e-27 5.5485189e-07 2.1682442e-26 1.8766221e-45)
(9.2589908e-08 2.5873754e-07 8.0592231e-28 7.2780129e-07 2.2781239e-27 7.8974782e-48)
(1.1240117e-07 3.4260622e-07 -2.0900639e-26 1.055583e-06 -6.4061676e-26 8.5137212e-45)
(9.6551291e-08 3.6623061e-07 3.3151662e-27 1.4207947e-06 1.2754523e-26 2.6056257e-46)
(6.4250648e-08 3.4562301e-07 3.6780735e-27 1.9781317e-06 2.0232137e-26 9.6164053e-46)
(2.168907e-08 2.0046217e-07 2.642431e-26 2.5648004e-06 3.2578808e-25 1.0802632e-43)
(1.209143e-08 -9.9219009e-08 -1.5377866e-26 3.3006461e-06 5.4799616e-25 2.2030134e-43)
(9.9110799e-08 -5.8571089e-07 -3.7323769e-26 3.9600955e-06 2.5514376e-25 4.1602974e-44)
(3.7522373e-07 -1.2829884e-06 9.0059272e-27 4.5912262e-06 -2.9820741e-26 1.0044733e-45)
(9.2332324e-07 -2.1129261e-06 -6.2345707e-26 4.9483162e-06 1.4642854e-25 1.360858e-44)
(1.8412731e-06 -3.0274812e-06 2.0831582e-25 5.0504708e-06 -3.4498657e-25 4.1526879e-44)
(3.1275845e-06 -3.8280136e-06 -3.7831443e-25 4.7340992e-06 4.6699626e-25 1.5030702e-43)
(4.7876635e-06 -4.4242764e-06 7.5174852e-26 4.1225485e-06 -7.0279484e-26 8.1898857e-45)
(6.6712247e-06 -4.5867551e-06 1.0605065e-25 3.1764429e-06 -7.3810202e-26 1.8251532e-44)
(8.6867053e-06 -4.3702891e-06 -3.5742282e-25 2.2138707e-06 1.7998428e-25 5.0378559e-44)
(1.0644136e-05 -3.5377524e-06 9.2026409e-25 1.1841834e-06 -3.0604623e-25 3.3036697e-43)
(1.2487748e-05 -2.4888808e-06 -1.100588e-25 4.9953206e-07 2.202515e-26 8.3964609e-45)
(1.4170354e-05 -7.6742197e-07 1.24703e-24 4.228358e-08 -6.7581565e-26 6.2997872e-43)
(2.9281186e-08 9.8841183e-08 -2.2360346e-27 3.3758037e-07 -7.6259508e-27 3.0314325e-46)
(9.5998789e-08 2.1973989e-07 -8.5683589e-27 5.0489991e-07 -1.965145e-26 1.6056317e-45)
(1.1981869e-07 2.828361e-07 5.6034917e-26 6.7108974e-07 1.3256226e-25 5.5348312e-44)
(1.5808291e-07 3.9407498e-07 1.6132311e-26 9.9010192e-07 4.0315956e-26 3.7598528e-45)
(1.5430736e-07 4.5442549e-07 -4.2055565e-27 1.3583396e-06 -1.2565636e-26 1.7875625e-46)
(1.2983817e-07 4.9287243e-07 3.4520223e-27 1.9340948e-06 1.3226218e-26 3.3366312e-46)
(7.3600306e-08 4.1434002e-07 -7.207048e-27 2.5700891e-06 -4.39524e-26 1.75065e-45)
(2.1659479e-08 1.9456706e-07 -3.9494793e-27 3.3995615e-06 -7.1249506e-26 2.0624414e-45)
(2.7167033e-08 -2.2937646e-07 -5.7785752e-27 4.2040813e-06 1.0998463e-25 7.0070577e-45)
(1.7754488e-07 -8.9180681e-07 -1.3256564e-25 5.040208e-06 7.5243826e-25 2.6119848e-43)
(5.7026895e-07 -1.7546675e-06 8.0881763e-26 5.646439e-06 -2.5538769e-25 1.3828848e-44)
(1.3196951e-06 -2.7832257e-06 4.7678733e-26 6.011812e-06 -1.041613e-25 9.3595817e-45)
(2.4696435e-06 -3.8042376e-06 -4.2133822e-26 5.9506755e-06 6.4061768e-26 1.1813345e-45)
(4.0567371e-06 -4.6863843e-06 2.4411906e-28 5.4751392e-06 -1.3129711e-28 4.8896762e-47)
(5.9662209e-06 -5.2343363e-06 1.521308e-25 4.634428e-06 -1.3488878e-25 2.5082902e-44)
(8.0972731e-06 -5.2976376e-06 -1.1919231e-24 3.4943349e-06 7.8113425e-25 5.3798669e-43)
(1.0247352e-05 -4.9123075e-06 6.4690153e-25 2.3732899e-06 -3.11246e-25 2.3085278e-43)
(1.229439e-05 -3.8903772e-06 -1.6213485e-24 1.2412589e-06 5.1303182e-25 8.4355345e-43)
(1.4153712e-05 -2.6871019e-06 -4.5765468e-25 5.1427987e-07 8.6805134e-26 6.5097278e-44)
(1.5822527e-05 -8.0052082e-07 -1.4407309e-24 4.1353043e-08 7.2907131e-26 8.056803e-43)
(3.3322387e-08 9.9630483e-08 -1.15371e-27 3.0120231e-07 -3.4779893e-27 9.2148178e-47)
(1.1335268e-07 2.2688153e-07 -1.7063673e-26 4.5559847e-07 -3.4203222e-26 5.6151418e-45)
(1.4768086e-07 3.0021224e-07 -1.7472305e-26 6.1284839e-07 -3.5525547e-26 5.0213492e-45)
(2.071937e-07 4.3492466e-07 -2.5136878e-26 9.1852411e-07 -5.2866989e-26 6.4600257e-45)
(2.2072219e-07 5.2917423e-07 1.574627e-26 1.2825901e-06 3.7831807e-26 2.8487488e-45)
(2.139993e-07 6.2488752e-07 2.6038186e-26 1.8648195e-06 7.7068201e-26 6.8037485e-45)
(1.5736736e-07 6.1615452e-07 -8.1817091e-26 2.5352584e-06 -3.323235e-25 9.8189146e-44)
(8.0977009e-08 4.8679334e-07 -1.2446964e-25 3.4399106e-06 -8.6080264e-25 4.9997359e-43)
(2.2062045e-08 1.4668413e-07 -3.1460304e-27 4.3726531e-06 -6.4728631e-26 7.4663089e-45)
(6.0221626e-08 -4.4648864e-07 0 5.4052335e-06 0 0)
(2.9798014e-07 -1.2962705e-06 -2.9374401e-26 6.2622897e-06 1.3627387e-25 3.0473718e-45)
(8.6090186e-07 -2.3900342e-06 2.0461766e-25 6.9321593e-06 -5.9559283e-25 1.5320632e-43)
(1.8341049e-06 -3.579774e-06 3.3687741e-25 7.1594666e-06 -6.6925017e-25 1.3095271e-43)
(3.2910866e-06 -4.7459466e-06 -6.2082158e-25 6.9555572e-06 9.0735816e-25 3.6592365e-43)
(5.1640334e-06 -5.6338893e-06 1.4931119e-25 6.2213542e-06 -1.6226296e-25 4.5050487e-45)
(7.3722174e-06 -6.1294474e-06 -8.1891486e-25 5.1478086e-06 6.8220314e-25 2.182526e-43)
(9.6870329e-06 -6.0242572e-06 2.664241e-25 3.7807285e-06 -1.6754582e-25 7.5562076e-44)
(1.1974946e-05 -5.4560686e-06 7.4274837e-25 2.5081476e-06 -3.3914145e-25 2.1832296e-43)
(1.4032791e-05 -4.2182853e-06 -1.2919731e-24 1.2802329e-06 3.8866987e-25 5.9470553e-43)
(1.5894467e-05 -2.8655032e-06 -4.1094651e-26 5.2145718e-07 7.2993827e-27 2.0321885e-46)
(1.7491733e-05 -8.2369767e-07 -1.5300273e-24 3.9769692e-08 7.205236e-26 9.0934654e-43)
(3.7129366e-08 9.9031178e-08 1.1247454e-27 2.6694628e-07 3.0407144e-27 3.5406361e-47)
(1.3014265e-07 2.3009697e-07 -1.5240618e-26 4.0798638e-07 -2.698103e-26 3.8687966e-45)
(1.7540926e-07 3.114042e-07 -3.0879296e-26 5.5478558e-07 -5.4880858e-26 1.1259085e-44)
(2.5807632e-07 4.6547161e-07 4.3510132e-26 8.4366566e-07 7.8595086e-26 1.4667648e-44)
(2.931269e-07 5.8996228e-07 5.3072898e-26 1.1975559e-06 1.071133e-25 2.0418445e-44)
(3.1281351e-07 7.3934193e-07 3.9228191e-27 1.7756057e-06 9.2162172e-27 2.0249035e-46)
(2.6842257e-07 8.0068671e-07 0 2.4663002e-06 0 0)
(1.8587991e-07 7.6785195e-07 2.1361985e-26 3.4267065e-06 9.1633519e-26 9.3576024e-45)
(8.2354302e-08 5.2785019e-07 4.3138329e-26 4.4683701e-06 3.5236017e-25 7.1182563e-44)
(2.7772968e-08 3.3636356e-08 3.8206862e-27 5.6792975e-06 6.0262339e-25 1.212703e-43)
(1.2036682e-07 -7.5992601e-07 1.6545794e-26 6.7845314e-06 -1.5754388e-25 1.5126955e-44)
(4.9052271e-07 -1.8630243e-06 7.922558e-26 7.7694537e-06 -3.3165578e-25 3.6913222e-44)
(1.2566438e-06 -3.1701078e-06 -4.9657724e-26 8.3439573e-06 1.3105066e-25 6.4404023e-45)
(2.5291602e-06 -4.5693102e-06 -7.0924141e-26 8.4618923e-06 1.2835768e-25 2.0029254e-45)
(4.2996582e-06 -5.8120646e-06 4.2860795e-25 7.9899946e-06 -5.8562313e-25 1.1230074e-43)
(6.517397e-06 -6.7047252e-06 -5.5170677e-25 6.9876524e-06 5.7135574e-25 1.3786225e-43)
(8.9759662e-06 -7.0665239e-06 1.1721811e-25 5.6249554e-06 -9.2365017e-26 3.3276992e-45)
(1.1479627e-05 -6.7696866e-06 -1.034599e-24 4.0332552e-06 6.107526e-25 2.8664392e-43)
(1.3825344e-05 -5.9748754e-06 6.9462082e-26 2.6084186e-06 -3.1094505e-26 2.5040754e-44)
(1.586855e-05 -4.5172102e-06 1.8043539e-26 1.3003352e-06 -5.2904864e-27 1.5378382e-45)
(1.7667854e-05 -3.0157487e-06 -8.7126851e-25 5.2038749e-07 1.487221e-25 2.6559606e-43)
(1.9171583e-05 -8.3618471e-07 0 3.758534e-08 0 0)
(4.0661354e-08 9.7281283e-08 -1.1123462e-27 2.3513217e-07 -2.6763939e-27 1.0615934e-46)
(1.4610069e-07 2.2993826e-07 9.2665174e-27 3.628151e-07 1.4601018e-26 1.2804831e-45)
(2.0239318e-07 3.1706796e-07 2.9792951e-27 4.9822324e-07 4.6650142e-27 1.0787197e-46)
(3.0930517e-07 4.8636012e-07 6.7113408e-26 7.6790264e-07 1.0556664e-25 3.0582214e-44)
(3.6908317e-07 6.3690961e-07 5.6386698e-26 1.1067782e-06 9.739821e-26 1.8801171e-44)
(4.2241117e-07 8.3500564e-07 -3.511164e-26 1.6716023e-06 -6.9789362e-26 5.9705531e-45)
(4.0180857e-07 9.6427066e-07 -2.9368196e-26 2.369379e-06 -7.0719108e-26 6.6961995e-45)
(3.3092728e-07 1.0301128e-06 -1.241208e-25 3.3666459e-06 -4.0065609e-25 9.9097977e-44)
(2.0401048e-07 9.0139026e-07 -1.9934864e-26 4.4957791e-06 -9.9049636e-26 3.6435669e-45)
(8.0466462e-08 5.2988398e-07 -7.7694909e-27 5.8628499e-06 -8.2628798e-26 2.751495e-45)
(4.5902547e-08 -1.6834034e-07 -5.9121822e-28 7.2012165e-06 2.9422768e-26 3.1019717e-46)
(2.2899336e-07 -1.2262929e-06 -1.1902732e-25 8.5051569e-06 8.3554527e-25 2.0988747e-43)
(7.7028852e-07 -2.5873852e-06 9.7133057e-27 9.451999e-06 -3.4208047e-26 1.29403e-46)
(1.8134548e-06 -4.1661739e-06 4.2578107e-25 9.9714447e-06 -1.027573e-24 4.481775e-43)
(3.412132e-06 -5.7204743e-06 -1.6414295e-25 9.8317514e-06 2.7254557e-25 1.103916e-44)
(5.5664631e-06 -7.0458545e-06 -5.1945417e-25 9.0762864e-06 6.6043761e-25 7.6599784e-44)
(8.100893e-06 -7.8545853e-06 -1.0767737e-25 7.7220647e-06 1.0665281e-25 1.5337686e-44)
(1.0823654e-05 -8.0511366e-06 1.6683191e-24 6.0617569e-06 -1.243089e-24 6.4994653e-43)
(1.3437272e-05 -7.4998392e-06 1.7477895e-25 4.234217e-06 -9.808508e-26 1.3531206e-44)
(1.5810232e-05 -6.4618473e-06 -8.3231216e-25 2.6717806e-06 3.4034975e-25 1.8228192e-43)
(1.7759677e-05 -4.7732014e-06 0 1.2996988e-06 0 0)
(1.9468724e-05 -3.1348041e-06 2.1620082e-24 5.1122108e-07 -3.4812041e-25 1.6312042e-42)
(2.0831169e-05 -8.3695827e-07 3.9349237e-27 3.4876665e-08 -1.3125668e-28 1.3681035e-46)
(4.3903597e-08 9.4614947e-08 -7.8974424e-27 2.0593373e-07 -1.7182116e-26 2.3596676e-45)
(1.610487e-07 2.2695417e-07 1.5278342e-26 3.2057977e-07 2.1566964e-26 2.7329952e-45)
(2.2816677e-07 3.1791871e-07 -3.2202889e-26 4.4415418e-07 -4.490276e-26 9.1263395e-45)
(3.5971225e-07 4.9845401e-07 -1.6570402e-26 6.9312552e-07 -2.2988431e-26 1.3762638e-45)
(4.4643308e-07 6.7061999e-07 8.1421602e-26 1.0133484e-06 1.2244719e-25 2.9499307e-44)
(5.3916671e-07 9.1156221e-07 0 1.5574553e-06 0 0)
(5.5248812e-07 1.104655e-06 -9.2051235e-27 2.2507107e-06 -1.8425694e-26 4.4274652e-46)
(5.0993362e-07 1.2679001e-06 -2.6209059e-26 3.2669454e-06 -6.7527762e-26 1.9641161e-45)
(3.8108487e-07 1.2568167e-06 -1.2197617e-25 4.4618899e-06 -4.2590242e-25 8.6988963e-44)
(2.1494096e-07 1.0254182e-06 -1.7075518e-25 5.9593563e-06 -9.6365822e-25 3.7253245e-43)
(7.7696232e-08 4.5553868e-07 1.39347e-26 7.509347e-06 2.4114511e-25 1.0795844e-44)
(9.0457359e-08 -5.0593785e-07 -2.9621737e-26 9.1203131e-06 5.3838685e-25 6.543017e-44)
(4.0342639e-07 -1.8559863e-06 1.3384818e-25 1.0455904e-05 -7.4889753e-25 1.0978327e-43)
(1.1853259e-06 -3.5429747e-06 -1.4081715e-25 1.1420574e-05 4.4213039e-25 2.1149775e-44)
(2.5497257e-06 -5.359729e-06 4.7932047e-25 1.1718347e-05 -1.0319294e-24 1.4439496e-43)
(4.5559808e-06 -7.0867143e-06 5.903857e-25 1.1301678e-05 -9.181584e-25 7.6663834e-44)
(7.0911857e-06 -8.406023e-06 -1.0243999e-24 1.0147427e-05 1.232582e-24 6.0877405e-43)
(9.9694639e-06 -9.0935736e-06 5.8961046e-25 8.4186621e-06 -5.3925792e-25 7.2223592e-44)
(1.2887142e-05 -9.0424559e-06 -2.7364422e-24 6.4295487e-06 1.9263193e-24 1.8887709e-42)
(1.557598e-05 -8.2050702e-06 1.3706402e-24 4.3784349e-06 -7.2575183e-25 7.2007281e-43)
(1.7888605e-05 -6.8953044e-06 2.1810696e-24 2.6932994e-06 -8.4167033e-25 1.309424e-42)
(1.969962e-05 -4.9802675e-06 -2.3082688e-24 1.2784679e-06 5.8425789e-25 1.8315006e-42)
(2.1262933e-05 -3.2176902e-06 1.6869882e-24 4.9426319e-07 -2.5551182e-25 1.1372758e-42)
(2.2454339e-05 -8.2560405e-07 5.3144231e-27 3.1743131e-08 -1.7243519e-28 8.4823394e-47)
(4.6861343e-08 9.1247618e-08 4.1930075e-27 1.7940361e-07 8.2246303e-27 9.5257529e-46)
(1.7488625e-07 2.2166959e-07 1.9049525e-26 2.8157682e-07 2.4175185e-26 4.3420027e-45)
(2.5240289e-07 3.1468394e-07 2.4100313e-26 3.9326377e-07 3.0035811e-26 5.3643724e-45)
(4.0836978e-07 5.027492e-07 1.5908151e-25 6.2082338e-07 1.9580098e-25 1.2605202e-43)
(5.2336017e-07 6.9204353e-07 -4.3693947e-26 9.1978714e-07 -5.7837333e-26 6.8052518e-45)
(6.5978119e-07 9.6942289e-07 1.3481725e-25 1.4373677e-06 1.9857863e-25 5.3489664e-44)
(7.1562235e-07 1.2207976e-06 -1.1230301e-26 2.1160244e-06 -1.9149767e-26 4.8026264e-46)
(7.1640926e-07 1.4773907e-06 2.0646222e-25 3.1351955e-06 4.3308775e-25 1.181628e-43)
(6.0639374e-07 1.5859723e-06 -8.2819416e-28 4.3747314e-06 -3.8038649e-27 3.0881645e-46)
(4.2500139e-07 1.5058859e-06 -7.1791745e-26 5.9758305e-06 -2.8008928e-25 2.6407797e-44)
(2.1400289e-07 1.0902463e-06 -7.3468031e-27 7.7102026e-06 -3.8305769e-26 4.1110975e-45)
(8.2441332e-08 2.7023819e-07 -3.6237753e-26 9.6065148e-06 -1.1850686e-24 3.2274963e-43)
(1.7766413e-07 -1.004402e-06 -1.8398645e-26 1.1327419e-05 1.8581981e-25 3.1786306e-45)
(6.8290344e-07 -2.7222038e-06 -2.7451819e-26 1.2769939e-05 1.2935985e-25 3.4856615e-45)
(1.7619876e-06 -4.7268643e-06 -5.4020339e-26 1.3574464e-05 1.7345258e-25 5.6950354e-44)
(3.5383104e-06 -6.8150691e-06 1.2771276e-25 1.363138e-05 -2.5288339e-25 1.0211271e-44)
(5.9766866e-06 -8.6348819e-06 -1.7297355e-25 1.2790734e-05 2.5513335e-25 1.7455295e-44)
(8.9389088e-06 -9.910038e-06 8.3378934e-25 1.1196326e-05 -9.2836372e-25 1.3266966e-43)
(1.2108435e-05 -1.0376708e-05 0 9.0350255e-06 0 0)
(1.5189616e-05 -1.0028274e-05 1.7118349e-25 6.7183448e-06 -1.1250332e-25 2.3419613e-45)
(1.7858076e-05 -8.8555098e-06 6.872303e-26 4.4557692e-06 -3.3984644e-26 5.2950217e-46)
(2.0053935e-05 -7.2647419e-06 -1.6636008e-25 2.6722557e-06 6.0151929e-26 4.4598807e-45)
(2.1652379e-05 -5.1293136e-06 1.7486478e-25 1.2372088e-06 -4.1808938e-26 2.7031207e-44)
(2.3033208e-05 -3.2620241e-06 -2.4951385e-24 4.7022477e-07 3.5342089e-25 2.2476127e-42)
(2.402084e-05 -8.0231782e-07 -1.3233163e-24 2.8320226e-08 4.418313e-26 7.7254516e-43)
(4.9544531e-08 8.7363022e-08 5.2909457e-27 1.5551508e-07 9.4184231e-27 9.1160395e-46)
(1.8757542e-07 2.1456246e-07 -1.525778e-26 2.4592959e-07 -1.7470153e-26 2.7665617e-45)
(2.7489475e-07 3.0807562e-07 -1.6571115e-26 3.4600227e-07 -1.8572724e-26 2.128292e-45)
(4.5459022e-07 5.0029204e-07 -1.9922881e-26 5.5206503e-07 -2.1914694e-26 1.7766489e-45)
(5.9836499e-07 7.0236339e-07 -1.9695328e-25 8.2817217e-07 -2.3112497e-25 1.285612e-43)
(7.8140175e-07 1.0095409e-06 -4.2338373e-26 1.3148313e-06 -5.4656463e-26 5.0805038e-45)
(8.8669726e-07 1.3126607e-06 -1.463991e-26 1.9706918e-06 -2.1637947e-26 6.2996359e-46)
(9.4396016e-07 1.656375e-06 -1.3732149e-26 2.9785328e-06 -2.4425898e-26 3.7488374e-46)
(8.7211326e-07 1.8830218e-06 -2.0230303e-25 4.2431753e-06 -4.4941725e-25 9.251427e-44)
(7.024692e-07 1.9596945e-06 -5.0717791e-26 5.9210879e-06 -1.4706017e-25 1.1815367e-44)
(4.4906532e-07 1.7168268e-06 -8.4762696e-26 7.8099459e-06 -3.8090188e-25 3.3538843e-44)
(2.0608611e-07 1.0750997e-06 1.9019015e-26 9.9612533e-06 1.6946509e-25 6.5335986e-45)
(1.068824e-07 -6.5022222e-08 -2.6617806e-27 1.2050155e-05 7.6615571e-25 1.0805492e-43)
(3.3759089e-07 -1.7333029e-06 -4.1985457e-27 1.3978854e-05 4.6747908e-26 2.5675951e-45)
(1.0978765e-06 -3.8389343e-06 -1.4958565e-25 1.5347234e-05 5.9941414e-25 6.4537323e-44)
(2.5704738e-06 -6.2140319e-06 1.271782e-25 1.5978854e-05 -3.5744059e-25 1.753531e-43)
(4.8106266e-06 -8.5124194e-06 8.777613e-25 1.5618664e-05 -1.6421319e-24 1.4442941e-42)