# Forces       
# CofR         : (0.00000000e+00 0.00000000e+00 0.00000000e+00)
# Time         forces(pressure viscous porous) moment(pressure viscous porous)
1.20000000e-03	((3.92883941e+03 2.22203692e-04 9.91545686e-17) (2.55100418e+00 6.38515851e-09 -1.03689621e-19) (0.00000000e+00 0.00000000e+00 0.00000000e+00)) ((1.32898051e-20 6.09827724e-16 7.43211048e-12) (4.01178349e-17 -3.83928605e-20 -4.04428384e-08) (0.00000000e+00 0.00000000e+00 0.00000000e+00))
2.64000000e-03	((-1.28153405e+03 -1.58671533e-04 -3.59091244e-17) (2.37341596e+00 4.74467390e-08 -7.27102367e-20) (0.00000000e+00 0.00000000e+00 0.00000000e+00)) ((-3.96259360e-21 -1.98911588e-16 -2.77924350e-11) (3.25732811e-17 -2.38049087e-20 -2.15685463e-07) (0.00000000e+00 0.00000000e+00 0.00000000e+00))
4.36800000e-03	((-5.91460820e+00 -6.64869206e-05 -3.66299781e-19) (2.26373929e+00 1.33252472e-08 -5.14203005e-20) (0.00000000e+00 0.00000000e+00 0.00000000e+00)) ((-8.80637604e-21 -9.16947311e-19 -2.84573797e-12) (2.66727531e-17 -1.31089829e-20 -2.85409041e-07) (0.00000000e+00 0.00000000e+00 0.00000000e+00))
6.44160000e-03	((-9.69937286e+00 6.28253565e-05 -3.52236349e-19) (2.19574682e+00 2.40676320e-08 -3.94069539e-20) (0.00000000e+00 0.00000000e+00 0.00000000e+00)) ((3.80256923e-21 -1.50562311e-18 5.48317793e-13) (2.32100649e-17 -7.76567804e-21 -3.12426331e-07) (0.00000000e+00 0.00000000e+00 0.00000000e+00))
8.92992000e-03	((-1.03817526e+00 -5.36973816e-06 -4.08817284e-19) (2.14565191e+00 2.63026025e-08 -3.30683221e-20) (0.00000000e+00 0.00000000e+00 0.00000000e+00)) ((6.46641139e-21 -1.60722325e-19 2.45372071e-12) (2.11167589e-17 -5.12723046e-21 -3.06378881e-07) (0.00000000e+00 0.00000000e+00 0.00000000e+00))
1.19159040e-02	((2.26084368e+00 4.55466030e-06 -4.42550328e-19) (2.10124881e+00 2.87409713e-08 -2.98529466e-20) (0.00000000e+00 0.00000000e+00 0.00000000e+00)) ((5.13560870e-21 3.51635139e-19 3.39279321e-12) (1.96548827e-17 -3.90533647e-21 -2.84402483e-07) (0.00000000e+00 0.00000000e+00 0.00000000e+00))
1.54990848e-02	((2.77841528e+00 5.26134423e-06 -4.50538149e-19) (2.05625917e+00 2.97782133e-08 -2.83547932e-20) (0.00000000e+00 0.00000000e+00 0.00000000e+00)) ((3.18259205e-21 4.32062754e-19 5.14928855e-12) (1.85048948e-17 -3.36297372e-21 -2.55750364e-07) (0.00000000e+00 0.00000000e+00 0.00000000e+00))
1.97989018e-02	((2.47628573e+00 5.98293655e-06 -4.47142389e-19) (2.00756848e+00 2.77525306e-08 -2.77930979e-20) (0.00000000e+00 0.00000000e+00 0.00000000e+00)) ((2.26349976e-21 3.85136671e-19 5.14562812e-12) (1.76057325e-17 -3.15798719e-21 -2.26767729e-07) (0.00000000e+00 0.00000000e+00 0.00000000e+00))
2.49586821e-02	((2.10298856e+00 5.88451462e-06 -4.42466711e-19) (1.95351957e+00 2.42111971e-08 -2.78704536e-20) (0.00000000e+00 0.00000000e+00 0.00000000e+00)) ((1.89732389e-21 3.27219989e-19 5.02600359e-12) (1.68444623e-17 -3.16109737e-21 -2.01967895e-07) (0.00000000e+00 0.00000000e+00 0.00000000e+00))
3.11504185e-02	((1.83867170e+00 6.18855877e-07 -4.40133314e-19) (1.89308128e+00 2.32689213e-08 -2.85485996e-20) (0.00000000e+00 0.00000000e+00 0.00000000e+00)) ((1.09587193e-21 2.86199720e-19 4.19748432e-12) (1.60747246e-17 -3.31543880e-21 -1.95552756e-07) (0.00000000e+00 0.00000000e+00 0.00000000e+00))
3.85805022e-02	((1.67410830e+00 2.19066200e-06 -4.39718890e-19) (1.82554607e+00 2.44117845e-08 -2.99779703e-20) (0.00000000e+00 0.00000000e+00 0.00000000e+00)) ((-2.83378174e-22 2.60567259e-19 3.40411659e-12) (1.53139502e-17 -3.59857979e-21 -2.07283494e-07) (0.00000000e+00 0.00000000e+00 0.00000000e+00))
4.74966027e-02	((1.56620491e+00 1.82185429e-06 -4.40069728e-19) (1.75044819e+00 2.95972304e-09 -3.19272402e-20) (0.00000000e+00 0.00000000e+00 0.00000000e+00)) ((-1.44051526e-21 2.43476173e-19 3.52342737e-12) (1.37998125e-17 -4.29205498e-21 -2.22019454e-07) (0.00000000e+00 0.00000000e+00 0.00000000e+00))
5.81959232e-02	((1.48206340e+00 2.47399127e-07 -4.40923078e-19) (1.66759895e+00 -4.21059069e-08 -3.44484384e-20) (0.00000000e+00 0.00000000e+00 0.00000000e+00)) ((-1.65221894e-21 2.29999401e-19 3.83621284e-12) (1.22331190e-17 -5.84849719e-21 -2.57903987e-07) (0.00000000e+00 0.00000000e+00 0.00000000e+00))
7.10351079e-02	((1.40451765e+00 -1.28800638e-06 -4.41491768e-19) (1.57714572e+00 -1.04725506e-07 -3.79984382e-20) (0.00000000e+00 0.00000000e+00 0.00000000e+00)) ((-1.53318145e-21 2.17822830e-19 3.85892158e-12) (1.03116498e-17 -8.58476128e-21 -3.34337962e-07) (0.00000000e+00 0.00000000e+00 0.00000000e+00))
8.64421294e-02	((1.32691312e+00 -4.57249184e-06 -4.41223393e-19) (1.47963811e+00 -1.61996141e-07 -4.20324562e-20) (0.00000000e+00 0.00000000e+00 0.00000000e+00)) ((-1.19762052e-21 2.05847264e-19 3.69507054e-12) (7.34281159e-18 -1.18053014e-20 -4.87777550e-07) (0.00000000e+00 0.00000000e+00 0.00000000e+00))
1.04930555e-01	((1.24765095e+00 -6.58530696e-06 -4.39950312e-19) (1.37609789e+00 -2.36520582e-07 -2.88335556e-20) (0.00000000e+00 0.00000000e+00 0.00000000e+00)) ((-7.92202727e-22 1.93636619e-19 4.08505106e-12) (3.38931919e-18 -2.31822320e-21 -7.61489641e-07) (0.00000000e+00 0.00000000e+00 0.00000000e+00))
1.27116666e-01	((1.16726856e+00 -9.06100145e-06 -4.38944458e-19) (1.26812557e+00 -3.51566844e-07 -1.12452257e-20) (0.00000000e+00 0.00000000e+00 0.00000000e+00)) ((-5.31041696e-22 1.81161566e-19 3.91830036e-12) (-7.49718191e-19 4.19591544e-21 -1.19843798e-06) (0.00000000e+00 0.00000000e+00 0.00000000e+00))
1.53740000e-01	((1.08853634e+00 -1.06712343e-05 -4.38030844e-19) (1.15787094e+00 -5.31291527e-07 4.37398908e-21) (0.00000000e+00 0.00000000e+00 0.00000000e+00)) ((-1.78823324e-22 1.69042206e-19 3.75059608e-12) (-4.41066419e-18 7.87322301e-21 -1.85886567e-06) (0.00000000e+00 0.00000000e+00 0.00000000e+00))
1.85258460e-01	((1.01311008e+00 -1.18428186e-05 -4.37529827e-19) (1.04932916e+00 -7.48573845e-07 1.50264408e-20) (0.00000000e+00 0.00000000e+00 0.00000000e+00)) ((-3.60119531e-22 1.57488871e-19 3.20143521e-12) (-6.91195544e-18 1.09223889e-20 -2.80057810e-06) (0.00000000e+00 0.00000000e+00 0.00000000e+00))
2.21741023e-01	((9.44411165e-01 -1.26723834e-05 -4.36625393e-19) (9.47466032e-01 -1.07502909e-06 2.11773327e-20) (0.00000000e+00 0.00000000e+00 0.00000000e+00)) ((-7.64541227e-22 1.46793135e-19 1.93057054e-12) (-8.41750069e-18 1.42117795e-20 -3.98091668e-06) (0.00000000e+00 0.00000000e+00 0.00000000e+00))
2.63271043e-01	((8.85184919e-01 3.86347856e-06 -4.35361527e-19) (8.55311797e-01 -8.72955259e-07 2.58407646e-20) (0.00000000e+00 0.00000000e+00 0.00000000e+00)) ((-8.42681013e-22 1.37606741e-19 -2.17458239e-12) (-8.59834869e-18 1.70014615e-20 -4.19039718e-06) (0.00000000e+00 0.00000000e+00 0.00000000e+00))
3.09938026e-01	((8.36167385e-01 3.75887080e-06 -4.34083069e-19) (7.74050363e-01 -5.47700188e-07 2.63152374e-20) (0.00000000e+00 0.00000000e+00 0.00000000e+00)) ((-9.71672007e-22 1.29870326e-19 1.54799350e-13) (-6.71494174e-18 1.70245727e-20 -4.04605379e-06) (0.00000000e+00 0.00000000e+00 0.00000000e+00))
3.61387375e-01	((7.97482625e-01 1.75603596e-06 -4.32769671e-19) (7.04120556e-01 -3.02724967e-07 2.22133603e-20) (0.00000000e+00 0.00000000e+00 0.00000000e+00)) ((-1.09270241e-21 1.23694978e-19 1.20280305e-12) (-4.28424399e-18 1.44790947e-20 -3.85947015e-06) (0.00000000e+00 0.00000000e+00 0.00000000e+00))
4.12925927e-01	((7.71016303e-01 -1.85426349e-07 -4.31662220e-19) (6.49081685e-01 -2.32579055e-07 1.89183362e-20) (0.00000000e+00 0.00000000e+00 0.00000000e+00)) ((-1.24570592e-21 1.19529046e-19 1.58242641e-12) (-2.84308679e-18 1.18254855e-20 -3.74684962e-06) (0.00000000e+00 0.00000000e+00 0.00000000e+00))
4.64610908e-01	((7.53235991e-01 -1.50431481e-06 -4.30367744e-19) (6.04912665e-01 -2.83846650e-06 1.72283005e-20) (0.00000000e+00 0.00000000e+00 0.00000000e+00)) ((-1.26776037e-21 1.16742053e-19 2.16183161e-12) (-2.34155628e-18 9.22388039e-21 -6.17276712e-06) (0.00000000e+00 0.00000000e+00 0.00000000e+00))
5.16492781e-01	((7.42717306e-01 8.27817193e-07 -4.28533474e-19) (5.68733071e-01 -1.43350749e-06 1.45458441e-20) (0.00000000e+00 0.00000000e+00 0.00000000e+00)) ((-1.37892442e-21 1.15143319e-19 3.16939524e-12) (-1.92339861e-18 8.44537132e-21 -4.67240058e-06) (0.00000000e+00 0.00000000e+00 0.00000000e+00))
5.68623984e-01	((7.36513715e-01 2.02159750e-06 -4.26465749e-19) (5.38555492e-01 -2.88664954e-06 1.29231456e-20) (0.00000000e+00 0.00000000e+00 0.00000000e+00)) ((-1.43015865e-21 1.14300582e-19 -1.21423565e-12) (-1.49026782e-18 7.29352327e-21 -4.35796023e-06) (0.00000000e+00 0.00000000e+00 0.00000000e+00))
6.21052224e-01	((7.33388394e-01 -5.09702968e-06 -4.24710841e-19) (5.13018029e-01 -4.27574689e-06 9.23910172e-21) (0.00000000e+00 0.00000000e+00 0.00000000e+00)) ((-1.64060781e-21 1.13936245e-19 -2.78843702e-12) (-1.13508733e-18 6.38181280e-21 -4.33400997e-06) (0.00000000e+00 0.00000000e+00 0.00000000e+00))
6.73811517e-01	((7.33145152e-01 -8.12621075e-07 -4.22931429e-19) (4.91081671e-01 -3.89336717e-06 7.91075979e-21) (0.00000000e+00 0.00000000e+00 0.00000000e+00)) ((-1.90134790e-21 1.14044231e-19 1.76351539e-12) (-8.54357907e-19 5.18139987e-21 -2.25683801e-06) (0.00000000e+00 0.00000000e+00 0.00000000e+00))
7.26828793e-01	((7.36703863e-01 -1.39781043e-05 -4.21085357e-19) (4.72007787e-01 -5.74810455e-06 9.52364314e-21) (0.00000000e+00 0.00000000e+00 0.00000000e+00)) ((-2.15083936e-21 1.14698811e-19 -4.61089768e-12) (-6.45486286e-19 6.56367316e-21 -4.41895096e-06) (0.00000000e+00 0.00000000e+00 0.00000000e+00))
7.80075936e-01	((7.42418448e-01 -1.27868487e-05 -4.19441625e-19) (4.55219242e-01 -7.31215755e-06 8.55002495e-21) (0.00000000e+00 0.00000000e+00 0.00000000e+00)) ((-2.45348693e-21 1.15627318e-19 -4.34000313e-12) (-4.69794017e-19 6.24202405e-21 -5.56850758e-06) (0.00000000e+00 0.00000000e+00 0.00000000e+00))
8.33554672e-01	((7.50397262e-01 -1.31844984e-05 -4.17683354e-19) (4.40311449e-01 -4.25507932e-06 9.45366437e-21) (0.00000000e+00 0.00000000e+00 0.00000000e+00)) ((-2.67466950e-21 1.16898596e-19 -2.63656142e-12) (-3.71784785e-19 6.49117174e-21 -2.23063854e-06) (0.00000000e+00 0.00000000e+00 0.00000000e+00))
8.87261825e-01	((7.59597508e-01 -1.30795155e-05 -4.16145201e-19) (4.26944397e-01 -1.29740022e-06 8.65258904e-21) (0.00000000e+00 0.00000000e+00 0.00000000e+00)) ((-3.01027860e-21 1.18374070e-19 -2.64034156e-13) (-3.09073082e-19 5.70137879e-21 1.02536640e-06) (0.00000000e+00 0.00000000e+00 0.00000000e+00))
9.41144262e-01	((7.70257617e-01 -1.06377789e-05 -4.14723933e-19) (4.14904032e-01 -2.62329509e-06 6.70031570e-21) (0.00000000e+00 0.00000000e+00 0.00000000e+00)) ((-3.29982542e-21 1.20129034e-19 1.76055862e-12) (-2.41680801e-19 6.10197062e-21 -5.46976593e-07) (0.00000000e+00 0.00000000e+00 0.00000000e+00))
9.95013266e-01	((7.82616485e-01 -9.87431194e-06 -4.13406045e-19) (4.04052894e-01 1.27404993e-07 6.86069879e-21) (0.00000000e+00 0.00000000e+00 0.00000000e+00)) ((-3.58058614e-21 1.22130324e-19 2.04631515e-12) (-1.24139287e-19 5.19193541e-21 3.32098749e-06) (0.00000000e+00 0.00000000e+00 0.00000000e+00))
1.04888821e+00	((7.94422767e-01 -7.76472157e-06 -4.11799500e-19) (3.94201540e-01 -8.86848367e-07 6.70618354e-21) (0.00000000e+00 0.00000000e+00 0.00000000e+00)) ((-3.84550049e-21 1.24049040e-19 2.06019371e-12) (5.97546096e-21 4.81478389e-21 2.90240814e-06) (0.00000000e+00 0.00000000e+00 0.00000000e+00))
1.10278869e+00	((8.07823483e-01 -7.10096691e-06 -4.10413650e-19) (3.85226399e-01 -6.16911734e-07 6.38290032e-21) (0.00000000e+00 0.00000000e+00 0.00000000e+00)) ((-4.16106484e-21 1.26222191e-19 2.74297953e-12) (8.94855637e-21 4.70968451e-21 3.53571646e-06) (0.00000000e+00 0.00000000e+00 0.00000000e+00))
1.15673080e+00	((8.21961195e-01 -5.17671124e-06 -4.09091667e-19) (3.77022699e-01 -3.82016729e-07 4.57302106e-21) (0.00000000e+00 0.00000000e+00 0.00000000e+00)) ((-4.50398518e-21 1.28505150e-19 3.04234501e-12) (-1.01287201e-19 5.81300547e-21 4.08045660e-06) (0.00000000e+00 0.00000000e+00 0.00000000e+00))
1.21072582e+00	((8.36569246e-01 -4.98383363e-06 -4.07803405e-19) (3.69492395e-01 -1.62390232e-06 3.60260365e-21) (0.00000000e+00 0.00000000e+00 0.00000000e+00)) ((-4.84579868e-21 1.30886103e-19 2.19552566e-12) (-1.62388537e-19 6.18749202e-21 3.19226122e-06) (0.00000000e+00 0.00000000e+00 0.00000000e+00))
1.26478670e+00	((8.50760028e-01 -4.55952887e-06 -4.06474803e-19) (3.62559113e-01 -3.41837108e-06 2.99371488e-21) (0.00000000e+00 0.00000000e+00 0.00000000e+00)) ((-5.15253780e-21 1.33244331e-19 2.01581636e-12) (-1.99406365e-19 6.27855942e-21 1.77079857e-06) (0.00000000e+00 0.00000000e+00 0.00000000e+00))
1.31892813e+00	((8.65661717e-01 -3.07141278e-06 -4.05229877e-19) (3.56163535e-01 -2.08547414e-06 5.00690739e-21) (0.00000000e+00 0.00000000e+00 0.00000000e+00)) ((-5.44982466e-21 1.35755380e-19 1.62870450e-12) (-2.64224569e-19 4.34428373e-21 3.23487574e-06) (0.00000000e+00 0.00000000e+00 0.00000000e+00))
1.37315197e+00	((8.81275406e-01 -2.43311982e-06 -4.04143997e-19) (3.50207939e-01 -4.54041242e-06 5.07443396e-21) (0.00000000e+00 0.00000000e+00 0.00000000e+00)) ((-5.74464250e-21 1.38403527e-19 1.88115428e-12) (-3.85504621e-19 3.94729807e-21 1.12058501e-06) (0.00000000e+00 0.00000000e+00 0.00000000e+00))
1.42742771e+00	((8.96358175e-01 -1.24820556e-05 -4.03013124e-19) (3.44741137e-01 -8.00483001e-06 5.39766304e-21) (0.00000000e+00 0.00000000e+00 0.00000000e+00)) ((-6.06672362e-21 1.40953781e-19 -7.57395991e-13) (-4.86897679e-19 3.35920274e-21 -6.54839545e-06) (0.00000000e+00 0.00000000e+00 0.00000000e+00))
1.48176598e+00	((9.11749094e-01 -1.37839400e-05 -4.01923961e-19) (3.39640123e-01 -8.25787566e-06 5.10418918e-21) (0.00000000e+00 0.00000000e+00 0.00000000e+00)) ((-6.39378712e-21 1.43533051e-19 -9.08916930e-13) (-4.71086587e-19 3.22739476e-21 -6.59229864e-06) (0.00000000e+00 0.00000000e+00 0.00000000e+00))
1.53617565e+00	((9.26358690e-01 -1.42749930e-05 -4.00659489e-19) (3.34900804e-01 -7.15946556e-06 3.70320748e-21) (0.00000000e+00 0.00000000e+00 0.00000000e+00)) ((-6.66533529e-21 1.46017149e-19 -1.02405969e-12) (-3.84085587e-19 4.11480870e-21 -5.42415737e-06) (0.00000000e+00 0.00000000e+00 0.00000000e+00))
1.59066395e+00	((9.41507805e-01 -1.12571734e-05 -3.99628210e-19) (3.30504149e-01 -2.97246650e-07 2.35285043e-21) (0.00000000e+00 0.00000000e+00 0.00000000e+00)) ((-6.92088236e-21 1.48601545e-19 1.35870991e-12) (-3.54985216e-19 5.03168764e-21 1.00132394e-06) (0.00000000e+00 0.00000000e+00 0.00000000e+00))
1.64523543e+00	((9.56278642e-01 -1.00419489e-05 -3.98523728e-19) (3.26425063e-01 -3.52697590e-07 3.29538648e-21) (0.00000000e+00 0.00000000e+00 0.00000000e+00)) ((-7.14947996e-21 1.51151860e-19 1.50206291e-12) (-5.82587623e-19 4.04717205e-21 9.78571912e-07) (0.00000000e+00 0.00000000e+00 0.00000000e+00))
1.69989483e+00	((9.70689310e-01 -1.08270646e-05 -3.97361006e-19) (3.22639997e-01 -3.84016757e-07 3.66610965e-21) (0.00000000e+00 0.00000000e+00 0.00000000e+00)) ((-7.37084838e-21 1.53627257e-19 1.55022913e-12) (-8.40627402e-19 3.51764206e-21 9.35512335e-07) (0.00000000e+00 0.00000000e+00 0.00000000e+00))
1.75464781e+00	((9.84540381e-01 -1.02311940e-05 -3.96128668e-19) (3.19119930e-01 -4.70439196e-07 3.84474537e-21) (0.00000000e+00 0.00000000e+00 0.00000000e+00)) ((-7.58896553e-21 1.56032775e-19 1.08912423e-12) (-1.11612095e-18 3.13483883e-21 8.54962683e-07) (0.00000000e+00 0.00000000e+00 0.00000000e+00))
1.80950048e+00	((9.98423477e-01 -1.05324204e-05 -3.95000357e-19) (3.15849119e-01 -4.53999071e-07 4.15856397e-21) (0.00000000e+00 0.00000000e+00 0.00000000e+00)) ((-7.79340889e-21 1.58439154e-19 1.36066646e-12) (-1.23751462e-18 2.65045943e-21 8.73771062e-07) (0.00000000e+00 0.00000000e+00 0.00000000e+00))
1.86439914e+00	((1.01190066e+00 -1.00286488e-05 -3.93861192e-19) (3.12808734e-01 -4.11471281e-07 4.12679434e-21) (0.00000000e+00 0.00000000e+00 0.00000000e+00)) ((-7.97871729e-21 1.60779432e-19 1.34158613e-12) (-1.34222937e-18 2.44191043e-21 9.24424543e-07) (0.00000000e+00 0.00000000e+00 0.00000000e+00))
1.91931318e+00	((1.02516193e+00 -1.04868451e-05 -3.92764051e-19) (3.09973809e-01 -3.74621026e-07 4.04642590e-21) (0.00000000e+00 0.00000000e+00 0.00000000e+00)) ((-8.16330210e-21 1.63068174e-19 1.68765327e-12) (-1.46256724e-18 2.28223028e-21 9.89965998e-07) (0.00000000e+00 0.00000000e+00 0.00000000e+00))
1.97425064e+00	((1.03687417e+00 -1.04548660e-05 -3.91369900e-19) (3.07306966e-01 -3.44801056e-07 3.87080488e-21) (0.00000000e+00 0.00000000e+00 0.00000000e+00)) ((-8.34025795e-21 1.65107754e-19 1.65197012e-12) (-1.43306910e-18 2.17762382e-21 1.05935512e-06) (0.00000000e+00 0.00000000e+00 0.00000000e+00))
2.02921986e+00	((1.04884771e+00 -1.05489122e-05 -3.90103758e-19) (3.04800077e-01 -3.24697222e-07 3.71657870e-21) (0.00000000e+00 0.00000000e+00 0.00000000e+00)) ((-8.52232861e-21 1.67169632e-19 1.64498970e-12) (-1.39769760e-18 2.05743586e-21 1.12670553e-06) (0.00000000e+00 0.00000000e+00 0.00000000e+00))
2.08423196e+00	((1.06031341e+00 -9.74853696e-06 -3.88821472e-19) (3.02444430e-01 -3.03731363e-07 3.58149960e-21) (0.00000000e+00 0.00000000e+00 0.00000000e+00)) ((-8.69987001e-21 1.69151285e-19 1.76551243e-12) (-1.35322347e-18 1.92548749e-21 1.18946411e-06) (0.00000000e+00 0.00000000e+00 0.00000000e+00))
2.13929881e+00	((1.07140554e+00 -9.75347488e-06 -3.87610380e-19) (3.00231560e-01 -3.95004727e-07 3.47609421e-21) (0.00000000e+00 0.00000000e+00 0.00000000e+00)) ((-8.87724090e-21 1.71073517e-19 1.66226451e-12) (-1.30760593e-18 1.78454788e-21 1.13933193e-06) (0.00000000e+00 0.00000000e+00 0.00000000e+00))
2.19443224e+00	((1.08131205e+00 -9.94602088e-06 -3.86191587e-19) (2.98152902e-01 -5.07680275e-07 3.36714198e-21) (0.00000000e+00 0.00000000e+00 0.00000000e+00)) ((-9.04758246e-21 1.72803502e-19 1.69152344e-12) (-1.27121899e-18 1.64818997e-21 1.06850840e-06) (0.00000000e+00 0.00000000e+00 0.00000000e+00))
2.24964384e+00	((1.09082876e+00 -9.17526890e-06 -3.84735315e-19) (2.96193669e-01 -5.70607080e-07 3.25291628e-21) (0.00000000e+00 0.00000000e+00 0.00000000e+00)) ((-9.21733187e-21 1.74454238e-19 1.66502023e-12) (-1.24002024e-18 1.51817642e-21 1.04499745e-06) (0.00000000e+00 0.00000000e+00 0.00000000e+00))
2.30494426e+00	((1.09971516e+00 -1.03745826e-05 -3.83323455e-19) (2.94338915e-01 -6.13285870e-07 3.11781819e-21) (0.00000000e+00 0.00000000e+00 0.00000000e+00)) ((-9.37208250e-21 1.76003835e-19 2.26233518e-12) (-1.21236888e-18 1.40888488e-21 1.04552171e-06) (0.00000000e+00 0.00000000e+00 0.00000000e+00))
2.36031760e+00	((1.10810999e+00 -1.10216112e-05 -3.81879799e-19) (2.92583181e-01 -5.46645815e-07 3.00892326e-21) (0.00000000e+00 0.00000000e+00 0.00000000e+00)) ((-9.52523150e-21 1.77461668e-19 1.77185816e-12) (-1.18213397e-18 1.28283946e-21 1.12192947e-06) (0.00000000e+00 0.00000000e+00 0.00000000e+00))
2.41573450e+00	((1.11602662e+00 -1.10020284e-05 -3.80485519e-19) (2.90929234e-01 -5.05208021e-07 2.90733319e-21) (0.00000000e+00 0.00000000e+00 0.00000000e+00)) ((-9.68198092e-21 1.78829129e-19 1.35775419e-12) (-1.11550335e-18 1.15038401e-21 1.09321697e-06) (0.00000000e+00 0.00000000e+00 0.00000000e+00))
2.47119975e+00	((1.12351760e+00 -1.12960628e-05 -3.78974415e-19) (2.89361091e-01 -4.82830672e-07 2.65587170e-21) (0.00000000e+00 0.00000000e+00 0.00000000e+00)) ((-9.82196003e-21 1.80126102e-19 1.40399216e-12) (-1.07106163e-18 1.13692213e-21 1.02940181e-06) (0.00000000e+00 0.00000000e+00 0.00000000e+00))
2.52671824e+00	((1.12915434e+00 -1.15629087e-05 -3.77166642e-19) (2.87862039e-01 -4.76841813e-07 2.51065606e-21) (0.00000000e+00 0.00000000e+00 0.00000000e+00)) ((-9.94819506e-21 1.81123895e-19 1.21698994e-12) (-1.02386118e-18 1.03704722e-21 9.62346621e-07) (0.00000000e+00 0.00000000e+00 0.00000000e+00))
2.58229490e+00	((1.13514755e+00 -1.14940172e-05 -3.75600350e-19) (2.86428052e-01 -4.81518378e-07 2.36671813e-21) (0.00000000e+00 0.00000000e+00 0.00000000e+00)) ((-1.00728422e-20 1.82172723e-19 7.98952809e-13) (-9.80617212e-19 9.39652537e-22 9.30442279e-07) (0.00000000e+00 0.00000000e+00 0.00000000e+00))
2.63793464e+00	((1.14048313e+00 -1.11596599e-05 -3.74015645e-19) (2.85057026e-01 -4.92927904e-07 2.22173741e-21) (0.00000000e+00 0.00000000e+00 0.00000000e+00)) ((-1.01891290e-20 1.83103892e-19 8.57728168e-13) (-9.39596217e-19 8.45935491e-22 9.03851719e-07) (0.00000000e+00 0.00000000e+00 0.00000000e+00))
2.69364349e+00	((1.14512045e+00 -1.21198640e-05 -3.72443566e-19) (2.83751734e-01 -5.22657192e-07 2.07291302e-21) (0.00000000e+00 0.00000000e+00 0.00000000e+00)) ((-1.03016554e-20 1.83915707e-19 6.33758237e-13) (-9.01436094e-19 7.57055761e-22 8.53778614e-07) (0.00000000e+00 0.00000000e+00 0.00000000e+00))
2.74942859e+00	((1.14925765e+00 -1.23918124e-05 -3.70747325e-19) (2.82509621e-01 -5.66269667e-07 1.94687746e-21) (0.00000000e+00 0.00000000e+00 0.00000000e+00)) ((-1.04180354e-20 1.84643748e-19 6.56779752e-13) (-8.65012846e-19 6.53194990e-22 8.00026065e-07) (0.00000000e+00 0.00000000e+00 0.00000000e+00))
2.80529450e+00	((1.15319495e+00 -1.17626991e-05 -3.69151968e-19) (2.81326048e-01 -6.03223691e-07 1.83575609e-21) (0.00000000e+00 0.00000000e+00 0.00000000e+00)) ((-1.05416253e-20 1.85335724e-19 4.18216460e-13) (-8.30876438e-19 5.49921806e-22 7.58734521e-07) (0.00000000e+00 0.00000000e+00 0.00000000e+00))
2.86124407e+00	((1.15572633e+00 -1.24401677e-05 -3.67214519e-19) (2.80186414e-01 -6.40537604e-07 1.72585551e-21) (0.00000000e+00 0.00000000e+00 0.00000000e+00)) ((-1.06646658e-20 1.85796174e-19 7.82931229e-13) (-7.99219996e-19 4.48331552e-22 7.23283830e-07) (0.00000000e+00 0.00000000e+00 0.00000000e+00))
2.91727987e+00	((1.15813791e+00 -1.26165189e-05 -3.65489831e-19) (2.79080532e-01 -6.51355719e-07 1.59973492e-21) (0.00000000e+00 0.00000000e+00 0.00000000e+00)) ((-1.07825991e-20 1.86230392e-19 7.94623482e-13) (-7.85315034e-19 3.57649355e-22 7.11939465e-07) (0.00000000e+00 0.00000000e+00 0.00000000e+00))
2.97340555e+00	((1.16044628e+00 -1.23571317e-05 -3.63863711e-19) (2.78016203e-01 -7.11815751e-07 1.56356630e-21) (0.00000000e+00 0.00000000e+00 0.00000000e+00)) ((-1.08954446e-20 1.86644367e-19 8.52916479e-13) (-7.81082740e-19 3.00251797e-22 6.62471126e-07) (0.00000000e+00 0.00000000e+00 0.00000000e+00))
3.02962483e+00	((1.16133322e+00 -1.21802687e-05 -3.61929944e-19) (2.76983126e-01 -7.39122267e-07 1.57340939e-21) (0.00000000e+00 0.00000000e+00 0.00000000e+00)) ((-1.10012199e-20 1.86820592e-19 7.66291327e-13) (-7.87880598e-19 2.91101930e-22 6.36194951e-07) (0.00000000e+00 0.00000000e+00 0.00000000e+00))
3.08594126e+00	((1.16228567e+00 -1.23165636e-05 -3.60107283e-19) (2.75972371e-01 -7.65651352e-07 1.58648320e-21) (0.00000000e+00 0.00000000e+00 0.00000000e+00)) ((-1.11018334e-20 1.87005126e-19 7.59000284e-13) (-7.95731136e-19 2.81899482e-22 6.16995010e-07) (0.00000000e+00 0.00000000e+00 0.00000000e+00))
3.14235854e+00	((1.16299535e+00 -1.24796010e-05 -3.58337281e-19) (2.74993158e-01 -7.94855583e-07 1.59186410e-21) (0.00000000e+00 0.00000000e+00 0.00000000e+00)) ((-1.11942917e-20 1.87144102e-19 7.33697391e-13) (-8.03407998e-19 2.77267253e-22 5.95606265e-07) (0.00000000e+00 0.00000000e+00 0.00000000e+00))
3.19888053e+00	((1.16349427e+00 -1.30336939e-05 -3.56596877e-19) (2.74047378e-01 -7.96902538e-07 1.58173634e-21) (0.00000000e+00 0.00000000e+00 0.00000000e+00)) ((-1.12880758e-20 1.87239313e-19 7.08350045e-13) (-8.23940163e-19 2.80886414e-22 5.81963516e-07) (0.00000000e+00 0.00000000e+00 0.00000000e+00))
3.25550991e+00	((1.16232196e+00 -1.28722816e-05 -3.54550861e-19) (2.73120715e-01 -8.05130359e-07 1.57731337e-21) (0.00000000e+00 0.00000000e+00 0.00000000e+00)) ((-1.13590723e-20 1.87073757e-19 9.14274732e-13) (-8.46662330e-19 2.83172035e-22 5.72571443e-07) (0.00000000e+00 0.00000000e+00 0.00000000e+00))
3.31219782e+00	((1.16192509e+00 -1.34955781e-05 -3.52676203e-19) (2.72227259e-01 -8.26041102e-07 1.57425991e-21) (0.00000000e+00 0.00000000e+00 0.00000000e+00)) ((-1.14380481e-20 1.87015746e-19 7.02260841e-13) (-8.66762857e-19 2.84207176e-22 5.61957783e-07) (0.00000000e+00 0.00000000e+00 0.00000000e+00))
3.36894819e+00	((1.16101002e+00 -1.33760823e-05 -3.50806151e-19) (2.71356723e-01 -8.44071304e-07 1.57218764e-21) (0.00000000e+00 0.00000000e+00 0.00000000e+00)) ((-1.15054587e-20 1.86872178e-19 6.44974959e-13) (-8.84719821e-19 2.84833782e-22 5.55804197e-07) (0.00000000e+00 0.00000000e+00 0.00000000e+00))
3.42576400e+00	((1.15988372e+00 -1.19961930e-05 -3.48950239e-19) (2.70501189e-01 -8.50938448e-07 1.57129805e-21) (0.00000000e+00 0.00000000e+00 0.00000000e+00)) ((-1.15687067e-20 1.86689677e-19 7.27067278e-13) (-9.00633725e-19 2.84730849e-22 5.40562554e-07) (0.00000000e+00 0.00000000e+00 0.00000000e+00))
3.48264734e+00	((1.15805901e+00 -1.24902074e-05 -3.47121756e-19) (2.69653728e-01 -8.60614332e-07 1.57530433e-21) (0.00000000e+00 0.00000000e+00 0.00000000e+00)) ((-1.16214162e-20 1.86389142e-19 5.05369292e-13) (-9.14452403e-19 2.81844127e-22 5.32479422e-07) (0.00000000e+00 0.00000000e+00 0.00000000e+00))
3.53959985e+00	((1.15634647e+00 -1.31484337e-05 -3.45234162e-19) (2.68815530e-01 -8.78566265e-07 1.57581737e-21) (0.00000000e+00 0.00000000e+00 0.00000000e+00)) ((-1.16764410e-20 1.86101416e-19 6.98254605e-13) (-9.23077514e-19 2.81334066e-22 5.23404161e-07) (0.00000000e+00 0.00000000e+00 0.00000000e+00))
3.59662301e+00	((1.15427656e+00 -1.33286496e-05 -3.43386918e-19) (2.67987518e-01 -9.19167491e-07 1.57505332e-21) (0.00000000e+00 0.00000000e+00 0.00000000e+00)) ((-1.17262189e-20 1.85757639e-19 7.14676040e-13) (-9.29966580e-19 2.86996855e-22 5.09036728e-07) (0.00000000e+00 0.00000000e+00 0.00000000e+00))
3.65371846e+00	((1.15248910e+00 -1.35946522e-05 -3.41549084e-19) (2.67169353e-01 -9.64680624e-07 1.57290635e-21) (0.00000000e+00 0.00000000e+00 0.00000000e+00)) ((-1.17778600e-20 1.85440813e-19 6.47341339e-13) (-9.35361521e-19 2.93150381e-22 4.99351407e-07) (0.00000000e+00 0.00000000e+00 0.00000000e+00))
3.71088863e+00	((1.14963767e+00 -1.25193912e-05 -3.39566837e-19) (2.66354649e-01 -1.01310203e-06 1.57236029e-21) (0.00000000e+00 0.00000000e+00 0.00000000e+00)) ((-1.18166295e-20 1.84957693e-19 7.04627112e-13) (-9.39429546e-19 2.96435802e-22 4.66675874e-07) (0.00000000e+00 0.00000000e+00 0.00000000e+00))
3.76813584e+00	((1.14655880e+00 -1.37608844e-05 -3.37547812e-19) (2.65542874e-01 -1.06725848e-06 1.57267483e-21) (0.00000000e+00 0.00000000e+00 0.00000000e+00)) ((-1.18530583e-20 1.84434573e-19 4.90628805e-13) (-9.42162150e-19 2.97906324e-22 4.32837122e-07) (0.00000000e+00 0.00000000e+00 0.00000000e+00))
3.82546135e+00	((1.14382181e+00 -1.40997954e-05 -3.35673054e-19) (2.64738211e-01 -1.11918787e-06 1.57286801e-21) (0.00000000e+00 0.00000000e+00 0.00000000e+00)) ((-1.18887298e-20 1.83964184e-19 5.22674026e-13) (-9.43840592e-19 2.98496549e-22 4.00185651e-07) (0.00000000e+00 0.00000000e+00 0.00000000e+00))
3.88286622e+00	((1.14093796e+00 -1.28778087e-05 -3.33820986e-19) (2.63941256e-01 -1.15505444e-06 1.57123537e-21) (0.00000000e+00 0.00000000e+00 0.00000000e+00)) ((-1.19253433e-20 1.83468188e-19 3.95495268e-13) (-9.44645082e-19 2.97956512e-22 3.69515637e-07) (0.00000000e+00 0.00000000e+00 0.00000000e+00))
3.94035219e+00	((1.13796640e+00 -1.33454800e-05 -3.31950319e-19) (2.63151889e-01 -1.18889789e-06 1.57020083e-21) (0.00000000e+00 0.00000000e+00 0.00000000e+00)) ((-1.19558655e-20 1.82957689e-19 5.56085776e-13) (-9.44652892e-19 2.97135312e-22 3.40505043e-07) (0.00000000e+00 0.00000000e+00 0.00000000e+00))
3.99792141e+00	((1.13516348e+00 -1.28878943e-05 -3.30156804e-19) (2.62372103e-01 -1.21657458e-06 1.57001119e-21) (0.00000000e+00 0.00000000e+00 0.00000000e+00)) ((-1.19858168e-20 1.82471721e-19 5.49962745e-13) (-9.43895943e-19 2.95801623e-22 3.12846479e-07) (0.00000000e+00 0.00000000e+00 0.00000000e+00))
4.05557609e+00	((1.13209389e+00 -1.35223435e-05 -3.28376907e-19) (2.61599980e-01 -1.24869985e-06 1.56793768e-21) (0.00000000e+00 0.00000000e+00 0.00000000e+00)) ((-1.20077280e-20 1.81948946e-19 5.22755775e-13) (-9.42198433e-19 2.96661252e-22 2.85862243e-07) (0.00000000e+00 0.00000000e+00 0.00000000e+00))
4.11331823e+00	((1.12872880e+00 -1.38541784e-05 -3.26474218e-19) (2.60832299e-01 -1.28464398e-06 1.56587201e-21) (0.00000000e+00 0.00000000e+00 0.00000000e+00)) ((-1.20307178e-20 1.81369710e-19 4.72359890e-13) (-9.39833297e-19 2.97778785e-22 2.59316066e-07) (0.00000000e+00 0.00000000e+00 0.00000000e+00))
4.17114950e+00	((1.12559899e+00 -1.39274430e-05 -3.24669090e-19) (2.60071176e-01 -1.32133277e-06 1.56375725e-21) (0.00000000e+00 0.00000000e+00 0.00000000e+00)) ((-1.20496403e-20 1.80833626e-19 3.88374229e-13) (-9.36983071e-19 2.99138068e-22 2.32943673e-07) (0.00000000e+00 0.00000000e+00 0.00000000e+00))
4.22907186e+00	((1.12249750e+00 -1.45890112e-05 -3.22876459e-19) (2.59317636e-01 -1.36352436e-06 1.56147454e-21) (0.00000000e+00 0.00000000e+00 0.00000000e+00)) ((-1.20666501e-20 1.80302794e-19 2.97389934e-13) (-9.33822003e-19 3.00799037e-22 2.06487717e-07) (0.00000000e+00 0.00000000e+00 0.00000000e+00))
4.28708718e+00	((1.11871230e+00 -1.29429024e-05 -3.20978881e-19) (2.58565725e-01 -1.34075692e-06 1.56554683e-21) (0.00000000e+00 0.00000000e+00 0.00000000e+00)) ((-1.20755631e-20 1.79663303e-19 2.33576071e-13) (-9.30249753e-19 2.98118112e-22 2.21516081e-07) (0.00000000e+00 0.00000000e+00 0.00000000e+00))
4.34519676e+00	((1.11578139e+00 -1.29386363e-05 -3.19398653e-19) (2.57822632e-01 -1.31035265e-06 1.56758211e-21) (0.00000000e+00 0.00000000e+00 0.00000000e+00)) ((-1.20873291e-20 1.79159080e-19 2.11381477e-14) (-9.26308140e-19 2.96821548e-22 2.40542496e-07) (0.00000000e+00 0.00000000e+00 0.00000000e+00))
4.40340149e+00	((1.11255539e+00 -1.33825348e-05 -3.17670874e-19) (2.57086087e-01 -1.29323708e-06 1.56629069e-21) (0.00000000e+00 0.00000000e+00 0.00000000e+00)) ((-1.20960768e-20 1.78611705e-19 -7.47659313e-14) (-9.22876698e-19 2.97515257e-22 2.55289813e-07) (0.00000000e+00 0.00000000e+00 0.00000000e+00))
4.46170222e+00	((1.10992457e+00 -1.40531996e-05 -3.16061388e-19) (2.56362271e-01 -1.29564339e-06 1.56548952e-21) (0.00000000e+00 0.00000000e+00 0.00000000e+00)) ((-1.21060826e-20 1.78153876e-19 5.39171572e-14) (-9.19403873e-19 2.98266123e-22 2.67010605e-07) (0.00000000e+00 0.00000000e+00 0.00000000e+00))