/*--------------------------------*- C++ -*----------------------------------*\
| =========                 |                                                 |
| \\      /  F ield         | OpenFOAM: The Open Source CFD Toolbox           |
|  \\    /   O peration     | Version:  5.0                                   |
|   \\  /    A nd           | Web:      www.OpenFOAM.org                      |
|    \\/     M anipulation  |                                                 |
\*---------------------------------------------------------------------------*/
FoamFile
{
    version     2.0;
    format      ascii;
    class       volScalarField;
    location    "80";
    object      p;
}
// * * * * * * * * * * * * * * * * * * * * * * * * * * * * * * * * * * * * * //

dimensions      [0 2 -2 0 0 0 0];

internalField   nonuniform List<scalar> 
9200
(
-0.001043236
-0.0010213953
-0.0026058324
-0.00098857891
-0.0025504152
-0.004434855
-0.00094928876
-0.0024631644
-0.004348851
-0.0061752977
-0.00088616137
-0.0023527758
-0.0042058569
-0.0060655375
-0.0079953891
-0.00082540207
-0.0021910441
-0.0040224309
-0.0058739651
-0.0078671073
-0.0098178924
-0.00074706993
-0.0020208486
-0.0037621424
-0.0056276073
-0.007632587
-0.00967894
-0.011672993
-0.00066811564
-0.0018138881
-0.0034786681
-0.0052806476
-0.0073317221
-0.0094111431
-0.01153084
-0.013545547
-0.00058083498
-0.0015962232
-0.0031408662
-0.0048949197
-0.0069070897
-0.009069684
-0.011239481
-0.013410049
-0.015433086
-0.00049188698
-0.0013598137
-0.0027800938
-0.0044367995
-0.0064285447
-0.00858238
-0.010871814
-0.013108651
-0.015313642
-0.017324597
-0.00040025803
-0.0011156329
-0.0023902886
-0.0039412919
-0.0058590427
-0.0080259891
-0.010338305
-0.012733647
-0.015015883
-0.017231611
-0.019209725
-0.00030820232
-0.00086504362
-0.0019858824
-0.0034041421
-0.0052368449
-0.0073583725
-0.0097215981
-0.012174858
-0.014652986
-0.016953019
-0.019153596
-0.021074591
-0.00021619478
-0.00061300009
-0.0015712029
-0.0028430146
-0.0045587354
-0.006619593
-0.0089731256
-0.011519664
-0.014091878
-0.016625238
-0.018910306
-0.021066357
-0.022906342
-0.00012485406
-0.00036232514
-0.0011540341
-0.0022658132
-0.0038451248
-0.0058064377
-0.0081335409
-0.010711093
-0.013423503
-0.016089587
-0.018641122
-0.020875535
-0.022955451
-0.024686554
-3.5161654e-05
-0.00011527685
-0.00073838493
-0.0016849672
-0.0031065346
-0.0049414492
-0.0071985691
-0.0097883815
-0.012580972
-0.015439207
-0.018160357
-0.020690724
-0.022833103
-0.024803329
-0.026405589
5.3253362e-05
0.00012594897
-0.00033018095
-0.0011084255
-0.0023577814
-0.0040382072
-0.0061913849
-0.0087444556
-0.011600088
-0.014595251
-0.017562603
-0.020297986
-0.022756924
-0.024766304
-0.026596261
-0.028042687
0.00014084812
0.00035891696
6.6827296e-05
-0.00054193962
-0.0016121562
-0.0031156978
-0.0051259032
-0.0076016824
-0.010468818
-0.013587625
-0.016756294
-0.019792858
-0.022484608
-0.024823144
-0.026657701
-0.028313027
-0.029592814
0.00022754949
0.00058278368
0.00044955889
8.3810838e-06
-0.00087921968
-0.0021921647
-0.0040210528
-0.0063740977
-0.0092055056
-0.012397131
-0.01576448
-0.019070314
-0.022112496
-0.024704861
-0.02686805
-0.028486047
-0.029948749
-0.031037849
0.0003133934
0.00079758924
0.00081630776
0.00053693519
-0.0001680431
-0.0012841678
-0.0028998957
-0.0050816793
-0.0078203784
-0.011036434
-0.014559974
-0.01814532
-0.021522841
-0.024508602
-0.026933561
-0.028870482
-0.030239953
-0.031480981
-0.032368792
0.00039874679
0.0010032886
0.0011659302
0.0010397199
0.00051293527
-0.0004009348
-0.0017826395
-0.0037358367
-0.0063299754
-0.0095133359
-0.013148676
-0.016981212
-0.020722307
-0.024105061
-0.026952267
-0.029147288
-0.030809774
-0.031895313
-0.03289998
-0.033577101
0.00048389791
0.0012000942
0.0014978005
0.0015147128
0.0011607701
0.00044644586
-0.00065499445
-0.002351411
-0.0047556209
-0.0078478404
-0.011534255
-0.015575094
-0.019664428
-0.023492198
-0.026785181
-0.029418377
-0.031318185
-0.032660117
-0.033443756
-0.034195244
-0.03465734
0.00056861026
0.0013885827
0.0018118033
0.0019609095
0.0017698201
0.0012536229
0.00043167891
-0.00098670739
-0.0031300342
-0.0060688148
-0.0097335081
-0.013923517
-0.018335896
-0.022613068
-0.026422799
-0.029537295
-0.031871762
-0.033418919
-0.034409505
-0.034867079
-0.035359838
-0.035607163
0.0006523537
0.0015695716
0.0021082841
0.0023783869
0.002337096
0.0020112762
0.0014267912
0.00034546926
-0.0015028583
-0.004213027
-0.0077707001
-0.012035712
-0.016722792
-0.021442635
-0.0257987
-0.029488535
-0.032318334
-0.034279556
-0.03542557
-0.036032224
-0.036156762
-0.036389473
-0.036426192
0.00073412924
0.0017440963
0.002387988
0.0027680589
0.0028619033
0.0027143888
0.0023552258
0.001618964
0.000106704
-0.0023044575
-0.0056726898
-0.00992764
-0.014822659
-0.01995476
-0.024876908
-0.029197684
-0.032638764
-0.03508907
-0.036607046
-0.037307867
-0.03751897
-0.037305155
-0.037282277
-0.037112962
0.00081217813
0.0019131029
0.0026509201
0.0031305653
0.0033442309
0.0033571953
0.0032133042
0.0028049917
0.0016929498
-0.00036742483
-0.0034672754
-0.0076209096
-0.012641021
-0.018134664
-0.023619095
-0.028618819
-0.032753663
-0.035827623
-0.03780348
-0.038819857
-0.039052785
-0.03885432
-0.03830793
-0.038037622
-0.037666689
0.0008838981
0.0020774309
0.0028973011
0.0034658406
0.0037817497
0.0039345782
0.0039940052
0.0039030537
0.0032134631
0.0015727096
-0.0011834182
-0.0051406888
-0.010190874
-0.015976442
-0.021997173
-0.027702364
-0.032609945
-0.036414004
-0.038996259
-0.040417687
-0.040891674
-0.040634992
-0.040031908
-0.039163354
-0.03865689
-0.038096591
0.00094607741
0.0022380429
0.0031279311
0.003775727
0.0041758218
0.0044491176
0.0046957409
0.0049110383
0.0046396842
0.0034788396
0.0011478871
-0.0025163131
-0.0074931035
-0.013483401
-0.019991671
-0.026407204
-0.0321492
-0.036791297
-0.040105979
-0.042088423
-0.042891564
-0.042790281
-0.042047225
-0.041046831
-0.039872577
-0.039146176
-0.038421814
0.00099534779
0.0023958215
0.0033435909
0.0040631083
0.0045305299
0.0049071715
0.0053190528
0.0058223971
0.005960975
0.0053159306
0.0034898282
0.00021601944
-0.0045758355
-0.01066821
-0.017592593
-0.024700312
-0.03131937
-0.036895725
-0.041075951
-0.043758494
-0.045048782
-0.045185647
-0.044502734
-0.043276028
-0.041898265
-0.040439358
-0.039515405
-0.038645025
0.0010306771
0.002551846
0.0035448791
0.0043307993
0.0048492207
0.0053118393
0.0058638957
0.0066319495
0.0071714977
0.0070527167
0.0058026463
0.0030175471
-0.0014735999
-0.0075529924
-0.014801301
-0.022558169
-0.03007499
-0.03666739
-0.041841595
-0.045375895
-0.047297829
-0.047824293
-0.04727375
-0.046006242
-0.044319323
-0.042588235
-0.040869083
-0.039769592
-0.03873411
0.0010514651
0.0027082884
0.0037322449
0.0045817347
0.0051350563
0.0056661575
0.0063321058
0.0073374059
0.0082639196
0.0086674489
0.0080505515
0.0058483584
0.0017719348
-0.0041690216
-0.011630322
-0.019968838
-0.028378501
-0.036050939
-0.042339813
-0.046880132
-0.04959511
-0.050652625
-0.050373385
-0.049126036
-0.047298953
-0.045176034
-0.043121079
-0.04116801
-0.039903092
-0.038706236
0.0010477819
0.0028673032
0.0039047137
0.0048195066
0.0053921411
0.0059740164
0.0067270356
0.0079388531
0.0092321249
0.010146481
0.010201226
0.0086657612
0.0051150818
-0.00055526905
-0.0081041052
-0.01693287
-0.026203259
-0.034996755
-0.0425099
-0.048210307
-0.051889243
-0.053639265
-0.053762922
-0.052656921
-0.05073356
-0.04837162
-0.045849998
-0.043503068
-0.041343948
-0.039918537
-0.038623975
0.001021363
0.0030274807
0.0040630348
0.0050479497
0.0056244394
0.0062386766
0.0070542825
0.0084393032
0.010073976
0.011478193
0.012225995
0.011429755
0.0085119253
0.0032425261
-0.0042579675
-0.013463638
-0.023534597
-0.033464366
-0.042294128
-0.049306091
-0.054127392
-0.056746409
-0.057424569
-0.05657393
-0.05465368
-0.052080402
-0.049229286
-0.046347297
-0.043742593
-0.041406766
-0.039835812
-0.038481346
0.00097190184
0.0032053494
0.0042081068
0.0052696582
0.0058350547
0.0064586915
0.0073138242
0.0088425212
0.010791675
0.012651149
0.014102559
0.014105866
0.011916971
0.0071720676
-0.00013636709
-0.0095875022
-0.020371981
-0.031424253
-0.0416413
-0.050107339
-0.056256297
-0.059934743
-0.061337264
-0.060874469
-0.059049707
-0.05634292
-0.053172184
-0.049875396
-0.046676713
-0.043849697
-0.041365579
-0.039678359
-0.038255169
0.00090184583
0.0034014798
0.0043554922
0.0054940797
0.0060182829
0.0066375385
0.0075008487
0.009148796
0.011385008
0.013654015
0.015813322
0.016663331
0.015283577
0.011180829
0.0042094947
-0.0053433653
-0.016729575
-0.028860119
-0.040508393
-0.050557444
-0.058220708
-0.063164712
-0.065479559
-0.06555641
-0.063934071
-0.061160802
-0.057724397
-0.054007758
-0.050320775
-0.046848905
-0.043835534
-0.041225696
-0.039452697
-0.037966683
0.00081905863
0.0036164531
0.0045319296
0.0057322252
0.0061796108
0.0067668773
0.0076500545
0.0094327692
0.011869573
0.014479137
0.017345317
0.019074228
0.018569858
0.015218763
0.0087215368
-0.00078145308
-0.012636189
-0.025770222
-0.038863408
-0.050604665
-0.05996632
-0.066393782
-0.069831401
-0.070618944
-0.069323168
-0.066559615
-0.062898287
-0.05879467
-0.05460131
-0.050576714
-0.046875639
-0.043713836
-0.040996068
-0.039155504
-0.037627217
0.00074155581
0.0038357292
0.0047562279
0.0058785142
0.0062840352
0.0068538111
0.0077619232
0.0096669817
0.012187894
0.015148554
0.018693759
0.021314753
0.021739975
0.019233782
0.01333744
0.0040398292
-0.0081343452
-0.022168395
-0.036687355
-0.050204951
-0.061440299
-0.069578879
-0.074370285
-0.076065542
-0.075237424
-0.072573155
-0.068731513
-0.064257454
-0.059569647
-0.054963449
-0.050657905
-0.046767539
-0.04349768
-0.04068902
-0.038793979
-0.037238979
0.00073125592
0.0040444587
0.004991668
0.0058783641
0.0063510082
0.006874136
0.007834551
0.0097571676
0.012330164
0.015654
0.019847215
0.023371961
0.024763549
0.023175583
0.0179971
0.0090554475
-0.0032793973
-0.018084259
-0.033976138
-0.049324103
-0.062593614
-0.072675751
-0.079073329
-0.081899214
-0.08170543
-0.079242012
-0.075272182
-0.070441097
-0.065253164
-0.060060551
-0.055112827
-0.050579227
-0.046535313
-0.043174292
-0.040318612
-0.038379423
-0.036810787
0.00091170157
0.0042435745
0.0051803447
0.0058548253
0.0064345662
0.0069433267
0.0078432761
0.0097748753
0.012417339
0.016079182
0.020803163
0.02522846
0.027614214
0.026998446
0.022642959
0.014193891
0.0018632596
-0.013562095
-0.030741389
-0.047940199
-0.063382933
-0.075640566
-0.083915475
-0.088124744
-0.088758547
-0.086618836
-0.082577482
-0.077403864
-0.071701465
-0.065899071
-0.060290363
-0.055066735
-0.050356712
-0.046212898
-0.042774307
-0.039891308
-0.037920657
-0.036347397
0.0012545609
0.0042772187
0.0052760075
0.0059128276
0.0065573364
0.0070953508
0.0079239796
0.0097327652
0.012513711
0.016386497
0.021591218
0.026876844
0.030274473
0.030663908
0.027217857
0.019383344
0.007221293
-0.008659739
-0.027010737
-0.046044839
-0.06377287
-0.078431051
-0.08887031
-0.09474593
-0.096433703
-0.094762975
-0.090720427
-0.08521492
-0.078979033
-0.072529771
-0.066222706
-0.0602804
-0.054845201
-0.05000645
-0.045794869
-0.042307623
-0.039414452
-0.037424586
-0.035853211
0.0016835944
0.0040730821
0.0052915651
0.006053961
0.0067223452
0.007289359
0.0080872117
0.0098094871
0.012508731
0.016551009
0.022257621
0.028302487
0.032734602
0.034128225
0.031669623
0.024553671
0.012717734
-0.0034466817
-0.022827269
-0.043644603
-0.063737485
-0.081008019
-0.093910094
-0.10176575
-0.10477016
-0.10374419
-0.099784779
-0.093962558
-0.087162017
-0.080019057
-0.072959471
-0.066251823
-0.060055966
-0.054468969
-0.049544015
-0.045294166
-0.041783846
-0.038895426
-0.036897998
-0.03533529
0.0037315048
0.00217824
0.0053163914
0.0062393655
0.0069114334
0.0075333122
0.0083538559
0.010014088
0.012676373
0.016566927
0.022702225
0.029560854
0.034974034
0.037373599
0.035942738
0.02964188
0.018271534
0.0020008187
-0.018247535
-0.040761276
-0.063262919
-0.083336759
-0.099005881
-0.10918533
-0.11380936
-0.11363945
-0.10986993
-0.10374886
-0.096347288
-0.088444951
-0.080564659
-0.073025636
-0.066017785
-0.059641774
-0.053956275
-0.048983967
-0.044723205
-0.041211483
-0.038341047
-0.036346283
-0.034797364
0.005402724
0.0033012075
0.0025917073
0.006482232
0.0071671904
0.0078806575
0.0087675133
0.010400538
0.01304415
0.016875419
0.022826277
0.030438299
0.037079308
0.040362772
0.040010433
0.034582492
0.023808596
0.0076004519
-0.013338727
-0.037430479
-0.062347169
-0.08538983
-0.10412852
-0.11700264
-0.12359337
-0.12453274
-0.12108801
-0.11469598
-0.10664696
-0.097905019
-0.089112483
-0.080660591
-0.072767885
-0.065551464
-0.059061726
-0.053325739
-0.048340635
-0.044092835
-0.040598678
-0.037757861
-0.035774524
-0.034244044
0.0068106174
0.0055844781
0.0029166208
0.0028093899
0.0075588241
0.0083922032
0.0094075468
0.011052612
0.013735591
0.017511737
0.023165742
0.030968957
0.038677693
0.043218184
0.043667655
0.039334895
0.029248849
0.013274526
-0.0081786594
-0.033701044
-0.061000756
-0.087145677
-0.10925
-0.12521287
-0.13416256
-0.13651348
-0.13356412
-0.12694399
-0.11819655
-0.10851166
-0.098694485
-0.089222691
-0.080358855
-0.072226782
-0.06488393
-0.058339269
-0.052594606
-0.047626876
-0.043413459
-0.039952723
-0.037151572
-0.035187602
-0.033679973
0.0081579911
0.0072386614
0.005876435
0.0026941664
0.0028484074
0.0091761886
0.010391239
0.012144836
0.014852015
0.018496649
0.023844006
0.031661778
0.039890242
0.045490329
0.047249543
0.043761031
0.03454716
0.018931072
-0.0028421444
-0.029633528
-0.059248543
-0.088593673
-0.11434111
-0.13380715
-0.14555587
-0.14967361
-0.14743473
-0.14065277
-0.13115292
-0.12040376
-0.10941477
-0.098792735
-0.088843894
-0.079711581
-0.071442564
-0.064044804
-0.057496059
-0.051779239
-0.046854876
-0.042694038
-0.039280319
-0.036527482
-0.034589313
-0.033107885
0.010334218
0.0090904705
0.0078114042
0.0063172101
0.0025437644
0.0027162733
0.011773016
0.013596902
0.016278896
0.019815598
0.024913347
0.032480878
0.041087084
0.0475021
0.050107819
0.048068948
0.039565774
0.024528744
0.0025759987
-0.025288314
-0.057123775
-0.089733452
-0.11938015
-0.14276995
-0.15780662
-0.16410847
-0.16284493
-0.15599832
-0.14569983
-0.13374183
-0.1214042
-0.10946069
-0.09828975
-0.08804446
-0.078771532
-0.070453101
-0.063061676
-0.056552399
-0.050894302
-0.046035459
-0.041942875
-0.038587525
-0.035890368
-0.033983704
-0.032531812
0.013388749
0.011763177
0.010216313
0.0084955778
0.0066959428
0.0024583591
0.0024937365
0.015265109
0.017952623
0.02137638
0.026113783
0.03320438
0.042225399
0.049254257
0.052790025
0.051668902
0.044573676
0.029888697
0.0080399009
-0.020753652
-0.054666303
-0.090568272
-0.12434296
-0.15208814
-0.17094075
-0.17991001
-0.17994903
-0.17317474
-0.16203749
-0.14871997
-0.13481104
-0.12133761
-0.10876985
-0.09727437
-0.086894637
-0.077587918
-0.069293471
-0.06195975
-0.055526346
-0.049953146
-0.04517849
-0.041167282
-0.037879885
-0.035244531
-0.033373852
-0.031953898
0.017015648
0.014831941
0.012847132
0.010906381
0.0089357326
0.0067650563
0.0024472268
0.0022389747
0.019761989
0.022921332
0.027085503
0.033500597
0.042605699
0.050461674
0.054997788
0.055310893
0.049077446
0.035351284
0.013334707
-0.016051901
-0.051944394
-0.091123755
-0.12921058
-0.16173238
-0.18498335
-0.19716812
-0.19890135
-0.19238936
-0.18039955
-0.16554754
-0.14983465
-0.13453389
-0.12037646
-0.10745054
-0.095842025
-0.085458657
-0.076205725
-0.06799537
-0.06076162
-0.054434339
-0.048967616
-0.044292771
-0.040374065
-0.037162388
-0.034593593
-0.032762537
-0.031376783
0.021589832
0.018580603
0.016032692
0.013720626
0.011410705
0.0090791755
0.0066042081
0.0024995324
0.0019924822
0.024637718
0.028148327
0.03344684
0.041573261
0.050614485
0.056466861
0.058153464
0.054273113
0.040639813
0.018884884
-0.01142331
-0.048959552
-0.09143182
-0.13398796
-0.17168936
-0.19993853
-0.21597456
-0.21986108
-0.21385684
-0.20103033
-0.184473
-0.16668052
-0.149269
-0.13311708
-0.11862769
-0.10563801
-0.094077142
-0.083794548
-0.074665013
-0.066586862
-0.059487224
-0.053290705
-0.047948657
-0.043386531
-0.039569186
-0.036439043
-0.033940399
-0.032152269
-0.030803022
0.02644214
0.023439543
0.020240718
0.017362665
0.014632549
0.011916502
0.0091921826
0.0064205302
0.0026046907
0.0017848233
0.029594959
0.033870648
0.040154737
0.049073487
0.056291494
0.060621258
0.058442054
0.047626313
0.024727172
-0.006354722
-0.045948639
-0.091483024
-0.13862361
-0.18192441
-0.21583025
-0.23640751
-0.24299198
-0.2378017
-0.22420111
-0.20575893
-0.18557012
-0.16570651
-0.14730139
-0.13084809
-0.11630682
-0.10344383
-0.092055052
-0.081953171
-0.073000692
-0.065092367
-0.058154169
-0.052108814
-0.046906101
-0.042466855
-0.038757252
-0.03571277
-0.033287843
-0.03154607
-0.030234271
0.03052462
0.027777607
0.024828113
0.02151404
0.018373241
0.015322214
0.012268345
0.0091944162
0.0062773857
0.002723684
0.0016169151
0.034674259
0.039383886
0.046093673
0.054554371
0.061824107
0.061651932
0.053705841
0.033460145
-0.00025685243
-0.042343787
-0.091470059
-0.14310517
-0.19229722
-0.23259318
-0.25855678
-0.26846531
-0.26445162
-0.25019038
-0.22971483
-0.20677789
-0.18402199
-0.16297114
-0.14424718
-0.12786928
-0.11355378
-0.10096622
-0.089840626
-0.079977977
-0.071242603
-0.063533166
-0.056778381
-0.050900521
-0.045848227
-0.041538848
-0.037941403
-0.034987117
-0.03264037
-0.030946893
-0.029671781
0.035034323
0.030981307
0.02838637
0.025391658
0.022026009
0.0187661
0.015584337
0.012394745
0.0090844158
0.0061594043
0.0028389759
0.0014961462
0.038726962
0.043239202
0.051033954
0.060083906
0.064531556
0.058541544
0.041418705
0.010247801
-0.036655306
-0.090861166
-0.14742571
-0.20279806
-0.25010239
-0.28242361
-0.29645669
-0.29406593
-0.27930435
-0.25665077
-0.23062294
-0.20448193
-0.18027606
-0.15888272
-0.14037323
-0.12439381
-0.11049642
-0.098288195
-0.08748802
-0.077905295
-0.069416261
-0.061928217
-0.055374069
-0.049675412
-0.044780442
-0.040605817
-0.037126247
-0.034268594
-0.032001874
-0.030353958
-0.029087514
0.038094461
0.034924645
0.03106011
0.028438899
0.025363098
0.021967821
0.018675263
0.015507543
0.012321076
0.0089617158
0.0060897739
0.0029225215
0.0014026317
0.040951698
0.046371217
0.056117482
0.065063603
0.062091502
0.048176907
0.020095279
-0.024782748
-0.086636054
-0.15124442
-0.21300362
-0.26828773
-0.30795259
-0.3270765
-0.32681616
-0.31188618
-0.28696716
-0.25742208
-0.22738632
-0.1994359
-0.17486482
-0.15384184
-0.13595238
-0.12059905
-0.10724177
-0.095477445
-0.085041306
-0.075765414
-0.067543899
-0.060294105
-0.0539522
-0.048439255
-0.043706816
-0.039674126
-0.03632098
-0.033562413
-0.031368485
-0.029732795
-0.028473308
0.039083884
0.037364659
0.034278792
0.030819412
0.02816255
0.025017598
0.021666705
0.018429533
0.015302278
0.012144869
0.008807846
0.0060059857
0.0029726159
0.0013371185
0.042093597
0.050792899
0.061448741
0.064480611
0.053570392
0.028623802
-0.01339645
-0.074396053
-0.149248
-0.2231145
-0.28632244
-0.33490385
-0.36012195
-0.36281757
-0.34814584
-0.32099489
-0.28760754
-0.25306542
-0.22069657
-0.19232958
-0.16831919
-0.14820307
-0.13121593
-0.11662642
-0.10387486
-0.092587243
-0.08253601
-0.073583929
-0.065644447
-0.058643251
-0.05251927
-0.04719718
-0.042636314
-0.038756521
-0.035532032
-0.032859586
-0.030694214
-0.029084109
-0.027845163
0.038676432
0.037394837
0.036264691
0.033260114
0.030308054
0.027719921
0.024609848
0.021349705
0.018179446
0.015067458
0.011917985
0.0086303681
0.0058860434
0.0029820397
0.0012949171
0.04416046
0.054815081
0.063753466
0.057221509
0.036072792
-0.0033293115
-0.062231475
-0.13804754
-0.22422368
-0.30533232
-0.36221327
-0.39489399
-0.40135177
-0.38809022
-0.35912307
-0.32146374
-0.28196002
-0.24437111
-0.21144836
-0.18386247
-0.16112022
-0.14227083
-0.12634747
-0.11258398
-0.10046003
-0.089658719
-0.08000094
-0.07138186
-0.063731625
-0.056982797
-0.051081351
-0.045961064
-0.041585202
-0.037859115
-0.034743734
-0.032094365
-0.029998908
-0.028418957
-0.027204626
0.03803776
0.035603048
0.035637077
0.034712157
0.032086144
0.029546046
0.027053828
0.024078182
0.020954526
0.017859757
0.014755483
0.011655201
0.0084123891
0.0057440059
0.0029474891
0.0012460588
0.047101204
0.057764822
0.05893418
0.041808062
0.0056766415
-0.051036854
-0.12685037
-0.21475889
-0.31198871
-0.38990382
-0.42856091
-0.44069395
-0.42968512
-0.40075232
-0.35951747
-0.31428005
-0.27081887
-0.23246182
-0.20055593
-0.1746827
-0.15367599
-0.13628667
-0.12148373
-0.10854952
-0.097044225
-0.086723372
-0.077458577
-0.069173794
-0.061813173
-0.055319961
-0.04965339
-0.044750339
-0.040558511
-0.036958866
-0.033865477
-0.03131515
-0.029283214
-0.027740534
-0.026551839
0.038551453
0.032682738
0.032645396
0.033675726
0.032762915
0.030814859
0.028602876
0.026212738
0.023422948
0.020447696
0.017441968
0.014407853
0.01131579
0.0081796921
0.0055769454
0.0028977023
0.0011938483
0.04861811
0.056716394
0.044977581
0.013448784
-0.040705126
-0.11597585
-0.204896
-0.30836741
-0.40067502
-0.45960757
-0.47635011
-0.47077566
-0.44376347
-0.4003933
-0.35084982
-0.30035571
-0.25561122
-0.21853114
-0.18888194
-0.16533696
-0.14630521
-0.13042497
-0.11671826
-0.10457573
-0.093660586
-0.083803982
-0.074923506
-0.066967697
-0.059897464
-0.053672827
-0.048258146
-0.043568272
-0.03952437
-0.035937886
-0.032981841
-0.030510963
-0.02855528
-0.027048557
-0.025888038
0.038540919
0.029946983
0.027821093
0.02967481
0.031435854
0.030703462
0.029397766
0.02753273
0.025289012
0.022670739
0.019833491
0.016972685
0.013944956
0.010944679
0.0079156445
0.0053860324
0.0028308994
0.0011459888
0.048651567
0.045373574
0.01911478
-0.031564812
-0.1054958
-0.19591116
-0.30279084
-0.40240131
-0.47190141
-0.50680203
-0.50622299
-0.48489265
-0.44358502
-0.39049238
-0.33404864
-0.28120787
-0.2379005
-0.20373276
-0.17715792
-0.15624754
-0.13923197
-0.12479836
-0.1121088
-0.10069557
-0.090330273
-0.080913641
-0.072403113
-0.064772822
-0.058005145
-0.052067111
-0.04689603
-0.042373306
-0.038333774
-0.034922643
-0.032067072
-0.029697259
-0.027812875
-0.026344835
-0.025213716
0.036910762
0.027810753
0.022174971
0.02316793
0.026660984
0.028839214
0.028690955
0.027920338
0.026349942
0.024280857
0.021829304
0.019206203
0.016357979
0.013436454
0.010527082
0.007614676
0.0051696012
0.0027340151
0.0010964858
0.041637329
0.021624833
-0.024379626
-0.096022183
-0.18796766
-0.29424035
-0.40081475
-0.47904265
-0.52000586
-0.53522117
-0.51900609
-0.48376661
-0.43137624
-0.37080914
-0.31030676
-0.25889029
-0.2192328
-0.18904791
-0.16594403
-0.14770508
-0.1325924
-0.1194684
-0.10768513
-0.096925591
-0.087062533
-0.07805773
-0.069906887
-0.062611711
-0.056163326
-0.050498953
-0.045514434
-0.040985462
-0.037161495
-0.03386796
-0.03114662
-0.028868703
-0.027059019
-0.025629879
-0.024529981
0.032011345
0.024289132
0.01674375
0.015147686
0.018697
0.023610497
0.026066832
0.026669489
0.026414472
0.025050014
0.023190129
0.021029852
0.018419521
0.015695833
0.012864847
0.010065003
0.0072741456
0.0049255129
0.0026089095
0.0010414701
0.020447683
-0.019825821
-0.087645094
-0.17915683
-0.28406507
-0.39494123
-0.48254802
-0.53087184
-0.55008706
-0.5457379
-0.51529416
-0.46862361
-0.40718396
-0.34180443
-0.28246456
-0.23547137
-0.20091047
-0.17521593
-0.15562166
-0.13987539
-0.12644979
-0.11445725
-0.10345472
-0.093267665
-0.083858459
-0.075244777
-0.067458288
-0.060511298
-0.054363178
-0.048903913
-0.04390158
-0.039631549
-0.035940076
-0.032812679
-0.030212538
-0.028029842
-0.026294055
-0.024905342
-0.023837575
0.01511313
0.018039741
0.011394167
0.0061500262
0.0085870709
0.014418216
0.020524895
0.023286533
0.024652504
0.0247641
0.023661012
0.022203098
0.02005608
0.017590018
0.014962529
0.012236542
0.0095541106
0.006893171
0.004651664
0.0024582855
0.00097839031
-0.018209877
-0.080665879
-0.16900226
-0.27282964
-0.38624569
-0.48101275
-0.53742955
-0.56254898
-0.56233188
-0.53935618
-0.49746584
-0.43980802
-0.3729619
-0.30779153
-0.25315078
-0.21272691
-0.1838845
-0.16274045
-0.14639581
-0.13282044
-0.12081229
-0.10975693
-0.099406922
-0.089715106
-0.08072358
-0.072497627
-0.065082062
-0.058456274
-0.05253132
-0.047040379
-0.042339769
-0.038216041
-0.034724877
-0.031745687
-0.029270231
-0.027181001
-0.025519893
-0.024171959
-0.023137469
-0.01977056
0.0048700638
0.0037327179
-0.0023817697
-0.0034618426
0.0024976868
0.010310126
0.017525833
0.020646471
0.022598448
0.022994205
0.022458446
0.021030882
0.019040458
0.016681697
0.014163877
0.011551215
0.0089939324
0.0064706621
0.0043470059
0.0022842383
0.00090572364
-0.075670371
-0.15892635
-0.26056575
-0.37484631
-0.47554361
-0.53856786
-0.56952905
-0.57790484
-0.55582683
-0.51964942
-0.46516385
-0.40000241
-0.33220608
-0.27167274
-0.22483468
-0.19181466
-0.1688128
-0.15187928
-0.13832201
-0.12652529
-0.1156477
-0.10533713
-0.095522165
-0.086267256
-0.077677821
-0.069836233
-0.062754335
-0.056365748
-0.050394322
-0.045246796
-0.040702001
-0.036815078
-0.033500853
-0.030673283
-0.028320189
-0.026324198
-0.024737679
-0.023431255
-0.022430391
-0.072613678
-0.023851003
-0.0087496022
-0.010569142
-0.015992241
-0.012259149
-0.0030517474
0.0064080607
0.014486282
0.018093839
0.02050462
0.021526861
0.021079848
0.019818878
0.017936669
0.015700491
0.013298793
0.010808903
0.008384608
0.0060063567
0.0040111598
0.0020884015
0.00082285617
-0.14918223
-0.24721495
-0.36031605
-0.46575602
-0.53511442
-0.57165377
-0.58607698
-0.57990149
-0.53818751
-0.48466518
-0.42087109
-0.35266152
-0.28895256
-0.23698476
-0.19907474
-0.17359873
-0.15603858
-0.14267307
-0.13134873
-0.12092108
-0.11089592
-0.10115814
-0.091788872
-0.082937808
-0.074733131
-0.067225681
-0.060388046
-0.053936467
-0.048343903
-0.043360029
-0.039088968
-0.035408471
-0.032275399
-0.029595721
-0.027364395
-0.025460797
-0.023948901
-0.022683691
-0.021717437
-0.13980974
-0.070509346
-0.030827118
-0.021196047
-0.026111028
-0.028420871
-0.020119531
-0.0080875784
0.002949772
0.011249675
0.015536192
0.01883964
0.019930408
0.019669253
0.018511276
0.016754386
0.014644651
0.012367799
0.010009849
0.0077267129
0.0055008846
0.0036444137
0.0018721539
0.00072986163
-0.23220213
-0.3422357
-0.45053539
-0.52659794
-0.56872261
-0.5896437
-0.58921905
-0.56122257
-0.50420695
-0.43653888
-0.36783103
-0.30236192
-0.24786406
-0.2058054
-0.17699371
-0.15859524
-0.14558122
-0.13501494
-0.12535373
-0.11590461
-0.10648683
-0.097190626
-0.088209956
-0.079726838
-0.07184075
-0.064574209
-0.057652631
-0.051607717
-0.046181727
-0.04150965
-0.037474278
-0.034005189
-0.031048367
-0.028515136
-0.026404431
-0.024591883
-0.023153947
-0.021931065
-0.020999483
-0.215326
-0.1297623
-0.068329315
-0.03887164
-0.03312513
-0.041181211
-0.039185176
-0.026905984
-0.012656762
0.00011889111
0.0081833195
0.013668824
0.017100345
0.018322782
0.018160141
0.017122754
0.015492127
0.013515903
0.011372024
0.0091553412
0.0070214506
0.004955744
0.0032478345
0.0016366961
0.00062744396
-0.32028075
-0.42913343
-0.51189107
-0.56019724
-0.58678446
-0.59420913
-0.57629837
-0.53061038
-0.45630921
-0.37863013
-0.3108154
-0.25459582
-0.21124624
-0.17896329
-0.15935332
-0.14677125
-0.13725111
-0.12870688
-0.12017381
-0.1113627
-0.10236422
-0.093420642
-0.084769155
-0.076568645
-0.068905499
-0.061526534
-0.055026375
-0.049146281
-0.044068787
-0.03966195
-0.035868731
-0.032604529
-0.029821983
-0.027433136
-0.025441134
-0.023717552
-0.02235516
-0.021174348
-0.020277494
-0.2942613
-0.19563322
-0.11791509
-0.066364251
-0.043102992
-0.046472662
-0.054552943
-0.048160915
-0.032618208
-0.016672378
-0.0024991227
0.0060368935
0.011971171
0.015359435
0.016625997
0.016573058
0.015652837
0.0141536
0.012316558
0.010314175
0.0082477206
0.0062710413
0.0043732264
0.0028233741
0.0013830927
0.00051704368
-0.40115069
-0.48974857
-0.54566071
-0.57716418
-0.59139612
-0.58373268
-0.5495314
-0.48611017
-0.39765326
-0.31603904
-0.25616963
-0.21173075
-0.17869183
-0.15804171
-0.14600031
-0.13780447
-0.13074283
-0.12350332
-0.11563602
-0.10720084
-0.098490527
-0.089810656
-0.081380564
-0.073365409
-0.065548662
-0.058587796
-0.052244373
-0.046747646
-0.041963585
-0.037829982
-0.034270859
-0.031208781
-0.028597768
-0.026350323
-0.024473689
-0.02284124
-0.021553632
-0.020415142
-0.019552337
-0.36667207
-0.26358647
-0.17284634
-0.10344873
-0.060829245
-0.046575065
-0.058886113
-0.065606229
-0.055287111
-0.037259699
-0.020085683
-0.0044817423
0.004405865
0.010275573
0.013544939
0.014864271
0.014908801
0.014107525
0.012742907
0.011050924
0.0091982245
0.0072906552
0.0054788044
0.0037565437
0.0023738746
0.0011123401
0.00040079225
-0.4590703
-0.52321385
-0.56316515
-0.58234473
-0.58337047
-0.56049624
-0.50912193
-0.42952458
-0.33307807
-0.25509202
-0.20765591
-0.17469011
-0.15410241
-0.1429881
-0.13643395
-0.13124488
-0.12569734
-0.11914889
-0.11158966
-0.10334634
-0.094800742
-0.086250966
-0.077943414
-0.069713805
-0.062287096
-0.055467989
-0.049538938
-0.044361989
-0.039881402
-0.036011348
-0.032682909
-0.029819299
-0.027375984
-0.025265077
-0.023506652
-0.021964053
-0.02075104
-0.019654446
-0.018824892
-0.41945973
-0.32558141
-0.22858564
-0.14585423
-0.085247541
-0.05091613
-0.051498175
-0.068755343
-0.073937208
-0.060453638
-0.040768953
-0.021451723
-0.0058612268
0.0028528123
0.0085071672
0.011684614
0.013038942
0.013175895
0.012492903
0.011266398
0.0097248112
0.0080296079
0.0062891668
0.0046493246
0.0031099635
0.0019029157
0.00082524098
0.00028369589
-0.49158412
-0.53978871
-0.56734196
-0.57622848
-0.56353844
-0.52443462
-0.45595562
-0.36486912
-0.26862399
-0.20178849
-0.16729498
-0.14751565
-0.13746999
-0.13290884
-0.13000762
-0.12658116
-0.12175017
-0.11541396
-0.10791323
-0.099699852
-0.091156392
-0.082635522
-0.074024163
-0.066124868
-0.058816999
-0.052437747
-0.046851493
-0.042006977
-0.037818771
-0.034208194
-0.031105924
-0.028435985
-0.026154
-0.024183148
-0.022540918
-0.021087901
-0.019948613
-0.01889364
-0.018095978
-0.44980824
-0.3709974
-0.27847395
-0.18838924
-0.11387572
-0.061440216
-0.042479738
-0.056140382
-0.075563928
-0.079285211
-0.063441027
-0.042310262
-0.020939064
-0.0072096519
0.0012931164
0.00670306
0.009779509
0.011160321
0.011382311
0.010817494
0.0097319888
0.0083457347
0.0068151515
0.00524962
0.0037884549
0.0024389118
0.0014143467
0.00052616746
0.00016579229
-0.50734162
-0.54427209