/*--------------------------------*- C++ -*----------------------------------*\
| =========                 |                                                 |
| \\      /  F ield         | OpenFOAM: The Open Source CFD Toolbox           |
|  \\    /   O peration     | Version:  5.0                                   |
|   \\  /    A nd           | Web:      www.OpenFOAM.org                      |
|    \\/     M anipulation  |                                                 |
\*---------------------------------------------------------------------------*/
FoamFile
{
    version     2.0;
    format      ascii;
    class       surfaceScalarField;
    location    "80";
    object      phi;
}
// * * * * * * * * * * * * * * * * * * * * * * * * * * * * * * * * * * * * * //

dimensions      [0 3 -1 0 0 0 0];

internalField   nonuniform List<scalar> 
18180
(
0.0027795935
-1.3481181
0.0053417493
-1.2609728
0.0027781842
-1.3508963
0.0076833924
-1.1796346
0.0053487884
-1.2635434
0.0027478542
-1.3536441
0.0098198143
-1.103621
0.0077029116
-1.1819887
0.0052922917
-1.2660878
0.0027637148
-1.3564078
0.011732459
-1.0326103
0.0098518899
-1.10577
0.0076231432
-1.1843195
0.0053259328
-1.26865
0.0027713251
-1.3591792
0.01345374
-0.96622148
0.011793585
-1.034552
0.0097490992
-1.107896
0.007674257
-1.1866679
0.0053434056
-1.2712221
0.0028009788
-1.3619801
0.014980791
-0.90412536
0.013547815
-0.96797571
0.011672563
-1.0364754
0.0098178747
-1.1100396
0.0077020349
-1.1890265
0.0054047409
-1.2738259
0.002826825
-1.364807
0.016338533
-0.84602446
0.015126402
-0.90570394
0.013408322
-0.96971147
0.011755953
-1.0384135
0.0098547808
-1.1121923
0.0077958097
-1.1914176
0.0054590357
-1.2764581
0.0028621426
-1.3676691
0.017538776
-0.79164241
0.016549796
-0.84744785
0.014971475
-0.9072671
0.0135026
-0.97145812
0.011799117
-1.0403578
0.0099809237
-1.1143774
0.0078817354
-1.1938403
0.0055350492
-1.279131
0.0028880266
-1.3705571
0.018600952
-0.74072809
0.017838584
-0.7929312
0.016381385
-0.84885776
0.015070177
-0.90883467
0.013545461
-0.97320446
0.011953517
-1.0423304
0.010100476
-1.1165962
0.0080048772
-1.1963101
0.0055945428
-1.2818375
0.0029127999
-1.3734699
0.019540671
-0.69305121
0.019014247
-0.74190376
0.017660017
-0.79420983
0.016477319
-0.8502649
0.015103331
-0.91039254
0.013719105
-0.97497005
0.01210565
-1.0443356
0.010277617
-1.1188689
0.0081074241
-1.198823
0.0056561197
-1.2845808
0.0029221358
-1.3763921
0.020373686
-0.64839878
0.020098006
-0.69413496
0.018830213
-0.74307395
0.017744844
-0.79547736
0.016488278
-0.85164985
0.015280919
-0.91195436
0.0138978
-0.9767622
0.012339809
-1.0463978
0.010434223
-1.1211957
0.0082203063
-1.2013872
0.0056884178
-1.2873471
0.0029211223
-1.3793132
0.021113631
-0.60657518
0.021109524
-0.6494103
0.019915375
-0.69522013
0.01889666
-0.74422577
0.017718735
-0.79670782
0.016648454
-0.85301738
0.015474112
-0.91353067
0.01418635
-0.97860874
0.012559457
-1.048523
0.010617338
-1.1235927
0.0082936855
-1.2039924
0.0057030302
-1.290129
0.0028988862
-1.3822121
0.021773443
-0.56739978
0.022067026
-0.60753268
0.0209377
-0.65043262
0.019958508
-0.69628197
0.018816894
-0.74532393
0.017834302
-0.79789366
0.016837649
-0.85438092
0.015806084
-0.9151504
0.014473455
-0.98052274
0.012830338
-1.050736
0.01075552
-1.1260546
0.0083470814
-1.2066365
0.0056760442
-1.2929062
0.0028579912
-1.3850701
0.022363988
-0.53070444
0.022987235
-0.56831999
0.021919575
-0.60851456
0.020957072
-0.65143119
0.019807556
-0.69727263
0.018856049
-0.74634567
0.017994479
-0.79905049
0.017192498
-0.85576734
0.016157934
-0.91683488
0.014845809
-0.98253821
0.013058206
-1.0530387
0.010879132
-1.1285866
0.008340645
-1.2093011
0.005614321
-1.2956625
0.0027926036
-1.3878627
0.022894402
-0.4963331
0.02388379
-0.53160099
0.022880418
-0.56928083
0.021918174
-0.60947566
0.020716885
-0.65234051
0.019736554
-0.69815314
0.018955539
-0.74730673
0.018341477
-0.80019947
0.01759743
-0.85720683
0.016638069
-0.91862714
0.015187189
-0.98466719
0.013286766
-1.0554463
0.010927475
-1.1311735
0.0082857354
-1.2119725
0.0055040037
-1.2983739
0.0027049196
-1.3905676
0.023370696
-0.4641398
0.024768108
-0.49721742
0.023836517
-0.53255709
0.022863268
-0.57022593
0.02157045
-0.61032923
0.020504866
-0.65310883
0.019736052
-0.69893365
0.019254229
-0.74821949
0.018777177
-0.80137922
0.018181449
-0.85875021
0.017112976
-0.92055293
0.015556944
-0.98693737
0.01342992
-1.0579488
0.010918553
-1.1338063
0.0081574032
-1.2146259
0.0053493377
-1.3010183
0.0025954151
-1.393163
0.02379792
-0.4339902
0.025648195
-0.46501989
0.024800188
-0.49818109
0.023812768
-0.53350659
0.022393972
-0.57104945
0.021187086
-0.61101145
0.020353767
-0.65372654
0.019937335
-0.69961676
0.019686196
-0.7491285
0.019447937
-0.80264571
0.018803874
-0.86044111
0.017658641
-0.92265463
0.015839486
-0.98934694
0.013513445
-1.0605437
0.010810658
-1.1364595
0.0079630131
-1.2172396
0.0051472347
-1.3035701
0.0024656724
-1.3956287
0.024180407
-0.40575737
0.026528888
-0.43487089
0.025781786
-0.46600148
0.024783769
-0.49915209
0.0232137
-0.53432632
0.021812178
-0.57167454
0.020833453
-0.61149113
0.020402339
-0.65419154
0.020316539
-0.7002471
0.020411208
-0.75009178
0.02022327
-0.8040651
0.019556072
-0.86233854
0.018128106
-0.92494325
0.016069077
-0.99190257
0.013472517
-1.0632055
0.010614415
-1.1391109
0.0076939883
-1.2197863
0.0049021147
-1.3060066
0.0023175159
-1.3979462
0.024521607
-0.37932304
0.027412667
-0.40664115
0.026787976
-0.43587708
0.025789972
-0.46700769
0.024048679
-0.49998707
0.022405724
-0.53491986
0.02119977
-0.57204086
0.020663949
-0.61175274
0.020663138
-0.65453814
0.021047796
-0.70088369
0.021334525
-0.75120303
0.021205797
-0.80571483
0.020261454
-0.86447189
0.01856324
-0.92743741
0.016150755
-0.99458081
0.013322325
-1.0659135
0.010312064
-1.141729
0.0073565998
-1.2222408
0.0046186527
-1.3083077
0.0021531224
-1.4000993
0.024824233
-0.35457604
0.028299898
-0.38021028
0.027822328
-0.4076755
0.026840398
-0.4369275
0.024917366
-0.46787637
0.02298009
-0.50056143
0.021469086
-0.53518918
0.020735673
-0.57211258
0.020725476
-0.61181508
0.021341963
-0.65483231
0.022103462
-0.70165263
0.022562386
-0.75255962
0.022195791
-0.80764917
0.020965522
-0.86687417
0.018832132
-0.93011879
0.016104348
-0.99736283
0.013029508
-1.0686309
0.0099123927
-1.1442848
0.0069560638
-1.2245782
0.0043014665
-1.3104561
0.0019756448
-1.402075
0.025090968
-0.33141277
0.029189273
-0.35546542
0.028886088
-0.38127403
0.027940945
-0.40877605
0.025835153
-0.43784529
0.023563714
-0.46846
0.021671618
-0.50076396
0.020638995
-0.5350925
0.020520162
-0.57190727
0.021291673
-0.61176479
0.022502555
-0.6552314
0.023581485
-0.70267173
0.023883083
-0.75424691
0.023233861
-0.80991751
0.021494794
-0.86953683
0.018957979
-0.93297242
0.015873707
-1.000207
0.012605265
-1.0713238
0.0094182196
-1.146747
0.0064995407
-1.2267763
0.0039573802
-1.3124378
0.0017890487
-1.403864
0.025324558
-0.30973629
0.030078086
-0.33230158
0.02997861
-0.35655794
0.029094196
-0.38242729
0.026813521
-0.40975442
0.024182683
-0.43846426
0.021836201
-0.46862458
0.020424143
-0.50054911
0.020082633
-0.53465497
0.020908233
-0.57152383
0.022512696
-0.61177493
0.024222635
-0.65587255
0.02527229
-0.70406093
0.025319104
-0.75633215
0.024104228
-0.81252694
0.021871868
-0.87245072
0.018854052
-0.93595276
0.015473693
-1.0030755
0.01204781
-1.0739534
0.0088390038
-1.1490864
0.0059983314
-1.2288172
0.0035935
-1.3142422
0.0015976049
-1.4054616
0.025527852
-0.28945579
0.030963105
-0.3106213
0.031097918
-0.33342089
0.03029963
-0.35776337
0.027859686
-0.38347345
0.024857218
-0.41042895
0.021998153
-0.43862621
0.020113958
-0.46831439
0.019452342
-0.49991882
0.020210117
-0.53395686
0.022119877
-0.57113101
0.024449972
-0.61200227
0.02631132
-0.65691158
0.027166101
-0.70590793
0.026617275
-0.7588452
0.024821193
-0.81547627
0.021972028
-0.8755687
0.018537977
-0.93901704
0.014891429
-1.0059191
0.011368768
-1.0764831
0.0081910917
-1.1512792
0.0054623247
-1.2306861
0.0032173117
-1.315862
0.0014047425
-1.4068664
0.025703895
-0.27048711
0.031839546
-0.29033223
0.032241898
-0.31176528
0.031554
-0.33467526
0.028977194
-0.35888088
0.02560251
-0.38421874
0.022187966
-0.41061876
0.019736757
-0.43824901
0.018658998
-0.46752105
0.019203845
-0.49891255
0.021317951
-0.53315493
0.024233161
-0.5709142
0.026948951
-0.6126399
0.028716816
-0.6584623
0.028982671
-0.70827333
0.027771639
-0.76179565
0.025216304
-0.81872054
0.021812583
-0.8788433
0.017979387
-0.942105
0.014141505
-1.0086918
0.010588113
-1.0788801
0.0074862629
-1.1533031
0.0049033123
-1.2323721
0.0028359736
-1.3172932
0.0012127493
-1.4080791
0.025856616
-0.25275134
0.032702095
-0.27134966
0.033407642
-0.29149798
0.032849978
-0.31306126
0.030165658
-0.33586372
0.026429447
-0.35970782
0.0224323
-0.38446308
0.019328628
-0.41021063
0.017719548
-0.43730956
0.01792365
-0.46624085
0.02010963
-0.49770423
0.023547014
-0.53246878
0.027136748
-0.57110199
0.029912351
-0.61383544
0.031142915
-0.66062254
0.030678944
-0.71118063
0.028566087
-0.76514543
0.025300195
-0.82220815
0.021339066
-0.88220298
0.017197299
-0.9451608
0.013245687
-1.0113494
0.0097189153
-1.0811128
0.0067434395
-1.1551432
0.004332478
-1.2338686
0.0024558214
-1.3185363
0.0010238012
-1.4091029
0.025992082
-0.236172
0.033545391
-0.25359463
0.034592462
-0.27253448
0.034181693
-0.29282969
0.031421082
-0.31431669
0.027345337
-0.33677961
0.022752274
-0.36002779
0.018922527
-0.38405698
0.016662117
-0.4091532
0.016406561
-0.43579247
0.018504361
-0.46463558
0.022375067
-0.49653228
0.02683242
-0.53216446
0.030695485
-0.57188513
0.033035994
-0.61572852
0.033490842
-0.66343444
0.031990107
-0.71460465
0.028994852
-0.76884009
0.024987727
-0.82585681
0.020573757
-0.88557944
0.016210169
-0.94812528
0.012219507
-1.01385
0.0087903788
-1.0831597
0.0059769126
-1.1567877
0.0037602419
-1.235173
0.0020822991
-1.3195948
0.00084115516
-1.4099441
0.026120407
-0.22067399
0.034364957
-0.23699156
0.035793614
-0.25479578
0.035542626
-0.27389541
0.032739383
-0.29414799
0.028355053
-0.3153264
0.023164324
-0.33719166
0.018548486
-0.35965375
0.015523363
-0.38291822
0.014677864
-0.40742451
0.016525786
-0.4338139
0.020713975
-0.46297449
0.026001905
-0.49570177
0.031012564
-0.53248153
0.034597891
-0.57344702
0.036148922
-0.6183866
0.035448037
-0.66689237
0.032880436
-0.71849024
0.02893564
-0.772788
0.024301015
-0.82958407
0.019527433
-0.88889671
0.015039038
-0.95094481
0.011103271
-1.0161629
0.0078178124
-1.0850006
0.0052025434
-1.15823
0.0031959555
-1.2362866
0.001720654
-1.3204743
0.00066881528
-1.4106129
0.026258294
-0.20617995
0.035158116
-0.22146715
0.037006807
-0.23820475
0.036925347
-0.2561785
0.034115339
-0.27527136
0.0294594
-0.29525234
0.023681856
-0.31584394
0.018232885
-0.33687606
0.014340218
-0.3584706
0.012766796
-0.38100715
0.014209174
-0.40510789
0.018566512
-0.43166643
0.024620705
-0.46159329
0.030816674
-0.49550588
0.035766004
-0.53364965
0.038591091
-0.57588919
0.038891236
-0.62182979
0.036931314
-0.67094325
0.033183949
-0.72273854
0.028404251
-0.77689124
0.023238719
-0.83329536
0.018229125
-0.89208679
0.013732734
-0.95357427
0.0099126459
-1.0182577
0.0068281089
-1.0866262
0.0044340983
-1.1594681
0.0026479525
-1.2372139
0.0013757956
-1.3211812
0.00051739323
-1.4111303
0.026426579
-0.19260937
0.035925009
-0.20694684
0.038223583
-0.22268392
0.038320329
-0.23959974
0.035541124
-0.25760429
0.030656593
-0.27646856
0.024314269
-0.29588475
0.017999773
-0.31561082
0.013147438
-0.33568328
0.010710642
-0.35641445
0.011586848
-0.37838483
0.015943004
-0.40248439
0.022678068
-0.4297238
0.030068767
-0.46084538
0.036481637
-0.49622151
0.040753954
-0.53581251
0.042264333
-0.57926229
0.041112494
-0.62601097
0.037724928
-0.67548423
0.032901294
-0.72723559
0.027382423
-0.78103494
0.021837968
-0.8369042
0.01673293
-0.89508699
0.012311826
-0.95597345
0.0086903163
-1.0201199
0.0058371747
-1.0880293
0.003683822
-1.160504
0.002123021
-1.2379612
0.0010507268
-1.3217146
0.00038089717
-1.4115112
0.024704357
-0.21129866
0.036669277
-0.19335364
0.039428645
-0.2081519
0.039712715
-0.22407631
0.037002745
-0.24106136
0.031938225
-0.25888592
0.025066422
-0.27722071
0.017869382
-0.29575436
0.011977896
-0.31444128
0.0085500794
-0.33352272
0.0086908438
-0.35351844
0.012868413
-0.37531024
0.020172276
-0.39997859
0.028738214
-0.42839324
0.036693493
-0.46105724
0.042575468
-0.49804303
0.045507075
-0.53905525
0.0453805
-0.5835303
0.042541222
-0.63082727
0.037802456
-0.68038539
0.031991647
-0.73184481
0.025913565
-0.78511054
0.02015655
-0.84032782
0.015070162
-0.89784532
0.010835048
-0.95811818
0.0074515102
-1.0217342
0.0048648127
-1.0892103
0.0029617759
-1.1613428
0.0016259071
-1.2385363
0.00074647821
-1.3220802
0.00024494662
-1.4117561
0.023658756
-0.21137631
0.035515485
-0.21014487
0.040599756
-0.19452475
0.04107869
-0.20951788
0.038471231
-0.22554479
0.033278137
-0.24240127
0.025932299
-0.2597518
0.017857388
-0.27720872
0.010861218
-0.29463768
0.0063263475
-0.31221755
0.0055595939
-0.33039147
0.0093744743
-0.35002451
0.017105606
-0.37224357
0.026805696
-0.39804608
0.036359238
-0.42805899
0.043996821
-0.46247859
0.048556631
-0.50109258
0.049684716
-0.54335947
0.047605873
-0.58859495
0.0431092
-0.63613401
0.03709399
-0.68548773
0.030501005
-0.73643225
0.024057925
-0.78901191
0.018240305
-0.84349796
0.013312746
-0.90032302
0.0093194114
-0.95998608
0.0062307905
-1.0231002
0.0039244756
-1.090173
0.0022759353
-1.1619928
0.0011597729
-1.2389496
0.00046431433
-1.3222995
0.00010991425
-1.411866
0.02330811
-0.21108818
0.034956122
-0.21081695
0.039922102
-0.20946722
0.04238331
-0.19582937
0.03990284
-0.21094949
0.034610671
-0.22687733
0.026876787
-0.24334576
0.017969215
-0.25986362
0.0098232624
-0.27617076
0.0040810212
-0.29239235
0.0022354974
-0.30889345
0.0054928067
-0.3265098
0.013491233
-0.34641013
0.024266153
-0.36970402
0.035446198
-0.39713304
0.044964836
-0.429027
0.051350416
-0.46527238
0.053969067
-0.50537693
0.052882554
-0.54863615
0.048813328
-0.59429908
0.042709877
-0.6417499
0.035642246
-0.69062897
0.028490314
-0.74086464
0.021877885
-0.79264949
0.016174019
-0.84635923
0.011487343
-0.90249095
0.0078178649
-0.96157316
0.0050415638
-1.0242173
0.0030283892
-1.0909254
0.0016322704
-1.1624653
0.0007272664
-1.2392126
0.00020596689
-1.3223956
-1.8167555e-05
-1.4118479
0.023679009
-0.21020736
0.034950317
-0.21108237
0.039748004
-0.21064285
0.041846188
-0.2089301
0.04123134
-0.19715787
0.035877575
-0.21221639
0.02776766
-0.2277682
0.018193416
-0.24356996
0.0088819602
-0.25892232
0.0018547141
-0.27394445
-0.0012344227
-0.28892243
0.0012565405
-0.30465719
0.0093540401
-0.32237261
0.02112059
-0.34326457
0.033930723
-0.36818855
0.045434519
-0.39760272
0.05382896
-0.43150555
0.058173903
-0.46947721
0.058326114
-0.51082049
0.05489633
-0.55471915
0.048851148
-0.60044035
0.041374371
-0.64748202
0.033506133
-0.69564479
0.026039617
-0.74502637
0.019473099
-0.79594857
0.014000841
-0.84887273
0.009663299
-0.90433639
0.0063428831
-0.96287448
0.0039062386
-1.0250952
0.0021852843
-1.0914784
0.0010348696
-1.1627729
0.00033076482
-1.2393374
-2.1053185e-05
-1.3223927
-0.00011589335
-1.411732
0.02479023
-0.20840929
0.035443427
-0.21070047
0.039917188
-0.21125156
0.041661909
-0.21045857
0.040759178
-0.20845793
0.036998259
-0.19827855
0.028569804
-0.21301853
0.018507359
-0.22808214
0.0080583219
-0.24274632
-0.00032069846
-0.25674691
-0.0048029302
-0.27037595
-0.0032971538
-0.28436874
0.0047240136
-0.30002716
0.017376181
-0.3186282
0.031803896
-0.34113774
0.045371157
-0.36812519
0.055937847
-0.39971161
0.062237821
-0.43556947
0.06388373
-0.47503483
0.061329149
-0.51725331
0.055519673
-0.56138768
0.047727907
-0.60679388
0.039155401
-0.65313129
0.030783416
-0.70038859
0.023265892
-0.74881917
0.016907887
-0.79885562
0.011805762
-0.8510152
0.0078590119
-0.90585252
0.0049322227
-0.96390046
0.0028339298
-1.0257438
0.0014016255
-1.0918452
0.00048614638
-1.1629283
-3.1389776e-05
-1.2393271
-0.00024307867
-1.3222655
-0.00021008794
-1.4115219
0.026627462
-0.20530129
0.036377607
-0.20934347
0.040194726
-0.21097801
0.041596927
-0.21118657
0.040470941
-0.21017033
0.036401123
-0.2078608
0.029232379
-0.19894112
0.018726193
-0.21323737
0.0074425085
-0.22746633
-0.0024483802
-0.24061864
-0.0084309288
-0.25311891
-0.0081293609
-0.26554374
-0.00036865173
-0.27927607
0.013050996
-0.29570197
0.029068549
-0.31589285
0.044748967
-0.34051555
0.057629754
-0.36981709
0.066100239
-0.40357402
0.069496765
-0.4411825
0.06807242
-0.4817781
0.062706236
-0.52443987
0.054724956
-0.56838472
0.045484199
-0.61312268
0.036167036
-0.65851491
0.027610728
-0.70473343
0.020259121
-0.7521704
0.014286079
-0.80133594
0.0096204869
-0.85277667
0.0061277536
-0.90704805
0.0035938447
-0.96466038
0.0018367953
-1.026179
0.0006815435
-1.0920406
-6.5068404e-06
-1.1629531
-0.00035342811
-1.2392167
-0.0004349438
-1.3220406
-0.00029505273
-1.4112268
0.029079784
-0.20050877
0.03774201
-0.20666569
0.040396635
-0.20954538
0.041407469
-0.21078855
0.040094597
-0.21081023
0.035817114
-0.20958632
0.028301873
-0.20693029
0.018621695
-0.19883663
0.0067250784
-0.21251994
-0.0046134988
-0.22530121
-0.012130558
-0.23691901
-0.013196565
-0.24805171
-0.0058884915
-0.2600239
0.0081721619
-0.27439724
0.025733475
-0.2923669
0.043553971
-0.31469786
0.058866881
-0.34175268
0.069703719
-0.37342057
0.075102826
-0.40918008
0.075077122
-0.4481872
0.070389584
-0.48946145
0.062377566
-0.53209248
0.052532726
-0.57543325
0.042247026
-0.61920267
0.032567388
-0.66347157
0.024108379
-0.70858269
0.017146814
-0.75503114
0.011658703
-0.80337415
0.0075134581
-0.85416238
0.0044794228
-0.90793363
0.0023493255
-0.96517291
0.00091896486
-1.0264164
2.8142879e-05
-1.0920752
-0.00046262556
-1.1628439
-0.00064418054
-1.2390075
-0.00060313187
-1.3217326
-0.00036907342
-1.4108577
0.031826914
-0.19386753
0.039510607
-0.20227737
0.040451984
-0.20672104
0.040963564
-0.20910147
0.039443889
-0.21013784
0.034935714
-0.20992883
0.027141293
-0.20842574
0.017003218
-0.20531181
0.0054959703
-0.19760752
-0.0069199633
-0.21021347
-0.016029203
-0.22140257
-0.018452708
-0.23166287
-0.011781761
-0.24215844
0.0027767243
-0.25462846
0.021814107
-0.27047787
0.041785914
-0.29059884
0.059621029
-0.315452
0.072995888
-0.34504485
0.08063783
-0.37895558
0.082285753
-0.41638871
0.078536066
-0.45633368
0.07068591
-0.49776979
0.060333392
-0.53989315
0.049077026
-0.58226325
0.038196732
-0.62483202
0.028511838
-0.66787503
0.020433332
-0.7118692
0.014005308
-0.75737774
0.0091109165
-0.80497161
0.0055027306
-0.85518568
0.0029453982
-0.9085297
0.0012020844
-0.96545603
8.6352628e-05
-1.0264746
-0.00056330267
-1.0919746
-0.00086411301
-1.162624
-0.00090125375
-1.2387093
-0.00075055426
-1.3213511
-0.00043438653
-1.4104234
0.034320426
-0.18575257
0.041600195
-0.19595712
0.040388428
-0.20221381
0.040084312
-0.20584179
0.038206386
-0.20786397
0.033390303
-0.20859243
0.025270315
-0.20805785
0.014748253
-0.20617078
0.0027820547
-0.2025979
-0.0096229257
-0.19490455
-0.020114125
-0.20612855
-0.023834282
-0.21602099
-0.017941765
-0.22550286
-0.0030781156
-0.2363036
0.017335222
-0.25014958
0.039454563
-0.26814652
0.059873135
-0.29085095
0.075931714
-0.31838783
0.086038311
-0.35044533
0.08963382
-0.38630365
0.087099927
-0.42495258
0.079637091
-0.46528487
0.068908499
-0.5063449
0.056705822
-0.54752195
0.044559481
-0.588626
0.03352813
-0.62984831
0.024193374
-0.67163507
0.016694031
-0.71455793
0.010940979
-0.7592078
0.0066748989
-0.80614378
0.003628987
-0.85586927
0.0015304965
-0.90885811
0.00016154224
-0.96553122
-0.00066652649
-1.0263714
-0.0010894201
-1.0917493
-0.0012185996
-1.1623067
-0.001126747
-1.2383332
-0.00087855599
-1.3209069
-0.00048978784
-1.4099336
-0.17720712
0.03576767
0.04367474
-0.18782712
0.040255029
-0.19582372
0.038651173
-0.20078068
0.036014264
-0.20364967
0.030651175
-0.20512484
0.0220245
-0.20534662
0.011089171
-0.20439877
-0.0011361074
-0.20225262
-0.013709607
-0.19851122
-0.024491101
-0.19052758
-0.029307915
-0.20065492
-0.024194252
-0.2097685
-0.0092814728
-0.2192995
0.012337764
-0.23130614
0.036576201
-0.24727121
0.059615093
-0.26788848
0.078475261
-0.2933945
0.091243852
-0.32359337
0.097051904
-0.35786341
0.096023807
-0.39522753
0.089204197
-0.43451968
0.078268406
-0.47464477
0.06517514
-0.51481422
0.051714469
-0.55467693
0.03921785
-0.59431572
0.028477464
-0.6341324
0.019760468
-0.67470151
0.013024482
-0.71664143
0.0080054664
-0.76053837
0.0044019723
-0.80691676
0.0019018002
-0.85624058
0.00024810812
-0.90894468
-0.00077667003
-0.96542107
-0.0013352994
-1.0261255
-0.0015542022
-1.0914137
-0.0015288401
-1.1619046
-0.0013222336
-1.2378895
-0.00098818261
-1.3204085
-0.00053725785
-1.4093963
-0.17864229
0.045109915
-0.1702985
0.035468894
0.039988465
-0.18756055
0.036589736
-0.19376228
0.032585829
-0.19735224
0.02629143
-0.19928992
0.016811707
-0.19991205
0.0051919045
-0.19944935
-0.0072819392
-0.19825294
-0.019472493
-0.19648973
-0.030071288
-0.19293103
-0.034858095
-0.1849774
-0.030346075
-0.1945031
-0.01562899
-0.20342099
0.0068936426
-0.21385538
0.03317459
-0.22790453
0.058849901
-0.24650602
0.080599629
-0.27001285
0.09619896
-0.2983496
0.10446841
-0.33100988
0.10524051
-0.36708012
0.09934575
-0.40536908
0.088409479
-0.44466075
0.074517579
-0.48398721
0.059717069
-0.52281682
0.045642125
-0.56110121
0.033339124
-0.59917738
0.023242353
-0.63761428
0.015382549
-0.67705958
0.0095021931
-0.71813816
0.0052638726
-0.76140027
0.0023097094
-0.80732467
0.00033788771
-0.85633035
-0.00090483838
-0.90881651
-0.0016097115
-0.96514666
-0.001925114
-1.0257546
-0.0019597454
-1.0909827
-0.001797563
-1.1614292
-0.001489932
-1.2373877
-0.0010814229
-1.3198644
-0.00057670083
-1.4088196
-0.17808451
0.039430679
-0.17034118
0.045152594
-0.16715789
0.033372879
0.033941545
-0.18491236
0.027871386
-0.18904784
0.020092923
-0.19115373
0.0092811395
-0.19175935
-0.0034769485
-0.19124319
-0.016500812
-0.19023048
-0.028094399
-0.18963103
-0.037088011
-0.18947301
-0.041294951
-0.18649418
-0.036117322
-0.17920615
-0.02178138
-0.18835071
0.0011465047
-0.19767385
0.029288419
-0.20996921
0.057589564
-0.22664419
0.082286674
-0.24819307
0.10085584
-0.27466972
0.1118122
-0.3056934
0.11467542
-0.34044479
0.11000684
-0.37774121
0.099312738
-0.41627234
0.084753874
-0.45489705
0.068617111
-0.49288726
0.052861955
-0.53003665
0.038833951
-0.56659604
0.027180256
-0.60311529
0.018037148
-0.64026888
0.011171178
-0.67872856
0.0062099561
-0.71908424
0.0027436898
-0.76183425
0.00041765529
-0.80740444
-0.0010641569
-0.85617104
-0.001926995
-0.90849922
-0.002342093
-0.96472968
-0.0024383881
-1.0252759
-0.0023106464
-1.0904697
-0.0020275453
-1.1608916
-0.0016318772
-1.2368373
-0.0011591059
-1.3192819
-0.00060927997
-1.4082103
-0.17497754
0.030834577
-0.16911566
0.038205164
-0.16542773
0.043422434
-0.16823042
0.029859469
0.022154343
-0.17919532
0.012222478
-0.18117739
-0.00045927937
-0.18141332
-0.014883321
-0.18035298
-0.028998071
-0.17874593
-0.040261279
-0.1780636
-0.046594704
-0.18012434
-0.048037629
-0.18273033
-0.042717174
-0.17989432
-0.027266774
-0.17372076
-0.0046025548
-0.18260165
0.024991337
-0.19337677
0.05585632
-0.20823597
0.083527268
-0.22788478
0.10517539
-0.25251262
0.11901635
-0.28187387
0.12424928
-0.31526725
0.12112037
-0.35155832
0.11094397
-0.38937244
0.095891236
-0.4274097
0.078456218
-0.46473616
0.060936022
-0.50096132
0.045019969
-0.53622267
0.031617382
-0.57103316
0.021011813
-0.60608995
0.013017557
-0.64211526
0.0072318205
-0.67975043
0.0031880628
-0.71952861
0.00046918554
-0.76188578
-0.0012731046
-0.80719549
-0.0023037848
-0.85579425
-0.0028224116
-0.9080189
-0.0029781843
-0.96418989
-0.0028815417
-1.0247051
-0.0026099729
-1.0898872
-0.0022219752
-1.1603015
-0.0017503354
-1.236246
-0.0012230516
-1.3186682
-0.0006353731
-1.407575
-0.16890966
0.016086464
-0.16578866
0.027507576
-0.16332244
0.036099869
-0.16497544
0.040167455
-0.17331065
0.025339179
0.0033806125
-0.17035345
-0.011670863
-0.16996581
-0.028148698
-0.16814794
-0.043763234
-0.16558782
-0.055215493
-0.16379172
-0.059238543
-0.16541976
-0.055892373
-0.17226959
-0.048374931
-0.17707257
-0.034033116
-0.17312798
-0.0099123949
-0.16841092
0.020412163
-0.17802247
0.053685995
-0.19120644
0.084323024
-0.20903173
0.1091267
-0.23183609
0.12601922
-0.25951549
0.13388349
-0.29150809
0.13261079
-0.32675767
0.12325371
-0.36386806
0.10792211
-0.40140332
0.089266227
-0.43821971
0.069918974
-0.47371911
0.051955209
-0.50789656
0.036600638
-0.54120592
0.02433238
-0.57435373
0.015045659
-0.60811805
0.0083186647
-0.6432021
0.0036225677
-0.68018493
0.00046888996
-0.71952832
-0.0015550902
-0.7616038
-0.0027620581
-0.80673722
-0.0033852931
-0.85523136
-0.0035977172
-0.90739937
-0.003524961
-0.96354647
-0.003258196
-1.0240568
-0.0028624514
-1.0892468
-0.0023837504
-1.1596681
-0.0018473608
-1.2356217
-0.0012742868
-1.3180293
-0.00065583601
-1.4069191
-0.16062209
-0.004906956
-0.16046429
0.01076209
-0.16013729
0.024322431
-0.16244226
0.033566688
-0.16878214
0.035638949
-0.18139522
0.020650033
-0.022413663
-0.15961065
-0.040872431
-0.15724208
-0.058066149
-0.15384502
-0.070306166
-0.15049714
-0.073453441
-0.14957682
-0.065873394
-0.15543874
-0.053325281
-0.16731924
-0.038917616
-0.17218807
-0.017697813
-0.16534256
0.015818938
-0.16381769
0.051112177
-0.17544866
0.08468528
-0.1915687
0.11268675
-0.21259177
0.13276522
-0.23858209
0.14350053
-0.26913253
0.14440061
-0.3032979
0.13618333
-0.33968729
0.12082449
-0.37677044
0.10106686
-0.41320395
0.079859613
-0.44816035
0.059697697
-0.4814616
0.042178788
-0.51347471
0.028027474
-0.54490102
0.017261399
-0.57656947
0.0094561551
-0.60925555
0.0040226723
-0.64360221
0.00038766862
-0.68010371
-0.0019397035
-0.7191437
-0.0033288618
-0.76103699
-0.0040546512
-0.80606786
-0.0043174378
-0.85451164
-0.004260858
-0.90666347
-0.0039882779
-0.96281638
-0.0035749458
-1.0233443
-0.0030716848
-1.0885588
-0.0025159365
-1.1589995
-0.0019250613
-1.234971
-0.0013142625
-1.3173708
-0.00067110324
-1.406248
-0.15329008
-0.029745673
-0.15529388
-0.010077365
-0.15712862
0.0077534236
-0.16026561
0.022145785
-0.16630766
0.031092203
-0.17663781
0.030881534
-0.19062424
0.016417392
-0.049790839
-0.15069225
-0.06830849
-0.14699973
-0.081892281
-0.14225891
-0.086008193
-0.13794239
-0.077208562
-0.13824165
-0.058838407
-0.14992561
-0.041418587
-0.16481827
-0.023185557
-0.16670033
0.0068282246
-0.15635185
0.04826544
-0.16097096
0.084622681
-0.17538606
0.11583929
-0.19472124
0.13920305
-0.21902961
0.15302363
-0.24810519
0.15640654
-0.28113846
0.14966826
-0.31678283
0.13457055
-0.35343334
0.11386919
-0.38957277
0.090798661
-0.424143
0.068302217
-0.45676487
0.048403722
-0.48768653
0.032130137
-0.51757738
0.019670227
-0.54730985
0.010630315
-0.57774363
0.0043574709
-0.60959034
0.00019044589
-0.64340499
-0.0024627183
-0.6795807
-0.0040368344
-0.71843573
-0.004859108
-0.76023254
-0.005162273
-0.80522303
-0.0051104314
-0.85366207
-0.0048204207
-0.90583133
-0.0043758204
-0.96201551
-0.0038361532
-1.0225799
-0.0032420705
-1.0878327
-0.0026213914
-1.1583032
-0.0019853861
-1.2342998
-0.0013440699
-1.3166979
-0.00068192328
-1.4055661
-0.15043865
-0.05264227
-0.1535086
-0.031530948
-0.15632317
-0.010882817
-0.15999499
0.0074828033
-0.16570792
0.021546046
-0.17456828
0.029022676
-0.18635546
0.026612748
-0.19904397
0.012798269
-0.072464281
-0.14653645
-0.087947944
-0.14094407
-0.094310614
-0.13395649
-0.087394932
-0.12775602
-0.066487993
-0.13059207
-0.042235644
-0.14910856
-0.025266429
-0.1627374
-0.00043213575
-0.15943997
0.039095716
-0.14718213
0.084224701
-0.16057298
0.11855257
-0.17809934
0.14528015
-0.20079834
0.1623701
-0.22837608
0.16853852
-0.26023718
0.16362929
-0.29509949
0.14912072
-0.33133301
0.12768358
-0.36724774
0.10277736
-0.40155147
0.077820326
-0.43366111
0.055325986
-0.46368713
0.036676417
-0.49223281
0.022283981
-0.52019113
0.01182485
-0.54850438
0.0045942413
-0.5779804
-0.00016248655
-0.60923741
-0.0031670429
-0.64270066
-0.0049250746
-0.67869246
-0.0058324669
-0.71746237
-0.0061609546
-0.75923386
-0.006098267
-0.80423519
-0.005775482
-0.85270701
-0.0052854345
-0.90492172
-0.0046939151
-0.96115775
-0.004047911
-1.021774
-0.0033772193
-1.0870769
-0.0027028767
-1.1575857
-0.0020302059
-1.2336137
-0.0013649092
-1.3160149
-0.00068864132
-1.4048775
-0.15267101
-0.070231928
-0.15653275
-0.049618122
-0.15945453
-0.028399595
-0.16290685
-0.0079709587
-0.16777171
0.0095465979
-0.17492934
0.021907103
-0.18451255
0.027179765
-0.19533133
0.022900104
-0.2054511
0.009581853
-0.088044394
-0.14644
-0.09810888
-0.13714581
-0.094705539
-0.12664588
-0.075560834
-0.11868318
-0.044937195
-0.12789052
-0.023185474
-0.15118951
-0.0042989291
-0.15887061
0.030588365
-0.15093262
0.07621446
-0.13917188
0.120907
-0.1629274
0.15091986
-0.18373905
0.17143699
-0.20986522
0.1806772
-0.24051476
0.17796561
-0.2745735
0.16441762
-0.31039638
0.14250383
-0.34615326
0.11583835
-0.38030872
0.088311864
-0.41204301
0.062999241
-0.44133436
0.041704941
-0.46871565
0.02511319
-0.49506202
0.013026843
-0.52139312
0.0046967431
-0.54860688
-0.00072323212
-0.57741965
-0.0041036713
-0.60830078
-0.0060402773
-0.64158546
-0.0070144862
-0.67751044
-0.007346619
-0.71627671
-0.0072520135
-0.75808011
-0.0068772854
-0.80313339
-0.0063242482
-0.85166819
-0.005664897
-0.90395073
-0.0049499543
-0.9602557
-0.0042146886
-1.0209366
-0.0034810301
-1.0862987
-0.00276301
-1.1568529
-0.002061281
-1.2329173
-0.0013777526
-1.3153258
-0.00069187414
-1.4041856
-0.15781753
-0.082897872
-0.16348969
-0.063274986
-0.16651237
-0.042560275
-0.16921874
-0.022087708
-0.17266272
-0.0030799491
-0.17773054
0.012347798
-0.18485771
0.022252267
-0.19325148
0.025099914
-0.20198784
0.019436846
-0.20958128
0.0064753862
-0.096950748
-0.14759814
-0.098843759
-0.13300759
-0.084144327
-0.11806239
-0.052339537
-0.11128084
-0.019809567
-0.13126642
-0.0030676182
-0.15242082
0.024215007
-0.15249725
0.068176401
-0.14289456
0.11479523
-0.13306011
0.15618028
-0.16818782
0.18009794
-0.1924
0.19264338
-0.2218314
0.19247634
-0.2550255
0.18032827
-0.29048415
0.15830157
-0.32619412
0.13000438
-0.36031929
0.099835723
-0.39183258
0.071487354
-0.42053112
0.047264081
-0.4468935
0.02817571
-0.47177817
0.014221187
-0.49625636
0.0046317859
-0.52132817
-0.0015422978
-0.54778782
-0.0053287263
-0.5761946