/*--------------------------------*- C++ -*----------------------------------*\
| =========                 |                                                 |
| \\      /  F ield         | OpenFOAM: The Open Source CFD Toolbox           |
|  \\    /   O peration     | Version:  5.0                                   |
|   \\  /    A nd           | Web:      www.OpenFOAM.org                      |
|    \\/     M anipulation  |                                                 |
\*---------------------------------------------------------------------------*/
FoamFile
{
    version     2.0;
    format      ascii;
    class       surfaceScalarField;
    location    "80";
    object      phi_0;
}
// * * * * * * * * * * * * * * * * * * * * * * * * * * * * * * * * * * * * * //

dimensions      [0 3 -1 0 0 0 0];

internalField   nonuniform List<scalar> 
18180
(
0.0027774493
-1.3480986
0.0053375674
-1.2609538
0.0027766481
-1.3508753
0.0076772306
-1.1796158
0.0053459956
-1.2635231
0.0027465688
-1.3536218
0.0098116176
-1.1036018
0.0076990753
-1.1819689
0.0052900513
-1.2660666
0.0027626105
-1.3563844
0.011722089
-1.0325902
0.0098472673
-1.10575
0.0076202921
-1.1842991
0.0053241189
-1.2686281
0.0027701049
-1.3591545
0.013440882
-0.96619997
0.011788386
-1.0345313
0.0097461127
-1.1078758
0.0076722586
-1.1866473
0.0053414446
-1.2711994
0.0027994328
-1.361954
0.014964983
-0.90410202
0.013542147
-0.96795373
0.011669923
-1.0364551
0.0098164382
-1.11002
0.0076999569
-1.1890058
0.0054021993
-1.2738022
0.0028248066
-1.3647788
0.016319131
-0.84599887
0.015120233
-0.90568011
0.013406489
-0.9696903
0.011755911
-1.0383946
0.0098535003
-1.1121735
0.0077929544
-1.1913965
0.0054555442
-1.2764329
0.0028595069
-1.3676383
0.017514946
-0.79161422
0.016542913
-0.84742155
0.014970817
-0.90724443
0.013504873
-0.97143926
0.011799686
-1.0403408
0.0099787774
-1.1143594
0.0078774385
-1.1938184
0.0055302455
-1.2791037
0.0028847551
-1.370523
0.018571677
-0.74069702
0.017830572
-0.79290188
0.016382141
-0.84883287
0.015075691
-0.90881525
0.013549112
-0.97318869
0.01195331
-1.0423153
0.010096408
-1.1165783
0.0079985352
-1.1962867
0.0055883578
-1.2818073
0.0029088357
-1.3734319
0.019504755
-0.69301707
0.019004466
-0.74187091
0.017662269
-0.79418201
0.016486958
-0.85024414
0.015111406
-0.91037755
0.013722339
-0.97495772
0.012103103
-1.044322
0.010270701
-1.1188505
0.0080988571
-1.1987972
0.0056484316
-1.2845469
0.0029175498
-1.3763494
0.02032978
-0.64836152
0.020085585
-0.69409819
0.018833832
-0.74304248
0.017759394
-0.79545444
0.016502184
-0.85163492
0.015289319
-0.91194453
0.01389838
-0.97675299
0.012333558
-1.0463848
0.010424037
-1.1211757
0.0082092428
-1.201358
0.0056793892
-1.2873087
0.0029160214
-1.3792654
0.021060295
-0.60653481
0.021093368
-0.6493693
0.019920004
-0.69518436
0.018916712
-0.74419979
0.01773989
-0.79669215
0.01666394
-0.85300954
0.01547973
-0.91352588
0.014182369
-0.9786018
0.012548692
-1.0485095
0.010603372
-1.1235698
0.0082803366
-1.203959
0.0056928509
-1.2900855
0.0028934962
-1.3821589
0.021709014
-0.56735636
0.022045721
-0.60748717
0.020942762
-0.65039206
0.019984366
-0.69625202
0.018846671
-0.74530658
0.01785893
-0.79788714
0.016850515
-0.85438032
0.015806371
-0.91514988
0.014463535
-0.98051665
0.012814178
-1.0507203
0.010737968
-1.1260274
0.0083317045
-1.2065978
0.0056651172
-1.2928572
0.0028525162
-1.3850115
0.022286745
-0.5306581
0.022959077
-0.56826971
0.021923969
-0.60846837
0.020988618
-0.65139631
0.019847208
-0.69725255
0.018891961
-0.74633961
0.018017043
-0.79905367
0.017199486
-0.85577344
0.016150733
-0.91683708
0.014828513
-0.98253098
0.013036712
-1.0530191
0.010858277
-1.128554
0.0083238505
-1.2092566
0.0056030459
-1.2956077
0.0027872607
-1.3877987
0.022802596
-0.49628405
0.02384698
-0.531546
0.022883009
-0.56922875
0.021955363
-0.60943512
0.020767471
-0.65231657
0.019785887
-0.69814648
0.018990447
-0.74731301
0.018358018
-0.8002122
0.017595366
-0.85721807
0.016621144
-0.91862971
0.015162246
-0.98465652
0.013260176
-1.055421
0.010904141
-1.1311343
0.0082681454
-1.2119217
0.0054928625
-1.2983133
0.0026998604
-1.3904986
0.023262597
-0.4640884
0.02472078
-0.49715785
0.023835991
-0.53249898
0.022905851
-0.57017924
0.021632994
-0.61030064
0.020569629
-0.65310031
0.01978611
-0.69894214
0.019283591
-0.74823858
0.018783297
-0.80140013
0.018166975
-0.8587639
0.017085419
-0.92055288
0.015524434
-0.98692077
0.013399263
-1.0579161
0.010893625
-1.1337598
0.0081397885
-1.2145686
0.0053387429
-1.3009522
0.0025907711
-1.3930894
0.023671911
-0.43393683
0.025588376
-0.464956
0.024795074
-0.49811693
0.023860043
-0.53345317
0.02246882
-0.57101507
0.021268913
-0.61099992
0.020422014
-0.65373622
0.019983272
-0.69964182
0.019704312
-0.7491596
0.019438696
-0.80267185
0.018774985
-0.86045347
0.017620217
-0.92264866
0.015800616
-0.98932213
0.013479927
-1.0605024
0.010785284
-1.1364053
0.0079460743
-1.2171759
0.0051375819
-1.303499
0.0024616004
-1.395551
0.024034963
-0.40570241
0.026454625
-0.43480308
0.025770461
-0.46593138
0.024834723
-0.49909161
0.023300893
-0.53428525
0.021912756
-0.57165891
0.020923066
-0.61150098
0.020469309
-0.65422226
0.020351407
-0.70028892
0.020410769
-0.75013167
0.020194868
-0.80409174
0.01951201
-0.86234526
0.018080111
-0.92492816
0.016025446
-0.99186765
0.013437754
-1.0631548
0.010589692
-1.1390489
0.0076784048
-1.2197167
0.0048937178
-1.3059311
0.0023142022
-1.3978652
0.024355307
-0.37926692
0.027322086
-0.40656987
0.026768754
-0.43580137
0.025843478
-0.46694014
0.024148842
-0.49993956
0.022527277
-0.53489977
0.021315453
-0.5720513
0.020757681
-0.61178935
0.020720391
-0.65459124
0.021060374
-0.70093852
0.021308971
-0.75124578
0.021156694
-0.80573642
0.020203464
-0.86446862
0.018507759
-0.92741047
0.016104558
-0.99453445
0.013287924
-1.0658531
0.010289048
-1.1416595
0.0073429372
-1.222166
0.0046117525
-1.3082287
0.002150706
-1.4000159
0.024635773
-0.35451919
0.028191198
-0.38013603
0.027793507
-0.40759462
0.026895168
-0.43685306
0.025030416
-0.46782171
0.023125586
-0.50053787
0.021616303
-0.53520062
0.020861531
-0.57215515
0.020810572
-0.61187953
0.021371907
-0.65490277
0.022083533
-0.70171309
0.022509183
-0.75259827
0.022127034
-0.80765999
0.02089629
-0.86685715
0.018772057
-0.93007797
0.016057869
-0.99730439
0.012997038
-1.0685611
0.009891978
-1.1442086
0.0069447417
-1.2244989
0.0042962338
-1.3103742
0.001974142
-1.40199
0.024879179
-0.3313556
0.029060743
-0.35538873
0.028845998
-0.38118852
0.027995527
-0.40869498
0.025960488
-0.43778313
0.023733901
-0.46843003
0.021852289
-0.50077386
0.020799354
-0.53513844
0.020636289
-0.57198086
0.021343023
-0.61185065
0.022491445
-0.65531069
0.023525525
-0.70272943
0.023802989
-0.75427422
0.023148884
-0.80991258
0.021418029
-0.86950312
0.018896494
-0.9329166
0.0158292
-1.0001366
0.012576119
-1.0712452
0.0094010994
-1.1466649
0.0064908464
-1.2266936
0.0039539008
-1.3123539
0.0017883615
-1.4037784
0.025088367
-0.30967919
0.029928121
-0.33222298
0.029925664
-0.3564684
0.029147043
-0.38234004
0.026950125
-0.40968462
0.024378101
-0.43842733
0.02205238
-0.46863012
0.020619809
-0.50059431
0.020233812
-0.53473596
0.020986188
-0.57162403
0.022514409
-0.61187361
0.024165887
-0.65595105
0.025180671
-0.70410711
0.025216395
-0.75634173
0.024007641
-0.8125022
0.02179191
-0.87239854
0.018794304
-0.9358817
0.015433217
-1.0029937
0.012023051
-1.0738672
0.0088256802
-1.1489998
0.0059924197
-1.2287321
0.0035917712
-1.3141574
0.0015976462
-1.405376
0.025266297
-0.28939915
0.03079016
-0.31054122
0.031030502
-0.33332782
0.030349154
-0.35767051
0.028006178
-0.38339609
0.025077884
-0.4103844
0.022251274
-0.43862622
0.020349559
-0.46835987
0.0196451
-0.5000056
0.020320738
-0.53407051
0.022139742
-0.57124936
0.024395332
-0.61210306
0.026208574
-0.65697895
0.027043803
-0.70593452
0.02649748
-0.75883157
0.024718778
-0.81542906
0.021893173
-0.87549741
0.018482931
-0.93893141
0.014856584
-1.0058272
0.011349199
-1.0763907
0.0081818113
-1.1511891
0.0054592084
-1.2305995
0.0032172531
-1.315777
0.0014055339
-1.4067815
0.02541608
-0.2704313
0.031642076
-0.29025106
0.032158614
-0.31166934
0.031598614
-0.33457728
0.029131918
-0.35879625
0.025847872
-0.38416608
0.022478983
-0.41061211
0.020016226
-0.43829289
0.018897924
-0.46761269
0.019354442
-0.4990393
0.02136244
-0.53329321
0.024184598
-0.57103863
0.02683621
-0.61273069
0.028573324
-0.65850847
0.028836134
-0.70827317
0.027642301
-0.76175509
0.025113796
-0.81864969
0.021739004
-0.87875348
0.017931393
-0.94200622
0.014113572
-1.0085916
0.010574164
-1.078783
0.0074810762
-1.153211
0.0049028945
-1.2322852
0.0028374641
-1.3172089
0.0012143198
-1.4079959
0.025541763
-0.25269669
0.03247857
-0.27126779
0.03330735
-0.2913998
0.032888305
-0.31295903
0.03032705
-0.33577241
0.026698278
-0.35964666
0.022761695
-0.38444879
0.019655568
-0.41025145
0.018009386
-0.43740435
0.018121561
-0.46637981
0.020185673
-0.49786254
0.023509489
-0.5326181
0.02701591
-0.57121833
0.029746436
-0.6139038
0.030966082
-0.66063842
0.030517805
-0.71114868
0.028434705
-0.765076
0.025203341
-0.82211402
0.021274126
-0.88209621
0.017158279
-0.94505093
0.013225353
-1.0112427
0.0097107509
-1.0810127
0.006742257
-1.1550504
0.0043345802
-1.2337823
0.0024587272
-1.3184533
0.0010259968
-1.4090219
0.025649859
-0.23611876
0.033294351
-0.25351247
0.034474251
-0.27243469
0.034212546
-0.29272404
0.031587227
-0.3142192
0.027635906
-0.33671004
0.023120243
-0.3600052
0.019300081
-0.38409331
0.017007656
-0.40924972
0.016659114
-0.43594191
0.01861955
-0.46481369
0.022354417
-0.49670746
0.026706092
-0.53230828
0.030506377
-0.57197827
0.032825396
-0.61576312
0.033292668
-0.66341328
0.031823969
-0.71453794
0.028869171
-0.76874183
0.024901233
-0.82574113
0.020520261
-0.88545819
0.016181207
-0.94800678
0.012207106
-1.0137391
0.0087878838
-1.0830583
0.005979481
-1.1566953
0.0037646231
-1.2350882
0.0020864503
-1.3195138
0.00084368613
-1.4098655
0.02575143
-0.22062224
0.034085256
-0.23690967
0.03565678
-0.254695
0.035564945
-0.27378709
0.032908093
-0.2940449
0.028665182
-0.31524848
0.023570492
-0.33716028
0.018979173
-0.3596843
0.015929309
-0.38301496
0.014991909
-0.40758252
0.016688644
-0.434011
0.02071675
-0.46317602
0.025873362
-0.49587473
0.030800006
-0.53260191
0.034350209
-0.57350308
0.035908188
-0.61837864
0.035240642
-0.66682996
0.032719554
-0.71838832
0.028822115
-0.77266272
0.024228883
-0.82944975
0.019487056
-0.88876404
0.015020779
-0.95082046
0.011098681
-1.0160499
0.007820639
-1.0848995
0.0052085138
-1.1581392
0.0032023248
-1.236204
0.0017258265
-1.3203959
0.00067154187
-1.4105371
0.025863221
-0.20612947
0.034849354
-0.22138633
0.036850772
-0.23810366
0.036938248
-0.2560683
0.034284299
-0.2751633
0.029786603
-0.29516633
0.024125328
-0.31580332
0.018718605
-0.33689972
0.014810948
-0.35856594
0.013148942
-0.38117199
0.01442873
-0.4053226
0.018600035
-0.43189429
0.024494024
-0.46179668
0.030580975
-0.4956557
0.035478111
-0.53372981
0.038302056
-0.57589695
0.038635534
-0.62177353
0.036728049
-0.67083845
0.033037003
-0.72260321
0.028308464
-0.7767423
0.02318346
-0.83314616
0.018202917
-0.89194618
0.013725075
-0.95344685
0.0099154477
-1.0181447
0.0068358138
-1.0865268
0.0044430503
-1.1593799
0.0026559939
-1.2371342
0.0013817717
-1.3211061
0.00052016919
-1.4110573
0.02600622
-0.19255969
0.035587394
-0.20686751
0.038047819
-0.22258338
0.038323215
-0.23948863
0.035708104
-0.25749211
0.030998241
-0.27637493
0.024793639
-0.29583464
0.018541874
-0.31562658
0.013686851
-0.33577562
0.011167264
-0.35658426
0.011872135
-0.3786154
0.016015609
-0.40273818
0.022558138
-0.4299584
0.02981077
-0.46102648
0.036150648
-0.49632824
0.04041077
-0.53583853
0.041952827
-0.57921424
0.040858902
-0.62590438
0.037537245
-0.67533869
0.032775914
-0.72707066
0.027308035
-0.78086687
0.021801206
-0.83674445
0.016720883
-0.89494199
0.012314302
-0.9558457
0.0086999237
-1.0200088
0.0058490935
-1.0879328
0.0036953035
-1.1604192
0.0021324295
-1.2378849
0.0010573382
-1.3216433
0.00038406438
-1.4114413
0.024258373
-0.21124287
0.03630398
-0.19327627
0.03923342
-0.20805312
0.039705566
-0.22396573
0.037166136
-0.24094666
0.032291937
-0.25878581
0.025579883
-0.27716118
0.018468658
-0.29576142
0.012589411
-0.31452914
0.0090870468
-0.3336954
0.0090509544
-0.35376308
0.012989337
-0.37558913
0.020064636
-0.40024468
0.02845937
-0.428607
0.036316856
-0.46119269
0.042172305
-0.49808977
0.045131926
-0.53901763
0.04506795
-0.58342329
0.042304579
-0.63067172
0.03764058
-0.68020336
0.031893029
-0.73165566
0.025863013
-0.78492868
0.020138487
-0.84016205
0.015071805
-0.89769949
0.010846784
-0.95799256
0.0074669978
-1.0216267
0.0048803218
-1.0891178
0.0029753265
-1.1612621
0.0016364056
-1.2384639
0.0007535559
-1.3220128
0.00024876574
-1.4116901
0.023188121
-0.21131439
0.035122502
-0.21006139
0.040386473
-0.19442933
0.04106241
-0.20940996
0.038630936
-0.22543053
0.033643111
-0.24229783
0.026477848
-0.25968377
0.01851403
-0.27720655
0.011547703
-0.29471971
0.0069488532
-0.31239095
0.0060038082
-0.33064826
0.0095534535
-0.35032719
0.017016469
-0.37254096
0.026508089
-0.3982934
0.035934774
-0.42822492
0.043527976
-0.46254836
0.048109776
-0.50106762
0.049303997
-0.54325367
0.047311204
-0.58842992
0.042902946
-0.63593408
0.036965119
-0.68527545
0.030432706
-0.73622535
0.02403177
-0.78882196
0.018240447
-0.84333069
0.013326882
-0.90017959
0.009339242
-0.95986481
0.0062513013
-1.0229977
0.0039428842
-1.0900854
0.002291107
-1.1619168
0.0011711051
-1.2388815
0.0004716582
-1.3222357
0.00011411444
-1.4118042
0.022817244
-0.21101712
0.034539188
-0.21073107
0.039690564
-0.20936548
0.042360376
-0.19572729
0.040060532
-0.21083956
0.03498948
-0.2267769
0.027452218
-0.2432722
0.018682686
-0.25985243
0.01058709
-0.27624594
0.0047932878
-0.29256415
0.0027732133
-0.30916036
0.005739964
-0.32683477
0.013427635
-0.34673836
0.023952403
-0.36998527
0.034972126
-0.39733075
0.044424815
-0.42912176
0.050823688
-0.46526227
0.053510544
-0.50527417
0.052520061
-0.54846253
0.048553867
-0.59408084
0.042543752
-0.64151272
0.035551433
-0.69039418
0.028453457
-0.74064704
0.021875659
-0.79245717
0.01619085
-0.84619466
0.011512512
-0.90235286
0.0078445617
-0.96145807
0.0050660524
-1.0241209
0.0030490478
-1.0908433
0.0016486435
-1.1623943
0.000739185
-1.239149
0.00021334765
-1.3223349
-1.4696456e-05
-1.4117895
0.023177344
-0.21012331
0.034518892
-0.21099683
0.039504169
-0.21054468
0.041817769
-0.20882288
0.04139064
-0.1970574
0.036272903
-0.21212298
0.02837557
-0.22770025
0.018960768
-0.24355029
0.0097251188
-0.25899046
0.0026596623
-0.27411231
-0.00059370088
-0.28919723
0.0015824631
-0.30500285
0.0093236453
-0.32273078
0.020793589
-0.34357954
0.033405705
-0.36841885
0.044818117
-0.39772405
0.053214232
-0.4315123
0.057627696
-0.46937942
0.057885417
-0.51063953
0.054573962
-0.55448263
0.048639785
-0.60017687
0.04125539
-0.64721667
0.033455332
-0.69539605
0.026033849
-0.74480522
0.019492948
-0.79575927
0.014032485
-0.84871464
0.0096977324
-0.90420603
0.0063749969
-0.96276701
0.0039338544
-1.0250057
0.0022075695
-1.0914023
0.001052071
-1.1627072
0.00034300687
-1.2392787
-1.1885222e-05
-1.3223377
-0.00011208749
-1.4116774
0.024293119
-0.20830769
0.035016189
-0.21062061
0.039673856
-0.21116651
0.04163877
-0.21036568
0.040919839
-0.20835207
0.037413012
-0.19819751
0.029211154
-0.21295856
0.019311761
-0.22805125
0.0089830953
-0.24280826
0.00057893104
-0.25690972
-0.0040491697
-0.27065684
-0.0028812065
-0.28473356
0.0047348018
-0.30041401
0.017039135
-0.31897632
0.031227092
-0.34140093
0.044673465
-0.3682742
0.055227166
-0.39973698
0.061594002
-0.43547861
0.063354053
-0.47484806
0.060933424
-0.51699899
0.055254138
-0.56109698
0.047574161
-0.60649564
0.039086698
-0.65284804
0.030772537
-0.70013474
0.023289015
-0.74860129
0.016947377
-0.79867416
0.011849822
-0.85086673
0.0079007707
-0.9057318
0.004968594
-0.96380175
0.002863711
-1.0256618
0.0014249658
-1.0917752
0.00050388621
-1.1628681
-1.9264339e-05
-1.2392713
-0.00023542301
-1.3222144
-0.00020615058
-1.4114713
0.026152221
-0.20517483
0.035984272
-0.20927578
0.039973987
-0.21092074
0.041594214
-0.21112196
0.040643836
-0.21008968
0.036833585
-0.20777265
0.029910419
-0.19889678
0.019573402
-0.2132202
0.0084523396
-0.22752049
-0.0014495902
-0.24077974
-0.0075541833
-0.25340471
-0.0076119894
-0.26592606
-0.00030852379
-0.27969024
0.012707536
-0.29608241
0.028439393
-0.31618862
0.043965378
-0.34069284
0.05681548
-0.36986251
0.065349025
-0.40349201
0.068867144
-0.4409917
0.067592306
-0.48150694
0.062376715
-0.52412157
0.054528882
-0.5680517
0.045392816
-0.61280176
0.036148993
-0.6582245
0.027637255
-0.70448298
0.020308035
-0.75196195
0.014342039
-0.80116638
0.0096744183
-0.85264038
0.006175133
-0.90693834
0.003633064
-0.96457111
0.0018680105
-1.0261049
0.00070539548
-1.0919767
9.1159548e-06
-1.1628965
-0.00034116154
-1.2391656
-0.00042730875
-1.3219932
-0.00029128824
-1.41118
0.028641322
-0.20035155
0.037414101
-0.20660466
0.040215764
-0.20951755
0.041431195
-0.21075772
0.04029128
-0.2107694
0.036281278
-0.20953737
0.029017534
-0.20687976
0.019535561
-0.19885894
0.0078212317
-0.21258909
-0.0034901942
-0.22547989
-0.011120948
-0.23721298
-0.012566688
-0.24845001
-0.0057707902
-0.26046379
0.007826168
-0.27480887
0.025051481
-0.2926945
0.042680291
-0.31490354
0.057941797
-0.34181916
0.068835654
-0.37334914
0.074362337
-0.4089872
0.074501224
-0.44790062
0.069985514
-0.48911574
0.062130643
-0.53172333
0.052412987
-0.57507187
0.04221916
-0.61887193
0.032597243
-0.66318448
0.024168454
-0.7083434
0.017217408
-0.75483732
0.011727812
-0.80321977
0.0075747477
-0.85403999
0.0045305704
-0.90783585
0.0023904364
-0.96509353
0.00095081507
-1.0263503
5.1856221e-05
-1.0920194
-0.00044474122
-1.1627929
-0.00063207636
-1.2389608
-0.00059564734
-1.3216889
-0.00036538515
-1.4108146
0.031433325
-0.19368258
0.039274863
-0.20221231
0.040332147
-0.20672104
0.041021703
-0.20910806
0.039679751
-0.21014619
0.035451016
-0.20993914
0.027919222
-0.20843906
0.017991917
-0.20533612
0.0066868077
-0.19772451
-0.0056615509
-0.21041774
-0.014887112
-0.22171372
-0.017704197
-0.23207547
-0.011599431
-0.24262137
0.0024320875
-0.25506971
0.021078902
-0.27083629
0.040818367
-0.29083258
0.058578366
-0.31554011
0.072002013
-0.34498552
0.07977584
-0.37876265
0.081602567
-0.41608854
0.078046308
-0.45596141
0.070378726
-0.49736382
0.060178678
-0.53948902
0.04903595
-0.58188866
0.038229521
-0.62450421
0.028584906
-0.66760094
0.020521716
-0.71164771
0.014093192
-0.7572027
0.0091897002
-0.80483473
0.0055689016
-0.85507832
0.002998995
-0.90844441
0.0012439212
-0.96538664
0.00011811755
-1.0264165
-0.00053948694
-1.0919247
-0.00084668303
-1.1625783
-0.00088943184
-1.238667
-0.00074323089
-1.321311
-0.00043084301
-1.4103838
0.033964262
-0.18555446
0.041466526
-0.19587424
0.040350807
-0.20223097
0.040196439
-0.20589578
0.038514551
-0.20794286
0.0339957
-0.20869088
0.02615342
-0.20817334
0.015853904
-0.20630104
0.004081301
-0.20273061
-0.008232406
-0.19515366
-0.018837897
-0.20646695
-0.022971392
-0.21644653
-0.017691373
-0.22598352
-0.0034175465
-0.23677174
0.016546821
-0.25053763
0.038389631
-0.26840756
0.058706617
-0.29096083
0.074803736
-0.31834183
0.085044711
-0.35025439
0.088832003
-0.38599208
0.08651299
-0.42455522
0.079259442
-0.46484213
0.068711229
-0.50589637
0.056647332
-0.5471004
0.044594349
-0.58825349
0.033616033
-0.62953533
0.024303096
-0.67138232
0.016804971
-0.71435949
0.011041519
-0.75905452
0.006759938
-0.80602576
0.00369823
-0.85577756
0.0015848882
-0.90878538
0.00020330001
-0.96547182
-0.00063488424
-1.0263211
-0.0010660593
-1.0917053
-0.0012017032
-1.162266
-0.0011152807
-1.2382949
-0.00087148923
-1.3208704
-0.00048639631
-1.4098974
-0.17703271
0.035418423
0.043634878
-0.18772281
0.04032064
-0.19584408
0.038851717
-0.20088625
0.036432664
-0.20381389
0.031391546
-0.20533871
0.023070602
-0.20560806
0.012375147
-0.20469458
0.00032808453
-0.20254783
-0.012175329
-0.19878769
-0.023077555
-0.190914
-0.02834074
-0.20109761
-0.023879629
-0.21025827
-0.0096121593
-0.21978891
0.011497192
-0.23172211
0.035410511
-0.24755851
0.058319035
-0.26801997
0.07720566
-0.29336275
0.090109258
-0.32340638
0.096120546
-0.35754293
0.095328096
-0.39480719
0.088745254
-0.43404103
0.078020053
-0.47415095
0.065094107
-0.51434315
0.051749978
-0.55425603
0.039322304
-0.59395976
0.028612408
-0.63384465
0.019899419
-0.67447676
0.013151877
-0.71646984
0.0081139913
-0.76040857
0.0044906783
-0.80681821
0.0019718423
-0.85616451
0.00030218024
-0.90888426
-0.00073541171
-0.96537129
-0.0013044432
-1.0260828
-0.0015315416
-1.0913755
-0.0015125599
-1.1618687
-0.0013111962
-1.2378552
-0.00098138106
-1.3203754
-0.00053401018
-1.4093633
-0.17852959
0.045131753
-0.17020747
0.035093771
0.040173541
-0.18757571
0.036920213
-0.19391257
0.033152884
-0.19760647
0.027211163
-0.19963351
0.01807756
-0.20034567
0.0067252627
-0.19995817
-0.0055791055
-0.19878739
-0.017748719
-0.19697444
-0.028520716
-0.19334453
-0.033811485
-0.18544325
-0.029986236
-0.194991
-0.015949965
-0.20392047
0.0060040658
-0.21429579
0.031905171
-0.22821677
0.057419247
-0.24665872
0.079181675
-0.26999599
0.094914892
-0.29816838
0.10339728
-0.33068311
0.10442459
-0.36663943
0.098794259
-0.40485619
0.088100644
-0.44412162
0.074407883
-0.48346473
0.059751032
-0.5223442
0.045764588
-0.56069831
0.033503433
-0.59885078
0.023414924
-0.63736015
0.0155428
-0.67686769
0.0096397457
-0.7179956
0.0053767571
-0.76129465
0.0023991938
-0.80724556
0.00040721251
-0.85626954
-0.0008517048
-0.90876796
-0.0015696937
-0.96510604
-0.0018953656
-1.0257189
-0.001937952
-1.0909501
-0.001781982
-1.161398
-0.0014793694
-1.2373573
-0.0010749229
-1.3198345
-0.00057361492
-1.4087897
-0.17809261
0.03973657
-0.1702655
0.045189776
-0.1671934
0.032959566
0.034431388
-0.18508688
0.028617869
-0.18937756
0.021222864
-0.19161817
0.010805965
-0.19236192
-0.0016487738
-0.19197163
-0.014496511
-0.19104077
-0.02613724
-0.19039887
-0.035426828
-0.19006833
-0.040187403
-0.18696861
-0.035752746
-0.17967674
-0.02210017
-0.18884079
0.00021449421
-0.19813089
0.027913691
-0.21030431
0.056019916
-0.22681744
0.080714427
-0.24819147
0.099414829
-0.27449592
0.11059199
-0.30536309
0.11372829
-0.33998681
0.10935134
-0.37719651
0.098933261
-0.41568881
0.084608365
-0.45432211
0.068646469
-0.49236016
0.053003423
-0.52958304
0.039031881
-0.56622676
0.027392703
-0.60282856
0.018237167
-0.64005452
0.011344394
-0.67857234
0.0063528143
-0.71897166
0.0028573681
-0.76175282
0.00050590187
-0.80734425
-0.00099636821
-0.85612488
-0.0018757689
-0.90846189
-0.0023037237
-0.96469768
-0.0024099198
-1.025247
-0.0022898467
-1.0904422
-0.0020127086
-1.1608646
-0.0016218183
-1.2368104
-0.0011529208
-1.3192552
-0.00060635146
-1.4081834
-0.17514855
0.031487319
-0.16913028
0.038601356
-0.16543641
0.043432784
-0.16838481
0.029394447
0.02309247
-0.17956149
0.013568884
-0.18172358
0.0013249172
-0.18213713
-0.012755996
-0.18125469
-0.026683264
-0.17978488
-0.038061045
-0.17911696
-0.04486149
-0.18096421
-0.046954796
-0.18330093
-0.042350911
-0.18037044
-0.027603839
-0.17417307
-0.0055676191
-0.18305868
0.023513484
-0.19373069
0.05414418
-0.20842857
0.081795658
-0.22789867
0.10357107
-0.25234772
0.11763878
-0.28154271
0.12316057
-0.31479538
0.12034946
-0.35098493
0.11048309
-0.38874634
0.095701722
-0.42678217
0.078476895
-0.46415253
0.06109689
-0.50045363
0.045255713
-0.53580687
0.031876458
-0.57071051
0.02125952
-0.60585092
0.013234188
-0.64194431
0.0074115922
-0.67963111
0.0033315864
-0.71944587
0.00058076958
-0.76182769
-0.0011872994
-0.80715332
-0.0022388501
-0.8557618
-0.0027735784
-0.90799203
-0.0029416997
-0.9641659
-0.0028545377
-1.0246823
-0.0025902476
-1.0898647
-0.002207913
-1.1602785
-0.0017407973
-1.2362225
-0.001217185
-1.3186443
-0.00063260268
-1.4075508
-0.16925269
0.017196617
-0.16592909
0.028286125
-0.16336782
0.036532762
-0.16506177
0.040109749
-0.17357528
0.024840415
0.0049135042
-0.17090611
-0.0096845056
-0.17071415
-0.02581535
-0.16907777
-0.041265482
-0.16667248
-0.05288812
-0.1649578
-0.057495195
-0.16648326
-0.054935798
-0.17298321
-0.048097146
-0.1775547
-0.034357704
-0.17361658
-0.010896268
-0.16884443
0.018843164
-0.17838836
0.051829581
-0.19141609
0.082428033
-0.20906094
0.10735379
-0.23168139
0.12447718
-0.25918611
0.13264368
-0.29102582
0.13171326
-0.32615917
0.12270023
-0.36320207
0.10767943
-0.40072405
0.089273017
-0.43757829
0.070098803
-0.47315445
0.052232717
-0.50743064
0.036913571
-0.54084398
0.024636498
-0.57408749
0.015314691
-0.60793142
0.0085435264
-0.64307624
0.0038026159
-0.68010214
0.00060902795
-0.71947413
-0.0014472302
-0.76156776
-0.0026804132
-0.80671176
-0.0033238097
-0.85521157
-0.0035516225
-0.90738211
-0.0034905794
-0.96352986
-0.0032327253
-1.0240398
-0.0028438421
-1.0892287
-0.0023704813
-1.1596488
-0.001838351
-1.2356013
-0.0012687443
-1.3180082
-0.00065322471
-1.4068976
-0.16103945
-0.0032997403
-0.16069793
0.011965457
-0.1602359
0.025154208
-0.16250591
0.0339769
-0.16895413
0.035488591
-0.18171059
0.020135069
-0.020411407
-0.1601792
-0.038579845
-0.15794966
-0.055655863
-0.15468739
-0.068099336
-0.15146126
-0.071849438
-0.15060356
-0.065132865
-0.15628619
-0.053270426
-0.16780993
-0.039305518
-0.17260688
-0.018616123
-0.16589672
0.01417879
-0.16418005
0.049113213
-0.17567199
0.082624234
-0.19161229
0.11074122
-0.21244837
0.1310529
-0.23825711
0.14210103
-0.26864346
0.14336559
-0.30267815
0.13552561
-0.33898455
0.12051843
-0.37604107
0.10105338
-0.41250441
0.080056999
-0.44753649
0.060020387
-0.48094212
0.04255293
-0.51306999
0.028397873
-0.54460536
0.017592748
-0.57636555
0.0097355865
-0.60912348
0.0042473308
-0.64352096
0.00056243563
-0.68005555
-0.0018050916
-0.71911627
-0.0032270144
-0.76102116
-0.003977944
-0.80605762
-0.0042598504
-0.85450334
-0.004217726
-0.90665496
-0.0039560723
-0.96280652
-0.0035510735
-1.0233326
-0.00305421
-1.088545
-0.0025034578
-1.1589837
-0.0019165757
-1.2349535
-0.0013090376
-1.3173524
-0.00066864164
-1.4062289
-0.15347622
-0.02797463
-0.15538991
-0.0086077582
-0.15714666
0.0088762162
-0.16027281
0.022921109
-0.16637876
0.031401532
-0.17685546
0.030633455
-0.19092791
0.015901532
-0.047802165
-0.15095688
-0.066254223
-0.1473513
-0.080045087
-0.14274164
-0.084685806
-0.13862489
-0.076719802
-0.13901662
-0.059117726
-0.15043889
-0.041992975
-0.16512247
-0.024067518
-0.16715549
0.0052391947
-0.15695713
0.046132448
-0.16119929
0.082395096
-0.17544285
0.11371856
-0.19458963
0.1373162
-0.21871168
0.15145717
-0.24761325
0.15522377
-0.28050164
0.14889459
-0.31604713
0.13418966
-0.35265579
0.11382746
-0.38881515
0.091011043
-0.42345846
0.068672852
-0.45618895
0.0488464
-0.48723559
0.032577141
-0.51724926
0.020075459
-0.54708807
0.010974582
-0.57760454
0.0046366677
-0.60951282
0.00040676711
-0.64336529
-0.0022958239
-0.67956482
-0.0039106889
-0.7184326
-0.0047642212
-0.76023488
-0.005091048
-0.80522643
-0.0050569968
-0.85366407
-0.0047803546
-0.90583068
-0.0043458536
-0.96201174
-0.0038138714
-1.0225729
-0.0032257233
-1.0878227
-0.0026096939
-1.1582906
-0.0019774166
-1.2342851
-0.0013391568
-1.3166819
-0.00067961216
-1.4055493
-0.15020511
-0.051073276
-0.153271
-0.030093543
-0.15610836
-0.0096460516
-0.1598398
0.0084431992
-0.16564169
0.022184042
-0.17464613
0.029192203
-0.18657781
0.026283358
-0.19929569
0.012293841
-0.070840105
-0.146371
-0.086464065
-0.14093232
-0.093279692
-0.13414775
-0.087129125
-0.12821557
-0.06705801
-0.13107634
-0.043158007
-0.14927386
-0.026187714
-0.16300228
-0.0019344425
-0.15998185
0.036924383
-0.14774906
0.081831677
-0.16063587
0.11625619
-0.17798049
0.14321643
-0.20048986
0.16063133
-0.22788584
0.16719894
-0.25958842
0.16272804
-0.29433508
0.14865294
-0.33051041
0.12760399
-0.36643232
0.10300035
-0.40080445
0.078240611
-0.43302622
0.055844179
-0.46318673
0.037211189
-0.49186963
0.02277582
-0.51994963
0.012246084
-0.54835957
0.0049371736
-0.57790505
0.00010245112
-0.6092085
-0.0029612197
-0.6426999
-0.0047698612
-0.67870565
-0.0057160123
-0.71748081
-0.0060736883
-0.75925224
-0.0060328057
-0.80425062
-0.0057262981
-0.85271812
-0.0052484542
-0.90492808
-0.0046661572
-0.96115945
-0.0040272093
-1.0217714
-0.003361978
-1.0870704
-0.0026919402
-1.1575761
-0.0020227378
-1.2336015
-0.001360299
-1.3160012
-0.00068647103
-1.4048628
-0.15205452
-0.068990695
-0.15594204
-0.048402234
-0.15895479
-0.027247117
-0.16252014
-0.0069657117
-0.16752499
0.0103265
-0.1748515
0.022389413
-0.18460145
0.027215841
-0.19553331
0.022520983
-0.20564312
0.0091007444
-0.086885551
-0.14594952
-0.097277635
-0.13693438
-0.094529002
-0.12674788
-0.076242819
-0.11903076
-0.046245271
-0.12798907
-0.024302091
-0.15115948
-0.0057068633
-0.15922985
0.028437847
-0.15149531
0.073711167
-0.13962855
0.11843559
-0.16281526
0.14867897
-0.18344302
0.16952335
-0.20938188
0.17917469
-0.2398616
0.17692711
-0.27378749
0.16384976
-0.3095319
0.14237569
-0.34528211
0.11606602
-0.37949799
0.088782003
-0.41134584
0.063598899
-0.44078093
0.042338661
-0.4683142
0.025705777
-0.49479959
0.013539831
-0.52124337
0.0051150029
-0.5485374
-0.00039427113
-0.57740833
-0.0038507217
-0.608319
-0.0058505293
-0.64161923
-0.0068726185
-0.67754904
-0.0072406424
-0.71631385
-0.0071726601
-0.75811239
-0.0068176524
-0.80315926
-0.0062792906
-0.85168729
-0.0056309504
-0.90396329
-0.0049243639
-0.9602623
-0.0041955117
-1.0209379
-0.0034668593
-1.0862955
-0.0027528085
-1.156846
-0.0020542967
-1.2329075
-0.0013734325
-1.3153142
-0.00068984079
-1.404173
-0.15703253
-0.081907543
-0.16267487
-0.062257872
-0.16578284
-0.041574181
-0.16862985
-0.021137405
-0.17224268
-0.0022480229
-0.17750437
0.01297937
-0.18481826
0.022606219
-0.19335521
0.025037738
-0.20216614
0.019044012
-0.20972044
0.0060253782
-0.09621967
-0.14700748
-0.098685601
-0.13277778
-0.084751127
-0.11823957
-0.053834303
-0.11144173
-0.021345326
-0.13094584
-0.0044212727
-0.15244507
0.022173502
-0.15296551
0.06558262
-0.14336677
0.1121789
-0.13337186
0.15376333
-0.16789962
0.17800874
-0.19192841
0.1909766
-0.22118379
0.19129842
-0.2542329
0.17965326
-0.289591
0.15811384
-0.32527005
0.13022968
-0.35944576
0.10035486
-0.39107085
0.072173523
-0.41992047
0.048007258
-0.44644953
0.028883889
-0.47149232
0.014841341
-0.4961011
0.0051416615
-0.52127003
-0.0011367367
-0.54779493
-0.005021721
-0.57623733